/*--------------------------------*- C++ -*----------------------------------*\
  =========                 |
  \\      /  F ield         | OpenFOAM: The Open Source CFD Toolbox
   \\    /   O peration     | Website:  https://openfoam.org
    \\  /    A nd           | Version:  10
     \\/     M anipulation  |
\*---------------------------------------------------------------------------*/
FoamFile
{
    format      ascii;
    class       surfaceScalarField;
    location    "0.0002";
    object      phi;
}
// * * * * * * * * * * * * * * * * * * * * * * * * * * * * * * * * * * * * * //

dimensions      [0 3 -1 0 0 0 0];

internalField   nonuniform List<scalar> 
7080
(
-1.240325173e-21
-6.63588473e-21
-1.09496244e-21
-5.560178154e-21
-9.310798728e-22
-4.691315853e-21
-7.72304111e-22
-3.988825102e-21
-6.281866708e-22
-3.418065703e-21
-5.017640577e-22
-2.951251773e-21
-3.930650027e-22
-2.566647436e-21
-3.007979935e-22
-2.247396962e-21
-2.231766909e-22
-1.980441355e-21
-1.58321371e-22
-1.755631777e-21
-1.044451084e-22
-1.565038952e-21
-5.993136137e-23
-1.402428027e-21
-2.335798065e-23
-1.262862877e-21
6.505571941e-24
-1.142407832e-21
3.07136056e-23
-1.03790253e-21
5.016384289e-23
-9.467917286e-22
6.561749386e-23
-8.669957718e-22
7.771848536e-23
-7.968111201e-22
8.70109532e-23
-7.348336383e-22
9.395432336e-23
-6.7989927e-22
9.893613026e-23
-6.310377355e-22
1.022831466e-22
-5.874359758e-22
1.042710521e-22
-5.484091671e-22
1.051325373e-22
-5.133777532e-22
1.050639243e-22
-4.818491345e-22
1.042306922e-22
-4.534028626e-22
1.027722583e-22
-4.276785547e-22
1.008060999e-22
-4.043660534e-22
9.843117907e-23
-3.831974526e-22
9.573073614e-23
-3.639405918e-22
9.277463467e-23
-3.463936683e-22
8.962140307e-23
-3.303807318e-22
8.631999907e-23
-3.15747931e-22
8.291126808e-23
-3.023603983e-22
7.942911755e-23
-2.900996389e-22
7.590149803e-23
-2.788613026e-22
7.235128041e-23
-2.685532669e-22
6.879705443e-23
-2.59094006e-22
6.525381626e-23
-2.504112345e-22
6.17335143e-23
-2.424407862e-22
5.824546744e-23
-2.351256677e-22
5.47967085e-23
-2.284152305e-22
5.139230406e-23
-2.222644355e-22
4.803566772e-23
-2.166332064e-22
4.472885087e-23
-2.114858827e-22
4.147278704e-23
-2.067907651e-22
3.826748156e-23
-2.025197426e-22
3.511215909e-23
-1.986479805e-22
3.200539014e-23
-1.951536607e-22
2.894521174e-23
-1.920177724e-22
2.592924597e-23
-1.892239585e-22
2.295481384e-23
-1.867584235e-22
2.001904494e-23
-1.846099079e-22
1.711898505e-23
-1.827697272e-22
1.425167427e-23
-1.812318048e-22
1.141400661e-23
-1.799922837e-22
8.601562681e-24
-1.790470556e-22
5.803439708e-24
-1.783820585e-22
2.982410489e-24
-1.779438453e-22
-1.77569592e-22
-1.646185964e-22
-6.461791405e-21
-2.261001396e-22
-5.498590642e-21
-2.285891221e-22
-4.68877943e-21
-2.015447122e-22
-4.015850301e-21
-1.613727407e-22
-3.458231083e-21
-1.1715972e-22
-2.995463749e-21
-7.381452853e-23
-2.609994014e-21
-3.384238732e-23
-2.287371795e-21
1.632887736e-24
-2.015920098e-21
3.227145422e-23
-1.786274172e-21
5.816581654e-23
-1.5909374e-21
7.963378788e-23
-1.423900425e-21
9.70970646e-23
-1.280330857e-21
1.110108739e-22
-1.15632646e-21
1.218244072e-22
-1.048720981e-21
1.299597997e-22
-9.549322348e-22
1.358021456e-22
-8.728434428e-22
1.396959671e-22
-8.007103795e-22
1.419453215e-22
-7.370884743e-22
1.428158579e-22
-6.807753776e-22
1.4253789e-22
-6.307655335e-22
1.413099552e-22
-5.862140827e-22
1.39302466e-22
-5.464080348e-22
1.36661156e-22
-5.107431301e-22
1.335101962e-22
-4.787051714e-22
1.299550001e-22
-4.498548866e-22
1.260847596e-22
-4.238156095e-22
1.219747008e-22
-4.002632174e-22
1.176880398e-22
-3.78917869e-22
1.132776597e-22
-3.595371765e-22
1.087875712e-22
-3.419105383e-22
1.042542038e-22
-3.258544332e-22
9.970753175e-23
-3.112085127e-22
9.517202758e-23
-2.978323428e-22
9.066745379e-23
-2.856026545e-22
8.620953372e-23
-2.744110028e-22
8.181054132e-23
-2.641617666e-22
7.747982596e-23
-2.54770454e-22
7.322426455e-23
-2.461622746e-22
6.904863283e-23
-2.382709356e-22
6.495590456e-23
-2.31037612e-22
6.09475036e-23
-2.244100533e-22
5.70235331e-23
-2.183418049e-22
5.318299146e-23
-2.127915318e-22
4.942396842e-23
-2.077224381e-22
4.574380953e-23
-2.031017701e-22
4.213924365e-23
-1.989003903e-22
3.860647891e-23
-1.950924086e-22
3.514127848e-23
-1.91654862e-22
3.173902564e-23
-1.885674373e-22
2.839478093e-23
-1.858122287e-22
2.510332945e-23
-1.833735276e-22
2.185922571e-23
-1.812376505e-22
1.865690742e-23
-1.793928736e-22
1.549119539e-23
-1.778297232e-22
1.235923463e-23
-1.76542274e-22
9.266559816e-24
-1.755314668e-22
6.241652902e-24
-1.748097988e-22
3.356663793e-24
-1.743957833e-22
-1.742493807e-22
7.985821667e-22
-6.141206171e-21
5.837110726e-22
-5.283672371e-21
4.443400072e-22
-4.549388117e-21
3.560745056e-22
-3.927577709e-21
3.013945933e-22
-3.403550087e-21
2.683100154e-22
-2.962380906e-21
2.488076903e-22
-2.590494611e-21
2.376093092e-22
-2.276176924e-21
2.312788145e-22
-2.009593606e-21
2.276082261e-22
-1.78260793e-21
2.252027913e-22
-1.588536474e-21
2.232033556e-22
-1.421905643e-21
2.211014621e-22
-1.278233835e-21
2.186163531e-22
-1.153846452e-21
2.15613153e-22
-1.045723095e-21
2.120485916e-22
-9.513732406e-22
2.07935209e-22
-8.687359365e-22
2.033178723e-22
-7.960992024e-22
1.982584182e-22
-7.320353447e-22
1.92825702e-22
-6.753490378e-22
1.870893408e-22
-6.250355868e-22
1.811160032e-22
-5.802472785e-22
1.749673706e-22
-5.402661501e-22
1.686991147e-22
-5.044818798e-22
1.62360481e-22
-4.723737876e-22
1.559942772e-22
-4.434961434e-22
1.496371517e-22
-4.174661279e-22
1.433200492e-22
-3.939539167e-22
1.370687323e-22
-3.726744743e-22
1.309042978e-22
-3.533807421e-22
1.248436764e-22
-3.358579727e-22
1.189001242e-22
-3.199190111e-22
1.130837017e-22
-3.054003478e-22
1.074017158e-22
-2.921587999e-22
1.018591055e-22
-2.800687045e-22
9.645876989e-23
-2.690195374e-22
9.120185395e-23
-2.589138929e-22
8.608800533e-23
-2.496657701e-22
8.111560356e-23
-2.411991165e-22
7.628195652e-23
-2.33446584e-22
7.158346324e-23
-2.263484608e-22
6.701575197e-23
-2.1985175e-22
6.257380615e-23
-2.13909374e-22
5.825208517e-23
-2.084794872e-22
5.40446364e-23
-2.035248822e-22
4.994518934e-23
-1.990124773e-22
4.594722543e-23
-1.949128748e-22
4.204402547e-23
-1.911999803e-22
3.822870322e-23
-1.878506774e-22
3.449423423e-23
-1.848445464e-22
3.083348203e-23
-1.821636183e-22
2.723920647e-23
-1.797921458e-22
2.370400265e-23
-1.777163511e-22
2.022005779e-23
-1.759240781e-22
1.677864463e-23
-1.744042859e-22
1.337004187e-23
-1.731466795e-22
9.988227783e-24
-1.721431058e-22
6.655668396e-24
-1.713948352e-22
3.503066375e-24
-1.70927799e-22
-1.707823099e-22
1.656115967e-21
-5.697749347e-21
1.317995326e-21
-4.9455323e-21
1.066150415e-21
-4.297535829e-21
8.801021271e-22
-3.741528029e-21
7.42563775e-22
-3.266013141e-21
6.401963102e-22
-2.860016228e-21
5.631253776e-22
-2.513427118e-21
5.041926269e-22
-2.217247998e-21
4.582644905e-22
-1.963669638e-21
4.216796823e-22
-1.746027549e-21
3.918336218e-22
-1.558694987e-21
3.668751638e-22
-1.396951896e-21
3.454888449e-22
-1.256852413e-21
3.2673971e-22
-1.13510241e-21
3.099630078e-22
-1.02895169e-21
2.946858957e-22
-9.361017059e-22
2.805719431e-22
-8.546279169e-22
2.673817299e-22
-7.829152319e-22
2.549447252e-22
-7.196047331e-22
2.43139153e-22
-6.635498829e-22
2.318776491e-22
-6.137805413e-22
2.210971315e-22
-5.694733756e-22
2.107516409e-22
-5.299275179e-22
2.00807207e-22
-4.945445425e-22
1.912381252e-22
-4.628119874e-22
1.820242927e-22
-4.342897509e-22
1.731493629e-22
-4.08598813e-22
1.645994916e-22
-3.854118505e-22
1.563624646e-22
-3.64445417e-22
1.484270672e-22
-3.454534245e-22
1.40782638e-22
-3.282216975e-22
1.334187875e-22
-3.125634013e-22
1.263252496e-22
-2.983151848e-22
1.194918112e-22
-2.85333914e-22
1.129082726e-22
-2.734939043e-22
1.065644144e-22
-2.626845777e-22
1.004499767e-22
-2.528084734e-22
9.455465892e-23
-2.437795535e-22
8.886813604e-23
-2.355217511e-22
8.338007973e-23
-2.279677234e-22
7.808017405e-23
-2.210577808e-22
7.295812797e-23
-2.147389661e-22
6.800369299e-23
-2.089642608e-22
6.320669019e-23
-2.036918974e-22
5.855704124e-23
-1.988847616e-22
5.40447919e-23
-1.945098743e-22
4.966011989e-23
-1.905379447e-22
4.53933284e-23
-1.869429889e-22
4.123483426e-23
-1.837020035e-22
3.717516229e-23
-1.807946856e-22
3.320495457e-23
-1.782031942e-22
2.931500111e-23
-1.759119543e-22
2.549627571e-23
-1.73907502e-22
2.173984996e-23
-1.721783168e-22
1.803625104e-23
-1.707144398e-22
1.437361553e-23
-1.695065104e-22
1.073649835e-23
-1.685444236e-22
7.122704659e-24
-1.678191868e-22
3.648555414e-24
-1.673383924e-22
-1.671536975e-22
2.408333014e-21
-5.133552297e-21
1.965991798e-21
-4.503184015e-21
1.622158215e-21
-3.953700442e-21
1.355617015e-21
-3.474987842e-21
1.148560689e-21
-3.058959249e-21
9.8678542e-22
-2.698244188e-21
8.593044977e-22
-2.385949893e-21
7.577709862e-22
-2.115718457e-21
6.759065799e-22
-1.881809421e-21
6.090122441e-22
-1.679137626e-21
5.535767127e-22
-1.503264068e-21
5.069746469e-22
-1.350354591e-21
4.67238848e-22
-1.217121498e-21
4.328904297e-22
-1.100759035e-21
4.028129923e-22
-9.988795539e-22
3.761596847e-22
-9.094540547e-22
3.522846282e-22
-8.307588729e-22
3.306922287e-22
-7.613290734e-22
3.109995754e-22
-6.999183914e-22
2.929084946e-22
-6.454651315e-22
2.761848147e-22
-5.970632894e-22
2.606429892e-22
-5.539381939e-22
2.461346163e-22
-5.154260495e-22
2.325397621e-22
-4.809568167e-22
2.197603617e-22
-4.50039891e-22
2.077152306e-22
-4.222520931e-22
1.963363254e-22
-3.972275692e-22
1.855659251e-22
-3.746492926e-22
1.75354457e-22
-3.542419248e-22
1.656587942e-22
-3.357658192e-22
1.564409342e-22
-3.190119668e-22
1.47667004e-22
-3.037977123e-22
1.393065204e-22
-2.899631084e-22
1.313318208e-22
-2.773678142e-22
1.237175993e-22
-2.658884609e-22
1.164405187e-22
-2.554164152e-22
1.094788966e-22
-2.458558716e-22
1.028124614e-22
-2.371222141e-22
9.642216375e-23
-2.29140606e-22
9.029002232e-23
-2.21844776e-22
8.439898873e-23
-2.151759756e-22
7.873283327e-23
-2.090820832e-22
7.327605641e-23
-2.035168287e-22
6.801382593e-23
-1.984391177e-22
6.293192858e-23
-1.938124413e-22
5.801672152e-23
-1.896043647e-22
5.32550757e-23
-1.857860888e-22
4.863431379e-23
-1.823320758e-22
4.414215214e-23
-1.792197272e-22
3.976665368e-23
-1.764291007e-22
3.549619446e-23
-1.739426591e-22
3.131945347e-23
-1.717450544e-22
2.722546087e-23
-1.698229719e-22
2.320372694e-23
-1.681650681e-22
1.924418043e-23
-1.667619485e-22
1.533570235e-23
-1.65605788e-22
1.146173512e-23
-1.646887542e-22
7.603499131e-24
-1.640008756e-22
3.83325031e-24
-1.635367565e-22
-1.633308227e-22
3.038701296e-21
-4.472112346e-21
2.515475371e-21
-3.979956724e-21
2.100870815e-21
-3.539096738e-21
1.771645608e-21
-3.145764805e-21
1.509275749e-21
-2.796592348e-21
1.299079715e-21
-2.488051639e-21
1.129535934e-21
-2.216409915e-21
9.916800228e-22
-1.97786654e-21
8.785783746e-22
-1.768711975e-21
7.848858022e-22
-1.585449505e-21
7.064861894e-22
-1.424869094e-21
6.4020774e-22
-1.284080871e-21
5.836013109e-22
-1.16051989e-21
5.347699111e-22
-1.051932667e-21
4.922384915e-22
-9.563535138e-22
4.548548665e-22
-8.720761955e-22
4.217144277e-22
-7.976244893e-22
3.921029107e-22
-7.317237428e-22
3.654528353e-22
-6.732745354e-22
3.413103367e-22
-6.213289109e-22
3.193099103e-22
-5.750693024e-22
2.991551336e-22
-5.337900973e-22
2.806038491e-22
-4.968816909e-22
2.634566878e-22
-4.63816791e-22
2.475481595e-22
-4.341386884e-22
2.327397545e-22
-4.074512128e-22
2.189146021e-22
-3.834101398e-22
2.059732928e-22
-3.617158639e-22
1.938305626e-22
-3.421071699e-22
1.824126466e-22
-3.243559376e-22
1.716551887e-22
-3.082626217e-22
1.615016079e-22
-2.936523784e-22
1.519018147e-22
-2.803717435e-22
1.428111742e-22
-2.682857917e-22
1.341896449e-22
-2.572757131e-22
1.260010624e-22
-2.472367413e-22
1.182125541e-22
-2.380763701e-22
1.107940694e-22
-2.297128133e-22
1.037179938e-22
-2.220736716e-22
9.695882275e-23
-2.150947853e-22
9.049288114e-23
-2.087192482e-22
8.429808773e-23
-2.02896555e-22
7.835376741e-23
-1.975818589e-22
7.264050238e-23
-1.927353204e-22
6.714000518e-23
-1.883215382e-22
6.183499739e-23
-1.843090579e-22
5.670908864e-23
-1.806699522e-22
5.174666243e-23
-1.773794631e-22
4.693277866e-23
-1.744156916e-22
4.225309528e-23
-1.717593224e-22
3.769379915e-23
-1.693933752e-22
3.324153594e-23
-1.673029761e-22
2.88833647e-23
-1.654751612e-22
2.460684659e-23
-1.638987594e-22
2.040034089e-23
-1.625644318e-22
1.625273612e-23
-1.614647837e-22
1.214961378e-23
-1.605937565e-22
8.067618228e-24
-1.599440094e-22
4.039184059e-24
-1.595066668e-22
-1.59298215e-22
3.530856918e-21
-3.753670974e-21
2.956335357e-21
-3.405436049e-21
2.494202748e-21
-3.076966127e-21
2.120818066e-21
-2.772382866e-21
1.817816458e-21
-2.493594001e-21
1.570721439e-21
-2.240960215e-21
1.368079309e-21
-2.01377158e-21
1.200834588e-21
-1.81062582e-21
1.061840844e-21
-1.629722501e-21
9.454662135e-22
-1.46907937e-21
8.472744123e-22
-1.32668189e-21
7.637687214e-22
-1.200579828e-21
6.921885335e-22
-1.088944499e-21
6.303490643e-22
-9.900983022e-22
5.765158098e-22
-9.025257498e-22
5.293065727e-22
-8.24872781e-22
4.876151742e-22
-7.559391107e-22
4.505521182e-22
-6.946667889e-22
4.173984598e-22
-6.401270374e-22
3.875699452e-22
-5.915066764e-22
3.605891153e-22
-5.480949519e-22
3.3606354e-22
-5.092712372e-22
3.136687491e-22
-4.744938408e-22
2.931347904e-22
-4.432899822e-22
2.742356351e-22
-4.152468945e-22
2.567808275e-22
-3.900039822e-22
2.40608878e-22
-3.672459558e-22
2.255819868e-22
-3.466968659e-22
2.11581795e-22
-3.281149422e-22
1.985059625e-22
-3.112881283e-22
1.862654319e-22
-2.960302105e-22
1.747822427e-22
-2.821774576e-22
1.639877665e-22
-2.695857146e-22
1.538212527e-22
-2.58127899e-22
1.442286168e-22
-2.476918462e-22
1.351614335e-22
-2.381784485e-22
1.265761109e-22
-2.295000387e-22
1.184332112e-22
-2.215789834e-22
1.1069688e-22
-2.143464639e-22
1.033343599e-22
-2.077414236e-22
9.631557434e-23
-2.017096586e-22
8.96127838e-23
-1.962030255e-22
8.320030591e-23
-1.911787455e-22
7.705428459e-23
-1.865987913e-22
7.115248551e-23
-1.824293527e-22
6.547410303e-23
-1.786403775e-22
5.99995777e-23
-1.752051791e-22
5.471043401e-23
-1.721000994e-22
4.958914782e-23
-1.693042138e-22
4.461904246e-23
-1.667990683e-22
3.978419828e-23
-1.645684444e-22
3.506935078e-23
-1.625981463e-22
3.045976651e-23
-1.608758041e-22
2.594117426e-23
-1.59390702e-22
2.149998901e-23
-1.581337118e-22
1.712376332e-23
-1.57097453e-22
1.279936087e-23
-1.562763988e-22
8.504960779e-24
-1.556653847e-22
4.247635882e-24
-1.552567172e-22
-1.550559988e-22
3.879091843e-21
-3.023072016e-21
3.284805278e-21
-2.811151254e-21
2.798786009e-21
-2.590949295e-21
2.399606931e-21
-2.373206783e-21
2.070450244e-21
-2.164440699e-21
1.797910074e-21
-1.968423654e-21
1.571225068e-21
-1.78709038e-21
1.381737907e-21
-1.621142735e-21
1.222483975e-21
-1.470472909e-21
1.087863694e-21
-1.334463566e-21
9.733764745e-22
-1.212199188e-21
8.754040503e-22
-1.10261202e-21
7.9103473e-22
-1.004580046e-21
7.179216167e-22
-9.169904108e-22
6.541687786e-22
-8.387784713e-22
5.982402429e-22
-7.689500442e-22
5.48887496e-22
-7.065923023e-22
5.050918697e-22
-6.508771959e-22
4.660188207e-22
-6.010601358e-22
4.309816697e-22
-5.564758386e-22
3.994128301e-22
-5.165326331e-22
3.708409364e-22
-4.807060837e-22
3.448726077e-22
-4.485324684e-22
3.211778781e-22
-4.196024278e-22
2.994785474e-22
-3.935549659e-22
2.795388539e-22
-3.700719052e-22
2.611579678e-22
-3.488728537e-22
2.441639106e-22
-3.297106974e-22
2.284086089e-22
-3.12367595e-22
2.137638804e-22
-2.966514274e-22
2.001181849e-22
-2.823926557e-22
1.873739857e-22
-2.694415513e-22
1.754455821e-22
-2.576657699e-22
1.642573055e-22
-2.469482377e-22
1.537420144e-22
-2.371853087e-22
1.438398433e-22
-2.282851523e-22
1.344971663e-22
-2.201663384e-22
1.256657307e-22
-2.127565992e-22
1.173019204e-22
-2.05991751e-22
1.093661249e-22
-1.998147588e-22
1.018222074e-22
-1.941749203e-22
9.463706379e-23
-1.890271471e-22
8.778026018e-23
-1.84331329e-22
8.122372318e-23
-1.800517732e-22
7.494146068e-23
-1.761567175e-22
6.890930142e-23
-1.726179125e-22
6.31046574e-23
-1.694102637e-22
5.750631967e-23
-1.665115194e-22
5.209429335e-23
-1.639019937e-22
4.684966633e-23
-1.61564317e-22
4.175449631e-23
-1.594832162e-22
3.679169306e-23
-1.576453249e-22
3.194486856e-23
-1.560390148e-22
2.719816448e-23
-1.546542304e-22
2.253624779e-23
-1.534823471e-22
1.794481751e-23
-1.525161877e-22
1.341037501e-23
-1.517502921e-22
8.913628296e-24
-1.511804951e-22
4.44835428e-24
-1.508011335e-22
-1.506128003e-22
4.091012604e-21
-2.318395735e-21
3.505007238e-21
-2.22514834e-21
3.01652852e-21
-2.102473329e-21
2.608373015e-21
-1.965054387e-21
2.266467289e-21
-1.822538372e-21
1.979243348e-21
-1.681203337e-21
1.737172714e-21
-1.545023627e-21
1.532407733e-21
-1.416381909e-21
1.358493318e-21
-1.296562833e-21
1.210128071e-21
-1.186102729e-21
1.082963643e-21
-1.085039243e-21
9.734360243e-22
-9.930890773e-22
8.786243652e-22
-9.097733684e-22
7.961335562e-22
-8.345049001e-22
7.239972056e-22
-7.666476678e-22
6.605979849e-22
-7.055565463e-22
6.046026024e-22
-6.50602783e-22
5.549089298e-22
-6.011895287e-22
5.106031179e-22
-5.567604919e-22
4.709248752e-22
-5.168039476e-22
4.352393794e-22
-4.808536864e-22
4.030145517e-22
-4.4848801e-22
3.738026483e-22
-4.193275351e-22
3.4722534e-22
-3.930323204e-22
3.229616081e-22
-3.692986678e-22
3.007379054e-22
-3.478558405e-22
2.803201241e-22
-3.284628592e-22
2.61507013e-22
-3.109054678e-22
2.441247764e-22
-2.949933129e-22
2.28022652e-22
-2.805573467e-22
2.130692893e-22
-2.674474592e-22
1.991497671e-22
-2.55530342e-22
1.861631143e-22
-2.446875818e-22
1.740202345e-22
-2.348139675e-22
1.626421708e-22
-2.258159894e-22
1.519586572e-22
-2.176105039e-22
1.419069055e-22
-2.10123549e-22
1.324305789e-22
-2.032892996e-22
1.234789125e-22
-1.970491507e-22
1.150059634e-22
-1.913509143e-22
1.069699806e-22
-1.861481093e-22
9.933288191e-23
-1.813993293e-22
9.205981596e-23
-1.770676789e-22
8.511877887e-23
-1.731202785e-22
7.848026567e-23
-1.695278348e-22
7.211695027e-23
-1.662642722e-22
6.600340164e-23
-1.633064137e-22
6.011584538e-23
-1.606336977e-22
5.44319701e-23
-1.582279228e-22
4.893076713e-23
-1.560730168e-22
4.359238755e-23
-1.541548339e-22
3.839800323e-23
-1.524609846e-22
3.332965297e-23
-1.509806953e-22
2.837004778e-23
-1.497046769e-22
2.350240717e-23
-1.486249813e-22
1.871071305e-23
-1.477349057e-22
1.398017204e-23
-1.470291472e-22
9.292989908e-24
-1.465038962e-22
4.636687459e-24
-1.461550019e-22
-1.459812356e-22
4.184259999e-21
-1.665589053e-21
3.627682248e-21
-1.668573404e-21
3.153947463e-21
-1.628741519e-21
2.750889029e-21
-1.561999114e-21
2.407802324e-21
-1.479455057e-21
2.115423059e-21
-1.388827727e-21
1.865814431e-21
-1.295418936e-21
1.652226809e-21
-1.202798451e-21
1.468953422e-21
-1.11329374e-21
1.311191558e-21
-1.028345246e-21
1.174913808e-21
-9.487660262e-22
1.056751733e-21
-8.749317821e-22
9.538928334e-22
-8.069195266e-22
8.639907885e-22
-7.446081493e-22
7.850883271e-22
-6.877506854e-22
7.155517482e-22
-6.360256153e-22
6.540158567e-22
-5.89072719e-22
5.993379666e-22
-5.465176539e-22
5.505596622e-22
-5.079883871e-22
5.068751364e-22
-4.731257993e-22
4.676050558e-22
-4.415901639e-22
4.321750265e-22
-4.130647359e-22
4.000978631e-22
-3.872573495e-22
3.709589927e-22
-3.639006692e-22
3.444044353e-22
-3.427515634e-22
3.201308867e-22
-3.235899384e-22
2.978775155e-22
-3.062172714e-22
2.774191679e-22
-2.904549977e-22
2.585607426e-22
-2.761428492e-22
2.411325396e-22
-2.631372069e-22
2.249864065e-22
-2.513095154e-22
2.099925274e-22
-2.405447924e-22
1.960367285e-22
-2.307402549e-22
1.830182126e-22
-2.218040631e-22
1.708476564e-22
-2.136541772e-22
1.59445612e-22
-2.062173192e-22
1.48741155e-22
-1.994280376e-22
1.386707278e-22
-1.932278714e-22
1.291771489e-22
-1.875646081e-22
1.202087684e-22
-1.82391622e-22
1.117187606e-22
-1.776672805e-22
1.036645323e-22
-1.733544082e-22
9.600721633e-23
-1.694198083e-22
8.871122255e-23
-1.658338416e-22
8.174382825e-23
-1.625700622e-22
7.507480885e-23
-1.596049023e-22
6.867611765e-23
-1.569173949e-22
6.252162024e-23
-1.544889228e-22
5.658687608e-23
-1.523029899e-22
5.084895002e-23
-1.503450144e-22
4.528623682e-23
-1.486021482e-22
3.98782926e-23
-1.470631274e-22
3.460567133e-23
-1.457181511e-22
2.944974335e-23
-1.445587796e-22
2.439248282e-23
-1.435778214e-22
1.941647153e-23
-1.427692076e-22
1.450542309e-23
-1.421280062e-22
9.641884181e-24
-1.416506211e-22
4.810453756e-24
-1.413338179e-22
-1.411759112e-22
4.181275647e-21
-1.078330507e-21
3.667514134e-21
-1.154814671e-21
3.220689868e-21
-1.181920276e-21
2.833433086e-21
-1.174745533e-21
2.498429655e-21
-1.144455057e-21
2.208831849e-21
-1.099233626e-21
1.958434916e-21
-1.045025963e-21
1.74173152e-21
-9.86099207e-22
1.553901916e-21
-9.254684258e-22
1.390770777e-21
-8.65218539e-22
1.248748052e-21
-8.067479286e-22
1.124763989e-21
-7.509525736e-22
1.016204211e-21
-6.983648126e-22
9.208482524e-22
-6.492574308e-22
8.368133972e-22
-6.037212437e-22
7.625046445e-22
-5.617224775e-22
6.965709218e-22
-5.231448317e-22
6.378672335e-22
-4.878200094e-22
5.854222499e-22
-4.555496255e-22
5.384107718e-22
-4.261207021e-22
4.961304838e-22
-3.993164234e-22
4.57982413e-22
-3.749234107e-22
4.234545433e-22
-3.527364602e-22
3.921080985e-22
-3.325614561e-22
3.635660604e-22
-3.142169894e-22
3.375035537e-22
-2.975350792e-22
3.136397892e-22
-2.823612834e-22
2.917313165e-22
-2.685543983e-22
2.715663849e-22
-2.55985886e-22
2.529602311e-22
-2.445391336e-22
2.357511294e-22
-2.341086236e-22
2.197970649e-22
-2.245990753e-22
2.049729203e-22
-2.159245965e-22
1.911680985e-22
-2.080078639e-22
1.782845143e-22
-2.007793426e-22
1.662348936e-22
-1.941765531e-22
1.549413212e-22
-1.881433922e-22
1.443339912e-22
-1.826295145e-22
1.34350135e-22
-1.775897689e-22
1.249331099e-22
-1.729836853e-22
1.160316329e-22
-1.687750043e-22
1.075991322e-22
-1.649312467e-22
9.959318302e-23
-1.61423328e-22
9.197500196e-23
-1.582252189e-22
8.470898811e-23
-1.5531365e-22
7.776231626e-23
-1.526678523e-22
7.110458973e-23
-1.502693236e-22
6.470755315e-23
-1.481016126e-22
5.854485166e-23
-1.461501213e-22
5.259181613e-23
-1.444019275e-22
4.682525764e-23
-1.428456324e-22
4.122326895e-23
-1.414712331e-22
3.576504284e-23
-1.402700198e-22
3.043070156e-23
-1.392344902e-22
2.520109656e-23
-1.383582665e-22
2.005767298e-23
-1.376359859e-22
1.498280815e-23
-1.3706324e-22
9.958687404e-24
-1.366367159e-22
4.968360434e-24
-1.363537481e-22
-1.362126857e-22
4.104791483e-21
-5.606458892e-22
3.640408529e-21
-6.904343767e-22
3.227864611e-21
-7.693793317e-22
2.863723562e-21
-8.106077141e-22
2.543651086e-21
-8.243860694e-22
2.263039512e-21
-8.186257967e-22
2.017361673e-21
-7.993521008e-22
1.802362301e-21
-7.711040076e-22
1.614151803e-21
-7.372622685e-22
1.449241388e-21
-7.003126321e-22
1.304543407e-21
-6.620546378e-22
1.17735175e-21
-6.237657821e-22
1.065311592e-21
-5.863296817e-22
9.663844395e-22
-5.503354689e-22
8.788121634e-22
-5.161543596e-22
8.010822904e-22
-4.839982348e-22
7.31895744e-22
-4.53964154e-22
6.701376174e-22
-4.26067951e-22
6.148511734e-22
-4.002694046e-22
5.652150504e-22
-3.764909409e-22
5.205234966e-22
-3.54631394e-22
4.801693635e-22
-3.345760124e-22
4.436295474e-22
-3.162036305e-22
4.104525652e-22
-2.993917192e-22
3.802479706e-22
-2.840198657e-22
3.526773495e-22
-2.69972099e-22
3.274466743e-22
-2.571383705e-22
3.042998288e-22
-2.454154162e-22
2.830131373e-22
-2.347071657e-22
2.633907412e-22
-2.249248331e-22
2.452606777e-22
-2.159867916e-22
2.284715437e-22
-2.078183112e-22
2.128896529e-22
-2.003512126e-22
1.983966198e-22
-1.935234694e-22
1.848873039e-22
-1.872787834e-22
1.722680545e-22
-1.815661525e-22
1.604551989e-22
-1.763394479e-22
1.493737368e-22
-1.7155701e-22
1.389562185e-22
-1.671812654e-22
1.291417909e-22
-1.631783643e-22
1.198753905e-22
-1.595178372e-22
1.111070509e-22
-1.561722769e-22
1.027912922e-22
-1.531170505e-22
9.488657091e-23
-1.503300446e-22
8.735478577e-23
-1.477914402e-22
8.016084496e-23
-1.454835101e-22
7.32723007e-23
-1.433904296e-22
6.665904447e-23
-1.414981002e-22
6.029304548e-23
-1.397939856e-22
5.414811126e-23
-1.382669687e-22
4.819965685e-23
-1.369072292e-22
4.242448233e-23
-1.357061424e-22
3.680057236e-23
-1.346561935e-22
3.130692532e-23
-1.337509051e-22
2.592337712e-23
-1.329847712e-22
2.063041892e-23
-1.323531761e-22
1.540933222e-23
-1.318523158e-22
1.024165522e-23
-1.314792624e-22
5.109422843e-24
-1.312317767e-22
-1.311083974e-22
3.975002996e-21
-1.102324133e-22
3.561463574e-21
-2.768976277e-22
3.186636228e-21
-3.945549265e-22
2.849945206e-21
-4.739199217e-22
2.549411358e-21
-5.238557232e-22
2.282313208e-21
-5.515314111e-22
2.045609766e-21
-5.626526719e-22
1.83620404e-21
-5.617025082e-22
1.65110144e-21
-5.521640661e-22
1.487499382e-21
-5.367151221e-22
1.342832263e-21
-5.173922136e-22
1.21478785e-21
-4.957262112e-22
1.101305805e-21
-4.728526353e-22
1.000565549e-21
-4.49600399e-22
9.109682883e-22
-4.265625189e-22
8.311163712e-22
-4.041519918e-22
7.59791947e-22
-3.826456321e-22
6.959361638e-22
-3.622182424e-22
6.386296372e-22
-3.42969081e-22
5.870745973e-22
-3.249422328e-22
5.405788781e-22
-3.0814218e-22
4.985417454e-22
-2.925456168e-22
4.604414587e-22
-2.781103481e-22
4.258244187e-22
-2.64781941e-22
3.942957373e-22
-2.52498655e-22
3.655110779e-22
-2.411950617e-22
3.391696286e-22
-2.308046585e-22
3.150080792e-22
-2.21261714e-22
2.927954699e-22
-2.125025283e-22
2.723287827e-22
-2.044662572e-22
2.534291581e-22
-1.970954217e-22
2.359386422e-22
-1.9033619e-22
2.197173961e-22
-1.84138495e-22
2.046413058e-22
-1.784560329e-22
1.905999348e-22
-1.732461745e-22
1.774947591e-22
-1.684698216e-22
1.652376368e-22
-1.640912298e-22
1.537494814e-22
-1.600778127e-22
1.429591196e-22
-1.563999356e-22
1.32802318e-22
-1.530307015e-22
1.232209508e-22
-1.499457388e-22
1.141622773e-22
-1.471229957e-22
1.055782981e-22
-1.445425521e-22
9.742517528e-23
-1.421864485e-22
8.966271594e-23
-1.400385314e-22
8.22539254e-23
-1.380843059e-22
7.516463017e-23
-1.363107944e-22
6.836315904e-23
-1.347064005e-22
6.182006238e-23
-1.332607841e-22
5.550785074e-23
-1.319647532e-22
4.940074366e-23
-1.308101741e-22
4.347443126e-23
-1.297898961e-22
3.770586075e-23
-1.28897685e-22
3.207305925e-23
-1.281281626e-22
2.655497223e-23
-1.274767522e-22
2.113127921e-23
-1.269396205e-22
1.578238557e-23
-1.265136095e-22
1.04891409e-23
-1.261962526e-22
5.23280222e-24
-1.259856989e-22
-1.258807244e-22
3.808337781e-21
2.78642406e-22
3.443806275e-21
8.763109324e-23
3.107271233e-21
-5.802289343e-23
2.800009405e-21
-1.666613678e-22
2.52173567e-21
-2.455855264e-22
2.271191947e-21
-3.009915041e-22
2.04655993e-21
-3.380247308e-22
1.845742482e-21
-3.608893364e-22
1.666550384e-21
-3.729763844e-22
1.50682229e-21
-3.769915696e-22
1.364498266e-21
-3.750728671e-22
1.237661426e-21
-3.688942059e-22
1.124558042e-21
-3.597542631e-22
1.023603429e-21
-3.486510125e-22
9.333788154e-22
-3.363433787e-22
8.526227308e-22
-3.234016264e-22
7.802193367e-22
-3.102481586e-22
7.151853252e-22
-2.971902934e-22
6.566564853e-22
-2.844464161e-22
6.038746501e-22
-2.721667086e-22
5.561754414e-22
-2.604494792e-22
5.12977014e-22
-2.49353952e-22
4.737698659e-22
-2.38910235e-22
4.381077047e-22
-2.291270555e-22
4.055993307e-22
-2.199977389e-22
3.759014811e-22
-2.115048024e-22
3.487125731e-22
-2.036234551e-22
3.23767265e-22
-1.963242359e-22
3.00831741e-22
-1.895749786e-22
2.796996182e-22
-1.833422621e-22
2.601883899e-22
-1.775924696e-22
2.421363372e-22
-1.72292552e-22
2.253998583e-22
-1.674105605e-22
2.098511642e-22
-1.62916003e-22
1.953762877e-22
-1.587800649e-22
1.818733509e-22
-1.54975732e-22
1.692510538e-22
-1.514778438e-22
1.574273586e-22
-1.482630944e-22
1.463283537e-22
-1.453099949e-22
1.358872807e-22
-1.42598806e-22
1.260436938e-22
-1.401114516e-22
1.167427209e-22
-1.378314262e-22
1.079344016e-22
-1.357437027e-22
9.957309242e-23
-1.338346439e-22
9.161694143e-23
-1.320919146e-22
8.402743688e-23
-1.305043907e-22
7.676902409e-23
-1.290620654e-22
6.980877548e-23
-1.277559572e-22
6.311609325e-23
-1.265780247e-22
5.66624298e-23
-1.255210958e-22
5.042102169e-23
-1.245788087e-22
4.436664241e-23
-1.237455617e-22
3.847538314e-23
-1.230164671e-22
3.272446957e-23
-1.223873033e-22
2.709210401e-23
-1.218544715e-22
2.155729017e-23
-1.214149535e-22
1.609974247e-23
-1.21066264e-22
1.069969457e-23
-1.20806445e-22
5.337776718e-24
-1.206340358e-22
-1.205480684e-22
3.617326469e-21
6.130657287e-22
3.298152288e-21
4.068023789e-22
2.998632759e-21
2.414935466e-22
2.721085246e-21
1.108828026e-22
2.466329693e-21
9.16642482e-24
2.23415872e-21
-6.882441169e-23
2.023695324e-21
-1.275654494e-22
1.833655434e-21
-1.708537196e-22
1.662535199e-21
-2.018605395e-22
1.508740993e-21
-2.232018859e-22
1.370676927e-21
-2.370134842e-22
1.246801369e-21
-2.45023511e-22
1.135661292e-21
-2.486192448e-22
1.035911063e-21
-2.489060645e-22
9.463205677e-22
-2.467584081e-22
8.657761987e-22
-2.428630076e-22
7.932772018e-22
-2.377550852e-22
7.279292025e-22
-2.318483394e-22
6.689361928e-22
-2.254595656e-22
6.155918795e-22
-2.188287126e-22
5.672709685e-22
-2.121351102e-22
5.23420731e-22
-2.055105244e-22
4.835530454e-22
-1.990496195e-22
4.472370213e-22
-1.928183117e-22
4.140922672e-22
-1.868604168e-22
3.837828284e-22
-1.812029148e-22
3.560117923e-22
-1.758600926e-22
3.305165223e-22
-1.708367841e-22
3.070644575e-22
-1.661308936e-22
2.854494106e-22
-1.617353558e-22
2.654883075e-22
-1.576396552e-22
2.470183287e-22
-1.538309971e-22
2.298944158e-22
-1.50295199e-22
2.139871024e-22
-1.470173603e-22
1.991806205e-22
-1.43982358e-22
1.853712391e-22
-1.411752105e-22
1.724658033e-22
-1.385813403e-22
1.60380458e-22
-1.361867583e-22
1.490395426e-22
-1.339781833e-22
1.383746351e-22
-1.319431123e-22
1.283237192e-22
-1.300698567e-22
1.188304444e-22
-1.28347555e-22
1.098434604e-22
-1.267661732e-22
1.013158217e-22
-1.253164933e-22
9.320446534e-23
-1.239900902e-22
8.546976212e-23
-1.227792957e-22
7.807513237e-23
-1.216771538e-22
7.098670793e-23
-1.206773727e-22
6.417302211e-23
-1.197742817e-22
5.760471699e-23
-1.189627953e-22
5.125426864e-23
-1.18238385e-22
4.509573705e-23
-1.175970529e-22
3.910454689e-23
-1.170353038e-22
3.325730138e-23
-1.165501132e-22
2.753162201e-23
-1.161388952e-22
2.190597971e-23
-1.15799475e-22
1.635956148e-23
-1.155300589e-22
1.087210369e-23
-1.153292265e-22
5.423744105e-24
-1.151959189e-22
-1.151294346e-22
3.411063119e-21
9.002038772e-22