/*--------------------------------*- C++ -*----------------------------------*\
  =========                 |
  \\      /  F ield         | OpenFOAM: The Open Source CFD Toolbox
   \\    /   O peration     | Website:  https://openfoam.org
    \\  /    A nd           | Version:  6
     \\/     M anipulation  |
\*---------------------------------------------------------------------------*/
FoamFile
{
    version     2.0;
    format      ascii;
    class       volScalarField;
    location    "0.0043";
    object      Num_divU;
}
// * * * * * * * * * * * * * * * * * * * * * * * * * * * * * * * * * * * * * //

dimensions      [0 0 -1 0 0 0 0];

internalField   nonuniform List<scalar> 
600
(
9.025104247e-08
4.152595104e-08
9.621406532e-09
-1.267147289e-08
-2.798298682e-08
-3.681492725e-08
-3.696356149e-08
-2.338899291e-08
1.29100118e-08
8.697050384e-08
2.247932142e-07
4.720703806e-07
9.05292709e-07
1.588339894e-06
2.143722029e-06
2.260595932e-06
-1.302163503e-06
-7.674564424e-11
-8.107608531e-11
-4.466798752e-11
3.604978552e-12
3.601422359e-11
3.200379521e-11
6.925535963e-12
2.853248469e-11
1.498170835e-10
8.992091796e-11
2.491469952e-11
1.542852939e-06
-4.155813154e-11
1.154766624e-07
6.095701848e-08
2.396620875e-08
-2.201693733e-09
-1.976652642e-08
-2.900081712e-08
-2.736916444e-08
-9.283623756e-09
3.476377941e-08
1.188472482e-07
2.622575066e-07
4.874813764e-07
8.132312832e-07
1.232677461e-06
1.807220709e-06
2.756445173e-06
5.750248199e-06
5.897271712e-06
-7.052762365e-07
1.23975985e-11
-6.636864559e-13
2.665350795e-11
4.509852857e-12
-2.461745682e-11
4.68335116e-11
7.790591259e-18
-1.32309434e-06
-1.217652241e-06
-1.371754493e-07
9.30847556e-07
1.243006811e-07
6.862873046e-08
2.998679442e-08
2.041879029e-09
-1.713797926e-08
-2.764444531e-08
-2.692599508e-08
-9.360839097e-09
3.414859816e-08
1.16141065e-07
2.505955028e-07
4.466733571e-07
6.951704004e-07
9.528111712e-07
1.214449068e-06
1.579493801e-06
2.055033047e-06
2.581041772e-06
7.132727877e-06
1.641652376e-05
-2.49546079e-11
2.050390245e-11
-5.687254614e-12
8.02517475e-11
6.645840632e-12
1.000376507e-05
-1.810572073e-06
-2.026126887e-06
-3.141781566e-06
-1.767299307e-06
1.185857292e-07
6.596025085e-08
2.855842353e-08
4.85422676e-10
-1.98813411e-08
-3.263054638e-08
-3.534865348e-08
-2.266358547e-08
1.458893299e-08
9.017218803e-08
2.230059089e-07
4.356166333e-07
7.467326745e-07
1.150818202e-06
1.706721205e-06
2.61569303e-06
5.564428884e-06
5.737426433e-06
-8.692896621e-07
-7.170829392e-11
-9.34087164e-12
1.871562702e-11
5.060125751e-11
2.005398422e-11
1.11897531e-10
3.393656814e-11
-1.789623497e-06
-1.395307295e-06
-2.354095274e-07
8.557376873e-07
1.009545903e-07
5.492553749e-08
2.105552494e-08
-5.85263718e-09
-2.715649376e-08
-4.305545796e-08
-5.165969321e-08
-4.844847253e-08
-2.515046884e-08
3.252678968e-08
1.498833814e-07
3.721435918e-07
7.755294951e-07
1.425547444e-06
1.944147852e-06
2.035177437e-06
-1.510282389e-06
-4.887426984e-11
-5.658235024e-11
-4.825666199e-11
-8.095329875e-12
1.531476803e-11
2.750577867e-11
7.9747352e-11
6.447009831e-11
4.563734298e-11
6.079186128e-11
3.217049193e-11
1.518732397e-06
2.555059803e-11
7.497371369e-08
3.802899691e-08
9.289187451e-09
-1.555955474e-08
-3.758985527e-08
-5.725147967e-08
-7.35633712e-08
-8.390950599e-08
-8.359232781e-08
-6.454794438e-08
-1.075036156e-08
1.153803995e-07
4.134106258e-07
1.012862173e-06
2.712438929e-06
1.925533047e-06
-2.94475371e-11
-3.449701982e-11
-5.523276986e-11
-3.590963597e-11
-2.480405583e-12
1.9841256e-11
3.142249635e-11
4.719547173e-11
6.438205917e-11
6.713303308e-11
6.149369158e-11
9.883418812e-11
7.725150195e-11
4.641459285e-11
4.487787754e-08
1.816386936e-08
-4.68441905e-09
-2.698210933e-08
-4.949125211e-08
-7.288655074e-08
-9.707866373e-08
-1.214513076e-07
-1.456483902e-07
-1.718963015e-07
-2.097207097e-07
-2.818334686e-07
-3.586709433e-07
2.396270075e-07
1.100334775e-06
3.564454611e-06
-4.067278867e-11
-4.193038191e-11
-3.925885959e-11
-2.589405464e-11
-2.670538863e-12
1.648678614e-11
2.838633503e-11
4.532901472e-11
5.007563568e-11
5.53878019e-11
7.794926754e-11
8.55869556e-11
7.266047106e-11
4.866457082e-11
1.513401158e-08
-1.691398966e-09
-1.878699491e-08
-3.850536973e-08
-6.129501303e-08
-8.791882347e-08
-1.18728343e-07
-1.536387e-07
-1.922054415e-07
-2.342323931e-07
-2.813901436e-07
-3.459966606e-07
-7.017470086e-07
-1.106001016e-06
-2.337238139e-06
-3.972197309e-11
-3.679444657e-11
-3.598882827e-11
-3.617672892e-11
-2.541252686e-11
-6.260569691e-12
1.154837876e-11
2.351830776e-11
3.525660209e-11
4.736421395e-11
5.743202101e-11
7.150694724e-11
8.333184973e-11
7.15663774e-11
4.938104886e-11
-1.017150398e-08
-1.883738593e-08
-3.115987175e-08
-4.874025448e-08
-7.182060464e-08
-1.013552306e-07
-1.383045993e-07
-1.836382575e-07
-2.381179571e-07
-3.017739308e-07
-3.726471253e-07
-4.663463743e-07
-1.185942223e-06
-2.08240802e-06
-1.626195455e-06
-2.770784082e-11
-3.266228792e-11
-3.604166618e-11
-3.569296335e-11
-2.660735248e-11
-1.179528376e-11
3.531467075e-12
1.839629876e-11
3.479932678e-11
5.124097831e-11
6.555614728e-11
7.71177596e-11
8.22002999e-11
7.024058238e-11
4.932388359e-11
-2.786812532e-08
-3.116917044e-08
-4.032571622e-08
-5.649759409e-08
-7.986848618e-08
-1.116653132e-07
-1.537540303e-07
-2.092869957e-07
-2.841533895e-07
-3.895227482e-07
-5.442583079e-07
-7.609112107e-07
-7.552951946e-07
-8.996391954e-07
-1.930532156e-08
-3.011229691e-11
-3.332499072e-11
-3.582827143e-11
-3.615629278e-11
-3.175963154e-11
-1.904793092e-11
-3.521386079e-12
1.626865174e-11
3.984379154e-11
6.059928292e-11
7.714296666e-11
8.497174514e-11
7.793863693e-11
7.132467603e-11
5.074117154e-11
-3.61655837e-08
-3.746960736e-08
-4.537845279e-08
-6.094353299e-08
-8.430041315e-08
-1.166561352e-07
-1.598830822e-07
-2.172236954e-07
-2.947337333e-07
-4.039547158e-07
-5.641109855e-07
-7.887049019e-07
-7.931765703e-07
-9.549046836e-07
-5.513561473e-08
-3.01775297e-11
-3.8290623e-11
-4.017164546e-11
-4.197128815e-11
-3.171281498e-11
-2.145568558e-11
-2.978427418e-12
2.219883837e-11
4.853964466e-11
7.639945751e-11
8.50754124e-11
7.330162373e-11
7.868294952e-11
4.853485538e-11
4.104858569e-11
-3.485189746e-08
-3.755828678e-08
-4.616471668e-08
-6.193687627e-08
-8.498271567e-08
-1.161724711e-07
-1.565105864e-07
-2.071733379e-07
-2.694398325e-07
-3.442147739e-07
-4.310407548e-07
-5.472673099e-07
-1.297807486e-06
-2.24976093e-06
-1.743156283e-06
-3.441991659e-11
-5.244476087e-11
-4.436485777e-11
-3.286222257e-11
-3.630203892e-11
-2.007173433e-11
5.304283971e-12
3.339460289e-11
6.361532698e-11
7.360583567e-11
7.473140417e-11
6.515577804e-11
1.700160404e-11
5.025187519e-11
2.717547683e-11
-2.529441492e-08
-3.228679075e-08
-4.327181714e-08
-6.004001643e-08
-8.279494646e-08
-1.121582592e-07
-1.485250486e-07
-1.921227849e-07
-2.431945048e-07
-3.027744746e-07
-3.742545002e-07
-4.729906957e-07
-8.822251016e-07
-1.390627894e-06
-2.427327587e-06
-3.151605363e-11
-4.134318131e-11
-4.468268639e-11
-5.501408624e-11
-2.431896866e-11
-6.730454568e-12
1.841516091e-11
4.695624339e-11
5.753954081e-11
8.076497298e-11
4.670376714e-11
-5.695112866e-12
8.158100185e-11
4.778142726e-11
3.761302395e-11
-1.01250774e-08
-2.331593166e-08
-3.781505918e-08
-5.61436004e-08
-7.86995207e-08
-1.059455338e-07
-1.378339426e-07
-1.741084263e-07
-2.151753444e-07
-2.644366294e-07
-3.328814009e-07
-4.44706307e-07
-5.698742882e-07
-1.861050262e-08
8.76540485e-07
3.344638614e-06
-4.72350774e-11
-4.858299264e-11
6.784155513e-12
-6.03090058e-11
-2.265100015e-12
4.058222644e-11
5.05202411e-11
6.637704576e-11
1.169178242e-11
5.25257971e-11
7.787438795e-11
6.67061458e-11
7.903303498e-11
3.081278579e-11
7.221920057e-09
-1.280603473e-08
-3.121960963e-08
-5.130722612e-08
-7.364231049e-08
-9.839055889e-08
-1.246076247e-07
-1.500662652e-07
-1.708557489e-07
-1.800184904e-07
-1.629471047e-07
-8.365984703e-08
1.538888811e-07
6.636661008e-07
2.193411037e-06
1.632292628e-06
-1.64446005e-11
3.322335266e-11
-1.007688285e-10
-2.091933684e-11
-2.440743004e-11
2.446873684e-11
3.808066616e-11
-1.625162551e-11
1.609996879e-10
6.066438194e-11
4.261247569e-11
5.52797241e-11
3.375649101e-11
1.593432563e-11
2.316634737e-08
-3.031728429e-09
-2.501807275e-08
-4.6749777e-08
-6.891510979e-08
-9.138363446e-08
-1.12272521e-07
-1.274989446e-07
-1.294911879e-07
-1.048774823e-07
-2.903933786e-08
1.427975425e-07
4.877411297e-07
1.068549671e-06
1.481424692e-06
1.557448407e-06
-1.83176816e-06
-4.630433192e-11
-1.325611936e-11
-1.01295109e-10
-3.620692682e-11
1.400110665e-11
9.217281067e-14
1.586521121e-10
7.527276079e-11
3.026211578e-11
1.065315423e-11
5.45051595e-17
1.551948118e-06
1.898767546e-12
3.459524268e-08
4.032300832e-09
-2.058442777e-08
-4.360931127e-08
-6.586761328e-08
-8.700208471e-08
-1.04685071e-07
-1.139545787e-07
-1.064313137e-07
-6.906336674e-08
1.657272761e-08
1.732405532e-07
4.210198008e-07
7.581292779e-07
1.251415264e-06
2.100219145e-06
5.008120182e-06
5.405272653e-06
-8.142425433e-07
-3.540532452e-11
7.992372063e-12
3.108818106e-11
6.859786083e-11
5.833200112e-11
1.33545476e-11
9.015193815e-18
-1.432620863e-06
-1.313796281e-06
-2.355041002e-07
1.041744401e-06
3.947853866e-08
7.053335439e-09
-1.883484728e-08
-4.269754144e-08
-6.539573658e-08
-8.656473818e-08
-1.037605221e-07
-1.119319313e-07
-1.028168301e-07
-6.469697436e-08
1.600278233e-08
1.489813681e-07
3.271642644e-07
5.129101584e-07
7.119349549e-07
1.018768361e-06
1.48810221e-06
2.286347111e-06
6.767198341e-06
1.613760401e-05
2.651704546e-11
3.299335964e-11
2.72696228e-11
-1.381727089e-11
-2.317571117e-12
9.913777277e-06
-1.926572588e-06
-2.101339377e-06
-3.263177421e-06
-1.606727826e-06
3.718038374e-08
5.614840803e-09
-2.006920493e-08
-4.428100466e-08
-6.779519339e-08
-9.044210364e-08
-1.098924935e-07
-1.214021688e-07
-1.165022173e-07
-8.228622119e-08
-1.868843389e-10
1.522073236e-07
3.950138223e-07
7.27320901e-07
1.215909681e-06
2.038042261e-06
4.962079529e-06
5.385486392e-06
-8.402509916e-07
-2.710452632e-11
1.265003745e-11
2.29191474e-11
6.640631767e-12
-2.074407469e-12
4.402949187e-11
2.918652868e-11
-1.647122632e-06
-1.496636366e-06
8.653124524e-08
9.630169045e-07
2.85961515e-08
3.26448863e-10
-2.395374588e-08
-4.802608793e-08
-7.279061913e-08
-9.817667569e-08
-1.22646558e-07
-1.421950317e-07
-1.495182025e-07
-1.31055934e-07
-6.244578505e-08
1.012648656e-07
4.370391843e-07
1.006191847e-06
1.385330443e-06
1.440560724e-06
-1.918016563e-06
-9.069950639e-11
-6.832242736e-11
-3.549201993e-11
-3.471857438e-12
1.790893064e-11
1.213303274e-11
2.748152061e-11
2.129314493e-11
1.353250277e-10
6.68511154e-11
1.335017352e-11
1.469588199e-06
-6.599761767e-11
)
;

boundaryField
{
    lowerWall
    {
        type            calculated;
        value           nonuniform 0();
    }
    atmosphere
    {
        type            calculated;
        value           nonuniform List<scalar> 
20
(
9.025104247e-08
1.154766624e-07
1.243006811e-07
1.185857292e-07
1.009545903e-07
7.497371369e-08
4.487787754e-08
1.513401158e-08
-1.017150398e-08
-2.786812532e-08
-3.61655837e-08
-3.485189746e-08
-2.529441492e-08
-1.01250774e-08
7.221920057e-09
2.316634737e-08
3.459524268e-08
3.947853866e-08
3.718038374e-08
2.85961515e-08
)
;
    }
    rightWall
    {
        type            empty;
    }
    leftWall
    {
        type            empty;
    }
    frontAndBack
    {
        type            calculated;
        value           nonuniform 0();
    }
    procBoundary2to0
    {
        type            processor;
        value           nonuniform List<scalar> 
30
(
4.679589582e-08
9.13844517e-09
-1.340088118e-08
-2.914055679e-08
-4.12637066e-08
-5.028819575e-08
-5.464572998e-08
-5.066747261e-08
-3.256567493e-08
8.971139466e-09
9.105273634e-08
2.525255285e-07
5.937390872e-07
1.237926896e-06
3.000330551e-06
2.155018855e-06
-3.953467009e-11
-4.854855367e-11
-7.138070021e-11
-6.150942311e-11
-1.445840227e-11
1.562639855e-11
2.058736656e-11
4.508269189e-12
7.108886814e-11
1.019989643e-10
1.075936983e-10
5.031876649e-11
-2.428171201e-11
9.72044786e-11
)
;
    }
    procBoundary2to3
    {
        type            processor;
        value           nonuniform List<scalar> 
20
(
5.707936867e-11
-4.721979718e-11
-4.098817237e-11
-2.631415274e-11
1.715055749e-11
4.672616861e-11
5.180571924e-11
5.813739001e-11
6.313183243e-11
6.577643268e-11
5.759418548e-11
3.306180553e-11
1.080599958e-11
4.816514462e-11
3.208285527e-11
-2.53416226e-11
-3.439822361e-11
-2.554206781e-12
-3.668161038e-11
9.0043293e-11
)
;
    }
    procBoundary2to4
    {
        type            processor;
        value           nonuniform List<scalar> 
30
(
1.604688374e-08
-7.462134433e-09
-2.947478675e-08
-5.323692894e-08
-7.943169545e-08
-1.085530156e-07
-1.399501749e-07
-1.718409208e-07
-2.004349633e-07
-2.189349485e-07
-2.126879014e-07
-1.462682889e-07
7.59116873e-08
5.685501467e-07
2.066648622e-06
1.528158628e-06
-4.11558829e-11
-5.502617556e-11
-9.737386659e-11
-6.715522141e-11
-1.536198587e-11
2.300217997e-11
3.407642074e-11
4.155113905e-12
7.903356925e-11
8.891926585e-11
1.175502103e-10
5.739457561e-11
-2.646991937e-11
1.151070177e-10
)
;
    }
}


// ************************************************************************* //
