/*--------------------------------*- C++ -*----------------------------------*\
  =========                 |
  \\      /  F ield         | OpenFOAM: The Open Source CFD Toolbox
   \\    /   O peration     | Website:  https://openfoam.org
    \\  /    A nd           | Version:  6
     \\/     M anipulation  |
\*---------------------------------------------------------------------------*/
FoamFile
{
    version     2.0;
    format      ascii;
    class       volVectorField;
    location    "0.0031";
    object      U;
}
// * * * * * * * * * * * * * * * * * * * * * * * * * * * * * * * * * * * * * //

dimensions      [0 1 -1 0 0 0 0];

internalField   nonuniform List<vector> 
600
(
(0 1.701964067e-10 -1.442208383e-13)
(0 1.710463865e-10 -4.201974288e-13)
(0 1.722740969e-10 -6.557471076e-13)
(0 1.736593792e-10 -8.198173075e-13)
(0 1.750080855e-10 -8.786685299e-13)
(0 1.760369203e-10 -7.949594707e-13)
(0 1.763724358e-10 -5.272127693e-13)
(0 1.755431764e-10 -3.200419704e-14)
(0 1.729762935e-10 7.316120809e-13)
(0 1.680055351e-10 1.792341708e-12)
(0 1.599030613e-10 3.152682553e-12)
(0 1.479482191e-10 4.769864199e-12)
(0 1.315379217e-10 6.539425143e-12)
(0 1.103212042e-10 8.293046452e-12)
(8.889857278e-53 8.430747586e-11 9.834536136e-12)
(5.91865589e-53 5.38719112e-11 1.102753058e-11)
(0 1.960350248e-11 1.190467363e-11)
(0 -1.79162428e-11 1.266185754e-11)
(0 -5.805393634e-11 1.33351786e-11)
(0 -9.931760738e-11 1.318645903e-11)
(0 -1.38109416e-10 1.069803738e-11)
(0 -1.690108471e-10 5.22310268e-12)
(0 -1.869307384e-10 -2.521201969e-12)
(0 -1.882782187e-10 -1.196692822e-11)
(0 -1.705320093e-10 -2.296974187e-11)
(0 -1.325254728e-10 -3.461242778e-11)
(0 -7.743190991e-11 -4.317057835e-11)
(0 -1.702228576e-11 -4.294191946e-11)
(0 3.097984421e-11 -2.914542022e-11)
(0 1.179204762e-12 7.477477534e-25)
(0 1.694086182e-10 -4.465031285e-13)
(0 1.703431077e-10 -1.302367722e-12)
(0 1.717283808e-10 -2.039106947e-12)
(0 1.733526497e-10 -2.56508465e-12)
(0 1.750299737e-10 -2.780745903e-12)
(0 1.764860935e-10 -2.574771009e-12)
(0 1.773543557e-10 -1.823416774e-12)
(0 1.771627718e-10 -3.950142249e-13)
(0 1.753229774e-10 1.836529765e-12)
(0 1.711286772e-10 4.965249554e-12)
(0 1.637780543e-10 9.00999436e-12)
(0 1.524396445e-10 1.385563451e-11)
(0 1.363787085e-10 1.919229425e-11)
(0 1.15143238e-10 2.44938157e-11)
(0 8.87619424e-11 2.911058365e-11)
(0 5.782470096e-11 3.255485265e-11)
(0 2.32432389e-11 3.492129431e-11)
(0 -1.438737604e-11 3.702203851e-11)
(0 -5.531644106e-11 3.940306531e-11)
(0 -9.953672842e-11 3.991286419e-11)
(0 -1.434550427e-10 3.306837332e-11)
(0 -1.798128401e-10 1.667012672e-11)
(0 -2.027251478e-10 -6.219199149e-12)
(0 -2.095011694e-10 -3.371652024e-11)
(0 -1.976961724e-10 -6.616813121e-11)
(0 -1.631974898e-10 -1.02121198e-10)
(0 -1.049200323e-10 -1.30037371e-10)
(0 -3.368638527e-11 -1.311966558e-10)
(0 2.833451449e-11 -8.974141015e-11)
(0 1.221492938e-12 8.00815528e-25)
(0 1.680321327e-10 -7.934377117e-13)
(0 1.691047732e-10 -2.320576375e-12)
(0 1.707431741e-10 -3.65700992e-12)
(0 1.7274923e-10 -4.655922909e-12)
(0 1.749503056e-10 -5.15673098e-12)
(0 1.770872079e-10 -4.97832507e-12)
(0 1.788061182e-10 -3.917106755e-12)
(0 1.796388201e-10 -1.751589811e-12)
(0 1.789810846e-10 1.739367601e-12)
(0 1.760759255e-10 6.738550414e-12)
(0 1.70016977e-10 1.332129405e-11)
(0 1.597979219e-10 2.134917985e-11)
(0 1.444463019e-10 3.033445157e-11)
(0 1.232810521e-10 3.933638471e-11)
(1.001492215e-52 9.628720759e-11 4.704234167e-11)
(6.889090425e-53 6.443351342e-11 5.227657378e-11)
(0 2.94514239e-11 5.505462222e-11)
(0 -7.545989864e-12 5.75233435e-11)
(0 -4.827472364e-11 6.260809341e-11)
(0 -9.634154129e-11 6.741478626e-11)
(0 -1.484631165e-10 5.841179531e-11)
(0 -1.929587298e-10 3.068478788e-11)
(0 -2.225881687e-10 -6.165482229e-12)
(0 -2.379672067e-10 -4.816817367e-11)
(0 -2.385980476e-10 -9.897994261e-11)
(0 -2.152391382e-10 -1.622710257e-10)
(0 -1.575753336e-10 -2.173985804e-10)
(0 -7.285922555e-11 -2.266794148e-10)
(0 1.160548624e-11 -1.583917091e-10)
(0 1.313564863e-12 9.030904737e-25)
(0 1.659318341e-10 -1.209142347e-12)
(0 1.671886881e-10 -3.548995613e-12)
(0 1.69162833e-10 -5.638046815e-12)
(0 1.716743243e-10 -7.282423466e-12)
(0 1.745681748e-10 -8.268604561e-12)
(0 1.77605831e-10 -8.354062241e-12)
(0 1.804532375e-10 -7.262157103e-12)
(0 1.826548552e-10 -4.684223491e-12)
(0 1.836014413e-10 -2.949674175e-13)
(0 1.824946215e-10 6.20799255e-12)
(0 1.783180468e-10 1.502141332e-11)
(0 1.698412487e-10 2.608257852e-11)
(0 1.557176887e-10 3.882338828e-11)
(0 1.347935163e-10 5.187160692e-11)
(-1.13034995e-52 1.06757279e-10 6.29216435e-11)
(-7.570095901e-53 7.305160931e-11 6.932600151e-11)
(0 3.71998534e-11 7.020954703e-11)
(0 2.557569194e-12 6.986622221e-11)
(0 -3.431661595e-11 7.826957848e-11)
(0 -8.582007561e-11 9.539432113e-11)
(0 -1.500871777e-10 8.836565163e-11)
(0 -2.044397093e-10 4.616583672e-11)
(0 -2.390050344e-10 -2.979489007e-12)
(0 -2.634467492e-10 -5.151492673e-11)
(0 -2.844943727e-10 -1.112636585e-10)
(0 -2.847355691e-10 -2.060555889e-10)
(0 -2.350315143e-10 -3.030671271e-10)
(0 -1.34334065e-10 -3.331843406e-10)
(0 -1.655293754e-11 -2.414619579e-10)
(0 1.473550082e-12 1.057088662e-24)
(0 1.629315874e-10 -1.714655909e-12)
(0 1.644081025e-10 -5.05171794e-12)
(0 1.667811792e-10 -8.09286127e-12)
(0 1.698921376e-10 -1.060759396e-11)
(0 1.736056529e-10 -1.234102767e-11)
(0 1.777063808e-10 -1.300179371e-11)
(0 1.818845157e-10 -1.225381788e-11)
(0 1.857072405e-10 -9.712692427e-12)
(0 1.885816331e-10 -4.951209491e-12)
(0 1.897048704e-10 2.475980694e-12)
(0 1.879958688e-10 1.296198381e-11)
(0 1.820140663e-10 2.667760576e-11)
(0 1.699262469e-10 4.321283084e-11)
(0 1.49726382e-10 6.095525884e-11)
(0 1.201333128e-10 7.634005147e-11)
(0 8.262382361e-11 8.384107574e-11)
(0 4.381664169e-11 7.905483194e-11)
(0 1.385470088e-11 6.750787629e-11)
(0 -1.044288269e-11 7.633862957e-11)
(0 -6.244638355e-11 1.231479139e-10)
(0 -1.448467925e-10 1.256734034e-10)
(0 -2.089245796e-10 5.72781293e-11)
(0 -2.398177174e-10 -2.526914344e-12)
(0 -2.67437123e-10 -4.30218144e-11)
(0 -3.171541779e-10 -8.786599813e-11)
(0 -3.604066195e-10 -2.189933545e-10)
(0 -3.330278073e-10 -3.825866583e-10)
(0 -2.170862517e-10 -4.530313686e-10)
(0 -5.547661072e-11 -3.467298621e-10)
(0 1.739029228e-12 1.293478752e-24)
(0 1.588252277e-10 -2.326040041e-12)
(0 1.605435428e-10 -6.877648793e-12)
(0 1.633543782e-10 -1.110520444e-11)
(0 1.671211973e-10 -1.475382386e-11)
(0 1.71726431e-10 -1.75406935e-11)
(0 1.769742217e-10 -1.914157119e-11)
(0 1.825749077e-10 -1.918061426e-11)
(0 1.881197076e-10 -1.722198716e-11)
(0 1.930514632e-10 -1.276238125e-11)
(0 1.96620662e-10 -5.227053086e-12)
(0 1.977971658e-10 6.012077202e-12)
(0 1.950894273e-10 2.153205804e-11)
(0 1.862530725e-10 4.150292356e-11)
(0 1.680715947e-10 6.47541338e-11)
(0 1.369916831e-10 8.689531135e-11)
(0 9.246541146e-11 9.796081747e-11)
(0 4.431552374e-11 8.391532313e-11)
(0 1.951087695e-11 4.24846619e-11)
(0 2.495632453e-11 3.524022355e-11)
(0 -2.080870566e-11 1.479162948e-10)
(0 -1.295086761e-10 1.738907992e-10)
(0 -1.994247944e-10 5.00397888e-11)
(0 -2.090671051e-10 -1.713616884e-11)
(0 -2.23842673e-10 -2.994538888e-11)
(0 -3.050329525e-10 -9.901114826e-12)
(0 -4.144619842e-10 -1.81415614e-10)
(0 -4.361163638e-10 -4.484948999e-10)
(0 -3.139557693e-10 -5.807984592e-10)
(0 -1.05005477e-10 -4.820166816e-10)
(0 2.189459246e-12 1.696705643e-24)
(0 1.533867293e-10 -3.053669442e-12)
(0 1.553542164e-10 -9.058060085e-12)
(0 1.58614729e-10 -1.472791092e-11)
(0 1.630525684e-10 -1.979632832e-11)
(0 1.685616924e-10 -2.396569365e-11)
(0 1.749534617e-10 -2.689390821e-11)
(0 1.819386427e-10 -2.818577639e-11)
(0 1.891085486e-10 -2.738645779e-11)
(0 1.959281374e-10 -2.397084413e-11)
(0 2.017356223e-10 -1.731639046e-11)
(0 2.057066557e-10 -6.644833727e-12)
(0 2.066659439e-10 9.054685759e-12)
(0 2.025241493e-10 3.097296324e-11)
(0 1.89143994e-10 5.972782026e-11)
(0 1.592129304e-10 9.248178884e-11)
(0 1.049796011e-10 1.157602579e-10)
(0 3.289060451e-11 9.720012828e-11)
(0 5.285015903e-12 -6.406702048e-12)
(0 6.478957543e-11 -8.069505241e-11)
(0 2.907402077e-11 1.794836578e-10)
(0 -9.357376551e-11 2.59223426e-10)
(0 -1.532392519e-10 -6.864630241e-12)
(0 -1.311042334e-10 -6.345283954e-11)
(0 -1.186391806e-10 -4.103750872e-11)
(0 -2.07234825e-10 1.620767871e-10)
(0 -3.698071967e-10 -6.200260934e-11)
(0 -4.994749744e-10 -4.863880609e-10)
(0 -3.979624166e-10 -6.8217435e-10)
(0 -1.682267394e-10 -6.485505329e-10)
(0 3.007070296e-12 2.455368404e-24)
(0 1.463821689e-10 -3.901914227e-12)
(0 1.48590906e-10 -1.160584253e-11)
(0 1.522857102e-10 -1.898188308e-11)
(0 1.573698991e-10 -2.576270705e-11)
(0 1.637409991e-10 -3.164578434e-11)
(0 1.711990834e-10 -3.62788062e-11)
(0 1.794182956e-10 -3.925553597e-11)
(0 1.87925976e-10 -4.012214403e-11)
(0 1.961172098e-10 -3.838951602e-11)
(0 2.033285376e-10 -3.352988177e-11)
(0 2.089704228e-10 -2.489783911e-11)
(0 2.126108007e-10 -1.145550208e-11)
(0 2.135824089e-10 8.822758652e-12)
(0 2.090461975e-10 3.957119082e-11)
(0 1.889207606e-10 8.452341023e-11)
(0 1.310710219e-10 1.359600568e-10)
(0 1.189477258e-11 1.444084391e-10)
(0 -3.054230991e-11 -5.414163309e-11)
(0 9.615284852e-11 -3.575719216e-10)
(0 1.149349754e-24 1.44969933e-11)
(0 -3.178355267e-24 9.856881804e-12)
(0 -1.421625653e-24 -4.289457775e-12)
(0 -3.086546247e-25 -2.731153132e-12)
(0 8.557923372e-25 -3.677980115e-12)
(0 2.57328942e-24 1.102872886e-11)
(0 -2.420320936e-24 1.589582012e-11)
(0 -4.359642384e-10 -4.858454603e-10)
(0 -3.884213857e-10 -6.65815916e-10)
(0 -2.745275144e-10 -8.19248318e-10)
(0 4.657345893e-12 3.536189856e-24)
(0 1.375833202e-10 -4.869333193e-12)
(0 1.400095888e-10 -1.451591695e-11)
(0 1.440957115e-10 -2.385753279e-11)
(0 1.497650293e-10 -3.263791641e-11)
(0 1.569157527e-10 -4.055583914e-11)
(0 1.653229594e-10 -4.724397765e-11)
(0 1.745840223e-10 -5.226572592e-11)
(0 1.840678761e-10 -5.513886343e-11)
(0 1.929080267e-10 -5.539766599e-11)
(0 2.001070885e-10 -5.269395993e-11)
(0 2.048694499e-10 -4.688219428e-11)
(0 2.072943953e-10 -3.786664553e-11)
(0 2.092768154e-10 -2.460866565e-11)
(0 2.14086959e-10 -2.230149325e-12)
(0 2.182312594e-10 4.3249849e-11)
(0 1.882250627e-10 1.310756804e-10)
(0 -4.98067099e-12 2.621090618e-10)
(0 2.604195917e-24 -4.213845945e-12)
(0 -1.037839384e-11 -8.672419469e-12)
(0 -1.026772936e-11 1.850501793e-11)
(0 6.088936224e-12 1.384661649e-11)
(0 7.53657639e-12 -4.158267492e-12)
(0 6.114776588e-13 -2.95628744e-12)
(0 -6.364729333e-12 -2.883975774e-12)
(0 -5.301587064e-12 1.652315593e-11)
(0 9.095882305e-12 2.292807153e-11)
(0 8.979567017e-12 -1.480182803e-12)
(0 -1.324432424e-24 9.834756208e-12)
(0 -5.543697838e-10 -8.395997465e-10)
(0 8.481423204e-12 -2.272521122e-11)
(0 1.267834622e-10 -5.949158614e-12)
(0 1.293858824e-10 -1.776560553e-11)
(0 1.337884294e-10 -2.931498034e-11)
(0 1.399421621e-10 -4.036811364e-11)
(0 1.47757578e-10 -5.063326014e-11)
(0 1.569952981e-10 -5.971509613e-11)
(0 1.671700995e-10 -6.70966433e-11)
(0 1.774322107e-10 -7.21606544e-11)
(0 1.86449991e-10 -7.428611017e-11)
(0 1.923618403e-10 -7.307918479e-11)
(0 1.929995814e-10 -6.880743174e-11)
(0 1.869130086e-10 -6.30144033e-11)
(0 1.762662783e-10 -5.880492297e-11)
(0 1.7303635e-10 -5.882871325e-11)
(0 2.014714679e-10 -5.527775909e-11)
(0 2.922873825e-10 -2.318057743e-11)
(0 1.115998926e-11 1.113528854e-11)
(0 1.620296717e-11 -2.31129642e-12)
(0 2.594252349e-12 -9.853471773e-12)
(0 -2.356351033e-12 5.474959788e-12)
(0 2.212101859e-12 5.952366198e-12)
(0 3.321707374e-12 1.180523031e-12)
(0 1.27429172e-12 6.800230431e-13)
(0 -6.451679379e-13 2.378179461e-12)
(0 9.366600393e-13 8.61720536e-12)
(0 6.872048295e-12 1.049955606e-11)
(0 7.031296249e-12 4.432167091e-13)
(0 8.424600317e-12 1.487204069e-11)
(0 -1.611399863e-11 1.406729109e-12)
(0 -2.617158294e-11 -6.472928491e-11)
(0 1.138184585e-10 -7.130855852e-12)
(0 1.165339569e-10 -2.131439254e-11)
(0 1.211329036e-10 -3.527822066e-11)
(0 1.276103987e-10 -4.885099112e-11)
(0 1.359212693e-10 -6.177459518e-11)
(0 1.458628323e-10 -7.362477762e-11)
(0 1.569407305e-10 -8.375417354e-11)
(0 1.681741298e-10 -9.126521305e-11)
(0 1.778104816e-10 -9.50488041e-11)
(0 1.829060636e-10 -9.397601941e-11)
(0 1.787608997e-10 -8.74236306e-11)
(0 1.584559203e-10 -7.646344316e-11)
(0 1.137010901e-10 -6.599007984e-11)
(0 4.250520635e-11 -6.651813128e-11)
(1.908146822e-52 -3.418385249e-11 -7.381439801e-11)
(3.892490471e-52 -4.238546786e-12 2.97633655e-24)
(0 -2.311296268e-12 1.610456174e-11)
(0 3.886626612e-12 3.772665308e-12)
(0 2.158637986e-12 -6.022217041e-13)
(0 7.873327739e-13 2.545044437e-12)
(0 1.794499451e-12 3.307030397e-12)
(0 2.264233219e-12 2.247489515e-12)
(0 1.809134091e-12 2.117130365e-12)
(0 1.572453005e-12 3.098943378e-12)
(0 2.819789563e-12 5.067717427e-12)
(0 5.67266951e-12 5.258614047e-12)
(0 8.601276077e-12 2.593532125e-12)
(0 1.633734804e-11 3.591301715e-12)
(0 3.527405832e-11 -9.64099679e-12)
(0 -4.176210386e-12 -3.210488617e-11)
(0 9.859962496e-11 -8.406527679e-12)
(0 1.01338191e-10 -2.510606043e-11)
(0 1.059435077e-10 -4.162080801e-11)
(0 1.12479953e-10 -5.790076624e-11)
(0 1.209931747e-10 -7.377954693e-11)
(0 1.313986555e-10 -8.884366723e-11)
(0 1.433438631e-10 -1.023281541e-10)
(0 1.560050376e-10 -1.13011039e-10)
(0 1.677573968e-10 -1.191058468e-10)
(0 1.755836585e-10 -1.181713682e-10)
(0 1.738967571e-10 -1.070854609e-10)
(0 1.520650854e-10 -8.224897817e-11)
(0 8.88997593e-11 -4.058525996e-11)
(0 -4.875272365e-11 1.52914277e-11)
(0 -3.431498557e-10 8.378731549e-11)
(0 -8.770825274e-12 -1.055703028e-11)
(0 -9.94273217e-12 2.339498505e-12)
(0 -5.038159798e-13 1.899967531e-12)
(0 1.366631485e-12 1.127029218e-12)
(0 1.552901059e-12 2.000365422e-12)
(0 1.914546939e-12 2.483015842e-12)
(0 2.131807346e-12 2.384912681e-12)
(0 2.125745581e-12 2.44150458e-12)
(0 2.305419116e-12 2.83246282e-12)
(0 3.096330702e-12 3.296041112e-12)
(0 4.397862999e-12 2.874377026e-12)
(0 5.36398392e-12 1.081707664e-12)
(0 4.619489553e-12 -1.889478808e-12)
(0 -6.810187769e-12 -1.166935296e-11)
(0 -9.696210796e-12 1.225717554e-11)
(0 8.117273552e-11 -9.79512165e-12)
(0 8.38098237e-11 -2.908423968e-11)
(0 8.812387811e-11 -4.814876974e-11)
(0 9.429127549e-11 -6.719086831e-11)
(0 1.024896459e-10 -8.623598353e-11)
(0 1.128126232e-10 -1.049674322e-10)
(0 1.251727558e-10 -1.226083849e-10)
(0 1.391817645e-10 -1.377797878e-10)
(0 1.5400326e-10 -1.483260174e-10)
(0 1.682180324e-10 -1.511223404e-10)
(0 1.798197817e-10 -1.418820422e-10)
(0 1.866335749e-10 -1.150968054e-10)
(0 1.856517376e-10 -6.532381437e-11)
(0 1.882828535e-10 -5.642863723e-13)
(0 1.431835699e-11 1.148828655e-24)
(0 1.822556311e-11 -1.070300907e-11)
(0 5.394925685e-12 -2.840322896e-12)
(0 2.674157352e-12 3.606625666e-13)
(0 2.259035885e-12 1.20998562e-12)
(0 2.143319399e-12 1.846252701e-12)
(0 2.179046711e-12 2.239532798e-12)
(0 2.222721958e-12 2.367317254e-12)
(0 2.256684231e-12 2.431064235e-12)
(0 2.426989536e-12 2.492941788e-12)
(0 2.861703767e-12 2.409822445e-12)
(0 3.45833606e-12 1.86162818e-12)
(0 3.837420245e-12 7.482259467e-13)
(0 3.586287441e-12 -5.614743884e-13)
(0 2.935713197e-12 -9.189666155e-13)
(0 5.119604562e-12 2.206805115e-12)
(0 6.184373795e-11 -1.142320167e-11)
(0 6.417695768e-11 -3.324087359e-11)
(0 6.773408216e-11 -5.45927821e-11)
(0 7.289548708e-11 -7.620170241e-11)
(0 7.997833792e-11 -9.840462857e-11)
(0 8.923289441e-11 -1.210659751e-10)
(0 1.008032882e-10 -1.435150479e-10)
(0 1.146616588e-10 -1.644208808e-10)
(0 1.305150564e-10 -1.816538713e-10)
(0 1.477563285e-10 -1.922661199e-10)
(0 1.657020638e-10 -1.928269309e-10)
(0 1.848350905e-10 -1.803596536e-10)
(0 2.076509642e-10 -1.534051685e-10)
(0 2.627249233e-10 -1.04752193e-10)
(0 9.421602367e-12 -2.776197712e-24)
(0 1.326423908e-11 5.286744355e-12)
(0 5.871715287e-12 1.392036463e-12)
(0 3.546492549e-12 1.17280569e-12)
(0 2.852221622e-12 1.505752918e-12)
(0 2.582448239e-12 1.93481477e-12)
(0 2.435611493e-12 2.261193761e-12)
(0 2.323338783e-12 2.413424485e-12)
(0 2.251370116e-12 2.42221371e-12)
(0 2.284177327e-12 2.2982929e-12)
(0 2.465017093e-12 1.988874892e-12)
(0 2.736266498e-12 1.41462907e-12)
(0 2.940881346e-12 6.11338967e-13)
(0 2.952296988e-12 -1.854217496e-13)
(0 2.902508638e-12 -5.958114825e-13)
(0 3.230742463e-12 -6.30069894e-13)
(0 4.153629765e-11 -1.380645482e-11)
(0 4.297549261e-11 -3.77161173e-11)
(0 4.502843749e-11 -6.060878277e-11)
(0 4.8347507e-11 -8.420820672e-11)
(0 5.329449151e-11 -1.092066386e-10)
(0 6.016291013e-11 -1.356568047e-10)
(0 6.920532775e-11 -1.630290796e-10)
(0 8.05584029e-11 -1.900668227e-10)
(0 9.399778644e-11 -2.145509864e-10)
(0 1.083379012e-10 -2.331121329e-10)
(0 1.200850728e-10 -2.413244512e-10)
(0 1.206341596e-10 -2.343550101e-10)
(0 9.235190655e-11 -2.076754042e-10)
(0 -1.443224136e-12 -1.473309211e-10)
(0 -5.270285989e-12 -1.288404513e-24)
(0 -5.257787752e-12 5.582271964e-12)
(0 1.280987029e-12 1.948573868e-12)
(0 2.787873807e-12 1.432406395e-12)
(0 3.021044963e-12 1.705036515e-12)
(0 2.898760241e-12 2.125660485e-12)
(0 2.657656424e-12 2.456603555e-12)
(0 2.383741906e-12 2.60269071e-12)
(0 2.141552646e-12 2.546012056e-12)
(0 1.993650719e-12 2.289300843e-12)
(0 1.978039939e-12 1.833179858e-12)
(0 2.080800138e-12 1.197291869e-12)
(0 2.237369429e-12 4.684058264e-13)
(0 2.379136994e-12 -1.952386277e-13)
(0 2.491065054e-12 -6.483984254e-13)
(0 2.517080207e-12 -9.327678922e-13)
(0 2.294268144e-11 -1.846578948e-11)
(0 2.085551892e-11 -4.274670236e-11)
(0 2.031688234e-11 -6.571514152e-11)
(0 2.092076792e-11 -9.030458097e-11)
(0 2.268830559e-11 -1.173347367e-10)
(0 2.576705869e-11 -1.469434558e-10)
(0 3.043208731e-11 -1.78739243e-10)
(0 3.703708538e-11 -2.115629192e-10)
(0 4.585321635e-11 -2.43014077e-10)
(0 5.659468805e-11 -2.687277825e-10)
(0 6.721316162e-11 -2.81317023e-10)
(0 7.117149747e-11 -2.690315691e-10)
(0 5.32545183e-11 -2.153881511e-10)
(0 -2.154115809e-11 -1.122219174e-10)
(0 -5.120737165e-12 1.869868548e-24)
(0 -4.911798543e-12 -5.031029937e-12)
(0 1.721849729e-12 -6.12636979e-13)
(0 3.302955199e-12 9.030243952e-13)
(0 3.545475713e-12 1.755993039e-12)
(0 3.33401528e-12 2.405787377e-12)
(0 2.912641718e-12 2.836547506e-12)
(0 2.412747284e-12 2.994614806e-12)
(0 1.937980248e-12 2.870045412e-12)
(0 1.571345129e-12 2.48011752e-12)
(0 1.373008119e-12 1.857717384e-12)
(0 1.371492466e-12 1.073318083e-12)
(0 1.54835085e-12 2.607085259e-13)
(0 1.835492736e-12 -4.150813575e-13)
(0 2.164979374e-12 -8.694455444e-13)
(0 2.4079638e-12 -9.811362813e-13)
(0 -3.656083273e-13 -3.493502555e-11)
(0 -4.011344687e-12 -4.920477689e-11)
(0 -6.635827101e-12 -6.933082143e-11)
(0 -8.947459941e-12 -9.350448699e-11)
(0 -1.110966959e-11 -1.214221917e-10)
(0 -1.311312182e-11 -1.530467679e-10)
(0 -1.471993938e-11 -1.881442583e-10)
(0 -1.537235651e-11 -2.258647186e-10)
(0 -1.401672579e-11 -2.641645337e-10)
(0 -8.775680462e-12 -2.989278786e-10)
(0 3.734752834e-12 -3.22601085e-10)
(0 3.000350527e-11 -3.222066207e-10)
(0 8.023986246e-11 -2.774592882e-10)
(0 1.905066255e-10 -1.678588419e-10)
(0 9.823295558e-12 3.162179307e-24)
(0 1.425418675e-11 -4.96909303e-12)
(0 7.215041362e-12 -2.709754956e-13)
(0 5.156503826e-12 1.036179337e-12)
(0 4.523807947e-12 2.009948441e-12)
(0 3.979314709e-12 2.904715629e-12)
(0 3.246483853e-12 3.489004594e-12)
(0 2.417239812e-12 3.669279562e-12)
(0 1.627055359e-12 3.45977212e-12)
(0 9.8132269e-13 2.90378832e-12)
(0 5.712405008e-13 2.044469196e-12)
(0 4.837912784e-13 9.780060005e-13)
(0 7.489699872e-13 -8.36188805e-14)
(0 1.248982923e-12 -8.560058712e-13)
(0 1.925010129e-12 -1.432505279e-12)
(0 2.959090618e-12 -1.694814512e-12)
(0 -2.886108347e-11 -4.107880068e-11)
(0 -3.119050335e-11 -5.197336061e-11)
(0 -3.496511448e-11 -6.980339412e-11)
(0 -4.008137575e-11 -9.273475929e-11)
(0 -4.664181228e-11 -1.202148851e-10)
(0 -5.476810118e-11 -1.52189005e-10)
(0 -6.444212997e-11 -1.886440336e-10)
(0 -7.531529553e-11 -2.29203917e-10)
(0 -8.641945561e-11 -2.726514297e-10)
(0 -9.570684318e-11 -3.162958722e-10)
(0 -9.932042813e-11 -3.551139506e-10)
(0 -9.044981183e-11 -3.803596708e-10)
(0 -5.945978095e-11 -3.758044588e-10)
(0 1.876217077e-11 -2.982430712e-10)
(0 1.478555714e-11 -7.108196939e-25)
(0 1.96926133e-11 1.030131593e-11)
(0 7.727122096e-12 3.461923727e-12)
(0 5.583879134e-12 1.503116585e-12)
(0 5.414012004e-12 2.342478386e-12)
(0 4.813071433e-12 3.713715543e-12)
(0 3.677205651e-12 4.545378491e-12)
(0 2.38351481e-12 4.734018577e-12)
(0 1.172489006e-12 4.396433291e-12)
(0 1.560422048e-13 3.631047716e-12)
(0 -5.527741994e-13 2.438448341e-12)
(0 -7.565956109e-13 8.772821082e-13)
(0 -2.856610216e-13 -7.162952519e-13)
(0 4.866063389e-13 -1.491971665e-12)
(0 1.326170733e-12 -2.310841282e-12)
(0 4.893389575e-12 -5.417879205e-12)
(0 -5.461128613e-11 -4.2100526e-11)
(0 -5.721366164e-11 -5.104758958e-11)
(0 -6.246589415e-11 -6.661070224e-11)
(0 -7.051111495e-11 -8.740443612e-11)
(0 -8.168710348e-11 -1.129091381e-10)
(0 -9.643462123e-11 -1.431034497e-10)
(0 -1.151862378e-10 -1.781293099e-10)
(0 -1.382060821e-10 -2.179563287e-10)
(0 -1.653904653e-10 -2.619748556e-10)
(0 -1.961053869e-10 -3.084441413e-10)
(0 -2.293364225e-10 -3.53677477e-10)
(0 -2.648590871e-10 -3.906736006e-10)
(0 -3.072379374e-10 -4.064746654e-10)
(0 -3.668287519e-10 -3.757590505e-10)
(0 -4.85987513e-10 -2.710706311e-10)
(0 -7.159276845e-12 1.008983019e-11)
(0 -6.333933822e-12 -2.43589437e-12)
(0 4.037058483e-12 -8.293953616e-13)
(0 6.734406905e-12 2.141853757e-12)
(0 6.182214815e-12 5.061424296e-12)
(0 4.266786888e-12 6.244655519e-12)
(0 2.268294612e-12 6.325280993e-12)
(0 5.240844977e-13 5.761172233e-12)
(0 -9.766622599e-13 4.785255263e-12)
(0 -2.182525107e-12 3.199977266e-12)
(0 -2.670952316e-12 8.111611573e-13)
(0 -1.620283787e-12 -2.164550773e-12)
(0 -3.455631072e-13 -2.085399145e-12)
(0 -8.945314177e-12 6.044138005e-12)
(0 -9.357428305e-12 -1.692844308e-11)
(0 -7.733250855e-11 -3.936390713e-11)
(0 -8.05618605e-11 -4.671515956e-11)
(0 -8.73660764e-11 -5.977435417e-11)
(0 -9.818129221e-11 -7.749737806e-11)
(0 -1.136668302e-10 -9.943619968e-11)
(0 -1.346600229e-10 -1.255547042e-10)
(0 -1.621113408e-10 -1.560033838e-10)
(0 -1.969378617e-10 -1.908493118e-10)
(0 -2.397826822e-10 -2.297034148e-10)
(0 -2.9065217e-10 -2.71131e-10)
(0 -3.48338259e-10 -3.116193551e-10)
(0 -4.09206878e-10 -3.436521783e-10)
(0 -4.638736176e-10 -3.522528041e-10)
(0 -4.855353187e-10 -3.101761803e-10)
(0 -4.125247406e-10 -1.882765678e-10)
(0 -2.867892531e-12 -2.486334843e-24)
(0 1.558672415e-12 -1.771611011e-11)
(0 1.016162726e-11 -4.52800661e-12)
(0 1.130483166e-11 1.99171635e-12)
(0 8.915873196e-12 8.144573743e-12)
(0 4.941062349e-12 9.0467829e-12)
(0 1.900031524e-12 8.561915836e-12)
(0 -3.675367248e-13 7.537962346e-12)
(0 -2.405152762e-12 6.548350575e-12)
(0 -4.526868306e-12 4.766764228e-12)
(0 -6.121123652e-12 1.335453671e-12)
(0 -3.182221325e-12 -6.665519282e-12)
(0 8.695295116e-12 -1.072875818e-11)
(0 3.296812602e-11 -9.835131549e-13)
(0 -2.000313388e-12 2.548212332e-11)
)
;

boundaryField
{
    lowerWall
    {
        type            slip;
    }
    atmosphere
    {
        type            pressureInletOutletVelocity;
        tangentialVelocity uniform (0 0 0);
        value           nonuniform List<vector> 
20
(
(0 1.701964067e-10 0)
(0 1.694086182e-10 0)
(0 1.680321327e-10 0)
(0 1.659318341e-10 0)
(0 1.629315874e-10 0)
(0 1.588252277e-10 0)
(0 1.533867293e-10 0)
(0 1.463821689e-10 0)
(0 1.375833202e-10 0)
(0 1.267834622e-10 0)
(0 1.138184585e-10 0)
(0 9.859962496e-11 0)
(0 8.117273552e-11 0)
(0 6.184373795e-11 0)
(0 4.153629765e-11 0)
(0 2.294268144e-11 0)
(0 -3.656083273e-13 -3.493502555e-11)
(0 -2.886108347e-11 -4.107880068e-11)
(0 -5.461128613e-11 -4.2100526e-11)
(0 -7.733250855e-11 -3.936390713e-11)
)
;
    }
    rightWall
    {
        type            empty;
    }
    leftWall
    {
        type            empty;
    }
    frontAndBack
    {
        type            slip;
    }
    procBoundary0to1
    {
        type            processor;
        value           nonuniform List<vector> 
20
(
(0 2.316669972e-12 4.228817567e-14)
(0 2.39376844e-12 1.343601009e-13)
(0 2.559790378e-12 2.520571442e-13)
(0 2.842183069e-12 4.254643662e-13)
(0 3.293692325e-12 7.159091683e-13)
(0 4.01251777e-12 1.268041069e-12)
(0 5.182309609e-12 2.467886653e-12)
(0 7.140876869e-12 5.474352936e-12)
(0 1.044035708e-11 1.417106982e-11)
(0 -6.769250141e-12 2.056890044e-11)
(0 -3.772056132e-11 2.083599904e-12)
(0 -4.364029174e-12 -1.406873158e-11)
(0 3.883410776e-12 -8.116625194e-12)
(0 2.383357679e-12 -3.198335852e-12)
(0 1.938082231e-12 -1.471177091e-12)
(0 1.990021341e-12 -4.274351308e-13)
(0 2.609210985e-12 1.052920504e-12)
(0 4.521233892e-12 5.4972516e-12)
(0 -2.823596344e-12 1.084562865e-11)
(0 -3.439050801e-11 -5.706955759e-12)
)
;
    }
    procBoundary0to2
    {
        type            processor;
        value           nonuniform List<vector> 
30
(
(0 -9.635525057e-11 -3.398319959e-11)
(0 -1.001538196e-10 -3.969509824e-11)
(0 -1.082305276e-10 -4.986830898e-11)
(0 -1.21234054e-10 -6.365662996e-11)
(0 -1.401031946e-10 -8.061401895e-11)
(0 -1.660292289e-10 -1.005937559e-10)
(0 -2.004128192e-10 -1.236088645e-10)
(0 -2.447079462e-10 -1.496443187e-10)
(0 -3.000995079e-10 -1.783926949e-10)
(0 -3.668942385e-10 -2.088491824e-10)
(0 -4.433481288e-10 -2.387003949e-10)
(0 -5.23257833e-10 -2.634971257e-10)
(0 -5.908967846e-10 -2.759918192e-10)
(0 -6.108620546e-10 -2.670221535e-10)
(0 -5.180387014e-10 -2.319181822e-10)
(0 -1.960727265e-10 -1.613846256e-10)
(0 1.401344648e-11 -1.25059427e-11)
(0 2.374488489e-11 -1.558672384e-12)
(0 1.940698725e-11 2.207816995e-12)
(0 1.323728136e-11 1.647851632e-11)
(0 4.684128981e-12 1.323690253e-11)
(0 7.594740574e-13 1.133884152e-11)
(0 -1.489480763e-12 9.281034122e-12)
(0 -3.747860377e-12 9.103408614e-12)
(0 -7.39542201e-12 7.984685201e-12)
(0 -1.410323583e-11 6.431316445e-12)
(0 -1.368449564e-11 -1.510404687e-11)
(0 -3.092975449e-12 -2.47501756e-11)
(0 -1.773443139e-11 -8.425506206e-12)
(0 -1.883164618e-11 5.715708208e-11)
)
;
    }
}


// ************************************************************************* //
