/*--------------------------------*- C++ -*----------------------------------*\
  =========                 |
  \\      /  F ield         | OpenFOAM: The Open Source CFD Toolbox
   \\    /   O peration     | Website:  https://openfoam.org
    \\  /    A nd           | Version:  6
     \\/     M anipulation  |
\*---------------------------------------------------------------------------*/
FoamFile
{
    version     2.0;
    format      ascii;
    class       volScalarField;
    location    "0.0043";
    object      ViscousDissipation;
}
// * * * * * * * * * * * * * * * * * * * * * * * * * * * * * * * * * * * * * //

dimensions      [1 -1 -3 0 0 0 0];

internalField   nonuniform List<scalar> 
9600
(
7.643507019e-21
8.501067731e-21
9.454771775e-21
1.030449641e-20
1.106925154e-20
1.173874909e-20
1.231335597e-20
1.27970538e-20
1.320528418e-20
1.355859189e-20
1.388728294e-20
1.422712125e-20
1.462235827e-20
1.512392026e-20
1.579016973e-20
1.668785799e-20
1.788964265e-20
1.947901591e-20
2.154456948e-20
2.419087455e-20
2.752807814e-20
3.168901127e-20
3.681149312e-20
4.306474957e-20
5.062652368e-20
5.972677723e-20
7.061979053e-20
8.364394775e-20
9.917580443e-20
1.177014775e-19
1.397530705e-19
1.66012502e-19
1.972396907e-19
2.343999867e-19
2.785293704e-19
3.308263351e-19
3.924110285e-19
4.643890909e-19
5.474982488e-19
6.42079815e-19
7.474613434e-19
8.617219974e-19
9.808699145e-19
1.098743461e-18
1.206563763e-18
1.293754051e-18
1.348940424e-18
1.363370375e-18
1.335949049e-18
1.282564202e-18
1.247967727e-18
1.321296647e-18
1.650576276e-18
2.45521754e-18
4.033089563e-18
6.774518959e-18
1.120928238e-17
1.812267167e-17
2.869514627e-17
4.443878501e-17
6.705062538e-17
1.025934329e-16
1.933484816e-16
5.19434348e-16
1.439758561e-15
3.112223978e-16
2.880485571e-16
3.860907179e-14
1.356141431e-14
2.265882194e-15
7.135676634e-16
4.769392504e-16
2.632337587e-16
1.423671121e-16
6.211366178e-17
6.080270282e-17
9.807961443e-17
1.482266724e-16
1.998854366e-16
2.449617758e-16
2.766461931e-16
2.920581289e-16
2.927104801e-16
2.817496213e-16
2.624786228e-16
2.386301112e-16
2.141855023e-16
1.927953806e-16
1.773686685e-16
1.700089741e-16
1.720826791e-16
1.842788295e-16
2.065090975e-16
2.376553465e-16
2.752051595e-16
3.15041149e-16
3.51667257e-16
3.788919857e-16
3.903001751e-16
3.793959339e-16
3.421036231e-16
2.815934086e-16
2.088105081e-16
1.385281404e-16
9.108421204e-17
9.959399434e-17
1.873374163e-16
2.327562633e-16
2.97107901e-16
6.298215732e-16
2.350066018e-15
1.363539772e-14
3.477596179e-14
1.482330734e-15
2.638238698e-15
3.677917712e-16
4.124888108e-16
1.285029915e-15
3.981137258e-15
1.646078299e-15
8.82974851e-21
9.846608288e-21
1.097715941e-20
1.199769237e-20
1.292517889e-20
1.374983789e-20
1.447030802e-20
1.509381465e-20
1.563658304e-20
1.612474901e-20
1.659168698e-20
1.708082233e-20
1.764166502e-20
1.833463804e-20
1.922543387e-20
2.039164712e-20
2.191502373e-20
2.389076302e-20
2.641816127e-20
2.961353695e-20
3.359821947e-20
3.851428736e-20
4.450886704e-20
5.175591087e-20
6.044141943e-20
7.079764125e-20
8.308907359e-20
9.765367191e-20
1.148782556e-19
1.352454015e-19
1.593093357e-19
1.877731996e-19
2.214740976e-19
2.614671606e-19
3.089573273e-19
3.653341792e-19
4.320308427e-19
5.105287016e-19
6.021246389e-19
7.077937815e-19
8.27673474e-19
9.606547898e-19
1.10365279e-18
1.25124293e-18
1.395209608e-18
1.524863198e-18
1.627815436e-18
1.69261118e-18
1.713336097e-18
1.697720619e-18
1.677726072e-18
1.72162489e-18
1.942542703e-18
2.498029253e-18
3.575384332e-18
5.372278573e-18
8.107513942e-18
1.210505898e-17
1.783695999e-17
2.523134403e-17
3.103602549e-17
2.932667718e-17
5.575887336e-17
3.591824269e-16
2.637371154e-15
7.697777863e-16
1.270716607e-13
2.58322889e-13
3.596659472e-14
2.824606783e-15
1.716843395e-16
3.540430672e-17
8.113131e-17
8.146148596e-17
6.732621037e-17
6.813504901e-17
8.434740403e-17
1.089017962e-16
1.359350303e-16
1.608968969e-16
1.802786456e-16
1.921931057e-16
1.96530641e-16
1.943141581e-16
1.871203771e-16
1.769119344e-16
1.65826471e-16
1.559324013e-16
1.489911994e-16
1.463731665e-16
1.489962387e-16
1.573146076e-16
1.712261438e-16
1.899753588e-16
2.120053965e-16
2.349253537e-16
2.556091822e-16
2.705079852e-16
2.76007749e-16
2.689856812e-16
2.480451322e-16
2.15167943e-16
1.760984393e-16
1.393543991e-16
1.154476066e-16
1.13167197e-16
1.220974044e-16
8.9885778e-17
1.844850778e-17
3.108641714e-16
3.547072164e-15
3.858631573e-14
2.553999072e-13
1.22059509e-13
7.448016163e-16
2.697954694e-15
5.701414066e-16
4.164681253e-16
4.580669179e-15
2.248129115e-15
1.020412454e-20
1.141178385e-20
1.275463363e-20
1.398164936e-20
1.510871178e-20
1.612433191e-20
1.702722226e-20
1.782575554e-20
1.853953304e-20
1.919808944e-20
1.984120795e-20
2.051760606e-20
2.128615634e-20
2.221413787e-20
2.337920896e-20
2.486671166e-20
2.677250244e-20
2.919980276e-20
3.226380882e-20
3.608791576e-20
4.08092058e-20
4.657251516e-20
5.35376678e-20
6.187496331e-20
7.178069146e-20
8.34781411e-20
9.724008845e-20
1.13386479e-19
1.323066199e-19
1.544573676e-19
1.80407564e-19
2.108621542e-19
2.467331059e-19
2.891513208e-19
3.395022716e-19
3.993825972e-19
4.706100859e-19
5.551503271e-19
6.550631984e-19
7.722430594e-19
9.080874672e-19
1.062919258e-18
1.235444751e-18
1.422106829e-18
1.616677477e-18
1.809985889e-18
1.990423598e-18
2.145575434e-18
2.266133385e-18
2.352352426e-18
2.422995497e-18
2.524159314e-18
2.733157771e-18
3.14901675e-18
3.863941251e-18
4.927316478e-18
6.357138153e-18
8.290853745e-18
1.11968415e-17
1.497371176e-17
1.46001422e-17
1.42311393e-17
2.865161696e-16
3.494772348e-15
6.656184961e-16
3.453723392e-15
5.448424585e-13
1.802348625e-13
1.161126831e-14
1.033247352e-15
1.060891055e-16
4.376894046e-17
5.886138995e-17
6.239535039e-17
6.04556976e-17
6.247098739e-17
7.052763165e-17
8.294598937e-17
9.728879121e-17
1.112841765e-16
1.230910044e-16
1.315440525e-16
1.362529098e-16
1.374542917e-16
1.358210162e-16
1.323160643e-16
1.280687604e-16
1.242218574e-16
1.218157445e-16
1.216921352e-16
1.24446207e-16
1.303693738e-16
1.394077677e-16
1.511009071e-16
1.645465045e-16
1.783868636e-16
1.908804829e-16
2.000535581e-16
2.039517497e-16
2.010217553e-16
1.907181272e-16
1.741542786e-16
1.543094307e-16
1.35593968e-16
1.227635029e-16
1.180565861e-16
1.157203521e-16
1.027420197e-16
9.666068375e-17
2.593021537e-16
1.412748515e-15
1.185293861e-14
1.733391423e-13
5.323321114e-13
1.965457758e-15
5.044263719e-15
9.91610934e-15
5.034270546e-16
4.748932848e-15
3.00460251e-15
1.179441406e-20
1.323110005e-20
1.482991367e-20
1.630734344e-20
1.767875722e-20
1.892948262e-20
2.005883679e-20
2.107586653e-20
2.200390497e-20
2.287648862e-20
2.373986514e-20
2.46497257e-20
2.567384203e-20
2.688910531e-20
2.83838069e-20
3.025478194e-20
3.260942485e-20
3.556381816e-20
3.924470414e-20
4.378819647e-20
4.933985222e-20
5.605330169e-20
6.408986273e-20
7.362272075e-20
8.484198463e-20
9.796762813e-20
1.132550101e-19
1.310079352e-19
1.515804994e-19
1.754043239e-19
2.030159263e-19
2.351252608e-19
2.726621582e-19
3.168401374e-19
3.691645208e-19
4.314748322e-19
5.059503211e-19
5.95163968e-19
7.020218867e-19
8.296414134e-19
9.809980966e-19
1.158506443e-18
1.363422564e-18
1.59527975e-18
1.851200809e-18
2.125384587e-18
2.408844225e-18
2.69018275e-18
2.957864478e-18
3.204644993e-18
3.43338504e-18
3.662191344e-18
3.923229705e-18
4.247323334e-18
4.629816881e-18
4.998634415e-18
5.267895302e-18
5.659786799e-18
7.420714648e-18
1.357114776e-17
3.252672364e-17
1.294453641e-16
8.603807879e-16
1.249243557e-15
1.321154914e-15
2.406706695e-13
5.874374938e-13
3.867902765e-14
4.57575675e-15
6.698906164e-16
1.498446558e-16
6.925982136e-17
5.567366661e-17
5.215303832e-17
5.101484735e-17
5.24841979e-17
5.682813111e-17
6.345909752e-17
7.136670932e-17
7.947315844e-17
8.682838084e-17
9.274668109e-17
9.688014967e-17
9.92055795e-17
9.996955622e-17
9.961954147e-17
9.873233817e-17
9.79307642e-17
9.781179688e-17
9.88824291e-17
1.015149468e-16
1.059040697e-16
1.120372088e-16
1.196671706e-16
1.283014945e-16
1.372041487e-16
1.454348698e-16
1.519324386e-16
1.556619096e-16
1.558327173e-16
1.521930683e-16
1.453112409e-16
1.366723737e-16
1.284503843e-16
1.228458617e-16
1.208440393e-16
1.211467236e-16
1.231964109e-16
1.408866557e-16
2.298120167e-16
6.344471015e-16
3.573989714e-15
3.279364342e-14
5.69226946e-13
2.498192124e-13
5.58078536e-15
9.91345446e-15
1.839000244e-15
6.712909865e-15
4.266004973e-15
1.3631119e-20
1.53438237e-20
1.724959098e-20
1.903068328e-20
2.069907161e-20
2.223818438e-20
2.364595007e-20
2.49336978e-20
2.61271857e-20
2.726576472e-20
2.840155409e-20
2.959916017e-20
3.093528304e-20
3.249821386e-20
3.43873985e-20
3.671246474e-20
3.959328565e-20
4.31592248e-20
4.754975073e-20
5.291243589e-20
5.940222624e-20
6.717759328e-20
7.64016371e-20
8.724259533e-20
9.988289507e-20
1.145242042e-19
1.313976919e-19
1.507647588e-19
1.72930914e-19
1.982648767e-19
2.272524317e-19
2.605568824e-19
2.990974792e-19
3.440997339e-19
3.971562222e-19
4.602806278e-19
5.360149236e-19
6.275207533e-19
7.386480027e-19
8.73857255e-19
1.038033067e-18
1.236135151e-18
1.472780987e-18
1.751660752e-18
2.074826779e-18
2.441773822e-18
2.848576593e-18
3.287346801e-18
3.746522643e-18
4.211987309e-18
4.668419723e-18
5.098390666e-18
5.474127067e-18
5.734946729e-18
5.751489013e-18
5.312324229e-18
4.259115305e-18
3.052167985e-18
4.134971761e-18
1.390896883e-17
4.50034198e-17
1.246227871e-16
4.295599556e-16
4.428206625e-16
3.187514128e-13
8.264498939e-13
1.383176833e-13
7.491064298e-15
7.18468294e-16
1.888122384e-16
8.525414038e-17
5.466894004e-17
4.491868638e-17
4.166491172e-17
4.094097355e-17
4.193641136e-17
4.446658884e-17
4.825436993e-17
5.286748566e-17
5.780360766e-17
6.257785824e-17
6.67962477e-17
7.020620768e-17
7.271591668e-17
7.438689681e-17
7.540962284e-17
7.606698768e-17
7.669099109e-17
7.761865485e-17
7.91521519e-17
8.152443753e-17
8.48714749e-17
8.921212517e-17
9.443689644e-17
1.003040246e-16
1.064440693e-16
1.123787031e-16
1.175656672e-16
1.214780524e-16
1.237207031e-16
1.241714658e-16
1.231103194e-16
1.212674359e-16
1.197157498e-16
1.19549741e-16
1.213849598e-16
1.250874994e-16
1.306303071e-16
1.392642317e-16
1.456300769e-16
1.103249735e-16
1.461153021e-16
6.115922669e-15
1.40953541e-13
8.50165109e-13
2.674256494e-13
4.763094279e-15
3.406697581e-15
6.124603332e-15
5.825977505e-15
1.574968546e-20
1.779369242e-20
2.006836722e-20
2.221582943e-20
2.424491002e-20
2.613516218e-20
2.788400745e-20
2.950382514e-20
3.102418201e-20
3.248965886e-20
3.395999374e-20
3.550875365e-20
3.72235071e-20
3.920437652e-20
4.156378454e-20
4.442478543e-20
4.7921136e-20
5.219620297e-20
5.740267848e-20
6.369991743e-20
7.125097222e-20
8.021851906e-20
9.076339204e-20
1.030462611e-19
1.172325284e-19
1.334977581e-19
1.520297939e-19
1.730311854e-19
1.967276402e-19
2.233990477e-19
2.534340017e-19
2.87406925e-19
3.261532594e-19
3.708434176e-19
4.230587723e-19
4.849121405e-19
5.59212502e-19
6.496626752e-19
7.610104199e-19
8.991187912e-19
1.070922309e-18
1.284305146e-18
1.54786764e-18
1.870532121e-18
2.26084475e-18
2.725904712e-18
3.269892641e-18
3.892287732e-18
4.585721377e-18
5.333098978e-18
6.10285701e-18
6.839683612e-18
7.445498391e-18
7.745296262e-18
7.445391784e-18
6.14308951e-18
3.597089908e-18
8.284151689e-19
3.03939558e-18
2.424693647e-17
7.560222424e-17
1.047612124e-16
5.789046046e-16
5.697304383e-16
5.009482326e-13
1.737673674e-13
2.537960408e-15
5.749877126e-16
1.363908463e-16
4.976684823e-17
3.71031623e-17
3.369695516e-17
3.210437983e-17
3.145781557e-17
3.155263967e-17
3.240036479e-17
3.402618793e-17
3.636282462e-17
3.924486159e-17
4.24441592e-17
4.571233038e-17
4.882112981e-17
5.159667731e-17
5.394125022e-17
5.58416792e-17
5.736386493e-17
5.863795327e-17
5.983560793e-17
6.114557672e-17
6.274815529e-17
6.479328643e-17
6.73817967e-17
7.05543084e-17
7.428552971e-17
7.848385757e-17
8.29925931e-17
8.759859756e-17
9.205443976e-17
9.612061293e-17
9.962445447e-17
1.025288302e-16
1.049948324e-16
1.074123681e-16
1.103603363e-16
1.144635139e-16
1.201560521e-16
1.274395078e-16
1.355872773e-16
1.415926715e-16
1.340876657e-16
8.964498403e-17
7.083445351e-17
8.241682072e-16
6.029370137e-15
1.773599256e-13
4.407512749e-13
3.859288459e-15
1.285712104e-14
2.803081612e-15
7.88071827e-15
1.818932509e-20
2.063163362e-20
2.334854446e-20
2.59378403e-20
2.840308202e-20
3.071968357e-20
3.288358127e-20
3.490864871e-20
3.68280112e-20
3.869261981e-20
4.057029553e-20
4.254510482e-20
4.471641811e-20
4.719786554e-20
5.011590298e-20
5.360859361e-20
5.782470332e-20
6.292277684e-20
6.906954908e-20
7.643635725e-20
8.519426022e-20
9.550852042e-20
1.075357989e-19
1.214240214e-19
1.373152725e-19
1.553463183e-19
1.75646846e-19
1.983365423e-19
2.235353753e-19
2.513958698e-19
2.821655706e-19
3.162641297e-19
3.543655847e-19
3.974793856e-19
4.470626325e-19
5.051904905e-19
5.748042636e-19
6.599950441e-19
7.662779773e-19
9.008123315e-19
1.072585863e-18
1.292567227e-18
1.573804936e-18
1.931345298e-18
2.381806863e-18
2.942410853e-18
3.629283653e-18
4.454729245e-18
5.422916121e-18
6.522998382e-18
7.718038574e-18
8.926787461e-18
9.993651179e-18
1.064430896e-17
1.044257541e-17
8.832626143e-18
5.598728512e-18
2.789038599e-18
1.053171546e-17
4.986692596e-17
1.405999773e-16
8.180229224e-16
7.269130711e-16
9.214053358e-15
6.786596033e-14
1.120241143e-15
4.762758496e-16
8.859095545e-17
1.263500579e-17
8.922123104e-18
1.609481343e-17
2.062729115e-17
2.252358406e-17
2.327525759e-17
2.378582067e-17
2.449705333e-17
2.56003654e-17
2.714104276e-17
2.907229208e-17
3.129012033e-17
3.366052126e-17
3.604409025e-17
3.831851679e-17
4.039671287e-17
4.223760536e-17
4.384884159e-17
4.528183595e-17
4.662159442e-17
4.797304194e-17
4.944627083e-17
5.114220186e-17
5.314154922e-17
5.5498307e-17
5.823766491e-17
6.13552398e-17
6.481672224e-17
6.856040841e-17
7.250832977e-17
7.658807733e-17
8.076308356e-17
8.506700433e-17
8.963887701e-17
9.475065604e-17
1.008091203e-16
1.083113841e-16
1.177500277e-16
1.294782234e-16
1.434755208e-16
1.58782498e-16
1.732531636e-16
1.928503016e-16
2.956726373e-16
8.830171013e-16
3.260850001e-15
7.60610442e-15
5.495820623e-14
5.495684806e-14
1.424486328e-14
1.778625009e-15
1.106534099e-14
2.09947265e-20
2.391541782e-20
2.716257525e-20
3.028360339e-20
3.327524033e-20
3.610734086e-20
3.877414159e-20
4.129061851e-20
4.369416389e-20
4.604261178e-20
4.841331186e-20
5.090196165e-20
5.362149817e-20
5.670040076e-20
6.028100083e-20
6.451779467e-20
6.957631739e-20
7.563167452e-20
8.286596936e-20
9.146333257e-20
1.016030588e-19
1.134525198e-19
1.271621869e-19
1.428636774e-19
1.606685515e-19
1.806642929e-19
2.029058474e-19
2.274091059e-19
2.541586673e-19
2.831426513e-19
3.144141347e-19
3.481680039e-19
3.848202141e-19
4.251011726e-19
4.701969724e-19
5.219775942e-19
5.833156274e-19
6.584639311e-19
7.534492571e-19
8.764790484e-19
1.038391603e-18
1.253174529e-18
1.538505094e-18
1.916182536e-18
2.412258927e-18
3.056622719e-18
3.881682293e-18
4.919501904e-18
6.1963185e-18
7.722879312e-18
9.478698419e-18
1.138798532e-17
1.328638589e-17
1.488662484e-17
1.577908217e-17
1.55774732e-17
1.449927983e-17
1.600026891e-17
4.247577258e-17
2.35680113e-16
1.802123134e-15
6.048287286e-16
7.968947305e-16
6.866876542e-14
3.257189336e-14
7.712305275e-16
9.068944564e-17
2.843983446e-17
2.265376255e-18
4.244790179e-18
1.078257957e-17
1.490544192e-17
1.673565455e-17
1.743476504e-17
1.780387341e-17
1.826028907e-17
1.899024987e-17
2.005264127e-17
2.143372522e-17
2.307582268e-17
2.489523604e-17
2.679712993e-17
2.868992027e-17
3.049820369e-17
3.217236477e-17
3.369333445e-17
3.507267561e-17
3.634861465e-17
3.757934609e-17
3.883448546e-17
4.018660182e-17
4.170456582e-17
4.345027568e-17
4.547767011e-17
4.783200289e-17
5.05482285e-17
5.365118416e-17
5.716102835e-17
6.110508995e-17
6.55339884e-17
7.05413816e-17
7.628959148e-17
8.304189385e-17
9.119510999e-17
1.013051342e-16
1.141142497e-16
1.306210258e-16
1.522925695e-16
1.817803385e-16
2.258268712e-16
3.07216144e-16
5.065542041e-16
1.068770429e-15
2.501256763e-15
5.08706791e-15
1.590995471e-14
1.685503272e-14
1.298558338e-14
1.091054174e-14
1.044221368e-14
2.421634238e-20
2.771205788e-20
3.159462948e-20
3.535495137e-20
3.898035566e-20
4.243384942e-20
4.570715162e-20
4.881648923e-20
5.180399877e-20
5.473561122e-20
5.769957067e-20
6.080501622e-20
6.418020441e-20
6.797041824e-20
7.233576469e-20
7.744926334e-20
8.349526297e-20
9.066750025e-20
9.916536496e-20
1.0918737e-19
1.209222757e-19
1.345399328e-19
1.501840843e-19
1.679673182e-19
1.879655047e-19
2.102074186e-19
2.346597426e-19
2.612147309e-19
2.896951793e-19
3.198864831e-19
3.515940064e-19
3.847115203e-19
4.192959573e-19
4.556677037e-19
4.945813642e-19
5.375019715e-19
5.869879959e-19
6.471497383e-19
7.241667124e-19
8.268932435e-19
9.676158816e-19
1.162998316e-18
1.435177624e-18
1.812904042e-18
2.332567218e-18
3.038887986e-18
3.98482999e-18
5.229844068e-18
6.834886591e-18
8.852109414e-18
1.130698916e-17
1.417223489e-17
1.734068867e-17
2.063220476e-17
2.394890478e-17
2.790664556e-17
3.613517869e-17
6.559696941e-17
2.004587679e-16
1.138597416e-15
1.424773921e-15
1.636183172e-15
6.850632085e-13
6.279805355e-13
4.343292304e-14
2.42989378e-15
2.795032385e-16
5.806416793e-17
1.596351574e-17
1.057050275e-17
1.183346251e-17
1.299437175e-17
1.334898817e-17
1.331063319e-17
1.326374492e-17
1.342114375e-17
1.387230478e-17
1.463541646e-17
1.568788212e-17
1.698177567e-17
1.845271665e-17
2.002745305e-17
2.16321037e-17
2.320068077e-17
2.468238497e-17
2.604650788e-17
2.728447343e-17
2.840932862e-17
2.945294556e-17
3.046161675e-17
3.149112719e-17
3.260306684e-17
3.386319207e-17
3.534108559e-17
3.71092222e-17
3.924115518e-17
4.18107619e-17
4.489507318e-17
4.858095131e-17
5.29747463e-17
5.821649342e-17
6.450413004e-17
7.213295035e-17
8.155178888e-17
9.344089847e-17
1.088400832e-16
1.294094441e-16
1.58026648e-16
2.002827847e-16
2.685502759e-16
3.933840759e-16
6.535727889e-16
1.24045477e-15
2.522040044e-15
4.845124664e-15
9.759429389e-15
3.299987575e-14
8.882112471e-13
1.490978191e-14
7.373899056e-17
2.791186872e-20
3.209912592e-20
3.674345579e-20
4.127171498e-20
4.565876094e-20
4.985891576e-20
5.386065978e-20
5.768156097e-20
6.136952298e-20
6.499999558e-20
6.867410131e-20
7.251648933e-20
7.667299141e-20
8.130799804e-20
8.660184172e-20
9.274861608e-20
9.995426552e-20
1.084339551e-19
1.184071665e-19
1.300894666e-19
1.436815174e-19
1.59357643e-19
1.772559372e-19
1.974696486e-19
2.200361825e-19
2.449198571e-19
2.719891069e-19
3.009976892e-19
3.315839212e-19
3.632967945e-19
3.956430608e-19
4.281429456e-19
4.603949568e-19
4.921809087e-19
5.236587708e-19
5.556769933e-19
5.902043472e-19
6.308548274e-19
6.835199292e-19
7.571780886e-19
8.649754586e-19
1.025633822e-18
1.265181445e-18
1.618964247e-18
2.133900051e-18
2.870863822e-18
3.906835619e-18
5.335803319e-18
7.266480324e-18
9.813678507e-18
1.307912514e-17
1.711818762e-17
2.189860994e-17
2.729448761e-17
3.326191605e-17
4.064571064e-17
5.414230906e-17
9.484556306e-17
2.612638993e-16
8.905078321e-16
4.264236567e-15
7.619886087e-16
1.102414336e-12
3.600216866e-13
2.512866983e-14
2.53113794e-15
4.06211406e-16
9.775034539e-17
3.442541028e-17
1.875166698e-17
1.411795216e-17
1.215611496e-17
1.095461535e-17
1.015527653e-17
9.721255713e-18
9.64993147e-18
9.923915709e-18
1.051125159e-17
1.136992945e-17
1.244989934e-17
1.369410036e-17
1.504055316e-17
1.642628513e-17
1.779254418e-17
1.909009431e-17
2.028353214e-17
2.135413872e-17
2.230111937e-17
2.314119869e-17
2.390673001e-17
2.464315532e-17
2.540703496e-17
2.626534538e-17
2.729533554e-17
2.858369477e-17
3.022485337e-17
3.231998194e-17
3.497827564e-17
3.832080222e-17
4.248714216e-17
4.764801904e-17
5.403061854e-17
6.196362397e-17
7.194800168e-17
8.476719868e-17
1.016793456e-16
1.247966857e-16
1.578929683e-16
2.082225038e-16
2.908454598e-16
4.392996062e-16
7.324063773e-16
1.363533511e-15
2.844521862e-15
6.875366104e-15
2.274848248e-14
1.430678107e-13
3.125655239e-13
3.0327769e-16
1.660822492e-15
3.214769416e-20
3.716788507e-20
4.272598438e-20
4.817626339e-20
5.347697597e-20
5.857157907e-20
6.34445114e-20
6.811514164e-20
7.263850651e-20
7.710177353e-20
8.162137359e-20
8.634012857e-20
9.142420539e-20
9.705997657e-20
1.034510689e-19
1.108159935e-19
1.193858338e-19
1.294009779e-19
1.411049312e-19
1.547343281e-19
1.705058597e-19
1.886023386e-19
2.091599339e-19
2.322552877e-19
2.57888685e-19
2.859589931e-19
3.162325856e-19
3.483164413e-19
3.816495927e-19
4.155188988e-19
4.490914187e-19
4.814522984e-19
5.116567458e-19
5.388342764e-19
5.623958611e-19
5.82369772e-19
5.998590953e-19
6.176135543e-19
6.407626514e-19
6.778191102e-19
7.420734211e-19
8.534633274e-19
1.040963002e-18
1.345572716e-18
1.824049805e-18
2.553531466e-18
3.63693154e-18
5.208342997e-18
7.43628361e-18
1.051992534e-17
1.466767987e-17
2.003592633e-17
2.658451059e-17
3.376935601e-17
3.994903744e-17
4.15045533e-17
3.515093529e-17
6.051298011e-17
4.608237032e-16
4.147117466e-15
1.452933479e-15
3.822424309e-15
8.970808037e-13
5.879836044e-13
3.763707378e-14
3.148705221e-15
4.426080754e-16
1.128794552e-16
4.399945138e-17
2.298651134e-17
1.481143005e-17
1.090167815e-17
8.735333838e-18
7.491690404e-18
6.859587781e-18
6.689063422e-18
6.888333584e-18
7.390767508e-18
8.141177926e-18
9.088120938e-18
1.017947271e-17
1.136097571e-17
1.257747156e-17
1.377601046e-17
1.490974428e-17
1.594169778e-17
1.684790309e-17
1.761962677e-17
1.826439597e-17
1.880575516e-17
1.928222355e-17
1.974640765e-17
2.026478389e-17
2.091769697e-17
2.17986366e-17
2.301274272e-17
2.467557577e-17
2.691326901e-17
2.986456666e-17
3.368596159e-17
3.856387731e-17
4.474046912e-17
5.25600897e-17
6.254422083e-17
7.551266848e-17
9.279828909e-17
1.166624563e-16
1.51140744e-16
2.038370373e-16
2.899065071e-16
4.413238065e-16
7.298033596e-16
1.330658719e-15
2.752268481e-15
7.088048161e-15
2.906530249e-14
2.434382329e-13
2.710880597e-13
9.936034575e-16
3.493622397e-16
3.70013986e-20
4.30267215e-20
4.968234278e-20
5.623945715e-20
6.263439912e-20
6.879706191e-20
7.470718533e-20
8.038692487e-20
8.590070708e-20
9.135027332e-20
9.687067036e-20
1.026262676e-19
1.088070155e-19
1.156248851e-19
1.233107086e-19
1.321115955e-19
1.422883901e-19
1.541116006e-19
1.678540381e-19
1.837791595e-19
2.021258784e-19
2.230922563e-19
2.468195292e-19
2.733748064e-19
3.027277282e-19
3.347174111e-19
3.690121682e-19
4.050735175e-19
4.421373081e-19
4.792159842e-19
5.151122075e-19
5.484359337e-19
5.776401952e-19
6.011199303e-19
6.174222086e-19
6.255872965e-19
6.256125239e-19
6.190515432e-19
6.098303648e-19
6.054215002e-19
6.185206982e-19
6.69332973e-19
7.885905653e-19
1.021527222e-18
1.43321355e-18
2.115761242e-18
3.197863027e-18
4.856711561e-18
7.331108107e-18
1.093068271e-17
1.602457833e-17
2.296006332e-17
3.177732604e-17
4.140952636e-17
4.787330021e-17
4.207732644e-17
2.071167826e-17
1.004684209e-16
1.300906721e-15
3.831593499e-15
4.964058446e-15
1.257849681e-12
1.375033368e-12
2.218012775e-13
9.106673388e-15
3.973433054e-16
1.113367321e-16
6.845387922e-17
3.853651885e-17
2.196701619e-17
1.345230001e-17
8.957914413e-18
6.495726498e-18
5.163114962e-18
4.532600615e-18
4.382395624e-18
4.585636057e-18
5.062158654e-18
5.754549623e-18
6.614789285e-18
7.596814648e-18
8.653266158e-18
9.735378493e-18
1.079498932e-17
1.178764057e-17
1.267599778e-17
1.343313518e-17
1.404535316e-17
1.45141322e-17
1.485696295e-17
1.510730513e-17
1.531436241e-17
1.554315329e-17
1.58745761e-17
1.640479783e-17
1.72438203e-17
1.851389184e-17
2.034866387e-17
2.289395942e-17
2.631197341e-17
3.079275124e-17
3.657847572e-17
4.400641699e-17
5.357820585e-17
6.607324755e-17
8.275038675e-17
1.057318386e-16
1.387597502e-16
1.887298764e-16
2.68901586e-16
4.057668295e-16
6.535967768e-16
1.122163886e-15
2.005471263e-15
3.451766819e-15
5.003256412e-15
2.881657964e-14
1.123645354e-13
2.018143992e-12
1.879406721e-16
4.256515405e-20
4.980705849e-20
5.778325636e-20
6.566916046e-20
7.337225064e-20
8.08056775e-20
8.794423745e-20
9.481483354e-20
1.014946944e-19
1.081042823e-19
1.148015197e-19
1.217767081e-19
1.292479833e-19
1.37457453e-19
1.466680134e-19
1.571606457e-19
1.692316531e-19
1.831879177e-19
1.993384698e-19
2.179813212e-19
2.39386453e-19
2.637771905e-19
2.913110452e-19
3.220577976e-19
3.559695443e-19
3.928393462e-19
4.322515093e-19
4.735354153e-19
5.157348238e-19
5.575939682e-19
5.975503922e-19
6.337294926e-19
6.639623029e-19
6.858737083e-19
6.970853632e-19
6.955457984e-19
6.799835495e-19
6.505177706e-19
6.095391359e-19
5.630265189e-19
5.224543222e-19
5.074267185e-19
5.492369251e-19
6.957494566e-19
1.018269615e-18
1.621368545e-18
2.656950645e-18
4.344325954e-18
6.998449203e-18
1.106777038e-17
1.71768967e-17
2.614462226e-17
3.887542092e-17
5.58977346e-17
7.654902884e-17
1.02116159e-16
1.773816643e-16
6.477653674e-16
3.540454575e-15
3.618877461e-15
2.060523375e-17
1.51907174e-12
1.024079848e-12
7.123521406e-14
3.822763327e-15
1.128867971e-16
5.880893064e-17
5.498501361e-17
3.447540343e-17
1.958706045e-17
1.121189686e-17
6.746732707e-18
4.39409952e-18
3.206617251e-18
2.70607146e-18
2.645813795e-18
2.892815448e-18
3.370055001e-18
4.026844302e-18
4.822740512e-18
5.71898857e-18
6.674764297e-18
7.646677798e-18
8.590378051e-18
9.463320966e-18
1.022805735e-17
1.085565825e-17
1.132893713e-17
1.164501817e-17
1.181688914e-17
1.187402102e-17
1.186258862e-17
1.184571328e-17
1.190355529e-17
1.213270769e-17
1.264465981e-17
1.35637856e-17
1.502569873e-17
1.717713507e-17
2.017929399e-17
2.421778326e-17
2.9523107e-17
3.640587911e-17
4.531302678e-17
5.692021972e-17
7.229654812e-17
9.321478931e-17
1.227507079e-16
1.664708603e-16
2.348705694e-16
3.485131473e-16
5.48752392e-16
9.174371239e-16
1.59220132e-15
2.633886971e-15
3.279795919e-15
1.031682497e-14
3.732445765e-13
1.901179791e-13
7.032981414e-16
4.895118299e-20
5.767130541e-20
6.724060995e-20
7.672229549e-20
8.598595115e-20
9.492455428e-20
1.035087711e-19
1.117739667e-19
1.198153776e-19
1.277780341e-19
1.35848605e-19
1.442488766e-19
1.532307223e-19
1.630720543e-19
1.74073755e-19
1.865570927e-19
2.008607638e-19
2.173357055e-19
2.363359069e-19
2.582040977e-19
2.832532459e-19
3.117458346e-19
3.438717095e-19
3.79721643e-19
4.192509239e-19
4.622298066e-19
5.081844636e-19
5.563402838e-19
6.055784225e-19
6.544049695e-19
7.009224521e-19
7.428021224e-19
7.772830615e-19
8.012459449e-19
8.113999929e-19
8.045908657e-19
7.782324632e-19
7.309202003e-19
6.633648365e-19
5.798238171e-19
4.901894158e-19
4.128914763e-19
3.78896788e-19
4.373460088e-19
6.637270684e-19
1.171927991e-18
2.132326544e-18
3.799747508e-18
6.558698728e-18
1.10007769e-17
1.806585087e-17
2.931919451e-17
4.755420043e-17
7.833389326e-17
1.348285828e-16
2.554042682e-16
5.70397213e-16
1.480283411e-15
3.847199888e-15
7.858574098e-15
3.049369243e-15
1.516958552e-12
7.632081177e-13
6.039352338e-14
5.002629417e-15
6.143522476e-16
1.699514203e-16
7.419963719e-17
3.569390495e-17
1.762577731e-17
8.932310805e-18
4.699680949e-18
2.64550996e-18
1.706541987e-18
1.380245167e-18
1.423718786e-18
1.716095105e-18
2.193531006e-18
2.816883671e-18
3.5550479e-18
4.376606074e-18
5.246402379e-18
6.125225818e-18
6.971423654e-18
7.743622965e-18
8.40404041e-18
8.922062574e-18
9.27776507e-18
9.464893765e-18
9.4928939e-18
9.387972093e-18
9.193610599e-18
8.970914221e-18
8.798688793e-18
8.772750153e-18
9.004212818e-18
9.617098139e-18
1.074616304e-17
1.253618006e-17
1.514428205e-17
1.87474299e-17
2.355726774e-17
2.984489386e-17
3.797998126e-17
4.849534538e-17
6.220252647e-17
8.04090033e-17
1.053351204e-16
1.409424724e-16
1.946825416e-16
2.814757368e-16
4.335936158e-16
7.282360633e-16
1.379539225e-15
3.15461148e-15
1.044826489e-14
7.013065462e-14
9.56504606e-13
6.108266511e-13
5.507997403e-15
5.63000554e-20
6.682603122e-20
7.832354249e-20
8.97221336e-20
1.008419351e-19
1.115527031e-19
1.218239984e-19
1.317063676e-19
1.413212846e-19
1.508465942e-19
1.605054809e-19
1.70558472e-19
1.812979694e-19
1.930445363e-19
2.06144097e-19
2.209656589e-19
2.37898499e-19
2.573468687e-19
2.797205504e-19
3.054198417e-19
3.348161075e-19
3.682292666e-19
4.059030582e-19
4.479743161e-19
4.944309088e-19
5.450543469e-19
5.993521185e-19
6.564908085e-19
7.15240295e-19
7.739265897e-19
8.303837686e-19
8.819059131e-19
9.252285973e-19
9.565862722e-19
9.718788063e-19
9.669523844e-19
9.380091145e-19
8.822252073e-19
7.987345752e-19
6.901582511e-19
5.648341596e-19
4.399307633e-19
3.457956315e-19
3.321952795e-19
4.774628791e-19
9.020887559e-19
1.789354802e-18
3.418186349e-18
6.219383184e-18
1.088122934e-17
1.856950457e-17
3.143632611e-17
5.392000562e-17
9.63936328e-17
1.862558793e-16
4.031281769e-16
9.851841505e-16
2.435616792e-15
6.441445705e-15
3.767589862e-15
5.700910573e-15
1.612576025e-12
6.389855994e-13
6.091728662e-14
7.118346228e-15
1.14630103e-15
2.749674925e-16
9.093243145e-17
3.59465801e-17
1.543728493e-17
6.856229749e-18
3.070278798e-18
1.392657448e-18
7.100981739e-19
5.369923464e-19
6.561580384e-19
9.691901271e-19
1.429442303e-18
2.010188708e-18
2.68904697e-18
3.440677355e-18
4.234119971e-18
5.032911178e-18
5.796893868e-18
6.485036897e-18
7.058850529e-18
7.486123905e-18
7.744647191e-18
7.82544769e-18
7.735111253e-18
7.497136081e-18
7.152642551e-18
6.76078439e-18
6.398762283e-18
6.16103164e-18
6.157438945e-18
6.510635315e-18
7.353640337e-18
8.828641562e-18
1.108807591e-17
1.429888715e-17
1.865082762e-17
2.436993289e-17
3.173965876e-17
4.113621388e-17
5.309298781e-17
6.84229787e-17
8.84554421e-17
1.155142112e-16
1.539619795e-16
2.126799472e-16
3.114826445e-16
4.99524276e-16
9.161740611e-16
2.038105394e-15
6.0409855e-15
2.877694497e-14
2.873783806e-13
2.716735761e-14
2.244276824e-16
6.479422248e-20
7.754165634e-20
9.138256261e-20
1.050833162e-19
1.184004614e-19
1.311797189e-19
1.43397307e-19
1.551307974e-19
1.665405869e-19
1.778490368e-19
1.893260169e-19
2.01279718e-19
2.140512898e-19
2.280117685e-19
2.435600575e-19
2.611213858e-19
2.811448942e-19
3.040991357e-19
3.304627067e-19
3.607094512e-19
3.952882657e-19
4.345995858e-19
4.78968347e-19
5.286101047e-19
5.8358384e-19
6.437283802e-19
7.085868359e-19
7.773311551e-19
8.486952795e-19
9.209144464e-19
9.916604964e-19
1.057977783e-18
1.116249333e-18
1.162239369e-18
1.191239545e-18
1.198327106e-18
1.17876151e-18
1.128620089e-18
1.045839962e-18
9.318413327e-19
7.93882655e-19
6.483545042e-19
5.254275665e-19