/*--------------------------------*- C++ -*----------------------------------*\
  =========                 |
  \\      /  F ield         | OpenFOAM: The Open Source CFD Toolbox
   \\    /   O peration     | Website:  https://openfoam.org
    \\  /    A nd           | Version:  6
     \\/     M anipulation  |
\*---------------------------------------------------------------------------*/
FoamFile
{
    version     2.0;
    format      ascii;
    class       volScalarField;
    location    "0.003";
    object      TRHS;
}
// * * * * * * * * * * * * * * * * * * * * * * * * * * * * * * * * * * * * * //

dimensions      [1 -1 -3 0 0 0 0];

internalField   nonuniform List<scalar> 
9600
(
3.167730875e-09
6.696159804e-09
6.50947055e-09
6.559453609e-09
6.406186922e-09
6.257221542e-09
6.109425659e-09
5.963233622e-09
5.816835976e-09
5.672608129e-09
5.529920924e-09
5.391825225e-09
5.257839366e-09
5.130815781e-09
5.009691862e-09
4.896632212e-09
4.789846123e-09
4.691037244e-09
4.598121139e-09
4.512803788e-09
4.432846391e-09
4.359707037e-09
4.290548727e-09
4.226322813e-09
4.163860818e-09
4.104417296e-09
4.04550926e-09
3.989295799e-09
3.933761192e-09
3.880992664e-09
3.828288561e-09
3.777052106e-09
3.724183139e-09
3.671504019e-09
3.616679301e-09
3.56241085e-09
3.506573544e-09
3.451455885e-09
3.393809153e-09
3.334874368e-09
3.270660103e-09
3.202544923e-09
3.127242405e-09
3.04744155e-09
2.961085553e-09
2.87199132e-09
2.778512754e-09
2.684350495e-09
2.586836707e-09
2.488312239e-09
2.384430253e-09
2.276445498e-09
2.159556757e-09
2.035695634e-09
1.900994019e-09
1.758200734e-09
1.602864328e-09
1.435941678e-09
1.250052631e-09
1.043833221e-09
8.088787223e-10
5.451102928e-10
2.46479369e-10
-8.454806843e-11
-4.532033214e-10
-8.576575443e-10
-1.304854927e-09
-1.793459881e-09
-2.328971847e-09
-2.906029455e-09
-3.525516532e-09
-4.178364691e-09
-4.864850348e-09
-5.578127434e-09
-6.322942915e-09
-7.096884764e-09
-7.908233423e-09
-8.756612547e-09
-9.652456902e-09
-1.059912937e-08
-1.161443113e-08
-1.271315121e-08
-1.392828469e-08
-1.529185228e-08
-1.685431976e-08
-1.866372163e-08
-2.078453556e-08
-2.327740469e-08
-2.621941957e-08
-2.968555073e-08
-3.376965286e-08
-3.856584665e-08
-4.418798661e-08
-5.074991431e-08
-5.838352928e-08
-6.721932727e-08
-7.740422217e-08
-8.908274128e-08
-1.024138453e-07
-1.175522207e-07
-1.346643826e-07
-1.539121807e-07
-1.754692816e-07
-1.99505632e-07
-2.261984948e-07
-2.557107657e-07
-2.881948814e-07
-3.237729107e-07
-3.625483441e-07
-4.045964596e-07
-4.499767536e-07
-4.987213396e-07
-5.508372586e-07
-6.062923394e-07
-6.649798843e-07
-7.266794054e-07
-7.9136546e-07
-8.619692107e-07
-9.757641835e-07
-5.371323131e-07
3.110833751e-09
6.586015192e-09
6.512183795e-09
6.547392437e-09
6.404415919e-09
6.256862943e-09
6.113204702e-09
5.966823437e-09
5.824099101e-09
5.67951865e-09
5.540635777e-09
5.402305262e-09
5.272390285e-09
5.145321172e-09
5.028568746e-09
4.915689877e-09
4.813669289e-09
4.715380095e-09
4.627762446e-09
4.543394295e-09
4.469264314e-09
4.397389259e-09
4.334455831e-09
4.27173538e-09
4.215934e-09
4.158395294e-09
4.106696388e-09
4.05269842e-09
4.004564028e-09
3.953719862e-09
3.907955761e-09
3.857804847e-09
3.811106803e-09
3.758472982e-09
3.708699963e-09
3.652716703e-09
3.599611175e-09
3.539422239e-09
3.480548615e-09
3.411776163e-09
3.341401026e-09
3.258111914e-09
3.171331616e-09
3.070515624e-09
2.966520158e-09
2.849293858e-09
2.73045743e-09
2.599471046e-09
2.467694386e-09
2.323185281e-09
2.176645036e-09
2.015033101e-09
1.849502369e-09
1.667353254e-09
1.48127655e-09
1.278805818e-09
1.072655826e-09
8.481987554e-10
6.162308194e-10
3.597147918e-10
8.943571307e-11
-2.108619395e-10
-5.277502042e-10
-8.76177631e-10
-1.242068953e-09
-1.642256243e-09
-2.064268905e-09
-2.526351734e-09
-3.014518041e-09
-3.544243312e-09
-4.097504532e-09
-4.687660507e-09
-5.296597066e-09
-5.940657818e-09
-6.605603735e-09
-7.311764294e-09
-8.047290737e-09
-8.834058327e-09
-9.661864937e-09
-1.055631471e-08
-1.151436556e-08
-1.257241923e-08
-1.374155433e-08
-1.507366427e-08
-1.659587681e-08
-1.83747063e-08
-2.045132805e-08
-2.290506907e-08
-2.57914847e-08
-2.920527507e-08
-3.322081697e-08
-3.795244613e-08
-4.349608522e-08
-4.998572506e-08
-5.753690608e-08
-6.630017086e-08
-7.640773332e-08
-8.802352864e-08
-1.012928098e-07
-1.16387787e-07
-1.334614099e-07
-1.526904762e-07
-1.742355425e-07
-1.982794469e-07
-2.249873486e-07
-2.545331754e-07
-2.8705775e-07
-3.226920601e-07
-3.615297024e-07
-4.036547443e-07
-4.491207262e-07
-4.979684865e-07
-5.502087464e-07
-6.05821774e-07
-6.647345602e-07
-7.267650366e-07
-7.921131825e-07
-8.637483123e-07
-9.836029841e-07
-5.433071421e-07
3.098943374e-09
6.560513461e-09
6.486530218e-09
6.533910511e-09
6.394994009e-09
6.253775924e-09
6.110390377e-09
5.968312593e-09
5.824799663e-09
5.684140718e-09
5.544239985e-09
5.409872708e-09
5.278905017e-09
5.155900044e-09
5.038080943e-09
4.929415872e-09
4.826408604e-09
4.732666365e-09
4.644321006e-09
4.56490567e-09
4.490189036e-09
4.423441508e-09
4.359812498e-09
4.302292496e-09
4.245850215e-09
4.193862829e-09
4.141751215e-09
4.09348936e-09
4.044525852e-09
3.998673463e-09
3.950748158e-09
3.904289148e-09
3.853920565e-09
3.80364637e-09
3.748392758e-09
3.692480618e-09
3.630414588e-09
3.565955329e-09
3.492637891e-09
3.413848083e-09
3.322931795e-09
3.223915418e-09
3.110753044e-09
2.988491202e-09
2.851620386e-09
2.705868118e-09
2.545807679e-09
2.377386883e-09
2.194785349e-09
2.003794595e-09
1.798045784e-09
1.583454161e-09
1.353810543e-09
1.116055982e-09
8.646378477e-10
6.071435881e-10
3.372830155e-10
6.146845561e-11
-2.285753137e-10
-5.273732874e-10
-8.433875872e-10
-1.169666665e-09
-1.513309672e-09
-1.866326054e-09
-2.236766996e-09
-2.618450205e-09
-3.021875871e-09
-3.441716593e-09
-3.887852735e-09
-4.352464334e-09
-4.84317892e-09
-5.350968511e-09
-5.884703529e-09
-6.438059529e-09
-7.023330459e-09
-7.636646652e-09
-8.291744583e-09
-8.98560277e-09
-9.733885253e-09
-1.053792054e-08
-1.142093202e-08
-1.239491311e-08
-1.349580873e-08
-1.474956807e-08
-1.620606443e-08
-1.790524967e-08
-1.991068166e-08
-2.227694384e-08
-2.508312512e-08
-2.840166197e-08
-3.233084258e-08
-3.696412931e-08
-4.24205372e-08
-4.881432888e-08
-5.628350314e-08
-6.496082474e-08
-7.500058645e-08
-8.655082424e-08
-9.97773561e-08
-1.148372891e-07
-1.319014924e-07
-1.511321602e-07
-1.727053141e-07
-1.967904968e-07
-2.235664607e-07
-2.531951141e-07
-2.858284801e-07
-3.215866253e-07
-3.605727445e-07
-4.028640235e-07
-4.485246943e-07
-4.975959492e-07
-5.501032663e-07
-6.060454163e-07
-6.653813772e-07
-7.280115464e-07
-7.942143886e-07
-8.672085958e-07
-9.894388034e-07
-5.471333013e-07
3.090388269e-09
6.539794401e-09
6.468920618e-09
6.51900143e-09
6.385659963e-09
6.246456735e-09
6.106972348e-09
5.965470713e-09
5.825019502e-09
5.684425659e-09
5.547392643e-09
5.412934806e-09
5.284791147e-09
5.16159878e-09
5.046567484e-09
4.937656912e-09
4.837557247e-09
4.743723491e-09
4.658590582e-09
4.579244483e-09
4.507854099e-09
4.441002368e-09
4.380541294e-09
4.322717585e-09
4.269498847e-09
4.217349059e-09
4.168641606e-09
4.119969945e-09
4.073699699e-09
4.026026115e-09
3.979075356e-09
3.928806564e-09
3.877542492e-09
3.821372868e-09
3.762795701e-09
3.697520539e-09
3.627526146e-09
3.547714795e-09
3.459680901e-09
3.35818919e-09
3.245380086e-09
3.116593909e-09
2.974759078e-09
2.815541076e-09
2.642240376e-09
2.450551711e-09
2.244101862e-09
2.01879113e-09
1.77882221e-09
1.520418354e-09
1.24839214e-09
9.593361945e-10
6.588327903e-10
3.440186724e-10
2.120133266e-11
-3.124917793e-10
-6.510281956e-10
-9.983224851e-10
-1.349022437e-09
-1.707489552e-09
-2.067694563e-09
-2.433181619e-09
-2.797087707e-09
-3.163514101e-09
-3.527163999e-09
-3.894809909e-09
-4.263276091e-09
-4.640549039e-09
-5.022914036e-09
-5.417274178e-09
-5.818951134e-09
-6.235431261e-09
-6.66388716e-09
-7.114525431e-09
-7.586632116e-09
-8.091541401e-09
-8.62875336e-09
-9.210282479e-09
-9.838115695e-09
-1.052952718e-08
-1.129454663e-08
-1.216045822e-08
-1.314852584e-08
-1.429768539e-08
-1.56416053e-08
-1.723235742e-08
-1.911837729e-08
-2.136787152e-08
-2.404732666e-08
-2.724407049e-08
-3.104505454e-08
-3.555822516e-08
-4.089167529e-08
-4.717371552e-08
-5.453280368e-08
-6.311621143e-08
-7.307048287e-08
-8.455789648e-08
-9.773705859e-08
-1.127774351e-07
-1.298422423e-07
-1.49103923e-07
-1.707310068e-07
-1.949019661e-07
-2.217887446e-07
-2.515606969e-07
-2.843632298e-07
-3.203222564e-07
-3.595360705e-07
-4.0208875e-07
-4.480445671e-07
-4.97454916e-07
-5.503545693e-07
-6.067602075e-07
-6.666668545e-07
-7.299928389e-07
-7.971340437e-07
-8.711769842e-07
-9.951363936e-07
-5.504267929e-07
3.084579707e-09
6.526968798e-09
6.453989106e-09
6.50626581e-09
6.374545109e-09
6.238543225e-09
6.10026688e-09
5.961369093e-09
5.821576574e-09
5.683245995e-09
5.546614624e-09
5.414280752e-09
5.28638034e-09
5.165156899e-09
5.050187399e-09
4.943179379e-09
4.843128639e-09
4.751341782e-09
4.666396654e-09
4.589217369e-09
4.517891304e-09
4.452947146e-09
4.392149243e-09
4.336002e-09
4.282354483e-09
4.231951777e-09
4.182694383e-09
4.135247914e-09
4.087190387e-09
4.038945345e-09
3.98795189e-09
3.934767724e-09
3.876994562e-09
3.815243448e-09
3.746684948e-09
3.671255764e-09
3.585227084e-09
3.487990612e-09
3.37571783e-09
3.248368072e-09
3.102902849e-09
2.940098677e-09
2.757262208e-09
2.55524263e-09
2.331051585e-09
2.085528165e-09
1.815957261e-09
1.524075558e-09
1.208317615e-09
8.718084052e-10
5.141390374e-10
1.395035773e-10
-2.518242767e-10
-6.550374847e-10
-1.06962356e-09
-1.490617038e-09
-1.917667679e-09
-2.345777339e-09
-2.774456055e-09
-3.19804533e-09
-3.615410922e-09
-4.020450434e-09
-4.412659295e-09
-4.78758871e-09
-5.147455639e-09
-5.49057243e-09
-5.821439316e-09
-6.139425829e-09
-6.449386941e-09
-6.750840344e-09
-7.049677961e-09
-7.347409125e-09
-7.652585275e-09
-7.968841102e-09
-8.305657334e-09
-8.666292733e-09
-9.059713847e-09
-9.489987642e-09
-9.969413347e-09
-1.050809232e-08
-1.112628508e-08
-1.184296038e-08
-1.268740949e-08
-1.368821235e-08
-1.488562725e-08
-1.632172414e-08
-1.805289001e-08
-2.013981066e-08
-2.265877288e-08
-2.569106462e-08
-2.933346933e-08
-3.36880083e-08
-3.887222857e-08
-4.500955803e-08
-5.223883068e-08
-6.070443026e-08
-7.056396734e-08
-8.197753358e-08
-9.511353658e-08
-1.101383442e-07
-1.272228647e-07
-1.465357316e-07
-1.682518167e-07
-1.925458361e-07
-2.195949987e-07
-2.495647441e-07
-2.826042342e-07
-3.188356353e-07
-3.583608934e-07
-4.012633324e-07
-4.476136615e-07
-4.974678901e-07
-5.508709824e-07
-6.078544324e-07
-6.684215252e-07
-7.325367224e-07
-8.005287928e-07
-8.756799325e-07
-1.000815743e-06
-5.537179481e-07
3.079896358e-09
6.515291399e-09
6.441422238e-09
6.493496983e-09
6.363440273e-09
6.228595674e-09
6.092271891e-09
5.954398561e-09
5.816336358e-09
5.678795315e-09
5.543719334e-09
5.411990409e-09
5.285439941e-09
5.164585864e-09
5.050770928e-09
4.943960927e-09
4.8450444e-09
4.753508422e-09
4.669763755e-09
4.592751974e-09
4.522369622e-09
4.457168089e-09
4.396896093e-09
4.340165979e-09
4.286900512e-09
4.235739143e-09
4.186461461e-09
4.137286847e-09
4.087593315e-09
4.0353966e-09
3.980207107e-09
3.920298346e-09
3.855331356e-09
3.783261201e-09
3.702949015e-09
3.611229572e-09
3.506060547e-09
3.383927325e-09
3.243237806e-09
3.081439475e-09
2.898011326e-09
2.691036039e-09
2.460046252e-09
2.202617228e-09
1.917813886e-09
1.603108179e-09
1.258318125e-09
8.824044684e-10
4.772064811e-10
4.375524213e-11
-4.142861416e-10
-8.946065036e-10
-1.392662064e-09
-1.905683661e-09
-2.42875328e-09
-2.958738586e-09
-3.490046913e-09
-4.018582843e-09
-4.537449868e-09
-5.041401017e-09
-5.522937145e-09
-5.977415628e-09
-6.399205235e-09
-6.786669529e-09
-7.137519373e-09
-7.453185274e-09
-7.733560855e-09
-7.981614716e-09
-8.198572047e-09
-8.389411109e-09
-8.558257261e-09
-8.713641753e-09
-8.862760506e-09
-9.015734073e-09
-9.179449556e-09
-9.362642674e-09
-9.571348817e-09
-9.815558776e-09
-1.010533606e-08
-1.045687382e-08
-1.088727178e-08
-1.141951734e-08
-1.207738435e-08
-1.289159072e-08
-1.389649658e-08
-1.513733373e-08
-1.666688093e-08
-1.855118584e-08
-2.086462488e-08
-2.369434754e-08
-2.713528106e-08
-3.129507171e-08
-3.629021269e-08
-4.225110938e-08
-4.93177927e-08
-5.764326501e-08
-6.738750886e-08
-7.871868532e-08
-9.180643465e-08
-1.068231302e-07
-1.239394081e-07
-1.43328315e-07
-1.651637945e-07
-1.896239217e-07
-2.168842371e-07
-2.471120803e-07
-2.804541547e-07
-3.170337454e-07
-3.569515009e-07
-4.002936414e-07
-4.471331078e-07
-4.975316221e-07
-5.515410038e-07
-6.091973972e-07
-6.705233616e-07
-7.354530735e-07
-8.044030635e-07
-8.804030645e-07
-1.006912361e-06
-5.572251227e-07
3.07486714e-09
6.503880424e-09
6.428807423e-09
6.480777851e-09
6.351219137e-09
6.217572632e-09
6.082182745e-09
5.945627176e-09
5.808451941e-09
5.672133893e-09
5.537792092e-09
5.407095211e-09
5.281039995e-09
5.160955753e-09
5.047370299e-09
4.941161943e-09
4.842380016e-09
4.751420688e-09
4.667730025e-09
4.591074889e-09
4.52035904e-09
4.455022075e-09
4.393936811e-09
4.336713504e-09
4.282328696e-09
4.230277758e-09
4.179069306e-09
4.127605415e-09
4.07396585e-09
4.016964769e-09
3.954940503e-09
3.887038235e-09
3.811503691e-09
3.726820172e-09
3.630021437e-09
3.518303998e-09
3.387880487e-09
3.236001049e-09
3.05972131e-09
2.857551309e-09
2.627553498e-09
2.368569562e-09
2.078223736e-09
1.754592487e-09
1.394739346e-09
9.970509845e-10
5.599202322e-10
8.398564347e-11
-4.296713273e-10
-9.777902695e-10
-1.557148919e-09
-2.162917752e-09
-2.790853748e-09
-3.435340371e-09
-4.091343976e-09
-4.752089153e-09
-5.410886771e-09
-6.058831779e-09
-6.687126335e-09
-7.285399773e-09
-7.844807624e-09
-8.356624218e-09
-8.815204495e-09
-9.215783139e-09
-9.556642271e-09
-9.8362229e-09
-1.005535388e-08
-1.021480091e-08
-1.031836545e-08
-1.037086359e-08
-1.038111515e-08
-1.035883896e-08
-1.031630184e-08
-1.026426219e-08
-1.02138213e-08
-1.017383413e-08
-1.015468057e-08
-1.016699536e-08
-1.022534008e-08
-1.034567871e-08
-1.054751761e-08
-1.08508786e-08
-1.12794569e-08
-1.185986757e-08
-1.26269334e-08
-1.36237574e-08
-1.490594253e-08
-1.653937178e-08
-1.860211263e-08
-2.118125596e-08
-2.437530392e-08
-2.829259849e-08
-3.305488531e-08
-3.879597536e-08
-4.566377186e-08
-5.381663954e-08
-6.342269616e-08
-7.465454946e-08
-8.768794149e-08
-1.026976568e-07
-1.198585453e-07
-1.393447878e-07
-1.613331375e-07
-1.860014417e-07
-2.1352623e-07
-2.440730012e-07
-2.777879713e-07
-3.147924129e-07
-3.551872387e-07
-3.990588318e-07
-4.464827847e-07
-4.975240574e-07
-5.522375561e-07
-6.106672251e-07
-6.728244616e-07
-7.386802967e-07
-8.085346884e-07
-8.857026061e-07
-1.013411933e-06
-5.610519595e-07
3.069478142e-09
6.491437236e-09
6.41562463e-09
6.467067348e-09
6.337970815e-09
6.204912664e-09
6.070426657e-09
5.934643783e-09
5.798431657e-09
5.662839898e-09
5.529332357e-09
5.399172094e-09
5.273688347e-09
5.153837697e-09
5.040555697e-09
4.93437056e-09
4.835764845e-09
4.744684559e-09
4.66094934e-09
4.583808285e-09
4.512558168e-09
4.446198629e-09
4.384091589e-09
4.325424756e-09
4.269547207e-09
4.215294693e-09
4.161364449e-09
4.105883237e-09
4.047153985e-09
3.983335771e-09
3.913031163e-09
3.834563219e-09
3.746150267e-09
3.645050089e-09
3.528022866e-09
3.391049624e-09
3.230357992e-09
3.042359862e-09
2.824429653e-09
2.574214911e-09
2.289779144e-09
1.968585725e-09
1.607886481e-09
1.204262454e-09
7.547897704e-10
2.569827035e-10
-2.89960875e-10
-8.856088652e-10
-1.527629716e-09
-2.212710131e-09
-2.936154174e-09
-3.692791219e-09
-4.476380708e-09
-5.280263871e-09
-6.096416862e-09
-6.915884607e-09
-7.727768282e-09
-8.51997603e-09
-9.278905204e-09
-9.991097441e-09
-1.06435621e-08
-1.122554799e-08
-1.172823505e-08
-1.214556912e-08
-1.247304934e-08
-1.270829604e-08
-1.285015063e-08
-1.290009793e-08
-1.286207068e-08
-1.274406391e-08
-1.255714734e-08
-1.231557941e-08
-1.203427748e-08
-1.172825457e-08
-1.141094973e-08
-1.109551909e-08
-1.079512947e-08
-1.052491012e-08
-1.030142889e-08
-1.01429486e-08
-1.006773166e-08
-1.009475483e-08
-1.024426784e-08
-1.054148827e-08
-1.101923823e-08
-1.172164206e-08
-1.270449604e-08
-1.403591768e-08
-1.579443627e-08
-1.806931615e-08
-2.096020427e-08
-2.457956423e-08
-2.905360729e-08
-3.452392903e-08
-4.114599575e-08
-4.908735417e-08
-5.852333075e-08
-6.963389692e-08
-8.259974654e-08
-9.760083951e-08
-1.148152201e-07
-1.344205288e-07
-1.565948112e-07
-1.815168322e-07
-2.093617e-07
-2.4029326e-07
-2.744548745e-07
-3.119658988e-07
-3.529254918e-07
-3.974200309e-07
-4.455258038e-07
-4.973092434e-07
-5.528286516e-07
-6.121250011e-07
-6.752251765e-07
-7.420520509e-07
-8.13021632e-07
-8.911520457e-07
-1.020529825e-06
-5.652331319e-07
3.06339582e-09
6.477741061e-09
6.401173013e-09
6.45211298e-09
6.323212203e-09
6.19064146e-09
6.056714737e-09
5.921645963e-09
5.786066198e-09
5.651158717e-09
5.51816517e-09
5.388465046e-09
5.263210434e-09
5.143508728e-09
5.030175844e-09
4.923919984e-09
4.825056128e-09
4.733663996e-09
4.649308399e-09
4.571363611e-09
4.498915937e-09
4.431204342e-09
4.367406579e-09
4.306863254e-09
4.248576309e-09
4.191321633e-09
4.133315513e-09
4.072625256e-09
4.007146059e-09
3.935045972e-09
3.854387915e-09
3.763211324e-09
3.65879988e-09
3.537799438e-09
3.395957892e-09
3.228853898e-09
3.032094243e-09
2.802025029e-09
2.535430702e-09
2.22955487e-09
1.8812854e-09
1.487140595e-09
1.042943769e-09
5.446247547e-10
-1.149711927e-11
-6.276633383e-10
-1.304692973e-09
-2.041470981e-09
-2.835500592e-09
-3.682714944e-09
-4.577997095e-09
-5.514839184e-09
-6.485639991e-09
-7.481143613e-09
-8.490574853e-09
-9.500962628e-09
-1.049741465e-08
-1.146294682e-08
-1.237963099e-08
-1.322932741e-08
-1.399536571e-08
-1.466304744e-08
-1.52205351e-08
-1.565829659e-08
-1.596937438e-08
-1.614880026e-08
-1.619452968e-08
-1.610769972e-08
-1.589411474e-08
-1.556422589e-08
-1.513328209e-08
-1.461947471e-08
-1.404248438e-08
-1.34214698e-08
-1.27749157e-08
-1.212076592e-08
-1.147769827e-08
-1.08651668e-08
-1.030314762e-08
-9.810544699e-09
-9.40465279e-09
-9.101406887e-09
-8.918262986e-09
-8.877750377e-09
-9.011898291e-09
-9.364455522e-09
-9.992060957e-09
-1.096295247e-08
-1.23564798e-08
-1.4262577e-08
-1.678380489e-08
-2.00371884e-08
-2.415671744e-08
-2.929315976e-08
-3.561267733e-08
-4.329268601e-08
-5.25179024e-08
-6.347593577e-08
-7.635453635e-08
-9.133940441e-08
-1.086138067e-07
-1.283588297e-07
-1.507544075e-07
-1.759787444e-07
-2.042046859e-07
-2.355923278e-07
-2.702810372e-07
-3.083863456e-07
-3.50004689e-07
-3.952205741e-07
-4.441095938e-07
-4.967388539e-07
-5.531661384e-07
-6.134388793e-07
-6.775674535e-07
-7.455225123e-07
-8.175819704e-07
-8.971585745e-07
-1.028056982e-06
-5.697782008e-07
3.056571169e-09
6.462368066e-09
6.385163102e-09
6.435505355e-09
6.306773013e-09
6.174525784e-09
6.041074002e-09
5.906489952e-09
5.771452895e-09
5.637001675e-09
5.504402008e-09
5.374911336e-09
5.249750231e-09
5.129957526e-09
5.016437415e-09
4.909821502e-09
4.810488284e-09
4.718373207e-09
4.633053903e-09
4.553797671e-09
4.479788355e-09
4.410195539e-09
4.344285226e-09
4.281185242e-09
4.219783774e-09
4.158467992e-09
4.09527889e-09
4.027974287e-09
3.954350182e-09
3.872198258e-09
3.779256288e-09
3.672758335e-09
3.549244774e-09
3.404345877e-09
3.233174193e-09
3.030667849e-09
2.79217632e-09
2.513555411e-09
2.191078513e-09
1.820857497e-09
1.398540967e-09
9.190332557e-10
3.769873621e-10
-2.326732025e-10
-9.138509443e-10
-1.668900986e-09
-2.498295503e-09
-3.400874151e-09
-4.373846347e-09
-5.412995258e-09
-6.512417958e-09
-7.664436184e-09
-8.859211837e-09
-1.008463362e-08
-1.132598643e-08
-1.256589719e-08
-1.378429255e-08
-1.495899464e-08
-1.606658467e-08
-1.70838542e-08
-1.79889599e-08
-1.876250806e-08
-1.938779571e-08
-1.985107761e-08
-2.014141725e-08
-2.025125009e-08
-2.017696788e-08
-1.992018723e-08
-1.94885861e-08
-1.889631854e-08
-1.81631662e-08
-1.731273364e-08
-1.637031082e-08
-1.536126982e-08
-1.431071203e-08
-1.324378915e-08
-1.218601483e-08
-1.116253807e-08
-1.019652827e-08
-9.30741869e-09
-8.510355009e-09
-7.817844578e-09
-7.243569606e-09
-6.80734997e-09
-6.539318557e-09
-6.482389814e-09
-6.692202605e-09
-7.236298268e-09
-8.193363146e-09
-9.654563087e-09
-1.172597616e-08
-1.453189936e-08
-1.821634255e-08
-2.294240683e-08
-2.888872926e-08
-3.624480671e-08
-4.520591376e-08
-5.596936764e-08
-6.873166303e-08
-8.368661163e-08
-1.010240817e-07
-1.209295951e-07
-1.435844549e-07
-1.691650761e-07
-1.978399364e-07
-2.297632302e-07
-2.650680366e-07
-3.038640844e-07
-3.462429052e-07
-3.92285339e-07
-4.420647549e-07
-4.95647039e-07
-5.530924796e-07
-6.144447675e-07
-6.797356462e-07
-7.488822568e-07
-8.223182589e-07
-9.031128349e-07
-1.036139063e-06
-5.746573445e-07
3.048882873e-09
6.445208289e-09
6.367351632e-09
6.417056943e-09
6.288441272e-09
6.156456677e-09
6.023339422e-09
5.889164457e-09
5.754515504e-09
5.620398773e-09
5.488007227e-09
5.358597162e-09
5.233327969e-09
5.113285843e-09
4.999358247e-09
4.892206644e-09
4.792114578e-09
4.698976195e-09
4.6122912e-09
4.53135622e-09
4.455340011e-09
4.383478289e-09
4.314936795e-09
4.2486998e-09
4.183336925e-09
4.117001986e-09
4.047427047e-09
3.972232207e-09
3.888942191e-09
3.79503363e-09
3.68759794e-09
3.56307311e-09
3.4169838e-09
3.244131212e-09
3.038866189e-09
2.795712528e-09
2.509558023e-09
2.175705792e-09
1.789390814e-09
1.345331398e-09
8.373831151e-10
2.588271732e-10
-3.970912801e-10
-1.136172051e-09
-1.962715788e-09
-2.879103132e-09
-3.885959483e-09
-4.982246045e-09
-6.165404056e-09
-7.431012638e-09
-8.772443576e-09
-1.018030009e-08
-1.164213563e-08
-1.314215747e-08
-1.466115165e-08
-1.617640477e-08
-1.76620206e-08
-1.908954409e-08
-2.042921134e-08
-2.165127215e-08
-2.272743134e-08
-2.363168381e-08
-2.434104455e-08
-2.483582592e-08
-2.510030397e-08
-2.51234611e-08
-2.490024878e-08
-2.443288018e-08
-2.373175553e-08
-2.281556253e-08
-2.170985404e-08
-2.044499163e-08
-1.905363022e-08
-1.756949918e-08
-1.602678592e-08
-1.446021231e-08
-1.290404997e-08
-1.139017391e-08
-9.945300882e-09
-8.58895875e-09
-7.333612943e-09
-6.187493711e-09
-5.159784809e-09
-4.266240682e-09
-3.533751694e-09
-3.002224625e-09
-2.724547975e-09
-2.76564749e-09
-3.203000138e-09
-4.129084118e-09
-5.655446192e-09
-7.916062806e-09
-1.106832851e-08
-1.529036544e-08
-2.077597316e-08
-2.772858005e-08
-3.635637463e-08
-4.686890903e-08
-5.947461025e-08
-7.437830842e-08
-9.177863865e-08
-1.118662386e-07
-1.348228849e-07
-1.608211665e-07
-1.900223747e-07
-2.225718268e-07
-2.585932386e-07
-2.981875752e-07
-3.414386157e-07
-3.884210813e-07
-4.392041443e-07
-4.938527393e-07
-5.524266293e-07
-6.149798636e-07
-6.815293449e-07
-7.520584844e-07
-8.268443736e-07
-9.094641925e-07
-1.044429549e-06
-5.798296036e-07
3.040272404e-09
6.426009366e-09
6.347554797e-09
6.396561331e-09
6.268051287e-09
6.136288939e-09
6.003463396e-09
5.869589204e-09
5.73523149e-09
5.601330656e-09
5.469025025e-09
5.339514326e-09
5.214001491e-09
5.093550894e-09
4.979069721e-09
4.871154726e-09
4.77005841e-09
4.675566392e-09
4.587199702e-09
4.50420819e-09
4.425844083e-09
4.35128746e-09
4.279625002e-09
4.209579122e-09
4.139453068e-09
4.067085894e-09
3.990023782e-09
3.905631649e-09
3.811194815e-09
3.703655075e-09
3.579381778e-09
3.433836712e-09
3.26158532e-09
3.056534997e-09
2.812449178e-09
2.523301383e-09
2.183438756e-09
1.78719521e-09
1.328404121e-09
7.998890792e-10
1.935435455e-10
-4.991868223e-10
-1.286304528e-09
-2.174464693e-09
-3.168398215e-09
-4.270968975e-09
-5.483339301e-09
-6.805170705e-09
-8.234319187e-09
-9.766281633e-09
-1.139338639e-08
-1.310419041e-08
-1.488305144e-08
-1.670997332e-08
-1.856051452e-08
-2.040589538e-08
-2.221334941e-08
-2.394702419e-08
-2.556922551e-08
-2.704199871e-08
-2.832845567e-08
-2.939401114e-08
-3.020727363e-08
-3.074106704e-08
-3.097358996e-08
-3.08897859e-08
-3.048306438e-08
-2.975662133e-08
-2.872452704e-08
-2.741102642e-08
-2.584905655e-08
-2.40772992e-08
-2.213817161e-08
-2.007622925e-08
-1.793776991e-08
-1.576967324e-08
-1.361718691e-08
-1.152027363e-08
-9.509914975e-09
-7.605971777e-09
-5.817926667e-09
-4.148984563e-09
-2.602194253e-09
-1.186968702e-09
7.609376935e-11
1.152933538e-09
1.996009047e-09
2.5446257e-09
2.723285353e-09
2.437549369e-09
1.568559689e-09
-3.039009489e-11
-2.533391541e-09
-6.136999229e-09
-1.10529421e-08
-1.750139577e-08
-2.570656719e-08
-3.589423015e-08
-4.828922677e-08
-6.311145429e-08
-8.057096847e-08
-1.008639507e-07
-1.241712564e-07
-1.506585879e-07
-1.804762981e-07
-2.137565813e-07
-2.506096506e-07
-2.911234413e-07
-3.353703025e-07
-3.83415665e-07
-4.353229324e-07
-4.911546339e-07
-5.509753467e-07
-6.148389888e-07
-6.827950154e-07
-7.547721787e-07
-8.312475801e-07
-9.154052314e-07
-1.053025485e-06
-5.852128148e-07
3.030664168e-09
6.404682309e-09
6.325608962e-09
6.373889927e-09
6.245480526e-09
6.113907314e-09
5.981327553e-09
5.847721864e-09
5.713565154e-09
5.579766933e-09
5.447412078e-09
5.317700443e-09
5.191804155e-09
5.070811099e-09
4.955602189e-09
4.846746884e-09
4.7443879e-09
4.64829389e-09
4.557909361e-09
4.472557752e-09
4.39148345e-09
4.313845763e-09
4.238530996e-09
4.164022798e-09
4.088298212e-09
4.008949328e-09
3.923275249e-09
3.828432736e-09
3.721265608e-09
3.598128833e-09
3.454485157e-09
3.284802048e-09
3.082654531e-09
2.841185659e-09
2.553504828e-09
2.213005807e-09
1.813125509e-09
1.346853659e-09
8.06101242e-10
1.815264353e-10
-5.371853817e-10
-1.360346343e-09
-2.297298549e-09
-3.355594834e-09
-4.540866048e-09
-5.856970001e-09
-7.306310114e-09
-8.889656917e-09
-1.060557124e-08
-1.244935097e-08
-1.441209508e-08
-1.647993043e-08
-1.863366759e-08
-2.08485854e-08
-2.309438828e-08
-2.53352526e-08
-2.753034402e-08
-2.963473159e-08
-3.160089467e-08
-3.338027438e-08
-3.492495298e-08
-3.618914439e-08
-3.713077356e-08
-3.771327201e-08
-3.790737507e-08
-3.76933886e-08
-3.706296395e-08
-3.602106241e-08
-3.45861814e-08
-3.278976019e-08
-3.067343497e-08
-2.828650015e-08
-2.568346207e-08
-2.292296459e-08
-2.006656981e-08
-1.717648652e-08
-1.431155165e-08
-1.152201016e-08
-8.844862698e-09
-6.301428854e-09
-3.898595707e-09
-1.633457707e-09
4.997958533e-10
2.502399626e-09
4.364807747e-09
6.062885307e-09
7.557185372e-09
8.792725992e-09
9.69673454e-09
1.017230389e-08
1.009169667e-08
9.29243534e-09
7.579941178e-09
4.735191461e-09
5.246862412e-10
-5.2922323e-09
-1.296019126e-08
-2.272687864e-08
-3.483992611e-08
-4.95398027e-08
-6.705110972e-08
-8.757587248e-08
-1.11291555e-07
-1.383527801e-07
-1.688937122e-07
-2.030277974e-07
-2.408458328e-07
-2.824172439e-07
-3.277977859e-07
-3.770400689e-07
-4.301993264e-07
-4.873369896e-07
-5.485198046e-07
-6.138197128e-07
-6.832767131e-07
-7.569087781e-07
-8.350191999e-07
-9.214261707e-07
-1.061435344e-06
-5.907122093e-07
3.019978949e-09
6.381044663e-09
6.301380986e-09
6.348880357e-09
6.220587751e-09
6.089222298e-09
5.956874392e-09
5.823480491e-09
5.689464664e-09
5.555687335e-09
5.423189555e-09
5.293155896e-09
5.166775139e-09
5.045120241e-09
4.929050337e-09
4.819051603e-09
4.715212161e-09
4.617235152e-09
4.524571983e-09
4.436576521e-09
4.352477483e-09
4.271337725e-09
4.191839839e-09
4.112176694e-09
4.030051342e-09
3.942779261e-09
3.847436286e-09
3.740826263e-09
3.619318117e-09
3.478465323e-09
3.312791346e-09
3.115732163e-09
2.879981688e-09
2.597892132e-09
2.261944766e-09
1.864640409e-09
1.398161577e-09
8.5362688e-10
2.20675454e-10
-5.125246709e-10
-1.358468543e-09
-2.32930068e-09
-3.43573957e-09
-4.686675831e-09
-6.089194265e-09
-7.648964884e-09
-9.370254873e-09
-1.125545698e-08
-1.330395523e-08
-1.551087669e-08
-1.786591033e-08
-2.035262281e-08
-2.294799811e-08
-2.562219346e-08
-2.833827623e-08
-3.105229793e-08
-3.371370605e-08
-3.626650706e-08
-3.86507637e-08
-4.080449203e-08
-4.266563673e-08
-4.417419684e-08
-4.52748014e-08
-4.591921515e-08
-4.606943912e-08
-4.570013183e-08
-4.480145805e-08
-4.338034712e-08
-4.146102436e-08
-3.908305823e-08
-3.629870737e-08
-3.316991169e-08
-2.976634835e-08
-2.616417148e-08
-2.244392949e-08
-1.868689252e-08
-1.496912138e-08
-1.135490655e-08
-7.890770355e-09
-4.602380516e-09
-1.495191527e-09
1.44133746e-09
4.226639313e-09
6.880009392e-09
9.410419085e-09
1.180901841e-08
1.404667096e-08
1.60753444e-08
1.782569292e-08
1.919931887e-08
2.00586878e-08
2.022296473e-08
1.947219462e-08
1.755928991e-08
1.422341945e-08
9.198537566e-09
2.213829178e-09
-7.007990567e-09
-1.874626092e-08
-3.326970606e-08
-5.082147296e-08
-7.160929317e-08
-9.580354204e-08
-1.235418453e-07
-1.549348218e-07
-1.900693532e-07
-2.290089386e-07
-2.717969624e-07
-3.184665014e-07
-3.69052588e-07
-4.236005813e-07
-4.821693323e-07
-5.448349419e-07
-6.116756191e-07
-6.82778701e-07
-7.581097092e-07
-8.382228529e-07
-9.264976081e-07
-1.069694334e-06
-5.96180178e-07
3.008147341e-09
6.355000445e-09
6.27473428e-09
6.321425369e-09
6.193292424e-09
6.062131771e-09
5.930009748e-09
5.796800748e-09
5.662886075e-09
5.529054289e-09
5.396329056e-09
5.265895544e-09
5.138934113e-09
5.016516861e-09
4.899445817e-09
4.788133178e-09
4.682593487e-09
4.582501368e-09
4.487322853e-09
4.396414178e-09
4.308969207e-09
4.223918302e-09
4.139686871e-09
4.054206891e-09
3.96487786e-09
3.868780975e-09
3.762693246e-09
3.643012963e-09
3.505438393e-09
3.344682108e-09
3.154240253e-09
2.926598085e-09
2.653572912e-09
2.326826288e-09
1.937950758e-09
1.478310917e-09
9.382963949e-10
3.067559609e-10
-4.293489682e-10
-1.28437161e-09
-2.273093354e-09
-3.409476333e-09
-4.70598733e-09
-6.173396291e-09
-7.821137541e-09
-9.657491454e-09
-1.168932188e-08
-1.392101466e-08
-1.635304559e-08
-1.898040982e-08
-2.179154019e-08
-2.476745143e-08
-2.788124036e-08
-3.109746803e-08
-3.437176213e-08
-3.765058916e-08
-4.087180711e-08
-4.396576406e-08
-4.685709092e-08
-4.946690666e-08
-5.171534171e-08
-5.352484469e-08
-5.482352495e-08
-5.554934616e-08
-5.565354082e-08
-5.510451311e-08
-5.389028772e-08
-5.202032415e-08
-4.952488353e-08
-4.645283048e-08
-4.286856361e-08
-3.884917551e-08
-3.448294848e-08
-2.986738868e-08
-2.510643297e-08
-2.030499428e-08
-1.556195301e-08
-1.096171496e-08
-6.56671804e-09
-2.412294294e-09
1.495054672e-09
5.175626605e-09
8.670545724e-09
1.202927429e-08
1.52913967e-08
1.846970498e-08
2.154657473e-08
2.448020917e-08
2.720703906e-08
2.96301366e-08
3.160416012e-08
3.29273792e-08
3.334788484e-08
3.258121409e-08
3.033099843e-08
2.629969423e-08
2.018406539e-08
1.166699052e-08
4.244114526e-10
-1.385166575e-08