/*--------------------------------*- C++ -*----------------------------------*\
  =========                 |
  \\      /  F ield         | OpenFOAM: The Open Source CFD Toolbox
   \\    /   O peration     | Website:  https://openfoam.org
    \\  /    A nd           | Version:  6
     \\/     M anipulation  |
\*---------------------------------------------------------------------------*/
FoamFile
{
    version     2.0;
    format      ascii;
    class       volScalarField;
    location    "0.003";
    object      ViscousDissipation;
}
// * * * * * * * * * * * * * * * * * * * * * * * * * * * * * * * * * * * * * //

dimensions      [1 -1 -3 0 0 0 0];

internalField   nonuniform List<scalar> 
9600
(
3.031932509e-21
1.438117133e-20
2.170643267e-20
2.707634375e-20
3.360421658e-20
4.082457664e-20
4.86699495e-20
5.705461986e-20
6.588710233e-20
7.506376081e-20
8.44736093e-20
9.399037747e-20
1.034772631e-19
1.127784596e-19
1.217247737e-19
1.301263967e-19
1.377812616e-19
1.444702903e-19
1.499686684e-19
1.540426439e-19
1.56462618e-19
1.570019585e-19
1.554545574e-19
1.516398538e-19
1.454282555e-19
1.367532283e-19
1.256421249e-19
1.122323378e-19
9.680615249e-20
7.981385237e-20
6.19171712e-20
4.402230146e-20
2.732887492e-20
1.336444099e-20
4.026801561e-21
1.609417983e-21
8.827861784e-21
2.882714333e-20
6.517678954e-20
1.218375571e-19
2.03094981e-19
3.134552773e-19
4.574894977e-19
6.396381454e-19
8.639504219e-19
1.133791231e-18
1.451479563e-18
1.817921773e-18
2.232194495e-18
2.691174969e-18
3.189159305e-18
3.717602378e-18
4.264906681e-18
4.816438979e-18
5.354686307e-18
5.859754956e-18
6.310062682e-18
6.683399074e-18
6.958109909e-18
7.114557405e-18
7.136560699e-18
7.012977018e-18
6.739076544e-18
6.317828708e-18
5.760673828e-18
5.087881652e-18
4.328129195e-18
3.517540208e-18
2.698007721e-18
1.915172554e-18
1.215986429e-18
6.462328203e-19
2.480001574e-19
5.747735175e-20
1.031600619e-19
4.047592098e-19
9.728514012e-19
1.809290598e-18
2.908267716e-18
4.257769713e-18
5.841295078e-18
7.639459963e-18
9.631452313e-18
1.179593804e-17
1.41115339e-17
1.655647838e-17
1.910781617e-17
2.173980878e-17
2.442211593e-17
2.711758928e-17
2.97804438e-17
3.235474064e-17
3.477400166e-17
3.696178991e-17
3.883388946e-17
4.030170344e-17
4.127722776e-17
4.167902756e-17
4.143922477e-17
4.051072906e-17
3.887437458e-17
3.654538191e-17
3.35790439e-17
3.007585336e-17
2.618612424e-17
2.2114262e-17
1.81217311e-17
1.452880528e-17
1.171469565e-17
1.011785686e-17
1.023614462e-17
1.262779976e-17
1.791153028e-17
2.676436966e-17
3.991572022e-17
5.812168756e-17
8.223887679e-17
1.105897012e-16
1.72789871e-16
5.569560186e-17
5.895157946e-21
1.73325132e-20
2.466114866e-20
3.009010687e-20
3.660862811e-20
4.38130496e-20
5.163864691e-20
6.000628852e-20
6.881801884e-20
7.797679488e-20
8.736540192e-20
9.686487064e-20
1.063323296e-19
1.156199695e-19
1.245527036e-19
1.329494531e-19
1.406024112e-19
1.473017894e-19
1.528168987e-19
1.569235642e-19
1.593862034e-19
1.599883336e-19
1.585182965e-19
1.548064979e-19
1.487182178e-19
1.401980757e-19
1.292682955e-19
1.160772453e-19
1.009026977e-19
8.420642226e-20
6.664730201e-20
4.914381163e-20
3.289490855e-20
1.944134492e-20
1.068376519e-20
8.930899553e-21
1.69067022e-20
3.777426213e-20
7.511828678e-20
1.32921064e-19
2.154932441e-19
3.273699258e-19
4.731636232e-19
6.573557218e-19
8.840565777e-19
1.156681696e-18
1.477625497e-18
1.847844306e-18
2.266493854e-18
2.730489122e-18
3.234200062e-18
3.769098305e-18
4.323647064e-18
4.883197927e-18
5.430270789e-18
5.944905399e-18
6.405503375e-18
6.789720427e-18
7.075832991e-18
7.244018434e-18
7.278007521e-18
7.166471561e-18
6.90462221e-18
6.495285793e-18
5.949899739e-18
5.288650619e-18
4.540270259e-18
3.740858128e-18
2.932401604e-18
2.160547482e-18
1.472326963e-18
9.134926622e-19
5.26112958e-19
3.46227662e-19
4.021357651e-19
7.132286815e-19
1.289688068e-18
2.132908923e-18
3.236584945e-18
4.588280727e-18
6.17114837e-18
7.965723156e-18
9.951308414e-18
1.210708033e-17
1.441236496e-17
1.684646741e-17
1.938753362e-17
2.20110908e-17
2.468783655e-17
2.738156991e-17
3.004696493e-17
3.262822506e-17
3.505836751e-17
3.726005313e-17
3.914759898e-17
4.063072723e-17
4.161956596e-17
4.203098162e-17
4.179569913e-17
4.086571499e-17
3.922157478e-17
3.687872626e-17
3.389335803e-17
3.036713419e-17
2.645206708e-17
2.235416969e-17
1.833685147e-17
1.472187062e-17
1.189013295e-17
1.028116269e-17
1.039421905e-17
1.278858778e-17
1.808466823e-17
2.69621248e-17
4.015453339e-17
5.8430186e-17
8.267624935e-17
1.113018206e-16
1.756318931e-16
5.702709876e-17
8.725665034e-21
2.016123816e-20
2.754494368e-20
3.304580772e-20
3.960131314e-20
4.682405401e-20
5.466660064e-20
6.304787409e-20
7.187997998e-20
8.106096789e-20
9.048270634e-20
1.000210861e-19
1.095428527e-19
1.188954063e-19
1.279141605e-19
1.364138277e-19
1.441980123e-19
1.510530799e-19
1.56760239e-19
1.610913853e-19
1.638231613e-19
1.647353981e-19
1.636295068e-19
1.603328946e-19
1.547244754e-19
1.467458487e-19
1.364323132e-19
1.239287211e-19
1.095254657e-19
9.368140583e-20
7.706863612e-20
6.060449647e-20
4.550230073e-20
3.330465497e-20
2.592899415e-20
2.569147191e-20
3.533750892e-20
5.80462388e-20
9.743123586e-20
1.575044105e-19
2.426191741e-19
3.573637327e-19
5.06417007e-19
6.943459127e-19
9.253537624e-19
1.202971466e-18
1.529702443e-18
1.906633867e-18
2.333027975e-18
2.805927393e-18
3.319785388e-18
3.866176353e-18
4.433597179e-18
5.007445941e-18
5.570188793e-18
6.101814865e-18
6.58054722e-18
6.983870147e-18
7.289759998e-18
7.478138895e-18
7.532389656e-18
7.440941047e-18
7.198715585e-18
6.808403959e-18
6.281290165e-18
5.637580891e-18
4.906018676e-18
4.122876573e-18
3.330286511e-18
2.574146821e-18
1.90165059e-18
1.358716933e-18
9.874058007e-19
8.236401325e-19
8.953658688e-19
1.221447709e-18
1.811326574e-18
2.665527e-18
3.776816599e-18
5.131894984e-18
6.713284407e-18
8.501227839e-18
1.047526059e-17
1.261530199e-17
1.490202313e-17
1.731648326e-17
1.983895305e-17
2.244712079e-17
2.511376479e-17
2.780430481e-17
3.047445366e-17
3.306856403e-17
3.551888364e-17
3.774630752e-17
3.96625622e-17
4.117421472e-17
4.21880045e-17
4.261767556e-17
4.239133843e-17
4.145939452e-17
3.980171353e-17
3.743438661e-17
3.441505059e-17
3.084796924e-17
2.68880717e-17
2.27450379e-17
1.868565849e-17
1.503541017e-17
1.217818736e-17
1.055672915e-17
1.067290041e-17
1.308926205e-17
1.842995128e-17
2.738065515e-17
4.068619245e-17
5.91365947e-17
8.367923522e-17
1.12826031e-16
1.785100803e-16
5.804760864e-17
1.235381065e-20
2.378528744e-20
3.121527515e-20
3.678845924e-20
4.340386902e-20
5.06775802e-20
5.856395284e-20
6.69909713e-20
7.587213926e-20
8.511241556e-20
9.460413311e-20
1.042297199e-19
1.13856744e-19
1.233396461e-19
1.325156783e-19
1.412075134e-19
1.492217712e-19
1.563535512e-19
1.623877119e-19
1.671051535e-19
1.702865902e-19
1.717215455e-19
1.712166445e-19
1.686102066e-19
1.637873154e-19
1.567006946e-19
1.4739138e-19
1.360146525e-19
1.228663558e-19
1.084164269e-19
9.334388799e-20
7.857936797e-20
6.534553841e-20
5.520129418e-20
5.007701879e-20
5.231035249e-20
6.466661045e-20
9.035611709e-20
1.330250149e-19
1.967336797e-19
2.85890333e-19
4.051600648e-19
5.593097109e-19
7.530197135e-19
9.906174344e-19
1.275780533e-18
1.611163036e-18
1.998017405e-18
2.435764049e-18
2.92160613e-18
3.4501342e-18
4.013043756e-18
4.598906835e-18
5.193156152e-18
5.778220254e-18
6.333986159e-18
6.83848384e-18
7.268933413e-18
7.602967552e-18
7.820126946e-18
7.903387677e-18
7.840800145e-18
7.6269522e-18
7.264286e-18
6.763925224e-18
6.146025703e-18
5.439377313e-18
4.680396279e-18
3.911425777e-18
3.178605641e-18
2.529348984e-18
2.00969718e-18
1.661676447e-18
1.520936423e-18
1.614893977e-18
1.961586289e-18
2.569400007e-18
3.437609081e-18
4.55771614e-18
5.915247491e-18
7.491915001e-18
9.26763553e-18
1.122236157e-17
1.33371735e-17
1.559475447e-17
1.797879295e-17
2.047270926e-17
2.305740665e-17
2.570872307e-17
2.839442463e-17
3.107167118e-17
3.368487614e-17
3.616501775e-17
3.843017711e-17
4.038820448e-17
4.194086354e-17
4.299002488e-17
4.34447657e-17
4.322965862e-17
4.229273002e-17
4.061332238e-17
3.820843553e-17
3.513842227e-17
3.151126899e-17
2.74868499e-17
2.328002566e-17
1.916325344e-17
1.546717116e-17
1.258079639e-17
1.095127237e-17
1.108504697e-17
1.354928771e-17
1.897410363e-17
2.805384313e-17
4.154686472e-17
6.027001329e-17
8.520934469e-17
1.149309919e-16
1.81696175e-16
5.905329967e-17
1.689598532e-20
2.833984662e-20
3.581889901e-20
4.146254273e-20
4.815331607e-20
5.549939017e-20
6.345819834e-20
7.195992676e-20
8.092436624e-20
9.025952242e-20
9.986403068e-20
1.096236834e-19
1.194126775e-19
1.290897859e-19
1.384998712e-19
1.474714262e-19
1.558199286e-19
1.633475845e-19
1.698488609e-19
1.751124575e-19
1.789293059e-19
1.810978793e-19
1.814365659e-19
1.79794456e-19
1.760697247e-19
1.702263407e-19
1.62318033e-19
1.525106438e-19
1.411127329e-19
1.28605962e-19
1.156846186e-19
1.032941355e-19
9.267584127e-20
8.540644315e-20
8.343898827e-20
8.913428369e-20
1.052894466e-19
1.351508432e-19
1.824151306e-19
2.512021753e-19
3.460006526e-19
4.715692492e-19
6.327946375e-19
8.344915095e-19
1.08114974e-18
1.37662096e-18
1.723758971e-18
2.124018682e-18
2.577038518e-18
3.080222708e-18
3.628356342e-18
4.213281422e-18
4.823680414e-18
5.445014931e-18
6.05967891e-18
6.647415487e-18
7.186029496e-18
7.65239671e-18
8.023736269e-18
8.279090713e-18
8.400932056e-18
8.376803097e-18
8.200865181e-18
7.875207614e-18
7.410737157e-18
6.827499801e-18
6.154318481e-18
5.427740097e-18
4.690338042e-18
3.98850819e-18
3.369892091e-18
2.880627608e-18
2.562616135e-18
2.451082512e-18
2.572663102e-18
2.94427843e-18
3.572889157e-18
4.456180134e-18
5.584019192e-18
6.940523582e-18
8.506407677e-18
1.026133921e-17
1.218590956e-17
1.426296055e-17
1.647795965e-17
1.881836412e-17
2.127190861e-17
2.382404238e-17
2.645470054e-17
2.913489262e-17
3.182349093e-17
3.4464883e-17
3.698790883e-17
3.930667532e-17
4.132335774e-17
4.293317731e-17
4.403112034e-17
4.452012635e-17
4.431985351e-17
4.33755088e-17
4.166572463e-17
3.920928148e-17
3.607025455e-17
3.236226088e-17
2.82518189e-17
2.396129024e-17
1.977055015e-17
1.601755148e-17
1.309784253e-17
1.146473835e-17
1.163040458e-17
1.416822313e-17
1.97156585e-17
2.897694882e-17
4.272581069e-17
6.179819813e-17
8.721709765e-17
1.175323738e-16
1.853754205e-16
6.015931168e-17
2.239902426e-20
3.387865642e-20
4.141688096e-20
4.713709905e-20
5.391405308e-20
6.135227158e-20
6.940801438e-20
7.801493525e-20
8.709622706e-20
9.656576218e-20
1.063269857e-19
1.162724539e-19
1.262822163e-19
1.36222928e-19
1.459468205e-19
1.552919218e-19
1.640828434e-19
1.721327863e-19
1.792465682e-19
1.852248071e-19
1.898699517e-19
1.929939405e-19
1.944288698e-19
1.940395595e-19
1.917396375e-19
1.875095021e-19
1.814180931e-19
1.736473094e-19
1.645214663e-19
1.545404809e-19
1.444179538e-19
1.351217096e-19
1.279160555e-19
1.244032855e-19
1.265631514e-19
1.367886808e-19
1.579150903e-19
1.932391375e-19
2.465203944e-19
3.219603781e-19
4.241465387e-19
5.579591005e-19
7.284259096e-19
9.4052873e-19
1.198946332e-18
1.507747833e-18
1.870025373e-18
2.287495258e-18
2.760062898e-18
3.285398165e-18
3.858522256e-18
4.471472832e-18
5.113057485e-18
5.768786586e-18
6.420999843e-18
7.049283008e-18
7.631157247e-18
8.143099308e-18
8.561809196e-18
8.865732374e-18
9.036694643e-18
9.061613191e-18
8.934081859e-18
8.655738049e-18
8.237163901e-18
7.698234554e-18
7.067743035e-18
6.382346644e-18
5.6848265e-18
5.021830303e-18
4.441196002e-18
3.989089243e-18
3.707152365e-18
3.629970233e-18
3.783122225e-18
4.182063273e-18
4.831973622e-18
5.728565149e-18
6.859762867e-18
8.208007557e-18
9.752947432e-18
1.147409266e-17
1.335311891e-17
1.53753368e-17
1.753012246e-17
1.981001994e-17
2.220864924e-17
2.471746241e-17
2.732184012e-17
2.999685276e-17
3.270344965e-17
3.538555351e-17
3.79688882e-17
4.036185679e-17
4.245895571e-17
4.414647979e-17
4.531038938e-17
4.584547369e-17
4.566522966e-17
4.471129648e-17
4.296187485e-17
4.043832039e-17
3.721013023e-17
3.339843809e-17
2.917882227e-17
2.478329384e-17
2.050145538e-17
1.668031252e-17
1.372368669e-17
1.209222763e-17
1.230507361e-17
1.494274518e-17
2.065101441e-17
3.014502038e-17
4.421180284e-17
6.370821309e-17
8.966933415e-17
1.206450206e-16
1.896262946e-16
6.14192673e-17
2.892797451e-20
4.046244406e-20
4.80756484e-20
5.388355512e-20
6.076074329e-20
6.830977578e-20
7.648744317e-20
8.522945899e-20
9.446342933e-20
1.041083052e-19
1.140740525e-19
1.24260057e-19
1.345543862e-19
1.448322328e-19
1.549557251e-19
1.647735323e-19
1.741222023e-19
1.828275182e-19
1.907077716e-19
1.975776563e-19
2.032547202e-19
2.075672539e-19
2.103651594e-19
2.115324282e-19
2.11002588e-19
2.087761966e-19
2.049422366e-19
1.997030446e-19
1.934045379e-19
1.865704269e-19
1.799406167e-19
1.745114329e-19
1.715773832e-19
1.727723159e-19
1.801105187e-19
1.960248976e-19
2.234007675e-19
2.655985334e-19
3.264599019e-19
4.102876682e-19
5.217929701e-19
6.660005571e-19
8.481080478e-19
1.073291616e-18
1.346456744e-18
1.671929839e-18
2.053096019e-18
2.491987912e-18
2.988844045e-18
3.541655994e-18
4.145739499e-18
4.793365232e-18
5.473500746e-18
6.17171297e-18
6.870291129e-18
7.548633842e-18
8.183939189e-18
8.752202137e-18
9.229507511e-18
9.593565269e-18
9.825415943e-18
9.911187755e-18
9.843764329e-18
9.624182094e-18
9.262582068e-18
8.778555156e-18
8.200787629e-18
7.565977528e-18
6.917069995e-18
6.300909177e-18
5.765455932e-18
5.356774444e-18
5.11605135e-18
5.076962656e-18
5.263693981e-18
5.689863952e-18
6.358471623e-18
7.262882674e-18
8.388736042e-18
9.716585281e-18
1.122496188e-17
1.289348261e-17
1.470550454e-17
1.66498628e-17
1.872126088e-17
2.091911213e-17
2.324480174e-17
2.569764007e-17
2.826992259e-17
3.094175188e-17
3.367632324e-17
3.641650716e-17
3.908342994e-17
4.157768067e-17
4.378338101e-17
4.557507968e-17
4.682691732e-17
4.742329927e-17
4.726996759e-17
4.630444911e-17
4.450484382e-17
4.189645911e-17
3.855619184e-17
3.4615274e-17
3.026095857e-17
2.573757739e-17
2.134668449e-17
1.744629617e-17
1.444986905e-17
1.282650091e-17
1.310299673e-17
1.586763791e-17
2.177507245e-17
3.155100412e-17
4.599695862e-17
6.598190352e-17
9.256688522e-17
1.242522079e-16
1.945156461e-16
6.285339107e-17
3.656047895e-20
4.816658491e-20
5.587209417e-20
6.178352597e-20
6.877778578e-20
7.645855819e-20
8.47839519e-20
9.369271747e-20
1.031167341e-19
1.129809233e-19
1.23202058e-19
1.33687687e-19
1.443348277e-19
1.550289967e-19
1.656436341e-19
1.76040229e-19
1.860691641e-19
1.955713327e-19
2.043809459e-19
2.12329879e-19
2.192540114e-19
2.250017507e-19
2.294447241e-19
2.324902929e-19
2.340962042e-19
2.342878182e-19
2.331792296e-19
2.30998976e-19
2.281210102e-19
2.250998899e-19
2.227091313e-19
2.219809891e-19
2.242474134e-19
2.311817052e-19
2.448413794e-19
2.677105663e-19
3.027383904e-19
3.533667723e-19
4.235394336e-19
5.176837409e-19
6.406578114e-19
7.976575582e-19
9.940778762e-19
1.235324385e-18
1.526569238e-18
1.872448383e-18
2.276696986e-18
2.741730955e-18
3.268185765e-18
3.854440858e-18
4.496160663e-18
5.185900299e-18
5.912820593e-18
6.662571898e-18
7.417392802e-18
8.156478765e-18
8.856648268e-18
9.493333077e-18
1.004187596e-17
1.04791062e-17
1.078510203e-17
1.094502751e-17
1.095086805e-17
1.080288949e-17
1.051062292e-17
1.009323548e-17
9.57917805e-18
9.005090759e-18
8.413985577e-18
7.852803777e-18
7.369488757e-18
7.009808327e-18
6.814224609e-18
6.815166999e-18
7.03503691e-18
7.485188027e-18
8.166003696e-18
9.068075509e-18
1.017440354e-17
1.146343079e-17
1.291261944e-17
1.450210006e-17
1.621782374e-17
1.805357344e-17
2.001132528e-17
2.209963463e-17
2.43300751e-17
2.671203118e-17
2.924647763e-17
3.191952532e-17
3.469669053e-17
3.751880187e-17
4.030044308e-17
4.293154538e-17
4.528246512e-17
4.72123389e-17
4.858008845e-17
4.925694109e-17
4.913917196e-17
4.815966637e-17
4.629722695e-17
4.358296688e-17
4.010392093e-17
3.600453426e-17
3.148698465e-17
2.681083623e-17
2.229207498e-17
1.830151237e-17
1.526346819e-17
1.365611192e-17
1.401422773e-17
1.693397341e-17
2.307877662e-17
3.318548018e-17
4.806761433e-17
6.861261234e-17
9.588552063e-17
1.283801872e-16
2.000500148e-16
6.447638447e-17
4.538342499e-20
5.707561433e-20
6.489147515e-20
7.092483085e-20
7.805628355e-20
8.589219064e-20
9.439357957e-20
1.035029087e-19
1.131572164e-19
1.23287799e-19
1.338192405e-19
1.446680995e-19
1.557417473e-19
1.669373712e-19
1.781415877e-19
1.892305453e-19
2.000707343e-19
2.105205e-19
2.204328558e-19
2.296599611e-19
2.380597502e-19
2.455046975e-19
2.518925144e-19
2.571583637e-19
2.612890148e-19
2.64339842e-19
2.664560114e-19
2.678990533e-19
2.690785964e-19
2.705880648e-19
2.732427817e-19
2.781190842e-19
2.865948386e-19
3.003922237e-19
3.216235586e-19
3.528385419e-19
3.970678684e-19
4.578553025e-19
5.392691859e-19
6.458848595e-19
7.827325459e-19
9.552064955e-19
1.168931912e-18
1.429584174e-18
1.742653015e-18
2.113143139e-18
2.545207171e-18
3.041713429e-18
3.603764734e-18
4.230194493e-18
4.917079964e-18
5.657317278e-18
6.440310774e-18
7.251827048e-18
8.07406666e-18
8.885999169e-18
9.664004855e-18
1.0382848e-17
1.101698926e-17
1.15422002e-17
1.193739986e-17
1.218657161e-17
1.228058327e-17
1.221870712e-17
1.200965514e-17
1.167197542e-17
1.123371471e-17
1.073130284e-17
1.020767518e-17
9.70970691e-18
9.285118506e-18
8.97910913e-18
8.83107128e-18
8.871776652e-18
9.121378961e-18
9.588469389e-18
1.027029606e-17
1.1154174e-17
1.222003781e-17
1.34439952e-17
1.480255797e-17
1.627701206e-17
1.785717962e-17
1.954377021e-17
2.134861838e-17
2.329242478e-17
2.540001765e-17
2.769361437e-17
3.018490912e-17
3.286706449e-17
3.570774266e-17
3.864429787e-17
4.158209574e-17
4.439670141e-17
4.694025389e-17
4.905180573e-17
5.057072359e-17
5.135170111e-17
5.127960101e-17
5.02824144e-17
4.83409978e-17
4.549499083e-17
4.184515277e-17
3.755312965e-17
3.283986463e-17
2.798350657e-17
2.331702112e-17
1.922570386e-17
1.614554739e-17
1.456394339e-17
1.502334753e-17
1.81272997e-17
2.454781913e-17
3.50320476e-17
5.040800016e-17
7.157363072e-17
9.962276156e-17
1.329870537e-16
2.062483849e-16
6.628589674e-17
5.549224983e-20
6.728334264e-20
7.522754509e-20
8.140317403e-20
8.869450521e-20
9.671187404e-20
1.054203397e-19
1.147671796e-19
1.246952969e-19
1.351432954e-19
1.460443949e-19
1.573252885e-19
1.689049669e-19
1.80693884e-19
1.925935701e-19
2.044968434e-19
2.162885245e-19
2.278469881e-19
2.390470352e-19
2.497645584e-19
2.598834989e-19
2.693047337e-19
2.779566802e-19
2.858071929e-19
2.928773701e-19
2.992585563e-19
3.05133993e-19
3.108061295e-19
3.167290179e-19
3.235440318e-19
3.321174035e-19
3.435788028e-19
3.5936206e-19
3.812501777e-19
4.114252027e-19
4.525206821e-19
5.076702071e-19
5.805426494e-19
6.753548793e-19
7.968548273e-19
9.502711319e-19
1.141227696e-18
1.375619414e-18
1.659441842e-18
1.998563233e-18
2.39842664e-18
2.863675272e-18
3.397704601e-18
4.002158049e-18
4.676397013e-18
5.416984818e-18
6.217231329e-18
7.066847956e-18
7.951764395e-18
8.854158312e-18
9.752749643e-18
1.062340741e-17
1.144010923e-17
1.217626757e-17
1.28063947e-17
1.330801526e-17
1.366367512e-17
1.386284887e-17
1.390353658e-17
1.379335781e-17
1.354999053e-17
1.320085026e-17
1.278195269e-17
1.233595516e-17
1.190944483e-17
1.154964541e-17
1.130084402e-17
1.120094288e-17
1.127856563e-17
1.155106739e-17
1.202366959e-17
1.268983548e-17
1.353295161e-17
1.452933873e-17
1.565248526e-17
1.687815465e-17
1.818968823e-17
1.958255294e-17
2.106707148e-17
2.26684259e-17
2.442342555e-17
2.637412498e-17
2.855899761e-17
3.100285857e-17
3.370694923e-17
3.66405728e-17
3.973551975e-17
4.288434669e-17
4.594334317e-17
4.874062104e-17
5.10890674e-17
5.280299221e-17
5.371645277e-17
5.370083058e-17
5.267940385e-17
5.063736409e-17
4.762674154e-17
4.376681652e-17
3.924144058e-17
3.429493775e-17
2.922778603e-17
2.43925504e-17
2.019040886e-17
1.706932548e-17
1.552534608e-17
1.610753837e-17
1.942574492e-17
2.615958013e-17
3.706710594e-17
5.298880376e-17
7.484386832e-17
1.03731079e-16
1.380789475e-16
2.130666983e-16
6.828274904e-17
6.698950553e-20
7.889091929e-20
8.698146213e-20
9.332106222e-20
1.007972919e-19
1.090252886e-19
1.179751603e-19
1.275998989e-19
1.378492734e-19
1.486700624e-19
1.600051576e-19
1.717925525e-19
1.839642437e-19
1.96445509e-19
2.091546596e-19
2.220032232e-19
2.348967031e-19
2.477362224e-19
2.604215269e-19
2.728560064e-19
2.849538383e-19
2.966489835e-19
3.079055436e-19
3.187294086e-19
3.291819721e-19
3.393974321e-19
3.49605152e-19
3.601576437e-19
3.715632102e-19
3.84521323e-19
3.999593523e-19
4.190710312e-19
4.433585416e-19
4.746808705e-19
5.153086451e-19
5.679816078e-19
6.359609298e-19
7.230661302e-19
8.336880399e-19
9.727732667e-19
1.14577874e-18
1.358595641e-18
1.617437716e-18
1.92868232e-18
2.298648129e-18
2.733294348e-18
3.237834468e-18
3.816270611e-18
4.470868272e-18
5.201602244e-18
6.005612359e-18
6.876712629e-18
7.805002403e-18
8.776631169e-18
9.773773072e-18
1.077486834e-17
1.175519112e-17
1.26877934e-17
1.354484992e-17
1.429937606e-17
1.492722219e-17
1.540917868e-17
1.573298194e-17
1.589500272e-17
1.590141884e-17
1.576871317e-17
1.552337873e-17
1.520075387e-17
1.484296515e-17
1.449603814e-17
1.420637536e-17
1.401695245e-17
1.39636996e-17
1.407252499e-17
1.435732524e-17
1.481918802e-17
1.544693e-17
1.621911617e-17
1.710767693e-17
1.808306349e-17
1.912052612e-17
2.020665652e-17
2.134495027e-17
2.255898942e-17
2.389202586e-17
2.540229855e-17
2.715428365e-17
2.920700298e-17
3.160115807e-17
3.43469739e-17
3.741435019e-17
4.072655936e-17
4.415855673e-17
4.754091387e-17
5.06700834e-17
5.332484495e-17
5.528739097e-17
5.636616666e-17
5.6416984e-17
5.535940328e-17
5.318660602e-17
4.9968514e-17
4.584928727e-17
4.10412708e-17
3.581763117e-17
3.05053085e-17
2.547901643e-17
2.115676438e-17
1.799802913e-17
1.650602077e-17
1.723442651e-17
2.079741651e-17
2.788115992e-17
3.92536288e-17
5.577193094e-17
7.836893491e-17
1.081819701e-16
1.435698734e-16
2.204816197e-16
7.045001262e-17
7.998333623e-20
9.200537612e-20
1.002602168e-19
1.067867211e-19
1.144749093e-19
1.229455031e-19
1.321743957e-19
1.4212119e-19
1.527434686e-19
1.639972182e-19
1.75836079e-19
1.882105716e-19
2.010671303e-19
2.143475439e-19
2.279887567e-19
2.419231711e-19
2.560794482e-19
2.703843458e-19
2.847659671e-19
2.991592432e-19
3.135130831e-19
3.277995148e-19
3.420237054e-19
3.562355157e-19
3.705433702e-19
3.851322259e-19
4.00286718e-19
4.164196963e-19
4.341046501e-19
4.541103769e-19
4.774371042e-19
5.053555238e-19
5.394515606e-19
5.816792009e-19
6.344206011e-19
7.005478819e-19
7.834773941e-19
8.872067854e-19
1.016328171e-18
1.176016331e-18
1.371992513e-18
1.610462321e-18
1.89801914e-18
2.241495511e-18
2.647742229e-18
3.123319767e-18
3.674097958e-18
4.30477409e-18
5.018330651e-18
5.815460403e-18
6.693991934e-18
7.6483551e-18
8.669134312e-18
9.742765938e-18
1.085144275e-17
1.19732927e-17
1.308290142e-17
1.4152239e-17
1.515202288e-17
1.605348919e-17
1.683047039e-17
1.746160238e-17
1.793244344e-17
1.823727629e-17
1.838038721e-17
1.837664771e-17
1.825125985e-17
1.803856457e-17
1.777986497e-17
1.752032793e-17
1.730519231e-17
1.717570679e-17
1.716531843e-17
1.729659127e-17
1.75791774e-17
1.800904896e-17
1.856920116e-17
1.923210396e-17
1.996414129e-17
2.073202e-17
2.151063773e-17
2.22913027e-17
2.308867015e-17
2.394451338e-17
2.492662596e-17
2.612193256e-17
2.762422795e-17
2.951844831e-17
3.186423007e-17
3.468128863e-17
3.793823733e-17
4.154574437e-17
4.53549142e-17
4.916223458e-17
5.272248539e-17
5.576986684e-17
5.804531439e-17
5.932563293e-17
5.944922802e-17
5.833432355e-17
5.598783703e-17
5.25053509e-17
4.806429179e-17
4.29133024e-17
3.736075302e-17
3.176446103e-17
2.652356953e-17
2.207315245e-17
1.888269346e-17
1.745986493e-17
1.835975861e-17
2.219804099e-17
2.9665397e-17
4.154059205e-17
5.869616696e-17
8.209397267e-17
1.128832121e-16
1.494291285e-16
2.283910928e-16
7.277585395e-17
9.458587395e-20
1.067377769e-19
1.151748637e-19
1.219123152e-19
1.298415015e-19
1.385893064e-19
1.481381458e-19
1.584550639e-19
1.695063862e-19
1.812583163e-19
1.9367644e-19
2.067250737e-19
2.203665834e-19
2.345609738e-19
2.492658232e-19
2.644366404e-19
2.800278937e-19
2.959950059e-19
3.122981871e-19
3.289080604e-19
3.458131674e-19
3.630288631e-19
3.806072489e-19
3.986487059e-19
4.173163338e-19
4.368547839e-19
4.576142709e-19
4.80079287e-19
5.04900559e-19
5.329287875e-19
5.65250674e-19
6.032295609e-19
6.485541598e-19
7.032966618e-19
7.699777647e-19
8.51631404e-19
9.51859103e-19
1.074866189e-18
1.22547673e-18
1.409129149e-18
1.631854342e-18
1.900231575e-18
2.221307158e-18
2.602452867e-18
3.05114148e-18
3.574626964e-18
4.179530957e-18
4.871349389e-18
5.653898077e-18
6.528717908e-18
7.494464532e-18
8.546318011e-18
9.675462617e-18
1.086870094e-17
1.210827469e-17
1.337196953e-17
1.463358352e-17
1.586383008e-17
1.703171237e-17
1.810634447e-17
1.905911058e-17
1.986598317e-17
2.050977375e-17
2.09820812e-17
2.128471634e-17
2.143040472e-17
2.144260209e-17
2.13542804e-17
2.120561605e-17
2.104063719e-17
2.090311826e-17
2.08322137e-17
2.085841356e-17
2.100029064e-17
2.126234392e-17
2.163417827e-17
2.209136666e-17
2.259845642e-17
2.311451689e-17
2.360125076e-17
2.403304393e-17
2.440752916e-17
2.475450651e-17
2.514060065e-17
2.566713851e-17
2.645982605e-17
2.765106501e-17
2.935833453e-17
3.166321601e-17
3.45944653e-17
3.811622097e-17
4.212110124e-17
4.642851304e-17
5.079023393e-17
5.490623984e-17
5.84521676e-17
6.111567188e-17
6.263464553e-17
6.282900885e-17
6.16203997e-17
5.903836974e-17
5.521506514e-17
5.037211893e-17
4.480398115e-17
3.886140742e-17
3.293754489e-17
2.745765035e-17
2.28730017e-17
1.966016452e-17
1.832698193e-17
1.942526377e-17
2.356805172e-17
3.144845882e-17
4.385515847e-17
6.168267459e-17
8.59153533e-17
1.177579448e-16
1.555055065e-16
2.367145842e-16
7.52262996e-17
1.109112235e-19
1.232012737e-19
1.318385793e-19
1.388120811e-19
1.470131101e-19
1.56075323e-19
1.659882905e-19
1.76727333e-19
1.882684056e-19
2.005889538e-19
2.136676914e-19
2.274840942e-19
2.420180231e-19
2.572494762e-19
2.731586877e-19
2.897266752e-19
3.069364626e-19
3.247754943e-19
3.432399295e-19
3.623405945e-19
3.821107479e-19
4.026147108e-19
4.239578825e-19
4.462984731e-19
4.698628445e-19
4.949653414e-19
5.220330771e-19
5.516345865e-19
5.845110219e-19
6.216092369e-19
6.641184185e-19
7.135136677e-19
7.71609577e-19
8.406239241e-19
9.232466611e-19
1.022705646e-18
1.142819732e-18
1.288034571e-18
1.463442233e-18
1.674789256e-18
1.9284738e-18
2.231521245e-18
2.591516122e-18
3.016462604e-18
3.514552574e-18
4.093834745e-18
4.761792962e-18
5.524847813e-18
6.387793639e-18
7.353180921e-18
8.420660203e-18
9.586321584e-18
1.084208612e-17
1.217522208e-17
1.356806805e-17
1.499804892e-17
1.643807586e-17
1.785740982e-17
1.922303547e-17
2.050152025e-17
2.166125347e-17
2.267488386e-17
2.352173007e-17
2.418992199e-17
2.467802768e-17
2.499594209e-17
2.516481618e-17
2.521584513e-17
2.51877962e-17
2.512335935e-17
2.506466746e-17
2.50485729e-17
2.510228786e-17
2.523983475e-17
2.545959334e-17
2.574328529e-17
2.605695087e-17
2.635463171e-17
2.658535943e-17
2.670356115e-17
2.668214067e-17
2.652644482e-17
2.628624555e-17
2.606197132e-17
2.600117444e-17
2.628273355e-17
2.709038919e-17
2.858214475e-17
3.08636761e-17
3.397027065e-17
3.785641488e-17
4.238983839e-17
4.734907018e-17
5.242815181e-17
5.725501575e-17
6.142763121e-17
6.45641458e-17
6.635482711e-17
6.660182099e-17
6.523896542e-17
6.233210808e-17
5.806511191e-17
5.271782245e-17
4.664171575e-17
4.023761834e-17
3.393802422e-17
2.819487245e-17
2.347319204e-17
2.025178689e-17
1.903237835e-17
2.035692187e-17
2.483049813e-17
3.314542102e-17
4.61019759e-17
6.461747376e-17
8.972045572e-17
1.226431803e-16
1.617081278e-16
2.452698235e-16
7.777281526e-17
1.290733704e-19
1.415088656e-19
1.503644495e-19
1.576000473e-19
1.661054652e-19
1.755217798e-19
1.858462534e-19
1.970632549e-19
2.091592694e-19
2.221240761e-19
2.359506601e-19
2.506350511e-19
2.661762051e-19
2.825759853e-19
2.998394342e-19
3.179755425e-19
3.369988121e-19
3.569322554e-19
3.778120365e-19
3.996939892e-19
4.226613669e-19
4.46833527e-19
4.723760383e-19
4.995130644e-19
5.285437361e-19
5.598631203e-19
5.939875433e-19
6.315830327e-19
6.734957044e-19
7.207847884e-19
7.747609332e-19
8.37033812e-19
9.095712461e-19
9.947678808e-19
1.095516642e-18
1.215273764e-18
1.358110299e-18
1.528749415e-18
1.732595384e-18
1.975759268e-18
2.265077932e-18
2.608108564e-18
3.013069389e-18
3.488697887e-18
4.04401056e-18
4.687965841e-18
5.42904222e-18
6.274741277e-18
7.231016382e-18
8.301624838e-18
9.487413484e-18
1.07855748e-17
1.218893648e-17
1.368536614e-17
1.525737882e-17
1.688204375e-17
1.853129059e-17
2.017271075e-17
2.177090543e-17
2.32893647e-17
2.469277661e-17
2.594959541e-17
2.703465355e-17
2.793156093e-17
2.863463067e-17
2.915004117e-17
2.94959612e-17
2.970136277e-17
2.980337851e-17
2.984330552e-17
2.98617032e-17
2.989324179e-17
2.99619006e-17
3.007690579e-17
3.022971161e-17
3.039253342e-17
3.051927822e-17
3.054992692e-17
3.041929309e-17
3.007046719e-17
2.947216987e-17
2.863781497e-17
2.764248752e-17
2.663229625e-17
2.581923695e-17
2.545651102e-17
2.579709902e-17
2.704869271e-17
2.934048903e-17
3.270762353e-17
3.708679936e-17
4.231320537e-17
4.811521947e-17
5.411411048e-17
5.984291513e-17
6.479482969e-17
6.849573955e-17
7.057805684e-17
7.08307813e-17
6.921571217e-17
6.585582039e-17
6.100740758e-17
5.502589866e-17
4.833230992e-17
4.138495645e-17
3.465842807e-17
2.86300411e-17
2.377386464e-17
2.056362229e-17
1.948609902e-17
2.106465264e-17
2.588937136e-17
3.464867095e-17
4.815466789e-17
6.735831066e-17
9.3329487e-17
1.273852505e-16
1.6779219e-16
2.538938664e-16
8.035901411e-17
1.491839017e-19
1.617711354e-19
1.708629618e-19
1.783876633e-19
1.872316134e-19
1.970439972e-19
2.078303628e-19
2.195848124e-19
2.323053189e-19
2.459950031e-19
2.606623246e-19
2.763213102e-19
2.929916464e-19
3.106989558e-19
3.294753007e-19
3.493602872e-19
3.704030218e-19
3.926657228e-19
4.162288976e-19
4.411983311e-19
4.677128409e-19
4.959532794e-19
5.261528374e-19
5.586105687e-19
5.937087815e-19
6.319352382e-19
6.739087461e-19
7.204073314e-19
7.723982067e-19
8.310715637e-19
8.978817136e-19
9.745996943e-19
1.063377811e-18
1.166822238e-18
1.288065176e-18
1.430828136e-18
1.599472899e-18
1.799044337e-18
2.035313872e-18
2.314826989e-18
2.644944761e-18
3.033853504e-18
3.4905093e-18
4.024491732e-18