/*--------------------------------*- C++ -*----------------------------------*\
  =========                 |
  \\      /  F ield         | OpenFOAM: The Open Source CFD Toolbox
   \\    /   O peration     | Website:  https://openfoam.org
    \\  /    A nd           | Version:  6
     \\/     M anipulation  |
\*---------------------------------------------------------------------------*/
FoamFile
{
    version     2.0;
    format      ascii;
    class       volScalarField;
    location    "0.0057";
    object      TRHS;
}
// * * * * * * * * * * * * * * * * * * * * * * * * * * * * * * * * * * * * * //

dimensions      [1 -1 -3 0 0 0 0];

internalField   nonuniform List<scalar> 
3600
(
-1.006188947e-10
-7.572344243e-10
-2.091338914e-09
-3.553873678e-09
-5.251708604e-09
-7.207146188e-09
-9.451451602e-09
-1.200263724e-08
-1.486036848e-08
-1.800875329e-08
-2.140820395e-08
-2.499909397e-08
-2.8705997e-08
-3.246350864e-08
-3.621724591e-08
-3.985467678e-08
-4.300133002e-08
-4.48081271e-08
-4.415965077e-08
-4.095210563e-08
-3.728239891e-08
-3.414907627e-08
-3.038666309e-08
-2.626355332e-08
-2.377146509e-08
-2.533469446e-08
-2.955925647e-08
-3.702577924e-08
-4.088834748e-08
-9.525285687e-09
-0.0007016256525
0
0
0
0
0
0
0
0
0
0
0
0
0
0
0
0
0
0
0
0
0
0
0
0
0
0
0
0
0
-8.088486576e-11
-7.171421713e-10
-2.043579499e-09
-3.508122367e-09
-5.217509747e-09
-7.198677914e-09
-9.497258994e-09
-1.214114593e-08
-1.515282123e-08
-1.852883443e-08
-2.224410654e-08
-2.622404682e-08
-3.036150117e-08
-3.4524898e-08
-3.862403027e-08
-4.260648259e-08
-4.63385806e-08
-4.916684311e-08
-4.949133136e-08
-4.611909932e-08
-4.210089204e-08
-3.880777315e-08
-3.37185098e-08
-2.710107502e-08
-2.072349709e-08
-1.858255953e-08
-1.961648868e-08
-2.538986437e-08
-3.680931803e-08
-8.324958348e-09
-0.0007267870745
0
0
0
0
0
0
0
0
0
0
0
0
0
0
0
0
0
0
0
0
0
0
0
0
0
0
0
0
0
-7.259694385e-11
-7.315031691e-10
-2.119224442e-09
-3.657285406e-09
-5.459157609e-09
-7.567296808e-09
-1.003733942e-08
-1.292191068e-08
-1.625983888e-08
-2.007104368e-08
-2.432865963e-08
-2.894228744e-08
-3.373683521e-08
-3.849707733e-08
-4.306791477e-08
-4.756956261e-08
-5.23702186e-08
-5.734295493e-08
-5.944283572e-08
-5.407335794e-08
-4.849136042e-08
-4.574011671e-08
-3.861043486e-08
-2.804700703e-08
-1.535284367e-08
-9.875347438e-09
-9.117844969e-09
-1.275105466e-08
-2.390784277e-08
2.874959163e-09
-0.0007815697776
0
0
0
0
0
0
0
0
0
0
0
0
0
0
0
0
0
0
0
0
0
0
0
0
0
0
0
0
0
-7.411847896e-11
-7.875125297e-10
-2.288133098e-09
-3.952694808e-09
-5.912767435e-09
-8.223297731e-09
-1.096214501e-08
-1.420383509e-08
-1.801706373e-08
-2.244438383e-08
-2.747801965e-08
-3.30121479e-08
-3.880157073e-08
-4.444696659e-08
-4.957107539e-08
-5.43464482e-08
-6.016139145e-08
-6.908734611e-08
-7.596511328e-08
-6.576134094e-08
-5.680033401e-08
-5.647521458e-08
-4.611980647e-08
-3.087397082e-08
-7.95548876e-09
5.105344847e-10
2.854599912e-09
4.518706007e-09
-3.934885553e-09
2.187412543e-08
-0.0008767608228
0
0
0
0
0
0
0
0
0
0
0
0
0
0
0
0
0
0
0
0
0
0
0
0
0
0
0
0
0
-8.576432485e-11
-8.868312883e-10
-2.544126506e-09
-4.3845868e-09
-6.55807249e-09
-9.139485393e-09
-1.222801447e-08
-1.592634803e-08
-2.033237813e-08
-2.552695191e-08
-3.154655601e-08
-3.832706063e-08
-4.558903414e-08
-5.266620662e-08
-5.853203061e-08
-6.273845278e-08
-6.774457828e-08
-8.280693864e-08
-1.025057046e-07
-8.317746622e-08
-6.889068715e-08
-7.116666921e-08
-5.462766652e-08
-3.646725762e-08
-1.149809771e-09
9.898700523e-09
1.383535978e-08
3.027286902e-08
2.252720134e-08
4.787470427e-08
-0.001034720649
0
0
0
0
0
0
0
0
0
0
0
0
0
0
0
0
0
0
0
0
0
0
0
0
0
0
0
0
0
-1.093491471e-10
-1.028155553e-09
-2.880070942e-09
-4.936017685e-09
-7.370090336e-09
-1.027819443e-08
-1.378370155e-08
-1.801268805e-08
-2.309003567e-08
-2.91384504e-08
-3.627797302e-08
-4.459525431e-08
-5.396260663e-08
-6.357553399e-08
-7.120379465e-08
-7.385347507e-08
-7.173205148e-08
-9.246154448e-08
-1.347093806e-07
-1.375710314e-07
-1.426337631e-07
-6.061059174e-08
-4.615817167e-08
-1.968243376e-08
-6.111363878e-08
-9.980930789e-09
2.397248587e-08
7.463496123e-08
6.02179412e-08
8.017410851e-08
-0.001302726059
0
0
0
0
0
0
0
0
0
0
0
0
0
0
0
0
0
0
0
0
0
0
0
0
0
0
0
0
0
-1.461014099e-10
-1.211223937e-09
-3.286581314e-09
-5.588677193e-09
-8.318831084e-09
-1.159863334e-08
-1.557464646e-08
-2.038981104e-08
-2.617812398e-08
-3.307997622e-08
-4.129849698e-08
-5.117912126e-08
-6.316215084e-08
-7.710786065e-08
-8.994888509e-08
-9.390731077e-08
-7.227903178e-08
-1.005443101e-07
-8.339213657e-08
-2.143250901e-07
-2.435412634e-07
-5.520917885e-08
-1.195449749e-08
-8.465126557e-09
-1.39640049e-07
-3.94661899e-08
5.785382456e-08
1.747378933e-07
1.311888998e-07
1.196440376e-07
-0.001789203814
0
0
0
0
0
0
0
0
0
0
0
0
0
0
0
0
0
0
0
0
0
0
0
0
0
0
0
0
0
-1.98348003e-10
-1.436277501e-09
-3.754275354e-09
-6.319492309e-09
-9.36679276e-09
-1.304971274e-08
-1.754269268e-08
-2.300063801e-08
-2.954050708e-08
-3.724963932e-08
-4.627843318e-08
-5.711540625e-08
-7.1067316e-08
-9.040121573e-08
-1.141308106e-07
-1.319934944e-07
-1.176953367e-07
-5.612380793e-08
2.665632054e-08
-2.448054485e-07
-2.092620991e-07
-0.0001743473577
-0.000110965097
-0.0001494647609
-1.344049462e-07
-2.975769111e-07
1.073738197e-07
3.904259749e-07
3.688255569e-07
1.827942632e-07
-0.002771116141
0
0
0
0
0
0
0
0
0
0
0
0
0
0
0
0
0
0
0
0
0
0
0
0
0
0
0
0
0
-2.704086001e-10
-1.708002409e-09
-4.275300536e-09
-7.100857715e-09
-1.046126661e-08
-1.455568574e-08
-1.960214789e-08
-2.578539542e-08
-3.32069625e-08
-4.182795805e-08
-5.145689142e-08
-6.203345218e-08
-7.484952112e-08
-9.613856807e-08
-1.334642543e-07
-1.912992046e-07
-2.509850514e-07
-0.0001712416378
-0.0007740872516
167.3375045
-0.005864834831
69.16524582
44.03840478
59.30549084
-0.006562082662
144.7813271
-0.0004247912774
1.121188958e-07
4.39307687e-07
3.600933981e-07
-0.005046438311
0
0
0
0
0
0
0
0
0
0
0
0
0
0
0
0
0
0
0
0
0
0
0
0
0
0
0
0
0
-3.731286301e-10
-2.042893604e-09
-4.850796669e-09
-7.901914228e-09
-1.152863297e-08
-1.59937429e-08
-2.158901162e-08
-2.858399412e-08
-3.716284766e-08
-4.726959278e-08
-5.826711624e-08
-6.837829087e-08
-7.444036096e-08
-7.752629101e-08
-1.212752111e-07
-2.469025136e-07
-4.555481394e-07
67.93940422
139.838192
0
0
0
0
0
0
0
23.86716737
106.5964686
-0.0002681153399
-0.0001400846667
55.57092529
0
0
0
0
0
0
0
0
0
0
0
0
0
0
0
0
0
0
0
0
0
0
0
0
0
0
0
0
0
-5.354608226e-10
-2.48845404e-09
-5.507666863e-09
-8.701348653e-09
-1.247897127e-08
-1.718357658e-08
-2.320146167e-08
-3.095318301e-08
-4.089995883e-08
-5.349980124e-08
-6.888618276e-08
-8.575917441e-08
-9.813844443e-08
-1.057578933e-07
-7.109982895e-08
-0.0001722516873
68.33770731
0
0
0
0
0
0
0
0
0
0
0
384.7933079
-0.002109749049
452.1333347
0
0
0
0
0
0
0
0
0
0
0
0
0
0
0
0
0
0
0
0
0
0
0
0
0
0
0
0
0
-8.396615883e-10
-3.16300134e-09
-6.328869986e-09
-9.509329059e-09
-1.323476516e-08
-1.792729137e-08
-2.403773615e-08
-3.208459726e-08
-4.277910521e-08
-5.728867867e-08
-7.769267174e-08
-1.07265464e-07
-1.423554278e-07
-8.937627713e-08
3.992560767e-08
-0.0007853680389
141.4249345
0
0
0
0
0
0
0
0
0
0
0
-0.005128010861
-4.382135836e-05
17.37719386
0
0
0
0
0
0
0
0
0
0
0
0
0
0
0
0
0
0
0
0
0
0
0
0
0
0
0
0
0
-1.533852922e-09
-4.344982796e-09
-7.496312e-09
-1.039226672e-08
-1.37721311e-08
-1.8121509e-08
-2.387007418e-08
-3.143893415e-08
-4.128213824e-08
-5.394635649e-08
-7.018690796e-08
-9.184748583e-08
-1.47178669e-07
-2.249957548e-07
-2.47233963e-07
170.2180285
0
0
0
0
0
0
0
0
0
0
0
0
0
-0.001403000509
0
0
0
0
0
0
0
0
0
0
0
0
0
0
0
0
0
0
0
0
0
0
0
0
0
0
0
0
0
0
-3.459497155e-09
-6.679395257e-09
-9.327159826e-09
-1.145308701e-08
-1.411293949e-08
-1.780558442e-08
-2.289571404e-08
-2.971517167e-08
-3.858911401e-08
-4.977332907e-08
-6.33055429e-08
-8.075811769e-08
-1.574294544e-07
-2.551121732e-07
-2.169677415e-07
-0.005605843987
0
0
0
0
0
0
0
0
0
0
0
0
0
0
0
0
0
0
0
0
0
0
0
0
0
0
0
0
0
0
0
0
0
0
0
0
0
0
0
0
0
0
0
0
-9.206280373e-09
-1.148947137e-08
-1.21867379e-08
-1.270257792e-08
-1.419537446e-08
-1.694534508e-08
-2.114880604e-08
-2.711311338e-08
-3.540702764e-08
-4.707400669e-08
-6.3778967e-08
-8.613593147e-08
-8.062358061e-08
-8.322748213e-08
-0.0002142200745
84.98058361
0
0
0
0
0
0
0
0
0
0
0
0
0
0
0
0
0
0
0
0
0
0
0
0
0
0
0
0
0
0
0
0
0
0
0
0
0
0
0
0
0
0
0
0
-3.462008783e-08
-2.322079667e-08
-1.62195954e-08
-1.380157789e-08
-1.375870278e-08
-1.535865146e-08
-1.834006187e-08
-2.274608834e-08
-2.893578565e-08
-3.774192497e-08
-5.060654153e-08
-6.790719844e-08
-5.680442596e-08
-5.068181929e-08
-0.0002081201885
82.56918763
0
0
0
0
0
0
0
0
0
0
0
0
0
0
0
0
0
0
0
0
0
0
0
0
0
0
0
0
0
0
0
0
0
0
0
0
0
0
0
0
0
0
0
0
-3.960547872e-08
-2.525472436e-08
-1.635132335e-08
-1.303266315e-08
-1.22580779e-08
-1.296406271e-08
-1.463533311e-08
-1.698122559e-08
-1.9769522e-08
-2.266558787e-08
-2.502487738e-08
-2.764904802e-08
-8.741876346e-08
-1.552532847e-07
-1.44618573e-07
-0.005844851033
0
0
0
0
0
0
0
0
0
0
0
0
0
0
0
0
0
0
0
0
0
0
0
0
0
0
0
0
0
0
0
0
0
0
0
0
0
0
0
0
0
0
0
0
-1.607968514e-08
-1.412553533e-08
-1.148966836e-08
-1.007716813e-08
-9.712678117e-09
-1.003923049e-08
-1.070907904e-08
-1.140000347e-08
-1.179542013e-08
-1.159702984e-08
-1.064179563e-08
-9.574632362e-09
-3.385758012e-08
-5.295584497e-08
-2.316086216e-07
162.6843961
0
0
0
0
0
0
0
0
0
0
0
0
0
-0.002528936189
0
0
0
0
0
0
0
0
0
0
0
0
0
0
0
0
0
0
0
0
0
0
0
0
0
0
0
0
0
0
-3.506475078e-09
-5.717214024e-09
-6.280315047e-09
-6.542172891e-09
-6.796613671e-09
-7.001610405e-09
-6.941269323e-09
-6.355009697e-09
-5.026465093e-09
-3.05299471e-09
-1.322183042e-09
-2.052207138e-09
-3.101882788e-09
6.677886113e-08
1.496030244e-07
-0.0007007415791
115.4395655
0
0
0
0
0
0
0
0
0
0
0
-0.00529066684
-1.894237256e-05
7.506527781
0
0
0
0
0
0
0
0
0
0
0
0
0
0
0
0
0
0
0
0
0
0
0
0
0
0
0
0
0
5.237485745e-09
7.788332302e-10
-1.734525697e-09
-3.224178778e-09
-4.028062007e-09
-4.174749673e-09
-3.474834492e-09
-1.546144338e-09
2.167790431e-09
8.524285145e-09
1.910326667e-08
3.760785563e-08
7.387554365e-08
1.400733529e-07
3.190304759e-07
-0.000116345497
46.23581439
0
0
0
0
0
0
0
0
0
0
0
393.7128196
-0.002066295491
425.9718306
0
0
0
0
0
0
0
0
0
0
0
0
0
0
0
0
0
0
0
0
0
0
0
0
0
0
0
0
0
1.115831557e-08
5.400437578e-09
1.733868026e-09
-5.722428553e-10
-1.774256922e-09
-1.899135486e-09
-7.048583047e-10
2.311735119e-09
8.007636767e-09
1.778544532e-08
3.407754562e-08
6.121983418e-08
1.065738233e-07
1.761924253e-07
2.319829037e-07
2.414710629e-07
-1.625098015e-07
21.92721345
18.22874913
0
0
0
0
0
0
0
-0.005972238653
20.34657071
-5.117004977e-05
-2.519401748e-10
-9.828763159e-05
0
0
0
0
0
0
0
0
0
0
0
0
0
0
0
0
0
0
0
0
0
0
0
0
0
0
0
0
0
1.471547866e-08
8.286233875e-09
3.994553083e-09
1.203430739e-09
-2.785910909e-10
-4.475188593e-10
9.702231299e-10
4.524795972e-09
1.111084799e-08
2.201577099e-08
3.89744295e-08
6.396543325e-08
9.852141186e-08
1.415621477e-07
1.987976594e-07
2.914887692e-07
5.873333405e-07
-5.470062882e-05
-4.604633931e-05
441.0458492
132.9583696
126.7899674
66.44120738
117.6990121
105.8928943
360.0707085
-1.792027194e-07
-1.465824319e-07
-1.252937068e-08
7.11594265e-08
-0.008773702983
0
0
0
0
0
0
0
0
0
0
0
0
0
0
0
0
0
0
0
0
0
0
0
0
0
0
0
0
0
1.614473146e-08
9.576538085e-09
5.069742542e-09
2.049115174e-09
3.701883003e-10
6.523102126e-11
1.413377173e-09
4.967568275e-09
1.15770593e-08
2.236761884e-08
3.853071879e-08
6.069541854e-08
8.758057542e-08
1.14438287e-07
1.403019268e-07
1.746197967e-07
2.181379772e-07
2.649607367e-07
7.156497642e-07
-0.002211535882
-0.0006554113317
-0.0006224748264
-0.0003180323844
-0.0005775872143
-0.0005205318966
-0.001805471596
-1.824080098e-07
-2.014093484e-07
-3.163368414e-07
-1.945283543e-07
-0.007212221876
0
0
0
0
0
0
0
0
0
0
0
0
0
0
0
0
0
0
0
0
0
0
0
0
0
0
0
0
0
1.568759722e-08
9.452791454e-09
5.067260862e-09
2.014449211e-09
1.94669907e-10
-3.489896945e-10
6.563111747e-10
3.743833231e-09
9.773345642e-09
1.999615155e-08
3.610070801e-08
6.00561841e-08
9.337983837e-08
1.351020094e-07
1.906580018e-07
2.794596248e-07
5.707062117e-07
-4.389879997e-05
-2.758748924e-05
436.8921333
127.0402084
120.1428564
59.72073683
111.4271103
100.5996502
356.5225472
-2.258900676e-07
-1.615219408e-07
-2.313206322e-08
6.350930318e-08
-0.008774500233
0
0
0
0
0
0
0
0
0
0
0
0
0
0
0
0
0
0
0
0
0
0
0
0
0
0
0
0
0
1.367945835e-08
8.173153662e-09
4.17175031e-09
1.238396986e-09
-6.891197319e-10
-1.568466403e-09
-1.169503736e-09
9.654802117e-10
5.617352139e-09
1.410265433e-08
2.876378895e-08
5.386178006e-08
9.669609438e-08
1.634467023e-07
2.159404734e-07
2.235743103e-07
-1.824869008e-07
17.63588928
10.89959331
0
0
0
0
0
0
0
-0.006186229415
17.08496159
-4.29526002e-05
-2.154444654e-10
-8.647299967e-05
0
0
0
0
0
0
0
0
0
0
0
0
0
0
0
0
0
0
0
0
0
0
0
0
0
0
0
0
0
1.056989555e-08
6.067828925e-09
2.632314535e-09
-7.804515489e-11
-2.087991041e-09
-3.370514925e-09
-3.775808978e-09
-3.024699377e-09
-6.7946079e-10
3.971481607e-09
1.23668588e-08
2.803745798e-08
6.067995877e-08
1.229901591e-07
2.960323395e-07
-0.0001045609581
41.55317049
0
0
0
0
0
0
0
0
0
0
0
391.8050893
-0.002065114083
427.410757
0
0
0
0
0
0
0
0
0
0
0
0
0
0
0
0
0
0
0
0
0
0
0
0
0
0
0
0
0
6.889127003e-09
3.518360973e-09
7.355489133e-10
-1.695678631e-09
-3.761751089e-09
-5.449577745e-09
-6.688370417e-09
-7.386769711e-09
-7.52632508e-09
-7.406096488e-09
-8.121520411e-09
-1.215680764e-08
-1.68868318e-08
4.51657897e-08
1.298866472e-07
-0.0006627462288
106.5547472
0
0
0
0
0
0
0
0
0
0
0
-0.005417580673
-2.511078054e-05
9.95338304
0
0
0
0
0
0
0
0
0
0
0
0
0
0
0
0
0
0
0
0
0
0
0
0
0
0
0
0
0
3.193774496e-09
9.177703745e-10
-1.226086358e-09
-3.374428984e-09
-5.476869276e-09
-7.522177908e-09
-9.475050553e-09
-1.128664583e-08
-1.29160548e-08
-1.440055983e-08
-1.601446781e-08
-1.910498698e-08
-5.115036725e-08
-8.605355075e-08
-2.419784831e-07
156.4892919
0
0
0
0
0
0
0
0
0
0
0
0
0
-0.002528705261
0
0
0
0
0
0
0
0
0
0
0
0
0
0
0
0
0
0
0
0
0
0
0
0
0
0
0
0
0
0
-6.741071411e-12
-1.376545555e-09
-2.988388071e-09
-4.90189474e-09
-7.042432453e-09
-9.413054207e-09
-1.203323722e-08
-1.495254086e-08
-1.824370293e-08
-2.19627737e-08
-2.602989457e-08
-3.217689267e-08
-1.010119187e-07
-1.870455119e-07
-1.666420992e-07
-0.006212997051
0
0
0
0
0
0
0
0
0
0
0
0
0
0
0
0
0
0
0
0
0
0
0
0
0
0
0
0
0
0
0
0
0
0
0
0
0
0
0
0
0
0
0
0
-2.315404739e-09
-3.084360117e-09
-4.340733885e-09
-6.099660011e-09
-8.278936415e-09
-1.090607816e-08
-1.408745291e-08
-1.808676911e-08
-2.34859757e-08
-3.145476143e-08
-4.400437496e-08
-6.259215763e-08
-5.916516914e-08
-7.057504922e-08
-0.000175360529
69.5680886
0
0
0
0
0
0
0
0
0
0
0
0
0
0
0
0
0
0
0
0
0
0
0
0
0
0
0
0
0
0
0
0
0
0
0
0
0
0
0
0
0
0
0
0
-3.502849617e-09
-4.039448421e-09
-5.15200862e-09
-6.84578826e-09
-9.03373034e-09
-1.174051738e-08
-1.50715411e-08
-1.929735381e-08
-2.501405685e-08
-3.34259524e-08
-4.657800236e-08
-6.602033788e-08
-6.365542182e-08
-7.686456116e-08
-0.0001752929948
69.53973364
0
0
0
0
0
0
0
0
0
0
0
0
0
0
0
0
0
0
0
0
0
0
0
0
0
0
0
0
0
0
0
0
0
0
0
0
0
0
0
0
0
0
0
0
-3.531551222e-09
-4.208352917e-09
-5.392284229e-09
-7.112132434e-09
-9.279501284e-09
-1.188620744e-08
-1.49511448e-08
-1.85378796e-08
-2.276322655e-08
-2.776304817e-08
-3.360122335e-08
-4.217972826e-08
-1.142779824e-07
-2.060843201e-07
-1.79450601e-07
-0.006215769986
0
0
0
0
0
0
0
0
0
0
0
0
0
0
0
0
0
0
0
0
0
0
0
0
0
0
0
0
0
0
0
0
0
0
0
0
0
0
0
0
0
0
0
0
-2.555178241e-09
-3.689218247e-09
-5.13115537e-09
-6.965130237e-09
-9.114873688e-09
-1.154962403e-08
-1.422951423e-08
-1.712526663e-08
-2.025148836e-08
-2.375552214e-08
-2.807434575e-08
-3.486119466e-08
-7.256593535e-08
-1.185500638e-07
-2.53437754e-07
156.406716
0
0
0
0
0
0
0
0
0
0
0
0
0
-0.00247837817
0
0
0
0
0
0
0
0
0
0
0
0
0
0
0
0
0
0
0
0
0
0
0
0
0
0
0
0
0
0
-8.812831958e-10
-2.684607968e-09
-4.51203649e-09
-6.523994589e-09
-8.666911844e-09
-1.089746719e-08
-1.313535877e-08
-1.530784383e-08
-1.745287819e-08
-1.996648575e-08
-2.407111393e-08
-3.238272839e-08
-4.220788544e-08
1.496454826e-08
1.033576568e-07
-0.0006618945851
106.2901468
0
0
0
0
0
0
0
0
0
0
0
-0.005430656131
-2.640565848e-05
10.46709155
0
0
0
0
0
0
0
0
0
0
0
0
0
0
0
0
0
0
0
0
0
0
0
0
0
0
0
0
0
1.084859381e-09
-1.462088427e-09
-3.722814815e-09
-5.937541567e-09
-8.073566329e-09
-1.006153043e-08
-1.173596979e-08
-1.283305228e-08
-1.296731613e-08
-1.151034548e-08
-7.139247787e-09
3.538143469e-09
2.987644143e-08
8.301300331e-08
2.386076376e-07
-0.0001040794575
41.34922237
0
0
0
0
0
0
0
0
0
0
0
391.1475364
-0.002065608438
428.2645126
0
0
0
0
0
0
0
0
0
0
0
0
0
0
0
0
0
0
0
0
0
0
0
0
0
0
0
0
0
2.918173747e-09
-3.052890736e-10
-2.96634363e-09
-5.374431291e-09
-7.511037079e-09
-9.280352842e-09
-1.042719069e-08
-1.050785291e-08
-8.778974128e-09
-3.982638091e-09
6.187562093e-09
2.597596458e-08
6.279239891e-08
1.22556509e-07
1.645213313e-07
1.708396685e-07
-2.169175882e-07
17.2768163
10.02012392
0
0
0
0
0
0
0
-0.006133422172
18.12055558
-4.555908612e-05
-8.500694533e-11
-3.379468263e-05
0
0
0
0
0
0
0
0
0
0
0
0
0
0
0
0
0
0
0
0
0
0
0
0
0
0
0
0
0
4.247791649e-09
5.38129554e-10
-2.424474436e-09
-4.990336979e-09
-7.156125688e-09
-8.805245823e-09
-9.640698807e-09
-9.134795725e-09
-6.469255024e-09
-4.268559589e-10
1.066645772e-08
2.883510776e-08
5.57586916e-08
9.08685183e-08
1.404286644e-07
2.23755036e-07
5.116699803e-07
-4.302822865e-05
-2.536519495e-05
435.2302211
128.5608766
122.6369614
62.44464494
113.9959277
102.5664572
357.0164545
-1.909250731e-07
-1.538521216e-07
-2.327619446e-08
8.227882077e-08
-0.008695011692
0
0
0
0
0
0
0
0
0
0
0
0
0
0
0
0
0
0
0
0
0
0
0
0
0
0
0
0
0
4.829223556e-09
8.995966322e-10
-2.220299617e-09
-4.896102864e-09
-7.127867134e-09
-8.798345522e-09
-9.599379564e-09
-8.995449168e-09
-6.181919776e-09
-7.81189266e-11
1.050023479e-08
2.62638642e-08
4.616716336e-08
6.604623179e-08
8.604581499e-08
1.15177564e-07
1.589275987e-07
2.341276448e-07
6.786163561e-07
-0.002192591401
-0.0006481286377
-0.0006184153561
-0.0003150798948
-0.000575085263
-0.0005175344094
-0.001799388309
-1.924085604e-07
-2.102054625e-07
-3.25900388e-07
-1.784851649e-07
-0.007138562331
0
0
0
0
0
0
0
0
0
0
0
0
0
0
0
0
0
0
0
0
0
0
0
0
0
0
0
0
0
4.582317426e-09
7.226707957e-10
-2.397427583e-09
-5.13131371e-09
-7.468432749e-09
-9.309161186e-09
-1.035488469e-08
-1.009863107e-08
-7.712561184e-09
-1.994030536e-09
8.744509946e-09
2.649028844e-08
5.292330598e-08
8.755686529e-08
1.366425493e-07
2.172821447e-07
5.068070824e-07
-4.247548103e-05
-2.471100186e-05
435.1811727
128.5486931
122.6854901
62.54606192
114.1376788
102.736998
357.160159
-2.120561548e-07
-1.724923435e-07
7.446168991e-09
7.427664129e-08
-0.008690896168
0
0
0
0
0
0
0
0
0
0
0
0
0
0
0
0
0
0
0
0
0
0
0
0
0
0
0
0
0
3.606539875e-09
7.531550508e-11
-2.917117256e-09
-5.657753446e-09
-8.145028293e-09
-1.028562685e-08
-1.185608766e-08
-1.2418434e-08
-1.12549185e-08
-7.088798743e-09
2.359205221e-09
2.134769512e-08
5.726572456e-08
1.15878172e-07
1.544628895e-07
1.585968016e-07
-2.258038518e-07
17.05672269
9.759568854
0
0
0
0
0
0
0
-0.006121988256
18.3328613
-4.610312289e-05
-8.18533442e-11
-2.985053753e-05
0
0
0
0
0
0
0
0
0
0
0
0
0
0
0
0
0
0
0
0
0
0
0
0
0
0
0
0
0
2.166498385e-09
-8.81990914e-10
-3.656542904e-09
-6.385850399e-09
-9.042046513e-09
-1.158365514e-08
-1.387070426e-08
-1.568107983e-08
-1.663975904e-08
-1.613419766e-08
-1.283860343e-08
-3.420420668e-09
2.142241994e-08
7.289197537e-08
2.253620092e-07
-0.0001032043543
40.9977723
0
0
0
0
0
0
0
0
0
0
0
391.0692514
-0.002065449672
428.2798371
0
0
0
0
0
0
0
0
0
0
0
0
0
0
0
0
0
0
0
0
0
0
0
0
0
0
0
0
0
6.271489947e-10
-1.906998703e-09
-4.457685166e-09
-7.170590726e-09
-1.000672932e-08
-1.295743174e-08
-1.598378282e-08
-1.906574206e-08
-2.227281765e-08
-2.602622498e-08
-3.154159895e-08
-4.147115773e-08
-5.30589088e-08
1.595474478e-09
8.81987379e-08
-0.0006577911509
105.4936056
0
0
0
0
0
0
0
0
0
0
0
-0.005433004659
-2.643300587e-05
10.47795229
0
0
0
0
0
0
0
0
0
0
0
0
0
0
0
0
0
0
0
0
0
0
0
0
0
0
0
0
0
-6.125437712e-10
-2.754163366e-09
-5.157098976e-09
-7.889030089e-09
-1.090225849e-08
-1.420614598e-08
-1.78197883e-08
-2.177909437e-08
-2.616108892e-08
-3.11464064e-08
-3.720967898e-08
-4.595955815e-08
-8.59000352e-08
-1.356064156e-07
-2.660308363e-07
155.5736887
0
0
0
0
0
0
0
0
0
0
0
0
0
-0.002462870183
0
0
0
0
0
0
0
0
0
0
0
0
0
0
0
0
0
0
0
0
0
0
0
0
0
0
0
0
0
0
-1.209095001e-09
-3.22289332e-09
-5.630259236e-09
-8.453869579e-09
-1.164515452e-08
-1.524754114e-08
-1.934919864e-08
-2.409938124e-08
-2.969828563e-08
-3.635527519e-08
-4.413873671e-08
-5.495553815e-08
-1.295527218e-07
-2.247695623e-07
-1.882638691e-07
-0.006276739491
0
0
0
0
0
0
0
0
0
0
0
0
0
0
0
0
0
0
0
0
0
0
0
0
0
0
0
0
0
0
0
0
0
0
0
0
0
0
0
0
0
0
0
0
-9.661013922e-10
-3.213794937e-09
-5.831053524e-09
-8.832648868e-09
-1.218967734e-08
-1.598798275e-08
-2.041370868e-08
-2.583854649e-08
-3.297888547e-08
-4.314963826e-08
-5.848142096e-08
-8.045136951e-08
-8.149819002e-08
-9.924756977e-08
-0.0001683460756
66.77977147
0
0
0
0
0
0
0
0
0
0
0
0
0
0
0
0
0
0
0
0
0
0
0
0
0
0
0
0
0
0
0
0
0
0
0
0
0
0
0
0
0
0
0
0
1.060274175e-10
-2.775456778e-09
-5.818040754e-09
-9.074156917e-09
-1.254277223e-08
-1.632335672e-08
-2.060787005e-08
-2.577445839e-08
-3.255720333e-08
-4.231026274e-08
-5.72088897e-08
-7.884553025e-08
-7.982089253e-08
-9.730096924e-08
-0.0001645250794
65.26519055
0
0
0
0
0
0
0
0
0
0
0
0
0
0
0
0
0
0
0
0
0
0
0
0
0
0
0
0
0
0
0
0
0
0
0
0
0
0
0
0
0
0
0
0
1.74582454e-09
-2.129346407e-09
-5.779711171e-09
-9.344502581e-09
-1.28621906e-08
-1.641440293e-08
-2.010042728e-08
-2.407897561e-08
-2.859639715e-08
-3.39719132e-08
-4.047011671e-08
-5.020876855e-08
-1.25329466e-07
-2.192285185e-07
-1.770472691e-07
-0.006438666525
0
0
0
0
0
0
0
0
0
0
0
0
0
0
0
0
0
0
0
0
0
0
0
0
0
0
0
0
0
0
0
0
0
0
0
0
0
0
0
0
0
0
0
0
3.448976851e-09
-1.662100001e-09
-6.022706019e-09
-9.915234596e-09
-1.344387315e-08
-1.667572475e-08
-1.962553989e-08
-2.231492549e-08
-2.486004433e-08
-2.762349129e-08
-3.149471684e-08
-3.889928104e-08
-8.010528425e-08
-1.324418234e-07
-3.017691977e-07
149.7272741
0
0
0
0
0
0
0
0
0
0
0
0
0
-0.002961357906
0
0
0
0
0
0
0
0
0
0
0
0
0
0
0
0
0
0
0
0
0
0
0
0
0
0
0
0
0
0
4.518157962e-09
-1.878624439e-09
-6.921646834e-09
-1.10972501e-08
-1.46013794e-08
-1.748253928e-08
-1.965502964e-08
-2.100129832e-08
-2.155430789e-08
-2.186382205e-08
-2.363951343e-08
-3.055102348e-08
-4.235788179e-08
-6.701975338e-09
4.278528607e-08
-0.0005674508295
75.50276747
0
0
0
0
0
0
0
0
0
0
0
-0.005872336876
-1.698030901e-05
6.727174156
0
0
0
0
0
0
0
0
0
0
0
0
0
0
0
0
0
0
0
0
0
0
0
0
0
0
0
0
0
4.179420845e-09
-3.305876608e-09
-8.836253779e-09
-1.317010272e-08
-1.660753956e-08
-1.914243195e-08
-2.050241561e-08
-2.022865751e-08
-1.775238937e-08
-1.246770623e-08
-3.599903101e-09
1.081253537e-08
3.78518552e-08
8.503462661e-08
2.307881403e-07
-1.438322697e-06
0.5892347337
0
0
0
0
0
0
0
0
0
0
0
381.0144694
-0.00199176543
409.0996093
0
0
0
0
0
0
0
0
0
0
0
0
0
0
0
0
0
0
0
0
0
0
0
0
0
0
0
0
0
1.741508005e-09
-6.345363563e-09
-1.198819442e-08
-1.630051662e-08
-1.967173342e-08
-2.199495941e-08
-2.27639717e-08
-2.112620421e-08
-1.586842476e-08
-5.415678466e-09
1.210363867e-08
3.910129789e-08
7.999178485e-08
1.422490273e-07
1.462739872e-07
1.062797047e-07
-4.234852477e-07
697.495254
95.21606311
0
0
0
0
0
0
0
-0.0008339508787
369.2903067
-4.775366136e-07
-6.155990491e-09
-0.002441608337
0
0
0
0
0
0
0
0
0
0
0
0
0
0
0
0
0
0
0
0
0
0
0
0
0
0
0
0
0
-3.316429768e-09
-1.11148935e-08
-1.630811593e-08
-2.043548525e-08
-2.38566915e-08
-2.629126142e-08
-2.700539265e-08
-2.483275244e-08
-1.805711712e-08
-4.433108471e-09
1.784737695e-08
4.769234776e-08
7.56706651e-08
1.008724781e-07
1.635149548e-07
3.841736552e-07
6.719846853e-07
-0.001757096252
-0.0004547442866
85.17665405
281.8246233
158.0677184
0
157.0954245
279.6009393
-0.002697986191
-2.99902475e-09
-0.0009305566541
-5.515100101e-09
-3.118323405e-07
-0.01412385648
0
0
0
0
0
0
0
0
0
0
0
0
0
0
0
0
0
0
0
0
0
0
0
0
0
0
0
0
0
-1.154297004e-08
-1.738416477e-08
-2.133014757e-08
-2.524634143e-08
-2.903826336e-08
-3.209715627e-08
-3.350205311e-08
-3.192328776e-08
-2.521815638e-08
-9.756115945e-09
1.88651618e-08
6.302342807e-08
1.009129591e-07
1.451838743e-07
2.804187968e-07
4.286940514e-07
7.804833312e-07
7.773671117e-07
-7.489292384e-09
-0.000290531784
-0.001966397994
-0.0006774385405
-0.04744438141
-0.0006583180445
-0.001917430424
-0.0001896341459
-1.664187732e-08
-9.03814732e-08
3.645017712e-08
-2.365444177e-09
-0.00546205929
0
0
0
0
0
0
0
0
0
0
0
0
0
0
0
0
0
0
0
0
0
0
0
0
0
0
0
0
0
-2.824716575e-08
-2.571190378e-08
-2.632797733e-08
-3.025111602e-08
-3.501228025e-08
-3.936284682e-08
-4.225439084e-08
-4.256018668e-08
-3.839002887e-08
-2.491511571e-08
6.963136132e-09
7.679096416e-08
1.228291582e-07
3.017870792e-07
5.07450682e-07
-2.326818897e-05
-0.0001090813413
-0.003842296925
-0.002970354061
115.2503912
498.2361608
110.6456952
0
104.0320347
481.034642
75.22462674
-0.006601396974
-0.01150572174
-0.000202506169
-0.0009502427948
216.1777766
0
0
0
0
0
0
0
0
0
0
0
0
0
0
0
0
0
0
0
0
0
0
0
0
0
0
0
0
0
-2.616801302e-08
-2.574390198e-08
-2.873500743e-08
-3.483067879e-08
-4.172433981e-08
-4.813253996e-08
-5.303939763e-08
-5.58510491e-08
-5.65376824e-08
-5.163765596e-08
-3.226599288e-08
3.217616329e-08
1.127795075e-07
3.216259755e-07
-3.404501742e-08
9.403951857
43.32202135
0
0
0
0
0
0
0
0
0
0
0
80.45939334
160.7790504
0
0
0
0
0
0
0
0
0
0
0
0
0
0
0
0
0
0
0
0
0
0
0
0
0
0
0
0
0
0
-9.847653929e-09
-1.980001907e-08
-2.958430304e-08
-3.955435446e-08
-4.967286438e-08
-5.899658959e-08
-6.614159339e-08
-7.017935801e-08
-7.389775756e-08
-8.037127831e-08
-1.12647004e-07
-8.689536772e-08
-0.0001378980056
-0.0008204726105
230.6622461
0
0
0
0
0
0
0
0
0
0
0
0
0
0
0
0
0
0
0
0
0
0
0
0
0
0
0
0
0
0
0
0
0
0
0
0
0
0
0
0
0
0
0
0
0
-6.677294796e-09
-1.86920623e-08
-3.180071134e-08
-4.53150016e-08
-5.949053029e-08
-7.338109167e-08
-8.427281168e-08
-8.664045376e-08
-7.837450997e-08
-1.02019332e-07
-2.068331309e-07
-4.236836697e-07
54.75643434
94.92021822
0
0
0
0
0
0
0
0
0
0
0
0
0
0
0
0
0
0
0
0
0
0
0
0
0
0
0
0
0
0
0
0
0
0
0
0
0
0
0
0
0
0
0
0
0
0
-5.902815189e-09
-1.900050676e-08
-3.451866607e-08
-5.138696548e-08
-7.064692349e-08
-9.269319695e-08
-1.161484964e-07
-1.330996086e-07
-1.289136067e-07
-6.571715323e-08
-0.0001872411192
74.2742702
0
0
0
0
0
0
0
0
0
0
0
0
0
0
0
0
0
0
0
0
0
0
0
0
0
0
0
0
0
0
0
0
0
0
0
0
0
0
0
0
0
0
0
0
0
0
0
0
-5.736916129e-09
-1.943993105e-08
-3.648527577e-08
-5.569026655e-08
-7.913081474e-08
-1.097591907e-07
-1.520098465e-07
-2.022008258e-07
-1.766746105e-07
-7.181087863e-08
-0.000680760676
172.9872056
0
0
0
0
0
0
0
0
0
0
0
0
0
0
0
0
0
0
0
0
0
0
0
0
0
0
0
0
0
0
0
0
0
0
0
0
0
0
0
0
0
0
0
0
0
0
0
0
-5.595139582e-09
-1.928577586e-08
-3.657668597e-08
-5.584636435e-08
-7.886367522e-08
-1.079984601e-07
-1.47828597e-07
-2.496433685e-07
-3.363857876e-07
-3.730349547e-07
97.15187189
0
0
0
0
0
0
0
0
0
0
0
0
0
0
0
0
0
0
0
0
0
0
0
0
0
0
0
0
0
0
0
0
0
0
0
0
0
0
0
0
0
0
0
0
0
0
0
0
0
)
;

boundaryField
{
    lowerWall
    {
        type            calculated;
        value           uniform 0;
    }
    atmosphere
    {
        type            calculated;
        value           nonuniform List<scalar> 
60
(
-1.006188947e-10
-8.088486576e-11
-7.259694385e-11
-7.411847896e-11
-8.576432485e-11
-1.093491471e-10
-1.461014099e-10
-1.98348003e-10
-2.704086001e-10
-3.731286301e-10
-5.354608226e-10
-8.396615883e-10
-1.533852922e-09
-3.459497155e-09
-9.206280373e-09
-3.462008783e-08
-3.960547872e-08
-1.607968514e-08
-3.506475078e-09
5.237485745e-09
1.115831557e-08
1.471547866e-08
1.614473146e-08
1.568759722e-08
1.367945835e-08
1.056989555e-08
6.889127003e-09
3.193774496e-09
-6.741071411e-12
-2.315404739e-09
-3.502849617e-09
-3.531551222e-09
-2.555178241e-09
-8.812831958e-10
1.084859381e-09
2.918173747e-09
4.247791649e-09
4.829223556e-09
4.582317426e-09
3.606539875e-09
2.166498385e-09
6.271489947e-10
-6.125437712e-10
-1.209095001e-09
-9.661013922e-10
1.060274175e-10
1.74582454e-09
3.448976851e-09
4.518157962e-09
4.179420845e-09
1.741508005e-09
-3.316429768e-09
-1.154297004e-08
-2.824716575e-08
-2.616801302e-08
-9.847653929e-09
-6.677294796e-09
-5.902815189e-09
-5.736916129e-09
-5.595139582e-09
)
;
    }
    rightWall
    {
        type            empty;
    }
    leftWall
    {
        type            empty;
    }
    frontAndBack
    {
        type            calculated;
        value           nonuniform List<scalar> 
120
(
-1.006188947e-10
-7.572344243e-10
-2.091338914e-09
-3.553873678e-09
-5.251708604e-09
-7.207146188e-09
-9.451451602e-09
-1.200263724e-08
-1.486036848e-08
-1.800875329e-08
-2.140820395e-08
-2.499909397e-08
-2.8705997e-08
-3.246350864e-08
-3.621724591e-08
-3.985467678e-08
-4.300133002e-08
-4.48081271e-08
-4.415965077e-08
-4.095210563e-08
-3.728239891e-08
-3.414907627e-08
-3.038666309e-08
-2.626355332e-08
-2.377146509e-08
-2.533469446e-08
-2.955925647e-08
-3.702577924e-08
-4.088834748e-08
-9.525285687e-09
-0.0007016256525
0
0
0
0
0
0
0
0
0
0
0
0
0
0
0
0
0
0
0
0
0
0
0
0
0
0
0
0
0
-5.595139582e-09
-1.928577586e-08
-3.657668597e-08
-5.584636435e-08
-7.886367522e-08
-1.079984601e-07
-1.47828597e-07
-2.496433685e-07
-3.363857876e-07
-3.730349547e-07
97.15187189
0
0
0
0
0
0
0
0
0
0
0
0
0
0
0
0
0
0
0
0
0
0
0
0
0
0
0
0
0
0
0
0
0
0
0
0
0
0
0
0
0
0
0
0
0
0
0
0
0
)
;
    }
}


// ************************************************************************* //
