/*--------------------------------*- C++ -*----------------------------------*\
  =========                 |
  \\      /  F ield         | OpenFOAM: The Open Source CFD Toolbox
   \\    /   O peration     | Website:  https://openfoam.org
    \\  /    A nd           | Version:  6
     \\/     M anipulation  |
\*---------------------------------------------------------------------------*/
FoamFile
{
    version     2.0;
    format      ascii;
    class       volVectorField;
    location    "0.0057";
    object      U;
}
// * * * * * * * * * * * * * * * * * * * * * * * * * * * * * * * * * * * * * //

dimensions      [0 1 -1 0 0 0 0];

internalField   nonuniform List<vector> 
3600
(
(0 3.100068881e-10 -2.852387467e-13)
(0 3.110239349e-10 -8.356470905e-13)
(0 3.123500887e-10 -1.321609184e-12)
(0 3.136422483e-10 -1.695198094e-12)
(0 3.145106507e-10 -1.906696974e-12)
(0 3.144245058e-10 -1.904404476e-12)
(0 3.127212777e-10 -1.635316101e-12)
(0 3.086153904e-10 -1.048899463e-12)
(0 3.012171802e-10 -1.032781293e-13)
(0 2.895688977e-10 1.223424247e-12)
(0 2.727088509e-10 2.918153227e-12)
(0 2.497741858e-10 4.913945307e-12)
(0 2.201431896e-10 7.074875811e-12)
(0 1.835953327e-10 9.196489907e-12)
(8.88985768e-53 1.404344343e-10 1.104522341e-11)
(5.918655287e-53 9.149539635e-11 1.244979486e-11)
(0 3.79788746e-11 1.3413812e-11)
(0 -1.879717722e-11 1.411299161e-11)
(0 -7.737642225e-11 1.457485005e-11)
(0 -1.354036843e-10 1.406707341e-11)
(0 -1.884294101e-10 1.109467939e-11)
(0 -2.302506834e-10 5.051074234e-12)
(0 -2.551189019e-10 -3.288145467e-12)
(0 -2.589751223e-10 -1.328063628e-11)
(0 -2.390784492e-10 -2.469868354e-11)
(0 -1.943377711e-10 -3.654480049e-11)
(0 -1.283220739e-10 -4.503369262e-11)
(0 -5.350070933e-11 -4.443895272e-11)
(0 1.132217533e-11 -3.000366018e-11)
(0 1.179204762e-12 1.388508485e-24)
(0 2.316669972e-12 4.228817567e-14)
(0 2.198527166e-12 7.709846814e-14)
(0 2.022702024e-12 1.001157116e-13)
(0 1.813015936e-12 1.108724474e-13)
(0 1.591711757e-12 1.115444857e-13)
(0 1.375775812e-12 1.052979885e-13)
(0 1.17605595e-12 9.514613978e-14)
(0 9.980887758e-13 8.340257126e-14)
(0 8.435562357e-13 7.160645275e-14)
(0 7.117133998e-13 6.06375597e-14)
(0 6.005058245e-13 5.091479538e-14)
(0 5.073340447e-13 4.255682771e-14)
(0 4.295193754e-13 3.55188827e-14)
(0 3.64557048e-13 2.9670156e-14)
(0 3.102297119e-13 2.485296702e-14)
(0 2.646399506e-13 2.090540523e-14)
(0 2.261980825e-13 1.768143752e-14)
(0 1.935906586e-13 1.505166952e-14)
(0 1.657415503e-13 1.290892137e-14)
(0 1.417729505e-13 1.116310603e-14)
(0 1.209673091e-13 9.742375891e-15)
(0 1.027338428e-13 8.587679275e-15)
(0 8.658258772e-14 7.652619336e-15)
(0 7.21091937e-14 6.899548124e-15)
(0 5.898310793e-14 6.299357223e-15)
(0 4.692675419e-14 5.828980513e-15)
(0 3.570430839e-14 5.473598375e-15)
(0 2.508392257e-14 5.211175711e-15)
(0 1.489957923e-14 5.058106724e-15)
(0 4.953159202e-15 4.962982941e-15)
(0 3.083368811e-10 -8.789210027e-13)
(0 3.094800314e-10 -2.576756389e-12)
(0 3.110350167e-10 -4.083535631e-12)
(0 3.126663618e-10 -5.257065135e-12)
(0 3.139895202e-10 -5.949756825e-12)
(0 3.144783236e-10 -6.006917479e-12)
(0 3.134709968e-10 -5.269738596e-12)
(0 3.101739056e-10 -3.584593742e-12)
(0 3.036734025e-10 -8.219112188e-13)
(0 2.92963357e-10 3.092463465e-12)
(0 2.770014618e-10 8.131128834e-12)
(0 2.54810945e-10 1.410651841e-11)
(0 2.256404887e-10 2.061430656e-11)
(0 1.891764955e-10 2.701988195e-11)
(0 1.457552633e-10 3.256181909e-11)
(0 9.644212952e-11 3.664861249e-11)
(0 4.27743077e-11 3.928963399e-11)
(0 -1.39101368e-11 4.123884009e-11)
(0 -7.304273231e-11 4.301864618e-11)
(0 -1.337716208e-10 4.249647288e-11)
(0 -1.916816179e-10 3.425698994e-11)
(0 -2.387639267e-10 1.621702124e-11)
(0 -2.685060383e-10 -8.393041799e-12)
(0 -2.777697652e-10 -3.747670637e-11)
(0 -2.639005971e-10 -7.114007259e-11)
(0 -2.228620454e-10 -1.076967139e-10)
(0 -1.539618956e-10 -1.354270012e-10)
(0 -6.872688236e-11 -1.355334716e-10)
(0 9.568557158e-12 -9.222362728e-11)
(0 1.221492938e-12 1.448359334e-24)
(0 2.39376844e-12 1.343601009e-13)
(0 2.256354702e-12 2.431204067e-13)
(0 2.056476003e-12 3.126316909e-13)
(0 1.82444471e-12 3.427327504e-13)
(0 1.586137298e-12 3.415730717e-13)
(0 1.359377466e-12 3.198231539e-13)
(0 1.154160533e-12 2.870437827e-13)
(0 9.745490888e-13 2.502749544e-13)
(0 8.207912242e-13 2.139988214e-13)
(0 6.910217426e-13 1.806752765e-13)
(0 5.824250925e-13 1.5138331e-13)
(0 4.91938132e-13 1.26356975e-13)
(0 4.166327038e-13 1.053705853e-13)
(0 3.538911323e-13 8.798454533e-14)
(0 3.014649612e-13 7.369218164e-14)
(0 2.574684212e-13 6.199733942e-14)
(0 2.203443468e-13 5.245256694e-14)
(0 1.888181424e-13 4.467178463e-14)
(0 1.618529868e-13 3.833203596e-14)
(0 1.38606405e-13 3.316761973e-14)
(0 1.183918824e-13 2.896341746e-14)
(0 1.006440862e-13 2.554615399e-14)
(0 8.489445657e-14 2.2777579e-14)
(0 7.075593159e-14 2.054756986e-14)
(0 5.791254033e-14 1.876983835e-14)
(0 4.610099534e-14 1.737738512e-14)
(0 3.508650359e-14 1.63201645e-14)
(0 2.466843092e-14 1.555764644e-14)
(0 1.465138646e-14 1.506419538e-14)
(0 4.858035419e-15 1.482370044e-14)
(0 3.05406887e-10 -1.547913241e-12)
(0 3.06752487e-10 -4.545880395e-12)
(0 3.086658477e-10 -7.233760201e-12)
(0 3.108241006e-10 -9.380770548e-12)
(0 3.128514632e-10 -1.074599565e-11)
(0 3.142305618e-10 -1.107509011e-11)
(0 3.143043738e-10 -1.010437424e-11)
(0 3.122735833e-10 -7.573572076e-12)
(0 3.071988544e-10 -3.253321741e-12)
(0 2.980148692e-10 3.008222061e-12)
(0 2.8356994e-10 1.121082197e-11)
(0 2.627139154e-10 2.109591612e-11)
(0 2.344678201e-10 3.201818014e-11)
(0 1.98308586e-10 4.285601506e-11)
(1.001492511e-52 1.545563748e-10 5.211161475e-11)
(6.889087463e-53 1.04685787e-10 5.844012515e-11)
(0 5.107810043e-11 6.172203903e-11)
(0 -4.404005582e-12 6.401678806e-11)
(0 -6.26805166e-11 6.821943836e-11)
(0 -1.265684087e-10 7.147357127e-11)
(0 -1.920448237e-10 6.0361407e-11)
(0 -2.467729034e-10 3.01460641e-11)
(0 -2.829675386e-10 -9.321335012e-12)
(0 -3.008545157e-10 -5.375227195e-11)
(0 -2.997499657e-10 -1.06443171e-10)
(0 -2.704748875e-10 -1.707063457e-10)
(0 -2.03059778e-10 -2.256065603e-10)
(0 -1.053967714e-10 -2.333158724e-10)
(0 -5.828666778e-12 -1.621974605e-10)
(0 1.313564863e-12 1.565745135e-24)
(0 2.559790378e-12 2.520571442e-13)
(0 2.376798756e-12 4.484146283e-13)
(0 2.122314368e-12 5.64579353e-13)
(0 1.841957316e-12 6.058770912e-13)
(0 1.568802161e-12 5.922156899e-13)
(0 1.321246523e-12 5.453994018e-13)
(0 1.106507751e-12 4.829470428e-13)
(0 9.250438145e-13 4.166649546e-13)
(0 7.739565581e-13 3.534436836e-13)
(0 6.490978887e-13 2.966835901e-13)
(0 5.46187523e-13 2.475869053e-13)
(0 4.613213201e-13 2.061179634e-13)
(0 3.911469459e-13 1.716229574e-13)
(0 3.328786444e-13 1.43206858e-13)
(0 2.842425061e-13 1.199355726e-13)
(0 2.43400336e-13 1.009411012e-13)
(0 2.088725278e-13 8.546134478e-14)
(0 1.794701276e-13 7.285253303e-14)
(0 1.542373854e-13 6.258131488e-14)
(0 1.324043319e-13 5.421375346e-14)
(0 1.133458434e-13 4.739927452e-14)
(0 9.654800434e-14 4.185752707e-14)
(0 8.158400359e-14 3.736479455e-14)
(0 6.810145306e-14 3.374407034e-14)
(0 5.581292321e-14 3.085620716e-14)
(0 4.447708034e-14 2.859319701e-14)
(0 3.388456972e-14 2.687342017e-14)
(0 2.382795346e-14 2.563094944e-14)
(0 1.416563323e-14 2.483319629e-14)
(0 4.712664263e-15 2.44343381e-14)
(0 3.00982029e-10 -2.332767133e-12)
(0 3.025937762e-10 -6.866614089e-12)
(0 3.049740537e-10 -1.098346882e-11)
(0 3.078167601e-10 -1.437247869e-11)
(0 3.107579344e-10 -1.670716238e-11)
(0 3.132930742e-10 -1.764064173e-11)
(0 3.147751755e-10 -1.680893459e-11)
(0 3.144064989e-10 -1.384468927e-11)
(0 3.112315667e-10 -8.406220334e-12)
(0 3.041347349e-10 -2.300265129e-13)
(0 2.91850668e-10 1.077784039e-11)
(0 2.730102819e-10 2.438739408e-11)
(0 2.462779915e-10 3.980905451e-11)
(0 2.10689532e-10 5.541615272e-11)
(-1.130350384e-52 1.663129232e-10 6.864504632e-11)
(-7.570091754e-53 1.151472124e-10 7.661827738e-11)
(0 6.140911338e-11 7.828609328e-11)
(0 9.220199752e-12 7.784109826e-11)
(0 -4.409679901e-11 8.523458555e-11)
(0 -1.102428637e-10 1.005090728e-10)
(0 -1.867562291e-10 9.096066877e-11)
(0 -2.504698594e-10 4.578524481e-11)
(0 -2.911082774e-10 -6.501012994e-12)
(0 -3.180438106e-10 -5.79767226e-11)
(0 -3.378632866e-10 -1.200470749e-10)
(0 -3.331949992e-10 -2.161139195e-10)
(0 -2.751531376e-10 -3.129717681e-10)
(0 -1.631804844e-10 -3.412691077e-10)
(0 -3.207883036e-11 -2.461339869e-10)
(0 1.473550082e-12 1.744006503e-24)
(0 2.842183069e-12 4.254643662e-13)
(0 2.568876913e-12 7.339019472e-13)
(0 2.213938467e-12 8.913854784e-13)
(0 1.852081046e-12 9.239657582e-13)
(0 1.525659609e-12 8.76005045e-13)
(0 1.250108819e-12 7.866038411e-13)
(0 1.025426086e-12 6.826748042e-13)
(0 8.45045729e-13 5.799841487e-13)
(0 7.008098596e-13 4.864168497e-13)
(0 5.851649642e-13 4.050145603e-13)
(0 4.918594654e-13 3.361506464e-13)
(0 4.15974184e-13 2.78892607e-13)
(0 3.537215983e-13 2.317871495e-13)
(0 3.022037473e-13 1.932755682e-13)
(0 2.591992044e-13 1.618958875e-13)
(0 2.229941934e-13 1.363640162e-13)
(0 1.922557786e-13 1.155946828e-13)
(0 1.659381125e-13 9.869104529e-14)
(0 1.432142072e-13 8.49233694e-14)
(0 1.234243645e-13 7.370319782e-14)
(0 1.06035656e-13 6.455953507e-14)
(0 9.060960626e-14 5.711683646e-14)
(0 7.67809998e-14 5.107711321e-14)
(0 6.424734418e-14 4.620483337e-14)
(0 5.2761667e-14 4.23153e-14)
(0 4.211820834e-14 3.92650205e-14)
(0 3.212425602e-14 3.694376037e-14)
(0 2.262820705e-14 3.52714022e-14)
(0 1.345477512e-14 3.418259112e-14)
(0 4.459177225e-15 3.365175984e-14)
(0 2.947581688e-10 -3.268097418e-12)
(0 2.966826938e-10 -9.64371764e-12)
(0 2.996083009e-10 -1.551090182e-11)
(0 3.032485539e-10 -2.048948521e-11)
(0 3.072524553e-10 -2.417844826e-11)
(0 3.111299827e-10 -2.614920898e-11)
(0 3.142475246e-10 -2.594796929e-11)
(0 3.158177106e-10 -2.310746062e-11)
(0 3.148889669e-10 -1.717111898e-11)
(0 3.103312285e-10 -7.736125013e-12)
(0 3.008105692e-10 5.463202264e-12)
(0 2.847546912e-10 2.23832938e-11)
(0 2.60363863e-10 4.232600001e-11)
(0 2.258637602e-10 6.334656591e-11)
(0 1.80415264e-10 8.154598335e-11)
(0 1.261292435e-10 9.110926106e-11)
(0 7.039531942e-11 8.742982468e-11)
(0 2.41688654e-11 7.594172297e-11)
(0 -1.499145886e-11 8.379091654e-11)
(0 -7.98990179e-11 1.286918828e-10)
(0 -1.72863611e-10 1.286543874e-10)
(0 -2.449456151e-10 5.724746301e-11)
(0 -2.810855135e-10 -5.742324253e-12)
(0 -3.11043031e-10 -4.925082103e-11)
(0 -3.601177994e-10 -9.654424956e-11)
(0 -3.997776794e-10 -2.291418521e-10)
(0 -3.659877136e-10 -3.927960189e-10)
(0 -2.410299821e-10 -4.615014802e-10)
(0 -6.848036955e-11 -3.516920275e-10)
(0 1.739029228e-12 2.015715949e-24)
(0 3.293692325e-12 7.159091683e-13)
(0 2.84271987e-12 1.170334705e-12)
(0 2.312378179e-12 1.343064465e-12)
(0 1.826576882e-12 1.322558413e-12)
(0 1.431440243e-12 1.201200709e-12)
(0 1.127916282e-12 1.042310933e-12)
(0 8.998880589e-13 8.81143007e-13)
(0 7.287858595e-13 7.341616639e-13)
(0 5.989869698e-13 6.072055961e-13)
(0 4.988316856e-13 5.0078861e-13)
(0 4.200655693e-13 4.130900558e-13)
(0 3.569578231e-13 3.414987583e-13)
(0 3.055299072e-13 2.833431573e-13)
(0 2.629873821e-13 2.362008767e-13)
(0 2.273309541e-13 1.979982997e-13)
(0 1.970991314e-13 1.670163119e-13)
(0 1.711995567e-13 1.418550265e-13)
(0 1.487988143e-13 1.213875188e-13)
(0 1.29249538e-13 1.047122128e-13)
(0 1.120404975e-13 9.111121213e-14)
(0 9.675948207e-14 8.001409859e-14)
(0 8.306558249e-14 7.09688405e-14)
(0 7.067200047e-14 6.361780468e-14)
(0 5.933963985e-14 5.767915011e-14)
(0 4.887311034e-14 5.293189987e-14)
(0 3.910554069e-14 4.920417853e-14)
(0 2.989095142e-14 4.636485282e-14)
(0 2.106678422e-14 4.431324086e-14)
(0 1.254599087e-14 4.298724626e-14)
(0 4.181832979e-15 4.232916082e-14)
(0 2.863816413e-10 -4.379570361e-12)
(0 2.886446525e-10 -1.295463185e-11)
(0 2.921569512e-10 -2.094655892e-11)
(0 2.966526092e-10 -2.791816325e-11)
(0 3.017914619e-10 -3.3406514e-11)
(0 3.070941539e-10 -3.691502378e-11)
(0 3.119361861e-10 -3.791569615e-11)
(0 3.155413427e-10 -3.586003075e-11)
(0 3.169802615e-10 -3.01960363e-11)
(0 3.151643376e-10 -2.038946968e-11)
(0 3.088042558e-10 -5.96104576e-12)
(0 2.962812452e-10 1.340397009e-11)
(0 2.754064152e-10 3.75150218e-11)
(0 2.432416911e-10 6.478121085e-11)
(0 1.967534228e-10 9.03905637e-11)
(0 1.361375729e-10 1.040229713e-10)
(0 7.212093619e-11 9.141683215e-11)
(0 3.260081789e-11 5.024726732e-11)
(0 2.525920195e-11 4.215493283e-11)
(0 -3.103632686e-11 1.530326229e-10)
(0 -1.479106527e-10 1.767882685e-10)
(0 -2.238747694e-10 5.038529206e-11)
(0 -2.374966205e-10 -1.947847105e-11)
(0 -2.541934315e-10 -3.485901601e-11)
(0 -3.352724848e-10 -1.698930698e-11)
(0 -4.426310589e-10 -1.899999962e-10)
(0 -4.603347121e-10 -4.575257958e-10)
(0 -3.319450894e-10 -5.88508328e-10)
(0 -1.149520155e-10 -4.86639459e-10)
(0 2.189459246e-12 2.468631422e-24)
(0 4.01251777e-12 1.268041069e-12)
(0 3.196032209e-12 1.888617282e-12)
(0 2.366162174e-12 1.988026942e-12)
(0 1.71021729e-12 1.821982157e-12)
(0 1.245412129e-12 1.563886765e-12)
(0 9.30051118e-13 1.300254265e-12)
(0 7.172768182e-13 1.065390498e-12)
(0 5.711083181e-13 8.682846136e-13)
(0 4.674368065e-13 7.07429971e-13)
(0 3.910494247e-13 5.778204435e-13)
(0 3.325696136e-13 4.739010605e-13)
(0 2.862272859e-13 3.906499769e-13)
(0 2.484237171e-13 3.238696618e-13)
(0 2.168588897e-13 2.701724176e-13)
(0 1.900146398e-13 2.2686863e-13)
(0 1.668509204e-13 1.918379414e-13)
(0 1.466269854e-13 1.634133289e-13)
(0 1.287952989e-13 1.402843674e-13)
(0 1.129379007e-13 1.214203205e-13)
(0 9.872625032e-14 1.06009342e-13)
(0 8.589328444e-14 9.341141173e-14)
(0 7.421331242e-14 8.312155159e-14)
(0 6.349130941e-14 7.474153595e-14)
(0 5.356143941e-14 6.795791714e-14)
(0 4.428669545e-14 6.252508899e-14)
(0 3.555116128e-14 5.825206088e-14)
(0 2.723331836e-14 5.4991825e-14)
(0 1.925060051e-14 5.263733849e-14)
(0 1.147069507e-14 5.110384375e-14)
(0 3.80109178e-15 5.035313207e-14)
(0 2.75469986e-10 -5.682599798e-12)
(0 2.780740449e-10 -1.684513278e-11)
(0 2.82173438e-10 -2.736572556e-11)
(0 2.875216831e-10 -3.67622141e-11)
(0 2.93784023e-10 -4.45219127e-11)
(0 3.004808647e-10 -5.009262961e-11)
(0 3.069785667e-10 -5.288766818e-11)
(0 3.124890391e-10 -5.230263421e-11)
(0 3.160910787e-10 -4.773616342e-11)
(0 3.167694196e-10 -3.859659928e-11)
(0 3.134288119e-10 -2.427132535e-11)
(0 3.047627445e-10 -4.060871112e-12)
(0 2.887487199e-10 2.278356268e-11)
(0 2.615654989e-10 5.635390804e-11)
(0 2.164987508e-10 9.327948661e-11)
(0 1.466764182e-10 1.196407599e-10)
(0 5.966095148e-11 1.028058809e-10)
(0 1.896806765e-11 -3.966065946e-13)
(0 6.832032102e-11 -7.539109021e-11)
(0 2.51495178e-11 1.830663111e-10)
(0 -1.023408221e-10 2.613196323e-10)
(0 -1.653965882e-10 -6.373247106e-12)
(0 -1.454690152e-10 -6.461956067e-11)
(0 -1.3414682e-10 -4.380002615e-11)
(0 -2.22924625e-10 1.578949234e-10)
(0 -3.849340741e-10 -6.742221838e-11)
(0 -5.139378313e-10 -4.928778274e-10)
(0 -4.093796533e-10 -6.880445125e-10)
(0 -1.748179473e-10 -6.522373373e-10)
(0 3.007070296e-12 3.297497335e-24)
(0 5.182309609e-12 2.467886653e-12)
(0 3.562705746e-12 3.128359103e-12)
(0 2.245743054e-12 2.898604465e-12)
(0 1.402436704e-12 2.413496068e-12)
(0 9.097123491e-13 1.932087524e-12)
(0 6.294200152e-13 1.529388853e-12)
(0 4.679184074e-13 1.211840102e-12)
(0 3.708253309e-13 9.661217674e-13)
(0 3.085227995e-13 7.763788519e-13)
(0 2.653027751e-13 6.291354549e-13)
(0 2.328951019e-13 5.140197108e-13)
(0 2.069264243e-13 4.233094506e-13)
(0 1.850523479e-13 3.512947571e-13)
(0 1.6598635e-13 2.937350536e-13)
(0 1.489964778e-13 2.474526616e-13)
(0 1.336438302e-13 2.100424599e-13)
(0 1.196459826e-13 1.796664228e-13)
(0 1.068058059e-13 1.549080815e-13)
(0 9.49745126e-14 1.346679648e-13)
(0 8.403158862e-14 1.180877963e-13)
(0 7.387169162e-14 1.044945412e-13)
(0 6.439570672e-14 9.335885678e-14)
(0 5.550836596e-14 8.426383745e-14)
(0 4.712319288e-14 7.688146141e-14)
(0 3.916725409e-14 7.095446318e-14)
(0 3.157227667e-14 6.628235017e-14)
(0 2.427622902e-14 6.27116647e-14)
(0 1.717880296e-14 6.012539987e-14)
(0 1.026178444e-14 5.844871077e-14)
(0 3.4311213e-15 5.761753986e-14)
(0 2.616362267e-10 -7.181801929e-12)
(0 2.645598874e-10 -2.132764301e-11)
(0 2.692044998e-10 -3.478533164e-11)
(0 2.753418794e-10 -4.703866696e-11)
(0 2.826371007e-10 -5.753452919e-11)
(0 2.905955264e-10 -6.567036675e-11)
(0 2.985415137e-10 -7.080365487e-11)
(0 3.056146163e-10 -7.228561346e-11)
(0 3.108114254e-10 -6.951285582e-11)
(0 3.130985939e-10 -6.196863332e-11)
(0 3.11596262e-10 -4.918289259e-11)
(0 3.057215843e-10 -3.047765939e-11)
(0 2.948604591e-10 -4.360546796e-12)
(0 2.764940539e-10 3.214760969e-11)
(0 2.411846867e-10 8.209651981e-11)
(0 1.677983157e-10 1.371801478e-10)
(0 3.413756393e-11 1.475174811e-10)
(0 -2.019869417e-11 -5.072968896e-11)
(0 9.997274558e-11 -3.548487345e-10)
(0 1.845365663e-24 1.44969933e-11)
(0 -3.455021115e-24 9.856881804e-12)
(0 -1.783568702e-24 -4.289457775e-12)
(0 -7.324386446e-25 -2.731153132e-12)
(0 3.95886729e-25 -3.677980115e-12)
(0 2.122036663e-24 1.102872886e-11)
(0 -4.037547932e-24 1.589582012e-11)
(0 -4.408974296e-10 -4.886054707e-10)
(0 -3.934371942e-10 -6.689808129e-10)
(0 -2.778982313e-10 -8.215495612e-10)
(0 4.657345893e-12 4.481148261e-24)
(0 7.140876869e-12 5.474352936e-12)
(0 3.626750024e-12 5.258047502e-12)
(0 1.651299143e-12 4.064471667e-12)
(0 7.437003496e-13 3.001272708e-12)
(0 3.613049112e-13 2.221529725e-12)
(0 2.098036969e-13 1.673319511e-12)
(0 1.540097327e-13 1.286409403e-12)
(0 1.356470662e-13 1.007940381e-12)
(0 1.304504939e-13 8.027916703e-13)
(0 1.286902837e-13 6.482911726e-13)
(0 1.267436086e-13 5.297054304e-13)
(0 1.235023322e-13 4.37249391e-13)
(0 1.188493202e-13 3.642443044e-13)
(0 1.130167938e-13 3.060027721e-13)
(0 1.063220461e-13 2.591496473e-13)
(0 9.906468158e-14 2.21200144e-13)
(0 9.14926068e-14 1.902910199e-13)
(0 8.379684098e-14 1.650041293e-13)
(0 7.611761556e-14 1.442473435e-13)
(0 6.855282659e-14 1.271718381e-13)
(0 6.116434493e-14 1.131133045e-13)
(0 5.398260867e-14 1.015492905e-13)
(0 4.701391398e-14 9.206792916e-14)
(0 4.025206513e-14 8.434457289e-14)
(0 3.368758422e-14 7.812404735e-14)
(0 2.730836277e-14 7.320713782e-14)
(0 2.107636806e-14 6.943996965e-14)
(0 1.498764658e-14 6.670987307e-14)
(0 8.962835055e-15 6.492873217e-14)
(0 2.96992087e-15 6.405408349e-14)
(0 2.445166398e-10 -8.871578432e-12)
(0 2.477141511e-10 -2.638212546e-11)
(0 2.528187858e-10 -4.316493813e-11)
(0 2.596229494e-10 -5.868098505e-11)
(0 2.677934291e-10 -7.234411107e-11)
(0 2.768140618e-10 -8.349561944e-11)
(0 2.859354269e-10 -9.141265409e-11)
(0 2.941382876e-10 -9.536308717e-11)
(0 3.001511236e-10 -9.471619043e-11)
(0 3.025913895e-10 -8.910129569e-11)
(0 3.003467137e-10 -7.854629407e-11)
(0 2.933259828e-10 -6.335805093e-11)
(0 2.834239399e-10 -4.312723439e-11)
(0 2.741686271e-10 -1.37820912e-11)
(0 2.62662525e-10 3.77784667e-11)
(0 2.164219978e-10 1.300137426e-10)
(0 8.189954376e-12 2.630434255e-10)
(0 3.321576483e-24 -4.213845945e-12)
(0 -1.037839384e-11 -8.672419469e-12)
(0 -1.026772936e-11 1.850501793e-11)
(0 6.088936224e-12 1.384661649e-11)
(0 7.53657639e-12 -4.158267492e-12)
(0 6.114776588e-13 -2.95628744e-12)
(0 -6.364729333e-12 -2.883975774e-12)
(0 -5.301587064e-12 1.652315593e-11)
(0 9.095882305e-12 2.292807153e-11)
(0 8.979567017e-12 -1.480182803e-12)
(0 -4.087602914e-24 9.834756208e-12)
(0 -5.552850661e-10 -8.403765664e-10)
(0 8.481423204e-12 -2.272521122e-11)
(0 1.044035708e-11 1.417106982e-11)
(0 2.152824477e-12 8.364660338e-12)
(0 -1.103173219e-14 5.099764472e-12)
(0 -4.405052302e-13 3.305473847e-12)
(0 -4.182408478e-13 2.279349405e-12)
(0 -3.057003047e-13 1.655875307e-12)
(0 -1.974607199e-13 1.252474722e-12)
(0 -1.127924013e-13 9.763864937e-13)
(0 -5.112640736e-14 7.785126777e-13)
(0 -7.783463605e-15 6.314952914e-13)
(0 2.185332032e-14 5.192298126e-13)
(0 4.146529886e-14 4.317112048e-13)
(0 5.380572961e-14 3.624069747e-13)
(0 6.089169283e-14 3.068622602e-13)
(0 6.419384996e-14 2.619261697e-13)
(0 6.478520312e-14 2.253031618e-13)
(0 6.344996782e-14 1.952811248e-13)
(0 6.076212968e-14 1.705594722e-13)
(0 5.714222156e-14 1.501361382e-13)
(0 5.289754964e-14 1.332306245e-13)
(0 4.824914412e-14 1.192299855e-13)
(0 4.335033147e-14 1.07650143e-13)
(0 3.830364832e-14 9.810772108e-14)
(0 3.317931112e-14 9.029914857e-14)
(0 2.802981906e-14 8.398470962e-14)
(0 2.288819897e-14 7.897619558e-14)
(0 1.777896429e-14 7.512852788e-14)
(0 1.266756549e-14 7.233066686e-14)
(0 7.605994864e-15 7.051054796e-14)
(0 2.556472626e-15 6.960770709e-14)
(0 2.23803041e-10 -1.073817443e-11)
(0 2.272035653e-10 -3.195927649e-11)
(0 2.326344147e-10 -5.240866251e-11)
(0 2.399186345e-10 -7.154267423e-11)
(0 2.48744724e-10 -8.875611834e-11)
(0 2.585977582e-10 -1.033237066e-10)
(0 2.686628e-10 -1.143886273e-10)
(0 2.777158384e-10 -1.210189847e-10)
(0 2.840263756e-10 -1.223635567e-10)
(0 2.853407274e-10 -1.179554725e-10)
(0 2.791472367e-10 -1.082165109e-10)
(0 2.637499175e-10 -9.512035546e-11)
(0 2.412162979e-10 -8.248814599e-11)
(0 2.236253406e-10 -7.393406689e-11)
(0 2.356013596e-10 -6.277246077e-11)
(0 3.085443606e-10 -2.49786095e-11)
(0 1.115998926e-11 1.113528854e-11)
(0 1.620296717e-11 -2.31129642e-12)
(0 2.594252349e-12 -9.853471773e-12)
(0 -2.356351033e-12 5.474959788e-12)
(0 2.212101859e-12 5.952366198e-12)
(0 3.321707374e-12 1.180523031e-12)
(0 1.27429172e-12 6.800230431e-13)
(0 -6.451679379e-13 2.378179461e-12)
(0 9.366600393e-13 8.61720536e-12)
(0 6.872048295e-12 1.049955606e-11)
(0 7.031296249e-12 4.432167091e-13)
(0 8.424600317e-12 1.487204069e-11)
(0 -1.611399863e-11 1.406729109e-12)
(0 -2.617158294e-11 -6.472928491e-11)
(0 -6.769250141e-12 2.056890044e-11)
(0 -5.444555377e-12 8.929598515e-12)
(0 -3.40788736e-12 4.664256636e-12)
(0 -2.076714716e-12 2.841348858e-12)
(0 -1.288293635e-12 1.934395863e-12)
(0 -8.170709868e-13 1.418261082e-12)
(0 -5.254790796e-13 1.091150229e-12)
(0 -3.383149802e-13 8.665552021e-13)
(0 -2.144407085e-13 7.03325393e-13)
(0 -1.305925812e-13 5.799041165e-13)
(0 -7.304047869e-14 4.839705902e-13)
(0 -3.332050577e-14 4.079273516e-13)
(0 -5.999624318e-15 3.467835288e-13)
(0 1.25359885e-14 2.970905827e-13)
(0 2.47629477e-14 2.563705618e-13)
(0 3.241963674e-14 2.227890674e-13)
(0 3.6748917e-14 1.949570911e-13)
(0 3.86518544e-14 1.718046939e-13)
(0 3.878876783e-14 1.524968816e-13)
(0 3.764667374e-14 1.363754358e-13)
(0 3.558386342e-14 1.229175424e-13)
(0 3.286034425e-14 1.117058684e-13)
(0 2.966291949e-14 1.024066407e-13)
(0 2.612905367e-14 9.475323914e-14)
(0 2.236463124e-14 8.853341311e-14)
(0 1.8452181e-14 8.357932654e-14)
(0 1.443083933e-14 7.97597806e-14)
(0 1.036966667e-14 7.697790805e-14)
(0 6.239875277e-15 7.51573435e-14)
(0 2.067079996e-15 7.426053702e-14)
(0 1.99283636e-10 -1.276546193e-11)
(0 2.027898716e-10 -3.798744006e-11)
(0 2.083493975e-10 -6.236426628e-11)
(0 2.158375251e-10 -8.538908172e-11)
(0 2.250107864e-10 -1.064776995e-10)
(0 2.354253966e-10 -1.248463017e-10)
(0 2.462951687e-10 -1.394535269e-10)
(0 2.563008743e-10 -1.490135796e-10)
(0 2.633192267e-10 -1.521071337e-10)
(0 2.640273297e-10 -1.474628161e-10)
(0 2.533691532e-10 -1.345705546e-10)
(0 2.241275878e-10 -1.149338798e-10)
(0 1.678014137e-10 -9.421566177e-11)
(0 8.226620859e-11 -8.4004621e-11)
(1.908146023e-52 -1.159845864e-11 -8.135082602e-11)
(3.892490471e-52 -4.238546786e-12 3.845973943e-24)
(0 -2.311296268e-12 1.610456174e-11)
(0 3.886626612e-12 3.772665308e-12)
(0 2.158637986e-12 -6.022217041e-13)
(0 7.873327739e-13 2.545044437e-12)
(0 1.794499451e-12 3.307030397e-12)
(0 2.264233219e-12 2.247489515e-12)
(0 1.809134091e-12 2.117130365e-12)
(0 1.572453005e-12 3.098943378e-12)
(0 2.819789563e-12 5.067717427e-12)
(0 5.67266951e-12 5.258614047e-12)
(0 8.601276077e-12 2.593532125e-12)
(0 1.633734804e-11 3.591301715e-12)
(0 3.527405832e-11 -9.64099679e-12)
(0 -4.176210386e-12 -3.210488617e-11)
(0 -3.772056132e-11 2.083599904e-12)
(0 -1.375181938e-11 2.120139936e-12)
(0 -6.099281402e-12 1.785954901e-12)
(0 -3.170366002e-12 1.461012162e-12)
(0 -1.84132863e-12 1.198445462e-12)
(0 -1.14894594e-12 9.91494046e-13)
(0 -7.491665993e-13 8.272125732e-13)
(0 -5.006172387e-13 6.952824819e-13)
(0 -3.377774933e-13 5.882682795e-13)
(0 -2.271382664e-13 5.007747686e-13)
(0 -1.501234453e-13 4.2877892e-13)
(0 -9.572176264e-14 3.692085379e-13)
(0 -5.703103922e-14 3.196792118e-13)
(0 -2.952127446e-14 2.783207246e-13)
(0 -1.010766543e-14 2.436551925e-13)
(0 3.371732372e-15 2.145075669e-13)
(0 1.246559416e-14 1.899383664e-13)
(0 1.830192016e-14 1.69192522e-13)
(0 2.171296342e-14 1.51660245e-13)
(0 2.331821039e-14 1.368469012e-13)
(0 2.357957672e-14 1.243498469e-13)
(0 2.283942974e-14 1.138407435e-13)
(0 2.135101901e-14 1.0505217e-13)
(0 1.930608353e-14 9.776716232e-14)
(0 1.685590646e-14 9.181053189e-14)
(0 1.411456643e-14 8.704170583e-14)
(0 1.117754579e-14 8.335030132e-14)
(0 8.0651284e-15 8.065043388e-14)
(0 4.888623831e-15 7.888601719e-14)
(0 1.659666147e-15 7.800919314e-14)
(0 1.709016317e-10 -1.495221997e-11)
(0 1.743891153e-10 -4.439026041e-11)
(0 1.797857019e-10 -7.281833561e-11)
(0 1.870595481e-10 -9.986551683e-11)
(0 1.961059067e-10 -1.250617846e-10)
(0 2.066596062e-10 -1.476226293e-10)
(0 2.181409332e-10 -1.663379988e-10)
(0 2.294525587e-10 -1.795172235e-10)
(0 2.386588881e-10 -1.849704775e-10)
(0 2.424099411e-10 -1.800276502e-10)
(0 2.347834566e-10 -1.616187021e-10)
(0 2.048332526e-10 -1.26554801e-10)
(0 1.311078692e-10 -7.255322314e-11)
(0 -1.964725246e-11 -3.409919165e-12)
(0 -3.296110971e-10 7.768793102e-11)
(0 -8.770825274e-12 -1.055703028e-11)
(0 -9.94273217e-12 2.339498505e-12)
(0 -5.038159798e-13 1.899967531e-12)
(0 1.366631485e-12 1.127029218e-12)
(0 1.552901059e-12 2.000365422e-12)
(0 1.914546939e-12 2.483015842e-12)
(0 2.131807346e-12 2.384912681e-12)
(0 2.125745581e-12 2.44150458e-12)
(0 2.305419116e-12 2.83246282e-12)
(0 3.096330702e-12 3.296041112e-12)
(0 4.397862999e-12 2.874377026e-12)
(0 5.36398392e-12 1.081707664e-12)
(0 4.619489553e-12 -1.889478808e-12)
(0 -6.810187769e-12 -1.166935296e-11)
(0 -9.696210796e-12 1.225717554e-11)
(0 -4.364029174e-12 -1.406873158e-11)
(0 -5.742200379e-12 -4.319045449e-12)
(0 -4.067015131e-12 -1.101992495e-12)
(0 -2.664224153e-12 1.800283638e-14)
(0 -1.757811752e-12 4.066697308e-13)
(0 -1.188303875e-12 5.219053121e-13)
(0 -8.216906424e-13 5.308098616e-13)
(0 -5.77259274e-13 4.990060114e-13)
(0 -4.089484212e-13 4.536206442e-13)
(0 -2.9008194e-13 4.060909512e-13)
(0 -2.046067094e-13 3.611146983e-13)
(0 -1.424202136e-13 3.204092709e-13)
(0 -9.688743723e-14 2.843709996e-13)
(0 -6.348803077e-14 2.528302366e-13)
(0 -3.905020976e-14 2.253987739e-13)
(0 -2.129718911e-14 2.016283022e-13)
(0 -8.56612797e-15 1.810801208e-13)
(0 3.737330798e-16 1.633532277e-13)
(0 6.443147169e-15 1.480930866e-13)
(0 1.033627569e-14 1.349917715e-13)
(0 1.257770581e-14 1.23784663e-13)
(0 1.356266738e-14 1.142463124e-13)
(0 1.358933833e-14 1.06186501e-13)
(0 1.28874156e-14 9.944632364e-14)
(0 1.163917479e-14 9.389412529e-14)
(0 9.991950426e-15 8.942186525e-14)
(0 8.039567395e-15 8.59423258e-14)
(0 5.905382562e-15 8.338987416e-14)
(0 3.598634534e-15 8.171157582e-14)
(0 1.190255941e-15 8.088146721e-14)
(0 1.388552791e-10 -1.736546957e-11)
(0 1.421659933e-10 -5.113350451e-11)
(0 1.469586311e-10 -8.349366311e-11)
(0 1.533838796e-10 -1.144435532e-10)
(0 1.615557033e-10 -1.437928486e-10)
(0 1.714776554e-10 -1.708683141e-10)
(0 1.829279014e-10 -1.944013904e-10)
(0 1.953419788e-10 -2.124587636e-10)
(0 2.076721563e-10 -2.223788657e-10)
(0 2.182580585e-10 -2.207090047e-10)
(0 2.248218647e-10 -2.03136412e-10)
(0 2.248729875e-10 -1.645110808e-10)
(0 2.14982222e-10 -1.001195662e-10)
(0 2.060080851e-10 -1.884197634e-11)
(0 1.431835699e-11 1.690351249e-24)
(0 1.822556311e-11 -1.070300907e-11)
(0 5.394925685e-12 -2.840322896e-12)
(0 2.674157352e-12 3.606625666e-13)
(0 2.259035885e-12 1.20998562e-12)
(0 2.143319399e-12 1.846252701e-12)
(0 2.179046711e-12 2.239532798e-12)
(0 2.222721958e-12 2.367317254e-12)
(0 2.256684231e-12 2.431064235e-12)
(0 2.426989536e-12 2.492941788e-12)
(0 2.861703767e-12 2.409822445e-12)
(0 3.45833606e-12 1.86162818e-12)
(0 3.837420245e-12 7.482259467e-13)
(0 3.586287441e-12 -5.614743884e-13)
(0 2.935713197e-12 -9.189666155e-13)
(0 5.119604562e-12 2.206805115e-12)
(0 3.883410776e-12 -8.116625194e-12)
(0 -7.850802629e-13 -4.226002991e-12)
(0 -1.762233107e-12 -1.893253875e-12)
(0 -1.661703778e-12 -6.939708295e-13)
(0 -1.337426151e-12 -1.118942168e-13)
(0 -1.024805808e-12 1.584832302e-13)
(0 -7.720658996e-13 2.749908103e-13)
(0 -5.77806456e-13 3.16214622e-13)
(0 -4.306925533e-13 3.21041193e-13)
(0 -3.196442122e-13 3.087921675e-13)
(0 -2.358051259e-13 2.891289617e-13)
(0 -1.724654613e-13 2.66900581e-13)
(0 -1.246100734e-13 2.445299208e-13)
(0 -8.849350032e-14 2.232009065e-13)
(0 -6.130959979e-14 2.034567558e-13)
(0 -4.094692073e-14 1.855062977e-13)
(0 -2.580948055e-14 1.693836362e-13)
(0 -1.468511399e-14 1.550330608e-13)
(0 -6.648492703e-15 1.423550721e-13)
(0 -9.902133038e-16 1.312317171e-13)
(0 2.834117575e-15 1.21540848e-13)
(0 5.241267778e-15 1.13164494e-13)
(0 6.551030225e-15 1.059938244e-13)
(0 7.013707779e-15 9.993158024e-14)
(0 6.83144808e-15 9.489258201e-14)
(0 6.16276691e-15 9.080345918e-14)
(0 5.145554696e-15 8.760336793e-14)
(0 3.834378425e-15 8.524303151e-14)
(0 2.380216876e-15 8.369088096e-14)
(0 8.295575399e-16 8.2917046e-14)
(0 1.038156985e-10 -2.030303992e-11)
(0 1.066740241e-10 -5.833046367e-11)
(0 1.101585817e-10 -9.405544267e-11)
(0 1.148161102e-10 -1.283685387e-10)
(0 1.210322089e-10 -1.615730429e-10)
(0 1.290768389e-10 -1.932110143e-10)
(0 1.390714687e-10 -2.220716672e-10)
(0 1.50939429e-10 -2.461798671e-10)
(0 1.643207654e-10 -2.627944028e-10)
(0 1.78520672e-10 -2.685385731e-10)
(0 1.927339706e-10 -2.598797377e-10)
(0 2.072646097e-10 -2.341719749e-10)
(0 2.243418869e-10 -1.90751385e-10)
(0 2.722656184e-10 -1.235976851e-10)
(0 9.421602367e-12 -2.733318897e-24)
(0 1.326423908e-11 5.286744355e-12)
(0 5.871715287e-12 1.392036463e-12)
(0 3.546492549e-12 1.17280569e-12)
(0 2.852221622e-12 1.505752918e-12)
(0 2.582448239e-12 1.93481477e-12)
(0 2.435611493e-12 2.261193761e-12)
(0 2.323338783e-12 2.413424485e-12)
(0 2.251370116e-12 2.42221371e-12)
(0 2.284177327e-12 2.2982929e-12)