/*--------------------------------*- C++ -*----------------------------------*\
  =========                 |
  \\      /  F ield         | OpenFOAM: The Open Source CFD Toolbox
   \\    /   O peration     | Website:  https://openfoam.org
    \\  /    A nd           | Version:  6
     \\/     M anipulation  |
\*---------------------------------------------------------------------------*/
FoamFile
{
    version     2.0;
    format      ascii;
    class       surfaceScalarField;
    location    "0.0014";
    object      phi;
}
// * * * * * * * * * * * * * * * * * * * * * * * * * * * * * * * * * * * * * //

dimensions      [0 3 -1 0 0 0 0];

internalField   nonuniform List<scalar> 
114720
(
3.682492e-19
-5.293487673e-23
3.701228806e-19
-1.653814943e-22
3.719950919e-19
-2.88033959e-22
3.739315656e-19
-4.088587039e-22
3.758785352e-19
-5.281847737e-22
3.778401475e-19
-6.455297844e-22
3.798203511e-19
-7.608618574e-22
3.818230618e-19
-8.735122563e-22
3.838518777e-19
-9.833365234e-22
3.859104233e-19
-1.089558423e-21
3.880018873e-19
-1.191947913e-21
3.901292368e-19
-1.28962875e-21
3.922946567e-19
-1.382283126e-21
3.944996982e-19
-1.468933266e-21
3.967446792e-19
-1.549169574e-21
3.990288467e-19
-1.621901186e-21
4.013498164e-19
-1.686615288e-21
4.03703836e-19
-1.742083659e-21
4.060853244e-19
-1.787651215e-21
4.084872123e-19
-1.821915682e-21
4.109004859e-19
-1.844057521e-21
4.13314506e-19
-1.852493457e-21
4.15716506e-19
-1.846247455e-21
4.180919208e-19
-1.823564917e-21
4.204239469e-19
-1.783311499e-21
4.226940106e-19
-1.723530234e-21
4.248814182e-19
-1.642883189e-21
4.269638491e-19
-1.539183111e-21
4.28916917e-19
-1.410902867e-21
4.307145331e-19
-1.255695506e-21
4.323283554e-19
-1.071956701e-21
4.33728181e-19
-8.572910552e-22
4.348815191e-19
-6.10103834e-22
4.357541929e-19
-3.280068538e-22
4.363100564e-19
-9.466036413e-24
4.365116673e-19
3.478024105e-22
4.363199512e-19
7.450826337e-22
4.356948316e-19
1.184269049e-21
4.345949079e-19
1.666045324e-21
4.329782437e-19
2.191554243e-21
4.308023043e-19
2.760545843e-21
4.280250804e-19
3.373129808e-21
4.246053283e-19
4.027869166e-21
4.205039664e-19
4.723568297e-21
4.156844983e-19
5.457267288e-21
4.10114573e-19
6.226045883e-21
4.037664916e-19
7.024919978e-21
3.966188467e-19
7.848707018e-21
3.886570463e-19
8.689882868e-21
3.79874993e-19
9.540576113e-21
3.702756415e-19
1.039044335e-20
3.598727959e-19
1.122883641e-20
3.486917681e-19
1.204270375e-20
3.367712522e-19
1.281892724e-20
3.241638251e-19
1.354221948e-20
3.109374153e-19
1.41976085e-20
2.971750528e-19
1.476832651e-20
2.82975466e-19
1.523847614e-20
2.684519326e-19
1.559096852e-20
2.537322157e-19
1.581043827e-20
2.389568789e-19
1.588125113e-20
2.242787731e-19
1.579061668e-20
2.098606214e-19
1.552653281e-20
1.958735116e-19
1.508091756e-20
1.824931812e-19
1.444732786e-20
1.698973654e-19
1.362400985e-20
1.582612973e-19
1.261136586e-20
1.477549857e-19
1.141492647e-20
1.385391139e-19
1.004255013e-20
1.307630716e-19
8.507223447e-21
1.24561469e-19
6.823851961e-21
1.200527077e-19
5.01173196e-21
1.173359114e-19
3.090866038e-21
1.164902853e-19
1.084153215e-21
1.175732907e-19
-9.865659588e-22
1.206219281e-19
-3.098343584e-21
1.256530986e-19
-5.231078551e-21
1.326671126e-19
-7.365194314e-21
1.41649732e-19
-9.485470175e-21
1.52576756e-19
-1.157850174e-20
1.654163371e-19
-1.363627256e-20
1.80133322e-19
-1.565319841e-20
1.966908246e-19
-1.762912488e-20
2.15053611e-19
-1.956567333e-20
2.351884166e-19
-2.1468464e-20
2.570658651e-19
-2.334282516e-20
2.806589248e-19
-2.519552677e-20
3.059426047e-19
-2.703037423e-20
3.328897705e-19
-2.885003312e-20
3.614680607e-19
-3.065209274e-20
3.916330616e-19
-3.243138872e-20
4.233231539e-19
-3.417683347e-20
4.564514578e-19
-3.587435463e-20
4.909003364e-19
-3.75045471e-20
5.265137163e-19
-3.904619519e-20
5.630923755e-19
-4.047466199e-20
6.003871996e-19
-4.176575776e-20
6.380954021e-19
-4.289451771e-20
6.758546285e-19
-4.383890162e-20
7.132397164e-19
-4.457841762e-20
7.49756774e-19
-4.509707329e-20
7.848388084e-19
-4.538146122e-20
8.178377513e-19
-4.542271682e-20
8.480175746e-19
-4.521406248e-20
8.745449351e-19
-4.475194469e-20
8.964829375e-19
-4.403328331e-20
9.127845497e-19
-4.305602103e-20
9.222893593e-19
-4.181625112e-20
9.237183086e-19
-4.030835317e-20
9.156701048e-19
-3.852240813e-20
8.96616487e-19
-3.64444704e-20
8.649012317e-19
-3.405471731e-20
8.187413708e-19
-3.132774273e-20
7.56234241e-19
-2.823190296e-20
6.75376666e-19
-2.472944353e-20
5.740965193e-19
-2.077836786e-20
4.502126386e-19
-1.633075892e-20
3.003769896e-19
-1.134336999e-20
1.137101278e-19
-5.784663688e-21
6.907094634e-21
9.743596122e-33
6.892715901e-21
9.526716093e-24
6.867574038e-21
1.90029106e-23
6.832992972e-21
2.831863214e-23
6.789878359e-21
3.747280162e-23
6.73877765e-21
4.635236914e-23
6.680096932e-21
5.496054855e-23
6.614039997e-21
6.319820799e-23
6.540813362e-21
7.107099877e-23
6.460586639e-21
7.849312022e-23
6.373648973e-21
8.547569849e-23
6.280322464e-21
9.194873888e-23
6.18105791e-21
9.793090602e-23
6.076325455e-21
1.03368026e-22
5.966682665e-21
1.082868164e-22
5.852668048e-21
1.126481067e-22
5.734863698e-21
1.164863714e-22
5.613804521e-21
1.197757814e-22
5.490043624e-21
1.225574053e-22
5.364077338e-21
1.24816587e-22
5.236410935e-21
1.265991894e-22
5.107493464e-21
1.278994504e-22
4.977779429e-21
1.287661819e-22
4.847669247e-21
1.292001682e-22
4.717565256e-21
1.29251478e-22
4.587816778e-21
1.28925336e-22
4.458771324e-21
1.282714163e-22
4.330724316e-21
1.272976115e-22
4.203966677e-21
1.260518723e-22
4.078739293e-21
1.245431775e-22
3.955277413e-21
1.22816799e-22
3.833769498e-21
1.208816448e-22
3.714398636e-21
1.187795293e-22
3.59730507e-21
1.165185387e-22
3.482624717e-21
1.14136609e-22
3.370454933e-21
1.116404168e-22
3.260890092e-21
1.090639091e-22
3.153990268e-21
1.064120695e-22
3.049814073e-21
1.037148158e-22
2.948389865e-21
1.009753988e-22
2.849746058e-21
9.821987273e-23
2.753884677e-21
9.544973241e-23
2.660809205e-21
9.26874883e-23
2.570500309e-21
8.993300282e-23
2.482941448e-21
8.7205515e-23
2.398096457e-21
8.450348399e-23
2.315933131e-21
8.184323132e-23
2.236402527e-21
7.922197077e-23
2.159460597e-21
7.665351259e-23
2.085049084e-21
7.413403826e-23
2.013115407e-21
7.167515179e-23
1.943594927e-21
6.927225114e-23
1.876429266e-21
6.693505964e-23
1.81154985e-21
6.465834314e-23
1.748894753e-21
6.245027789e-23
1.688393427e-21
6.03051683e-23
1.62998225e-21
5.822987085e-23
1.573590258e-21
5.62184119e-23
1.51915357e-21
5.427655791e-23
1.466602045e-21
5.239815189e-23
1.415872633e-21
5.058809731e-23
1.36689692e-21
4.884015825e-23
1.319613547e-21
4.715851104e-23
1.273956508e-21
4.553695465e-23
1.229866757e-21
4.39790772e-23
1.187281189e-21
4.247875764e-23
1.146143458e-21
4.103913539e-23
1.106393625e-21
3.96542237e-23
1.067978302e-21
3.832677904e-23
1.030840903e-21
3.705101144e-23
9.949311956e-22
3.582936708e-23
9.601960799e-22
3.465626655e-23
9.265885104e-22
3.353392771e-23
8.94058776e-22
3.245700722e-23
8.625629109e-22
3.142751698e-23
8.320545024e-22
3.044037902e-23
8.024926865e-22
2.949742905e-23
7.73834409e-22
2.859385111e-23
7.460418555e-22
2.773135596e-23
7.190750527e-22
2.690540456e-23
6.928988269e-22
2.611758338e-23
6.674759235e-22
2.536363527e-23
6.427737596e-22
2.464501841e-23
6.187580592e-22
2.39577408e-23
5.953990552e-22
2.330317525e-23
5.726652036e-22
2.267762317e-23
5.505287432e-22
2.208237731e-23
5.289599044e-22
2.151401625e-23
5.079326031e-22
2.097370498e-23
4.874194735e-22
2.045825453e-23
4.673970879e-22
1.996874758e-23
4.478406884e-22
1.950229661e-23
4.287283972e-22
1.905993436e-23
4.100364142e-22
1.863903815e-23
3.917437607e-22
1.824048986e-23
3.738286083e-22
1.786186051e-23
3.562724052e-22
1.750395491e-23
3.390554333e-22
1.716465546e-23
3.221598116e-22
1.684472901e-23
3.055659622e-22
1.654227726e-23
2.892567273e-22
1.625787763e-23
2.732148906e-22
1.598980065e-23
2.574259353e-22
1.573858343e-23
2.418740982e-22
1.550283017e-23
2.265441418e-22
1.528303964e-23
2.114191453e-22
1.507796492e-23
1.964840253e-22
1.488787917e-23
1.817242029e-22
1.471169348e-23
1.671274032e-22
1.454967528e-23
1.526810694e-22
1.440099814e-23
1.383732444e-22
1.426587312e-23
1.241896043e-22
1.414377493e-23
1.10113847e-22
1.403492479e-23
9.612844869e-23
1.393854413e-23
8.222401188e-23
1.385476181e-23
6.839490326e-23
1.378195567e-23
5.464113887e-23
1.372263636e-23
4.09426742e-23
1.367431097e-23
2.728202846e-23
1.364070722e-23
1.362456358e-23
1.361398431e-23
1.360547056e-23
3.676066168e-19
-1.136072902e-22
3.694639336e-19
-3.452201556e-22
3.713432331e-19
-5.827616961e-22
3.732798338e-19
-8.217212342e-22
3.752281868e-19
-1.058959966e-21
3.77191153e-19
-1.293419278e-21
3.791733366e-19
-1.523754612e-21
3.811781052e-19
-1.749391033e-21
3.832097903e-19
-1.969039005e-21
3.852714544e-19
-2.1820527e-21
3.873670344e-19
-2.387001903e-21
3.894989176e-19
-2.583094865e-21
3.916700498e-19
-2.768719019e-21
3.9388139e-19
-2.9429053e-21
3.961340399e-19
-3.10384154e-21
3.984266443e-19
-3.250363987e-21
4.007576414e-19
-3.380422539e-21
4.031226837e-19
-3.492603862e-21
4.055170502e-19
-3.584549335e-21
4.079330684e-19
-3.654524634e-21
4.103626049e-19
-3.699813829e-21
4.127943936e-19
-3.718352325e-21
4.152165682e-19
-3.707085236e-21
4.176139257e-19
-3.663633928e-21
4.199706152e-19
-3.58458217e-21
4.222674297e-19
-3.467170997e-21
4.244846579e-19
-3.307536302e-21
4.265992998e-19
-3.102490569e-21
4.285879155e-19
-2.847763512e-21
4.304236386e-19
-2.539883791e-21
4.320790331e-19
-2.174384184e-21
4.335230438e-19
-1.747718701e-21
4.347240748e-19
-1.255375615e-21
4.356470213e-19
-6.938344323e-22
4.36256562e-19
-5.865306591e-23
4.365141378e-19
6.5344288e-22
4.3638131e-19
1.446434921e-21
4.358166117e-19
2.322779244e-21
4.347790663e-19
3.285314498e-21
4.332251e-19
4.334981218e-21
4.311124446e-19
5.472842866e-21
4.283972356e-19
6.697768366e-21
4.250383152e-19
8.008521066e-21
4.209944515e-19
9.40131876e-21
4.162289514e-19
1.087191245e-20
4.107069198e-19
1.24129851e-20
4.044001328e-19
1.40162524e-20
3.972842739e-19
1.566977936e-20
3.893440145e-19
1.736022095e-20
3.805701742e-19
1.907017769e-20
3.709650115e-19
2.078069079e-20
3.605393404e-19
2.246869827e-20
3.493180799e-19
2.41098162e-20
3.37337257e-19
2.567587577e-20
3.246495623e-19
2.713795045e-20
3.113207763e-19
2.846393941e-20
2.974347855e-19
2.962185708e-20
2.830889907e-19
3.057753427e-20
2.683986442e-19
3.129830123e-20
2.534913962e-19
3.175092054e-20
2.38511231e-19
3.190568674e-20
2.236122644e-19
3.173446261e-20
2.089620286e-19
3.121491602e-20
1.94733991e-19
3.0328315e-20
1.811096882e-19
2.906359843e-20
1.68269902e-19
2.741475844e-20
1.563961953e-19
2.538469199e-20
1.456618022e-19
2.298216723e-20
1.362336678e-19
2.022537233e-20
1.282638249e-19
1.713826248e-20
1.218921398e-19
1.375348652e-20
1.172380723e-19
1.010784281e-20
1.144040642e-19
6.244451757e-21
1.134681157e-19
2.207480428e-21
1.144887159e-19
-1.956064244e-21
1.174993882e-19
-6.201820971e-21
1.225160046e-19
-1.048619114e-20
1.295335306e-19
-1.477166925e-20
1.3853514e-19
-1.902466982e-20
1.494900859e-19
-2.322048342e-20
1.623632701e-19
-2.734051889e-20
1.771130421e-19
-3.137635737e-20
1.937001685e-19
-3.532578489e-20
2.120847483e-19
-3.919532631e-20
2.322337699e-19
-4.299476291e-20
2.541163723e-19
-4.673826671e-20
2.777090985e-19
-5.043807559e-20
3.029886699e-19
-5.410523275e-20
3.299341549e-19
-5.774363579e-20
3.58516897e-19
-6.13514744e-20
3.886997425e-19
-6.491653705e-20
4.204250573e-19
-6.84188991e-20
4.536125009e-19
-7.182785678e-20
4.881469705e-19
-7.510599665e-20
5.238765905e-19
-7.820777344e-20
5.606018686e-19
-8.108475474e-20
5.980745907e-19
-8.368535909e-20
6.359885297e-19
-8.596043194e-20
6.739791827e-19
-8.786310158e-20
7.116156867e-19
-8.935344129e-20
7.484003069e-19
-9.039736105e-20
7.837597107e-19
-9.096952507e-20
8.170419058e-19
-9.10508533e-20
8.475053051e-19
-9.062968447e-20
8.743136935e-19
-8.96982066e-20
8.965262567e-19
-8.825231023e-20
9.130947758e-19
-8.62874513e-20
9.228569231e-19
-8.379765334e-20
9.245340118e-19
-8.077132596e-20
9.167241422e-19
-7.71901718e-20
8.978997826e-19
-7.302601774e-20
8.664042696e-19
-6.824039333e-20
8.20453886e-19
-6.278283156e-20
7.58143942e-19
-5.659128286e-20
6.774647515e-19
-4.959285475e-20
5.763349541e-19
-4.17059771e-20
4.525301349e-19
-3.284859866e-20
3.026964589e-19
-2.294754354e-20
1.149271908e-19
-1.200893044e-20
6.916620935e-21
9.811015026e-33
6.902191683e-21
1.909227673e-23
6.876889345e-21
3.804332633e-23
6.842146731e-21
5.677315583e-23
6.798757521e-21
7.509654746e-23
6.747385422e-21
9.295356145e-23
6.68833419e-21
1.101865359e-22
6.621912395e-21
1.267481295e-22
6.548235086e-21
1.425025509e-22
6.467568829e-21
1.574167738e-22
6.380121636e-21
1.713809638e-22
6.286304248e-21
1.843807969e-22
6.186494659e-21
1.963342301e-22
6.081243887e-21
2.072471293e-22
5.971043591e-21
2.170646378e-22
5.856505961e-21
2.258125425e-22
5.738152771e-21
2.334611101e-22
5.6165858e-21
2.400538143e-22
5.492302476e-21
2.455826835e-22
5.365859626e-21
2.501054718e-22
5.237710874e-21
2.536315638e-22
5.108359889e-21
2.56229191e-22
4.978213124e-21
2.579206481e-22
4.847720258e-21
2.587805801e-22
4.717238831e-21
2.588400937e-22
4.587162591e-21
2.581766129e-22
4.457797244e-21
2.56826126e-22
4.329478317e-21
2.548658269e-22
4.202457737e-21
2.523333974e-22
4.077012662e-21
2.493031257e-22
3.953342022e-21
2.458120234e-22
3.83166716e-21
2.419295952e-22
3.712137416e-21
2.376902321e-22
3.594922924e-21
2.33157543e-22
3.480128322e-21
2.283621062e-22
3.367878216e-21
2.233608163e-22
3.258238057e-21
2.181798975e-22
3.151292831e-21
2.128692934e-22
3.047074467e-21
2.074504997e-22
2.945634162e-21
2.019667382e-22
2.846975753e-21
1.964348306e-22
2.751122262e-21
1.90891521e-22
2.65805456e-21
1.853493364e-22
2.567772672e-21
1.79839062e-22
2.480239263e-21
1.743692291e-22
2.395436061e-21
1.68965375e-22
2.313311736e-21
1.636325122e-22
2.23383393e-21
1.583914801e-22
2.156940993e-21
1.532443685e-22
2.082590077e-21
1.482079613e-22
2.010712382e-21
1.432818343e-22
1.941257619e-21
1.38479411e-22
1.874152441e-21
1.337982191e-22
1.809341672e-21
1.292488038e-22
1.746749539e-21
1.248271436e-22
1.686318032e-21
1.205414081e-22
1.62797069e-21
1.1638633e-22
1.57164831e-21
1.123682128e-22
1.517275076e-21
1.084808675e-22
1.464791899e-21
1.047290471e-22
1.414124609e-21
1.011059756e-22
1.365215194e-21
9.761517485e-23
1.317991908e-21
9.424945115e-23
1.272398555e-21
9.101141789e-23
1.228366366e-21
8.789365203e-23
1.185841493e-21
8.489802823e-23
1.144758478e-21
8.201709662e-23
1.105066116e-21
7.92521698e-23
1.066702468e-21
7.659584081e-23
1.029619197e-21
7.404904372e-23
9.937580375e-22
7.160450736e-23
9.590736815e-22
6.926285977e-23
9.255115344e-22
6.701708245e-23
8.93029234e-22
6.486758542e-23
8.615757194e-22
6.28076146e-23
8.311115026e-22
6.083745693e-23
8.015890622e-22
5.895065634e-23
7.729718657e-22
5.714739376e-23
7.452158595e-22
5.542158108e-23
7.1828719e-22
5.377333669e-23
6.921448357e-22
5.219692363e-23
6.667572667e-22
5.069243601e-23
6.420864449e-22
4.92544791e-23
6.181034551e-22
4.788310782e-23
5.947734675e-22
4.657332328e-23
5.720699247e-22
4.532518494e-23
5.499603478e-22
4.413407587e-23
5.284195615e-22
4.300005899e-23
5.074171234e-22
4.191883747e-23
4.869299361e-22
4.089042329e-23
4.669306089e-22
3.991089537e-23
4.473983004e-22
3.898029889e-23
4.283074742e-22
3.809510749e-23
4.096378413e-22
3.72553645e-23
3.91365109e-22
3.645780991e-23
3.734706792e-22
3.570240104e-23
3.559330844e-22
3.498623307e-23
3.387354875e-22
3.43093245e-23
3.218573395e-22
3.366915186e-23
3.052815443e-22
3.306568678e-23
2.889886339e-22
3.249659307e-23
2.72963656e-22
3.196173887e-23
2.571901666e-22
3.145915345e-23
2.416542941e-22
3.098880598e-23
2.263390526e-22
3.054906817e-23
2.112290469e-22
3.013979973e-23
1.963078287e-22
2.975947803e-23
1.815621729e-22
2.940787579e-23
1.669787161e-22
2.908383646e-23
1.525459361e-22
2.878721523e-23
1.382511371e-22
2.8517121e-23
1.240807467e-22
2.82733879e-23
1.100174605e-22
2.805539241e-23
9.604465976e-23
2.786294338e-23
8.215120081e-23
2.769488835e-23
6.833558068e-23
2.755144667e-23
5.459280938e-23
2.743135093e-23
4.0909068e-23
2.73367215e-23
2.725530473e-23
2.726507553e-23
1.36160482e-23
2.72214343e-23
2.719359634e-23
3.668801374e-19
-1.745547959e-22
3.687314981e-19
-5.264829549e-22
3.706084237e-19
-8.825777844e-22
3.725457715e-19
-1.239500947e-21
3.744959826e-19
-1.594727055e-21
3.764621992e-19
-1.946035945e-21
3.784481766e-19
-2.29195612e-21
3.804580325e-19
-2.630797498e-21
3.824954343e-19
-2.961252506e-21
3.845643062e-19
-3.281597378e-21
3.866679347e-19
-3.590390056e-21
3.888096083e-19
-3.885699131e-21
3.909916162e-19
-4.165851991e-21
3.932158423e-19
-4.42865291e-21
3.954827258e-19
-4.672150986e-21
3.977918816e-19
-4.893841514e-21
4.001410966e-19
-5.091437727e-21
4.025270545e-19
-5.262037586e-21
4.049443957e-19
-5.40291021e-21
4.073865196e-19
-5.510655006e-21
4.098446299e-19
-5.582035017e-21
4.123085469e-19
-5.613135426e-21
4.147657195e-19
-5.600229629e-21
4.172020817e-19
-5.538895165e-21
4.196011156e-19
-5.424865779e-21
4.219448202e-19
-5.253103181e-21
4.242127954e-19
-5.018688279e-21
4.263832254e-19
-4.715917327e-21
4.284318547e-19
-4.339295412e-21
4.303329101e-19
-3.882662475e-21
4.320580049e-19
-3.340227404e-21
4.335771323e-19
-2.705641809e-21
4.348576533e-19
-1.973019657e-21
4.358654464e-19
-1.135976957e-21
4.36563943e-19
-1.887351821e-22
4.369153247e-19
8.747561154e-22
4.36879511e-19
2.059553578e-21
4.364154109e-19
3.370535077e-21
4.354799821e-19
4.811065715e-21
4.340297163e-19
6.383870796e-21
4.320199261e-19
8.089719641e-21
4.294065327e-19
9.928357229e-21
4.261455517e-19
1.189711963e-20
4.221951231e-19
1.399181551e-20
4.175151458e-19
1.620518051e-20
4.120695395e-19
1.852768431e-20
4.058260295e-19
2.094588132e-20
3.987586238e-19
2.344326989e-20
3.908474995e-19
2.599869794e-20
3.820816363e-19
2.858743799e-20
3.724587535e-19
3.11797804e-20
3.619880978e-19
3.374241295e-20
3.506904207e-19
3.623723338e-20
3.386008333e-19
3.862303079e-20
3.257685743e-19
4.085448074e-20
3.122595152e-19
4.288412267e-20
2.981552312e-19
4.466159573e-20
2.835547712e-19
4.613604416e-20
2.68572871e-19
4.725577417e-20
2.533410548e-19
4.797122785e-20
2.380051162e-19
4.823504426e-20
2.227255108e-19
4.800537215e-20
2.076737865e-19
4.724591985e-20
1.930317705e-19
4.592912168e-20
1.789865752e-19
4.403577721e-20
1.657286354e-19
4.155783877e-20
1.534458995e-19
3.849755e-20
1.423217044e-19
3.486977833e-20
1.325291512e-19
3.070046136e-20
1.242294806e-19
2.60281088e-20
1.175668866e-19
2.090109362e-20
1.126674316e-19
1.537793679e-20
1.096345264e-19
9.523331571e-21
1.085490355e-19
3.407451635e-21
1.094664827e-19
-2.898718476e-21
1.124194516e-19
-9.324365016e-21
1.174172592e-19
-1.580355993e-20
1.244507067e-19
-2.227605697e-20
1.3349364e-19
-2.869167822e-20
1.445090264e-19
-3.501051631e-20
1.574512657e-19
-4.120634265e-20
1.722724809e-19
-4.726531123e-20
1.88924526e-19
-5.318732934e-20
2.073643654e-19
-5.898238765e-20
2.275545588e-19
-6.466947432e-20
2.49466418e-19
-7.027085185e-20
2.730777382e-19
-7.580955042e-20
2.983726879e-19
-8.130316162e-20
3.253361375e-19
-8.676168008e-20
3.539501181e-19
-9.218250518e-20
3.841852425e-19
-9.754996292e-20
4.159948671e-19
-1.028325292e-19
4.493053202e-19
-1.079847072e-19
4.84009719e-19
-1.129468608e-19
5.199588914e-19
-1.176495116e-19
5.569563572e-19
-1.220154583e-19
5.947509829e-19
-1.259655843e-19
6.330336655e-19
-1.294218472e-19
6.7143184e-19
-1.32312778e-19
7.095073836e-19
-1.345753927e-19
7.46751669e-19
-1.361586526e-19
7.825824216e-19
-1.37023097e-19
8.163366284e-19
-1.371416195e-19
8.472644726e-19
-1.364968145e-19
8.745205334e-19
-1.350795288e-19
8.971579337e-19
-1.328846107e-19
9.141220944e-19
-1.299080482e-19
9.242473122e-19
-1.261419992e-19
9.26251206e-19
-1.215714773e-19
9.187300325e-19
-1.161699298e-19
9.00153329e-19
-1.09896915e-19
8.688616673e-19
-1.026954429e-19
8.230662641e-19
-9.449126633e-20
7.608541132e-19
-8.519263105e-20
6.802010681e-19
-7.469174165e-20
5.789954332e-19
-6.286972306e-20
4.549595484e-19
-4.960030582e-20
3.046205767e-19
-3.477167739e-20
1.157029745e-19
-1.827892252e-20
6.935713626e-21
1.004461335e-32
6.921143149e-21
2.877509326e-23
6.895619585e-21
5.737711071e-23
6.860470532e-21
8.557908184e-23
6.816614949e-21
1.132242421e-22
6.764618795e-21
1.40112867e-22
6.704896184e-21
1.661096948e-22
6.637667222e-21
1.910412604e-22
6.563149693e-21
2.147961851e-22
6.481533407e-21
2.372333869e-22
6.393121863e-21
2.582724799e-22
6.298258048e-21
2.778098844e-22
6.197407929e-21
2.957999906e-22
6.091061774e-21
3.121779246e-22
5.979791841e-21
3.26932787e-22
5.864154879e-21
3.400367059e-22
5.744745834e-21
3.515107408e-22
5.622114992e-21
3.613595863e-22
5.496825594e-21
3.696315737e-22
5.369386055e-21
3.763581389e-22
5.2403088e-21
3.816086963e-22
5.110051653e-21
3.854351575e-22
4.97907337e-21
3.879217348e-22
4.847780047e-21
3.891341925e-22
4.716575633e-21
3.891657302e-22
4.585812395e-21
3.880900369e-22
4.455837197e-21
3.860037181e-22
4.326946147e-21
3.82983475e-22
4.199427733e-21
3.791248413e-22
4.07352179e-21
3.745031954e-22
3.949459831e-21
3.692097472e-22
3.827428041e-21
3.633154744e-22
3.707604935e-21
3.569046158e-22
3.590127703e-21
3.500418609e-22
3.475127254e-21
3.428029535e-22
3.362697486e-21
3.352448723e-22
3.252927648e-21
3.274343039e-22
3.145874239e-21
3.194199858e-22
3.041590876e-21
3.112592188e-22
2.940102431e-21
3.029926783e-22
2.841432626e-21
2.946685803e-22
2.745580231e-21
2.863197482e-22
2.652544446e-21
2.779860846e-22
2.562303004e-21
2.696931889e-22
2.474835547e-21
2.614732861e-22
2.390103342e-21
2.53345674e-22
2.308070852e-21
2.45335786e-22
2.228686943e-21
2.374573063e-22
2.151904715e-21
2.297299256e-22
2.077664083e-21
2.221625482e-22
2.005910071e-21
2.147698746e-22
1.936576544e-21
2.075569503e-22
1.869603145e-21
2.005343093e-22
1.804920113e-21
1.937037495e-22
1.742463909e-21
1.870724983e-22
1.682163062e-21
1.806397579e-22
1.623952663e-21
1.744100021e-22
1.567761059e-21
1.683805102e-22
1.513523353e-21
1.625535734e-22
1.461168909e-21
1.569249391e-22
1.410633893e-21
1.514952924e-22
1.361849557e-21
1.462592571e-22
1.314753948e-21
1.412162303e-22
1.269280865e-21
1.363601346e-22
1.225370821e-21
1.316894155e-22
1.182960628e-21
1.271974945e-22
1.14199362e-21
1.228822136e-22
1.102409858e-21
1.187367137e-22
1.064155731e-21
1.147583767e-22
1.027174723e-21
1.109403027e-22
9.914164537e-22
1.072795849e-22
9.568279575e-22
1.037693581e-22
9.233620929e-22
1.004066253e-22
8.909693206e-22
9.718466077e-23
8.596056096e-22
9.410041729e-23
8.29224752e-22
9.114743413e-23
7.997858511e-22
8.83226848e-23
7.71246096e-22
8.561997977e-23
7.435676598e-22
8.303642612e-23
7.167108232e-22
8.056614988e-23
6.906403864e-22
7.820637827e-23
6.653193498e-22
7.595160805e-23
6.40715115e-22
7.379919575e-23
6.167937048e-22
7.174397917e-23
5.935253648e-22
6.978352126e-23
5.708788526e-22
6.791303413e-23
5.488263613e-22
6.613026125e-23
5.273383717e-22
6.443079589e-23
5.063887421e-22
6.28125135e-23
4.859504349e-22
6.127132628e-23
4.660000405e-22
5.980531214e-23
4.465131381e-22
5.841076545e-23
4.274677546e-22
5.708595779e-23
4.088403113e-22
5.582753273e-23
3.906097257e-22
5.463384965e-23
3.727545315e-22
5.350182133e-23
3.552561972e-22
5.242999633e-23
3.380953372e-22
5.141566662e-23
3.212538917e-22
5.045755781e-23
3.047124689e-22
4.955323912e-23
2.88453799e-22
4.870145703e-23
2.72461085e-22
4.790000832e-23
2.567198346e-22
4.714783626e-23
2.412145726e-22
4.644311422e-23
2.259297959e-22
4.57849296e-23
2.108487379e-22
4.517164765e-23
1.9595624e-22
4.460232575e-23
1.812381427e-22
4.407554026e-23
1.666821049e-22
4.359055335e-23
1.522758527e-22
4.314625299e-23
1.380074106e-22
4.274198363e-23
1.238627586e-22
4.237688193e-23
1.098250198e-22
4.205044945e-23
9.587660883e-23
4.176183402e-23
8.200776407e-23
4.151056022e-23
6.821549069e-23
4.129526232e-23
5.449818157e-23
4.111715285e-23
4.083742449e-23
4.097417739e-23
2.721166676e-23
4.086980473e-23
1.358820942e-23
4.07943941e-23
4.076403465e-23
3.660936973e-19
-2.359545678e-22
3.679410773e-19
-7.098721545e-22
3.698164839e-19
-1.186118881e-21
3.717545505e-19
-1.662511209e-21
3.737076676e-19
-2.136406618e-21
3.756783023e-19
-2.605577961e-21
3.776703947e-19
-3.067762521e-21
3.796876864e-19
-3.521050579e-21
3.817342666e-19
-3.963298007e-21
3.83813807e-19
-4.392550835e-21
3.859301003e-19
-4.80650164e-21
3.880862111e-19
-5.202959501e-21
3.902849707e-19
-5.579318219e-21
3.92528055e-19
-5.933055692e-21
3.948164765e-19
-6.261198032e-21
3.971496698e-19
-6.560821503e-21
3.995260559e-19
-6.828490225e-21
4.019421846e-19
-7.060757508e-21
4.043933851e-19
-7.2535863e-21
4.068729337e-19
-7.40288383e-21
4.093727353e-19
-7.503936203e-21
4.118824682e-19
-7.551981101e-21
4.143903043e-19
-7.54162689e-21
4.168820678e-19
-7.467418534e-21
4.193420369e-19
-7.323200173e-21
4.217521351e-19
-7.102684367e-21
4.240927685e-19
-6.798822374e-21
4.263419565e-19
-6.404457723e-21
4.284761309e-19
-5.911762467e-21
4.304691905e-19
-5.312964071e-21
4.322933176e-19
-4.599772725e-21
4.339180681e-19
-3.764093607e-21
4.353112902e-19
-2.797406068e-21
4.364382589e-19
-1.691509994e-21
4.372626445e-19
-4.379756635e-22
4.377456153e-19
9.709507694e-22
4.37846854e-19
2.542777117e-21
4.37523707e-19
4.283736599e-21
4.367323953e-19
6.199213052e-21
4.354273607e-19
8.292715504e-21
4.335627471e-19
1.056635732e-20
4.310919286e-19
1.301979924e-20
4.279692078e-19
1.565067633e-20
4.241494757e-19
1.845337746e-20
4.195901448e-19
2.141934955e-20
4.142510112e-19
2.453572409e-20
4.080964917e-19
2.778559394e-20
4.010957137e-19
3.114665045e-20
3.932250147e-19
3.459161408e-20
3.844681651e-19
3.808705212e-20
3.748190408e-19
4.159410632e-20
3.642819142e-19
4.506758142e-20
3.528742466e-19
4.845702785e-20
3.406269351e-19
5.170613042e-20
3.275869999e-19
5.475416181e-20
3.13817427e-19
5.75357221e-20
2.993993403e-19
5.998269223e-20
2.844310913e-19
6.202451172e-20
2.690297117e-19
6.359084605e-20
2.533291688e-19
6.461252753e-20
2.374810156e-19
6.502485023e-20
2.216515915e-19
6.47688363e-20
2.060214811e-19
6.379462574e-20
1.907812398e-19
6.206248948e-20
1.761294433e-19
5.95458437e-20
1.622671341e-19
5.623171938e-20
1.49395095e-19
5.212322189e-20
1.377079037e-19
4.723924487e-20
1.273912725e-19
4.161600026e-20
1.186163005e-19
3.530541822e-20
1.115372055e-19
2.837513113e-20
1.062860885e-19
2.090512563e-20
1.029716221e-19
1.298609156e-20
1.016752978e-19
4.714687618e-21
1.024522539e-19
-3.809054344e-21
1.053300754e-19
-1.248702849e-20
1.103123347e-19
-2.122585403e-20
1.173798878e-19
-2.994213002e-20
1.264965472e-19
-3.856486135e-20
1.376120525e-19
-4.703989143e-20
1.506689511e-19
-5.533084705e-20
1.65606267e-19
-6.342128921e-20
1.823663689e-19
-7.131267167e-20
2.0089778e-19
-7.902303423e-20
2.21160131e-19
-8.658153436e-20
2.431241439e-19
-9.402419905e-20
2.667729277e-19
-1.013864989e-19
2.920979215e-19
-1.086982532e-19
3.190959801e-19
-1.159766371e-19
3.477614448e-19
-1.232225566e-19
3.780798351e-19
-1.304160892e-19
4.100175179e-19
-1.375159378e-19
4.435139503e-19
-1.444585502e-19
4.784711928e-19
-1.511613795e-19
5.14746934e-19
-1.575258569e-19
5.521458391e-19
-1.634438827e-19
5.904148597e-19
-1.688031755e-19
6.292373462e-19
-1.734947322e-19
6.682308578e-19
-1.774178246e-19
7.069433899e-19
-1.804855825e-19
7.448519277e-19
-1.826272326e-19
7.813579817e-19
-1.837901437e-19
8.157836307e-19
-1.839384663e-19
8.473640933e-19
-1.830516146e-19
8.752414583e-19
-1.811199388e-19
8.984573544e-19
-1.781406195e-19
9.159486019e-19
-1.74111627e-19
9.265420948e-19
-1.690264713e-19
9.289502745e-19
-1.62868019e-19
9.217643962e-19
-1.55603897e-19
9.034494518e-19
-1.471820606e-19
8.723399809e-19
-1.375283429e-19
8.266389837e-19
-1.265447711e-19
7.64421001e-19
-1.141097485e-19
6.836405586e-19
-1.000800954e-19
5.82156315e-19
-8.42936703e-20
4.576309634e-19
-6.657912309e-20
3.065342315e-19
-4.675042908e-20
1.164352956e-19
-2.46416851e-20
6.96448872e-21
1.028724081e-32
6.949745171e-21
3.867725671e-23
6.923821554e-21
7.708210303e-23
6.888115693e-21
1.149729601e-22
6.843503583e-21
1.520841777e-22
6.790615615e-21
1.881988479e-22
6.72982775e-21
2.230812872e-22
6.661422161e-21
2.565449043e-22
6.585586883e-21
2.883923658e-22
6.5025725e-21
3.184774382e-22
6.412659285e-21
3.466499815e-22
6.316248138e-21
3.728110286e-22
6.213785863e-21
3.968619736e-22
6.105816656e-21
4.187531534e-22
5.992895741e-21
4.384367026e-22
5.875628914e-21
4.559100906e-22
5.754594701e-21
4.711717409e-22
5.630386958e-21
4.842602908e-22
5.503552159e-21
4.952135798e-22
5.374636636e-21
5.04103628e-22
5.244135238e-21
5.109989441e-22
5.11253823e-21
5.159965772e-22
4.980285851e-21
5.191868873e-22
4.847811561e-21
5.206831302e-22
4.71549994e-21
5.205893935e-22
4.583726099e-21
5.190272828e-22
4.45281693e-21
5.161068789e-22
4.323087513e-21
5.119516824e-22
4.194806109e-21
5.066715956e-22
4.068228319e-21
5.003863666e-22
3.943565558e-21
4.932012514e-22
3.821017203e-21
4.852282992e-22
3.700742159e-21
4.765645053e-22
3.582888796e-21
4.67311872e-22
3.467569193e-21
4.575570452e-22
3.354886898e-21
4.473902526e-22
3.24491333e-21
4.368869998e-22
3.13771349e-21
4.261251959e-22
3.033324317e-21
4.151687314e-22
2.931778333e-21
4.040835895e-22
2.83308381e-21
3.9292241e-22
2.73724655e-21
3.8173967e-22
2.64425155e-21
3.705777484e-22
2.554083116e-21
3.594805781e-22
2.466707919e-21
3.484810807e-22
2.382093454e-21
3.376139855e-22
2.300192387e-21
3.269038904e-22
2.220959548e-21
3.163773345e-22
2.144337338e-21
3.060519395e-22
2.070271422e-21
2.959472486e-22
1.998697133e-21
2.860748596e-22
1.929553903e-21
2.764486183e-22
1.862772597e-21
2.670751456e-22
1.79828885e-21
2.579634662e-22
1.736031168e-21
2.491163214e-22
1.675933317e-21
2.405388363e-22
1.617923161e-21
2.32230563e-22
1.561934122e-21
2.241936684e-22
1.507894728e-21
2.164252331e-22
1.455739253e-21
2.089250242e-22
1.405397858e-21
2.016883807e-22
1.356806539e-21
1.947132461e-22
1.309897844e-21
1.879936086e-22
1.264610146e-21
1.815261776e-22
1.220878907e-21
1.753040074e-22
1.178645339e-21
1.693228621e-22
1.13784812e-21
1.635752981e-22
1.098431528e-21
1.580564465e-22
1.06033765e-21
1.527585365e-22
1.023514005e-21
1.476764014e-22
9.87906233e-22
1.428021527e-22
9.534652184e-22
1.381304389e-22
9.201401284e-22
1.336534997e-22
8.878850826e-22
1.293659473e-22
8.566526207e-22
1.252601913e-22