/*--------------------------------*- C++ -*----------------------------------*\
  =========                 |
  \\      /  F ield         | OpenFOAM: The Open Source CFD Toolbox
   \\    /   O peration     | Website:  https://openfoam.org
    \\  /    A nd           | Version:  6
     \\/     M anipulation  |
\*---------------------------------------------------------------------------*/
FoamFile
{
    version     2.0;
    format      ascii;
    class       volScalarField;
    location    "0.0014";
    object      TRHS;
}
// * * * * * * * * * * * * * * * * * * * * * * * * * * * * * * * * * * * * * //

dimensions      [1 -1 -3 0 0 0 0];

internalField   nonuniform List<scalar> 
57600
(
2.955729855e-09
6.139995483e-09
5.688068503e-09
5.479628906e-09
5.083440762e-09
4.709825643e-09
4.358245036e-09
4.031000478e-09
3.727500148e-09
3.450601963e-09
3.199551792e-09
2.976642854e-09
2.780129627e-09
2.61119633e-09
2.46679493e-09
2.346915672e-09
2.247478503e-09
2.167904483e-09
2.103912011e-09
2.055137604e-09
2.017518976e-09
1.990862083e-09
1.97100663e-09
1.957785534e-09
1.947227749e-09
1.939991093e-09
1.933281636e-09
1.929115632e-09
1.925557927e-09
1.924947504e-09
1.92494508e-09
1.927482904e-09
1.930067864e-09
1.935225907e-09
1.941402072e-09
1.952130465e-09
1.966172496e-09
1.986723682e-09
2.011473443e-09
2.042606897e-09
2.077055063e-09
2.117108333e-09
2.16033308e-09
2.210218601e-09
2.26540664e-09
2.330312834e-09
2.403752627e-09
2.489726343e-09
2.585699139e-09
2.693940689e-09
2.809829651e-09
2.934125843e-09
3.061312874e-09
3.19239334e-09
3.322362842e-09
3.452648172e-09
3.577317284e-09
3.695721362e-09
3.798788314e-09
3.883419094e-09
3.939482377e-09
3.965229564e-09
3.953051842e-09
3.904015282e-09
3.811704007e-09
3.677022923e-09
3.492424288e-09
3.259007095e-09
2.971469069e-09
2.635871555e-09
2.252616897e-09
1.832747977e-09
1.378792418e-09
9.013921353e-10
4.007854746e-10
-1.141736428e-10
-6.435907e-10
-1.176814093e-09
-1.711517153e-09
-2.235372295e-09
-2.747095845e-09
-3.238491657e-09
-3.715190033e-09
-4.176983501e-09
-4.636828458e-09
-5.099648456e-09
-5.58098683e-09
-6.086693797e-09
-6.633423099e-09
-7.230486059e-09
-7.901683977e-09
-8.667811817e-09
-9.567739409e-09
-1.064068593e-08
-1.194681514e-08
-1.355076602e-08
-1.554291082e-08
-1.802441552e-08
-2.112820558e-08
-2.500459336e-08
-2.984169303e-08
-3.585311291e-08
-4.329810788e-08
-5.246902788e-08
-6.37044608e-08
-7.736821666e-08
-9.38526981e-08
-1.135565933e-07
-1.368926146e-07
-1.642721191e-07
-1.961100173e-07
-2.328044977e-07
-2.747297913e-07
-3.22212474e-07
-3.754879992e-07
-4.346625332e-07
-4.999636549e-07
-5.754584272e-07
-6.879700942e-07
-3.945007922e-07
-0.004931657127
0
0
0
0
0
0
0
0
0
0
0
0
0
0
0
0
0
0
0
0
0
0
0
0
0
0
0
0
0
0
0
0
0
0
0
0
0
0
0
0
0
0
0
0
0
0
0
0
0
0
0
0
0
0
0
0
0
0
0
0
0
0
0
0
0
0
0
0
0
0
0
0
0
0
0
0
0
0
0
0
0
0
0
0
0
0
0
0
0
0
0
0
0
0
0
0
0
0
0
0
0
0
0
0
0
0
0
0
0
0
0
0
0
0
0
0
0
0
0
2.898667649e-09
6.029030666e-09
5.689465864e-09
5.465631105e-09
5.079052439e-09
4.706155894e-09
4.357993429e-09
4.029821832e-09
3.729231618e-09
3.451181359e-09
3.203091302e-09
2.979040174e-09
2.785630819e-09
2.615606954e-09
2.474453972e-09
2.353522044e-09
2.257512942e-09
2.177026564e-09
2.11677439e-09
2.067285005e-09
2.033699358e-09
2.006434785e-09
1.99080444e-09
1.97703027e-09
1.970988915e-09
1.963499518e-09
1.961825642e-09
1.957756656e-09
1.95957717e-09
1.959013375e-09
1.964321481e-09
1.966633322e-09
1.974496045e-09
1.979362507e-09
1.990913297e-09
2.001074343e-09
2.01996821e-09
2.038724839e-09
2.06685637e-09
2.094285882e-09
2.130427859e-09
2.165075226e-09
2.208690097e-09
2.25168634e-09
2.305774354e-09
2.361599803e-09
2.431309563e-09
2.504672779e-09
2.593114511e-09
2.68448528e-09
2.788981337e-09
2.892748506e-09
3.005807082e-09
3.114008936e-09
3.228294324e-09
3.334173756e-09
3.442105198e-09
3.53501958e-09
3.621150914e-09
3.680852295e-09
3.722326971e-09
3.726852416e-09
3.705586943e-09
3.641598334e-09
3.547339697e-09
3.404802539e-09
3.225788258e-09
2.991962804e-09
2.717860994e-09
2.389256165e-09
2.026178757e-09
1.618119173e-09
1.186974493e-09
7.212360959e-10
2.411814413e-10
-2.660691831e-10
-7.795576852e-10
-1.310103902e-09
-1.834116462e-09
-2.361084918e-09
-2.868649831e-09
-3.370206329e-09
-3.849607208e-09
-4.326828869e-09
-4.791882605e-09
-5.268613709e-09
-5.749686968e-09
-6.260042968e-09
-6.795008649e-09
-7.383757184e-09
-8.030477215e-09
-8.775892242e-09
-9.640417191e-09
-1.068271599e-08
-1.194573907e-08
-1.35131747e-08
-1.545968445e-08
-1.790477226e-08
-2.096664423e-08
-2.481221094e-08
-2.961526975e-08
-3.560372918e-08
-4.302330037e-08
-5.217901227e-08
-6.339723137e-08
-7.7052942e-08
-9.352716177e-08
-1.132278245e-07
-1.365581631e-07
-1.639386016e-07
-1.957782459e-07
-2.324837214e-07
-2.744315745e-07
-3.219574531e-07
-3.753221838e-07
-4.346502151e-07
-5.00340371e-07
-5.763709469e-07
-6.934800802e-07
-3.988343879e-07
-0.004938459191
0
0
0
0
0
0
0
0
0
0
0
0
0
0
0
0
0
0
0
0
0
0
0
0
0
0
0
0
0
0
0
0
0
0
0
0
0
0
0
0
0
0
0
0
0
0
0
0
0
0
0
0
0
0
0
0
0
0
0
0
0
0
0
0
0
0
0
0
0
0
0
0
0
0
0
0
0
0
0
0
0
0
0
0
0
0
0
0
0
0
0
0
0
0
0
0
0
0
0
0
0
0
0
0
0
0
0
0
0
0
0
0
0
0
0
0
0
0
0
2.886236164e-09
6.002439892e-09
5.662581355e-09
5.450595357e-09
5.067745492e-09
4.700795204e-09
4.352505021e-09
4.028186451e-09
3.726325602e-09
3.451685628e-09
3.202009055e-09
2.981324808e-09
2.786202558e-09
2.619524644e-09
2.476515042e-09
2.358954505e-09
2.261046557e-09
2.184111244e-09
2.122082814e-09
2.076439755e-09
2.041125089e-09
2.017784848e-09
2.000282813e-09
1.990522905e-09
1.982733378e-09
1.979774302e-09
1.97681467e-09
1.977828988e-09
1.97844771e-09
1.982895884e-09
1.98653714e-09
1.993635503e-09
1.999666709e-09
2.00959777e-09
2.019445688e-09
2.034689008e-09
2.051072953e-09
2.073651602e-09
2.097314952e-09
2.126793038e-09
2.156792108e-09
2.19264662e-09
2.229562143e-09
2.273717054e-09
2.320592448e-09
2.376707199e-09
2.437184908e-09
2.508230426e-09
2.583959528e-09
2.669710143e-09
2.758270815e-09
2.854274048e-09
2.949791324e-09
3.049606109e-09
3.14559224e-09
3.242382088e-09
3.330408178e-09
3.412554176e-09
3.476858035e-09
3.525051442e-09
3.544991353e-09
3.540131548e-09
3.500185941e-09
3.430389793e-09
3.320489387e-09
3.175118957e-09
2.982980263e-09
2.749425999e-09
2.465493221e-09
2.140854369e-09
1.770722026e-09
1.367973635e-09
9.286791375e-10
4.652290968e-10
-2.735152848e-11
-5.364964962e-10
-1.065662725e-09
-1.599713778e-09
-2.140044993e-09
-2.671171039e-09
-3.196491797e-09
-3.704693954e-09
-4.204363812e-09
-4.689512098e-09
-5.173003485e-09
-5.652227162e-09
-6.142349619e-09
-6.643533153e-09
-7.174564484e-09
-7.742006271e-09
-8.3734872e-09
-9.088136865e-09
-9.928552126e-09
-1.093260364e-08
-1.216447975e-08
-1.368885591e-08
-1.560114948e-08
-1.800378492e-08
-2.103444918e-08
-2.484406569e-08
-2.962366665e-08
-3.558619175e-08
-4.299270178e-08
-5.213508627e-08
-6.335374823e-08
-7.701229912e-08
-9.350374289e-08
-1.132260015e-07
-1.365927394e-07
-1.640182012e-07
-1.95922459e-07
-2.327120007e-07
-2.747762941e-07
-3.224650875e-07
-3.760621215e-07
-4.357568576e-07
-5.019938536e-07
-5.789560912e-07
-6.977430735e-07
-4.015709971e-07
-0.004952091053
0
0
0
0
0
0
0
0
0
0
0
0
0
0
0
0
0
0
0
0
0
0
0
0
0
0
0
0
0
0
0
0
0
0
0
0
0
0
0
0
0
0
0
0
0
0
0
0
0
0
0
0
0
0
0
0
0
0
0
0
0
0
0
0
0
0
0
0
0
0
0
0
0
0
0
0
0
0
0
0
0
0
0
0
0
0
0
0
0
0
0
0
0
0
0
0
0
0
0
0
0
0
0
0
0
0
0
0
0
0
0
0
0
0
0
0
0
0
0
2.877014151e-09
5.980428967e-09
5.643687554e-09
5.434335508e-09
5.056893181e-09
4.69175985e-09
4.347108838e-09
4.023082924e-09
3.723950458e-09
3.448998144e-09
3.201752726e-09
2.980497497e-09
2.787664767e-09
2.620203426e-09
2.479334655e-09
2.360811361e-09
2.265048199e-09
2.187210417e-09
2.127535879e-09
2.081094016e-09
2.048225525e-09
2.023944242e-09
2.008789037e-09
1.99803368e-09
1.992900388e-09
1.989418173e-09
1.989797482e-09
1.990674535e-09
1.994752354e-09
1.998710012e-09
2.005386535e-09
2.011613103e-09
2.020739909e-09
2.030031093e-09
2.043273066e-09
2.057576694e-09
2.076431827e-09
2.096297218e-09
2.120395318e-09
2.145131938e-09
2.174286283e-09
2.204776962e-09
2.241029649e-09
2.28005744e-09
2.326309834e-09
2.37635518e-09
2.43439035e-09
2.496483221e-09
2.566558728e-09
2.640059861e-09
2.72046615e-09
2.802456571e-09
2.889104269e-09
2.974438307e-09
3.061095879e-09
3.142012032e-09
3.218597917e-09
3.281974328e-09
3.332324759e-09
3.360055452e-09
3.366066288e-09
3.34195874e-09
3.29019394e-09
3.202893984e-09
3.082365822e-09
2.919779894e-09
2.717301582e-09
2.467088055e-09
2.174198206e-09
1.834322054e-09
1.455996672e-09
1.036855459e-09
5.861013044e-10
1.011832965e-10
-4.082486973e-10
-9.431975562e-10
-1.491347637e-09
-2.051195217e-09
-2.609228691e-09
-3.164887328e-09
-3.707599773e-09
-4.240757127e-09
-4.757888813e-09
-5.265771552e-09
-5.760910429e-09
-6.252724844e-09
-6.741087672e-09
-7.23956771e-09
-7.753897017e-09
-8.304930353e-09
-8.908109102e-09
-9.595948613e-09
-1.039883059e-08
-1.136720296e-08
-1.255411652e-08
-1.403711702e-08
-1.590231427e-08
-1.826491406e-08
-2.125415504e-08
-2.503236104e-08
-2.978231929e-08
-3.572699224e-08
-4.312012624e-08
-5.22630744e-08
-6.349036852e-08
-7.717423547e-08
-9.37024739e-08
-1.134803266e-07
-1.369180167e-07
-1.64437905e-07
-1.964608928e-07
-2.334036398e-07
-2.756636776e-07
-3.23605493e-07
-3.775429645e-07
-4.376739322e-07
-5.045476281e-07
-5.822110531e-07
-7.022948631e-07
-4.041365783e-07
-0.004972636434
0
0
0
0
0
0
0
0
0
0
0
0
0
0
0
0
0
0
0
0
0
0
0
0
0
0
0
0
0
0
0
0
0
0
0
0
0
0
0
0
0
0
0
0
0
0
0
0
0
0
0
0
0
0
0
0
0
0
0
0
0
0
0
0
0
0
0
0
0
0
0
0
0
0
0
0
0
0
0
0
0
0
0
0
0
0
0
0
0
0
0
0
0
0
0
0
0
0
0
0
0
0
0
0
0
0
0
0
0
0
0
0
0
0
0
0
0
0
0
2.870398563e-09
5.966130736e-09
5.627508167e-09
5.420427239e-09
5.044635521e-09
4.682693621e-09
4.339174503e-09
4.01761863e-09
3.718965219e-09
3.446039545e-09
3.198929751e-09
2.979441973e-09
2.786447198e-09
2.620510825e-09
2.479201115e-09
2.362024479e-09
2.265721844e-09
2.189323829e-09
2.129224989e-09
2.08433944e-09
2.050958736e-09
2.028085363e-09
2.012231298e-09
2.002941067e-09
1.997416644e-09
1.99602948e-09
1.996611331e-09
1.999998634e-09
2.004209549e-09
2.010325936e-09
2.016646364e-09
2.024822198e-09
2.033685515e-09
2.0452743e-09
2.058321537e-09
2.074471419e-09
2.091794412e-09
2.111601713e-09
2.132023759e-09
2.155023017e-09
2.179530894e-09
2.208258785e-09
2.240280956e-09
2.278056986e-09
2.319931402e-09
2.367725122e-09
2.419285323e-09
2.476387048e-09
2.536907315e-09
2.60275615e-09
2.671569646e-09
2.74481266e-09
2.819236972e-09
2.895337775e-09
2.968553324e-09
3.038096961e-09
3.097979173e-09
3.14641924e-09
3.176854612e-09
3.187823917e-09
3.173490757e-09
3.133376797e-09
3.06203454e-09
2.958825491e-09
2.817527441e-09
2.637097111e-09
2.411735861e-09
2.1423154e-09
1.825834273e-09
1.466266908e-09
1.062830785e-09
6.206899948e-10
1.394732451e-10
-3.748429558e-10
-9.207407541e-10
-1.489112867e-09
-2.075135493e-09
-2.667535155e-09
-3.261500517e-09
-3.847934266e-09
-4.425385778e-09
-4.988063862e-09
-5.536899075e-09
-6.067841531e-09
-6.583639922e-09
-7.083370289e-09
-7.574503648e-09
-8.062558379e-09
-8.562391611e-09
-9.087884803e-09
-9.663093392e-09
-1.031316507e-08
-1.107622243e-08
-1.199592984e-08
-1.313375148e-08
-1.456232198e-08
-1.637691118e-08
-1.86888309e-08
-2.163571341e-08
-2.537579566e-08
-3.00989968e-08
-3.602442378e-08
-4.341263091e-08
-5.256222191e-08
-6.381437518e-08
-7.753923595e-08
-9.413039065e-08
-1.139915387e-07
-1.375387261e-07
-1.651955058e-07
-1.973907628e-07
-2.345467029e-07
-2.77071042e-07
-3.253419545e-07
-3.79679354e-07
-4.403244843e-07
-5.077584168e-07
-5.862344954e-07
-7.071828496e-07
-4.06917755e-07
-0.005000251948
0
0
0
0
0
0
0
0
0
0
0
0
0
0
0
0
0
0
0
0
0
0
0
0
0
0
0
0
0
0
0
0
0
0
0
0
0
0
0
0
0
0
0
0
0
0
0
0
0
0
0
0
0
0
0
0
0
0
0
0
0
0
0
0
0
0
0
0
0
0
0
0
0
0
0
0
0
0
0
0
0
0
0
0
0
0
0
0
0
0
0
0
0
0
0
0
0
0
0
0
0
0
0
0
0
0
0
0
0
0
0
0
0
0
0
0
0
0
0
2.864803706e-09
5.952872461e-09
5.613750611e-09
5.406736071e-09
5.032829358e-09
4.672190785e-09
4.330711115e-09
4.010222e-09
3.713264185e-09
3.441052437e-09
3.195333765e-09
2.976259043e-09
2.784363673e-09
2.61848069e-09
2.477964026e-09
2.360612486e-09
2.265033385e-09
2.188467804e-09
2.129176747e-09
2.084111345e-09
2.051419639e-09
2.02816102e-09
2.012881557e-09
2.003314722e-09
1.998804899e-09
1.997731005e-09
1.999894954e-09
2.003844699e-09
2.009540663e-09
2.015838911e-09
2.023342371e-09
2.031627757e-09
2.041875298e-09
2.053755941e-09
2.068027468e-09
2.083589694e-09
2.100593608e-09
2.117837732e-09
2.136124029e-09
2.15531432e-09
2.177294254e-09
2.202450444e-09
2.232473533e-09
2.266844511e-09
2.30617154e-09
2.349049436e-09
2.395826993e-09
2.445346378e-09
2.498552294e-09
2.554696254e-09
2.614722697e-09
2.677203423e-09
2.741905148e-09
2.805784592e-09
2.86695716e-09
2.920853529e-09
2.964605167e-09
2.993267491e-09
3.004348314e-09
2.99361994e-09
2.959319417e-09
2.897351739e-09
2.805456624e-09
2.678535793e-09
2.513592536e-09
2.305605184e-09
2.052988121e-09
1.753115399e-09
1.407221909e-09
1.014902733e-09
5.786649572e-10
9.857126012e-11
-4.22180282e-10
-9.816634716e-10
-1.573224748e-09
-2.190672185e-09
-2.82377248e-09
-3.464884163e-09
-4.104894221e-09
-4.739026869e-09
-5.361190603e-09
-5.968465448e-09
-6.555351277e-09
-7.119235435e-09
-7.656409642e-09
-8.168584127e-09
-8.659017449e-09
-9.137869719e-09
-9.617147636e-09
-1.0115325e-08
-1.065308709e-08
-1.125933843e-08
-1.196904712e-08
-1.28305329e-08
-1.390403972e-08
-1.526842315e-08
-1.701904971e-08
-1.927332302e-08
-2.216852872e-08
-2.58677998e-08
-3.056030055e-08
-3.646972164e-08
-4.385646414e-08
-5.30239167e-08
-6.431359028e-08
-7.80999493e-08
-9.477693884e-08
-1.147523475e-07
-1.384438986e-07
-1.662808648e-07
-1.986968833e-07
-2.361218294e-07
-2.789716809e-07
-3.276301382e-07
-3.824370013e-07
-4.436046389e-07
-5.117058225e-07
-5.907541695e-07
-7.128085292e-07
-4.10081081e-07
-0.005035112198
0
0
0
0
0
0
0
0
0
0
0
0
0
0
0
0
0
0
0
0
0
0
0
0
0
0
0
0
0
0
0
0
0
0
0
0
0
0
0
0
0
0
0
0
0
0
0
0
0
0
0
0
0
0
0
0
0
0
0
0
0
0
0
0
0
0
0
0
0
0
0
0
0
0
0
0
0
0
0
0
0
0
0
0
0
0
0
0
0
0
0
0
0
0
0
0
0
0
0
0
0
0
0
0
0
0
0
0
0
0
0
0
0
0
0
0
0
0
0
2.858775829e-09
5.939819769e-09
5.60006969e-09
5.393405169e-09
5.020364046e-09
4.661248604e-09
4.320967013e-09
4.001982532e-09
3.706046609e-09
3.435098325e-09
3.190125886e-09
2.97201269e-09
2.780494044e-09
2.61520962e-09
2.474731289e-09
2.35774534e-09
2.262080831e-09
2.18588009e-09
2.126480392e-09
2.081700544e-09
2.048725357e-09
2.025568008e-09
2.009964315e-09
2.000728202e-09
1.996350482e-09
1.996176508e-09
1.998894979e-09
2.00387767e-09
2.009977601e-09
2.017083377e-09
2.024859635e-09
2.034043198e-09
2.044730761e-09
2.057468128e-09
2.071589147e-09
2.086778932e-09
2.101909177e-09
2.117027903e-09
2.132087684e-09
2.148531224e-09
2.167321259e-09
2.19010077e-09
2.217074431e-09
2.248585217e-09
2.283532118e-09
2.321541824e-09
2.361548405e-09
2.403871257e-09
2.448272194e-09
2.495580056e-09
2.545350793e-09
2.597459432e-09
2.64984555e-09
2.700485469e-09
2.745500398e-09
2.781592642e-09
2.804390215e-09
2.810996066e-09
2.797952033e-09
2.7632676e-09
2.70370593e-09
2.616599743e-09
2.49730873e-09
2.341826904e-09
2.144990413e-09
1.903688371e-09
1.614895804e-09
1.278294967e-09
8.932535177e-10
4.608409135e-10
-1.926477136e-11
-5.458593209e-10
-1.118095286e-09
-1.731689009e-09
-2.381068187e-09
-3.056993824e-09
-3.750515551e-09
-4.451756058e-09
-5.153533778e-09
-5.848587073e-09
-6.531379538e-09
-7.19450344e-09
-7.831198207e-09
-8.433824314e-09
-8.998343828e-09
-9.523640566e-09
-1.001501981e-08
-1.048153004e-08
-1.093765795e-08
-1.140032474e-08
-1.189188723e-08
-1.243972984e-08
-1.308151527e-08
-1.386623208e-08
-1.485910143e-08
-1.614151357e-08
-1.781434077e-08
-1.999711365e-08
-2.283144506e-08
-2.648171345e-08
-3.114085938e-08
-3.703401932e-08
-4.442557519e-08
-5.362058843e-08
-6.496412898e-08
-7.883201073e-08
-9.562125471e-08
-1.157414503e-07
-1.396144683e-07
-1.676735411e-07
-2.003583846e-07
-2.381051957e-07
-2.813357422e-07
-3.304438551e-07
-3.857606721e-07
-4.475387319e-07
-5.162396366e-07
-5.961727788e-07
-7.191656316e-07
-4.137191348e-07
-0.005077457594
0
0
0
0
0
0
0
0
0
0
0
0
0
0
0
0
0
0
0
0
0
0
0
0
0
0
0
0
0
0
0
0
0
0
0
0
0
0
0
0
0
0
0
0
0
0
0
0
0
0
0
0
0
0
0
0
0
0
0
0
0
0
0
0
0
0
0
0
0
0
0
0
0
0
0
0
0
0
0
0
0
0
0
0
0
0
0
0
0
0
0
0
0
0
0
0
0
0
0
0
0
0
0
0
0
0
0
0
0
0
0
0
0
0
0
0
0
0
0
2.852323964e-09
5.925719785e-09
5.585993947e-09
5.379401667e-09
5.007399131e-09
4.649347416e-09
4.310380527e-09
3.992530268e-09
3.697811721e-09
3.427809472e-09
3.183800785e-09
2.966290894e-09
2.775368172e-09
2.610296129e-09
2.470067739e-09
2.353053292e-09
2.257508077e-09
2.18118724e-09
2.121818967e-09
2.076746097e-09
2.043603885e-09
2.020032642e-09
2.004343679e-09
1.995007945e-09
1.991017737e-09
1.991190024e-09
1.994558941e-09
1.999916804e-09
2.006561898e-09
2.013982987e-09
2.022398676e-09
2.032072237e-09
2.043433337e-09
2.056244843e-09
2.070023433e-09
2.083744927e-09
2.096848627e-09
2.109121757e-09
2.121433622e-09
2.134976082e-09
2.151318241e-09
2.171291744e-09
2.195261679e-09
2.222522129e-09
2.25230165e-09
2.283554478e-09
2.31601031e-09
2.349548218e-09
2.384703812e-09
2.421565194e-09
2.46006291e-09
2.498939841e-09
2.536308607e-09
2.569004594e-09
2.593595014e-09
2.606100523e-09
2.603225682e-09
2.581911421e-09
2.540034063e-09
2.475185168e-09
2.384846295e-09
2.265140916e-09
2.111682626e-09
1.919259188e-09
1.68353248e-09
1.400882171e-09
1.069634838e-09
6.888515111e-10
2.586283042e-10
-2.215685117e-10
-7.520588969e-10
-1.333338223e-09
-1.963897033e-09
-2.640064971e-09
-3.354761019e-09
-4.099181551e-09
-4.86338797e-09
-5.638478796e-09
-6.416080078e-09
-7.188468374e-09
-7.946528466e-09
-8.679931874e-09
-9.376974717e-09
-1.002746282e-08
-1.062438785e-08
-1.116675102e-08
-1.165913445e-08
-1.211169179e-08
-1.253794384e-08
-1.295519728e-08
-1.338474529e-08
-1.385547247e-08
-1.440654661e-08
-1.509149178e-08
-1.597975707e-08
-1.715861459e-08
-1.873307684e-08
-2.082742034e-08
-2.358617274e-08
-2.717761438e-08
-3.179751008e-08
-3.767498067e-08
-4.507720701e-08
-5.431256285e-08
-6.572795081e-08
-7.970144085e-08
-9.663159997e-08
-1.169308513e-07
-1.410241125e-07
-1.693493015e-07
-2.023512724e-07
-2.40471822e-07
-2.841397063e-07
-3.33749265e-07
-3.896505372e-07
-4.520519555e-07
-5.215363148e-07
-6.021236107e-07
-7.265078117e-07
-4.178775629e-07
-0.005127578511
0
0
0
0
0
0
0
0
0
0
0
0
0
0
0
0
0
0
0
0
0
0
0
0
0
0
0
0
0
0
0
0
0
0
0
0
0
0
0
0
0
0
0
0
0
0
0
0
0
0
0
0
0
0
0
0
0
0
0
0
0
0
0
0
0
0
0
0
0
0
0
0
0
0
0
0
0
0
0
0
0
0
0
0
0
0
0
0
0
0
0
0
0
0
0
0
0
0
0
0
0
0
0
0
0
0
0
0
0
0
0
0
0
0
0
0
0
0
0
2.845152926e-09
5.910371295e-09
5.570851229e-09
5.364525998e-09
4.993447407e-09
4.636536662e-09
4.298720118e-09
3.982054814e-09
3.688404485e-09
3.419422326e-09
3.17619262e-09
2.959366974e-09
2.76882219e-09
2.604027835e-09
2.463844927e-09
2.346860041e-09
2.251198196e-09
2.174757909e-09
2.115075978e-09
2.069664692e-09
2.036022562e-09
2.012091393e-09
1.996094204e-09
1.986766716e-09
1.982891666e-09
1.983389031e-09
1.986975873e-09
1.99263232e-09
1.999494402e-09
2.007344007e-09
2.016235019e-09
2.026516782e-09
2.038133718e-09
2.050720641e-09
2.063336807e-09
2.075149505e-09
2.085625693e-09
2.095156723e-09
2.104743595e-09
2.115888749e-09
2.129701524e-09
2.146766304e-09
2.16663779e-09
2.188499194e-09
2.211230644e-09
2.234255773e-09
2.257309971e-09
2.280713462e-09
2.304594192e-09
2.328894898e-09
2.352652205e-09
2.374232861e-09
2.390952235e-09
2.399639126e-09
2.396593017e-09
2.378433289e-09
2.342111278e-09
2.285453429e-09
2.206490469e-09
2.103282188e-09
1.972859833e-09
1.811391251e-09
1.613973559e-09
1.375851926e-09
1.092764688e-09
7.620564393e-10
3.821507083e-10
-4.743602023e-11
-5.274695793e-10
-1.059042737e-09
-1.643942041e-09
-2.283167957e-09
-2.975969299e-09
-3.718410317e-09
-4.503793806e-09
-5.323403138e-09
-6.168232357e-09
-7.029407668e-09
-7.898085502e-09
-8.763796704e-09
-9.613631296e-09
-1.043191171e-08
-1.120235048e-08
-1.191063019e-08
-1.254782399e-08
-1.311153119e-08
-1.360607821e-08
-1.404047201e-08
-1.442745129e-08
-1.478294666e-08
-1.512864397e-08
-1.549499365e-08
-1.592551286e-08
-1.647919295e-08
-1.72322892e-08
-1.827817399e-08
-1.972773463e-08
-2.170988207e-08
-2.437388875e-08
-2.789242275e-08
-3.246606299e-08
-3.832814254e-08
-4.574960098e-08
-5.504118606e-08
-6.655145389e-08
-8.065940055e-08
-9.776493226e-08
-1.182822566e-07
-1.426393521e-07
-1.712779013e-07
-2.046474462e-07
-2.431952995e-07
-2.873542282e-07
-3.375290568e-07
-3.940572159e-07
-4.571988477e-07
-5.274030946e-07
-6.090888518e-07
-7.346878185e-07
-4.22591347e-07
-0.005185829774
0
0
0
0
0
0
0
0
0
0
0
0
0
0
0
0
0
0
0
0
0
0
0
0
0
0
0
0
0
0
0
0
0
0
0
0
0
0
0
0
0
0
0
0
0
0
0
0
0
0
0
0
0
0
0
0
0
0
0
0
0
0
0
0
0
0
0
0
0
0
0
0
0
0
0
0
0
0
0
0
0
0
0
0
0
0
0
0
0
0
0
0
0
0
0
0
0
0
0
0
0
0
0
0
0
0
0
0
0
0
0
0
0
0
0
0
0
0
0
2.837218969e-09
5.893425825e-09
5.554378801e-09
5.348424617e-09
4.978398447e-09
4.622610429e-09
4.285983014e-09
3.970460529e-09
3.677905854e-09
3.409861304e-09
3.167438603e-09
2.951164751e-09
2.761010355e-09
2.596379605e-09
2.456259452e-09
2.339180676e-09
2.243364079e-09
2.166606569e-09
2.10651028e-09
2.060531474e-09
2.026340727e-09
2.001914359e-09
1.985643047e-09
1.976209183e-09
1.972410135e-09
1.972946036e-09
1.976621221e-09
1.982311539e-09
1.989381387e-09
1.997571071e-09
2.006988405e-09
2.017645004e-09
2.029243948e-09
2.040992202e-09
2.051932697e-09
2.061293695e-09
2.069024455e-09
2.075839461e-09
2.083039161e-09
2.091864461e-09
2.103027258e-09
2.116305705e-09
2.130845514e-09
2.14546651e-09
2.159328222e-09
2.17204328e-09
2.183729775e-09
2.194492352e-09
2.204129541e-09
2.211684358e-09
2.215476812e-09
2.213037616e-09
2.201391172e-09
2.177168383e-09
2.137048536e-09
2.078016128e-09
1.997762942e-09
1.89454915e-09
1.76693654e-09
1.613029469e-09
1.430101004e-09
1.2143445e-09
9.614875136e-10
6.673619091e-10
3.288196737e-10
-5.616431169e-11
-4.885633947e-10
-9.692296987e-10
-1.499607747e-09
-2.082230337e-09
-2.720174409e-09
-3.41574382e-09
-4.168993172e-09
-4.976884933e-09
-5.83375409e-09
-6.73241892e-09
-7.665207321e-09
-8.62376177e-09
-9.597760051e-09
-1.057320116e-08
-1.153160726e-08
-1.245114688e-08
-1.330960806e-08
-1.40883165e-08
-1.477514714e-08
-1.536571159e-08
-1.586217513e-08
-1.627145882e-08
-1.660387784e-08
-1.687432862e-08
-1.710522378e-08
-1.733086763e-08
-1.760094454e-08
-1.798253399e-08
-1.856000383e-08
-1.943442422e-08
-2.072325301e-08
-2.256168943e-08
-2.510518541e-08
-2.853291413e-08
-3.305174606e-08
-3.890037591e-08
-4.635332648e-08
-5.572305691e-08
-6.735834586e-08
-8.163781636e-08
-9.896125771e-08
-1.197436892e-07
-1.444148611e-07
-1.73419363e-07
-2.072106687e-07
-2.4624054e-07
-2.909492632e-07
-3.417423407e-07
-3.989824795e-07
-4.628799452e-07
-5.34043133e-07
-6.165486839e-07
-7.439320569e-07
-4.27866889e-07
-0.005252630982
0
0
0
0
0
0
0
0
0
0
0
0
0
0
0
0
0
0
0
0
0
0
0
0
0
0
0
0
0
0
0
0
0
0
0
0
0
0
0
0
0
0
0
0
0
0
0
0
0
0
0
0
0
0
0
0
0
0
0
0
0
0
0
0
0
0
0
0
0
0
0
0
0
0
0
0
0
0
0
0
0
0
0
0
0
0
0
0
0
0
0
0
0
0
0
0
0
0
0
0
0
0
0
0
0
0
0
0
0
0
0
0
0
0
0
0
0
0
0
2.828428477e-09
5.874770419e-09
5.536390841e-09
5.330904735e-09
4.962037237e-09
4.607483195e-09
4.272062103e-09
3.957735557e-09
3.666262619e-09
3.399173941e-09
3.157496791e-09
2.941771738e-09
2.751940822e-09
2.58746137e-09
2.447329666e-09
2.330152999e-09
2.234060176e-09
2.156900525e-09
2.096215756e-09
2.049586831e-09
2.014743999e-09
1.989809012e-09
1.973238179e-09
1.963662054e-09
1.959768942e-09
1.960237805e-09
1.963770534e-09
1.969425921e-09
1.976614399e-09
1.985170671e-09
1.994991336e-09
2.005814018e-09
2.01692462e-09
2.02733166e-09
2.036074277e-09
2.042752938e-09
2.047723114e-09
2.052077758e-09
2.057045295e-09
2.063468134e-09
2.071262558e-09
2.079543913e-09
2.086952472e-09
2.092356928e-09
2.095122854e-09
2.095224486e-09
2.092718488e-09
2.087313138e-09
2.077886333e-09
2.062501703e-09
2.038486687e-09
2.002772224e-09
1.952067066e-09
1.883136067e-09
1.792985653e-09
1.679224772e-09
1.54014438e-09
1.374683505e-09
1.181897151e-09
9.604926079e-10
7.083563188e-10
4.227536077e-10
1.006629963e-10
-2.604613301e-10
-6.623974374e-10
-1.106071638e-09
-1.592176463e-09
-2.122052429e-09
-2.698456002e-09
-3.325780339e-09
-4.009015397e-09
-4.75234401e-09
-5.557458914e-09
-6.423362094e-09
-7.346798707e-09
-8.323407584e-09
-9.347701699e-09
-1.041189225e-08
-1.150363414e-08
-1.260419119e-08
-1.368837905e-08
-1.472686706e-08
-1.569044994e-08
-1.655453757e-08
-1.730229443e-08
-1.79251302e-08
-1.842123437e-08
-1.879346644e-08
-1.904908248e-08
-1.92018519e-08
-1.927656208e-08
-1.931347252e-08
-1.937129397e-08
-1.952737107e-08
-1.987623733e-08
-2.052800261e-08
-2.160847858e-08
-2.326121508e-08
-2.565063928e-08
-2.896523206e-08
-3.342023029e-08
-3.926053855e-08
-4.676375683e-08
-5.624253539e-08
-6.804374759e-08
-8.25434851e-08
-1.001392759e-07
-1.212448829e-07
-1.462899729e-07
-1.757204201e-07
-2.099924454e-07
-2.495631058e-07
-2.948775799e-07
-3.46356336e-07
-4.043510156e-07
-4.691411706e-07
-5.411813595e-07
-6.250545649e-07
-7.539901857e-07
-4.337081065e-07
-0.005328475439
0
0
0
0
0
0
0
0
0
0
0
0
0
0
0
0
0
0
0
0
0
0
0
0
0
0
0
0
0
0
0
0
0
0
0
0
0
0
0
0
0
0
0
0
0
0
0
0
0
0
0
0
0
0
0
0
0
0
0
0
0
0
0
0
0
0
0
0
0
0
0
0
0
0
0
0
0
0
0
0
0
0
0
0
0
0
0
0
0
0
0
0
0
0
0
0
0
0
0
0
0
0
0
0
0
0
0
0
0
0
0
0
0
0
0
0
0
0
0
2.818737525e-09
5.854236412e-09
5.516713549e-09
5.311803003e-09
4.944247047e-09
4.591010994e-09
4.256905349e-09
3.943810231e-09
3.653461459e-09
3.387319692e-09
3.146400559e-09
2.93118958e-09
2.741658702e-09
2.577309921e-09
2.437176504e-09
2.319815248e-09
2.223401227e-09
2.145714622e-09
2.084363656e-09
2.036985135e-09
2.001475092e-09
1.976031271e-09
1.95912646e-09
1.949340159e-09
1.945253964e-09
1.945470538e-09
1.948793398e-09
1.954340801e-09
1.961667558e-09
1.970509057e-09
1.980570515e-09
1.991179876e-09
2.001337527e-09
2.009919238e-09
2.016188173e-09
2.020129241e-09
2.022559512e-09
2.02465605e-09
2.027383189e-09
2.030829825e-09
2.03412369e-09
2.035674622e-09
2.033927531e-09
2.027825966e-09
2.017056965e-09
2.001578451e-09
1.981065821e-09
1.95426607e-09
1.918892927e-09
1.871774702e-09
1.809331539e-09
1.727909887e-09
1.624050886e-09
1.494625947e-09
1.337059081e-09
1.149533151e-09
9.311388984e-10
6.816761979e-10
4.012845345e-10
8.992003167e-11
-2.527953557e-10
-6.275300609e-10
-1.0348269e-09
-1.47484291e-09
-1.947321395e-09
-2.451941966e-09
-2.989248007e-09
-3.561451883e-09
-4.173340298e-09
-4.831715947e-09
-5.544425299e-09
-6.318203455e-09
-7.157763521e-09
-8.065456536e-09
-9.042261746e-09
-1.008800827e-08
-1.120042204e-08
-1.237252719e-08
-1.358970124e-08
-1.482786141e-08
-1.605415542e-08
-1.723047661e-08
-1.831867845e-08
-1.9285732e-08
-2.010699863e-08
-2.076680197e-08
-2.125677869e-08
-2.157414976e-08
-2.17222615e-08
-2.171432211e-08
-2.157909975e-08
-2.13654818e-08
-2.11441021e-08
-2.100535867e-08
-2.105616103e-08
-2.141780849e-08
-2.222697154e-08
-2.3639017e-08
-2.583146208e-08
-2.900584732e-08
-3.338837468e-08
-3.923073147e-08
-4.681250073e-08
-5.644397832e-08
-6.846708732e-08
-8.325193464e-08
-1.011905377e-07
-1.226921227e-07
-1.481834427e-07
-1.781093233e-07
-2.129278726e-07
-2.531004746e-07
-2.990828617e-07
-3.51299945e-07
-4.101394569e-07
-4.758287434e-07
-5.490242707e-07
-6.339112047e-07
-7.650675849e-07
-4.400846852e-07
-0.005413937781
0
0
0
0
0
0
0
0
0
0
0
0
0
0
0
0
0
0
0
0
0
0
0
0
0
0
0
0
0
0
0
0
0
0
0
0
0
0
0
0
0
0
0
0
0
0
0
0
0
0
0
0
0
0
0
0
0
0
0
0
0
0
0
0
0
0
0
0
0
0
0
0
0
0
0
0
0
0
0
0
0
0
0
0
0
0
0
0
0
0
0
0
0
0
0
0
0
0
0
0
0
0
0
0
0
0
0
0
0
0
0
0
0
0
0
0
0
0
0
2.808086302e-09
5.831745505e-09
5.495231646e-09
5.291011614e-09
4.924898213e-09
4.573129852e-09
4.24042346e-09
3.928634577e-09
3.639460616e-09
3.374296236e-09
3.134113492e-09
2.919424198e-09
2.730207316e-09
2.565983375e-09
2.425813423e-09
2.308262625e-09
2.211444275e-09
2.133166224e-09
2.071070217e-09
2.022933387e-09
1.986735604e-09
1.960790037e-09
1.943523351e-09
1.933449087e-09
1.929055286e-09
1.928943979e-09
1.931981877e-09
1.937442739e-09
1.944864747e-09
1.953899442e-09
1.963905411e-09
1.973901065e-09
1.982630656e-09
1.98905844e-09
1.992748024e-09
1.994149772e-09
1.994290146e-09
1.994248967e-09
1.994344056e-09
1.993838879e-09
1.990994184e-09
1.983792878e-09
1.970572596e-09
1.950490726e-09
1.923214587e-09
1.888328706e-09
1.84448699e-09
1.789092745e-09
1.718355049e-09
1.627851552e-09
1.513057615e-09
1.36977202e-09
1.194266644e-09
9.834615454e-10
7.351113764e-10
4.481325333e-10
1.226764871e-10
-2.399416888e-10
-6.376863233e-10
-1.068083715e-09
-1.528458646e-09
-2.015874978e-09
-2.527116556e-09
-3.058912901e-09
-3.608289398e-09
-4.173574119e-09
-4.755202719e-09
-5.357053763e-09
-5.986435725e-09
-6.653698843e-09
-7.370088254e-09
-8.146232631e-09
-8.991032051e-09
-9.912191468e-09
-1.091673482e-08
-1.201049087e-08
-1.319570476e-08
-1.446720483e-08
-1.580874915e-08
-1.719115097e-08
-1.857353465e-08
-1.990745145e-08
-2.11427283e-08
-2.223344426e-08
-2.314234349e-08
-2.38426455e-08
-2.43168059e-08
-2.455498586e-08
-2.455597856e-08
-2.433285427e-08
-2.391976486e-08
-2.337694314e-08
-2.279023152e-08
-2.226660789e-08
-2.192844967e-08
-2.191131646e-08
-2.236650845e-08
-2.346630089e-08
-2.54071838e-08
-2.840897849e-08
-3.271184522e-08
-3.857458633e-08
-4.62765932e-08
-5.612209431e-08
-6.844343064e-08
-8.359993608e-08
-1.019730583e-07
-1.2396289e-07
-1.49988993e-07
-1.804924289e-07
-2.15931364e-07
-2.567732833e-07
-3.034820138e-07
-3.565050206e-07
-4.162237325e-07
-4.829565449e-07
-5.571873331e-07
-6.437275464e-07
-7.767898167e-07
-4.469589686e-07
-0.005509685446
0
0
0
0
0
0
0
0
0
0
0
0
0
0
0
0
0
0
0
0
0
0
0
0
0
0
0
0
0
0
0
0
0
0
0
0
0
0
0
0
0
0
0
0
0
0
0
0
0
0
0
0
0
0
0
0
0
0
0
0
0
0
0
0
0
0
0
0
0
0
0
0
0
0
0
0
0
0
0
0
0
0
0
0
0
0
0
0
0
0
0
0
0
0
0
0
0
0
0
0
0
0
0
0
0
0
0
0
0
0
0
0
0
0
0
0
0
0
0
2.796436082e-09
5.807143473e-09
5.471820074e-09
5.268399297e-09
4.903906621e-09
4.553724758e-09
4.222539452e-09
3.912157006e-09
3.624211312e-09
3.360052959e-09
3.120652385e-09
2.906485965e-09
2.717588936e-09
2.553517017e-09
2.413312743e-09
2.295518931e-09
2.198264113e-09
2.119333163e-09
2.056481092e-09
2.007566343e-09
1.970718123e-09
1.944263808e-09
1.926608135e-09
1.916166788e-09
1.911385551e-09
1.910886505e-09
1.913658656e-09
1.919018766e-09
1.926507476e-09
1.935522861e-09
1.945138839e-09
1.954063294e-09
1.961011879e-09
1.96511948e-09