/*--------------------------------*- C++ -*----------------------------------*\
  =========                 |
  \\      /  F ield         | OpenFOAM: The Open Source CFD Toolbox
   \\    /   O peration     | Website:  https://openfoam.org
    \\  /    A nd           | Version:  6
     \\/     M anipulation  |
\*---------------------------------------------------------------------------*/
FoamFile
{
    version     2.0;
    format      ascii;
    class       volScalarField;
    location    "0.0014";
    object      ViscousDissipation;
}
// * * * * * * * * * * * * * * * * * * * * * * * * * * * * * * * * * * * * * //

dimensions      [1 -1 -3 0 0 0 0];

internalField   nonuniform List<scalar> 
57600
(
1.962299981e-21
9.001264034e-21
1.165181604e-20
1.215871053e-20
1.310085142e-20
1.41507549e-20
1.530846333e-20
1.656782107e-20
1.792377204e-20
1.936750906e-20
2.088892184e-20
2.247191051e-20
2.40969657e-20
2.573681888e-20
2.735939454e-20
2.892421863e-20
3.038641214e-20
3.169417359e-20
3.279364474e-20
3.362676529e-20
3.413628077e-20
3.426372779e-20
3.395549048e-20
3.316249104e-20
3.18484702e-20
2.999139765e-20
2.759261238e-20
2.467826756e-20
2.130855402e-20
1.758049568e-20
1.363957355e-20
9.685780786e-21
5.98708761e-21
2.886102037e-21
8.114649354e-22
2.825954196e-22
1.917777617e-21
6.436596488e-21
1.466206734e-20
2.751545969e-20
4.600413199e-20
7.120053309e-20
1.042083816e-19
1.461210659e-19
1.979620862e-19
2.606204726e-19
3.347644694e-19
4.207576655e-19
5.185543201e-19
6.276104261e-19
7.467780856e-19
8.742330995e-19
1.00739618e-18
1.142917573e-18
1.276680643e-18
1.40390867e-18
1.519308743e-18
1.617330604e-18
1.69244101e-18
1.739490689e-18
1.754063444e-18
1.732898179e-18
1.67425857e-18
1.578322485e-18
1.447426588e-18
1.286219683e-18
1.10157483e-18
9.023610183e-19
6.989949833e-19
5.029129692e-19
3.259140925e-19
1.794969887e-19
7.416411277e-20
1.88133317e-20
2.024610352e-20
8.289143395e-20
2.087739506e-19
3.977192255e-19
6.477756889e-19
9.55740894e-19
1.317775176e-18
1.729946401e-18
2.188739683e-18
2.691354947e-18
3.235886721e-18
3.821197766e-18
4.446649169e-18
5.111499715e-18
5.814216768e-18
6.551532823e-18
7.317584076e-18
8.102989204e-18
8.894258443e-18
9.673353486e-18
1.041776442e-17
1.110084627e-17
1.169273769e-17
1.216154325e-17
1.247503415e-17
1.260247156e-17
1.251671787e-17
1.219631968e-17
1.162792918e-17
1.080918841e-17
9.752646957e-18
8.490805242e-18
7.082241368e-18
5.618607233e-18
4.232547239e-18
3.107213866e-18
2.487493113e-18
2.693062352e-18
4.132226939e-18
7.315109145e-18
1.286424229e-17
2.151276406e-17
3.415276897e-17
5.02646196e-17
8.854640957e-17
2.97995189e-17
2.063966606e-17
7.089808762e-21
1.414856227e-20
2.307136226e-20
3.361980884e-20
4.563289946e-20
5.894589642e-20
7.338747944e-20
8.870206381e-20
1.045966093e-19
1.207093302e-19
1.366901098e-19
1.521748266e-19
1.668623083e-19
1.804742402e-19
1.928161218e-19
2.037219151e-19
2.131027828e-19
2.20887193e-19
2.270662954e-19
2.316377927e-19
2.346507932e-19
2.361545849e-19
2.36241127e-19
2.349974261e-19
2.325441413e-19
2.289913414e-19
2.244733555e-19
2.191085931e-19
2.130313604e-19
2.063562659e-19
1.992074575e-19
1.916875902e-19
1.839045884e-19
1.759447962e-19
1.678972413e-19
1.59830473e-19
1.518143373e-19
1.439000289e-19
1.361394588e-19
1.28568092e-19
1.21222043e-19
1.141233144e-19
1.072947899e-19
1.007475241e-19
9.449381567e-20
8.853624438e-20
8.287901399e-20
7.751847424e-20
7.245292893e-20
6.76744212e-20
6.317719491e-20
5.895055497e-20
5.498615721e-20
5.127178775e-20
4.779764594e-20
4.455091414e-20
4.152117956e-20
3.86956828e-20
3.606400017e-20
3.361387376e-20
3.133526475e-20
2.92166923e-20
2.724875806e-20
2.542092853e-20
2.372460181e-20
2.215026481e-20
2.069016245e-20
1.933578766e-20
1.808022594e-20
1.691595106e-20
1.583688742e-20
1.483645276e-20
1.390935258e-20
1.304983596e-20
1.225328176e-20
1.151468018e-20
1.083005534e-20
1.019512193e-20
9.606509002e-21
9.060530248e-21
8.554250305e-21
8.08443491e-21
7.648558803e-21
7.243916552e-21
6.868472622e-21
6.519977573e-21
6.196644057e-21
5.896405464e-21
5.61764489e-21
5.358653177e-21
5.118231105e-21
4.895046373e-21
4.688026991e-21
4.4958547e-21
4.317510741e-21
4.151971432e-21
3.998585335e-21
3.856570104e-21
3.725218064e-21
3.603620792e-21
3.491125482e-21
3.387199013e-21
3.291598569e-21
3.203944611e-21
3.123787779e-21
3.050495147e-21
2.98357721e-21
2.922640633e-21
2.867571605e-21
2.818462894e-21
2.775537461e-21
2.738394438e-21
2.705962793e-21
2.676981876e-21
2.651822617e-21
2.631827784e-21
2.618719869e-21
2.610371897e-21
2.604923965e-21
3.07231335e-21
1.016522897e-20
1.280014039e-20
1.335030375e-20
1.428422659e-20
1.532324924e-20
1.646807969e-20
1.771648399e-20
1.905880912e-20
2.048987791e-20
2.199554502e-20
2.356336915e-20
2.517015222e-20
2.679231205e-20
2.839433728e-20
2.993951127e-20
3.13796508e-20
3.266672687e-20
3.374348743e-20
3.455559098e-20
3.504229687e-20
3.514903052e-20
3.481882581e-20
3.400678435e-20
3.267334436e-20
3.080062405e-20
2.838649171e-20
2.546113918e-20
2.208150779e-20
1.834897972e-20
1.440650913e-20
1.045880889e-20
6.772134084e-21
3.694070463e-21
1.652900912e-21
1.173837965e-21
2.877113354e-21
7.489218522e-21
1.583777576e-20
2.885202871e-20
4.754761129e-20
7.300750101e-20
1.063501515e-19
1.486842742e-19
2.010563289e-19
2.643748121e-19
3.393370244e-19
4.26325849e-19
5.253262566e-19
6.358086816e-19
7.566542145e-19
8.860452638e-19
1.021427176e-18
1.159444882e-18
1.295995705e-18
1.426276654e-18
1.544987468e-18
1.646521908e-18
1.725314311e-18
1.776135419e-18
1.794525529e-18
1.777141059e-18
1.722212487e-18
1.629852466e-18
1.502387401e-18
1.344428272e-18
1.162865728e-18
9.66563219e-19
7.659813154e-19
5.72577445e-19
3.982041213e-19
2.543848882e-19
1.516525921e-19
9.889886e-20
1.028947062e-19
1.679994903e-19
2.961233924e-19
4.869560499e-19
7.383723667e-19
1.047028417e-18
1.408948326e-18
1.820175153e-18
2.277223939e-18
2.777494185e-18
3.319338267e-18
3.902038802e-18
4.525369539e-18
5.189094363e-18
5.892071867e-18
6.631425114e-18
7.401457215e-18
8.192868313e-18
8.991946828e-18
9.780312611e-18
1.053481803e-17
1.122813184e-17
1.182954009e-17
1.23064091e-17
1.262579273e-17
1.275649585e-17
1.267107694e-17
1.234807376e-17
1.177430545e-17
1.094779057e-17
9.881581046e-18
8.608739129e-18
7.188457498e-18
5.712874572e-18
4.315103171e-18
3.178504059e-18
2.548217802e-18
2.743986891e-18
4.174373167e-18
7.350001586e-18
1.28940067e-17
2.154247834e-17
3.419461031e-17
5.035799494e-17
8.970584787e-17
3.045234386e-17
2.069807685e-17
9.648922657e-21
1.670896831e-20
2.561946583e-20
3.61639325e-20
4.815663681e-20
6.14599153e-20
7.587298103e-20
9.116953699e-20
1.070243578e-19
1.231069168e-19
1.390334423e-19
1.544726531e-19
1.690895945e-19
1.826398604e-19
1.948959901e-19
2.057259211e-19
2.150091513e-19
2.227071747e-19
2.287811002e-19
2.332599942e-19
2.361648095e-19
2.375740926e-19
2.375536817e-19
2.36217467e-19
2.33662068e-19
2.300219286e-19
2.254094078e-19
2.19964766e-19
2.1380237e-19
2.070562337e-19
1.99832536e-19
1.922510355e-19
1.844035778e-19
1.763914917e-19
1.682895138e-19
1.601792606e-19
1.521179556e-19
1.441681488e-19
1.363706646e-19
1.28770812e-19
1.213950145e-19
1.142737959e-19
1.074216016e-19
1.008568575e-19
9.45845365e-20
8.86135946e-20
8.294188877e-20
7.757128755e-20
7.249460216e-20
6.770865762e-20
6.320294579e-20
5.897092107e-20
5.500012618e-20
5.128195434e-20
4.780304115e-20
4.45537109e-20
4.15204584e-20
3.869326682e-20
3.605902415e-20
3.360787147e-20
3.1327428e-20
2.920831563e-20
2.723909152e-20
2.541106888e-20
2.371385763e-20
2.213956942e-20
2.06788819e-20
1.932471924e-20
1.806879071e-20
1.690483243e-20
1.582555903e-20
1.482550306e-20
1.389830548e-20
1.303919993e-20
1.224262707e-20
1.150444651e-20
1.081985565e-20
1.018533776e-20
9.596794163e-21
9.051217325e-21
8.545030107e-21
8.075595721e-21
7.639823469e-21
7.235535252e-21
6.860200361e-21
6.512034018e-21
6.188813072e-21
5.888876022e-21
5.610223546e-21
5.351502858e-21
5.111184609e-21
4.888247637e-21
4.681330043e-21
4.489379101e-21
4.311125642e-21
4.145779447e-21
3.992479009e-21
3.850640625e-21
3.719372122e-21
3.597928252e-21
3.485502957e-21
3.381705925e-21
3.286171552e-21
3.198634064e-21
3.118538177e-21
3.045342778e-21
2.978479727e-21
2.917624708e-21
2.862594479e-21
2.813545138e-21
2.770646849e-21
2.733602042e-21
2.701175564e-21
2.672280117e-21
2.647034496e-21
2.627259906e-21
2.613997773e-21
2.605626508e-21
2.600329501e-21
3.745132637e-21
1.081497482e-20
1.347640416e-20
1.406644652e-20
1.50149859e-20
1.605552693e-20
1.720016661e-20
1.844438211e-20
1.978434059e-20
2.121108451e-20
2.271516453e-20
2.428049428e-20
2.588836539e-20
2.751190681e-20
2.912010444e-20
3.067331141e-20
3.212791972e-20
3.343311641e-20
3.453618563e-20
3.537990924e-20
3.590805329e-20
3.606321329e-20
3.579323602e-20
3.505062603e-20
3.380086477e-20
3.202339492e-20
2.972093876e-20
2.692078968e-20
2.368469536e-20
2.011147005e-20
1.634929615e-20
1.260112858e-20
9.139010359e-21
6.309973306e-21
4.549061444e-21
4.383051561e-21
6.440593298e-21
1.14527357e-20
2.025780171e-20
3.379411769e-20
5.309264362e-20
7.925392743e-20
1.134205036e-19
1.567310219e-19
2.102661702e-19
2.74975753e-19
3.515971853e-19
4.405602796e-19
5.4188902e-19
6.550997751e-19
7.791047374e-19
9.121241756e-19
1.051617504e-18
1.194247357e-18
1.335892228e-18
1.471727944e-18
1.596384134e-18
1.704181087e-18
1.789429985e-18
1.846788852e-18
1.871651333e-18
1.860561769e-18
1.811625463e-18
1.724884432e-18
1.602596676e-18
1.44936989e-18
1.272102875e-18
1.079732092e-18
8.828011063e-19
6.928964329e-19
5.21990023e-19
3.817304357e-19
2.827307869e-19
2.339166394e-19
2.42014545e-19
3.112540178e-19
4.433335395e-19
6.376517192e-19
8.917664693e-19
1.202009801e-18
1.564172995e-18
1.974173539e-18
2.428615635e-18
2.925172704e-18
3.462727488e-18
4.041243259e-18
4.661347661e-18
5.323660846e-18
6.02789731e-18
6.771834279e-18
7.550228999e-18
8.353841704e-18
9.168673225e-18
9.975580857e-18
1.07503243e-17
1.146413947e-17
1.208478251e-17
1.257806726e-17
1.29097201e-17
1.304751243e-17
1.296340537e-17
1.263578603e-17
1.205176076e-17
1.121005334e-17
1.01247007e-17
8.830048022e-18
7.38661896e-18
5.888025808e-18
4.46866999e-18
3.313294877e-18
2.668256098e-18
2.854859244e-18
4.283539257e-18
7.467924846e-18
1.303674127e-17
2.173700739e-17
3.450107881e-17
5.090054214e-17
9.099151815e-17
3.095535802e-17
2.081553978e-17
1.48427085e-20
2.190575296e-20
3.081621503e-20
4.134178077e-20
5.331505013e-20
6.658021654e-20
8.095536586e-20
9.619331307e-20
1.119877542e-19
1.27985584e-19
1.438228911e-19
1.59145674e-19
1.736405557e-19
1.870415841e-19
1.991443211e-19
2.097966714e-19
2.189015154e-19
2.264016504e-19
2.322809043e-19
2.365508436e-19
2.392538479e-19
2.404521203e-19
2.402312735e-19
2.386899697e-19
2.359427326e-19
2.321098366e-19
2.273195741e-19
2.21699055e-19
2.153766262e-19
2.084741599e-19
2.011099741e-19
1.933927013e-19
1.854246537e-19
1.772970545e-19
1.690936275e-19
1.608868934e-19
1.527417777e-19
1.447127155e-19
1.368471307e-19
1.291831496e-19
1.217528582e-19
1.145804672e-19
1.076852907e-19
1.010802382e-19
9.477448078e-20
8.877217602e-20
8.307481228e-20
7.768009815e-20
7.258399628e-20
6.777973324e-20
6.325954427e-20
5.901377435e-20
5.503236151e-20
5.13040126e-20
4.781746037e-20
4.456070706e-20
4.152208835e-20
3.868957807e-20
3.605168355e-20
3.359680412e-20
3.131398586e-20
2.919233803e-20
2.722167714e-20
2.539200069e-20
2.369403176e-20
2.211873538e-20
2.06577735e-20
1.930306852e-20
1.804720034e-20
1.688302903e-20
1.580404031e-20
1.480400025e-20
1.387723236e-20
1.301829791e-20
1.222224041e-20
1.148432937e-20
1.08002956e-20
1.016610612e-20
9.578134245e-21
9.03291937e-21
8.527298653e-21
8.058236434e-21
7.623006655e-21
7.21908485e-21
6.844263665e-21
6.496456301e-21
6.173718985e-21
5.874122484e-21
5.595910435e-21
5.337502934e-21
5.09758784e-21
4.874948167e-21
4.668402307e-21
4.476722004e-21
4.298793548e-21
4.133686787e-21
3.980680331e-21
3.839069501e-21
3.708068217e-21
3.586822714e-21
3.474619703e-21
3.370992935e-21
3.275658909e-21
3.188283563e-21
3.108363672e-21
3.035302508e-21
2.968581226e-21
2.907840279e-21
2.85292481e-21
2.803959298e-21
2.7611666e-21
2.724211823e-21
2.691896829e-21
2.663039351e-21
2.637837657e-21
2.617958052e-21
2.604872824e-21
2.596775653e-21
2.591032388e-21
4.522153195e-21
1.156815262e-20
1.424733598e-20
1.487265596e-20
1.584486917e-20
1.690155683e-20
1.805533472e-20
1.930704328e-20
2.065257229e-20
2.208637777e-20
2.359813892e-20
2.517454485e-20
2.679618374e-20
2.843880468e-20
3.007108648e-20
3.165609163e-20
3.315031558e-20
3.450568264e-20
3.566970628e-20
3.658776827e-20
3.720390058e-20
3.746340548e-20
3.731475658e-20
3.671361163e-20
3.562641956e-20
3.403587621e-20
3.194545233e-20
2.93854918e-20
2.6418418e-20
2.31465408e-20
1.971948939e-20
1.634487054e-20
1.329733162e-20
1.092998505e-20
9.681948649e-21
1.008819284e-20
1.278392981e-20
1.851195812e-20
2.812153886e-20
4.256907054e-20
6.290451247e-20
9.025740843e-20
1.258018678e-19
1.707199131e-19
2.261375408e-19
2.930608739e-19
3.722823579e-19
4.642953636e-19
5.691814604e-19
6.865195153e-19
8.152715407e-19
9.537063734e-19
1.09930916e-18
1.248757625e-18
1.397909405e-18
1.541898378e-18
1.675265232e-18
1.792216927e-18
1.886906407e-18
1.953823747e-18
1.988171296e-18
1.986322522e-18
1.946218364e-18
1.867785664e-18
1.753196252e-18
1.607037463e-18
1.436227158e-18
1.249788667e-18
1.058386343e-18
8.737742918e-19
7.080935077e-19
5.731552091e-19
4.796772537e-19
4.366132515e-19
4.506050965e-19
5.256777468e-19
6.632095728e-19
8.621851695e-19
1.119712005e-18
1.431688271e-18
1.793591042e-18
2.201203924e-18
2.651283839e-18
3.14195574e-18
3.672900345e-18
4.245139339e-18
4.860581215e-18
5.521169453e-18
6.227889761e-18
6.979512687e-18
7.771417853e-18
8.594414563e-18
9.433967264e-18
1.026971985e-17
1.107569178e-17
1.182091957e-17
1.247080764e-17
1.298882092e-17
1.333868409e-17
1.348661031e-17
1.340369851e-17
1.306810853e-17
1.246747618e-17
1.16015999e-17
1.048619046e-17
9.157569728e-18
7.678591595e-18
6.145202248e-18
4.694261588e-18
3.512851926e-18
2.849930064e-18
3.029691791e-18
4.466456346e-18
7.679579021e-18
1.330681869e-17
2.211303558e-17
3.505833297e-17
5.175888682e-17
9.250040202e-17
3.146701471e-17
2.099303224e-17
2.280231059e-20
2.987670716e-20
3.878558567e-20
4.929420363e-20
6.123374589e-20
7.444828239e-20
8.875652324e-20
1.03908849e-19
1.195989623e-19
1.3546978e-19
1.511576031e-19
1.663050824e-19
1.806006231e-19
1.937769191e-19
2.056332977e-19
2.160181829e-19
2.248395037e-19
2.320415697e-19
2.376136209e-19
2.415689953e-19
2.43955249e-19
2.448362125e-19
2.443021069e-19
2.424528409e-19
2.394067745e-19
2.352848969e-19
2.302184636e-19
2.243347133e-19
2.177640929e-19
2.106280617e-19
2.030462731e-19
1.951265153e-19
1.869718194e-19
1.786722676e-19
1.703118442e-19
1.619617629e-19
1.536868956e-19
1.45540314e-19
1.37569195e-19
1.298103279e-19
1.222954509e-19
1.150475216e-19
1.080854722e-19
1.014210763e-19
9.50631326e-20
8.90147967e-20
8.327722018e-20
7.78472458e-20
7.272054845e-20
6.788961875e-20
6.334645711e-20
5.908079072e-20
5.508237394e-20
5.133939994e-20
4.784046418e-20
4.457314495e-20
4.152568097e-20
3.868569788e-20
3.604163927e-20
3.358161883e-20
3.129464535e-20
2.916959383e-20
2.719626452e-20
2.536446312e-20
2.366491286e-20
2.208842112e-20
2.062666119e-20
1.927142461e-20
1.801531043e-20
1.685107032e-20
1.577221555e-20
1.477242242e-20
1.384604324e-20
1.298756293e-20
1.219205433e-20
1.145472209e-20
1.077132808e-20
1.01377859e-20
9.55050045e-21
9.00596434e-21
8.501042419e-21
8.032656689e-21
7.59810857e-21
7.194840921e-21
6.820676041e-21
6.473498045e-21
6.151385026e-21
5.852376664e-21
5.574737501e-21
5.316867958e-21
5.077482576e-21
4.855345995e-21
4.649290806e-21
4.458063993e-21
4.280567699e-21
4.115862398e-21
3.963249835e-21
3.82201177e-21
3.691367972e-21
3.570444675e-21
3.458542101e-21
3.355192966e-21
3.260132396e-21
3.173014138e-21
3.09333451e-21
3.020484036e-21
2.953956873e-21
2.893388999e-21
2.838628983e-21
2.789805801e-21
2.747154086e-21
2.710353376e-21
2.678146733e-21
2.649333496e-21
2.624141545e-21
2.604488641e-21
2.591407529e-21
2.582905531e-21
2.577811083e-21
5.462887643e-21
1.249406088e-20
1.518947046e-20
1.584489207e-20
1.684608797e-20
1.792600105e-20
1.909937928e-20
2.03674847e-20
2.17292759e-20
2.317972255e-20
2.471101847e-20
2.631032057e-20
2.796047738e-20
2.963797555e-20
3.131383253e-20
3.2952285e-20
3.451236077e-20
3.594749347e-20
3.720772062e-20
3.823997183e-20
3.899077374e-20
3.940724479e-20
3.944082468e-20
3.904962327e-20
3.8203553e-20
3.688792424e-20
3.510952427e-20
3.290103617e-20
3.032833164e-20
2.749669776e-20
2.456058433e-20
2.17321651e-20
1.929268643e-20
1.760129631e-20
1.710555397e-20
1.834860199e-20
2.197773173e-20
2.874878238e-20
3.953041792e-20
5.530110549e-20
7.71420389e-20
1.062180694e-19
1.437501484e-19
1.909713312e-19
2.490712324e-19
3.191222301e-19
4.019953284e-19
4.982613655e-19
6.080886638e-19
7.311335778e-19
8.664367361e-19
1.0123227e-18
1.166321564e-18
1.325117322e-18
1.484551177e-18
1.639687457e-18
1.784966041e-18
1.914432545e-18
2.022051677e-18
2.102077295e-18
2.149476793e-18
2.160376094e-18
2.132511678e-18
2.065631179e-18
1.961801752e-18
1.825553528e-18
1.663834334e-18
1.485750502e-18
1.302127686e-18
1.124912266e-18
9.664658946e-19
8.387840231e-19
7.5270522e-19
7.171819639e-19
7.387134654e-19
8.21025718e-19
9.650551742e-19
1.169246556e-18
1.430120524e-18
1.74304712e-18
2.103115728e-18
2.506006672e-18
2.948724985e-18
3.430104284e-18
3.950961257e-18
4.513876119e-18
5.122558107e-18
5.78086875e-18
6.491540454e-18
7.254745718e-18
8.066623577e-18
8.917992439e-18
9.793394402e-18
1.067069829e-17
1.152132901e-17
1.231122035e-17
1.300238634e-17
1.355505184e-17
1.393009518e-17
1.40916542e-17
1.400961472e-17
1.366197415e-17
1.303713159e-17
1.21365888e-17
1.097842949e-17
9.601960848e-18
8.073304518e-18
6.491906442e-18
4.998081894e-18
3.782484218e-18
3.09779366e-18
3.272620048e-18
4.726917946e-18
7.987929535e-18
1.37056996e-17
2.266180817e-17
3.584753313e-17
5.288148606e-17
9.43207787e-17
3.205037564e-17
2.123295395e-17
3.373938688e-20
4.082586144e-20
4.972894337e-20
6.021040591e-20
7.209745207e-20
8.52373913e-20
9.944475427e-20
1.144732861e-19
1.300096621e-19
1.456995417e-19
1.611715611e-19
1.760724628e-19
1.900848702e-19
2.029482095e-19
2.144587384e-19
2.244738664e-19
2.329004164e-19
2.396926499e-19
2.448395675e-19
2.483643273e-19
2.503143895e-19
2.507626322e-19
2.497989311e-19
2.475311046e-19
2.44076681e-19
2.395632183e-19
2.341205358e-19
2.278810519e-19
2.20973184e-19
2.135222763e-19
2.056454743e-19
1.974533443e-19
1.890460988e-19
1.805157173e-19
1.719432276e-19
1.634010808e-19
1.549512055e-19
1.466474436e-19
1.385341566e-19
1.306485944e-19
1.230198863e-19
1.15671259e-19
1.086192877e-19
1.018759084e-19
9.544783322e-20
8.933832991e-20
8.354673251e-20
7.806998129e-20
7.29021878e-20
6.803594504e-20
6.34619214e-20
5.916996009e-20
5.514868832e-20
5.138643127e-20
4.787083523e-20
4.458962521e-20
4.153024302e-20
3.868047223e-20
3.602808787e-20
3.356136814e-20
3.126876054e-20
2.91393071e-20
2.716233663e-20
2.532782137e-20
2.362608796e-20
2.204810637e-20
2.058521449e-20
1.92293594e-20
1.797285561e-20
1.680860264e-20
1.572987072e-20
1.473047542e-20
1.380456335e-20
1.294674775e-20
1.215192437e-20
1.141541585e-20
1.073283322e-20
1.010019961e-20
9.513791034e-21
8.970198257e-21
8.466172553e-21
7.998722673e-21
7.565053152e-21
7.162688575e-21
6.789371031e-21
6.443056578e-21
6.121748728e-21
5.823545706e-21
5.546648776e-21
5.289517459e-21
5.050818943e-21
4.829367902e-21
4.623946679e-21
4.433337667e-21
4.256403514e-21
4.092247507e-21
3.940146251e-21
3.799412218e-21
3.669230117e-21
3.548744752e-21
3.43723562e-21
3.334266218e-21
3.239560734e-21
3.152787106e-21
3.073417329e-21
3.000850541e-21
2.934574942e-21
2.874242917e-21
2.819695451e-21
2.771063257e-21
2.728596139e-21
2.691956536e-21
2.659909215e-21
2.631197459e-21
2.606125679e-21
2.586319207e-21
2.573444994e-21
2.565490123e-21
2.559660559e-21
6.57990748e-21
1.360827349e-20
1.632239668e-20
1.700802201e-20
1.803991691e-20
1.914923086e-20
2.034942705e-20
2.164325869e-20
2.303055317e-20
2.450848813e-20
2.607048177e-20
2.770587487e-20
2.93989144e-20
3.112839383e-20
3.286709959e-20
3.458189907e-20
3.623401811e-20
3.777976692e-20
3.91715576e-20
4.035921057e-20
4.12917676e-20
4.191958328e-20
4.219729595e-20
4.208703069e-20
4.156253407e-20
4.061336238e-20
3.925001008e-20
3.750928155e-20
3.546108569e-20
3.32160262e-20
3.093445712e-20
2.88360968e-20
2.721007197e-20
2.642482387e-20
2.693757234e-20
2.930363546e-20
3.41846953e-20
4.235635769e-20
5.471191932e-20
7.226257325e-20
9.612880499e-20
1.275243938e-19
1.677264234e-19
2.18034995e-19
2.797147137e-19
3.539254818e-19
4.41633723e-19
5.435169831e-19
6.598521766e-19
7.904059183e-19
9.34315703e-19
1.089987907e-18
1.255002393e-18
1.426061887e-18
1.598978501e-18
1.768743666e-18
1.929663585e-18
2.075598848e-18
2.200267613e-18
2.297640602e-18
2.362370652e-18
2.390278417e-18
2.378815333e-18
2.32750307e-18
2.238242598e-18
2.115484857e-18
1.966176071e-18
1.799514969e-18
1.626490884e-18
1.459276134e-18
1.310468006e-18
1.19226283e-18
1.115596592e-18
1.089371097e-18
1.11985225e-18
1.210348778e-18
1.36122156e-18
1.570229241e-18
1.833181575e-18
2.144811701e-18
2.499793707e-18
2.893748415e-18
3.324131764e-18
3.790810719e-18
4.29625569e-18
4.845215933e-18
5.443932434e-18
6.098868974e-18
6.815142744e-18
7.594726885e-18
8.434705022e-18
9.325716753e-18
1.025092028e-17
1.118558207e-17
1.209752319e-17
1.294835039e-17
1.369549194e-17
1.429475517e-17
1.47032671e-17
1.488240993e-17
1.480060886e-17
1.443575189e-17
1.377749429e-17
1.282975453e-17
1.16140229e-17
1.017367614e-17
8.579351615e-18
6.935136099e-18
5.386020762e-18
4.12731678e-18
3.416670278e-18
3.588396722e-18
5.069672131e-18
8.397655186e-18
1.423558299e-17
2.338531311e-17
3.685684536e-17
5.428177177e-17
9.649587618e-17
3.273792654e-17
2.153780596e-17
4.795376564e-20
5.504794819e-20
6.393375709e-20
7.436643559e-20
8.617373825e-20
9.920116886e-20
1.132659389e-19
1.281176107e-19
1.434433656e-19
1.588824615e-19
1.740641007e-19
1.886299857e-19
2.022661647e-19
2.147104408e-19
2.257659067e-19
2.352913807e-19
2.432026144e-19
2.494568021e-19
2.540523763e-19
2.570157098e-19
2.584031731e-19
2.582904522e-19
2.567752573e-19
2.539674252e-19
2.499909268e-19
2.449743356e-19
2.390523875e-19
2.323574667e-19
2.250214305e-19
2.171686501e-19
2.089184255e-19
2.003796228e-19
1.916535882e-19
1.828301181e-19
1.739906279e-19
1.652051309e-19
1.565354432e-19
1.48032903e-19
1.397414597e-19
1.316959334e-19
1.239248936e-19
1.164493045e-19
1.092851401e-19
1.024422955e-19
9.592690864e-20
8.974045111e-20
8.3881749e-20
7.834619267e-20
7.312746993e-20
6.821685659e-20
6.36046851e-20
5.927969242e-20
5.523025265e-20
5.144377043e-20
4.790771236e-20
4.460904282e-20
4.153508592e-20
3.867299951e-20
3.60104909e-20
3.353532474e-20
3.123591974e-20
2.910089715e-20
2.711958678e-20
2.528161652e-20
2.357733578e-20
2.199743195e-20
2.053328009e-20
1.917659437e-20
1.79197359e-20
1.675541252e-20
1.567694739e-20
1.467799795e-20
1.375276595e-20
1.289573237e-20
1.210184745e-20
1.136632351e-20
1.068482583e-20
1.005328652e-20
9.468033748e-21
8.92558068e-21
8.422725359e-21
7.956409852e-21
7.523883292e-21
7.122617052e-21
6.7503964e-21
6.405131085e-21
6.08485909e-21
5.787635762e-21
5.511694946e-21
5.255466007e-21
5.017649876e-21
4.797033427e-21
4.592420618e-21
4.402565024e-21
4.22635204e-21
4.06287053e-21
3.911422033e-21
3.77130156e-21
3.641704005e-21
3.521755325e-21
3.410750996e-21
3.308250815e-21
3.213995262e-21
3.12764025e-21
3.048659278e-21
2.976441783e-21
2.910487729e-21
2.850449683e-21
2.79617154e-21
2.747784143e-21
2.705531149e-21
2.669108658e-21
2.637216176e-21
2.608642467e-21
2.583616463e-21
2.56417586e-21
2.551260255e-21
2.542757048e-21
2.537827362e-21
7.893259978e-21
1.492746999e-20
1.766627984e-20
1.838447263e-20
1.945047293e-20
2.059389031e-20
2.182789366e-20
2.315545837e-20
2.45778457e-20
2.609365094e-20
2.76982945e-20
2.938298389e-20
3.11342309e-20
3.293306657e-20
3.475492432e-20
3.656941996e-20
3.834086127e-20
4.002868674e-20
4.158858916e-20
4.297369822e-20
4.413658248e-20
4.503148334e-20
4.561739215e-20
4.586127119e-20
4.574193878e-20
4.525409522e-20
4.441330048e-20
4.326163626e-20
4.187490155e-20
4.037072701e-20
3.891786477e-20
3.774564586e-20
3.715385627e-20
3.752234858e-20
3.932127162e-20
4.312121196e-20
4.960375301e-20
5.957027318e-20
7.394806529e-20
9.379041063e-20
1.202695918e-19
1.54659524e-19
1.983080648e-19
2.525957393e-19
3.188815667e-19
3.984325822e-19
4.923389187e-19
6.014123152e-19
7.260731666e-19
8.662269808e-19
1.021140264e-18
1.189320956e-18
1.368419847e-18
1.55516351e-18
1.745341316e-18
1.93385781e-18
2.114870276e-18
2.282012033e-18
2.428709012e-18
2.548574699e-18
2.635876618e-18
2.686039791e-18
2.696156518e-18
2.66543913e-18
2.595564228e-18
2.490842878e-18
2.35818957e-18
2.206868239e-18
2.048033618e-18
1.894081411e-18
1.757848191e-18
1.651705783e-18
1.586637448e-18
1.571401928e-18
1.611908497e-18
1.710899845e-18
1.867996577e-18
2.080110421e-18
2.342189104e-18
2.648233693e-18
2.992482006e-18
3.370624545e-18
3.780858977e-18
4.224600426e-18
4.706664489e-18
5.234839492e-18
5.81881775e-18
6.468579407e-18
7.19235933e-18
7.994429302e-18
8.872930622e-18
9.818064996e-18
1.081090122e-17
1.182305647e-17
1.281736913e-17
1.374960045e-17
1.457100933e-17
1.523157629e-17
1.568351683e-17
1.588474669e-17
1.580195685e-17
1.54131837e-17
1.470999774e-17
1.369979696e-17
1.240873896e-17
1.088570398e-17
9.207240744e-18
7.48345618e-18
5.865229751e-18
4.553699432e-18
3.812556757e-18
3.983007779e-18
5.500830275e-18
8.914326182e-18
1.490228288e-17
2.428370736e-17
3.809773328e-17
5.595728094e-17
9.90775448e-17
3.354461656e-17
2.191129137e-17
6.583419568e-20
7.292945072e-20
8.177981477e-20
9.213631262e-20
1.038243101e-19
1.166922226e-19
1.305558284e-19
1.451658469e-19
1.602042043e-19
1.753091458e-19
1.901041676e-19
2.042319864e-19
2.173763946e-19
2.292805034e-19
2.397493985e-19
2.486507157e-19
2.55904867e-19
2.614793139e-19
2.653779414e-19
2.67637216e-19
2.683185921e-19
2.675067932e-19
2.653036468e-19
2.618265037e-19
2.572021579e-19
2.515649362e-19
2.45050976e-19
2.377966357e-19
2.299338288e-19
2.215892998e-19
2.128812925e-19
2.039197454e-19
1.948041424e-19
1.856243903e-19
1.764595419e-19
1.673790764e-19
1.584422111e-19
1.496993695e-19
1.411918722e-19
1.32953447e-19
1.250101493e-19
1.17381818e-19
1.100821184e-19
1.031198808e-19
9.649918844e-20
9.022056227e-20
8.428104377e-20
7.867521126e-20
7.339523207e-20
6.843171297e-20
6.377371033e-20
5.94094272e-20
5.532617955e-20
5.151095881e-20
4.795036249e-20
4.463104512e-20
4.153962202e-20
3.866302661e-20
3.598839086e-20
3.35033236e-20
3.119577809e-20
2.905427388e-20
2.706776523e-20
2.522582014e-20
2.351848516e-20
2.193641866e-20
2.04707507e-20
1.911318862e-20
1.785589525e-20
1.669158804e-20
1.561342998e-20
1.461509929e-20
1.369066709e-20
1.283464112e-20
1.204186425e-20
1.130757954e-20
1.062736513e-20
9.997186811e-21
9.413301366e-21
8.872254735e-21
8.370784177e-21
7.905862675e-21
7.474689937e-21
7.074769488e-21
6.703847401e-21
6.359862186e-21
6.040815387e-21
5.744785741e-21
5.469978086e-21
5.214848372e-21
4.978077261e-21
4.758473085e-21
4.554816111e-21
4.365874429e-21
4.190517265e-21
4.027854729e-21
3.877179386e-21
3.737799371e-21
3.608893024e-21
3.489593914e-21
3.379190592e-21
3.277258857e-21
3.183536103e-21
3.097683391e-21
3.01916252e-21
2.947366419e-21
2.881795559e-21
2.822112724e-21
2.768160754e-21
2.720064523e-21
2.678080088e-21
2.64186972e-21
2.610200957e-21
2.581802777e-21
2.557002899e-21
2.537364614e-21
2.524663639e-21
2.516908902e-21
2.511035119e-21
9.426454571e-21
1.647343987e-20
1.924343378e-20
1.999914251e-20
2.110351259e-20
2.228641733e-20
2.356073649e-20
2.493011447e-20
2.639685675e-20
2.796126362e-20
2.962063763e-20
3.136848429e-20
3.319370043e-20
3.508010439e-20
3.700607848e-20
3.894459253e-20
4.086345873e-20
4.272590533e-20
4.44914802e-20
4.611741696e-20
4.756062598e-20
4.878022686e-20
4.974057812e-20
5.04145825e-20
5.07872282e-20
5.08595658e-20
5.065360216e-20
5.021837907e-20
4.963759779e-20
4.903826043e-20
4.860001123e-20
4.856446806e-20
4.924469747e-20
5.103506365e-20
5.44221764e-20
5.999697794e-20
6.846729632e-20
8.06690292e-20
9.757335285e-20
1.202877082e-19
1.500483393e-19
1.88203698e-19
2.361871822e-19
2.954789797e-19
3.675541143e-19
4.538154706e-19
5.555080505e-19
6.736152505e-19
8.08736799e-19
9.609556917e-19
1.129699523e-18
1.313610225e-18
1.510431921e-18
1.716936044e-18
1.928895098e-18
2.141126408e-18
2.347614549e-18
2.541729911e-18
2.716542346e-18
2.865234805e-18
2.981594005e-18
3.060555843e-18
3.098748731e-18
3.094983898e-18
3.050619591e-18
2.969754821e-18
2.85920675e-18
2.728265674e-18
2.588218599e-18
2.451663661e-18
2.331638371e-18
2.240631281e-18
2.189572828e-18
2.186942837e-18
2.238122836e-18
2.345094173e-18
2.506529512e-18
2.718283153e-18
2.974261073e-18
3.267615613e-18
3.592169904e-18
3.943892782e-18
4.322195365e-18
4.730775604e-18
5.177797099e-18
5.675257364e-18
6.237550073e-18
6.879321749e-18
7.612856523e-18
8.445266475e-18
9.375843105e-18
1.039390344e-17
1.147747863e-17
1.259309311e-17
1.369680793e-17
1.473650612e-17
1.565525531e-17
1.639537771e-17
1.690279035e-17
1.713110755e-17
1.704512312e-17
1.66234733e-17
1.586067263e-17
1.476901851e-17
1.338103345e-17
1.175285831e-17
9.968674253e-18
8.14613113e-18
6.443324599e-18
5.068306613e-18
4.291786353e-18
4.462810211e-18
6.026749994e-18
9.544588166e-18
1.571079693e-17
2.536692617e-17
3.956955131e-17
5.794059871e-17
1.020871534e-16
3.448560253e-17
2.235779701e-17
8.788428622e-20
9.496738891e-20
1.037575932e-19
1.139990119e-19
1.255169594e-19
1.38160845e-19
1.517488839e-19
1.660301895e-19
1.806851381e-19
1.953472864e-19
2.096382468e-19
2.231982448e-19
2.357133801e-19
2.469293511e-19
2.566585195e-19
2.647752866e-19
2.712102343e-19
2.759393207e-19
2.789771361e-19
2.803684795e-19
2.801846155e-19
2.785174485e-19
2.754770176e-19
2.711862124e-19
2.657780875e-19
2.593906435e-19
2.521642269e-19
2.442370253e-19
2.357432518e-19
2.268098716e-19
2.175558399e-19
2.080900711e-19
1.985115725e-19
1.889083752e-19
1.79358261e-19
1.69928338e-19
1.606760957e-19
1.516493797e-19
1.428875887e-19
1.344218786e-19
1.262763771e-19
1.184684992e-19