/*--------------------------------*- C++ -*----------------------------------*\
  =========                 |
  \\      /  F ield         | OpenFOAM: The Open Source CFD Toolbox
   \\    /   O peration     | Website:  https://openfoam.org
    \\  /    A nd           | Version:  6
     \\/     M anipulation  |
\*---------------------------------------------------------------------------*/
FoamFile
{
    version     2.0;
    format      ascii;
    class       surfaceScalarField;
    location    "0.0032";
    object      phi;
}
// * * * * * * * * * * * * * * * * * * * * * * * * * * * * * * * * * * * * * //

dimensions      [0 3 -1 0 0 0 0];

internalField   nonuniform List<scalar> 
1150
(
-6.764673743e-19
-2.117408636e-19
-7.173127975e-19
-2.446391579e-19
-7.895369173e-19
-3.029782037e-19
-8.986343607e-19
-3.813228155e-19
-1.051563882e-18
-4.762762515e-19
-1.256798427e-18
-5.860028057e-19
-1.52353382e-18
-7.095254329e-19
-1.860079794e-18
-8.458039808e-19
-2.270733478e-18
-9.924796373e-19
-2.749956917e-18
-1.144101661e-18
-3.270849842e-18
-1.289837403e-18
-3.761721902e-18
-1.411602942e-18
-4.059605685e-18
-1.48717204e-18
-3.850310134e-18
-1.511218129e-18
-2.81530595e-18
-1.561927096e-18
-5.253047736e-19
-1.825645081e-18
1.868459531e-19
-1.504949752e-18
1.297525123e-19
1.81385166e-20
1.290073179e-19
1.507336024e-20
4.748976704e-20
1.506056246e-19
1.496528607e-20
1.045090585e-19
-4.838965296e-21
8.550240569e-20
-1.502077822e-20
6.697157917e-20
-3.495069349e-20
7.065588743e-20
-6.365493336e-20
6.758969518e-20
-1.243882111e-19
7.327537447e-20
-5.807173082e-20
-1.338319036e-19
1.683205816e-20
-2.024475286e-19
-2.532911435e-19
8.479755075e-19
2.532911433e-19
-7.789659201e-19
-1.603711445e-19
-8.233918095e-19
-1.812943374e-19
-9.022185296e-19
-2.175368195e-19
-1.021961399e-18
-2.642065064e-19
-1.190939086e-18
-3.172656167e-19
-1.419411868e-18
-3.734049226e-19
-1.718839074e-18
-4.297779693e-19
-2.100271992e-18
-4.837077604e-19
-2.571247605e-18
-5.323624464e-19
-3.130648913e-18
-5.725150749e-19
-3.760747852e-18
-6.005782169e-19
-4.416855775e-18
-6.138830196e-19
-5.018112435e-18
-6.157161618e-19
-5.454809816e-18
-6.295803262e-19
-5.593361097e-18
-7.267697671e-19
-5.269270055e-18
-1.021815182e-18
-3.007518515e-18
-1.289156441e-18
5.310658658e-32
-4.026481219e-19
2.154910131e-19
-5.136549497e-19
1.393200721e-21
3.64708947e-19
-4.041366761e-21
1.09943331e-19
-2.336979173e-20
1.048426767e-19
-1.133647006e-20
5.494026189e-20
-3.801688574e-20
9.732536201e-20
-5.796925396e-20
8.75628783e-20
-2.824469198e-19
2.977530403e-19
-6.123009157e-32
-1.002759018e-18
-5.927135872e-19
-1.578292389e-19
-4.715447909e-19
6.593412367e-19
-1.677867569e-33
-8.485702328e-19
-1.067430911e-19
-8.93067348e-19
-1.160135512e-19
-9.7203821e-19
-1.305633829e-19
-1.092227018e-18
-1.457732859e-19
-1.262322957e-18
-1.567631141e-19
-1.493128303e-18
-1.58541027e-19
-1.796920457e-18
-1.461331366e-19
-2.185956624e-18
-1.148358382e-19
-2.669740667e-18
-6.076688444e-20
-3.250904084e-18
1.819161965e-20
-3.920563953e-18
1.211587452e-19
-4.65699143e-18
2.436573124e-19
-5.438195811e-18
3.805113447e-19
-6.288331376e-18
5.383314705e-19
-7.348415588e-18
7.640483851e-19
-8.917230734e-18
1.149029914e-18
-1.081000452e-17
1.439004693e-18
-1.055468989e-17
4.461050684e-19
-8.509866535e-18
5.964824872e-19
-4.924520148e-19
-3.612743643e-19
-2.774701736e-19
-1.050496011e-19
-7.32722063e-20
-9.934617784e-20
3.104862993e-20
-4.938310201e-20
2.205487832e-19
-9.213912378e-20
3.913005077e-19
-8.318589255e-20
5.430975292e-18
-2.948191725e-19
2.394997103e-18
1.216385761e-18
1.119755044e-18
2.233470772e-19
9.447442156e-19
-5.54451329e-19
3.490087215e-33
-8.856094727e-19
-5.654813154e-20
-9.264738074e-19
-5.549703682e-20
-9.98800528e-19
-5.080351322e-20
-1.108760039e-18
-3.805845173e-20
-1.264314592e-18
-1.160609411e-20
-1.475412335e-18
3.506052198e-20
-1.75339884e-18
1.088675251e-19
-2.109610027e-18
2.164081901e-19
-2.552576043e-18
3.625507909e-19
-3.0831809e-18
5.480253404e-19
-3.687000159e-18
7.658251778e-19
-4.323872263e-18
9.973046032e-19
-4.918151466e-18
1.212504295e-18
-5.363477476e-18
1.387978734e-18
-5.523193714e-18
1.57009306e-18
-5.213636016e-18
1.897866413e-18
-2.974431621e-18
1.587442745e-18
5.433478717e-32
-1.45901498e-20
2.189255958e-19
-9.01287824e-21
2.852347967e-21
-1.452329869e-19
-3.438597869e-21
-9.876280676e-20
-2.330913065e-20
-7.9467327e-20
-1.170739173e-20
-6.096235148e-20
-3.882613821e-20
-6.501146442e-20
-5.941237189e-20
-6.254992663e-20
-2.853807876e-19
-6.883567385e-20
-6.246406273e-32
1.386272228e-19
-6.034963748e-19
2.05144455e-19
-4.388629092e-19
-8.272732103e-19
-2.528460759e-19
-8.934251787e-19
-1.452154989e-20
-9.273519927e-19
-5.442616251e-21
-9.86987041e-19
1.413488499e-20
-1.077191285e-18
4.833074645e-20
-1.204197699e-18
1.032340761e-19
-1.37578955e-18
1.863437093e-19
-1.600808341e-18
3.059241944e-19
-1.887970991e-18
4.699123081e-19
-2.243355523e-18
6.838598819e-19
-2.665253426e-18
9.471022546e-19
-3.133286846e-18
1.245840009e-18
-3.585313704e-18
1.541120864e-18
-3.870633463e-18
1.750394699e-18
-3.686787128e-18
1.730307676e-18
-2.718537652e-18
1.349378029e-18
-5.019482942e-19
4.733495252e-19
1.903943199e-19
1.706178399e-19
1.322646275e-19
4.351782075e-20
1.317540563e-19
-8.527454805e-21
4.932252832e-20
-6.282290628e-20
1.585688189e-20
-6.530075826e-20
-4.804155211e-21
-5.879948333e-20
-1.575650458e-20
-4.999777732e-20
-3.636460042e-20
-4.436792532e-20
-6.569811921e-20
-3.318775446e-20
-1.269664603e-19
-7.547049531e-21
-6.017012367e-20
7.185790482e-20
1.413513174e-20
1.308534976e-19
-2.528460761e-19
1.155472497e-19
-5.076185698e-19
-8.780473498e-19
1.602469051e-20
-9.02663523e-19
3.012715462e-20
-9.452584468e-19
5.883811021e-20
-1.00884173e-18
1.057972568e-19
-1.097149105e-18
1.769755551e-19
-1.214776987e-18
2.800288576e-19
-1.366825693e-18
4.235597183e-19
-1.558238718e-18
6.159103423e-19
-1.792644322e-18
8.629640659e-19
-2.070238158e-18
1.164119631e-18
-2.382886335e-18
1.504819672e-18
-2.700412168e-18
1.841860432e-18
-2.926361279e-18
2.072281702e-18
-2.811861025e-18
1.959770455e-18
-1.288613069e-18
9.018502885e-19
-3.436662974e-20
7.917188999e-33
6.329430106e-20
7.294382131e-20
8.021935182e-20
2.657743798e-20
7.745860463e-20
-5.791255508e-21
4.684467637e-20
-3.222493786e-20
2.235815679e-20
-4.081534108e-20
3.997550718e-21
-4.043005893e-20
-1.012665249e-20
-3.585960855e-20
-2.518442953e-20
-2.928917252e-20
-4.005741424e-20
-1.828615549e-20
-4.756150583e-20
-1.312103851e-23
-1.174530907e-21
2.549826043e-20
1.112211302e-19
1.850176286e-20
3.239880543e-19
-9.718534043e-20
1.698162462e-19
-8.474397232e-19
3.354098103e-20
-8.616890237e-19
4.93594627e-20
-8.853164865e-19
8.085606546e-20
-9.192271694e-19
1.309480403e-19
-9.642746088e-19
2.048233429e-19
-1.021277604e-18
3.092716361e-19
-1.090671382e-18
4.519125647e-19
-1.172152355e-18
6.399674576e-19
-1.264612109e-18
8.781482644e-19
-1.367401881e-18
1.165116352e-18
-1.485317693e-18
1.487825492e-18
-1.641745958e-18
1.812541773e-18
-1.876892159e-18
2.068241419e-18
-1.985330648e-18
2.078458708e-18
-1.75744238e-18
1.068371916e-18
-8.811016471e-20
-1.29408524e-19
1.692791775e-20
-3.211233795e-20
4.785065848e-20
-4.363938473e-21
5.102492234e-20
-8.982967752e-21
3.825427326e-20
-1.946579725e-20
2.274343898e-20
-2.53056937e-20
8.568001041e-21
-2.624729353e-20
-3.55621642e-21
-2.372277494e-20
-1.418141254e-20
-1.864383017e-20
-2.178437985e-20
-1.066093235e-20
-2.205012443e-20
2.772403466e-22
-8.171028472e-21
1.165380859e-20
-4.465973113e-21
1.483474615e-20
-1.214025721e-19
1.978355208e-20
5.666575941e-20
-8.10406281e-19
3.837468905e-20
-8.147282275e-19
5.277211353e-20
-8.202259918e-19
8.103915848e-20
-8.258187001e-19
1.251473395e-19
-8.296320055e-19
1.888811033e-19
-8.288587182e-19
2.772065346e-19
-8.192630002e-19
3.954908328e-19
-7.945377066e-19
5.48220849e-19
-7.453563128e-19
7.366900735e-19
-6.579103793e-19
9.548400514e-19
-5.114528154e-19
1.182029601e-18
-2.770084142e-19
1.371265438e-18
-2.737768531e-20
1.4324708e-18
2.361363101e-19
1.217455531e-18
2.022633072e-19
-4.3609656e-33
7.252969929e-20
3.074296229e-22
4.467631728e-20
-4.275309019e-21
4.32316292e-20
-2.935245433e-21
4.054209281e-20
-6.309509907e-21
3.241437683e-20
-1.134937573e-20
2.180183915e-20
-1.46959385e-20
1.109251959e-20
-1.553284135e-20
1.522728394e-21
-1.414253116e-20
-6.198514729e-21
-1.090691745e-20
-1.084620714e-20
-5.992189186e-21
-1.067355617e-20
1.301147274e-22
-4.990090914e-21
6.002124199e-21
4.828328512e-22
9.398858765e-21
8.071858805e-21
1.222633341e-20
1.437520546e-20
-7.753396739e-19
3.262475779e-20
-7.715900084e-19
4.308894428e-20
-7.624193813e-19
6.333095099e-20
-7.452519052e-19
9.424001718e-20
-7.162224044e-19
1.377827722e-19
-6.700285542e-19
1.965006208e-19
-5.99590692e-19
2.728718533e-19
-4.958491401e-19
3.682456155e-19
-3.476411876e-19
4.808424496e-19
-1.413540465e-19
6.017833647e-19
1.409652933e-19
7.070606914e-19
5.190724398e-19
7.416229725e-19
7.712965728e-19
5.90472473e-19
9.108768707e-19
6.852303824e-20
1.392270586e-19
-1.740508464e-32
6.794696057e-20
7.157521305e-20
4.601638082e-20
1.764075416e-20
3.985736469e-20
3.207752182e-21
3.550222694e-20
-1.970235695e-21
2.906781404e-20
-4.926788317e-21
2.096493628e-20
-6.598303101e-21
1.248282975e-20
-7.049165275e-21
4.758342129e-21
-6.409867413e-21
-1.283786471e-21
-4.849322478e-21
-4.723903216e-21
-2.529298673e-21
-4.801546696e-21
2.368942727e-22
-1.593356348e-21
2.828208411e-21
3.31030751e-21
4.531728374e-21
1.022073083e-20
5.34712813e-21
4.091107217e-21
-7.49027909e-19
1.974441325e-20
-7.401459334e-19
2.473358359e-20
-7.217573392e-19
3.404212384e-20
-6.905132786e-19
4.745820379e-20
-6.416022427e-19
6.498035619e-20
-5.687239957e-19
8.65480965e-20
-4.642124612e-19
1.117519155e-19
-3.201080105e-19
1.395072372e-19
-1.313513127e-19
1.676713534e-19
9.6541727e-20
1.926125354e-19
3.313884066e-19
2.087396151e-19
4.891055846e-19
2.081409355e-19
5.092605627e-19
1.804443033e-19
-7.710017778e-21
1.139227592e-19
-5.752588134e-20
2.317695343e-34
1.401250174e-20
2.344672806e-23
3.158337886e-20
5.506593942e-23
3.467937684e-20
9.583052178e-23
3.254567433e-20
1.473973515e-22
2.739629928e-20
2.084713429e-22
2.051407412e-20
2.754563055e-22
1.312212761e-20
3.412161818e-22
6.318887076e-21
4.006036294e-22
1.03623733e-21
4.510356201e-22
-1.957710274e-21
4.915819455e-22
-2.210232562e-21
5.237023237e-22
1.101636125e-22
5.455774569e-22
4.125707275e-21
5.508241064e-22
8.964709911e-21
5.398253495e-22
5.087395308e-22
-7.357424381e-19
3.93509125e-21
-7.252470354e-19
3.061102451e-21
-7.041313153e-19
7.610079084e-22
-6.690602785e-19
-4.187396795e-21
-6.152991357e-19
-1.366584412e-20
-5.367065382e-19
-3.024463694e-20
-4.258931338e-19
-5.710771161e-20
-2.753619072e-19
-9.763256339e-20
-8.079095803e-20
-1.54132958e-19
1.511471724e-19
-2.247513644e-19
3.866098806e-19
-2.963341215e-19
5.391941457e-19
-3.294318975e-19
5.462576401e-19
-2.297763362e-19
6.204002337e-21
1.61891639e-19
-5.750243461e-20
1.785566595e-32
1.404412095e-20
-7.153652107e-20
3.162414344e-20
-1.75419746e-20
3.473094367e-20
-3.028823774e-21
3.260674832e-20
2.252938794e-21
2.746328424e-20
5.337840839e-21
2.0579834e-20
7.149370685e-21
1.318151505e-20
7.738211382e-21
6.369319066e-21
7.222665768e-21
1.076783656e-21
5.765144206e-21
-1.925589895e-21
3.52791081e-21
-2.188357429e-21
8.242811527e-22
1.15410262e-22
-1.725611735e-21
4.114708519e-21
-3.41350395e-21
8.933624091e-21
-4.257519177e-21
-3.065372684e-21
-7.367548879e-19
-1.054811108e-20
-7.281735006e-19
-1.652378316e-20
-7.10828289e-19
-2.888321297e-20
-6.821728303e-19
-4.966017551e-20
-6.385568112e-19
-8.229942875e-20
-5.751249293e-19
-1.315241486e-19
-4.855907049e-19
-2.03086879e-19
-3.622085472e-19
-3.030901376e-19
-1.9592587e-19
-4.363818955e-19
2.361574767e-20
-6.032064854e-19
3.095221276e-19
-7.928928618e-19
6.748616757e-19
-9.730191381e-19
8.900884949e-19
-1.07394892e-18
9.566182593e-19
-9.761318058e-19
1.392891973e-19
5.018664178e-33
6.803866736e-20
-3.012888701e-22
4.613729425e-20
4.336089731e-21
4.001270621e-20
3.076046553e-21
3.569165035e-20
6.559389217e-21
2.927481406e-20
1.173854289e-20
2.116867468e-20
1.524658929e-20
1.266596945e-20
1.624327408e-20
4.911797491e-21
1.499167977e-20
-1.160449737e-21
1.186566491e-20
-4.629219547e-21
7.029394326e-21
-4.738250314e-21
9.66525877e-22
-1.57248195e-21
-4.862421975e-21
3.270693284e-21
-8.249122917e-21
1.012577058e-20
-1.109026231e-20
-1.33184575e-20
-7.50336958e-19
-2.009170351e-20
-7.466404364e-19
-2.944396669e-20
-7.385455211e-19
-4.844594417e-20
-7.249882525e-19
-7.963726265e-20
-7.04399023e-19
-1.274565518e-19
-6.746380165e-19
-1.980248524e-19
-6.326685815e-19
-2.988491096e-19
-5.741809501e-19
-4.381388119e-19
-4.93026411e-19
-6.233367136e-19
-3.802711576e-19
-8.583245724e-19
-2.223180841e-19
-1.138586782e-18
-5.193656922e-22
-1.443162945e-18
1.955356409e-19
-1.719222836e-18
3.326004652e-19
-1.815871547e-18
2.023315866e-19
-1.000260552e-18
7.267604604e-20
1.293402446e-19
4.487725111e-20
3.211650991e-20
4.349604891e-20
4.437389784e-21
4.087080408e-20
9.160183342e-21
3.278286047e-20
1.981567807e-20
2.216535949e-20
2.586109895e-20
1.141437517e-20
2.700244292e-20
1.785782616e-21
2.464114176e-20
-5.996720322e-21
1.967374098e-20
-1.0692088e-20
1.176065755e-20
-1.056719817e-20
8.623932802e-22
-4.959182892e-21
-1.047296842e-20
4.295538786e-22
-1.360160146e-20
7.897575419e-21
-1.853704766e-20
-5.553797955e-20
-7.722378491e-19
-2.228883558e-20
-7.753517347e-19
-3.267859554e-20
-7.800511651e-19
-5.371488528e-20
-7.872041631e-19
-8.806356155e-20
-7.979967232e-19
-1.404038041e-19
-8.140448424e-19
-2.171704605e-19
-8.372604873e-19
-3.262201336e-19
-8.69820759e-19
-4.760928116e-19
-9.145477746e-19
-6.743753708e-19
-9.767151129e-19
-9.243323963e-19
-1.069626309e-18
-1.218144542e-18
-1.228448975e-18
-1.522934116e-18
-1.508898119e-18
-1.750234047e-18
-1.723618534e-18
-1.682738556e-18
-1.668713604e-18
-7.393091033e-19
-8.789136654e-20
-7.047288258e-33
1.719813094e-20
-7.299398093e-20
4.821884247e-20
-2.660491419e-20
5.152629885e-20
5.855742142e-21
3.882828133e-20
3.248689159e-20
2.330670346e-20
4.138167012e-20
9.053074051e-21
4.127410887e-20
-3.18161821e-21
3.689828747e-20
-1.390980375e-20
3.043142743e-20
-2.159035228e-20
1.944640242e-20
-2.190255988e-20
1.197945686e-21
-8.087815937e-21
-2.425310153e-20
-4.505892348e-21
-1.715387788e-20
-1.2169558e-19
9.868776582e-20
-1.685646226e-19
-7.965828045e-19
-1.629670367e-20
-8.070774338e-19
-2.522094471e-20
-8.25586459e-19
-4.337631941e-20
-8.549839291e-19
-7.317203931e-20
-8.992990327e-19
-1.187520712e-19
-9.639678119e-19
-1.857418643e-19
-1.055728242e-18
-2.809251574e-19
-1.182328566e-18
-4.115227107e-19
-1.351845732e-18
-5.83615825e-19
-1.571105757e-18
-7.988770728e-19
-1.841389102e-18
-1.048286554e-18
-2.145395533e-18
-1.300673492e-18
-2.404533532e-18
-1.484726403e-18
-2.399379944e-18
-1.471501226e-18
-1.115533859e-18
-1.147145944e-18
-3.419799118e-20
-4.127804222e-19
6.358719765e-20
-1.707864785e-19
8.067949865e-20
-4.368244926e-20
7.815744822e-20
8.333006425e-21
4.772305974e-20
6.291198259e-20
2.319914218e-20
6.589473993e-20
4.677252696e-21
5.980687335e-20
-9.648478289e-21
5.124094319e-20
-2.489482871e-20
4.567055491e-20
-3.983880895e-20
3.446193807e-20
-4.735360703e-20
8.739705708e-21
-9.885922914e-22
-7.059917738e-20
1.113357513e-19
-1.294536527e-19
3.234442445e-19
-1.134057245e-19
5.090188076e-19
-8.170361221e-19
-2.898287531e-21
-8.34074306e-19
-8.164318007e-21
-8.647870963e-19
-1.914048642e-20
-9.137581092e-19
-3.766856233e-20
-9.874103754e-19
-6.670995075e-20
-1.094334754e-18
-1.101753713e-19
-1.245079462e-18
-1.726862946e-19
-1.451387661e-18
-2.591067442e-19
-1.724153114e-18
-3.735153889e-19
-2.068757027e-18
-5.173243627e-19
-2.474496284e-18
-6.862771749e-19
-2.891665806e-18
-8.67224234e-19
-3.184371062e-18
-1.038952699e-18
-3.068629263e-18
-1.190216945e-18
-2.262597502e-18
-1.381682218e-18
-2.971016602e-19
-1.770497145e-18
1.906912265e-19
-1.512903538e-18
1.326949544e-19
1.429324316e-20
1.327364246e-19
8.285644636e-21
5.070581705e-20
1.448975701e-19
1.711127564e-20
9.947318937e-20
-3.888677378e-21
8.081304908e-20
-1.521886666e-20
6.257117344e-20
-3.610344558e-20
6.662564588e-20
-6.556104136e-20
6.395298842e-20
-1.266924902e-19
6.988460438e-20
-5.98430676e-20
-1.374438652e-19
1.499143324e-20
-2.042881535e-19
-2.541311733e-19
8.453129936e-19
2.541311731e-19
-8.28011161e-19
1.571828166e-20
-8.495526821e-19
1.559447267e-20
-8.886386959e-19
1.468931368e-20
-9.509708351e-19
1.193161481e-20
-1.044547473e-18
5.947654109e-21
-1.180014709e-18
-4.869783401e-21
-1.370442863e-18
-2.230419209e-20
-1.630366433e-18
-4.818362848e-20
-1.973543394e-18
-8.411784045e-20
-2.408543236e-18
-1.310180997e-19
-2.931334421e-18
-1.885668449e-19
-3.514688857e-18
-2.554659569e-19
-4.097751898e-18
-3.331609973e-19
-4.589426512e-18
-4.386451067e-19
-4.866843323e-18
-6.313758967e-19
-4.774251362e-18
-1.008225771e-18
-2.8040674e-18
-1.321930134e-18
5.675854608e-32
-4.151764709e-19
2.202997809e-19
-5.739428266e-19
5.281436083e-21
3.599001792e-19
-1.548864652e-21
1.063070423e-19
-2.213055294e-20
1.014085543e-19
-1.116439431e-20
5.163550275e-20
-3.877610304e-20
9.426327994e-20
-5.96294253e-20
8.481224603e-20
-2.849723905e-19
2.952275696e-19
-6.323829882e-32
-1.059607938e-18
-6.71778538e-19
-1.139031122e-19
-5.211155069e-19
5.913041677e-19
-2.532895395e-33
-8.256942264e-19
3.644844023e-20
-8.48915053e-19
4.196893013e-20
-8.910816926e-19
5.210436832e-20
-9.582543246e-19
6.660503177e-20
-1.058929253e-18
8.58096773e-20
-1.204433758e-18
1.106020215e-19
-1.408704526e-18
1.422749736e-19
-1.687368764e-18
1.823064766e-19
-2.055649277e-18
2.318851547e-19
-2.524793353e-18
2.912396384e-19
-3.097659949e-18
3.58839938e-19
-3.767004049e-18
4.314729276e-19
-4.526692335e-18
5.07783889e-19
-5.414837307e-18
6.011801558e-19
-6.578493406e-18
7.670430489e-19
-8.30628989e-18
1.095673696e-18
-1.037856881e-17
1.351193227e-18
-1.021186879e-17
4.006470077e-19
-8.375665975e-18
5.856719158e-19
-4.873913004e-19
-3.598596225e-19
-2.747755051e-19
-1.062969677e-19
-7.190360433e-20
-1.014486827e-19
3.146338275e-20
-5.17193645e-20
2.201010157e-19
-9.438049397e-20
3.89865498e-19
-8.49532663e-20
5.384903396e-18
-2.953463945e-19
2.312804721e-18
1.153642082e-18
1.004899204e-18
2.673707053e-19
8.746640543e-19
-7.311824914e-19
2.766728348e-33
-8.087274648e-19
5.59081975e-20
-8.305597134e-19
6.650736504e-20
-8.700599054e-19
8.656642434e-20
-9.328176275e-19
1.165330013e-19
-1.026659995e-18
1.582910914e-19
-1.162085903e-18
2.149622813e-19
-1.352030767e-18
2.906825216e-19
-1.611012285e-18
3.899773717e-19
-1.952850224e-18
5.16612386e-19
-2.386330892e-18
6.713985131e-19
-2.907685958e-18
8.489728967e-19
-3.490000031e-18
1.034168091e-18
-4.072482602e-18
1.202754823e-18
-4.563355667e-18
1.339571062e-18
-4.838944251e-18
1.501087194e-18
-4.760420612e-18
1.845822107e-18
-2.780964075e-18
1.513874633e-18
5.423135563e-32
-1.411125438e-20
2.203403376e-19
-8.070191544e-21
5.250953948e-21
-1.447822853e-19
-1.599067615e-21
-9.944132389e-20
-2.21742863e-20
-8.086327775e-20
-1.11977466e-20
-6.26929528e-20
-3.879990929e-20
-6.677925324e-20
-5.96072299e-20
-6.412637703e-20
-2.848535657e-19
-7.008708696e-20
-6.280245549e-32
1.371876426e-19
-6.034062106e-19
2.041126043e-19
-4.872948968e-19
-8.074905725e-19
-2.543026348e-19
-7.78420482e-19
-7.961361246e-19
-8.278642426e-19
-8.77918678e-19
-9.524038499e-19
-1.059545931e-18
-1.209632572e-18
-1.414290892e-18
-1.68459386e-18
-2.02635329e-18
-2.429642218e-18
-2.845554334e-18
-3.138467897e-18
-3.023829676e-18
-2.225936244e-18
-2.604361113e-19
1.908732153e-19
1.327284187e-19
1.32676813e-19
5.05919156e-20
1.697897853e-20
-4.003961425e-21
-1.528404695e-20
-3.614703308e-20
-6.556793994e-20
-1.266274054e-19
-5.976239416e-20
1.516698245e-20
-2.54302635e-19
)
;

boundaryField
{
    lowerWall
    {
        type            calculated;
        value           nonuniform 0();
    }
    atmosphere
    {
        type            calculated;
        value           nonuniform List<scalar> 
20
(
6.635255085e-19
7.649096045e-19
8.344804553e-19
8.726369366e-19
8.82593617e-19
8.700931996e-19
8.426915303e-19
8.087326023e-19
7.761727833e-19
7.514657808e-19
7.387018672e-19
7.391495473e-19
7.512514028e-19
7.710783476e-19
7.931697782e-19
8.116219494e-19
8.212152613e-19
8.18381e-19
8.018336899e-19
7.72770811e-19
)
;
    }
    rightWall
    {
        type            empty;
        value           nonuniform 0();
    }
    leftWall
    {
        type            empty;
        value           nonuniform 0();
    }
    frontAndBack
    {
        type            calculated;
        value           nonuniform 0();
    }
    procBoundary2to0
    {
        type            processor;
        value           nonuniform List<scalar> 
30
(
2.546329552e-19
2.990817218e-19
3.781765876e-19
4.854134155e-19
6.176057311e-19
7.738996092e-19
9.545707712e-19
1.159479894e-18
1.38597818e-18
1.625560634e-18
1.858246356e-18
2.042804872e-18
2.101739516e-18
1.909505881e-18
1.375013611e-18
4.444924841e-19
1.667459026e-19
3.892081507e-20
-1.436419971e-20
-6.910792615e-20
-7.198297533e-20
-6.568214801e-20
-5.677554234e-20
-5.072289415e-20
-3.887277421e-20
-1.247551138e-20
6.755538816e-20
1.275548129e-19
1.123400826e-19
-5.088032848e-19
)
;
    }
    procBoundary2to3
    {
        type            processor;
        value           nonuniform List<scalar> 
20
(
2.202527666e-21
1.966099217e-19
1.616186893e-19
1.966277873e-19
1.937773564e-21
-3.53426133e-19
-8.230456594e-21
5.038435989e-20
2.052675079e-20
1.256962923e-20
1.252598012e-20
2.039093339e-20
5.013381437e-20
-8.655242373e-21
-3.541321038e-19
7.573050877e-22
1.948465285e-19
1.599680525e-19
1.947543037e-19
6.689207349e-22
)
;
    }
    procBoundary2to4
    {
        type            processor;
        value           nonuniform List<scalar> 
30
(
7.113332208e-20
8.530228191e-20
1.122732586e-19
1.529610435e-19
2.102777693e-19
2.889745471e-19
3.952845888e-19
5.361810221e-19
7.175877052e-19
9.408933724e-19
1.196195049e-18
1.450414143e-18
1.628664592e-18
1.596664545e-18
1.234466524e-18
4.391949165e-19
1.710770819e-19
4.399323133e-20
-8.048951359e-21
-6.271316209e-20
-6.582992988e-20
-5.987237828e-20
-5.140747482e-20
-4.59040531e-20
-3.469600655e-20
-8.967477061e-21
7.035234299e-20
1.291891611e-19
1.13014296e-19
-5.093035228e-19
)
;
    }
}


// ************************************************************************* //
