/*--------------------------------*- C++ -*----------------------------------*\
  =========                 |
  \\      /  F ield         | OpenFOAM: The Open Source CFD Toolbox
   \\    /   O peration     | Website:  https://openfoam.org
    \\  /    A nd           | Version:  6
     \\/     M anipulation  |
\*---------------------------------------------------------------------------*/
FoamFile
{
    version     2.0;
    format      ascii;
    class       volVectorField;
    location    "0.0032";
    object      U;
}
// * * * * * * * * * * * * * * * * * * * * * * * * * * * * * * * * * * * * * //

dimensions      [0 1 -1 0 0 0 0];

internalField   nonuniform List<vector> 
600
(
(0 -9.953778965e-11 -3.541367113e-11)
(0 -1.034542826e-10 -4.123759329e-11)
(0 -1.117751789e-10 -5.161850271e-11)
(0 -1.251523591e-10 -6.568599191e-11)
(0 -1.44521087e-10 -8.296506105e-11)
(0 -1.710577083e-10 -1.032753768e-10)
(0 -2.06130375e-10 -1.265911459e-10)
(0 -2.511370348e-10 -1.528541199e-10)
(0 -3.07179781e-10 -1.817126885e-10)
(0 -3.744580045e-10 -2.121234386e-10)
(0 -4.511058746e-10 -2.417489948e-10)
(0 -5.308024348e-10 -2.661403462e-10)
(0 -5.97733288e-10 -2.780814287e-10)
(0 -6.164652153e-10 -2.684739536e-10)
(0 -5.219374516e-10 -2.327370963e-10)
(0 -1.979422843e-10 -1.616494945e-10)
(0 1.401344648e-11 -1.25059427e-11)
(0 2.374488489e-11 -1.558672384e-12)
(0 1.940698725e-11 2.207816995e-12)
(0 1.323728136e-11 1.647851632e-11)
(0 4.684128981e-12 1.323690253e-11)
(0 7.594740574e-13 1.133884152e-11)
(0 -1.489480763e-12 9.281034122e-12)
(0 -3.747860377e-12 9.103408614e-12)
(0 -7.39542201e-12 7.984685201e-12)
(0 -1.410323583e-11 6.431316445e-12)
(0 -1.368449564e-11 -1.510404687e-11)
(0 -3.092975449e-12 -2.47501756e-11)
(0 -1.773443139e-11 -8.425506206e-12)
(0 -1.883164618e-11 5.715708208e-11)
(0 -1.14746569e-10 -2.810581104e-11)
(0 -1.190007289e-10 -3.21471056e-11)
(0 -1.280560708e-10 -3.926161784e-11)
(0 -1.426845431e-10 -4.868859558e-11)
(0 -1.639991697e-10 -5.988304578e-11)
(0 -1.934101029e-10 -7.247251261e-11)
(0 -2.325882846e-10 -8.618748891e-11)
(0 -2.8330809e-10 -1.00771792e-10)
(0 -3.471153254e-10 -1.158688768e-10)
(0 -4.247349403e-10 -1.308899972e-10)
(0 -5.151056727e-10 -1.449172969e-10)
(0 -6.139526565e-10 -1.568733145e-10)
(0 -7.120862472e-10 -1.666345797e-10)
(0 -7.945954052e-10 -1.784629896e-10)
(0 -8.452663353e-10 -2.078848896e-10)
(0 -8.516209033e-10 -2.795416356e-10)
(0 -8.504671488e-10 -3.996983999e-10)
(0 5.546801135e-24 1.360388745e-12)
(0 1.616182597e-11 1.130502017e-12)
(0 1.626631603e-11 3.86485929e-11)
(0 -1.986124529e-13 1.608392921e-11)
(0 -2.055836885e-12 1.427588117e-11)
(0 -2.602969633e-12 9.143388089e-12)
(0 -3.701501683e-12 1.25985937e-11)
(0 -7.198960473e-12 1.163644301e-11)
(0 -2.553121302e-11 2.782713114e-11)
(0 -2.118351898e-11 -1.003739276e-11)
(0 -7.072290553e-24 -1.518356464e-11)
(0 -1.548286886e-10 2.069401272e-10)
(0 1.474574412e-11 1.899683574e-11)
(0 -1.251826891e-10 -2.000560875e-11)
(0 -1.294457641e-10 -2.224097466e-11)
(0 -1.385122832e-10 -2.599898408e-11)
(0 -1.53174541e-10 -3.057193752e-11)
(0 -1.745903944e-10 -3.529375941e-11)
(0 -2.042364946e-10 -3.954304894e-11)
(0 -2.438821228e-10 -4.273524474e-11)
(0 -2.95446658e-10 -4.432173535e-11)
(0 -3.60695419e-10 -4.380860573e-11)
(0 -4.407250242e-10 -4.081013092e-11)
(0 -5.352516531e-10 -3.51431996e-11)
(0 -6.41965591e-10 -2.696300936e-11)
(0 -7.569596934e-10 -1.691137245e-11)
(0 -8.78781406e-10 -6.220267519e-12)
(0 -1.020485522e-09 3.399725141e-12)
(0 -1.224029633e-09 1.0249779e-11)
(0 -1.56451684e-09 1.330130543e-11)
(0 -1.683607926e-09 6.605352863e-12)
(0 -2.248155102e-09 1.257240048e-11)
(0 -3.693390115e-11 2.575937009e-13)
(0 -5.774416419e-11 3.670297443e-13)
(0 -2.630567852e-11 4.122374112e-13)
(0 -3.166768231e-12 4.167869917e-13)
(0 1.8869806e-11 3.889678668e-13)
(0 4.588869686e-11 3.282739313e-13)
(0 2.934753811e-11 2.200400865e-13)
(0 1.277489662e-09 3.216132896e-11)
(0 4.132456574e-10 9.893656134e-12)
(0 2.206820364e-10 8.787020211e-12)
(0 1.212140171e-11 1.347801507e-25)
(0 -1.30905893e-10 -1.202036149e-11)
(0 -1.348289182e-10 -1.257053437e-11)
(0 -1.431437955e-10 -1.318336322e-11)
(0 -1.565640083e-10 -1.318105821e-11)
(0 -1.76150662e-10 -1.176603606e-11)
(0 -2.032605769e-10 -8.063501141e-12)
(0 -2.395258793e-10 -1.166343638e-12)
(0 -2.867241029e-10 9.786589549e-12)
(0 -3.464852103e-10 2.546569215e-11)
(0 -4.197473785e-10 4.611594835e-11)
(0 -5.058406234e-10 7.126695182e-11)
(0 -6.010873671e-10 9.961468347e-11)
(0 -6.970735818e-10 1.297831395e-10)
(0 -7.796406012e-10 1.634359355e-10)
(0 -8.327393903e-10 2.121419296e-10)
(0 -8.421460405e-10 2.962282345e-10)
(0 -8.415269554e-10 4.229370939e-10)
(0 5.857749658e-24 -1.094261235e-12)
(0 1.641941967e-11 -6.759658676e-13)
(0 1.663334577e-11 -3.798805138e-11)
(0 -4.396874261e-14 -1.528593058e-11)
(0 -2.006079638e-12 -1.341101286e-11)
(0 -2.626239177e-12 -8.27590902e-12)
(0 -3.790014743e-12 -1.178629411e-11)
(0 -7.367888254e-12 -1.093018643e-11)
(0 -2.585948695e-11 -2.72741135e-11)
(0 -2.140355906e-11 1.039704171e-11)
(0 -7.425102262e-24 1.538583412e-11)
(0 -1.515433874e-10 -1.988546318e-10)
(0 1.474708404e-11 -1.896345568e-11)
(0 -1.323984994e-10 -4.950048216e-12)
(0 -1.356704436e-10 -4.092614491e-12)
(0 -1.425536594e-10 -2.083419725e-12)
(0 -1.535947473e-10 1.722725028e-12)
(0 -1.696287752e-10 8.222822316e-12)
(0 -1.917191565e-10 1.849189199e-11)
(0 -2.21141742e-10 3.369768933e-11)
(0 -2.592788403e-10 5.495469978e-11)
(0 -3.073725826e-10 8.305234067e-11)
(0 -3.660176771e-10 1.179684197e-10)
(0 -4.341051961e-10 1.580697739e-10)
(0 -5.065195137e-10 1.989718657e-10)
(0 -5.691225702e-10 2.324184879e-10)
(0 -5.884954896e-10 2.465741874e-10)
(0 -5.01449216e-10 2.315539122e-10)
(0 -1.902821865e-10 1.696104152e-10)
(0 1.427957399e-11 1.2796338e-11)
(0 2.419942104e-11 2.16957532e-12)
(0 1.980140127e-11 -1.315524978e-12)
(0 1.358074384e-11 -1.5604192e-11)
(0 4.888455764e-12 -1.230476737e-11)
(0 8.289545009e-13 -1.037001077e-11)
(0 -1.542049484e-12 -8.322009668e-12)
(0 -3.909082873e-12 -8.203454227e-12)
(0 -7.654703969e-12 -7.180326078e-12)
(0 -1.444984345e-11 -5.728704259e-12)
(0 -1.403524379e-11 1.578638457e-11)
(0 -3.452624393e-12 2.519984644e-11)
(0 -1.790332082e-11 8.666043736e-12)
(0 -1.881812268e-11 -5.70348484e-11)
(0 -1.305220478e-10 5.8573762e-13)
(0 -1.329194678e-10 2.441026177e-12)
(0 -1.378824794e-10 6.289302506e-12)
(0 -1.457265041e-10 1.272113622e-11)
(0 -1.569635529e-10 2.266333877e-11)
(0 -1.722294356e-10 3.728643495e-11)
(0 -1.922699644e-10 5.789668963e-11)
(0 -2.178743076e-10 8.575455348e-11)
(0 -2.497500714e-10 1.217338396e-10)
(0 -2.883145202e-10 1.656779772e-10)
(0 -3.332965644e-10 2.151891293e-10)
(0 -3.826939489e-10 2.633567453e-10)
(0 -4.295418455e-10 2.947568486e-10)
(0 -4.503524611e-10 2.798636099e-10)
(0 -3.878548878e-10 1.832603227e-10)
(0 -2.577497233e-12 3.025732057e-24)
(0 2.169575351e-12 1.82671246e-11)
(0 1.076352398e-11 5.257144402e-12)
(0 1.182584675e-11 -1.073903273e-12)
(0 9.322746084e-12 -7.128588318e-12)
(0 5.190212492e-12 -7.958707447e-12)
(0 1.976678065e-12 -7.442215665e-12)
(0 -4.596826335e-13 -6.439303947e-12)
(0 -2.648331154e-12 -5.524282335e-12)
(0 -4.893138287e-12 -3.860543244e-12)
(0 -6.571419012e-12 -5.670127933e-13)
(0 -3.655202759e-12 7.301712391e-12)
(0 8.253494952e-12 1.120164453e-11)
(0 3.264068887e-11 1.377143196e-12)
(0 -2.207855903e-12 -2.533517425e-11)
(0 -1.264101698e-10 4.212838524e-12)
(0 -1.278333161e-10 6.576145112e-12)
(0 -1.306592574e-10 1.132351277e-11)
(0 -1.349437165e-10 1.895607824e-11)
(0 -1.408294e-10 3.033464571e-11)
(0 -1.484540921e-10 4.657992444e-11)
(0 -1.579248514e-10 6.895779386e-11)
(0 -1.692646623e-10 9.869615201e-11)
(0 -1.82364626e-10 1.366635974e-10)
(0 -1.970330318e-10 1.828089068e-10)
(0 -2.134090396e-10 2.351893568e-10)
(0 -2.333872282e-10 2.882172119e-10)
(0 -2.646834705e-10 3.293259051e-10)
(0 -3.221838495e-10 3.313851951e-10)
(0 -4.570200519e-10 2.625981068e-10)
(0 -6.60826235e-12 -9.705639303e-12)
(0 -5.338668519e-12 3.062361254e-12)
(0 4.858393215e-12 1.666012462e-12)
(0 7.415668558e-12 -1.108066744e-12)
(0 6.695939667e-12 -3.876805137e-12)
(0 4.574828416e-12 -4.959077607e-12)
(0 2.348358e-12 -5.000801432e-12)
(0 3.758838464e-13 -4.468678767e-12)
(0 -1.330322172e-12 -3.5949752e-12)
(0 -2.697434428e-12 -2.171031588e-12)
(0 -3.287587819e-12 1.980894812e-14)
(0 -2.266586466e-12 2.786405176e-12)
(0 -9.477751184e-13 2.500238175e-12)
(0 -9.440140885e-12 -5.805134132e-12)
(0 -9.722477146e-12 1.698615041e-11)
(0 -1.213147109e-10 5.841086593e-12)
(0 -1.218037096e-10 8.211660284e-12)
(0 -1.225846045e-10 1.289638241e-11)
(0 -1.234688968e-10 2.026910999e-11)
(0 -1.242506568e-10 3.102181895e-11)
(0 -1.245947482e-10 4.606525028e-11)
(0 -1.239892905e-10 6.640971992e-11)
(0 -1.216648843e-10 9.297450913e-11)
(0 -1.164764283e-10 1.26257864e-10)
(0 -1.067156116e-10 1.657749567e-10)
(0 -8.978711706e-11 2.091178405e-10)
(0 -6.161891047e-11 2.502267836e-10)
(0 -1.759805496e-11 2.74934738e-10)
(0 6.034321634e-11 2.403366678e-10)
(0 1.516974803e-11 1.096639945e-24)
(0 2.060947547e-11 -9.682582081e-12)
(0 8.790451238e-12 -2.729073524e-12)
(0 6.593095982e-12 -5.474387927e-13)
(0 6.283029148e-12 -1.146935824e-12)
(0 5.47173522e-12 -2.311137975e-12)
(0 4.066216197e-12 -3.000122414e-12)
(0 2.467076905e-12 -3.133510115e-12)
(0 9.461435985e-13 -2.839897961e-12)
(0 -3.50683975e-13 -2.21630607e-12)
(0 -1.278354139e-12 -1.248984115e-12)
(0 -1.613982247e-12 3.055163058e-14)
(0 -1.174773531e-12 1.324194959e-12)
(0 -3.380443545e-13 1.817520368e-12)
(0 6.416018739e-13 2.400741414e-12)
(0 4.3842164e-12 5.328072363e-12)
(0 -1.164293927e-10 5.66440454e-12)
(0 -1.161568042e-10 7.603611339e-12)
(0 -1.152773008e-10 1.138544742e-11)
(0 -1.134165969e-10 1.722748124e-11)
(0 -1.10108894e-10 2.557061625e-11)
(0 -1.046798635e-10 3.699034367e-11)
(0 -9.620650877e-11 5.208182422e-11)
(0 -8.347552943e-11 7.126497501e-11)
(0 -6.495569355e-11 9.441899008e-11)
(0 -3.875812206e-11 1.201844984e-10)
(0 -2.439344027e-12 1.446635555e-10)
(0 4.787016781e-11 1.592308684e-10)
(0 1.169412698e-10 1.479465232e-10)
(0 2.335206393e-10 9.296770064e-11)
(0 1.04420294e-11 -2.826870513e-24)
(0 1.553805145e-11 5.3911982e-12)
(0 8.547250609e-12 1.002408386e-12)
(0 6.440530916e-12 2.043800615e-14)
(0 5.651969375e-12 -6.209809199e-13)
(0 4.842753076e-12 -1.220712304e-12)
(0 3.752456276e-12 -1.59706812e-12)
(0 2.508582454e-12 -1.693650496e-12)
(0 1.293087891e-12 -1.541429895e-12)
(0 2.605916745e-13 -1.181717994e-12)
(0 -4.505767268e-13 -6.391115891e-13)
(0 -7.144087438e-13 2.752567504e-14)
(0 -4.796177285e-13 6.622749454e-13)
(0 1.287713372e-13 1.044794035e-12)
(0 1.014827876e-12 1.318009617e-12)
(0 2.306061122e-12 1.38497345e-12)
(0 -1.127224495e-10 4.118672013e-12)
(0 -1.119624777e-10 5.312713203e-12)
(0 -1.100306961e-10 7.595049411e-12)
(0 -1.064541263e-10 1.101518083e-11)
(0 -1.006363428e-10 1.572098932e-11)
(0 -9.174882123e-11 2.189852322e-11)
(0 -7.872504466e-11 2.969654151e-11)
(0 -6.032606589e-11 3.910800843e-11)
(0 -3.540602261e-11 4.975717189e-11)
(0 -3.635873013e-12 6.049141386e-11)
(0 3.280493514e-11 6.860003762e-11)
(0 6.56609478e-11 6.853304318e-11)
(0 7.484544943e-11 5.100933796e-11)
(0 1.77642156e-11 1.415522947e-11)
(0 -4.3144411e-12 -1.560962311e-24)
(0 -3.26350347e-12 5.369899483e-12)
(0 3.419691044e-12 1.327186508e-12)
(0 4.969706677e-12 2.477687026e-13)
(0 5.041878837e-12 -1.367128757e-13)
(0 4.49564802e-12 -3.538737734e-13)
(0 3.593278005e-12 -4.742135094e-13)
(0 2.52271513e-12 -5.030961817e-13)
(0 1.458076101e-12 -4.506947842e-13)
(0 5.516343305e-13 -3.298715142e-13)
(0 -6.911047076e-14 -1.528287545e-13)
(0 -3.125957126e-13 5.704474479e-14)
(0 -1.575051712e-13 2.5303394e-13)
(0 3.176903165e-13 3.811914359e-13)
(0 9.817812889e-13 4.415215114e-13)
(0 1.615075435e-12 3.449885059e-13)
(0 -1.108075487e-10 1.803159966e-12)
(0 -1.098893169e-10 2.104034624e-12)
(0 -1.07632305e-10 2.611993816e-12)
(0 -1.035626095e-10 3.214332663e-12)
(0 -9.708999835e-11 3.762818622e-12)
(0 -8.740247868e-11 4.053264035e-12)
(0 -7.34643524e-11 3.814384808e-12)
(0 -5.408920797e-11 2.727935629e-12)
(0 -2.821727063e-11 5.274800173e-13)
(0 4.343368711e-12 -2.72366418e-12)
(0 4.120470171e-11 -5.98860136e-12)
(0 7.381076808e-11 -6.090410801e-12)
(0 8.169741787e-11 3.163429405e-12)
(0 2.196523042e-11 2.011349649e-11)
(0 -4.312682596e-12 1.630943609e-24)
(0 -3.259373524e-12 -5.363480575e-12)
(0 3.425119829e-12 -1.31151815e-12)
(0 4.976631533e-12 -2.199744938e-13)
(0 5.050326899e-12 1.800252108e-13)
(0 4.505252442e-12 4.159734141e-13)
(0 3.603233868e-12 5.56862024e-13)
(0 2.532101179e-12 6.059570669e-13)
(0 1.466312559e-12 5.717452054e-13)
(0 5.584577041e-13 4.662134867e-13)
(0 -6.366046793e-14 3.014619565e-13)
(0 -3.085460493e-13 1.010987608e-13)
(0 -1.554710375e-13 -8.850257081e-14)
(0 3.172589085e-13 -2.147009882e-13)
(0 9.786249457e-13 -2.788270373e-13)
(0 1.609470316e-12 -1.917474864e-13)
(0 -1.108749592e-10 -6.210551212e-13)
(0 -1.101286412e-10 -1.181854556e-12)
(0 -1.082748925e-10 -2.376023e-12)
(0 -1.049352859e-10 -4.456975577e-12)
(0 -9.96605927e-11 -7.839873115e-12)
(0 -9.182289454e-11 -1.309043099e-11)
(0 -8.058690594e-11 -2.089291015e-11)
(0 -6.488925617e-11 -3.194964848e-11)
(0 -4.344423387e-11 -4.672543841e-11)
(0 -1.475177532e-11 -6.487630658e-11)
(0 2.303778971e-11 -8.408811467e-11)
(0 7.293260539e-11 -9.802831283e-11)
(0 1.385262367e-10 -9.388192647e-11)
(0 2.473484754e-10 -5.788512136e-11)
(0 1.04466898e-11 2.893928982e-24)
(0 1.554958986e-11 -5.387835745e-12)
(0 8.563197126e-12 -9.904413659e-13)
(0 6.461250038e-12 3.541708445e-15)
(0 5.677826745e-12 6.609246005e-13)
(0 4.872484833e-12 1.280728781e-12)
(0 3.783261658e-12 1.679696997e-12)
(0 2.537598311e-12 1.798611409e-12)
(0 1.318332521e-12 1.666075917e-12)
(0 2.813510817e-13 1.322310683e-12)
(0 -4.342251965e-13 7.917978848e-13)
(0 -7.0256024e-13 1.343105274e-13)
(0 -4.733049201e-13 -4.94102528e-13)
(0 1.273658501e-13 -8.746970146e-13)
(0 1.004734791e-12 -1.151083613e-12)
(0 2.288752799e-12 -1.228787263e-12)
(0 -1.126910019e-10 -2.53940921e-12)
(0 -1.123947053e-10 -3.765484623e-12)
(0 -1.115577997e-10 -6.270090219e-12)
(0 -1.099808655e-10 -1.040919458e-11)
(0 -1.074794231e-10 -1.679850334e-11)
(0 -1.037862614e-10 -2.628568342e-11)
(0 -9.852150113e-11 -3.990732743e-11)
(0 -9.114353573e-11 -5.878513802e-11)
(0 -8.087946072e-11 -8.389795765e-11)
(0 -6.660492946e-11 -1.156379243e-10)
(0 -4.660308906e-11 -1.530046376e-10)
(0 -1.807223172e-11 -1.92033837e-10)
(0 2.176902353e-11 -2.215957777e-10)
(0 8.890022139e-11 -2.034349332e-10)
(0 1.517486899e-11 -9.71631825e-25)
(0 2.062557244e-11 9.677921678e-12)
(0 8.816497282e-12 2.733944975e-12)
(0 6.627997499e-12 5.63507725e-13)
(0 6.327513971e-12 1.178967941e-12)
(0 5.524024839e-12 2.366566575e-12)
(0 4.121116495e-12 3.083076617e-12)
(0 2.518480099e-12 3.243428773e-12)
(0 9.900118335e-13 2.972461618e-12)
(0 -3.158203278e-13 2.365455441e-12)
(0 -1.251660624e-12 1.40925389e-12)
(0 -1.594446462e-12 1.371689369e-13)
(0 -1.164478579e-12 -1.150154279e-12)
(0 -3.397221758e-13 -1.638804328e-12)
(0 6.24534697e-13 -2.22204825e-12)
(0 4.352354232e-12 -5.164232777e-12)
(0 -1.156661217e-10 -3.482411563e-12)
(0 -1.160003491e-10 -5.053977445e-12)
(0 -1.165776142e-10 -8.2375694e-12)
(0 -1.174306467e-10 -1.343816094e-11)
(0 -1.187209067e-10 -2.136809389e-11)
(0 -1.206645385e-10 -3.301055604e-11)
(0 -1.23529177e-10 -4.957149363e-11)
(0 -1.276203692e-10 -7.237297773e-11)
(0 -1.332919862e-10 -1.026227181e-10)
(0 -1.410703918e-10 -1.409587758e-10)
(0 -1.52153864e-10 -1.865925079e-10)
(0 -1.69928678e-10 -2.356730234e-10)
(0 -2.041450459e-10 -2.780553246e-10)
(0 -2.722682439e-10 -2.896583135e-10)
(0 -4.299421826e-10 -2.420009386e-10)
(0 -6.591852487e-12 9.700518343e-12)
(0 -5.301992667e-12 -3.065810328e-12)
(0 4.906273003e-12 -1.66256433e-12)
(0 7.480885595e-12 1.126194411e-12)
(0 6.77659351e-12 3.922692728e-12)
(0 4.660123857e-12 5.043207678e-12)
(0 2.426983312e-12 5.120741382e-12)
(0 4.403591879e-13 4.615457197e-12)
(0 -1.281856647e-12 3.757887629e-12)
(0 -2.662511701e-12 2.340529497e-12)
(0 -3.26196841e-12 1.545254226e-13)
(0 -2.249278185e-12 -2.604455245e-12)
(0 -9.445281209e-13 -2.306660949e-12)
(0 -9.465110424e-12 6.011303868e-12)
(0 -9.776311676e-12 -1.680769516e-11)
(0 -1.18981023e-10 -3.198155521e-12)
(0 -1.200002544e-10 -4.734740713e-12)
(0 -1.221082971e-10 -7.848658262e-12)
(0 -1.255794984e-10 -1.293382486e-11)
(0 -1.309337277e-10 -2.067806974e-11)
(0 -1.388842334e-10 -3.20231757e-11)
(0 -1.503510749e-10 -4.8111793e-11)
(0 -1.66440888e-10 -7.016969583e-11)
(0 -1.883865278e-10 -9.924304427e-11)
(0 -2.174158152e-10 -1.3564561e-10)
(0 -2.544367436e-10 -1.778462406e-10)
(0 -2.990848166e-10 -2.202901914e-10)
(0 -3.466402504e-10 -2.494759662e-10)
(0 -3.768248035e-10 -2.384246011e-10)
(0 -3.363971983e-10 -1.552826039e-10)
(0 -2.564849341e-12 -2.812224219e-24)
(0 2.204190487e-12 -1.828353446e-11)
(0 1.082000223e-11 -5.271552256e-12)
(0 1.191277103e-11 1.064156142e-12)
(0 9.441038107e-12 7.15491557e-12)
(0 5.319165149e-12 8.045730749e-12)
(0 2.090729618e-12 7.581073663e-12)
(0 -3.728419198e-13 6.610442306e-12)
(0 -2.590748028e-12 5.707648673e-12)
(0 -4.85502283e-12 4.043125535e-12)
(0 -6.539431205e-12 7.453238553e-13)
(0 -3.625664952e-12 -7.113920915e-12)
(0 8.276036936e-12 -1.099556479e-11)
(0 3.260849972e-11 -1.1038469e-12)
(0 -2.301589449e-12 2.553406386e-11)
(0 -1.217498831e-10 -1.685328115e-12)
(0 -1.233774753e-10 -2.81836998e-12)
(0 -1.268414371e-10 -5.139285048e-12)
(0 -1.326229558e-10 -8.97655608e-12)
(0 -1.415460336e-10 -1.488240194e-11)
(0 -1.547401399e-10 -2.359912676e-11)
(0 -1.736565968e-10 -3.601353901e-11)
(0 -2.000157816e-10 -5.306073574e-11)
(0 -2.356298382e-10 -7.551598245e-11)
(0 -2.819703028e-10 -1.03588849e-10)
(0 -3.391744772e-10 -1.362129239e-10)
(0 -4.037784665e-10 -1.699912546e-10)
(0 -4.637024704e-10 -1.981344899e-10)
(0 -4.879893282e-10 -2.107383101e-10)
(0 -4.159214485e-10 -2.001922076e-10)
(0 -1.317098976e-10 -1.521335346e-10)
(0 1.430184198e-11 -1.280898589e-11)
(0 2.425396356e-11 -2.204190456e-12)
(0 1.990735342e-11 1.246398829e-12)
(0 1.375816812e-11 1.558571647e-11)
(0 5.086281949e-12 1.240259469e-11)
(0 9.916948692e-13 1.054649418e-11)
(0 -1.433065802e-12 8.535908756e-12)
(0 -3.849173416e-12 8.422215055e-12)
(0 -7.624836517e-12 7.381119483e-12)
(0 -1.441901486e-11 5.896823262e-12)
(0 -1.399016683e-11 -1.560322819e-11)
(0 -3.363872575e-12 -2.503063546e-11)
(0 -1.79354805e-11 -8.505429344e-12)
(0 -1.900304011e-11 5.723624852e-11)
(0 -1.231895989e-10 8.194772219e-13)
(0 -1.252369178e-10 3.782098206e-13)
(0 -1.296334827e-10 -5.858767989e-13)
(0 -1.369971151e-10 -2.295933796e-12)
(0 -1.483514213e-10 -5.087012435e-12)
(0 -1.650980158e-10 -9.387063244e-12)
(0 -1.890353414e-10 -1.569369638e-11)
(0 -2.222911027e-10 -2.45274679e-11)
(0 -2.671079519e-10 -3.633691549e-11)
(0 -3.253782696e-10 -5.133769091e-11)
(0 -3.97784483e-10 -6.931773715e-11)
(0 -4.824107794e-10 -8.962676044e-11)
(0 -5.729592099e-10 -1.120257895e-10)
(0 -6.576282811e-10 -1.397988144e-10)
(0 -7.227378243e-10 -1.862891654e-10)
(0 -7.562276274e-10 -2.727708842e-10)
(0 -7.915618329e-10 -4.020411472e-10)
(0 5.898274099e-24 1.071993237e-12)
(0 1.652248356e-11 6.214233474e-13)
(0 1.691859126e-11 3.785983123e-11)
(0 2.799428572e-13 1.543351737e-11)
(0 -1.775956318e-12 1.366662025e-11)
(0 -2.497121043e-12 8.565500723e-12)
(0 -3.7455373e-12 1.206666943e-11)
(0 -7.380414622e-12 1.115739258e-11)
(0 -2.584513617e-11 2.738341308e-11)
(0 -2.137292928e-11 -1.030828989e-11)
(0 -7.426910143e-24 -1.532161151e-11)
(0 -1.741671801e-10 2.031306268e-10)
(0 1.461348963e-11 1.905983797e-11)
(0 -1.227646518e-10 3.897500127e-12)
(0 -1.249695098e-10 4.30347058e-12)
(0 -1.297124475e-10 4.998813144e-12)
(0 -1.376549421e-10 5.885242837e-12)
(0 -1.498836292e-10 6.886353838e-12)
(0 -1.678877785e-10 7.948507282e-12)
(0 -1.93581662e-10 9.035326268e-12)
(0 -2.29238526e-10 1.011976707e-11)
(0 -2.772819401e-10 1.116909337e-11)
(0 -3.398669344e-10 1.213010749e-11)
(0 -4.18235866e-10 1.291117928e-11)
(0 -5.120751096e-10 1.33693824e-11)
(0 -6.19832282e-10 1.329923782e-11)
(0 -7.424579894e-10 1.243706665e-11)
(0 -8.947765343e-10 1.047234324e-11)
(0 -1.118596957e-09 7.017580944e-12)
(0 -1.484112011e-09 1.924855817e-12)
(0 -1.630650169e-09 -2.174967126e-12)
(0 -2.207055236e-09 1.764634451e-12)
(0 -3.655434757e-11 3.041753343e-15)
(0 -5.716251047e-11 7.555932495e-16)
(0 -2.600093323e-11 -3.009628926e-15)
(0 -3.033016622e-12 -6.28963075e-15)
(0 1.88673299e-11 -8.791052211e-15)
(0 4.574748857e-11 -1.05765208e-14)
(0 2.923991238e-11 -8.911866178e-15)
(0 1.264922889e-09 1.409885303e-11)
(0 3.980342645e-10 2.301584411e-11)
(0 2.000851391e-10 -6.521097738e-12)
(0 1.199760395e-11 1.547080475e-26)
(0 -1.20282224e-10 7.035921599e-12)
(0 -1.223600363e-10 8.284074075e-12)
(0 -1.268127398e-10 1.062695018e-11)
(0 -1.342445132e-10 1.408634538e-11)
(0 -1.456567195e-10 1.884098494e-11)
(0 -1.624255872e-10 2.520742008e-11)
(0 -1.863267807e-10 3.361047915e-11)
(0 -2.194750718e-10 4.451816736e-11)
(0 -2.641155375e-10 5.83204279e-11)
(0 -3.221612401e-10 7.513235036e-11)
(0 -3.94332802e-10 9.456366911e-11)
(0 -4.787640438e-10 1.156704112e-10)
(0 -5.691954165e-10 1.377861609e-10)
(0 -6.538083586e-10 1.636491251e-10)
(0 -7.188556787e-10 2.059964849e-10)
(0 -7.52054204e-10 2.854017024e-10)
(0 -7.863193398e-10 4.035393219e-10)
(0 5.92336617e-24 -1.058344078e-12)
(0 1.652552531e-11 -6.052643655e-13)
(0 1.691934686e-11 -3.784814312e-11)
(0 2.738914749e-13 -1.543037186e-11)
(0 -1.783001542e-12 -1.367339703e-11)
(0 -2.502902466e-12 -8.580923806e-12)
(0 -3.74982419e-12 -1.208698103e-11)
(0 -7.380535436e-12 -1.118097324e-11)
(0 -2.583455965e-11 -2.740751114e-11)
(0 -2.136401741e-11 1.028907319e-11)
(0 -7.498420544e-24 1.530844532e-11)
(0 -1.588404958e-10 -2.021905886e-10)
(0 1.460657277e-11 -1.90726976e-11)
(0 -1.159220798e-10 9.732828627e-12)
(0 -1.17620988e-10 1.166000945e-11)
(0 -1.212185585e-10 1.532638956e-11)
(0 -1.271682111e-10 2.084649899e-11)
(0 -1.362478934e-10 2.860227842e-11)
(0 -1.495329082e-10 3.921394685e-11)
(0 -1.684240906e-10 5.349187829e-11)
(0 -1.946100248e-10 7.232631623e-11)
(0 -2.29904328e-10 9.645295241e-11)
(0 -2.758227917e-10 1.260073128e-10)
(0 -3.325958823e-10 1.597634048e-10)
(0 -3.968914055e-10 1.940205571e-10)
(0 -4.567457258e-10 2.214926775e-10)
(0 -4.811735825e-10 2.316021112e-10)
(0 -4.090398593e-10 2.160672502e-10)
(0 -1.225568816e-10 1.604733513e-10)
(0 1.431549114e-11 1.283078115e-11)
(0 2.427012254e-11 2.24114827e-12)
(0 1.990539237e-11 -1.208935717e-12)
(0 1.374515464e-11 -1.556215857e-11)
(0 5.067817057e-12 -1.239534403e-11)
(0 9.731262823e-13 -1.05551742e-11)
(0 -1.446600627e-12 -8.55753208e-12)
(0 -3.857331e-12 -8.451247971e-12)
(0 -7.628622973e-12 -7.411678765e-12)
(0 -1.441465089e-11 -5.929092307e-12)
(0 -1.397923496e-11 1.556549891e-11)
(0 -3.344655877e-12 2.49976324e-11)
(0 -1.793517393e-11 8.476072208e-12)
(0 -1.902252856e-11 -5.727046179e-11)
)
;

boundaryField
{
    lowerWall
    {
        type            slip;
    }
    atmosphere
    {
        type            pressureInletOutletVelocity;
        tangentialVelocity uniform (0 0 0);
        value           nonuniform List<vector> 
20
(
(0 -9.953778965e-11 -3.541367113e-11)
(0 -1.14746569e-10 -2.810581104e-11)
(0 -1.251826891e-10 -2.000560875e-11)
(0 -1.30905893e-10 -1.202036149e-11)
(0 -1.323984994e-10 -4.950048216e-12)
(0 -1.305220478e-10 5.8573762e-13)
(0 -1.264101698e-10 4.212838524e-12)
(0 -1.213147109e-10 5.841086593e-12)
(0 -1.164293927e-10 5.66440454e-12)
(0 -1.127224495e-10 4.118672013e-12)
(0 -1.108075487e-10 1.803159966e-12)
(0 -1.108749592e-10 -6.210551212e-13)
(0 -1.126910019e-10 -2.53940921e-12)
(0 -1.156661217e-10 -3.482411563e-12)
(0 -1.18981023e-10 -3.198155521e-12)
(0 -1.217498831e-10 -1.685328115e-12)
(0 -1.231895989e-10 8.194772219e-13)
(0 -1.227646518e-10 3.897500127e-12)
(0 -1.20282224e-10 7.035921599e-12)
(0 -1.159220798e-10 9.732828627e-12)
)
;
    }
    rightWall
    {
        type            empty;
    }
    leftWall
    {
        type            empty;
    }
    frontAndBack
    {
        type            slip;
    }
    procBoundary2to0
    {
        type            processor;
        value           nonuniform List<vector> 
30
(
(0 -7.988993257e-11 -4.096988659e-11)
(0 -8.322717338e-11 -4.847305828e-11)
(0 -9.025318244e-11 -6.180851169e-11)
(0 -1.014042884e-10 -7.989717781e-11)
(0 -1.17334704e-10 -1.022537178e-10)
(0 -1.388673354e-10 -1.288004636e-10)
(0 -1.669229895e-10 -1.596396798e-10)
(0 -2.023681289e-10 -1.94783595e-10)
(0 -2.457710341e-10 -2.337856993e-10)
(0 -2.970406196e-10 -2.751596677e-10)
(0 -3.548569761e-10 -3.153587701e-10)
(0 -4.154751138e-10 -3.468628849e-10)
(0 -4.694207011e-10 -3.547310924e-10)
(0 -4.89838885e-10 -3.11796059e-10)
(0 -4.150630432e-10 -1.890217677e-10)
(0 -2.867892531e-12 -2.485968526e-24)
(0 1.558672415e-12 -1.771611011e-11)
(0 1.016162726e-11 -4.52800661e-12)
(0 1.130483166e-11 1.99171635e-12)
(0 8.915873196e-12 8.144573743e-12)
(0 4.941062349e-12 9.0467829e-12)
(0 1.900031524e-12 8.561915836e-12)
(0 -3.675367248e-13 7.537962346e-12)
(0 -2.405152762e-12 6.548350575e-12)
(0 -4.526868306e-12 4.766764228e-12)
(0 -6.121123652e-12 1.335453671e-12)
(0 -3.182221325e-12 -6.665519282e-12)
(0 8.695295116e-12 -1.072875818e-11)
(0 3.296812602e-11 -9.835131549e-13)
(0 -2.000313388e-12 2.548212332e-11)
)
;
    }
    procBoundary2to3
    {
        type            processor;
        value           nonuniform List<vector> 
20
(
(0 -3.217553757e-13 -2.34992539e-11)
(0 2.069164827e-11 -1.404695079e-11)
(0 1.899141236e-11 1.339918143e-15)
(0 2.06841813e-11 1.406047428e-11)
(0 -3.700873904e-13 2.3530909e-11)
(0 -3.45421417e-11 5.722013462e-12)
(0 -3.072793386e-12 -1.090825544e-11)
(0 4.186620311e-12 -5.695332122e-12)
(0 2.209887811e-12 -1.451131356e-12)
(0 1.56280407e-12 -2.55069297e-13)
(0 1.555730058e-12 3.948503282e-13)
(0 2.187878846e-12 1.591800312e-12)
(0 4.146596788e-12 5.83749908e-12)
(0 -3.137900023e-12 1.105255379e-11)
(0 -3.464517306e-11 -5.579800061e-12)
(0 -5.30466567e-13 -2.341015547e-11)
(0 2.045824937e-11 -1.399935462e-11)
(0 1.87702682e-11 -6.91685866e-15)
(0 2.044999427e-11 1.397986617e-11)
(0 -5.367744461e-13 2.338190868e-11)
)
;
    }
    procBoundary2to4
    {
        type            processor;
        value           nonuniform List<vector> 
30
(
(0 -1.101944753e-10 1.160230339e-11)
(0 -1.113468967e-10 1.391796996e-11)
(0 -1.137092931e-10 1.833198163e-11)
(0 -1.175139887e-10 2.500122049e-11)
(0 -1.232081597e-10 3.441674296e-11)
(0 -1.314158532e-10 4.737727601e-11)
(0 -1.429681042e-10 6.49393144e-11)
(0 -1.589074002e-10 8.8295743e-11)
(0 -1.804540554e-10 1.184896394e-10)
(0 -2.089020515e-10 1.558208903e-10)
(0 -2.453300979e-10 1.986601249e-10)
(0 -2.8966447e-10 2.411785895e-10)
(0 -3.375518919e-10 2.693211572e-10)
(0 -3.690132364e-10 2.552528633e-10)
(0 -3.309524849e-10 1.660432358e-10)
(0 -2.54305408e-12 3.269138914e-24)
(0 2.241148301e-12 1.833293399e-11)
(0 1.083567008e-11 5.329885171e-12)
(0 1.190241286e-11 -1.010065958e-12)
(0 9.411581253e-12 -7.118903761e-12)
(0 5.28087585e-12 -8.034605212e-12)
(0 2.054810405e-12 -7.594420887e-12)
(0 -3.989762394e-13 -6.641867818e-12)
(0 -2.603970875e-12 -5.748592355e-12)
(0 -4.858379773e-12 -4.084234735e-12)
(0 -6.53602468e-12 -7.820444718e-13)
(0 -3.617487102e-12 7.078119098e-12)
(0 8.284409078e-12 1.095704184e-11)
(0 3.260728952e-11 1.051627133e-12)
(0 -2.307395969e-12 -2.557737111e-11)
)
;
    }
}


// ************************************************************************* //
