/*--------------------------------*- C++ -*----------------------------------*\
  =========                 |
  \\      /  F ield         | OpenFOAM: The Open Source CFD Toolbox
   \\    /   O peration     | Website:  https://openfoam.org
    \\  /    A nd           | Version:  6
     \\/     M anipulation  |
\*---------------------------------------------------------------------------*/
FoamFile
{
    version     2.0;
    format      ascii;
    class       surfaceScalarField;
    location    "0.0007";
    object      phi;
}
// * * * * * * * * * * * * * * * * * * * * * * * * * * * * * * * * * * * * * //

dimensions      [0 3 -1 0 0 0 0];

internalField   nonuniform List<scalar> 
19000
(
4.339537089e-21
-1.188233657e-21
4.28341181e-21
-3.322596792e-21
4.137510166e-21
-5.319121721e-21
3.913718489e-21
-7.265627636e-21
3.615274213e-21
-9.206516864e-21
3.243973975e-21
-1.115966516e-20
2.797023081e-21
-1.313038253e-20
2.271909168e-21
-1.511787613e-20
1.663657709e-21
-1.711940128e-20
9.68906922e-22
-1.913122946e-20
1.825102212e-22
-2.115004855e-20
-6.987300656e-22
-2.317254041e-20
-1.679728727e-21
-2.519611064e-20
-2.763491294e-21
-2.721813881e-20
-3.954883768e-21
-2.923657208e-20
-5.256995477e-21
-3.12491114e-20
-6.674917913e-21
-3.325379164e-20
-8.212065388e-21
-3.524816944e-20
-9.873957043e-21
-3.722991117e-20
-1.166452284e-20
-3.919599827e-20
-1.358990521e-20
-4.114333215e-20
-1.565473609e-20
-4.30679275e-20
-1.786591873e-20
-4.496550572e-20
-2.022888097e-20
-4.683065897e-20
-2.275137439e-20
-4.865741365e-20
-2.543979397e-20
-5.043837866e-20
-2.830301262e-20
-5.216527476e-20
-3.134868208e-20
-5.382801188e-20
-3.458691442e-20
-5.541508641e-20
-3.80264037e-20
-5.691247983e-20
-4.167795052e-20
-5.830385694e-20
-4.555063735e-20
-5.956932575e-20
-4.965549459e-20
-6.068555997e-20
-5.400190494e-20
-6.162451132e-20
-5.86012125e-20
-6.235340692e-20
-6.346283862e-20
-6.28331754e-20
-6.85971759e-20
-6.301793317e-20
-7.401101229e-20
-6.285287156e-20
-7.970974353e-20
-6.227337981e-20
-8.569249402e-20
-6.12030485e-20
-9.195383344e-20
-5.955346538e-20
-9.847807989e-20
-5.72234524e-20
-1.052390903e-19
-5.410054486e-20
-1.121920129e-19
-5.006270402e-20
-1.192699714e-19
-4.498362976e-20
-1.263732138e-19
-3.874062625e-20
-1.33363465e-19
-3.122907443e-20
-1.400515414e-19
-2.238282078e-20
-1.461905725e-19
-1.220401369e-20
-1.514642303e-19
-8.007765117e-22
-1.554822817e-19
1.156582247e-20
-1.577737376e-19
2.442973321e-20
-1.577884034e-19
3.706511541e-20
-1.548970288e-19
4.843646815e-20
-1.484007324e-19
5.71586606e-20
-1.375459871e-19
6.147518092e-20
-1.215690515e-19
5.926037999e-20
-9.978144307e-20
4.806181269e-20
-7.168190773e-20
2.521825437e-20
-3.688248209e-20
-1.186676448e-20
5.881673752e-21
-6.520577342e-20
6.186565415e-20
-1.357049916e-19
1.453007466e-19
-2.240223838e-19
2.736249567e-19
-3.366497043e-19
4.347834463e-19
-4.987345956e-19
3.627992204e-19
-7.281178455e-19
-4.987504738e-20
-7.879768927e-19
-6.937769886e-21
-3.174510761e-19
1.250725135e-21
6.937766047e-21
2.57256846e-21
3.538065329e-23
7.281071686e-21
-1.380450264e-20
2.303046942e-20
-3.196368065e-20
2.811186201e-20
-1.810716754e-20
2.655370843e-20
-6.487445658e-21
2.611623463e-20
-5.059523354e-21
2.751896723e-20
-5.397310297e-21
2.983257364e-20
-4.499425923e-21
3.215875608e-20
-1.822706981e-21
3.382467257e-20
2.499910993e-21
3.424581604e-20
8.216434078e-21
3.313700636e-20
1.462615694e-20
3.061155914e-20
2.082351055e-20
2.699912403e-20
2.617069117e-20
2.269951014e-20
3.033056668e-20
1.811233473e-20
3.318741464e-20
1.356985289e-20
3.483206163e-20
9.281902518e-21
3.551496559e-20
5.322021585e-21
3.555607852e-20
1.646698669e-21
3.525603205e-20
-1.866491546e-21
3.483734377e-20
-5.379867351e-21
3.441496001e-20
-9.055064373e-21
3.39861547e-20
-1.301332707e-20
3.34310927e-20
-1.72936648e-20
3.252452816e-20
-2.181833351e-20
3.096601792e-20
-2.637471426e-20
2.843946685e-20
-3.063146923e-20
2.470368199e-20
-3.419453915e-20
1.96828769e-20
-3.667773516e-20
1.351171171e-20
-3.777160768e-20
6.542477954e-21
-3.738595215e-20
-5.779301585e-22
-3.582898111e-20
-6.945029895e-21
-3.370492464e-20
-1.186273687e-20
-3.17038468e-20
-1.508594088e-20
-3.073738544e-20
-1.648501018e-20
-3.17473118e-20
-1.660015252e-20
-3.40270389e-20
-1.841268974e-20
-2.985562475e-20
-3.028938087e-20
-1.528603091e-20
-4.42223801e-20
-1.19604295e-20
-2.611183485e-20
-1.213181159e-20
-1.231899336e-20
-5.430470461e-21
-5.430474263e-21
-1.647600863e-19
-6.741993918e-20
-1.051408437e-18
2.930256864e-19
-1.302777538e-18
1.163979698e-18
-1.095324706e-18
2.084908234e-18
-7.063678842e-19
2.549223938e-18
-2.856586313e-19
2.417557928e-18
-1.653806135e-21
1.584628155e-18
-9.102900204e-32
2.502413458e-21
-1.428589849e-21
2.402905835e-21
-3.486151905e-21
2.210757735e-21
-5.322047134e-21
1.950871362e-21
-7.117613192e-21
1.627152575e-21
-8.927323516e-21
1.238596361e-21
-1.076461719e-20
7.803306829e-22
-1.262965738e-20
2.478949768e-22
-1.451751362e-20
-3.64496291e-22
-1.64227545e-20
-1.061175367e-21
-1.833960369e-20
-1.847415927e-21
-2.026352724e-20
-2.72692997e-21
-2.219014084e-20
-3.704441359e-21
-2.411627503e-20
-4.783243842e-21
-2.6038664e-20
-5.967830199e-21
-2.795495454e-20
-7.261418378e-21
-2.986237092e-20
-8.668573625e-21
-3.175875094e-20
-1.019268606e-20
-3.364122623e-20
-1.183859643e-20
-3.550729279e-20
-1.361005659e-20
-3.735351427e-20
-1.551235587e-20
-3.917661788e-20
-1.754975105e-20
-4.097219513e-20
-1.972805845e-20
-4.273578848e-20
-2.205206641e-20
-4.446157446e-20
-2.45281519e-20
-4.614342748e-20
-2.716173904e-20
-4.777358485e-20
-2.995992323e-20
-4.934367805e-20
-3.292884756e-20
-5.084331569e-20
-3.607613129e-20
-5.226098541e-20
-3.94080577e-20
-5.358248997e-20
-4.293189114e-20
-5.479169913e-20
-4.665317231e-20
-5.586892487e-20
-5.057819914e-20
-5.67916583e-20
-5.471145961e-20
-5.753295404e-20
-5.905788924e-20
-5.806206415e-20
-6.361979815e-20
-5.834258621e-20
-6.839833805e-20
-5.833268659e-20
-7.33898293e-20
-5.798293699e-20
-7.858686896e-20
-5.723650543e-20
-8.397465937e-20
-5.602751283e-20
-8.953183056e-20
-5.428224406e-20
-9.522593533e-20
-5.191900523e-20
-1.010124313e-19
-4.885117124e-20
-1.068280244e-19
-4.498970231e-20
-1.125875918e-19
-4.025026678e-20
-1.181764075e-19
-3.456227154e-20
-1.234464839e-19
-2.788542739e-20
-1.282086906e-19
-2.023139877e-20
-1.322290182e-19
-1.169566913e-20
-1.352214553e-19
-2.496606386e-21
-1.368459038e-19
6.974431638e-21
-1.367040318e-19
1.609666922e-20
-1.343404397e-19
2.395623599e-20
-1.292420245e-19
2.928311049e-20
-1.20842213e-19
3.039139373e-20
-1.085238409e-19
2.513392281e-20
-9.162701143e-20
1.087895054e-20
-6.944888529e-20
-1.547061016e-20
-4.120464996e-20
-5.739009152e-20
-5.84060906e-21
-1.185418315e-19
3.841269804e-20
-2.024880186e-19
9.456310611e-20
-3.124617445e-19
1.651166946e-19
-4.516569353e-19
2.418480179e-19
-6.238187295e-19
2.807600263e-19
-8.296805634e-19
1.755746855e-19
-1.038705544e-18
-3.25345207e-20
-1.130195751e-18
-4.961226638e-20
-8.019322927e-19
-5.651660258e-21
-2.885627819e-19
-1.126731495e-20
5.651664094e-21
-1.08781063e-20
-1.419195535e-20
3.688698253e-20
-7.972688465e-20
3.973158389e-20
-2.09512809e-20
2.798163078e-20
5.263239993e-21
2.577844768e-20
-2.855703949e-21
2.841685158e-20
-8.033475918e-21
3.250929262e-20
-8.588428491e-21
3.648137405e-20
-5.790194268e-21
3.954119572e-20
-5.553899517e-22
4.065553887e-20
7.106638373e-21
3.933435998e-20
1.595028856e-20
3.595873993e-20
2.420180663e-20
3.115899939e-20
3.097221292e-20
2.555635809e-20
3.593516775e-20
1.975698194e-20
3.898890487e-20
1.425275665e-20
4.033819127e-20
9.323015441e-21
4.044535305e-20
5.021975327e-21
3.985635376e-20
1.228010173e-21
3.904837228e-20
-2.288875305e-21
3.835313818e-20
-5.808672461e-21
3.793441751e-20
-9.610126573e-21
3.778773527e-20
-1.391989161e-20
3.774114495e-20
-1.885217486e-20
3.745813365e-20
-2.434488476e-20
3.645980759e-20
-3.011049912e-20
3.420433753e-20
-3.565227422e-20
3.024224434e-20
-4.036570448e-20
2.439401717e-20
-4.364696892e-20
1.678979097e-20
-4.489201582e-20
7.784683912e-21
-4.37530519e-20
-1.720312941e-21
-4.074668808e-20
-9.954051081e-21
-3.692812875e-20
-1.568482816e-20
-3.310291601e-20
-1.891393061e-20
-3.085252778e-20
-1.873868121e-20
-3.355984914e-20
-1.389473218e-20
-4.590372996e-20
-6.071962445e-21
-4.378862398e-20
-3.240951916e-20
2.824514243e-21
-9.083874769e-20
1.832412182e-21
-2.512125358e-20
-5.24329249e-21
-5.243288687e-21
-1.893521314e-19
-8.53913838e-20
-6.49649347e-19
-3.883176182e-20
-1.093709994e-18
2.860985832e-19
-1.240136213e-18
1.02447361e-18
-1.037254099e-18
1.707532824e-18
-6.567238071e-19
2.061666839e-18
-2.587611326e-19
1.938375067e-18
1.310507588e-21
1.261474551e-18
-7.39011357e-32
9.179714884e-22
-2.356492791e-21
6.418465856e-22
-3.860926938e-21
3.668772397e-22
-5.39813367e-21
6.23694293e-23
-6.998466689e-21
-2.858131766e-22
-8.661255717e-21
-6.887053925e-22
-1.037701091e-20
-1.154843722e-21
-1.213415968e-20
-1.691561622e-21
-1.392198644e-20
-2.305066936e-21
-1.573102046e-20
-3.001006027e-21
-1.755361228e-20
-3.784256685e-21
-1.938334826e-20
-4.659390503e-21
-2.121524437e-20
-5.630446753e-21
-2.304502949e-20
-6.701392515e-21
-2.486933092e-20
-7.875874929e-21
-2.668499501e-20
-9.157650197e-21
-2.848933216e-20
-1.055029134e-20
-3.027949139e-20
-1.205758934e-20
-3.205276338e-20
-1.368324597e-20
-3.380599258e-20
-1.54312666e-20
-3.553592916e-20
-1.730563582e-20
-3.723867083e-20
-1.931067505e-20
-3.891001978e-20
-2.145067806e-20
-4.054492281e-20
-2.373025543e-20
-4.213781698e-20
-2.6153992e-20
-4.368205427e-20
-2.872682255e-20
-4.51702279e-20
-3.145365914e-20
-4.659355674e-20
-3.433963244e-20
-4.794212712e-20
-3.738951221e-20
-4.920416516e-20
-4.060776252e-20
-5.03661617e-20
-4.399792964e-20
-5.141206631e-20
-4.756283618e-20
-5.232340208e-20
-5.130416267e-20
-5.307850073e-20
-5.522265024e-20
-5.365262441e-20
-5.93173363e-20
-5.401712047e-20
-6.35850751e-20
-5.413932056e-20
-6.801905067e-20
-5.398143372e-20
-7.26078864e-20
-5.350034644e-20
-7.733423009e-20
-5.264682742e-20
-8.217413895e-20
-5.136611967e-20
-8.7095594e-20
-4.959839731e-20
-9.205698604e-20
-4.728089865e-20
-9.700403722e-20
-4.435030483e-20
-1.018667021e-19
-4.074763073e-20
-1.06555397e-19
-3.642503094e-20
-1.109583976e-19
-3.135753023e-20
-1.149393666e-19
-2.555956853e-20
-1.183362211e-19
-1.910931577e-20
-1.209602332e-19
-1.218045482e-20
-1.225971422e-19
-5.084111965e-21
-1.230096505e-19
1.679865696e-21
-1.219430031e-19
7.360820414e-21
-1.191325105e-19
1.088750665e-20
-1.14314298e-19
1.079264377e-20
-1.072377098e-19
5.139171442e-21
-9.767930846e-20
-8.544546876e-21
-8.545438355e-20
-3.330630707e-20
-7.042195507e-20
-7.277038682e-20
-5.247619735e-20
-1.310674246e-19
-3.153556234e-20
-2.126599106e-19
-7.643644223e-21
-3.220255574e-19
1.836715211e-20
-4.63151224e-19
4.242448087e-20
-6.386168878e-19
5.152873662e-20
-8.471952207e-19
1.809405164e-20
-1.076610457e-18
-8.699717159e-20
-1.285522478e-18
-2.152461451e-19
-1.3797843e-18
-2.191073913e-19
-1.226073312e-18
-8.478363225e-20
-8.574138223e-19
-3.11109343e-20
-3.042954646e-19
-7.641303505e-20
3.11109343e-20
9.566258553e-20
-2.518027947e-19
6.594610442e-20
8.765906424e-21
1.986268669e-20
5.134684374e-20
2.060067561e-20
-3.591660654e-21
2.786189879e-20
-1.529137426e-20
3.530752668e-20
-1.602970579e-20
4.17161781e-20
-1.219477462e-20
4.72032238e-20
-6.037808198e-21
4.949918871e-20
4.814032388e-21
4.758587774e-20
1.786741656e-20
4.272914615e-20
2.906024532e-20
3.612195383e-20
3.758133591e-20
2.861009503e-20
4.344932566e-20
2.110626845e-20
4.649517098e-20
1.435991811e-20
4.708607004e-20
8.734016097e-21
4.607111272e-20
4.213994054e-21
4.437461338e-20
5.327758355e-22
4.272763483e-20
-2.707595957e-21
4.159247544e-20
-5.955354436e-21
4.118206078e-20
-9.656717059e-21
4.148938328e-20
-1.420290283e-20
4.228890951e-20
-1.985050059e-20
4.310836149e-20
-2.660035488e-20
4.321103481e-20
-3.407259209e-20
4.167475977e-20
-4.1500501e-20
3.76686696e-20
-4.796993053e-20
3.085972439e-20
-5.265207564e-20
2.146905466e-20
-5.439701235e-20
9.52572821e-21
-5.198678972e-20
-4.133893788e-21
-4.647746486e-20
-1.546784586e-20
-4.015723108e-20
-2.200793154e-20
-3.292766631e-20
-2.614661863e-20
-2.600857861e-20
-2.565820878e-20
-2.573707928e-20
-1.417380431e-20
-7.224128621e-20
4.042998359e-20
-1.022178517e-19
-2.434185695e-21
6.854200778e-20
-2.615997225e-19
2.17103771e-20
2.17103771e-20
-8.156137052e-20
-2.195740854e-19
-3.770902475e-19
-2.769729836e-19
-6.780128594e-19
-1.856700195e-19
-9.404843548e-19
1.774609561e-19
-9.875682127e-19
7.497553788e-19
-8.055704495e-19
1.279543333e-18
-4.872656593e-19
1.564814276e-18
-1.617648124e-19
1.477509945e-18
2.564378442e-20
9.557429214e-19
-6.030677294e-32
-8.372310126e-22
-3.44919784e-21
-1.160361974e-21
-4.290248819e-21
-1.46051133e-21
-5.494393709e-21
-1.779942528e-21
-6.887945049e-21
-2.136794742e-21
-8.40032745e-21
-2.544244418e-21
-9.993571648e-21
-3.012244846e-21
-1.164324969e-20
-3.548526814e-21
-1.333162068e-20
-4.159847813e-21
-1.504554025e-20
-4.851784176e-21
-1.67747952e-20
-5.629493423e-21
-1.851168409e-20
-6.497306128e-21
-2.025002521e-20
-7.459421168e-21
-2.198508332e-20
-8.51946141e-21
-2.371279253e-20
-9.681138274e-21
-2.542985451e-20
-1.09477566e-20
-2.713308078e-20
-1.232284042e-20
-2.88196e-20
-1.380960111e-20
-3.048627818e-20
-1.541156434e-20
-3.212999761e-20
-1.713202103e-20
-3.374712847e-20
-1.897462819e-20
-3.533385048e-20
-2.094282104e-20
-3.688563816e-20
-2.304036896e-20
-3.839758587e-20
-2.5270779e-20
-3.986389288e-20
-2.763786502e-20
-4.127816828e-20
-3.014516317e-20
-4.263290023e-20
-3.279643769e-20
-4.391971225e-20
-3.559493294e-20
-4.512875155e-20
-3.854366982e-20
-4.624885716e-20
-4.164455589e-20
-4.726687758e-20
-4.489870325e-20
-4.816781144e-20
-4.830572011e-20
-4.893416472e-20
-5.186419276e-20
-4.954614396e-20
-5.557089463e-20
-4.9981011e-20
-5.942078831e-20
-5.021317546e-20
-6.34055216e-20
-5.021337465e-20
-6.751283024e-20
-4.994863232e-20
-7.172495919e-20
-4.938158498e-20
-7.601850697e-20
-4.847099029e-20
-8.036341335e-20
-4.717203755e-20
-8.472280897e-20
-4.543812195e-20
-8.905118342e-20
-4.322262883e-20
-9.329299158e-20
-4.048256349e-20
-9.738020632e-20
-3.71832156e-20
-1.012317377e-19
-3.330644835e-20
-1.047533331e-19
-2.886244834e-20
-1.07840137e-19
-2.390769387e-20
-1.103799876e-19
-1.856893091e-20
-1.122598251e-19
-1.307586221e-20
-1.133742226e-19
-7.802545579e-21
-1.136389779e-19
-3.320164506e-21
-1.130085703e-19
-4.602977385e-22
-1.114998055e-19
-3.891415404e-22
-1.092202543e-19
-4.688169699e-21
-1.064034691e-19
-1.543661142e-20
-1.034483561e-19
-3.52846843e-20
-1.009622371e-19
-6.750368101e-20
-9.980547862e-20
-1.159885983e-19
-1.011479317e-19
-1.851797117e-19
-1.065714689e-19
-2.798499597e-19
-1.183190345e-19
-4.046765057e-19
-1.398844481e-19
-5.634411646e-19
-1.771313473e-19
-7.575195432e-19
-2.392793594e-19
-9.828810563e-19
-3.358661611e-19
-1.224355586e-18
-4.610555014e-19
-1.447016318e-18
-5.593244288e-19
-1.592023336e-18
-5.154622261e-19
-1.598974615e-18
-3.471280669e-19
-1.48083751e-18
1.11431378e-19
-1.24242245e-18
7.139858386e-19
-9.09757727e-19
3.562312864e-19
1.05952041e-19
1.085270424e-19
2.564701972e-19
-3.50758179e-20
1.94951707e-19
8.900962156e-21
-4.756572329e-20
2.712356733e-20
-3.351128276e-20
3.914245816e-20
-2.804690117e-20
4.787314475e-20
-2.092165562e-20
5.80550647e-20
-1.621722759e-20
6.255257315e-20
3.200875791e-22
5.877870676e-20
2.164326997e-20
5.125023721e-20
3.659217434e-20
4.198994357e-20
4.68448058e-20
3.165594051e-20
5.378649429e-20
2.169716792e-20
5.645689295e-20
1.33449606e-20
5.543974603e-20
7.03751681e-21
5.237770522e-20
2.567015793e-21
4.884272366e-20
-6.023838076e-22
4.589476609e-20
-3.118010635e-21
4.410718906e-20
-5.648031727e-21
4.37121931e-20
-8.857191133e-21
4.469957371e-20
-1.338345093e-20
4.681779026e-20
-1.974782714e-20
4.947619437e-20
-2.813663034e-20
5.160038859e-20
-3.807868245e-20
5.161565466e-20
-4.830944627e-20
4.789611424e-20
-5.736060074e-20
3.990937524e-20
-6.459540237e-20
2.869930152e-20
-6.80566347e-20
1.29818354e-20
-6.332074208e-20
-8.874340716e-21
-5.30175508e-20
-2.57706157e-20
-4.429591856e-20
-3.073302593e-20
-3.24392565e-20
-3.800422683e-20
-1.452417433e-20
-4.357800944e-20
2.886670871e-20
-5.756668053e-20
-1.151054562e-19
1.844014326e-19
-3.613833884e-19
2.438434385e-19
-7.214604953e-19
9.847738437e-20
-3.816452389e-19
-7.379999741e-19
-2.891149486e-19
-8.979314491e-19
-3.669732281e-19
-7.634880205e-19
-4.871025186e-19
-4.812048962e-19
-6.086139264e-19
-7.104162036e-20
-6.129381777e-19
4.230293125e-19
-4.724475254e-19
8.626616277e-19
-2.434017298e-19
1.108124314e-18
-2.345443642e-20
1.065189387e-18
6.492805294e-20
6.923746311e-19
-4.958974398e-32
-2.851624275e-21
-3.979845045e-21
-3.040237766e-21
-4.565395014e-21
-3.287706508e-21
-5.543208404e-21
-3.583954351e-21
-6.761766967e-21
-3.929634212e-21
-8.134839988e-21
-4.330553757e-21
-9.610661613e-21
-4.793340865e-21
-1.115565694e-20
-5.324494045e-21
-1.274668997e-20
-5.929899647e-21
-1.436708954e-20
-6.61492406e-21
-1.600463017e-20
-7.384293164e-21
-1.765010671e-20
-8.242322515e-21
-1.92965557e-20
-9.192851107e-21
-2.093849298e-20
-1.023950047e-20
-2.257155142e-20
-1.138558706e-20
-2.41919827e-20
-1.263435372e-20
-2.579648894e-20
-1.398883948e-20
-2.738186903e-20
-1.54520956e-20
-2.894496518e-20
-1.702705178e-20
-3.048239445e-20
-1.871672229e-20
-3.199056798e-20
-2.052403676e-20
-3.346546613e-20
-2.245200234e-20
-3.490267967e-20
-2.450349264e-20
-3.629719835e-20
-2.668139079e-20
-3.764345163e-20
-2.898839294e-20
-3.893508447e-20
-3.142713339e-20
-4.016497437e-20
-3.399990428e-20
-4.132496123e-20
-3.670860776e-20
-4.24057882e-20
-3.955428405e-20
-4.339677307e-20
-4.253696954e-20
-4.428572268e-20
-4.565529841e-20
-4.505862285e-20
-4.89065506e-20
-4.56996118e-20
-5.228637077e-20
-4.619071686e-20
-5.578863799e-20
-4.651179215e-20
-5.940463981e-20
-4.664013547e-20
-6.312227617e-20
-4.655029936e-20
-6.692487359e-20
-4.621371627e-20
-7.079065282e-20
-4.55988461e-20
-7.469233263e-20
-4.467152253e-20
-7.859732498e-20
-4.33961028e-20
-8.246739977e-20
-4.173695299e-20
-8.625821493e-20
-3.966085997e-20
-8.99183629e-20
-3.714025896e-20
-9.338949186e-20
-3.415855535e-20
-9.66078627e-20
-3.071810911e-20
-9.950861707e-20
-2.685251095e-20
-1.020323186e-19
-2.264371803e-20
-1.041347158e-19
-1.824558951e-20
-1.058000595e-19
-1.391463166e-20
-1.070602068e-19
-1.005002785e-20
-1.080204002e-19
-7.243975508e-21
-1.088934947e-19
-6.343695518e-21
-1.100427033e-19
-8.523925412e-21
-1.120343738e-19
-1.536752796e-20
-1.157005936e-19
-2.894755108e-20
-1.222112087e-19
-5.190067925e-20
-1.331515532e-19
-8.747456879e-20
-1.506035028e-19
-1.395233484e-19
-1.77231173e-19
-2.12410874e-19
-2.163829796e-19
-3.107615141e-19
-2.722247204e-19
-4.389637661e-19
-3.498780693e-19
-6.002773297e-19
-4.553309222e-19
-7.953073024e-19
-5.942403469e-19
-1.019531078e-18
-7.675439406e-19
-1.259788658e-18
-9.617249902e-19
-1.490966742e-18
-1.137127788e-18
-1.677392538e-18
-1.237225672e-18
-1.785772725e-18
-1.216461146e-18
-1.80548933e-18
-1.028640091e-18
-1.714969856e-18
-7.058750625e-19
-1.249792134e-18
5.640871818e-31
-1.775717686e-19
-7.729293266e-19
1.285524835e-18
-2.775932501e-19
-3.003832748e-19
2.295540268e-20
-3.481139535e-19
3.258794877e-20
-4.314426424e-20
4.62677039e-20
-4.172227739e-20
5.257757278e-20
-2.722848762e-20
7.459237992e-20
-3.82268383e-20
8.38757556e-20
-8.958919737e-21
7.372761113e-20
3.179792469e-20
6.150286898e-20
4.881945864e-20
4.89316318e-20
5.94186347e-20
3.432633918e-20
6.839535886e-20
2.068002133e-20
7.01063504e-20
1.028291944e-20
6.583783935e-20
3.50253525e-21
5.915645422e-20
-3.809415127e-22
5.272321393e-20
-2.389961112e-21
4.790155297e-20
-3.513006601e-21
4.522954642e-20
-4.66065084e-21
4.486017557e-20
-6.738974845e-21
4.677984698e-20
-1.072504682e-20
5.080790933e-20
-1.76236326e-20
5.63775599e-20
-2.812136458e-20
6.209854311e-20
-4.179822288e-20
6.529021331e-20
-5.629618505e-20
6.239358e-20
-6.857067473e-20
5.217949355e-20
-8.031286849e-20
4.043716977e-20
-8.991281094e-20
2.257686372e-20
-8.021701706e-20
-1.856884036e-20
-5.797996103e-20
-4.801549872e-20
-5.156711972e-20
-3.715211019e-20
-3.80130389e-20
-5.156130741e-20
-2.851284541e-20
-5.30793585e-20
2.708348236e-19
-3.569151368e-19
7.642744288e-19
-3.090381726e-19
-6.732538242e-31
1.321033013e-18
3.446288317e-19
6.470418915e-20
4.514388946e-19
-9.54800068e-19
3.351844361e-19
-1.228076069e-18
1.817341384e-19
-1.058621032e-18
1.511558849e-20
-7.302374647e-19
-1.11977581e-19
-3.117505925e-19
-1.465607005e-19
1.295017513e-19
-8.186799758e-20
5.053756828e-19
3.822825789e-20
7.215574319e-19
1.390162394e-19
7.212931712e-19
1.138661509e-19
4.729598012e-19
-3.979927992e-32
-4.72295433e-21
-4.243803711e-21
-4.856065233e-21
-4.70131032e-21
-5.060980624e-21
-5.527371067e-21
-5.329157529e-21
-6.606815135e-21
-5.656492708e-21
-7.857831274e-21
-6.044594086e-21
-9.224981025e-21
-6.497375415e-21
-1.06703272e-20
-7.019550266e-21
-1.216719354e-20
-7.616007605e-21
-1.369648517e-20
-8.291393881e-21
-1.524424734e-20
-9.050047273e-21
-1.680018253e-20
-9.895900491e-21
-1.8356509e-20
-1.083259384e-20
-1.990726202e-20
-1.186344725e-20
-2.144765222e-20
-1.299159585e-20
-2.297371271e-20
-1.421995113e-20
-2.448189434e-20
-1.555131207e-20
-2.596889212e-20
-1.698832148e-20
-2.74313832e-20
-1.853358502e-20
-2.886595961e-20
-2.018961043e-20
-3.026894286e-20
-2.195889215e-20
-3.163637027e-20
-2.384380538e-20
-3.296384126e-20
-2.584664284e-20
-3.424651462e-20
-2.7969488e-20
-3.547896372e-20
-3.021425441e-20
-3.665516393e-20
-3.258252329e-20
-3.776831786e-20
-3.507547973e-20
-3.88108e-20
-3.76935922e-20
-3.977392462e-20
-4.043638759e-20
-4.064785489e-20
-4.330208406e-20
-4.142138425e-20
-4.628746779e-20
-4.208189223e-20
-4.938770193e-20
-4.261518792e-20
-5.259625172e-20
-4.300548434e-20
-5.590443603e-20
-4.32351677e-20
-5.930080954e-20
-4.328464436e-20
-6.27701831e-20
-4.313203288e-20
-6.629293359e-20
-4.27531444e-20
-6.984461713e-20
-4.212164467e-20
-7.339629292e-20
-4.120980528e-20
-7.691492449e-20
-3.9989552e-20
-8.036378961e-20
-3.843409384e-20
-8.370252268e-20
-3.651994799e-20
-8.688775081e-20
-3.423012502e-20
-8.987511346e-20
-3.155897435e-20
-9.262405552e-20
-2.851993944e-20
-9.51056274e-20
-2.515678625e-20
-9.731393335e-20
-2.155937645e-20
-9.928163356e-20
-1.788455597e-20
-1.011015067e-19
-1.438372385e-20
-1.029559984e-19
-1.143839728e-20
-1.051572038e-19
-9.605674445e-21
-1.08198295e-19
-9.674179143e-21
-1.1281774e-19
-1.273034281e-20
-1.200767026e-19
-2.023198945e-20
-1.314499722e-19
-3.408364564e-20
-1.48927342e-19
-5.670255293e-20
-1.7511905e-19
-9.105848347e-20
-2.133541007e-19
-1.406604625e-19
-2.677578684e-19
-2.094516119e-19
-3.432873823e-19
-3.015548066e-19
-4.456792009e-19
-4.207896211e-19
-5.81194427e-19
-5.698547776e-19
-7.558890699e-19
-7.490609676e-19
-9.738635292e-19
-9.54558849e-19
-1.233772687e-18
-1.176294969e-18
-1.523761663e-18
-1.39663201e-18
-1.818059683e-18
-1.591401968e-18
-2.082857116e-18
-1.733978243e-18
-2.285050609e-18
-1.795316905e-18
-2.383580834e-18
-1.714423777e-18
-2.185885065e-18
-1.361229548e-18
-1.719266567e-18
-4.525446291e-19
1.813501056e-19
-1.597470754e-20
7.479886719e-19
-7.808070889e-19
3.279250891e-19
7.194919656e-20
3.400993516e-20
2.507735567e-19
6.076149355e-20
-6.846946351e-20
4.157922189e-20
-8.03859079e-21
1.038602978e-19
-1.005015081e-19
1.246325993e-19
-2.972553535e-20
9.074914449e-20
6.567755299e-20
7.210204495e-20
6.747404721e-20
5.790835526e-20
7.361484354e-20
3.60373305e-20
9.026785309e-20
1.641151058e-20
8.973345641e-20
3.601533897e-21
7.864735228e-20
-2.930705008e-21
6.568589336e-20
-5.202602155e-21
5.499152909e-20
-5.061967913e-21
4.775859163e-20
-3.882377428e-21
4.404944739e-20
-2.740979135e-21
4.371971028e-20
-2.710912753e-21
4.67523315e-20
-5.155396238e-21
5.325595718e-20
-1.190264895e-20
6.312757345e-20
-2.492969461e-20
7.51249545e-20
-4.46948559e-20
8.505586929e-20
-6.651027079e-20
8.42091616e-20
-8.031299834e-20
6.598910515e-20
-9.81731739e-20
5.828565033e-20
-1.310585143e-19
5.546096448e-20
-1.096636746e-19
-3.996926e-20
-4.711657225e-20
-1.105717844e-19
-6.597631685e-20
-1.830192745e-20
-3.953108945e-20
-7.800904654e-20
-3.323486208e-19
2.397378839e-19
-7.546008129e-19
6.533705547e-20
-3.724601685e-19
-7.270454562e-19
1.201512012e-18
1.945533727e-19
1.552876383e-18
-1.086465424e-19
1.530394464e-18
-9.226559505e-19
1.250968549e-18
-1.195948135e-18
9.432394822e-19
-1.100705786e-18
6.738964765e-19
-8.180058828e-19
4.710497848e-19
-4.536786572e-19
3.584442775e-19
-7.80587388e-20
3.219770229e-19
2.369258134e-19
3.281305668e-19
4.277187657e-19
3.072305697e-19
4.54631402e-19
1.647133767e-19
3.053570956e-19
-3.107607419e-32
-6.467991937e-21
-4.338375735e-21
-6.576149404e-21
-4.724089184e-21
-6.75424594e-21
-5.447475987e-21
-6.99957851e-21
-6.418818279e-21
-7.308640862e-21
-7.565729086e-21
-7.682109654e-21
-8.834596428e-21
-8.122490557e-21
-1.018652457e-20
-8.633322686e-21
-1.159330809e-20
-9.21854914e-21
-1.303440322e-20
-9.882177522e-21
-1.449476008e-20
-1.062802756e-20
-1.59632346e-20
-1.145969264e-20
-1.74314803e-20
-1.23804813e-20
-1.889309162e-20
-1.339347933e-20
-2.034300521e-20
-1.450152772e-20
-2.177701237e-20
-1.570729369e-20
-2.319143069e-20
-1.70132461e-20
-2.458281644e-20
-1.842173214e-20
-2.594780172e-20
-1.993496196e-20
-2.728292249e-20
-2.155507063e-20
-2.85845407e-20
-2.328407113e-20
-2.984873522e-20
-2.512385974e-20
-3.10712529e-20
-2.707612796e-20
-3.224742251e-20
-2.914234041e-20
-3.337211635e-20
-3.132362925e-20
-3.443965236e-20
-3.362072943e-20
-3.544373181e-20
-3.603376558e-20
-3.637730089e-20
-3.856204644e-20
-3.723244902e-20
-4.120373684e-20
-3.80002645e-20
-4.395564027e-20
-3.867076793e-20
-4.68129779e-20
-3.923282803e-20
-4.976930634e-20
-3.96741443e-20
-5.281626877e-20
-3.998114495e-20
-5.594320872e-20
-4.013886068e-20
-5.91364336e-20
-4.013069197e-20
-6.237850104e-20
-3.993826542e-20
-6.564770512e-20
-3.954142781e-20
-6.891821477e-20
-3.891862806e-20
-7.216066023e-20
-3.80476055e-20
-7.534301468e-20
-3.690642704e-20
-7.843130714e-20
-3.547470529e-20
-8.139059238e-20
-3.373528903e-20
-8.418689054e-20
-3.167679622e-20
-8.679152636e-20
-2.929786952e-20
-8.918864715e-20
-2.661373276e-20
-9.138661638e-20
-2.366574117e-20
-9.343359514e-20
-2.053424612e-20
-9.543879777e-20
-1.735562151e-20
-9.760160842e-20
-1.434445479e-20
-1.002516678e-19
-1.182257528e-20
-1.039022055e-19
-1.025623404e-20
-1.093184213e-19
-1.030245927e-20
-1.176016061e-19
-1.286412321e-20
-1.302895746e-19
-1.915163986e-20
-1.494717796e-19
-3.074586832e-20
-1.779139965e-19
-4.96529073e-20
-2.191803809e-19
-7.833504574e-20
-2.777335854e-19
-1.196950669e-19
-3.589835112e-19
-1.769804838e-19
-4.692413522e-19
-2.535629621e-19
-6.155062789e-19
-3.525350128e-19
-8.049615007e-19
-4.760613339e-19
-1.043981436e-18
-6.244396303e-19
-1.336393889e-18
-7.949001027e-19
-1.680858322e-18
-9.803476074e-19
-2.067848678e-18
-1.168505764e-18
-2.477763553e-18
-1.3419198e-18
-2.881606382e-18
-1.478192489e-18
-3.238583029e-18
-1.547141864e-18
-3.477747199e-18
-1.500475694e-18
-3.440376725e-18
-1.274799453e-18
-2.904455057e-18
-8.448659065e-19
-1.818152018e-18
-5.687255944e-19
-9.164882088e-19
-8.275977619e-19
1.434690505e-30
-1.56489775e-19
-3.185835983e-20
3.363656449e-19
1.21192367e-19
-2.215163551e-19
-5.088369487e-20
1.640407168e-19
1.74636271e-19
-3.260202687e-19
2.200356886e-19
-7.513329582e-20
9.254563926e-20
1.931798553e-19
7.824284215e-20
8.177758664e-20
7.456136472e-20
7.730163924e-20
3.550293403e-20
1.293286016e-19
5.325407015e-21
1.199117897e-19
-9.359925472e-21
9.333113882e-20
-1.362506926e-20
6.994721721e-20
-1.243553936e-20
5.379793412e-20
-8.77111247e-21
4.409192316e-20
-4.212114561e-21
3.949006006e-20
2.91642349e-22
3.921692366e-20
3.792712627e-21
4.325400784e-20
4.716219971e-21
5.233636308e-20
9.473247349e-23
6.775208544e-20
-1.499878041e-20
9.022055228e-20
-4.554156386e-20
1.156030993e-19
-8.473032724e-20
1.234143761e-19
-8.801645404e-20
6.925169016e-20
-1.009978603e-19
7.126327458e-20
-2.264887398e-19
1.809550466e-19
-1.802661995e-19
-8.619384685e-20
4.515328416e-20
-3.359982639e-19
-1.256834368e-19
1.52532403e-19
2.484111577e-20
-2.285335991e-19
-1.517638159e-30
3.42803889e-19
6.797164311e-19
-8.587072369e-20
1.169631612e-18
-6.642231359e-19
2.029467705e-18
-3.012514603e-19
2.468136628e-18
-4.630150421e-19
2.402722819e-18
-8.487845513e-19
2.075453912e-18
-1.021843775e-18
1.686199234e-18
-9.626467748e-19
1.329547852e-18
-7.538000635e-19
1.0432668e-18
-4.715972234e-19
8.404023432e-19
-1.773048185e-19
7.011634153e-19
7.026822107e-20
5.978099498e-19
2.283692983e-19
4.629493634e-19
2.70392081e-19
2.128931378e-19
1.864553094e-19
-2.273312801e-32
-8.100835279e-21
-4.32463888e-21
-8.19673717e-21
-4.664494862e-21
-8.358489704e-21
-5.314432857e-21
-8.587106258e-21
-6.200369875e-21
-8.880561255e-21
-7.258612706e-21
-9.239882756e-21
-8.439211163e-21
-9.667216076e-21
-9.704271478e-21
-1.016547589e-20
-1.102542777e-20
-1.073800076e-20
-1.238160804e-20
-1.138825524e-20
-1.375718271e-20
-1.211963831e-20
-1.514051838e-20
-1.293538021e-20
-1.652287277e-20
-1.383850142e-20
-1.789755134e-20
-1.483180744e-20
-1.92592668e-20
-1.591788973e-20
-2.060365559e-20
-1.709913326e-20
-2.19269112e-20
-1.837773934e-20
-2.322552705e-20
-1.975573907e-20
-2.449609164e-20
-2.123502798e-20
-2.573516214e-20
-2.281737075e-20
-2.693915154e-20
-2.450439587e-20
-2.810426113e-20
-2.629754827e-20
-2.922640795e-20
-2.819804055e-20
-3.030117971e-20
-3.02067683e-20
-3.132377603e-20
-3.232423382e-20
-3.228895866e-20
-3.455040789e-20
-3.319096996e-20
-3.688455575e-20
-3.402345167e-20
-3.93249863e-20
-3.477934098e-20
-4.186880025e-20
-3.545080363e-20
-4.451165389e-20
-3.6029181e-20
-4.724759632e-20
-3.650497974e-20
-5.006890685e-20
-3.686784613e-20
-5.29658326e-20
-3.710650061e-20
-5.59261055e-20
-3.720857887e-20
-5.893430469e-20
-3.716045083e-20
-6.197127759e-20
-3.694708938e-20
-6.501398483e-20
-3.655216406e-20
-6.80359142e-20
-3.595840612e-20
-7.100798487e-20
-3.51482304e-20
-7.389957276e-20
-3.41044354e-20
-7.667963211e-20
-3.281098808e-20
-7.931836471e-20
-3.125403198e-20
-8.179060644e-20
-2.942368406e-20
-8.408206214e-20
-2.731713328e-20