/*--------------------------------*- C++ -*----------------------------------*\
  =========                 |
  \\      /  F ield         | OpenFOAM: The Open Source CFD Toolbox
   \\    /   O peration     | Website:  https://openfoam.org
    \\  /    A nd           | Version:  6
     \\/     M anipulation  |
\*---------------------------------------------------------------------------*/
FoamFile
{
    version     2.0;
    format      ascii;
    class       volScalarField;
    location    "0.001";
    object      TRHS;
}
// * * * * * * * * * * * * * * * * * * * * * * * * * * * * * * * * * * * * * //

dimensions      [1 -1 -3 0 0 0 0];

internalField   nonuniform List<scalar> 
600
(
1.393628581e-09
4.475224405e-10
5.080504125e-11
-1.980690121e-10
-4.013913152e-10
-6.73032851e-10
-1.12041375e-09
-1.892369358e-09
-3.137342922e-09
-4.825585588e-09
-6.131511748e-09
-4.098968255e-09
8.451072081e-09
4.022343843e-08
5.98948675e-08
5.672634876e-08
-2.62764376e-07
21.92721345
18.22874913
0
0
0
0
0
0
0
-0.005972238653
20.34657071
-5.117021634e-05
-2.519401748e-10
1.591339334e-09
5.201889511e-10
5.627863397e-11
-2.405363266e-10
-4.813290663e-10
-7.855558657e-10
-1.253671528e-09
-2.011615492e-09
-3.189215542e-09
-4.865235738e-09
-6.840921404e-09
-8.319244758e-09
-7.508610808e-09
-2.05115608e-09
2.207648315e-08
1.030245721e-07
4.119631715e-07
-5.478301849e-05
-4.604621412e-05
441.0458492
132.9583696
126.7899674
66.44120738
117.6990121
105.8928943
360.0707085
-1.798626824e-07
-1.465863884e-07
-1.439186717e-08
7.129914706e-08
1.60531074e-09
5.18016259e-10
4.936626233e-11
-2.513791532e-10
-4.994445634e-10
-8.136402441e-10
-1.302284103e-09
-2.095824164e-09
-3.374236336e-09
-5.378986024e-09
-8.445348428e-09
-1.308980292e-08
-2.023666379e-08
-3.100590506e-08
-3.763545462e-08
-1.558578602e-08
4.877890752e-08
1.628533522e-07
6.766366325e-07
-0.002211549099
-0.0006554113317
-0.0006224748264
-0.0003180323844
-0.0005775872143
-0.0005205318966
-0.001805471592
-1.795536272e-07
-2.087309608e-07
-3.076484496e-07
-1.937809862e-07
1.457977792e-09
4.566630874e-10
4.211994838e-11
-2.251636816e-10
-4.493624631e-10
-7.51212065e-10
-1.241561472e-09
-2.059565848e-09
-3.371121739e-09
-5.31740515e-09
-7.818847522e-09
-1.022102045e-08
-1.092962289e-08
-7.649950081e-09
1.330928801e-08
8.834964763e-08
3.914906896e-07
-4.398207746e-05
-2.758761442e-05
436.8921333
127.0402084
120.1428564
59.72073683
111.4271103
100.5996502
356.5225472
-2.266177927e-07
-1.619095441e-07
-2.454052151e-08
6.369174299e-08
1.176497942e-09
3.522899479e-10
3.977139289e-11
-1.592751293e-10
-3.333206867e-10
-6.007060809e-10
-1.09022823e-09
-1.98144632e-09
-3.497153815e-09
-5.744744112e-09
-8.134946084e-09
-8.056354433e-09
1.236637495e-09
2.820823821e-08
4.126874728e-08
3.014746976e-08
-2.854352007e-07
17.63588928
10.89959331
0
0
0
0
0
0
0
-0.006186229415
17.08496159
-4.295267848e-05
-2.154444654e-10
8.030446816e-10
2.202480579e-10
4.519712067e-11
-5.959234005e-11
-1.581220179e-10
-3.66145609e-10
-8.458523109e-10
-1.889911122e-09
-4.006388336e-09
-7.905685487e-09
-1.403278976e-08
-2.089099105e-08
-2.030271033e-08
7.461968043e-10
1.10851776e-07
-0.0001046741524
41.55317049
0
0
0
0
0
0
0
0
0
0
0
391.8050893
-0.002065114083
3.888613249e-10
7.758415652e-11
5.622975875e-11
6.114125618e-11
6.028365976e-11
-4.733578881e-11
-4.388653633e-10
-1.502231987e-09
-4.064332742e-09
-9.774281722e-09
-2.159807302e-08
-4.403058312e-08
-7.521585649e-08
-4.478472708e-08
2.6558401e-08
-0.0006628108254
106.5547472
0
0
0
0
0
0
0
0
0
0
0
-0.005417580673
-2.511078054e-05
-8.547721747e-12
-5.892471426e-11
6.626357845e-11
1.77390312e-10
2.774900358e-10
2.96077201e-10
8.899070065e-11
-6.740893194e-10
-2.686390769e-09
-7.266205728e-09
-1.665389746e-08
-3.482596333e-08
-9.173141543e-08
-1.728680624e-07
-2.950019409e-07
156.4892919
0
0
0
0
0
0
0
0
0
0
0
0
0
-0.002528705261
-3.367965106e-10
-1.751309529e-10
6.606078081e-11
2.564081838e-10
4.240609811e-10
5.127716822e-10
3.831655538e-10
-3.021092365e-10
-2.232320459e-09
-6.61188327e-09
-1.517640937e-08
-3.198112734e-08
-1.193579792e-07
-2.345596429e-07
-2.060585905e-07
-0.006212997051
0
0
0
0
0
0
0
0
0
0
0
0
0
0
-5.539113678e-10
-2.582146133e-10
5.212021726e-11
2.831246642e-10
4.72055621e-10
5.554533667e-10
3.431452603e-10
-6.593065732e-10
-3.572269642e-09
-1.061528067e-08
-2.548917263e-08
-5.177278331e-08
-6.28663972e-08
-9.653118242e-08
-0.0001753856329
69.5680886
0
0
0
0
0
0
0
0
0
0
0
0
0
0
-6.376968554e-10
-3.00454689e-10
2.696539332e-11
2.626352492e-10
4.491897312e-10
5.272256421e-10
3.105853742e-10
-6.963567912e-10
-3.619650713e-09
-1.070280881e-08
-2.566970647e-08
-5.218554034e-08
-6.363827595e-08
-9.819890484e-08
-0.0001753155568
69.53973364
0
0
0
0
0
0
0
0
0
0
0
0
0
0
-5.865449776e-10
-3.009441339e-10
-8.503809224e-12
1.970109989e-10
3.584472852e-10
4.336196288e-10
2.917952498e-10
-4.030277783e-10
-2.361160844e-09
-6.837634901e-09
-1.568059019e-08
-3.308536455e-08
-1.216043894e-07
-2.396224611e-07
-2.108781137e-07
-0.006215769986
0
0
0
0
0
0
0
0
0
0
0
0
0
0
-4.222473881e-10
-2.670588131e-10
-5.524295614e-11
8.344465384e-11
1.772450242e-10
1.774672926e-10
-4.535747147e-11
-8.205640421e-10
-2.866338895e-09
-7.573732435e-09
-1.730520658e-08
-3.627788804e-08
-9.535711636e-08
-1.811906629e-07
-2.944394009e-07
156.406716
0
0
0
0
0
0
0
0
0
0
0
0
0
-0.00247837817
-1.827733665e-10
-2.09547512e-10
-1.081018319e-10
-6.045931621e-11
-6.399877292e-11
-1.908445354e-10
-6.002510914e-10
-1.678855699e-09
-4.282562392e-09
-1.013451423e-08
-2.233451651e-08
-4.559607319e-08
-7.83088639e-08
-4.980772343e-08
2.288467301e-08
-0.0006619464011
106.2901468
0
0
0
0
0
0
0
0
0
0
0
-0.005430656131
-2.640565848e-05
8.148754082e-11
-1.413697283e-10
-1.566085001e-10
-2.012218303e-10
-2.958106435e-10
-5.220574383e-10
-1.022878257e-09
-2.090457196e-09
-4.264409051e-09
-8.329213155e-09
-1.487515739e-08
-2.26451328e-08
-2.397822e-08
-7.64749794e-09
9.210278384e-08
-0.0001041703274
41.34922237
0
0
0
0
0
0
0
0
0
0
0
391.1475364
-0.002065608438
3.195436137e-10
-7.665609262e-11
-1.928327327e-10
-3.137069153e-10
-4.751147148e-10
-7.604691119e-10
-1.276639306e-09
-2.207230703e-09
-3.801731546e-09
-6.238654141e-09
-9.038771606e-09
-9.795030676e-09
-2.0089936e-09
2.19364848e-08
2.711991742e-08
1.374965017e-08
-3.018658283e-07
17.2768163
10.02012392
0
0
0
0
0
0
0
-0.006133422172
18.12055558
-4.555907076e-05
-8.500694533e-11
4.852380591e-10
-2.822073473e-11
-2.142463496e-10
-3.841157225e-10
-5.887229837e-10
-9.075067317e-10
-1.437262064e-09
-2.317308696e-09
-3.753008779e-09
-5.954389044e-09
-8.978523852e-09
-1.239303299e-08
-1.49485672e-08
-1.475301383e-08
1.62664285e-09
6.87024402e-08
3.628484143e-07
-4.309824096e-05
-2.536526914e-05
435.2302211
128.5608766
122.6369614
62.44464494
113.9959277
102.5664572
357.0164545
-1.907534202e-07
-1.536413744e-07
-2.280107117e-08
8.237678845e-08
5.507445185e-10
-6.851853545e-12
-2.1913186e-10
-4.083525755e-10
-6.282577128e-10
-9.619386229e-10
-1.503774165e-09
-2.396017164e-09
-3.864726425e-09
-6.249033636e-09
-1.005788687e-08
-1.608423305e-08
-2.564211624e-08
-4.020199748e-08
-5.208417405e-08
-3.859869567e-08
1.839197739e-08
1.481664373e-07
6.454269229e-07
-0.002192602738
-0.0006481286377
-0.0006184153561
-0.0003150798948
-0.000575085263
-0.0005175344094
-0.001799388451
-1.93867513e-07
-2.087696718e-07
-3.27280147e-07
-1.789788859e-07
5.061011122e-10
-1.577958266e-11
-2.06990553e-10
-3.841917079e-10
-5.898239017e-10
-9.163366441e-10
-1.453677159e-09
-2.357098878e-09
-3.820310798e-09
-6.071222641e-09
-9.164722227e-09
-1.27258528e-08
-1.553028852e-08
-1.562360241e-08
4.143027056e-10
6.490055471e-08
3.605471818e-07
-4.254476455e-05
-2.471092767e-05
435.1811727
128.5486931
122.6854901
62.54606192
114.1376788
102.736998
357.160159
-2.122041307e-07
-1.72691899e-07
8.448769509e-09
7.433751706e-08
3.633861319e-10
-4.575502096e-11
-1.810312588e-10
-3.091571534e-10
-4.800232971e-10
-7.712737958e-10
-1.310817901e-09
-2.278620044e-09
-3.946623083e-09
-6.483527319e-09
-9.464288122e-09
-1.051427404e-08
-3.212249141e-09
1.987025379e-08
2.187397959e-08
6.986937541e-09
-3.086106987e-07
17.05672269
9.759568854
0
0
0
0
0
0
0
-0.006121988256
18.3328613
-4.610277042e-05
-8.18533442e-11
)
;

boundaryField
{
    lowerWall
    {
        type            calculated;
        value           nonuniform 0();
    }
    atmosphere
    {
        type            calculated;
        value           nonuniform List<scalar> 
20
(
1.393628581e-09
1.591339334e-09
1.60531074e-09
1.457977792e-09
1.176497942e-09
8.030446816e-10
3.888613249e-10
-8.547721747e-12
-3.367965106e-10
-5.539113678e-10
-6.376968554e-10
-5.865449776e-10
-4.222473881e-10
-1.827733665e-10
8.148754082e-11
3.195436137e-10
4.852380591e-10
5.507445185e-10
5.061011122e-10
3.633861319e-10
)
;
    }
    rightWall
    {
        type            empty;
    }
    leftWall
    {
        type            empty;
    }
    frontAndBack
    {
        type            calculated;
        value           nonuniform 0();
    }
    procBoundary2to0
    {
        type            processor;
        value           nonuniform List<scalar> 
30
(
9.74370793e-10
2.656045511e-10
4.652700001e-12
-1.433717671e-10
-2.770996745e-10
-4.886006457e-10
-9.164824426e-10
-1.791813288e-09
-3.516808911e-09
-6.584730795e-09
-1.108312407e-08
-1.494303411e-08
-9.312802446e-09
1.866261925e-08
1.388605889e-07
-0.0001164527135
46.23581439
0
0
0
0
0
0
0
0
0
0
0
393.7128196
-0.002066295491
)
;
    }
    procBoundary2to3
    {
        type            processor;
        value           nonuniform List<scalar> 
20
(
-9.828763159e-05
-0.008773702983
-0.007212221876
-0.008774500233
-8.647299967e-05
427.410757
9.95338304
0
0
0
0
0
0
10.46709155
428.2645126
-3.379468263e-05
-0.008695011692
-0.007138562331
-0.008690896168
-2.985053753e-05
)
;
    }
    procBoundary2to4
    {
        type            processor;
        value           nonuniform List<scalar> 
30
(
1.611479193e-10
-9.253294362e-11
-1.347977918e-10
-1.969203104e-10
-2.989407022e-10
-5.37061767e-10
-1.063159422e-09
-2.197449608e-09
-4.487437538e-09
-8.752518515e-09
-1.563114152e-08
-2.401239833e-08
-2.639600071e-08
-1.158899575e-08
8.494416939e-08
-0.0001032911789
40.9977723
0
0
0
0
0
0
0
0
0
0
0
391.0692514
-0.002065449672
)
;
    }
}


// ************************************************************************* //
