/*--------------------------------*- C++ -*----------------------------------*\
  =========                 |
  \\      /  F ield         | OpenFOAM: The Open Source CFD Toolbox
   \\    /   O peration     | Website:  https://openfoam.org
    \\  /    A nd           | Version:  6
     \\/     M anipulation  |
\*---------------------------------------------------------------------------*/
FoamFile
{
    version     2.0;
    format      ascii;
    class       volScalarField;
    location    "0.0021";
    object      TRHS;
}
// * * * * * * * * * * * * * * * * * * * * * * * * * * * * * * * * * * * * * //

dimensions      [1 -1 -3 0 0 0 0];

internalField   nonuniform List<scalar> 
9600
(
1.187577218e-09
1.133985292e-09
1.107517375e-09
1.094669648e-09
1.108081325e-09
1.13058854e-09
1.148564424e-09
1.169582819e-09
1.182106772e-09
1.195021977e-09
1.197747783e-09
1.199933335e-09
1.191059685e-09
1.180748543e-09
1.157981708e-09
1.132077021e-09
1.091420674e-09
1.044834813e-09
9.795834079e-10
9.03121666e-10
8.007353939e-10
6.779824577e-10
5.181746926e-10
3.250340376e-10
7.940386976e-11
-2.184297612e-10
-5.925567443e-10
-1.048475668e-09
-1.616165003e-09
-2.306044383e-09
-3.1524663e-09
-4.170843789e-09
-5.402902019e-09
-6.87391026e-09
-8.636223123e-09
-1.072405537e-08
-1.31962598e-08
-1.609287943e-08
-1.948039055e-08
-2.340823161e-08
-2.795073559e-08
-3.316002824e-08
-3.910802458e-08
-4.584432142e-08
-5.344353665e-08
-6.196502597e-08
-7.149511572e-08
-8.209988531e-08
-9.38643562e-08
-1.068513788e-07
-1.211528948e-07
-1.36853967e-07
-1.540803956e-07
-1.729607938e-07
-1.936909167e-07
-2.1653417e-07
-2.419794825e-07
-2.70965387e-07
-3.053457e-07
-3.476770709e-07
-3.987825903e-07
-4.469661398e-07
-4.416322223e-07
-3.320101324e-07
-1.595110125e-07
-8.771234342e-07
-0.001635038966
1294.970118
0
0
0
0
0
0
0
0
0
0
0
0
0
0
0
0
0
0
0
0
0
0
0
0
0
0
0
0
0
0
0
0
0
0
0
0
0
0
0
0
0
0
0
0
771.6914609
-0.0009749531914
2.613118299e-07
5.73492749e-07
3.810556345e-07
-1.032265785e-08
-2.72097721e-07
-4.056359868e-08
1.279544695e-09
1.211001878e-09
1.173263589e-09
1.148458945e-09
1.153660166e-09
1.166899305e-09
1.179375333e-09
1.193461121e-09
1.202596428e-09
1.210405806e-09
1.211274475e-09
1.209505593e-09
1.199553701e-09
1.185676065e-09
1.161959234e-09
1.132370634e-09
1.090497704e-09
1.039589537e-09
9.720312679e-10
8.895333181e-10
7.8262048e-10
6.51245467e-10
4.841373804e-10
2.792304766e-10
2.232079425e-11
-2.927526997e-10
-6.854046315e-10
-1.167272603e-09
-1.762674071e-09
-2.487239712e-09
-3.369441857e-09
-4.430760182e-09
-5.708051794e-09
-7.23264043e-09
-9.050192255e-09
-1.119813422e-08
-1.37261065e-08
-1.66759921e-08
-2.010381425e-08
-2.405810489e-08
-2.859777402e-08
-3.376829978e-08
-3.962151848e-08
-4.619717562e-08
-5.354625048e-08
-6.171172303e-08
-7.074631041e-08
-8.068872044e-08
-9.158288503e-08
-1.034631412e-07
-1.16382058e-07
-1.303947549e-07
-1.455773403e-07
-1.619986413e-07
-1.797195147e-07
-1.987540459e-07
-2.191760637e-07
-2.415405903e-07
-2.68029544e-07
-3.043483112e-07
-3.60635875e-07
-4.34922399e-07
-4.514261083e-07
-3.968222369e-07
8.184722962e-07
-0.005374280417
2131.937268
0
0
0
0
0
0
0
0
0
0
0
0
0
0
0
0
0
0
0
0
0
0
0
0
0
0
0
0
0
0
0
0
0
0
0
0
0
0
0
0
0
0
0
0
0
0
1865.889429
-0.004703110732
8.704592631e-07
2.655104895e-07
3.078511554e-08
-3.208659452e-07
-7.685105387e-08
1.375403599e-09
1.290450227e-09
1.241386211e-09
1.203743594e-09
1.20074181e-09
1.203925713e-09
1.211008319e-09
1.217520916e-09
1.223482111e-09
1.225589238e-09
1.224891883e-09
1.218584596e-09
1.207883992e-09
1.189862564e-09
1.165549006e-09
1.131702256e-09
1.088915505e-09
1.033079475e-09
9.634893089e-10
8.743457656e-10
7.631971007e-10
6.225323548e-10
4.482049251e-10
2.304327491e-10
-3.824034539e-11
-3.722324477e-10
-7.843831501e-10
-1.294231642e-09
-1.918712228e-09
-2.68070128e-09
-3.601293077e-09
-4.710002098e-09
-6.03706546e-09
-7.621565379e-09
-9.500845237e-09
-1.171744522e-08
-1.431041271e-08
-1.73252036e-08
-2.080569204e-08
-2.480095777e-08
-2.935308277e-08
-3.450245695e-08
-4.02788903e-08
-4.671185173e-08
-5.382404596e-08
-6.1639066e-08
-7.016991676e-08
-7.942428768e-08
-8.939843364e-08
-1.000929138e-07
-1.115138609e-07
-1.236864957e-07
-1.366454285e-07
-1.504167399e-07
-1.649260462e-07
-1.798461514e-07
-1.94422128e-07
-2.075467495e-07
-2.186387011e-07
-2.329026283e-07
-2.703577717e-07
-3.805403935e-07
-5.932894189e-07
4.417861797e-07
1.034650926e-06
-0.0512754993
5154.293148
0
0
0
0
0
0
0
0
0
0
0
0
0
0
0
0
0
0
0
0
0
0
0
0
0
0
0
0
0
0
0
0
0
0
0
0
0
0
0
0
0
0
0
0
0
0
4637.231481
-0.04872392463
1.953964407e-06
1.501979153e-06
5.157567448e-08
-3.090713383e-07
-4.538116017e-08
1.473212439e-09
1.373407022e-09
1.309501876e-09
1.26079053e-09
1.246384847e-09
1.24156661e-09
1.240289653e-09
1.241547011e-09
1.241527512e-09
1.240456131e-09
1.235438021e-09
1.227183761e-09
1.212958597e-09
1.193448278e-09
1.165748374e-09
1.130352156e-09
1.083848317e-09
1.025801768e-09
9.513336366e-10
8.582707363e-10
7.399783562e-10
5.927041607e-10
4.080456707e-10
1.797630233e-10
-1.04325223e-10
-4.554481349e-10
-8.912262034e-10
-1.427579582e-09
-2.085553263e-09
-2.8840559e-09
-3.848620698e-09
-5.005621215e-09
-6.390305405e-09
-8.038010636e-09
-9.989188333e-09
-1.228031287e-08
-1.495166295e-08
-1.804134424e-08
-2.159275931e-08
-2.5644535e-08
-3.023340536e-08
-3.538370447e-08
-4.111408132e-08
-4.743161075e-08
-5.433931259e-08
-6.182683582e-08
-6.987350153e-08
-7.843939977e-08
-8.74761807e-08
-9.693039245e-08
-1.067635166e-07
-1.169601912e-07
-1.275447251e-07
-1.385498775e-07
-1.499017577e-07
-1.61102168e-07
-1.705594054e-07
-1.739884221e-07
-1.618998441e-07
-1.130084741e-07
1.303572978e-08
2.465788543e-07
1.781220165e-07
3.40857022e-07
-2.378109224e-06
15187.05576
0
0
0
0
0
0
0
0
0
0
0
0
0
0
0
0
0
0
0
0
0
0
0
0
0
0
0
0
0
0
0
0
0
0
0
0
0
0
0
0
0
0
0
0
0
0
0
0
14691.51385
-1.789042029e-06
2.274553857e-06
8.076148145e-07
1.842956002e-07
1.088197518e-07
1.574518459e-09
1.457168281e-09
1.379138302e-09
1.31727021e-09
1.292486179e-09
1.277814732e-09
1.269450393e-09
1.263772047e-09
1.259251686e-09
1.253364988e-09
1.24553259e-09
1.233719029e-09
1.217491953e-09
1.194854344e-09
1.165355482e-09
1.126802318e-09
1.078217651e-09
1.016340364e-09
9.386186917e-10
8.399849342e-10
7.161691031e-10
5.604977395e-10
3.668954385e-10
1.259343756e-10
-1.72609364e-10
-5.434323459e-10
-1.002141824e-09
-1.56773691e-09
-2.258773612e-09
-3.097198262e-09
-4.106637474e-09
-5.317347103e-09
-6.762934051e-09
-8.481710351e-09
-1.051058042e-08
-1.28869663e-08
-1.564632773e-08
-1.882684678e-08
-2.246555033e-08
-2.65977709e-08
-3.124902279e-08
-3.643467627e-08
-4.215612978e-08
-4.840411198e-08
-5.515429521e-08
-6.236621923e-08
-6.997539747e-08
-7.789436701e-08
-8.601449635e-08
-9.421970279e-08
-1.024027768e-07
-1.104990221e-07
-1.185243517e-07
-1.266008476e-07
-1.349112051e-07
-1.434984612e-07
-1.515358252e-07
-1.553978401e-07
-1.426849676e-07
-8.001337462e-08
1.061895357e-07
4.708885321e-07
1.300547159e-06
-0.004184991348
1660.084553
0
0
0
0
0
0
0
0
0
0
0
0
0
0
0
0
0
0
0
0
0
0
0
0
0
0
0
0
0
0
0
0
0
0
0
0
0
0
0
0
0
0
0
0
0
0
0
0
0
0
1129.230412
-0.002845804461
1.501170764e-06
-1.810238529e-07
-1.413555277e-07
1.677176042e-09
1.542217714e-09
1.448346427e-09
1.373599075e-09
1.33714524e-09
1.313237422e-09
1.296790366e-09
1.285026832e-09
1.275071867e-09
1.265307938e-09
1.253745115e-09
1.239262405e-09
1.22012639e-09
1.195319785e-09
1.16315368e-09
1.122463009e-09
1.070951258e-09
1.006251154e-09
9.243958726e-10
8.211559791e-10
6.908459855e-10
5.276478664e-10
3.239153779e-10
7.083833648e-11
-2.436730786e-10
-6.338693078e-10
-1.117113393e-09
-1.711635102e-09
-2.43758489e-09
-3.316419183e-09
-4.374100339e-09
-5.641092049e-09
-7.153255978e-09
-8.947957181e-09
-1.106262724e-08
-1.35323592e-08
-1.639246299e-08
-1.967830922e-08
-2.342519451e-08
-2.766242701e-08
-3.240908108e-08
-3.766919063e-08
-4.343174197e-08
-4.966843653e-08
-5.633149003e-08
-6.334637904e-08
-7.060627023e-08
-7.796769315e-08
-8.525349034e-08
-9.226165409e-08
-9.878839161e-08
-1.046731377e-07
-1.098718281e-07
-1.145549609e-07
-1.192424884e-07
-1.249466042e-07
-1.330157502e-07
-1.430035553e-07
-1.467058182e-07
-9.847535992e-08
6.715788794e-08
1.273524037e-06
1.755632598e-06
-0.01653041537
5404.378824
0
0
0
0
0
0
0
0
0
0
0
0
0
0
0
0
0
0
0
0
0
0
0
0
0
0
0
0
0
0
0
0
0
0
0
0
0
0
0
0
0
0
0
0
0
0
0
0
0
0
4327.136675
-0.01090795998
3.927169028e-06
7.934995849e-07
-3.514498662e-07
1.7806978e-09
1.626581779e-09
1.516559693e-09
1.428068317e-09
1.380032487e-09
1.346356632e-09
1.322185845e-09
1.303984138e-09
1.289090194e-09
1.275098373e-09
1.260292462e-09
1.242813577e-09
1.221272987e-09
1.194021405e-09
1.159773302e-09
1.116705815e-09
1.062839468e-09
9.950440962e-10
9.095551033e-10
8.013526131e-10
6.649752638e-10
4.937626428e-10
2.801923899e-10
1.434628709e-11
-3.159886694e-10
-7.262532496e-10
-1.233840041e-09
-1.858008029e-09
-2.619003217e-09
-3.539845998e-09
-4.647412369e-09
-5.97422249e-09
-7.556658276e-09
-9.432874995e-09
-1.163940171e-08
-1.421140558e-08
-1.718341808e-08
-2.059077189e-08
-2.446654978e-08
-2.883676593e-08
-3.371404617e-08
-3.909463015e-08
-4.495604954e-08
-5.125512901e-08
-5.792190904e-08
-6.485138172e-08
-7.189407706e-08
-7.884936281e-08
-8.546194675e-08
-9.142456371e-08
-9.639690219e-08
-1.000527554e-07
-1.021634194e-07
-1.027348617e-07
-1.02277312e-07
-1.023091552e-07
-1.054937626e-07
-1.14959825e-07
-1.173415127e-07
-3.194630599e-08
1.54453847e-07
1.188305985e-06
9.034719974e-07
1153.460649
0
0
0
0
0
0
0
0
0
0
0
0
0
0
0
0
0
0
0
0
0
0
0
0
0
0
0
0
0
0
0
0
0
0
0
0
0
0
0
0
0
0
0
0
0
0
0
0
0
0
0
0
-0.1846255101
2.103810994e-06
1.934945224e-06
-4.238140583e-07
1.883148693e-09
1.709147408e-09
1.582060499e-09
1.479597427e-09
1.419604675e-09
1.376323912e-09
1.344355888e-09
1.320059826e-09
1.300222516e-09
1.282379898e-09
1.264321438e-09
1.244230032e-09
1.220327804e-09
1.191073417e-09
1.15483098e-09
1.109840902e-09
1.053651294e-09
9.830978792e-10
8.939000681e-10
7.809994204e-10
6.384205338e-10
4.594438159e-10
2.358482117e-10
-4.256635151e-11
-3.888867899e-10
-8.189248264e-10
-1.350893494e-09
-2.004423406e-09
-2.800906522e-09
-3.764419488e-09
-4.923714654e-09
-6.312590148e-09
-7.968670504e-09
-9.930219409e-09
-1.223413648e-08
-1.491578798e-08
-1.801072331e-08
-2.155464516e-08
-2.55802658e-08
-3.011117039e-08
-3.515626609e-08
-4.070624886e-08
-4.673145275e-08
-5.317778442e-08
-5.995877403e-08
-6.694447629e-08
-7.394879382e-08
-8.071740377e-08
-8.691513255e-08
-9.211840181e-08
-9.582159655e-08
-9.74707402e-08
-9.652427951e-08
-9.256054621e-08
-8.553700392e-08
-7.636654689e-08
-6.961137656e-08
-7.647890079e-08
-1.240813164e-07
-2.070833891e-07
2.804087135e-07
8.180680995e-07
-0.02765245361
4270.465397
0
0
0
0
0
0
0
0
0
0
0
0
0
0
0
0
0
0
0
0
0
0
0
0
0
0
0
0
0
0
0
0
0
0
0
0
0
0
0
0
0
0
0
0
0
0
0
0
0
0
0
0
1533.943332
-0.003867608258
4.172282543e-06
-3.438238368e-07
1.982632351e-09
1.787641329e-09
1.64307338e-09
1.52633189e-09
1.454442764e-09
1.40162447e-09
1.36220247e-09
1.33203272e-09
1.307664365e-09
1.28621282e-09
1.265326796e-09
1.242895748e-09
1.217092967e-09
1.186163982e-09
1.148390842e-09
1.101705822e-09
1.043527874e-09
9.70311797e-10
8.776228235e-10
7.600634995e-10
6.115160265e-10
4.248628234e-10
1.915641863e-10
-9.92133523e-11
-4.610665953e-10
-9.105210776e-10
-1.466309397e-09
-2.148918743e-09
-2.980723053e-09
-3.987401965e-09
-5.199304644e-09
-6.651822688e-09
-8.383413629e-09
-1.043296817e-08
-1.283799525e-08
-1.5635294e-08
-1.886227537e-08
-2.25563921e-08
-2.675090898e-08
-3.146878633e-08
-3.671746743e-08
-4.248594743e-08
-4.874216044e-08
-5.542740369e-08
-6.244652496e-08
-6.965402316e-08
-7.683860888e-08
-8.370407753e-08
-8.984653909e-08
-9.473053568e-08
-9.767934201e-08
-9.788797664e-08
-9.445731774e-08
-8.641199029e-08
-7.249526067e-08
-5.023633554e-08
-1.198813634e-08
6.288061261e-08
2.198144697e-07
-1.057565324e-07
5.964588714e-07
-1.835409922e-06
6698.94614
0
0
0
0
0
0
0
0
0
0
0
0
0
0
0
0
0
0
0
0
0
0
0
0
0
0
0
0
0
0
0
0
0
0
0
0
0
0
0
0
0
0
0
0
0
0
0
0
0
0
0
0
0
0
-0.2400292382
4.139981732e-06
-0.05859485617
2.076453276e-09
1.85977439e-09
1.697220184e-09
1.566179119e-09
1.482529287e-09
1.420575672e-09
1.374123858e-09
1.338640913e-09
1.31022857e-09
1.285745361e-09
1.262536993e-09
1.238360167e-09
1.211190108e-09
1.17914086e-09
1.14024449e-09
1.092276926e-09
1.032328403e-09
9.566735447e-10
8.606306748e-10
7.386667786e-10
5.844035722e-10
3.904883025e-10
1.479143594e-10
-1.546298163e-10
-5.314088041e-10
-9.995094081e-10
-1.578380086e-09
-2.289366019e-09
-3.156099969e-09
-4.205774266e-09
-5.470441217e-09
-6.986787164e-09
-8.794263504e-09
-1.093257805e-08
-1.344064574e-08
-1.635750812e-08
-1.972340275e-08
-2.357833303e-08
-2.79572918e-08
-3.288437128e-08
-3.836837882e-08
-4.440067237e-08
-5.095221244e-08
-5.796714342e-08
-6.535113732e-08
-7.29567315e-08
-8.056447768e-08
-8.785847012e-08
-9.439034118e-08
-9.95368761e-08
-1.024627381e-07
-1.021158744e-07
-9.730901939e-08
-8.700534564e-08
-7.087205375e-08
-4.900877211e-08
-1.875131096e-08
4.390987381e-08
2.319375369e-07
5.765998574e-07
1.650392273e-06
1.608587053e-06
-0.009267060189
0
0
0
0
0
0
0
0
0
0
0
0
0
0
0
0
0
0
0
0
0
0
0
0
0
0
0
0
0
0
0
0
0
0
0
0
0
0
0
0
0
0
0
0
0
0
0
0
0
0
0
0
0
0
-0.06320962147
-1.59385737e-07
-0.0314333357
2.161390431e-09
1.922180623e-09
1.741543292e-09
1.596393494e-09
1.501464068e-09
1.43099355e-09
1.378280682e-09
1.338261065e-09
1.306635301e-09
1.279908593e-09
1.255198501e-09
1.230048916e-09
1.202247282e-09
1.169692076e-09
1.130217432e-09
1.081310473e-09
1.019897312e-09
9.420361995e-10
8.429205534e-10
7.168815544e-10
5.573928908e-10
3.567763395e-10
1.056396452e-10
-2.079172306e-10
-5.987183818e-10
-1.084543451e-09
-1.685523824e-09
-2.423935377e-09
-3.3246469e-09
-4.416417832e-09
-5.732803749e-09
-7.31178224e-09
-9.193788589e-09
-1.141971895e-08
-1.403050276e-08
-1.706821758e-08
-2.057664842e-08
-2.459902633e-08
-2.917299535e-08
-3.432536022e-08
-4.006912565e-08
-4.640202704e-08
-5.330380283e-08
-6.072874548e-08
-6.859426221e-08
-7.676591188e-08
-8.503929675e-08
-9.311089304e-08
-1.005311492e-07
-1.066330205e-07
-1.104365342e-07
-1.105333857e-07
-1.050294358e-07
-9.186486115e-08
-7.01699691e-08
-4.459116849e-08
-3.201433606e-08
-6.622271302e-08
-7.346986874e-08
1.30298463e-06
2.401707933e-06
-0.06628730052
18517.92171
0
0
0
0
0
0
0
0
0
0
0
0
0
0
0
0
0
0
0
0
0
0
0
0
0
0
0
0
0
0
0
0
0
0
0
0
0
0
0
0
0
0
0
0
0
0
0
0
0
0
0
0
0
0
12095.21579
-0.03049019452
-8.128528217e-07
2.23324034e-09
1.971119879e-09
1.772380506e-09
1.613657035e-09
1.508243056e-09
1.430290175e-09
1.372427082e-09
1.329047684e-09
1.295372142e-09
1.267571908e-09
1.24246475e-09
1.217360456e-09
1.189805782e-09
1.15748479e-09
1.117962009e-09
1.068556246e-09
1.005993077e-09
9.262609155e-10
8.24476414e-10
6.949026949e-10
5.308259209e-10
3.242910065e-10
6.542146282e-11
-2.58205073e-10
-6.620545687e-10
-1.164477141e-09
-1.786341476e-09
-2.550813873e-09
-3.484009852e-09
-4.616044472e-09
-5.981892701e-09
-7.620676292e-09
-9.573983349e-09
-1.18843191e-08
-1.459519172e-08
-1.775218563e-08
-2.140292888e-08
-2.55942396e-08
-3.036713746e-08
-3.575276534e-08
-4.177069152e-08
-4.842861075e-08
-5.5719414e-08
-6.361421108e-08
-7.205158226e-08
-8.092622428e-08
-9.007398923e-08
-9.924669509e-08
-1.080625186e-07
-1.159167965e-07
-1.218138297e-07
-1.240383159e-07
-1.195256538e-07
-1.027668687e-07
-6.422142522e-08
1.054125165e-08
1.43720816e-07
3.662656086e-07
3.138102303e-07
8.42939504e-07
-1.371674404e-06
7778.385768
0
0
0
0
0
0
0
0
0
0
0
0
0
0
0
0
0
0
0
0
0
0
0
0
0
0
0
0
0
0
0
0
0
0
0
0
0
0
0
0
0
0
0
0
0
0
0
0
0
0
0
0
0
0
0
0
1198.276722
-0.01059671338
2.286908092e-09
2.001431356e-09
1.785114126e-09
1.613807361e-09
1.499235257e-09
1.415316953e-09
1.353985822e-09
1.308919729e-09
1.274855396e-09
1.247533398e-09
1.22346492e-09
1.199645591e-09
1.173379767e-09
1.142077925e-09
1.103120439e-09
1.053668854e-09
9.903976195e-10
9.092676517e-10
8.054120752e-10
6.729926175e-10
5.051436813e-10
2.935392408e-10
2.787206679e-11
-3.048437869e-10
-7.206202635e-10
-1.238380427e-09
-1.879615653e-09
-2.66833254e-09
-3.631696935e-09
-4.801138745e-09
-6.212837892e-09
-7.907105342e-09
-9.926794325e-09
-1.23163383e-08
-1.512214527e-08
-1.839350359e-08
-2.21819498e-08
-2.653789825e-08
-3.150624891e-08
-3.712349283e-08
-4.341770481e-08
-5.040878523e-08
-5.810597775e-08
-6.650109279e-08
-7.556079188e-08
-8.522009172e-08
-9.537700715e-08
-1.058799562e-07
-1.165003058e-07
-1.268750363e-07
-1.363813105e-07
-1.438227822e-07
-1.466434004e-07
-1.389556082e-07
-1.070900693e-07
-1.950267073e-08
1.888761576e-07
6.057195692e-07
2.789570303e-07
1.442005478e-06
-7.974493808e-07
-0.5625962439
0
0
0
0
0
0
0
0
0
0
0
0
0
0
0
0
0
0
0
0
0
0
0
0
0
0
0
0
0
0
0
0
0
0
0
0
0
0
0
0
0
0
0
0
0
0
0
0
0
0
0
0
0
0
0
0
-0.3421671778
-0.001748194708
2.315861688e-09
2.007155133e-09
1.77410937e-09
1.591795298e-09
1.470058925e-09
1.382458751e-09
1.319989698e-09
1.275583245e-09
1.243344459e-09
1.218532232e-09
1.197260103e-09
1.176211286e-09
1.152388272e-09
1.122985023e-09
1.085272301e-09
1.036359527e-09
9.729568237e-10
8.911093348e-10
7.859120866e-10
6.514945242e-10
4.807256072e-10
2.649544946e-10
-6.60034604e-12
-3.473896563e-10
-7.738911626e-10
-1.305479043e-09
-1.964190472e-09
-2.774717366e-09
-3.765203322e-09
-4.968143371e-09
-6.420891697e-09
-8.164871561e-09
-1.024440934e-08
-1.270607901e-08
-1.55992419e-08
-1.897670131e-08
-2.289348422e-08
-2.740346923e-08
-3.255560223e-08
-3.839258339e-08
-4.495183631e-08
-5.226650571e-08
-6.036278016e-08
-6.925441946e-08
-7.893769324e-08
-8.939162318e-08
-1.005822664e-07
-1.124690585e-07
-1.250123287e-07
-1.381933155e-07
-1.520559506e-07
-1.667682143e-07
-1.826323723e-07
-1.996563077e-07
-2.150416825e-07
-2.145606595e-07
-1.465424177e-07
1.471775556e-07
1.707207783e-06
3.381985753e-06
-0.03520210642
13965.70375
0
0
0
0
0
0
0
0
0
0
0
0
0
0
0
0
0
0
0
0
0
0
0
0
0
0
0
0
0
0
0
0
0
0
0
0
0
0
0
0
0
0
0
0
0
0
0
0
0
0
0
0
0
0
0
0
25082.7081
-0.1147723256
2.312072993e-09
1.980404989e-09
1.732304013e-09
1.541465203e-09
1.415540513e-09
1.327499704e-09
1.267184409e-09
1.226588358e-09
1.19906581e-09
1.179287086e-09
1.162946012e-09
1.146342834e-09
1.126267734e-09
1.099757383e-09
1.064097487e-09
1.016460749e-09
9.53707334e-10
8.719339028e-10
7.662908902e-10
6.307231842e-10
4.578872622e-10
2.387655022e-10
-3.77857162e-11
-3.855876963e-10
-8.214525344e-10
-1.365099611e-09
-2.03891208e-09
-2.868224867e-09
-3.881938811e-09
-5.113575662e-09
-6.60150831e-09
-8.388346172e-09
-1.051990711e-08
-1.304484083e-08
-1.601526342e-08
-1.948697589e-08
-2.351796846e-08
-2.816511253e-08
-3.348143677e-08
-3.951591591e-08
-4.631552405e-08
-5.392609743e-08
-6.238983441e-08
-7.174046371e-08
-8.200129951e-08
-9.31896971e-08
-1.053284198e-07
-1.184609992e-07
-1.326788069e-07
-1.48181331e-07
-1.654190849e-07
-1.854097448e-07
-2.104142343e-07
-2.450709173e-07
-2.979760937e-07
-3.781906861e-07
-4.712330245e-07
-4.31484423e-07
1.296918791e-06
3.28698614e-06
-0.0642874453
16739.66293
0
0
0
0
0
0
0
0
0
0
0
0
0
0
0
0
0
0
0
0
0
0
0
0
0
0
0
0
0
0
0
0
0
0
0
0
0
0
0
0
0
0
0
0
0
0
0
0
0
0
0
0
0
0
0
0
-0.1586430943
-2.088435165e-06
2.265288238e-09
1.911742676e-09
1.651075533e-09
1.455433761e-09
1.329641065e-09
1.245731663e-09
1.192059057e-09
1.159416789e-09
1.140240778e-09
1.12859142e-09
1.119626236e-09
1.109409934e-09
1.09451955e-09
1.072065286e-09
1.039420708e-09
9.939931131e-10
9.327944697e-10
8.520537939e-10
7.468182019e-10
6.109247864e-10
4.367384e-10
2.150069919e-10
-6.567096399e-11
-4.193391425e-10
-8.629789431e-10
-1.416484627e-09
-2.10258715e-09
-2.947064118e-09
-3.979547053e-09
-5.23437456e-09
-6.750898237e-09
-8.572833317e-09
-1.074741691e-08
-1.332516297e-08
-1.636036731e-08
-1.991108774e-08
-2.403746851e-08
-2.879891306e-08
-3.425223932e-08
-4.045251736e-08
-4.745539383e-08
-5.531788449e-08
-6.409568431e-08
-7.383944908e-08
-8.459478921e-08
-9.640956327e-08
-1.093459463e-07
-1.234945566e-07
-1.389913367e-07
-1.560518086e-07
-1.75042164e-07
-1.966278642e-07
-2.220294821e-07
-2.533220704e-07
-2.932403361e-07
-3.362024118e-07
-3.359134173e-07
-4.925984765e-07
1.782697925e-07
-1.561102917e-06
8763.625254
0
0
0
0
0
0
0
0
0
0
0
0
0
0
0
0
0
0
0
0
0
0
0
0
0
0
0
0
0
0
0
0
0
0
0
0
0
0
0
0
0
0
0
0
0
0
0
0
0
0
0
0
0
0
0
0
0
0
-0.4203112882
2.162660057e-09
1.788847862e-09
1.519741122e-09
1.32483157e-09
1.205438197e-09
1.132000205e-09
1.090949118e-09
1.071571497e-09
1.065266668e-09
1.065356544e-09
1.066636942e-09
1.064921218e-09
1.056884418e-09
1.03979127e-09
1.011318814e-09
9.691733171e-10
9.10565641e-10
8.31757581e-10
7.277443452e-10
5.92162951e-10
4.172407074e-10
1.935647113e-10
-9.031105498e-11
-4.485022403e-10
-8.980139058e-10
-1.458882671e-09
-2.154036906e-09
-3.009685379e-09
-4.056010118e-09
-5.32811323e-09
-6.866158908e-09
-8.714830246e-09
-1.09225008e-08
-1.354105279e-08
-1.662623005e-08
-2.02374506e-08
-2.443621025e-08
-2.928384131e-08
-3.484047675e-08
-4.116649009e-08
-4.832475068e-08
-5.638103626e-08
-6.540153066e-08
-7.545027474e-08
-8.659151266e-08
-9.88985295e-08
-1.124662646e-07
-1.274211861e-07
-1.439289808e-07
-1.62202849e-07
-1.825198331e-07
-2.05251023e-07
-2.308685256e-07
-2.599583462e-07
-2.923234309e-07
-3.20916462e-07
-3.344004845e-07
-1.059178808e-06
-1.092294862e-06
-1.760440152e-06
-0.4379376621
0
0
0
0
0
0
0
0
0
0
0
0
0
0
0
0
0
0
0
0
0
0
0
0
0
0
0
0
0
0
0
0
0
0
0
0
0
0
0
0
0
0
0
0
0
0
0
0
0
0
0
0
0
0
0
0
0
0
0
1.987499671e-09
1.596557921e-09
1.325149846e-09
1.139204198e-09
1.035092986e-09
9.80849168e-10
9.602897405e-10
9.60878277e-10
9.728444226e-10
9.889179092e-10
1.003584296e-09
1.012789802e-09
1.013413665e-09
1.003177989e-09
9.801704211e-10
9.424400944e-10
8.874065757e-10
8.113430121e-10
7.091540632e-10
5.743814095e-10
3.992038676e-10
1.742836641e-10
-1.117498177e-10
-4.728625131e-10
-9.260858494e-10
-1.49149246e-09
-2.192252004e-09
-3.054849602e-09
-4.110002929e-09
-5.393301059e-09
-6.945560604e-09
-8.812112685e-09
-1.104206697e-08
-1.36880072e-08
-1.680625863e-08
-2.045664727e-08
-2.470127302e-08
-2.960273384e-08
-3.522380782e-08
-4.162885367e-08
-4.888579583e-08
-5.706611853e-08
-6.624288953e-08
-7.649002201e-08
-8.788690084e-08
-1.005298456e-07
-1.145460194e-07
-1.301062048e-07
-1.474361531e-07
-1.668375844e-07
-1.887375506e-07
-2.138232887e-07
-2.433767487e-07
-2.801377358e-07
-3.296853073e-07
-4.002465069e-07
-4.902353599e-07
-3.349295042e-07
-4.953209712e-07
-0.007664386546
3040.379953
0
0
0
0
0
0
0
0
0
0
0
0
0
0
0
0
0
0
0
0
0
0
0
0
0
0
0
0
0
0
0
0
0
0
0
0
0
0
0
0
0
0
0
0
0
0
0
0
0
0
0
0
0
0
0
0
0
0
0
1.71814778e-09
1.314888835e-09
1.05097112e-09
8.862314186e-10
8.101550386e-10
7.869132374e-10
7.970059573e-10
8.257727329e-10
8.623862632e-10
8.991556755e-10
9.307281411e-10
9.533880384e-10
9.646580124e-10
9.628391411e-10
9.466062773e-10
9.143813285e-10
8.637613416e-10
7.910213066e-10
6.910449514e-10
5.573941225e-10
3.824247446e-10
1.570415293e-10
-1.298461104e-10
-4.92081484e-10
-9.466210711e-10
-1.513676183e-09
-2.216543686e-09
-3.082009869e-09
-4.140987222e-09
-5.429448746e-09
-6.988468951e-09
-8.863672277e-09
-1.110431189e-08
-1.376295588e-08
-1.689560224e-08
-2.056170996e-08
-2.482316254e-08
-2.974322873e-08
-3.538625646e-08
-4.18189065e-08
-4.91113099e-08
-5.733691456e-08
-6.657136706e-08
-7.689369627e-08
-8.839355266e-08
-1.011844421e-07
-1.154201236e-07
-1.313101211e-07
-1.491372863e-07
-1.69282432e-07
-1.922602866e-07
-2.187596071e-07
-2.496326394e-07
-2.856433742e-07
-3.260523859e-07
-3.637794903e-07
-3.723783535e-07
-2.437591394e-07
3.698829128e-08
-0.00309393166
1227.451359
0
0
0
0
0
0
0
0
0
0
0
0
0
0
0
0
0
0
0
0
0
0
0
0
0
0
0
0
0
0
0
0
0
0
0
0
0
0
0
0
0
0
0
0
0
0
0
0
0
0
0
0
0
0
0
0
0
0
0
1.325246164e-09
9.180885259e-10
6.769721965e-10
5.519056864e-10
5.219339548e-10
5.455723403e-10
5.991557926e-10
6.659438882e-10
7.343921531e-10
7.970306729e-10
8.491117403e-10
8.878594489e-10
9.117046998e-10
9.198249715e-10
9.11537145e-10
8.856809711e-10
8.400071902e-10
7.708899969e-10
6.733055261e-10
5.410386658e-10
3.668088274e-10
1.41948336e-10
-1.443579285e-10
-5.057279289e-10
-9.592090197e-10
-1.525085085e-09
-2.226824711e-09
-3.091255135e-09
-4.149351665e-09
-5.437018331e-09
-6.995274501e-09
-8.869508688e-09
-1.110856456e-08
-1.376420472e-08
-1.689142039e-08
-2.054847977e-08
-2.47965505e-08
-2.969870238e-08
-3.531961054e-08
-4.172588249e-08
-4.898655481e-08
-5.717277167e-08
-6.635770213e-08
-7.661955971e-08
-8.805015597e-08
-1.007689954e-07
-1.149396105e-07
-1.307864299e-07
-1.486132793e-07
-1.688229455e-07
-1.919158356e-07
-2.183958295e-07
-2.483803229e-07
-2.804340425e-07
-3.086597708e-07
-3.167773666e-07
-2.691313143e-07
-8.5038743e-08
3.455346231e-07
-0.001708794135
677.9935184
0
0
0
0
0
0
0
0
0
0
0
0
0
0
0
0
0
0
0
0
0
0
0
0
0
0
0
0
0
0
0
0
0
0
0
0
0
0
0
0
0
0
0
0
0
0
0
0
0
0
0
0
0
0
0
0
0
0
0
7.680357595e-10
3.712087974e-10
1.781194204e-10
1.208513498e-10
1.627097854e-10
2.541544432e-10
3.670265948e-10
4.830799139e-10
5.911222127e-10
6.847943777e-10
7.609039544e-10
8.181277235e-10
8.56267126e-10
8.755444956e-10
8.760381785e-10
8.570115014e-10
8.16490814e-10
7.510247758e-10
6.558755308e-10
5.252709419e-10
3.524595941e-10
1.292305757e-10
-1.548633166e-10
-5.134661692e-10
-9.63662158e-10
-1.525898634e-09
-2.223633591e-09
-3.0835284e-09
-4.136220983e-09
-5.417239879e-09
-6.967049362e-09
-8.830403155e-09
-1.105508852e-08
-1.369156785e-08
-1.679307888e-08
-2.04162769e-08
-2.462089164e-08
-2.946900177e-08
-3.50239209e-08
-4.134968419e-08
-4.851055841e-08
-5.657088655e-08
-6.559599541e-08
-7.565635038e-08
-8.683615843e-08
-9.924576824e-08
-1.130354398e-07
-1.28410225e-07
-1.456487397e-07
-1.651246866e-07
-1.873091035e-07
-2.126798913e-07
-2.413465178e-07
-2.719283546e-07
-2.987345136e-07
-3.06010033e-07
-2.593942472e-07
-7.86277161e-08
3.497938425e-07
-0.001707561686
677.5055455
0
0
0
0
0
0
0
0
0
0
0
0
0
0
0
0
0
0
0
0
0
0
0
0
0
0
0
0
0
0
0
0
0
0
0
0
0
0
0
0
0
0
0
0
0
0
0
0
0
0
0
0
0
0
0
0
0
0
0
-1.330123308e-11
-3.733714062e-10
-4.758996068e-10
-4.218570584e-10
-2.720085207e-10
-8.590983879e-11
1.046743677e-10
2.820238086e-10
4.371824291e-10
5.665555362e-10
6.695351637e-10
7.470415169e-10
8.005977474e-10
8.317152858e-10
8.412766422e-10
8.290896618e-10
7.935253098e-10
7.315280857e-10
6.388274114e-10
5.102685969e-10
3.396724218e-10
1.19333166e-10
-1.610742794e-10
-5.151905923e-10
-9.603132145e-10
-1.516894571e-09
-2.208183311e-09
-3.060336961e-09
-4.103324834e-09
-5.371812315e-09
-6.905434462e-09
-8.747777537e-09
-1.094527973e-08
-1.354649717e-08
-1.660265218e-08
-2.016822276e-08
-2.430102334e-08
-2.906093337e-08
-3.450812874e-08
-4.070120922e-08
-4.769623406e-08
-5.554667424e-08
-6.430528196e-08
-7.402835174e-08
-8.478290399e-08
-9.665506002e-08
-1.097589278e-07
-1.242468403e-07
-1.403269826e-07
-1.582933557e-07
-1.785683999e-07
-2.017533288e-07
-2.286597526e-07
-2.601674311e-07
-2.960060878e-07
-3.312718785e-07
-3.430797392e-07
-2.229720574e-07
4.875659696e-08
-0.003090339281
1226.028988
0
0
0
0
0
0
0
0
0
0
0
0
0
0
0
0
0
0
0
0
0
0
0
0
0
0
0
0
0
0
0
0
0
0
0
0
0
0
0
0
0
0
0
0
0
0
0
0
0
0
0
0
0
0
0
0
0
0
0
-1.11206977e-09
-1.383118624e-09
-1.31957443e-09
-1.086558511e-09
-7.790576263e-10
-4.658456856e-10
-1.77886334e-10
7.191380237e-11
2.802279561e-10
4.48392652e-10
5.797720297e-10
6.782322797e-10
7.474011586e-10
7.901972042e-10
8.084509429e-10
8.02579167e-10
7.71483056e-10
7.126420782e-10
6.224470542e-10
4.963909146e-10
3.28920445e-10
1.125873295e-10
-1.628464789e-10
-5.112505996e-10
-9.500009676e-10
-1.499424088e-09
-2.182213863e-09
-3.023649412e-09
-4.052602627e-09
-5.302683019e-09
-6.812289549e-09
-8.623734857e-09
-1.078168201e-08
-1.333263928e-08
-1.632534005e-08
-1.98117953e-08
-2.38471041e-08
-2.848783917e-08
-3.378898232e-08
-3.980123726e-08
-4.656937257e-08
-5.413290788e-08
-6.252837975e-08
-7.179343168e-08
-8.197078596e-08
-9.311192372e-08
-1.052792649e-07
-1.185504813e-07
-1.330299043e-07
-1.488752988e-07
-1.663525126e-07
-1.859771653e-07
-2.089102068e-07
-2.378906647e-07
-2.793199977e-07
-3.45036762e-07
-4.381382743e-07
-2.97669306e-07
-4.794207156e-07
-0.007658762162
3038.152609
0
0
0
0
0
0
0
0
0
0
0
0
0
0
0
0
0
0
0
0
0
0
0
0
0
0
0
0
0
0
0
0
0
0
0
0
0
0
0
0
0
0
0
0
0
0
0
0
0
0
0
0
0
0
0
0
0
0
0
-2.686270738e-09
-2.753310411e-09
-2.38490506e-09
-1.868943021e-09
-1.339797184e-09
-8.646326146e-10
-4.62277623e-10
-1.326985315e-10
1.311954989e-10
3.383848156e-10
4.974805617e-10
6.158928523e-10
6.995664518e-10
7.529137165e-10
7.787289379e-10
7.781834416e-10
7.508183759e-10
6.948003452e-10
6.072126795e-10
4.842091953e-10
3.206213756e-10
1.091940053e-10
-1.605136564e-10
-5.024957128e-10
-9.341380153e-10
-1.475277397e-09
-2.147709519e-09
-2.975451427e-09
-3.986080452e-09
-5.211874089e-09
-6.690012972e-09
-8.461294868e-09
-1.056859235e-08
-1.305602982e-08
-1.596971406e-08
-1.935861439e-08
-2.327440993e-08
-2.776890309e-08
-3.289017492e-08
-3.867875089e-08
-4.516624046e-08
-5.237623748e-08
-6.032744106e-08
-6.903603521e-08
-7.851695448e-08
-8.878218542e-08
-9.983873341e-08
-1.116884376e-07
-1.243347418e-07
-1.37794603e-07
-1.521133865e-07
-1.673862921e-07
-1.838161671e-07
-2.017149353e-07
-2.217455336e-07
-2.398226591e-07
-2.519309119e-07
-9.953480966e-07
-1.081957067e-06
-1.754786625e-06
-0.4380379498
0
0
0
0
0
0
0
0
0
0
0
0
0
0
0
0
0
0
0
0
0
0
0
0
0
0
0
0
0
0
0
0
0
0
0
0
0
0
0
0
0
0
0
0
0
0
0
0
0
0
0
0
0
0
0
0
0
0
0
-5.04185597e-09
-4.618649086e-09
-3.679023125e-09
-2.728841832e-09
-1.907419882e-09
-1.243242389e-09
-7.196567053e-10
-3.116289712e-10
3.965759329e-12
2.459825629e-10
4.290921321e-10
5.643351166e-10
6.599219893e-10
7.216136452e-10
7.532170097e-10
7.566301236e-10
7.321354686e-10
6.785945574e-10
5.937495111e-10
4.742036791e-10
3.15047874e-10
1.088892671e-10
-1.548366136e-10
-4.9027605e-10
-9.144531971e-10
-1.446426789e-09
-2.106642661e-09
-2.917676302e-09
-3.90564433e-09
-5.101624175e-09
-6.541562177e-09
-8.264834492e-09
-1.031230603e-08
-1.272559285e-08
-1.55476708e-08
-1.882404141e-08
-2.260198483e-08
-2.692750937e-08
-3.184019507e-08
-3.736919722e-08
-4.35316704e-08
-5.033488974e-08
-5.77787987e-08
-6.585739264e-08
-7.455585557e-08
-8.384594028e-08
-9.368196401e-08
-1.040044231e-07
-1.14756082e-07
-1.259159586e-07
-1.375591588e-07
-1.499777368e-07
-1.638801757e-07
-1.807751578e-07