/*--------------------------------*- C++ -*----------------------------------*\
  =========                 |
  \\      /  F ield         | OpenFOAM: The Open Source CFD Toolbox
   \\    /   O peration     | Website:  https://openfoam.org
    \\  /    A nd           | Version:  6
     \\/     M anipulation  |
\*---------------------------------------------------------------------------*/
FoamFile
{
    version     2.0;
    format      ascii;
    class       volVectorField;
    location    "0.0021";
    object      U;
}
// * * * * * * * * * * * * * * * * * * * * * * * * * * * * * * * * * * * * * //

dimensions      [0 1 -1 0 0 0 0];

internalField   nonuniform List<vector> 
9600
(
(0 -4.106487901e-11 2.94008286e-12)
(0 -4.106328854e-11 2.988779735e-12)
(0 -4.109677853e-11 3.091071564e-12)
(0 -4.113750865e-11 3.239144565e-12)
(0 -4.118873637e-11 3.424779098e-12)
(0 -4.125157973e-11 3.639677408e-12)
(0 -4.132742859e-11 3.876119051e-12)
(0 -4.141745943e-11 4.126420882e-12)
(0 -4.152261e-11 4.383564158e-12)
(0 -4.164348304e-11 4.640649619e-12)
(0 -4.178029576e-11 4.891503686e-12)
(0 -4.193285377e-11 5.130099523e-12)
(0 -4.21005692e-11 5.351142532e-12)
(0 -4.228249987e-11 5.549457396e-12)
(0 -4.247741361e-11 5.720565877e-12)
(0 -4.268385005e-11 5.860060778e-12)
(0 -4.290019464e-11 5.964187835e-12)
(0 -4.312475974e-11 6.029203851e-12)
(0 -4.335590944e-11 6.051939713e-12)
(0 -4.359222034e-11 6.02911767e-12)
(0 -4.383268467e-11 5.957889675e-12)
(0 -4.407691886e-11 5.835136316e-12)
(0 -4.432537623e-11 5.658017799e-12)
(0 -4.457956128e-11 5.423272555e-12)
(0 -4.484229373e-11 5.127746633e-12)
(0 -4.511805988e-11 4.767614127e-12)
(0 -4.541348066e-11 4.338804453e-12)
(0 -4.573784521e-11 3.836135259e-12)
(0 -4.610363552e-11 3.253740059e-12)
(0 -4.652696245e-11 2.584283294e-12)
(0 -4.702793103e-11 1.819502808e-12)
(0 -4.763102832e-11 9.494629448e-13)
(0 -4.836564063e-11 -3.697988539e-14)
(0 -4.926667077e-11 -1.153045153e-12)
(0 -5.037506353e-11 -2.413553318e-12)
(0 -5.17380028e-11 -3.835528536e-12)
(0 -5.340867945e-11 -5.437243021e-12)
(0 -5.544572823e-11 -7.238293305e-12)
(0 -5.791244823e-11 -9.258204106e-12)
(0 -6.087568638e-11 -1.151605713e-11)
(0 -6.44039841e-11 -1.402839568e-11)
(0 -6.856457686e-11 -1.680771325e-11)
(0 -7.341916356e-11 -1.985884181e-11)
(0 -7.90187709e-11 -2.317576482e-11)
(0 -8.539812241e-11 -2.673634492e-11)
(0 -9.256969091e-11 -3.049741522e-11)
(0 -1.005172467e-10 -3.438760648e-11)
(0 -1.091887394e-10 -3.830038889e-11)
(0 -1.18488908e-10 -4.208530712e-11)
(0 -1.282729114e-10 -4.55411622e-11)
(0 -1.38342724e-10 -4.841094586e-11)
(0 -1.48447263e-10 -5.038432349e-11)
(0 -1.582856277e-10 -5.110964253e-11)
(0 -1.675110244e-10 -5.022367368e-11)
(0 -1.757306211e-10 -4.740177872e-11)
(0 -1.824932999e-10 -4.243114827e-11)
(0 -1.872583096e-10 -3.529355845e-11)
(0 -1.893550936e-10 -2.623395788e-11)
(0 -1.879886687e-10 -1.577504135e-11)
(0 -1.824042782e-10 -4.672957545e-12)
(0 -1.722972615e-10 6.023081373e-12)
(0 -1.578018009e-10 1.427983053e-11)
(0 -1.358097196e-10 1.528250322e-11)
(0 -8.370330998e-11 2.801572587e-13)
(0 6.553485508e-11 -2.31029808e-11)
(0 4.126966908e-10 1.049612107e-11)
(0 -1.003885613e-11 2.129191356e-10)
(0 -5.764991578e-12 -3.438962443e-11)
(0 9.219007419e-12 -8.888172304e-12)
(0 9.285332224e-12 6.805594545e-13)
(0 9.081172903e-12 5.983647344e-12)
(0 1.110100198e-11 9.07903661e-12)
(0 1.369264044e-11 7.857148753e-12)
(0 1.491259002e-11 5.635339637e-12)
(0 1.532677029e-11 4.223790426e-12)
(0 1.580532796e-11 3.211843284e-12)
(0 1.652767832e-11 2.059701724e-12)
(0 1.732333537e-11 5.006147443e-13)
(0 1.794239277e-11 -1.520378921e-12)
(0 1.81557722e-11 -3.927471191e-12)
(0 1.780607266e-11 -6.530245408e-12)
(0 1.68480322e-11 -9.08649212e-12)
(0 1.534247996e-11 -1.138679638e-11)
(0 1.341594366e-11 -1.329165674e-11)
(0 1.122079036e-11 -1.473528443e-11)
(0 8.903458979e-12 -1.572100428e-11)
(0 6.57946406e-12 -1.630516349e-11)
(0 4.318835025e-12 -1.657281057e-11)
(0 2.144146031e-12 -1.661103261e-11)
(0 3.869743903e-14 -1.648850815e-11)
(0 -2.039398934e-12 -1.624184871e-11)
(0 -4.140559048e-12 -1.587010321e-11)
(0 -6.306337745e-12 -1.533463005e-11)
(0 -8.552833416e-12 -1.456597295e-11)
(0 -1.085684021e-11 -1.347700233e-11)
(0 -1.314819149e-11 -1.19844427e-11)
(0 -1.531240948e-11 -1.003478686e-11)
(0 -1.720612939e-11 -7.62907575e-12)
(0 -1.868273001e-11 -4.8374261e-12)
(0 -1.962425425e-11 -1.803244561e-12)
(0 -1.998068856e-11 1.262259607e-12)
(0 -1.980942804e-11 4.116829025e-12)
(0 -1.9280324e-11 6.571621793e-12)
(0 -1.863470347e-11 8.552151532e-12)
(0 -1.813446501e-11 1.01135634e-11)
(0 -1.796252016e-11 1.151937964e-11)
(0 -1.79536068e-11 1.330115382e-11)
(0 -1.725597753e-11 1.585486815e-11)
(0 -1.532396973e-11 1.735656459e-11)
(0 -1.410552592e-11 1.448608593e-11)
(0 -1.522483834e-11 9.326276775e-12)
(0 -1.611682396e-11 -2.323069314e-13)
(0 -1.979461543e-12 -2.590897908e-11)
(0 5.982299893e-12 2.170438904e-10)
(0 -6.872642864e-10 -6.67852519e-10)
(0 -5.641471219e-10 -1.256635449e-09)
(0 -4.165972085e-10 -1.609771455e-09)
(0 -2.150263482e-10 -1.608735234e-09)
(0 9.54187651e-12 -1.102347033e-09)
(0 1.663989642e-11 9.19521562e-23)
(0 -4.056830779e-11 3.156534645e-12)
(0 -4.056950239e-11 3.20917186e-12)
(0 -4.060825262e-11 3.319414728e-12)
(0 -4.065716646e-11 3.479016146e-12)
(0 -4.071953766e-11 3.678848186e-12)
(0 -4.079652791e-11 3.910155913e-12)
(0 -4.088955034e-11 4.164351375e-12)
(0 -4.099978551e-11 4.433351199e-12)
(0 -4.112815378e-11 4.709325869e-12)
(0 -4.127521993e-11 4.985043786e-12)
(0 -4.144114609e-11 5.253582998e-12)
(0 -4.162567345e-11 5.508650421e-12)
(0 -4.18281453e-11 5.744259957e-12)
(0 -4.204754869e-11 5.955030479e-12)
(0 -4.228257702e-11 6.135847205e-12)
(0 -4.253169108e-11 6.282162365e-12)
(0 -4.2793197e-11 6.389652016e-12)
(0 -4.306534311e-11 6.454510082e-12)
(0 -4.334646483e-11 6.47307455e-12)
(0 -4.36351661e-11 6.442090031e-12)
(0 -4.393053143e-11 6.358303632e-12)
(0 -4.423233735e-11 6.218725896e-12)
(0 -4.454127284e-11 6.020235818e-12)
(0 -4.485918343e-11 5.759847378e-12)
(0 -4.518939431e-11 5.43427534e-12)
(0 -4.553714259e-11 5.040116949e-12)
(0 -4.591011437e-11 4.573300382e-12)
(0 -4.631901162e-11 4.029191936e-12)
(0 -4.677807294e-11 3.402052146e-12)
(0 -4.730551081e-11 2.685232778e-12)
(0 -4.792393768e-11 1.870715367e-12)
(0 -4.866089746e-11 9.492824482e-13)
(0 -4.954955613e-11 -9.010976196e-14)
(0 -5.062943111e-11 -1.260348037e-12)
(0 -5.194690672e-11 -2.5768198e-12)
(0 -5.355533574e-11 -4.057206281e-12)
(0 -5.551472567e-11 -5.7217569e-12)
(0 -5.789116176e-11 -7.592746241e-12)
(0 -6.075600611e-11 -9.694548067e-12)
(0 -6.418460571e-11 -1.205287445e-11)
(0 -6.825401398e-11 -1.469433404e-11)
(0 -7.303936367e-11 -1.764471786e-11)
(0 -7.860891013e-11 -2.092727891e-11)
(0 -8.501809778e-11 -2.455961353e-11)
(0 -9.230295171e-11 -2.855040523e-11)
(0 -1.004728307e-10 -3.28943883e-11)
(0 -1.095023607e-10 -3.756647928e-11)
(0 -1.193227099e-10 -4.251347028e-11)
(0 -1.298133087e-10 -4.764486263e-11)
(0 -1.407963082e-10 -5.282257402e-11)
(0 -1.520367277e-10 -5.785293833e-11)
(0 -1.632509753e-10 -6.248308889e-11)
(0 -1.741256228e-10 -6.640880652e-11)
(0 -1.843464179e-10 -6.930121221e-11)
(0 -1.936325075e-10 -7.086376507e-11)
(0 -2.01762506e-10 -7.092397755e-11)
(0 -2.085743431e-10 -6.955197795e-11)
(0 -2.139370023e-10 -6.715944259e-11)
(0 -2.17771386e-10 -6.446499601e-11)
(0 -2.204434109e-10 -6.212954338e-11)
(0 -2.243294246e-10 -5.994856084e-11)
(0 -2.375515477e-10 -5.607845908e-11)
(0 -2.790881418e-10 -4.928480039e-11)
(0 -3.642791261e-10 -5.253357793e-11)
(0 -4.40844095e-10 -7.073179523e-11)
(0 -3.30622283e-11 1.455312758e-21)
(0 4.162279222e-11 3.180920631e-10)
(0 9.853079657e-11 2.13873195e-12)
(0 3.421338104e-11 3.921453104e-12)
(0 1.685646739e-11 5.166988e-12)
(0 1.216837887e-11 6.394923402e-12)
(0 1.175173457e-11 7.069947544e-12)
(0 1.265659912e-11 6.374847718e-12)
(0 1.349884916e-11 5.060488996e-12)
(0 1.408296334e-11 3.805592803e-12)
(0 1.460153761e-11 2.638600232e-12)
(0 1.513553201e-11 1.382795381e-12)
(0 1.562164182e-11 -9.765644949e-14)
(0 1.593119364e-11 -1.843986828e-12)
(0 1.593236825e-11 -3.811704842e-12)
(0 1.553070822e-11 -5.888028248e-12)
(0 1.469340519e-11 -7.926881355e-12)
(0 1.345015225e-11 -9.791493572e-12)
(0 1.187564247e-11 -1.138056024e-11)
(0 1.006675919e-11 -1.263814656e-11)
(0 8.121390023e-12 -1.355267451e-11)
(0 6.121494682e-12 -1.414833138e-11)
(0 4.122727797e-12 -1.447022576e-11)
(0 2.151673837e-12 -1.456852228e-11)
(0 2.096985477e-13 -1.448426929e-11)
(0 -1.718649161e-12 -1.424005882e-11)
(0 -3.654733594e-12 -1.383503758e-11)
(0 -5.614082739e-12 -1.324532507e-11)
(0 -7.595482e-12 -1.242880641e-11)
(0 -9.572693827e-12 -1.133520372e-11)
(0 -1.149096425e-11 -9.919868365e-12)
(0 -1.327027039e-11 -8.160085737e-12)
(0 -1.481625587e-11 -6.06922487e-12)
(0 -1.603753946e-11 -3.70527126e-12)
(0 -1.686702096e-11 -1.170776644e-12)
(0 -1.72844488e-11 1.397146509e-12)
(0 -1.733356269e-11 3.853472089e-12)
(0 -1.712082368e-11 6.087100183e-12)
(0 -1.679096567e-11 8.055382817e-12)
(0 -1.648669262e-11 9.800174194e-12)
(0 -1.628718599e-11 1.145573836e-11)
(0 -1.613019423e-11 1.319344602e-11)
(0 -1.584534111e-11 1.497482445e-11)
(0 -1.565179481e-11 1.610618077e-11)
(0 -1.695169968e-11 1.581271283e-11)
(0 -2.269732886e-11 1.485949864e-11)
(0 -4.124869314e-11 1.367367255e-11)
(0 -1.067158945e-10 1.151154339e-11)
(0 -5.010343784e-11 3.261087838e-10)
(0 2.8937473e-11 1.560599136e-21)
(0 -7.400294724e-11 -1.012178695e-09)
(0 -2.271065385e-10 -1.596274086e-09)
(0 -1.823650625e-10 -1.769114876e-09)
(0 1.902181119e-11 -1.286257476e-09)
(0 1.943112781e-11 1.166927773e-22)
(0 -4.003344365e-11 3.390094351e-12)
(0 -4.003765592e-11 3.446994892e-12)
(0 -4.008210479e-11 3.566027293e-12)
(0 -4.01398897e-11 3.738244477e-12)
(0 -4.021435071e-11 3.95380323e-12)
(0 -4.030670045e-11 4.203209795e-12)
(0 -4.041837516e-11 4.477200138e-12)
(0 -4.05505599e-11 4.767005995e-12)
(0 -4.07041548e-11 5.064183324e-12)
(0 -4.087968609e-11 5.360882316e-12)
(0 -4.107725999e-11 5.649634365e-12)
(0 -4.129655274e-11 5.923593741e-12)
(0 -4.153683597e-11 6.176292088e-12)
(0 -4.179702236e-11 6.401860116e-12)
(0 -4.207572036e-11 6.594769744e-12)
(0 -4.237129696e-11 6.750058709e-12)
(0 -4.268195792e-11 6.863070322e-12)
(0 -4.300586207e-11 6.929669117e-12)
(0 -4.33412832e-11 6.945951523e-12)
(0 -4.368680989e-11 6.908433683e-12)
(0 -4.404156238e-11 6.813739841e-12)
(0 -4.440540802e-11 6.658793095e-12)
(0 -4.477918924e-11 6.440513586e-12)
(0 -4.516500379e-11 6.15600879e-12)
(0 -4.556658772e-11 5.802226894e-12)
(0 -4.59898275e-11 5.376057582e-12)
(0 -4.64433576e-11 4.873879785e-12)
(0 -4.693915538e-11 4.291603086e-12)
(0 -4.7493062e-11 3.624231799e-12)
(0 -4.812524191e-11 2.865979116e-12)
(0 -4.88607028e-11 2.009863525e-12)
(0 -4.973000372e-11 1.047728507e-12)
(0 -5.07701423e-11 -3.038289496e-14)
(0 -5.202541338e-11 -1.236427977e-12)
(0 -5.354795098e-11 -2.585044728e-12)
(0 -5.53978094e-11 -4.093598578e-12)
(0 -5.764268611e-11 -5.782633204e-12)
(0 -6.035746743e-11 -7.675802158e-12)
(0 -6.362355061e-11 -9.800359693e-12)
(0 -6.752753036e-11 -1.218710366e-11)
(0 -7.215869746e-11 -1.487059086e-11)
(0 -7.760503511e-11 -1.78884285e-11)
(0 -8.394781017e-11 -2.128056807e-11)
(0 -9.125505398e-11 -2.508750532e-11)
(0 -9.957406062e-11 -2.934814104e-11)
(0 -1.089227276e-10 -3.409578766e-11)
(0 -1.19279534e-10 -3.93526246e-11)
(0 -1.305725594e-10 -4.512097013e-11)
(0 -1.426692111e-10 -5.13720432e-11)
(0 -1.553697609e-10 -5.803144868e-11)
(0 -1.684088817e-10 -6.496339775e-11)
(0 -1.814702116e-10 -7.195534057e-11)
(0 -1.942197003e-10 -7.871011073e-11)
(0 -2.063621539e-10 -8.485582273e-11)
(0 -2.177182436e-10 -8.999119422e-11)
(0 -2.283036839e-10 -9.378503803e-11)
(0 -2.38367079e-10 -9.614339595e-11)
(0 -2.483089548e-10 -9.740979065e-11)
(0 -2.584018463e-10 -9.841598454e-11)
(0 -2.684448634e-10 -9.984184759e-11)
(0 -2.783127031e-10 -9.950539819e-11)
(0 -2.934517464e-10 -8.534094666e-11)
(0 -3.494139657e-10 -2.34632e-11)
(0 -5.433957297e-10 1.379510474e-10)
(0 -1.23451885e-09 4.092744662e-10)
(0 -7.991413402e-11 -2.354691184e-10)
(0 -8.391254111e-11 1.344312465e-10)
(0 2.058178566e-12 4.292493363e-11)
(0 1.22472634e-11 1.726742451e-11)
(0 1.17588025e-11 9.670217021e-12)
(0 1.098413244e-11 7.35833245e-12)
(0 1.108092629e-11 6.430294689e-12)
(0 1.168318189e-11 5.511293032e-12)
(0 1.23433351e-11 4.425623013e-12)
(0 1.290488153e-11 3.298990455e-12)
(0 1.338253054e-11 2.153533369e-12)
(0 1.379142164e-11 9.299277276e-13)
(0 1.409655316e-11 -4.307921587e-13)
(0 1.422834438e-11 -1.946867864e-12)
(0 1.411173078e-11 -3.588128607e-12)
(0 1.369089615e-11 -5.28400335e-12)
(0 1.294456687e-11 -6.942362731e-12)
(0 1.188880107e-11 -8.472393593e-12)
(0 1.056929068e-11 -9.801567294e-12)
(0 9.048676084e-12 -1.08843656e-11)
(0 7.393274156e-12 -1.170342754e-11)
(0 5.661912815e-12 -1.226515458e-11)
(0 3.89864412e-12 -1.259111961e-11)
(0 2.130102501e-12 -1.270830137e-11)
(0 3.671608993e-13 -1.26399208e-11)
(0 -1.390167228e-12 -1.239897257e-11)
(0 -3.145825293e-12 -1.198469143e-11)
(0 -4.900106577e-12 -1.13827651e-11)
(0 -6.642712069e-12 -1.056877537e-11)
(0 -8.347902155e-12 -9.515038016e-12)
(0 -9.973073506e-12 -8.199569725e-12)
(0 -1.146176599e-11 -6.616043765e-12)
(0 -1.275131491e-11 -4.781963338e-12)
(0 -1.378428179e-11 -2.742944292e-12)
(0 -1.452183648e-11 -5.709606592e-13)
(0 -1.495643982e-11 1.644475092e-12)
(0 -1.511947436e-11 3.813539644e-12)
(0 -1.507841327e-11 5.868576797e-12)
(0 -1.492162945e-11 7.782615827e-12)
(0 -1.473410947e-11 9.576517977e-12)
(0 -1.456924833e-11 1.131054555e-11)
(0 -1.443452071e-11 1.304270382e-11)
(0 -1.434324278e-11 1.474550772e-11)
(0 -1.448608135e-11 1.628116091e-11)
(0 -1.535220804e-11 1.780033623e-11)
(0 -1.736387861e-11 2.062579105e-11)
(0 -1.946477914e-11 2.855636256e-11)
(0 -1.153813034e-11 5.416555472e-11)
(0 7.048317227e-11 1.448176684e-10)
(0 7.189741207e-11 -2.277863305e-10)
(0 8.365383166e-10 -2.562363096e-10)
(0 -9.022742692e-11 -1.269173073e-09)
(0 -2.288756168e-10 -1.8367128e-09)
(0 -3.241727781e-12 -1.481239366e-09)
(0 2.343267139e-11 1.538182305e-22)
(0 -3.945676992e-11 3.641439273e-12)
(0 -3.946424357e-11 3.703035645e-12)
(0 -3.951485152e-11 3.831760135e-12)
(0 -3.958221899e-11 4.01788427e-12)
(0 -3.966974255e-11 4.250825624e-12)
(0 -3.977869318e-11 4.520271514e-12)
(0 -3.991053579e-11 4.816261211e-12)
(0 -4.006646076e-11 5.129262512e-12)
(0 -4.024735017e-11 5.450200072e-12)
(0 -4.045369151e-11 5.770527947e-12)
(0 -4.068553681e-11 6.082216416e-12)
(0 -4.09424979e-11 6.37779237e-12)
(0 -4.122377432e-11 6.650294442e-12)
(0 -4.152819593e-11 6.893296346e-12)
(0 -4.185427511e-11 7.100855044e-12)
(0 -4.220026598e-11 7.267533901e-12)
(0 -4.256425046e-11 7.388350499e-12)
(0 -4.294426658e-11 7.458788552e-12)
(0 -4.333848645e-11 7.474721156e-12)
(0 -4.374542837e-11 7.432398773e-12)
(0 -4.416417762e-11 7.328360855e-12)
(0 -4.459460351e-11 7.159430166e-12)
(0 -4.503760013e-11 6.922635291e-12)
(0 -4.549540068e-11 6.6151992e-12)
(0 -4.597202248e-11 6.234415106e-12)
(0 -4.647384592e-11 5.777550166e-12)
(0 -4.7010263e-11 5.241637473e-12)
(0 -4.759429342e-11 4.623339681e-12)
(0 -4.824311459e-11 3.918763256e-12)
(0 -4.897856791e-11 3.123368905e-12)
(0 -4.982780356e-11 2.231763218e-12)
(0 -5.082418383e-11 1.23745372e-12)
(0 -5.200837198e-11 1.323858393e-13)
(0 -5.342932662e-11 -1.093526937e-12)
(0 -5.514490674e-11 -2.452934199e-12)
(0 -5.722202051e-11 -3.961444871e-12)
(0 -5.973650729e-11 -5.63810386e-12)
(0 -6.277294502e-11 -7.505913023e-12)
(0 -6.642423732e-11 -9.592599901e-12)
(0 -7.079045428e-11 -1.193139604e-11)
(0 -7.597634093e-11 -1.456181646e-11)
(0 -8.208723683e-11 -1.753016536e-11)
(0 -8.922352481e-11 -2.088985467e-11)
(0 -9.747378636e-11 -2.47012492e-11)
(0 -1.069065368e-10 -2.903080535e-11)
(0 -1.175600994e-10 -3.39486368e-11)
(0 -1.294302668e-10 -3.952366232e-11)
(0 -1.424561858e-10 -4.581506079e-11)
(0 -1.56506274e-10 -5.285901028e-11)
(0 -1.713675682e-10 -6.064937089e-11)
(0 -1.867436146e-10 -6.911149465e-11)
(0 -2.022684391e-10 -7.806949554e-11)
(0 -2.175471626e-10 -8.721135353e-11)
(0 -2.322350013e-10 -9.606262779e-11)
(0 -2.461619066e-10 -1.039908346e-10)
(0 -2.594943655e-10 -1.10280796e-10)
(0 -2.728805419e-10 -1.143470716e-10)
(0 -2.874029343e-10 -1.161594428e-10)
(0 -3.038925586e-10 -1.168819077e-10)
(0 -3.204807012e-10 -1.192789333e-10)
(0 -3.263077044e-10 -1.260799941e-10)
(0 -2.889146424e-10 -1.321514132e-10)
(0 -1.445506274e-10 -1.039041483e-10)
(0 2.188316898e-10 3.063004115e-11)
(0 8.652466214e-11 2.202346501e-10)
(0 2.53566024e-11 -3.232445876e-10)
(0 -7.798935227e-11 1.41707196e-11)
(0 -1.863302566e-11 1.786209204e-11)
(0 9.586643795e-13 1.255286513e-11)
(0 6.947375334e-12 8.887883202e-12)
(0 8.928456534e-12 6.937701216e-12)
(0 9.90469515e-12 5.781456322e-12)
(0 1.065192745e-11 4.814325623e-12)
(0 1.128654658e-11 3.831648128e-12)
(0 1.181087369e-11 2.811159923e-12)
(0 1.223247488e-11 1.74652284e-12)
(0 1.255120648e-11 6.140881646e-13)
(0 1.274484622e-11 -6.086961565e-13)
(0 1.277385719e-11 -1.924666948e-12)
(0 1.259523276e-11 -3.310080636e-12)
(0 1.21764741e-11 -4.717614241e-12)
(0 1.150501494e-11 -6.086324783e-12)
(0 1.059094768e-11 -7.354245724e-12)
(0 9.46367046e-12 -8.469036489e-12)
(0 8.164898948e-12 -9.3943177e-12)
(0 6.740601046e-12 -1.011148666e-11)
(0 5.233802604e-12 -1.061761836e-11)
(0 3.679581007e-12 -1.092067747e-11)
(0 2.102872654e-12 -1.103350598e-11)
(0 5.190273464e-13 -1.096809665e-11)
(0 -1.06341979e-12 -1.073121218e-11)
(0 -2.638526122e-12 -1.032206749e-11)
(0 -4.198166685e-12 -9.732346454e-12)
(0 -5.727754918e-12 -8.948595015e-12)
(0 -7.203488176e-12 -7.956631581e-12)
(0 -8.591970003e-12 -6.747310543e-12)
(0 -9.852664003e-12 -5.322459796e-12)
(0 -1.094315639e-11 -3.69953266e-12)
(0 -1.182653678e-11 -1.913439896e-12)
(0 -1.247960158e-11 -1.446988508e-14)
(0 -1.289994849e-11 1.938292143e-12)
(0 -1.310946098e-11 3.887698419e-12)
(0 -1.31517475e-11 5.791082309e-12)
(0 -1.308302448e-11 7.629979459e-12)
(0 -1.29587629e-11 9.412779421e-12)
(0 -1.282100015e-11 1.116732159e-11)
(0 -1.269523205e-11 1.292148993e-11)
(0 -1.260688401e-11 1.468349577e-11)
(0 -1.25969663e-11 1.647276231e-11)
(0 -1.260706953e-11 1.848186154e-11)
(0 -1.194130255e-11 2.128730227e-11)
(0 -7.708929434e-12 2.576021146e-11)
(0 9.545411575e-12 3.177680562e-11)
(0 6.595087319e-11 2.87759482e-11)
(0 -3.986777971e-11 -3.070259066e-10)
(0 -9.420744984e-11 2.284649104e-10)
(0 -7.164042604e-10 -9.874494754e-10)
(0 -5.111707863e-10 -1.954960124e-09)
(0 -7.886606458e-11 -1.750472484e-09)
(0 2.948422228e-11 2.128830177e-22)
(0 -3.883449562e-11 3.911180505e-12)
(0 -3.884548549e-11 3.977983476e-12)
(0 -3.890272446e-11 4.117387647e-12)
(0 -3.898040415e-11 4.31887712e-12)
(0 -3.908198583e-11 4.571017571e-12)
(0 -3.920880859e-11 4.862672352e-12)
(0 -3.93623717e-11 5.183076114e-12)
(0 -3.95438749e-11 5.521932568e-12)
(0 -3.975418605e-11 5.869428885e-12)
(0 -3.999375871e-11 6.216326336e-12)
(0 -4.026259425e-11 6.553929326e-12)
(0 -4.056024303e-11 6.874142952e-12)
(0 -4.088583032e-11 7.169413531e-12)
(0 -4.12380965e-11 7.432770792e-12)
(0 -4.161544364e-11 7.657762572e-12)
(0 -4.201599378e-11 7.838498799e-12)
(0 -4.24376792e-11 7.969582562e-12)
(0 -4.287838318e-11 8.04614267e-12)
(0 -4.333613071e-11 8.063744877e-12)
(0 -4.380930788e-11 8.018409077e-12)
(0 -4.429688342e-11 7.906517164e-12)
(0 -4.479862769e-11 7.724842686e-12)
(0 -4.531536485e-11 7.470470569e-12)
(0 -4.584932319e-11 7.140818749e-12)
(0 -4.640463268e-11 6.733514342e-12)
(0 -4.69879585e-11 6.246345868e-12)
(0 -4.76091862e-11 5.677078738e-12)
(0 -4.828205425e-11 5.023390922e-12)
(0 -4.902470313e-11 4.282713359e-12)
(0 -4.986025076e-11 3.452182367e-12)
(0 -5.081758257e-11 2.528407138e-12)
(0 -5.193245394e-11 1.50722611e-12)
(0 -5.324877032e-11 3.832126432e-13)
(0 -5.481971364e-11 -8.507725018e-13)
(0 -5.670844515e-11 -2.204149087e-12)
(0 -5.89884048e-11 -3.68907689e-12)
(0 -6.174347347e-11 -5.321148122e-12)
(0 -6.506817172e-11 -7.120210217e-12)
(0 -6.906765261e-11 -9.111594636e-12)
(0 -7.385687421e-11 -1.132744605e-11)
(0 -7.955837477e-11 -1.380827907e-11)
(0 -8.629844968e-11 -1.660448269e-11)
(0 -9.420183804e-11 -1.977798972e-11)
(0 -1.033849192e-10 -2.340373682e-11)
(0 -1.139469891e-10 -2.75706951e-11)
(0 -1.259588358e-10 -3.238139892e-11)
(0 -1.394479683e-10 -3.794897757e-11)
(0 -1.543806162e-10 -4.438985096e-11)
(0 -1.706418615e-10 -5.181017204e-11)
(0 -1.880167528e-10 -6.028283252e-11)
(0 -2.061775055e-10 -6.981161336e-11)
(0 -2.246858322e-10 -8.027895426e-11)
(0 -2.430250281e-10 -9.137659482e-11)
(0 -2.606822881e-10 -1.025232939e-10)
(0 -2.773078809e-10 -1.127870249e-10)
(0 -2.929829101e-10 -1.208588069e-10)
(0 -3.08612268e-10 -1.251891015e-10)
(0 -3.263687737e-10 -1.245115522e-10)
(0 -3.497337541e-10 -1.191142751e-10)
(0 -3.816326195e-10 -1.130273798e-10)
(0 -4.174999843e-10 -1.158008585e-10)
(0 -4.2807821e-10 -1.382454736e-10)
(0 -3.461319934e-10 -1.528048249e-10)
(0 -2.574671309e-11 1.174379607e-21)
(0 7.476161024e-11 3.142146395e-10)
(0 1.120281333e-10 -8.656179923e-11)
(0 1.121277535e-11 -1.834768974e-11)
(0 4.403240962e-13 1.799573268e-12)
(0 3.273054574e-12 6.193826544e-12)
(0 6.143638597e-12 6.390552368e-12)
(0 7.877705564e-12 5.7229723e-12)
(0 8.957550703e-12 4.943391137e-12)
(0 9.7333737e-12 4.132814697e-12)
(0 1.03401694e-11 3.275410455e-12)
(0 1.081975624e-11 2.367382916e-12)
(0 1.118545878e-11 1.407197068e-12)
(0 1.143620264e-11 3.884487586e-13)
(0 1.155779805e-11 -6.935656953e-13)
(0 1.152695991e-11 -1.833190476e-12)
(0 1.131878348e-11 -3.010068361e-12)
(0 1.091465201e-11 -4.19021932e-12)
(0 1.030793539e-11 -5.331228892e-12)
(0 9.506089362e-12 -6.389374711e-12)
(0 8.529218702e-12 -7.32610656e-12)
(0 7.406225913e-12 -8.112431969e-12)
(0 6.169973495e-12 -8.730553287e-12)
(0 4.852722012e-12 -9.17308119e-12)
(0 3.482756497e-12 -9.440347975e-12)
(0 2.082683315e-12 -9.536862908e-12)
(0 6.694547021e-13 -9.467708707e-12)
(0 -7.441380646e-13 -9.235758943e-12)
(0 -2.146959566e-12 -8.840101499e-12)
(0 -3.526634107e-12 -8.276052696e-12)
(0 -4.866997198e-12 -7.536661692e-12)
(0 -6.146617683e-12 -6.615554812e-12)
(0 -7.338901725e-12 -5.510474187e-12)
(0 -8.41398811e-12 -4.226813315e-12)
(0 -9.342295006e-12 -2.780110169e-12)
(0 -1.009921902e-11 -1.196672329e-12)
(0 -1.067010445e-11 4.883578653e-13)
(0 -1.105427152e-11 2.235568514e-12)
(0 -1.12666842e-11 4.007963328e-12)
(0 -1.133613224e-11 5.778131511e-12)
(0 -1.129993234e-11 7.533506612e-12)
(0 -1.119676735e-11 9.277397338e-12)
(0 -1.106053782e-11 1.102461135e-11)
(0 -1.091834652e-11 1.279257976e-11)
(0 -1.079197041e-11 1.459435234e-11)
(0 -1.068771559e-11 1.644462597e-11)
(0 -1.053766809e-11 1.836715959e-11)
(0 -1.00855287e-11 2.028145967e-11)
(0 -8.9752758e-12 2.142056594e-11)
(0 -8.522393592e-12 1.840573663e-11)
(0 -2.233817622e-11 -4.464266944e-13)
(0 -1.264198227e-10 -6.790568262e-11)
(0 -9.098029269e-11 3.309166131e-10)
(0 1.751645098e-11 1.337085903e-21)
(0 -2.912993512e-10 -1.838745144e-09)
(0 2.598021267e-12 -2.034652333e-09)
(0 3.933080626e-11 3.17814421e-22)
(0 -3.816253427e-11 4.199834442e-12)
(0 -3.817729688e-11 4.272398072e-12)
(0 -3.824164481e-11 4.423600382e-12)
(0 -3.83303808e-11 4.642055519e-12)
(0 -3.844703815e-11 4.915427787e-12)
(0 -3.859303243e-11 5.231674733e-12)
(0 -3.876990526e-11 5.579182456e-12)
(0 -3.897887288e-11 5.946813563e-12)
(0 -3.922079614e-11 6.323976893e-12)
(0 -3.949610166e-11 6.700666544e-12)
(0 -3.980474812e-11 7.067484296e-12)
(0 -4.014622749e-11 7.41564325e-12)
(0 -4.051959032e-11 7.736966554e-12)
(0 -4.092348067e-11 8.023875921e-12)
(0 -4.135617716e-11 8.26938554e-12)
(0 -4.18156504e-11 8.46709062e-12)
(0 -4.229965872e-11 8.611156053e-12)
(0 -4.280589783e-11 8.696293719e-12)
(0 -4.333219862e-11 8.717737769e-12)
(0 -4.387675002e-11 8.671215696e-12)
(0 -4.443831745e-11 8.552931258e-12)
(0 -4.501646123e-11 8.359553655e-12)
(0 -4.561180204e-11 8.088215288e-12)
(0 -4.622639966e-11 7.736494452e-12)
(0 -4.686429359e-11 7.302378285e-12)
(0 -4.753217565e-11 6.784196853e-12)
(0 -4.824009646e-11 6.180552569e-12)
(0 -4.900210878e-11 5.49025918e-12)
(0 -4.983684619e-11 4.712297488e-12)
(0 -5.076818373e-11 3.84574373e-12)
(0 -5.182617935e-11 2.889616948e-12)
(0 -5.304836228e-11 1.842594923e-12)
(0 -5.448117504e-11 7.026235867e-13)
(0 -5.618122064e-11 -5.335299245e-13)
(0 -5.821609289e-11 -1.870737797e-12)
(0 -6.06649022e-11 -3.316053497e-12)
(0 -6.361881921e-11 -4.879469379e-12)
(0 -6.718177122e-11 -6.575033188e-12)
(0 -7.147095625e-11 -8.422350877e-12)
(0 -7.661651856e-11 -1.044843479e-11)
(0 -8.275985308e-11 -1.268985685e-11)
(0 -9.005041023e-11 -1.519526977e-11)
(0 -9.864107547e-11 -1.8028361e-11)
(0 -1.086819266e-10 -2.127115889e-11)
(0 -1.203116144e-10 -2.502726438e-11)
(0 -1.336452153e-10 -2.942418568e-11)
(0 -1.487574656e-10 -3.461347764e-11)
(0 -1.656608323e-10 -4.076679252e-11)
(0 -1.842786403e-10 -4.806488732e-11)
(0 -2.04414577e-10 -5.667502672e-11)
(0 -2.257221842e-10 -6.671035955e-11)
(0 -2.476824378e-10 -7.816343624e-11)
(0 -2.696040786e-10 -9.080520352e-11)
(0 -2.906706394e-10 -1.040412169e-10)
(0 -3.100755676e-10 -1.167221207e-10)
(0 -3.273209924e-10 -1.269258944e-10)
(0 -3.428090705e-10 -1.317891044e-10)
(0 -3.588816896e-10 -1.276282187e-10)
(0 -3.811694859e-10 -1.109546343e-10)
(0 -4.186622592e-10 -8.108076758e-11)
(0 -4.784328484e-10 -4.424188861e-11)
(0 -5.387462827e-10 -9.840007061e-12)
(0 -5.74669534e-10 7.311383988e-12)
(0 -8.379155798e-11 -1.78858403e-11)
(0 -7.604955423e-11 9.642667454e-11)
(0 1.478805334e-11 3.123743534e-12)
(0 1.037202008e-11 -2.799587661e-12)
(0 5.90849065e-12 1.489820728e-12)
(0 5.549643485e-12 4.032125217e-12)
(0 6.47652109e-12 4.757372154e-12)
(0 7.481295302e-12 4.620131974e-12)
(0 8.314537548e-12 4.136230366e-12)
(0 8.983946766e-12 3.498063278e-12)
(0 9.521114795e-12 2.769717563e-12)
(0 9.942660308e-12 1.975672176e-12)
(0 1.025354073e-11 1.126298667e-12)
(0 1.045044372e-11 2.259217615e-13)
(0 1.052320699e-11 -7.210035775e-13)
(0 1.045735453e-11 -1.704629062e-12)
(0 1.023820391e-11 -2.706960778e-12)
(0 9.855313564e-12 -3.702129363e-12)
(0 9.305859554e-12 -4.65916849e-12)
(0 8.596070011e-12 -5.546056985e-12)
(0 7.740613201e-12 -6.333697716e-12)
(0 6.760452222e-12 -6.998797025e-12)
(0 5.679951824e-12 -7.525212962e-12)
(0 4.524007916e-12 -7.90373814e-12)
(0 3.315799289e-12 -8.130690954e-12)
(0 2.075511922e-12 -8.205817932e-12)
(0 8.201313111e-13 -8.130120835e-12)
(0 -4.358125819e-13 -7.904074993e-12)
(0 -1.678819873e-12 -7.526630792e-12)
(0 -2.894726879e-12 -6.995168189e-12)
(0 -4.067257034e-12 -6.306451657e-12)
(0 -5.177300667e-12 -5.458367272e-12)
(0 -6.203228506e-12 -4.452079749e-12)
(0 -7.122299986e-12 -3.294042524e-12)
(0 -7.913015403e-12 -1.99727851e-12)
(0 -8.558068746e-12 -5.813740502e-13)
(0 -9.047360732e-12 9.291055432e-13)
(0 -9.380343025e-12 2.507757753e-12)
(0 -9.566897987e-12 4.130542023e-12)
(0 -9.626204214e-12 5.780065254e-12)
(0 -9.583758649e-12 7.448620486e-12)
(0 -9.467658162e-12 9.13881573e-12)
(0 -9.305817724e-12 1.086127106e-11)
(0 -9.125491045e-12 1.262996089e-11)
(0 -8.9548378e-12 1.445677344e-11)
(0 -8.824159048e-12 1.634426594e-11)
(0 -8.770235833e-12 1.826071866e-11)
(0 -8.887896205e-12 2.005080302e-11)
(0 -9.584652477e-12 2.123509638e-11)
(0 -1.232158107e-11 2.08721479e-11)
(0 -2.036054585e-11 1.893889847e-11)
(0 -3.049851976e-11 2.692698066e-11)
(0 4.971064912e-11 1.204348323e-10)
(0 6.708958329e-11 7.807297873e-13)
(0 3.130395498e-11 -1.459680077e-09)
(0 1.529105731e-11 -2.322488131e-09)
(0 5.701791853e-11 5.266569689e-22)
(0 -3.743646834e-11 4.507730287e-12)
(0 -3.745526639e-11 4.586684227e-12)
(0 -3.752720859e-11 4.750920513e-12)
(0 -3.762775586e-11 4.988126103e-12)
(0 -3.776052309e-11 5.284974457e-12)
(0 -3.79270138e-11 5.62846126e-12)
(0 -3.812882115e-11 6.006040296e-12)
(0 -3.836718791e-11 6.405680707e-12)
(0 -3.864297872e-11 6.815933295e-12)
(0 -3.895660379e-11 7.225978294e-12)
(0 -3.930798797e-11 7.625639771e-12)
(0 -3.969657098e-11 8.005399909e-12)
(0 -4.012132879e-11 8.35638998e-12)
(0 -4.058080376e-11 8.670391519e-12)
(0 -4.107314079e-11 8.939820022e-12)
(0 -4.159614481e-11 9.157722134e-12)
(0 -4.214737996e-11 9.317754515e-12)
(0 -4.272432483e-11 9.414171073e-12)
(0 -4.332457347e-11 9.441796375e-12)
(0 -4.394605388e-11 9.396017798e-12)
(0 -4.458724068e-11 9.2727775e-12)
(0 -4.524737109e-11 9.068590468e-12)
(0 -4.59267182e-11 8.780555102e-12)
(0 -4.662699403e-11 8.406370638e-12)
(0 -4.735191776e-11 7.944324957e-12)
(0 -4.810791021e-11 7.393288463e-12)
(0 -4.890480812e-11 6.75269675e-12)
(0 -4.975651312e-11 6.022569229e-12)
(0 -5.068160473e-11 5.203519408e-12)
(0 -5.170409041e-11 4.296744651e-12)
(0 -5.285449025e-11 3.303913471e-12)
(0 -5.417127808e-11 2.226957195e-12)
(0 -5.570244706e-11 1.06776989e-12)
(0 -5.750685431e-11 -1.721044786e-13)
(0 -5.965519709e-11 -1.491831716e-12)
(0 -6.223082345e-11 -2.891769294e-12)
(0 -6.533072728e-11 -4.374265184e-12)
(0 -6.906680665e-11 -5.944872658e-12)
(0 -7.356697705e-11 -7.614036771e-12)
(0 -7.897548488e-11 -9.399211139e-12)
(0 -8.545198864e-11 -1.132749128e-11)
(0 -9.316937108e-11 -1.343891433e-11)
(0 -1.023103284e-10 -1.579065161e-11)
(0 -1.130623537e-10 -1.846209816e-11)
(0 -1.256100792e-10 -2.156061598e-11)
(0 -1.401234776e-10 -2.522725856e-11)
(0 -1.567403552e-10 -2.964141687e-11)
(0 -1.755416773e-10 -3.502252295e-11)
(0 -1.965183325e-10 -4.162560421e-11)
(0 -2.195282529e-10 -4.972517544e-11)
(0 -2.442445497e-10 -5.957918821e-11)
(0 -2.700989804e-10 -7.136151443e-11)
(0 -2.962300237e-10 -8.504763779e-11)
(0 -3.21452057e-10 -1.002332977e-10)
(0 -3.442783708e-10 -1.158601023e-10)
(0 -3.630696327e-10 -1.298137938e-10)
(0 -3.764712251e-10 -1.383547687e-10)
(0 -3.844838512e-10 -1.354352178e-10)
(0 -3.901690885e-10 -1.12350181e-10)
(0 -4.003518367e-10 -5.992202217e-11)
(0 -4.122836854e-10 1.882015158e-11)
(0 -3.747409363e-10 9.876083648e-11)
(0 5.812657458e-11 1.570570566e-22)
(0 7.06799613e-11 9.80148837e-12)
(0 1.975877885e-11 1.024155836e-11)
(0 1.280187094e-11 5.429410932e-12)
(0 9.578852554e-12 2.535539744e-12)
(0 7.272036991e-12 2.926993725e-12)
(0 6.540606005e-12 3.687340786e-12)
(0 6.731645353e-12 3.986572195e-12)
(0 7.256563775e-12 3.863868887e-12)