/*--------------------------------*- C++ -*----------------------------------*\
  =========                 |
  \\      /  F ield         | OpenFOAM: The Open Source CFD Toolbox
   \\    /   O peration     | Website:  https://openfoam.org
    \\  /    A nd           | Version:  6
     \\/     M anipulation  |
\*---------------------------------------------------------------------------*/
FoamFile
{
    version     2.0;
    format      ascii;
    class       volScalarField;
    location    "0.0016";
    object      TRHS;
}
// * * * * * * * * * * * * * * * * * * * * * * * * * * * * * * * * * * * * * //

dimensions      [1 -1 -3 0 0 0 0];

internalField   nonuniform List<scalar> 
57600
(
2.990346611e-09
6.233255348e-09
5.828909495e-09
5.665808752e-09
5.311189697e-09
4.974691696e-09
4.655233783e-09
4.354797922e-09
4.072646673e-09
3.811723275e-09
3.571518383e-09
3.354725697e-09
3.160136696e-09
2.989510564e-09
2.840464666e-09
2.713616064e-09
2.605527423e-09
2.516210939e-09
2.441899531e-09
2.382666339e-09
2.33480522e-09
2.29841566e-09
2.269518668e-09
2.248087194e-09
2.230218329e-09
2.21659458e-09
2.204402265e-09
2.195638789e-09
2.188306625e-09
2.184698663e-09
2.182419984e-09
2.183372935e-09
2.185023489e-09
2.189899971e-09
2.196429565e-09
2.208175988e-09
2.223916839e-09
2.246895582e-09
2.274835162e-09
2.309962261e-09
2.349260297e-09
2.395037006e-09
2.444887641e-09
2.50228431e-09
2.56584892e-09
2.639927574e-09
2.72323512e-09
2.819625528e-09
2.926363693e-09
3.045475576e-09
3.172030879e-09
3.306431721e-09
3.442744708e-09
3.581497767e-09
3.717172921e-09
3.850633922e-09
3.975356438e-09
4.0900785e-09
4.185107865e-09
4.256733522e-09
4.294237887e-09
4.295328695e-09
4.251915133e-09
4.164660882e-09
4.026842812e-09
3.83917187e-09
3.594030781e-09
3.292585304e-09
2.929740963e-09
2.511911302e-09
2.039988523e-09
1.525650689e-09
9.721633932e-10
3.910070025e-10
-2.166661414e-10
-8.410709021e-10
-1.481387661e-09
-2.126120533e-09
-2.77223172e-09
-3.406912337e-09
-4.028688586e-09
-4.629601279e-09
-5.216048382e-09
-5.789236787e-09
-6.364379724e-09
-6.949593292e-09
-7.564789612e-09
-8.221474249e-09
-8.943470272e-09
-9.748895007e-09
-1.067211944e-08
-1.174639407e-08
-1.302486573e-08
-1.45628448e-08
-1.643813906e-08
-1.873421985e-08
-2.156101067e-08
-2.503914939e-08
-2.9320088e-08
-3.457062044e-08
-4.09920331e-08
-4.880637143e-08
-5.827524517e-08
-6.968577016e-08
-8.336245928e-08
-9.964516101e-08
-1.188916624e-07
-1.414551194e-07
-1.676920608e-07
-1.979478038e-07
-2.325628499e-07
-2.718545729e-07
-3.161125516e-07
-3.655776317e-07
-4.204013141e-07
-4.806091039e-07
-5.463626549e-07
-6.215234485e-07
-7.346080796e-07
-4.177395783e-07
-0.004931657127
0
0
0
0
0
0
0
0
0
0
0
0
0
0
0
0
0
0
0
0
0
0
0
0
0
0
0
0
0
0
0
0
0
0
0
0
0
0
0
0
0
0
0
0
0
0
0
0
0
0
0
0
0
0
0
0
0
0
0
0
0
0
0
0
0
0
0
0
0
0
0
0
0
0
0
0
0
0
0
0
0
0
0
0
0
0
0
0
0
0
0
0
0
0
0
0
0
0
0
0
0
0
0
0
0
0
0
0
0
0
0
0
0
0
0
0
0
0
0
2.933331224e-09
6.122435689e-09
5.830540024e-09
5.652126075e-09
5.307212097e-09
4.971525557e-09
4.655587314e-09
4.354292867e-09
4.075143937e-09
3.813163098e-09
3.575997787e-09
3.358178349e-09
3.166781298e-09
2.995191597e-09
2.849501752e-09
2.721755303e-09
2.617268794e-09
2.527205124e-09
2.456829027e-09
2.397098534e-09
2.35351894e-09
2.316772428e-09
2.292380705e-09
2.270699583e-09
2.257663591e-09
2.244123823e-09
2.237326216e-09
2.229020021e-09
2.227436151e-09
2.224248262e-09
2.227662571e-09
2.22875222e-09
2.23604596e-09
2.240944602e-09
2.253152639e-09
2.264563925e-09
2.285339872e-09
2.30661491e-09
2.337926668e-09
2.369221304e-09
2.409927635e-09
2.449845402e-09
2.499424034e-09
2.54905007e-09
2.610369359e-09
2.67393988e-09
2.751777675e-09
2.833484524e-09
2.930279176e-09
3.029749016e-09
3.141792294e-09
3.252200486e-09
3.370604382e-09
3.482424026e-09
3.598134171e-09
3.702752264e-09
3.806228119e-09
3.890975455e-09
3.964715807e-09
4.007306038e-09
4.026481741e-09
4.003094621e-09
3.947931881e-09
3.843756266e-09
3.702794325e-09
3.506896736e-09
3.267822405e-09
2.967299017e-09
2.620024374e-09
2.212053057e-09
1.763801625e-09
1.265249049e-09
7.388843407e-10
1.738725199e-10
-4.087676307e-10
-1.021142089e-09
-1.641515894e-09
-2.279961337e-09
-2.912255748e-09
-3.547417529e-09
-4.16288536e-09
-4.772212051e-09
-5.359895117e-09
-5.947191384e-09
-6.526166137e-09
-7.123702309e-09
-7.736640561e-09
-8.395432779e-09
-9.102459034e-09
-9.895621965e-09
-1.078970044e-08
-1.18378942e-08
-1.307504791e-08
-1.457607322e-08
-1.64017622e-08
-1.865493563e-08
-2.143000684e-08
-2.486624862e-08
-2.910066213e-08
-3.431682717e-08
-4.070190353e-08
-4.849239461e-08
-5.79364288e-08
-6.933384749e-08
-8.299696435e-08
-9.927673533e-08
-1.185195189e-07
-1.410876146e-07
-1.673279732e-07
-1.975948955e-07
-2.322229943e-07
-2.715381135e-07
-3.158322585e-07
-3.653557845e-07
-4.202867427e-07
-4.806718641e-07
-5.468520744e-07
-6.226189246e-07
-7.405171769e-07
-4.223717738e-07
-0.004938459191
0
0
0
0
0
0
0
0
0
0
0
0
0
0
0
0
0
0
0
0
0
0
0
0
0
0
0
0
0
0
0
0
0
0
0
0
0
0
0
0
0
0
0
0
0
0
0
0
0
0
0
0
0
0
0
0
0
0
0
0
0
0
0
0
0
0
0
0
0
0
0
0
0
0
0
0
0
0
0
0
0
0
0
0
0
0
0
0
0
0
0
0
0
0
0
0
0
0
0
0
0
0
0
0
0
0
0
0
0
0
0
0
0
0
0
0
0
0
0
2.92097804e-09
6.096021394e-09
5.803838353e-09
5.637335714e-09
5.296192112e-09
4.966492331e-09
4.650464096e-09
4.353093103e-09
4.072714587e-09
3.814188193e-09
3.575510988e-09
3.361101361e-09
3.168069025e-09
2.999903371e-09
2.85245514e-09
2.72817694e-09
2.621894094e-09
2.535527851e-09
2.463521399e-09
2.407795713e-09
2.362658272e-09
2.330029701e-09
2.303980181e-09
2.286531849e-09
2.271982318e-09
2.263211792e-09
2.255382258e-09
2.252411541e-09
2.249892969e-09
2.251969098e-09
2.253966145e-09
2.260081502e-09
2.265742737e-09
2.275902136e-09
2.286533706e-09
2.303119155e-09
2.321393135e-09
2.346419971e-09
2.373076222e-09
2.406103865e-09
2.44019085e-09
2.480658529e-09
2.522665973e-09
2.572330533e-09
2.62504707e-09
2.687203585e-09
2.753777387e-09
2.830778099e-09
2.912084147e-09
3.002775624e-09
3.095323976e-09
3.194028041e-09
3.290586192e-09
3.389387425e-09
3.481894285e-09
3.57231666e-09
3.650663186e-09
3.719402334e-09
3.766174126e-09
3.792335664e-09
3.785405151e-09
3.748537966e-09
3.671198398e-09
3.558425447e-09
3.399826037e-09
3.199962524e-09
2.947524816e-09
2.647927428e-09
2.292341304e-09
1.890643446e-09
1.438332039e-09
9.486464345e-10
4.180946589e-10
-1.404220054e-10
-7.312985202e-10
-1.341343455e-09
-1.973362712e-09
-2.611569991e-09
-3.256785262e-09
-3.893053635e-09
-4.523537945e-09
-5.136981897e-09
-5.742497609e-09
-6.335215836e-09
-6.92987825e-09
-7.526741604e-09
-8.144981113e-09
-8.790164056e-09
-9.488036023e-09
-1.025391012e-08
-1.112603025e-08
-1.213615471e-08
-1.334149862e-08
-1.479643594e-08
-1.658332104e-08
-1.8786249e-08
-2.152078967e-08
-2.490943752e-08
-2.910896223e-08
-3.4287244e-08
-4.064883911e-08
-4.841543252e-08
-5.785054143e-08
-6.924086404e-08
-8.291264332e-08
-9.920534855e-08
-1.184770984e-07
-1.410800141e-07
-1.673712364e-07
-1.97698687e-07
-2.324078171e-07
-2.718242631e-07
-3.162531445e-07
-3.659594628e-07
-4.211454255e-07
-4.81925272e-07
-5.486904668e-07
-6.254436391e-07
-7.451170336e-07
-4.253170088e-07
-0.004952091053
0
0
0
0
0
0
0
0
0
0
0
0
0
0
0
0
0
0
0
0
0
0
0
0
0
0
0
0
0
0
0
0
0
0
0
0
0
0
0
0
0
0
0
0
0
0
0
0
0
0
0
0
0
0
0
0
0
0
0
0
0
0
0
0
0
0
0
0
0
0
0
0
0
0
0
0
0
0
0
0
0
0
0
0
0
0
0
0
0
0
0
0
0
0
0
0
0
0
0
0
0
0
0
0
0
0
0
0
0
0
0
0
0
0
0
0
0
0
0
2.911855438e-09
6.074199703e-09
5.785130432e-09
5.621252437e-09
5.285537117e-09
4.957682794e-09
4.645316151e-09
4.34825478e-09
4.070631239e-09
3.811831535e-09
3.575625143e-09
3.360702769e-09
3.170016294e-09
3.001131074e-09
2.855905756e-09
2.730757896e-09
2.626727477e-09
2.539571547e-09
2.470051354e-09
2.413675608e-09
2.371142885e-09
2.337752175e-09
2.314226772e-09
2.295976889e-09
2.284287394e-09
2.275213399e-09
2.270924345e-09
2.268046247e-09
2.269190764e-09
2.270999813e-09
2.276226178e-09
2.281641713e-09
2.290559317e-09
2.300178823e-09
2.314261267e-09
2.32990053e-09
2.350543588e-09
2.372646994e-09
2.399401548e-09
2.427187701e-09
2.459748228e-09
2.493939614e-09
2.534116374e-09
2.577188275e-09
2.627471696e-09
2.681384795e-09
2.742925621e-09
2.807936112e-09
2.880084198e-09
2.954529392e-09
3.03443404e-09
3.114149774e-09
3.196402197e-09
3.274867334e-09
3.351837576e-09
3.419911073e-09
3.480179968e-09
3.523477634e-09
3.549729087e-09
3.549122819e-09
3.52238061e-09
3.460967444e-09
3.367248213e-09
3.233288897e-09
3.061373717e-09
2.842681803e-09
2.579421226e-09
2.26381191e-09
1.901009832e-09
1.486832894e-09
1.02998112e-09
5.282917595e-10
-8.767441995e-12
-5.834311779e-10
-1.185664651e-09
-1.816019658e-09
-2.46168145e-09
-3.120604592e-09
-3.77875947e-09
-4.435129215e-09
-5.07883934e-09
-5.713243708e-09
-6.332239081e-09
-6.943532345e-09
-7.54531815e-09
-8.149685574e-09
-8.76035635e-09
-9.396173377e-09
-1.006979446e-08
-1.081082421e-08
-1.164545822e-08
-1.261903501e-08
-1.377684471e-08
-1.518618794e-08
-1.691869728e-08
-1.907179856e-08
-2.175217067e-08
-2.509552884e-08
-2.925056582e-08
-3.439687446e-08
-4.07309916e-08
-4.848471979e-08
-5.791430642e-08
-6.931581048e-08
-8.300942416e-08
-9.934295879e-08
-1.186690478e-07
-1.413467286e-07
-1.67729353e-07
-1.981726206e-07
-2.330225171e-07
-2.726147108e-07
-3.172623992e-07
-3.672456481e-07
-4.227975475e-07
-4.840420016e-07
-5.514769852e-07
-6.289692204e-07
-7.499933945e-07
-4.28060387e-07
-0.004972636434
0
0
0
0
0
0
0
0
0
0
0
0
0
0
0
0
0
0
0
0
0
0
0
0
0
0
0
0
0
0
0
0
0
0
0
0
0
0
0
0
0
0
0
0
0
0
0
0
0
0
0
0
0
0
0
0
0
0
0
0
0
0
0
0
0
0
0
0
0
0
0
0
0
0
0
0
0
0
0
0
0
0
0
0
0
0
0
0
0
0
0
0
0
0
0
0
0
0
0
0
0
0
0
0
0
0
0
0
0
0
0
0
0
0
0
0
0
0
0
2.90535064e-09
6.06008736e-09
5.769114905e-09
5.60748155e-09
5.27340361e-09
4.94871347e-09
4.637477988e-09
4.342899653e-09
4.065768564e-09
3.809007665e-09
3.572955289e-09
3.359845034e-09
3.169043091e-09
3.001732865e-09
2.856134976e-09
2.732414063e-09
2.627935948e-09
2.542322898e-09
2.472499459e-09
2.417798618e-09
2.374894924e-09
2.34305693e-09
2.318994518e-09
2.302373e-09
2.29046721e-09
2.283664977e-09
2.279767618e-09
2.279570896e-09
2.281030958e-09
2.285148247e-09
2.290164239e-09
2.297652193e-09
2.306377388e-09
2.318327785e-09
2.332189017e-09
2.349546548e-09
2.368447844e-09
2.390140624e-09
2.412714413e-09
2.438070459e-09
2.465056205e-09
2.496285037e-09
2.530720433e-09
2.570665909e-09
2.614289384e-09
2.663201525e-09
2.715012065e-09
2.771225567e-09
2.829430736e-09
2.891225014e-09
2.953922119e-09
3.018665982e-09
3.081890356e-09
3.143797227e-09
3.199554595e-09
3.248147456e-09
3.28340449e-09
3.303415728e-09
3.301543415e-09
3.276305444e-09
3.221895273e-09
3.137906439e-09
3.018995694e-09
2.864647638e-09
2.668769159e-09
2.430440494e-09
2.143967157e-09
1.81030121e-09
1.426495919e-09
9.965522293e-10
5.197016554e-10
1.130109535e-12
-5.595045766e-10
-1.156140421e-09
-1.787115237e-09
-2.443099669e-09
-3.118953743e-09
-3.803012618e-09
-4.490014878e-09
-5.170429446e-09
-5.842439596e-09
-6.500103202e-09
-7.144537278e-09
-7.772416548e-09
-8.387953603e-09
-8.992673675e-09
-9.59771339e-09
-1.021376338e-08
-1.086254916e-08
-1.156678234e-08
-1.236143495e-08
-1.328475155e-08
-1.439015426e-08
-1.573862933e-08
-1.741075352e-08
-1.949957834e-08
-2.212153299e-08
-2.540894676e-08
-2.951937337e-08
-3.462865402e-08
-4.094071996e-08
-4.868362456e-08
-5.812037743e-08
-6.954412142e-08
-8.328140337e-08
-9.967755744e-08
-1.190905037e-07
-1.418772252e-07
-1.683963318e-07
-1.990042099e-07
-2.340543507e-07
-2.738876242e-07
-3.188272118e-07
-3.691668431e-07
-4.25145813e-07
-4.869317171e-07
-5.549544409e-07
-6.332847985e-07
-7.552061258e-07
-4.310110177e-07
-0.005000251948
0
0
0
0
0
0
0
0
0
0
0
0
0
0
0
0
0
0
0
0
0
0
0
0
0
0
0
0
0
0
0
0
0
0
0
0
0
0
0
0
0
0
0
0
0
0
0
0
0
0
0
0
0
0
0
0
0
0
0
0
0
0
0
0
0
0
0
0
0
0
0
0
0
0
0
0
0
0
0
0
0
0
0
0
0
0
0
0
0
0
0
0
0
0
0
0
0
0
0
0
0
0
0
0
0
0
0
0
0
0
0
0
0
0
0
0
0
0
0
2.899875369e-09
6.047036151e-09
5.755478471e-09
5.593871793e-09
5.261622049e-09
4.938206947e-09
4.628984764e-09
4.335436723e-09
4.060000677e-09
3.803957775e-09
3.569312454e-09
3.356621136e-09
3.166951579e-09
2.999748866e-09
2.8549981e-09
2.731163649e-09
2.627489445e-09
2.541800694e-09
2.472869307e-09
2.418114418e-09
2.37601919e-09
2.34391812e-09
2.320566573e-09
2.303811284e-09
2.293065675e-09
2.286720265e-09
2.284550238e-09
2.285053945e-09
2.288128415e-09
2.292549376e-09
2.298831897e-09
2.306485134e-09
2.316608633e-09
2.328803634e-09
2.343764186e-09
2.360313392e-09
2.378537219e-09
2.397167639e-09
2.41690693e-09
2.437518712e-09
2.460769235e-09
2.486890131e-09
2.517403968e-09
2.55156539e-09
2.58975925e-09
2.630300349e-09
2.673239465e-09
2.717098711e-09
2.762486133e-09
2.808310546e-09
2.855183352e-09
2.901366126e-09
2.946346415e-09
2.986854233e-09
3.020844287e-09
3.043656076e-09
3.052417056e-09
3.042258974e-09
3.010853508e-09
2.954210939e-09
2.870869686e-09
2.757079542e-09
2.61094673e-09
2.427734342e-09
2.20477401e-09
1.937317831e-09
1.623973079e-09
1.262218185e-09
8.53285055e-10
3.966773687e-10
-1.052710994e-10
-6.527306492e-10
-1.242752396e-09
-1.873638399e-09
-2.538912156e-09
-3.232442808e-09
-3.943940646e-09
-4.665564391e-09
-5.387881921e-09
-6.105700874e-09
-6.812528468e-09
-7.50515954e-09
-8.178088185e-09
-8.82918461e-09
-9.455948417e-09
-1.006229022e-08
-1.065493993e-08
-1.124909046e-08
-1.18636016e-08
-1.252586882e-08
-1.32677195e-08
-1.413152926e-08
-1.516803692e-08
-1.644347901e-08
-1.80378511e-08
-2.00511481e-08
-2.260055804e-08
-2.582513494e-08
-2.988263452e-08
-3.495421777e-08
-4.124330212e-08
-4.898261412e-08
-5.843491907e-08
-6.98978709e-08
-8.369791427e-08
-1.00184133e-07
-1.197141319e-07
-1.426482574e-07
-1.693460382e-07
-2.00168833e-07
-2.354742369e-07
-2.756101819e-07
-3.209076817e-07
-3.716656498e-07
-4.281429921e-07
-4.904780796e-07
-5.591918709e-07
-6.381128238e-07
-7.611631499e-07
-4.343440994e-07
-0.005035112198
0
0
0
0
0
0
0
0
0
0
0
0
0
0
0
0
0
0
0
0
0
0
0
0
0
0
0
0
0
0
0
0
0
0
0
0
0
0
0
0
0
0
0
0
0
0
0
0
0
0
0
0
0
0
0
0
0
0
0
0
0
0
0
0
0
0
0
0
0
0
0
0
0
0
0
0
0
0
0
0
0
0
0
0
0
0
0
0
0
0
0
0
0
0
0
0
0
0
0
0
0
0
0
0
0
0
0
0
0
0
0
0
0
0
0
0
0
0
0
2.893971424e-09
6.034171636e-09
5.741898585e-09
5.580535535e-09
5.249093428e-09
4.92714261e-09
4.61905871e-09
4.32697744e-09
4.052531763e-09
3.797739049e-09
3.563825338e-09
3.352111672e-09
3.16284272e-09
2.996260746e-09
2.851593625e-09
2.728181875e-09
2.624487508e-09
2.53923179e-09
2.470293877e-09
2.415904665e-09
2.373622185e-09
2.341736186e-09
2.318173538e-09
2.301861039e-09
2.291367293e-09
2.286041125e-09
2.284533133e-09
2.286180335e-09
2.289741275e-09
2.295041661e-09
2.301635666e-09
2.310186423e-09
2.320693861e-09
2.33361703e-09
2.348194912e-09
2.364030923e-09
2.379884739e-09
2.395698788e-09
2.411288556e-09
2.427947726e-09
2.446455337e-09
2.468236922e-09
2.493256258e-09
2.521566046e-09
2.551747571e-09
2.583072985e-09
2.614108627e-09
2.644775186e-09
2.67444552e-09
2.703565075e-09
2.73135002e-09
2.757370833e-09
2.779345972e-09
2.795119297e-09
2.80078392e-09
2.793139891e-09
2.768039568e-09
2.722939162e-09
2.654854976e-09
2.562376538e-09
2.442925548e-09
2.294540049e-09
2.113290197e-09
1.895846492e-09
1.637636835e-09
1.336025272e-09
9.882965782e-10
5.942657538e-10
1.532376211e-10
-3.339730633e-10
-8.681083561e-10
-1.448517802e-09
-2.074980958e-09
-2.74386127e-09
-3.45017001e-09
-4.185135101e-09
-4.940093926e-09
-5.705244799e-09
-6.473261467e-09
-7.23656156e-09
-7.989165591e-09
-8.723251888e-09
-9.431847623e-09
-1.010752582e-08
-1.074715856e-08
-1.135154648e-08
-1.192923609e-08
-1.249416676e-08
-1.306765424e-08
-1.367567524e-08
-1.435201119e-08
-1.513796013e-08
-1.608755924e-08
-1.726841024e-08
-1.876631365e-08
-2.068462018e-08
-2.31468396e-08
-2.629493494e-08
-3.029157692e-08
-3.531968306e-08
-4.158670145e-08
-4.932687073e-08
-5.880674518e-08
-7.032525308e-08
-8.421183483e-08
-1.008161136e-07
-1.204979132e-07
-1.436183977e-07
-1.705402447e-07
-2.016278065e-07
-2.37243867e-07
-2.777418681e-07
-3.234579224e-07
-3.747004993e-07
-4.317192914e-07
-4.946922515e-07
-5.640283553e-07
-6.4384939e-07
-7.678577568e-07
-4.381545169e-07
-0.005077457594
0
0
0
0
0
0
0
0
0
0
0
0
0
0
0
0
0
0
0
0
0
0
0
0
0
0
0
0
0
0
0
0
0
0
0
0
0
0
0
0
0
0
0
0
0
0
0
0
0
0
0
0
0
0
0
0
0
0
0
0
0
0
0
0
0
0
0
0
0
0
0
0
0
0
0
0
0
0
0
0
0
0
0
0
0
0
0
0
0
0
0
0
0
0
0
0
0
0
0
0
0
0
0
0
0
0
0
0
0
0
0
0
0
0
0
0
0
0
0
2.887650121e-09
6.020257295e-09
5.727866413e-09
5.566485609e-09
5.235961136e-09
4.914989704e-09
4.608145025e-09
4.317137608e-09
4.043864958e-09
3.789975738e-09
3.557013683e-09
3.345900614e-09
3.157225993e-09
2.990881104e-09
2.84649621e-09
2.723098533e-09
2.619571708e-09
2.534269327e-09
2.465418372e-09
2.410823272e-09
2.368457101e-09
2.336253499e-09
2.312691974e-09
2.296374536e-09
2.286356867e-09
2.281461598e-09
2.280692485e-09
2.282779004e-09
2.286944541e-09
2.292574337e-09
2.299802438e-09
2.308775491e-09
2.319827087e-09
2.33260057e-09
2.346504361e-09
2.360383466e-09
2.373543228e-09
2.385604599e-09
2.397258128e-09
2.409466685e-09
2.423551245e-09
2.440051073e-09
2.458983615e-09
2.479273726e-09
2.49971524e-09
2.51882444e-09
2.535849056e-09
2.550198669e-09
2.561937562e-09
2.570731921e-09
2.576145528e-09
2.576650877e-09
2.57020603e-09
2.553636281e-09
2.523667653e-09
2.476659975e-09
2.409847796e-09
2.32088862e-09
2.208543825e-09
2.071433476e-09
1.908167729e-09
1.716047914e-09
1.49185353e-09
1.231458565e-09
9.314682793e-10
5.889933192e-10
2.028324999e-10
-2.277825946e-10
-7.02906017e-10
-1.223527972e-09
-1.79072111e-09
-2.405949296e-09
-3.068842831e-09
-3.77691272e-09
-4.524226989e-09
-5.302984661e-09
-6.10401042e-09
-6.918864963e-09
-7.739307647e-09
-8.557423627e-09
-9.363674513e-09
-1.014720365e-08
-1.089586629e-08
-1.159936852e-08
-1.225128643e-08
-1.28522118e-08
-1.340968559e-08
-1.393858642e-08
-1.445926252e-08
-1.499819875e-08
-1.55884813e-08
-1.62734405e-08
-1.710931157e-08
-1.816912955e-08
-1.954384646e-08
-2.134369581e-08
-2.369731624e-08
-2.675228001e-08
-3.067494666e-08
-3.565261151e-08
-4.189586526e-08
-4.964292183e-08
-5.916288179e-08
-7.075743917e-08
-8.475705023e-08
-1.01512639e-07
-1.213844161e-07
-1.447351309e-07
-1.719292789e-07
-2.033346709e-07
-2.393180595e-07
-2.802374892e-07
-3.264352062e-07
-3.782193788e-07
-4.358580202e-07
-4.994842253e-07
-5.696274943e-07
-6.501181711e-07
-7.755376867e-07
-4.424864911e-07
-0.005127578511
0
0
0
0
0
0
0
0
0
0
0
0
0
0
0
0
0
0
0
0
0
0
0
0
0
0
0
0
0
0
0
0
0
0
0
0
0
0
0
0
0
0
0
0
0
0
0
0
0
0
0
0
0
0
0
0
0
0
0
0
0
0
0
0
0
0
0
0
0
0
0
0
0
0
0
0
0
0
0
0
0
0
0
0
0
0
0
0
0
0
0
0
0
0
0
0
0
0
0
0
0
0
0
0
0
0
0
0
0
0
0
0
0
0
0
0
0
0
0
2.880607449e-09
6.005081774e-09
5.712710678e-09
5.551475138e-09
5.221746688e-09
4.901804282e-09
4.596011912e-09
4.306115301e-09
4.033837433e-09
3.780924076e-09
3.548714693e-09
3.338253147e-09
3.149961853e-09
2.983903795e-09
2.839585294e-09
2.716251034e-09
2.612651141e-09
2.527272139e-09
2.458171131e-09
2.403294949e-09
2.360503077e-09
2.328000677e-09
2.304205679e-09
2.287972061e-09
2.278143417e-09
2.273628966e-09
2.273132663e-09
2.275555009e-09
2.279943814e-09
2.285991175e-09
2.293622428e-09
2.303073531e-09
2.314165206e-09
2.326396619e-09
2.33867018e-09
2.350004495e-09
2.359657029e-09
2.367816557e-09
2.375220213e-09
2.383074215e-09
2.392144884e-09
2.402606997e-09
2.413577221e-09
2.423722575e-09
2.431388057e-09
2.435410877e-09
2.43493837e-09
2.429694944e-09
2.419264146e-09
2.403102563e-09
2.379866732e-09
2.347684973e-09
2.303813224e-09
2.245239112e-09
2.16866081e-09
2.0713611e-09
1.951219691e-09
1.807253871e-09
1.638918127e-09
1.44588647e-09
1.226932674e-09
9.800197186e-10
7.020017182e-10
3.897486005e-10
4.039322794e-11
-3.476473992e-10
-7.752735431e-10
-1.24274403e-09
-1.751087953e-09
-2.30213025e-09
-2.898828816e-09
-3.543717846e-09
-4.23783317e-09
-4.97914886e-09
-5.762860493e-09
-6.581961454e-09
-7.42886687e-09
-8.29569787e-09
-9.174134734e-09
-1.005376457e-08
-1.092131236e-08
-1.17604727e-08
-1.255428246e-08
-1.328800679e-08
-1.395290739e-08
-1.454777886e-08
-1.507960752e-08
-1.556192603e-08
-1.60142413e-08
-1.646186606e-08
-1.693866588e-08
-1.74901661e-08
-1.817780293e-08
-1.908107613e-08
-2.029888429e-08
-2.194873447e-08
-2.41662594e-08
-2.710471368e-08
-3.093603991e-08
-3.585251105e-08
-4.206982635e-08
-4.983035567e-08
-5.94065778e-08
-7.110183795e-08
-8.524724898e-08
-1.021934137e-07
-1.223004169e-07
-1.459313189e-07
-1.734520878e-07
-2.052328093e-07
-2.416435527e-07
-2.830466785e-07
-3.297873622e-07
-3.821834919e-07
-4.404896825e-07
-5.048902167e-07
-5.75780408e-07
-6.57387894e-07
-7.840447462e-07
-4.473707305e-07
-0.005185829774
0
0
0
0
0
0
0
0
0
0
0
0
0
0
0
0
0
0
0
0
0
0
0
0
0
0
0
0
0
0
0
0
0
0
0
0
0
0
0
0
0
0
0
0
0
0
0
0
0
0
0
0
0
0
0
0
0
0
0
0
0
0
0
0
0
0
0
0
0
0
0
0
0
0
0
0
0
0
0
0
0
0
0
0
0
0
0
0
0
0
0
0
0
0
0
0
0
0
0
0
0
0
0
0
0
0
0
0
0
0
0
0
0
0
0
0
0
0
0
2.872796101e-09
5.988258374e-09
5.696215102e-09
5.535152118e-09
5.206339529e-09
4.887382681e-09
4.582663613e-09
4.29380247e-09
4.022543417e-09
3.770492751e-09
3.539052117e-09
3.329112618e-09
3.141198884e-09
2.97529693e-09
2.831054283e-09
2.707651465e-09
2.60392789e-09
2.518278695e-09
2.448802273e-09
2.393409851e-09
2.350128153e-09
2.317178103e-09
2.293168926e-09
2.276881749e-09
2.267162562e-09
2.262742415e-09
2.262350216e-09
2.264808096e-09
2.269382763e-09
2.275692876e-09
2.283732584e-09
2.29335791e-09
2.304137023e-09
2.315087981e-09
2.325085335e-09
2.333122146e-09
2.338921594e-09
2.342883563e-09
2.345989423e-09
2.349059796e-09
2.352358881e-09
2.355129939e-09
2.355925398e-09
2.352908131e-09
2.344532395e-09
2.329673482e-09
2.307701719e-09
2.278002264e-09
2.239707137e-09
2.191310342e-09
2.130730939e-09
2.055315146e-09
1.962157483e-09
1.848264305e-09
1.711030903e-09
1.548523125e-09
1.359882886e-09
1.145176353e-09
9.050858512e-10
6.400873689e-10
3.49990044e-10
3.357830511e-11
-3.108991157e-10
-6.852933564e-10
-1.090775428e-09
-1.527858505e-09
-1.996579268e-09
-2.497501565e-09
-3.032476058e-09
-3.605120608e-09
-4.220238258e-09
-4.88238706e-09
-5.594268556e-09
-6.355693408e-09
-7.163862141e-09
-8.014253944e-09
-8.901474422e-09
-9.81889888e-09
-1.075728101e-08
-1.170303373e-08
-1.263744956e-08
-1.353802698e-08
-1.43816246e-08
-1.514880193e-08
-1.582716693e-08
-1.641310183e-08
-1.691103258e-08
-1.733214702e-08
-1.769350623e-08
-1.801956158e-08
-1.834534629e-08
-1.872099602e-08
-1.921508191e-08
-1.991634773e-08
-2.093313198e-08
-2.239199147e-08
-2.443648741e-08
-2.722731155e-08
-3.094354632e-08
-3.578465156e-08
-4.197288578e-08
-4.975587541e-08
-5.940916894e-08
-7.123692016e-08
-8.556918279e-08
-1.027546392e-07
-1.231515472e-07
-1.471218807e-07
-1.7503156e-07
-2.072517776e-07
-2.441549101e-07
-2.861063774e-07
-3.334577232e-07
-3.865266029e-07
-4.45592304e-07
-5.107887294e-07
-5.826702456e-07
-6.651210198e-07
-7.93589544e-07
-4.528067889e-07
-0.005252630982
0
0
0
0
0
0
0
0
0
0
0
0
0
0
0
0
0
0
0
0
0
0
0
0
0
0
0
0
0
0
0
0
0
0
0
0
0
0
0
0
0
0
0
0
0
0
0
0
0
0
0
0
0
0
0
0
0
0
0
0
0
0
0
0
0
0
0
0
0
0
0
0
0
0
0
0
0
0
0
0
0
0
0
0
0
0
0
0
0
0
0
0
0
0
0
0
0
0
0
0
0
0
0
0
0
0
0
0
0
0
0
0
0
0
0
0
0
0
0
2.864116795e-09
5.969730305e-09
5.678113678e-09
5.517345909e-09
5.189508663e-09
4.87163031e-09
4.567978136e-09
4.28019839e-09
4.009920124e-09
3.758757291e-09
3.527997997e-09
3.318568907e-09
3.130943727e-09
2.965192192e-09
2.8209466e-09
2.697443894e-09
2.593476614e-09
2.507446921e-09
2.437430192e-09
2.381422342e-09
2.337516606e-09
2.30411618e-09
2.279831266e-09
2.263445066e-09
2.253665957e-09
2.249176667e-09
2.248643524e-09
2.251043363e-09
2.25566624e-09
2.26222812e-09
2.27048191e-09
2.280000948e-09
2.289877529e-09
2.298930197e-09
2.305939453e-09
2.310246692e-09
2.311873976e-09
2.311537456e-09
2.310011806e-09
2.307619267e-09
2.30366108e-09
2.29657432e-09
2.284220951e-09
2.264617868e-09
2.236234879e-09
2.198104716e-09
2.149348385e-09
2.088779334e-09
2.014487517e-09
1.923895716e-09
1.813919145e-09
1.681372525e-09
1.52320254e-09
1.336833694e-09
1.120401541e-09
8.731307894e-10
5.95434559e-10
2.88842547e-10
-4.457804439e-11
-4.027793429e-10
-7.843266778e-10
-1.188348211e-09
-1.614370659e-09
-2.061742826e-09
-2.529523777e-09
-3.016572307e-09
-3.522310081e-09
-4.047714326e-09
-4.596127435e-09
-5.173492453e-09
-5.787227924e-09
-6.44469766e-09
-7.151340612e-09
-7.910222306e-09
-8.722203546e-09
-9.586825104e-09
-1.050200269e-08
-1.146264988e-08
-1.245825789e-08
-1.347100172e-08
-1.447573711e-08
-1.544242985e-08
-1.634074846e-08
-1.714490091e-08
-1.783731608e-08
-1.840962907e-08
-1.886183701e-08
-1.920077602e-08
-1.944033573e-08
-1.960403718e-08
-1.97298112e-08
-1.987454562e-08
-2.011695578e-08
-2.055742327e-08
-2.131595672e-08
-2.252972289e-08
-2.43521402e-08
-2.695362051e-08
-3.052331826e-08
-3.527070801e-08
-4.14267096e-08
-4.924499173e-08
-5.90034825e-08
-7.100542386e-08
-8.55774251e-08
-1.030637635e-07
-1.238183329e-07
-1.481996719e-07
-1.76571393e-07
-2.093039124e-07
-2.467704822e-07
-2.893402443e-07
-3.373683953e-07
-3.911866629e-07
-4.510627277e-07
-5.171995153e-07
-5.899976093e-07
-6.738468074e-07
-8.039010873e-07
-4.587892044e-07
-0.005328475439
0
0
0
0
0
0
0
0
0
0
0
0
0
0
0
0
0
0
0
0
0
0
0
0
0
0
0
0
0
0
0
0
0
0
0
0
0
0
0
0
0
0
0
0
0
0
0
0
0
0
0
0
0
0
0
0
0
0
0
0
0
0
0
0
0
0
0
0
0
0
0
0
0
0
0
0
0
0
0
0
0
0
0
0
0
0
0
0
0
0
0
0
0
0
0
0
0
0
0
0
0
0
0
0
0
0
0
0
0
0
0
0
0
0
0
0
0
0
0
2.854536888e-09
5.949262226e-09
5.658273056e-09
5.497874789e-09
5.171142939e-09
4.854415703e-09
4.551922539e-09
4.265229964e-09
3.99597238e-09
3.745665697e-09
3.515579281e-09
3.30661471e-09
3.119272586e-09
2.953631731e-09
2.809359568e-09
2.685696667e-09
2.581414217e-09
2.494883661e-09
2.424218537e-09
2.367498035e-09
2.322955899e-09
2.289068671e-09
2.264482931e-09
2.247892807e-09
2.237934091e-09
2.233186111e-09
2.232412667e-09
2.234635261e-09
2.239289036e-09
2.245972556e-09
2.254210797e-09
2.263143758e-09
2.271557462e-09
2.278055684e-09
2.281613622e-09
2.281869415e-09
2.27920865e-09
2.274323389e-09
2.267595892e-09
2.25843815e-09
2.245187391e-09
2.225365847e-09
2.196420971e-09
2.156221333e-09
2.103295323e-09
2.036425967e-09
1.954108902e-09
1.854003118e-09
1.732852668e-09
1.586758652e-09
1.41171359e-09
1.204034969e-09
9.607280435e-10
6.796830722e-10
3.599714823e-10
2.079009842e-12
-3.919396802e-10
-8.186970825e-10
-1.273916944e-09
-1.753083017e-09
-2.251749194e-09
-2.765699638e-09
-3.290760068e-09
-3.822780889e-09
-4.357857537e-09
-4.892906167e-09
-5.426785788e-09
-5.961243523e-09
-6.501897456e-09
-7.057674086e-09
-7.639738595e-09
-8.25919055e-09
-8.925869202e-09
-9.647728438e-09
-1.043147472e-08
-1.128239178e-08
-1.220307176e-08
-1.319050148e-08
-1.423289586e-08
-1.530778729e-08
-1.63827214e-08
-1.741897204e-08
-1.837703562e-08
-1.92222584e-08
-1.99286864e-08
-2.048025525e-08
-2.086986981e-08
-2.109831842e-08
-2.117544689e-08
-2.11244201e-08
-2.098765265e-08
-2.083161132e-08
-2.07481694e-08
-2.085232188e-08
-2.127814867e-08
-2.21758167e-08
-2.371133458e-08
-2.606848081e-08
-2.945070758e-08
-3.408135585e-08
-4.020259816e-08
-4.807463039e-08
-5.797655057e-08
-7.020785718e-08
-8.508838104e-08
-1.029542094e-07
-1.241512571e-07
-1.490309242e-07
-1.77951369e-07
-2.112795766e-07
-2.493885642e-07
-2.926500754e-07
-3.414285376e-07
-3.960593093e-07
-4.568456823e-07
-5.239383954e-07
-5.979403067e-07
-6.828432165e-07
-8.151592239e-07
-4.652757457e-07
-0.005413937781
0
0
0
0
0
0
0
0
0
0
0
0
0
0
0
0
0
0
0
0
0
0
0
0
0
0
0
0
0
0
0
0
0
0
0
0
0
0
0
0
0
0
0
0
0
0
0
0
0
0
0
0
0
0
0
0
0
0
0
0
0
0
0
0
0
0
0
0
0
0
0
0
0
0
0
0
0
0
0
0
0
0
0
0
0
0
0
0
0
0
0
0
0
0
0
0
0
0
0
0
0
0
0
0
0
0
0
0
0
0
0
0
0
0
0
0
0
0
0
2.843979346e-09
5.926818725e-09
5.636570894e-09
5.476617123e-09
5.151133447e-09
4.835647418e-09
4.534392194e-09
4.248860312e-09
3.98064536e-09
3.731204673e-09
3.501792e-09
3.29328777e-09
3.106201188e-09
2.940665184e-09
2.796350807e-09
2.672495798e-09
2.567818471e-09
2.480704112e-09
2.409321404e-09
2.351850171e-09
2.306648986e-09
2.272264268e-09
2.247340275e-09
2.230461991e-09
2.220179592e-09
2.21507797e-09
2.21396024e-09
2.215991229e-09
2.220597681e-09
2.227241597e-09
2.235096475e-09
2.242949776e-09
2.249278347e-09
2.252729479e-09
2.252494884e-09
2.248580991e-09
2.241484772e-09
2.231658452e-09
2.218670766e-09
2.200914383e-09
2.175653115e-09
2.139726638e-09
2.09021331e-09
2.024894362e-09
1.941990429e-09
1.839593303e-09
1.714906334e-09
1.563977514e-09
1.381860824e-09
1.16328156e-09
9.032721335e-10
5.977312521e-10
2.436634389e-10
-1.605340861e-10
-6.148063028e-10
-1.117084599e-09
-1.663198569e-09
-2.247005901e-09
-2.860937426e-09
-3.496439743e-09
-4.144431239e-09
-4.795504451e-09
-5.440207254e-09
-6.069593796e-09
-6.67588483e-09
-7.253786471e-09
-7.801536852e-09
-8.322433952e-09
-8.824918679e-09
-9.322180768e-09
-9.829909498e-09
-1.03645393e-08
-1.094184936e-08
-1.157706146e-08
-1.22849167e-08
-1.307868287e-08
-1.396730388e-08
-1.4951173e-08
-1.60181776e-08
-1.714166419e-08
-1.828169879e-08
-1.938934697e-08
-2.04128863e-08
-2.130430569e-08
-2.202436505e-08
-2.254520447e-08
-2.284985683e-08
-2.293156143e-08
-2.279541724e-08
-2.246456049e-08
-2.198740741e-08
-2.144273141e-08
-2.093904273e-08
-2.060961936e-08
-2.060599044e-08
-2.109459484e-08
-2.225802795e-08
-2.429872194e-08
-2.744046816e-08
-3.192578429e-08
-3.801109191e-08
-4.596337683e-08
-5.606053182e-08
-6.859440146e-08
-8.387306797e-08
-1.022192528e-07
-1.239654568e-07
-1.494509548e-07
-1.790238197e-07
-2.130445063e-07
-2.518837969e-07
-2.959176042e-07
-3.455171206e-07
-4.010394279e-07
-4.627813425e-07
-5.309848214e-07
-6.060808513e-07
-6.926880325e-07
-8.269592618e-07
-4.722143578e-07
-0.005509685446
0
0
0
0
0
0
0
0
0
0
0
0
0
0
0
0
0
0
0
0
0
0
0
0
0
0
0
0
0
0
0
0
0
0
0
0
0
0
0
0
0
0
0
0
0
0
0
0
0
0
0
0
0
0
0
0
0
0
0
0
0
0
0
0
0
0
0
0
0
0
0
0
0
0
0
0
0
0
0
0
0
0
0
0
0
0
0
0
0
0
0
0
0
0
0
0
0
0
0
0
0
0
0
0
0
0
0
0
0
0
0
0
0
0
0
0
0
0
0
2.832410236e-09
5.902222953e-09
5.612877089e-09
5.453467195e-09
5.129348985e-09
4.815258409e-09
4.515320617e-09
4.231030962e-09
3.963895509e-09
3.715360679e-09
3.48661977e-09
3.278579716e-09
3.091774777e-09
2.926348446e-09
2.781984592e-09
2.65787949e-09
2.552768369e-09
2.465010185e-09
2.39287871e-09
2.334640547e-09
2.288800505e-09
2.253917208e-09
2.22859309e-09
2.211335162e-09
2.200638144e-09
2.195098049e-09
2.193620394e-09
2.195431065e-09
2.199895031e-09
2.206227163e-09
2.213277565e-09
2.219478105e-09
2.223218985e-09
2.223250098e-09