/*--------------------------------*- C++ -*----------------------------------*\
  =========                 |
  \\      /  F ield         | OpenFOAM: The Open Source CFD Toolbox
   \\    /   O peration     | Website:  https://openfoam.org
    \\  /    A nd           | Version:  6
     \\/     M anipulation  |
\*---------------------------------------------------------------------------*/
FoamFile
{
    version     2.0;
    format      ascii;
    class       volVectorField;
    location    "0.0023";
    object      Marangoni;
}
// * * * * * * * * * * * * * * * * * * * * * * * * * * * * * * * * * * * * * //

dimensions      [1 -2 -2 0 0 0 0];

internalField   nonuniform List<vector> 
600
(
(-0 0 0)
(-0 0 0)
(-0 0 0)
(-0 0 0)
(-0 0 0)
(-0 0 0)
(-0 0 0)
(-0 0 0)
(-0 0 0)
(-0 0 0)
(-0 0 0)
(-0 0 -0)
(-0 0 -0)
(-0 0 -0)
(-0 0 -0)
(-0 0 -0)
(-0 3.417230516e-07 3.417230235e-07)
(-0 6.654047975e-07 6.654047938e-07)
(-0 1.013993728e-06 8.400289229e-14)
(-0 0 0)
(-0 -0 0)
(-0 -0 0)
(-0 -0 0)
(-0 -4.944569203e-23 5.85012768e-22)
(-0 -0 0)
(-0 -0 0)
(-0 -1.127271149e-06 8.296400062e-14)
(-0 -5.232981387e-07 5.232981491e-07)
(-0 -1.810697619e-06 1.810697365e-06)
(-0 -1.772609114e-13 -4.294393499e-06)
(-0 0 0)
(-0 0 0)
(-0 0 0)
(-0 0 0)
(-0 0 0)
(-0 0 0)
(-0 0 0)
(-0 0 0)
(-0 0 0)
(-0 0 0)
(-0 0 0)
(-0 0 0)
(-0 0 -0)
(-0 0 -0)
(-0 0 -0)
(-0 0 -0)
(-0 0 -0)
(-0 2.308072134e-06 1.431223278e-14)
(-0 3.55771991e-06 3.557719843e-06)
(-0 2.026030472e-06 2.026030547e-06)
(-0 -1.923929459e-06 5.72389421e-14)
(-0 -1.323594858e-06 4.607335251e-14)
(-0 -5.786082067e-07 3.850892168e-14)
(-0 1.73167945e-07 4.399806631e-14)
(-0 8.62123368e-07 5.218183649e-14)
(-0 -2.155604259e-06 2.15560431e-06)
(-0 -3.339657959e-06 3.339657894e-06)
(-0 -3.880162634e-06 -4.390316754e-15)
(-0 -0 -0)
(-0 -1.286577576e-13 -1.003273465e-06)
(-0 0 0)
(-0 0 0)
(-0 0 0)
(-0 0 0)
(-0 0 0)
(-0 0 0)
(-0 0 0)
(-0 0 0)
(-0 0 0)
(-0 0 0)
(-0 0 0)
(-0 0 0)
(-0 0 0)
(-0 0 0)
(-0 0 0)
(-0 0 0)
(-0 0 0)
(-0 0 0)
(-0 0 0)
(-0 2.179866906e-21 1.419524108e-22)
(-0 -6.193693676e-21 8.323121714e-23)
(-0 -0 0)
(-0 -2.242294753e-21 1.747979711e-22)
(-0 0 0)
(-0 1.980683052e-21 1.829206848e-22)
(-0 -3.618545013e-21 4.372786908e-22)
(-0 -0 0)
(-0 -0 0)
(-0 -0 0)
(-0 -1.195324923e-13 6.124842288e-08)
(-0 0 0)
(-0 0 0)
(-0 0 0)
(-0 0 0)
(-0 0 0)
(-0 0 0)
(-0 0 0)
(-0 0 0)
(-0 0 0)
(-0 0 0)
(-0 0 0)
(-0 0 0)
(-0 0 0)
(-0 0 0)
(-0 0 0)
(-0 0 0)
(-0 0 0)
(-0 2.3149331e-06 -1.279135514e-14)
(-0 3.509003405e-06 -3.509003337e-06)
(-0 1.960435013e-06 -1.960435085e-06)
(-0 -1.916353808e-06 -5.369022743e-14)
(-0 -1.305370415e-06 -4.18828226e-14)
(-0 -5.508069972e-07 -3.368406857e-14)
(-0 2.109032628e-07 -3.851391634e-14)
(-0 9.120083146e-07 -4.596596695e-14)
(-0 -1.943808749e-06 -1.943808797e-06)
(-0 -3.059032699e-06 -3.05903263e-06)
(-0 -3.904819234e-06 1.358051333e-14)
(-0 -0 0)
(-0 -1.318493529e-13 1.13248834e-06)
(-0 0 0)
(-0 0 0)
(-0 0 0)
(-0 0 0)
(-0 0 0)
(-0 0 0)
(-0 0 0)
(-0 0 0)
(-0 0 0)
(-0 0 0)
(-0 0 0)
(-0 0 0)
(-0 0 0)
(-0 0 0)
(-0 0 0)
(-0 0 0)
(-0 3.141305086e-07 -3.141304797e-07)
(-0 6.308383154e-07 -6.308383101e-07)
(-0 1.05151464e-06 -8.106103014e-14)
(-0 0 -0)
(-0 -0 -0)
(-0 -0 -0)
(-0 -0 -0)
(-0 -0 -0)
(-0 -0 -0)
(-0 -0 -0)
(-0 -1.068381184e-06 -7.835391801e-14)
(-0 -4.551253531e-07 -4.551253632e-07)
(-0 -1.791898308e-06 -1.791898045e-06)
(-0 -1.828049974e-13 4.496792021e-06)
(-0 0 0)
(-0 0 0)
(-0 0 0)
(-0 0 0)
(-0 0 0)
(-0 0 0)
(-0 0 0)
(-0 0 0)
(-0 0 0)
(-0 0 0)
(-0 0 0)
(-0 0 0)
(-0 0 0)
(-0 0 0)
(-0 0 0)
(-0 3.099943221e-14 5.64671868e-07)
(-0 -7.05985096e-08 7.059849843e-08)
(-0 -0 -0)
(-0 0 -0)
(-0 -0 -0)
(-0 -0 -0)
(-0 -0 -0)
(-0 -0 -0)
(-0 -0 -0)
(-0 -0 -0)
(-0 -0 -0)
(-0 -0 -0)
(-0 0 -0)
(-0 -2.042100877e-06 -2.042100912e-06)
(-0 -1.046614243e-14 4.835061323e-15)
(-0 0 0)
(-0 0 0)
(-0 0 0)
(-0 0 0)
(-0 0 0)
(-0 0 0)
(-0 0 0)
(-0 0 0)
(-0 0 0)
(-0 0 0)
(-0 0 0)
(-0 0 0)
(-0 0 0)
(-0 0 0)
(-0 0 0)
(-0 2.166974957e-07 -2.166974709e-07)
(-0 -2.282814873e-14 -4.782665659e-07)
(-0 -0 -0)
(-0 -0 -0)
(-0 -0 -0)
(-0 -0 -0)
(-0 -0 -0)
(-0 -0 -0)
(-0 -0 -0)
(-0 -0 -0)
(-0 -0 -0)
(-0 -0 -0)
(-0 -0 -0)
(-0 -6.464354352e-14 -3.445777678e-06)
(-0 -2.671346043e-06 -1.023858579e-13)
(-0 0 0)
(-0 0 0)
(-0 0 0)
(-0 0 0)
(-0 0 0)
(-0 0 0)
(-0 0 0)
(-0 0 0)
(-0 0 0)
(-0 0 0)
(-0 0 0)
(-0 0 0)
(-0 0 0)
(-0 0 0)
(-0 5.099560199e-14 7.589944598e-08)
(-0 -9.116659324e-08 9.116655011e-08)
(-0 -0 -0)
(-0 -0 -0)
(-0 -0 -0)
(-0 -0 -0)
(-0 -0 -0)
(-0 -0 -0)
(-0 -0 -0)
(-0 -0 -0)
(-0 -0 -0)
(-0 -0 -0)
(-0 -0 -0)
(-0 -0 -0)
(-0 -0 -0)
(-0 -1.891840144e-06 -3.663841702e-14)
(-0 0 0)
(-0 0 0)
(-0 0 0)
(-0 0 0)
(-0 0 0)
(-0 0 0)
(-0 0 0)
(-0 0 0)
(-0 0 0)
(-0 0 0)
(-0 0 0)
(-0 0 0)
(-0 0 0)
(-0 0 -0)
(-0 3.132158864e-14 -6.973172272e-07)
(-0 -1.424730212e-14 -6.975316324e-07)
(-0 -0 -0)
(-0 -0 -0)
(-0 -0 -0)
(-0 -0 -0)
(-0 -0 -0)
(-0 -0 -0)
(-0 -0 -0)
(-0 -0 -0)
(-0 -0 -0)
(-0 -0 -0)
(-0 -0 -0)
(-0 -0 -0)
(-0 -0 -0)
(-0 -0 -0)
(-0 0 0)
(-0 0 0)
(-0 0 0)
(-0 0 0)
(-0 0 0)
(-0 0 0)
(-0 0 0)
(-0 0 0)
(-0 0 0)
(-0 0 0)
(-0 0 0)
(-0 0 0)
(-0 0 0)
(-0 0 -0)
(-0 3.143646613e-14 -2.144052147e-08)
(-0 -1.837539857e-14 -2.144052147e-08)
(-0 -0 -0)
(-0 -0 -0)
(-0 -0 -0)
(-0 -0 -0)
(-0 -0 -0)
(-0 -0 -0)
(-0 -0 -0)
(-0 -0 -0)
(-0 -0 -0)
(-0 -0 -0)
(-0 -0 -0)
(-0 -0 -0)
(-0 -0 -0)
(-0 -0 -0)
(-0 0 0)
(-0 0 0)
(-0 0 0)
(-0 0 0)
(-0 0 0)
(-0 0 0)
(-0 0 0)
(-0 0 0)
(-0 0 0)
(-0 0 0)
(-0 0 0)
(-0 0 0)
(-0 0 0)
(-0 0 0)
(-0 3.120920855e-14 3.952202792e-08)
(-0 -1.835042522e-14 3.945055951e-08)
(-0 -0 0)
(-0 -0 0)
(-0 -0 0)
(-0 -0 0)
(-0 -0 0)
(-0 -0 0)
(-0 -0 0)
(-0 -0 0)
(-0 -0 0)
(-0 -0 0)
(-0 -0 0)
(-0 -0 0)
(-0 -0 0)
(-0 -0 0)
(-0 0 0)
(-0 0 0)
(-0 0 0)
(-0 0 0)
(-0 0 0)
(-0 0 0)
(-0 0 0)
(-0 0 0)
(-0 0 0)
(-0 0 0)
(-0 0 0)
(-0 0 0)
(-0 0 0)
(-0 0 0)
(-0 3.057738236e-14 7.138978971e-07)
(-0 -1.415989531e-14 7.141837707e-07)
(-0 -0 0)
(-0 -0 0)
(-0 -0 0)
(-0 -0 0)
(-0 -0 0)
(-0 -0 0)
(-0 -0 0)
(-0 -0 0)
(-0 -0 0)
(-0 -0 0)
(-0 -0 0)
(-0 -0 0)
(-0 -0 0)
(-0 -0 0)
(-0 0 0)
(-0 0 0)
(-0 0 0)
(-0 0 0)
(-0 0 0)
(-0 0 0)
(-0 0 0)
(-0 0 0)
(-0 0 0)
(-0 0 0)
(-0 0 -0)
(-0 0 -0)
(-0 0 -0)
(-0 0 -0)
(-0 4.946972956e-14 -1.600892269e-08)
(-0 -7.534889e-08 -7.534884648e-08)
(-0 -0 0)
(-0 -0 0)
(-0 -0 0)
(-0 -0 0)
(-0 -0 0)
(-0 -0 0)
(-0 -0 0)
(-0 -0 0)
(-0 -0 0)
(-0 -0 0)
(-0 -0 0)
(-0 -0 0)
(-0 -0 0)
(-0 -1.895199159e-06 3.757491791e-14)
(-0 0 0)
(-0 0 0)
(-0 0 0)
(-0 0 0)
(-0 0 0)
(-0 0 0)
(-0 0 0)
(-0 0 0)
(-0 0 0)
(-0 0 -0)
(-0 0 -0)
(-0 0 -0)
(-0 0 -0)
(-0 0 -0)
(-0 0 -0)
(-0 2.143223123e-07 2.143222898e-07)
(-0 -2.21813387e-14 5.034949128e-07)
(-0 -0 0)
(-0 -0 0)
(-0 -0 0)
(-0 -0 0)
(-0 -0 0)
(-0 -0 0)
(-0 -0 0)
(-0 -0 0)
(-0 -0 0)
(-0 -0 0)
(-0 -0 0)
(-0 -6.521043879e-14 3.477438181e-06)
(-0 -2.67241807e-06 1.037851038e-13)
(-0 0 -0)
(-0 0 -0)
(-0 0 0)
(-0 0 0)
(-0 0 0)
(-0 0 0)
(-0 0 0)
(-0 0 0)
(-0 0 0)
(-0 0 -0)
(-0 0 -0)
(-0 0 -0)
(-0 0 -0)
(-0 0 -0)
(-0 0 -0)
(-0 2.827483858e-14 -4.373866387e-07)
(-0 -4.341025275e-08 -4.341024109e-08)
(-0 -0 0)
(-0 0 0)
(-0 -0 0)
(-0 -0 0)
(-0 -0 0)
(-0 -0 0)
(-0 -0 0)
(-0 -0 0)
(-0 -0 0)
(-0 -0 0)
(-0 0 0)
(-0 -2.073584676e-06 2.073584712e-06)
(-0 -1.04472387e-14 -4.679821584e-15)
(-0 0 -0)
(-0 0 -0)
(-0 0 -0)
(-0 0 -0)
(-0 0 -0)
(-0 0 0)
(-0 0 0)
(-0 0 0)
(-0 0 0)
(-0 0 0)
(-0 0 -0)
(-0 0 -0)
(-0 0 -0)
(-0 0 -0)
(-0 0 -0)
(-0 0 -0)
(-0 3.783614981e-07 3.783614779e-07)
(-0 6.704078423e-07 6.70407836e-07)
(-0 1.122339829e-06 8.376314774e-14)
(-0 0 0)
(-0 -0 0)
(-0 -0 0)
(-0 -0 0)
(-0 -0 0)
(-0 -0 0)
(-0 -0 0)
(-0 -1.12855758e-06 8.120587583e-14)
(-0 -5.014161405e-07 5.014161499e-07)
(-0 -1.855371264e-06 1.855371003e-06)
(-0 -1.824229046e-13 -4.439402892e-06)
(-0 0 -0)
(-0 0 -0)
(-0 0 -0)
(-0 0 -0)
(-0 0 -0)
(-0 0 -0)
(-0 0 0)
(-0 0 0)
(-0 0 0)
(-0 0 0)
(-0 0 0)
(-0 0 0)
(-0 0 0)
(-0 0 0)
(-0 0 -0)
(-0 0 -0)
(-0 0 0)
(-0 2.253756146e-06 2.534296611e-14)
(-0 3.820455499e-06 3.820455437e-06)
(-0 2.191888945e-06 2.191889024e-06)
(-0 -1.866040051e-06 6.149190503e-14)
(-0 -1.278998574e-06 4.928242924e-14)
(-0 -5.468762349e-07 4.084393093e-14)
(-0 1.951087453e-07 4.560385324e-14)
(-0 8.773461382e-07 5.3195755e-14)
(-0 -2.151763538e-06 2.151763591e-06)
(-0 -3.32667026e-06 3.326670195e-06)
(-0 -3.935693585e-06 -4.75243047e-15)
(-0 -0 -0)
(-0 -1.326110406e-13 -1.059304694e-06)
(-0 0 -0)
(-0 0 -0)
(-0 0 -0)
(-0 0 -0)
(-0 0 -0)
(-0 0 -0)
(-0 0 -0)
(-0 0 0)
(-0 0 0)
(-0 0 0)
(-0 0 0)
(-0 0 0)
(-0 0 0)
(-0 0 0)
(-0 0 0)
(-0 0 0)
(-0 0 0)
(-0 0 0)
(-0 0 0)
(-0 8.252181004e-22 7.367904741e-22)
(-0 -6.393365242e-21 9.404613216e-22)
(-0 -2.113058463e-21 3.94944806e-22)
(-0 -7.059489896e-23 2.713483115e-23)
(-0 3.153315663e-22 3.487269172e-22)
(-0 7.590924654e-22 1.663560232e-22)
(-0 -6.872029003e-22 1.446126884e-22)
(-0 -0 0)
(-0 -0 0)
(-0 -0 0)
(-0 -1.234907691e-13 3.702063367e-08)
(-0 0 -0)
(-0 0 -0)
(-0 0 -0)
(-0 0 -0)
(-0 0 -0)
(-0 0 -0)
(-0 0 -0)
(-0 0 0)
(-0 0 0)
(-0 0 0)
(-0 0 0)
(-0 0 0)
(-0 0 0)
(-0 0 0)
(-0 0 0)
(-0 0 0)
(-0 0 0)
(-0 2.275125199e-06 -1.241176009e-15)
(-0 3.145701586e-06 -3.145701515e-06)
(-0 1.722259819e-06 -1.722259887e-06)
(-0 -1.951087453e-06 -4.709476295e-14)
(-0 -1.341104617e-06 -3.668336908e-14)
(-0 -5.909722408e-07 -2.960342137e-14)
(-0 1.680222199e-07 -3.534729425e-14)
(-0 8.708425134e-07 -4.355354045e-14)
(-0 -1.924655684e-06 -1.92465573e-06)
(-0 -3.050492151e-06 -3.050492079e-06)
(-0 -4.020312176e-06 1.513385637e-14)
(-0 -0 0)
(-0 -1.36784089e-13 1.137705534e-06)
(-0 0 -0)
(-0 0 -0)
(-0 0 -0)
(-0 0 -0)
(-0 0 -0)
(-0 0 -0)
(-0 0 -0)
(-0 0 -0)
(-0 0 0)
(-0 0 0)
(-0 0 0)
(-0 0 0)
(-0 0 0)
(-0 0 0)
(-0 0 0)
(-0 0 0)
(-0 1.787451211e-07 -1.787450843e-07)
(-0 5.041450796e-07 -5.041450763e-07)
(-0 9.155102657e-07 -7.591152358e-14)
(-0 0 -0)
(-0 -0 -0)
(-0 -0 -0)
(-0 -0 -0)
(-0 -0 -0)
(-0 -0 -0)
(-0 -0 -0)
(-0 -1.103114828e-06 -7.83863836e-14)
(-0 -4.895907649e-07 -4.89590774e-07)
(-0 -1.917378689e-06 -1.917378416e-06)
(-0 -1.898999283e-13 4.611284405e-06)
)
;

boundaryField
{
    lowerWall
    {
        type            calculated;
        value           nonuniform 0();
    }
    atmosphere
    {
        type            calculated;
        value           uniform (-0 -0 0);
    }
    rightWall
    {
        type            empty;
    }
    leftWall
    {
        type            empty;
    }
    frontAndBack
    {
        type            calculated;
        value           nonuniform 0();
    }
    procBoundary2to0
    {
        type            processor;
        value           nonuniform List<vector> 
30
(
(-0 0 0)
(-0 0 0)
(-0 0 0)
(-0 0 0)
(-0 0 0)
(-0 0 0)
(-0 0 0)
(-0 0 0)
(-0 0 0)
(-0 0 0)
(-0 0 0)
(-0 0 -0)
(-0 0 -0)
(-0 0 -0)
(-0 0 -0)
(-0 3.258773803e-14 -4.974915673e-07)
(-0 -6.003653003e-08 -6.003651617e-08)
(-0 -0 0)
(-0 0 0)
(-0 -0 0)
(-0 -0 0)
(-0 -0 0)
(-0 -0 0)
(-0 -0 0)
(-0 -0 0)
(-0 -0 0)
(-0 -0 0)
(-0 0 0)
(-0 -2.070047169e-06 2.070047209e-06)
(-0 -1.017659572e-14 -4.119795287e-15)
)
;
    }
    procBoundary2to3
    {
        type            processor;
        value           nonuniform List<vector> 
20
(
(-0 -3.071223839e-14 -2.562213764e-06)
(-0 -1.672965401e-14 -1.002701713e-06)
(-0 -1.34681332e-14 6.124842261e-08)
(-0 -1.688199149e-14 1.131988056e-06)
(-0 -3.112180152e-14 2.715156149e-06)
(-0 -1.385247321e-13 6.142709362e-07)
(-0 -7.649589965e-14 -1.772416428e-06)
(-0 -0 -0)
(-0 -0 -0)
(-0 -0 -0)
(-0 -0 0)
(-0 -0 0)
(-0 -0 0)
(-0 -7.636104329e-14 1.813725165e-06)
(-0 -1.38584668e-13 -5.691029046e-07)
(-0 -3.126414956e-14 -2.661054567e-06)
(-0 -1.706429704e-14 -1.05880441e-06)
(-0 -1.374783475e-14 3.70206335e-08)
(-0 -1.721663451e-14 1.136990845e-06)
(-0 -3.165373406e-14 2.75453524e-06)
)
;
    }
    procBoundary2to4
    {
        type            processor;
        value           nonuniform List<vector> 
30
(
(-0 0 -0)
(-0 0 -0)
(-0 0 -0)
(-0 0 -0)
(-0 0 -0)
(-0 0 -0)
(-0 0 -0)
(-0 0 -0)
(-0 0 0)
(-0 0 0)
(-0 0 0)
(-0 0 0)
(-0 0 0)
(-0 0 0)
(-0 0 0)
(-0 3.314963864e-14 8.629095221e-07)
(-0 -2.029012162e-07 2.029012084e-07)
(-0 -0 -0)
(-0 -7.413306789e-24 -3.1520742e-22)
(-0 -0 -0)
(-0 -0 -0)
(-0 -0 -0)
(-0 -0 -0)
(-0 -9.858988623e-23 -4.503140495e-22)
(-0 -0 -0)
(-0 -0 -0)
(-0 -0 -0)
(-0 1.932602969e-22 -3.932422283e-22)
(-0 -2.135339419e-06 -2.13533945e-06)
(-0 -1.090755329e-14 5.193970975e-15)
)
;
    }
}


// ************************************************************************* //
