/*--------------------------------*- C++ -*----------------------------------*\
  =========                 |
  \\      /  F ield         | OpenFOAM: The Open Source CFD Toolbox
   \\    /   O peration     | Website:  https://openfoam.org
    \\  /    A nd           | Version:  6
     \\/     M anipulation  |
\*---------------------------------------------------------------------------*/
FoamFile
{
    version     2.0;
    format      ascii;
    class       surfaceScalarField;
    location    "0.0023";
    object      phi;
}
// * * * * * * * * * * * * * * * * * * * * * * * * * * * * * * * * * * * * * //

dimensions      [0 3 -1 0 0 0 0];

internalField   nonuniform List<scalar> 
1150
(
-4.830783264e-19
-1.356259045e-19
-5.125164424e-19
-1.623106195e-19
-5.649042657e-19
-2.089652605e-19
-6.451950672e-19
-2.712875023e-19
-7.601861274e-19
-3.472822026e-19
-9.190099495e-19
-4.368089964e-19
-1.132931825e-18
-5.409633317e-19
-1.414351242e-18
-6.611922982e-19
-1.774089731e-18
-7.979285046e-19
-2.215498169e-18
-9.48474887e-19
-2.722090279e-18
-1.104117599e-18
-3.232358793e-18
-1.247490241e-18
-3.590752757e-18
-1.354969932e-18
-3.484770387e-18
-1.417396946e-18
-2.589562171e-18
-1.50711139e-18
-4.512736243e-19
-1.804961491e-18
1.868459531e-19
-1.502424864e-18
1.297525123e-19
1.81385166e-20
1.290073179e-19
1.507336024e-20
4.748976704e-20
1.506056246e-19
1.496528607e-20
1.045090585e-19
-4.838965296e-21
8.550240569e-20
-1.502077822e-20
6.697157917e-20
-3.495069349e-20
7.065588743e-20
-6.365493336e-20
6.758969518e-20
-1.243882111e-19
7.327537447e-20
-5.807173082e-20
-1.338319036e-19
1.683205816e-20
-2.024475286e-19
-2.532911435e-19
8.487157449e-19
2.532911433e-19
-5.561472867e-19
-1.007545185e-19
-5.884769006e-19
-1.179285021e-19
-6.462093839e-19
-1.471172177e-19
-7.351890105e-19
-1.842231317e-19
-8.634660181e-19
-2.262433041e-19
-1.04191292e-18
-2.710827819e-19
-1.284102311e-18
-3.172583728e-19
-1.605339459e-18
-3.635625842e-19
-2.019983706e-18
-4.086388489e-19
-2.536206434e-18
-4.505493637e-19
-3.147077164e-18
-4.865237244e-19
-3.818214082e-18
-5.1390633e-19
-4.475642285e-18
-5.349232196e-19
-5.009741461e-18
-5.708845594e-19
-5.277417912e-18
-6.900628071e-19
-5.092515129e-18
-1.003937043e-18
-2.95341626e-18
-1.283767058e-18
5.321803793e-32
-4.019268292e-19
2.154910131e-19
-5.134848953e-19
1.393200721e-21
3.64708947e-19
-4.041366761e-21
1.09943331e-19
-2.336979173e-20
1.048426767e-19
-1.133647006e-20
5.494026189e-20
-3.801688574e-20
9.732536201e-20
-5.796925396e-20
8.75628783e-20
-2.824469198e-19
2.977530403e-19
-5.746588841e-32
-1.002672424e-18
-5.92866622e-19
-1.58723602e-19
-4.707737182e-19
6.658250678e-19
-1.678778363e-33
-6.056251824e-19
-6.476035104e-20
-6.380655646e-19
-7.258166201e-20
-6.959979239e-19
-8.446908633e-20
-7.854556519e-19
-9.634932767e-20
-9.14812895e-19
-1.040629057e-19
-1.095443715e-18
-1.033747272e-19
-1.341711286e-18
-8.997541885e-20
-1.670116355e-18
-5.962087885e-20
-2.096992324e-18
-8.597050392e-21
-2.6342744e-18
6.53775634e-20
-3.283869997e-18
1.618900059e-19
-4.034265169e-18
2.771293253e-19
-4.870089578e-18
4.066177334e-19
-5.815106283e-18
5.575333231e-19
-7.000211225e-18
7.771915677e-19
-8.703307933e-18
1.157403947e-18
-1.071236117e-17
1.443783206e-18
-1.052327168e-17
4.468263618e-19
-8.50221667e-18
5.966525411e-19
-4.924520148e-19
-3.612743643e-19
-2.774701736e-19
-1.050496011e-19
-7.32722063e-20
-9.934617784e-20
3.104862993e-20
-4.938310201e-20
2.205487832e-19
-9.213912378e-20
3.913005077e-19
-8.318589255e-20
5.430579641e-18
-2.948191725e-19
2.401498411e-18
1.220276977e-18
1.115886578e-18
2.210406926e-19
9.493924661e-19
-5.581146124e-19
2.797119346e-33
-6.317008993e-19
-3.13978776e-20
-6.613287111e-19
-3.088152468e-20
-7.140628452e-19
-2.733639958e-20
-7.954088467e-19
-1.67072177e-20
-9.130379451e-19
6.206681003e-21
-1.077457967e-18
4.756239088e-20
-1.302029396e-18
1.14249627e-19
-1.602178321e-18
2.13307669e-19
-1.993016687e-18
3.506040107e-19
-2.484407059e-18
5.283270667e-19
-3.072375719e-18
7.41084118e-19
-3.726741593e-18
9.71506356e-19
-4.378515512e-18
1.19001698e-18
-4.921380802e-18
1.37227447e-18
-5.209384364e-18
1.562551994e-18
-5.037807472e-18
1.898400837e-18
-2.920498326e-18
1.589356762e-18
5.521401543e-32
-1.45901498e-20
2.189255958e-19
-9.01287824e-21
2.852347967e-21
-1.452329869e-19
-3.438597869e-21
-9.876280676e-20
-2.330913065e-20
-7.9467327e-20
-1.170739173e-20
-6.096235148e-20
-3.882613821e-20
-6.501146442e-20
-5.941237189e-20
-6.254992663e-20
-2.853807876e-19
-6.883567385e-20
-5.929589023e-32
1.386272228e-19
-5.988855283e-19
2.05144455e-19
-4.347794595e-19
-8.260714982e-19
-2.528460759e-19
-6.367479441e-19
-3.794219964e-21
-6.609538479e-19
3.24141729e-21
-7.036761126e-19
1.876947209e-20
-7.692276184e-19
4.67081303e-20
-8.636345742e-19
9.291104037e-20
-9.952524566e-19
1.648625725e-19
-1.174826184e-18
2.712967921e-19
-1.414874365e-18
4.213099618e-19
-1.727563103e-18
6.223591469e-19
-2.119497257e-18
8.762355964e-19
-2.580053116e-18
1.171640099e-18
-3.056627262e-18
1.471392211e-18
-3.405440481e-18
1.693147444e-18
-3.325541578e-18
1.691620005e-18
-2.495615172e-18
1.33134589e-18
-4.287251172e-19
4.723667155e-19
1.903943199e-19
1.706178399e-19
1.322646275e-19
4.351782075e-20
1.317540563e-19
-8.527454805e-21
4.932252832e-20
-6.282290628e-20
1.585688189e-20
-6.530075826e-20
-4.804155211e-21
-5.879948333e-20
-1.575650458e-20
-4.999777732e-20
-3.636460042e-20
-4.436792532e-20
-6.569811921e-20
-3.318775446e-20
-1.269664603e-19
-7.547049531e-21
-6.017012367e-20
7.185790482e-20
1.413513174e-20
1.308534976e-19
-2.528460761e-19
1.155472497e-19
-5.076185698e-19
-6.251014561e-19
1.587128148e-20
-6.420066877e-19
2.701427055e-20
-6.712424437e-19
4.992048533e-20
-7.154317422e-19
8.814683022e-20
-7.782221775e-19
1.476014439e-19
-8.64798668e-19
2.361717428e-19
-9.820008409e-19
3.632712566e-19
-1.138148728e-18
5.388509679e-19
-1.342222053e-18
7.712422502e-19
-1.601711007e-18
1.06287815e-18
-1.917102914e-18
1.402207492e-18
-2.266881486e-18
1.748086788e-18
-2.561600294e-18
1.997688555e-18
-2.555956486e-18
1.912185234e-18
-1.192973181e-18
8.845245723e-19
-3.436662974e-20
7.481692825e-33
6.329430106e-20
7.294382131e-20
8.021935182e-20
2.657743798e-20
7.745860463e-20
-5.791255508e-21
4.684467637e-20
-3.222493786e-20
2.235815679e-20
-4.081534108e-20
3.997550718e-21
-4.043005893e-20
-1.012665249e-20
-3.585960855e-20
-2.518442953e-20
-2.928917252e-20
-4.005741424e-20
-1.828615549e-20
-4.756150583e-20
-1.312103851e-23
-1.174530907e-21
2.549826043e-20
1.112211302e-19
1.850176286e-20
3.239880543e-19
-9.718534043e-20
1.698162462e-19
-6.02520327e-19
2.660313006e-20
-6.112828858e-19
3.91824547e-20
-6.254786052e-19
6.435349775e-20
-6.45799673e-19
1.050377546e-19
-6.731326602e-19
1.664830543e-19
-7.088815898e-19
2.558544541e-19
-7.54998604e-19
3.817325664e-19
-8.140142735e-19
5.530885295e-19
-8.892368828e-19
7.772000475e-19
-9.859888207e-19
1.055846642e-18
-1.116093826e-18
1.37903612e-18
-1.309932541e-18
1.715118807e-18
-1.612768574e-18
1.993242734e-18
-1.819716566e-18
2.034612399e-18
-1.702964565e-18
1.061005576e-18
-8.811016471e-20
-1.29408524e-19
1.692791775e-20
-3.211233795e-20
4.785065848e-20
-4.363938473e-21
5.102492234e-20
-8.982967752e-21
3.825427326e-20
-1.946579725e-20
2.274343898e-20
-2.53056937e-20
8.568001041e-21
-2.624729353e-20
-3.55621642e-21
-2.372277494e-20
-1.418141254e-20
-1.864383017e-20
-2.178437985e-20
-1.066093235e-20
-2.205012443e-20
2.772403466e-22
-8.171028472e-21
1.165380859e-20
-4.465973113e-21
1.483474615e-20
-1.214025721e-19
1.978355208e-20
5.666575941e-20
-5.753934539e-19
2.86922631e-20
-5.763560756e-19
4.016579532e-20
-5.761699987e-19
6.274037718e-20
-5.736955062e-19
9.844792722e-20
-5.671873638e-19
1.512042981e-19
-5.543883799e-19
2.26390043e-19
-5.323162811e-19
3.302891012e-19
-4.96902139e-19
4.68968507e-19
-4.422300746e-19
6.459772264e-19
-3.590539598e-19
8.579566227e-19
-2.320263095e-19
1.086888529e-18
-3.790700229e-20
1.287572648e-18
1.452320488e-19
1.370109229e-18
3.022491693e-19
1.184368651e-18
2.022633072e-19
-4.72604574e-33
7.252969929e-20
3.074296229e-22
4.467631728e-20
-4.275309019e-21
4.32316292e-20
-2.935245433e-21
4.054209281e-20
-6.309509907e-21
3.241437683e-20
-1.134937573e-20
2.180183915e-20
-1.46959385e-20
1.109251959e-20
-1.553284135e-20
1.522728394e-21
-1.414253116e-20
-6.198514729e-21
-1.090691745e-20
-1.084620714e-20
-5.992189186e-21
-1.067355617e-20
1.301147274e-22
-4.990090914e-21
6.002124199e-21
4.828328512e-22
9.398858765e-21
8.071858805e-21
1.222633341e-20
1.437520546e-20
-5.498223265e-19
2.362115358e-20
-5.444538614e-19
3.194878555e-20
-5.326535268e-19
4.804596403e-20
-5.118956471e-19
7.289036165e-20
-4.784976681e-19
1.086046534e-19
-4.276430812e-19
1.580913902e-19
-3.532412817e-19
2.245348609e-19
-2.479131982e-19
3.104323258e-19
-1.029735911e-19
4.155886448e-19
9.198570328e-20
5.329767944e-19
3.513159682e-19
6.403495589e-19
6.913845956e-19
6.838122957e-19
8.885775671e-19
5.483585059e-19
9.535860844e-19
4.722512901e-20
1.392270586e-19
-1.754514419e-32
6.794696057e-20
7.157521305e-20
4.601638082e-20
1.764075416e-20
3.985736469e-20
3.207752182e-21
3.550222694e-20
-1.970235695e-21
2.906781404e-20
-4.926788317e-21
2.096493628e-20
-6.598303101e-21
1.248282975e-20
-7.049165275e-21
4.758342129e-21
-6.409867413e-21
-1.283786471e-21
-4.849322478e-21
-4.723903216e-21
-2.529298673e-21
-4.801546696e-21
2.368942727e-22
-1.593356348e-21
2.828208411e-21
3.31030751e-21
4.531728374e-21
1.022073083e-20
5.34712813e-21
4.091107217e-21
-5.307413891e-19
1.379497214e-20
-5.213715035e-19
1.772191458e-20
-5.023205884e-19
2.498763338e-20
-4.703382789e-19
3.547462448e-20
-4.208003103e-19
4.932623951e-20
-3.478145404e-19
6.672540609e-20
-2.444932871e-19
8.76491552e-20
-1.0415729e-19
1.11563946e-19
7.641757329e-20
1.370182467e-19
2.894317908e-19
1.611226072e-19
5.003194715e-19
1.789218073e-19
6.231492155e-19
1.828293072e-19
5.973294508e-19
1.622837749e-19
2.351158606e-20
1.047216323e-19
-5.752588134e-20
1.265412148e-34
1.401250174e-20
2.344672806e-23
3.158337886e-20
5.506593942e-23
3.467937684e-20
9.583052178e-23
3.254567433e-20
1.473973515e-22
2.739629928e-20
2.084713429e-22
2.051407412e-20
2.754563055e-22
1.312212761e-20
3.412161818e-22
6.318887076e-21
4.006036294e-22
1.03623733e-21
4.510356201e-22
-1.957710274e-21
4.915819455e-22
-2.210232562e-21
5.237023237e-22
1.101636125e-22
5.455774569e-22
4.125707275e-21
5.508241064e-22
8.964709911e-21
5.398253495e-22
5.087395308e-22
-5.212476001e-19
2.123437485e-21
-5.106643013e-19
1.330691203e-21
-4.895544118e-19
-7.792541599e-22
-4.546626635e-19
-5.342057316e-21
-4.013979621e-19
-1.412578302e-20
-3.23951242e-19
-2.960104784e-20
-2.155968087e-19
-5.491645655e-20
-6.996013595e-20
-9.353148674e-20
1.15645177e-19
-1.479989418e-19
3.324951701e-19
-2.168609992e-19
5.446082965e-19
-2.87471297e-19
6.639555119e-19
-3.208796205e-19
6.278576681e-19
-2.23134947e-19
3.504261028e-20
1.651452852e-19
-5.750243461e-20
1.779657183e-32
1.404412095e-20
-7.153652107e-20
3.162414344e-20
-1.75419746e-20
3.473094367e-20
-3.028823774e-21
3.260674832e-20
2.252938794e-21
2.746328424e-20
5.337840839e-21
2.0579834e-20
7.149370685e-21
1.318151505e-20
7.738211382e-21
6.369319066e-21
7.222665768e-21
1.076783656e-21
5.765144206e-21
-1.925589895e-21
3.52791081e-21
-2.188357429e-21
8.242811527e-22
1.15410262e-22
-1.725611735e-21
4.114708519e-21
-3.41350395e-21
8.933624091e-21
-4.257519177e-21
-3.065372684e-21
-5.222473487e-19
-8.455523456e-21
-5.132446663e-19
-1.335319125e-20
-4.952715437e-19
-2.357795282e-20
-4.657778069e-19
-4.108977766e-20
-4.211684955e-19
-6.925423759e-20
-3.568517443e-19
-1.128254145e-19
-2.671927872e-19
-1.778255193e-19
-1.456624104e-19
-2.709785057e-19
1.490196944e-20
-3.981537732e-19
2.223381701e-19
-5.609422481e-19
4.868767573e-19
-7.501063837e-19
8.188891888e-19
-9.343581576e-19
9.873693971e-19
-1.044456545e-18
9.91864852e-19
-9.601748732e-19
1.392891973e-19
5.157443865e-33
6.803866736e-20
-3.012888701e-22
4.613729425e-20
4.336089731e-21
4.001270621e-20
3.076046553e-21
3.569165035e-20
6.559389217e-21
2.927481406e-20
1.173854289e-20
2.116867468e-20
1.524658929e-20
1.266596945e-20
1.624327408e-20
4.911797491e-21
1.499167977e-20
-1.160449737e-21
1.186566491e-20
-4.629219547e-21
7.029394326e-21
-4.738250314e-21
9.66525877e-22
-1.57248195e-21
-4.862421975e-21
3.270693284e-21
-8.249122917e-21
1.012577058e-20
-1.109026231e-20
-1.33184575e-20
-5.324547368e-19
-1.545717877e-20
-5.273846607e-19
-2.306072005e-20
-5.169304375e-19
-3.862073128e-20
-4.998863548e-19
-6.461401374e-20
-4.746104783e-19
-1.054253483e-19
-4.391578404e-19
-1.672939561e-19
-3.912048565e-19
-2.581951936e-19
-3.279357751e-19
-3.873063516e-19
-2.456723439e-19
-5.63586561e-19
-1.38951584e-19
-7.928499721e-19
1.584871326e-21
-1.07256164e-18
1.899996102e-19
-1.383216493e-18
3.324732409e-19
-1.67229751e-18
3.849106058e-19
-1.78768546e-18
2.023315866e-19
-9.948856859e-19
7.267604604e-20
1.293402446e-19
4.487725111e-20
3.211650991e-20
4.349604891e-20
4.437389784e-21
4.087080408e-20
9.160183342e-21
3.278286047e-20
1.981567807e-20
2.216535949e-20
2.586109895e-20
1.141437517e-20
2.700244292e-20
1.785782616e-21
2.464114176e-20
-5.996720322e-21
1.967374098e-20
-1.0692088e-20
1.176065755e-20
-1.056719817e-20
8.623932802e-22
-4.959182892e-21
-1.047296842e-20
4.295538786e-22
-1.360160146e-20
7.897575419e-21
-1.853704766e-20
-5.553797955e-20
-5.487367657e-19
-1.723970438e-20
-5.491175667e-19
-2.564998646e-20
-5.490050983e-19
-4.279621948e-20
-5.489516989e-19
-7.128734753e-20
-5.499143354e-19
-1.157587729e-19
-5.536259645e-19
-1.827924312e-19
-5.62799232e-19
-2.807749576e-19
-5.814588049e-19
-4.193165556e-19
-6.156026557e-19
-6.076589204e-19
-6.750543827e-19
-8.511492029e-19
-7.786884628e-19
-1.14406445e-18
-9.673908353e-19
-1.455001907e-18
-1.30116303e-18
-1.695668296e-18
-1.593301894e-18
-1.647162363e-18
-1.625811469e-18
-7.255889299e-19
-8.789136654e-20
-6.921719412e-33
1.719813094e-20
-7.299398093e-20
4.821884247e-20
-2.660491419e-20
5.152629885e-20
5.855742142e-21
3.882828133e-20
3.248689159e-20
2.330670346e-20
4.138167012e-20
9.053074051e-21
4.127410887e-20
-3.18161821e-21
3.689828747e-20
-1.390980375e-20
3.043142743e-20
-2.159035228e-20
1.944640242e-20
-2.190255988e-20
1.197945686e-21
-8.087815937e-21
-2.425310153e-20
-4.505892348e-21
-1.715387788e-20
-1.2169558e-19
9.868776582e-20
-1.685646226e-19
-5.667716987e-19
-1.325371353e-20
-5.730389976e-19
-2.043763825e-20
-5.840483986e-19
-3.517289427e-20
-6.021747252e-19
-5.981219433e-20
-6.310514775e-19
-9.845069404e-20
-6.761433775e-19
-1.568315037e-19
-7.450651328e-19
-2.42192946e-19
-8.477504926e-19
-3.626848983e-19
-9.961326301e-19
-5.258278847e-19
-1.202631666e-18
-7.350995689e-19
-1.475430844e-18
-9.832791529e-19
-1.804414974e-18
-1.240424514e-18
-2.117031277e-18
-1.435285082e-18
-2.197174532e-18
-1.437445481e-18
-1.039829689e-18
-1.130223821e-18
-3.419799118e-20
-4.109218287e-19
6.358719765e-20
-1.707864785e-19
8.067949865e-20
-4.368244926e-20
7.815744822e-20
8.333006425e-21
4.772305974e-20
6.291198259e-20
2.319914218e-20
6.589473993e-20
4.677252696e-21
5.980687335e-20
-9.648478289e-21
5.124094319e-20
-2.489482871e-20
4.567055491e-20
-3.983880895e-20
3.446193807e-20
-4.735360703e-20
8.739705708e-21
-9.885922914e-22
-7.059917738e-20
1.113357513e-19
-1.294536527e-19
3.234442445e-19
-1.134057245e-19
5.090188076e-19
-5.819049331e-19
-4.081563327e-21
-5.933731577e-19
-8.257829162e-21
-6.141757695e-19
-1.708782523e-20
-6.482355624e-19
-3.235306048e-20
-7.014303526e-19
-5.694942715e-20
-7.822929593e-19
-9.482893458e-20
-9.022944015e-19
-1.508802494e-19
-1.075619613e-18
-2.305558115e-19
-1.317543035e-18
-3.38868186e-19
-1.639829012e-18
-4.784097817e-19
-2.039612687e-18
-6.460967131e-19
-2.475167049e-18
-8.29560554e-19
-2.816710364e-18
-1.007575479e-18
-2.782106574e-18
-1.167863419e-18
-2.085190314e-18
-1.369206047e-18
-2.386909209e-19
-1.767514636e-18
1.906912265e-19
-1.513551102e-18
1.326949544e-19
1.429324316e-20
1.327364246e-19
8.285644636e-21
5.070581705e-20
1.448975701e-19
1.711127564e-20
9.947318937e-20
-3.888677378e-21
8.081304908e-20
-1.521886666e-20
6.257117344e-20
-3.610344558e-20
6.662564588e-20
-6.556104136e-20
6.395298842e-20
-1.266924902e-19
6.988460438e-20
-5.98430676e-20
-1.374438652e-19
1.499143324e-20
-2.042881535e-19
-2.541311733e-19
8.448453934e-19
2.541311731e-19
-5.900380696e-19
8.716263503e-21
-6.050674789e-19
8.756442272e-21
-6.325571516e-19
8.185560669e-21
-6.774390747e-19
5.999626989e-21
-7.470644953e-19
9.147455743e-22
-8.519587418e-19
-8.611259076e-21
-1.006135628e-18
-2.437070073e-20
-1.226723221e-18
-4.831313331e-20
-1.532175544e-18
-8.229467421e-20
-1.937911381e-18
-1.275663776e-19
-2.448258615e-18
-1.841599084e-19
-3.044328625e-18
-2.510108372e-19
-3.671226353e-18
-3.29558735e-19
-4.238633438e-18
-4.365007002e-19
-4.616887276e-18
-6.308142989e-19
-4.633748945e-18
-1.009068705e-18
-2.760886558e-18
-1.323457591e-18
5.714469995e-32
-4.154094407e-19
2.202997809e-19
-5.740012772e-19
5.281436083e-21
3.599001792e-19
-1.548864652e-21
1.063070423e-19
-2.213055294e-20
1.014085543e-19
-1.116439431e-20
5.163550275e-20
-3.877610304e-20
9.426327994e-20
-5.96294253e-20
8.481224603e-20
-2.849723905e-19
2.952275696e-19
-5.958426117e-32
-1.05962191e-18
-6.728141863e-19
-1.135458363e-19
-5.205366118e-19
5.906492399e-19
-2.104020983e-33
-5.883744753e-19
2.294494634e-20
-6.047067681e-19
2.761691861e-20
-6.346135874e-19
3.61060547e-20
-6.833526541e-19
4.823972965e-20
-7.587436373e-19
6.447591672e-20
-8.719769907e-19
8.588127207e-20
-1.037943747e-18
1.140212109e-19
-1.27491657e-18
1.507570162e-19
-1.602915857e-18
1.977712211e-19
-2.040182738e-18
2.558540649e-19
-2.598089173e-18
3.240039618e-19
-3.277821644e-18
3.993487506e-19
-4.079134532e-18
4.805167269e-19
-5.040607946e-18
5.804267144e-19
-6.301967381e-18
7.535348788e-19
-8.135695674e-18
1.089086576e-18
-1.030042585e-17
1.349624452e-18
-1.018664103e-17
4.004140387e-19
-8.369507628e-18
5.856134652e-19
-4.873913004e-19
-3.598596225e-19
-2.747755051e-19
-1.062969677e-19
-7.190360433e-20
-1.014486827e-19
3.146338275e-20
-5.17193645e-20
2.201010157e-19
-9.438049397e-20
3.89865498e-19
-8.49532663e-20
5.387221736e-18
-2.953463945e-19
2.310330322e-18
1.153634534e-18
1.003701697e-18
2.677691696e-19
8.772102068e-19
-7.300682834e-19
2.477644153e-33
-5.759169066e-19
3.621527177e-20
-5.910990116e-19
4.507215558e-20
-6.187887391e-19
6.173844796e-20
-6.638253273e-19
8.675285477e-20
-7.334129074e-19
1.221517484e-19
-8.379555385e-19
1.713514236e-19
-9.91354615e-19
2.390153214e-19
-1.210733965e-18
3.30502668e-19
-1.514606022e-18
4.507294613e-19
-1.918584301e-18
6.018673384e-19
-2.427222516e-18
7.798640572e-19
-3.021904001e-18
9.704161579e-19
-3.647774058e-18
1.149280991e-18
-4.213851671e-18
1.300130199e-18
-4.589751413e-18
1.477207971e-18
-4.620279746e-18
1.837117472e-18
-2.73788691e-18
1.51318575e-18
5.476443665e-32
-1.411125438e-20
2.203403376e-19
-8.070191544e-21
5.250953948e-21
-1.447822853e-19
-1.599067615e-21
-9.944132389e-20
-2.21742863e-20
-8.086327775e-20
-1.11977466e-20
-6.26929528e-20
-3.879990929e-20
-6.677925324e-20
-5.96072299e-20
-6.412637703e-20
-2.848535657e-19
-7.008708696e-20
-5.906000686e-32
1.371876426e-19
-6.016120719e-19
2.041126043e-19
-4.881000918e-19
-8.091098945e-19
-2.543026348e-19
-5.53621629e-19
-5.654616132e-19
-5.868015491e-19
-6.213343804e-19
-6.746712347e-19
-7.55038531e-19
-8.737010605e-19
-1.044764432e-18
-1.283687704e-18
-1.602631561e-18
-1.999436752e-18
-2.433088698e-18
-2.77401436e-18
-2.739514077e-18
-2.049707635e-18
-2.023687459e-19
1.908732153e-19
1.327284187e-19
1.32676813e-19
5.05919156e-20
1.697897853e-20
-4.003961425e-21
-1.528404695e-20
-3.614703308e-20
-6.556793994e-20
-1.266274054e-19
-5.976239416e-20
1.516698245e-20
-2.54302635e-19
)
;

boundaryField
{
    lowerWall
    {
        type            calculated;
        value           nonuniform 0();
    }
    atmosphere
    {
        type            calculated;
        value           nonuniform List<scalar> 
20
(
4.738134143e-19
5.459864769e-19
5.954191955e-19
6.22351649e-19
6.290572469e-19
6.196477284e-19
5.995631006e-19
5.748311412e-19
5.512094325e-19
5.333691849e-19
5.242649984e-19
5.24801167e-19
5.338264074e-19
5.484623276e-19
5.647149695e-19
5.782711153e-19
5.853208202e-19
5.832604257e-19
5.711497325e-19
5.498579348e-19
)
;
    }
    rightWall
    {
        type            empty;
        value           nonuniform 0();
    }
    leftWall
    {
        type            empty;
        value           nonuniform 0();
    }
    frontAndBack
    {
        type            calculated;
        value           nonuniform 0();
    }
    procBoundary2to0
    {
        type            processor;
        value           nonuniform List<scalar> 
30
(
1.652719505e-19
2.009491453e-19
2.637426201e-19
3.487696447e-19
4.54659105e-19
5.827135297e-19
7.359289671e-19
9.17576085e-19
1.128990064e-18
1.365749724e-18
1.611190504e-18
1.825493694e-18
1.929581943e-18
1.792749301e-18
1.315632107e-18
4.348302336e-19
1.667459026e-19
3.892081507e-20
-1.436419971e-20
-6.910792615e-20
-7.198297533e-20
-6.568214801e-20
-5.677554234e-20
-5.072289415e-20
-3.887277421e-20
-1.247551138e-20
6.755538816e-20
1.275548129e-19
1.123400826e-19
-5.088032848e-19
)
;
    }
    procBoundary2to3
    {
        type            processor;
        value           nonuniform List<scalar> 
20
(
2.202527666e-21
1.966099217e-19
1.616186893e-19
1.966277873e-19
1.937773564e-21
-3.53426133e-19
-8.230456594e-21
5.038435989e-20
2.052675079e-20
1.256962923e-20
1.252598012e-20
2.039093339e-20
5.013381437e-20
-8.655242373e-21
-3.541321038e-19
7.573050877e-22
1.948465285e-19
1.599680525e-19
1.947543037e-19
6.689207349e-22
)
;
    }
    procBoundary2to4
    {
        type            processor;
        value           nonuniform List<scalar> 
30
(
4.642945284e-20
5.826407042e-20
8.068906949e-20
1.147299123e-19
1.634876234e-19
2.320976009e-19
3.275031145e-19
4.578194359e-19
6.305632717e-19
8.490225701e-19
1.105142782e-18
1.367099314e-18
1.56007938e-18
1.548311829e-18
1.208928842e-18
4.35110551e-19
1.710770819e-19
4.399323133e-20
-8.048951359e-21
-6.271316209e-20
-6.582992988e-20
-5.987237828e-20
-5.140747482e-20
-4.59040531e-20
-3.469600655e-20
-8.967477061e-21
7.035234299e-20
1.291891611e-19
1.13014296e-19
-5.093035228e-19
)
;
    }
}


// ************************************************************************* //
