/*--------------------------------*- C++ -*----------------------------------*\
  =========                 |
  \\      /  F ield         | OpenFOAM: The Open Source CFD Toolbox
   \\    /   O peration     | Website:  https://openfoam.org
    \\  /    A nd           | Version:  6
     \\/     M anipulation  |
\*---------------------------------------------------------------------------*/
FoamFile
{
    version     2.0;
    format      ascii;
    class       volScalarField;
    location    "0.0023";
    object      ViscousDissipation;
}
// * * * * * * * * * * * * * * * * * * * * * * * * * * * * * * * * * * * * * //

dimensions      [1 -1 -3 0 0 0 0];

internalField   nonuniform List<scalar> 
600
(
8.350629501e-20
1.559079864e-19
2.63029636e-19
4.317153914e-19
7.100462258e-19
1.176778811e-18
1.954014853e-18
3.211656875e-18
5.13668524e-18
7.805512637e-18
1.085033133e-17
1.285459881e-17
1.114957451e-17
6.662535301e-18
2.72654557e-17
7.979336595e-17
6.69398826e-17
2.261041983e-17
1.137739427e-16
4.012742193e-16
7.867314288e-17
3.1115964e-17
1.002791916e-17
2.281885123e-17
5.143572361e-17
5.013065155e-16
4.09153908e-16
1.167376957e-17
5.988695705e-18
5.772200898e-20
5.439573167e-20
1.056656234e-19
1.912437435e-19
3.383753928e-19
5.966502789e-19
1.050131663e-18
1.833988059e-18
3.144977628e-18
5.221419205e-18
8.243563495e-18
1.20981016e-17
1.605957821e-17
1.893956245e-17
2.184229207e-17
3.826036106e-17
1.239548179e-16
2.134255606e-16
2.247789786e-16
4.134178646e-16
3.508944712e-16
1.301371505e-15
2.144432839e-16
2.649722982e-17
1.257073431e-16
8.787138787e-16
1.436770233e-16
1.309379941e-16
3.566159408e-17
6.308759325e-18
7.885279691e-18
3.182410611e-20
6.604325119e-20
1.31765848e-19
2.553603629e-19
4.857917051e-19
9.083500299e-19
1.663810568e-18
2.963587694e-18
5.07901897e-18
8.265316896e-18
1.259453786e-17
1.781425078e-17
2.374273779e-17
3.232643292e-17
5.280456637e-17
1.118300388e-16
1.496171287e-16
9.473634515e-17
3.620997252e-16
5.420614328e-16
1.826591654e-19
6.2358191e-19
3.903200249e-19
4.996646825e-19
1.030795303e-19
1.661145691e-16
3.002028299e-17
1.70634359e-16
3.550738291e-17
3.887701718e-18
1.733100498e-20
3.99580233e-20
8.975942552e-20
1.911455942e-19
3.90362712e-19
7.696203007e-19
1.46672741e-18
2.69081195e-18
4.709845886e-18
7.759448877e-18
1.18133672e-17
1.627011493e-17
2.010685695e-17
2.455349874e-17
4.243610669e-17
1.277351789e-16
2.09328611e-16
2.192090147e-16
4.136050871e-16
3.558224833e-16
1.314240483e-15
2.152005406e-16
2.586927747e-17
1.279706141e-16
8.921381701e-16
1.478252457e-16
1.301591677e-16
3.425253961e-17
6.268232262e-18
7.44710044e-18
1.020688927e-20
2.6352727e-20
6.470418348e-20
1.46992643e-19
3.151103179e-19
6.447171921e-19
1.264004511e-18
2.368397476e-18
4.203980438e-18
6.951486414e-18
1.03836498e-17
1.319829083e-17
1.264744683e-17
8.988581183e-18
2.779343694e-17
7.807844701e-17
6.687562632e-17
2.331147669e-17
1.106805732e-16
4.091967357e-16
8.264785792e-17
3.314081789e-17
1.073574563e-17
2.414112741e-17
5.284892551e-17
5.020292614e-16
4.00977447e-16
1.009837305e-17
5.484288187e-18
5.830573616e-20
7.951929019e-21
2.10528697e-20
5.159885863e-20
1.183052517e-19
2.577464425e-19
5.369128501e-19
1.070786922e-18
2.038016101e-18
3.672170356e-18
6.165993181e-18
9.34102578e-18
1.183813235e-17
1.000612781e-17
2.239420925e-18
2.558680596e-17
2.490812484e-17
1.14589842e-16
2.566016725e-16
9.418460761e-17
8.425904403e-17
3.296326721e-17
1.992880844e-17
1.329159987e-17
1.652216843e-17
2.732581947e-17
8.650795959e-17
2.029781961e-16
5.604978959e-16
2.173774157e-16
1.678811276e-18
7.569457343e-21
1.900205141e-20
4.395677146e-20
9.814318284e-20
2.125471079e-19
4.446186199e-19
8.943306046e-19
1.721598156e-18
3.153888115e-18
5.457873718e-18
8.823471019e-18
1.308526248e-17
1.699665576e-17
2.314431057e-17
1.822584941e-17
2.555964921e-17
2.2383094e-16
7.047618274e-17
1.976524239e-17
1.857940098e-17
1.402907914e-17
1.118189447e-17
9.280762699e-18
9.434626553e-18
1.121421791e-17
1.515001317e-17
1.631785479e-17
8.756429141e-17
7.055533873e-17
1.634707329e-19
6.898420963e-21
1.657250088e-20
3.694969435e-20
8.103412953e-20
1.745997395e-19
3.658310026e-19
7.389219696e-19
1.429061e-18
2.631153097e-18
4.59210471e-18
7.590059981e-18
1.185988048e-17
1.695787436e-17
1.257870065e-17
9.239161319e-18
1.393705362e-16
1.41968296e-16
4.266651693e-18
2.352096098e-18
5.743291962e-18
6.610839585e-18
6.318030737e-18
5.545973323e-18
4.827365895e-18
4.280102012e-18
4.040510051e-18
3.819826711e-18
2.357935273e-18
5.198702018e-17
8.040239034e-17
5.283527402e-21
1.272474341e-20
2.905841132e-20
6.509786491e-20
1.423407022e-19
3.012057797e-19
6.11732215e-19
1.181977698e-18
2.148406684e-18
3.619049447e-18
5.569922196e-18
7.825915495e-18
1.214852967e-17
7.842398403e-18
6.633827852e-18
1.499116381e-16
4.783517324e-17
4.354355863e-18
2.02846159e-18
2.848933068e-18
3.742648509e-18
3.955367363e-18
3.440754825e-18
2.508248536e-18
1.547681771e-18
1.033150191e-18
1.197789791e-18
1.571987958e-18
2.685917268e-18
1.268398302e-17
3.318239999e-21
8.554278331e-21
2.156664822e-20
5.161098218e-20
1.172083965e-19
2.535001973e-19
5.209682719e-19
1.008094874e-18
1.801016647e-18
2.85654103e-18
3.711939015e-18
3.397713801e-18
3.119550461e-18
6.639334428e-18
1.512712765e-19
1.000235391e-16
3.829876944e-17
2.12726364e-18
4.849997708e-19
1.525979667e-18
2.614780906e-18
3.002535251e-18
2.56417538e-18
1.59303636e-18
5.886450064e-19
1.044887395e-19
3.571685474e-19
9.011412555e-19
1.291653549e-18
1.157415057e-18
1.971659163e-21
5.76746298e-21
1.659723851e-20
4.281583461e-20
1.013987518e-19
2.252076902e-19
4.720686426e-19
9.292003314e-19
1.687744407e-18
2.725272625e-18
3.622575357e-18
3.432945761e-18
3.127420927e-18
5.346926639e-18
1.488516629e-19
1.00227952e-16
3.845222519e-17
2.180714062e-18
5.084985349e-19
1.539704117e-18
2.623454351e-18
3.007517285e-18
2.565493276e-18
1.590339554e-18
5.824237339e-19
9.713282224e-20
3.505144795e-19
8.952051378e-19
1.282884461e-18
1.133928042e-18
1.732861208e-21
5.196066989e-21
1.516499741e-20
3.96899357e-20
9.54891949e-20
2.157510971e-19
4.613972441e-19
9.3327232e-19
1.773014051e-18
3.125576283e-18
5.049088718e-18
7.418461163e-18
1.154382996e-17
7.052833387e-18
6.765647945e-18
1.499651545e-16
4.789154548e-17
4.386871157e-18
2.068154205e-18
2.88718922e-18
3.771313126e-18
3.97327217e-18
3.447404915e-18
2.502074973e-18
1.529731025e-18
1.009111257e-18
1.174605674e-18
1.547508684e-18
2.651795061e-18
1.255378938e-17
2.294022282e-21
6.255883664e-21
1.644853393e-20
4.110557718e-20
9.768564021e-20
2.214408889e-19
4.789664062e-19
9.867687032e-19
1.930654902e-18
3.577919513e-18
6.279750185e-18
1.040111309e-17
1.563328234e-17
1.237234493e-17
8.369798e-18
1.391525795e-16
1.415354203e-16
4.206849035e-18
2.419400314e-18
5.823080121e-18
6.672001872e-18
6.361118999e-18
5.571146428e-18
4.830400288e-18
4.256971552e-18
3.996584052e-18
3.760897488e-18
2.301107472e-18
5.220193024e-17
8.022771344e-17
2.88697639e-21
7.541883855e-21
1.853817565e-20
4.465646987e-20
1.048117424e-19
2.374719066e-19
5.159889568e-19
1.069588901e-18
2.10345036e-18
3.897162633e-18
6.735658056e-18
1.071258951e-17
1.51824141e-17
2.405866681e-17
1.313267566e-17
2.259839167e-17
2.242290567e-16
7.091719055e-17
2.009155031e-17
1.877305699e-17
1.415161085e-17
1.127650473e-17
9.361277465e-18
9.496231075e-18
1.122739416e-17
1.507423283e-17
1.617805131e-17
8.784331199e-17
7.076279992e-17
1.637808376e-19
2.948087743e-21
7.998369227e-21
1.994692944e-20
4.833259243e-20
1.139110347e-19
2.589707093e-19
5.640946371e-19
1.169033994e-18
2.28251188e-18
4.129071704e-18
6.694978129e-18
9.013973256e-18
8.014998823e-18
1.813849606e-18
2.037853995e-17
1.94175079e-17
1.148749314e-16
2.57071399e-16
9.473824739e-17
8.444770509e-17
3.309443838e-17
2.010898588e-17
1.35080673e-17
1.677674028e-17
2.751227617e-17
8.640946499e-17
2.024856843e-16
5.596612277e-16
2.183881722e-16
1.681556597e-18
2.587705551e-21
7.747784001e-21
2.069447883e-20
5.175756195e-20
1.235169461e-19
2.820094422e-19
6.150173561e-19
1.27383502e-18
2.479783216e-18
4.457377944e-18
7.166736451e-18
9.687070805e-18
9.668941596e-18
6.833442449e-18
2.321279035e-17
6.132334321e-17
5.711537963e-17
2.345121934e-17
1.101277907e-16
4.073544067e-16
8.181049209e-17
3.336508175e-17
1.106129017e-17
2.482934523e-17
5.338395139e-17
5.013066444e-16
4.015297572e-16
1.066279057e-17
6.10605501e-18
5.775384601e-20
2.51084287e-21
7.955301564e-21
2.213115381e-20
5.600993815e-20
1.335528435e-19
3.036383329e-19
6.598232059e-19
1.364654959e-18
2.662114174e-18
4.834101591e-18
8.030822745e-18
1.197275373e-17
1.595378288e-17
2.109897467e-17
3.938146601e-17
1.226473499e-16
1.836319829e-16
2.036066738e-16
3.987963307e-16
3.465604889e-16
1.292490961e-15
2.110631818e-16
2.499979148e-17
1.265903107e-16
8.847902457e-16
1.454065432e-16
1.280996811e-16
3.471196774e-17
5.384190476e-18
8.671742064e-18
3.456764393e-21
9.847098193e-21
2.565341635e-20
6.217603627e-20
1.439488385e-19
3.209100695e-19
6.888170472e-19
1.414947544e-18
2.754779206e-18
5.024279972e-18
8.488304587e-18
1.323068651e-17
1.944742506e-17
2.935607697e-17
5.257206277e-17
1.162590793e-16
1.544882483e-16
1.02464885e-16
3.413334561e-16
5.220400169e-16
1.77152374e-19
6.122936708e-19
3.841367088e-19
4.933314542e-19
1.009975384e-19
1.626434453e-16
2.832667239e-17
1.729566887e-16
3.307608097e-17
3.116483694e-18
5.571968686e-21
1.361485971e-20
3.127432831e-20
6.976919378e-20
1.532031651e-19
3.303877399e-19
6.945876371e-19
1.407743381e-18
2.7127464e-18
4.889236105e-18
8.08305887e-18
1.200661231e-17
1.593777365e-17
2.095023674e-17
3.879986052e-17
1.208894986e-16
1.807865275e-16
2.021474336e-16
3.987781348e-16
3.462066223e-16
1.291565432e-15
2.106952014e-16
2.500849214e-17
1.267474006e-16
8.84803299e-16
1.453304118e-16
1.276916236e-16
3.300095988e-17
5.374158134e-18
7.887727173e-18
8.172215535e-21
1.800031042e-20
3.710295237e-20
7.619052297e-20
1.580092747e-19
3.28423729e-19
6.746994862e-19
1.347349483e-18
2.566188692e-18
4.551793656e-18
7.253235269e-18
9.726131434e-18
9.594370571e-18
6.623796308e-18
2.334005807e-17
6.014044882e-17
5.521224697e-17
2.354784731e-17
1.104799214e-16
4.082888834e-16
8.169461845e-17
3.318550238e-17
1.095959345e-17
2.470046639e-17
5.321486848e-17
5.008308896e-16
4.016345636e-16
1.076302836e-17
5.87620255e-18
5.778604474e-20
)
;

boundaryField
{
    lowerWall
    {
        type            calculated;
        value           nonuniform 0();
    }
    atmosphere
    {
        type            calculated;
        value           nonuniform List<scalar> 
20
(
6.030660965e-20
4.082699367e-20
2.517955003e-20
1.447124326e-20
8.48661387e-21
5.897842948e-21
4.975726446e-21
4.353460646e-21
3.453076677e-21
2.409616217e-21
1.641481041e-21
1.396787385e-21
1.558856398e-21
1.786821274e-21
1.832059306e-21
1.766472055e-21
1.940864579e-21
2.702825047e-21
4.08345953e-21
5.680589285e-21
)
;
    }
    rightWall
    {
        type            empty;
    }
    leftWall
    {
        type            empty;
    }
    frontAndBack
    {
        type            calculated;
        value           nonuniform 0();
    }
    procBoundary2to0
    {
        type            processor;
        value           nonuniform List<scalar> 
30
(
1.162863015e-19
2.110880434e-19
3.376015826e-19
5.212662307e-19
8.070117085e-19
1.265049584e-18
1.999445316e-18
3.14932185e-18
4.861627533e-18
7.186789861e-18
9.789028766e-18
1.130320798e-17
8.595794925e-18
1.633011638e-18
3.05241273e-17
2.671451233e-17
1.20823716e-16
2.659533667e-16
9.839569195e-17
8.244103316e-17
3.00185676e-17
1.764320684e-17
1.190038348e-17
1.56417746e-17
2.77579789e-17
8.986399774e-17
2.067169158e-16
5.563406155e-16
2.133259355e-16
1.686080287e-18
)
;
    }
    procBoundary2to3
    {
        type            processor;
        value           nonuniform List<scalar> 
20
(
1.435056316e-16
1.860922253e-16
2.418357159e-16
1.863852562e-16
1.417982993e-16
4.899696499e-16
1.062582801e-16
3.404919444e-17
1.392487135e-17
1.468325068e-18
1.447623802e-18
1.383512301e-17
3.403067464e-17
1.069677908e-16
4.919882178e-16
1.437198117e-16
1.84909449e-16
2.396791533e-16
1.846538006e-16
1.441246421e-16
)
;
    }
    procBoundary2to4
    {
        type            processor;
        value           nonuniform List<scalar> 
30
(
1.007417631e-20
2.088840511e-20
4.015438787e-20
7.770984716e-20
1.543314082e-19
3.119651973e-19
6.307966281e-19
1.250662677e-18
2.380871747e-18
4.243814849e-18
6.810905991e-18
9.073542843e-18
7.917160695e-18
1.611555586e-18
2.070066923e-17
1.963715104e-17
1.139550637e-16
2.566741968e-16
9.511959694e-17
8.514787487e-17
3.317724104e-17
1.993753527e-17
1.331026027e-17
1.659779309e-17
2.742735891e-17
8.645528476e-17
2.02471496e-16
5.595177932e-16
2.186749777e-16
1.681227337e-18
)
;
    }
}


// ************************************************************************* //
