/*--------------------------------*- C++ -*----------------------------------*\
  =========                 |
  \\      /  F ield         | OpenFOAM: The Open Source CFD Toolbox
   \\    /   O peration     | Website:  https://openfoam.org
    \\  /    A nd           | Version:  6
     \\/     M anipulation  |
\*---------------------------------------------------------------------------*/
FoamFile
{
    version     2.0;
    format      ascii;
    class       volScalarField;
    location    "0.0002";
    object      TRHS;
}
// * * * * * * * * * * * * * * * * * * * * * * * * * * * * * * * * * * * * * //

dimensions      [1 -1 -3 0 0 0 0];

internalField   nonuniform List<scalar> 
9600
(
2.332335498e-09
4.495250851e-09
3.278079476e-09
2.480454561e-09
1.702265036e-09
1.140898262e-09
7.619023242e-10
5.240767262e-10
3.839729879e-10
3.086130641e-10
2.707873065e-10
2.553946023e-10
2.505516438e-10
2.524234477e-10
2.56278776e-10
2.623852788e-10
2.68047451e-10
2.746684132e-10
2.801837566e-10
2.865393115e-10
2.919030824e-10
2.982208326e-10
3.032457311e-10
3.085151107e-10
3.115042404e-10
3.140647145e-10
3.143156769e-10
3.149719831e-10
3.145556682e-10
3.156719562e-10
3.160928553e-10
3.177078469e-10
3.178804562e-10
3.188986113e-10
3.188919883e-10
3.210415114e-10
3.236938995e-10
3.296017196e-10
3.359693416e-10
3.444466251e-10
3.513998148e-10
3.584892182e-10
3.626367479e-10
3.666572598e-10
3.685559552e-10
3.721784054e-10
3.759024151e-10
3.834937956e-10
3.924334405e-10
4.053316888e-10
4.182781217e-10
4.331635592e-10
4.460477355e-10
4.599884697e-10
4.725231298e-10
4.881008304e-10
5.042626423e-10
5.242311559e-10
5.431195589e-10
5.622218118e-10
5.758753739e-10
5.867344793e-10
5.913695069e-10
5.946430178e-10
5.933863215e-10
5.910397412e-10
5.817247416e-10
5.672127821e-10
5.417761326e-10
5.09908589e-10
4.693032819e-10
4.272278101e-10
3.814827e-10
3.372022487e-10
2.885742653e-10
2.381075581e-10
1.793764526e-10
1.170714481e-10
4.828769929e-11
-1.880164908e-11
-8.565841037e-11
-1.45151282e-10
-2.021245491e-10
-2.536027908e-10
-3.077951788e-10
-3.628352074e-10
-4.254359996e-10
-4.903923181e-10
-5.607481714e-10
-6.290597631e-10
-6.983079564e-10
-7.631513153e-10
-8.293145831e-10
-8.938464771e-10
-9.632048018e-10
-1.033992949e-09
-1.111060612e-09
-1.189180444e-09
-1.270551714e-09
-1.347074115e-09
-1.417699644e-09
-1.47367808e-09
-1.51719486e-09
-1.548530014e-09
-1.580723833e-09
-1.62275354e-09
-1.69157033e-09
-1.806105555e-09
-2.02466443e-09
-2.480653682e-09
-3.469812303e-09
-5.550568569e-09
-9.693193212e-09
-1.74258384e-08
-3.092537209e-08
-5.3015732e-08
-8.716331055e-08
-1.424192895e-07
-2.313155813e-07
-1.612634994e-07
2.274871241e-09
4.379350957e-09
3.272724762e-09
2.459000678e-09
1.69069334e-09
1.130985024e-09
7.56583062e-10
5.188716676e-10
3.823997792e-10
3.061877242e-10
2.71224825e-10
2.542775151e-10
2.518727476e-10
2.518173307e-10
2.579489529e-10
2.619333533e-10
2.698754246e-10
2.743337114e-10
2.82264306e-10
2.864866008e-10
2.943814754e-10
2.984772037e-10
3.06015899e-10
3.089207451e-10
3.145134642e-10
3.147925331e-10
3.179781966e-10
3.165357951e-10
3.192438524e-10
3.181178962e-10
3.215411771e-10
3.206569259e-10
3.239042223e-10
3.225392708e-10
3.260080381e-10
3.259148097e-10
3.32067795e-10
3.35205353e-10
3.444516377e-10
3.492861735e-10
3.586502524e-10
3.618184537e-10
3.687178953e-10
3.692127596e-10
3.7449656e-10
3.747600835e-10
3.818286567e-10
3.853173527e-10
3.967438762e-10
4.043319622e-10
4.189945733e-10
4.27952967e-10
4.427164208e-10
4.510357641e-10
4.661789017e-10
4.7639873e-10
4.952839264e-10
5.092358777e-10
5.302240114e-10
5.425069082e-10
5.582570298e-10
5.626569097e-10
5.705798654e-10
5.684783205e-10
5.71725022e-10
5.646208571e-10
5.605404681e-10
5.418697632e-10
5.229198e-10
4.882569916e-10
4.557207994e-10
4.116719555e-10
3.740405778e-10
3.266459996e-10
2.845738435e-10
2.294284141e-10
1.765973458e-10
1.099044354e-10
4.809932248e-11
-2.233296753e-11
-8.194250442e-11
-1.456846394e-10
-1.974128813e-10
-2.553978408e-10
-3.061489466e-10
-3.680934223e-10
-4.264063199e-10
-4.96182747e-10
-5.601373848e-10
-6.313234707e-10
-6.933803937e-10
-7.60721623e-10
-8.200588145e-10
-8.869344052e-10
-9.493778897e-10
-1.021678778e-09
-1.091520316e-09
-1.170689506e-09
-1.245519335e-09
-1.323596088e-09
-1.388990241e-09
-1.447010075e-09
-1.486339141e-09
-1.520181533e-09
-1.549684845e-09
-1.595252074e-09
-1.662249888e-09
-1.777887309e-09
-1.988740035e-09
-2.433099896e-09
-3.394295067e-09
-5.430003827e-09
-9.501384809e-09
-1.713278556e-08
-3.051241572e-08
-5.246374419e-08
-8.65767425e-08
-1.417007819e-07
-2.334440188e-07
-1.631634272e-07
2.260709164e-09
4.348922831e-09
3.241708731e-09
2.440013341e-09
1.676125769e-09
1.123291585e-09
7.49665191e-10
5.165305867e-10
3.791798924e-10
3.064509154e-10
2.696979952e-10
2.556800367e-10
2.509874484e-10
2.536110604e-10
2.571538091e-10
2.637266787e-10
2.689431003e-10
2.761006727e-10
2.813457945e-10
2.884509419e-10
2.93588903e-10
3.005261871e-10
3.050321944e-10
3.107137939e-10
3.132312012e-10
3.166518218e-10
3.17079356e-10
3.191974673e-10
3.191439734e-10
3.214514044e-10
3.216511903e-10
3.240355488e-10
3.240153009e-10
3.264223191e-10
3.270509626e-10
3.311451406e-10
3.341478816e-10
3.408064414e-10
3.456451226e-10
3.530208004e-10
3.572096745e-10
3.631102093e-10
3.65458005e-10
3.699678042e-10
3.716872424e-10
3.767644932e-10
3.800820383e-10
3.877679191e-10
3.940747317e-10
4.04758271e-10
4.1332643e-10
4.254837508e-10
4.347384979e-10
4.476999994e-10
4.584488543e-10
4.74208697e-10
4.883429193e-10
5.069745053e-10
5.216137917e-10
5.376185722e-10
5.465287043e-10
5.554290926e-10
5.574982003e-10
5.611487876e-10
5.588919023e-10
5.57589684e-10
5.475135264e-10
5.348187511e-10
5.104992447e-10
4.832878486e-10
4.465470123e-10
4.104403351e-10
3.675075032e-10
3.259261595e-10
2.75952418e-10
2.250152316e-10
1.643546032e-10
1.038836747e-10
3.733233638e-11
-2.405882148e-11
-8.704066166e-11
-1.424913664e-10
-1.99809145e-10
-2.522701949e-10
-3.102431976e-10
-3.667377363e-10
-4.303701281e-10
-4.922769761e-10
-5.59176035e-10
-6.218440095e-10
-6.873351216e-10
-7.481314101e-10
-8.124745471e-10
-8.741964937e-10
-9.414255914e-10
-1.008113918e-09
-1.081394938e-09
-1.154604882e-09
-1.232315413e-09
-1.305036613e-09
-1.373135468e-09
-1.426227466e-09
-1.467716827e-09
-1.497179887e-09
-1.529272978e-09
-1.572295221e-09
-1.642490731e-09
-1.755269714e-09
-1.964700437e-09
-2.398503679e-09
-3.344802886e-09
-5.353075994e-09
-9.388034525e-09
-1.697832981e-08
-3.032525378e-08
-5.230626078e-08
-8.653915707e-08
-1.420579969e-07
-2.346466673e-07
-1.640549279e-07
2.250087275e-09
4.324380045e-09
3.220990979e-09
2.422741832e-09
1.665128772e-09
1.114917228e-09
7.455581924e-10
5.130627088e-10
3.785015195e-10
3.052575422e-10
2.705299759e-10
2.554101292e-10
2.523875105e-10
2.535717128e-10
2.585826993e-10
2.635139917e-10
2.701880848e-10
2.757300008e-10
2.825993034e-10
2.881385103e-10
2.949127861e-10
3.000359426e-10
3.059580313e-10
3.096265753e-10
3.137226028e-10
3.154675168e-10
3.180134532e-10
3.187418328e-10
3.208492742e-10
3.213752009e-10
3.233486935e-10
3.236652976e-10
3.256566742e-10
3.264845464e-10
3.297663265e-10
3.324227234e-10
3.376718582e-10
3.417073599e-10
3.474307158e-10
3.509066814e-10
3.555405817e-10
3.578552592e-10
3.618687731e-10
3.642080243e-10
3.689572337e-10
3.724068654e-10
3.785832489e-10
3.835452445e-10
3.914226233e-10
3.981186664e-10
4.078657616e-10
4.164220537e-10
4.282874277e-10
4.39272869e-10
4.541618915e-10
4.683718708e-10
4.861134446e-10
5.015813478e-10
5.182421701e-10
5.299300501e-10
5.410262305e-10
5.465767738e-10
5.523465088e-10
5.535129679e-10
5.550749245e-10
5.504151451e-10
5.433203733e-10
5.268723404e-10
5.062759011e-10
4.765388426e-10
4.446527467e-10
4.05859109e-10
3.661763027e-10
3.191348976e-10
2.69869593e-10
2.123798562e-10
1.537085694e-10
9.001228787e-11
2.961319018e-11
-3.167835299e-11
-8.732978183e-11
-1.437932567e-10
-1.964277591e-10
-2.523500557e-10
-3.066791543e-10
-3.654860855e-10
-4.229906789e-10
-4.844183293e-10
-5.438811947e-10
-6.065395493e-10
-6.670603534e-10
-7.307558831e-10
-7.927833164e-10
-8.583596494e-10
-9.231115636e-10
-9.922847356e-10
-1.062037888e-09
-1.13683216e-09
-1.211149416e-09
-1.285408136e-09
-1.350341707e-09
-1.404312018e-09
-1.44233173e-09
-1.472323419e-09
-1.501919843e-09
-1.546733663e-09
-1.616088522e-09
-1.730353519e-09
-1.936946931e-09
-2.367337166e-09
-3.304912676e-09
-5.302898434e-09
-9.327515097e-09
-1.691685376e-08
-3.029995115e-08
-5.236464811e-08
-8.684065204e-08
-1.426564951e-07
-2.360450647e-07
-1.64926494e-07
2.242568334e-09
4.30899394e-09
3.205146239e-09
2.410371141e-09
1.655403051e-09
1.109084404e-09
7.412580949e-10
5.113154272e-10
3.770452432e-10
3.054223692e-10
2.702868245e-10
2.563381498e-10
2.525378398e-10
2.546302296e-10
2.586069748e-10
2.643206211e-10
2.698993703e-10
2.763380085e-10
2.822345627e-10
2.887574774e-10
2.944230403e-10
3.00299478e-10
3.048140143e-10
3.091813866e-10
3.120470346e-10
3.149810275e-10
3.167704682e-10
3.190016193e-10
3.202267858e-10
3.219017218e-10
3.225544241e-10
3.23942137e-10
3.249154932e-10
3.274517702e-10
3.301614652e-10
3.345114174e-10
3.383751076e-10
3.427980485e-10
3.456318369e-10
3.485179004e-10
3.500533491e-10
3.525923566e-10
3.548659578e-10
3.590002216e-10
3.630574025e-10
3.686568337e-10
3.735571391e-10
3.796087508e-10
3.849668393e-10
3.920671194e-10
3.993488631e-10
4.094040812e-10
4.204304039e-10
4.347094429e-10
4.497947018e-10
4.673315678e-10
4.8404356e-10
5.011112978e-10
5.151269186e-10
5.279133776e-10
5.369797268e-10
5.451692724e-10
5.50243601e-10
5.545616838e-10
5.545806088e-10
5.515135453e-10
5.412790794e-10
5.258345983e-10
5.025418147e-10
4.749479393e-10
4.410115556e-10
4.038031196e-10
3.600188278e-10
3.119269307e-10
2.566319699e-10
1.982269548e-10
1.360779168e-10
7.574010476e-11
1.625852793e-11
-3.881326326e-11
-9.306223261e-11
-1.449298939e-10
-1.984406981e-10
-2.512102603e-10
-3.058715293e-10
-3.592939201e-10
-4.142353737e-10
-4.68512978e-10
-5.25691154e-10
-5.83911686e-10
-6.46020471e-10
-7.091327445e-10
-7.749677819e-10
-8.404611073e-10
-9.078354706e-10
-9.754908192e-10
-1.046637629e-09
-1.119699457e-09
-1.195484062e-09
-1.268292292e-09
-1.334128244e-09
-1.38578111e-09
-1.423425499e-09
-1.45067275e-09
-1.480223169e-09
-1.523763929e-09
-1.594288498e-09
-1.707940667e-09
-1.91457089e-09
-2.342753573e-09
-3.279164439e-09
-5.277979778e-09
-9.312256233e-09
-1.693359103e-08
-3.038237925e-08
-5.260322985e-08
-8.728105409e-08
-1.436008851e-07
-2.375210016e-07
-1.659540347e-07
2.236617278e-09
4.29603336e-09
3.193553223e-09
2.400318154e-09
1.648303296e-09
1.103937937e-09
7.383912491e-10
5.093990118e-10
3.764599844e-10
3.050135011e-10
2.706650581e-10
2.564850305e-10
2.531709924e-10
2.547586467e-10
2.590135021e-10
2.640868051e-10
2.699688713e-10
2.758519084e-10
2.821644841e-10
2.881207074e-10
2.940611732e-10
2.991082724e-10
3.037006529e-10
3.07228357e-10
3.104869969e-10
3.130492118e-10
3.156870057e-10
3.17709771e-10
3.196405972e-10
3.207469378e-10
3.218844307e-10
3.227840779e-10
3.246759387e-10
3.27215121e-10
3.310746914e-10
3.350214227e-10
3.390159545e-10
3.416294084e-10
3.434036668e-10
3.439051911e-10
3.447165172e-10
3.459089581e-10
3.488868424e-10
3.528567313e-10
3.582366774e-10
3.634979484e-10
3.690051215e-10
3.737713034e-10
3.791206315e-10
3.849216193e-10
3.930187041e-10
4.031764005e-10
4.166712468e-10
4.32281993e-10
4.502490363e-10
4.684065142e-10
4.865466531e-10
5.025982248e-10
5.171163169e-10
5.290420216e-10
5.398433944e-10
5.48650989e-10
5.563456759e-10
5.60800242e-10
5.617200588e-10
5.564174118e-10
5.451674209e-10
5.266314921e-10
5.026597645e-10
4.727222485e-10
4.383842172e-10
3.979128242e-10
3.518379662e-10
2.985506553e-10
2.403304977e-10
1.782421966e-10
1.167287033e-10
5.713722222e-11
1.97854445e-12
-5.061516984e-11
-1.009435228e-10
-1.518606472e-10
-2.026307766e-10
-2.539837373e-10
-3.036909527e-10
-3.526465843e-10
-4.00480055e-10
-4.503863647e-10
-5.033309895e-10
-5.618819623e-10
-6.24807193e-10
-6.918455986e-10
-7.599285215e-10
-8.286350765e-10
-8.966531662e-10
-9.660028164e-10
-1.037274618e-09
-1.112243547e-09
-1.188621214e-09
-1.263029615e-09
-1.32830237e-09
-1.379588259e-09
-1.414887712e-09
-1.4406834e-09
-1.468068372e-09
-1.51103684e-09
-1.580561828e-09
-1.694086603e-09
-1.899840178e-09
-2.328367462e-09
-3.267380511e-09
-5.275927269e-09
-9.335027831e-09
-1.700614116e-08
-3.056113167e-08
-5.293711608e-08
-8.794269846e-08
-1.445798646e-07
-2.393416435e-07
-1.671926848e-07
2.230739316e-09
4.284463246e-09
3.183534245e-09
2.392311089e-09
1.642308757e-09
1.100072001e-09
7.358541929e-10
5.081469713e-10
3.757450259e-10
3.049642494e-10
2.706904041e-10
2.568383367e-10
2.533156148e-10
2.549858729e-10
2.588473536e-10
2.639270785e-10
2.694218642e-10
2.7540318e-10
2.813750276e-10
2.873870729e-10
2.928022034e-10
2.976787839e-10
3.016303233e-10
3.051149706e-10
3.080775355e-10
3.110487226e-10
3.137042573e-10
3.162040747e-10
3.179780389e-10
3.193676924e-10
3.20314903e-10
3.217587877e-10
3.238834791e-10
3.272634668e-10
3.311745637e-10
3.351928736e-10
3.380407748e-10
3.395570798e-10
3.394464244e-10
3.38897606e-10
3.385922345e-10
3.399255071e-10
3.428563845e-10
3.475588708e-10
3.528156648e-10
3.582557235e-10
3.629468803e-10
3.675085217e-10
3.722156231e-10
3.78656991e-10
3.874128677e-10
3.996718219e-10
4.149767479e-10
4.331920517e-10
4.52590153e-10
4.722648633e-10
4.904471666e-10
5.070183565e-10
5.214436618e-10
5.347622719e-10
5.46829427e-10
5.580815282e-10
5.669321634e-10
5.723072391e-10
5.717680231e-10
5.646356187e-10
5.499152431e-10
5.288307848e-10
5.016921471e-10
4.69810492e-10
4.323268482e-10
3.890406814e-10
3.384686e-10
2.815900815e-10
2.196903878e-10
1.567399337e-10
9.549753037e-11
3.88252295e-11
-1.37604846e-11
-6.308954396e-11
-1.117811762e-10
-1.602374436e-10
-2.08661713e-10
-2.549764211e-10
-2.987250785e-10
-3.397801477e-10
-3.812404945e-10
-4.260708305e-10
-4.780419249e-10
-5.378221168e-10
-6.049118919e-10
-6.7589793e-10
-7.482316363e-10
-8.194488933e-10
-8.900956167e-10
-9.613095887e-10
-1.035604363e-09
-1.113229474e-09
-1.192703342e-09
-1.268571933e-09
-1.334420009e-09
-1.384181174e-09
-1.417456631e-09
-1.440317385e-09
-1.465448387e-09
-1.506099443e-09
-1.574071731e-09
-1.685964531e-09
-1.891070833e-09
-2.320708238e-09
-3.265890727e-09
-5.290770214e-09
-9.384366538e-09
-1.712627615e-08
-3.079601806e-08
-5.339760281e-08
-8.866495204e-08
-1.459550284e-07
-2.414107442e-07
-1.68669909e-07
2.224847822e-09
4.27278827e-09
3.174308896e-09
2.384988098e-09
1.63721418e-09
1.096647562e-09
7.338431649e-10
5.069722642e-10
3.752720414e-10
3.047762511e-10
2.708022184e-10
2.569220773e-10
2.53430635e-10
2.54859864e-10
2.586123506e-10
2.633861274e-10
2.687990016e-10
2.745231393e-10
2.804208799e-10
2.860564392e-10
2.912080236e-10
2.955604704e-10
2.992599991e-10
3.02439004e-10
3.055214275e-10
3.085233342e-10
3.114716942e-10
3.139694401e-10
3.15929565e-10
3.172885971e-10
3.186306039e-10
3.204269861e-10
3.232569347e-10
3.269149123e-10
3.309160574e-10
3.341638603e-10
3.359481318e-10
3.358828954e-10
3.346340388e-10
3.331538975e-10
3.328035424e-10
3.342111885e-10
3.376000184e-10
3.421884191e-10
3.472168795e-10
3.517891684e-10
3.559283723e-10
3.600020356e-10
3.652432465e-10
3.726910838e-10
3.83485406e-10
3.978457815e-10
4.156213515e-10
4.356207405e-10
4.565933484e-10
4.769223218e-10
4.958214131e-10
5.128622363e-10
5.286475798e-10
5.435757538e-10
5.579897496e-10
5.709034324e-10
5.808112605e-10
5.853242425e-10
5.828116166e-10
5.721599307e-10
5.539271666e-10
5.29025229e-10
4.989004557e-10
4.637767564e-10
4.233429495e-10
3.762720376e-10
3.222560141e-10
2.620819477e-10
1.987730982e-10
1.358455919e-10
7.667360214e-11
2.236037428e-11
-2.766373232e-11
-7.553309943e-11
-1.225464564e-10
-1.688576594e-10
-2.126407945e-10
-2.522600931e-10
-2.871264176e-10
-3.197178815e-10
-3.543361966e-10
-3.962716852e-10
-4.487742725e-10
-5.124514882e-10
-5.844145013e-10
-6.605958461e-10
-7.369660118e-10
-8.119659986e-10
-8.86153982e-10
-9.619734635e-10
-1.041269463e-09
-1.12425862e-09
-1.207748478e-09
-1.285962801e-09
-1.351586677e-09
-1.39943373e-09
-1.429361018e-09
-1.448689263e-09
-1.470140471e-09
-1.507580991e-09
-1.572460965e-09
-1.681999389e-09
-1.886067805e-09
-2.318059878e-09
-3.272218137e-09
-5.318428554e-09
-9.456890205e-09
-1.727841886e-08
-3.110123776e-08
-5.391558189e-08
-8.96158394e-08
-1.473307511e-07
-2.439258815e-07
-1.703940965e-07
2.218527537e-09
4.260598685e-09
3.164948277e-09
2.377885353e-09
1.632315416e-09
1.093524931e-09
7.319397615e-10
5.059581588e-10
3.74764288e-10
3.046307473e-10
2.707647207e-10
2.569411955e-10
2.533214653e-10
2.546138723e-10
2.581177031e-10
2.627238101e-10
2.679152273e-10
2.734821031e-10
2.790748431e-10
2.844030799e-10
2.890868382e-10
2.930864682e-10
2.964556321e-10
2.995800239e-10
3.026484282e-10
3.057999986e-10
3.087752473e-10
3.113476348e-10
3.133171353e-10
3.149617583e-10
3.167081662e-10
3.191682578e-10
3.224594505e-10
3.263115909e-10
3.297952869e-10
3.320256977e-10
3.323674638e-10
3.310731581e-10
3.289662488e-10
3.273896275e-10
3.273046538e-10
3.291885966e-10
3.32576386e-10
3.367110869e-10
3.406750906e-10
3.442268701e-10
3.476335897e-10
3.51939578e-10
3.58251498e-10
3.67715863e-10
3.808371487e-10
3.976752179e-10
4.174481831e-10
4.390612488e-10
4.61009416e-10
4.821960967e-10
5.019061895e-10
5.203329315e-10
5.378955149e-10
5.550710242e-10
5.713409075e-10
5.853661425e-10
5.947793887e-10
5.973943733e-10
5.915214305e-10
5.770373876e-10
5.547890656e-10
5.265150418e-10
4.933487405e-10
4.556366813e-10
4.124065521e-10
3.626739289e-10
3.062181995e-10
2.448400015e-10
1.817330893e-10
1.205783508e-10
6.364308771e-11
1.127490059e-11
-3.800059597e-11
-8.568058277e-11
-1.320938812e-10
-1.754763471e-10
-2.13323219e-10
-2.439290471e-10
-2.687217154e-10
-2.922338536e-10
-3.212591859e-10
-3.617237324e-10
-4.167459764e-10
-4.850387014e-10
-5.623720446e-10
-6.433225591e-10
-7.242281954e-10
-8.040633173e-10
-8.845359939e-10
-9.679784368e-10
-1.055701661e-09
-1.146142014e-09
-1.23484234e-09
-1.314988432e-09
-1.379578929e-09
-1.42409613e-09
-1.449631307e-09
-1.464146969e-09
-1.480919287e-09
-1.51381572e-09
-1.574648208e-09
-1.681161507e-09
-1.884521533e-09
-2.320160423e-09
-3.285966764e-09
-5.358581396e-09
-9.547815611e-09
-1.746771603e-08
-3.14460695e-08
-5.455792418e-08
-9.060521164e-08
-1.491792297e-07
-2.467155306e-07
-1.723819873e-07
2.211672041e-09
4.247357534e-09
3.155060294e-09
2.370473287e-09
1.627348961e-09
1.090363791e-09
7.300751503e-10
5.049195428e-10
3.74267878e-10
3.043995431e-10
2.706777174e-10
2.568132754e-10
2.53087261e-10
2.541749236e-10
2.574875049e-10
2.61882311e-10
2.668887285e-10
2.721859903e-10
2.774671245e-10
2.823522388e-10
2.866330294e-10
2.902458246e-10
2.934449356e-10
2.964955316e-10
2.996343933e-10
3.028011082e-10
3.05777735e-10
3.083123928e-10
3.104273055e-10
3.124102248e-10
3.147765186e-10
3.178285285e-10
3.214947513e-10
3.250903818e-10
3.277121772e-10
3.285781368e-10
3.275693507e-10
3.253043543e-10
3.2299438e-10
3.217764497e-10
3.223424418e-10
3.244992983e-10
3.275327012e-10
3.305366097e-10
3.331030404e-10
3.354703261e-10
3.385995025e-10
3.436792788e-10
3.51839518e-10
3.636979868e-10
3.79375319e-10
3.983866413e-10
4.198683682e-10
4.426248898e-10
4.655082652e-10
4.876194061e-10
5.086676762e-10
5.28825882e-10
5.484690596e-10
5.674527513e-10
5.847899343e-10
5.984619765e-10
6.060918763e-10
6.055605184e-10
5.959577021e-10
5.776814973e-10
5.523338117e-10
5.21712476e-10
4.869793854e-10
4.479874949e-10
4.036233047e-10
3.528844049e-10
2.96083798e-10
2.354082501e-10
1.741137229e-10
1.1511926e-10
5.960667444e-11
6.950306809e-12
-4.419366527e-11
-9.414100418e-11
-1.410753585e-10
-1.81510727e-10
-2.121461404e-10
-2.32491711e-10
-2.462348708e-10
-2.608621377e-10
-2.849180705e-10
-3.24877956e-10
-3.825135682e-10
-4.549512926e-10
-5.364214329e-10
-6.215160953e-10
-7.073833457e-10
-7.944559489e-10
-8.848833596e-10
-9.803487028e-10
-1.080027035e-09
-1.180088211e-09
-1.274257869e-09
-1.355364812e-09
-1.41720141e-09
-1.456729292e-09
-1.476374198e-09
-1.484904584e-09
-1.495860937e-09
-1.523288107e-09
-1.579430239e-09
-1.682910443e-09
-1.886325739e-09
-2.327275408e-09
-3.307508284e-09
-5.41021572e-09
-9.659429207e-09
-1.768391019e-08
-3.186071153e-08
-5.524991394e-08
-9.185559176e-08
-1.509930305e-07
-2.500106307e-07
-1.74639758e-07
2.204128171e-09
4.232885459e-09
3.144327743e-09
2.362518479e-09
1.622049829e-09
1.087039665e-09
7.281015848e-10
5.038340191e-10
3.737075781e-10
3.041258071e-10
2.704861293e-10
2.565800114e-10
2.527024596e-10
2.536013717e-10
2.567153075e-10
2.60919193e-10
2.656909298e-10
2.7069593e-10
2.755663041e-10
2.800155189e-10
2.838527196e-10
2.87189195e-10
2.902426874e-10
2.933051616e-10
2.964611907e-10
2.996013409e-10
3.024905043e-10
3.050270708e-10
3.073377783e-10
3.098157435e-10
3.128072374e-10
3.163949674e-10
3.200942946e-10
3.230852681e-10
3.244854198e-10
3.239291959e-10
3.217626288e-10
3.1906211e-10
3.170446891e-10
3.165938148e-10
3.177455647e-10
3.198495328e-10
3.219195702e-10
3.233813552e-10
3.243851498e-10
3.25920452e-10
3.293250338e-10
3.358749001e-10
3.462823594e-10
3.606793932e-10
3.786419333e-10
3.99465337e-10
4.222189449e-10
4.459410208e-10
4.697204647e-10
4.929712199e-10
5.1548274e-10
5.37358979e-10
5.58534096e-10
5.783825318e-10
5.953585929e-10
6.073318237e-10
6.120676866e-10
6.081318739e-10
5.953000141e-10
5.747214538e-10
5.483231174e-10
5.178812161e-10
4.841391418e-10
4.463807441e-10
4.032158325e-10
3.536664115e-10
2.984632039e-10
2.398387374e-10
1.805977791e-10
1.224262151e-10
6.533936485e-11
8.268424787e-12
-4.913260381e-11
-1.049152052e-10
-1.545847891e-10
-1.926749378e-10
-2.157376494e-10
-2.249131944e-10
-2.268668007e-10
-2.318944992e-10
-2.503123994e-10
-2.884305775e-10
-3.467267741e-10
-4.20652945e-10
-5.039846814e-10
-5.921786612e-10
-6.843076343e-10
-7.821559443e-10
-8.877139257e-10
-1.000332089e-09
-1.115758237e-09
-1.22692745e-09
-1.325978955e-09
-1.406130079e-09
-1.462915686e-09
-1.495445189e-09
-1.507590881e-09
-1.508877726e-09
-1.512998301e-09
-1.534298706e-09
-1.585625708e-09
-1.686691018e-09
-1.891436161e-09
-2.339582586e-09
-3.336607609e-09
-5.473960396e-09
-9.787939452e-09
-1.79371577e-08
-3.231255239e-08
-5.607978722e-08
-9.313293155e-08
-1.533622408e-07
-2.535978637e-07
-1.77187175e-07
2.195833706e-09
4.216939997e-09
3.132577333e-09
2.353833469e-09
1.616298838e-09
1.083434003e-09
7.259718998e-10
5.026476651e-10
3.730731639e-10
3.03771092e-10
2.702070903e-10
2.562275136e-10
2.521927104e-10
2.529068182e-10
2.558319532e-10
2.598268241e-10
2.643446663e-10
2.689963106e-10
2.734355405e-10
2.774056936e-10
2.808711825e-10
2.839588891e-10
2.86946552e-10
2.900121257e-10
2.931545244e-10
2.962067602e-10
2.99015755e-10
3.015945732e-10
3.042137475e-10
3.072265632e-10
3.108072738e-10
3.146571198e-10
3.180585705e-10
3.200814846e-10
3.201304284e-10
3.182730001e-10
3.153975571e-10
3.12765962e-10
3.114674071e-10
3.118105249e-10
3.132591004e-10
3.147246729e-10
3.153667867e-10
3.150944242e-10
3.148290656e-10
3.161076935e-10
3.204986582e-10
3.289734378e-10
3.417575143e-10
3.584175316e-10
3.78230974e-10
4.00384948e-10
4.241082212e-10
4.48626175e-10
4.732620538e-10
4.975126256e-10
5.211363607e-10
5.439468713e-10
5.655134369e-10
5.84765122e-10
6.00042704e-10
6.093841655e-10
6.1121863e-10
6.049068765e-10
5.91024229e-10
5.71212641e-10
5.473743885e-10
5.208733562e-10
4.915329673e-10
4.579611884e-10
4.182133112e-10
3.714998599e-10
3.186191763e-10
2.616757046e-10
2.024287422e-10
1.412503174e-10
7.717516876e-11
9.512906531e-12
-6.011206552e-11
-1.266349101e-10
-1.823675595e-10
-2.199190884e-10
-2.357924485e-10
-2.330150216e-10
-2.212238403e-10
-2.137251366e-10
-2.226609291e-10
-2.545573914e-10
-3.088306899e-10
-3.800139906e-10
-4.622722816e-10
-5.531011077e-10
-6.540602179e-10
-7.681189932e-10
-8.956341609e-10
-1.031735846e-09
-1.166900697e-09
-1.290138146e-09
-1.392479374e-09
-1.468671533e-09
-1.517211498e-09
-1.539903685e-09
-1.542348296e-09
-1.534599287e-09
-1.530578104e-09
-1.544957064e-09
-1.591454508e-09
-1.690761504e-09
-1.898088503e-09
-2.35498151e-09
-3.371214048e-09
-5.546321953e-09
-9.934980451e-09
-1.82154146e-08
-3.283994756e-08
-5.695868767e-08
-9.471175315e-08
-1.556614589e-07
-2.57754521e-07
-1.80030283e-07
2.186721409e-09
4.199473707e-09
3.119704025e-09
2.344330503e-09
1.61000668e-09
1.079496147e-09
7.236410447e-10
5.013329301e-10
3.723569662e-10
3.033347739e-10
2.698278951e-10
2.557663322e-10
2.515700231e-10
2.521032283e-10
2.548375192e-10
2.586180373e-10
2.628461811e-10
2.671045642e-10
2.710752458e-10
2.746058639e-10
2.777167076e-10
2.806346096e-10
2.835769562e-10
2.866360835e-10
2.897209438e-10
2.926741056e-10
2.954221121e-10
2.981394662e-10
3.011315672e-10
3.046757467e-10
3.086407692e-10
3.124539361e-10
3.151809247e-10
3.160299689e-10
3.147503697e-10
3.119692033e-10
3.088903686e-10
3.068141863e-10
3.06374845e-10
3.072885355e-10
3.08457215e-10
3.087423288e-10
3.076481486e-10
3.058466855e-10
3.049069611e-10
3.067198501e-10
3.126744121e-10
3.232940865e-10
3.382217284e-10
3.566698778e-10
3.77770818e-10
4.008199122e-10
4.251687923e-10
4.501917113e-10
4.752360211e-10
4.997880254e-10
5.234423823e-10
5.458210369e-10
5.66220572e-10
5.835426822e-10
5.963610098e-10
6.033854364e-10
6.039448505e-10
5.982441642e-10
5.874914049e-10
5.732705251e-10
5.570268552e-10
5.388306046e-10
5.173348105e-10
4.899138657e-10
4.543902964e-10
4.099931012e-10
3.577829164e-10
2.99330388e-10
2.352488724e-10
1.646164718e-10
8.601387098e-11
-1.217849974e-13
-8.944448722e-11
-1.732022435e-10
-2.40293055e-10
-2.810929731e-10
-2.915308466e-10
-2.757623424e-10
-2.459273004e-10
-2.188325105e-10
-2.097789602e-10
-2.270608943e-10
-2.701108403e-10
-3.3334575e-10
-4.119401518e-10
-5.061718204e-10
-6.204375558e-10
-7.583855186e-10
-9.169895405e-10
-1.084499682e-09
-1.243846046e-09
-1.379378878e-09
-1.48185921e-09
-1.549304795e-09
-1.584549703e-09
-1.592885752e-09
-1.581672369e-09
-1.561579647e-09
-1.546761286e-09
-1.552531907e-09
-1.593442515e-09
-1.691153505e-09
-1.901678034e-09
-2.368491498e-09
-3.405729579e-09
-5.623663671e-09
-1.009307889e-08
-1.852960214e-08
-3.340404203e-08
-5.799355155e-08
-9.630867487e-08
-1.586074457e-07
-2.622227389e-07
-1.831900129e-07
2.176762418e-09
4.180340816e-09
3.105627731e-09
2.333939902e-09
1.603130577e-09
1.075191216e-09
7.210803049e-10
4.998874566e-10
3.715397699e-10
3.028009553e-10
2.693490112e-10
2.551870067e-10
2.50843213e-10
2.511960216e-10
2.537433838e-10
2.572869243e-10
2.611869353e-10
2.650303567e-10
2.685399961e-10
2.716412854e-10
2.744702544e-10
2.772523172e-10
2.80155642e-10
2.831757746e-10
2.861842228e-10
2.890424798e-10
2.918135868e-10
2.947365385e-10
2.981460704e-10
3.020840004e-10
3.061779704e-10
3.095783415e-10
3.113638342e-10
3.109595944e-10
3.086433978e-10
3.054134646e-10
3.026762617e-10
3.014121693e-10
3.017260813e-10
3.02687765e-10
3.029701249e-10
3.016330592e-10
2.988765774e-10
2.960759216e-10
2.95295838e-10
2.983688973e-10
3.062836417e-10
3.189397974e-10
3.355633536e-10
3.551720456e-10
3.769841834e-10
4.003907497e-10
4.248341779e-10
4.496228842e-10
4.740504068e-10
4.974859065e-10
5.194961486e-10
5.396558695e-10
5.574381071e-10
5.721371557e-10
5.830884664e-10
5.900301225e-10
5.931932985e-10
5.934932428e-10
5.919734203e-10
5.896120725e-10
5.861748856e-10
5.800199976e-10
5.67853249e-10
5.461763958e-10
5.12643113e-10
4.670707317e-10
4.107968906e-10
3.449050582e-10
2.689095672e-10
1.807900293e-10
7.910263539e-11
-3.440387167e-11
-1.525935418e-10
-2.631407059e-10
-3.512709298e-10
-4.040475758e-10
-4.146838456e-10
-3.857154425e-10
-3.305093648e-10
-2.706880404e-10
-2.287087174e-10
-2.182571298e-10
-2.409602882e-10
-2.910650021e-10
-3.646612207e-10
-4.647066391e-10
-5.989694358e-10
-7.714481834e-10
-9.738260315e-10
-1.183685967e-09
-1.372840263e-09
-1.519649317e-09
-1.616159462e-09
-1.666202606e-09
-1.679057423e-09
-1.664531006e-09
-1.632080849e-09
-1.593086618e-09
-1.562120656e-09
-1.555236155e-09
-1.587892178e-09
-1.682367534e-09
-1.895453215e-09
-2.372427226e-09
-3.433070263e-09
-5.698391895e-09
-1.026246735e-08
-1.886542107e-08
-3.405134207e-08
-5.907999093e-08
-9.825352371e-08
-1.614461721e-07
-2.673277191e-07
-1.866685021e-07
2.165915606e-09
4.159550033e-09
3.090309387e-09
2.322628176e-09
1.595640467e-09
1.070489593e-09
7.18288976e-10
4.982905595e-10
3.70608297e-10
3.021678829e-10
2.687518e-10
2.545087721e-10
2.50008101e-10
2.501942056e-10
2.525437268e-10
2.558256965e-10
2.593783279e-10
2.62781675e-10
2.658344401e-10
2.685644719e-10
2.711570306e-10
2.73833095e-10
2.766861349e-10
2.79651674e-10
2.825657793e-10
2.853839734e-10
2.882371785e-10
2.914507564e-10
2.952071931e-10
2.993601139e-10
3.032433607e-10
3.059260413e-10
3.065870061e-10
3.050982511e-10
3.021336504e-10
2.990266562e-10
2.970077017e-10
2.966186672e-10
2.972739777e-10
2.976678454e-10
2.964998367e-10
2.934355922e-10
2.894144779e-10
2.864460018e-10
2.866815018e-10
2.916111593e-10
3.015583861e-10
3.159076968e-10
3.335988273e-10
3.53705069e-10
3.755391457e-10
3.985646399e-10
4.220915315e-10
4.452961937e-10
4.673272458e-10
4.87619242e-10
5.059034598e-10
5.221864584e-10
5.366071992e-10
5.49430822e-10
5.612473545e-10
5.728133002e-10
5.851413409e-10
5.988335465e-10
6.140587776e-10
6.296408567e-10
6.429777789e-10
6.497112923e-10
6.448623129e-10
6.244175079e-10
5.867752301e-10
5.329959408e-10
4.65006386e-10
3.837075653e-10
2.875872388e-10
1.73705093e-10
3.999541483e-11
-1.113333043e-10
-2.716190897e-10
-4.258029475e-10
-5.549392534e-10
-6.400817383e-10
-6.663275873e-10
-6.283833363e-10
-5.373503734e-10
-4.232154453e-10
-3.238837418e-10
-2.667925594e-10
-2.58312264e-10
-2.914843447e-10
-3.604657574e-10
-4.702027685e-10
-6.329019162e-10
-8.543420819e-10
-1.118848163e-09
-1.387206458e-09
-1.613164954e-09
-1.766821225e-09
-1.844228161e-09
-1.859706153e-09
-1.832466433e-09
-1.778427827e-09
-1.709895976e-09
-1.639149157e-09
-1.581431771e-09
-1.553529956e-09
-1.571628785e-09
-1.658438689e-09
-1.871301432e-09
-2.358012726e-09
-3.444450299e-09
-5.765536073e-09
-1.043520411e-08
-1.92376674e-08
-3.473866751e-08
-6.034589488e-08
-1.002095399e-07
-1.650299179e-07
-2.727588273e-07
-1.904829407e-07
2.154164533e-09
4.13697696e-09
3.073696487e-09
2.310361297e-09
1.587507169e-09