/*--------------------------------*- C++ -*----------------------------------*\
  =========                 |
  \\      /  F ield         | OpenFOAM: The Open Source CFD Toolbox
   \\    /   O peration     | Website:  https://openfoam.org
    \\  /    A nd           | Version:  6
     \\/     M anipulation  |
\*---------------------------------------------------------------------------*/
FoamFile
{
    version     2.0;
    format      ascii;
    class       volVectorField;
    location    "0.0002";
    object      U;
}
// * * * * * * * * * * * * * * * * * * * * * * * * * * * * * * * * * * * * * //

dimensions      [0 1 -1 0 0 0 0];

internalField   nonuniform List<vector> 
9600
(
(0 3.478253876e-11 -9.670086159e-16)
(0 3.549344041e-11 -4.883983714e-15)
(0 3.622243207e-11 -1.172152335e-14)
(0 3.676388872e-11 -1.843631731e-14)
(0 3.717096042e-11 -2.489101351e-14)
(0 3.747821862e-11 -3.10673596e-14)
(0 3.771748037e-11 -3.704523015e-14)
(0 3.791486629e-11 -4.279720102e-14)
(0 3.808998063e-11 -4.837519042e-14)
(0 3.825634757e-11 -5.372264503e-14)
(0 3.842254473e-11 -5.887124737e-14)
(0 3.859354191e-11 -6.374789291e-14)
(0 3.877191136e-11 -6.837403271e-14)
(0 3.895874836e-11 -7.266752775e-14)
(0 3.915428271e-11 -7.664594233e-14)
(0 3.935823814e-11 -8.022225102e-14)
(0 3.95700241e-11 -8.341156007e-14)
(0 3.978883638e-11 -8.611953809e-14)
(0 4.001371643e-11 -8.835347229e-14)
(0 4.024358989e-11 -9.000568964e-14)
(0 4.04772831e-11 -9.107288416e-14)
(0 4.071351111e-11 -9.143674123e-14)
(0 4.095083979e-11 -9.109110186e-14)
(0 4.118764121e-11 -8.991429309e-14)
(0 4.142206852e-11 -8.789814972e-14)
(0 4.165206964e-11 -8.490960021e-14)
(0 4.187543407e-11 -8.092451892e-14)
(0 4.208984573e-11 -7.578626883e-14)
(0 4.229290628e-11 -6.945379737e-14)
(0 4.248211041e-11 -6.175963389e-14)
(0 4.265478364e-11 -5.26670015e-14)
(0 4.280801961e-11 -4.201620846e-14)
(0 4.29386561e-11 -2.97802156e-14)
(0 4.304330536e-11 -1.579701114e-14)
(0 4.311842113e-11 -3.250075826e-17)
(0 4.316036451e-11 1.768708469e-14)
(0 4.316543062e-11 3.739228357e-14)
(0 4.312982631e-11 5.923589152e-14)
(0 4.304961915e-11 8.319904332e-14)
(0 4.292069658e-11 1.09372162e-13)
(0 4.273876832e-11 1.376636731e-13)
(0 4.249942539e-11 1.681023278e-13)
(0 4.219824903e-11 2.005419753e-13)
(0 4.183094896e-11 2.349704972e-13)
(0 4.139351047e-11 2.711947869e-13)
(0 4.088233615e-11 3.091470189e-13)
(0 4.029437057e-11 3.485479437e-13)
(0 3.962720154e-11 3.892189067e-13)
(0 3.887913168e-11 4.307364657e-13)
(0 3.804922793e-11 4.727655131e-13)
(0 3.713736773e-11 5.147169488e-13)
(0 3.61443148e-11 5.561077221e-13)
(0 3.50718525e-11 5.962181199e-13)
(0 3.392298005e-11 6.344686345e-13)
(0 3.27021346e-11 6.700609615e-13)
(0 3.141537368e-11 7.023583759e-13)
(0 3.007044592e-11 7.305032948e-13)
(0 2.867672594e-11 7.538087178e-13)
(0 2.724504655e-11 7.713708045e-13)
(0 2.578752211e-11 7.824956619e-13)
(0 2.431744251e-11 7.863225934e-13)
(0 2.284926713e-11 7.822835816e-13)
(0 2.139864436e-11 7.697135379e-13)
(0 1.998234414e-11 7.483084309e-13)
(0 1.861799414e-11 7.176954987e-13)
(0 1.732362189e-11 6.778842088e-13)
(0 1.611709218e-11 6.288142017e-13)
(0 1.501560714e-11 5.708268189e-13)
(0 1.403537427e-11 5.042095855e-13)
(0 1.319146891e-11 4.296814389e-13)
(0 1.249777648e-11 3.479045615e-13)
(0 1.196689062e-11 2.599430813e-13)
(0 1.160986059e-11 1.667196725e-13)
(0 1.143582878e-11 6.945265525e-14)
(0 1.14516683e-11 -3.090345758e-14)
(0 1.166179949e-11 -1.331919052e-13)
(0 1.206827083e-11 -2.365877325e-13)
(0 1.267112214e-11 -3.400964633e-13)
(0 1.346890528e-11 -4.430855308e-13)
(0 1.445923561e-11 -5.447920549e-13)
(0 1.563922856e-11 -6.448799145e-13)
(0 1.70057842e-11 -7.429564537e-13)
(0 1.855572007e-11 -8.391109296e-13)
(0 2.028584048e-11 -9.333807035e-13)
(0 2.219300432e-11 -1.026215633e-12)
(0 2.42742618e-11 -1.117879257e-12)
(0 2.65270354e-11 -1.208866939e-12)
(0 2.89492951e-11 -1.299311445e-12)
(0 3.153959886e-11 -1.389426944e-12)
(0 3.429691968e-11 -1.478975723e-12)
(0 3.722021058e-11 -1.567750875e-12)
(0 4.030778099e-11 -1.655092967e-12)
(0 4.355660482e-11 -1.74037602e-12)
(0 4.69617125e-11 -1.822554983e-12)
(0 5.051575263e-11 -1.900652734e-12)
(0 5.420876554e-11 -1.973355978e-12)
(0 5.802814176e-11 -2.039520507e-12)
(0 6.195877687e-11 -2.097821453e-12)
(0 6.598342937e-11 -2.147249124e-12)
(0 7.008330076e-11 -2.186773097e-12)
(0 7.423873832e-11 -2.21577312e-12)
(0 7.842981746e-11 -2.233682844e-12)
(0 8.263651758e-11 -2.240339704e-12)
(0 8.683834402e-11 -2.235630112e-12)
(0 9.101363416e-11 -2.219790855e-12)
(0 9.513899955e-11 -2.193081038e-12)
(0 9.918904138e-11 -2.156030392e-12)
(0 1.0313534e-10 -2.109085129e-12)
(0 1.069421542e-10 -2.052738564e-12)
(0 1.105551584e-10 -1.987133007e-12)
(0 1.138789615e-10 -1.91207008e-12)
(0 1.16738464e-10 -1.826493946e-12)
(0 1.188192388e-10 -1.72811471e-12)
(0 1.195844561e-10 -1.612564658e-12)
(0 1.181737703e-10 -1.472326475e-12)
(0 1.132947143e-10 -1.295720285e-12)
(0 1.031410807e-10 -1.065461183e-12)
(0 8.526191607e-11 -7.620077134e-13)
(0 5.791101019e-11 -3.83540266e-13)
(0 2.072128349e-12 3.498730951e-26)
(0 3.455683049e-11 -4.959094584e-15)
(0 3.526349552e-11 -1.835621146e-14)
(0 3.598798156e-11 -3.694478782e-14)
(0 3.652754508e-11 -5.603597983e-14)
(0 3.693314813e-11 -7.482323581e-14)
(0 3.723895966e-11 -9.312100419e-14)
(0 3.747690868e-11 -1.108808525e-13)
(0 3.767318926e-11 -1.28102165e-13)
(0 3.784741587e-11 -1.447542473e-13)
(0 3.80130837e-11 -1.608064669e-13)
(0 3.817872935e-11 -1.761906175e-13)
(0 3.83492817e-11 -1.908429989e-13)
(0 3.852728477e-11 -2.046677295e-13)
(0 3.871381412e-11 -2.175811535e-13)
(0 3.890909251e-11 -2.29472892e-13)
(0 3.911284201e-11 -2.402490868e-13)
(0 3.932448141e-11 -2.497872066e-13)
(0 3.954321978e-11 -2.579750056e-13)
(0 3.976812026e-11 -2.646614814e-13)
(0 3.999812823e-11 -2.696991015e-13)
(0 4.023209057e-11 -2.729011103e-13)
(0 4.046873446e-11 -2.740945487e-13)
(0 4.070663922e-11 -2.730792825e-13)
(0 4.094418986e-11 -2.696770666e-13)
(0 4.117956489e-11 -2.636752296e-13)
(0 4.141074432e-11 -2.548640792e-13)
(0 4.163555981e-11 -2.429767291e-13)
(0 4.185173051e-11 -2.277393494e-13)
(0 4.205688626e-11 -2.088307314e-13)
(0 4.224853244e-11 -1.859530224e-13)
(0 4.242400156e-11 -1.587928665e-13)
(0 4.258039299e-11 -1.27078976e-13)
(0 4.271456587e-11 -9.051714383e-14)
(0 4.282316079e-11 -4.883140528e-14)
(0 4.29026662e-11 -1.698750312e-15)
(0 4.29494598e-11 5.11833211e-14)
(0 4.295983184e-11 1.10128911e-13)
(0 4.292994958e-11 1.753669558e-13)
(0 4.285582466e-11 2.470702938e-13)
(0 4.273327634e-11 3.252776106e-13)
(0 4.255795962e-11 4.099597242e-13)
(0 4.232542021e-11 5.009709733e-13)
(0 4.203121056e-11 5.981318561e-13)
(0 4.167100367e-11 7.01167049e-13)
(0 4.124073512e-11 8.097603847e-13)
(0 4.073671762e-11 9.23453552e-13)
(0 4.015577105e-11 1.04167292e-12)
(0 3.949531313e-11 1.163613114e-12)
(0 3.875345597e-11 1.288276068e-12)
(0 3.792906017e-11 1.414381129e-12)
(0 3.702181351e-11 1.540449093e-12)
(0 3.603230687e-11 1.664752271e-12)
(0 3.496218716e-11 1.785433158e-12)
(0 3.381433357e-11 1.900462497e-12)
(0 3.259308215e-11 2.00774873e-12)
(0 3.130437964e-11 2.105065462e-12)
(0 2.995586641e-11 2.190137677e-12)
(0 2.855680631e-11 2.260562582e-12)
(0 2.71179619e-11 2.313930913e-12)
(0 2.565143282e-11 2.347809922e-12)
(0 2.417059003e-11 2.359940403e-12)
(0 2.269005585e-11 2.348266401e-12)
(0 2.122572173e-11 2.311133172e-12)
(0 1.979463357e-11 2.247264382e-12)
(0 1.841471895e-11 2.15588745e-12)
(0 1.710430388e-11 2.036650302e-12)
(0 1.588157574e-11 1.889730357e-12)
(0 1.476408152e-11 1.715771744e-12)
(0 1.376841317e-11 1.516023331e-12)
(0 1.291003195e-11 1.292269979e-12)
(0 1.220317799e-11 1.046904499e-12)
(0 1.166070188e-11 7.827425261e-13)
(0 1.129378516e-11 5.029645669e-13)
(0 1.111155947e-11 2.108436902e-13)
(0 1.112077994e-11 -9.032717121e-14)
(0 1.132567433e-11 -3.974456431e-13)
(0 1.172806747e-11 -7.075816316e-13)
(0 1.232774776e-11 -1.01811088e-12)
(0 1.312297536e-11 -1.326685504e-12)
(0 1.411100028e-11 -1.631407953e-12)
(0 1.528848583e-11 -1.930867182e-12)
(0 1.665181425e-11 -2.224327071e-12)
(0 1.819728084e-11 -2.511696276e-12)
(0 1.99212544e-11 -2.793547791e-12)
(0 2.182032597e-11 -3.070877833e-12)
(0 2.389150315e-11 -3.344922169e-12)
(0 2.613238651e-11 -3.61680797e-12)
(0 2.854131255e-11 -3.887365982e-12)
(0 3.111731884e-11 -4.156890844e-12)
(0 3.38599221e-11 -4.425094739e-12)
(0 3.676862276e-11 -4.69101553e-12)
(0 3.984227694e-11 -4.953062126e-12)
(0 4.307836966e-11 -5.208987986e-12)
(0 4.647240685e-11 -5.455977448e-12)
(0 5.001742024e-11 -5.690696607e-12)
(0 5.370371838e-11 -5.909474766e-12)
(0 5.751877953e-11 -6.108485044e-12)
(0 6.144741536e-11 -6.284012661e-12)
(0 6.547211192e-11 -6.432680241e-12)
(0 6.95736866e-11 -6.55166165e-12)
(0 7.373201668e-11 -6.638799569e-12)
(0 7.792671861e-11 -6.692660996e-12)
(0 8.213732424e-11 -6.712520182e-12)
(0 8.634296154e-11 -6.698311935e-12)
(0 9.05216359e-11 -6.65057168e-12)
(0 9.464974939e-11 -6.570351325e-12)
(0 9.870187928e-11 -6.459098589e-12)
(0 1.026499629e-10 -6.318408743e-12)
(0 1.064591359e-10 -6.149692376e-12)
(0 1.100767221e-10 -5.953691281e-12)
(0 1.134099887e-10 -5.72991151e-12)
(0 1.162879482e-10 -5.475651964e-12)
(0 1.184018854e-10 -5.184522992e-12)
(0 1.192225064e-10 -4.844244556e-12)
(0 1.178982221e-10 -4.433613852e-12)
(0 1.131466672e-10 -3.919504232e-12)
(0 1.031708547e-10 -3.254722331e-12)
(0 8.552362635e-11 -2.384126884e-12)
(0 5.848131916e-11 -1.280427287e-12)
(0 2.074986363e-12 7.15829509e-26)
(0 3.437104157e-11 -1.142635029e-14)
(0 3.507357163e-11 -3.65434723e-14)
(0 3.579330931e-11 -6.526452594e-14)
(0 3.633050793e-11 -9.535266642e-14)
(0 3.673459757e-11 -1.256230914e-13)
(0 3.703933004e-11 -1.555564016e-13)
(0 3.72765235e-11 -1.848575962e-13)
(0 3.747232152e-11 -2.134230329e-13)
(0 3.764630416e-11 -2.411089512e-13)
(0 3.781193231e-11 -2.678495466e-13)
(0 3.797770678e-11 -2.934904637e-13)
(0 3.814853152e-11 -3.179406124e-13)
(0 3.832693209e-11 -3.410154508e-13)
(0 3.851397728e-11 -3.625994542e-13)
(0 3.870988675e-11 -3.824869506e-13)
(0 3.891439014e-11 -4.005465953e-13)
(0 3.9126919e-11 -4.165503963e-13)
(0 3.934670742e-11 -4.303349756e-13)
(0 3.957284615e-11 -4.416231688e-13)
(0 3.980431242e-11 -4.501948431e-13)
(0 4.003997477e-11 -4.557166238e-13)
(0 4.027857819e-11 -4.579300853e-13)
(0 4.051871164e-11 -4.564793463e-13)
(0 4.075877957e-11 -4.510940803e-13)
(0 4.099699073e-11 -4.413902577e-13)
(0 4.123137529e-11 -4.270401824e-13)
(0 4.145981823e-11 -4.075676152e-13)
(0 4.168008916e-11 -3.825439536e-13)
(0 4.188984365e-11 -3.514101725e-13)
(0 4.20865957e-11 -3.137042285e-13)
(0 4.226767115e-11 -2.688776284e-13)
(0 4.243017327e-11 -2.165030273e-13)
(0 4.257097813e-11 -1.560486308e-13)
(0 4.268676425e-11 -8.706976814e-14)
(0 4.277405108e-11 -8.986302305e-15)
(0 4.28292263e-11 7.86785544e-14)
(0 4.284854045e-11 1.764756173e-13)
(0 4.282807948e-11 2.847481829e-13)
(0 4.276373579e-11 4.038170237e-13)
(0 4.265120776e-11 5.337263143e-13)
(0 4.248603675e-11 6.74489206e-13)
(0 4.226368319e-11 8.258682901e-13)
(0 4.197962143e-11 9.876414977e-13)
(0 4.16294445e-11 1.159351281e-12)
(0 4.120896672e-11 1.340530139e-12)
(0 4.071433042e-11 1.530386169e-12)
(0 4.014211337e-11 1.727997218e-12)
(0 3.948944084e-11 1.931975566e-12)
(0 3.875408805e-11 2.140692016e-12)
(0 3.793457832e-11 2.351979294e-12)
(0 3.70302759e-11 2.563428719e-12)
(0 3.60414986e-11 2.772144356e-12)
(0 3.496966127e-11 2.97509165e-12)
(0 3.38174588e-11 3.168852343e-12)
(0 3.258905432e-11 3.349962528e-12)
(0 3.129023259e-11 3.514618047e-12)
(0 2.992846448e-11 3.658994395e-12)
(0 2.851287903e-11 3.77895068e-12)
(0 2.705416774e-11 3.870426281e-12)
(0 2.556449198e-11 3.929242133e-12)
(0 2.405743291e-11 3.951619815e-12)
(0 2.254798686e-11 3.934034864e-12)
(0 2.105253005e-11 3.873730544e-12)
(0 1.95886701e-11 3.768472897e-12)
(0 1.817491799e-11 3.616963451e-12)
(0 1.683021167e-11 3.418504444e-12)
(0 1.557337969e-11 3.173407788e-12)
(0 1.442267434e-11 2.882687024e-12)
(0 1.339543697e-11 2.548509396e-12)
(0 1.250788756e-11 2.17384847e-12)
(0 1.177493997e-11 1.762819343e-12)
(0 1.120995504e-11 1.320129033e-12)
(0 1.082439238e-11 8.512185807e-13)
(0 1.062743133e-11 3.615813715e-13)
(0 1.062567958e-11 -1.430989595e-13)
(0 1.082309209e-11 -6.57542306e-13)
(0 1.122113942e-11 -1.176602303e-12)
(0 1.181918328e-11 -1.69577609e-12)
(0 1.261495072e-11 -2.210937572e-12)
(0 1.360500941e-11 -2.718922952e-12)
(0 1.478518392e-11 -3.217341525e-12)
(0 1.615091121e-11 -3.705145063e-12)
(0 1.769755931e-11 -4.182280167e-12)
(0 1.942073279e-11 -4.649955788e-12)
(0 2.131656797e-11 -5.109945088e-12)
(0 2.338199235e-11 -5.564544907e-12)
(0 2.561491029e-11 -6.015729097e-12)
(0 2.801425897e-11 -6.465120591e-12)
(0 3.057988796e-11 -6.9133168e-12)
(0 3.331222182e-11 -7.360070687e-12)
(0 3.621171969e-11 -7.803831484e-12)
(0 3.927818234e-11 -8.242057516e-12)
(0 4.251001489e-11 -8.670879438e-12)
(0 4.590353956e-11 -9.085511279e-12)
(0 4.945245191e-11 -9.480094832e-12)
(0 5.314745523e-11 -9.848305412e-12)
(0 5.697611831e-11 -1.018343325e-11)
(0 6.092298203e-11 -1.047912056e-11)
(0 6.49699709e-11 -1.07294982e-11)
(0 6.909709465e-11 -1.092979385e-11)
(0 7.328332146e-11 -1.10762846e-11)
(0 7.750731392e-11 -1.11666285e-11)
(0 8.17477144e-11 -1.119961527e-11)
(0 8.598282162e-11 -1.117530901e-11)
(0 9.018994187e-11 -1.109472756e-11)
(0 9.434492258e-11 -1.095987922e-11)
(0 9.842208439e-11 -1.077334227e-11)
(0 1.023935145e-10 -1.053805528e-11)
(0 1.062251047e-10 -1.025663167e-11)
(0 1.098656113e-10 -9.930794706e-12)
(0 1.132246174e-10 -9.560319246e-12)
(0 1.161344448e-10 -9.141657608e-12)
(0 1.18290766e-10 -8.665476113e-12)
(0 1.191692671e-10 -8.113133284e-12)
(0 1.179228386e-10 -7.451813834e-12)
(0 1.132702862e-10 -6.629458629e-12)
(0 1.034072356e-10 -5.570943318e-12)
(0 8.585392242e-11 -4.181611307e-12)
(0 5.881529639e-11 -2.361005044e-12)
(0 2.080714046e-12 1.153215324e-25)
(0 3.422897096e-11 -1.790093624e-14)
(0 3.492801256e-11 -5.515021781e-14)
(0 3.564428139e-11 -9.482241115e-14)
(0 3.617918873e-11 -1.358882475e-13)
(0 3.658190467e-11 -1.774048563e-13)
(0 3.688592918e-11 -2.187162964e-13)
(0 3.712287795e-11 -2.594136956e-13)
(0 3.731878095e-11 -2.992192378e-13)
(0 3.749314929e-11 -3.379289482e-13)
(0 3.765939644e-11 -3.753551639e-13)
(0 3.78259941e-11 -4.113186625e-13)
(0 3.799782953e-11 -4.456229533e-13)
(0 3.817742241e-11 -4.780660286e-13)
(0 3.836584091e-11 -5.084262558e-13)
(0 3.856331028e-11 -5.364784576e-13)
(0 3.87695716e-11 -5.6197709e-13)
(0 3.898407882e-11 -5.846652165e-13)
(0 3.920609723e-11 -6.042487555e-13)
(0 3.943475625e-11 -6.204039278e-13)
(0 3.966906828e-11 -6.327596827e-13)
(0 3.990793007e-11 -6.409216729e-13)
(0 4.015010331e-11 -6.444678622e-13)
(0 4.039419219e-11 -6.429732918e-13)
(0 4.063862444e-11 -6.359881923e-13)
(0 4.088165286e-11 -6.23038142e-13)
(0 4.112136892e-11 -6.035835137e-13)
(0 4.135572624e-11 -5.770247198e-13)
(0 4.15825482e-11 -5.426906164e-13)
(0 4.179951918e-11 -4.998823155e-13)
(0 4.200415435e-11 -4.478857386e-13)
(0 4.219377206e-11 -3.860095855e-13)
(0 4.236547692e-11 -3.135641457e-13)
(0 4.251616981e-11 -2.298594486e-13)
(0 4.264256619e-11 -1.341661953e-13)
(0 4.274121391e-11 -2.573627685e-14)
(0 4.280848704e-11 9.61841846e-14)
(0 4.284056477e-11 2.322747249e-13)
(0 4.283340279e-11 3.830949968e-13)
(0 4.278272941e-11 5.49016195e-13)
(0 4.268407121e-11 7.302238672e-13)
(0 4.253281783e-11 9.267078368e-13)
(0 4.232429781e-11 1.138306223e-12)
(0 4.205386254e-11 1.364694965e-12)
(0 4.17169568e-11 1.605393024e-12)
(0 4.130919394e-11 1.859688657e-12)
(0 4.082643564e-11 2.126583764e-12)
(0 4.026489929e-11 2.404682685e-12)
(0 3.96212781e-11 2.69213565e-12)
(0 3.889287804e-11 2.986561672e-12)
(0 3.807774671e-11 3.285053697e-12)
(0 3.717480568e-11 3.584172163e-12)
(0 3.618397978e-11 3.880015023e-12)
(0 3.510635128e-11 4.168250529e-12)
(0 3.394432369e-11 4.444194839e-12)
(0 3.270179462e-11 4.70282004e-12)
(0 3.138428902e-11 4.938797758e-12)
(0 2.999904048e-11 5.146492659e-12)
(0 2.855499952e-11 5.32004708e-12)
(0 2.706281078e-11 5.453477756e-12)
(7.795352968e-53 2.553477855e-11 5.540906118e-12)
(7.322244448e-53 2.398485733e-11 5.576784784e-12)
(0 2.242862758e-11 5.556187893e-12)
(0 2.088321416e-11 5.474996608e-12)
(0 1.93670675e-11 5.33007486e-12)
(0 1.789959932e-11 5.119324342e-12)
(0 1.650069549e-11 4.841782846e-12)
(0 1.519020827e-11 4.497676233e-12)
(0 1.398750011e-11 4.088560971e-12)
(0 1.29110908e-11 3.617392069e-12)
(0 1.197836217e-11 3.088589594e-12)
(0 1.120526014e-11 2.507912518e-12)
(0 1.060592661e-11 1.882260815e-12)
(0 1.019228385e-11 1.21929879e-12)
(0 9.973649353e-12 5.271128978e-13)
(0 9.956501312e-12 -1.861695325e-13)
(0 1.014446553e-11 -9.126172891e-13)
(0 1.053852854e-11 -1.644752565e-12)
(0 1.113740159e-11 -2.375729509e-12)
(0 1.193794967e-11 -3.099635874e-12)
(0 1.2935627e-11 -3.811767962e-12)
(0 1.412491363e-11 -4.508983358e-12)
(0 1.549978179e-11 -5.18987512e-12)
(0 1.705420023e-11 -5.854828932e-12)
(0 1.878265757e-11 -6.505750742e-12)
(0 2.068063102e-11 -7.145644306e-12)
(0 2.274493712e-11 -7.77796225e-12)
(0 2.497389608e-11 -8.406009352e-12)
(0 2.736729742e-11 -9.032334581e-12)
(0 2.992614677e-11 -9.658329326e-12)
(0 3.265221997e-11 -1.02838731e-11)
(0 3.554742936e-11 -1.090716487e-11)
(0 3.861307049e-11 -1.15245638e-11)
(0 4.184899547e-11 -1.213060902e-11)
(0 4.525282241e-11 -1.27181022e-11)
(0 4.88192416e-11 -1.327844385e-11)
(0 5.253952439e-11 -1.380208072e-11)
(0 5.640127891e-11 -1.42791652e-11)
(0 6.038855567e-11 -1.470019432e-11)
(0 6.448231766e-11 -1.505666614e-11)
(0 6.866128631e-11 -1.534152769e-11)
(0 7.290295333e-11 -1.554950999e-11)
(0 7.718446956e-11 -1.567722179e-11)
(0 8.148301471e-11 -1.572316501e-11)
(0 8.577555373e-11 -1.568759269e-11)
(0 9.003822723e-11 -1.557235064e-11)
(0 9.424597732e-11 -1.538058647e-11)
(0 9.837257689e-11 -1.511640039e-11)
(0 1.023900654e-10 -1.478429672e-11)
(0 1.062648556e-10 -1.438851317e-11)
(0 1.099468281e-10 -1.393209941e-11)
(0 1.133472436e-10 -1.341568967e-11)
(0 1.163006019e-10 -1.283550209e-11)
(0 1.185049151e-10 -1.218008143e-11)
(0 1.194376229e-10 -1.142520741e-11)
(0 1.182508536e-10 -1.052683947e-11)
(0 1.136575778e-10 -9.412735291e-12)
(0 1.038364406e-10 -7.974551732e-12)
(0 8.627597152e-11 -6.063002637e-12)
(0 5.913527166e-11 -3.488738277e-12)
(0 2.089346574e-12 1.765125492e-25)
(0 3.411643582e-11 -2.41742939e-14)
(0 3.481295978e-11 -7.362815352e-14)
(0 3.552652663e-11 -1.248353934e-13)
(0 3.6059502e-11 -1.772355914e-13)
(0 3.646113242e-11 -2.301059879e-13)
(0 3.676476722e-11 -2.828305621e-13)
(0 3.700186168e-11 -3.349122101e-13)
(0 3.719832493e-11 -3.859942356e-13)
(0 3.737358372e-11 -4.357668393e-13)
(0 3.754100048e-11 -4.839804631e-13)
(0 3.770901929e-11 -5.303702233e-13)
(0 3.788251768e-11 -5.746929325e-13)
(0 3.806401439e-11 -6.166682179e-13)
(0 3.825458357e-11 -6.560297504e-13)
(0 3.845446098e-11 -6.924711925e-13)
(0 3.866340651e-11 -7.256954143e-13)
(0 3.888090261e-11 -7.553514981e-13)
(0 3.91062548e-11 -7.810787159e-13)
(0 3.933863685e-11 -8.024419551e-13)
(0 3.957710334e-11 -8.189892569e-13)
(0 3.982058116e-11 -8.302028858e-13)
(0 4.006785371e-11 -8.355698084e-13)
(0 4.031754614e-11 -8.345271474e-13)
(0 4.05681219e-11 -8.26512499e-13)
(0 4.081789039e-11 -8.108827595e-13)
(0 4.10650191e-11 -7.869531638e-13)
(0 4.130753766e-11 -7.539260875e-13)
(0 4.154332851e-11 -7.109666493e-13)
(0 4.177010374e-11 -6.571658849e-13)
(0 4.198538321e-11 -5.916363886e-13)
(0 4.218648219e-11 -5.134595035e-13)
(0 4.237051727e-11 -4.217456944e-13)
(0 4.253442009e-11 -3.155461606e-13)
(0 4.267494441e-11 -1.93910135e-13)
(0 4.27886518e-11 -5.582923669e-14)
(0 4.287187818e-11 9.964472046e-14)
(0 4.292069518e-11 2.734038369e-13)
(0 4.293089392e-11 4.661444689e-13)
(0 4.289800493e-11 6.783988878e-13)
(0 4.281735715e-11 9.104486817e-13)
(0 4.268415699e-11 1.162412166e-12)
(0 4.249356438e-11 1.434178407e-12)
(0 4.224074816e-11 1.725477684e-12)
(0 4.192092617e-11 2.035756813e-12)
(0 4.152940517e-11 2.364184349e-12)
(0 4.106164831e-11 2.709469773e-12)
(0 4.051338054e-11 3.06985057e-12)
(0 3.988073451e-11 3.442924729e-12)
(0 3.916041536e-11 3.825686983e-12)
(0 3.834987067e-11 4.214420863e-12)
(0 3.744744945e-11 4.604802326e-12)
(0 3.64525547e-11 4.991841087e-12)
(0 3.536579448e-11 5.37001815e-12)
(0 3.418913925e-11 5.733228192e-12)
(0 3.29260748e-11 6.074906318e-12)
(0 3.158173997e-11 6.387954832e-12)
(0 3.016303198e-11 6.664894731e-12)
(0 2.867868272e-11 6.897869896e-12)
(0 2.713931088e-11 7.078943215e-12)
(0 2.555746164e-11 7.200262991e-12)
(0 2.394761873e-11 7.254493489e-12)
(0 2.232615955e-11 7.235019634e-12)
(0 2.071120496e-11 7.136320291e-12)
(0 1.912233925e-11 6.954043806e-12)
(0 1.758020407e-11 6.685262819e-12)
(0 1.610601929e-11 6.328486198e-12)
(0 1.472109222e-11 5.883927015e-12)
(0 1.344636797e-11 5.353542948e-12)
(0 1.230201943e-11 4.741281887e-12)
(0 1.130704147e-11 4.052976406e-12)
(0 1.047879952e-11 3.296327401e-12)
(0 9.832529175e-12 2.480473558e-12)
(0 9.380842091e-12 1.615696751e-12)
(0 9.133342466e-12 7.128364626e-13)
(0 9.096442993e-12 -2.170100562e-13)
(0 9.27341055e-12 -1.162990829e-12)
(0 9.664595125e-12 -2.114720671e-12)
(0 1.026776109e-11 -3.062792999e-12)
(0 1.107846326e-11 -3.999093718e-12)
(0 1.209046843e-11 -4.917409899e-12)
(0 1.329627093e-11 -5.813720254e-12)
(0 1.468774461e-11 -6.686565137e-12)
(0 1.625691206e-11 -7.536874993e-12)
(0 1.799673558e-11 -8.36773884e-12)
(0 1.990179465e-11 -9.18364601e-12)
(0 2.196872353e-11 -9.989820259e-12)
(0 2.41963563e-11 -1.079126941e-11)
(0 2.658558529e-11 -1.159214907e-11)
(0 2.913898271e-11 -1.23949992e-11)
(0 3.186022582e-11 -1.320034875e-11)
(0 3.475335839e-11 -1.400621122e-11)
(0 3.782190803e-11 -1.480795724e-11)
(0 4.106790638e-11 -1.559815461e-11)
(0 4.449088486e-11 -1.636688153e-11)
(0 4.808696447e-11 -1.710211166e-11)
(0 5.184816473e-11 -1.779057109e-11)
(0 5.576206717e-11 -1.841856206e-11)
(0 5.98119234e-11 -1.897301776e-11)
(0 6.39772576e-11 -1.944226294e-11)
(0 6.823489136e-11 -1.981675393e-11)
(0 7.256017414e-11 -2.008940225e-11)
(0 7.692804186e-11 -2.02558312e-11)
(0 8.131354009e-11 -2.031428585e-11)
(0 8.569167485e-11 -2.026553977e-11)
(0 9.00369095e-11 -2.011253466e-11)
(0 9.432287747e-11 -1.986002994e-11)
(0 9.85225337e-11 -1.951399528e-11)
(0 1.026076612e-10 -1.908097192e-11)
(0 1.065450048e-10 -1.856716744e-11)
(0 1.102852553e-10 -1.79774121e-11)
(0 1.137407862e-10 -1.731357341e-11)
(0 1.167471886e-10 -1.657207273e-11)
(0 1.190030261e-10 -1.573960868e-11)
(0 1.199846699e-10 -1.478640318e-11)
(0 1.188400357e-10 -1.365636929e-11)
(0 1.142718382e-10 -1.225483142e-11)
(0 1.044413038e-10 -1.043516277e-11)
(0 8.680708555e-11 -7.9877431e-12)
(0 5.950503988e-11 -4.63287619e-12)
(0 2.100949751e-12 2.302134422e-25)
(0 3.402073822e-11 -3.032685841e-14)
(0 3.471518698e-11 -9.197693124e-14)
(0 3.54265878e-11 -1.550877577e-13)
(0 3.595805533e-11 -2.191823944e-13)
(0 3.635891288e-11 -2.836797515e-13)
(0 3.66624485e-11 -3.479890231e-13)
(0 3.690000626e-11 -4.11599886e-13)
(0 3.709738848e-11 -4.740803052e-13)
(0 3.727394321e-11 -5.350662928e-13)
(0 3.744298419e-11 -5.942248467e-13)
(0 3.761293183e-11 -6.512426644e-13)
(0 3.778865698e-11 -7.057995767e-13)
(0 3.797268274e-11 -7.575718312e-13)
(0 3.816609275e-11 -8.062168704e-13)
(0 3.836913873e-11 -8.513814416e-13)
(0 3.858160576e-11 -8.926832753e-13)
(0 3.8803013e-11 -9.297113372e-13)
(0 3.903271276e-11 -9.62003311e-13)
(0 3.926992932e-11 -9.890505282e-13)
(0 3.951376178e-11 -1.010288697e-12)
(0 3.976317238e-11 -1.025118469e-12)
(0 4.001697271e-11 -1.032902122e-12)
(0 4.027382153e-11 -1.032975111e-12)
(0 4.053223259e-11 -1.024619781e-12)
(0 4.079058759e-11 -1.007056531e-12)
(0 4.10471398e-11 -9.794130783e-13)
(0 4.130000077e-11 -9.407342019e-13)
(0 4.154711336e-11 -8.899852453e-13)
(0 4.17862227e-11 -8.260919323e-13)
(0 4.2014862e-11 -7.479491179e-13)
(0 4.223036037e-11 -6.544413891e-13)
(0 4.242986169e-11 -5.444177206e-13)
(0 4.261033792e-11 -4.166930794e-13)
(0 4.276857455e-11 -2.700359234e-13)
(0 4.290112754e-11 -1.032133483e-13)
(0 4.300426513e-11 8.496552449e-14)
(0 4.307392442e-11 2.955665046e-13)
(0 4.310571027e-11 5.294890921e-13)
(0 4.309494466e-11 7.874197801e-13)
(0 4.303674853e-11 1.069843364e-12)
(0 4.29261276e-11 1.377030819e-12)
(0 4.275803138e-11 1.709045797e-12)
(0 4.252737804e-11 2.065687251e-12)
(0 4.222905902e-11 2.446428755e-12)
(0 4.185795698e-11 2.85030042e-12)
(0 4.140900665e-11 3.275797013e-12)
(0 4.087731479e-11 3.72076343e-12)
(0 4.025832931e-11 4.182337881e-12)
(0 3.954803604e-11 4.656884862e-12)
(0 3.874315547e-11 5.139988692e-12)
(0 3.784132492e-11 5.626427378e-12)
(0 3.68412621e-11 6.110197996e-12)
(0 3.574292017e-11 6.584510888e-12)
(0 3.454764034e-11 7.041827819e-12)
(0 3.325830846e-11 7.473866644e-12)
(0 3.187951239e-11 7.871668501e-12)
(0 3.041770062e-11 8.225670239e-12)
(0 2.888133574e-11 8.525896229e-12)
(0 2.728103486e-11 8.762197987e-12)
(0 2.562967083e-11 8.924617269e-12)
(0 2.394240209e-11 9.003741945e-12)
(0 2.223659168e-11 8.99109349e-12)
(0 2.053159642e-11 8.879415623e-12)
(0 1.88484294e-11 8.662952647e-12)
(0 1.720933186e-11 8.3376468e-12)
(0 1.563729959e-11 7.901384039e-12)
(0 1.41556044e-11 7.354201957e-12)
(0 1.278731624e-11 6.69853195e-12)
(0 1.155480483e-11 5.939313862e-12)
(0 1.047918192e-11 5.084015595e-12)
(0 9.57967739e-12 4.14241331e-12)
(0 8.872991671e-12 3.126245536e-12)
(0 8.372724499e-12 2.048694703e-12)
(0 8.08898468e-12 9.238806153e-13)
(0 8.028239183e-12 -2.336889243e-13)
(0 8.193379697e-12 -1.409598463e-12)
(0 8.583927896e-12 -2.59008803e-12)
(0 9.19630705e-12 -3.762633496e-12)
(0 1.00241732e-11 -4.916651759e-12)
(0 1.105887273e-11 -6.044146779e-12)
(0 1.229011682e-11 -7.140275773e-12)
(0 1.370691012e-11 -8.203583281e-12)
(0 1.529865844e-11 -9.23592107e-12)
(0 1.705628141e-11 -1.024192924e-11)
(0 1.897311832e-11 -1.122826132e-11)
(0 2.104547266e-11 -1.220256357e-11)
(0 2.327274713e-11 -1.317244031e-11)
(0 2.565722109e-11 -1.41443952e-11)
(0 2.82035546e-11 -1.512291049e-11)
(0 3.09180814e-11 -1.610960169e-11)
(0 3.380790591e-11 -1.710259811e-11)
(0 3.6879805e-11 -1.809612159e-11)
(0 4.013896045e-11 -1.908045173e-11)
(0 4.358762337e-11 -2.004225046e-11)
(0 4.7223876e-11 -2.096535286e-11)
(0 5.104070103e-11 -2.183185467e-11)
(0 5.50255382e-11 -2.262343778e-11)
(0 5.916045227e-11 -2.332265329e-11)
(0 6.342291762e-11 -2.391408181e-11)
(0 6.778710198e-11 -2.438517475e-11)
(0 7.222536269e-11 -2.472682293e-11)
(0 7.670955041e-11 -2.493358138e-11)
(0 8.121172885e-11 -2.500366723e-11)
(0 8.570419952e-11 -2.493868993e-11)
(0 9.015914057e-11 -2.474321578e-11)
(0 9.45484534e-11 -2.442412421e-11)
(0 9.884400615e-11 -2.398984581e-11)
(0 1.030171758e-10 -2.344944557e-11)
(0 1.070349061e-10 -2.281159541e-11)
(0 1.108484965e-10 -2.208327534e-11)
(0 1.143710067e-10 -2.126791793e-11)
(0 1.174383339e-10 -2.036229888e-11)
(0 1.197482412e-10 -1.935122178e-11)
(0 1.207742073e-10 -1.819885249e-11)
(0 1.196574394e-10 -1.683597699e-11)
(0 1.150890154e-10 -1.514344205e-11)
(0 1.052107488e-10 -1.293396442e-11)
(0 8.745884695e-11 -9.935450741e-12)
(0 5.995130932e-11 -5.783573131e-12)
(0 2.115596939e-12 2.983722273e-25)
(0 3.393161286e-11 -3.643358961e-14)
(0 3.462421914e-11 -1.103237926e-13)
(0 3.533379396e-11 -1.855856795e-13)
(0 3.586408076e-11 -2.61702833e-13)
(0 3.62644423e-11 -3.381251831e-13)
(0 3.656813465e-11 -4.14284155e-13)
(0 3.680641911e-11 -4.896485494e-13)
(0 3.700501194e-11 -5.6375048e-13)
(0 3.718319443e-11 -6.361689155e-13)
(0 3.735423861e-11 -7.065192648e-13)
(0 3.752654606e-11 -7.744265242e-13)
(0 3.770498501e-11 -8.395195677e-13)
(0 3.789208509e-11 -9.014141504e-13)
(0 3.80889441e-11 -9.597157934e-13)
(0 3.829583531e-11 -1.014004804e-12)
(0 3.851257624e-11 -1.063835505e-12)
(0 3.873873038e-11 -1.108715758e-12)
(0 3.897370257e-11 -1.148105735e-12)
(0 3.921677058e-11 -1.181404685e-12)
(0 3.946708201e-11 -1.207963995e-12)
(0 3.972363967e-11 -1.227083814e-12)
(0 3.998529491e-11 -1.238027077e-12)
(0 4.025075578e-11 -1.240001556e-12)
(0 4.051860411e-11 -1.232154484e-12)
(0 4.078730767e-11 -1.213541531e-12)
(0 4.105521369e-11 -1.183126392e-12)
(0 4.132051856e-11 -1.139773989e-12)
(0 4.158122844e-11 -1.082278793e-12)
(0 4.18351306e-11 -1.009374941e-12)
(0 4.20797909e-11 -9.19758797e-13)
(0 4.23125755e-11 -8.120759951e-13)
(0 4.253067597e-11 -6.849230548e-13)
(0 4.273111015e-11 -5.368339414e-13)
(0 4.291068572e-11 -3.663118085e-13)
(0 4.306592973e-11 -1.718632937e-13)
(0 4.319301711e-11 4.792629015e-14)
(0 4.328773391e-11 2.943449849e-13)
(0 4.334549747e-11 5.685023997e-13)
(0 4.336142888e-11 8.713259587e-13)
(0 4.333044682e-11 1.203545669e-12)
(0 4.324734197e-11 1.565694927e-12)
(0 4.310680777e-11 1.958055012e-12)
(0 4.290342858e-11 2.380588404e-12)
(0 4.263165853e-11 2.832814503e-12)
(0 4.228582986e-11 3.31370297e-12)
(0 4.186022343e-11 3.821549046e-12)
(0 4.134920887e-11 4.35389872e-12)
(0 4.074743784e-11 4.907467337e-12)
(0 4.005005929e-11 5.47810172e-12)
(0 3.925293047e-11 6.060718651e-12)
(0 3.835280806e-11 6.649277572e-12)
(0 3.734752111e-11 7.236728076e-12)
(0 3.623613488e-11 7.815002961e-12)
(0 3.501911829e-11 8.374998399e-12)
(0 3.369852567e-11 8.906618773e-12)
(0 3.227820187e-11 9.398835034e-12)
(0 3.076401217e-11 9.83984787e-12)
(0 2.916408604e-11 1.021730562e-11)
(0 2.748904102e-11 1.051865049e-11)
(0 2.575213923e-11 1.073149992e-11)
(0 2.39693244e-11 1.084409522e-11)
(0 2.215910994e-11 1.084570102e-11)
(0 2.034231973e-11 1.072700741e-11)
(0 1.854171665e-11 1.048046172e-11)
(0 1.678156409e-11 1.010062759e-11)
(0 1.50871575e-11 9.584507692e-12)
(0 1.348433053e-11 8.931896957e-12)
(0 1.199891247e-11 8.145639427e-12)
(0 1.065609588e-11 7.231802017e-12)
(0 9.479696312e-12 6.199620761e-12)
(0 8.491334888e-12 5.061276607e-12)
(0 7.709638937e-12 3.83144062e-12)
(0 7.149586906e-12 2.52673852e-12)
(0 6.822094164e-12 1.165114676e-12)
(0 6.733855643e-12 -2.347849273e-13)
(0 6.887378342e-12 -1.654320368e-12)
(0 7.281110659e-12 -3.075613143e-12)
(0 7.909631552e-12 -4.482462325e-12)
(0 8.76396038e-12 -5.861282274e-12)
(0 9.832116776e-12 -7.20203088e-12)
(0 1.11000477e-11 -8.4988691e-12)
(0 1.255292576e-11 -9.750493959e-12)
(0 1.41766722e-11 -1.095996918e-11)
(0 1.595944378e-11 -1.213414712e-11)