/*--------------------------------*- C++ -*----------------------------------*\
  =========                 |
  \\      /  F ield         | OpenFOAM: The Open Source CFD Toolbox
   \\    /   O peration     | Website:  https://openfoam.org
    \\  /    A nd           | Version:  6
     \\/     M anipulation  |
\*---------------------------------------------------------------------------*/
FoamFile
{
    version     2.0;
    format      ascii;
    class       volScalarField;
    location    "0.0002";
    object      ViscousDissipation;
}
// * * * * * * * * * * * * * * * * * * * * * * * * * * * * * * * * * * * * * //

dimensions      [1 -1 -3 0 0 0 0];

internalField   nonuniform List<scalar> 
9600
(
8.914911644e-22
3.508863981e-21
2.929410994e-21
1.615933098e-21
9.730130258e-22
6.382381623e-22
4.789773651e-22
4.142973749e-22
4.012006349e-22
4.173847701e-22
4.509501085e-22
4.946266206e-22
5.438662525e-22
5.954159306e-22
6.471020014e-22
6.970084159e-22
7.436544052e-22
7.854366139e-22
8.210718972e-22
8.490948806e-22
8.683324629e-22
8.773290375e-22
8.748884494e-22
8.596113494e-22
8.30661998e-22
7.874154282e-22
7.302113631e-22
6.598268942e-22
5.780569978e-22
4.871810753e-22
3.90702261e-22
2.931234023e-22
2.008236516e-22
1.218603932e-22
6.656717631e-23
4.723009299e-23
7.852016725e-23
1.773787638e-22
3.633797412e-22
6.586329096e-22
1.087542337e-21
1.676295321e-21
2.451749001e-21
3.440591386e-21
4.667413463e-21
6.153651213e-21
7.914811098e-21
9.959443685e-21
1.228587562e-20
1.488169254e-20
1.772004344e-20
2.075936567e-20
2.393894473e-20
2.717963885e-20
3.038118471e-20
3.342779203e-20
3.619051594e-20
3.853808712e-20
4.034085903e-20
4.148126076e-20
4.185578235e-20
4.138622132e-20
4.002499839e-20
3.777095597e-20
3.467525924e-20
3.085059658e-20
2.646404051e-20
2.173109037e-20
1.689829667e-20
1.223306645e-20
8.008068923e-21
4.491310276e-21
1.929617983e-21
5.342870678e-22
4.656819656e-22
1.824802289e-21
4.653560345e-21
8.941562424e-21
1.464113948e-20
2.167893273e-20
2.997244521e-20
3.94365389e-20
4.999732374e-20
6.1593406e-20
7.41875801e-20
8.776156934e-20
1.023213928e-19
1.178795039e-19
1.34447652e-19
1.520041729e-19
1.704792443e-19
1.897212561e-19
2.094936491e-19
2.29458849e-19
2.491980238e-19
2.682158515e-19
2.859815692e-19
3.019535521e-19
3.156382665e-19
3.266200291e-19
3.345996866e-19
3.393758565e-19
3.40825636e-19
3.388599293e-19
3.334354835e-19
3.245765091e-19
3.123926579e-19
2.969473452e-19
2.779455802e-19
2.542229062e-19
2.232349386e-19
1.81120162e-19
1.253018756e-19
6.466866262e-20
4.767588074e-20
2.24559101e-19
9.673425683e-19
2.754288849e-18
1.108161592e-17
4.784482643e-18
1.059814461e-21
3.693364758e-21
3.093888436e-21
1.80749986e-21
1.167049043e-21
8.347504778e-22
6.770852884e-22
6.135954703e-22
6.006324606e-22
6.165208886e-22
6.490637428e-22
6.914800451e-22
7.389126961e-22
7.885493736e-22
8.378501223e-22
8.853417124e-22
9.291021991e-22
9.679635769e-22
1.000109296e-21
1.02451245e-21
1.039428479e-21
1.043912973e-21
1.036218224e-21
1.015511903e-21
9.803489473e-22
9.306005232e-22
8.658865561e-22
7.874404274e-22
6.963893397e-22
5.955709756e-22
4.879558404e-22
3.786085038e-22
2.733574762e-22
1.806700411e-22
1.103502705e-22
7.509585039e-23
8.933691488e-23
1.705375973e-22
3.38290887e-22
6.15097613e-22
1.025460969e-21
1.595741998e-21
2.353207202e-21
3.324804978e-21
4.536253883e-21
6.009469009e-21
7.761774029e-21
9.802036499e-21
1.213067523e-20
1.47349895e-20
1.759033928e-20
2.065433972e-20
2.386893832e-20
2.715395583e-20
3.041234628e-20
3.352669689e-20
3.637093423e-20
3.881046277e-20
4.071717185e-20
4.196836326e-20
4.246141599e-20
4.211275646e-20
4.087634028e-20
3.8746268e-20
3.577555881e-20
3.207222852e-20
2.780461858e-20
2.318367077e-20
1.845684726e-20
1.388808436e-20
9.751079137e-21
6.311952732e-21
3.818377478e-21
2.48097439e-21
2.459649407e-21
3.854731951e-21
6.70469745e-21
1.099718421e-20
1.667766731e-20
2.367085443e-20
3.188751549e-20
4.12457345e-20
5.167044568e-20
6.311230387e-20
7.553906568e-20
8.89501473e-20
1.033570288e-19
1.187891585e-19
1.352597302e-19
1.527611541e-19
1.712206851e-19
1.904967871e-19
2.103425229e-19
2.304210205e-19
2.50290792e-19
2.694464227e-19
2.873272683e-19
3.033812075e-19
3.170914009e-19
3.280432238e-19
3.359287792e-19
3.405606952e-19
3.418188561e-19
3.396356123e-19
3.339781052e-19
3.248992869e-19
3.125320196e-19
2.969837684e-19
2.780045283e-19
2.544971298e-19
2.239810734e-19
1.82612056e-19
1.276142846e-19
6.708799374e-20
4.73775541e-20
2.142083878e-19
9.307222274e-19
2.664499199e-18
1.110262849e-17
4.88294744e-18
9.843821425e-22
3.583642161e-21
2.991257653e-21
1.721460487e-21
1.085568011e-21
7.535898457e-22
5.955741536e-22
5.307610254e-22
5.165532517e-22
5.308596859e-22
5.61983893e-22
6.02745993e-22
6.48694808e-22
6.966338433e-22
7.444608416e-22
7.903058423e-22
8.327333689e-22
8.701426817e-22
9.01232644e-22
9.244866314e-22
9.387008993e-22
9.424112056e-22
9.344714132e-22
9.135300854e-22
8.787889476e-22
8.295674184e-22
7.661130762e-22
6.890606416e-22
6.001459784e-22
5.016194954e-22
3.970674446e-22
2.910074015e-22
1.898714278e-22
1.016351462e-22
3.669109575e-23
7.338679795e-24
2.853215155e-23
1.173583026e-22
2.937265089e-22
5.797556169e-22
1.000162958e-21
1.581286291e-21
2.350907499e-21
3.336715079e-21
4.565317542e-21
6.059970143e-21
7.838745896e-21
9.911938561e-21
1.228013032e-20
1.493206371e-20
1.784291051e-20
2.097226011e-20
2.426199723e-20
2.763463318e-20
3.099277667e-20
3.422134423e-20
3.719210414e-20
3.977087598e-20
4.182484252e-20
4.323018643e-20
4.387880143e-20
4.368662151e-20
4.260327782e-20
4.062360942e-20
3.779712701e-20
3.423261496e-20
3.00950629e-20
2.559601974e-20
2.0980656e-20
1.651424881e-20
1.247012802e-20
9.116357674e-21
6.701321467e-21
5.436198925e-21
5.480229059e-21
6.930043204e-21
9.819701013e-21
1.412758482e-20
1.979171265e-20
2.672551092e-20
3.483552289e-20
4.40347765e-20
5.425528574e-20
6.545463936e-20
7.762039932e-20
9.076770102e-20
1.049336617e-19
1.20164363e-19
1.364974953e-19
1.539380229e-19
1.724318541e-19
1.918396461e-19
2.11917858e-19
2.323107959e-19
2.525571463e-19
2.721116003e-19
2.903803196e-19
3.067692597e-19
3.207375716e-19
3.318473653e-19
3.39789142e-19
3.443753938e-19
3.455030663e-19
3.431196491e-19
3.372206568e-19
3.278873415e-19
3.152959438e-19
2.996016452e-19
2.806161813e-19
2.573083192e-19
2.272636782e-19
1.866514123e-19
1.325163609e-19
7.228767999e-20
5.073094235e-20
2.109222002e-19
9.153391866e-19
2.644074348e-18
1.118011469e-17
4.945911024e-18
9.30298578e-22
3.500526651e-21
2.913363938e-21
1.656698694e-21
1.026130047e-21
6.96375195e-22
5.386233511e-22
4.736639586e-22
4.590066662e-22
4.729989103e-22
5.038318582e-22
5.445123942e-22
5.904717353e-22
6.386715748e-22
6.869101209e-22
7.334985405e-22
7.769218197e-22
8.157848255e-22
8.486971671e-22
8.743395388e-22
8.913843648e-22
8.985653899e-22
8.946217456e-22
8.784609876e-22
8.492115552e-22
8.064872366e-22
7.504297476e-22
6.819186684e-22
6.025125788e-22
5.146870382e-22
4.218599812e-22
3.288473506e-22
2.419772868e-22
1.696002239e-22
1.220089221e-22
1.118548084e-22
1.53869481e-22
2.653743638e-22
4.659065539e-22
7.778393675e-22
1.225665336e-21
1.836420441e-21
2.638193004e-21
3.660019777e-21
4.929260076e-21
6.47082366e-21
8.3034944e-21
1.043912067e-20
1.287875815e-20
1.561270776e-20
1.861665482e-20
2.185207404e-20
2.52615283e-20
2.876954127e-20
3.227887254e-20
3.567541245e-20
3.882905967e-20
4.160421459e-20
4.386352709e-20
4.547995224e-20
4.634000443e-20
4.635702772e-20
4.547662462e-20
4.369274075e-20
4.105203818e-20
3.766305325e-20
3.368821484e-20
2.933935098e-20
2.486040094e-20
2.051889968e-20
1.658940923e-20
1.334376071e-20
1.103174955e-20
9.865762469e-21
1.000210376e-20
1.153221995e-20
1.448102731e-20
1.881576925e-20
2.44621574e-20
3.132198959e-20
3.929412034e-20
4.828880967e-20
5.824444846e-20
6.913227734e-20
8.096375935e-20
9.378236009e-20
1.076600342e-19
1.226762622e-19
1.389037604e-19
1.563748676e-19
1.750584652e-19
1.948222267e-19
2.154176186e-19
2.364614282e-19
2.574520782e-19
2.77786879e-19
2.968145328e-19
3.138821182e-19
3.28406048e-19
3.399163697e-19
3.480940996e-19
3.527530477e-19
3.538092209e-19
3.51233842e-19
3.450590084e-19
3.354064546e-19
3.225060998e-19
3.065683806e-19
2.874634832e-19
2.642065107e-19
2.344109748e-19
1.942090259e-19
1.404596814e-19
8.012135605e-20
5.719833742e-20
2.14714031e-19
9.186519456e-19
2.665460048e-18
1.130658573e-17
5.008808581e-18
9.057449056e-22
3.45373217e-21
2.871207453e-21
1.624837264e-21
1.000067085e-21
6.727338435e-22
5.160184243e-22
4.513863425e-22
4.370241691e-22
4.513621449e-22
4.827726031e-22
5.242341971e-22
5.712655637e-22
6.20805345e-22
6.70743377e-22
7.193973426e-22
7.653738976e-22
8.073069531e-22
8.439280489e-22
8.739193719e-22
8.960459419e-22
9.090310267e-22
9.11746339e-22
9.031551352e-22
8.825949931e-22
8.497543219e-22
8.049506588e-22
7.490486556e-22
6.837204192e-22
6.114101056e-22
5.357348283e-22
4.615886613e-22
3.956204685e-22
3.462745699e-22
3.241281634e-22
3.417822212e-22
4.141562596e-22
5.584240144e-22
7.944121713e-22
1.144526219e-21
1.633969052e-21
2.29022438e-21
3.142640139e-21
4.221056774e-21
5.554463044e-21
7.168695668e-21
9.084415483e-21
1.131451361e-20
1.386228966e-20
1.671923908e-20
1.986351936e-20
2.325754258e-20
2.68460307e-20
3.055358343e-20
3.428420321e-20
3.792223128e-20
4.133689647e-20
4.438830119e-20
4.693572523e-20
4.884527037e-20
4.999888905e-20
5.030316858e-20
4.970074245e-20
4.818086113e-20
4.578912929e-20
4.263060743e-20
3.886747825e-20
3.470942383e-20
3.040242674e-20
2.621553616e-20
2.242872514e-20
1.931745479e-20
1.713530303e-20
1.609353963e-20
1.634414535e-20
1.796923146e-20
2.098153655e-20
2.533427281e-20
3.09384526e-20
3.768356854e-20
4.545896048e-20
5.417388062e-20
6.377362721e-20
7.425052899e-20
8.56467654e-20
9.805007765e-20
1.115807945e-19
1.263731939e-19
1.425485927e-19
1.601837094e-19
1.792729653e-19
1.996936153e-19
2.211771214e-19
2.432992125e-19
2.654892849e-19
2.870654432e-19
3.072867445e-19
3.254220779e-19
3.40819771e-19
3.529692277e-19
3.615299045e-19
3.663221985e-19
3.672825517e-19
3.644218472e-19
3.578187737e-19
3.476559932e-19
3.342274723e-19
3.178111788e-19
2.983293607e-19
2.748268324e-19
2.449035366e-19
2.046150467e-19
1.506441381e-19
8.970760249e-20
6.587362593e-20
2.236862496e-19
9.362054853e-19
2.71147286e-18
1.148256574e-17
5.083305841e-18
9.006133376e-22
3.432312526e-21
2.854029952e-21
1.616793336e-21
9.970046307e-22
6.722109803e-22
5.165765296e-22
4.525694107e-22
4.387437313e-22
4.538022374e-22
4.861604792e-22
5.288745071e-22
5.774628813e-22
6.289254231e-22
6.81172531e-22
7.326140899e-22
7.819135179e-22
8.278179324e-22
8.6910784e-22
9.045496073e-22
9.329274116e-22
9.530555168e-22
9.638779442e-22
9.645382806e-22
9.545142108e-22
9.336827563e-22
9.024340355e-22
8.61731977e-22
8.132702339e-22
7.596476275e-22
7.046434013e-22
6.534749673e-22
6.130351839e-22
5.920548793e-22
6.011945072e-22
6.531834712e-22
7.629518163e-22
9.479567767e-22
1.228372787e-21
1.627398723e-21
2.17107635e-21
2.888111529e-21
3.808918258e-21
4.964718574e-21
6.385679847e-21
8.099361916e-21
1.012815969e-20
1.248756181e-20
1.518340778e-20
1.821035451e-20
2.154894124e-20
2.51639729e-20
2.900115306e-20
3.298598306e-20
3.702183998e-20
4.099241221e-20
4.476418647e-20
4.819389421e-20
5.113458819e-20
5.344570277e-20
5.500063869e-20
5.569900186e-20
5.547637175e-20
5.43176455e-20
5.226383488e-20
4.941739486e-20
4.593731207e-20
4.2032807e-20
3.795055784e-20
3.396426687e-20
3.035932245e-20
2.741717988e-20
2.5393378e-20
2.449666459e-20
2.487033262e-20
2.658376102e-20
2.963420982e-20
3.395860786e-20
3.945230049e-20
4.599067032e-20
5.345394408e-20
6.174994464e-20
7.083630659e-20
8.073315854e-20
9.152930751e-20
1.033736149e-19
1.16459915e-19
1.309981703e-19
1.471819514e-19
1.651437608e-19
1.849118187e-19
2.06363854e-19
2.291985134e-19
2.529216455e-19
2.768660102e-19
3.002321022e-19
3.221587073e-19
3.418010043e-19
3.58417814e-19
3.714369209e-19
3.804928602e-19
3.854113845e-19
3.861640659e-19
3.828157052e-19
3.755165764e-19
3.645298913e-19
3.5023638e-19
3.329914742e-19
3.127726312e-19
2.88638465e-19
2.581507402e-19
2.172637623e-19
1.62522662e-19
1.006298544e-19
7.631421667e-20
2.371623346e-19
9.636848702e-19
2.778982797e-18
1.1703534e-17
5.174634382e-18
9.099135315e-22
3.428751077e-21
2.855383466e-21
1.62631955e-21
1.011090934e-21
6.88540616e-22
5.339841951e-22
4.706105211e-22
4.574403338e-22
4.73348829e-22
5.068459523e-22
5.51017177e-22
6.014141228e-22
6.550702589e-22
7.099501665e-22
7.645383628e-22
8.17587563e-22
8.679362923e-22
9.144414681e-22
9.559326026e-22
9.912532331e-22
1.019305979e-21
1.03916543e-21
1.050153388e-21
1.051931623e-21
1.044536872e-21
1.028464326e-21
1.00475635e-21
9.752155314e-22
9.426360593e-22
9.111044649e-22
8.86196916e-22
8.751512787e-22
8.869159235e-22
9.322805523e-22
1.024041299e-21
1.177370301e-21
1.410194914e-21
1.74360896e-21
2.201972561e-21
2.81279987e-21
3.606170459e-21
4.613954374e-21
5.868629548e-21
7.402009151e-21
9.243545648e-21
1.141855416e-20
1.394592361e-20
1.683578648e-20
2.008670213e-20
2.368297658e-20
2.759165344e-20
3.176009034e-20
3.611383762e-20
4.055621175e-20
4.496923173e-20
4.921718902e-20
5.31517105e-20
5.66191971e-20
5.946919978e-20
6.156510995e-20
6.279568436e-20
6.30881588e-20
6.241957375e-20
6.082550429e-20
5.840258973e-20
5.530623025e-20
5.174305715e-20
4.796158128e-20
4.423979695e-20
4.087007358e-20
3.813850708e-20
3.630105031e-20
3.555954474e-20
3.604460138e-20
3.78087989e-20
4.083131677e-20
4.503112743e-20
5.028599144e-20
5.645596521e-20
6.341070767e-20
7.10595036e-20
7.937875126e-20
8.843177398e-20
9.837443526e-20
1.09445721e-19
1.219424716e-19
1.361820014e-19
1.524532185e-19
1.709613154e-19
1.917691571e-19
2.147461673e-19
2.395328345e-19
2.655334043e-19
2.9194019e-19
3.177921932e-19
3.420589832e-19
3.637418695e-19
3.819741071e-19
3.96103062e-19
4.057294738e-19
4.106941654e-19
4.110211551e-19
4.068588833e-19
3.984594447e-19
3.862006035e-19
3.705759855e-19
3.520391193e-19
3.306289353e-19
3.054141713e-19
2.739037796e-19
2.319464552e-19
1.7599306e-19
1.129147116e-19
8.86219171e-20
2.543070914e-19
1.000645387e-18
2.861837449e-18
1.1973573e-17
5.283736914e-18
9.30833823e-22
3.438870561e-21
2.871092049e-21
1.650151121e-21
1.039141594e-21
7.186735966e-22
5.650795937e-22
5.023309144e-22
4.898393191e-22
5.066770075e-22
5.414184821e-22
5.871862382e-22
6.395535875e-22
6.955963888e-22
7.533360111e-22
8.113412454e-22
8.684546774e-22
9.236108559e-22
9.757453659e-22
1.023763114e-21
1.066587134e-21
1.103237893e-21
1.132948757e-21
1.155239175e-21
1.169961024e-21
1.177311091e-21
1.177897488e-21
1.172883364e-21
1.164244467e-21
1.155071105e-21
1.149835389e-21
1.154538398e-21
1.176752159e-21
1.22564492e-21
1.312123079e-21
1.449183006e-21
1.652450457e-21
1.940768372e-21
2.336579722e-21
2.865955441e-21
3.558178422e-21
4.445042402e-21
5.559935817e-21
6.936964605e-21
8.609935532e-21
1.061123444e-20
1.29701194e-20
1.571052043e-20
1.884800534e-20
2.238647591e-20
2.631452909e-20
3.060236144e-20
3.51990144e-20
4.003091211e-20
4.500120458e-20
4.999093943e-20
5.486135775e-20
5.945854485e-20
6.361970216e-20
6.718257728e-20
6.99968453e-20
7.193813075e-20
7.292159362e-20
7.291428268e-20
7.194254114e-20
7.009502273e-20
6.752013667e-20
6.442081971e-20
6.104569055e-20
5.767712358e-20
5.461280395e-20
5.214154392e-20
5.051517004e-20
4.992387251e-20
5.048052628e-20
5.2217389e-20
5.509297179e-20
5.900572019e-20
6.381289456e-20
6.935569714e-20
7.549274606e-20
8.213898351e-20
8.930361992e-20
9.711602775e-20
1.058329775e-19
1.158225395e-19
1.275274203e-19
1.414098053e-19
1.578843411e-19
1.772434589e-19
1.995853876e-19
2.247531974e-19
2.522984105e-19
2.814768538e-19
3.112850953e-19
3.405352109e-19
3.679634406e-19
3.923565482e-19
4.126785313e-19
4.281696363e-19
4.383947273e-19
4.432251692e-19
4.427712825e-19
4.373066004e-19
4.272329314e-19
4.130866441e-19
3.955137322e-19
3.750929004e-19
3.519408361e-19
3.251397582e-19
2.921437406e-19
2.486973477e-19
1.911965552e-19
1.268218686e-19
1.029504421e-19
2.754530621e-19
1.044838466e-18
2.963211784e-18
1.229012233e-17
5.413146091e-18
9.616531241e-22
3.459712105e-21
2.89848593e-21
1.68600458e-21
1.079223828e-21
7.607493646e-22
6.080777038e-22
5.459403738e-22
5.341699104e-22
5.520171286e-22
5.881264271e-22
6.356464833e-22
6.901767372e-22
7.488352551e-22
8.097088207e-22
8.714522215e-22
9.330032979e-22
9.933948373e-22
1.051649803e-21
1.106765814e-21
1.157772363e-21
1.203839868e-21
1.244388291e-21
1.279145913e-21
1.308159148e-21
1.331789346e-21
1.350789766e-21
1.366504069e-21
1.3811766e-21
1.398282431e-21
1.422746032e-21
1.461000668e-21
1.520945729e-21
1.611961928e-21
1.745164195e-21
1.933958414e-21
2.194807025e-21
2.547916465e-21
3.017562362e-21
3.631869948e-21
4.422164902e-21
5.422100741e-21
6.666897585e-21
8.192783247e-21
1.003655553e-20
1.223478519e-20
1.482228411e-20
1.782944914e-20
2.127869544e-20
2.518023718e-20
2.95280376e-20
3.429628264e-20
3.943696562e-20
4.487837589e-20
5.052468221e-20
5.625620231e-20
6.193095998e-20
6.738783537e-20
7.245279918e-20
7.694858912e-20
8.070827782e-20
8.359068577e-20
8.549568597e-20
8.637607444e-20
8.624503147e-20
8.517846965e-20
8.331410844e-20
8.084754571e-20
7.8025245e-20
7.513121222e-20
7.24654876e-20
7.031469947e-20
6.89208524e-20
6.845628717e-20
6.901121285e-20
7.059370225e-20
7.313791294e-20
7.651681138e-20
8.0560545e-20
8.508582517e-20
8.993931566e-20
9.505111475e-20
1.004856994e-19
1.064759852e-19
1.134289564e-19
1.218993385e-19
1.325330624e-19
1.459877672e-19
1.62838769e-19
1.834821715e-19
2.080463304e-19
2.363237169e-19
2.677326637e-19
3.013187797e-19
3.358026651e-19
3.696778491e-19
4.013519772e-19
4.293141634e-19
4.522984921e-19
4.694101956e-19
4.801821727e-19
4.845497117e-19
4.82762035e-19
4.75282484e-19
4.627288143e-19
4.458585497e-19
4.255216118e-19
4.024608647e-19
3.768950781e-19
3.479325104e-19
3.129756102e-19
2.676690505e-19
2.083744103e-19
1.426607753e-19
1.196836722e-19
3.001837266e-19
1.097777957e-18
3.07842444e-18
1.266027621e-17
5.562837425e-18
1.001154889e-21
3.489349665e-21
2.935624128e-21
1.732322886e-21
1.129984226e-21
8.135753897e-22
6.618510343e-22
6.003716025e-22
5.894009523e-22
6.083835738e-22
6.460300515e-22
6.95517774e-22
7.524726713e-22
8.14060521e-22
8.784372452e-22
9.443474485e-22
1.0108305e-21
1.07702036e-21
1.142042014e-21
1.205006796e-21
1.265086159e-21
1.321632857e-21
1.374277e-21
1.422966513e-21
1.467946744e-21
1.509763284e-21
1.54936743e-21
1.588369526e-21
1.62938777e-21
1.676360409e-21
1.734698342e-21
1.81125635e-21
1.914245874e-21
2.05331251e-21
2.239966884e-21
2.488381158e-21
2.816319601e-21
3.245836441e-21
3.803409302e-21
4.519455492e-21
5.427464312e-21
6.563177281e-21
7.964151417e-21
9.669758961e-21
1.172122519e-20
1.41610755e-20
1.703135943e-20
2.037047813e-20
2.420887189e-20
2.856429143e-20
3.343736417e-20
3.88080844e-20
4.463335646e-20
5.084545879e-20
5.735099944e-20
6.40302877e-20
7.073744795e-20
7.730265577e-20
8.353804028e-20
8.924855523e-20
9.424719437e-20
9.837238947e-20
1.01504008e-19
1.035753551e-19
1.045800473e-19
1.04574978e-19
1.036808258e-19
1.020806003e-19
1.000136264e-19
9.776090983e-20
9.561910202e-20
9.386604045e-20
9.272653312e-20
9.234852747e-20
9.279413209e-20
9.404207497e-20
9.59950376e-20
9.848981526e-20
1.013167082e-19
1.04257651e-19
1.071468724e-19
1.099451149e-19
1.128084467e-19
1.161304375e-19
1.205431555e-19
1.268718999e-19
1.360480351e-19
1.48991748e-19
1.664822385e-19
1.890340184e-19
2.167941745e-19
2.494687571e-19
2.862834219e-19
3.259861952e-19
3.669065174e-19
4.070825852e-19
4.444541067e-19
4.770928415e-19
5.034245689e-19
5.223911376e-19
5.335147625e-19
5.368541203e-19
5.328820755e-19
5.223465679e-19
5.061754825e-19
4.854313519e-19
4.612373711e-19
4.34552191e-19
4.057316357e-19
3.739295268e-19
3.36504243e-19
2.889974734e-19
2.277366715e-19
1.607234076e-19
1.390041819e-19
3.29258815e-19
1.157685498e-18
3.213383745e-18
1.308203636e-17
5.735864008e-18
1.048578169e-21
3.526472814e-21
2.981243256e-21
1.788037611e-21
1.190547124e-21
8.763922575e-22
7.257320542e-22
6.650165987e-22
6.549821475e-22
6.752770656e-22
7.146881104e-22
7.664245029e-22
8.261427631e-22
8.91060385e-22
9.594083158e-22
1.030027704e-21
1.102062935e-21
1.174756365e-21
1.247353212e-21
1.319106555e-21
1.389367578e-21
1.457702669e-21
1.523976522e-21
1.588363492e-21
1.651323121e-21
1.713621427e-21
1.776482922e-21
1.841890151e-21
1.912935713e-21
1.994086626e-21
2.091250834e-21
2.211683898e-21
2.363927163e-21
2.55803171e-21
2.80622379e-21
3.123907779e-21
3.530675882e-21
4.05086698e-21
4.713420027e-21
5.551142282e-21
6.5998167e-21
7.897677756e-21
9.485572659e-21
1.140755493e-20
1.371124851e-20
1.644715281e-20
1.966636873e-20
2.341675567e-20
2.773814886e-20
3.265741693e-20
3.818406142e-20
4.430665497e-20
5.099014294e-20
5.817359247e-20
6.576809831e-20
7.365470385e-20
8.168322419e-20
8.967359108e-20
9.742199466e-20
1.047128365e-19
1.113357057e-19
1.171040285e-19
1.218716419e-19
1.255445291e-19
1.280877825e-19
1.295296177e-19
1.299644426e-19
1.295541526e-19
1.285234286e-19
1.271429688e-19
1.25698458e-19
1.244508066e-19
1.235998822e-19
1.232625335e-19
1.234663673e-19
1.241518238e-19
1.251752497e-19
1.263158781e-19
1.273001101e-19
1.27856996e-19
1.278063292e-19
1.271631396e-19
1.262301823e-19
1.256495219e-19
1.263932329e-19
1.296856771e-19
1.368646525e-19
1.492052042e-19
1.677409552e-19
1.931139805e-19
2.254662156e-19
2.643669081e-19
3.087679699e-19
3.5699707e-19
4.068213626e-19
4.55616706e-19
5.006444617e-19
5.393873167e-19
5.698613171e-19
5.908254863e-19
6.018442755e-19
6.032047852e-19
5.957361606e-19
5.806105449e-19
5.591964419e-19
5.329741735e-19
5.034307964e-19
4.718089684e-19
4.386484013e-19
4.031757459e-19
3.627124937e-19
3.126859186e-19
2.493602365e-19
1.811518465e-19
1.612040252e-19
3.621832948e-19
1.226931281e-18
3.362796297e-18
1.356500985e-17
5.932248955e-18
1.103559689e-21
3.570396658e-21
3.034621775e-21
1.852572734e-21
1.260455301e-21
9.488495656e-22
7.994471602e-22
7.39668871e-22
7.307614928e-22
7.525996945e-22
7.940592934e-22
8.48385348e-22
9.112733451e-22
9.799974563e-22
1.052872378e-21
1.12884028e-21
1.207155769e-21
1.287183232e-21
1.368307443e-21
1.449957339e-21
1.531700163e-21
1.61334897e-21
1.695020671e-21
1.777132632e-21
1.860384206e-21
1.945818559e-21
2.035027561e-21
2.130475107e-21
2.235823264e-21
2.356112618e-21
2.497747228e-21
2.668385449e-21
2.876988534e-21
3.134269401e-21
3.453604733e-21
3.852185671e-21
4.351948166e-21
4.97986094e-21
5.767467686e-21
6.750037918e-21
7.965920553e-21
9.456652337e-21
1.126785672e-20
1.345035264e-20
1.606049897e-20
1.915896549e-20
2.280773421e-20
2.706576936e-20
3.198415328e-20
3.7601407e-20
4.393928152e-20
5.099899129e-20
5.875766996e-20
6.716482318e-20
7.613860353e-20
8.556217586e-20
9.528125644e-20
1.05104935e-19
1.148120868e-19
1.24164375e-19
1.329243027e-19
1.408744931e-19
1.478341896e-19
1.536708179e-19
1.583075883e-19
1.617297762e-19
1.639915728e-19
1.652213188e-19
1.656183889e-19
1.654339381e-19
1.64934124e-19
1.64355047e-19
1.63864955e-19
1.635435422e-19
1.633752671e-19
1.632454934e-19
1.629351826e-19
1.621258073e-19
1.604365195e-19
1.575101235e-19
1.531438502e-19
1.474382503e-19
1.409240321e-19
1.346275745e-19
1.300438268e-19
1.290006506e-19
1.334275822e-19
1.450815797e-19
1.653030631e-19
1.948521076e-19
2.338198243e-19
2.815699883e-19
3.36675594e-19
3.968716757e-19
4.591052021e-19
5.197666613e-19
5.751137518e-19
6.217884738e-19
6.572708895e-19
6.801443948e-19
6.901304236e-19
6.879255053e-19
6.749227848e-19
6.529218581e-19
6.239121153e-19
5.899407029e-19
5.52976151e-19
5.146333291e-19
4.756967326e-19
4.354998059e-19
3.913330668e-19
3.384806331e-19
2.730827222e-19
2.039113782e-19
1.861817805e-19
3.997075944e-19
1.303233425e-18
3.534135854e-18
1.410678943e-17
6.155888966e-18
1.166083528e-21
3.620844489e-21
3.095481586e-21
1.925732129e-21
1.339609026e-21
1.03092946e-21
8.830515084e-22
8.244444503e-22
8.169085956e-22
8.405735132e-22
8.844155868e-22
9.417278132e-22
1.008249701e-21
1.081321938e-21
1.159351459e-21
1.241386071e-21
1.326800934e-21
1.415095617e-21
1.505821851e-21
1.598618432e-21
1.693304616e-21
1.789968323e-21
1.889001253e-21
1.991085974e-21
2.097204026e-21
2.20875183e-21
2.327792627e-21
2.457380504e-21
2.601823769e-21
2.766768683e-21
2.959124901e-21
3.187013319e-21
3.460008389e-21
3.789858939e-21
4.19162897e-21
4.684864946e-21
5.294295678e-21
6.049755115e-21
6.98548728e-21
8.139416811e-21
9.553097429e-21
1.127271283e-20
1.335074095e-20
1.584727675e-20
1.882995192e-20
2.237187297e-20
2.654794313e-20
3.143042621e-20
3.708454225e-20
4.356437401e-20
5.090881025e-20
5.91370979e-20
6.824386809e-20
7.819371455e-20
8.891558604e-20
1.002975166e-19
1.12183034e-19
1.243714844e-19
1.36624572e-19
1.4867976e-19
1.602683809e-19
1.711344416e-19
1.810503056e-19
1.898281965e-19
1.973294707e-19
2.034750959e-19
2.082586603e-19
2.117575393e-19
2.141322039e-19
2.156040007e-19
2.16411924e-19
2.167622222e-19
2.167887115e-19
2.165301876e-19
2.1591578e-19
2.14746299e-19
2.126757599e-19
2.092176882e-19
2.038078424e-19
1.959396789e-19
1.853604629e-19
1.722881334e-19
1.575954477e-19
1.429045357e-19
1.305332622e-19
1.232518362e-19
1.238752349e-19
1.348154319e-19
1.577543591e-19
1.935127331e-19
2.420470431e-19
3.024320269e-19
3.727400782e-19
4.498782786e-19
5.295758656e-19
6.06715433e-19
6.760283196e-19
7.329390468e-19
7.742447752e-19
7.984296494e-19
8.056056832e-19
7.97190845e-19
7.754668207e-19
7.431550522e-19
7.031101729e-19
6.58139406e-19
6.108415755e-19
5.633150508e-19
5.166651708e-19
4.703723206e-19
4.216953532e-19
3.65727434e-19
2.983770202e-19
2.286219568e-19
2.138145033e-19
4.407745982e-19
1.389066066e-18
3.720199141e-18
1.471875667e-17
6.406817352e-18
1.236360216e-21
3.677874245e-21
3.16384019e-21
2.007598139e-21
1.428157518e-21
1.122851559e-21
9.768282115e-22
9.19681008e-22
9.138151996e-22
9.396392989e-22
9.86246763e-22
1.046989011e-21
1.117660106e-21
1.195678897e-21
1.279549074e-21
1.368435603e-21
1.461844036e-21
1.559429388e-21
1.660938951e-21
1.766254641e-21
1.875482016e-21
1.989010606e-21
2.107531437e-21
2.232027282e-21
2.36382218e-21
2.504757485e-21
2.657475334e-21
2.825717268e-21
3.014497606e-21
3.230100414e-21
3.479989899e-21
3.772896522e-21
4.119316147e-21
4.532526482e-21
5.029856377e-21
5.633731418e-21
6.372012893e-21
7.27756864e-21
8.38751128e-21
9.742928632e-21
1.138976001e-20
1.338081042e-20
1.577799213e-20
1.865347159e-20
2.208877339e-20
2.617186113e-20
3.099312856e-20
3.664141768e-20
4.320053028e-20
5.074580873e-20
5.933986937e-20
6.902692895e-20
7.98258939e-20
9.172283445e-20
1.046634174e-19
1.18546014e-19
1.332168839e-19
1.484697002e-19
1.640515565e-19
1.796754736e-19
1.950369373e-19
2.098304018e-19
2.237632153e-19
2.365673165e-19
2.480121568e-19
2.579227758e-19
2.662029698e-19
2.728556463e-19
2.779857308e-19
2.817745987e-19
2.844300675e-19
2.86130851e-19
2.869829488e-19
2.869875269e-19
2.86004631e-19
2.837061835e-19
2.795376064e-19
2.727299366e-19
2.624035611e-19
2.477794462e-19
2.284750379e-19
2.048325499e-19
1.782114201e-19
1.511558948e-19
1.273111822e-19
1.109742088e-19
1.063303139e-19
1.166788045e-19
1.440109624e-19
1.890419477e-19
2.514486237e-19
3.29943576e-19
4.219991878e-19
5.233877874e-19
6.279866643e-19
7.282800452e-19
8.165909699e-19
8.865482727e-19
9.341292731e-19
9.579628413e-19
9.59018662e-19
9.399746296e-19
9.045071923e-19
8.566795518e-19
8.005337579e-19
7.398768563e-19
6.781177289e-19
6.179716702e-19
5.609551154e-19
5.067388258e-19
4.525407248e-19
3.931841424e-19
3.241808647e-19
2.544772754e-19
2.432855418e-19
4.855813638e-19
1.480696471e-18
3.92914874e-18
1.539681553e-17
6.689776855e-18
1.314742656e-21
3.741682961e-21
3.23989131e-21
2.098407649e-21
1.526397551e-21
1.22497415e-21
1.081190042e-21
1.025847779e-21
1.022000853e-21
1.050363475e-21
1.100164204e-21
1.164823772e-21
1.240206714e-21
1.323817681e-21
1.4142687e-21
1.51085078e-21
1.613214907e-21
1.721195506e-21
1.834763897e-21
1.954080791e-21
2.079565114e-21
2.211937414e-21
2.352217686e-21
2.501736888e-21
2.662239763e-21
2.836112941e-21
3.026684189e-21
3.238461771e-21
3.477220239e-21
3.749927289e-21
4.064720144e-21
4.431188934e-21
4.861185954e-21
5.37007687e-21
5.978025961e-21
6.710762997e-21
7.599531647e-21
8.680411992e-21
9.993803334e-21
1.15849704e-20
1.350607913e-20
1.581912725e-20
1.859840588e-20
2.193106517e-20
2.591526644e-20
3.065669383e-20
3.62648216e-20
4.284997911e-20
5.052102281e-20
5.93823242e-20
6.952880815e-20
8.103860415e-20
9.396405917e-20
1.083221554e-19
1.24085066e-19
1.411715055e-19
1.59440289e-19
1.786883401e-19
1.986546539e-19
2.190297312e-19
2.394675216e-19
2.595970527e-19
2.790332358e-19
2.973897422e-19
3.142992522e-19
3.294447121e-19
3.425988469e-19
3.53657846e-19
3.626496436e-19
3.697056312e-19
3.750056385e-19
3.787186017e-19
3.809509287e-19
3.816903562e-19
3.807265704e-19
3.775536262e-19
3.712969578e-19
3.607283426e-19
3.444245891e-19
3.210873804e-19
2.899946605e-19
2.515218816e-19
2.076533348e-19
1.623396669e-19
1.21413838e-19
9.17485417e-20
7.974605041e-20
8.990599691e-20
1.243212232e-19
1.832044821e-19
2.657203729e-19
3.702453053e-19
4.936922115e-19
6.30327099e-19
7.711027911e-19
9.044819824e-19
1.018801138e-18
1.104991041e-18
1.158197164e-18
1.177840191e-18
1.166678e-18
1.129579815e-18
1.072398879e-18
1.001121269e-18
9.213758346e-19
8.382415068e-19
7.56133926e-19
6.785325117e-19
6.074641972e-19
5.428345731e-19
4.817968785e-19
4.18791007e-19
3.48681316e-19
2.799735488e-19
2.734687433e-19
5.317434507e-19
1.579733787e-18
4.150317867e-18
1.615306418e-17
7.004637334e-18
1.401638177e-21
3.812590373e-21
3.323915578e-21
2.198481268e-21
1.634698093e-21
1.337714794e-21
1.196611244e-21
1.143470398e-21
1.142037781e-21
1.173362943e-21
1.226824521e-21
1.295932147e-21
1.376631667e-21
1.466524667e-21
1.564343656e-21
1.669518006e-21
1.781863543e-21
1.901418218e-21
2.028409827e-21
2.163305942e-21
2.306869685e-21
2.460178992e-21
2.624620399e-21
2.80193819e-21
2.99438854e-21
3.205010827e-21
3.437910407e-21
3.698435359e-21
3.993170684e-21
4.329864042e-21
4.717519519e-21
5.166957831e-21
5.691912672e-21
6.310425923e-21
7.04599708e-21
7.927997026e-21
8.991257389e-21
1.027541016e-20
1.182497865e-20
1.369106596e-20
1.593455729e-20
1.862969264e-20
2.186631079e-20
2.574956649e-20
3.039733159e-20