/*--------------------------------*- C++ -*----------------------------------*\
  =========                 |
  \\      /  F ield         | OpenFOAM: The Open Source CFD Toolbox
   \\    /   O peration     | Website:  https://openfoam.org
    \\  /    A nd           | Version:  6
     \\/     M anipulation  |
\*---------------------------------------------------------------------------*/
FoamFile
{
    version     2.0;
    format      ascii;
    class       volScalarField;
    location    "0.005";
    object      ViscousDissipation;
}
// * * * * * * * * * * * * * * * * * * * * * * * * * * * * * * * * * * * * * //

dimensions      [1 -1 -3 0 0 0 0];

internalField   nonuniform List<scalar> 
9600
(
4.591145309e-21
2.198176007e-20
3.677510686e-20
5.09518408e-20
6.813090941e-20
8.764835108e-20
1.092890494e-19
1.327896217e-19
1.578559623e-19
1.841556488e-19
2.113251209e-19
2.389590166e-19
2.66617549e-19
2.938149066e-19
3.200288746e-19
3.44691757e-19
3.672059312e-19
3.869403888e-19
4.032530876e-19
4.154924067e-19
4.230254145e-19
4.252457387e-19
4.216127336e-19
4.116736099e-19
3.95119384e-19
3.71822941e-19
3.419074222e-19
3.057944794e-19
2.64281566e-19
2.186029152e-19
1.705196438e-19
1.223939162e-19
7.728073164e-20
3.899434928e-20
1.217347779e-20
2.313903499e-21
1.578231083e-20
5.979076249e-20
1.423244399e-19
2.720136303e-19
4.579214218e-19
7.09263746e-19
1.035016822e-18
1.443464195e-18
1.941618402e-18
2.53461256e-18
3.224978365e-18
4.011962997e-18
4.890783425e-18
5.852031053e-18
6.881095488e-18
7.957879023e-18
9.056637874e-18
1.014628783e-17
1.119096757e-17
1.215122667e-17
1.298551807e-17
1.365231148e-17
1.411235112e-17
1.433133865e-17
1.428248124e-17
1.394920252e-17
1.332738346e-17
1.242738159e-17
1.127509569e-17
9.91232179e-18
8.395774391e-18
6.795237845e-18
5.19051276e-18
3.66781651e-18
2.315471614e-18
1.219540347e-18
4.59346183e-19
1.035251787e-19
2.066901557e-19
8.072222358e-19
1.926211421e-18
3.567651791e-18
5.719698498e-18
8.356680188e-18
1.144162556e-17
1.492879863e-17
1.876613866e-17
2.289704077e-17
2.726160396e-17
3.17968331e-17
3.643622912e-17
4.110840707e-17
4.573551515e-17
5.02313102e-17
5.449993906e-17
5.843539784e-17
6.192268513e-17
6.484043924e-17
6.706568223e-17
6.848014913e-17
6.897834712e-17
6.847661292e-17
6.692279655e-17
6.43057002e-17
6.066347175e-17
5.60904871e-17
5.074225035e-17
4.483894497e-17
3.866729119e-17
3.258131372e-17
2.700052578e-17
2.24063084e-17
1.933582576e-17
1.837628733e-17
2.015881991e-17
2.535359133e-17
3.466383302e-17
4.881735711e-17
6.855397663e-17
9.458768005e-17
1.277086845e-16
1.653285232e-16
2.456741937e-16
7.767560432e-17
1.070528164e-20
2.822713805e-20
4.305235014e-20
5.730875822e-20
7.448236577e-20
9.398456262e-20
1.156062331e-19
1.390936331e-19
1.641452369e-19
1.904386606e-19
2.176029983e-19
2.452445313e-19
2.729162027e-19
3.001453654e-19
3.264026957e-19
3.511351603e-19
3.737381784e-19
3.935964659e-19
4.100606822e-19
4.224953114e-19
4.302596761e-19
4.327639857e-19
4.294601348e-19
4.199124852e-19
4.038047375e-19
3.810260611e-19
3.516914955e-19
3.162370284e-19
2.754519381e-19
2.305834688e-19
1.83386167e-19
1.362340863e-19
9.217828285e-20
5.504379934e-20
2.947049879e-20
2.096586509e-20
3.590692724e-20
8.152026808e-20
1.6581404e-19
2.974379192e-19
4.854969484e-19
7.392383166e-19
1.067710487e-18
1.479248235e-18
1.980973102e-18
2.5780867e-18
3.27325881e-18
4.065806204e-18
4.951095745e-18
5.919769445e-18
6.957361623e-18
8.043788845e-18
9.153430586e-18
1.025516049e-17
1.131319401e-17
1.228795188e-17
1.313788511e-17
1.38212252e-17
1.429863117e-17
1.45354861e-17
1.450488551e-17
1.418993785e-17
1.358646785e-17
1.270459564e-17
1.157026141e-17
1.022512773e-17
8.726045514e-18
7.14275981e-18
5.555261725e-18
4.04976367e-18
2.714727454e-18
1.636118078e-18
8.931936141e-19
5.542602493e-19
6.735394053e-19
1.288782573e-18
2.420355194e-18
4.071403374e-18
6.229208052e-18
8.867333635e-18
1.194820062e-17
1.542587779e-17
1.924845019e-17
2.336006585e-17
2.770191398e-17
3.22126209e-17
3.682738577e-17
4.147673638e-17
4.608441665e-17
5.056559783e-17
5.482516578e-17
5.875734898e-17
6.224653362e-17
6.517015079e-17
6.740336834e-17
6.882575724e-17
6.932960521e-17
6.882923762e-17
6.727111737e-17
6.464322765e-17
6.098390466e-17
5.638822185e-17
5.101336838e-17
4.508131095e-17
3.88812847e-17
3.276939489e-17
2.716767956e-17
2.255915126e-17
1.948290805e-17
1.852708737e-17
2.032425817e-17
2.554552388e-17
3.489610209e-17
4.910741419e-17
6.892592852e-17
9.508540162e-17
1.284269978e-16
1.665011142e-16
2.497894282e-16
7.951543969e-17
1.804666304e-20
3.559814302e-20
5.05192401e-20
6.489425307e-20
8.214309863e-20
1.016992616e-19
1.233779421e-19
1.469255343e-19
1.720557923e-19
1.984421286e-19
2.257283021e-19
2.53515965e-19
2.81374161e-19
3.088260991e-19
3.353603721e-19
3.604205697e-19
3.834216695e-19
4.037452762e-19
4.207621661e-19
4.338330113e-19
4.423370333e-19
4.456800932e-19
4.433340035e-19
4.348585555e-19
4.199562206e-19
3.985096681e-19
3.706488479e-19
3.368000364e-19
2.977629832e-19
2.547735733e-19
2.0959352e-19
1.645857302e-19
1.228056286e-19
8.806957843e-20
6.502134166e-20
5.916766759e-20
7.689411643e-20
1.254418988e-19
2.128387687e-19
3.4777498e-19
5.393984387e-19
7.970410849e-19
1.129835125e-18
1.546261439e-18
2.053573493e-18
2.657179399e-18
3.359914481e-18
4.161340668e-18
5.056993521e-18
6.037766533e-18
7.08932842e-18
8.191813575e-18
9.319654426e-18
1.044185492e-17
1.152254033e-17
1.252210878e-17
1.339871944e-17
1.411039036e-17
1.461729198e-17
1.488445991e-17
1.48844212e-17
1.459995531e-17
1.402640885e-17
1.317373855e-17
1.206761473e-17
1.074976985e-17
9.277027778e-18
7.719419482e-18
6.157091212e-18
4.67662106e-18
3.366606356e-18
2.313180096e-18
1.595407259e-18
1.28125067e-18
1.424154325e-18
2.060852346e-18
3.210329285e-18
4.874194769e-18
7.038107557e-18
9.674158834e-18
1.27436804e-17
1.620022881e-17
1.999221161e-17
2.406493118e-17
2.83616659e-17
3.282378192e-17
3.738976525e-17
4.199349707e-17
4.656191479e-17
5.10127233e-17
5.525244685e-17
5.917573284e-17
6.266605691e-17
6.559868639e-17
6.784550485e-17
6.92822725e-17
6.979720412e-17
6.930121391e-17
6.773803718e-17
6.509453391e-17
6.140898539e-17
5.677824956e-17
5.136201731e-17
4.53862042e-17
3.914391815e-17
3.299593847e-17
2.736806967e-17
2.27473458e-17
1.967551871e-17
1.874360435e-17
2.058604921e-17
2.587679456e-17
3.53246164e-17
4.966793629e-17
6.966787173e-17
9.608785316e-17
1.29849551e-16
1.686375247e-16
2.53666847e-16
8.085746995e-17
2.789566894e-20
4.547388021e-20
6.048490388e-20
7.498900752e-20
9.235778478e-20
1.120281132e-19
1.338201098e-19
1.574944287e-19
1.82770229e-19
2.093330848e-19
2.368311828e-19
2.648784758e-19
2.930492809e-19
3.208803684e-19
3.478673125e-19
3.734690051e-19
3.971091268e-19
4.181856665e-19
4.360786313e-19
4.501647916e-19
4.598322476e-19
4.645026114e-19
4.636567577e-19
4.568698744e-19
4.438525034e-19
4.244995705e-19
3.98944811e-19
3.676210487e-19
3.313270361e-19
2.913007193e-19
2.4930027e-19
2.076878495e-19
1.695139268e-19
1.385922624e-19
1.195628439e-19
1.179327668e-19
1.400927968e-19
1.932972364e-19
2.85600364e-19
4.257331329e-19
6.229100712e-19
8.865527541e-19
1.225922285e-18
1.649656428e-18
2.165210891e-18
2.77821812e-18
3.491778737e-18
4.305725627e-18
5.215893016e-18
6.213452694e-18
7.284356302e-18
8.408963485e-18
9.561903006e-18
1.071227125e-17
1.182421822e-17
1.285801722e-17
1.377160691e-17
1.452261666e-17
1.507075161e-17
1.538046028e-17
1.542369346e-17
1.518263343e-17
1.46521496e-17
1.384178738e-17
1.277699134e-17
1.149936608e-17
1.006580158e-17
8.546467862e-18
7.021784662e-18
5.578567007e-18
4.30562382e-18
3.289058832e-18
2.607660674e-18
2.328670504e-18
2.504418226e-18
3.170024583e-18
4.342535107e-18
6.021321387e-18
8.189827556e-18
1.081811385e-17
1.386610171e-17
1.728674884e-17
2.102906473e-17
2.504015427e-17
2.926642884e-17
3.365335382e-17
3.814429649e-17
4.267810993e-17
4.718645398e-17
5.159068812e-17
5.579969324e-17
5.970849334e-17
6.31991474e-17
6.614343145e-17
6.840848817e-17
6.986424598e-17
7.039332084e-17
6.990148656e-17
6.832913397e-17
6.566135536e-17
6.193719106e-17
5.725590422e-17
5.178177152e-17
4.574609336e-17
3.944853833e-17
3.325607386e-17
2.760082118e-17
2.297483845e-17
1.992447886e-17
1.904402414e-17
2.097126295e-17
2.638337627e-17
3.599421204e-17
5.055089357e-17
7.082968058e-17
9.762600607e-17
1.319067487e-16
1.714194299e-16
2.577166766e-16
8.210636966e-17
4.047231729e-20
5.810442667e-20
7.3216304e-20
8.785621172e-20
1.05378157e-19
1.252087634e-19
1.471735592e-19
1.71039504e-19
1.965375165e-19
2.233617652e-19
2.511731176e-19
2.795952423e-19
3.082163763e-19
3.365848487e-19
3.642121191e-19
3.905711044e-19
4.151033888e-19
4.372226996e-19
4.563275533e-19
4.718106241e-19
4.830781098e-19
4.895676221e-19
4.907782217e-19
4.863011787e-19
4.75863625e-19
4.593731099e-19
4.369740522e-19
4.091052494e-19
3.765695554e-19
3.406060586e-19
3.029732434e-19
2.660315653e-19
2.32828341e-19
2.071725097e-19
1.936990011e-19
1.979126369e-19
2.262077827e-19
2.85854134e-19
3.849367056e-19
5.322402003e-19
7.370592985e-19
1.008930758e-18
1.357267534e-18
1.790903333e-18
2.317531449e-18
2.943067908e-18
3.670934388e-18
4.501321175e-18
5.43043812e-18
6.449840386e-18
7.545841251e-18
8.699122144e-18
9.884558604e-18
1.107140083e-17
1.222382551e-17
1.330199314e-17
1.4263564e-17
1.506573077e-17
1.566760703e-17
1.603294514e-17
1.613293925e-17
1.594903693e-17
1.547544336e-17
1.472117842e-17
1.371131252e-17
1.248726253e-17
1.110589017e-17
9.637500785e-18
8.16273345e-18
6.768655754e-18
5.544204123e-18
4.575382102e-18
3.940458148e-18
3.705670237e-18
3.921745475e-18
4.621683221e-18
5.819917981e-18
7.512985847e-18
9.681458363e-18
1.229293136e-17
1.530557184e-17
1.867181158e-17
2.234158205e-17
2.626468303e-17
3.039183173e-17
3.467430056e-17
3.906209134e-17
4.350101175e-17
4.792899292e-17
5.227239538e-17
5.644288902e-17
6.033585311e-17
6.383081584e-17
6.679465946e-17
6.908753047e-17
7.057153967e-17
7.112136274e-17
7.063623244e-17
6.905186588e-17
6.635165084e-17
6.257561558e-17
5.782709497e-17
5.22764793e-17
4.616310915e-17
3.979520192e-17
3.354860916e-17
2.7863343e-17
2.323851061e-17
2.022582799e-17
1.942404998e-17
2.147449099e-17
2.705830315e-17
3.689461027e-17
5.173887116e-17
7.238228945e-17
9.963888529e-17
1.345140324e-16
1.74729677e-16
2.621968303e-16
8.341712354e-17
5.590807253e-20
7.363317191e-20
8.886860852e-20
1.036625656e-19
1.213661583e-19
1.414015915e-19
1.635952449e-19
1.877218534e-19
2.135213168e-19
2.407004477e-19
2.689322591e-19
2.978553973e-19
3.270725138e-19
3.561493231e-19
3.846144829e-19
4.119611033e-19
4.376507079e-19
4.611192164e-19
4.817862688e-19
4.990670028e-19
5.123889171e-19
5.212123013e-19
5.25058135e-19
5.23540249e-19
5.16405985e-19
5.035809883e-19
4.852231522e-19
4.61781389e-19
4.34064868e-19
4.03317132e-19
3.712989472e-19
3.403709664e-19
3.135777378e-19
2.947223534e-19
2.884328936e-19
3.002094652e-19
3.364504028e-19
4.044431132e-19
5.123122413e-19
6.689078975e-19
8.836239573e-19
1.166132399e-18
1.52602618e-18
1.972364856e-18
2.513122719e-18
3.154549867e-18
3.900460206e-18
4.751481177e-18
5.704296588e-18
6.750941057e-18
7.878190564e-18
9.067130165e-18
1.029295624e-17
1.152511638e-17
1.272784376e-17
1.386117773e-17
1.488247113e-17
1.574840197e-17
1.641738782e-17
1.685233046e-17
1.702349981e-17
1.691141165e-17
1.650942681e-17
1.582585481e-17
1.488524742e-17
1.372869556e-17
1.241294588e-17
1.100835523e-17
9.595743323e-18
8.262360533e-18
7.097201153e-18
6.185995231e-18
5.606256674e-18
5.422826946e-18
5.684369881e-18
6.421161564e-18
7.644424877e-18
9.347194739e-18
1.150662636e-17
1.408737187e-17
1.704567382e-17
2.033352637e-17
2.390240202e-17
2.770582008e-17
3.170043383e-17
3.584524472e-17
4.009916102e-17
4.441704563e-17
4.874502609e-17
5.301562274e-17
5.7143819e-17
6.102476185e-17
6.453418222e-17
6.753183135e-17
6.986839895e-17
7.139530314e-17
7.197692257e-17
7.150383314e-17
6.990612508e-17
6.71651364e-17
6.332290695e-17
5.848833329e-17
5.284047222e-17
4.662916665e-17
4.017413256e-17
3.386235488e-17
2.814401957e-17
2.352654952e-17
2.05682139e-17
1.98725071e-17
2.208460599e-17
2.788940022e-17
3.801091885e-17
5.321241687e-17
7.429515715e-17
1.020916114e-16
1.376120397e-16
1.785750545e-16
2.672076945e-16
8.485829309e-17
7.437393844e-20
9.222605752e-20
1.076165707e-19
1.225919582e-19
1.405117853e-19
1.607974339e-19
1.832788937e-19
2.077376569e-19
2.339242849e-19
2.615582758e-19
2.903277201e-19
3.198876248e-19
3.498590199e-19
3.798273145e-19
4.093429053e-19
4.379222389e-19
4.650517858e-19
4.901933699e-19
5.127931563e-19
5.322931435e-19
5.481478753e-19
5.598454101e-19
5.669345336e-19
5.690568339e-19
5.659851876e-19
5.576679248e-19
5.442808529e-19
5.262871214e-19
5.045061654e-19
4.801898995e-19
4.551043193e-19
4.316127255e-19
4.127571394e-19
4.023345824e-19
4.049643483e-19
4.261418596e-19
4.722704261e-19
5.506614622e-19
6.694881438e-19
8.376808795e-19
1.064749142e-18
1.360521977e-18
1.734796092e-18
2.196890303e-18
2.755101577e-18
3.416073289e-18
4.184084282e-18
5.060290359e-18
6.041948037e-18
7.121677331e-18
8.286816111e-18
9.518945822e-18
1.079365831e-17
1.20806578e-17
1.334426632e-17
1.454440795e-17
1.563809296e-17
1.658140897e-17
1.733195143e-17
1.785160621e-17
1.810951684e-17
1.808505054e-17
1.777049788e-17
1.717324511e-17
1.631712425e-17
1.524273051e-17
1.400654747e-17
1.267887223e-17
1.134060083e-17
1.0079068e-17
8.983174652e-18
8.138167664e-18
7.620479112e-18
7.493138177e-18
7.802209671e-18
8.574662288e-18
9.817857662e-18
1.152071685e-17
1.365640229e-17
1.618624336e-17
1.90644202e-17
2.22428126e-17
2.567524875e-17
2.932044082e-17
3.314297804e-17
3.711209619e-17
4.119824411e-17
4.536791151e-17
4.957742566e-17
5.376674806e-17
5.7854338e-17
6.17342575e-17
6.527642552e-17
6.833071747e-17
7.073497698e-17
7.232657653e-17
7.295644808e-17
7.25042857e-17
7.08932424e-17
6.810271593e-17
6.417789745e-17
5.92356002e-17
5.346638688e-17
4.713394624e-17
4.057251696e-17
3.418303716e-17
2.84278186e-17
2.382405343e-17
2.093709486e-17
2.037534406e-17
2.278740093e-17
2.886131094e-17
3.932526353e-17
5.494821621e-17
7.654129029e-17
1.049425062e-16
1.411831991e-16
1.829198789e-16
2.728199638e-16
8.645280313e-17
9.607223475e-20
1.140828272e-19
1.296633699e-19
1.448558502e-19
1.630328639e-19
1.836198383e-19
2.064524192e-19
2.313207509e-19
2.579867721e-19
2.861844716e-19
3.156185129e-19
3.459629878e-19
3.76859789e-19
4.079175979e-19
4.387119706e-19
4.687868212e-19
4.976576972e-19
5.248170011e-19
5.497422116e-19
5.719074857e-19
5.908000836e-19
6.059416497e-19
6.169148345e-19
6.233945898e-19
6.251849982e-19
6.222620599e-19
6.148249295e-19
6.033559149e-19
5.8869028e-19
5.720927214e-19
5.553387849e-19
5.407963985e-19
5.315065042e-19
5.312595303e-19
5.446667145e-19
5.772199689e-19
6.353327159e-19
7.263476511e-19
8.584982623e-19
1.040808316e-18
1.282919431e-18
1.594836366e-18
1.986585083e-18
2.467777719e-18
3.047082832e-18
3.731601414e-18
4.526159103e-18
5.432534691e-18
6.448661288e-18
7.567851137e-18
8.778109318e-18
1.006161314e-17
1.139443865e-17
1.274661953e-17
1.40826135e-17
1.536224174e-17
1.654213709e-17
1.757771055e-17
1.842559319e-17
1.904646586e-17
1.940811625e-17
1.948851034e-17
1.927860177e-17
1.878458886e-17
1.802932998e-17
1.705269414e-17
1.591070049e-17
1.467341213e-17
1.342164266e-17
1.224263708e-17
1.122498663e-17
1.045315593e-17
1.000210749e-17
9.932566028e-18
1.028743473e-17
1.108974304e-17
1.23423443e-17
1.402939606e-17
1.611952104e-17
1.857035878e-17
2.133403973e-17
2.436284809e-17
2.761419177e-17
3.105391593e-17
3.465720446e-17
3.840663204e-17
4.228746886e-17
4.628078548e-17
5.0355391e-17
5.445985091e-17
5.851601684e-17
6.241536904e-17
6.601931981e-17
6.916412141e-17
7.167051313e-17
7.335744346e-17
7.405862718e-17
7.364009643e-17
7.201683103e-17
6.916658062e-17
6.513958981e-17
6.006358495e-17
5.41444417e-17
4.76635775e-17
4.097343186e-17
3.449178187e-17
2.869515374e-17
2.4111526e-17
2.131358401e-17
2.091409664e-17
2.356418739e-17
2.995392627e-17
4.081425561e-17
5.691929087e-17
7.9085473e-17
1.081633121e-16
1.451768174e-16
1.877758664e-16
2.790227112e-16
8.821366154e-17
1.212301823e-19
1.394280541e-19
1.552355771e-19
1.706863078e-19
1.89168599e-19
2.10114679e-19
2.333687117e-19
2.587313099e-19
2.859776598e-19
3.148577114e-19
3.450949701e-19
3.763848109e-19
4.083930015e-19
4.407546222e-19
4.730741899e-19
5.049269902e-19
5.35861998e-19
5.65406815e-19
5.930753864e-19
6.183795423e-19
6.408453483e-19
6.600342944e-19
6.755692186e-19
6.871645522e-19
6.946614469e-19
6.980695713e-19
6.976175055e-19
6.93813307e-19
6.87514352e-19
6.800041003e-19
6.730718656e-19
6.690932619e-19
6.711095308e-19
6.829062127e-19
7.090888456e-19
7.551510979e-19
8.275238651e-19
9.335914401e-19
1.081658523e-18
1.280854954e-18
1.540967977e-18
1.87219685e-18
2.284823312e-18
2.788793579e-18
3.393203633e-18
4.105685879e-18
4.931699759e-18
5.873745919e-18
6.930538826e-18
8.096193641e-18
9.35949524e-18
1.070333065e-17
1.210436725e-17
1.35330604e-17
1.495406535e-17
1.632711929e-17
1.760844028e-17
1.875266448e-17
1.971529873e-17
2.045560477e-17
2.093975389e-17
2.114401579e-17
2.10576877e-17
2.068545171e-17
2.00488686e-17
1.918677952e-17
1.815446515e-17
1.702150987e-17
1.586840795e-17
1.478206193e-17
1.385044615e-17
1.315686103e-17
1.277432569e-17
1.276070841e-17
1.315512702e-17
1.397600282e-17
1.522097602e-17
1.686875607e-17
1.888283925e-17
2.121685671e-17
2.382102888e-17
2.664888434e-17
2.96631084e-17
3.283931931e-17
3.616674746e-17
3.96452918e-17
4.327906433e-17
4.706724744e-17
5.099361745e-17
5.501642288e-17
5.906033104e-17
6.301202233e-17
6.672065543e-17
7.000395811e-17
7.265997697e-17
7.448370192e-17
7.528686648e-17
7.491862056e-17
7.328451006e-17
7.036153639e-17
6.620775358e-17
6.09659595e-17
5.486214368e-17
4.820027338e-17
4.135515012e-17
3.476455818e-17
2.892111968e-17
2.436428132e-17
2.167362212e-17
2.146510129e-17
2.439074255e-17
3.114092335e-17
4.24481128e-17
5.908953461e-17
8.188924826e-17
1.116993472e-16
1.495666623e-16
1.930682137e-16
2.858130981e-16
9.01318235e-17
1.500979321e-19
1.685100837e-19
1.845826273e-19
2.003374533e-19
2.191794503e-19
2.405498965e-19
2.643037441e-19
2.902542182e-19
3.181916578e-19
3.47884093e-19
3.790759399e-19
4.114864131e-19
4.448080672e-19
4.787057246e-19
5.128165188e-19
5.467511436e-19
5.800964426e-19
6.124199698e-19
6.432774804e-19
6.722244295e-19
6.988320871e-19
7.227084167e-19
7.435231796e-19
7.610367353e-19
7.751339124e-19
7.858647335e-19
7.934946464e-19
7.985651167e-19
8.019633681e-19
8.04998088e-19
8.094775692e-19
8.177884509e-19
8.329753594e-19
8.588224896e-19
8.999358337e-19
9.618191503e-19
1.050931553e-18
1.174709949e-18
1.341540949e-18
1.560670394e-18
1.84204396e-18
2.196074592e-18
2.633332059e-18
3.164144615e-18
3.798101729e-18
4.543447603e-18
5.406367482e-18
6.390183541e-18
7.494499557e-18
8.714350364e-18
1.003942781e-17
1.145346232e-17
1.293384378e-17
1.445156232e-17
1.597154777e-17
1.745347797e-17
1.885311653e-17
2.01242167e-17
2.122098466e-17
2.210102346e-17
2.272858998e-17
2.307790935e-17
2.313623436e-17
2.290632056e-17
2.240802011e-17
2.167875419e-17
2.077270424e-17
1.975864251e-17
1.871642055e-17
1.773225391e-17
1.689310333e-17
1.628063319e-17
1.59653672e-17
1.600169167e-17
1.642425033e-17
1.724610586e-17
1.845889044e-17
2.003507321e-17
2.193236667e-17
2.410007427e-17
2.648681122e-17
2.904855802e-17
3.175562033e-17
3.459692043e-17
3.758029256e-17
4.072808552e-17
4.406829671e-17
4.762242342e-17
5.139194103e-17
5.534560645e-17
5.940967449e-17
6.346277056e-17
6.733674539e-17
7.082431919e-17
7.36935967e-17
7.57084753e-17
7.665277803e-17
7.635498566e-17
7.471018799e-17
7.169640673e-17
6.738362913e-17
6.193535209e-17
5.560387338e-17
4.872153817e-17
4.169029642e-17
3.497121487e-17
2.907464341e-17
2.455153449e-17
2.198713209e-17
2.199848906e-17
2.523609826e-17
3.238845473e-17
4.418765454e-17
6.141432011e-17
8.489697709e-17
1.15502255e-16
1.542695631e-16
1.987771138e-16
2.931095817e-16
9.220063929e-17
1.82945021e-19
2.015969855e-19
2.179738145e-19
2.340825436e-19
2.533447196e-19
2.752123318e-19
2.995530644e-19
3.261948039e-19
3.549451929e-19
3.855924155e-19
4.179041487e-19
4.516261329e-19
4.864806985e-19
5.221657321e-19
5.583547979e-19
5.946980684e-19
6.308247906e-19
6.663474644e-19
7.008692763e-19
7.339954926e-19
7.653493774e-19
7.945924625e-19
8.214483878e-19
8.457305544e-19
8.673746837e-19
8.864790304e-19
9.033544643e-19
9.185848846e-19
9.330959641e-19
9.482291126e-19
9.65817344e-19
9.882631354e-19
1.018619438e-18
1.060676052e-18
1.119048935e-18
1.199264113e-18
1.307821498e-18
1.45222198e-18
1.640943127e-18
1.883355605e-18
2.189576299e-18
2.570255726e-18
3.036290972e-18
3.598450289e-18
4.266890206e-18
5.05055266e-18
5.956442355e-18
6.988805373e-18
8.14824856e-18
9.430857024e-18
1.082737735e-17
1.232254312e-17
1.389462349e-17
1.551527851e-17
1.714980497e-17
1.875785454e-17
2.029469893e-17
2.171309561e-17
2.296575976e-17
2.400836786e-17
2.48029168e-17
2.532116958e-17
2.554785668e-17
2.548329339e-17
2.514510044e-17
2.456877585e-17
2.380693268e-17
2.292709659e-17
2.200805812e-17
2.113491304e-17
2.039312949e-17
1.986218807e-17
1.960949609e-17
1.968526209e-17
2.011887846e-17
2.091717554e-17
2.206481252e-17
2.352703664e-17
2.525495294e-17
2.719316338e-17
2.92891208e-17
3.150290681e-17
3.381559636e-17
3.62341507e-17
3.879106413e-17
4.153785252e-17
4.453279739e-17
4.782475706e-17
5.143579746e-17
5.534553587e-17
5.947959892e-17
6.370394767e-17
6.782637236e-17
7.160611195e-17
7.477188746e-17
7.704731826e-17
7.818087787e-17
7.797604345e-17
7.631693455e-17
7.318579579e-17
6.867060662e-17
6.296321777e-17
5.635014629e-17
4.919915167e-17
4.194469396e-17
3.507439538e-17
2.911744186e-17
2.463546346e-17
2.221703855e-17
2.247710332e-17
2.606123749e-17
3.36531127e-17
4.5982992e-17
6.383352952e-17
8.804288174e-17
1.194824109e-16
1.592248707e-16
2.047708043e-16
3.008526261e-16
9.43921117e-17
2.200565709e-19
2.389727895e-19
2.55694298e-19
2.722104867e-19
2.919591166e-19
3.144042282e-19
3.394279206e-19
3.668747528e-19
3.965716848e-19
4.283293177e-19
4.619410861e-19
4.9718198e-19
5.338071191e-19
5.715510072e-19
6.101273822e-19
6.492302076e-19
6.885356928e-19
7.277065509e-19
7.663992846e-19
8.04275521e-19
8.410176251e-19
8.763480151e-19
9.100517587e-19
9.420029554e-19
9.721963856e-19
1.000787554e-18
1.028142532e-18
1.054897759e-18
1.082026959e-18
1.110912461e-18
1.143419128e-18
1.181971889e-18
1.229640032e-18
1.290229481e-18
1.368379613e-18
1.469653433e-18
1.600605412e-18
1.768810941e-18
1.982846672e-18
2.252217071e-18
2.58722699e-18
2.998795057e-18
3.498194721e-18
4.096700204e-18
4.805114483e-18
5.633164923e-18
6.58877153e-18
7.677211821e-18
8.900222899e-18
1.025509179e-17
1.173379524e-17
1.332225832e-17
1.499981343e-17
1.673894857e-17
1.850543945e-17
2.025896066e-17
2.195426618e-17
2.354300732e-17
2.497620582e-17
2.620730853e-17
2.719564539e-17
2.79100081e-17
2.833201208e-17
2.845888397e-17
2.830534876e-17
2.790433645e-17
2.73062913e-17
2.6576945e-17
2.579351529e-17
2.503947447e-17
2.439826213e-17
2.394658552e-17
2.374807309e-17
2.384800338e-17
2.426963299e-17
2.501250109e-17
2.605306092e-17
2.734803467e-17
2.884079135e-17
3.04706676e-17
3.21844589e-17
3.394846039e-17
3.575867772e-17
3.764646597e-17
3.967715021e-17
4.194037808e-17
4.453296325e-17
4.75371455e-17
5.099840582e-17
5.490664414e-17
5.918319108e-17
6.367497994e-17
6.815693302e-17
7.234385907e-17
7.591283766e-17
7.853529201e-17
7.991497795e-17
7.982550292e-17
7.814054487e-17
7.485201752e-17
7.007475648e-17
6.403932196e-17
5.707648736e-17
4.95977758e-17
4.207598911e-17
3.502830795e-17
2.900301708e-17
2.457035607e-17
2.231847995e-17
2.285559347e-17
2.681779236e-17
3.488042732e-17
4.776978286e-17
6.627221017e-17
9.123427222e-17
1.235510446e-16
1.642953406e-16
2.109834933e-16
3.08890218e-16
9.668398192e-17
2.617288235e-19
2.809327063e-19
2.980406097e-19
3.150214436e-19
3.353284369e-19
3.584388216e-19
3.842506905e-19
4.126270459e-19
4.434162636e-19
4.764536646e-19
5.11560985e-19
5.485451641e-19
5.871973927e-19
6.272922627e-19
6.685876636e-19
7.108255909e-19
7.537341271e-19
7.97031648e-19
8.404340861e-19
8.836663246e-19
9.264772235e-19
9.686577634e-19
1.010062474e-18
1.050634507e-18
1.090436947e-18
1.129692711e-18
1.168834041e-18
1.20856098e-18
1.249905712e-18
1.294300916e-18
1.343651999e-18
1.400415813e-18
1.467689496e-18
1.54930975e-18
1.649955968e-18
1.775244492e-18
1.931797998e-18
2.1272764e-18
2.370363539e-18
2.67071028e-18
3.038832947e-18
3.485958634e-18
4.02379475e-18
4.664193476e-18
5.41868518e-18
6.297871334e-18
7.310686919e-18
8.463560731e-18
9.759508199e-18
1.11971986e-17
1.277004522e-17
1.446538379e-17
1.626382284e-17
1.813886516e-17
2.005690673e-17
2.197772324e-17
2.385554831e-17
2.564082742e-17
2.728267311e-17
2.87319566e-17
2.994485215e-17
3.088655419e-17
3.153481839e-17
3.188295983e-17
3.19419576e-17
3.174134725e-17
3.132864816e-17
3.076712681e-17
3.013183952e-17
2.950408659e-17
2.896473793e-17
2.858715198e-17
2.843053827e-17
2.853447468e-17
2.891509175e-17
2.956333934e-17
3.044585145e-17
3.150903038e-17
3.268685348e-17
3.391239253e-17
3.513214081e-17
3.632111304e-17
3.749562179e-17
3.87199724e-17
4.010353581e-17
4.178632764e-17
4.391449161e-17
4.661069458e-17
4.994601438e-17
5.391829372e-17
5.843877016e-17
6.332687654e-17
6.831357641e-17
7.305539403e-17
7.716186533e-17
8.023657028e-17
8.192658297e-17
8.197036103e-17
8.023359825e-17
7.672686943e-17
7.16047716e-17
6.515049738e-17
5.775163596e-17
4.987311856e-17
4.20320964e-17
3.477759515e-17
2.867593028e-17
2.43021709e-17
2.223844905e-17
2.307986643e-17
2.744711338e-17
3.600278068e-17
4.946775376e-17
6.863215349e-17
9.436000658e-17
1.2756232e-16
1.693644977e-16
2.172084086e-16
3.170971127e-16
9.902887705e-17
3.082640842e-19
3.277781259e-19
3.453154756e-19
3.62821748e-19
3.837643367e-19
4.076350114e-19
4.343492373e-19
4.63790157e-19
4.958296277e-19
5.30330041e-19
5.671438508e-19
6.061129242e-19
6.470677042e-19
6.898264864e-19
7.341953151e-19
7.799687207e-19
8.269316405e-19
8.74863792e-19
9.235470405e-19
9.727766798e-19
1.022375568e-18
1.072211447e-18
1.122216741e-18
1.172412973e-18
1.222941837e-18
1.274104911e-18
1.326412638e-18
1.380640588e-18
1.437890778e-18
1.499657023e-18
1.567896385e-18
1.64511048e-18
1.734439998e-18
1.839770487e-18
1.965840355e-18
2.118336428e-18
2.303962682e-18
2.530473362e-18
2.806670829e-18
3.142371317e-18
3.548336156e-18
4.036150945e-18
4.618021664e-18
5.306452279e-18
6.113781218e-18
7.05157405e-18
8.12989008e-18
9.356448446e-18
1.073571977e-17
1.226796857e-17
1.394828499e-17
1.5765668e-17
1.770225097e-17
1.973277855e-17
2.182445403e-17
2.393727785e-17
2.602499902e-17
2.803677455e-17
2.991957998e-17
3.162130866e-17
3.309438799e-17
3.429963383e-17
3.520999675e-17
3.581382483e-17
3.611725303e-17
3.614536882e-17
3.594181687e-17
3.556660206e-17
3.509196127e-17
3.459648031e-17
3.415797987e-17
3.384601574e-17
3.371487286e-17
3.379774702e-17
3.410261068e-17
3.461029169e-17
3.527552472e-17
3.60318995e-17
3.680147086e-17
3.750915501e-17
3.810088181e-17
3.85629933e-17
3.893882525e-17
3.933717219e-17
3.992715478e-17
4.091632447e-17
4.251455149e-17
4.489281902e-17
4.814808198e-17
5.228051293e-17
5.718241051e-17
6.263501997e-17
6.831220925e-17
7.379522106e-17
7.860534556e-17
8.225726856e-17
8.432571192e-17
8.450857607e-17
8.266956188e-17
7.885254641e-17
7.327060851e-17
6.627809127e-17
5.833474174e-17
4.996953736e-17
4.17495469e-17
3.425651174e-17
2.807169554e-17
2.376891661e-17
2.191631767e-17
2.308739836e-17
2.787984595e-17
3.693842712e-17
5.097669874e-17
7.07927631e-17
9.72705393e-17
1.313640809e-16
1.742169282e-16
2.23313664e-16
3.252343177e-16
1.013866977e-16
3.599652213e-19
3.798108696e-19
3.978219523e-19
4.159177954e-19
4.375783691e-19
4.62311301e-19
4.900506812e-19
5.207015748e-19
5.541613141e-19
5.903215227e-19
6.290679861e-19
6.702804515e-19
7.138318468e-19
7.595878172e-19
8.074067063e-19
8.571401557e-19
9.086352416e-19
9.617388866e-19
1.016305662e-18
1.072208449e-18
1.129352178e-18
1.187689669e-18
1.247240428e-18
1.308114504e-18
1.370543503e-18
1.434920087e-18
1.501845732e-18
1.572184317e-18
1.647120151e-18
1.728220883e-18
1.81750929e-18
1.917548399e-18
2.031541967e-18
2.163445669e-18
2.318077231e-18
2.501210949e-18
2.719644903e-18
2.981239686e-18
3.294933115e-18
3.670735779e-18
4.119698212e-18
4.653823093e-18
5.285882577e-18
6.029105516e-18
6.89671811e-18
7.901346072e-18
9.054298063e-18
1.03647495e-17
1.183883574e-17
1.347866532e-17
1.528128186e-17
1.723764099e-17
1.9331698e-17
2.1539726e-17
2.382998826e-17
2.61629006e-17
2.849181595e-17
3.076455039e-17
3.29257015e-17
3.491971624e-17
3.6694549e-17
3.820564857e-17
3.941994765e-17
4.03194544e-17
4.090404307e-17
4.119299603e-17
4.122490315e-17
4.105554833e-17
4.075363411e-17
4.039453193e-17
4.005270749e-17
3.979374644e-17
3.966685939e-17
3.969850655e-17
3.988765783e-17
4.020341317e-17
4.058607117e-17
4.095297476e-17
4.121030624e-17
4.12712268e-17
4.107930034e-17
4.063415623e-17
4.001407316e-17
3.938784065e-17
3.900680993e-17
3.917099025e-17
4.017366216e-17
4.224216124e-17
4.549506352e-17
4.992327222e-17
5.538709112e-17
6.161737717e-17
6.821708134e-17
7.467227433e-17
8.0388635e-17
8.47624052e-17
8.727455946e-17
8.757764574e-17
8.554592888e-17
8.128037931e-17
7.507958586e-17
6.739319904e-17
5.877109541e-17
4.981706234e-17
4.115208846e-17
3.338900366e-17
2.711802949e-17
2.290261983e-17
2.128604198e-17
2.280910862e-17
2.803709297e-17
3.759086447e-17
5.217606876e-17
7.260210493e-17
9.978833084e-17
1.347292645e-16
1.786544877e-16
2.289934585e-16
3.330917664e-16
1.036872656e-16
4.171291417e-19
4.373267971e-19
4.558569431e-19
4.746095374e-19
4.970753471e-19
5.227789975e-19
5.516744987e-19
5.836906035e-19
6.187519772e-19
6.567816537e-19
6.977014585e-19
7.414318699e-19
7.87891563e-19
8.369973393e-19
8.88664008e-19
9.428050744e-19
9.993350854e-19
1.05817443e-18
1.11925714e-18
1.182541298e-18
1.248021967e-18
1.31574586e-18
1.385829413e-18
1.458482246e-18
1.534038137e-18
1.612994144e-18
1.696056374e-18
1.784190737e-18
1.878677639e-18
1.981173568e-18
2.093784366e-18
2.219154975e-18
2.360575239e-18
2.522094344e-18
2.708630213e-18
2.926061155e-18
3.18129371e-18
3.482311235e-18
3.838212916e-18
4.259243451e-18
4.756796872e-18
5.343356523e-18
6.032328486e-18
6.837737216e-18