/*--------------------------------*- C++ -*----------------------------------*\
  =========                 |
  \\      /  F ield         | OpenFOAM: The Open Source CFD Toolbox
   \\    /   O peration     | Website:  https://openfoam.org
    \\  /    A nd           | Version:  6
     \\/     M anipulation  |
\*---------------------------------------------------------------------------*/
FoamFile
{
    version     2.0;
    format      ascii;
    class       volScalarField;
    location    "0.0053";
    object      ViscousDissipation;
}
// * * * * * * * * * * * * * * * * * * * * * * * * * * * * * * * * * * * * * //

dimensions      [1 -1 -3 0 0 0 0];

internalField   nonuniform List<scalar> 
600
(
4.093045967e-19
6.72837693e-19
1.041460963e-18
1.558947975e-18
2.28956426e-18
3.314248019e-18
4.723468703e-18
6.594652358e-18
8.936671698e-18
1.15651234e-17
1.385194069e-17
1.438082984e-17
1.133158951e-17
8.258448254e-18
3.840351737e-17
1.009874137e-16
7.44871454e-17
2.261041983e-17
1.137739427e-16
4.012742193e-16
7.867314288e-17
3.1115964e-17
1.002791916e-17
2.281885123e-17
5.143572361e-17
5.013065155e-16
4.09153908e-16
1.167376957e-17
5.954122992e-18
5.772200898e-20
2.795687386e-19
4.719945638e-19
7.715349192e-19
1.226279082e-18
1.906328431e-18
2.903782748e-18
4.328810115e-18
6.28950275e-18
8.840874467e-18
1.188169858e-17
1.499482338e-17
1.734083194e-17
1.813614973e-17
1.959720919e-17
3.67360715e-17
1.26303624e-16
2.361863187e-16
2.339577373e-16
4.151134896e-16
3.508944712e-16
1.301371505e-15
2.144432839e-16
2.649722982e-17
1.257073431e-16
8.787138787e-16
1.436770233e-16
1.311151953e-16
3.574217223e-17
6.30996904e-18
7.849426216e-18
1.776932295e-19
3.125928299e-19
5.468804118e-19
9.291764044e-19
1.531751101e-18
2.453304295e-18
3.818366855e-18
5.761494047e-18
8.382996793e-18
1.166314398e-17
1.535537082e-17
1.900513758e-17
2.250209342e-17
2.792021879e-17
4.392870424e-17
9.622327954e-17
1.361852387e-16
8.633598697e-17
3.678910231e-16
5.443033111e-16
1.826591654e-19
6.2358191e-19
3.903200249e-19
4.996646825e-19
1.030795303e-19
1.663764564e-16
3.018105791e-17
1.709806458e-16
3.551439867e-17
3.898984824e-18
1.077305286e-19
2.013343629e-19
3.802423496e-19
6.901807267e-19
1.201233358e-18
2.012890578e-18
3.256461048e-18
5.082572013e-18
7.616225773e-18
1.085299309e-17
1.448789156e-17
1.7800005e-17
2.01570775e-17
2.396734272e-17
4.373991397e-17
1.342841248e-16
2.341156292e-16
2.291326664e-16
4.153028148e-16
3.558224833e-16
1.314240483e-15
2.152005406e-16
2.586927747e-17
1.279706141e-16
8.921381701e-16
1.478252457e-16
1.303474222e-16
3.438663951e-17
6.26656576e-18
7.522638596e-18
6.6796376e-20
1.338060747e-19
2.688155892e-19
5.123525266e-19
9.287189293e-19
1.613048392e-18
2.696959983e-18
4.340694709e-18
6.688511604e-18
9.736472431e-18
1.303133187e-17
1.520374298e-17
1.413554734e-17
1.235343903e-17
4.035233967e-17
9.975063355e-17
7.487025484e-17
2.331147669e-17
1.106805732e-16
4.091967357e-16
8.264785792e-17
3.314081789e-17
1.073574563e-17
2.414112741e-17
5.284892551e-17
5.020292614e-16
4.00977447e-16
1.009837305e-17
5.487218591e-18
5.830573616e-20
4.621273544e-20
9.674559596e-20
1.977948352e-19
3.835565254e-19
7.103201453e-19
1.265259143e-18
2.175875677e-18
3.610825611e-18
5.750922699e-18
8.67360465e-18
1.20170173e-17
1.421736253e-17
1.165305343e-17
3.883520112e-18
3.531843664e-17
3.178007391e-17
1.14589842e-16
2.566016725e-16
9.418460761e-17
8.425904403e-17
3.296326721e-17
1.992880844e-17
1.329159987e-17
1.652216843e-17
2.732581947e-17
8.650795959e-17
2.029781961e-16
5.604978959e-16
2.173774157e-16
1.678811276e-18
3.561275244e-20
7.449228932e-20
1.486993883e-19
2.859662919e-19
5.337676529e-19
9.69211593e-19
1.71157149e-18
2.932536721e-18
4.853822381e-18
7.707047732e-18
1.159562489e-17
1.613197596e-17
1.950612196e-17
2.256318172e-17
2.658606842e-17
2.952535489e-17
2.2383094e-16
7.047618274e-17
1.976524239e-17
1.857940098e-17
1.402907914e-17
1.118189447e-17
9.280762699e-18
9.434626553e-18
1.121421791e-17
1.515001317e-17
1.631785479e-17
8.756429141e-17
7.055533873e-17
1.634707329e-19
2.725958294e-20
5.568193676e-20
1.079306488e-19
2.059375161e-19
3.888826393e-19
7.233237208e-19
1.316399837e-18
2.328391295e-18
3.977815394e-18
6.533880889e-18
1.031251499e-17
1.563182149e-17
2.245273093e-17
1.714198622e-17
1.170542416e-17
1.393705362e-16
1.41968296e-16
4.266651693e-18
2.352096098e-18
5.743291962e-18
6.610839585e-18
6.318030737e-18
5.545973323e-18
4.827365895e-18
4.280102012e-18
4.040510051e-18
3.819826711e-18
2.357935273e-18
5.198702018e-17
8.040239034e-17
1.826103482e-20
3.657865782e-20
7.109969965e-20
1.391753405e-19
2.733161823e-19
5.310706389e-19
1.007019809e-18
1.839973052e-18
3.197081041e-18
5.20485308e-18
7.839476815e-18
1.092472328e-17
1.6843084e-17
7.906036024e-18
4.931191344e-18
1.499116381e-16
4.783517324e-17
4.354355863e-18
2.02846159e-18
2.848933068e-18
3.742648509e-18
3.955367363e-18
3.440754825e-18
2.508248536e-18
1.547681771e-18
1.033150191e-18
1.197789791e-18
1.571987958e-18
2.685917268e-18
1.268398302e-17
9.824102275e-21
1.97414178e-20
4.144647392e-20
8.91927741e-20
1.910343602e-19
3.985234189e-19
7.976269588e-19
1.510050483e-18
2.650692342e-18
4.163119183e-18
5.444163575e-18
5.117555432e-18
3.499065689e-18
6.183640655e-18
5.073114735e-20
1.000235391e-16
3.829876944e-17
2.12726364e-18
4.849997708e-19
1.525979667e-18
2.614780906e-18
3.002535251e-18
2.56417538e-18
1.59303636e-18
5.886450064e-19
1.044887395e-19
3.571685474e-19
9.011412555e-19
1.291653549e-18
1.157415057e-18
4.525113528e-21
9.603676251e-21
2.435411889e-20
6.142299533e-20
1.466751453e-19
3.29101381e-19
6.92615354e-19
1.359898346e-18
2.455551568e-18
3.951421011e-18
5.296184948e-18
5.136178269e-18
3.522387814e-18
4.735614889e-18
1.334760908e-20
1.00227952e-16
3.845222519e-17
2.180714062e-18
5.084985349e-19
1.539704117e-18
2.623454351e-18
3.007517285e-18
2.565493276e-18
1.590339554e-18
5.824237339e-19
9.713282224e-20
3.505144795e-19
8.952051378e-19
1.282884461e-18
1.133928042e-18
3.58719115e-21
8.140704375e-21
2.195657732e-20
5.742727063e-20
1.402127071e-19
3.195560592e-19
6.822817313e-19
1.365631856e-18
2.553115475e-18
4.423040554e-18
7.04104396e-18
1.024676386e-17
1.576493984e-17
6.834863749e-18
5.11811964e-18
1.499651545e-16
4.789154548e-17
4.386871157e-18
2.068154205e-18
2.88718922e-18
3.771313126e-18
3.97327217e-18
3.447404915e-18
2.502074973e-18
1.529731025e-18
1.009111257e-18
1.174605674e-18
1.547508684e-18
2.651795061e-18
1.255378938e-17
5.834676242e-21
1.32429877e-20
3.107688572e-20
7.261253795e-20
1.648871561e-19
3.591913956e-19
7.464572364e-19
1.475905741e-18
2.771424015e-18
4.938575811e-18
8.367013225e-18
1.345944334e-17
2.015248785e-17
1.565099324e-17
1.008620832e-17
1.391525795e-16
1.415354203e-16
4.206849035e-18
2.419400314e-18
5.823080121e-18
6.672001872e-18
6.361118999e-18
5.571146428e-18
4.830400288e-18
4.256971552e-18
3.996584052e-18
3.760897488e-18
2.301107472e-18
5.220193024e-17
8.022771344e-17
8.70303955e-21
2.037285791e-20
4.523495239e-20
9.827932634e-20
2.090248328e-19
4.317835552e-19
8.607572237e-19
1.647629649e-18
3.013171206e-18
5.229199831e-18
8.515128062e-18
1.274995509e-17
1.67535156e-17
2.292369364e-17
1.886956311e-17
2.556793229e-17
2.242290567e-16
7.091719055e-17
2.009155031e-17
1.877305699e-17
1.415161085e-17
1.127650473e-17
9.361277465e-18
9.496231075e-18
1.122739416e-17
1.507423283e-17
1.617805131e-17
8.784331199e-17
7.076279992e-17
1.637808376e-19
1.028497212e-20
2.589807506e-20
5.882282451e-20
1.261672328e-19
2.604019035e-19
5.190466497e-19
9.98201961e-19
1.844756685e-18
3.250462347e-18
5.37706552e-18
8.083018113e-18
1.022434571e-17
8.682745639e-18
2.364643624e-18
2.658282189e-17
2.411816854e-17
1.148749314e-16
2.57071399e-16
9.473824739e-17
8.444770509e-17
3.309443838e-17
2.010898588e-17
1.35080673e-17
1.677674028e-17
2.751227617e-17
8.640946499e-17
2.024856843e-16
5.596612277e-16
2.183881722e-16
1.681556597e-18
1.076992808e-20
2.948103472e-20
7.019510668e-20
1.520547829e-19
3.102676436e-19
6.051507667e-19
1.134144947e-18
2.039872451e-18
3.49572222e-18
5.620576778e-18
8.228792761e-18
1.034804663e-17
1.006898894e-17
8.767595404e-18
3.221180592e-17
7.629519419e-17
6.27074445e-17
2.345121934e-17
1.101277907e-16
4.073544067e-16
8.181049209e-17
3.336508175e-17
1.106129017e-17
2.482934523e-17
5.338395139e-17
5.013066444e-16
4.015297572e-16
1.066279057e-17
6.130472453e-18
5.775384601e-20
1.217474496e-20
3.374281337e-20
8.137697712e-20
1.756985994e-19
3.537772715e-19
6.777530334e-19
1.246114219e-18
2.200853187e-18
3.715549908e-18
5.933963334e-18
8.824813317e-18
1.20051565e-17
1.498325952e-17
1.962445671e-17
3.903618797e-17
1.257742883e-16
2.012209025e-16
2.109111173e-16
4.001222165e-16
3.465604889e-16
1.292490961e-15
2.110631818e-16
2.499979148e-17
1.265903107e-16
8.847902457e-16
1.454065432e-16
1.280680124e-16
3.474848776e-17
5.349215074e-18
8.691027662e-18
1.657518463e-20
4.152335541e-20
9.477087507e-20
1.974642234e-19
3.871236529e-19
7.260481167e-19
1.312494753e-18
2.28807432e-18
3.828895164e-18
6.098862851e-18
9.156741918e-18
1.291056342e-17
1.750444936e-17
2.508952105e-17
4.475277165e-17
1.031069637e-16
1.43213515e-16
9.551982851e-17
3.457966663e-16
5.237902365e-16
1.77152374e-19
6.122936708e-19
3.841367088e-19
4.933314542e-19
1.009975384e-19
1.625877553e-16
2.830853373e-17
1.7314416e-16
3.301935921e-17
3.090671853e-18
2.415636771e-20
5.284226827e-20
1.094923145e-19
2.1461959e-19
4.045199475e-19
7.397053769e-19
1.316320653e-18
2.27354377e-18
3.782122019e-18
5.982928067e-18
8.841092273e-18
1.196635376e-17
1.48454479e-17
1.926450029e-17
3.806125422e-17
1.233678306e-16
1.978468297e-16
2.092359063e-16
4.001036424e-16
3.462066223e-16
1.291565432e-15
2.106952014e-16
2.500849214e-17
1.267474006e-16
8.84803299e-16
1.453304118e-16
1.276543128e-16
3.296957187e-17
5.336789558e-18
7.882632264e-18
3.253917171e-20
6.386685527e-20
1.202356639e-19
2.204015591e-19
3.979351784e-19
7.10118411e-19
1.25029061e-18
2.156814507e-18
3.59927116e-18
5.692660691e-18
8.243639149e-18
1.02637389e-17
9.829411367e-18
8.375720235e-18
3.221470243e-17
7.477152374e-17
6.058979243e-17
2.354784731e-17
1.104799214e-16
4.082888834e-16
8.169461845e-17
3.318550238e-17
1.095959345e-17
2.470046639e-17
5.321486848e-17
5.008308896e-16
4.016345636e-16
1.076302836e-17
5.867321484e-18
5.778604474e-20
)
;

boundaryField
{
    lowerWall
    {
        type            calculated;
        value           nonuniform 0();
    }
    atmosphere
    {
        type            calculated;
        value           nonuniform List<scalar> 
20
(
3.22955014e-19
2.277534017e-19
1.503333301e-19
9.425261198e-20
5.855780081e-20
3.830737471e-20
2.70289241e-20
1.942992308e-20
1.294075493e-20
7.503404491e-21
4.116258545e-21
3.274356731e-21
4.301805964e-21
5.839214285e-21
6.928174074e-21
7.767604787e-21
9.518580729e-21
1.327511601e-20
1.895757804e-20
2.495488588e-20
)
;
    }
    rightWall
    {
        type            empty;
    }
    leftWall
    {
        type            empty;
    }
    frontAndBack
    {
        type            calculated;
        value           nonuniform 0();
    }
    procBoundary2to0
    {
        type            processor;
        value           nonuniform List<scalar> 
30
(
5.599293007e-19
9.013415511e-19
1.331373767e-18
1.887944849e-18
2.628676524e-18
3.621117895e-18
4.933859183e-18
6.617836025e-18
8.665120257e-18
1.091412162e-17
1.281946913e-17
1.29644082e-17
8.725990415e-18
2.170396831e-18
4.205069894e-17
3.435867193e-17
1.20823716e-16
2.659533667e-16
9.839569195e-17
8.244103316e-17
3.00185676e-17
1.764320684e-17
1.190038348e-17
1.56417746e-17
2.77579789e-17
8.986399774e-17
2.067169158e-16
5.563406155e-16
2.133259355e-16
1.686080287e-18
)
;
    }
    procBoundary2to3
    {
        type            processor;
        value           nonuniform List<scalar> 
20
(
1.435056316e-16
1.860922253e-16
2.418357159e-16
1.863852562e-16
1.417982993e-16
4.899696499e-16
1.062582801e-16
3.404919444e-17
1.392487135e-17
1.468325068e-18
1.447623802e-18
1.383512301e-17
3.403067464e-17
1.069677908e-16
4.919882178e-16
1.437198117e-16
1.84909449e-16
2.396791533e-16
1.846538006e-16
1.441246421e-16
)
;
    }
    procBoundary2to4
    {
        type            processor;
        value           nonuniform List<scalar> 
30
(
3.794213855e-20
6.87963487e-20
1.197744067e-19
2.070126574e-19
3.604641923e-19
6.336405363e-19
1.118258312e-18
1.958293116e-18
3.345455027e-18
5.441542229e-18
8.094489173e-18
1.012527504e-17
8.39361847e-18
2.010277467e-18
2.691399951e-17
2.430240655e-17
1.139550637e-16
2.566741968e-16
9.511959694e-17
8.514787487e-17
3.317724104e-17
1.993753527e-17
1.331026027e-17
1.659779309e-17
2.742735891e-17
8.645528476e-17
2.02471496e-16
5.595177932e-16
2.186749777e-16
1.681227337e-18
)
;
    }
}


// ************************************************************************* //
