/*--------------------------------*- C++ -*----------------------------------*\
  =========                 |
  \\      /  F ield         | OpenFOAM: The Open Source CFD Toolbox
   \\    /   O peration     | Website:  https://openfoam.org
    \\  /    A nd           | Version:  6
     \\/     M anipulation  |
\*---------------------------------------------------------------------------*/
FoamFile
{
    version     2.0;
    format      ascii;
    class       volVectorField;
    location    "0.0031";
    object      gradT;
}
// * * * * * * * * * * * * * * * * * * * * * * * * * * * * * * * * * * * * * //

dimensions      [0 -1 0 1 0 0 0];

internalField   nonuniform List<vector> 
9600
(
(0 -3.811648179e-08 -0.0002023604018)
(0 -1.105377978e-07 -0.0002025052457)
(0 -1.905824089e-07 -0.0002028063646)
(0 -2.630037243e-07 -0.0002032561391)
(0 -3.316133935e-07 -0.0002038507575)
(0 -4.116580033e-07 -0.0002046054626)
(0 -4.917026151e-07 -0.0002055050116)
(0 -5.603122856e-07 -0.0002065570277)
(0 -6.441685422e-07 -0.0002077576956)
(0 -7.127782094e-07 -0.0002091146424)
(0 -7.890111777e-07 -0.0002106126214)
(0 -8.690557848e-07 -0.0002122706871)
(0 -9.452887483e-07 -0.00021408122)
(0 -1.021521718e-06 -0.0002160518434)
(0 -1.101566324e-06 -0.0002181787418)
(0 -1.177799287e-06 -0.0002204542957)
(0 -1.257843907e-06 -0.0002228899402)
(0 -1.337888511e-06 -0.0002254856713)
(0 -1.417933123e-06 -0.0002282491162)
(0 -1.497977743e-06 -0.0002311612168)
(0 -1.581833994e-06 -0.0002342410272)
(0 -1.661878606e-06 -0.0002374809281)
(0 -1.741923228e-06 -0.0002408847314)
(0 -1.829591126e-06 -0.0002444524327)
(0 -1.909635738e-06 -0.0002481954712)
(0 -1.993492009e-06 -0.0002520986004)
(0 -2.077348257e-06 -0.0002561694392)
(0 -2.168827814e-06 -0.0002604156152)
(0 -2.245060791e-06 -0.0002648218821)
(0 -2.336540334e-06 -0.0002694111049)
(0 -2.424208242e-06 -0.0002741566069)
(0 -2.504252868e-06 -0.000279092693)
(0 -2.59573241e-06 -0.0002842002999)
(0 -2.67958867e-06 -0.0002894679976)
(0 -2.763444946e-06 -0.0002949148447)
(0 -2.854924486e-06 -0.000300537024)
(0 -2.938780746e-06 -0.0003063269175)
(0 -3.022637024e-06 -0.0003122883372)
(0 -3.114116562e-06 -0.0003184289005)
(0 -3.197972822e-06 -0.0003247371782)
(0 -3.274205805e-06 -0.0003312131705)
(0 -3.36949699e-06 -0.0003378644946)
(0 -3.441918305e-06 -0.0003446720982)
(0 -3.529586235e-06 -0.0003516474165)
(0 -3.605819177e-06 -0.0003587866314)
(0 -3.689675437e-06 -0.0003660783144)
(0 -3.758285127e-06 -0.0003735262772)
(0 -3.834518068e-06 -0.000381130513)
(0 -3.906939383e-06 -0.0003888681588)
(0 -3.967925778e-06 -0.0003967506497)
(0 -4.036535421e-06 -0.0004047589201)
(0 -4.093710144e-06 -0.0004128929773)
(0 -4.147073243e-06 -0.0004211413865)
(0 -4.196624645e-06 -0.0004294927051)
(0 -4.246176079e-06 -0.0004379431299)
(0 -4.288104211e-06 -0.0004464850338)
(0 -4.322409043e-06 -0.0004550917351)
(0 -4.341467283e-06 -0.0004637670464)
(0 -4.356713879e-06 -0.0004724728511)
(0 -4.364337173e-06 -0.0004812091485)
(0 -4.371960469e-06 -0.0004899568811)
(0 -4.352902231e-06 -0.0004986893674)
(0 -4.330032339e-06 -0.0005073875482)
(0 -4.299539153e-06 -0.0005160285547)
(0 -4.257611026e-06 -0.0005245971401)
(0 -4.189001356e-06 -0.0005330628104)
(0 -4.120391681e-06 -0.0005413836374)
(0 -4.028912149e-06 -0.0005495481911)
(0 -3.929809272e-06 -0.0005575221558)
(0 -3.804024882e-06 -0.0005652674249)
(0 -3.659182274e-06 -0.0005727458821)
(0 -3.502904676e-06 -0.0005799308355)
(0 -3.32756886e-06 -0.0005867841789)
(0 -3.125551525e-06 -0.0005932563611)
(0 -2.919722505e-06 -0.000599328313)
(0 -2.683400318e-06 -0.0006049428708)
(0 -2.428019904e-06 -0.0006100695413)
(0 -2.153581221e-06 -0.0006146778203)
(0 -1.860084311e-06 -0.000618710544)
(0 -1.54752917e-06 -0.0006221334078)
(0 -1.223539065e-06 -0.0006249311539)
(0 -8.652441366e-07 -0.000627031372)
(0 -4.955142662e-07 -0.0006284073808)
(0 -1.219727417e-07 -0.0006290439222)
(0 2.820619652e-07 -0.000628895268)
(0 7.051549173e-07 -0.0006279194898)
(0 1.128247861e-06 -0.0006261089531)
(0 1.57039905e-06 -0.0006234217412)
(0 2.020173547e-06 -0.0006198387956)
(0 2.485194613e-06 -0.0006153448587)
(0 2.961650635e-06 -0.0006098980134)
(0 3.441918326e-06 -0.0006035058831)
(0 3.929809272e-06 -0.0005961379635)
(0 4.425323536e-06 -0.000587790454)
(0 4.920837828e-06 -0.0005784481078)
(0 5.412540414e-06 -0.0005681147261)
(0 5.927112918e-06 -0.0005567788844)
(0 6.415003923e-06 -0.0005444291476)
(0 6.910518148e-06 -0.0005311074339)
(0 7.402220763e-06 -0.0005167832601)
(0 7.882488481e-06 -0.0005014909306)
(0 8.355132808e-06 -0.0004852342481)
(0 8.827777182e-06 -0.0004680475265)
(0 9.281363371e-06 -0.0004499231421)
(0 9.715891208e-06 -0.0004309106383)
(0 1.013898416e-05 -0.0004110367047)
(0 1.054683057e-05 -0.0003903318341)
(0 1.093943027e-05 -0.0003688303244)
(0 1.130916015e-05 -0.0003465588641)
(0 1.16560202e-05 -0.0003235746275)
(0 1.198001023e-05 -0.0002999119137)
(0 1.228494208e-05 -0.0002756279031)
(0 1.255556918e-05 -0.0002507530886)
(0 1.281476118e-05 -0.0002253598869)
(0 1.303583677e-05 -0.0001994787958)
(0 1.323404256e-05 -0.0001731746127)
(0 1.340556664e-05 -0.0001465159443)
(0 1.354659763e-05 -0.0001195370985)
(0 1.365332386e-05 -9.230287285e-05)
(0 6.849531777e-06 -6.48818753e-05)
(0 -1.105378038e-07 -0.0002022918043)
(0 -3.316134134e-07 -0.0002024366481)
(0 -5.603123159e-07 -0.0002027301438)
(0 -7.851995719e-07 -0.0002031761067)
(0 -1.010086834e-06 -0.0002037783484)
(0 -1.238785732e-06 -0.0002045254302)
(0 -1.463672988e-06 -0.0002054249793)
(0 -1.688560255e-06 -0.0002064731838)
(0 -1.921070797e-06 -0.0002076738518)
(0 -2.142146405e-06 -0.0002090231754)
(0 -2.367033675e-06 -0.0002105325894)
(0 -2.599544214e-06 -0.0002121906552)
(0 -2.835866415e-06 -0.0002140049998)
(0 -3.068376986e-06 -0.0002159680001)
(0 -3.304699169e-06 -0.0002180910869)
(0 -3.537209722e-06 -0.0002203742643)
(0 -3.773531946e-06 -0.0002228060973)
(0 -4.013665773e-06 -0.0002254018286)
(0 -4.257611271e-06 -0.0002281538387)
(0 -4.493933499e-06 -0.0002310773744)
(0 -4.741690619e-06 -0.0002341533733)
(0 -4.989447765e-06 -0.0002373970861)
(0 -5.229581646e-06 -0.0002408085129)
(0 -5.48115041e-06 -0.0002443724027)
(0 -5.732719205e-06 -0.0002481078181)
(0 -5.976664739e-06 -0.0002520109476)
(0 -6.239668443e-06 -0.0002560855983)
(0 -6.48742559e-06 -0.0002603203396)
(0 -6.746617722e-06 -0.0002647342301)
(0 -7.001998125e-06 -0.0002693158299)
(0 -7.265001865e-06 -0.0002740765787)
(0 -7.524194002e-06 -0.0002790012302)
(0 -7.783386048e-06 -0.0002841012141)
(0 -8.038766491e-06 -0.0002893765354)
(0 -8.297958633e-06 -0.0002948195711)
(0 -8.557150675e-06 -0.0003004455624)
(0 -8.820154415e-06 -0.0003062354564)
(0 -9.071723264e-06 -0.0003122044996)
(0 -9.33472695e-06 -0.0003183412517)
(0 -9.593919042e-06 -0.0003246571531)
(0 -9.849299544e-06 -0.0003311369574)
(0 -1.008943333e-05 -0.0003377920935)
(0 -1.034481378e-05 -0.0003446073209)
(0 -1.058494769e-05 -0.0003515864512)
(0 -1.082508148e-05 -0.0003587294782)
(0 -1.105759203e-05 -0.0003660287849)
(0 -1.128247935e-05 -0.0003734805598)
(0 -1.150736654e-05 -0.0003810847961)
(0 -1.172081885e-05 -0.0003888338773)
(0 -1.191521299e-05 -0.0003967201803)
(0 -1.210579534e-05 -0.0004047398861)
(0 -1.229256611e-05 -0.0004128853788)
(0 -1.245265542e-05 -0.0004211414118)
(0 -1.260512128e-05 -0.0004295079775)
(0 -1.274234065e-05 -0.0004379774611)
(0 -1.286050176e-05 -0.0004465231771)
(0 -1.295960461e-05 -0.0004551489372)
(0 -1.303964923e-05 -0.0004638318722)
(0 -1.308157737e-05 -0.0004725567357)
(0 -1.311588219e-05 -0.0004813120919)
(0 -1.311207055e-05 -0.0004900788832)
(0 -1.307776572e-05 -0.0004988342399)
(0 -1.301296769e-05 -0.0005075629145)
(0 -1.291005318e-05 -0.0005162382263)
(0 -1.277283384e-05 -0.0005248296821)
(0 -1.259368636e-05 -0.0005333144112)
(0 -1.237642238e-05 -0.0005416809785)
(0 -1.210579541e-05 -0.0005498760259)
(0 -1.179324017e-05 -0.0005578804842)
(0 -1.141969863e-05 -0.0005656524353)
(0 -1.100422902e-05 -0.0005731690094)
(0 -1.053158455e-05 -0.0005803920797)
(0 -1.000176542e-05 -0.00058728354)
(0 -9.414771623e-06 -0.0005938014624)
(0 -8.766791337e-06 -0.0005999077196)
(0 -8.061636382e-06 -0.0006055718291)
(0 -7.306930041e-06 -0.000610740428)
(0 -6.479802293e-06 -0.0006153830121)
(0 -5.603123159e-06 -0.0006194538526)
(0 -4.665457679e-06 -0.0006229224564)
(0 -3.674429065e-06 -0.0006257430725)
(0 -2.618602456e-06 -0.0006278814072)
(0 -1.513224427e-06 -0.0006292993442)
(0 -3.621065987e-07 -0.0006299625673)
(0 8.347510012e-07 -0.0006298405945)
(0 2.081160043e-06 -0.0006289067444)
(0 3.373308841e-06 -0.0006271190775)
(0 4.699762486e-06 -0.000624458547)
(0 6.056709356e-06 -0.0006209022827)
(0 7.451772637e-06 -0.0006164197805)
(0 8.873517493e-06 -0.0006109919931)
(0 1.03181323e-05 -0.0006046112973)
(0 1.178561688e-05 -0.0005972586239)
(0 1.326834811e-05 -0.0005889149256)
(0 1.475870272e-05 -0.0005795763904)
(0 1.625668046e-05 -0.0005692391965)
(0 1.776228158e-05 -0.0005578919192)
(0 1.924882457e-05 -0.0005455574282)
(0 2.073917899e-05 -0.0005322090322)
(0 2.221047527e-05 -0.0005178772342)
(0 2.366271346e-05 -0.0005025696572)
(0 2.509208147e-05 -0.0004862901038)
(0 2.649095643e-05 -0.0004690652647)
(0 2.784790343e-05 -0.000450921821)
(0 2.916673361e-05 -0.0004318826345)
(0 3.044363583e-05 -0.0004119667715)
(0 3.165955186e-05 -0.0003912161599)
(0 3.283735103e-05 -0.0003696650975)
(0 3.394654072e-05 -0.000347359331)
(0 3.499093259e-05 -0.00032432173)
(0 3.596671437e-05 -0.0003006170866)
(0 3.687388669e-05 -0.0002762758999)
(0 3.770863792e-05 -0.0002513515324)
(0 3.846715573e-05 -0.0002258897196)
(0 3.913800585e-05 -0.0001999552638)
(0 3.972881159e-05 -0.0001735977161)
(0 4.024338389e-05 -0.0001468628131)
(0 4.066647686e-05 -0.000119826791)
(0 4.099809052e-05 -9.253538894e-05)
(0 2.05752781e-05 -6.504578007e-05)
(0 -1.867707608e-07 -0.0002021393262)
(0 -5.526889892e-07 -0.0002022917934)
(0 -9.338538038e-07 -0.0002025891007)
(0 -1.303583677e-06 -0.0002030350635)
(0 -1.680936857e-06 -0.0002036296819)
(0 -2.065913313e-06 -0.0002043767637)
(0 -2.439454834e-06 -0.0002052801243)
(0 -2.809184725e-06 -0.0002063245172)
(0 -3.190349526e-06 -0.0002075213734)
(0 -3.571514344e-06 -0.0002088668853)
(0 -3.948867537e-06 -0.0002103762992)
(0 -4.341467276e-06 -0.0002120305532)
(0 -4.73025539e-06 -0.0002138448978)
(0 -5.111420238e-06 -0.0002158117095)
(0 -5.50401997e-06 -0.0002179386079)
(0 -5.892808084e-06 -0.0002202141619)
(0 -6.285407885e-06 -0.0002226536181)
(0 -6.689442554e-06 -0.0002252417258)
(0 -7.093477261e-06 -0.0002279975475)
(0 -7.493700364e-06 -0.0002309096481)
(0 -7.901546675e-06 -0.00023399327)
(0 -8.313204678e-06 -0.000237233171)
(0 -8.717239437e-06 -0.000240629351)
(0 -9.132709036e-06 -0.0002442046755)
(0 -9.551990336e-06 -0.0002479400907)
(0 -9.963648399e-06 -0.0002518394083)
(0 -1.039055294e-05 -0.0002559102471)
(0 -1.081364588e-05 -0.0002601526115)
(0 -1.124436219e-05 -0.00026456269)
(0 -1.167507837e-05 -0.0002691442896)
(0 -1.210960626e-05 -0.0002739050381)
(0 -1.254032258e-05 -0.0002788335009)
(0 -1.29672271e-05 -0.0002839334845)
(0 -1.33941317e-05 -0.0002892088056)
(0 -1.383628297e-05 -0.0002946556526)
(0 -1.426318749e-05 -0.0003002740202)
(0 -1.470152703e-05 -0.0003060753488)
(0 -1.513224336e-05 -0.0003120443917)
(0 -1.556295951e-05 -0.0003181887667)
(0 -1.599367576e-05 -0.0003245046677)
(0 -1.640914551e-05 -0.0003309920949)
(0 -1.683223836e-05 -0.000337643419)
(0 -1.724008471e-05 -0.0003444738925)
(0 -1.765174282e-05 -0.0003514606457)
(0 -1.804815413e-05 -0.0003586151073)
(0 -1.843694224e-05 -0.0003659258485)
(0 -1.881810717e-05 -0.0003733890578)
(0 -1.919164858e-05 -0.0003810047287)
(0 -1.954232021e-05 -0.000388769056)
(0 -1.987774537e-05 -0.0003966667934)
(0 -2.019411205e-05 -0.000404705557)
(0 -2.049523226e-05 -0.0004128701074)
(0 -2.076967105e-05 -0.0004211490098)
(0 -2.10364863e-05 -0.0004295422566)
(0 -2.126137358e-05 -0.0004380346095)
(0 -2.146339095e-05 -0.0004466146298)
(0 -2.162348016e-05 -0.0004552670709)
(0 -2.17530762e-05 -0.000463976687)
(0 -2.184074412e-05 -0.0004727434782)
(0 -2.188648388e-05 -0.0004815445735)
(0 -2.189410718e-05 -0.0004903456692)
(0 -2.183312082e-05 -0.0004991505768)
(0 -2.173401795e-05 -0.0005079288023)
(0 -2.156630543e-05 -0.000516653665)
(0 -2.133379491e-05 -0.000525302295)
(0 -2.104410963e-05 -0.0005338518216)
(0 -2.067819137e-05 -0.0005422679398)
(0 -2.022841701e-05 -0.0005505315964)
(0 -1.970622108e-05 -0.0005585970406)
(0 -1.909254573e-05 -0.0005664490358)
(0 -1.839882587e-05 -0.0005740418425)
(0 -1.761743788e-05 -0.0005813373336)
(0 -1.673694715e-05 -0.0005883012149)
(0 -1.575735367e-05 -0.0005949029931)
(0 -1.468246878e-05 -0.0006010892945)
(0 -1.351229279e-05 -0.0006068296367)
(0 -1.223920238e-05 -0.0006120859032)
(0 -1.086700896e-05 -0.0006168009083)
(0 -9.403336057e-06 -0.0006209556048)
(0 -7.836748703e-06 -0.000624504253)
(0 -6.182493346e-06 -0.0006273972902)
(0 -4.421511887e-06 -0.0006296118578)
(0 -2.580485833e-06 -0.0006310945927)
(0 -6.594151349e-07 -0.0006318302371)
(0 1.341700159e-06 -0.0006317692507)
(0 3.422860085e-06 -0.0006308887637)
(0 5.576441286e-06 -0.0006291506484)
(0 7.791008877e-06 -0.0006265396694)
(0 1.00589396e-05 -0.0006230253335)
(0 1.239547988e-05 -0.0006185847596)
(0 1.477013669e-05 -0.0006131950891)
(0 1.71752868e-05 -0.0006068372636)
(0 1.962617647e-05 -0.0005994960256)
(0 2.210755944e-05 -0.0005911713859)
(0 2.45927542e-05 -0.0005818442863)
(0 2.710081855e-05 -0.0005715032813)
(0 2.96050714e-05 -0.0005601560047)
(0 3.209788951e-05 -0.0005478024562)
(0 3.458689557e-05 -0.0005344350028)
(0 3.704540865e-05 -0.0005200727125)
(0 3.947342878e-05 -0.0005047270199)
(0 4.185570865e-05 -0.0004884055394)
(0 4.419224898e-05 -0.0004711311498)
(0 4.646780323e-05 -0.0004529343442)
(0 4.867474724e-05 -0.0004338189258)
(0 5.080545858e-05 -0.0004138382661)
(0 5.284087902e-05 -0.0003930076111)
(0 5.479625422e-05 -0.0003713688821)
(0 5.665633853e-05 -0.0003489716374)
(0 5.839445045e-05 -0.0003258387465)
(0 6.002964717e-05 -0.0003020273784)
(0 6.155049479e-05 -0.000277579467)
(0 6.29455584e-05 -0.0002525407516)
(0 6.420340192e-05 -0.0002269684025)
(0 6.533164978e-05 -0.0002009119755)
(0 6.632267871e-05 -0.0001744324567)
(0 6.717267585e-05 -0.0001475755825)
(0 6.788164242e-05 -0.0001204061543)
(0 6.843433181e-05 -9.297753458e-05)
(0 3.434295009e-05 -6.536595462e-05)
(0 -2.630037243e-07 -0.000201903004)
(0 -7.775762331e-07 -0.0002020592828)
(0 -1.303583677e-06 -0.0002023527785)
(0 -1.829591126e-06 -0.0002027987414)
(0 -2.35178694e-06 -0.0002033971713)
(0 -2.885417671e-06 -0.0002041480648)
(0 -3.415236768e-06 -0.0002050323672)
(0 -3.929809296e-06 -0.0002060843833)
(0 -4.463440017e-06 -0.0002072812396)
(0 -4.997070762e-06 -0.0002086343747)
(0 -5.530701541e-06 -0.0002101323537)
(0 -6.071955549e-06 -0.0002117904194)
(0 -6.617021238e-06 -0.0002135971406)
(0 -7.158275323e-06 -0.000215567764)
(0 -7.703340969e-06 -0.0002176832275)
(0 -8.252218307e-06 -0.0002199587815)
(0 -8.801095698e-06 -0.0002223982376)
(0 -9.361407927e-06 -0.0002249977803)
(0 -9.925531858e-06 -0.0002277459787)
(0 -1.048965585e-05 -0.0002306580793)
(0 -1.106140301e-05 -0.0002337302663)
(0 -1.162933859e-05 -0.0002369701673)
(0 -1.220489754e-05 -0.0002403739705)
(0 -1.278426799e-05 -0.0002439378601)
(0 -1.337126181e-05 -0.0002476732754)
(0 -1.395063242e-05 -0.0002515764046)
(0 -1.454524945e-05 -0.0002556434317)
(0 -1.514367821e-05 -0.0002598857961)
(0 -1.573829542e-05 -0.0002642958747)
(0 -1.634434739e-05 -0.0002688850975)
(0 -1.695039945e-05 -0.0002736305995)
(0 -1.755645162e-05 -0.0002785628739)
(0 -1.815869192e-05 -0.0002836666691)
(0 -1.876093234e-05 -0.0002889496135)
(0 -1.936317286e-05 -0.0002943964605)
(0 -1.998065975e-05 -0.0003000224514)
(0 -2.058671181e-05 -0.0003058199683)
(0 -2.118895235e-05 -0.0003117966345)
(0 -2.179881593e-05 -0.0003179524445)
(0 -2.239343305e-05 -0.0003242721572)
(0 -2.298423866e-05 -0.0003307672076)
(0 -2.357885563e-05 -0.0003374299667)
(0 -2.415822616e-05 -0.0003442680635)
(0 -2.472616188e-05 -0.000351273875)
(0 -2.529028567e-05 -0.0003584397714)
(0 -2.582772806e-05 -0.0003657619476)
(0 -2.636517061e-05 -0.0003732480269)
(0 -2.688736625e-05 -0.0003808751326)
(0 -2.737906887e-05 -0.0003886585182)
(0 -2.785552506e-05 -0.0003965867488)
(0 -2.831292267e-05 -0.000404652194)
(0 -2.873220397e-05 -0.0004128434259)
(0 -2.912099226e-05 -0.0004211642564)
(0 -2.949072196e-05 -0.0004295879963)
(0 -2.981090046e-05 -0.0004381146541)
(0 -3.009677409e-05 -0.0004467327909)
(0 -3.032928461e-05 -0.0004554271602)
(0 -3.051224373e-05 -0.0004641977626)
(0 -3.064183978e-05 -0.0004730102935)
(-9.918233384e-25 -3.072188438e-05 -0.0004818685636)
(9.918233384e-25 -3.072188438e-05 -0.0004907420806)
(0 -3.065327473e-05 -0.0004996117862)
(0 -3.051605537e-05 -0.0005084548097)
(0 -3.028354483e-05 -0.000517259717)
(0 -2.997480135e-05 -0.0005259922033)
(0 -2.956314333e-05 -0.0005346293978)
(0 -2.905238242e-05 -0.0005431446189)
(0 -2.843489558e-05 -0.000551499755)
(0 -2.771068226e-05 -0.000559675737)
(0 -2.686449636e-05 -0.0005676268351)
(0 -2.588871459e-05 -0.0005753301796)
(0 -2.479858305e-05 -0.0005827438318)
(0 -2.356742069e-05 -0.0005898296858)
(0 -2.219522748e-05 -0.0005965458134)
(0 -2.069724961e-05 -0.0006028540876)
(0 -1.906205254e-05 -0.0006087202142)
(0 -1.727438965e-05 -0.0006140870185)
(0 -1.535713051e-05 -0.0006189354313)
(0 -1.330265214e-05 -0.0006232121005)
(0 -1.110333121e-05 -0.0006268712865)
(0 -8.782037404e-06 -0.0006298786732)
(0 -6.312089384e-06 -0.0006321923436)
(0 -3.731603589e-06 -0.0006337856164)
(0 -1.040579953e-06 -0.0006346165519)
(0 1.780039699e-06 -0.0006346508567)
(0 4.695950584e-06 -0.000633854226)
(0 7.718587562e-06 -0.0006322037786)
(0 1.082508083e-05 -0.0006296690325)
(0 1.401543044e-05 -0.0006262080598)
(0 1.728201284e-05 -0.0006218246606)
(0 2.06248283e-05 -0.0006164845415)
(0 2.400957202e-05 -0.0006101724558)
(0 2.745149018e-05 -0.0006028655225)
(0 3.092771332e-05 -0.0005945599412)
(0 3.442299491e-05 -0.0005852404649)
(0 3.794495762e-05 -0.0005749032715)
(0 4.146310889e-05 -0.0005635483716)
(0 4.496982548e-05 -0.0005511719533)
(0 4.846510659e-05 -0.0005377740066)
(0 5.192227149e-05 -0.0005233735998)
(0 5.53298853e-05 -0.0005079669209)
(0 5.868413536e-05 -0.000491584454)
(0 6.196977609e-05 -0.0004742338315)
(0 6.516012601e-05 -0.0004559341113)
(0 6.826280723e-05 -0.0004367348367)
(0 7.125495105e-05 -0.0004166436391)
(0 7.412893423e-05 -0.0003956948231)
(0 7.686950882e-05 -0.0003739303096)
(0 7.947667618e-05 -0.0003513844107)
(0 8.193518974e-05 -0.0003281104888)
(0 8.422598981e-05 -0.0003041390315)
(0 8.636051279e-05 -0.0002795272192)
(0 8.832351213e-05 -0.000254324603)
(0 9.009211635e-05 -0.0002285731063)
(0 9.1677762e-05 -0.0002023375319)
(0 9.306901414e-05 -0.0001756712423)
(0 9.426587111e-05 -0.0001486275974)
(0 9.525689964e-05 -0.0001212637752)
(0 9.603828809e-05 -9.365219631e-05)
(0 4.819066792e-05 -6.583478734e-05)
(0 -3.354250599e-07 -0.000201590461)
(0 -1.006275186e-06 -0.0002017391165)
(0 -1.673313651e-06 -0.0002020402355)
(0 -2.351787067e-06 -0.00020249001)
(0 -3.026448854e-06 -0.0002030808167)
(0 -3.701110604e-06 -0.0002038278986)
(0 -4.37958402e-06 -0.000204723636)
(0 -5.058057467e-06 -0.0002057680289)
(0 -5.736530853e-06 -0.0002069686969)
(0 -6.426439215e-06 -0.0002083142088)
(0 -7.108724323e-06 -0.0002098159995)
(0 -7.80244429e-06 -0.0002114702536)
(0 -8.507599246e-06 -0.0002132807866)
(0 -9.197507662e-06 -0.0002152361636)
(0 -9.898850914e-06 -0.0002173554388)
(0 -1.060781752e-05 -0.0002196309929)
(0 -1.131678419e-05 -0.0002220628259)
(0 -1.203337402e-05 -0.0002246509338)
(0 -1.275758722e-05 -0.000227402944)
(0 -1.34818005e-05 -0.0002303150448)
(0 -1.421744856e-05 -0.0002333910436)
(0 -1.494928505e-05 -0.0002366233215)
(0 -1.568493329e-05 -0.0002400233133)
(0 -1.643582793e-05 -0.0002435872031)
(0 -1.718291102e-05 -0.0002473188069)
(0 -1.793761751e-05 -0.0002512181247)
(0 -1.870375874e-05 -0.0002552927754)
(0 -1.946990007e-05 -0.0002595313284)
(0 -2.023222987e-05 -0.0002639452189)
(0 -2.101742932e-05 -0.000268523007)
(0 -2.179119395e-05 -0.0002732837559)
(0 -2.256877036e-05 -0.0002782122189)
(0 -2.33463465e-05 -0.0002833083912)
(0 -2.413154607e-05 -0.0002885913359)
(0 -2.490531084e-05 -0.0002940458065)
(0 -2.569813356e-05 -0.0002996832327)
(0 -2.647570984e-05 -0.0003054883733)
(0 -2.725709793e-05 -0.0003114726631)
(0 -2.803086239e-05 -0.0003176246618)
(0 -2.881225031e-05 -0.0003239558098)
(0 -2.957076852e-05 -0.0003304622956)
(0 -3.033690968e-05 -0.0003371403016)
(0 -3.108399276e-05 -0.0003439860222)
(0 -3.181582945e-05 -0.000351003269)
(0 -3.254004245e-05 -0.0003581882241)
(0 -3.324900906e-05 -0.0003655408939)
(0 -3.393129433e-05 -0.0003730422202)
(0 -3.459833259e-05 -0.0003807036313)
(0 -3.525393612e-05 -0.0003885136989)
(0 -3.586380008e-05 -0.0003964724231)
(0 -3.645841702e-05 -0.0004045645503)
(0 -3.700729439e-05 -0.0004127977109)
(0 -3.751424385e-05 -0.0004211528467)
(0 -3.798688803e-05 -0.0004296337619)
(0 -3.840998107e-05 -0.0004382099716)
(0 -3.877589934e-05 -0.0004468852837)
(0 -3.908845449e-05 -0.0004556482631)
(0 -3.933239999e-05 -0.0004644760408)
(0 -3.951535914e-05 -0.0004733724285)
(0 -3.961827362e-05 -0.0004822954972)
(0 -3.963352021e-05 -0.0004912528709)
(0 -3.954966397e-05 -0.000500210245)
(0 -3.938576307e-05 -0.0005091561835)
(0 -3.909988943e-05 -0.0005180601942)
(0 -3.870728967e-05 -0.0005269070305)
(0 -3.818890546e-05 -0.0005356623866)
(0 -3.754473681e-05 -0.0005442919576)
(0 -3.675953746e-05 -0.0005527843136)
(0 -3.582949503e-05 -0.0005610937038)
(0 -3.475842183e-05 -0.0005691934567)
(0 -3.35196363e-05 -0.0005770492675)
(0 -3.211313783e-05 -0.0005846153861)
(0 -3.053511539e-05 -0.0005918613298)
(0 -2.878556895e-05 -0.0005987337354)
(0 -2.685306303e-05 -0.0006052135341)
(0 -2.474903311e-05 -0.0006112359386)
(0 -2.24544209e-05 -0.0006167742675)
(0 -1.99844726e-05 -0.0006217789581)
(0 -1.733918861e-05 -0.0006262119052)
(0 -1.450713393e-05 -0.0006300311807)
(0 -1.150355489e-05 -0.0006331834102)
(0 -8.336075067e-06 -0.00063565717)
(0 -5.004694389e-06 -0.0006373914738)
(0 -1.524659363e-06 -0.000638355817)
(0 2.107841569e-06 -0.000638508283)
(0 5.869938583e-06 -0.0006378298134)
(0 9.769254868e-06 -0.0006362822803)
(0 1.378292064e-05 -0.0006338390137)
(0 1.789950103e-05 -0.0006304809552)
(0 2.211899571e-05 -0.0006261623538)
(0 2.642234676e-05 -0.0006208870324)
(0 3.079811932e-05 -0.0006146283094)
(0 3.523868953e-05 -0.0006073671155)
(0 3.972881135e-05 -0.0005990920268)
(0 4.424561498e-05 -0.0005897954199)
(0 4.879291126e-05 -0.0005794620375)
(0 5.334020781e-05 -0.0005680918903)
(0 5.787225812e-05 -0.0005556849781)
(0 6.238906113e-05 -0.0005422489141)
(0 6.685250142e-05 -0.0005277837084)
(0 7.126257905e-05 -0.0005123046073)
(0 7.559642287e-05 -0.0004958306598)
(0 7.983497589e-05 -0.0004783771217)
(0 8.396299162e-05 -0.0004599668627)
(0 8.797284524e-05 -0.0004406303676)
(0 9.184166838e-05 -0.0004203905145)
(0 9.55542145e-05 -0.0003992892313)
(0 9.910667024e-05 -0.0003773493807)
(0 0.0001024723558 -0.0003546205212)
(0 0.0001056398362 -0.0003311560156)
(0 0.0001086129214 -0.0003069787278)
(0 0.0001113649315 -0.0002821496501)
(0 0.0001138920551 -0.0002567221451)
(0 0.0001161942901 -0.0002307381363)
(0 0.0001182373336 -0.0002042586149)
(0 0.0001200326207 -0.0001773445665)
(0 0.0001215801493 -0.0001500455396)
(0 0.0001228608631 -0.0001224263352)
(0 0.0001238633274 -9.454412767e-05)
(0 6.216036223e-05 -6.646752493e-05)
(0 -4.154696515e-07 -0.0002012054724)
(0 -1.234974017e-06 -0.0002013579395)
(0 -2.046855072e-06 -0.0002016590585)
(0 -2.870171079e-06 -0.000202108833)
(0 -3.693487107e-06 -0.0002026996397)
(0 -4.52061474e-06 -0.0002034429099)
(0 -5.351554043e-06 -0.0002043348356)
(0 -6.178681735e-06 -0.0002053792284)
(0 -7.009621001e-06 -0.0002065760847)
(0 -7.844371952e-06 -0.0002079254082)
(0 -8.686746252e-06 -0.0002094195755)
(0 -9.532932095e-06 -0.0002110700179)
(0 -1.038674129e-05 -0.0002128729275)
(0 -1.12367389e-05 -0.0002148359276)
(0 -1.209435967e-05 -0.0002169475794)
(0 -1.295960381e-05 -0.0002192155101)
(0 -1.382865968e-05 -0.0002216473429)
(0 -1.470533867e-05 -0.0002242354507)
(0 -1.55858294e-05 -0.000226983649)
(0 -1.647394353e-05 -0.0002298881263)
(0 -1.736968075e-05 -0.000232964125)
(0 -1.826160642e-05 -0.000236192591)
(0 -1.916496716e-05 -0.000239588771)
(0 -2.007976261e-05 -0.0002431526606)
(0 -2.100218147e-05 -0.0002468766409)
(0 -2.19284121e-05 -0.0002507873934)
(0 -2.285464248e-05 -0.0002548467972)
(0 -2.379611958e-05 -0.00025908535)
(0 -2.473378518e-05 -0.0002634992402)
(0 -2.568288543e-05 -0.0002680846514)
(0 -2.663579747e-05 -0.0002728377766)
(0 -2.758489804e-05 -0.0002777662394)
(0 -2.853780991e-05 -0.0002828776579)
(0 -2.949834526e-05 -0.000288152979)
(0 -3.045888078e-05 -0.0002936188843)
(0 -3.141560429e-05 -0.0002992524985)
(0 -3.237613963e-05 -0.0003050690736)
(0 -3.332905188e-05 -0.0003110609864)
(0 -3.428196372e-05 -0.0003172244197)
(0 -3.523106412e-05 -0.0003235631906)
(0 -3.616872979e-05 -0.0003300849226)
(0 -3.710639502e-05 -0.0003367743632)
(0 -3.802119058e-05 -0.0003436467649)
(0 -3.892836308e-05 -0.0003506792578)
(0 -3.981647688e-05 -0.0003578832708)
(0 -4.068553266e-05 -0.0003652549984)
(0 -4.152790716e-05 -0.0003727906291)
(0 -4.235884621e-05 -0.0003804863445)
(0 -4.314785738e-05 -0.0003883345281)
(0 -4.391399893e-05 -0.0003963275567)
(0 -4.463821182e-05 -0.0004044692348)
(0 -4.532430849e-05 -0.000412744323)
(0 -4.595323072e-05 -0.0004211528214)
(0 -4.654022426e-05 -0.0004296832875)
(0 -4.70662318e-05 -0.0004383242948)
(0 -4.75312529e-05 -0.0004470720276)
(0 -4.792004099e-05 -0.0004559074278)
(0 -4.823640779e-05 -0.0004648228729)
(0 -4.846510671e-05 -0.0004738031164)
(0 -4.860232602e-05 -0.000482829099)
(0 -4.863663085e-05 -0.0004918855751)
(0 -4.855658627e-05 -0.0005009534864)
(0 -4.836600383e-05 -0.0005100213971)
(0 -4.803820208e-05 -0.0005190550033)
(0 -4.756555774e-05 -0.0005280352468)
(0 -4.6955694e-05 -0.000536935445)
(0 -4.617811769e-05 -0.0005457289163)
(0 -4.523664086e-05 -0.000554381361)
(0 -4.411601602e-05 -0.0005628622749)
(0 -4.281243234e-05 -0.0005711449864)
(0 -4.131064321e-05 -0.0005791799442)
(0 -3.961064787e-05 -0.0005869480798)
(0 -3.768957719e-05 -0.000594388417)
(0 -3.554743113e-05 -0.0006014742746)
(0 -3.319945564e-05 -0.0006081522786)
(0 -3.062278147e-05 -0.000614388135)
(0 -2.782122022e-05 -0.0006201361042)
(0 -2.48023947e-05 -0.0006253504352)
(0 -2.154724715e-05 -0.0006299853993)
(0 -1.807864742e-05 -0.000633995257)
(0 -1.440421847e-05 -0.0006373495036)
(0 -1.051633733e-05 -0.0006399947875)
(0 -6.426438868e-06 -0.0006419082387)
(0 -2.161204517e-06 -0.0006430326711)
(0 2.3022355e-06 -0.0006433528495)
(0 6.925764782e-06 -0.000642815411)
(0 1.170175991e-05 -0.0006414089089)
(0 1.6630221e-05 -0.0006390876152)
(0 2.169208992e-05 -0.0006358286598)
(0 2.687211966e-05 -0.0006316167848)
(0 3.215887568e-05 -0.0006264291316)
(0 3.752948819e-05 -0.0006202275837)
(0 4.298776816e-05 -0.0006130273766)
(0 4.850322308e-05 -0.0006047865932)
(0 5.40567948e-05 -0.0005955090451)
(0 5.964848235e-05 -0.0005851756634)
(0 6.524017023e-05 -0.0005737940819)
(0 7.081280029e-05 -0.0005613566773)
(0 7.636637126e-05 -0.000547867251)
(0 8.186276794e-05 -0.0005333296248)
(0 8.727912052e-05 -0.0005177628568)
(0 9.26116158e-05 -0.0005011821841)
(0 9.782976216e-05 -0.000483599051)
(0 0.0001029145014 -0.0004650439505)
(0 0.0001078391503 -0.0004455321207)
(0 0.0001125960872 -0.0004251093097)
(0 0.0001171700657 -0.0004037983872)
(0 0.0001215344022 -0.0003816603321)
(0 0.0001256776638 -0.0003586951519)
(0 0.0001295769806 -0.0003349752673)
(0 0.0001332323504 -0.0003105464121)
(0 0.000136617094 -0.0002854467088)
(0 0.0001397312114 -0.0002597257085)
(0 0.0001425594535 -0.000233452016)
(0 0.0001450713297 -0.0002066713759)
(0 0.0001472858982 -0.0001794409624)
(0 0.0001491802864 -0.0001518255703)
(0 0.0001507544971 -0.0001238861891)
(0 0.0001519932837 -9.567999316e-05)
(0 7.627870335e-05 -6.726415541e-05)
(0 -4.878909669e-07 -0.0002007518863)
(0 -1.452237965e-06 -0.0002008967301)
(0 -2.42801989e-06 -0.0002011940375)
(0 -3.388555231e-06 -0.0002016361887)
(0 -4.360525543e-06 -0.0002022384303)
(0 -5.340119098e-06 -0.0002029740772)
(0 -6.31971268e-06 -0.0002038698145)
(0 -7.295494658e-06 -0.000204906584)
(0 -8.278899844e-06 -0.0002061034403)
(0 -9.266116723e-06 -0.0002074489521)
(0 -1.026095696e-05 -0.0002089431195)
(0 -1.125960872e-05 -0.0002105897502)
(0 -1.226588384e-05 -0.0002123888482)
(0 -1.327215904e-05 -0.000214344225)
(0 -1.428605737e-05 -0.0002164596884)
(0 -1.530376744e-05 -0.0002187276191)
(0 -1.633291254e-05 -0.0002211442054)
(0 -1.736968075e-05 -0.0002237361248)
(0 -1.841407235e-05 -0.0002264728882)
(0 -1.946227572e-05 -0.0002293811771)
(0 -2.052191379e-05 -0.0002324419292)
(0 -2.157392869e-05 -0.0002356780185)
(0 -2.264500197e-05 -0.0002390665752)
(0 -2.372750991e-05 -0.0002426304648)
(0 -2.481382964e-05 -0.0002463582567)
(0 -2.590777283e-05 -0.000250249951)
(0 -2.700933899e-05 -0.0002543169781)
(0 -2.811471697e-05 -0.0002585555309)
(0 -2.923153006e-05 -0.0002629694211)
(0 -3.03483428e-05 -0.000267547209)
(0 -3.148040231e-05 -0.0002723003342)
(0 -3.260483872e-05 -0.0002772326087)
(0 -3.373689803e-05 -0.0002823440272)
(0 -3.487276919e-05 -0.0002876307832)
(0 -3.600482891e-05 -0.0002930928768)
(0 -3.71445115e-05 -0.0002987303027)
(0 -3.828419431e-05 -0.0003045583128)
(0 -3.940863076e-05 -0.0003105502256)
(0 -4.054450168e-05 -0.0003167327171)
(0 -4.166512624e-05 -0.0003230905462)
(0 -4.278575106e-05 -0.0003296160899)
(0 -4.389494043e-05 -0.0003363360236)
(0 -4.498126016e-05 -0.0003432198603)
(0 -4.606376852e-05 -0.0003502790348)
(0 -4.711959479e-05 -0.0003575097293)
(0 -4.814873979e-05 -0.00036491195)
(0 -4.91626385e-05 -0.0003724780739)
(0 -5.014604344e-05 -0.0003802080942)
(0 -5.109133219e-05 -0.0003880943943)
(0 -5.199850477e-05 -0.000396140786)
(0 -5.287137189e-05 -0.0004043282039)
(0 -5.369087625e-05 -0.0004126642784)
(0 -5.445701786e-05 -0.0004211337632)
(0 -5.516217244e-05 -0.000429732839)
(0 -5.579490614e-05 -0.0004384538908)
(0 -5.635903011e-05 -0.0004472778566)
(0 -5.683929774e-05 -0.0004562009247)
(0 -5.723189751e-05 -0.0004652116611)
(0 -5.751777116e-05 -0.0004742986306)