/*--------------------------------*- C++ -*----------------------------------*\
  =========                 |
  \\      /  F ield         | OpenFOAM: The Open Source CFD Toolbox
   \\    /   O peration     | Website:  https://openfoam.org
    \\  /    A nd           | Version:  6
     \\/     M anipulation  |
\*---------------------------------------------------------------------------*/
FoamFile
{
    version     2.0;
    format      ascii;
    class       volScalarField;
    location    "0.0031";
    object      TRHS;
}
// * * * * * * * * * * * * * * * * * * * * * * * * * * * * * * * * * * * * * //

dimensions      [1 -1 -3 0 0 0 0];

internalField   nonuniform List<scalar> 
9600
(
3.178005049e-09
6.722190173e-09
6.546692026e-09
6.607833962e-09
6.465308995e-09
6.326570148e-09
6.188434115e-09
6.051238481e-09
5.913131794e-09
5.776421077e-09
5.640458916e-09
5.508263448e-09
5.379341426e-09
5.256543967e-09
5.138806683e-09
5.028327393e-09
4.923319105e-09
4.825512165e-09
4.732859923e-09
4.647077657e-09
4.565964424e-09
4.490985966e-09
4.419336936e-09
4.351951934e-09
4.285679875e-09
4.221741123e-09
4.157647504e-09
4.095500413e-09
4.033248326e-09
3.972913888e-09
3.911712385e-09
3.850974148e-09
3.787502659e-09
3.723018159e-09
3.65508406e-09
3.586293658e-09
3.514425945e-09
3.441659889e-09
3.364673606e-09
3.284621365e-09
3.19746461e-09
3.104547605e-09
3.002582929e-09
2.894287469e-09
2.777671011e-09
2.656654688e-09
2.529745806e-09
2.400833829e-09
2.267495997e-09
2.132355561e-09
1.991396985e-09
1.84624999e-09
1.692523907e-09
1.532593817e-09
1.363063266e-09
1.187167051e-09
1.000953744e-09
8.058754872e-10
5.950365295e-10
3.675334123e-10
1.15385958e-10
-1.611086723e-10
-4.676829433e-10
-8.016299571e-10
-1.168021811e-09
-1.564970924e-09
-1.999466737e-09
-2.470339921e-09
-2.983383853e-09
-3.533665278e-09
-4.122645943e-09
-4.741988709e-09
-5.392861178e-09
-6.069475746e-09
-6.777817143e-09
-7.516878134e-09
-8.29654056e-09
-9.118204234e-09
-9.994264518e-09
-1.093022753e-08
-1.194621011e-08
-1.305946982e-08
-1.430563024e-08
-1.571944922e-08
-1.735422547e-08
-1.926087088e-08
-2.150677105e-08
-2.415538446e-08
-2.728654667e-08
-3.097775894e-08
-3.532514792e-08
-4.042475556e-08
-4.639189284e-08
-5.334133985e-08
-6.140528384e-08
-7.071377459e-08
-8.141247997e-08
-9.364376953e-08
-1.075635188e-07
-1.233223282e-07
-1.410815848e-07
-1.609970188e-07
-1.832351777e-07
-2.079579532e-07
-2.353337062e-07
-2.655156858e-07
-2.98646099e-07
-3.348363662e-07
-3.741790466e-07
-4.167385337e-07
-4.625635185e-07
-5.116757481e-07
-5.640724528e-07
-6.197123256e-07
-6.784803041e-07
-7.401478916e-07
-8.046842395e-07
-8.749744455e-07
-9.887664016e-07
-5.435640023e-07
3.12111254e-09
6.612085361e-09
6.549465877e-09
6.595880619e-09
6.463673804e-09
6.326399531e-09
6.192433983e-09
6.05509174e-09
5.920706246e-09
5.783699609e-09
5.651594533e-09
5.519220941e-09
5.394431599e-09
5.271651053e-09
5.158360264e-09
5.048127839e-09
4.947951546e-09
4.850753327e-09
4.763472134e-09
4.678722241e-09
4.6035173e-09
4.52989547e-09
4.464537674e-09
4.398742888e-09
4.339195301e-09
4.27722586e-09
4.22038719e-09
4.160484463e-09
4.105639299e-09
4.047202833e-09
3.992888371e-09
3.933138137e-09
3.875686295e-09
3.811045864e-09
3.74789974e-09
3.677047742e-09
3.607488038e-09
3.529140843e-09
3.450300133e-09
3.359693938e-09
3.265533264e-09
3.156488774e-09
3.041959485e-09
2.911440752e-09
2.775849222e-09
2.625247021e-09
2.471404791e-09
2.303991725e-09
2.134624164e-09
1.951656323e-09
1.766150849e-09
1.565460638e-09
1.361180852e-09
1.141090068e-09
9.183827537e-10
6.811196205e-10
4.425498535e-10
1.885817389e-10
-6.946639917e-11
-3.48135864e-10
-6.361841818e-10
-9.494613531e-10
-1.274200747e-09
-1.625089041e-09
-1.98788217e-09
-2.379344814e-09
-2.787059083e-09
-3.229439286e-09
-3.692809841e-09
-4.193096117e-09
-4.712882194e-09
-5.266285744e-09
-5.836118204e-09
-6.439825048e-09
-7.064432965e-09
-7.731730443e-09
-8.431493914e-09
-9.187413372e-09
-9.991282522e-09
-1.087087356e-08
-1.182548715e-08
-1.28940237e-08
-1.409019646e-08
-1.546865806e-08
-1.705937754e-08
-1.893177229e-08
-2.11298998e-08
-2.373595802e-08
-2.6808216e-08
-3.044394369e-08
-3.471978529e-08
-3.975201759e-08
-4.563804023e-08
-5.251279596e-08
-6.049212693e-08
-6.972616467e-08
-8.034589687e-08
-9.25131371e-08
-1.063700657e-07
-1.220848144e-07
-1.398052699e-07
-1.597021075e-07
-1.819287791e-07
-2.066600969e-07
-2.340523212e-07
-2.642697487e-07
-2.974429824e-07
-3.336923314e-07
-3.731005312e-07
-4.157406865e-07
-4.616555925e-07
-5.108757696e-07
-5.63402147e-07
-6.192060785e-07
-6.782065746e-07
-7.402144525e-07
-8.05426821e-07
-8.767727188e-07
-9.966923703e-07
-5.498142461e-07
3.109251772e-09
6.586638351e-09
6.523890978e-09
6.582471046e-09
6.454357577e-09
6.323429933e-09
6.189779859e-09
6.056765995e-09
5.921616921e-09
5.788564025e-09
5.655467172e-09
5.527099346e-09
5.401287114e-09
5.282609112e-09
5.168288532e-09
5.062307722e-09
4.961192993e-09
4.868566473e-09
4.78059441e-09
4.700820731e-09
4.625057353e-09
4.556554042e-09
4.490512615e-09
4.429891823e-09
4.36965496e-09
4.313172275e-09
4.25580555e-09
4.201502099e-09
4.145630015e-09
4.09194027e-09
4.03515529e-09
3.978707356e-09
3.917120974e-09
3.854270612e-09
3.78496773e-09
3.713404725e-09
3.633965577e-09
3.5502798e-09
3.455800277e-09
3.353800103e-09
3.237572356e-09
3.111092184e-09
2.968313439e-09
2.81430269e-09
2.643629738e-09
2.462135517e-09
2.264568968e-09
2.057095282e-09
1.834175957e-09
1.60193573e-09
1.354391052e-09
1.097899489e-09
8.267334036e-10
5.4836062e-10
2.577855955e-10
-3.682609116e-11
-3.411719201e-10
-6.482513364e-10
-9.657626079e-10
-1.287683956e-09
-1.621972557e-09
-1.961230217e-09
-2.312180677e-09
-2.666545999e-09
-3.032187438e-09
-3.402847564e-09
-3.789072993e-09
-4.185721292e-09
-4.602997886e-09
-5.033562749e-09
-5.485677589e-09
-5.951124911e-09
-6.439744681e-09
-6.946360614e-09
-7.484597825e-09
-8.052091738e-09
-8.664266982e-09
-9.319975786e-09
-1.003693038e-08
-1.081868006e-08
-1.16908424e-08
-1.266795181e-08
-1.378863447e-08
-1.508163709e-08
-1.659971186e-08
-1.838573757e-08
-2.050621028e-08
-2.301858464e-08
-2.600472654e-08
-2.953963907e-08
-3.372393053e-08
-3.865302651e-08
-4.444744561e-08
-5.122244569e-08
-5.911635387e-08
-6.826155762e-08
-7.881114048e-08
-9.091104221e-08
-1.047240531e-07
-1.204032246e-07
-1.381143589e-07
-1.580135652e-07
-1.802697606e-07
-2.050444668e-07
-2.325075383e-07
-2.628112696e-07
-2.960974186e-07
-3.324754188e-07
-3.72037563e-07
-4.148500928e-07
-4.609665343e-07
-5.104177698e-07
-5.632196484e-07
-6.19362229e-07
-6.787969292e-07
-7.414178886e-07
-8.075021382e-07
-8.802302818e-07
-1.002559997e-06
-5.536720536e-07
3.100731597e-09
6.566004401e-09
6.506335041e-09
6.567661309e-09
6.44511196e-09
6.316224387e-09
6.186473285e-09
6.054066306e-09
5.921996039e-09
5.789030192e-09
5.65882383e-09
5.530389319e-09
5.407425334e-09
5.288583377e-09
5.17707345e-09
5.070869383e-09
4.972670786e-09
4.879966475e-09
4.795200636e-09
4.715494651e-09
4.643023151e-09
4.574395055e-09
4.51143841e-09
4.450423856e-09
4.393286107e-09
4.336456841e-09
4.282278326e-09
4.227273439e-09
4.173746774e-09
4.117799971e-09
4.061453997e-09
4.000559949e-09
3.937317478e-09
3.867683003e-09
3.794007601e-09
3.711874266e-09
3.62311224e-09
3.522506082e-09
3.411518567e-09
3.284825827e-09
3.144487674e-09
2.985796578e-09
2.811671131e-09
2.61781926e-09
2.407612796e-09
2.176880869e-09
1.929442185e-09
1.6614492e-09
1.377415298e-09
1.07394176e-09
7.562709481e-10
4.214908646e-10
7.572946038e-11
-2.832883043e-10
-6.486267942e-10
-1.022509154e-09
-1.398237694e-09
-1.779063607e-09
-2.158987002e-09
-2.541754471e-09
-2.920768881e-09
-3.299071544e-09
-3.669376954e-09
-4.035459911e-09
-4.391808153e-09
-4.745102567e-09
-5.092214772e-09
-5.441319153e-09
-5.789051605e-09
-6.142826875e-09
-6.498649778e-09
-6.86486345e-09
-7.239676633e-09
-7.634512432e-09
-8.050061262e-09
-8.499236732e-09
-8.983310264e-09
-9.516247503e-09
-1.010216098e-08
-1.076062215e-08
-1.150412677e-08
-1.236257029e-08
-1.33599631e-08
-1.453810706e-08
-1.59335908e-08
-1.760149304e-08
-1.959321241e-08
-2.197990554e-08
-2.483085662e-08
-2.823602764e-08
-3.228473302e-08
-3.708691985e-08
-4.275224443e-08
-4.941002819e-08
-5.718912246e-08
-6.623644789e-08
-7.669738124e-08
-8.873215267e-08
-1.024963335e-07
-1.181553862e-07
-1.358674592e-07
-1.557989206e-07
-1.781112266e-07
-2.029747925e-07
-2.305526887e-07
-2.610046087e-07
-2.944657213e-07
-3.310512633e-07
-3.708486123e-07
-4.139309275e-07
-4.603517724e-07
-5.10152278e-07
-5.633576967e-07
-6.199761613e-07
-6.799954417e-07
-7.433280275e-07
-8.103689869e-07
-8.841670344e-07
-1.008249528e-06
-5.569712441e-07
3.094977528e-09
6.553256298e-09
6.491494216e-09
6.554991393e-09
6.43407694e-09
6.308389457e-09
6.179859577e-09
6.050052126e-09
5.918660058e-09
5.787965644e-09
5.658181097e-09
5.531874581e-09
5.4091638e-09
5.292305943e-09
5.180863086e-09
5.076548114e-09
4.9784012e-09
4.887723965e-09
4.803124085e-09
4.725535066e-09
4.653055975e-09
4.586229965e-09
4.522814027e-09
4.463299275e-09
4.405514212e-09
4.350156604e-09
4.295085652e-09
4.240878785e-09
4.185044074e-09
4.127890515e-09
4.06674921e-09
4.002050441e-09
3.931243693e-09
3.854798862e-09
3.769728345e-09
3.675808233e-09
3.56915633e-09
3.449016757e-09
3.311431344e-09
3.156251093e-09
2.98034125e-09
2.784445769e-09
2.565849347e-09
2.325447519e-09
2.06033966e-09
1.771522203e-09
1.456498753e-09
1.117290216e-09
7.526855666e-10
3.662431039e-10
-4.195496585e-11
-4.671514855e-10
-9.084542269e-10
-1.360379838e-09
-1.821706843e-09
-2.286726355e-09
-2.754332032e-09
-3.218769898e-09
-3.678814147e-09
-4.128104036e-09
-4.564859611e-09
-4.982404767e-09
-5.379752029e-09
-5.752078389e-09
-6.101351602e-09
-6.425770517e-09
-6.729876066e-09
-7.013239897e-09
-7.281090945e-09
-7.533499128e-09
-7.777091228e-09
-8.014300822e-09
-8.254792708e-09
-8.50350312e-09
-8.771404764e-09
-9.0634433e-09
-9.390450341e-09
-9.758543467e-09
-1.01822475e-08
-1.067406755e-08
-1.125682106e-08
-1.195217997e-08
-1.279227267e-08
-1.380861968e-08
-1.504450553e-08
-1.654504459e-08
-1.836969755e-08
-2.058213954e-08
-2.326154506e-08
-2.649188938e-08
-3.037237993e-08
-3.500709383e-08
-4.051521494e-08
-4.702122691e-08
-5.466441521e-08
-6.358884525e-08
-7.395102585e-08
-8.590900738e-08
-9.96282263e-08
-1.152710363e-07
-1.330033308e-07
-1.529876465e-07
-1.753917818e-07
-2.003824036e-07
-2.281278152e-07
-2.587837798e-07
-2.924892074e-07
-3.293555344e-07
-3.694738092e-07
-4.129163881e-07
-4.597432705e-07
-5.100002478e-07
-5.637227823e-07
-6.209339194e-07
-6.816298155e-07
-7.457692642e-07
-8.136801859e-07
-8.886067196e-07
-1.013884629e-06
-5.602488334e-07
3.090349895e-09
6.541677694e-09
6.479007785e-09
6.542292324e-09
6.423031885e-09
6.29850446e-09
6.171912191e-09
6.043139323e-09
5.913467546e-09
5.783566837e-09
5.655329743e-09
5.529627485e-09
5.408270723e-09
5.291767421e-09
5.181466363e-09
5.077345271e-09
4.980289542e-09
4.889823202e-09
4.806348446e-09
4.728842211e-09
4.657198947e-09
4.589966437e-09
4.526887512e-09
4.466538077e-09
4.408828662e-09
4.352335003e-09
4.296769207e-09
4.240263887e-09
4.182100042e-09
4.120176036e-09
4.053859628e-09
3.981283093e-09
3.901937212e-09
3.813613229e-09
3.714986979e-09
3.602718617e-09
3.474590455e-09
3.326924797e-09
3.15797733e-09
2.965073189e-09
2.747601382e-09
2.503583017e-09
2.232549579e-09
1.93212139e-09
1.601473272e-09
1.238260009e-09
8.425492631e-10
4.136249784e-10
-4.624786577e-11
-5.355622235e-10
-1.050076103e-09
-1.586836746e-09
-2.140586786e-09
-2.707786639e-09
-3.282700232e-09
-3.861344231e-09
-4.437258123e-09
-5.00548127e-09
-5.55827035e-09
-6.089575784e-09
-6.591155811e-09
-7.057709275e-09
-7.483049145e-09
-7.865106862e-09
-8.201298157e-09
-8.492918532e-09
-8.739891749e-09
-8.945403662e-09
-9.111078933e-09
-9.242494113e-09
-9.344578618e-09
-9.42685949e-09
-9.497739431e-09
-9.56874245e-09
-9.648367688e-09
-9.74713983e-09
-9.87308844e-09
-1.003837801e-08
-1.025543085e-08
-1.054294691e-08
-1.092071147e-08
-1.1414533e-08
-1.205113289e-08
-1.286426647e-08
-1.38914227e-08
-1.518099547e-08
-1.678889223e-08
-1.878426319e-08
-2.124445412e-08
-2.425937698e-08
-2.792645253e-08
-3.235548958e-08
-3.766465667e-08
-4.398549438e-08
-5.145854702e-08
-6.023657183e-08
-7.04784628e-08
-8.235041764e-08
-9.601911549e-08
-1.116529621e-07
-1.294175538e-07
-1.494798905e-07
-1.720068174e-07
-1.971683314e-07
-2.251310569e-07
-2.560526366e-07
-2.900694472e-07
-3.27294058e-07
-3.678161319e-07
-4.117109025e-07
-4.590405824e-07
-5.09856644e-07
-5.642014144e-07
-6.221025856e-07
-6.835755867e-07
-7.485488498e-07
-8.174378803e-07
-8.932340135e-07
-1.019903147e-06
-5.637258161e-07
3.085373867e-09
6.530382626e-09
6.466465747e-09
6.529641237e-09
6.41085029e-09
6.287507357e-09
6.161836842e-09
6.03436722e-09
5.90557438e-09
5.77687645e-09
5.649364599e-09
5.524687971e-09
5.403806496e-09
5.288053228e-09
5.17794708e-09
5.074376236e-09
4.977418838e-09
4.887446294e-09
4.803936294e-09
4.726663799e-09
4.6545196e-09
4.586948128e-09
4.522795605e-09
4.461639172e-09
4.402410339e-09
4.34453539e-09
4.286440585e-09
4.226939866e-09
4.163962044e-09
4.096218047e-09
4.021862699e-09
3.939877922e-09
3.848326977e-09
3.745482798e-09
3.628191629e-09
3.493438824e-09
3.337246132e-09
3.156662269e-09
2.948594251e-09
2.711396082e-09
2.443039787e-09
2.142300874e-09
1.806801335e-09
1.434676651e-09
1.023120875e-09
5.707266194e-10
7.618060213e-11
-4.59492377e-10
-1.034740534e-09
-1.645736016e-09
-2.288597847e-09
-2.957754685e-09
-3.648142622e-09
-4.35325927e-09
-5.067126425e-09
-5.78199189e-09
-6.490168534e-09
-7.181753861e-09
-7.846978551e-09
-8.474546585e-09
-9.054759551e-09
-9.57813237e-09
-1.00383789e-08
-1.043022924e-08
-1.075162375e-08
-1.100083535e-08
-1.117871603e-08
-1.12862534e-08
-1.13276872e-08
-1.130848801e-08
-1.123834434e-08
-1.112807233e-08
-1.099124448e-08
-1.084014646e-08
-1.068761318e-08
-1.054443739e-08
-1.042313417e-08
-1.033665217e-08
-1.030205239e-08
-1.033796933e-08
-1.046671968e-08
-1.071128786e-08
-1.109844412e-08
-1.165798143e-08
-1.242795243e-08
-1.345474587e-08
-1.479721228e-08
-1.652443714e-08
-1.871754735e-08
-2.146650466e-08
-2.487241109e-08
-2.904583589e-08
-3.41102994e-08
-4.020083013e-08
-4.746590867e-08
-5.606372094e-08
-6.616136992e-08
-7.792953445e-08
-9.154103636e-08
-1.071667265e-07
-1.249764276e-07
-1.451382598e-07
-1.67821861e-07
-1.931970252e-07
-2.214312921e-07
-2.526804249e-07
-2.870802814e-07
-3.247413517e-07
-3.657534915e-07
-4.101920684e-07
-4.581218997e-07
-5.095975816e-07
-5.64664538e-07
-6.233581687e-07
-6.856826567e-07
-7.516031333e-07
-8.214182604e-07
-8.984043701e-07
-1.026291578e-06
-5.675067893e-07
3.080059397e-09
6.51804535e-09
6.453368198e-09
6.515972387e-09
6.397622807e-09
6.274834301e-09
6.150053186e-09
6.023332954e-09
5.895480188e-09
5.767495505e-09
5.64079277e-09
5.516618783e-09
5.396281145e-09
5.280714274e-09
5.170868536e-09
5.067269043e-09
4.970386214e-09
4.880201772e-09
4.796521671e-09
4.718599989e-09
4.645712838e-09
4.576861373e-09
4.511359257e-09
4.448359804e-09
4.387151681e-09
4.326477828e-09
4.26494522e-09
4.200557457e-09
4.131469018e-09
4.055682158e-09
3.97161757e-09
3.877394992e-09
3.77101909e-09
3.649525027e-09
3.509440107e-09
3.346513906e-09
3.156748603e-09
2.936346747e-09
2.682496349e-09
2.392679156e-09
2.064854911e-09
1.696414995e-09
1.284618281e-09
8.261139586e-10
3.181278513e-10
-2.415729355e-10
-8.534604351e-10
-1.516654448e-09
-2.228280046e-09
-2.984362713e-09
-3.779453248e-09
-4.607524086e-09
-5.46139273e-09
-6.333372225e-09
-7.21436309e-09
-8.09427862e-09
-8.961072661e-09
-9.80150943e-09
-1.060086623e-08
-1.134462035e-08
-1.201879804e-08
-1.261177296e-08
-1.311398286e-08
-1.351879251e-08
-1.382129469e-08
-1.401890889e-08
-1.41104845e-08
-1.409774624e-08
-1.398510048e-08
-1.378125156e-08
-1.349822802e-08
-1.315148286e-08
-1.275736834e-08
-1.233255851e-08
-1.189237097e-08
-1.145206339e-08
-1.10270947e-08
-1.063508664e-08
-1.029526874e-08
-1.002873032e-08
-9.856720255e-09
-9.801335856e-09
-9.886041987e-09
-1.013939047e-08
-1.059757616e-08
-1.130812332e-08
-1.233022599e-08
-1.373530807e-08
-1.560509808e-08
-1.803182574e-08
-2.111785119e-08
-2.497797753e-08
-2.974027632e-08
-3.554767704e-08
-4.255628608e-08
-5.09335585e-08
-6.085388318e-08
-7.249533507e-08
-8.603575677e-08
-1.016511681e-07
-1.195146381e-07
-1.397977452e-07
-1.626713952e-07
-1.883062584e-07
-2.168684257e-07
-2.485119639e-07
-2.833698016e-07
-3.215504322e-07
-3.631419199e-07
-4.0821953e-07
-4.568486392e-07
-5.090853427e-07
-5.649782712e-07
-6.245597836e-07
-6.878494205e-07
-7.54763956e-07
-8.257177907e-07
-9.036904112e-07
-1.033265139e-06
-5.716265746e-07
3.074045725e-09
6.504465214e-09
6.43897307e-09
6.501050485e-09
6.382853406e-09
6.260528923e-09
6.136273513e-09
6.010227453e-09
5.882976121e-09
5.755642547e-09
5.629417382e-09
5.505665984e-09
5.385503829e-09
5.270040602e-09
5.160077585e-09
5.056321501e-09
4.95908636e-09
4.868452648e-09
4.783985577e-09
4.705047005e-09
4.630724328e-09
4.560194989e-09
4.492621906e-09
4.427262717e-09
4.363059916e-09
4.298688578e-09
4.232232736e-09
4.161626877e-09
4.08459235e-09
3.999102655e-09
3.903026203e-09
3.794159296e-09
3.669543922e-09
3.525568543e-09
3.357718387e-09
3.161304163e-09
2.931689451e-09
2.664967643e-09
2.357716328e-09
2.007011418e-09
1.609599852e-09
1.16194244e-09
6.59858623e-10
9.936930993e-11
-5.230272611e-10
-1.209295148e-09
-1.959850654e-09
-2.773075666e-09
-3.645837597e-09
-4.573316667e-09
-5.549526819e-09
-6.566974418e-09
-7.616974225e-09
-8.689098281e-09
-9.771322971e-09
-1.084938875e-08
-1.190708363e-08
-1.292610769e-08
-1.388724972e-08
-1.477114636e-08
-1.555999782e-08
-1.623809874e-08
-1.679275654e-08
-1.721376513e-08
-1.749369557e-08
-1.762733309e-08
-1.761262934e-08
-1.745097259e-08
-1.714868064e-08
-1.671698758e-08
-1.617219009e-08
-1.553379332e-08
-1.482304058e-08
-1.406091681e-08
-1.326794866e-08
-1.246435873e-08
-1.16713024e-08
-1.091091181e-08
-1.020601919e-08
-9.578538525e-09
-9.048945e-09
-8.636442092e-09
-8.361912382e-09
-8.251347129e-09
-8.340329242e-09
-8.676148739e-09
-9.318992299e-09
-1.034054106e-08
-1.182345868e-08
-1.386080648e-08
-1.655796467e-08
-2.00344095e-08
-2.442612767e-08
-2.988530756e-08
-3.657886337e-08
-4.468419976e-08
-5.438516816e-08
-6.586757171e-08
-7.931632744e-08
-9.491326761e-08
-1.128366709e-07
-1.332615483e-07
-1.563607343e-07
-1.823042479e-07
-2.112559112e-07
-2.433659546e-07
-2.787632462e-07
-3.175523894e-07
-3.598186096e-07
-4.056351947e-07
-4.550667823e-07
-5.081699538e-07
-5.649927412e-07
-6.255738394e-07
-6.899160772e-07
-7.579838551e-07
-8.300531564e-07
-9.094982498e-07
-1.040614063e-06
-5.76094454e-07
3.067293344e-09
6.489212047e-09
6.423029605e-09
6.484448766e-09
6.366397949e-09
6.244335336e-09
6.120498142e-09
5.994913341e-09
5.868160259e-09
5.74122838e-09
5.615358378e-09
5.491762285e-09
5.37164045e-09
5.256006722e-09
5.14576461e-09
5.041547379e-09
4.943710976e-09
4.852203113e-09
4.766572124e-09
4.686089795e-09
4.609882093e-09
4.537110222e-09
4.466961766e-09
4.398503356e-09
4.330511546e-09
4.261263772e-09
4.188655298e-09
4.110273944e-09
4.023722128e-09
3.926572304e-09
3.816318791e-09
3.689933189e-09
3.543673995e-09
3.372879695e-09
3.172361131e-09
2.936757702e-09
2.661135645e-09
2.341073046e-09
1.97261446e-09
1.551666506e-09
1.073737541e-09
5.336592109e-10
-7.390480494e-11
-7.539336266e-10
-1.51011637e-09
-2.344482193e-09
-3.257057148e-09
-4.246081848e-09
-5.308050611e-09
-6.437877121e-09
-7.628667424e-09
-8.87161169e-09
-1.015563035e-08
-1.146727149e-08
-1.279039767e-08
-1.410615355e-08
-1.53929613e-08
-1.66271369e-08
-1.778379236e-08
-1.883832019e-08
-1.976758261e-08
-2.055103129e-08
-2.117098257e-08
-2.161291157e-08
-2.18653353e-08
-2.192039396e-08
-2.177446075e-08
-2.14294145e-08
-2.089349306e-08
-2.018170479e-08
-1.931498956e-08
-1.831838504e-08
-1.721890613e-08
-1.604390821e-08
-1.482073811e-08
-1.357700491e-08
-1.23409249e-08
-1.114051653e-08
-1.000202627e-08
-8.948107268e-09
-7.997259684e-09
-7.165506532e-09
-6.470091388e-09
-5.934512203e-09
-5.592612374e-09
-5.491028695e-09
-5.689086611e-09
-6.257933275e-09
-7.279735256e-09
-8.848893274e-09
-1.107448188e-08
-1.408335619e-08
-1.802166333e-08
-2.305403923e-08
-2.935999835e-08
-3.712912096e-08
-4.655591745e-08
-5.78359541e-08
-7.11629809e-08
-8.672693929e-08
-1.047127711e-07
-1.252999168e-07
-1.486625305e-07
-1.749688592e-07
-2.04378272e-07
-2.370350251e-07
-2.730616388e-07
-3.12556788e-07
-3.556007129e-07
-4.022629212e-07
-4.52605667e-07
-5.066842278e-07
-5.645489858e-07
-6.262347173e-07
-6.917654712e-07
-7.610519277e-07
-8.345255823e-07
-9.15217396e-07
-1.048482977e-06
-5.808801006e-07
3.059679349e-09
6.472157458e-09
6.405263792e-09
6.465999038e-09
6.347990041e-09
6.226150246e-09
6.102612278e-09
5.977361278e-09
5.850947372e-09
5.72430463e-09
5.598579837e-09
5.474990862e-09
5.354684743e-09
5.238720729e-09
5.127970186e-09
5.023081834e-09
4.924337478e-09
4.831612144e-09
4.744392334e-09
4.661931125e-09
4.583376995e-09
4.507908075e-09
4.434607521e-09
4.362371933e-09
4.289661014e-09
4.214470669e-09
4.134380595e-09
4.04680452e-09
3.949047876e-09
3.83832916e-09
3.711466028e-09
3.564591642e-09
3.392919001e-09
3.190906477e-09
2.952579864e-09
2.672113044e-09
2.344067011e-09
1.963453775e-09
1.525221242e-09
1.023888848e-09
4.531386924e-10
-1.938264093e-10
-9.237369831e-10
-1.742286642e-09
-2.65353226e-09
-3.659475648e-09
-4.760221293e-09
-5.954067825e-09
-7.237623055e-09
-8.605488718e-09
-1.004989283e-08
-1.156015939e-08
-1.312242697e-08
-1.471937398e-08
-1.633016469e-08
-1.79304029e-08
-1.949247542e-08
-2.098621306e-08
-2.238017812e-08
-2.364302577e-08
-2.474498459e-08
-2.565873195e-08
-2.636015917e-08
-2.682868671e-08
-2.7047956e-08
-2.700660375e-08
-2.669953906e-08
-2.612925434e-08
-2.530675677e-08
-2.425167261e-08
-2.299081768e-08
-2.155613827e-08
-1.998217393e-08
-1.830483159e-08
-1.65607344e-08
-1.478729746e-08
-1.302170083e-08
-1.129893711e-08
-9.649006252e-09
-8.094894369e-09
-6.652650968e-09
-5.33420701e-09
-4.152539753e-09
-3.127266162e-09
-2.289168841e-09
-1.682058165e-09
-1.36268983e-09
-1.399754834e-09
-1.874373769e-09
-2.882425253e-09
-4.53858325e-09
-6.979569207e-09
-1.036502156e-08
-1.487476097e-08
-2.07035896e-08
-2.805513012e-08
-3.71369123e-08
-4.815682405e-08
-6.132060865e-08
-7.682929852e-08
-9.487660724e-08
-1.156471091e-07
-1.393154152e-07
-1.660459074e-07
-1.959907001e-07
-2.292851169e-07
-2.660422141e-07
-3.063517924e-07
-3.502862213e-07
-3.979087543e-07
-4.49277348e-07
-5.04446133e-07
-5.634648496e-07
-6.263784577e-07
-6.931959864e-07
-7.638941793e-07
-8.38747749e-07
-9.212960655e-07
-1.056524224e-06
-5.859419437e-07
3.051149895e-09
6.453064425e-09
6.385498807e-09
6.445472586e-09
6.327516246e-09
6.205815438e-09
6.082504542e-09
5.95751522e-09
5.831322936e-09
5.704815347e-09
5.579105728e-09
5.455346683e-09
5.334699902e-09
5.21822427e-09
5.106785176e-09
5.001002295e-09
4.9010622e-09
4.806777938e-09
4.717601723e-09
4.632765066e-09
4.551465027e-09
4.47281074e-09
4.395803969e-09
4.31904981e-09
4.240718785e-09
4.158477463e-09
4.069672796e-09
3.971453918e-09
3.860838674e-09
3.734485712e-09
3.588446224e-09
3.417837911e-09
3.216870415e-09
2.979073688e-09
2.697822374e-09
2.366714974e-09
1.979737387e-09
1.53087175e-09
1.013657083e-09
4.206689056e-10
-2.563749496e-10
-1.02611604e-09
-1.896541507e-09
-2.874165228e-09
-3.963443999e-09
-5.1668127e-09
-6.484851423e-09
-7.916453647e-09
-9.458540855e-09
-1.110549349e-08
-1.284835229e-08
-1.467422284e-08
-1.656585622e-08
-1.850152779e-08
-2.045495825e-08
-2.239546089e-08
-2.428832402e-08
-2.609575298e-08
-2.777815552e-08
-2.929576791e-08
-3.061002745e-08
-3.168485116e-08
-3.248757026e-08
-3.298998845e-08
-3.316957728e-08
-3.301087203e-08
-3.250721823e-08
-3.166210502e-08
-3.049026323e-08
-2.901696207e-08
-2.727652555e-08
-2.530937203e-08
-2.315998479e-08
-2.087529605e-08
-1.850426957e-08
-1.609670551e-08
-1.370100724e-08
-1.136049611e-08
-9.109692591e-09
-6.97214593e-09
-4.961168393e-09
-3.0838842e-09
-1.347361571e-09
2.349336429e-10
1.63828542e-09
2.824559854e-09
3.742160488e-09
4.32643628e-09
4.498102285e-09
4.159115545e-09
3.187337309e-09
1.433159741e-09
-1.279948275e-09
-5.150350165e-09
-1.039094333e-08
-1.722224751e-08
-2.586790761e-08
-3.655215031e-08
-4.94972075e-08
-6.491924137e-08
-8.302341486e-08
-1.039998658e-07
-1.280222688e-07
-1.552480726e-07
-1.858184094e-07
-2.198553923e-07
-2.574584561e-07
-2.987042926e-07
-3.436536927e-07
-3.923604826e-07
-4.44876685e-07
-5.012539113e-07
-5.615464965e-07
-6.257991444e-07
-6.940532364e-07
-7.662306873e-07
-8.428059767e-07
-9.269258664e-07
-1.064833761e-06
-5.911971965e-07
3.041611395e-09
6.431845831e-09
6.363576606e-09
6.42273616e-09
6.304805414e-09
6.183241898e-09
6.060106019e-09
5.935292521e-09
5.809237132e-09
5.682762246e-09
5.556920323e-09
5.432856962e-09
5.311724645e-09
5.194582075e-09
5.082290327e-09
4.97537814e-09
4.873983338e-09
4.777833715e-09
4.686340066e-09
4.598784198e-09
4.514325713e-09
4.432055429e-09
4.350736502e-09
4.268735211e-09
4.183861722e-09
4.093509184e-09
3.994754987e-09
3.88448971e-09
3.759273845e-09
3.615126546e-09
3.447161078e-09
3.249450464e-09
3.015174924e-09
2.737039395e-09
2.40773764e-09
2.020230356e-09
1.567536997e-09
1.042278356e-09
4.360229578e-10
-2.608455714e-10
-1.058842798e-09
-1.968368713e-09
-2.99874647e-09
-4.157372212e-09
-5.449564449e-09
-6.878700503e-09
-8.446518612e-09
-1.015293056e-08
-1.199543947e-08
-1.396809434e-08
-1.606053591e-08
-1.825725305e-08
-2.053725738e-08
-2.287387344e-08
-2.523473684e-08
-2.758187651e-08
-2.987226345e-08
-3.205877932e-08
-3.409176118e-08
-3.592061045e-08
-3.749551796e-08
-3.876900526e-08
-3.969755034e-08
-4.02434269e-08
-4.037653901e-08
-4.007672005e-08
-3.933552959e-08
-3.815823965e-08
-3.656405449e-08
-3.458554053e-08
-3.226584917e-08
-2.965617048e-08
-2.681328171e-08
-2.379841697e-08
-2.067603855e-08
-1.751152928e-08
-1.436714354e-08
-1.12967482e-08
-8.341143208e-09
-5.52559271e-09
-2.861061836e-09
-3.487988551e-10
2.012754374e-09
4.220555964e-09
6.260761713e-09
8.104931735e-09
9.709392842e-09
1.1015016e-08
1.194503658e-08
1.239878983e-08
1.224505972e-08
1.131828706e-08
9.421287873e-09
6.333027775e-09
1.818681706e-09
-4.362882347e-09
-1.24558914e-08
-2.27066042e-08
-3.536012051e-08
-5.065326359e-08
-6.88057763e-08
-9.001366581e-08
-1.144471868e-07
-1.422527039e-07
-1.735550728e-07
-2.084575945e-07
-2.47040176e-07
-2.893608742e-07
-3.354637388e-07
-3.853896416e-07
-4.391822835e-07
-4.968919693e-07
-5.585751e-07
-6.242941634e-07
-6.940809532e-07
-7.679464215e-07
-8.461909837e-07
-9.325962703e-07
-1.072919183e-06
-5.965505259e-07
3.030996876e-09
6.408295224e-09
6.339345165e-09
6.397647254e-09
6.2797569e-09
6.158307261e-09
6.035322573e-09
5.910643643e-09
5.784643363e-09
5.658091667e-09
5.532010461e-09
5.407527898e-09
5.285787516e-09
5.167847673e-09
5.054523993e-09
4.946287869e-09
4.843177333e-09
4.744868965e-09
4.65077206e-09
4.560144951e-09
4.472187443e-09
4.38581069e-09
4.299600605e-09
4.211581819e-09
4.119273998e-09
4.019763103e-09
3.909879695e-09
3.78612735e-09
3.644540559e-09
3.480307417e-09
3.28754333e-09
3.059262336e-09
2.787686098e-09
2.46471743e-09
2.082335534e-09
1.632579029e-09
1.107165e-09
4.967831098e-10
-2.092924661e-10
-1.023208702e-09
-1.957673284e-09
-3.024938195e-09
-4.235700199e-09
-5.598665848e-09
-7.120576974e-09
-8.806558859e-09
-1.066013661e-08
-1.2682745e-08
-1.487258337e-08
-1.722337364e-08
-1.972317732e-08
-2.235373641e-08
-2.509000714e-08
-2.789996246e-08
-3.074435698e-08
-3.357682867e-08
-3.634437202e-08
-3.898853688e-08
-4.144698519e-08
-4.36554437e-08
-4.554973257e-08
-4.706794818e-08
-4.815309069e-08
-4.875561783e-08
-4.883658636e-08
-4.837010912e-08
-4.73462315e-08
-4.577220028e-08
-4.367301894e-08
-4.108946928e-08
-3.807546745e-08
-3.469503254e-08
-3.102030669e-08
-2.713027368e-08
-2.310863452e-08
-1.904010495e-08
-1.500442874e-08
-1.106980759e-08
-7.286824996e-09
-3.685373383e-09
-2.752287142e-10
2.949732626e-09
6.004478017e-09
8.903786558e-09
1.165211969e-08
1.423612674e-08
1.662223849e-08
1.875809184e-08
2.05701526e-08
2.195605743e-08
2.277462172e-08
2.284171154e-08
2.193456776e-08
1.980391124e-08
1.618739046e-08
1.081828897e-08
3.426058249e-09
-6.265301695e-09
-1.853272374e-08
-3.364134272e-08
-5.182952308e-08
-7.329899741e-08
-9.821294144e-08
-1.267006673e-07
-1.588634616e-07
-1.94777923e-07
-2.344965949e-07
-2.780513416e-07
-3.254633907e-07
-3.767558998e-07
-4.319625023e-07
-4.911307699e-07
-5.543262649e-07
-6.21617584e-07
-6.930836756e-07
-7.686828718e-07
-8.489662726e-07
-9.372775781e-07
-1.080815105e-06
-6.018538886e-07
3.019236026e-09
6.382334729e-09
6.312679492e-09
6.370085594e-09
6.252242833e-09
6.130930139e-09
6.008072566e-09
5.883493751e-09
5.757491841e-09
5.630793627e-09
5.50437522e-09
5.379365888e-09
5.256919522e-09
5.13805407e-09
5.023551646e-09
4.913778386e-09
4.808721553e-09
4.707997504e-09
4.611008819e-09
4.517033709e-09
4.425179738e-09
4.334253728e-09
4.242530824e-09
4.147763305e-09
4.047132158e-09
3.937477144e-09
3.815279223e-09
3.67659655e-09
3.516766989e-09
3.33008153e-09
3.109592758e-09
2.847303736e-09
2.534525576e-09
2.162380325e-09
1.721941837e-09
1.204042278e-09
5.985556173e-10
-1.061412798e-10
-9.234963936e-10
-1.868210778e-09
-2.955307941e-09
-4.198859819e-09
-5.611313015e-09
-7.203237245e-09
-8.983677183e-09
-1.096031549e-08
-1.313919141e-08
-1.552362218e-08
-1.811276444e-08
-2.090005974e-08
-2.387212682e-08
-2.700794416e-08
-3.027835672e-08
-3.36454965e-08
-3.706241021e-08
-4.047288209e-08
-4.38120307e-08
-4.700746849e-08
-4.998114903e-08
-5.265163453e-08
-5.49366836e-08
-5.675661719e-08
-5.803772051e-08
-5.871648946e-08
-5.874309024e-08
-5.808530411e-08
-5.673099865e-08
-5.468997416e-08
-5.199331197e-08
-4.86912119e-08
-4.484986404e-08
-4.054863132e-08
-3.587847793e-08
-3.093998372e-08
-2.584050821e-08
-2.068868866e-08
-1.558738323e-08
-1.062518315e-08
-5.868884989e-09
-1.358319456e-09
2.895422801e-09
6.907988101e-09
1.071577379e-08
1.436353104e-08
1.788609937e-08
2.129158263e-08
2.455770004e-08
2.763813202e-08
3.046493485e-08
3.293701065e-08
3.49051523e-08
3.616410949e-08
3.645897725e-08
3.550282893e-08
3.299759871e-08
2.864485825e-08
2.214144541e-08
1.317138546e-08
1.412889274e-09
-1.343855589e-08
-3.164539003e-08