/*--------------------------------*- C++ -*----------------------------------*\
  =========                 |
  \\      /  F ield         | OpenFOAM: The Open Source CFD Toolbox
   \\    /   O peration     | Website:  https://openfoam.org
    \\  /    A nd           | Version:  6
     \\/     M anipulation  |
\*---------------------------------------------------------------------------*/
FoamFile
{
    version     2.0;
    format      ascii;
    class       volScalarField;
    location    "0.0031";
    object      ViscousDissipation;
}
// * * * * * * * * * * * * * * * * * * * * * * * * * * * * * * * * * * * * * //

dimensions      [1 -1 -3 0 0 0 0];

internalField   nonuniform List<scalar> 
9600
(
3.103190001e-21
1.473371575e-20
2.238789624e-20
2.812746219e-20
3.509408754e-20
4.281322369e-20
5.121155083e-20
6.019640345e-20
6.966845326e-20
7.951531591e-20
8.961645051e-20
9.983512997e-20
1.100232489e-19
1.200127043e-19
1.296211976e-19
1.386448078e-19
1.468666906e-19
1.540522606e-19
1.599609222e-19
1.643429497e-19
1.66953184e-19
1.675500848e-19
1.659141592e-19
1.618536041e-19
1.552309773e-19
1.459763925e-19
1.341199203e-19
1.19809176e-19
1.033461538e-19
8.521208451e-20
6.611331429e-20
4.701648067e-20
2.920007474e-20
1.42909523e-20
4.308698239e-21
1.692268442e-21
9.327141415e-21
3.055227479e-20
6.915349048e-20
1.293268788e-19
2.156067466e-19
3.327537973e-19
4.855885385e-19
6.787830619e-19
9.165841275e-19
1.202502685e-18
1.538931928e-18
1.926760832e-18
2.3649362e-18
2.850075893e-18
3.37607146e-18
3.933820215e-18
4.511011154e-18
5.092151025e-18
5.658738035e-18
6.189794686e-18
6.662602878e-18
7.053822707e-18
7.340739851e-18
7.50279865e-18
7.523112026e-18
7.390114067e-18
7.098993321e-18
6.653029146e-18
6.064388529e-18
5.35449034e-18
4.553555742e-18
3.699597774e-18
2.83666447e-18
2.01272366e-18
1.277114951e-18
6.779576395e-19
2.595084701e-19
5.985441055e-20
1.090304698e-19
4.278661788e-19
1.027600518e-18
1.910287743e-18
3.069876574e-18
4.493708068e-18
6.164283578e-18
8.060926149e-18
1.016128934e-17
1.244230556e-17
1.488069055e-17
1.745262417e-17
2.013293378e-17
2.289348568e-17
2.570134808e-17
2.851656598e-17
3.129033777e-17
3.39635281e-17
3.646635699e-17
3.871909557e-17
4.063440905e-17
4.21209535e-17
4.308857672e-17
4.345453508e-17
4.315071299e-17
4.213106437e-17
4.037890687e-17
3.791348679e-17
3.479568848e-17
3.113312524e-17
2.708463797e-17
2.2864379e-17
1.874449144e-17
1.505650724e-17
1.219104636e-17
1.059767835e-17
1.07846075e-17
1.331919093e-17
1.882753545e-17
2.799184161e-17
4.154390726e-17
6.023856688e-17
8.492908162e-17
1.138801761e-16
1.772511178e-16
5.705262735e-17
6.100399216e-21
1.782117052e-20
2.548004727e-20
3.127964248e-20
3.823699401e-20
4.594005751e-20
5.43184351e-20
6.328617885e-20
7.273743444e-20
8.256657029e-20
9.264674026e-20
1.028487358e-19
1.130182863e-19
1.229955699e-19
1.325922793e-19
1.416135532e-19
1.498367132e-19
1.570368156e-19
1.629673053e-19
1.673884033e-19
1.700488848e-19
1.707177514e-19
1.691698862e-19
1.652248635e-19
1.587400749e-19
1.496571802e-19
1.380010676e-19
1.239307115e-19
1.077435047e-19
8.993253427e-20
7.120121532e-20
5.252880752e-20
3.519308496e-20
2.083439648e-20
1.147519829e-20
9.569988159e-21
1.801279484e-20
4.016091334e-20
7.981572619e-20
1.411951574e-19
2.288593454e-19
3.475983849e-19
5.022755529e-19
6.976046875e-19
9.378957631e-19
1.226711544e-18
1.566523353e-18
1.958271412e-18
2.400984689e-18
2.891319779e-18
3.42324525e-18
3.987675575e-18
4.572363425e-18
5.161799786e-18
5.737517967e-18
6.278471733e-18
6.761927689e-18
7.164407719e-18
7.463127436e-18
7.63734032e-18
7.670069644e-18
7.549557479e-18
7.270933541e-18
6.837329285e-18
6.260910175e-18
5.563008786e-18
4.773903881e-18
3.931582391e-18
3.080189909e-18
2.267698364e-18
1.543528057e-18
9.557626069e-19
5.486345454e-19
3.600710288e-19
4.198984829e-19
7.486094544e-19
1.357028829e-18
2.246730133e-18
3.411143122e-18
4.837167464e-18
6.506943123e-18
8.399706725e-18
1.04932297e-17
1.27649708e-17
1.519237885e-17
1.775273587e-17
2.042200771e-17
2.31733682e-17
2.59749584e-17
2.878780128e-17
3.156357106e-17
3.424328004e-17
3.675663338e-17
3.902297711e-17
4.095347733e-17
4.24550709e-17
4.343570442e-17
4.38109058e-17
4.351115232e-17
4.248948267e-17
4.072894941e-17
3.824905374e-17
3.511162637e-17
3.142549591e-17
2.735126164e-17
2.31047256e-17
1.896002656e-17
1.525020757e-17
1.236761464e-17
1.076289706e-17
1.094568189e-17
1.348438025e-17
1.900682538e-17
2.819792218e-17
4.179380915e-17
6.056200167e-17
8.53876363e-17
1.146254983e-16
1.80180716e-16
5.84188193e-17
9.107988198e-21
2.082844531e-20
2.854430237e-20
3.441797883e-20
4.141395864e-20
4.913678516e-20
5.753366867e-20
6.651681045e-20
7.599066072e-20
8.584468461e-20
9.596141081e-20
1.062064442e-19
1.164354893e-19
1.264839037e-19
1.361742848e-19
1.453075602e-19
1.536729157e-19
1.610415851e-19
1.671793848e-19
1.718426379e-19
1.747928213e-19
1.757952878e-19
1.746384904e-19
1.711390376e-19
1.651684627e-19
1.56665374e-19
1.456681971e-19
1.323322605e-19
1.169679445e-19
1.00065247e-19
8.234104893e-20
6.477327661e-20
4.865419796e-20
3.562581711e-20
2.772743475e-20
2.742084699e-20
3.762161987e-20
6.170318745e-20
1.03496004e-19
1.672481736e-19
2.575631987e-19
3.792856799e-19
5.373466771e-19
7.365482348e-19
9.812956523e-19
1.275271057e-18
1.621057909e-18
2.019732276e-18
2.470433026e-18
2.969949837e-18
3.512337577e-18
4.088618634e-18
4.686581e-18
5.290765951e-18
5.882652109e-18
6.44114373e-18
6.943324068e-18
7.365541113e-18
7.68470164e-18
7.879798691e-18
7.933496948e-18
7.833790813e-18
7.57551148e-18
7.161652351e-18
6.604219379e-18
5.924566506e-18
5.152980812e-18
4.327627131e-18
3.492795538e-18
2.696713906e-18
1.988962417e-18
1.417789842e-18
1.027409939e-18
8.556195821e-19
9.318687576e-19
1.276095306e-18
1.898347604e-18
2.799290463e-18
3.971387934e-18
5.400639109e-18
7.068527601e-18
8.953984382e-18
1.103501842e-17
1.328985579e-17
1.569733528e-17
1.823655233e-17
2.088566864e-17
2.36200916e-17
2.641011163e-17
2.921842749e-17
3.199778785e-17
3.468936629e-17
3.722208359e-17
3.951348441e-17
4.1472088e-17
4.300161816e-17
4.400657252e-17
4.43993198e-17
4.410769984e-17
4.308317354e-17
4.130815088e-17
3.880284852e-17
3.563062045e-17
3.190299561e-17
2.778357313e-17
2.349191368e-17
1.930559492e-17
1.556143191e-17
1.265477476e-17
1.103950119e-17
1.122782955e-17
1.379144887e-17
1.936194115e-17
2.863031551e-17
4.23441854e-17
6.129332306e-17
8.642441604e-17
1.161970839e-16
1.831340751e-16
5.946335886e-17
1.297637182e-20
2.469413876e-20
3.245830468e-20
3.840686586e-20
4.546541717e-20
5.324188823e-20
6.168546708e-20
7.071763242e-20
8.02444144e-20
9.016241551e-20
1.003547922e-19
1.10693969e-19
1.210366584e-19
1.312255687e-19
1.410853731e-19
1.504253428e-19
1.590379575e-19
1.667036138e-19
1.731920898e-19
1.782691623e-19
1.817007339e-19
1.832622825e-19
1.82747845e-19
1.799854164e-19
1.748530463e-19
1.673009145e-19
1.573733977e-19
1.452366091e-19
1.312064738e-19
1.157842816e-19
9.969385669e-20
8.392649829e-20
6.978375136e-20
5.892383826e-20
5.339884943e-20
5.569191812e-20
6.873835752e-20
9.594275931e-20
1.411682751e-19
2.087118212e-19
3.032324964e-19
4.296529852e-19
5.929942165e-19
7.981742037e-19
1.049725721e-18
1.351481528e-18
1.706180593e-18
2.11506934e-18
2.577450776e-18
3.09028082e-18
3.647757907e-18
4.241030806e-18
4.857967992e-18
5.483148712e-18
6.098016749e-18
6.681373904e-18
7.210108889e-18
7.660300285e-18
8.008505051e-18
8.233325435e-18
8.317010657e-18
8.247166408e-18
8.01828146e-18
7.633092622e-18
7.103441109e-18
6.450625623e-18
5.704979838e-18
4.904810495e-18
4.094620059e-18
3.322876381e-18
2.639377223e-18
2.092484427e-18
1.726363413e-18
1.578512832e-18
1.677820608e-18
2.043353432e-18
2.684055605e-18
3.599285709e-18
4.780188448e-18
6.211540331e-18
7.873979374e-18
9.746093983e-18
1.180632042e-17
1.403408309e-17
1.641029886e-17
1.891678006e-17
2.153494216e-17
2.424351363e-17
2.701594515e-17
2.981736015e-17
3.26020063e-17
3.531113018e-17
3.787236289e-17
4.020037731e-17
4.219974188e-17
4.376928846e-17
4.480857408e-17
4.522524549e-17
4.494359541e-17
4.391273298e-17
4.211461632e-17
3.957047004e-17
3.634649857e-17
3.255808629e-17
2.837391692e-17
2.401884132e-17
1.977619586e-17
1.598800239e-17
1.305475553e-17
1.143471586e-17
1.164465351e-17
1.426081739e-17
1.992073678e-17
2.932411003e-17
4.323220919e-17
6.246197179e-17
8.799920942e-17
1.183582561e-16
1.863922758e-16
6.048957176e-17
1.782624817e-20
2.955834109e-20
3.737390973e-20
4.33958607e-20
5.053319393e-20
5.838580324e-20
6.690602455e-20
7.601773225e-20
8.563346805e-20
9.565313841e-20
1.05966472e-19
1.164495585e-19
1.269660568e-19
1.373633575e-19
1.47474144e-19
1.571139128e-19
1.660844863e-19
1.741738331e-19
1.811618674e-19
1.868226693e-19
1.909329027e-19
1.932775321e-19
1.936629456e-19
1.919284585e-19
1.879657824e-19
1.817368486e-19
1.73299177e-19
1.62829803e-19
1.50657643e-19
1.372959318e-19
1.234839193e-19
1.102277573e-19
9.884762985e-20
9.101940725e-20
8.881761979e-20
9.474826331e-20
1.11778179e-19
1.433478248e-19
1.933708733e-19
2.662040884e-19
3.665877645e-19
4.995395365e-19
6.702021428e-19
8.836306907e-19
1.144524067e-18
1.456893703e-18
1.823683842e-18
2.246349853e-18
2.72441989e-18
3.255058656e-18
3.832666737e-18
4.448546998e-18
5.090684773e-18
5.743693674e-18
6.388986111e-18
7.005221379e-18
7.56906116e-18
8.056235352e-18
8.442879562e-18
8.707088325e-18
8.830595118e-18
8.800486708e-18
8.610813948e-18
8.263951599e-18
7.771515789e-18
7.15469005e-18
6.443836809e-18
5.677391537e-18
4.900084564e-18
4.160637132e-18
3.509068264e-18
2.993823738e-18
2.658921498e-18
2.541402541e-18
2.669328575e-18
3.060593405e-18
3.722649056e-18
4.653194587e-18
5.841669563e-18
7.271380502e-18
8.921923415e-18
1.077162033e-17
1.27995617e-17
1.498698691e-17
1.731768657e-17
1.977736311e-17
2.235188579e-17
2.502467468e-17
2.77734094e-17
3.056656217e-17
3.336015402e-17
3.609541961e-17
3.869781224e-17
4.107795142e-17
4.31346206e-17
4.475999652e-17
4.584665109e-17
4.629603465e-17
4.602751302e-17
4.498742821e-17
4.315713027e-17
4.055977923e-17
3.726547875e-17
3.339543624e-17
2.9125154e-17
2.468713486e-17
2.037223315e-17
1.652984194e-17
1.356698307e-17
1.194804898e-17
1.219544809e-17
1.489155174e-17
2.06811533e-17
3.027377028e-17
4.444602662e-17
6.403394082e-17
9.006037568e-17
1.210226097e-16
1.901453217e-16
6.161521558e-17
2.370759776e-20
3.547814298e-20
4.335579817e-20
4.945774228e-20
5.668540793e-20
6.463498837e-20
7.325771322e-20
8.248108064e-20
9.222130102e-20
1.023844289e-19
1.128653405e-19
1.235472484e-19
1.343000515e-19
1.449794845e-19
1.554260885e-19
1.654654272e-19
1.749090194e-19
1.835564524e-19
1.911986367e-19
1.976222301e-19
2.02616081e-19
2.059793511e-19
2.075328235e-19
2.071323213e-19
2.046857109e-19
2.001720217e-19
1.936645583e-19
1.853568914e-19
1.755941058e-19
1.64907984e-19
1.540573427e-19
1.440708152e-19
1.362915392e-19
1.324207768e-19
1.345593911e-19
1.452451663e-19
1.674826212e-19
2.047622812e-19
2.610606805e-19
3.40816492e-19
4.488695574e-19
5.903603667e-19
7.705748817e-19
9.947381726e-19
1.267742041e-18
1.593820463e-18
1.976162435e-18
2.416492256e-18
2.914613772e-18
3.467966482e-18
4.071196702e-18
4.715811916e-18
5.389930927e-18
6.078222643e-18
6.762050041e-18
7.419916847e-18
8.028200032e-18
8.562225494e-18
8.997601547e-18
9.311814035e-18
9.485937e-18
9.506417114e-18
9.366724113e-18
9.068768074e-18
8.623830103e-18
8.052914113e-18
7.386346515e-18
6.662668135e-18
5.926813017e-18
5.227748211e-18
4.615679206e-18
4.139061314e-18
3.841624664e-18
3.75972763e-18
3.920318442e-18
4.339754996e-18
5.023628566e-18
5.967578982e-18
7.159018828e-18
8.579504799e-18
1.020751574e-17
1.202119781e-17
1.400075033e-17
1.612995359e-17
1.839662605e-17
2.079171487e-17
2.33071575e-17
2.593256306e-17
2.865122484e-17
3.143580322e-17
3.424446694e-17
3.701798912e-17
3.967864546e-17
4.213123543e-17
4.426671641e-17
4.596818615e-17
4.711906608e-17
4.761258234e-17
4.736193856e-17
4.630998388e-17
4.443778696e-17
4.177128718e-17
3.838625119e-17
3.441164769e-17
3.003226322e-17
2.549042634e-17
2.108683633e-17
1.7179982e-17
1.418513745e-17
1.257394537e-17
1.287565981e-17
1.56796332e-17
2.163879491e-17
3.14733954e-17
4.597318594e-17
6.599492548e-17
9.257308513e-17
1.242044789e-16
1.944730541e-16
6.289487443e-17
3.068942188e-20
4.25181877e-20
5.047446117e-20
5.666818544e-20
6.400110388e-20
7.206744582e-20
8.081909019e-20
9.018577734e-20
1.000884133e-19
1.104384495e-19
1.211376657e-19
1.3207654e-19
1.431334811e-19
1.541732839e-19
1.650469631e-19
1.755913819e-19
1.856306911e-19
1.949778074e-19
2.034378689e-19
2.108124369e-19
2.169062998e-19
2.215358344e-19
2.245405526e-19
2.25796338e-19
2.252318562e-19
2.228471077e-19
2.187361842e-19
2.131137011e-19
2.063468913e-19
1.989917406e-19
1.918336993e-19
1.859300707e-19
1.826541222e-19
1.837384243e-19
1.913178963e-19
2.079696314e-19
2.367476412e-19
2.812056736e-19
3.454022166e-19
4.338774253e-19
5.515954599e-19
7.038425461e-19
8.96076418e-19
1.133719498e-18
1.421894431e-18
1.765098077e-18
2.166819513e-18
2.629108096e-18
3.152110671e-18
3.733599287e-18
4.368525876e-18
5.048641652e-18
5.762235066e-18
6.494039743e-18
7.225373969e-18
7.934557198e-18
8.597642412e-18
9.189468653e-18
9.685019583e-18
1.006103238e-17
1.029777985e-17
1.038090252e-17
1.03031427e-17
1.006579353e-17
9.679680822e-18
9.165512531e-18
8.553498755e-18
7.882213591e-18
7.19674805e-18
6.546256916e-18
5.981054432e-18
5.549471306e-18
5.294745888e-18
5.252276478e-18
5.44754973e-18
5.895004573e-18
6.597956528e-18
7.549598927e-18
8.734960187e-18
1.013362555e-17
1.172289991e-17
1.348102011e-17
1.538990309e-17
1.74369501e-17
1.961546169e-17
2.192345718e-17
2.436086988e-17
2.692540049e-17
2.960746135e-17
3.238489397e-17
3.521818522e-17
3.804704226e-17
4.07890452e-17
4.334101742e-17
4.558334223e-17
4.738717399e-17
4.862395599e-17
4.917644654e-17
4.895010408e-17
4.788377765e-17
4.595863859e-17
4.320485268e-17
3.970589416e-17
3.560113812e-17
3.1087316e-17
2.641928254e-17
2.190980643e-17
1.792841597e-17
1.48999601e-17
1.330439522e-17
1.36784499e-17
1.661900902e-17
2.27876204e-17
3.291481646e-17
4.780454255e-17
6.832522655e-17
9.553695247e-17
1.278858292e-16
1.994424521e-16
6.434890649e-17
3.885405754e-20
5.075853621e-20
5.881152951e-20
6.511374703e-20
7.256975274e-20
8.07750316e-20
8.968293803e-20
9.922651528e-20
1.093312237e-19
1.199148566e-19
1.308864401e-19
1.421451225e-19
1.535788209e-19
1.65063272e-19
1.76461491e-19
1.876239129e-19
1.983893472e-19
2.085866946e-19
2.180379443e-19
2.265627986e-19
2.339853762e-19
2.40143238e-19
2.448987044e-19
2.481521198e-19
2.498574287e-19
2.500404275e-19
2.488212147e-19
2.464414089e-19
2.432969459e-19
2.399752492e-19
2.37295754e-19
2.363519238e-19
2.385543889e-19
2.456748359e-19
2.598908508e-19
2.838300004e-19
3.206094059e-19
3.738637627e-19
4.477532171e-19
5.469425226e-19
6.765432672e-19
8.420138013e-19
1.049010936e-18
1.303189391e-18
1.609942791e-18
1.974083475e-18
2.399458467e-18
2.888510001e-18
3.441793004e-18
4.057479562e-18
4.730882772e-18
5.454050543e-18
6.215475896e-18
6.999985458e-18
7.788854012e-18
8.560201514e-18
9.28970074e-18
9.951621894e-18
1.05201959e-17
1.09712639e-17
1.128411771e-17
1.144341303e-17
1.144097296e-17
1.127729987e-17
1.096259142e-17
1.051711585e-17
9.970834776e-18
9.362253348e-18
8.736519117e-18
8.142871449e-18
7.631588827e-18
7.250676801e-18
7.042606164e-18
7.04146852e-18
7.270888675e-18
7.742946193e-18
8.458233492e-18
9.4070558e-18
1.057169201e-17
1.192952249e-17
1.345672139e-17
1.513202769e-17
1.694000609e-17
1.887313248e-17
2.093217864e-17
2.312456202e-17
2.546069189e-17
2.794862643e-17
3.058769932e-17
3.336192663e-17
3.623418223e-17
3.914208687e-17
4.19965311e-17
4.468345481e-17
4.706921169e-17
4.900928884e-17
5.035971481e-17
5.098997418e-17
5.079608937e-17
4.971242923e-17
4.772114378e-17
4.485856006e-17
4.121868218e-17
3.695447452e-17
3.227791106e-17
2.745930248e-17
2.282596176e-17
1.87602069e-17
1.569763707e-17
1.412707945e-17
1.459297753e-17
1.769977789e-17
2.411746768e-17
3.458735225e-17
4.992494227e-17
7.101670753e-17
9.892592131e-17
1.320918565e-16
2.050586928e-16
6.599183539e-17
4.829372122e-20
6.028901403e-20
6.845760702e-20
7.488766926e-20
8.248804795e-20
9.085705328e-20
9.995125264e-20
1.097076412e-19
1.200571717e-19
1.30924475e-19
1.42226871e-19
1.53873061e-19
1.657619768e-19
1.777817282e-19
1.898093149e-19
2.017107104e-19
2.133417623e-19
2.245498284e-19
2.351767832e-19
2.450637496e-19
2.540580789e-19
2.620226676e-19
2.688471609e-19
2.744610184e-19
2.788484482e-19
2.820664376e-19
2.842672518e-19
2.857264892e-19
2.868765962e-19
2.883446087e-19
2.90992256e-19
2.959573127e-19
3.046962601e-19
3.190292389e-19
3.41187958e-19
3.738647401e-19
4.202574212e-19
4.841017936e-19
5.696820694e-19
6.818106729e-19
8.257713502e-19
1.007221414e-18
1.232049462e-18
1.506182706e-18
1.835336717e-18
2.224698958e-18
2.678542264e-18
3.19977167e-18
3.78942158e-18
4.446131268e-18
5.165640462e-18
5.940351842e-18
6.759014912e-18
7.606583754e-18
8.464303548e-18
9.310072937e-18
1.011912604e-17
1.086505934e-17
1.152120941e-17
1.20623421e-17
1.246656815e-17
1.271733807e-17
1.280533181e-17
1.27300331e-17
1.250079706e-17
1.213725211e-17
1.166893789e-17
1.113413393e-17
1.05778966e-17
1.004938233e-17
9.598623241e-18
9.273021614e-18
9.113928681e-18
9.153710265e-18
9.413656571e-18
9.902979929e-18
1.061901857e-17
1.154867485e-17
1.267103939e-17
1.396105436e-17
1.539387961e-17
1.694940655e-17
1.861614758e-17
2.039367119e-17
2.229286052e-17
2.433359846e-17
2.653990143e-17
2.893300008e-17
3.152322685e-17
3.430182648e-17
3.723386658e-17
4.025340321e-17
4.326189277e-17
4.613060064e-17
4.870731482e-17
5.082711291e-17
5.232622793e-17
5.305750826e-17
5.290562774e-17
5.180029159e-17
4.972607441e-17
4.67282898e-17
4.291515326e-17
3.845728191e-17
3.358577642e-17
2.858976556e-17
2.381362871e-17
1.965410976e-17
1.655829645e-17
1.50239541e-17
1.560284258e-17
1.890639767e-17
2.561277646e-17
3.647312611e-17
5.231697809e-17
7.404067491e-17
1.027357995e-16
1.367782742e-16
2.113390286e-16
6.782077075e-17
5.910968816e-20
7.120926328e-20
7.951231407e-20
8.609162766e-20
9.386037183e-20
1.024210706e-19
1.117345721e-19
1.217430379e-19
1.323837083e-19
1.435889771e-19
1.552853591e-19
1.673923575e-19
1.798212144e-19
1.924741277e-19
2.052439106e-19
2.180142054e-19
2.306602535e-19
2.43050608e-19
2.550501594e-19
2.665250479e-19
2.773500612e-19
2.874178897e-19
2.96650421e-19
3.050112589e-19
3.125204146e-19
3.192722254e-19
3.254583291e-19
3.313964508e-19
3.375645157e-19
3.446383636e-19
3.535312589e-19
3.65434552e-19
3.818605931e-19
4.046898774e-19
4.362230793e-19
4.792354844e-19
5.370268126e-19
6.134569838e-19
7.129578656e-19
8.405136487e-19
1.001606046e-18
1.202122112e-18
1.448221239e-18
1.746153393e-18
2.102017004e-18
2.521444424e-18
3.009207902e-18
3.568750458e-18
4.201659807e-18
4.90711736e-18
5.68136404e-18
6.517231635e-18
7.40379138e-18
8.326173457e-18
9.265610111e-18
1.019975579e-17
1.110333312e-17
1.194914505e-17
1.270946628e-17
1.335778325e-17
1.387078709e-17
1.423046186e-17
1.442606345e-17
1.44557723e-17
1.43278214e-17
1.406094207e-17
1.368401898e-17
1.323489664e-17
1.275833348e-17
1.230317565e-17
1.191892926e-17
1.165204366e-17
1.154232327e-17
1.161991078e-17
1.190320279e-17
1.239792834e-17
1.309751167e-17
1.398478931e-17
1.503510459e-17
1.622066988e-17
1.751583334e-17
1.890255223e-17
2.03750906e-17
2.194284659e-17
2.363037084e-17
2.54740526e-17
2.751556306e-17
2.979278972e-17
3.232949998e-17
3.512519548e-17
3.814659765e-17
4.132204098e-17
4.453986376e-17
4.765163964e-17
5.048067475e-17
5.283546807e-17
5.452690679e-17
5.538710079e-17
5.528736038e-17
5.415300719e-17
5.197344575e-17
4.880696972e-17
4.478091613e-17
4.008863772e-17
3.498501395e-17
2.978172786e-17
2.484279669e-17
2.058071112e-17
1.745424847e-17
1.596944168e-17
1.668421365e-17
2.021582164e-17
2.724952504e-17
3.854689728e-17
5.49493721e-17
7.737401949e-17
1.069164436e-16
1.419492372e-16
2.182364933e-16
6.983591279e-17
7.141086017e-20
8.362674925e-20
9.208317744e-20
9.883460738e-20
1.067982052e-19
1.15581547e-19
1.251508345e-19
1.354543459e-19
1.464366462e-19
1.580388617e-19
1.701977995e-19
1.828449498e-19
1.959053959e-19
2.09297075e-19
2.229305678e-19
2.367093301e-19
2.505305149e-19
2.642867411e-19
2.778692177e-19
2.911731066e-19
3.041049885e-19
3.165923163e-19
3.285943415e-19
3.401144302e-19
3.512145497e-19
3.620335296e-19
3.728106533e-19
3.839151484e-19
3.958804637e-19
4.094415506e-19
4.255735218e-19
4.455321014e-19
4.708978602e-19
5.036267984e-19
5.461073575e-19
6.012199761e-19
6.72390825e-19
7.636291565e-19
8.795393791e-19
1.025302956e-18
1.206628701e-18
1.429670487e-18
1.700907139e-18
2.026972668e-18
2.414420291e-18
2.869405004e-18
3.397278122e-18
4.002100333e-18
4.686094548e-18
5.449070561e-18
6.287862199e-18
7.195822414e-18
8.162427047e-18
9.173040948e-18
1.020890441e-17
1.124739874e-17
1.226265186e-17
1.322653379e-17
1.41100665e-17
1.488521709e-17
1.552697349e-17
1.601553032e-17
1.633836815e-17
1.649199979e-17
1.648317911e-17
1.632940745e-17
1.605861565e-17
1.570794281e-17
1.532158982e-17
1.494781232e-17
1.463525948e-17
1.442902187e-17
1.436686904e-17
1.44761469e-17
1.477169239e-17
1.525498e-17
1.591464978e-17
1.672856942e-17
1.766754956e-17
1.870064921e-17
1.980164407e-17
2.09557711e-17
2.21654701e-17
2.345367885e-17
2.486342253e-17
2.645301229e-17
2.828705834e-17
3.042446326e-17
3.290522258e-17
3.573798448e-17
3.88900217e-17
4.228089699e-17
4.578091462e-17
4.921537607e-17
5.237533842e-17
5.503467493e-17
5.697181288e-17
5.799316422e-17
5.795467301e-17
5.677841097e-17
5.446243359e-17
5.108367625e-17
4.679508428e-17
4.181911396e-17
3.643990666e-17
3.099579845e-17
2.587291466e-17
2.150033052e-17
1.83479297e-17
1.692840083e-17
1.780372919e-17
2.159494026e-17
2.899330633e-17
4.076977263e-17
5.778188259e-17
8.095968737e-17
1.114368773e-16
1.475152829e-16
2.257248128e-16
7.201943098e-17
8.531214938e-20
9.765526294e-20
1.062839316e-19
1.13231704e-19
1.214188382e-19
1.304587319e-19
1.403237947e-19
1.50969375e-19
1.623483344e-19
1.744116024e-19
1.871074567e-19
2.00380695e-19
2.141717366e-19
2.284160322e-19
2.430439348e-19
2.579809847e-19
2.731488856e-19
2.884673149e-19
3.038574708e-19
3.192476857e-19
3.345811012e-19
3.498251163e-19
3.649819752e-19
3.801009626e-19
3.952929818e-19
4.107494944e-19
4.267668819e-19
4.437763808e-19
4.623781307e-19
4.833775913e-19
5.078235214e-19
5.370489849e-19
5.727181867e-19
6.168816133e-19
6.720383886e-19
7.412002019e-19
8.279469594e-19
9.36464234e-19
1.071555691e-18
1.238628775e-18
1.443654566e-18
1.693100177e-18
1.993824144e-18
2.352917468e-18
2.777469464e-18
3.274242557e-18
3.849252803e-18
4.507266967e-18
5.251238331e-18
6.081710377e-18
6.996223377e-18
7.988765016e-18
9.049314934e-18
1.016354187e-17
1.131271822e-17
1.247392109e-17
1.362059097e-17
1.472350893e-17
1.575222372e-17
1.667689854e-17
1.747047061e-17
1.811094046e-17
1.858356605e-17
1.888272506e-17
1.901323275e-17
1.899093428e-17
1.884242842e-17
1.860381941e-17
1.831844916e-17
1.80336775e-17
1.779694682e-17
1.765156678e-17
1.763275516e-17
1.776442761e-17
1.805707079e-17
1.850691743e-17
1.90966417e-17
1.979786112e-17
2.057568992e-17
2.139532409e-17
2.223013478e-17
2.307013112e-17
2.392911265e-17
2.484857069e-17
2.589658435e-17
2.716076064e-17
2.873565041e-17
3.070660384e-17
3.313290767e-17
3.603282149e-17
3.937219492e-17
4.305760163e-17
4.693490138e-17
5.079458236e-17
5.438527179e-17
5.743561737e-17
5.968239448e-17
6.090033193e-17
6.092830388e-17
5.968771132e-17
5.719122392e-17
5.354238496e-17
4.892827861e-17
4.360834028e-17
3.79023306e-17
3.217958375e-17
2.685049202e-17
2.236079647e-17
1.918982307e-17
1.785407012e-17
1.891626029e-17
2.299828473e-17
3.079536133e-17
4.308871674e-17
6.075078675e-17
8.474013881e-17
1.162013909e-16
1.534428629e-16
2.336978916e-16
7.435859653e-17
1.009327051e-19
1.134128927e-19
1.222327629e-19
1.294022573e-19
1.378436896e-19
1.471769283e-19
1.573812939e-19
1.684201139e-19
1.802555509e-19
1.928494087e-19
2.061626628e-19
2.20154799e-19
2.347831492e-19
2.500025161e-19
2.657650983e-19
2.820209531e-19
2.987190435e-19
3.158093872e-19
3.332470095e-19
3.509978691e-19
3.690467514e-19
3.874064759e-19
4.06128409e-19
4.253145397e-19
4.45132643e-19
4.658360269e-19
4.877887312e-19
5.114956038e-19
5.376357298e-19
5.670978516e-19
6.01018108e-19
6.408226488e-19
6.88278398e-19
7.455535231e-19
8.15284837e-19
9.006445073e-19
1.005395765e-18
1.133929462e-18
1.291278309e-18
1.483110251e-18
1.715703152e-18
1.995895736e-18
2.330998815e-18
2.728643799e-18
3.196545114e-18
3.742164011e-18
4.372276203e-18
5.092457568e-18
5.906508128e-18
6.815836016e-18
7.818827678e-18
8.910241738e-18
1.008067869e-17
1.131619302e-17
1.259812196e-17
1.390321072e-17
1.520411519e-17
1.647035378e-17
1.766974502e-17
1.87703036e-17
1.974248177e-17
2.056157077e-17
2.121002859e-17
2.167949138e-17
2.197223979e-17
2.210191545e-17
2.209331695e-17
2.198112982e-17
2.180752255e-17
2.161866912e-17
2.146049564e-17
2.137415684e-17
2.139183992e-17
2.153337957e-17
2.180400072e-17
2.219343952e-17
2.267679882e-17
2.321761263e-17
2.377352524e-17
2.430460951e-17
2.478368538e-17
2.520717777e-17
2.560429933e-17
2.604186289e-17
2.662213328e-17
2.747225796e-17
2.872613929e-17
3.050226587e-17
3.288221133e-17
3.589331203e-17
3.949666828e-17
4.35802446e-17
4.795740787e-17
5.237298733e-17
5.651984131e-17
6.006725555e-17
6.269828308e-17
6.414878389e-17
6.423969074e-17
6.289676125e-17
6.015646323e-17
5.616008733e-17
5.113994743e-17
4.540201869e-17
3.930881878e-17
3.326500868e-17
2.770675591e-17
2.309540616e-17
1.991660676e-17
1.868620954e-17
1.99628745e-17
2.436518888e-17
3.259024032e-17
4.542869476e-17
6.37745753e-17
8.860836604e-17
1.211298818e-16
1.595763445e-16
2.42071369e-16
7.681829309e-17
1.183938587e-19
1.310199924e-19
1.400500849e-19
1.474678467e-19
1.561962916e-19
1.6586241e-19
1.764531317e-19
1.879405683e-19
2.002971512e-19
2.134966849e-19
2.275140868e-19
2.42324974e-19
2.579052462e-19
2.742309143e-19
2.912782402e-19
3.090242827e-19
3.274481882e-19
3.465338079e-19
3.662740552e-19
3.866772788e-19
4.077751488e-19
4.29631874e-19
4.523544848e-19
4.761053124e-19
5.011178352e-19
5.277175278e-19
5.563477098e-19
5.875995115e-19
6.222443967e-19
6.612687935e-19
7.059124061e-19
7.57713632e-19
8.185653294e-19
8.907807417e-19
9.771649251e-19
1.081082331e-18
1.206511175e-18
1.358079456e-18
1.541083964e-18
1.761496603e-18
2.025958633e-18
2.34175187e-18
2.716723733e-18
3.159138055e-18
3.677430307e-18
4.279860628e-18
4.974073617e-18
5.766579664e-18
6.662170834e-18
7.663282045e-18
8.769315158e-18
9.975961535e-18
1.127458206e-17
1.265171942e-17
1.408882696e-17
1.556230306e-17
1.704392293e-17
1.85017491e-17
1.990156678e-17
2.120881662e-17
2.239091567e-17
2.341977873e-17
2.427430778e-17
2.49425994e-17
2.54236172e-17
2.572809826e-17
2.587846573e-17
2.590756279e-17
2.585608733e-17
2.576881536e-17
2.568996952e-17
2.565833465e-17
2.570274248e-17
2.583838582e-17
2.60642615e-17
2.636209241e-17
2.669729792e-17
2.702274179e-17
2.728587198e-17
2.743936921e-17
2.745454885e-17
2.733568694e-17
2.713232668e-17
2.694569798e-17
2.692513084e-17
2.725189893e-17
2.811213124e-17
2.966547972e-17
3.201788529e-17
3.520309782e-17
3.917209222e-17
4.378716399e-17
4.881976288e-17
5.395576857e-17
5.881476976e-17
6.298739985e-17
6.608673094e-17
6.780119979e-17
6.793482631e-17
6.642690245e-17
6.335172428e-17
5.890375631e-17
5.337469251e-17
4.7128276e-17
4.057735957e-17
3.416575599e-17
2.83557311e-17
2.362152328e-17
2.045001968e-17
1.934994899e-17
2.086923132e-17
2.561779328e-17
3.429142569e-17
4.769207949e-17
6.673625957e-17
9.244842436e-17
1.260550741e-16
1.658212975e-16
2.506581374e-16
7.93689287e-17
1.378168904e-19
1.505968462e-19
1.598562693e-19
1.675499051e-19
1.765999434e-19
1.866411214e-19
1.976686204e-19
2.0966414e-19
2.22611374e-19
2.364972062e-19
2.51311757e-19
2.670482669e-19
2.837029078e-19
3.012748761e-19
3.19766732e-19
3.391851535e-19
3.595425964e-19
3.808604386e-19
4.031738201e-19
4.265383447e-19
4.510382295e-19
4.767953097e-19
5.039795019e-19
5.328218097e-19
5.636312935e-19
5.968169137e-19
6.329139236e-19
6.726134247e-19
7.167940561e-19
7.66556374e-19
8.232627391e-19
8.885867995e-19
9.645746997e-19
1.053716074e-18
1.159017764e-18
1.284070547e-18
1.433101682e-18
1.611012609e-18
1.823407359e-18
2.076617036e-18
2.377716615e-18
2.734515465e-18
3.155491718e-18
3.649640965e-18
4.226223432e-18
4.89441136e-18
5.662849234e-18
6.539137587e-18
7.529240846e-18
8.636818519e-18
9.862490631e-18
1.120307587e-17
1.265086834e-17
1.419303634e-17
1.581123378e-17
1.748152238e-17
1.917470733e-17
2.085718277e-17
2.249233863e-17
2.404251137e-17
2.547137355e-17
2.674658581e-17
2.784248941e-17
2.874257482e-17
2.944145761e-17
2.994606317e-17
3.027574011e-17
3.046102131e-17
3.054088922e-17
3.055865059e-17
3.055688078e-17
3.057210726e-17
3.062984876e-17
3.074041199e-17
3.089576257e-17
3.106799e-17
3.12102306e-17
3.126112174e-17
3.115373269e-17
3.082929302e-17
3.025493253e-17
2.94431889e-17
2.846939553e-17
2.748127229e-17
2.669369353e-17
2.636347234e-17
2.674703198e-17
2.805434647e-17
3.04149798e-17
3.386214912e-17
3.832829681e-17
4.364213692e-17
4.952365682e-17
5.558443159e-17
6.134759365e-17
6.629778006e-17
6.995531942e-17
7.195127628e-17
7.207787688e-17
7.030425601e-17
6.67638298e-17
6.172525665e-17
5.555708405e-17
4.869327375e-17
4.160423481e-17
3.477539492e-17
2.869348749e-17
2.384060706e-17
2.069728038e-17
1.975610075e-17
2.154541323e-17
2.665947947e-17
3.578983371e-17
4.975012179e-17
6.949048967e-17
9.607652075e-17
1.308194239e-16
1.719277896e-16
2.592909322e-16
8.195286205e-17
1.593205727e-19
1.722612231e-19
1.817690361e-19
1.897671714e-19
1.991750423e-19
2.096359526e-19
2.211538494e-19
2.337208574e-19
2.473328388e-19
2.619909214e-19
2.777016926e-19
2.94477489e-19
3.123365254e-19
3.313032237e-19
3.514087528e-19
3.726921845e-19
3.952026086e-19
4.190027488e-19
4.441744866e-19
4.708259055e-19
4.990995699e-19
5.291816106e-19
5.61312639e-19
5.958015442e-19
6.33043705e-19
6.735438659e-19
7.179428002e-19
7.67046419e-19
8.218568901e-19
8.836076649e-19
9.538061941e-19
1.034288273e-18
1.127284687e-18
1.235496046e-18
1.362166976e-18
1.511150863e-18
1.686961727e-18
1.894817509e-18
2.14068325e-18
2.431317919e-18
2.774314336e-18
3.178105244e-18