/*--------------------------------*- C++ -*----------------------------------*\
  =========                 |
  \\      /  F ield         | OpenFOAM: The Open Source CFD Toolbox
   \\    /   O peration     | Website:  https://openfoam.org
    \\  /    A nd           | Version:  6
     \\/     M anipulation  |
\*---------------------------------------------------------------------------*/
FoamFile
{
    version     2.0;
    format      ascii;
    class       volScalarField;
    location    "0.0047";
    object      Num_divU;
}
// * * * * * * * * * * * * * * * * * * * * * * * * * * * * * * * * * * * * * //

dimensions      [0 0 -1 0 0 0 0];

internalField   nonuniform List<scalar> 
600
(
6.81488112e-10
-1.915658759e-09
-1.055515141e-08
-2.010056113e-08
-3.148599308e-08
-4.48851154e-08
-6.061777228e-08
-7.893998985e-08
-9.999869291e-08
-1.2386074e-07
-1.504266311e-07
-1.794558329e-07
-2.105906882e-07
-2.435894525e-07
-2.783055937e-07
-3.139623293e-07
-3.470823598e-07
-3.693360387e-07
-3.696109932e-07
-3.467929602e-07
-3.216597808e-07
-3.038845639e-07
-2.813818672e-07
-2.562871442e-07
-2.478599163e-07
-2.795967578e-07
-3.367745904e-07
-4.241780637e-07
-4.756109136e-07
-1.156758123e-07
8.819482605e-10
-1.47966441e-09
-9.983866979e-09
-1.948765746e-08
-3.091936276e-08
-4.449797846e-08
-6.068725487e-08
-7.984440585e-08
-1.023497212e-07
-1.284028246e-07
-1.580609487e-07
-1.909481577e-07
-2.264049169e-07
-2.635419018e-07
-3.018634726e-07
-3.411938141e-07
-3.804497454e-07
-4.132279281e-07
-4.235270555e-07
-3.992960475e-07
-3.708173821e-07
-3.514614638e-07
-3.15573822e-07
-2.652842701e-07
-2.176213561e-07
-2.118191531e-07
-2.36492531e-07
-3.062743268e-07
-4.322074068e-07
-1.012460893e-07
1.010939112e-09
-1.433143939e-09
-1.035696423e-08
-2.040352982e-08
-3.256480111e-08
-4.721788636e-08
-6.493220605e-08
-8.632169582e-08
-1.119432879e-07
-1.422471118e-07
-1.772923323e-07
-2.165662006e-07
-2.587504727e-07
-3.021359028e-07
-3.455852647e-07
-3.906397547e-07
-4.411999337e-07
-4.960618553e-07
-5.24675922e-07
-4.808602033e-07
-4.36903341e-07
-4.22846892e-07
-3.661516978e-07
-2.757316731e-07
-1.639973967e-07
-1.237423366e-07
-1.293165207e-07
-1.765192043e-07
-2.98467844e-07
1.513019031e-08
1.076252289e-09
-1.680457161e-09
-1.143536359e-08
-2.245516564e-08
-3.591033266e-08
-5.230886054e-08
-7.245221066e-08
-9.718753469e-08
-1.273892762e-07
-1.637566473e-07
-2.065651366e-07
-2.551745179e-07
-3.075913891e-07
-3.60287044e-07
-4.099136257e-07
-4.585252672e-07
-5.201742555e-07
-6.15539741e-07
-6.927521977e-07
-6.010948253e-07
-5.234841286e-07
-5.333674009e-07
-4.436649147e-07
-3.052940842e-07
-8.987520222e-08
-1.806744063e-08
-6.053852833e-09
1.27835636e-09
-9.193535298e-08
2.117337041e-07
1.070342619e-09
-2.257901267e-09
-1.319997592e-08
-2.561439123e-08
-4.085370401e-08
-5.963426949e-08
-8.298332597e-08
-1.120468168e-07
-1.480126834e-07
-1.919879003e-07
-2.447178427e-07
-3.060076478e-07
-3.73550389e-07
-4.41175822e-07
-4.99065454e-07
-5.430714433e-07
-5.979061019e-07
-7.559852631e-07
-9.625109473e-07
-7.801615558e-07
-6.493793454e-07
-6.846547596e-07
-5.319355515e-07
-3.627904327e-07
-2.138836289e-08
7.851916591e-08
1.087111027e-07
2.655617176e-07
1.813510248e-07
4.809997006e-07
9.691741332e-10
-3.177875197e-09
-1.563452827e-08
-2.980145164e-08
-4.72750095e-08
-6.899239867e-08
-9.623585141e-08
-1.304024864e-07
-1.72970394e-07
-2.254873946e-07
-2.895573016e-07
-3.665169032e-07
-4.556037447e-07
-5.492995381e-07
-6.2579299e-07
-6.555266814e-07
-6.406801989e-07
-8.572976973e-07
-1.290812803e-06
-1.330871214e-06
-1.393671124e-06
-5.848483929e-07
-4.512422598e-07
-1.967609966e-07
-6.20302686e-07
-1.165478241e-07
2.166617428e-07
7.173931679e-07
5.683706159e-07
8.167870775e-07
7.545650824e-10
-4.46455546e-09
-1.870506766e-08
-3.493332188e-08
-5.502224237e-08
-8.017631956e-08
-1.119216407e-07
-1.518374549e-07
-2.015076487e-07
-2.626701498e-07
-3.377704665e-07
-4.307427474e-07
-5.465190045e-07
-6.842627614e-07
-8.138644312e-07
-8.580766061e-07
-6.499834151e-07
-9.44756284e-07
-7.864641551e-07
-2.106458069e-06
-2.411585671e-06
-5.379132867e-07
-1.139972716e-07
-8.687438237e-08
-1.405124543e-06
-4.073178904e-07
5.640556997e-07
1.727711504e-06
1.288940047e-06
1.230038614e-06
3.991381896e-10
-6.143177961e-09
-2.237461307e-08
-4.088103625e-08
-6.3876112e-08
-9.289160366e-08
-1.297387682e-07
-1.761233494e-07
-2.334626683e-07
-3.029620392e-07
-3.865286744e-07
-4.895088906e-07
-6.254817359e-07
-8.176893215e-07
-1.056918383e-06
-1.24144705e-06
-1.108402716e-06
-5.091973795e-07
3.013055225e-07
-2.213740752e-06
-1.940745383e-06
6.42256088e-08
4.804674357e-07
3.384099676e-07
-1.183179089e-06
-2.735026727e-06
1.074514412e-06
3.894015486e-06
3.675880474e-06
1.892068173e-06
-1.388788751e-10
-8.270149483e-09
-2.660618313e-08
-4.745863677e-08
-7.346006791e-08
-1.065976571e-07
-1.491163262e-07
-2.030160058e-07
-2.695496536e-07
-3.486372456e-07
-4.387257366e-07
-5.396098517e-07
-6.646379189e-07
-8.766432982e-07
-1.251853103e-06
-1.836922428e-06
-2.440638146e-06
4.216788026e-07
2.715586842e-06
2.691152296e-12
1.380567007e-11
2.042777192e-11
2.661568241e-11
2.727189296e-11
-2.524148335e-12
-9.507720862e-12
3.658324718e-06
1.266210301e-06
4.390050631e-06
3.726642488e-06
-9.531946044e-10
-1.099010707e-08
-3.141853392e-08
-5.441933263e-08
-8.316705366e-08
-1.202674992e-07
-1.68686694e-07
-2.312565479e-07
-3.100307685e-07
-4.047135903e-07
-5.092205699e-07
-6.060632168e-07
-6.638748684e-07
-6.936761688e-07
-1.132166884e-06
-2.396056918e-06
-4.183266467e-06
-1.847707317e-11
-1.009046253e-11
3.192027658e-13
7.488783103e-12
1.185542056e-11
1.869836769e-11
1.138477084e-11
-8.84652718e-13
-3.533243946e-11
-2.816222995e-11
1.060216049e-11
6.126291055e-06
-6.788986485e-13
-2.284326662e-09
-1.469555473e-08
-3.70248806e-08
-6.156245869e-08
-9.218972355e-08
-1.322656092e-07
-1.856687998e-07
-2.567147031e-07
-3.501909113e-07
-4.708789331e-07
-6.202975907e-07
-7.855660937e-07
-9.068222422e-07
-9.810040911e-07
-6.259176136e-07
3.709521635e-07
-6.542611751e-12
-9.245001758e-12
-6.938320903e-12
-5.068515713e-13
3.751789036e-12
6.003019776e-12
1.021371355e-11
1.161773982e-11
-8.902463854e-12
-1.973274985e-11
6.43153037e-14
-1.39324765e-11
-1.643219554e-11
-2.7430289e-11
-4.811089381e-09
-2.035688609e-08
-4.409171349e-08
-6.89332727e-08
-9.979623431e-08
-1.407340662e-07
-1.962253814e-07
-2.715375358e-07
-3.739202913e-07
-5.151825168e-07
-7.162078689e-07
-1.009797983e-06
-1.35974836e-06
-8.31188535e-07
4.459571137e-07
2.543681736e-06
-3.884455945e-12
-7.986457766e-12
-5.469901474e-12
-9.963835215e-13
1.320787646e-12
1.007890229e-12
1.870124337e-12
2.881648664e-12
-2.859045144e-12
-1.3539072e-11
-6.813016049e-12
-1.014306187e-11
-2.261146562e-11
-1.109974086e-11
-1.057999729e-08
-3.026551649e-08
-5.410813858e-08
-7.70647543e-08
-1.057495963e-07
-1.44712268e-07
-1.981861317e-07
-2.704575224e-07
-3.661767215e-07
-4.908624903e-07
-6.519684551e-07
-8.675212657e-07
-1.419295854e-06
-2.18866907e-06
-2.233251442e-06
-2.982549745e-12
-7.802018246e-12
-9.681233933e-12
-7.539156065e-12
-4.091432027e-12
-2.910127907e-12
-3.703023344e-12
-3.232892431e-12
-9.949442242e-13
-2.443972804e-12
-5.245260215e-12
-5.166150208e-12
-1.101197617e-11
-1.205979451e-11
-1.770198869e-11
-2.654811659e-08
-4.974532548e-08
-6.96974101e-08
-8.682775657e-08
-1.102759817e-07
-1.446398519e-07
-1.935538048e-07
-2.604680118e-07
-3.487627595e-07
-4.610210349e-07
-5.97460255e-07
-7.733704564e-07
-1.541087307e-06
-2.515867305e-06
-2.00875173e-06
-7.910346114e-12
-1.275769736e-11
-1.441652597e-11
-1.282208447e-11
-1.036225709e-11
-9.228204046e-12
-9.036683265e-12
-6.518021498e-12
-8.610042372e-13
3.026588576e-12
2.713681243e-12
2.086023679e-12
-2.453030414e-12
-9.119923019e-12
-8.958703609e-12
-7.417552677e-08
-8.97564526e-08
-9.390900946e-08
-9.835172112e-08
-1.128903715e-07
-1.402394021e-07
-1.826201293e-07
-2.433995537e-07
-3.284653373e-07
-4.482899714e-07
-6.193526601e-07
-8.473863999e-07
-7.965488511e-07
-8.256736492e-07
1.484697865e-08
-1.170188206e-11
-1.814667807e-11
-2.061369172e-11
-1.861147469e-11
-1.606793319e-11
-1.489325126e-11
-1.217809075e-11
-5.06790096e-12
3.794048904e-12
1.02971878e-11
1.328355427e-11
9.330634629e-12
4.03203342e-12
-3.823844371e-13
-1.261799221e-11
-2.853283013e-07
-1.872994607e-07
-1.28036464e-07
-1.088995446e-07
-1.114288302e-07
-1.298211154e-07
-1.623673275e-07
-2.100488007e-07
-2.767474091e-07
-3.708469557e-07
-5.065989587e-07
-6.874138732e-07
-5.842510539e-07
-5.313315361e-07
2.088571724e-07
-1.355392913e-11
-1.928726367e-11
-1.997008902e-11
-2.281882727e-11
-2.23539493e-11
-1.888100492e-11
-1.227484948e-11
-4.44528546e-13
1.110790754e-11
1.699328737e-11
1.367454031e-11
1.640892592e-11
1.131107964e-11
7.847398079e-13
-2.622121501e-13
-3.251527531e-07
-2.040873676e-07
-1.301350486e-07
-1.043686917e-07
-1.014515587e-07
-1.12750975e-07
-1.342251338e-07
-1.635890316e-07
-1.988122467e-07
-2.36570726e-07
-2.702256131e-07
-3.074982841e-07
-9.167014552e-07
-1.609610488e-06
-1.334109249e-06
-1.019590102e-11
-1.392447261e-11
-2.5287365e-11
-2.387432011e-11
-2.305341479e-11
-2.028398754e-11
-9.059081894e-12
4.977785076e-12
1.525045296e-11
1.675080122e-11
2.682699004e-11
1.501765671e-11
1.434938762e-11
1.944265581e-11
-1.015667264e-11
-1.276890659e-07
-1.11960951e-07
-9.138753898e-08
-8.221256544e-08
-8.318318991e-08
-9.153320342e-08
-1.044616265e-07
-1.191769849e-07
-1.326731677e-07
-1.418624137e-07
-1.448070765e-07
-1.476820996e-07
-4.049605267e-07
-6.202872182e-07
-2.136739396e-06
-4.695752179e-12
-1.103627663e-11
-8.072760575e-12
-3.564002336e-11
-3.455076545e-11
-2.179663984e-11
-3.519401715e-12
1.329854191e-11
1.87060834e-11
1.949109928e-11
-3.530322748e-12
4.30767018e-11
3.670015073e-11
-3.17981065e-11
1.947114607e-11
-2.306506916e-08
-4.344138609e-08
-5.033256199e-08
-5.562826654e-08
-6.207326545e-08
-6.952362682e-08
-7.616377812e-08
-7.959510276e-08
-7.761877391e-08
-7.08754389e-08
-6.758921618e-08
-8.894933098e-08
-1.1188703e-07
5.788359434e-07
1.422034008e-06
3.782408107e-06
5.383111978e-12
-6.369491209e-11
-6.225078258e-11
-4.901457782e-11
-2.387591932e-11
-1.182233228e-13
1.330224376e-11
7.281010063e-12
-1.376156047e-11
9.258140143e-11
8.467160265e-11
-5.297292671e-12
4.134882186e-11
-4.341859004e-11
4.904786971e-08
8.773212323e-09
-1.501765208e-08
-3.091690593e-08
-4.214283319e-08
-4.90921554e-08
-5.002787974e-08
-4.115986394e-08
-1.670752835e-08
3.244048987e-08
1.229645987e-07
2.930640238e-07
6.423410206e-07
1.293387496e-06
3.065865868e-06
2.19057943e-06
-3.953467009e-11
-4.854855367e-11
-7.138070021e-11
-6.150942311e-11
-1.445840227e-11
1.562639855e-11
2.058736656e-11
4.508269189e-12
7.108886814e-11
1.019989643e-10
1.075936983e-10
5.031876649e-11
-2.428171201e-11
9.72044786e-11
)
;

boundaryField
{
    lowerWall
    {
        type            calculated;
        value           nonuniform 0();
    }
    atmosphere
    {
        type            calculated;
        value           nonuniform List<scalar> 
20
(
6.81488112e-10
8.819482605e-10
1.010939112e-09
1.076252289e-09
1.070342619e-09
9.691741332e-10
7.545650824e-10
3.991381896e-10
-1.388788751e-10
-9.531946044e-10
-2.284326662e-09
-4.811089381e-09
-1.057999729e-08
-2.654811659e-08
-7.417552677e-08
-2.853283013e-07
-3.251527531e-07
-1.276890659e-07
-2.306506916e-08
4.904786971e-08
)
;
    }
    rightWall
    {
        type            empty;
    }
    leftWall
    {
        type            empty;
    }
    frontAndBack
    {
        type            calculated;
        value           nonuniform List<scalar> 
30
(
6.81488112e-10
-1.915658759e-09
-1.055515141e-08
-2.010056113e-08
-3.148599308e-08
-4.48851154e-08
-6.061777228e-08
-7.893998985e-08
-9.999869291e-08
-1.2386074e-07
-1.504266311e-07
-1.794558329e-07
-2.105906882e-07
-2.435894525e-07
-2.783055937e-07
-3.139623293e-07
-3.470823598e-07
-3.693360387e-07
-3.696109932e-07
-3.467929602e-07
-3.216597808e-07
-3.038845639e-07
-2.813818672e-07
-2.562871442e-07
-2.478599163e-07
-2.795967578e-07
-3.367745904e-07
-4.241780637e-07
-4.756109136e-07
-1.156758123e-07
)
;
    }
    procBoundary0to1
    {
        type            processor;
        value           nonuniform List<scalar> 
20
(
1.645868026e-11
1.698943098e-11
1.721838543e-11
1.730500087e-11
1.754237386e-11
2.340911737e-11
2.500726449e-11
-3.94773267e-13
1.277488763e-11
-4.774429139e-11
-1.173370754e-11
-2.289970961e-11
-1.658344468e-11
-2.168220534e-11
-1.440062372e-11
-1.972500737e-11
-4.19652449e-12
-2.818476932e-11
3.681636365e-11
-4.202293239e-11
)
;
    }
    procBoundary0to2
    {
        type            processor;
        value           nonuniform List<scalar> 
30
(
9.73145901e-08
4.530998532e-08
1.144145182e-08
-1.153104016e-08
-2.619297082e-08
-3.292374694e-08
-2.938234906e-08
-1.045518326e-08
3.27871042e-08
1.150924801e-07
2.619079816e-07
5.180983839e-07
9.590907362e-07
1.647499925e-06
2.204530428e-06
2.314486501e-06
-1.275891229e-06
-7.674564424e-11
-8.107608531e-11
-4.466798751e-11
3.604978552e-12
3.601422359e-11
3.200379521e-11
6.925535963e-12
2.853248469e-11
1.498170835e-10
8.992091796e-11
2.491469952e-11
1.545730212e-06
-4.155813154e-11
)
;
    }
}


// ************************************************************************* //
