/*--------------------------------*- C++ -*----------------------------------*\
  =========                 |
  \\      /  F ield         | OpenFOAM: The Open Source CFD Toolbox
   \\    /   O peration     | Website:  https://openfoam.org
    \\  /    A nd           | Version:  6
     \\/     M anipulation  |
\*---------------------------------------------------------------------------*/
FoamFile
{
    version     2.0;
    format      ascii;
    class       volVectorField;
    location    "0.0047";
    object      U;
}
// * * * * * * * * * * * * * * * * * * * * * * * * * * * * * * * * * * * * * //

dimensions      [0 1 -1 0 0 0 0];

internalField   nonuniform List<vector> 
600
(
(0 2.570682981e-10 -2.278788128e-13)
(0 2.580833654e-10 -6.66295422e-13)
(0 2.594972468e-10 -1.048812064e-12)
(0 2.610090168e-10 -1.333342206e-12)
(0 2.622957309e-10 -1.47552349e-12)
(0 2.629085323e-10 -1.428248391e-12)
(0 2.622768255e-10 -1.141964479e-12)
(0 2.597098682e-10 -5.680150304e-13)
(0 2.544071975e-10 3.356005457e-13)
(0 2.454850398e-10 1.59320219e-12)
(0 2.320304779e-10 3.196617774e-12)
(0 2.131948093e-10 5.086033458e-12)
(0 1.883281044e-10 7.134444973e-12)
(0 1.571343472e-10 9.147290471e-12)
(8.889857479e-53 1.197935263e-10 1.090087113e-11)
(5.918655488e-53 7.697171326e-11 1.223269101e-11)
(0 2.966350439e-11 1.315311413e-11)
(0 -2.104489529e-11 1.384184391e-11)
(0 -7.394051058e-11 1.432711862e-11)
(0 -1.269079899e-10 1.387381735e-11)
(0 -1.757191457e-10 1.098078731e-11)
(0 -2.143600644e-10 5.032560906e-12)
(0 -2.372261239e-10 -3.206294267e-12)
(0 -2.403458166e-10 -1.310585518e-11)
(0 -2.209994498e-10 -2.445123322e-11)
(0 -1.780442267e-10 -3.625694367e-11)
(0 -1.149221398e-10 -4.474732195e-11)
(0 -4.390644039e-11 -4.420143056e-11)
(0 1.648651564e-11 -2.986230251e-11)
(0 1.179204762e-12 1.1442119e-24)
(0 2.557780987e-10 -7.038542729e-13)
(0 2.569069266e-10 -2.059818388e-12)
(0 2.585288052e-10 -3.25049174e-12)
(0 2.60350728e-10 -4.151272677e-12)
(0 2.620559219e-10 -4.630737519e-12)
(0 2.632014402e-10 -4.548103282e-12)
(0 2.632190671e-10 -3.755065708e-12)
(0 2.61411862e-10 -2.10377657e-12)
(0 2.569572962e-10 5.355789541e-13)
(0 2.489249112e-10 4.244409909e-12)
(0 2.363222898e-10 9.009956578e-12)
(0 2.181869679e-10 1.466617217e-11)
(0 1.937383188e-10 2.083561207e-11)
(0 1.625848417e-10 2.691346023e-11)
(0 1.249355367e-10 3.216793084e-11)
(0 8.168310867e-11 3.603378825e-11)
(0 3.415571372e-11 3.85404469e-11)
(0 -1.654115756e-11 4.045352023e-11)
(0 -7.007988758e-11 4.229733386e-11)
(0 -1.258420987e-10 4.193071251e-11)
(0 -1.796243729e-10 3.391984448e-11)
(0 -2.235957813e-10 1.615561555e-11)
(0 -2.513775796e-10 -8.163552055e-12)
(0 -2.599114356e-10 -3.697703412e-11)
(0 -2.465600662e-10 -7.042801757e-11)
(0 -2.072350943e-10 -1.068650914e-10)
(0 -1.411200417e-10 -1.345973383e-10)
(0 -5.954884695e-11 -1.348443035e-10)
(0 1.449005834e-11 -9.181409419e-11)
(0 1.221492938e-12 1.201519114e-24)
(0 2.535174254e-10 -1.24541079e-12)
(0 2.54830424e-10 -3.652368669e-12)
(0 2.567815669e-10 -5.792633642e-12)
(0 2.590907507e-10 -7.464987654e-12)
(0 2.614512025e-10 -8.455795322e-12)
(0 2.634303185e-10 -8.534329556e-12)
(0 2.644664511e-10 -7.45492337e-12)
(0 2.638588923e-10 -4.967453952e-12)
(0 2.607611603e-10 -8.426047071e-13)
(0 2.541847693e-10 5.083284459e-12)
(0 2.430280187e-10 1.283434997e-11)
(0 2.261536046e-10 2.218812978e-11)
(0 2.02549864e-10 3.254451144e-11)
(0 1.71610498e-10 4.283195057e-11)
(1.001492393e-52 1.335216335e-10 5.160216372e-11)
(6.88908845e-53 8.957841262e-11 5.75536994e-11)
(0 4.194832278e-11 6.059951388e-11)
(0 -7.738348257e-12 6.281718741e-11)
(0 -6.063478847e-11 6.710390227e-11)
(0 -1.197751529e-10 7.058807682e-11)
(0 -1.813251098e-10 5.982088984e-11)
(0 -2.330993313e-10 3.002491558e-11)
(0 -2.674232285e-10 -8.997658153e-12)
(0 -2.845859564e-10 -5.301262783e-11)
(0 -2.839132599e-10 -1.053725989e-10)
(0 -2.561763728e-10 -1.694439481e-10)
(0 -1.91292775e-10 -2.24338054e-10)
(0 -9.69791952e-11 -2.322570403e-10)
(0 -1.313310891e-12 -1.615670584e-10)
(0 1.313564863e-12 1.313841943e-24)
(0 2.500855607e-10 -1.888005901e-12)
(0 2.516419e-10 -5.552327487e-12)
(0 2.540246486e-10 -8.861355273e-12)
(0 2.569707528e-10 -1.154612699e-11)
(0 2.601866844e-10 -1.331901675e-11)
(0 2.632544065e-10 -1.386704875e-11)
(0 2.656242119e-10 -1.285244275e-11)
(0 2.665989202e-10 -9.923087423e-12)
(0 2.653175645e-10 -4.738252375e-12)
(0 2.607422143e-10 2.98155387e-12)
(0 2.516570132e-10 1.336436776e-11)
(0 2.367031534e-10 2.623127385e-11)
(0 2.145071471e-10 4.085694158e-11)
(0 1.840134014e-10 5.568577492e-11)
(-1.130350226e-52 1.451453793e-10 6.82239406e-11)
(-7.570093334e-53 9.971132063e-11 7.565413257e-11)
(0 5.170511013e-11 7.697008613e-11)
(0 5.014085178e-12 7.638681518e-11)
(0 -4.326171095e-11 8.385613142e-11)
(0 -1.050138274e-10 9.939692042e-11)
(0 -1.779305587e-10 9.025931876e-11)
(0 -2.389511364e-10 4.558847366e-11)
(0 -2.778725491e-10 -6.158820522e-12)
(0 -3.04104472e-10 -5.712564381e-11)
(0 -3.242316978e-10 -1.187834382e-10)
(0 -3.208369261e-10 -2.145995095e-10)
(0 -2.649420545e-10 -3.114302097e-10)
(0 -1.558496381e-10 -3.399702147e-10)
(0 -2.813446021e-11 -2.453550132e-10)
(0 1.473550082e-12 1.483585252e-24)
(0 2.45221993e-10 -2.6621737e-12)
(0 2.470656166e-10 -7.852334018e-12)
(0 2.499550661e-10 -1.261507855e-11)
(0 2.536471666e-10 -1.662498597e-11)
(0 2.578628025e-10 -1.953208071e-11)
(0 2.622000743e-10 -2.095271574e-11)
(0 2.66124532e-10 -2.046837734e-11)
(0 2.689512849e-10 -1.763307833e-11)
(0 2.698249536e-10 -1.199296613e-11)
(0 2.676941491e-10 -3.125570083e-12)
(0 2.612739608e-10 9.278625791e-12)
(0 2.489995916e-10 2.524280066e-11)
(0 2.29027352e-10 4.415342082e-11)
(0 1.994814299e-10 6.415946508e-11)
(0 1.593636255e-10 8.145339083e-11)
(0 1.105761653e-10 9.029742537e-11)
(0 6.026806052e-11 8.613809622e-11)
(0 1.91503684e-11 7.443243822e-11)
(0 -1.543333296e-11 8.232273625e-11)
(0 -7.644754255e-11 1.274878502e-10)
(0 -1.6629743e-10 1.278667e-10)
(0 -2.360757568e-10 5.697595878e-11)
(0 -2.707404724e-10 -5.458958221e-12)
(0 -3.000534875e-10 -4.843750864e-11)
(0 -3.492963436e-10 -9.52895267e-11)
(0 -3.898949773e-10 -2.27598438e-10)
(0 -3.577500794e-10 -3.911886036e-10)
(0 -2.350685211e-10 -4.601256982e-10)
(0 -6.52513884e-11 -3.508562759e-10)
(0 1.739029228e-12 1.743170906e-24)
(0 2.386228266e-10 -3.590906572e-12)
(0 2.407789635e-10 -1.06219886e-11)
(0 2.442166617e-10 -1.717177718e-11)
(0 2.487133229e-10 -2.287139678e-11)
(0 2.540019012e-10 -2.732188013e-11)
(0 2.59692477e-10 -3.008347434e-11)
(0 2.652612167e-10 -3.067360713e-11)
(0 2.700360782e-10 -2.857228405e-11)
(0 2.731856441e-10 -2.323307568e-11)
(0 2.737014297e-10 -1.409912063e-11)
(0 2.703436101e-10 -6.375100245e-13)
(0 2.614993882e-10 1.754997082e-11)
(0 2.449309447e-10 4.03799104e-11)
(0 2.175884864e-10 6.638085922e-11)
(0 1.762618676e-10 9.085725691e-11)
(0 1.209126641e-10 1.035856613e-10)
(0 6.199397765e-11 9.036733966e-11)
(0 2.71284857e-11 4.889476045e-11)
(0 2.37700093e-11 4.079751904e-11)
(0 -2.929619237e-11 1.519183999e-10)
(0 -1.437305824e-10 1.760337603e-10)
(0 -2.17942826e-10 5.007652086e-11)
(0 -2.304472061e-10 -1.930789034e-11)
(0 -2.466244766e-10 -3.422585253e-11)
(0 -3.277455196e-10 -1.595647572e-11)
(0 -4.356617605e-10 -1.886733777e-10)
(0 -4.543888368e-10 -4.560783032e-10)
(0 -3.275591757e-10 -5.872359534e-10)
(0 -1.12541144e-10 -4.858495403e-10)
(0 2.189459246e-12 2.178636664e-24)
(0 2.299574319e-10 -4.688546481e-12)
(0 2.324305889e-10 -1.390412887e-11)
(0 2.364210336e-10 -2.260263447e-11)
(0 2.417254388e-10 -3.038467816e-11)
(0 2.480828318e-10 -3.681519681e-11)
(0 2.551035334e-10 -4.141157612e-11)
(0 2.622551791e-10 -4.36438101e-11)
(0 2.688548817e-10 -4.29446099e-11)
(0 2.740810254e-10 -3.87224141e-11)
(0 2.77000688e-10 -3.036099263e-11)
(0 2.765705381e-10 -1.71844698e-11)
(0 2.714917645e-10 1.608019989e-12)
(0 2.596922499e-10 2.689785339e-11)
(0 2.372330046e-10 5.892687736e-11)
(0 1.972072717e-10 9.447200686e-11)
(0 1.32477069e-10 1.197364313e-10)
(0 5.027574924e-11 1.021675559e-10)
(0 1.377511457e-11 -1.404592967e-12)
(0 6.636377691e-11 -7.643165255e-11)
(0 2.558802751e-11 1.822793071e-10)
(0 -1.004179332e-10 2.607742126e-10)
(0 -1.624784974e-10 -6.627750194e-12)
(0 -1.419290583e-10 -6.456744034e-11)
(0 -1.303020783e-10 -4.345168935e-11)
(0 -2.19048456e-10 1.585106933e-10)
(0 -3.812344034e-10 -6.656286798e-11)
(0 -5.104458995e-10 -4.918098217e-10)
(0 -4.066522061e-10 -6.870555289e-10)
(0 -1.73259086e-10 -6.515954189e-10)
(0 3.007070296e-12 2.98329596e-24)
(0 2.188879428e-10 -5.960265065e-12)
(0 2.21661069e-10 -1.771331501e-11)
(0 2.261705938e-10 -2.89293958e-11)
(0 2.322309373e-10 -3.919054516e-11)
(0 2.395805379e-10 -4.803540763e-11)
(0 2.478135516e-10 -5.49442988e-11)
(0 2.563544641e-10 -5.934364908e-11)
(0 2.644475816e-10 -6.063187891e-11)
(0 2.711900307e-10 -5.822139015e-11)
(0 2.75633716e-10 -5.157045198e-11)
(0 2.769558444e-10 -4.0136889e-11)
(0 2.745884391e-10 -2.312274172e-11)
(0 2.678757477e-10 1.125280449e-12)
(0 2.541867346e-10 3.577259732e-11)
(0 2.238872686e-10 8.405704556e-11)
(0 1.555524898e-10 1.37833836e-10)
(0 2.657880514e-11 1.473459114e-10)
(0 -2.387644715e-11 -5.127283522e-11)
(0 9.846918785e-11 -3.553953992e-10)
(0 1.59046753e-24 1.44969933e-11)
(0 -3.358598058e-24 9.856881804e-12)
(0 -1.657186374e-24 -4.289457775e-12)
(0 -5.842658737e-25 -2.731153132e-12)
(0 5.568120279e-25 -3.677980115e-12)
(0 2.280148057e-24 1.102872886e-11)
(0 -3.457939367e-24 1.589582012e-11)
(0 -4.397237322e-10 -4.881454059e-10)
(0 -3.922618756e-10 -6.684381236e-10)
(0 -2.771214904e-10 -8.21140238e-10)
(0 4.657345893e-12 4.131055891e-24)
(0 2.05091587e-10 -7.402397821e-12)
(0 2.081255319e-10 -2.203622995e-11)
(0 2.13081294e-10 -3.612500368e-11)
(0 2.197927884e-10 -4.924419136e-11)
(0 2.279978942e-10 -6.091321778e-11)
(0 2.372654027e-10 -7.056930647e-11)
(0 2.469418212e-10 -7.757137393e-11)
(0 2.561094203e-10 -8.124605464e-11)
(0 2.635962745e-10 -8.098651453e-11)
(0 2.681078007e-10 -7.639901371e-11)
(0 2.685963968e-10 -6.743242552e-11)
(0 2.64999752e-10 -5.425596218e-11)
(0 2.591918824e-10 -3.626993672e-11)
(0 2.546156737e-10 -9.175344776e-12)
(0 2.482034191e-10 4.036700341e-11)
(0 2.071971551e-10 1.310261739e-10)
(0 3.831878451e-12 2.631427883e-10)
(0 3.060152551e-24 -4.213845945e-12)
(0 -1.037839384e-11 -8.672419469e-12)
(0 -1.026772936e-11 1.850501793e-11)
(0 6.088936224e-12 1.384661649e-11)
(0 7.53657639e-12 -4.158267492e-12)
(0 6.114776588e-13 -2.95628744e-12)
(0 -6.364729333e-12 -2.883975774e-12)
(0 -5.301587064e-12 1.652315593e-11)
(0 9.095882305e-12 2.292807153e-11)
(0 8.979567017e-12 -1.480182803e-12)
(0 -3.099591347e-24 9.834756208e-12)
(0 -5.550801747e-10 -8.402348708e-10)
(0 8.481423204e-12 -2.272521122e-11)
(0 1.882868429e-10 -9.003765794e-12)
(0 1.915189245e-10 -2.683335559e-11)
(0 1.968035751e-10 -4.411408861e-11)
(0 2.040033834e-10 -6.043288092e-11)
(0 2.128726462e-10 -7.530172e-11)
(0 2.229732539e-10 -8.81025044e-11)
(0 2.335772307e-10 -9.807269385e-11)
(0 2.435542351e-10 -1.043519335e-10)
(0 2.51268623e-10 -1.061234069e-10)
(0 2.545551822e-10 -1.029022537e-10)
(0 2.509753292e-10 -9.502792528e-11)
(0 2.388811683e-10 -8.432247192e-11)
(0 2.203540476e-10 -7.43903081e-11)
(0 2.07443691e-10 -6.857746384e-11)
(0 2.246833363e-10 -5.990106048e-11)
(0 3.033155602e-10 -2.40993281e-11)
(0 1.115998926e-11 1.113528854e-11)
(0 1.620296717e-11 -2.31129642e-12)
(0 2.594252349e-12 -9.853471773e-12)
(0 -2.356351033e-12 5.474959788e-12)
(0 2.212101859e-12 5.952366198e-12)
(0 3.321707374e-12 1.180523031e-12)
(0 1.27429172e-12 6.800230431e-13)
(0 -6.451679379e-13 2.378179461e-12)
(0 9.366600393e-13 8.61720536e-12)
(0 6.872048295e-12 1.049955606e-11)
(0 7.031296249e-12 4.432167091e-13)
(0 8.424600317e-12 1.487204069e-11)
(0 -1.611399863e-11 1.406729109e-12)
(0 -2.617158294e-11 -6.472928491e-11)
(0 1.682673065e-10 -1.074971174e-11)
(0 1.716086549e-10 -3.204264742e-11)
(0 1.770454106e-10 -5.276920958e-11)
(0 1.844885832e-10 -7.256574898e-11)
(0 1.93750207e-10 -9.09707652e-11)
(0 2.044487995e-10 -1.073145486e-10)
(0 2.1586946e-10 -1.20660918e-10)
(0 2.267721755e-10 -1.29809161e-10)
(0 2.351175679e-10 -1.333873274e-10)
(0 2.376664512e-10 -1.301148621e-10)
(0 2.294406596e-10 -1.194010308e-10)
(0 2.032899832e-10 -1.025906479e-10)
(0 1.507669356e-10 -8.511412458e-11)
(0 6.979746688e-11 -7.826739678e-11)
(1.908146309e-52 -1.868333715e-11 -7.877603745e-11)
(3.892490471e-52 -4.238546786e-12 3.534146792e-24)
(0 -2.311296268e-12 1.610456174e-11)
(0 3.886626612e-12 3.772665308e-12)
(0 2.158637986e-12 -6.022217041e-13)
(0 7.873327739e-13 2.545044437e-12)
(0 1.794499451e-12 3.307030397e-12)
(0 2.264233219e-12 2.247489515e-12)
(0 1.809134091e-12 2.117130365e-12)
(0 1.572453005e-12 3.098943378e-12)
(0 2.819789563e-12 5.067717427e-12)
(0 5.67266951e-12 5.258614047e-12)
(0 8.601276077e-12 2.593532125e-12)
(0 1.633734804e-11 3.591301715e-12)
(0 3.527405832e-11 -9.64099679e-12)
(0 -4.176210386e-12 -3.210488617e-11)
(0 1.44951687e-10 -1.263521766e-11)
(0 1.482846083e-10 -3.759088232e-11)
(0 1.536084148e-10 -6.190145214e-11)
(0 1.60917622e-10 -8.533918397e-11)
(0 1.70144218e-10 -1.075489695e-10)
(0 1.810621159e-10 -1.278595664e-10)
(0 1.931389346e-10 -1.451741879e-10)
(0 2.053338699e-10 -1.579011177e-10)
(0 2.157758192e-10 -1.639130845e-10)
(0 2.211851002e-10 -1.60543087e-10)
(0 2.157133524e-10 -1.446467231e-10)
(0 1.884897057e-10 -1.128752698e-10)
(0 1.181354338e-10 -6.27045484e-11)
(0 -2.8561399e-11 2.390488386e-12)
(0 -3.337718315e-10 7.964051483e-11)
(0 -8.770825274e-12 -1.055703028e-11)
(0 -9.94273217e-12 2.339498505e-12)
(0 -5.038159798e-13 1.899967531e-12)
(0 1.366631485e-12 1.127029218e-12)
(0 1.552901059e-12 2.000365422e-12)
(0 1.914546939e-12 2.483015842e-12)
(0 2.131807346e-12 2.384912681e-12)
(0 2.125745581e-12 2.44150458e-12)
(0 2.305419116e-12 2.83246282e-12)
(0 3.096330702e-12 3.296041112e-12)
(0 4.397862999e-12 2.874377026e-12)
(0 5.36398392e-12 1.081707664e-12)
(0 4.619489553e-12 -1.889478808e-12)
(0 -6.810187769e-12 -1.166935296e-11)
(0 -9.696210796e-12 1.225717554e-11)
(0 1.184703923e-10 -1.470756371e-11)
(0 1.216413939e-10 -4.342864563e-11)
(0 1.264497865e-10 -7.125167798e-11)
(0 1.330463043e-10 -9.828052775e-11)
(0 1.415491321e-10 -1.244074797e-10)
(0 1.519677215e-10 -1.490612027e-10)
(0 1.640954179e-10 -1.710916279e-10)
(0 1.773930983e-10 -1.88678713e-10)
(0 1.908483737e-10 -1.992405086e-10)
(0 2.028469189e-10 -1.993426167e-10)
(0 2.111706694e-10 -1.846086324e-10)
(0 2.134099071e-10 -1.497363207e-10)
(0 2.062593593e-10 -8.978922901e-11)
(0 2.007554847e-10 -1.342445611e-11)
(0 1.431835699e-11 1.49687994e-24)
(0 1.822556311e-11 -1.070300907e-11)
(0 5.394925685e-12 -2.840322896e-12)
(0 2.674157352e-12 3.606625666e-13)
(0 2.259035885e-12 1.20998562e-12)
(0 2.143319399e-12 1.846252701e-12)
(0 2.179046711e-12 2.239532798e-12)
(0 2.222721958e-12 2.367317254e-12)
(0 2.256684231e-12 2.431064235e-12)
(0 2.426989536e-12 2.492941788e-12)
(0 2.861703767e-12 2.409822445e-12)
(0 3.45833606e-12 1.86162818e-12)
(0 3.837420245e-12 7.482259467e-13)
(0 3.586287441e-12 -5.614743884e-13)
(0 2.935713197e-12 -9.189666155e-13)
(0 5.119604562e-12 2.206805115e-12)
(0 8.93522483e-11 -1.719946089e-11)
(0 9.210273379e-11 -4.961508348e-11)
(0 9.576158582e-11 -8.049142415e-11)
(0 1.008052082e-10 -1.106952816e-10)
(0 1.075746096e-10 -1.405449483e-10)
(0 1.163065014e-10 -1.696650081e-10)
(0 1.271009508e-10 -1.969686327e-10)
(0 1.398687899e-10 -2.20609834e-10)
(0 1.542461711e-10 -2.379453569e-10)
(0 1.695457297e-10 -2.456328647e-10)
(0 1.84986648e-10 -2.400864685e-10)
(0 2.009219119e-10 -2.185086716e-10)
(0 2.19663552e-10 -1.799918614e-10)
(0 2.696052939e-10 -1.182031656e-10)
(0 9.421602367e-12 -2.748114118e-24)
(0 1.326423908e-11 5.286744355e-12)
(0 5.871715287e-12 1.392036463e-12)
(0 3.546492549e-12 1.17280569e-12)
(0 2.852221622e-12 1.505752918e-12)
(0 2.582448239e-12 1.93481477e-12)
(0 2.435611493e-12 2.261193761e-12)
(0 2.323338783e-12 2.413424485e-12)
(0 2.251370116e-12 2.42221371e-12)
(0 2.284177327e-12 2.2982929e-12)
(0 2.465017093e-12 1.988874892e-12)
(0 2.736266498e-12 1.41462907e-12)
(0 2.940881346e-12 6.11338967e-13)
(0 2.952296988e-12 -1.854217496e-13)
(0 2.902508638e-12 -5.958114825e-13)
(0 3.230742463e-12 -6.30069894e-13)
(0 5.907356323e-11 -2.098102559e-11)
(0 6.053530746e-11 -5.647480192e-11)
(0 6.198657405e-11 -8.92192747e-11)
(0 6.438000897e-11 -1.21647671e-10)
(0 6.816908848e-11 -1.545786406e-10)
(0 7.368670643e-11 -1.878232585e-10)
(0 8.121618931e-11 -2.203813388e-10)
(0 9.093978375e-11 -2.504062866e-10)
(0 1.027001991e-10 -2.750838745e-10)
(0 1.153931863e-10 -2.905737088e-10)
(0 1.256004515e-10 -2.922376298e-10)
(0 1.2475553e-10 -2.754043123e-10)
(0 9.519249134e-11 -2.361524438e-10)
(0 1.210070705e-13 -1.615935255e-10)
(0 -5.270285989e-12 -1.263754964e-24)
(0 -5.257787752e-12 5.582271964e-12)
(0 1.280987029e-12 1.948573868e-12)
(0 2.787873807e-12 1.432406395e-12)
(0 3.021044963e-12 1.705036515e-12)
(0 2.898760241e-12 2.125660485e-12)
(0 2.657656424e-12 2.456603555e-12)
(0 2.383741906e-12 2.60269071e-12)
(0 2.141552646e-12 2.546012056e-12)
(0 1.993650719e-12 2.289300843e-12)
(0 1.978039939e-12 1.833179858e-12)
(0 2.080800138e-12 1.197291869e-12)
(0 2.237369429e-12 4.684058264e-13)
(0 2.379136994e-12 -1.952386277e-13)
(0 2.491065054e-12 -6.483984254e-13)
(0 2.517080207e-12 -9.327678922e-13)
(0 3.184817949e-11 -2.853747569e-11)
(0 2.789729285e-11 -6.4494875e-11)
(0 2.555252862e-11 -9.683338127e-11)
(0 2.417939195e-11 -1.299667673e-10)
(0 2.377038428e-11 -1.648676796e-10)
(0 2.44989848e-11 -2.013590813e-10)
(0 2.673482989e-11 -2.385028214e-10)
(0 3.09972989e-11 -2.744791789e-10)
(0 3.779000395e-11 -3.062264762e-10)
(0 4.710823858e-11 -3.288491947e-10)
(0 5.719839568e-11 -3.347002142e-10)
(0 6.177965666e-11 -3.121623468e-10)
(0 4.578819308e-11 -2.453590436e-10)
(0 -2.585624776e-11 -1.272353657e-10)
(0 -5.120737165e-12 1.888099085e-24)
(0 -4.911798543e-12 -5.031029937e-12)
(0 1.721849729e-12 -6.12636979e-13)
(0 3.302955199e-12 9.030243952e-13)
(0 3.545475713e-12 1.755993039e-12)
(0 3.33401528e-12 2.405787377e-12)
(0 2.912641718e-12 2.836547506e-12)
(0 2.412747284e-12 2.994614806e-12)
(0 1.937980248e-12 2.870045412e-12)
(0 1.571345129e-12 2.48011752e-12)
(0 1.373008119e-12 1.857717384e-12)
(0 1.371492466e-12 1.073318083e-12)
(0 1.54835085e-12 2.607085259e-13)
(0 1.835492736e-12 -4.150813575e-13)
(0 2.164979374e-12 -8.694455444e-13)
(0 2.4079638e-12 -9.811362813e-13)
(0 -2.686690248e-12 -5.506450973e-11)
(0 -8.923512872e-12 -7.514789905e-11)
(0 -1.41027811e-11 -1.025554747e-10)
(0 -1.926677338e-11 -1.343625346e-10)
(0 -2.460315953e-11 -1.697202978e-10)
(0 -3.002663753e-11 -2.080437956e-10)
(0 -3.510781517e-11 -2.48452882e-10)
(0 -3.898030153e-11 -2.893816105e-10)
(0 -4.017159942e-11 -3.28086214e-10)
(0 -3.630056815e-11 -3.598883928e-10)
(0 -2.344140931e-11 -3.769446819e-10)
(0 5.409056599e-12 -3.663745664e-10)
(0 6.087426168e-11 -3.084326731e-10)
(0 1.791401482e-10 -1.835775391e-10)
(0 9.823295558e-12 3.171087931e-24)
(0 1.425418675e-11 -4.96909303e-12)
(0 7.215041362e-12 -2.709754956e-13)
(0 5.156503826e-12 1.036179337e-12)
(0 4.523807947e-12 2.009948441e-12)
(0 3.979314709e-12 2.904715629e-12)
(0 3.246483853e-12 3.489004594e-12)
(0 2.417239812e-12 3.669279562e-12)
(0 1.627055359e-12 3.45977212e-12)
(0 9.8132269e-13 2.90378832e-12)
(0 5.712405008e-13 2.044469196e-12)
(0 4.837912784e-13 9.780060005e-13)
(0 7.489699872e-13 -8.36188805e-14)
(0 1.248982923e-12 -8.560058712e-13)
(0 1.925010129e-12 -1.432505279e-12)
(0 2.959090618e-12 -1.694814512e-12)
(0 -4.556240295e-11 -6.565082603e-11)
(0 -4.946889931e-11 -8.028432563e-11)
(0 -5.583829473e-11 -1.038326722e-10)
(0 -6.435923321e-11 -1.333653571e-10)
(0 -7.496783177e-11 -1.676047408e-10)
(0 -8.757233456e-11 -2.058360619e-10)
(0 -1.018299743e-10 -2.473490961e-10)
(0 -1.169262622e-10 -2.910356936e-10)
(0 -1.312842558e-10 -3.349793399e-10)
(0 -1.421337123e-10 -3.759332557e-10)
(0 -1.448401945e-10 -4.085878449e-10)
(0 -1.318354723e-10 -4.242839515e-10)
(0 -9.27792338e-11 -4.072731582e-10)
(0 -1.976529163e-12 -3.150455984e-10)
(0 1.478555714e-11 -7.551514268e-25)
(0 1.96926133e-11 1.030131593e-11)
(0 7.727122096e-12 3.461923727e-12)
(0 5.583879134e-12 1.503116585e-12)
(0 5.414012004e-12 2.342478386e-12)
(0 4.813071433e-12 3.713715543e-12)
(0 3.677205651e-12 4.545378491e-12)
(0 2.38351481e-12 4.734018577e-12)
(0 1.172489006e-12 4.396433291e-12)
(0 1.560422048e-13 3.631047716e-12)
(0 -5.527741994e-13 2.438448341e-12)
(0 -7.565956109e-13 8.772821082e-13)
(0 -2.856610216e-13 -7.162952519e-13)
(0 4.866063389e-13 -1.491971665e-12)
(0 1.326170733e-12 -2.310841282e-12)
(0 4.893389575e-12 -5.417879205e-12)
(0 -8.434991343e-11 -6.81911654e-11)
(0 -8.836879865e-11 -7.979197001e-11)
(0 -9.636726366e-11 -9.985354976e-11)
(0 -1.083161654e-10 -1.261882546e-10)
(0 -1.243358072e-10 -1.575839401e-10)
(0 -1.445647462e-10 -1.933557219e-10)
(0 -1.689973758e-10 -2.329610806e-10)
(0 -1.972908703e-10 -2.75670837e-10)
(0 -2.285646301e-10 -3.202213821e-10)
(0 -2.612777299e-10 -3.643618084e-10)
(0 -2.934636278e-10 -4.041561268e-10)
(0 -3.240258631e-10 -4.327188949e-10)
(0 -3.568924295e-10 -4.376322123e-10)
(0 -4.022593592e-10 -3.945694889e-10)
(0 -5.02944246e-10 -2.775040303e-10)
(0 -7.159276845e-12 1.008983019e-11)
(0 -6.333933822e-12 -2.43589437e-12)
(0 4.037058483e-12 -8.293953616e-13)
(0 6.734406905e-12 2.141853757e-12)
(0 6.182214815e-12 5.061424296e-12)
(0 4.266786888e-12 6.244655519e-12)
(0 2.268294612e-12 6.325280993e-12)
(0 5.240844977e-13 5.761172233e-12)
(0 -9.766622599e-13 4.785255263e-12)
(0 -2.182525107e-12 3.199977266e-12)
(0 -2.670952316e-12 8.111611573e-13)
(0 -1.620283787e-12 -2.164550773e-12)
(0 -3.455631072e-13 -2.085399145e-12)
(0 -8.945314177e-12 6.044138005e-12)
(0 -9.357428305e-12 -1.692844308e-11)
(0 -1.186175877e-10 -6.472707967e-11)
(0 -1.233250526e-10 -7.404894726e-11)
(0 -1.331068975e-10 -9.061448092e-11)
(0 -1.482871509e-10 -1.128206678e-10)
(0 -1.693072799e-10 -1.396427327e-10)
(0 -1.966562808e-10 -1.704531955e-10)
(0 -2.307664163e-10 -2.047890172e-10)
(0 -2.718389098e-10 -2.420998174e-10)
(0 -3.196080522e-10 -2.814291478e-10)
(0 -3.730309083e-10 -3.209102437e-10)
(0 -4.298162301e-10 -3.568339751e-10)
(0 -4.853653954e-10 -3.818128024e-10)
(0 -5.296168348e-10 -3.813722697e-10)
(0 -5.354883079e-10 -3.291294829e-10)
(0 -4.414990019e-10 -1.970417439e-10)
(0 -2.867892531e-12 -2.476155095e-24)
(0 1.558672415e-12 -1.771611011e-11)
(0 1.016162726e-11 -4.52800661e-12)
(0 1.130483166e-11 1.99171635e-12)
(0 8.915873196e-12 8.144573743e-12)
(0 4.941062349e-12 9.0467829e-12)
(0 1.900031524e-12 8.561915836e-12)
(0 -3.675367248e-13 7.537962346e-12)
(0 -2.405152762e-12 6.548350575e-12)
(0 -4.526868306e-12 4.766764228e-12)
(0 -6.121123652e-12 1.335453671e-12)
(0 -3.182221325e-12 -6.665519282e-12)
(0 8.695295116e-12 -1.072875818e-11)
(0 3.296812602e-11 -9.835131549e-13)
(0 -2.000313388e-12 2.548212332e-11)
)
;

boundaryField
{
    lowerWall
    {
        type            slip;
    }
    atmosphere
    {
        type            pressureInletOutletVelocity;
        tangentialVelocity uniform (0 0 0);
        value           nonuniform List<vector> 
20
(
(0 2.570682981e-10 0)
(0 2.557780987e-10 0)
(0 2.535174254e-10 0)
(0 2.500855607e-10 0)
(0 2.45221993e-10 0)
(0 2.386228266e-10 0)
(0 2.299574319e-10 0)
(0 2.188879428e-10 0)
(0 2.05091587e-10 0)
(0 1.882868429e-10 0)
(0 1.682673065e-10 0)
(0 1.44951687e-10 0)
(0 1.184703923e-10 0)
(0 8.93522483e-11 0)
(0 5.907356323e-11 0)
(0 3.184817949e-11 0)
(0 -2.686690248e-12 -5.506450973e-11)
(0 -4.556240295e-11 -6.565082603e-11)
(0 -8.434991343e-11 -6.81911654e-11)
(0 -1.186175877e-10 -6.472707967e-11)
)
;
    }
    rightWall
    {
        type            empty;
    }
    leftWall
    {
        type            empty;
    }
    frontAndBack
    {
        type            slip;
    }
    procBoundary0to1
    {
        type            processor;
        value           nonuniform List<vector> 
20
(
(0 2.316669972e-12 4.228817567e-14)
(0 2.39376844e-12 1.343601009e-13)
(0 2.559790378e-12 2.520571442e-13)
(0 2.842183069e-12 4.254643662e-13)
(0 3.293692325e-12 7.159091683e-13)
(0 4.01251777e-12 1.268041069e-12)
(0 5.182309609e-12 2.467886653e-12)
(0 7.140876869e-12 5.474352936e-12)
(0 1.044035708e-11 1.417106982e-11)
(0 -6.769250141e-12 2.056890044e-11)
(0 -3.772056132e-11 2.083599904e-12)
(0 -4.364029174e-12 -1.406873158e-11)
(0 3.883410776e-12 -8.116625194e-12)
(0 2.383357679e-12 -3.198335852e-12)
(0 1.938082231e-12 -1.471177091e-12)
(0 1.990021341e-12 -4.274351308e-13)
(0 2.609210985e-12 1.052920504e-12)
(0 4.521233892e-12 5.4972516e-12)
(0 -2.823596344e-12 1.084562865e-11)
(0 -3.439050801e-11 -5.706955759e-12)
)
;
    }
    procBoundary0to2
    {
        type            processor;
        value           nonuniform List<vector> 
30
(
(0 -1.47389279e-10 -5.697102605e-11)
(0 -1.527585438e-10 -6.412433146e-11)
(0 -1.640214626e-10 -7.692235038e-11)
(0 -1.817459263e-10 -9.413326155e-11)
(0 -2.066605214e-10 -1.148655127e-10)
(0 -2.395861765e-10 -1.384918173e-10)
(0 -2.813561841e-10 -1.64522935e-10)
(0 -3.326365065e-10 -1.92444901e-10)
(0 -3.936149527e-10 -2.215016426e-10)
(0 -4.634574499e-10 -2.503580361e-10)
(0 -5.392641784e-10 -2.765670874e-10)
(0 -6.138474848e-10 -2.958125161e-10)
(0 -6.708878616e-10 -3.012848025e-10)
(0 -6.749929655e-10 -2.845509244e-10)
(0 -5.618596959e-10 -2.418804391e-10)
(0 -2.167586373e-10 -1.647261262e-10)
(0 1.401344648e-11 -1.25059427e-11)
(0 2.374488489e-11 -1.558672384e-12)
(0 1.940698725e-11 2.207816995e-12)
(0 1.323728136e-11 1.647851632e-11)
(0 4.684128981e-12 1.323690253e-11)
(0 7.594740574e-13 1.133884152e-11)
(0 -1.489480763e-12 9.281034122e-12)
(0 -3.747860377e-12 9.103408614e-12)
(0 -7.39542201e-12 7.984685201e-12)
(0 -1.410323583e-11 6.431316445e-12)
(0 -1.368449564e-11 -1.510404687e-11)
(0 -3.092975449e-12 -2.47501756e-11)
(0 -1.773443139e-11 -8.425506206e-12)
(0 -1.883164618e-11 5.715708208e-11)
)
;
    }
}


// ************************************************************************* //
