/*--------------------------------*- C++ -*----------------------------------*\
  =========                 |
  \\      /  F ield         | OpenFOAM: The Open Source CFD Toolbox
   \\    /   O peration     | Website:  https://openfoam.org
    \\  /    A nd           | Version:  10
     \\/     M anipulation  |
\*---------------------------------------------------------------------------*/
FoamFile
{
    format      ascii;
    class       volScalarField;
    location    "0.0002";
    object      LatentHeat;
}
// * * * * * * * * * * * * * * * * * * * * * * * * * * * * * * * * * * * * * //

dimensions      [0 2 -2 0 0 0 0];

internalField   uniform 295653;

boundaryField
{
    lowerWall
    {
        type            calculated;
        value           nonuniform List<scalar> 
60
(
295653
295653
295653
295653
295653
295653
295653
295653
295653
295653
295653
295653
295653
295653
295653
295653
295653
295653
295653
295653
295653
295653
295653
295653
295653
295653
295653
295653
295653
295653
295653
295653
295653
295653
295653
295653
295653
295653
295653
295653
295653
295653
295653
295653
295653
295653
295653
295653
295653
295653
295653
295653
295653
295653
295653
295653
295653
295653
295653
295653
)
;
    }
    atmosphere
    {
        type            calculated;
        value           nonuniform List<scalar> 0();
    }
    rightWall
    {
        type            empty;
    }
    leftWall
    {
        type            empty;
    }
    frontAndBack
    {
        type            calculated;
        value           nonuniform List<scalar> 
60
(
295653
295653
295653
295653
295653
295653
295653
295653
295653
295653
295653
295653
295653
295653
295653
295653
295653
295653
295653
295653
295653
295653
295653
295653
295653
295653
295653
295653
295653
295653
295653
295653
295653
295653
295653
295653
295653
295653
295653
295653
295653
295653
295653
295653
295653
295653
295653
295653
295653
295653
295653
295653
295653
295653
295653
295653
295653
295653
295653
295653
)
;
    }
    procBoundary3to1
    {
        type            processor;
        value           uniform 295653;
    }
    procBoundary3to2
    {
        type            processor;
        value           uniform 295653;
    }
}


// ************************************************************************* //
