/*--------------------------------*- C++ -*----------------------------------*\
  =========                 |
  \\      /  F ield         | OpenFOAM: The Open Source CFD Toolbox
   \\    /   O peration     | Website:  https://openfoam.org
    \\  /    A nd           | Version:  10
     \\/     M anipulation  |
\*---------------------------------------------------------------------------*/
FoamFile
{
    format      ascii;
    class       volVectorField;
    location    "0.0002";
    object      Marangoni;
}
// * * * * * * * * * * * * * * * * * * * * * * * * * * * * * * * * * * * * * //

dimensions      [1 -2 -2 0 0 0 0];

internalField   nonuniform List<vector> 
3600
(
(-0 2.325825686e-05 4.496465076e-07)
(-0 7.650258511e-06 1.416878547e-07)
(-0 1.603155306e-06 2.8491393e-08)
(-0 2.356141564e-06 4.024378932e-08)
(-0 1.921545964e-06 3.158976024e-08)
(-0 6.74014068e-07 1.067982974e-08)
(-0 1.775773565e-06 2.715500479e-08)
(-0 6.440095342e-07 9.516039812e-09)
(-0 3.036724939e-07 4.340857895e-09)
(-0 5.847480626e-07 8.09508445e-09)
(-0 6.610826219e-07 8.872394612e-09)
(-0 9.238413114e-08 1.203207437e-09)
(-0 1.77512082e-07 2.245596091e-09)
(-0 1.237112555e-07 1.52143938e-09)
(-0 4.509295465e-07 5.395812448e-09)
(-0 1.205550714e-07 1.404683474e-09)
(-0 2.296231679e-07 2.607221386e-09)
(-0 4.660298854e-08 5.160037922e-10)
(-0 1.298674354e-07 1.403163635e-09)
(-0 4.162885541e-08 4.391862215e-10)
(-0 7.986620886e-08 8.232407256e-10)
(-0 3.321765763e-08 3.34728446e-10)
(-0 1.644649381e-08 1.621043995e-10)
(-0 4.362105796e-09 4.207673278e-11)
(-0 1.30233529e-08 1.230009899e-10)
(-0 8.32829298e-09 7.705259019e-11)
(-0 7.708688426e-09 6.989612631e-11)
(-0 2.38245062e-08 2.11799458e-10)
(-0 4.188494807e-09 3.65229442e-11)
(-0 1.426496797e-09 1.220551475e-11)
(-0 6.172205712e-09 5.184016816e-11)
(-0 4.194860767e-09 3.459716265e-11)
(-0 1.846770024e-09 1.496174597e-11)
(-0 1.215204373e-09 9.674057107e-12)
(-0 1.518850779e-09 1.188506729e-11)
(-0 7.435558597e-10 5.720828526e-12)
(-0 2.088891681e-10 1.580687365e-12)
(-0 2.812505936e-10 2.093767913e-12)
(-0 2.64966383e-10 1.94108884e-12)
(-0 9.375209101e-11 6.760261222e-13)
(-0 1.360124524e-10 9.655849855e-13)
(-0 9.941938224e-11 6.950331337e-13)
(-0 1.01668913e-10 7.000490035e-13)
(-0 3.899556919e-11 2.645034394e-13)
(-0 1.053656163e-11 7.041135458e-14)
(-0 9.869238817e-12 6.498030118e-14)
(-0 2.509032791e-11 1.627603051e-13)
(-0 1.339426671e-11 8.559359942e-14)
(-0 1.044018485e-11 6.570041716e-14)
(-0 3.657659945e-12 2.265389259e-14)
(-0 1.727385445e-12 1.051925322e-14)
(-0 2.308096203e-12 1.379926665e-14)
(-0 2.926055207e-12 1.713796129e-14)
(-0 1.061961782e-12 6.076685814e-15)
(-0 4.375664885e-14 2.439678244e-16)
(-0 4.081496946e-13 2.217742089e-15)
(-0 2.486608803e-13 1.332350716e-15)
(-0 1.469931797e-13 8.166294351e-16)
(-0 6.548482319e-14 4.484912e-16)
(-0 7.253329667e-14 1.208189667e-15)
(-0 9.326442024e-06 5.409099276e-07)
(-0 4.681011198e-06 2.600813684e-07)
(-0 1.849170878e-06 9.858879811e-08)
(-0 2.384511093e-06 1.221826297e-07)
(-0 1.858390471e-06 9.165282657e-08)
(-0 1.653811955e-06 7.861327034e-08)
(-0 1.538786064e-06 7.059210536e-08)
(-0 1.353887432e-06 6.001550136e-08)
(-0 2.857821443e-07 1.225528795e-08)
(-0 1.119338935e-06 4.648725671e-08)
(-0 2.807343681e-07 1.130320973e-08)
(-0 2.885751615e-07 1.127520654e-08)
(-0 9.399873614e-08 3.567380576e-09)
(-0 2.219838414e-07 8.190147131e-09)
(-0 6.997387067e-08 2.511944665e-09)
(-0 3.293553756e-07 1.151290143e-08)
(-0 3.779759352e-08 1.287521021e-09)
(-0 1.618216238e-07 5.375322039e-09)
(-0 6.649301314e-08 2.155329235e-09)
(-0 7.966805273e-08 2.521556118e-09)
(-0 2.107908377e-08 6.518478957e-10)
(-0 7.078157056e-08 2.139809202e-09)
(-0 3.791843693e-08 1.121252803e-09)
(-0 2.269879957e-08 6.568718827e-10)
(-0 8.548994195e-09 2.42232855e-10)
(-0 1.048054423e-08 2.909025381e-10)
(-0 1.889249143e-08 5.139186996e-10)
(-0 9.177280174e-09 2.447640275e-10)
(-0 1.403450306e-08 3.671449398e-10)
(-0 2.281087656e-09 5.855446044e-11)
(-0 5.099065948e-09 1.284840763e-10)
(-0 2.602001587e-09 6.438179399e-11)
(-0 1.31906287e-09 3.206028743e-11)
(-0 1.845432382e-09 4.40747378e-11)
(-0 1.994095663e-10 4.681279429e-12)
(-0 1.15331831e-09 2.662111519e-11)
(-0 2.3019637e-10 5.225884966e-12)
(-0 4.101617139e-10 9.160537904e-12)
(-0 4.393523774e-10 9.656008502e-12)
(-0 3.980652223e-11 8.611241243e-13)
(-0 1.385103085e-11 2.94999656e-13)
(-0 3.433358613e-11 7.200774092e-13)
(-0 9.008633866e-11 1.860895032e-12)
(-0 3.597746729e-11 7.32091096e-13)
(-0 6.499928998e-12 1.303060953e-13)
(-0 7.066523703e-13 1.395748264e-14)
(-0 1.385530172e-11 2.696173412e-13)
(-0 1.782230089e-11 3.416296572e-13)
(-0 2.372641858e-12 4.478483214e-14)
(-0 3.161798016e-12 5.873079909e-14)
(-0 3.000201132e-12 5.478568631e-14)
(-0 1.09099169e-12 1.955393856e-14)
(-0 2.429346522e-12 4.263892032e-14)
(-0 1.493142072e-12 2.558770555e-14)
(-0 6.183620539e-13 1.031514827e-14)
(-0 5.697531202e-13 9.247725764e-15)
(-0 6.400933491e-13 1.021854372e-14)
(-0 3.141037322e-13 5.17792733e-15)
(-0 2.931996962e-13 5.924608981e-15)
(-0 7.391457215e-14 3.613563714e-15)
(-0 1.474454215e-06 1.425208583e-07)
(-0 2.593579598e-06 2.401616861e-07)
(-0 2.298260187e-06 2.042128521e-07)
(-0 1.303446683e-06 1.113107353e-07)
(-0 2.233700522e-06 1.835983611e-07)
(-0 3.631262814e-07 2.876764501e-08)
(-0 1.611279384e-06 1.231935444e-07)
(-0 7.019147935e-07 5.185695703e-08)
(-0 7.407906967e-07 5.29454141e-08)
(-0 4.434481027e-07 3.069461455e-08)
(-0 3.026330238e-07 2.030823751e-08)
(-0 2.091290394e-07 1.361859083e-08)
(-0 2.462272523e-07 1.557464866e-08)
(-0 6.588962208e-08 4.051766086e-09)
(-0 2.249891035e-08 1.346154159e-09)
(-0 1.208437916e-07 7.04053198e-09)
(-0 9.18778699e-08 5.216317017e-09)
(-0 8.346631458e-08 4.62108171e-09)
(-0 5.975213835e-09 3.228174092e-10)
(-0 7.277973788e-08 3.839388397e-09)
(-0 4.450805502e-08 2.294041895e-09)
(-0 3.548996159e-08 1.788255133e-09)
(-0 1.423684469e-08 7.016761428e-10)
(-0 1.969067172e-08 9.497488483e-10)
(-0 1.138901516e-08 5.378673002e-10)
(-0 4.504400674e-09 2.083876616e-10)
(-0 5.29017557e-09 2.398539309e-10)
(-0 1.717224208e-08 7.633651496e-10)
(-0 3.463071344e-09 1.509988844e-10)
(-0 3.848905751e-09 1.646747673e-10)
(-0 2.738444976e-09 1.150096724e-10)
(-0 1.438586549e-09 5.932844903e-11)
(-0 1.551524041e-09 6.285381347e-11)
(-0 1.357021941e-09 5.401934346e-11)
(-0 7.675077265e-10 3.003112958e-11)
(-0 4.802802108e-10 1.847742447e-11)
(-0 5.199669227e-10 1.967460057e-11)
(-0 6.333384254e-10 2.357596027e-11)
(-0 2.919913923e-10 1.069598703e-11)
(-0 2.460184249e-10 8.870399975e-12)
(-0 9.572984403e-11 3.398191624e-12)
(-0 5.16509308e-11 1.805490024e-12)
(-0 9.124940875e-11 3.141549628e-12)
(-0 2.620390874e-11 8.886747267e-13)
(-0 2.365212116e-11 7.902339043e-13)
(-0 8.954255234e-12 2.947415155e-13)
(-0 4.784701666e-12 1.551562035e-13)
(-0 2.6068325e-12 8.326169078e-14)
(-0 3.913680186e-12 1.230724069e-13)
(-0 4.732562375e-12 1.464225514e-13)
(-0 1.341970326e-12 4.080293197e-14)
(-0 1.202890708e-12 3.587915844e-14)
(-0 1.359753539e-12 3.968479186e-14)
(-0 7.576860532e-13 2.156284659e-14)
(-0 4.086767873e-13 1.129806002e-14)
(-0 2.929418023e-13 7.85364481e-15)
(-0 3.9735667e-14 1.042079486e-15)
(-0 2.845077959e-13 7.637717842e-15)
(-0 5.932570882e-14 1.928084172e-15)
(-0 4.919913245e-15 3.824131544e-16)
(-0 3.685361184e-06 4.987000805e-07)
(-0 4.161550791e-07 5.394691183e-08)
(-0 2.204982165e-06 2.742802629e-07)
(-0 1.272013149e-06 1.520692951e-07)
(-0 1.054732701e-06 1.213652624e-07)
(-0 1.532513432e-06 1.699659584e-07)
(-0 1.10048148e-06 1.177916019e-07)
(-0 8.548994003e-07 8.842110155e-08)
(-0 7.960063299e-07 7.964739376e-08)
(-0 4.346504171e-07 4.211973974e-08)
(-0 6.056473272e-07 5.689915776e-08)
(-0 4.622276098e-07 4.214127043e-08)
(-0 1.38053058e-07 1.222547385e-08)
(-0 1.006649206e-07 8.666553784e-09)
(-0 1.19919112e-07 1.004536702e-08)
(-0 1.851424102e-07 1.51019851e-08)
(-0 1.016651151e-07 8.081177311e-09)
(-0 7.448642942e-08 5.773797393e-09)
(-0 7.656598424e-08 5.791531486e-09)
(-0 5.149168007e-08 3.80315914e-09)
(-0 2.670892485e-08 1.927420954e-09)
(-0 3.993143351e-08 2.81706988e-09)
(-0 2.485772475e-08 1.715316276e-09)
(-0 8.270519987e-09 5.585239801e-10)
(-0 4.60102616e-09 3.042321744e-10)
(-0 4.804561105e-10 3.112079642e-11)
(-0 2.210288802e-09 1.403098433e-10)
(-0 7.108505079e-09 4.424316476e-10)
(-0 7.971168475e-09 4.86627839e-10)
(-0 3.587412589e-09 2.148986683e-10)
(-0 4.141556517e-09 2.435321941e-10)
(-0 2.165995809e-09 1.25068158e-10)
(-0 1.447382898e-09 8.209529454e-11)
(-0 1.232241428e-09 6.867827083e-11)
(-0 5.354203905e-10 2.933216727e-11)
(-0 1.70107724e-10 9.162839741e-12)
(-0 7.087677895e-10 3.754846166e-11)
(-0 2.578906709e-10 1.344080751e-11)
(-0 4.322142104e-10 2.216683089e-11)
(-0 1.164197924e-10 5.876960776e-12)
(-0 4.348980095e-11 2.161392564e-12)
(-0 9.903311205e-11 4.846591749e-12)
(-0 3.258737217e-11 1.570698106e-12)
(-0 5.594957595e-11 2.656373712e-12)
(-0 1.912085922e-11 8.943102671e-13)
(-0 1.177996976e-11 5.427766236e-13)
(-0 1.41283689e-12 6.412487166e-14)
(-0 5.782206815e-12 2.584511902e-13)
(-0 5.486959497e-12 2.414116269e-13)
(-0 2.643909354e-12 1.144074926e-13)
(-0 3.644462812e-12 1.548963646e-13)
(-0 1.721780851e-12 7.17277133e-14)
(-0 6.137827141e-13 2.498619886e-14)
(-0 1.104413675e-12 4.374893365e-14)
(-0 5.937473083e-13 2.277182448e-14)
(-0 2.936144571e-13 1.086123532e-14)
(-0 2.979414521e-13 1.068478547e-14)
(-0 6.713360782e-15 2.42862652e-16)
(-0 8.510068005e-14 3.647904819e-15)
(-0 7.963644859e-16 7.997495317e-17)
(-0 2.974521678e-07 5.174873196e-08)
(-0 1.778066231e-06 2.963306374e-07)
(-0 9.676965878e-07 1.547547861e-07)
(-0 3.530133985e-07 5.425720827e-08)
(-0 1.49603419e-06 2.213158679e-07)
(-0 6.302171348e-07 8.986090699e-08)
(-0 1.396439912e-06 1.921681393e-07)
(-0 4.451365253e-07 5.919250337e-08)
(-0 6.600068924e-07 8.490657227e-08)
(-0 7.265933696e-07 9.052740212e-08)
(-0 1.161352067e-07 1.402807748e-08)
(-0 5.375947725e-07 6.301733142e-08)
(-0 2.275575887e-07 2.591009395e-08)
(-0 1.780033464e-07 1.970420503e-08)
(-0 1.582450653e-07 1.704410494e-08)
(-0 7.836142902e-08 8.218657669e-09)
(-0 9.19241196e-08 9.39519977e-09)
(-0 9.790343889e-08 9.757965288e-09)
(-0 3.454732877e-08 3.360095974e-09)
(-0 4.935556219e-08 4.687330399e-09)
(-0 2.532569007e-08 2.349987336e-09)
(-0 2.384469312e-08 2.163018537e-09)
(-0 2.421021284e-08 2.148170025e-09)
(-0 4.851808297e-09 4.213092603e-10)
(-0 1.85396312e-08 1.57630696e-09)
(-0 4.331785846e-09 3.607895013e-10)
(-0 2.843021553e-09 2.320650062e-10)
(-0 3.12999141e-09 2.504965229e-10)
(-0 1.845654692e-09 1.448825702e-10)
(-0 4.624425116e-09 3.562056329e-10)
(-0 1.988607162e-09 1.503599461e-10)
(-0 1.942773547e-09 1.442451634e-10)
(-0 9.445291716e-10 6.888735624e-11)
(-0 9.16499775e-10 6.568169957e-11)
(-0 6.145699661e-10 4.329202947e-11)
(-0 3.947290682e-10 2.733953233e-11)
(-0 8.851131427e-11 6.0293565e-12)
(-0 3.268321253e-10 2.190261151e-11)
(-0 1.673149575e-10 1.103360113e-11)
(-0 1.398122512e-10 9.074951849e-12)
(-0 9.518840502e-11 6.082703616e-12)
(-0 9.951465818e-11 6.261809148e-12)
(-0 2.209007982e-11 1.368937374e-12)
(-0 3.233571343e-11 1.973774772e-12)
(-0 1.27376932e-11 7.65887167e-13)
(-0 9.528610085e-12 5.643596127e-13)
(-0 1.031044483e-12 6.014451493e-14)
(-0 4.082574369e-12 2.344796528e-13)
(-0 2.572137855e-12 1.453646214e-13)
(-0 5.921093136e-13 3.289443759e-14)
(-0 1.161037923e-12 6.330252958e-14)
(-0 9.042142018e-13 4.826279876e-14)
(-0 8.818330539e-13 4.590575695e-14)
(-0 3.962975055e-13 2.001359735e-14)
(-0 7.649889275e-13 3.722006031e-14)
(-0 2.53455077e-13 1.179768701e-14)
(-0 1.097251424e-13 4.884206181e-15)
(-0 1.627372893e-13 7.141136115e-15)
(-0 7.211332345e-14 3.619385413e-15)
(-0 1.269819958e-14 1.440388308e-15)
(-0 1.793649439e-06 3.813672617e-07)
(-0 1.496804756e-06 3.048671391e-07)
(-0 3.335087527e-07 6.518193179e-08)
(-0 2.643934455e-06 4.966306177e-07)
(-0 4.335318642e-07 7.838124422e-08)
(-0 1.953783423e-06 3.404724835e-07)
(-0 4.883011514e-07 8.212542925e-08)
(-0 1.054151982e-06 1.713222347e-07)
(-0 7.223852281e-07 1.135808715e-07)
(-0 3.520641015e-07 5.361179909e-08)
(-0 2.251764949e-07 3.324403387e-08)
(-0 1.978071094e-07 2.834062601e-08)
(-0 6.42495535e-08 8.941620035e-09)
(-0 4.420474779e-08 5.980997143e-09)
(-0 2.029558798e-07 2.671927529e-08)
(-0 2.137299924e-07 2.739981801e-08)
(-0 1.26716639e-07 1.583062465e-08)
(-0 9.895727426e-08 1.205592854e-08)
(-0 6.968108521e-08 8.284132588e-09)
(-0 3.606364154e-08 4.18655542e-09)
(-0 6.153105377e-09 6.979090912e-10)
(-0 1.034797582e-08 1.147430144e-09)
(-0 2.491835635e-08 2.702672959e-09)
(-0 7.075771806e-09 7.51063448e-10)
(-0 1.46701914e-08 1.524691521e-09)
(-0 6.461834097e-10 6.578850259e-11)
(-0 3.456374871e-10 3.448721684e-11)
(-0 5.43126955e-09 5.313344745e-10)
(-0 0 0)
(-0 3.383192115e-09 3.185500366e-10)
(-0 1.539033364e-09 1.422455813e-10)
(-0 1.684866844e-09 1.529155484e-10)
(-0 1.435735979e-09 1.279984941e-10)
(-0 1.487283878e-09 1.302899403e-10)
(-0 3.512368027e-10 3.024406238e-11)
(-0 4.881135757e-10 4.132514505e-11)
(-0 1.024418968e-10 8.529993559e-12)
(-0 2.520108377e-10 2.064361695e-11)
(-0 6.91052258e-11 5.570369833e-12)
(-0 8.670364914e-11 6.878923363e-12)
(-0 1.208367183e-10 9.438135051e-12)
(-0 7.431512354e-11 5.715461764e-12)
(-0 7.939382146e-11 6.013331515e-12)
(-0 2.538635561e-11 1.893780624e-12)
(-0 1.349417147e-11 9.915012348e-13)
(-0 1.857106249e-11 1.343925564e-12)
(-0 2.840207747e-12 2.023903971e-13)
(-0 4.347259942e-12 3.049097043e-13)
(-0 7.409409998e-12 5.111237575e-13)
(-0 4.336411162e-12 2.93842229e-13)
(-0 2.085441221e-12 1.385326752e-13)
(-0 1.192406875e-12 7.740965218e-14)
(-0 4.172116816e-14 2.634442858e-15)
(-0 4.696403176e-13 2.864449019e-14)
(-0 3.366455728e-13 1.964279045e-14)
(-0 3.714507207e-14 2.049150383e-15)
(-0 1.120079936e-13 5.789546028e-15)
(-0 1.132666953e-13 5.567530112e-15)
(-0 6.556399981e-14 3.472465137e-15)
(-0 2.451296465e-14 2.743953666e-15)
(-0 3.10517023e-06 7.802061077e-07)
(-0 2.27730554e-06 5.481235886e-07)
(-0 1.000566966e-06 2.310875634e-07)
(-0 5.870713581e-07 1.303125564e-07)
(-0 2.04798972e-06 4.375583047e-07)
(-0 3.358462823e-07 6.916225633e-08)
(-0 6.893852059e-07 1.370193182e-07)
(-0 8.058589387e-07 1.547771809e-07)
(-0 6.514594027e-07 1.210511168e-07)
(-0 4.295555697e-07 7.73055736e-08)
(-0 3.412970547e-07 5.955024761e-08)
(-0 5.176926076e-07 8.766114654e-08)
(-0 2.036594507e-07 3.349848755e-08)
(-0 3.143504687e-07 5.026894511e-08)
(-0 3.004613925e-07 4.675183363e-08)
(-0 4.319196208e-08 6.544515657e-09)
(-0 2.256602292e-07 3.332089823e-08)
(-0 1.635748753e-07 2.35543525e-08)
(-0 4.07415564e-08 5.724996422e-09)
(-0 0 0)
(-0 1.255907108e-08 1.683734688e-09)
(-0 2.920059268e-08 3.827159291e-09)
(-0 1.681565316e-08 2.155776953e-09)
(-0 1.157754455e-08 1.452569126e-09)
(-0 1.104005847e-08 1.356239265e-09)
(-0 4.860697182e-09 5.849413967e-10)
(-0 6.956426105e-09 8.204339596e-10)
(-0 4.164930839e-09 4.816092701e-10)
(-0 5.819114015e-09 6.600108678e-10)
(-0 3.200372872e-09 3.561817841e-10)
(-0 1.819484362e-09 1.987735831e-10)
(-0 1.0654525e-09 1.142980787e-10)
(-0 2.317662418e-09 2.44229489e-10)
(-0 5.401062914e-10 5.592582412e-11)
(-0 1.974642028e-09 2.009752826e-10)
(-0 2.408873817e-10 2.410566427e-11)
(-0 1.084247666e-10 1.067106262e-11)
(-0 2.116763718e-10 2.049473709e-11)
(-0 3.092659556e-10 2.946471374e-11)
(-0 1.628293218e-10 1.526875895e-11)
(-0 1.338780084e-10 1.235867509e-11)
(-0 5.95819133e-11 5.415591814e-12)
(-0 3.27429985e-11 2.930745845e-12)
(-0 2.945557155e-11 2.596509759e-12)
(-0 1.765872179e-11 1.533004613e-12)
(-0 1.36038355e-11 1.162930889e-12)
(-0 1.656678952e-11 1.394145587e-12)
(-0 1.007578322e-11 8.342147277e-13)
(-0 6.629602755e-12 5.394992227e-13)
(-0 3.766066114e-12 3.007470914e-13)
(-0 2.774072379e-12 2.16839312e-13)
(-0 9.122675909e-13 6.952255639e-14)
(-0 1.232391968e-12 9.100871399e-14)
(-0 6.095041377e-13 4.321451544e-14)
(-0 3.332886769e-13 2.238162977e-14)
(-0 2.027147626e-13 1.265222765e-14)
(-0 1.036358128e-13 5.876828792e-15)
(-0 2.159202093e-13 1.098384746e-14)
(-0 7.775399625e-14 3.816252772e-15)
(-0 2.023381213e-14 1.805739328e-15)
(-0 3.176747368e-06 9.209083015e-07)
(-0 2.315488444e-06 6.42989454e-07)
(-0 1.69061548e-06 4.50483363e-07)
(-0 1.417684852e-06 3.630626963e-07)
(-0 1.401867572e-06 3.455629732e-07)
(-0 8.515143007e-07 2.023204159e-07)
(-0 4.69905972e-07 1.077601191e-07)
(-0 5.297672153e-07 1.174002154e-07)
(-0 4.813569775e-07 1.032032811e-07)
(-0 3.983112074e-07 8.271182893e-08)
(-0 1.929413467e-07 3.884531328e-08)
(-0 1.100440872e-07 2.150168443e-08)
(-0 1.89098695e-07 3.589116827e-08)
(-0 1.887475057e-07 3.482993222e-08)
(-0 3.480248623e-08 6.249031762e-09)
(-0 2.641700109e-07 4.619093086e-08)
(-0 1.142653977e-07 1.947065441e-08)
(-0 5.907671646e-08 9.817026365e-09)
(-0 8.077860125e-08 1.30992751e-08)
(-0 3.044169366e-08 4.820387105e-09)
(-0 5.231306278e-08 8.093688521e-09)
(-0 4.922591005e-09 7.445630137e-10)
(-0 3.147734732e-08 4.657074542e-09)
(-0 1.534611692e-08 2.222007527e-09)
(-0 5.271002139e-09 7.472846919e-10)
(-0 8.381663264e-09 1.164053252e-09)
(-0 5.154936058e-09 7.016331839e-10)
(-0 5.330636568e-09 7.113702686e-10)
(-0 6.947475855e-09 9.093912029e-10)
(-0 4.169015348e-09 5.354681948e-10)
(-0 2.406531253e-09 3.034101941e-10)
(-0 2.363233375e-09 2.925759936e-10)
(-0 8.248774319e-10 1.003143596e-10)
(-0 1.093371839e-09 1.306546405e-10)
(-0 9.191563162e-10 1.079604941e-10)
(-0 6.188979604e-10 7.14729822e-11)
(-0 1.700617688e-10 1.931519492e-11)
(-0 7.469072524e-11 8.345333147e-12)
(-0 2.278529852e-10 2.505089992e-11)
(-0 9.255165742e-11 1.001479105e-11)
(-0 8.418134235e-11 8.96702092e-12)
(-0 3.722485736e-11 3.904001298e-12)
(-0 0 0)
(-0 1.006491272e-11 1.023508719e-12)
(-0 1.961388792e-11 1.963954015e-12)
(-0 3.454787686e-11 3.405533068e-12)
(-0 1.02099358e-11 9.903671831e-13)
(-0 7.513187838e-12 7.165957346e-13)
(-0 6.572048127e-12 6.155623553e-13)
(-0 4.253657019e-12 3.904437214e-13)
(-0 1.776483394e-12 1.592794227e-13)
(-0 5.86298884e-14 5.108423819e-15)
(-0 8.558173761e-13 7.188383085e-14)
(-0 8.945676212e-13 7.153553888e-14)
(-0 2.119282536e-13 1.582523046e-14)
(-0 6.587266903e-14 4.458126788e-15)
(-0 3.75884333e-14 2.202800394e-15)
(-0 1.746313963e-14 8.284751526e-16)
(-0 1.648221209e-14 5.863524196e-16)
(-0 4.263927142e-15 1.530258977e-16)
(-0 1.628456651e-06 5.349636522e-07)
(-0 1.711277462e-06 5.385071446e-07)
(-0 3.683836506e-07 1.112358175e-07)
(-0 1.772791332e-06 5.144866601e-07)
(-0 1.234377954e-06 3.448177257e-07)
(-0 1.31991009e-06 3.554034142e-07)
(-0 6.420081518e-07 1.668500711e-07)
(-0 1.275363727e-06 3.203070079e-07)
(-0 4.673937873e-07 1.135710735e-07)
(-0 3.430713171e-08 8.074171926e-09)
(-0 3.995938538e-08 9.118223994e-09)
(-0 1.997963679e-07 4.424668319e-08)
(-0 2.601729548e-07 5.597025262e-08)
(-0 1.460464263e-07 3.054685349e-08)
(-0 9.937813243e-08 2.022576036e-08)
(-0 1.591621377e-07 3.154505328e-08)
(-0 1.264102155e-07 2.441587681e-08)
(-0 8.652541843e-08 1.62981009e-08)
(-0 5.190956727e-08 9.541852448e-09)
(-0 1.35693107e-08 2.435618494e-09)
(-0 3.401996192e-08 5.966394058e-09)
(-0 2.603302128e-08 4.463513651e-09)
(-0 5.452951181e-09 9.145206953e-10)
(-0 1.906924215e-08 3.129890148e-09)
(-0 6.945453701e-09 1.116203709e-09)
(-0 1.219308656e-09 1.919584008e-10)
(-0 1.324051043e-08 2.042880077e-09)
(-0 3.242019695e-09 4.904375284e-10)
(-0 2.314039971e-09 3.433568445e-10)
(-0 2.947102584e-09 4.290876019e-10)
(-0 3.346360429e-09 4.782565219e-10)
(-0 2.234424574e-10 3.135782077e-11)
(-0 2.274166098e-09 3.135032436e-10)
(-0 1.438785771e-09 1.948932156e-10)
(-0 3.29900069e-10 4.392362477e-11)
(-0 5.349503646e-10 7.002807143e-11)
(-0 5.46974886e-10 7.041896386e-11)
(-0 3.17498024e-10 4.021052154e-11)
(-0 2.139893491e-10 2.666681478e-11)
(-0 1.827973527e-10 2.24193032e-11)
(-0 4.06142148e-11 4.903231157e-12)
(-0 9.186408126e-12 1.091848066e-12)
(-0 1.600423526e-11 1.872826265e-12)
(-0 6.175302464e-12 7.114811833e-13)
(-0 2.475539448e-11 2.807756998e-12)
(-0 1.165472246e-11 1.300878433e-12)
(-0 2.008819376e-11 2.205256785e-12)
(-0 5.82134932e-12 6.278819818e-13)
(-0 3.712971083e-13 3.928074299e-14)
(-0 3.981262239e-12 4.120121635e-13)
(-0 1.951390136e-12 1.967005391e-13)
(-0 9.083557272e-13 8.858304011e-14)
(-0 2.919925057e-13 2.725454352e-14)
(-0 4.722232904e-13 4.146937237e-14)
(-0 1.297901303e-13 1.042714234e-14)
(-0 2.354949485e-14 1.650496726e-15)
(-0 1.782988201e-13 9.986078228e-15)
(-0 2.351521839e-13 8.608902146e-15)
(-0 3.087196954e-14 2.538091753e-16)
(-0 2.318237618e-14 -1.427544757e-15)
(-0 5.855172956e-07 2.149536517e-07)
(-0 9.14627682e-07 3.216396151e-07)
(-0 4.323396968e-07 1.458900251e-07)
(-0 2.068132107e-07 6.707434797e-08)
(-0 8.659336825e-07 2.703308662e-07)
(-0 9.330145192e-07 2.807661145e-07)
(-0 8.533705695e-07 2.478637289e-07)
(-0 8.368137706e-07 2.348883992e-07)
(-0 5.285663186e-07 1.435475171e-07)
(-0 3.919868397e-07 1.031115614e-07)
(-0 9.639583849e-08 2.458569995e-08)
(-0 4.587769052e-07 1.135631819e-07)
(-0 4.810908022e-08 1.156843124e-08)
(-0 9.417903871e-08 2.201865731e-08)
(-0 1.168669705e-07 2.65873368e-08)
(-0 3.281573415e-08 7.270258934e-09)
(-0 1.155462754e-07 2.494760224e-08)
(-0 4.609649054e-08 9.706207127e-09)
(-0 3.787407575e-08 7.782527762e-09)
(-0 5.928759652e-08 1.189632731e-08)
(-0 1.549002244e-08 3.036905671e-09)
(-0 1.734930249e-08 3.325357838e-09)
(-0 6.746785441e-09 1.264926342e-09)
(-0 2.059048459e-08 3.77807371e-09)
(-0 3.090292395e-09 5.552031121e-10)
(-0 1.08306621e-08 1.906157398e-09)
(-0 3.903786848e-09 6.733407425e-10)
(-0 7.17342143e-09 1.213123422e-09)
(-0 1.485462594e-09 2.464034013e-10)
(-0 1.641083579e-09 2.671103065e-10)
(-0 1.18557376e-09 1.89419484e-10)
(-0 3.162397266e-09 4.961381476e-10)
(-0 2.1743748e-09 3.350871652e-10)
(-0 6.169736517e-10 9.342593358e-11)
(-0 1.149686974e-09 1.711162569e-10)
(-0 8.033392875e-10 1.175568062e-10)
(-0 5.443619606e-11 7.834156924e-12)
(-0 3.512302261e-10 4.972354258e-11)
(-0 1.835548551e-10 2.556827368e-11)
(-0 3.929052194e-11 5.386113106e-12)
(-0 2.018714597e-11 2.723859029e-12)
(-0 1.307761351e-11 1.737028884e-12)
(-0 2.901507324e-11 3.793894835e-12)
(-0 2.015396867e-11 2.594014595e-12)
(-0 2.694362126e-11 3.412838784e-12)
(-0 1.998282888e-11 2.489767339e-12)
(-0 8.914576671e-12 1.091645441e-12)
(-0 8.835946467e-12 1.061965377e-12)
(-0 4.764252476e-12 5.607324925e-13)
(-0 2.273452826e-12 2.610963353e-13)
(-0 1.268913014e-12 1.413967227e-13)
(-0 9.118649193e-13 9.770244525e-14)
(-0 2.522169755e-13 2.560828996e-14)
(-0 7.075235031e-13 6.64522728e-14)
(-0 3.130885894e-13 2.609381334e-14)
(-0 3.117250828e-13 2.132020619e-14)
(-0 2.748715623e-13 1.290878551e-14)
(-0 1.226412297e-13 1.858356418e-15)
(-0 6.237027094e-14 -2.432842442e-15)
(-0 4.365765946e-15 -9.70742002e-16)
(-0 1.12458474e-06 4.562600326e-07)
(-0 1.39152736e-06 5.407932895e-07)
(-0 6.41994368e-07 2.394141346e-07)
(-0 2.160994924e-07 7.745634094e-08)
(-0 4.068049892e-07 1.403561731e-07)
(-0 4.414306274e-08 1.468127088e-08)
(-0 5.935674693e-07 1.905468719e-07)
(-0 1.38944462e-06 4.3106456e-07)
(-0 7.855070279e-07 2.357906385e-07)
(-0 2.848265243e-07 8.281486911e-08)
(-0 3.059226829e-07 8.624606299e-08)
(-0 7.292161321e-08 1.995291217e-08)
(-0 2.108203976e-07 5.603818694e-08)
(-0 8.303679398e-08 2.146052924e-08)
(-0 1.157998189e-07 2.9122767e-08)
(-0 1.364757689e-07 3.342509104e-08)
(-0 6.852563279e-08 1.6356183e-08)
(-0 6.266247412e-08 1.458650354e-08)
(-0 5.443942138e-08 1.236685394e-08)
(-0 4.972849907e-08 1.103127894e-08)
(-0 5.173588525e-08 1.121363021e-08)
(-0 2.698589387e-08 5.71835641e-09)
(-0 2.594856662e-08 5.378511199e-09)
(-0 1.19971701e-08 2.433687293e-09)
(-0 1.335722521e-08 2.653089194e-09)
(-0 4.402773183e-09 8.56670912e-10)
(-0 6.83678754e-09 1.30372209e-09)
(-0 4.907082751e-09 9.174573507e-10)
(-0 3.46830504e-09 6.360413837e-10)
(-0 1.746473574e-09 3.142706526e-10)
(-0 2.158474968e-09 3.81261682e-10)
(-0 1.424280085e-09 2.470354266e-10)
(-0 1.424940562e-09 2.427697407e-10)
(-0 2.178751969e-09 3.64736129e-10)
(-0 6.510485269e-10 1.071246804e-10)
(-0 2.09853928e-10 3.394867431e-11)
(-0 6.438423945e-10 1.024308359e-10)
(-0 6.654249789e-11 1.041362021e-11)
(-0 5.418228729e-11 8.342678011e-12)
(-0 8.431037296e-11 1.277477407e-11)
(-0 9.719197598e-11 1.44938747e-11)
(-0 5.860838817e-11 8.602500203e-12)
(-0 7.239693402e-11 1.045884265e-11)
(-0 4.754014374e-11 6.758495333e-12)
(-0 1.32793258e-11 1.857076783e-12)
(-0 1.501898686e-11 2.064727698e-12)
(-0 2.341467342e-11 3.160665257e-12)
(-0 2.452294917e-12 3.244275412e-13)
(-0 1.175912653e-12 1.520105467e-13)
(-0 1.983287686e-12 2.493269912e-13)
(-0 2.057586317e-12 2.496472852e-13)
(-0 3.563325732e-13 4.121786679e-14)
(-0 1.101155755e-12 1.190025757e-13)
(-0 3.003396211e-13 2.928979376e-14)
(-0 4.527251904e-13 3.736355328e-14)
(-0 2.118561603e-13 1.288542288e-14)
(-0 2.626616024e-13 7.530945822e-15)
(-0 1.327716878e-13 -2.859596148e-15)
(-0 5.873101051e-14 -6.737834944e-15)
(-0 7.415941812e-15 -3.514217206e-15)
(-0 1.8017829e-06 8.005345717e-07)
(-0 9.467898573e-07 4.029508383e-07)
(-0 1.457029119e-06 5.950470338e-07)
(-0 2.538799184e-07 9.965625361e-08)
(-0 3.425057994e-08 1.294185833e-08)
(-0 9.699430686e-07 3.532992176e-07)
(-0 9.397804419e-07 3.304196606e-07)
(-0 8.198550085e-07 2.785856006e-07)
(-0 3.892076618e-07 1.279649783e-07)
(-0 2.117787571e-07 6.744596211e-08)
(-0 2.196293062e-07 6.782275761e-08)
(-0 1.739489793e-07 5.213635643e-08)
(-0 1.547370536e-07 4.505520615e-08)
(-0 7.148265579e-08 2.023761558e-08)
(-0 1.21828726e-07 3.356386603e-08)
(-0 5.008566996e-08 1.343803816e-08)
(-0 7.642956984e-08 1.99849272e-08)
(-0 6.857506797e-08 1.748751882e-08)
(-0 6.464340687e-08 1.608768077e-08)
(-0 3.769583595e-08 9.16097596e-09)
(-0 5.669081702e-08 1.346165708e-08)
(-0 2.824197428e-08 6.556375534e-09)
(-0 2.257125794e-08 5.125556766e-09)
(-0 3.229950613e-08 7.178273782e-09)
(-0 5.87338144e-09 1.278094606e-09)
(-0 1.34834033e-08 2.874265554e-09)
(-0 3.906563636e-09 8.161452086e-10)
(-0 7.444871359e-09 1.524960888e-09)
(-0 5.220895906e-09 1.048940856e-09)
(-0 1.669514834e-09 3.291306056e-10)
(-0 1.447405015e-09 2.800915654e-10)
(-0 1.620688517e-09 3.079598111e-10)
(-0 8.740488918e-10 1.63139831e-10)
(-0 9.545644681e-10 1.750641471e-10)
(-0 7.134174024e-10 1.285977816e-10)
(-0 5.068423048e-11 8.982190285e-12)
(-0 3.059978552e-10 5.332853333e-11)
(-0 2.116275016e-10 3.627822631e-11)
(-0 1.052985236e-10 1.775887035e-11)
(-0 5.888515483e-11 9.772044952e-12)
(-0 1.312942945e-11 2.144142142e-12)
(-0 4.342436011e-11 6.97869296e-12)
(-0 4.627743141e-11 7.318039781e-12)
(-0 2.171141459e-11 3.377322233e-12)
(-0 2.184401637e-11 3.34066891e-12)
(-0 8.749330543e-12 1.314238866e-12)
(-0 4.243177504e-12 6.25032603e-13)
(-0 9.538727141e-12 1.374396911e-12)
(-0 5.006043677e-12 7.027070533e-13)
(-0 3.103408781e-12 4.216837996e-13)
(-0 1.161390978e-12 1.511857673e-13)
(-0 1.249503853e-12 1.532161241e-13)
(-0 3.290867666e-13 3.693464678e-14)
(-0 1.948864229e-13 1.900714438e-14)
(-0 4.61340473e-13 3.517455103e-14)
(-0 7.751997551e-14 3.474477049e-15)
(-0 1.848189592e-13 -5.304639703e-16)
(-0 1.563363223e-13 -1.251534742e-14)
(-0 7.806383351e-14 -1.805268845e-14)
(-0 1.614742184e-14 -1.381236775e-14)
(-0 5.414002915e-07 2.614326562e-07)
(-0 1.094266596e-06 5.061616254e-07)
(-0 6.749970641e-07 2.996125178e-07)
(-0 5.986571612e-07 2.554108444e-07)
(-0 1.076857208e-06 4.422658944e-07)
(-0 2.10040637e-07 8.315897701e-08)
(-0 4.543019221e-08 1.736228015e-08)
(-0 1.017057239e-06 3.756671271e-07)
(-0 5.187516367e-07 1.854038392e-07)
(-0 4.676555333e-07 1.619056563e-07)
(-0 1.779021655e-07 5.972292259e-08)
(-0 3.187234166e-07 1.038529788e-07)
(-0 3.665376183e-08 1.160288769e-08)
(-0 1.545872777e-07 4.75816025e-08)
(-0 1.096864328e-07 3.285418324e-08)
(-0 6.748850295e-08 1.96868188e-08)
(-0 5.111095026e-08 1.453066243e-08)
(-0 6.060402854e-08 1.680350039e-08)
(-0 6.857052745e-08 1.855445232e-08)
(-0 4.45307252e-08 1.176667783e-08)
(-0 2.980531366e-08 7.695356079e-09)
(-0 1.146944105e-08 2.895096043e-09)
(-0 1.906008538e-08 4.70613214e-09)
(-0 1.612184311e-08 3.895777995e-09)
(-0 1.096953226e-08 2.595488098e-09)
(-0 4.825876838e-09 1.118561606e-09)
(-0 3.929305311e-09 8.92573959e-10)
(-0 5.855439242e-09 1.304115038e-09)
(-0 5.674499899e-10 1.23961514e-10)
(-0 3.842589214e-09 8.236694637e-10)
(-0 4.567717189e-10 9.610745556e-11)
(-0 1.232191539e-09 2.545754464e-10)
(-0 1.751092712e-09 3.553626665e-10)
(-0 1.539412835e-09 3.069574927e-10)
(-0 6.569692792e-11 1.287527158e-11)
(-0 3.229640899e-10 6.222603471e-11)
(-0 3.387048209e-10 6.417312269e-11)
(-0 1.793984933e-10 3.343168402e-11)
(-0 1.800451098e-10 3.30068927e-11)
(-0 8.232002584e-11 1.484790371e-11)
(-0 4.063512957e-11 7.211358651e-12)
(-0 8.961419024e-11 1.564661164e-11)
(-0 6.597182601e-11 1.133009428e-11)
(-0 1.877489983e-11 3.170192127e-12)
(-0 3.392371321e-11 5.627203401e-12)
(-0 3.790685208e-12 6.168847757e-13)
(-0 1.743473383e-11 2.777520448e-12)
(-0 6.674106183e-12 1.037272187e-12)
(-0 4.706917035e-13 7.097657035e-14)
(-0 4.265382334e-12 6.186007709e-13)
(-0 1.345063334e-12 1.849613072e-13)
(-0 3.829738365e-13 4.875515844e-14)
(-0 6.846153491e-13 7.73554591e-14)
(-0 4.867938147e-13 4.497279648e-14)
(-0 2.894987258e-13 1.798197059e-14)
(-0 3.349521249e-13 5.607993836e-15)
(-0 1.136001911e-13 -6.065575176e-15)
(-0 1.079200175e-13 -1.832832704e-14)
(-0 5.104488459e-14 -2.073658233e-14)
(-0 7.681488213e-15 -1.093139562e-14)
(-0 1.314310136e-06 6.85364434e-07)
(-0 9.831752473e-07 4.911175125e-07)
(-0 1.418618974e-06 6.800193754e-07)
(-0 1.7086093e-06 7.872498132e-07)
(-0 3.550699233e-07 1.574927317e-07)
(-0 5.531915924e-08 2.365463237e-08)
(-0 2.553500494e-07 1.054015192e-07)
(-0 1.758716526e-07 7.016431957e-08)
(-0 2.954993707e-07 1.140754344e-07)
(-0 1.393282642e-07 5.210322873e-08)
(-0 2.101639894e-07 7.621141661e-08)
(-0 1.173907687e-08 4.131925418e-09)
(-0 2.389897405e-07 8.172427144e-08)
(-0 1.102755362e-07 3.66672653e-08)
(-0 2.71080618e-08 8.771604314e-09)
(-0 8.049988163e-08 2.536831246e-08)
(-0 4.228087267e-08 1.29859221e-08)
(-0 2.595841442e-08 7.7757032e-09)