/*--------------------------------*- C++ -*----------------------------------*\
  =========                 |
  \\      /  F ield         | OpenFOAM: The Open Source CFD Toolbox
   \\    /   O peration     | Website:  https://openfoam.org
    \\  /    A nd           | Version:  10
     \\/     M anipulation  |
\*---------------------------------------------------------------------------*/
FoamFile
{
    format      ascii;
    class       volVectorField;
    location    "0.0002";
    object      U;
}
// * * * * * * * * * * * * * * * * * * * * * * * * * * * * * * * * * * * * * //

dimensions      [0 1 -1 0 0 0 0];

internalField   nonuniform List<vector> 
3600
(
(0 -5.67730486e-11 -3.238489501e-12)
(0 -5.075494682e-11 -2.777972538e-12)
(0 -4.557790812e-11 -2.397534852e-12)
(0 -4.109751404e-11 -2.081357357e-12)
(0 -3.719770153e-11 -1.816988479e-12)
(0 -3.378467509e-11 -1.594606954e-12)
(0 -3.078223202e-11 -1.406441422e-12)
(0 -2.812811818e-11 -1.246316223e-12)
(0 -2.577118255e-11 -1.109299747e-12)
(0 -2.366915815e-11 -9.914345039e-13)
(0 -2.178692825e-11 -8.895289234e-13)
(0 -2.009516022e-11 -8.009954884e-13)
(0 -1.856922074e-11 -7.237247914e-13)
(0 -1.718831262e-11 -6.55987945e-13)
(0 -1.593478822e-11 -5.963609805e-13)
(0 -1.479360141e-11 -5.436657238e-13)
(0 -1.375186609e-11 -4.969228394e-13)
(0 -1.279849636e-11 -4.553141834e-13)
(0 -1.192391192e-11 -4.181527486e-13)
(0 -1.111979703e-11 -3.848589512e-13)
(0 -1.037890373e-11 -3.549419802e-13)
(0 -9.69489096e-12 -3.279848747e-13)
(0 -9.062191465e-12 -3.036322022e-13)
(0 -8.475900505e-12 -2.815796687e-13)
(0 -7.931681854e-12 -2.615654253e-13)
(0 -7.425688203e-12 -2.43363033e-13)
(0 -6.954493932e-12 -2.267759593e-13)
(0 -6.515038588e-12 -2.116332856e-13)
(0 -6.104579502e-12 -1.977861968e-13)
(0 -5.720651955e-12 -1.851049071e-13)
(0 -5.361035355e-12 -1.734758721e-13)
(0 -5.023724026e-12 -1.627993165e-13)
(0 -4.706901634e-12 -1.529871609e-13)
(0 -4.408918605e-12 -1.439613745e-13)
(0 -4.128272304e-12 -1.3565269e-13)
(0 -3.863589859e-12 -1.279995652e-13)
(0 -3.613613509e-12 -1.209472921e-13)
(0 -3.377188191e-12 -1.144472009e-13)
(0 -3.153250919e-12 -1.084559487e-13)
(0 -2.940821479e-12 -1.029348928e-13)
(0 -2.738994024e-12 -9.784953513e-14)
(0 -2.546929301e-12 -9.316902069e-14)
(0 -2.363847455e-12 -8.886567593e-14)
(0 -2.18902144e-12 -8.491459608e-14)
(0 -2.021771133e-12 -8.129330354e-14)
(0 -1.861458212e-12 -7.798149673e-14)
(0 -1.707481756e-12 -7.496088866e-14)
(0 -1.559274461e-12 -7.221510728e-14)
(0 -1.416299314e-12 -6.972961498e-14)
(0 -1.278046563e-12 -6.749160771e-14)
(0 -1.144030861e-12 -6.548987564e-14)
(0 -1.01378852e-12 -6.371463363e-14)
(0 -8.868748856e-13 -6.215734868e-14)
(0 -7.628618404e-13 -6.081059539e-14)
(0 -6.413354952e-13 -5.966795981e-14)
(0 -5.218941163e-13 -5.872399516e-14)
(0 -4.041464307e-13 -5.797422077e-14)
(0 -2.877108835e-13 -5.741516217e-14)
(0 -1.722184639e-13 -5.704448178e-14)
(0 -5.733143555e-14 -5.686145141e-14)
(0 -5.575180627e-11 -9.616670894e-12)
(0 -4.991396404e-11 -8.25516493e-12)
(0 -4.488126726e-11 -7.129627273e-12)
(0 -4.051694205e-11 -6.193501772e-12)
(0 -3.67109247e-11 -5.410167722e-12)
(0 -3.337410203e-11 -4.750745847e-12)
(0 -3.043391692e-11 -4.192377997e-12)
(0 -2.783095372e-11 -3.71688884e-12)
(0 -2.551627898e-11 -3.309754621e-12)
(0 -2.344936633e-11 -2.959311991e-12)
(0 -2.15964695e-11 -2.656147549e-12)
(0 -1.992933783e-11 -2.39262342e-12)
(0 -1.842419614e-11 -2.162508292e-12)
(0 -1.706093252e-11 -1.960691413e-12)
(0 -1.582245032e-11 -1.782960669e-12)
(0 -1.469414845e-11 -1.625828676e-12)
(0 -1.366350093e-11 -1.486394571e-12)
(0 -1.271971407e-11 -1.36223337e-12)
(0 -1.185344585e-11 -1.251307747e-12)
(0 -1.105657653e-11 -1.151898241e-12)
(0 -1.032202076e-11 -1.062548025e-12)
(0 -9.643572857e-12 -9.82018489e-13)
(0 -9.015778329e-12 -9.092527312e-13)
(0 -8.433826137e-12 -8.433451711e-13)
(0 -7.893458031e-12 -7.83516405e-13)
(0 -7.390892086e-12 -7.29092773e-13)
(0 -6.92275817e-12 -6.794899807e-13)
(0 -6.486043433e-12 -6.341999042e-13)
(0 -6.078046216e-12 -5.927796791e-13)
(0 -5.69633703e-12 -5.548423937e-13)
(0 -5.338725346e-12 -5.200490282e-13)
(0 -5.003231066e-12 -4.881015216e-13)
(0 -4.688059679e-12 -4.587369288e-13)
(0 -4.391580427e-12 -4.317225844e-13)
(0 -4.1123071e-12 -4.06852124e-13)
(0 -3.848881315e-12 -3.839421822e-13)
(0 -3.600058163e-12 -3.628296115e-13)
(0 -3.364693986e-12 -3.433691049e-13)
(0 -3.141735891e-12 -3.254311356e-13)
(0 -2.930212559e-12 -3.089001378e-13)
(0 -2.729225919e-12 -2.936728682e-13)
(0 -2.537943487e-12 -2.796569147e-13)
(0 -2.355591292e-12 -2.667693569e-13)
(0 -2.181447444e-12 -2.54935612e-13)
(0 -2.01483644e-12 -2.440885e-13)
(0 -1.855124207e-12 -2.341675343e-13)
(0 -1.701713815e-12 -2.25118397e-13)
(0 -1.554041749e-12 -2.168925278e-13)
(0 -1.411574559e-12 -2.094467444e-13)
(0 -1.273805776e-12 -2.027428421e-13)
(0 -1.140253011e-12 -1.967471577e-13)
(0 -1.01045521e-12 -1.914301265e-13)
(0 -8.839700546e-13 -1.867658743e-13)
(0 -7.603715466e-13 -1.827318843e-13)
(0 -6.392477541e-13 -1.793087444e-13)
(0 -5.201987337e-13 -1.764799446e-13)
(0 -4.028345791e-13 -1.742316275e-13)
(0 -2.86773417e-13 -1.72552036e-13)
(0 -1.716382621e-13 -1.714298145e-13)
(0 -5.712761899e-14 -1.708479344e-13)
(0 -5.375483271e-11 -1.569971942e-11)
(0 -4.82679032e-11 -1.349646999e-11)
(0 -4.351624496e-11 -1.167239617e-11)
(0 -3.937805449e-11 -1.015294696e-11)
(0 -3.575494561e-11 -8.87953069e-12)
(0 -3.256688537e-11 -7.805932938e-12)
(0 -2.974837501e-11 -6.895542404e-12)
(0 -2.724549481e-11 -6.119213593e-12)
(0 -2.50136057e-11 -5.453625981e-12)
(0 -2.301555108e-11 -4.880023998e-12)
(0 -2.122023968e-11 -4.383245174e-12)
(0 -1.960152096e-11 -3.950966766e-12)
(0 -1.813728873e-11 -3.573120465e-12)
(0 -1.6808765e-11 -3.241437468e-12)
(0 -1.559992548e-11 -2.949093751e-12)
(0 -1.449703532e-11 -2.69043122e-12)
(0 -1.348827078e-11 -2.460736362e-12)
(0 -1.256340953e-11 -2.256063687e-12)
(0 -1.171357679e-11 -2.073095028e-12)
(0 -1.09310373e-11 -1.909027634e-12)
(0 -1.020902398e-11 -1.761484744e-12)
(0 -9.541595666e-12 -1.628443236e-12)
(0 -8.923518147e-12 -1.508174367e-12)
(0 -8.350164179e-12 -1.399194989e-12)
(0 -7.817429456e-12 -1.300227568e-12)
(0 -7.321661779e-12 -1.210167628e-12)
(0 -6.859601064e-12 -1.128057201e-12)
(0 -6.428328287e-12 -1.053062966e-12)
(0 -6.025221991e-12 -9.844579566e-13)
(0 -5.647921305e-12 -9.216061421e-13)
(0 -5.294294483e-12 -8.639493978e-13)
(0 -4.962411927e-12 -8.109965605e-13)
(0 -4.650522697e-12 -7.62314245e-13)
(0 -4.357033801e-12 -7.175191062e-13)
(0 -4.080491902e-12 -6.762712746e-13)
(0 -3.819567346e-12 -6.382687668e-13)
(0 -3.573040432e-12 -6.032427452e-13)
(0 -3.339789715e-12 -5.709535115e-13)
(0 -3.118781952e-12 -5.411871098e-13)
(0 -2.909063212e-12 -5.137523909e-13)
(0 -2.7097508e-12 -4.884784104e-13)
(0 -2.520025789e-12 -4.652120855e-13)
(0 -2.339126152e-12 -4.43816098e-13)
(0 -2.166340583e-12 -4.241670765e-13)
(0 -2.001003055e-12 -4.061540858e-13)
(0 -1.842488109e-12 -3.896774171e-13)
(0 -1.69020675e-12 -3.746476239e-13)
(0 -1.543602808e-12 -3.609847165e-13)
(0 -1.402149628e-12 -3.486174331e-13)
(0 -1.265346977e-12 -3.374825346e-13)
(0 -1.132718145e-12 -3.275241141e-13)
(0 -1.003807236e-12 -3.186929466e-13)
(0 -8.781766435e-13 -3.109459138e-13)
(0 -7.554047105e-13 -3.042455312e-13)
(0 -6.350835554e-13 -2.985595727e-13)
(0 -5.168169995e-13 -2.938607618e-13)
(0 -4.002185222e-13 -2.901264739e-13)
(0 -2.849090704e-13 -2.873383927e-13)
(0 -1.705143622e-13 -2.854822015e-13)
(0 -5.674955544e-14 -2.845483702e-13)
(0 -5.087104319e-11 -2.130849805e-11)
(0 -4.588664079e-11 -1.835859714e-11)
(0 -4.153774423e-11 -1.59105377e-11)
(0 -3.772407657e-11 -1.38663549e-11)
(0 -3.436391068e-11 -1.214907108e-11)
(0 -3.139011374e-11 -1.069791006e-11)
(0 -2.874719757e-11 -9.464642136e-12)
(0 -2.638903729e-11 -8.410792445e-12)
(0 -2.427708939e-11 -7.505505835e-12)
(0 -2.237898552e-11 -6.723907641e-12)
(0 -2.066741227e-11 -6.045838673e-12)
(0 -1.911921312e-11 -5.454874755e-12)
(0 -1.771466684e-11 -4.937564973e-12)
(0 -1.64369058e-11 -4.482838358e-12)
(0 -1.527144407e-11 -4.081539199e-12)
(0 -1.420579106e-11 -3.726060184e-12)
(0 -1.32291334e-11 -3.410050774e-12)
(0 -1.233207273e-11 -3.128184783e-12)
(0 -1.15064098e-11 -2.87597515e-12)
(0 -1.074496625e-11 -2.649625996e-12)
(0 -1.004143636e-11 -2.445913554e-12)
(0 -9.39026248e-12 -2.262089375e-12)
(0 -8.786530082e-12 -2.095801083e-12)
(0 -8.225879338e-12 -1.945027466e-12)
(0 -7.70443067e-12 -1.808025423e-12)
(0 -7.218721719e-12 -1.683286573e-12)
(0 -6.765653508e-12 -1.569501517e-12)
(0 -6.342444188e-12 -1.465530106e-12)
(0 -5.946589392e-12 -1.37037652e-12)
(0 -5.575828471e-12 -1.283168392e-12)
(0 -5.228115765e-12 -1.203139341e-12)
(0 -4.901595913e-12 -1.129614358e-12)
(0 -4.594582225e-12 -1.061997488e-12)
(0 -4.305537457e-12 -9.997613342e-13)
(0 -4.033056761e-12 -9.424380702e-13)
(0 -3.775852786e-12 -8.896117537e-13)
(0 -3.532742908e-12 -8.409118286e-13)
(0 -3.30263835e-12 -7.960076567e-13)
(0 -3.084534771e-12 -7.546038886e-13)
(0 -2.87750386e-12 -7.164364586e-13)
(0 -2.680685614e-12 -6.812690384e-13)
(0 -2.493281175e-12 -6.488898563e-13)
(0 -2.314546283e-12 -6.191088772e-13)
(0 -2.143785431e-12 -5.917553679e-13)
(0 -1.980346781e-12 -5.666758633e-13)
(0 -1.823617745e-12 -5.437325022e-13)
(0 -1.673021114e-12 -5.228016532e-13)
(0 -1.528011558e-12 -5.037727343e-13)
(0 -1.388072377e-12 -4.865471431e-13)
(0 -1.252712457e-12 -4.71037254e-13)
(0 -1.121463423e-12 -4.571654797e-13)
(0 -9.938770092e-13 -4.448634233e-13)
(0 -8.695226393e-13 -4.34071148e-13)
(0 -7.479852055e-13 -4.247365776e-13)
(0 -6.288629847e-13 -4.168150176e-13)
(0 -5.117656349e-13 -4.102687701e-13)
(0 -3.9631221e-13 -4.050668192e-13)
(0 -2.821291446e-13 -4.011846055e-13)
(0 -1.688482396e-13 -3.986040459e-13)
(0 -5.619378773e-14 -3.973142617e-13)
(0 -4.722797507e-11 -2.629022279e-11)
(0 -4.286994285e-11 -2.2718884e-11)
(0 -3.902400271e-11 -1.974480217e-11)
(0 -3.561658786e-11 -1.725286322e-11)
(0 -3.258650077e-11 -1.515248964e-11)
(0 -2.988245643e-11 -1.337199565e-11)
(0 -2.746125739e-11 -1.185432356e-11)
(0 -2.528635851e-11 -1.055380632e-11)
(0 -2.332672089e-11 -9.433695568e-12)
(0 -2.155588392e-11 -8.464262224e-12)
(0 -1.99512068e-11 -7.621328608e-12)
(0 -1.849324726e-11 -6.885129492e-12)
(0 -1.716525233e-11 -6.239425551e-12)
(0 -1.595273922e-11 -5.670810133e-12)
(0 -1.484314731e-11 -5.168163434e-12)
(0 -1.382554689e-11 -4.722219696e-12)
(0 -1.289039538e-11 -4.32522249e-12)
(0 -1.202933391e-11 -3.970649773e-12)
(0 -1.123501801e-11 -3.652994202e-12)
(0 -1.050097571e-11 -3.367586694e-12)
(0 -9.821487357e-12 -3.110453509e-12)
(0 -9.191483195e-12 -2.878199648e-12)
(0 -8.606456239e-12 -2.667913437e-12)
(0 -8.062388519e-12 -2.477088477e-12)
(0 -7.555688562e-12 -2.30355977e-12)
(0 -7.083137873e-12 -2.145451159e-12)
(0 -6.641844596e-12 -2.001131691e-12)
(0 -6.229203289e-12 -1.869179139e-12)
(0 -5.842860278e-12 -1.748349464e-12)
(0 -5.480684126e-12 -1.637551316e-12)
(0 -5.140740449e-12 -1.535824766e-12)
(0 -4.821270073e-12 -1.442323457e-12)
(0 -4.520669673e-12 -1.356299454e-12)
(0 -4.237474383e-12 -1.277090247e-12)
(0 -3.970342321e-12 -1.204107585e-12)
(0 -3.718041104e-12 -1.136827963e-12)
(0 -3.479436335e-12 -1.074784596e-12)
(0 -3.253481775e-12 -1.017560663e-12)
(0 -3.039210754e-12 -9.647835647e-13)
(0 -2.835728362e-12 -9.161199148e-13)
(0 -2.642204198e-12 -8.712711046e-13)
(0 -2.457865628e-12 -8.299693396e-13)
(0 -2.281991664e-12 -7.91974157e-13)
(0 -2.113907569e-12 -7.570694392e-13)
(0 -1.95298019e-12 -7.25060913e-13)
(0 -1.798613899e-12 -6.957740718e-13)
(0 -1.650246982e-12 -6.690524209e-13)
(0 -1.507348298e-12 -6.447559417e-13)
(0 -1.369414148e-12 -6.22759697e-13)
(0 -1.235965313e-12 -6.029525472e-13)
(0 -1.106544314e-12 -5.85235982e-13)
(0 -9.807129048e-13 -5.695230908e-13)
(0 -8.580497977e-13 -5.557376904e-13)
(0 -7.3814858e-13 -5.438136106e-13)
(0 -6.20615748e-13 -5.336941178e-13)
(0 -5.050688012e-13 -5.253314493e-13)
(0 -3.911343575e-13 -5.186864411e-13)
(0 -2.784462971e-13 -5.137282599e-13)
(0 -1.666440184e-13 -5.104342964e-13)
(0 -5.545977126e-14 -5.087902641e-13)
(0 -4.298393596e-11 -3.052752196e-11)
(0 -3.934122017e-11 -2.648191368e-11)
(0 -3.607172344e-11 -2.30969223e-11)
(0 -3.313176403e-11 -2.024780652e-11)
(0 -3.048304311e-11 -1.783603062e-11)
(0 -2.809194766e-11 -1.578326043e-11)
(0 -2.592900824e-11 -1.402684901e-11)
(0 -2.396840931e-11 -1.2516412e-11)
(0 -2.218754529e-11 -1.121120792e-11)
(0 -2.056661856e-11 -1.007811903e-11)
(0 -1.908827953e-11 -9.090085979e-12)
(0 -1.773731006e-11 -8.224889224e-12)
(0 -1.650034748e-11 -7.464196245e-12)
(0 -1.536564369e-11 -6.792811954e-12)
(0 -1.432285363e-11 -6.198084844e-12)
(0 -1.336285011e-11 -5.669433934e-12)
(0 -1.247756348e-11 -5.197970943e-12)
(0 -1.165984444e-11 -4.776198005e-12)
(0 -1.090334672e-11 -4.397764922e-12)
(0 -1.020242556e-11 -4.057272868e-12)
(0 -9.552049314e-12 -3.750114473e-12)
(0 -8.947722409e-12 -3.472342991e-12)
(0 -8.385418911e-12 -3.220565161e-12)
(0 -7.861525671e-12 -2.991853467e-12)
(0 -7.372793352e-12 -2.783673998e-12)
(0 -6.91629364e-12 -2.593826671e-12)
(0 -6.489381488e-12 -2.420395317e-12)
(0 -6.089661961e-12 -2.261705859e-12)
(0 -5.714961569e-12 -2.116291346e-12)
(0 -5.363303772e-12 -1.982862802e-12)
(0 -5.032887906e-12 -1.860284848e-12)
(0 -4.722070602e-12 -1.747555127e-12)
(0 -4.429349015e-12 -1.643786709e-12)
(0 -4.153345587e-12 -1.548192945e-12)
(0 -3.892794476e-12 -1.460074475e-12)
(0 -3.646529797e-12 -1.378808189e-12)
(0 -3.413475608e-12 -1.303837929e-12)
(0 -3.192637319e-12 -1.234666632e-12)
(0 -2.983094022e-12 -1.170849593e-12)
(0 -2.7839914e-12 -1.111988558e-12)
(0 -2.594535038e-12 -1.057726469e-12)
(0 -2.413984227e-12 -1.007742809e-12)
(0 -2.241646382e-12 -9.617495425e-13)
(0 -2.076872187e-12 -9.194876499e-13)
(0 -1.919051413e-12 -8.807242209e-13)
(0 -1.767609253e-12 -8.452500057e-13)
(0 -1.622002984e-12 -8.128773091e-13)
(0 -1.481718834e-12 -7.834381227e-13)
(0 -1.346268983e-12 -7.567824302e-13)
(0 -1.215188742e-12 -7.327766667e-13)
(0 -1.088033967e-12 -7.113023434e-13)
(0 -9.643787176e-13 -6.922548573e-13)
(0 -8.438131591e-13 -6.755424914e-13)
(0 -7.259416329e-13 -6.610855936e-13)
(0 -6.103808234e-13 -6.488159045e-13)
(0 -4.967579582e-13 -6.386760031e-13)
(0 -3.847090206e-13 -6.306188486e-13)
(0 -2.738769999e-13 -6.246074165e-13)
(0 -1.639102438e-13 -6.206144317e-13)
(0 -5.454975547e-14 -6.186221663e-13)
(0 -3.831712275e-11 -3.394518613e-11)
(0 -3.543934319e-11 -2.95843247e-11)
(0 -3.278989555e-11 -2.591316598e-11)
(0 -3.035569618e-11 -2.28054112e-11)
(0 -2.812195469e-11 -2.016056728e-11)
(0 -2.607327483e-11 -1.789816592e-11)
(0 -2.419440896e-11 -1.595339829e-11)
(0 -2.247071742e-11 -1.427378419e-11)
(0 -2.088842793e-11 -1.281660681e-11)
(0 -1.943476197e-11 -1.154692248e-11)
(0 -1.809797698e-11 -1.043600802e-11)
(0 -1.686735753e-11 -9.460144118e-12)
(0 -1.573317506e-11 -8.599656623e-12)
(0 -1.468662782e-11 -7.838156126e-12)
(0 -1.371976929e-11 -7.161931086e-12)
(0 -1.282543299e-11 -6.559461768e-12)
(0 -1.199715945e-11 -6.021030206e-12)
(0 -1.122912789e-11 -5.538406393e-12)
(0 -1.051609287e-11 -5.104594404e-12)
(0 -9.853325258e-12 -4.713625593e-12)
(0 -9.23655748e-12 -4.3603892e-12)
(0 -8.661933883e-12 -4.040493361e-12)
(0 -8.125966716e-12 -3.750151032e-12)
(0 -7.625497356e-12 -3.486086165e-12)
(0 -7.157661766e-12 -3.24545606e-12)
(0 -6.719859192e-12 -3.025786571e-12)
(0 -6.309723784e-12 -2.824917767e-12)
(0 -5.925099318e-12 -2.640958364e-12)
(0 -5.56401722e-12 -2.472247645e-12)
(0 -5.224677628e-12 -2.317323655e-12)
(0 -4.905432774e-12 -2.174896464e-12)
(0 -4.604771934e-12 -2.043825418e-12)
(0 -4.321307491e-12 -1.923099583e-12)
(0 -4.053762149e-12 -1.81182089e-12)
(0 -3.800957566e-12 -1.709189715e-12)
(0 -3.561804558e-12 -1.614492656e-12)
(0 -3.335294777e-12 -1.527092226e-12)
(0 -3.12049344e-12 -1.446418087e-12)
(0 -2.91653268e-12 -1.371959451e-12)
(0 -2.722605237e-12 -1.303258387e-12)
(0 -2.537958449e-12 -1.239903868e-12)
(0 -2.361888702e-12 -1.181526527e-12)
(0 -2.193736505e-12 -1.127794118e-12)
(0 -2.032882248e-12 -1.07840766e-12)
(0 -1.878742546e-12 -1.033098182e-12)
(0 -1.730766987e-12 -9.916239468e-13)
(0 -1.588435099e-12 -9.53768026e-13)
(0 -1.451253419e-12 -9.193361316e-13)
(0 -1.318752692e-12 -8.881546507e-13)
(0 -1.190485226e-12 -8.600688793e-13)
(0 -1.066022505e-12 -8.349414688e-13)
(0 -9.449530528e-13 -8.126510971e-13)
(0 -8.268805341e-13 -7.930913568e-13)
(0 -7.114219931e-13 -7.761698356e-13)
(0 -5.982061574e-13 -7.618073509e-13)
(0 -4.868717452e-13 -7.499373044e-13)
(0 -3.77065771e-13 -7.405051336e-13)
(0 -2.684418802e-13 -7.334678532e-13)
(0 -1.606587682e-13 -7.287936794e-13)
(0 -5.346750585e-14 -7.264617178e-13)
(0 -3.341265845e-11 -3.6513292e-11)
(0 -3.130920001e-11 -3.199703173e-11)
(0 -2.929280994e-11 -2.816600644e-11)
(0 -2.737916534e-11 -2.490010661e-11)
(0 -2.557579783e-11 -2.210266157e-11)
(0 -2.388477867e-11 -1.969543618e-11)
(0 -2.230462651e-11 -1.761479299e-11)
(0 -2.083161783e-11 -1.58087208e-11)
(0 -1.946068359e-11 -1.423451527e-11)
(0 -1.818601977e-11 -1.285695778e-11)
(0 -1.700150117e-11 -1.164687903e-11)
(0 -1.590095866e-11 -1.058002084e-11)
(0 -1.487835949e-11 -9.636128911e-12)
(0 -1.392791815e-11 -8.798225402e-12)
(0 -1.304415928e-11 -8.05202317e-12)
(0 -1.222194923e-11 -7.385453112e-12)
(0 -1.14565081e-11 -6.788282071e-12)
(0 -1.074340864e-11 -6.251802789e-12)
(0 -1.007856592e-11 -5.768580778e-12)
(0 -9.458220352e-12 -5.332246481e-12)
(0 -8.878917083e-12 -4.9373241e-12)
(0 -8.337484241e-12 -4.579090576e-12)
(0 -7.831011715e-12 -4.253459309e-12)
(0 -7.356830699e-12 -3.956883867e-12)
(0 -6.912493758e-12 -3.686277658e-12)
(0 -6.495755347e-12 -3.438946472e-12)
(0 -6.10455328e-12 -3.212531728e-12)
(0 -5.736991839e-12 -3.004962834e-12)
(0 -5.391326861e-12 -2.814417325e-12)
(0 -5.065952592e-12 -2.639287408e-12)
(0 -4.759389668e-12 -2.478151619e-12)
(0 -4.470273721e-12 -2.329750529e-12)
(0 -4.197344487e-12 -2.192965768e-12)
(0 -3.939435719e-12 -2.066801965e-12)
(0 -3.695466242e-12 -1.950371329e-12)
(0 -3.464432308e-12 -1.842880602e-12)
(0 -3.245401039e-12 -1.743619994e-12)
(0 -3.037504544e-12 -1.6519537e-12)
(0 -2.839934323e-12 -1.567311597e-12)
(0 -2.651935817e-12 -1.489181898e-12)
(0 -2.472803178e-12 -1.417104635e-12)
(0 -2.301874477e-12 -1.350665955e-12)
(0 -2.138527515e-12 -1.289493212e-12)
(0 -1.982176252e-12 -1.233250806e-12)
(0 -1.8322677e-12 -1.181636632e-12)
(0 -1.688279097e-12 -1.134379029e-12)
(0 -1.549715169e-12 -1.09123407e-12)
(0 -1.416105459e-12 -1.051983126e-12)
(0 -1.28700173e-12 -1.016430671e-12)
(0 -1.16197556e-12 -9.844023266e-13)
(0 -1.040616185e-12 -9.557431595e-13)
(0 -9.225286056e-13 -9.303162402e-13)
(0 -8.073318976e-13 -9.080014346e-13)
(0 -6.94657627e-13 -8.886943941e-13)
(0 -5.841482922e-13 -8.723057027e-13)
(0 -4.754557409e-13 -8.587601443e-13)
(0 -3.682395694e-13 -8.479960712e-13)
(0 -2.621655457e-13 -8.399648676e-13)
(0 -1.569041084e-13 -8.346305069e-13)
(0 -5.221779385e-14 -8.319691984e-13)
(0 -2.844923018e-11 -3.824602186e-11)
(0 -2.709205763e-11 -3.372450375e-11)
(0 -2.569297043e-11 -2.985372292e-11)
(0 -2.429235131e-11 -2.652634817e-11)
(0 -2.291728425e-11 -2.365453545e-11)
(0 -2.158540624e-11 -2.116612302e-11)
(0 -2.030769358e-11 -1.900161716e-11)
(0 -1.90904397e-11 -1.711179312e-11)
(0 -1.793666491e-11 -1.545577796e-11)
(0 -1.684712573e-11 -1.399951462e-11)
(0 -1.582104005e-11 -1.271452793e-11)
(0 -1.485660741e-11 -1.157692973e-11)
(0 -1.395137962e-11 -1.056661271e-11)
(0 -1.310252208e-11 -9.666594752e-12)
(0 -1.2306997e-11 -8.862484639e-12)
(0 -1.156169189e-11 -8.142046203e-12)
(0 -1.086350913e-11 -7.494842194e-12)
(0 -1.02094266e-11 -6.911941905e-12)
(0 -9.596536562e-12 -6.385679909e-12)
(0 -9.022068581e-12 -5.909456217e-12)
(0 -8.483401575e-12 -5.47757063e-12)
(0 -7.978069092e-12 -5.085085436e-12)
(0 -7.503760006e-12 -4.727711346e-12)
(0 -7.058315704e-12 -4.401712186e-12)
(0 -6.639724371e-12 -4.103824716e-12)
(0 -6.246113262e-12 -3.831190899e-12)
(0 -5.875740146e-12 -3.581300752e-12)
(0 -5.526984916e-12 -3.351944299e-12)
(0 -5.198341795e-12 -3.141171183e-12)
(0 -4.888411921e-12 -2.947256536e-12)
(0 -4.595895895e-12 -2.768671797e-12)
(0 -4.319586083e-12 -2.604059525e-12)
(0 -4.058358927e-12 -2.452211608e-12)
(0 -3.811167711e-12 -2.312050522e-12)
(0 -3.577036203e-12 -2.182613363e-12)
(0 -3.355053223e-12 -2.063038305e-12)
(0 -3.144367876e-12 -1.952553037e-12)
(0 -2.944185043e-12 -1.850464745e-12)
(0 -2.753760879e-12 -1.756151282e-12)
(0 -2.572398276e-12 -1.669053321e-12)
(0 -2.399442505e-12 -1.58866743e-12)
(0 -2.234277279e-12 -1.514540044e-12)
(0 -2.076321356e-12 -1.446262305e-12)
(0 -1.925025667e-12 -1.383465663e-12)
(0 -1.779870769e-12 -1.325818108e-12)
(0 -1.640364425e-12 -1.273020875e-12)
(0 -1.506039195e-12 -1.224805489e-12)
(0 -1.37645002e-12 -1.180931119e-12)
(0 -1.251171892e-12 -1.141182181e-12)
(0 -1.129797714e-12 -1.105366239e-12)
(0 -1.011936419e-12 -1.073312192e-12)
(0 -8.972113279e-13 -1.044868735e-12)
(0 -7.852586879e-13 -1.019903079e-12)
(0 -6.757262612e-13 -9.982998538e-13)
(0 -5.682719076e-13 -9.799601784e-13)
(0 -4.625621138e-13 -9.64800849e-13)
(0 -3.582704943e-13 -9.527536345e-13)
(0 -2.550763159e-13 -9.437646816e-13)
(0 -1.526630991e-13 -9.377940285e-13)
(0 -5.08061974e-14 -9.348152342e-13)
(0 -2.358724474e-11 -3.919637331e-11)
(0 -2.291690107e-11 -3.480123918e-11)
(0 -2.209465436e-11 -3.099803444e-11)
(0 -2.117997787e-11 -2.769702765e-11)
(0 -2.021557268e-11 -2.482300804e-11)
(0 -1.923186038e-11 -2.231290312e-11)
(0 -1.825029661e-11 -2.011376126e-11)
(0 -1.728577863e-11 -1.818105897e-11)
(0 -1.634840509e-11 -1.647728992e-11)
(0 -1.544476974e-11 -1.497079383e-11)
(0 -1.457891628e-11 -1.363478662e-11)
(0 -1.375304343e-11 -1.244655673e-11)
(0 -1.296802451e-11 -1.138679831e-11)
(0 -1.222379008e-11 -1.043905788e-11)
(0 -1.151961073e-11 -9.589275597e-12)
(0 -1.085430679e-11 -8.825405213e-12)
(0 -1.02264038e-11 -8.137098635e-12)
(0 -9.634246357e-12 -7.515443105e-12)
(0 -9.076080229e-12 -6.952741499e-12)
(0 -8.550111074e-12 -6.442328486e-12)
(0 -8.054546302e-12 -5.978416807e-12)
(0 -7.587624956e-12 -5.555968706e-12)
(0 -7.147638464e-12 -5.170588012e-12)
(0 -6.73294407e-12 -4.81842899e-12)
(0 -6.341972471e-12 -4.496118991e-12)
(0 -5.973231383e-12 -4.200692754e-12)
(0 -5.62530668e-12 -3.929536789e-12)
(0 -5.296862269e-12 -3.680342416e-12)
(0 -4.986639098e-12 -3.451066032e-12)
(0 -4.693453206e-12 -3.2398952e-12)
(0 -4.416192657e-12 -3.045219391e-12)
(0 -4.153813531e-12 -2.865604593e-12)
(0 -3.905335484e-12 -2.699771311e-12)
(0 -3.669837475e-12 -2.546575679e-12)
(0 -3.446454025e-12 -2.404993363e-12)
(0 -3.234371981e-12 -2.274105835e-12)
(0 -3.032827479e-12 -2.153088555e-12)
(0 -2.841102789e-12 -2.041200611e-12)
(0 -2.658522899e-12 -1.937775535e-12)
(0 -2.484451965e-12 -1.842213142e-12)
(0 -2.318289901e-12 -1.753972354e-12)
(0 -2.159469352e-12 -1.672564991e-12)
(0 -2.007453134e-12 -1.597550457e-12)
(0 -1.861732055e-12 -1.528531195e-12)
(0 -1.721822912e-12 -1.465148745e-12)
(0 -1.587266477e-12 -1.407080256e-12)
(0 -1.457625414e-12 -1.354035346e-12)
(0 -1.332482151e-12 -1.305753265e-12)
(0 -1.21143685e-12 -1.262000375e-12)
(0 -1.094105571e-12 -1.222567931e-12)
(0 -9.801186808e-13 -1.187270193e-12)
(0 -8.691194931e-13 -1.155942824e-12)
(0 -7.60763016e-13 -1.128441536e-12)
(0 -6.547147264e-13 -1.104640934e-12)
(0 -5.506492874e-13 -1.084433506e-12)
(0 -4.48249197e-13 -1.067728748e-12)
(0 -3.472034021e-13 -1.054452399e-12)
(0 -2.472059397e-13 -1.044545802e-12)
(0 -1.479546609e-13 -1.03796539e-12)
(0 -4.923899946e-14 -1.034682309e-12)
(0 -1.896001125e-11 -3.944777462e-11)
(0 -1.889371877e-11 -3.528604635e-11)
(0 -1.858875889e-11 -3.164014866e-11)
(0 -1.811732491e-11 -2.844071939e-11)
(0 -1.753315973e-11 -2.562756535e-11)
(0 -1.687615946e-11 -2.314872105e-11)
(0 -1.617584943e-11 -2.095946785e-11)
(0 -1.545396837e-11 -1.902139317e-11)
(0 -1.472639977e-11 -1.73015287e-11)
(0 -1.400462243e-11 -1.577158263e-11)
(0 -1.329680294e-11 -1.440726678e-11)
(0 -1.26086191e-11 -1.318771249e-11)
(0 -1.194388078e-11 -1.209496732e-11)
(0 -1.130499937e-11 -1.11135643e-11)
(0 -1.069334433e-11 -1.02301554e-11)
(0 -1.010951493e-11 -9.433200664e-12)
(0 -9.553547021e-12 -8.71270439e-12)
(0 -9.025069459e-12 -8.059991119e-12)
(0 -8.523421943e-12 -7.467515257e-12)
(0 -8.047743888e-12 -6.928699655e-12)
(0 -7.597041796e-12 -6.437798974e-12)
(0 -7.170240298e-12 -5.989783936e-12)
(0 -6.76622029e-12 -5.580242845e-12)
(0 -6.383846683e-12 -5.205297411e-12)
(0 -6.021988136e-12 -4.861530662e-12)
(0 -5.679531061e-12 -4.545925354e-12)
(0 -5.355389807e-12 -4.255811561e-12)
(0 -5.048514158e-12 -3.988822129e-12)
(0 -4.757894578e-12 -3.742854605e-12)
(0 -4.482565281e-12 -3.516038381e-12)
(0 -4.221605288e-12 -3.306706104e-12)
(0 -3.974138002e-12 -3.113368749e-12)
(0 -3.739330012e-12 -2.934694018e-12)
(0 -3.516389763e-12 -2.7694878e-12)
(0 -3.304566359e-12 -2.616678313e-12)
(0 -3.103148415e-12 -2.475302493e-12)
(0 -2.911462651e-12 -2.344494124e-12)
(0 -2.728872023e-12 -2.22347335e-12)
(0 -2.55477341e-12 -2.111537326e-12)
(0 -2.388595094e-12 -2.008051918e-12)
(0 -2.229794354e-12 -1.912444455e-12)
(0 -2.077855381e-12 -1.824197458e-12)
(0 -1.932287559e-12 -1.742843285e-12)
(0 -1.792623955e-12 -1.667959498e-12)
(0 -1.658419831e-12 -1.599164812e-12)
(0 -1.529251026e-12 -1.536115458e-12)
(0 -1.404712204e-12 -1.478501905e-12)
(0 -1.284415049e-12 -1.426045903e-12)
(0 -1.167986558e-12 -1.378497866e-12)
(0 -1.055067532e-12 -1.335634596e-12)
(0 -9.453113117e-13 -1.297257341e-12)
(0 -8.383826716e-13 -1.263190153e-12)
(0 -7.33956798e-13 -1.233278481e-12)
(0 -6.31718231e-13 -1.207387958e-12)
(0 -5.313597218e-13 -1.185403332e-12)
(0 -4.325810069e-13 -1.167227532e-12)
(0 -3.350875483e-13 -1.152780857e-12)
(0 -2.385893072e-13 -1.142000312e-12)
(0 -1.427996061e-13 -1.134839071e-12)
(0 -4.752311604e-14 -1.131266104e-12)
(0 -1.466867556e-11 -3.910406352e-11)
(0 -1.510927511e-11 -3.525502426e-11)
(0 -1.52493274e-11 -3.183579473e-11)
(0 -1.516739456e-11 -2.879813529e-11)
(0 -1.492357434e-11 -2.609781295e-11)
(0 -1.456376288e-11 -2.369494921e-11)
(0 -1.412296874e-11 -2.15539976e-11)
(0 -1.362783948e-11 -1.964351767e-11)
(0 -1.309859455e-11 -1.793584807e-11)
(0 -1.255050782e-11 -1.640673983e-11)
(0 -1.199504614e-11 -1.503498497e-11)
(0 -1.144074397e-11 -1.380206001e-11)
(0 -1.089387632e-11 -1.269179561e-11)
(0 -1.035897817e-11 -1.169007769e-11)
(0 -9.839247095e-12 -1.078458164e-11)
(0 -9.336855775e-12 -9.964538121e-12)
(0 -8.85319426e-12 -9.220527874e-12)
(0 -8.389057225e-12 -8.544302563e-12)
(0 -7.944788765e-12 -7.928629187e-12)
(0 -7.520394791e-12 -7.367155627e-12)
(0 -7.115630584e-12 -6.8542948e-12)
(0 -6.730068826e-12 -6.385124774e-12)
(0 -6.363151939e-12 -5.955302363e-12)
(0 -6.014231887e-12 -5.560988234e-12)
(0 -5.682600414e-12 -5.198782139e-12)
(0 -5.367512281e-12 -4.865667149e-12)
(0 -5.068203455e-12 -4.558961839e-12)
(0 -4.783905313e-12 -4.276279213e-12)
(0 -4.51385535e-12 -4.015491156e-12)
(0 -4.257304706e-12 -3.7746974e-12)
(0 -4.013523025e-12 -3.552198289e-12)
(0 -3.781801445e-12 -3.346470959e-12)
(0 -3.561454535e-12 -3.156148687e-12)
(0 -3.35182177e-12 -2.980003122e-12)
(0 -3.152268719e-12 -2.816929003e-12)
(0 -2.962187792e-12 -2.665930897e-12)
(0 -2.780998337e-12 -2.526111505e-12)
(0 -2.608145991e-12 -2.39666123e-12)
(0 -2.443101467e-12 -2.276848865e-12)
(0 -2.285359094e-12 -2.166013348e-12)
(0 -2.134435441e-12 -2.063556582e-12)
(0 -1.989868182e-12 -1.968937241e-12)
(0 -1.851215174e-12 -1.881665448e-12)
(0 -1.718053583e-12 -1.801298126e-12)
(0 -1.589978872e-12 -1.727434885e-12)
(0 -1.46660357e-12 -1.659714298e-12)
(0 -1.347555859e-12 -1.597810535e-12)
(0 -1.232478112e-12 -1.54143034e-12)
(0 -1.121025543e-12 -1.490310372e-12)
(0 -1.012865045e-12 -1.444214906e-12)
(0 -9.076742375e-13 -1.40293388e-12)
(0 -8.051406331e-13 -1.36628122e-12)
(0 -7.049608214e-13 -1.3340934e-12)
(0 -6.068395778e-13 -1.306228183e-12)
(0 -5.104888613e-13 -1.282563505e-12)
(0 -4.156267222e-13 -1.262996493e-12)
(0 -3.219761818e-13 -1.24744263e-12)
(0 -2.292641531e-13 -1.235835063e-12)
(0 -1.372204531e-13 -1.228124074e-12)
(0 -4.566603236e-14 -1.224276698e-12)
(0 -1.078086154e-11 -3.827928212e-11)
(0 -1.162544997e-11 -3.479419334e-11)
(0 -1.213186993e-11 -3.164987043e-11)
(0 -1.237934314e-11 -2.881821356e-11)
(0 -1.242997365e-11 -2.62706024e-11)
(0 -1.23323441e-11 -2.397926658e-11)
(0 -1.212441789e-11 -2.191805665e-11)
(0 -1.183581883e-11 -2.006283152e-11)
(0 -1.148962192e-11 -1.839160482e-11)
(0 -1.110375933e-11 -1.688454271e-11)
(0 -1.069212312e-11 -1.552387343e-11)
(0 -1.026542974e-11 -1.42937481e-11)
(0 -9.831898462e-12 -1.31800787e-11)
(0 -9.397785401e-12 -1.217037017e-11)
(0 -8.967804758e-12 -1.125355606e-11)
(0 -8.545461164e-12 -1.04198431e-11)
(0 -8.133311463e-12 -9.660567304e-12)
(0 -7.733170773e-12 -8.968062654e-12)
(0 -7.346275007e-12 -8.335543219e-12)
(0 -6.9734095e-12 -7.756998213e-12)
(0 -6.615010943e-12 -7.227099194e-12)
(0 -6.271247861e-12 -6.741118043e-12)
(0 -5.94208375e-12 -6.294854513e-12)
(0 -5.627326459e-12 -5.884572389e-12)
(0 -5.32666705e-12 -5.506943591e-12)
(0 -5.039710762e-12 -5.15899953e-12)
(0 -4.766001871e-12 -4.838088899e-12)
(0 -4.505043474e-12 -4.54184089e-12)
(0 -4.256312765e-12 -4.268132883e-12)
(0 -4.019272414e-12 -4.015061886e-12)
(0 -3.793378848e-12 -3.780919291e-12)
(0 -3.578088401e-12 -3.564168726e-12)
(0 -3.372862175e-12 -3.363426814e-12)
(0 -3.177170078e-12 -3.177446538e-12)
(0 -2.990494134e-12 -3.005102796e-12)
(0 -2.812330918e-12 -2.845379707e-12)
(0 -2.642192984e-12 -2.697359283e-12)
(0 -2.479609383e-12 -2.560211264e-12)
(0 -2.324125528e-12 -2.433184029e-12)
(0 -2.175302812e-12 -2.315596584e-12)
(0 -2.032718248e-12 -2.206831593e-12)
(0 -1.895964247e-12 -2.106329365e-12)
(0 -1.764648444e-12 -2.013582634e-12)
(0 -1.638393393e-12 -1.928131967e-12)
(0 -1.516836004e-12 -1.849561626e-12)
(0 -1.399626676e-12 -1.777495819e-12)
(0 -1.286428246e-12 -1.711595308e-12)
(0 -1.176914886e-12 -1.651554371e-12)
(0 -1.070771124e-12 -1.597098154e-12)
(0 -9.676910409e-13 -1.547980389e-12)
(0 -8.673776251e-13 -1.503981443e-12)
(0 -7.695421908e-13 -1.464906643e-12)
(0 -6.739037613e-13 -1.430584814e-12)
(0 -5.801883362e-13 -1.40086698e-12)
(0 -4.881280318e-13 -1.375625217e-12)
(0 -3.974601317e-13 -1.354751641e-12)