/*--------------------------------*- C++ -*----------------------------------*\
  =========                 |
  \\      /  F ield         | OpenFOAM: The Open Source CFD Toolbox
   \\    /   O peration     | Website:  https://openfoam.org
    \\  /    A nd           | Version:  6
     \\/     M anipulation  |
\*---------------------------------------------------------------------------*/
FoamFile
{
    version     2.0;
    format      ascii;
    class       volScalarField;
    location    "0.0051";
    object      Num_divU;
}
// * * * * * * * * * * * * * * * * * * * * * * * * * * * * * * * * * * * * * //

dimensions      [0 0 -1 0 0 0 0];

internalField   nonuniform List<scalar> 
600
(
1.92190772e-08
-9.022418e-09
-3.505753193e-08
-6.15635788e-08
-8.862251882e-08
-1.161233124e-07
-1.428750687e-07
-1.667245219e-07
-1.838037548e-07
-1.876494894e-07
-1.644347721e-07
-8.005594802e-08
1.594051212e-07
6.668654077e-07
2.182745851e-06
1.592743903e-06
-4.11558829e-11
-5.502617556e-11
-9.737386659e-11
-6.715522141e-11
-1.536198587e-11
2.300217997e-11
3.407642074e-11
4.155113905e-12
7.903356925e-11
8.891926585e-11
1.175502103e-10
5.739457561e-11
-2.646991937e-11
1.151070177e-10
4.50625875e-09
-1.858470379e-08
-4.233691241e-08
-6.861617697e-08
-9.741030984e-08
-1.28952843e-07
-1.630807583e-07
-1.996832965e-07
-2.393665704e-07
-2.860462564e-07
-3.513623977e-07
-4.610971174e-07
-5.865652231e-07
-4.707867076e-08
8.242332454e-07
3.344482309e-06
-1.317842487e-11
-3.451520411e-11
-3.687710581e-11
-2.952734779e-11
-1.125295906e-11
8.384154208e-12
1.869543051e-11
1.454990592e-11
2.536091325e-11
4.254535063e-11
2.806032714e-11
2.087337601e-11
1.394701489e-11
5.7113342e-12
-7.275304601e-09
-2.639654498e-08
-4.860521342e-08
-7.500494423e-08
-1.055115408e-07
-1.40551574e-07
-1.805548877e-07
-2.259851464e-07
-2.775469611e-07
-3.367938212e-07
-4.080582269e-07
-5.070014805e-07
-9.182753468e-07
-1.433503107e-06
-2.476936312e-06
-7.986327077e-12
-2.130181348e-11
-2.754108173e-11
-2.998049632e-11
-2.520830767e-11
-1.414579348e-11
1.25759936e-12
1.313224745e-11
1.84175524e-11
2.907865959e-11
3.31419163e-11
2.798560868e-11
2.743343732e-11
1.401729332e-11
9.593107396e-12
-1.280192857e-08
-3.053669286e-08
-5.268775477e-08
-7.992357104e-08
-1.121610607e-07
-1.501731785e-07
-1.950834111e-07
-2.484901002e-07
-3.123283446e-07
-3.884305497e-07
-4.770281648e-07
-5.966018901e-07
-1.353678866e-06
-2.318907292e-06
-1.764748686e-06
-1.677893923e-11
-2.332111411e-11
-2.839553354e-11
-2.827670541e-11
-2.497280832e-11
-1.666020642e-11
-4.188463341e-12
8.875651839e-12
1.836619584e-11
2.711279531e-11
3.271129182e-11
3.007552579e-11
2.633863437e-11
1.738670557e-11
3.53211772e-12
-1.015052221e-08
-3.003633258e-08
-5.414249477e-08
-8.306803415e-08
-1.16928613e-07
-1.5691764e-07
-2.051300481e-07
-2.653759766e-07
-3.447348653e-07
-4.560676983e-07
-6.20177586e-07
-8.511359779e-07
-8.721601118e-07
-1.061137117e-06
-9.662820517e-08
-1.904972008e-11
-2.703717084e-11
-2.636891235e-11
-2.479227901e-11
-2.180037143e-11
-1.641455534e-11
-7.173320116e-12
4.972441932e-12
1.781101981e-11
2.829582921e-11
3.089077783e-11
2.725518938e-11
2.055668209e-11
1.014705934e-11
5.744591613e-12
6.195127519e-10
-2.533388114e-08
-5.351020641e-08
-8.488860806e-08
-1.198551637e-07
-1.597244863e-07
-2.066297812e-07
-2.644213037e-07
-3.403280004e-07
-4.475752765e-07
-6.073883402e-07
-8.349771495e-07
-8.551855005e-07
-1.041334008e-06
-6.647024347e-08
-1.800555937e-11
-1.97807788e-11
-2.315119758e-11
-1.992444063e-11
-1.716804701e-11
-1.41552935e-11
-7.683099826e-12
3.661401271e-12
1.644574108e-11
2.563663552e-11
2.668707617e-11
1.913825932e-11
1.010819638e-11
3.869226961e-12
-6.035699386e-12
1.699910868e-08
-1.854141915e-08
-5.257709049e-08
-8.69552662e-08
-1.22435232e-07
-1.601239238e-07
-2.011949421e-07
-2.472680899e-07
-3.006575662e-07
-3.642093759e-07
-4.400405683e-07
-5.486875357e-07
-1.310622523e-06
-2.262096683e-06
-1.647775617e-06
-9.664543975e-12
-1.72371941e-11
-9.614196306e-12
-9.156358988e-12
-9.461294383e-12
-9.600412289e-12
-5.550247265e-12
3.643351471e-12
1.606034711e-11
2.287095427e-11
1.713451831e-11
3.709427193e-12
-5.336731886e-12
-1.617889627e-11
-4.152183983e-12
3.399654447e-08
-1.344912652e-08
-5.430548629e-08
-9.186868605e-08
-1.275113653e-07
-1.621428439e-07
-1.960416748e-07
-2.294059837e-07
-2.631945966e-07
-3.006372883e-07
-3.500790993e-07
-4.352319642e-07
-8.58293838e-07
-1.397950505e-06
-2.82560075e-06
-5.618498443e-12
8.607399264e-12
-1.537738521e-11
-3.571310031e-12
-1.148765981e-12
-3.456244452e-12
-2.62045029e-12
4.807406611e-12
1.429767948e-11
1.425842425e-11
4.0368657e-12
-6.128635442e-12
-2.343462172e-11
-7.253526789e-13
-2.686889314e-11
4.42953862e-08
-1.528138347e-08
-6.245346547e-08
-1.026644501e-07
-1.381096296e-07
-1.694057022e-07
-1.957457795e-07
-2.158669494e-07
-2.298195804e-07
-2.426067995e-07
-2.706239704e-07
-3.496802273e-07
-4.761647986e-07
-1.248601092e-07
3.774048763e-07
3.361341751e-06
-2.754917911e-11
-3.511769433e-12
-9.160908693e-12
-1.593612042e-12
-1.81586751e-12
-1.332419396e-12
5.673256291e-12
1.161927727e-11
1.211792762e-11
6.808003695e-12
-2.265929038e-11
1.123833887e-11
-3.292241111e-11
3.962819431e-12
3.855921094e-08
-3.0243816e-08
-8.097780104e-08
-1.222125325e-07
-1.56914202e-07
-1.848934696e-07
-2.033232665e-07
-2.074315714e-07
-1.911664751e-07
-1.478810976e-07
-6.902675678e-08
6.597409142e-08
3.289719636e-07
7.961064696e-07
2.249590009e-06
6.700387951e-07
-2.471107812e-12
-2.790436366e-11
-1.313140966e-11
-1.732017345e-12
-1.644867451e-12
-4.359868481e-13
5.779199295e-12
1.42644207e-11
1.656616668e-11
-8.533458173e-12
3.880941711e-12
-1.271214331e-11
1.77595637e-12
-4.059327753e-11
4.958217475e-09
-6.49713002e-08
-1.130789484e-07
-1.524929547e-07
-1.860840079e-07
-2.119714305e-07
-2.246638951e-07
-2.153031105e-07
-1.712958472e-07
-7.621162648e-08
8.956542386e-08
3.512117027e-07
7.54004146e-07
1.373814085e-06
1.415832458e-06
1.025747645e-06
-3.499129117e-06
-1.094445661e-11
6.116743533e-13
5.738868764e-12
2.122973572e-12
1.602870583e-12
8.862214113e-12
1.691172431e-11
1.248026551e-11
8.886301423e-14
4.106536305e-12
9.078893893e-18
-4.174129691e-06
-6.650098255e-12
-7.146958432e-08
-1.247384387e-07
-1.591576874e-07
-1.932797814e-07
-2.263420891e-07
-2.531727611e-07
-2.654071112e-07
-2.508349408e-07
-1.917268993e-07
-6.486021592e-08
1.488327748e-07
4.395549271e-07
7.141311394e-07
9.643546335e-07
1.593441321e-06
3.809234153e-06
6.6997006e-06
1.219655599e-05
-1.295212231e-12
4.364492918e-12
2.452902467e-12
3.202179635e-12
1.077216013e-11
1.844062226e-11
1.489263874e-11
1.039080087e-11
2.473713383e-12
3.948177092e-06
-4.234138152e-08
-2.764501457e-06
-2.480741504e-07
-2.185427085e-07
-2.138911569e-07
-2.406341446e-07
-2.762523206e-07
-3.091386082e-07
-3.283229165e-07
-3.197934941e-07
-2.614816983e-07
-1.162385239e-07
1.610344603e-07
5.95308713e-07
9.69711689e-07
1.410933985e-06
2.765562492e-06
4.257543672e-06
7.787431079e-06
7.796628737e-06
-9.922492597e-12
1.962977667e-12
2.100637162e-12
4.221235346e-12
1.081389341e-11
1.870686306e-11
1.519505176e-11
8.19536942e-12
3.278901674e-12
-6.288529906e-07
3.621218417e-07
1.105447386e-07
-2.455122513e-07
-2.322051746e-07
-2.433502503e-07
-2.834628767e-07
-3.324650748e-07
-3.791619485e-07
-4.134297146e-07
-4.238589907e-07
-3.910226194e-07
-2.657644466e-07
4.407972789e-08
7.352863915e-07
1.192237547e-06
2.98013801e-06
5.03430387e-06
4.576542046e-06
1.325464256e-06
-2.118091858e-11
-4.069540108e-12
2.352630075e-12
1.863302399e-12
4.043310488e-12
1.037953174e-11
1.468984073e-11
1.30906505e-11
7.411373593e-12
1.631718239e-12
3.145942861e-13
3.18954109e-06
-4.151246811e-12
-9.304057144e-08
-1.774890862e-07
-2.507681194e-07
-3.232078201e-07
-3.963659348e-07
-4.641991344e-07
-5.186794172e-07
-5.542208157e-07
-5.701178437e-07
-5.308907907e-07
-3.463834817e-07
2.90893151e-07
1.096476797e-06
3.182984903e-06
-5.097988722e-08
-1.254001404e-11
-1.268336866e-11
-1.178287032e-11
-2.601095164e-12
3.548511923e-13
1.203854615e-12
3.055332506e-12
9.186704854e-12
1.276770691e-11
1.05724626e-11
4.07690923e-12
-7.799305685e-13
-1.878253127e-11
-1.90615671e-11
-1.816471515e-11
-6.210623378e-08
-1.654298541e-07
-2.691482185e-07
-3.716031308e-07
-4.744581073e-07
-5.705651306e-07
-6.470808511e-07
-6.948252398e-07
-7.412461203e-07
-8.163363997e-07
-1.149271177e-06
-9.036641439e-07
1.492073978e-06
2.728571502e-06
-3.630887811e-12
-5.136013422e-12
-1.22019723e-11
-7.697118517e-12
-1.906381356e-12
8.878901219e-14
3.690449035e-15
2.109148041e-12
7.397239676e-12
1.122221573e-11
9.730797717e-12
2.714913157e-12
-4.792709717e-12
-1.465892263e-11
-1.916464165e-11
-8.945401775e-12
-5.418363752e-08
-1.683838128e-07
-2.964413855e-07
-4.29848926e-07
-5.713095541e-07
-7.121985713e-07
-8.257644255e-07
-8.566676339e-07
-7.833543826e-07
-1.030553067e-06
-2.089457839e-06
-3.910200864e-06
-2.656813668e-12
-4.31702311e-12
-6.647067457e-12
-7.931252269e-12
-8.385997764e-12
-4.593362688e-12
-2.391634934e-12
-2.716265228e-13
-1.294395933e-12
1.633351649e-12
5.488512361e-12
1.078932519e-11
9.629368737e-12
4.445301842e-12
-5.338517085e-12
-1.24833678e-11
-1.288431745e-11
-7.382313152e-12
-5.304646912e-08
-1.762475452e-07
-3.254321863e-07
-4.902818354e-07
-6.814188084e-07
-9.032075373e-07
-1.142018166e-06
-1.318563136e-06
-1.286111518e-06
-6.673066146e-07
6.759017134e-08
9.530410061e-14
-9.669353651e-13
-5.906510875e-12
-7.519593371e-12
-9.335524557e-12
-8.8958873e-12
-6.61934403e-12
-3.028811086e-12
-2.254312693e-12
-1.569349068e-12
-1.742385042e-13
5.123115725e-12
9.949485568e-12
1.15904656e-11
6.364527685e-12
-8.231124747e-13
-7.895847079e-12
-7.943493518e-12
-4.69636552e-12
-5.291091825e-08
-1.818275739e-07
-3.452820359e-07
-5.325843003e-07
-7.648929686e-07
-1.072052651e-06
-1.498432886e-06
-2.006866729e-06
-1.759966125e-06
-7.191704129e-07
2.409607175e-06
-3.868650411e-13
-2.413606081e-12
-7.098298375e-12
-9.987010262e-12
-1.199054956e-11
-1.02688021e-11
-7.7376379e-12
-4.30614006e-12
-3.412437997e-12
-2.424031977e-12
-4.461130986e-13
5.37541371e-12
1.102429301e-11
1.356036427e-11
9.018935692e-12
2.590661811e-12
-3.747040508e-12
-3.751499924e-12
-2.11703239e-12
-5.175844196e-08
-1.803577985e-07
-3.458724531e-07
-5.334364952e-07
-7.612165633e-07
-1.05321953e-06
-1.455235997e-06
-2.479844819e-06
-3.356504051e-06
-3.446743274e-06
-3.795287803e-13
-4.695235601e-13
-2.830499535e-12
-4.742007681e-12
-6.26065458e-12
-5.837030911e-12
-5.020401352e-12
-3.017761765e-12
-2.208345976e-12
-1.543570337e-12
-1.213497246e-12
1.245926319e-12
4.442669931e-12
7.333486193e-12
6.557741198e-12
3.928554885e-12
1.060090084e-13
-1.352014907e-12
-9.379580922e-13
4.866142659e-13
)
;

boundaryField
{
    lowerWall
    {
        type            calculated;
        value           nonuniform 0();
    }
    atmosphere
    {
        type            calculated;
        value           nonuniform List<scalar> 
20
(
1.92190772e-08
4.50625875e-09
-7.275304601e-09
-1.280192857e-08
-1.015052221e-08
6.195127519e-10
1.699910868e-08
3.399654447e-08
4.42953862e-08
3.855921094e-08
4.958217475e-09
-7.146958432e-08
-2.480741504e-07
-2.455122513e-07
-9.304057144e-08
-6.210623378e-08
-5.418363752e-08
-5.304646912e-08
-5.291091825e-08
-5.175844196e-08
)
;
    }
    rightWall
    {
        type            empty;
    }
    leftWall
    {
        type            empty;
    }
    frontAndBack
    {
        type            calculated;
        value           nonuniform List<scalar> 
30
(
-5.175844196e-08
-1.803577985e-07
-3.458724531e-07
-5.334364952e-07
-7.612165633e-07
-1.05321953e-06
-1.455235997e-06
-2.479844819e-06
-3.356504051e-06
-3.446743274e-06
-3.795287803e-13
-4.695235601e-13
-2.830499535e-12
-4.742007681e-12
-6.26065458e-12
-5.837030911e-12
-5.020401352e-12
-3.017761765e-12
-2.208345976e-12
-1.543570337e-12
-1.213497246e-12
1.245926319e-12
4.442669931e-12
7.333486193e-12
6.557741198e-12
3.928554885e-12
1.060090084e-13
-1.352014907e-12
-9.379580922e-13
4.866142659e-13
)
;
    }
    procBoundary4to2
    {
        type            processor;
        value           nonuniform List<scalar> 
30
(
3.302087724e-08
-4.924900174e-11
-2.83038899e-08
-5.498657868e-08
-8.042597288e-08
-1.039765127e-07
-1.235944312e-07
-1.349461534e-07
-1.30707173e-07
-9.773101711e-08
-1.259526587e-08
1.681575557e-07
5.194932607e-07
1.100307786e-06
1.484665322e-06
1.532023543e-06
-1.875529705e-06
-9.069950639e-11
-6.832242736e-11
-3.549201993e-11
-3.471857438e-12
1.790893064e-11
1.213303274e-11
2.748152061e-11
2.129314493e-11
1.353250277e-10
6.68511154e-11
1.335017352e-11
1.467353527e-06
-6.599761766e-11
)
;
    }
    procBoundary4to5
    {
        type            processor;
        value           nonuniform List<scalar> 
20
(
-5.7765861e-11
-1.803531678e-12
-4.359937147e-12
4.556387384e-12
5.067142329e-13
2.609103525e-12
-1.324372084e-11
-4.577500475e-12
-4.093351979e-11
-6.811142736e-12
-5.107220253e-12
1.21540729e-11
1.526177917e-11
-1.960698027e-11
-6.780328977e-12
-9.651745952e-12
-6.18267653e-12
-3.934563694e-12
-7.463736674e-13
3.649182772e-13
)
;
    }
}


// ************************************************************************* //
