/*--------------------------------*- C++ -*----------------------------------*\
  =========                 |
  \\      /  F ield         | OpenFOAM: The Open Source CFD Toolbox
   \\    /   O peration     | Website:  https://openfoam.org
    \\  /    A nd           | Version:  10
     \\/     M anipulation  |
\*---------------------------------------------------------------------------*/
FoamFile
{
    format      ascii;
    class       volScalarField;
    location    "0.006";
    object      p_rgh;
}
// * * * * * * * * * * * * * * * * * * * * * * * * * * * * * * * * * * * * * //

dimensions      [1 -1 -2 0 0 0 0];

internalField   nonuniform List<scalar> 
19200
(
2.754383413e-06
8.127992584e-06
1.341230962e-05
1.868232103e-05
2.393361763e-05
2.916324435e-05
3.436372218e-05
3.952583773e-05
4.463768749e-05
4.968456418e-05
5.464907286e-05
5.951006347e-05
6.424291951e-05
6.882058693e-05
7.321345937e-05
7.73890843e-05
8.131314818e-05
8.495114859e-05
8.82694859e-05
9.123593792e-05
9.382039922e-05
9.59963546e-05
9.774271069e-05
9.904535562e-05
9.989819187e-05
0.0001003038191
0.0001002741349
9.983092007e-05
9.900623791e-05
9.784238964e-05
9.639122794e-05
9.471279422e-05
9.2873363e-05
9.094289754e-05
8.899214644e-05
8.708952101e-05
8.529793238e-05
8.36717022e-05
8.225358395e-05
8.10720738e-05
8.013921135e-05
7.945014299e-05
7.898463933e-05
7.870996241e-05
7.858374842e-05
7.856024257e-05
7.859398931e-05
7.864718979e-05
7.867972964e-05
7.857218264e-05
-12.95633451
-25.69148824
-38.02180177
-49.78249727
-60.84849728
-71.13645282
-80.60219069
-89.23505252
-97.05076562
-104.0841665
-110.3826304
-116.0006305
-120.9955353
-125.4245607
-129.3426996
-132.8014231
-135.8479594
-138.524983
-140.8705819
-142.9184016
-144.6978927
-146.2346097
-147.5505268
-148.6643461
-149.5917854
-150.3458348
-150.9369802
-151.3733886
-151.661056
-151.8039173
2.767283863e-06
8.163143033e-06
1.347221021e-05
1.876999062e-05
2.405140292e-05
2.93127264e-05
3.454646485e-05
3.974355491e-05
4.489246833e-05
4.997826269e-05
5.498290683e-05
5.988514839e-05
6.466045731e-05
6.928120011e-05
7.371668863e-05
7.793363025e-05
8.189728686e-05
8.557269667e-05
8.892542166e-05
9.192215737e-05
9.453182467e-05
9.672722387e-05
9.848678271e-05
9.979594068e-05
0.0001006481001
0.0001010453665
0.0001009992763
0.0001005314942
9.96742745e-05
9.847044616e-05
9.697276539e-05
9.524256342e-05
9.334768591e-05
9.135989023e-05
8.935182404e-05
8.739375795e-05
8.55503692e-05
8.387770872e-05
8.242006063e-05
8.120705847e-05
8.025110884e-05
7.954667626e-05
7.907196139e-05
7.879260337e-05
7.866483015e-05
7.864095722e-05
7.86742145e-05
7.872664168e-05
7.877021872e-05
7.869221233e-05
-13.16355345
-26.09632975
-38.59142245
-50.47719665
-61.62654681
-71.9586767
-81.43507399
-90.05220957
-97.83308714
-104.8191136
-111.0631052
-116.6237377
-121.5614273
-125.9354605
-129.8021288
-133.2136247
-136.217487
-138.8564231
-141.168377
-143.1867465
-144.9406833
-146.4554266
-147.7526418
-148.8507439
-149.7651931
-150.508757
-151.0917359
-151.5221485
-151.8058812
-151.9467981
2.805528462e-06
8.272741506e-06
1.365612681e-05
1.903082144e-05
2.439133917e-05
2.973403071e-05
3.505221484e-05
4.03367285e-05
4.557519514e-05
5.075239494e-05
5.585036898e-05
6.084731358e-05
6.571743691e-05
7.043176657e-05
7.495857835e-05
7.926366388e-05
8.331115313e-05
8.706466403e-05
9.048825873e-05
9.354729231e-05
9.620957652e-05
9.844694289e-05
0.0001002368646
0.0001015637877
0.000102420121
0.0001028070673
0.0001027354453
0.0001022264727
0.0001013123177
0.0001000361922
9.845181645e-05
9.662215555e-05
9.461739011e-05
9.251216297e-05
9.038231496e-05
8.830130455e-05
8.633697538e-05
8.454888246e-05
8.298515874e-05
8.167895394e-05
8.064461218e-05
7.987674837e-05
7.935301341e-05
7.903634236e-05
7.888145638e-05
7.883798953e-05
7.885791077e-05
7.890249499e-05
7.894414896e-05
7.887048167e-05
-13.60256941
-26.93885979
-39.77036879
-51.90832939
-63.22182797
-73.63664645
-83.12723416
-91.70564153
-99.41027827
-106.2961157
-112.4269607
-117.8698105
-122.6909997
-126.9537505
-130.7167567
-134.033487
-136.9519689
-139.5148744
-141.7597858
-143.7195545
-145.4226985
-146.8938031
-148.1539022
-149.2208273
-150.1095193
-150.8322983
-151.3990921
-151.8176235
-152.0935579
-152.2306126
2.865213597e-06
8.44900634e-06
1.395188079e-05
1.944850374e-05
2.493448092e-05
3.040659229e-05
3.585777515e-05
4.127866054e-05
4.665690363e-05
5.19770131e-05
5.722013139e-05
6.236308459e-05
6.737858865e-05
7.223621967e-05
7.690274569e-05
8.134223896e-05
8.551688375e-05
8.93882732e-05
9.291854815e-05
9.607133409e-05
9.881286967e-05
0.0001011134755
0.000102949104
0.0001043026614
0.0001051650421
0.0001055360331
0.0001054252269
0.0001048529239
0.0001038508514
0.0001024624833
0.0001007427692
9.875710489e-05
9.657938419e-05
9.428898623e-05
9.196700869e-05
8.969191098e-05
8.753612514e-05
8.556445024e-05
8.383155864e-05
8.237723553e-05
8.121927459e-05
8.035146399e-05
7.97509264e-05
7.937642425e-05
7.917990095e-05
7.910769898e-05
7.910859647e-05
7.91419509e-05
7.917895633e-05
7.911192883e-05
-14.30887303
-28.28617542
-41.64286981
-54.16393242
-65.71579933
-76.23885889
-85.73158828
-94.23285938
-101.8062855
-108.5281286
-114.4788309
-119.7375649
-124.3790324
-128.4718082
-132.0776845
-135.2516229
-138.0420529
-140.4913466
-142.636365
-144.5090152
-146.1367818
-147.5432147
-148.7483665
-149.7691744
-150.6197897
-151.3118566
-151.8547432
-152.2557285
-152.5201479
-152.6515001
2.946186431e-06
8.689898747e-06
1.435686199e-05
2.002137603e-05
2.567936434e-05
3.132790977e-05
3.696018665e-05
4.256690809e-05
4.813542689e-05
5.364939092e-05
5.908859839e-05
6.442827132e-05
6.963938051e-05
7.468956533e-05
7.954339331e-05
8.416250245e-05
8.850653696e-05
9.253459327e-05
9.620645612e-05
9.948355027e-05
0.0001023300178
0.0001047141151
0.0001066097113
0.0001079975976
0.0001088665479
0.0001092142805
0.0001090484706
0.0001083878161
0.000107263021
0.0001057175041
0.0001038076329
0.0001016022066
9.918077581e-05
9.663019539e-05
9.40399181e-05
9.149553214e-05
8.907478067e-05
8.684875115e-05
8.488238571e-05
8.322755881e-05
8.1907033e-05
8.091157748e-05
8.021524521e-05
7.977207311e-05
7.95274467e-05
7.942281576e-05
7.940265233e-05
7.942434441e-05
7.945691306e-05
7.93964928e-05
-15.34773987
-30.25410345
-44.35100917
-57.38873977
-69.23858864
-79.87141403
-89.32741505
-97.68793835
-105.0538933
-111.5313018
-117.22269
-122.222608
-126.6157802
-130.4767902
-133.870576
-136.8532941
-139.4733014
-141.7721229
-143.7853422
-145.5433904
-147.0722301
-148.3939397
-149.5272078
-150.4877479
-151.288643
-151.9406304
-152.4523315
-152.830436
-153.0798423
-153.2037607
3.048001945e-06
8.995035517e-06
1.487078748e-05
2.074843845e-05
2.662447621e-05
3.249654386e-05
3.835815754e-05
4.419991781e-05
5.000851428e-05
5.576642817e-05
6.14518952e-05
6.703826926e-05
7.249434717e-05
7.778525132e-05
8.287273082e-05
8.771543724e-05
9.227000994e-05
9.649262633e-05
0.000100340281
0.0001037717256
0.0001067484954
0.0001092362382
0.0001112061523
0.0001126362602
0.0001135124666
0.0001138295588
0.0001135923188
0.0001128167905
0.0001115316318
0.000109779433
0.0001076178448
0.000105120098
0.0001023740744
9.947831683e-05
9.653585802e-05
9.364199904e-05
9.087860251e-05
8.832122752e-05
8.605187365e-05
8.414721629e-05
8.263323339e-05
8.149330075e-05
8.069159524e-05
8.017682939e-05
7.988707654e-05
7.975444729e-05
7.971679814e-05
7.972870563e-05
7.975862047e-05
7.970793318e-05
-16.82895477
-33.03149405
-48.1183307
-61.80143819
-73.97841292
-84.68080712
-94.01873513
-102.1376032
-109.1900669
-115.3205162
-120.6580422
-125.3144213
-129.384716
-132.9490236
-136.0745639
-138.817706
-141.2257667
-143.3385337
-145.1895239
-146.8070085
-148.214844
-149.4331427
-150.4788147
-151.3660045
-152.1064433
-152.7097303
-153.1835573
-153.5338832
-153.7650671
-153.8799638
3.17046751e-06
9.362891716e-06
1.54907522e-05
2.162558708e-05
2.776463898e-05
3.39061664e-05
4.004390544e-05
4.616814021e-05
5.226471118e-05
5.831476914e-05
6.429476733e-05
7.01758516e-05
7.592419324e-05
8.150190282e-05
8.686744706e-05
9.197608922e-05
9.67811063e-05
0.0001012354042
0.0001052928083
0.0001089089757
0.0001120423603
0.0001146554555
0.0001167161437
0.0001181988976
0.0001190858002
0.0001193675504
0.0001190446527
0.0001181288944
0.0001166451504
0.000114633563
0.0001121521134
0.0001092790749
0.0001061141661
0.0001027739061
9.93849743e-05
9.605634513e-05
9.286943622e-05
8.989318792e-05
8.723553361e-05
8.50346751e-05
8.330778585e-05
8.201983255e-05
8.11184279e-05
8.054134976e-05
8.022006414e-05
8.007109305e-05
8.002541539e-05
8.00332022e-05
8.006188478e-05
8.002231445e-05
-18.93753166
-36.92459238
-53.2893891
-67.72027955
-80.19283032
-90.85468128
-99.92913224
-107.6536917
-114.2482761
-119.9026773
-124.7745664
-128.9923459
-132.6596676
-135.8600548
-138.6609821
-141.1172329
-143.2735608
-145.166758
-146.8272491
-148.2803151
-149.5470353
-150.6450142
-151.5889466
-152.3910565
-153.0614406
-153.6083366
-154.0383313
-154.3565204
-154.5666281
-154.6710917
3.312411632e-06
9.789515936e-06
1.621000409e-05
2.264328627e-05
2.908733952e-05
3.554098335e-05
4.19980862e-05
4.844852957e-05
5.487721818e-05
6.126383836e-05
6.758283759e-05
7.380284893e-05
7.988707754e-05
8.579429687e-05
9.147941187e-05
9.689406337e-05
0.000101987952
0.0001067104861
0.0001110120559
0.000114844892
0.0001181639399
0.0001209279811
0.0001231008503
0.0001246525222
0.0001255600469
0.0001258085153
0.0001253922735
0.0001243165566
0.0001225997334
0.0001202764773
0.0001174023456
0.0001140595988
0.0001103635639
0.0001064565124
0.0001025126657
9.866433702e-05
9.49757854e-05
9.143791592e-05
8.830496551e-05
8.576787454e-05
8.383570997e-05
8.241359158e-05
8.145158837e-05
8.08137115e-05
8.048711453e-05
8.034360636e-05
8.030323515e-05
8.031557019e-05
8.034715012e-05
8.0321326e-05
-21.99749651
-42.43996031
-60.39436227
-75.5974718
-88.21796139
-98.61597183
-107.1894398
-114.2997765
-120.246692
-125.2673764
-129.5452283
-133.2207583
-136.4015859
-139.1705799
-141.5921128
-143.7167208
-145.5845253
-147.2277299
-148.6724428
-149.9400127
-151.0480143
-152.0109805
-152.8409508
-153.5478853
-154.1399784
-154.6238978
-155.0049657
-155.2872951
-155.47389
-155.5667159
3.471583085e-06
1.026805575e-05
1.701684488e-05
2.378470019e-05
3.057026658e-05
3.737290467e-05
4.418661547e-05
5.100087439e-05
5.779961575e-05
6.456097091e-05
7.125723675e-05
7.785436776e-05
8.431245496e-05
9.058682988e-05
9.662878075e-05
0.0001023863082
0.0001078055286
0.0001128323194
0.000117413537
0.000121497779
0.0001250361191
0.0001279830542
0.0001302975388
0.0001319439106
0.0001328927025
0.000133121524
0.0001326162254
0.0001313725389
0.000129398492
0.000126718198
0.0001233787493
0.0001194604591
0.0001150952916
0.0001104566679
0.0001058297127
0.0001013659361
9.723726067e-05
9.31441443e-05
8.903856982e-05
8.618895903e-05
8.411373996e-05
8.259154121e-05
8.141426352e-05
8.091195729e-05
8.066113229e-05
8.055056096e-05
8.053190325e-05
8.055860187e-05
8.05973199e-05
8.05871232e-05
-26.61337766
-50.44339627
-70.25063725
-86.05729637
-98.46558689
-108.201823
-115.9128994
-122.1093059
-127.1713651
-131.3749365
-134.9182433
-137.9439068
-140.5553736
-142.8286045
-144.8202089
-146.573055
-148.120135
-149.487241
-150.6948289
-151.7593301
-152.6940824
-153.5099983
-154.2160483
-154.8196147
-155.3267507
-155.7423728
-156.0704023
-156.313869
-156.4749866
-156.5552038
3.64456348e-06
1.078821306e-05
1.789365547e-05
2.502445446e-05
3.217991679e-05
3.935999118e-05
4.655887891e-05
5.37657057e-05
6.096346795e-05
6.812875305e-05
7.523171713e-05
8.223567679e-05
8.909770436e-05
9.576984884e-05
0.0001022000006
0.0001083327792
0.0001141109805
0.0001194771714
0.0001243747932
0.0001287487634
0.0001325460038
0.0001357161478
0.0001382123378
0.0001399919559
0.0001410173078
0.000141256425
0.0001406841301
0.0001392834385
0.0001370474164
0.0001339820588
0.0001301141199
0.0001255087955
0.0001202992786
0.0001146352605
0.0001092645931
0.0001040646188
9.948644299e-05
9.567882069e-05
8.883525171e-05
8.613419664e-05
8.403398403e-05
8.25641686e-05
8.139345469e-05
8.092428219e-05
8.070901905e-05
8.068185763e-05
8.070340611e-05
8.075105819e-05
8.080040733e-05
8.080770698e-05
-34.01346386
-62.4696167
-84.10750441
-99.91550321
-111.3852836
-119.8128539
-126.1510518
-131.0532086
-134.9545548
-138.142793
-140.8089359
-143.0812893
-145.0474372
-146.7682983
-148.2871091
-149.6352034
-150.8357697
-151.9063237
-152.860358
-153.7084552
-154.4590483
-155.1189456
-155.6936955
-156.1878425
-156.605107
-156.9485124
-157.220475
-157.422867
-157.5570594
-157.6239521
3.826826346e-06
1.133627723e-05
1.881699453e-05
2.632891713e-05
3.387207236e-05
4.144709368e-05
4.904850142e-05
5.666519391e-05
6.427936169e-05
7.186620603e-05
7.939394922e-05
8.682355071e-05
9.410943277e-05
0.0001012008199
0.000108042741
0.0001145770213
0.0001207437233
0.0001264826235
0.0001317341225
0.0001364396012
0.0001405416564
0.0001439844924
0.0001467144313
0.000148680452
0.0001498348143
0.0001501339002
0.0001495392604
0.0001480186095
0.0001455461349
0.0001421006122
0.0001376717688
0.0001322791444
0.0001260582516
0.0001188522857
0.0001127069075
0.00010794951
0.0001003603173
159.2358558
163.4454653
81.07256538
79.71378235
159.7692218
154.8970405
8.050491677e-05
8.080058345e-05
8.07708112e-05
8.080343788e-05
8.089345315e-05
8.095023232e-05
8.097314851e-05
-46.97166413
-81.31410986
-103.7942719
-118.1119435
-127.3472091
-133.5132791
-137.8252704
-140.9979503
-143.4508842
-145.4327795
-147.0934562
-148.5249184
-149.7848321
-150.91009
-151.9247765
-152.8449341
-153.6814738
-154.4419866
-155.1318879
-155.7551511
-156.3147797
-156.8131128
-157.2520209
-157.6330307
-157.9574025
-158.226177
-158.4402026
-158.6001498
-158.7065188
-158.759642
4.012963208e-06
1.189585001e-05
1.975890367e-05
2.765812358e-05
3.559435702e-05
4.356904701e-05
5.157719474e-05
5.960766554e-05
6.764208874e-05
7.565459508e-05
8.361188203e-05
9.147307504e-05
9.919059357e-05
0.0001067116071
0.0001139791571
0.0001209332106
0.0001275120293
0.0001336534401
0.0001392954522
0.0001443762633
0.0001488341016
0.0001526072192
0.0001556340836
0.0001578537781
0.0001592067375
0.0001596359041
0.0001590881232
0.0001575152093
0.0001548727501
0.0001511087624
0.0001461416871
0.0001398752735
0.0001329785793
0.0001258427812
0.0001129652233
34.84328859
22.98040543
86.54724298
100.423804
81.13089228
78.01323458
91.41646362
72.86840227
7.146584195
20.06557268
8.063531129e-05
8.0923546e-05
8.10005181e-05
8.104741121e-05
8.110179506e-05
-72.55983458
-112.0208951
-131.6435426
-141.3908062
-146.3783505
-149.0678068
-150.6388277
-151.6624692
-152.4182867
-153.0440227
-153.6072327
-154.1401412
-154.6569316
-155.1625058
-155.6570292
-156.1383425
-156.6032688
-157.0483285
-157.4701273
-157.8655565
-158.2318852
-158.5667869
-158.8683298
-159.1349451
-159.3653861
-159.5586838
-159.7141037
-159.8311078
-159.9093218
-159.9485101
4.197102131e-06
1.244920943e-05
2.06893181e-05
2.896927559e-05
3.729086739e-05
4.565647726e-05
5.40617749e-05
6.249584316e-05
7.09400872e-05
7.936801428e-05
8.774537806e-05
9.603020537e-05
0.0001041738123
0.0001121223715
0.0001198181268
0.0001272004533
0.000134207069
0.0001407749945
0.0001468407605
0.0001523399441
0.0001572065053
0.0001613723033
0.0001647669626
0.0001673182439
0.000168953129
0.0001695996772
0.0001691895991
0.00016766183
0.0001649653851
0.0001610346789
0.0001556895929
0.0001480420867
0.0001407560363
130.7486769
40.02820774
42.49153458
44.43197168
63.54890699
70.5716144
65.01396428
59.79179911
55.01499418
38.01343252
9.553053671
-0.7852347753
-8.742814283
80.80538344
8.106275012e-05
8.109366163e-05
8.114025303e-05
-131.2474628
-162.5661031
-169.3682113
-169.4294063
-167.7076021
-165.7407957
-163.9997943
-162.5948457
-161.515808
-160.7178333
-160.1513558
-159.7715317
-159.5403006
-159.4260302
-159.4025541
-159.4482043
-159.5450009
-159.6780064
-159.8348155
-160.0051461
-160.1805052
-160.3539114
-160.5196615
-160.6731325
-160.8106149
-160.9291727
-161.0265273
-161.1009642
-161.1512597
-161.1766272
4.373572662e-06
1.29793155e-05
2.157950336e-05
3.022168028e-05
3.890867648e-05
4.764392095e-05
5.642392819e-05
6.523826132e-05
7.40684794e-05
8.288798682e-05
9.166228441e-05
0.0001003491844
0.0001088999862
0.0001172611452
0.0001253755434
0.0001331834864
0.0001406236605
0.0001476336622
0.0001541496697
0.0001601053815
0.0001654307348
0.0001700508849
0.0001738857755
0.0001768506105
0.0001788574618
0.0001798180221
0.0001796484683
0.0001782809232
0.000175684574
0.0001718765755
0.0001669823844
0.0001575436486
130.9485314
96.01574938
60.77347593
50.66266501
48.70703909
52.64479796
53.29978115
48.56154998
41.1250019
30.83827986
14.61727828
-6.162568869
-24.01685408
-41.09080626
-54.98599431
-141.9297561
8.109811376e-05
219.7454389
-289.8644927
-237.6278549
-213.8338089
-199.2510254
-189.2818801
-182.1880078
-177.0247402
-173.2013475
-170.3323067
-168.1601914
-166.5088747
-165.2543828
-164.3067669
-163.5988233
-163.0790202
-162.7069921
-162.4506015
-162.2839631
-162.1860696
-162.1397992
-162.1311748
-162.1487933
-162.1833777
-162.2274177
-162.274881
-162.3209804
-162.3619866
-162.3950817
-162.4182462
-162.4301779
4.537713486e-06
1.347219518e-05
2.240609243e-05
3.138250967e-05
4.040536813e-05
4.947917146e-05
5.86013886e-05
6.776227413e-05
7.694388736e-05
8.612004386e-05
9.525670554e-05
0.0001043124085
0.0001132396069
0.0001219864286
0.0001304979557
0.0001387170814
0.000146585105
0.0001540417098
0.0001610239684
0.0001674645584
0.0001732897725
0.0001784179401
0.0001827587789
0.000186214085
0.0001886797589
0.0001900486453
0.0001902165622
0.0001891015636
0.0001866750937
0.0001826998591
0.0001769715389
0.0001808505885
40.8276137
61.59230237
56.38728104
50.6786096
47.08872057
45.02346323
41.42116058
34.80745072
25.30837655
12.59584283
-4.220032721
-24.80375578
-48.02880884
-76.61756471
-117.7289339
-193.1149456
278.1000791
475.4154649
-316.8977692
-284.2470284
-249.0881618
-224.4590283
-207.9809109
-196.7046452
-188.7098455
-182.8535363
-178.4519233
-175.081799
-172.4696215
-170.4304156
-168.8336239
-167.583544
-166.6077847
-165.8502215
-165.2665342
-164.8212648
-164.4857959
-164.2369072
-164.0557072
-163.9268202
-163.8377537
-163.7783991
-163.7406342
-163.7180073
-163.7054855
-163.69926
-163.6965969
-163.6957311
4.686654841e-06
1.391927079e-05
2.315501409e-05
3.243236203e-05
4.175625086e-05
5.113215798e-05
6.055848817e-05
7.002627705e-05
7.951831954e-05
8.900926041e-05
9.846615816e-05
0.0001078491506
0.0001171129736
0.000126208782
0.0001350853904
0.0001436899078
0.0001519678655
0.0001598625231
0.0001673130857
0.0001742520937
0.000180602679
0.0001862764944
0.0001911730393
0.0001951808045
0.00019817969
0.0002000426967
0.0002006398163
0.0001998633095
0.0001977148383
0.0001934893231
0.0001853905732
36.02998422
44.67039346
53.13856475
52.50473528
48.57577052
43.94576877
38.93917196
32.55394507
23.93871338
12.70520811
-1.543255222
-19.28949928
-40.80361594
-66.67706423
-99.62171338
-146.1972346
-222.0250797
-364.8769403
1020.714127
-468.8955986
-333.3743437
-273.8128012
-241.5160387
-221.478118
-207.939849
-198.2564971
-191.0510704
-185.5400975
-181.2455111
-177.8574532
-175.1640962
-173.0138367
-171.2940173
-169.9184322
-168.81966
-167.9441404
-167.2488633
-166.6990453
-166.2664356
-165.9280414
-165.6651466
-165.4625426
-165.3079197
-165.1913825
-165.105065
-165.0428267
-165.0000157
-164.973291
-164.9604935
4.819931486e-06
1.431917719e-05
2.382450916e-05
3.336945228e-05
4.295969834e-05
5.260141904e-05
6.229375654e-05
7.202843575e-05
8.178904161e-05
9.15512867e-05
0.0001012837831
0.0001109489687
0.0001205048032
0.0001299066315
0.0001391083311
0.0001480626478
0.0001567207597
0.0001650308024
0.0001729351931
0.0001803671256
0.0001872470993
0.0001934805462
0.0001989575195
0.0002035548928
0.0002071400376
0.0002095718027
0.0002106969537
0.0002103603815
0.0002087110915
0.0002021354416
0.0002096132126
25.54820834
48.68540733
53.78682686
51.91732348
47.17396674
41.17941007
34.23350846
25.91673176
15.68824675
3.116994551
-12.184576
-30.591097
-52.44414853
-78.25412318
-108.9949948
-145.4132168
-183.9125146
-197.1488563
833.1913485
-351.050916
-306.5419641
-271.272682
-246.3142328
-228.4757033
-215.32017
-205.3252625
-197.554195
-191.4119344
-186.5027494
-182.5506445
-179.3547456
-176.7636816
-174.6603351
-172.9523519
-171.5659376
-170.4416021
-169.5311071
-168.7951973
-168.2018654
-167.7249991
-167.3433105
-167.0394839
-166.7994925
-166.6120527
-166.4681884
-166.3608874
-166.2848337
-166.2362069
-166.2125369
4.939786006e-06
1.467861863e-05
2.442644899e-05
3.421130716e-05
4.403915403e-05
5.391637247e-05
6.384243681e-05
7.380945424e-05
8.380162746e-05
9.379573447e-05
0.000103762138
0.0001136659913
0.0001234691115
0.000133131859
0.0001426141455
0.0001518754027
0.000160873501
0.0001695624038
0.0001778885161
0.0001857862549
0.0001931739419
0.0001999514157
0.0002060006254
0.0002111898353
0.0002153808265
0.0002184360582
0.0002202186719
0.0002204605278
0.0002201761032
0.0002086856273
161.3623798
91.37819293
70.73619968
61.40601052
54.20376334
47.0233609
39.36439396
30.89871737
21.19122376
9.780543982
-3.740904302
-19.72095032
-38.44616856
-60.12776281
-84.90029049
-112.6909319
-142.5481301
-171.0629142
-191.0701863
-206.5983828
-266.9844021
-270.4699341
-258.4217529
-243.9925347
-230.7903243
-219.5399017
-210.1702295
-202.4285598
-196.0507481
-190.802966
-186.4876943
-182.9406308
-180.0258863
-177.6313739
-175.6647935
-174.0502343
-172.7253281
-171.6388773
-170.7488896
-170.0209545
-169.4269097
-168.9437488
-168.5527311
-168.2386592
-167.9892965
-167.7949007
-167.6478546
-167.5423802
-167.4743216
-167.4409909
5.051038643e-06
1.501190568e-05
2.498537384e-05
3.499317591e-05
4.504081929e-05
5.513422051e-05
6.527258335e-05
7.544787662e-05
8.564451091e-05
9.584005853e-05
0.0001060065221
0.0001161118339
0.0001261219043
0.0001360024947
0.0001457200466
0.0001552412372
0.0001645311911
0.0001735501964
0.0001822490219
0.0001905635642
0.0001984102195
0.0002056837546
0.0002122592726
0.0002179992634
0.000222765933
0.0002264373379
0.000228927569
0.0002302327276
0.0002310809704
0.000233705353
167.1204162
107.865981
81.47518666
66.89725059
56.46835649
47.35131723
38.35608486
28.8057403
18.1688986
5.983606033
-8.14020946
-24.51215687
-43.344869
-64.72044908
-88.5283501
-114.3203193
-141.0254654
-166.7208357
-189.4717467
-211.5808335
-239.8177468
-249.9316381
-247.9518857
-240.4438579
-231.1531912
-221.8789219
-213.3872381
-205.9391166
-199.5595881
-194.1707344
-189.6566048
-185.8942725
-182.7679417
-180.1745703
-178.0253108
-176.2449825
-174.7707101
-173.5503031
-172.5406546
-171.706285
-171.0180742
-170.452187
-169.9891804
-169.6132688
-169.3117289
-169.0744209
-168.8934098
-168.7626711
-168.6778687
-168.6361966
5.160479949e-06
1.533906664e-05
2.553512809e-05
3.576305058e-05
4.602696406e-05
5.633149587e-05
6.667482629e-05
7.704809034e-05
8.743528513e-05
9.781424772e-05
0.0001081581955
0.0001184375292
0.0001286220548
0.0001386828345
0.0001485928159
0.0001583259475
0.000167854653
0.0001771455689
0.000186153805
0.0001948166867
0.00020304869
0.0002107396375
0.0002177578422
0.0002239589678
0.0002292001249
0.000233356714
0.000236346453
0.0002381907224
0.000239280421
0.0002396182465
86.20353736
91.49012655
80.40131387
68.23944685
57.42109262
47.55746413
37.90288508
27.79925714
16.6950207
4.125187061
-10.29138704
-26.84260347
-45.70070673
-66.88082028
-90.17234815
-115.0365374
-140.5125853
-165.3232269
-188.5151441
-210.4354731
-230.7741319
-241.4870078
-243.0103203
-238.6778509
-231.4996965
-223.4353978
-215.5607315
-208.3811333
-202.077813
-196.6638449
-192.0737913
-188.2119931
-184.9771257
-182.2737504
-180.017
-178.1337854
-176.5623449
-175.2510956
-174.1572727
-173.2455953
-172.4870591
-171.8578941
-171.3386884
-170.9136641
-170.5700895
-170.2978064
-170.0888561
-169.9371897
-169.8384495
-169.7898135
5.275863993e-06
1.568277617e-05
2.611355577e-05
3.657402559e-05
4.706589147e-05
5.759160603e-05
6.814750047e-05
7.872307291e-05
8.930112932e-05
9.985902658e-05
0.0001103704896
0.0001208077268
0.0001311438312
0.0001413546054
0.0001514189919
0.0001613177522
0.0001710302057
0.0001805289909
0.0001897732923
0.0001987017592
0.0002072271487
0.0002152349676
0.0002225876584
0.0002291345447
0.0002347261669
0.0002392287128
0.0002425382498
0.0002446219597
0.000245722904
0.0002453438194
86.20334546
91.48967268
80.40049379
68.23812832
57.4191007
47.55455892
37.89873113
27.7933791
16.68673626
4.113504435
-10.3079268
-26.86616818
-45.73453964
-66.92978326
-90.24369171
-115.140905
-140.6651208
-165.5443538
-188.830143
-210.8717989
-231.3563194
-242.2319643
-243.9245647
-239.7575614
-232.7323842
-224.802285
-217.0392068
-209.9469287
-203.706749
-198.3331117
-193.7628006
-189.9028689
-186.6549113
-183.9264071
-181.6352629
-179.7109313
-178.0939133
-176.7345933
-175.5918838
-174.6319088
-173.8268225
-173.1537965
-172.5941732
-172.132771
-171.7573223
-171.4580241
-171.2271844
-171.058948
-170.9490917
-170.8948779
5.404692981e-06
1.606467256e-05
2.67562647e-05
3.747548801e-05
4.822056201e-05
5.899091562e-05
6.978022185e-05
8.057550849e-05
9.135752411e-05
0.0001021022461
0.0001127829768
0.0001233727853
0.0001338471032
0.0001441855419
0.0001543721482
0.0001643936836
0.0001742356658
0.000183876204
0.0001932782747
0.0002023819756
0.0002110991129
0.0002193125569
0.0002268817031
0.0002336537269
0.000239478878
0.0002442247979
0.0002477780397
0.0002500249767
0.0002509530512
0.0002453966177
167.1199086
107.8647235
81.47285858
66.89346987
56.46262054
47.34293694
38.34409835
28.7887884
18.14503699
5.950017057
-8.18766097
-24.57960781
-43.4415059
-64.86008758
-88.73173744
-114.618278
-141.4626485
-167.3589359
-190.3892887
-212.865277
-241.5474025
-252.1599897
-250.6984416
-243.6954801
-234.870034
-226.0021977
-217.8469351
-210.6606856
-204.4692102
-199.1991276
-194.7415136
-190.9818618
-187.8133431
-185.1418113
-182.886829
-180.9808871
-179.3679145
-178.0016182
-176.8439047
-175.8634833
-175.0346801
-174.3364548
-173.7515987
-173.2660886
-172.8685703
-172.5499502
-172.3030765
-172.1224933
-172.0042582
-171.9458119
5.553041185e-06
1.650183711e-05
2.749079733e-05
3.850506369e-05
4.953840126e-05
6.058649252e-05
7.163963622e-05
8.268159092e-05
9.36901523e-05
0.000104638926
0.0001154997087
0.000126245283
0.0001368522403
0.0001473028316
0.0001575851014
0.0001676908291
0.0001776109444
0.0001873285228
0.0001968102456
0.0002059981943
0.0002148046601
0.0002231125275
0.0002307825194
0.0002376673635
0.0002436337052
0.0002485924936
0.0002525060728
0.0002552917442
0.0002563976311
0.0002677928117
161.3618241
91.37645239
70.73274535
61.40026996
54.19497223
47.01046719
39.34593382
30.87263573
21.15460249
9.729183672
-3.813130788
-19.82310108
-38.59179394
-60.33732972
-85.20489927
-113.1378289
-143.2082686
-172.0394637
-192.5028126
-208.6526345
-269.8080446
-274.1621753
-263.0137621
-249.4559193
-237.0501164
-226.4895855
-217.6857064
-210.3797323
-204.3103501
-199.2527549
-195.0223525
-191.4698183
-188.4748932
-185.9407795
-183.7894764
-181.9580031
-180.395376
-179.0602036
-177.9187826
-176.9435939
-176.1121184
-175.4059056
-174.8098425
-174.3115805
-173.9010871
-173.5702976
-173.3128455
-173.1238579
-172.999803
-172.9383832
5.724635943e-06
1.700419183e-05
2.833250888e-05
3.968314195e-05
5.104461436e-05
6.240831813e-05
7.376059592e-05
8.508120612e-05
9.634410205e-05
0.0001075194787
0.00011857646
0.000129486289
0.0001402254351
0.0001507775436
0.0001611335248
0.0001712892378
0.0001812403675
0.0001909746839
0.000200462821
0.0002096497757
0.0002184500611
0.0002267490889
0.000234411894
0.0002412992437
0.0002472918301
0.0002523199019
0.0002563651029
0.0002593931343
0.0002614245312
0.0002674767897
0.0002524136254
25.5464477
48.68139871
53.7798903
51.90652885
47.15802305
41.15653098
34.2012149
25.87154996
15.625242
3.029050973
-12.30787639
-30.7652441
-52.69254372
-78.61270734
-109.5198772
-146.1931421
-185.0878481
-198.933775
830.5150524
-354.8728651
-311.6669302
-277.7385432
-254.064356
-237.3849712
-225.2203729
-216.026632
-208.8622546
-203.139779
-198.4792738
-194.6254164
-191.4002678
-188.6757426
-186.3570562
-184.372421
-182.6664076
-181.1955242
-179.9251854
-178.8275813
-177.8801489
-177.0644552
-176.3653707
-175.7704511
-175.2694706
-174.8540675
-174.5174752
-174.2543177
-174.060457
-173.9328796
-173.8696183
5.920363454e-06
1.757335054e-05
2.928302373e-05
4.101111727e-05
5.274035486e-05
6.445747154e-05
7.614439662e-05
8.777622053e-05
9.932217812e-05
0.0001107479993
0.0001220189453
0.0001331034621
0.0001439766462
0.0001546223827
0.0001650334813
0.0001752091911
0.0001851496278
0.0001948474052
0.0002042778588
0.000213390355
0.0002221037824
0.0002303087544
0.0002378775571
0.0002446817951
0.0002506173183
0.0002556325795
0.0002597423429
0.0002629962258
0.0002655147384
0.000268609114
0.0002745862773
36.02858748
44.66650982
53.13136163
52.49322749
48.55856258
43.92094926
38.90413979
32.50513703
23.87117973
12.61196515
-1.672215584
-19.46876694
-41.05489874
-67.03351481
-100.1358371
-146.9565821
-223.1850217
-366.7292624
1017.67006
-473.5662301
-339.8941627
-282.2091561
-251.6780289
-233.2050855
-220.9803572
-212.3382566
-205.9029459
-200.9073173
-196.8992337
-193.5998694
-190.8302003
-188.4708687
-186.4394054
-184.6768752
-183.139821
-181.7952734
-180.6175833
-179.5863641
-178.6851249
-177.9003453
-177.2208355
-176.6372868
-176.1419502
-175.7284044
-175.3913851
-175.1266605
-174.9309399
-174.8018072
-174.7376758
6.138359506e-06
1.82031235e-05
3.033141584e-05
4.24733651e-05
5.460556038e-05
6.670983883e-05
7.876332646e-05
9.073580464e-05
0.0001025909202
0.0001142888958
0.0001257899888
0.0001370586935
0.0001480676566
0.0001588001014
0.0001692501045
0.0001794200179
0.0001893145231
0.000198931723
0.000208252912
0.0002172337494
0.0002257999935
0.0002338502342
0.000241266638
0.0002479336597
0.0002537629907
0.0002587187679
0.000262832631
0.0002661855941
0.0002688832345
0.0002714199587
0.0002754103471
0.000261879659
40.82457556
61.58581691
56.37645468
50.66204801
47.06456098
44.98925502
41.37367553
34.74237141
25.21984199
12.47581214
-4.382713296
-25.02477378
-48.33062076
-77.03337986
-118.3123339
-193.970382
276.6805135
472.4415311
-322.1986314