/*--------------------------------*- C++ -*----------------------------------*\
  =========                 |
  \\      /  F ield         | OpenFOAM: The Open Source CFD Toolbox
   \\    /   O peration     | Website:  https://openfoam.org
    \\  /    A nd           | Version:  10
     \\/     M anipulation  |
\*---------------------------------------------------------------------------*/
FoamFile
{
    format      ascii;
    class       surfaceScalarField;
    location    "0.006";
    object      phi;
}
// * * * * * * * * * * * * * * * * * * * * * * * * * * * * * * * * * * * * * //

dimensions      [0 3 -1 0 0 0 0];

internalField   nonuniform List<scalar> 
38080
(
-5.673507582e-14
-9.881517764e-17
-5.65303804e-14
-2.09948016e-16
-5.619272732e-14
-3.591208e-16
-5.570860968e-14
-5.221208938e-16
-5.507476613e-14
-6.879918642e-16
-5.429180481e-14
-8.523415199e-16
-5.336265362e-14
-1.013810025e-15
-5.229054823e-14
-1.17181647e-15
-5.107944539e-14
-1.325818425e-15
-4.973425994e-14
-1.474871155e-15
-4.826036245e-14
-1.617827311e-15
-4.66641015e-14
-1.753832597e-15
-4.495302697e-14
-1.882206013e-15
-4.313528155e-14
-2.002050872e-15
-4.12194173e-14
-2.112289133e-15
-3.921488854e-14
-2.211946616e-15
-3.713235192e-14
-2.30018799e-15
-3.498346731e-14
-2.376074094e-15
-3.278071008e-14
-2.438366388e-15
-3.053758396e-14
-2.485558277e-15
-2.826905316e-14
-2.516032539e-15
-2.599180322e-14
-2.528181399e-15
-2.372417348e-14
-2.520449271e-15
-2.148587219e-14
-2.491374384e-15
-1.929762471e-14
-2.439708682e-15
-1.718077776e-14
-2.364623229e-15
-1.515677682e-14
-2.265943001e-15
-1.324644155e-14
-2.144343536e-15
-1.146903846e-14
-2.001480919e-15
-9.84120999e-15
-1.840069865e-15
-8.375836947e-15
-1.66393315e-15
-7.080910835e-15
-1.478017253e-15
-5.95851853e-15
-1.288320281e-15
-5.004295686e-15
-1.101453159e-15
-4.207591065e-15
-9.239376117e-16
-3.55276798e-15
-7.610593649e-16
-3.021035627e-15
-6.163272255e-16
-2.591448012e-15
-4.923011116e-16
-2.242446302e-15
-3.899928285e-16
-1.952612426e-15
-3.096099989e-16
-1.703064354e-15
-2.490342286e-16
-1.478796649e-15
-2.048104295e-16
-1.268581981e-15
-1.733832082e-16
-1.064025673e-15
-1.518032832e-16
-8.603613078e-16
-1.375192614e-16
-6.548406321e-16
-1.281610439e-16
-4.48014967e-16
-1.204097791e-16
-2.45983997e-16
-1.085719658e-16
-6.218376755e-17
-8.542294354e-17
1.295641309e-21
1.39236969e-27
1.273515376e-21
2.212593292e-23
1.233031353e-21
4.048415176e-23
1.17606955e-21
5.696206798e-23
1.106600001e-21
6.946993854e-23
1.028795554e-21
7.780495358e-23
9.465737866e-22
8.222238771e-23
8.632861838e-22
8.328833085e-23
7.815713097e-22
8.171570512e-23
7.033400859e-22
7.823215188e-23
6.298463905e-22
7.349471469e-23
5.618000122e-22
6.804748302e-23
4.9949048e-22
6.231071612e-23
4.429025408e-22
5.658919645e-23
3.918138852e-22
5.108998045e-23
3.458723488e-22
4.594292321e-23
3.046536306e-22
4.122016165e-23
2.677023625e-22
3.695276337e-23
2.34559891e-22
3.314401417e-23
2.047819714e-22
2.977950553e-23
1.779491061e-22
2.683449117e-23
1.536717027e-22
2.427906614e-23
1.31591709e-22
2.208169089e-23
1.113819351e-22
2.021150381e-23
9.27439217e-23
1.863977499e-23
7.54049442e-23
1.734077009e-23
5.911454478e-23
1.629222302e-23
4.36408383e-23
1.547556153e-23
2.876673435e-23
1.487599126e-23
1.428612906e-23
1.4482526e-23
1.428808499e-23
-5.92267667e-14
-2.449534207e-16
-5.899788082e-14
-4.794640379e-16
-5.863087213e-14
-7.977757609e-16
-5.811094888e-14
-1.142475055e-15
-5.743633542e-14
-1.491110504e-15
-5.660772596e-14
-1.836604153e-15
-5.562768098e-14
-2.176907168e-15
-5.449933874e-14
-2.510492378e-15
-5.322634775e-14
-2.835406167e-15
-5.181350619e-14
-3.149777403e-15
-5.026654838e-14
-3.45186493e-15
-4.859209174e-14
-3.739739233e-15
-4.679761849e-14
-4.011289763e-15
-4.489129344e-14
-4.264493928e-15
-4.288203986e-14
-4.497526224e-15
-4.077980087e-14
-4.708584528e-15
-3.859556993e-14
-4.895633777e-15
-3.634123175e-14
-5.056275223e-15
-3.402959594e-14
-5.187766066e-15
-3.167474257e-14
-5.287092259e-15
-2.929242045e-14
-5.351020336e-15
-2.690021661e-14
-5.376145877e-15
-2.451745079e-14
-5.359013323e-15
-2.216491762e-14
-5.296362921e-15
-1.986456747e-14
-5.185501227e-15
-1.763910161e-14
-5.024731186e-15
-1.551140191e-14
-4.813756654e-15
-1.3503766e-14
-4.553987201e-15
-1.163698994e-14
-4.248733623e-15
-9.92934645e-15
-3.903361089e-15
-8.395425332e-15
-3.525505911e-15
-7.044783355e-15
-3.125336273e-15
-5.880580723e-15
-2.715538485e-15
-4.898626404e-15
-2.310488848e-15
-4.087233671e-15
-1.924738677e-15
-3.428928598e-15
-1.569985607e-15
-2.902698089e-15
-1.253940172e-15
-2.485482541e-15
-9.819194743e-16
-2.153117e-15
-7.56794629e-16
-1.880974713e-15
-5.798347659e-16
-1.64778286e-15
-4.46065548e-16
-1.437302938e-15
-3.476568898e-16
-1.238211137e-15
-2.771982338e-16
-1.042442669e-15
-2.279853862e-16
-8.448867821e-16
-1.950131084e-16
-6.43122163e-16
-1.733196894e-16
-4.367001027e-16
-1.576412532e-16
-2.272548203e-16
-1.40625221e-16
-5.039080137e-17
-1.185340808e-16
1.316363215e-21
1.292797746e-27
1.293277634e-21
4.521174553e-23
1.249509269e-21
8.425300336e-23
1.188577421e-21
1.17894634e-22
1.114935016e-21
1.431132741e-22
1.033212988e-21
1.595281153e-22
9.476397297e-22
1.677969752e-22
8.617135581e-22
1.692160163e-22
7.780877564e-22
1.653431957e-22
6.986026487e-22
1.57719113e-22
6.243991589e-22
1.477002118e-22
5.560632453e-22
1.363855472e-22
4.937689604e-22
1.246072845e-22
4.374033248e-22
1.129572379e-22
3.86666828e-22
1.018289961e-22
3.411495872e-22
9.146278627e-23
3.003862323e-22
8.198623382e-23
2.638936133e-22
7.344818682e-23
2.311953823e-22
6.584512978e-23
2.018369571e-22
5.914088951e-23
1.753936811e-22
5.328079484e-23
1.514743274e-22
4.820151225e-23
1.297215219e-22
4.383765055e-23
1.098102063e-22
4.012603318e-23
9.144491681e-23
3.70083368e-23
7.435639713e-23
3.443262028e-23
5.82978833e-23
3.235412583e-23
4.304126803e-23
3.073562455e-23
2.837326908e-23
2.954749588e-23
1.409168806e-23
2.876766516e-23
2.838144886e-23
-6.122326674e-14
-4.215363859e-16
-6.095913843e-14
-7.781841594e-16
-6.055590705e-14
-1.261592909e-15
-5.999870794e-14
-1.784345156e-15
-5.928477307e-14
-2.313970031e-15
-5.841441212e-14
-2.840006211e-15
-5.738943903e-14
-3.358460951e-15
-5.621245815e-14
-3.866805014e-15
-5.488726906e-14
-4.362571107e-15
-5.341878164e-14
-4.842956269e-15
-5.181243795e-14
-5.304840692e-15
-5.007454577e-14
-5.745026205e-15
-4.821257837e-14
-6.160474196e-15
-4.623487113e-14
-6.548356508e-15
-4.415043573e-14
-6.905905867e-15
-4.196914828e-14
-7.230191796e-15
-3.97019074e-14
-7.517947681e-15
-3.736062809e-14
-7.765484595e-15
-3.495832496e-14
-7.968658569e-15
-3.250942218e-14
-8.122852228e-15
-3.003011775e-14
-8.222987974e-15
-2.753856949e-14
-8.263634123e-15
-2.505483602e-14
-8.239269741e-15
-2.260064148e-14
-8.144732785e-15
-2.019902373e-14
-7.975815292e-15
-1.787385632e-14
-7.729904024e-15
-1.564923168e-14
-7.4065251e-15
-1.35487583e-14
-7.007674204e-15
-1.159486157e-14
-6.537944831e-15
-9.808059831e-15
-6.004683734e-15
-8.205935611e-15
-5.418536916e-15
-6.801453291e-15
-4.794412475e-15
-5.600669786e-15
-4.152116413e-15
-4.60075654e-15
-3.515231532e-15
-3.788830232e-15
-2.908794522e-15
-3.144600008e-15
-2.352436436e-15
-2.644389733e-15
-1.857811529e-15
-2.261663403e-15
-1.4336769e-15
-1.968439026e-15
-1.08499607e-15
-1.73443521e-15
-8.160102664e-16
-1.534539311e-15
-6.171864458e-16
-1.351438074e-15
-4.735248623e-16
-1.173453454e-15
-3.722219013e-16
-9.940613574e-16
-3.024617181e-16
-8.089432453e-16
-2.562530419e-16
-6.171502432e-16
-2.26594485e-16
-4.19047988e-16
-2.058481822e-16
-2.177278547e-16
-1.844318377e-16
-4.831345333e-17
-1.578907966e-16
1.360264829e-21
1.193834518e-27
1.333629041e-21
7.184772648e-23
1.2831509e-21
1.347315636e-22
1.213796061e-21
1.872501022e-22
1.131349857e-21
2.255603024e-22
1.041481848e-21
2.49397136e-22
9.490587708e-22
2.602212442e-22
8.578407375e-22
2.604354125e-22
7.704636737e-22
2.527217849e-22
6.885837475e-22
2.396007184e-22
6.130844943e-22
2.232012885e-22
5.442849826e-22
2.051870175e-22
4.821189138e-22
1.86775438e-22
4.26275083e-22
1.688032708e-22
3.763006182e-22
1.518057718e-22
3.316730347e-22
1.360927816e-22
2.918481853e-22
1.218135888e-22
2.562905563e-22
1.090084082e-22
2.24491142e-22
9.764721708e-23
1.959768624e-22
8.765791747e-23
1.703143985e-22
7.894607767e-23
1.471104657e-22
7.140833055e-23
1.260099045e-22
6.494116086e-23
1.066925099e-22
5.94464382e-23
8.886920028e-23
5.483471666e-23
7.227790267e-23
5.102704703e-23
5.667938202e-23
4.795583437e-23
4.185313936e-23
4.556511419e-23
2.759343836e-23
4.381050421e-23
1.370547176e-23
4.265900335e-23
4.208874979e-23
-6.254937462e-14
-6.216646188e-16
-6.225926184e-14
-1.100682034e-15
-6.182728347e-14
-1.749856504e-15
-6.123944492e-14
-2.451805646e-15
-6.049291615e-14
-3.162970328e-15
-5.958794102e-14
-3.869310608e-15
-5.852666977e-14
-4.56584145e-15
-5.73119217e-14
-5.249409446e-15
-5.594734345e-14
-5.916633317e-15
-5.443748033e-14
-6.563580216e-15
-5.278744943e-14
-7.18602145e-15
-5.1003372e-14
-7.779780418e-15
-4.909258523e-14
-8.340905916e-15
-4.706321137e-14
-8.865616854e-15
-4.492393739e-14
-9.350119114e-15
-4.268427058e-14
-9.79040272e-15
-4.035479021e-14
-1.01820636e-14
-3.794719107e-14
-1.052015104e-14
-3.547437324e-14
-1.079903867e-14
-3.295075287e-14
-1.101234412e-14
-3.039265653e-14
-1.115294904e-14
-2.781855732e-14
-1.121319413e-14
-2.524904379e-14
-1.118531178e-14
-2.270654811e-14
-1.106210952e-14
-2.021488665e-14
-1.083783135e-14
-1.779866083e-14
-1.050900986e-14
-1.548263415e-14
-1.007503778e-14
-1.329130822e-14
-9.538244664e-15
-1.124887943e-14
-8.903585401e-15
-9.379362833e-15
-8.178608957e-15
-7.706002758e-15
-7.374746863e-15
-6.248857213e-15
-6.510156297e-15
-5.020375834e-15
-5.612406473e-15
-4.021158648e-15
-4.717185595e-15
-3.236176796e-15
-3.865504633e-15
-2.639009768e-15
-3.088814898e-15
-2.201774748e-15
-2.400698785e-15
-1.891771492e-15
-1.815303496e-15
-1.675487535e-15
-1.339084434e-15
-1.512094755e-15
-9.844153233e-16
-1.370204958e-15
-7.326425897e-16
-1.232579268e-15
-5.56948792e-16
-1.088037688e-15
-4.360805087e-16
-9.332217773e-16
-3.552185611e-16
-7.662623273e-16
-3.02302393e-16
-5.882751225e-16
-2.684226942e-16
-4.014085288e-16
-2.446415848e-16
-2.097297579e-16
-2.20383768e-16
-4.842763456e-17
-1.916336723e-16
1.430895215e-21
1.098610461e-27
1.397730244e-21
1.05012896e-22
1.335669438e-21
1.967928028e-22
1.252106261e-21
2.708139357e-22
1.155186691e-21
3.224807354e-22
1.052305957e-21
3.522789316e-22
9.492729391e-22
3.632555141e-22
8.501271099e-22
3.595826771e-22
7.573426072e-22
3.455078972e-22
6.721843177e-22
3.247607826e-22
5.950702232e-22
3.003173142e-22
5.25873403e-22
2.743859165e-22
4.641467467e-22
2.48504312e-22
4.09277584e-22
2.236747818e-22
3.60587628e-22
2.004981987e-22
3.173938419e-22
1.792891537e-22
2.790430047e-22
1.6016712e-22
2.449293651e-22
1.431248433e-22
2.145018424e-22
1.280776306e-22
1.872650226e-22
1.148977182e-22
1.627766513e-22
1.034375151e-22
1.40643296e-22
9.354483307e-23
1.205151819e-22
8.507249965e-23
1.020807884e-22
7.78841308e-23
8.506153066e-23
7.185734566e-23
6.920669001e-23
6.68853293e-23
5.428866184e-23
6.287737324e-23
4.009852938e-23
5.97588258e-23
2.64419375e-23
5.747074381e-23
1.31352182e-23
5.596944033e-23
5.522605662e-23
-6.350398229e-14
-8.365220645e-16
-6.319633822e-14
-1.439055625e-15
-6.27428076e-14
-2.256630812e-15
-6.21290315e-14
-3.140195617e-15
-6.135335702e-14
-4.034297451e-15
-6.041727399e-14
-4.92150257e-15
-5.932371977e-14
-5.796090126e-15
-5.80757694e-14
-6.654522733e-15
-5.6676957e-14
-7.492797526e-15
-5.513158359e-14
-8.306156931e-15
-5.344452855e-14
-9.089466754e-15
-5.162166041e-14
-9.83761815e-15
-4.966997166e-14
-1.054571009e-14
-4.759713028e-14
-1.120900239e-14
-4.541130296e-14
-1.182274139e-14
-4.312146508e-14
-1.238193326e-14
-4.073768895e-14
-1.288109257e-14
-3.827121099e-14
-1.331398661e-14
-3.573454616e-14
-1.367341481e-14
-3.314184332e-14
-1.395108112e-14
-3.050933462e-14
-1.413764153e-14
-2.785560695e-14
-1.422301828e-14
-2.520153538e-14
-1.419706244e-14
-2.256986604e-14
-1.405056589e-14
-1.998451812e-14
-1.377646735e-14
-1.746978087e-14
-1.337087253e-14
-1.504979603e-14
-1.283333985e-14
-1.274890974e-14
-1.216603329e-14
-1.059325989e-14
-1.137212134e-14
-8.612934537e-15
-1.045516473e-14
-6.842403428e-15
-9.422169785e-15
-5.31636589e-15
-8.29106859e-15
-4.06042113e-15
-7.098611018e-15
-3.082464419e-15
-5.898327074e-15
-2.361151533e-15
-4.760649951e-15
-1.857661634e-15
-3.734790694e-15
-1.535171541e-15
-2.832689238e-15
-1.34968655e-15
-2.076289132e-15
-1.261131194e-15
-1.468913044e-15
-1.209005381e-15
-1.045116988e-15
-1.153839913e-15
-7.635424204e-16
-1.080605844e-15
-5.780555348e-16
-9.820315778e-16
-4.548723837e-16
-8.588617063e-16
-3.752874825e-16
-7.147209167e-16
-3.24551864e-16
-5.540885704e-16
-2.920870522e-16
-3.816750826e-16
-2.686409092e-16
-2.017040551e-16
-2.436792558e-16
-4.865110162e-17
-2.16585625e-16
1.534781928e-21
1.007186633e-27
1.490636363e-21
1.491586718e-22
1.409690571e-21
2.777390594e-22
1.303773061e-21
3.76732153e-22
1.184984887e-21
4.412698412e-22
1.063282539e-21
4.739824279e-22
9.456001021e-22
4.809393085e-22
8.360523299e-22
4.691320072e-22
7.365954926e-22
4.449664844e-22
6.477408492e-22
4.136173592e-22
5.691388256e-22
3.789214457e-22
4.999917985e-22
3.435352177e-22
4.393172165e-22
3.091813263e-22
3.861010008e-22
2.7689358e-22
3.393785831e-22
2.472233417e-22
2.982718083e-22
2.203987896e-22
2.62000728e-22
1.964411906e-22
2.298821524e-22
1.75246532e-22
2.0132193e-22
1.566410834e-22
1.758048195e-22
1.404181707e-22
1.528839693e-22
1.263618138e-22
1.321709626e-22
1.142613903e-22
1.13326813e-22
1.039202974e-22
9.605400326e-23
9.516068237e-23
8.00895143e-23
8.78256665e-23
6.519873395e-23
8.178002822e-23
5.11701144e-23
7.690999504e-23
3.78104474e-23
7.312257597e-23
2.494063401e-23
7.034471894e-23
1.239183449e-23
6.852247812e-23
6.76203102e-23
-6.443005909e-14
-1.063781911e-15
-6.41063984e-14
-1.791309142e-15
-6.363157274e-14
-2.780521539e-15
-6.299141454e-14
-3.848852836e-15
-6.218567092e-14
-4.927863764e-15
-6.121717206e-14
-5.99667775e-15
-6.008964638e-14
-7.049228495e-15
-5.88064755e-14
-8.082059172e-15
-5.737121668e-14
-9.090945468e-15
-5.578804998e-14
-1.007056402e-14
-5.406164407e-14
-1.101498936e-14
-5.219754692e-14
-1.191822079e-14
-5.02023045e-14
-1.277445353e-14
-4.808304051e-14
-1.357807779e-14
-4.584732165e-14
-1.432349302e-14
-4.350348987e-14
-1.500481661e-14
-4.106096569e-14
-1.5615528e-14
-3.853034582e-14
-1.614809823e-14
-3.592357153e-14
-1.659367595e-14
-3.325434652e-14
-1.694192169e-14
-3.053863167e-14
-1.718110828e-14
-2.77948888e-14
-1.729862748e-14
-2.504384624e-14
-1.728201681e-14
-2.230772588e-14
-1.712047753e-14
-1.960906428e-14
-1.680653841e-14
-1.696958637e-14
-1.633707578e-14
-1.441010019e-14
-1.571257244e-14
-1.195273105e-14
-1.493388003e-14
-9.626176639e-15
-1.399755435e-14
-7.472244387e-15
-1.289396375e-14
-5.548139607e-15
-1.161462781e-14
-3.917906879e-15
-1.017057131e-14
-2.632095009e-15
-8.611983681e-15
-1.710525747e-15
-7.023035305e-15
-1.116270936e-15
-5.53082709e-15
-7.791644884e-16
-4.217960607e-15
-6.491845245e-16
-3.076624798e-15
-6.558506609e-16
-2.150107219e-15
-7.585079337e-16
-1.411992843e-15
-8.59279012e-16
-9.564545762e-16
-9.15355005e-16
-6.849772064e-16
-9.183515704e-16
-5.225630282e-16
-8.708869842e-16
-4.233219171e-16
-7.809014079e-16
-3.622390069e-16
-6.59891717e-16
-3.227674183e-16
-5.171143421e-16
-2.960557036e-16
-3.599765181e-16
-2.759097265e-16
-1.932846274e-16
-2.530322369e-16
-4.935113549e-17
-2.307639319e-16
1.682903449e-21
9.207725557e-28
1.620253932e-21
2.118084171e-22
1.508683665e-21
3.893098331e-22
1.368310749e-21
5.171058406e-22
1.217697473e-21
5.91884136e-22
1.07023942e-21
6.214417397e-22
9.337928009e-22
6.173874158e-22
8.11886807e-22
5.910397117e-22
7.052463674e-22
5.516088482e-22
6.130449357e-22
5.058209204e-22
5.337525976e-22
4.582161107e-22
4.656379071e-22
4.116524246e-22
4.070294702e-22
3.677924619e-22
3.564307625e-22
3.274951615e-22
3.12554031e-22
2.911031157e-22
2.743142092e-22
2.58641816e-22
2.408060693e-22
2.299526915e-22
2.112767038e-22
2.04779409e-22
1.850990174e-22
1.828224263e-22
1.617484625e-22
1.637725217e-22
1.407835458e-22
1.47330661e-22
1.218298697e-22
1.332191261e-22
1.04567198e-22
1.211871526e-22
8.87189874e-23
1.110131951e-22
7.404387602e-23
1.025051931e-22
6.032870077e-23
9.549972638e-23
4.738269533e-23
8.986062537e-23
3.503259037e-23
8.547740198e-23
2.31183932e-23
8.226372729e-23
1.148966657e-23
8.015609983e-23
7.911279134e-23
-6.553230418e-14
-1.304051882e-15
-6.519057096e-14
-2.158972684e-15
-6.469168117e-14
-3.32361356e-15
-6.402212982e-14
-4.580049063e-15
-6.318288929e-14
-5.846150596e-15
-6.217785904e-14
-7.097664128e-15
-6.101145609e-14
-8.328560877e-15
-5.96874189e-14
-9.535872038e-15
-5.820942879e-14
-1.071545381e-14
-5.658161706e-14
-1.186159661e-14
-5.480846753e-14
-1.296768786e-14
-5.289520871e-14
-1.402692412e-14
-5.084793375e-14
-1.503270956e-14
-4.867321375e-14
-1.597869414e-14
-4.637798592e-14
-1.685855899e-14
-4.396989099e-14
-1.766563585e-14
-4.145759048e-14
-1.839243043e-14
-3.885090985e-14
-1.903012597e-14
-3.616107465e-14
-1.95681717e-14
-3.34011862e-14
-1.999409376e-14
-3.058670707e-14
-2.029371448e-14
-2.77355413e-14
-2.045200393e-14
-2.486737734e-14
-2.045472606e-14
-2.200218036e-14
-2.029076579e-14
-1.915813061e-14
-1.995438564e-14
-1.635006863e-14
-1.944578116e-14
-1.359057468e-14
-1.87676988e-14
-1.089638924e-14
-1.791681633e-14
-8.301291668e-15
-1.6872593e-14
-5.871171974e-15
-1.559319108e-14
-3.708710598e-15
-1.403321164e-14
-1.934150185e-15
-1.218592085e-14
-6.371874458e-16
-1.013175351e-14
1.440203037e-16
-8.006028813e-15
4.866273748e-16
-6.05084766e-15
5.382373409e-16
-4.419391666e-15
3.556168809e-16
-3.013290212e-15
7.603953127e-17
-1.956648326e-15
-2.780904156e-16
-1.108425652e-15
-5.531271991e-16
-6.959899001e-16
-7.234781334e-16
-4.954923467e-16
-7.986472873e-16
-3.963213469e-16
-7.894045554e-16
-3.525926569e-16
-7.184056192e-16
-3.28556199e-16
-6.121669381e-16
-3.041494427e-16
-4.83285563e-16
-2.843502648e-16
-3.390773397e-16
-2.673884873e-16
-1.842697983e-16
-2.480189725e-16
-5.001345899e-17
-2.34153785e-16
1.893761169e-21
8.391948601e-28
1.798706077e-21
3.068637586e-22
1.636479673e-21
5.515367935e-22
1.443089044e-21
7.104973173e-22
1.247255077e-21
7.877192253e-22
1.066185096e-21
8.02513107e-22
9.074450967e-22
7.761290558e-22
7.724559436e-22
7.260307524e-22
6.594584397e-22
6.646084782e-22
5.65440126e-22
5.998415912e-22
4.871889115e-22
5.364699058e-22
4.217779444e-22
4.770661892e-22
3.667321698e-22
4.228412449e-22
3.200387167e-22
3.741918278e-22
2.800927313e-22
3.310525139e-22
2.456250847e-22
2.931130698e-22
2.156327868e-22
2.599487859e-22
1.893197211e-22
2.310964557e-22
1.660491128e-22
2.060971948e-22
1.453066018e-22
1.845193672e-22
1.266720109e-22
1.65969755e-22
1.097978962e-22
1.500979066e-22
9.439324045e-23
1.365966306e-22
8.021098548e-23
1.252004215e-22
6.703840926e-23
1.156828824e-22
5.468959975e-23
1.078537821e-22
4.299947194e-23
1.015561234e-22
3.181891568e-23
9.666344241e-23
2.101076573e-23
9.307746467e-23
1.044635807e-23
9.072618658e-23
8.956241946e-23
-6.688328019e-14
-1.558436144e-15
-6.652162044e-14
-2.543676662e-15
-6.59962288e-14
-3.888061526e-15
-6.529419893e-14
-5.336437025e-15
-6.441755611e-14
-6.792432852e-15
-6.337113796e-14
-8.228517173e-15
-6.21600403e-14
-9.638996172e-15
-6.078842966e-14
-1.102168408e-14
-5.926019945e-14
-1.237273913e-14
-5.757950653e-14
-1.368622018e-14
-5.575071257e-14
-1.495495394e-14
-5.377878252e-14
-1.617146388e-14
-5.166940825e-14
-1.732850376e-14
-4.942863726e-14
-1.841913475e-14
-4.706277416e-14
-1.943646292e-14
-4.457871645e-14
-2.037315792e-14
-4.198429038e-14
-2.122084088e-14
-3.92884482e-14
-2.196944959e-14
-3.650156949e-14
-2.260673082e-14
-3.363595496e-14
-2.311807328e-14
-3.070618635e-14
-2.348698422e-14
-2.772879336e-14
-2.369657124e-14
-2.472072922e-14
-2.373225742e-14
-2.169651046e-14
-2.358539294e-14
-1.866469967e-14
-2.325619646e-14
-1.562600192e-14
-2.275273385e-14
-1.257728433e-14
-2.208161207e-14
-9.526640508e-15
-2.122828775e-14
-6.520927761e-15
-2.013342424e-14
-3.675958592e-15
-1.868614416e-14
-1.18251817e-15
-1.676588651e-14
7.423494525e-16
-1.433926494e-14
1.9579568e-15
-1.156248509e-14
2.411307158e-15
-8.657940277e-15
2.265924364e-15
-6.083827164e-15
1.858314909e-15
-4.165766182e-15
1.217257787e-15
-2.497279151e-15
5.391595455e-16
-1.370236918e-15
-3.624240586e-17
-5.899075777e-16
-4.425768105e-16
-3.071803962e-16
-6.810213591e-16
-2.38154467e-16
-8.144931192e-16
-2.111668072e-16
-7.722875309e-16
-3.134655987e-16
-6.894900352e-16
-3.038717463e-16
-5.835175442e-16
-2.819724844e-16
-4.586633921e-16
-2.657347525e-16
-3.224447691e-16
-2.489110027e-16
-1.763927593e-16
-2.318802696e-16
-5.083073005e-17
-2.268101463e-16
2.199757684e-21
7.627554007e-28
2.044246387e-21
4.623753311e-22
1.795440196e-21
8.003435961e-22
1.520310952e-21
9.856274973e-22
1.262048959e-21
1.045982457e-21
1.039801045e-21
1.02476255e-21
8.573467933e-22
9.585851179e-22
7.110336693e-22
8.723459607e-22
5.946915527e-22
7.80952945e-22
5.020684406e-22
6.924673125e-22
4.277851949e-22
6.10756014e-22
3.675530001e-22
5.373014944e-22
3.180827527e-22
4.723148462e-22
2.768994028e-22
4.153787708e-22
2.421532873e-22
3.658024579e-22
2.124608008e-22
3.228096168e-22
1.867804566e-22
2.856334189e-22
1.643204602e-22
2.535609651e-22
1.444712852e-22
2.259511031e-22
1.267569897e-22
2.022386111e-22
1.108001624e-22
1.819317402e-22
9.629662025e-23
1.646068096e-22
8.299703138e-23
1.499017752e-22
7.069344637e-23
1.37509748e-22
5.920930893e-23
1.271729365e-22
4.839194103e-23
1.186772296e-22
3.810679099e-23
1.118475025e-22
2.823293794e-23
1.065436587e-22
1.865948764e-23
1.026573957e-22
9.282590955e-24
1.001096633e-22
9.884878829e-23
-6.84878193e-14
-1.827554676e-15
-6.810519531e-14
-2.946339801e-15
-6.755159378e-14
-4.475433863e-15
-6.681444153e-14
-6.120460813e-15
-6.589670828e-14
-7.770161374e-15
-6.480417869e-14
-9.393721818e-15
-6.3542699e-14
-1.098599018e-14
-6.211696059e-14
-1.254579402e-14
-6.053116847e-14
-1.406978666e-14
-5.878960275e-14
-1.555195305e-14
-5.689660218e-14
-1.698470309e-14
-5.485696456e-14
-1.8360034e-14
-5.267605995e-14
-1.967020538e-14
-5.035946893e-14
-2.090785173e-14
-4.791288662e-14
-2.206566686e-14
-4.534245533e-14
-2.313580894e-14
-4.265512076e-14
-2.410913813e-14
-3.985888105e-14
-2.497443457e-14
-3.696312812e-14
-2.571781578e-14
-3.39790749e-14
-2.632269295e-14
-3.091978428e-14
-2.67707621e-14
-2.779900832e-14
-2.704460825e-14
-2.462810823e-14
-2.713221173e-14
-2.141094134e-14
-2.703253401e-14
-1.813823303e-14
-2.675899586e-14
-1.478598924e-14
-2.633445482e-14
-1.132606849e-14
-2.576974853e-14
-7.757805727e-15
-2.50229323e-14
-4.161608075e-15
-2.395362947e-14
-7.536327278e-16
-2.231514178e-14
2.116907913e-15
-1.985357536e-14
4.077761133e-15
-1.651191991e-14
4.95947332e-15
-1.264843935e-14
4.71693046e-15
-8.609075853e-15
3.715902091e-15
-5.261450016e-15
2.56193405e-15
-3.17011879e-15
1.176979023e-15
-1.244670125e-15
9.044978994e-17
-3.842639323e-16
-5.480877058e-16
4.818178879e-18
-8.561785384e-16
-6.19029701e-18
-1.055069324e-15
-1.670481091e-17
-1.190700547e-15
-2.644841483e-17
-1.003385282e-15
-4.286754857e-16
-7.196709306e-16
-4.903887056e-16
-5.767301015e-16
-2.889536881e-16
-4.448600472e-16
-2.491012007e-16
-3.114866389e-16
-2.240198882e-16
-1.701050605e-16
-2.080516915e-16
-5.162019879e-17
-2.10010305e-16
2.661345827e-21
6.912278091e-28
2.383001868e-21
7.407195928e-22
1.980724097e-21
1.202622043e-21
1.580665912e-21
1.385686717e-21
1.240829052e-21
1.385820684e-21
9.736236122e-22
1.291969675e-21
7.711076361e-22
1.161103089e-21
6.196406537e-22
1.023815239e-21
5.062059201e-22
8.943902693e-22
4.203571421e-22
7.783189707e-22
3.543306754e-22
6.76785646e-22
3.025663519e-22
5.890692654e-22
2.611466773e-22
5.137382479e-22
2.273230899e-22
4.492063631e-22
1.991604462e-22
3.939693826e-22
1.752846028e-22
3.466900157e-22
1.547080028e-22
3.06214847e-22
1.367105982e-22
2.71563468e-22
1.207587932e-22
2.419082734e-22
1.064501188e-22
2.165529133e-22
9.347523176e-23
1.949125117e-22
8.159158585e-23
1.764965888e-22
7.060500422e-23
1.608947294e-22
6.035663486e-23
1.477647175e-22
5.071360209e-23
1.368227828e-22
4.156221384e-23
1.278356282e-22
3.280294724e-23
1.20613957e-22
2.434667492e-23
1.150072751e-22
1.611175521e-23
1.108997916e-22
8.021715979e-24
1.082072846e-22
1.068748313e-22
-7.033135037e-14
-2.111879735e-15
-6.99269247e-14
-3.367817364e-15
-6.934353735e-14
-5.087403935e-15
-6.856870294e-14
-6.93487803e-15
-6.760628579e-14
-8.783241422e-15
-6.64630832e-14
-1.05982645e-14
-6.514579287e-14
-1.237547965e-14
-6.365974255e-14
-1.411493021e-14
-6.200956548e-14
-1.581395006e-14
-6.019978738e-14
-1.746660934e-14
-5.823485165e-14
-1.90650476e-14
-5.611951237e-14
-2.060088433e-14
-5.385892725e-14
-2.206604432e-14
-5.145829778e-14
-2.345290716e-14
-4.892276925e-14
-2.475393716e-14
-4.625775807e-14
-2.596095904e-14
-4.346932275e-14
-2.706423483e-14
-4.056444863e-14
-2.805153595e-14
-3.75513757e-14
-2.890754316e-14
-3.443981657e-14
-2.961411457e-14
-3.124033451e-14
-3.015222234e-14
-2.796174482e-14
-3.050645899e-14
-2.460551489e-14
-3.067241286e-14
-2.115728283e-14
-3.066507432e-14
-1.757867212e-14
-3.052204181e-14
-1.380798969e-14
-3.02896599e-14
-9.784162469e-15
-2.997833775e-14
-5.507647104e-15
-2.948479036e-14
-1.136012391e-15
-2.851165467e-14
2.925971433e-15
-2.656498408e-14
6.058629218e-15
-2.317565266e-14
7.663392267e-15
-1.830712843e-14
7.704814914e-15
-1.288002667e-14
6.045566686e-15
-7.136375726e-15
3.748572126e-15
-3.142906951e-15
1.800949334e-15
-1.386374286e-15
4.282815298e-16
2.233450075e-17
9.319449131e-28
2.277147446e-20
2.921728386e-28
1.496041354e-20
2.236552851e-28
-8.107247889e-21
1.547134549e-28
-7.971369796e-21
-9.593301569e-29
1.532803726e-20
-3.942465711e-16
2.320534192e-20
-7.673820847e-16
-4.923798451e-17
-6.561155749e-16
-2.811538315e-16
-4.48772525e-16
-3.308628434e-16
-3.03812615e-16
-2.05039396e-16
-1.644303543e-16
-1.790953002e-16
-5.248954944e-17
-1.843471558e-16
3.401354469e-21
6.248800954e-28
2.845615294e-21
1.296459103e-21
2.163788771e-21
1.884449315e-21
1.58079988e-21
1.968676751e-21
1.146978044e-21
1.819644025e-21
8.427570253e-22
1.596192546e-21
6.338197865e-22
1.370042516e-21
4.90215684e-22
1.167421859e-21
3.901346215e-22
9.944741739e-22
3.188238174e-22
8.496329381e-22
2.666142947e-22
7.289986513e-22
2.272353344e-22
6.284520271e-22
1.966147924e-22
5.443629102e-22
1.720861094e-22
4.737394862e-22
1.518810793e-22
4.141791735e-22
1.348094342e-22
3.637667433e-22
1.200566238e-22
3.209730619e-22
1.070554036e-22
2.845704141e-22
9.540343309e-23
2.535662888e-22
8.48097172e-23
2.271529893e-22
7.505930887e-23
2.046695892e-22
6.598972651e-23
1.855731406e-22
5.747499229e-23
1.694167216e-22
4.941470014e-23
1.558325412e-22
4.172644748e-23
1.445188222e-22
3.434054267e-23
1.352295529e-22
2.71962653e-23
1.27766462e-22
2.023919142e-23
1.219727551e-22
1.341924825e-23
1.177282872e-22
6.689262639e-24
1.149459336e-22
1.135689968e-22
-7.240168632e-14
-2.41214924e-15
-7.197430886e-14
-3.809442402e-15
-7.135921049e-14
-5.726296958e-15
-7.054382622e-14
-7.783188823e-15
-6.953291002e-14
-9.836340177e-15
-6.833435743e-14
-1.184787008e-14
-6.695582908e-14
-1.381409693e-14
-6.54034133e-14
-1.57364662e-14
-6.368230631e-14
-1.761316825e-14
-6.179742494e-14
-1.943850725e-14
-5.975347081e-14
-2.120448752e-14
-5.755530774e-14
-2.290248978e-14
-5.520802653e-14
-2.452425988e-14
-5.271657958e-14
-2.606210135e-14
-5.008567486e-14
-2.750844441e-14
-4.732008584e-14
-2.885498667e-14
-4.442502648e-14
-3.009159799e-14
-4.140643904e-14
-3.120527111e-14
-3.827122132e-14
-3.217961521e-14
-3.502702526e-14
-3.299574353e-14
-3.168053962e-14
-3.363581709e-14
-2.823264942e-14
-3.409059216e-14
-2.46691371e-14
-3.437112283e-14
-2.094770306e-14
-3.452079363e-14
-1.698753854e-14
-3.46160018e-14
-1.267681573e-14
-3.473441906e-14
-7.921590585e-15
-3.486890295e-14
-2.754741624e-15
-3.47896737e-14
2.508263668e-15
-3.39170248e-14
7.137093511e-15
-3.134216573e-14
1.006528179e-14
-2.62595723e-14
1.035226114e-14
-1.875815737e-14
8.505300994e-15
-1.120526676e-14
4.78084587e-15
-3.589816475e-15
1.464407809e-15
3.375493831e-17
8.35717912e-28
3.905780318e-21
-1.592357913e-20
-9.688126185e-21
-4.209694741e-22
7.268864808e-21
8.237277906e-21
6.302166181e-21
1.358627396e-22
-5.832690115e-24
-8.005561793e-21
1.700547772e-22
4.871996339e-22
6.83527588e-21
1.548968694e-20
8.202854693e-21
-1.102706083e-28
-8.104746049e-21
-2.344047046e-16
5.383528334e-21
-4.236722452e-16
-5.853360546e-17
-3.250876244e-16
-1.621884498e-16
-1.594496269e-16
-2.055748139e-16
-5.333546438e-17
-1.487547016e-16
4.697174516e-21
5.616942157e-28
3.434244585e-21
2.559389404e-21
2.248016206e-21
3.070678528e-21
1.431767154e-21
2.784927068e-21
9.235265642e-22
2.32788627e-21
6.166069956e-22
1.903114142e-21
4.311991298e-22
1.555452771e-21
3.172679987e-22
1.281355736e-21
2.452933858e-22
1.066451887e-21
1.981895306e-22
8.967402467e-22
1.660676705e-22
7.611243194e-22
1.431462175e-22
6.513776453e-22
1.259913684e-22
5.615222853e-22
1.125257967e-22
4.872099487e-22
1.014686491e-22
4.252415808e-22
9.201575268e-23
3.73225272e-22
8.365397609e-23
3.293408459e-22
7.605127827e-23
2.921794959e-22
6.89901336e-23
2.60634193e-22
6.232631705e-23
2.338239375e-22
5.596286027e-23
2.11040543e-22
4.983330756e-23
1.917105456e-22
4.389081187e-23
1.753674106e-22
3.810098108e-23
1.616308875e-22
3.243717824e-23
1.501914393e-22
2.687745173e-23
1.407983645e-22
2.140255846e-23
1.332506781e-22
1.599472349e-23
1.273901133e-22
1.063689465e-23
1.230957979e-22
5.312325846e-24
1.202802973e-22
1.188868103e-22
-7.469454897e-14
-2.729544636e-15
-7.424255491e-14
-4.273196804e-15
-7.359326136e-14
-6.395250823e-15
-7.273391222e-14
-8.669781838e-15
-7.167018494e-14
-1.093503736e-14
-7.041117868e-14
-1.314917729e-14
-6.89656445e-14
-1.530937882e-14
-6.734057425e-14
-1.741865915e-14
-6.554188418e-14
-1.947622366e-14
-6.357505383e-14
-2.147673906e-14
-6.144522711e-14
-2.341218892e-14
-5.915756832e-14
-2.527383742e-14
-5.671729307e-14
-2.705339783e-14
-5.412929251e-14
-2.874327468e-14
-5.139801138e-14
-3.033606975e-14
-4.85277303e-14