/*--------------------------------*- C++ -*----------------------------------*\
  =========                 |
  \\      /  F ield         | OpenFOAM: The Open Source CFD Toolbox
   \\    /   O peration     | Website:  https://openfoam.org
    \\  /    A nd           | Version:  6
     \\/     M anipulation  |
\*---------------------------------------------------------------------------*/
FoamFile
{
    version     2.0;
    format      ascii;
    class       volScalarField;
    location    "0.0058";
    object      Num_divU;
}
// * * * * * * * * * * * * * * * * * * * * * * * * * * * * * * * * * * * * * //

dimensions      [0 0 -1 0 0 0 0];

internalField   nonuniform List<scalar> 
9600
(
3.397145098e-08
7.251361789e-08
7.264599486e-08
7.516119437e-08
7.555010064e-08
7.587403593e-08
7.608108749e-08
7.615572971e-08
7.606052375e-08
7.580039299e-08
7.535092029e-08
7.47247366e-08
7.389993356e-08
7.288793047e-08
7.166152473e-08
7.02255919e-08
6.85455767e-08
6.662160325e-08
6.441555241e-08
6.19266141e-08
5.911424891e-08
5.597403903e-08
5.245814502e-08
4.855576537e-08
4.421491558e-08
3.942707293e-08
3.414654572e-08
2.837435164e-08
2.207033679e-08
1.523681478e-08
7.829654387e-09
-1.515933742e-10
-8.749318201e-09
-1.795295224e-08
-2.778863009e-08
-3.822664316e-08
-4.927916365e-08
-6.090704116e-08
-7.311820052e-08
-8.586707488e-08
-9.915069363e-08
-1.129022843e-07
-1.270912017e-07
-1.41615983e-07
-1.564118005e-07
-1.713439787e-07
-1.86321994e-07
-2.011918435e-07
-2.158539152e-07
-2.301506133e-07
-2.43984487e-07
-2.571971103e-07
-2.696875983e-07
-2.812869636e-07
-2.918858075e-07
-3.013129137e-07
-3.09476139e-07
-3.162393964e-07
-3.215630937e-07
-3.253637822e-07
-3.276477934e-07
-3.283606589e-07
-3.275330075e-07
-3.251385587e-07
-3.212587766e-07
-3.159377268e-07
-3.093423636e-07
-3.015937346e-07
-2.92919451e-07
-2.834775768e-07
-2.73528098e-07
-2.632709168e-07
-2.530381344e-07
-2.431282644e-07
-2.339915975e-07
-2.260401975e-07
-2.198235568e-07
-2.158311718e-07
-2.146828383e-07
-2.169447742e-07
-2.233385223e-07
-2.345599472e-07
-2.514839435e-07
-2.749643024e-07
-3.06019041e-07
-3.456120816e-07
-3.948317239e-07
-4.546772884e-07
-5.262508311e-07
-6.105605576e-07
-7.087193989e-07
-8.21748543e-07
-9.507611726e-07
-1.096756281e-06
-1.260790729e-06
-1.443777967e-06
-1.646661638e-06
-1.870223907e-06
-2.115254489e-06
-2.382364649e-06
-2.672154139e-06
-2.985053714e-06
-3.321501841e-06
-3.681802682e-06
-4.066254211e-06
-4.474950255e-06
-4.907842529e-06
-5.364564604e-06
-5.844575205e-06
-6.347087649e-06
-6.871218528e-06
-7.415894853e-06
-7.979895985e-06
-8.561721837e-06
-9.159236142e-06
-9.769195069e-06
-1.039077442e-05
-1.10450671e-05
-1.219511339e-05
-6.461888685e-06
3.34025681e-08
7.14190646e-08
7.268528146e-08
7.505988798e-08
7.555939563e-08
7.590568326e-08
7.616261308e-08
7.624398566e-08
7.619455142e-08
7.593999773e-08
7.553785808e-08
7.491882661e-08
7.414417163e-08
7.31411078e-08
7.196758066e-08
7.054235193e-08
6.89182712e-08
6.70071016e-08
6.486051263e-08
6.238623519e-08
5.963546118e-08
5.650906416e-08
5.305363386e-08
4.916143313e-08
4.487809233e-08
4.009545592e-08
3.486771043e-08
2.909177687e-08
2.282858326e-08
1.597251194e-08
8.583488894e-09
5.512806777e-10
-8.058460095e-09
-1.734804592e-08
-2.723371805e-08
-3.780445652e-08
-4.896121017e-08
-6.078820088e-08
-7.317765142e-08
-8.620885471e-08
-9.975634084e-08
-1.138801026e-07
-1.284220588e-07
-1.434123177e-07
-1.586556785e-07
-1.741546499e-07
-1.89683912e-07
-2.052292779e-07
-2.20547933e-07
-2.35621578e-07
-2.501983535e-07
-2.642585061e-07
-2.775369141e-07
-2.900059754e-07
-3.013855787e-07
-3.11651403e-07
-3.205344429e-07
-3.28049312e-07
-3.339698052e-07
-3.383646405e-07
-3.410441684e-07
-3.421121463e-07
-3.414015608e-07
-3.390580767e-07
-3.349687425e-07
-3.293636047e-07
-3.222157342e-07
-3.13843051e-07
-3.042801381e-07
-2.938959746e-07
-2.827647234e-07
-2.713143307e-07
-2.596972698e-07
-2.484485022e-07
-2.378333031e-07
-2.284962418e-07
-2.207903674e-07
-2.154327641e-07
-2.128416221e-07
-2.138102108e-07
-2.188560171e-07
-2.288952451e-07
-2.445874416e-07
-2.669888083e-07
-2.968874796e-07
-3.354354996e-07
-3.834912709e-07
-4.42244229e-07
-5.125842322e-07
-5.957200454e-07
-6.925732202e-07
-8.043704888e-07
-9.320494993e-07
-1.076814528e-06
-1.23956278e-06
-1.421412275e-06
-1.623163576e-06
-1.845797596e-06
-2.08997038e-06
-2.356472699e-06
-2.645772168e-06
-2.958452583e-06
-3.29482392e-06
-3.655322088e-06
-4.040125595e-06
-4.449440489e-06
-4.883103152e-06
-5.340836956e-06
-5.822002441e-06
-6.325901562e-06
-6.851593571e-06
-7.398098614e-06
-7.964244364e-06
-8.54868279e-06
-9.149676657e-06
-9.764513657e-06
-1.03950147e-05
-1.106358472e-05
-1.228502131e-05
-6.534314584e-06
3.328955886e-08
7.117401654e-08
7.243676463e-08
7.4933191e-08
7.547413962e-08
7.58846427e-08
7.614529539e-08
7.627048849e-08
7.621341436e-08
7.599796581e-08
7.558468734e-08
7.500330594e-08
7.421495293e-08
7.32479926e-08
7.205736937e-08
7.066562114e-08
6.902049956e-08
6.714036046e-08
6.496838955e-08
6.25211836e-08
5.973714807e-08
5.662866979e-08
5.312641207e-08
4.923857535e-08
4.489252574e-08
4.009945013e-08
3.479043513e-08
2.898260931e-08
2.260811459e-08
1.568419866e-08
8.139528043e-09
-7.678917259e-12
-8.824930933e-09
-1.828235716e-08
-2.843567561e-08
-3.924127377e-08
-5.074682931e-08
-6.289995373e-08
-7.574191468e-08
-8.920615751e-08
-1.033162749e-07
-1.17978302e-07
-1.331873523e-07
-1.488160832e-07
-1.64830507e-07
-1.810723705e-07
-1.974832724e-07
-2.138800247e-07
-2.301867198e-07
-2.462023387e-07
-2.618397546e-07
-2.768831515e-07
-2.912341954e-07
-3.046616049e-07
-3.170602638e-07
-3.281978004e-07
-3.379877049e-07
-3.462269005e-07
-3.528728381e-07
-3.577625956e-07
-3.608930468e-07
-3.621306894e-07
-3.61509429e-07
-3.58942193e-07
-3.545349263e-07
-3.482863342e-07
-3.403990519e-07
-3.309563247e-07
-3.202335259e-07
-3.083698825e-07
-2.957002279e-07
-2.824337441e-07
-2.689985365e-07
-2.557095013e-07
-2.431042386e-07
-2.315928027e-07
-2.217919332e-07
-2.141776129e-07
-2.094348223e-07
-2.0812196e-07
-2.110272961e-07
-2.188306499e-07
-2.324481064e-07
-2.526838627e-07
-2.805608918e-07
-3.169729617e-07
-3.630094391e-07
-4.196193109e-07
-4.879348963e-07
-5.689490741e-07
-6.638294807e-07
-7.736009778e-07
-8.994387125e-07
-1.0423564e-06
-1.203482263e-06
-1.383762779e-06
-1.584225322e-06
-1.805697094e-06
-2.049045455e-06
-2.314914416e-06
-2.603954984e-06
-2.916608303e-06
-3.253341932e-06
-3.6144607e-06
-4.000280866e-06
-4.410888907e-06
-4.846233666e-06
-5.305929873e-06
-5.78943465e-06
-6.295983027e-06
-6.824745518e-06
-7.374754804e-06
-7.945004781e-06
-8.534368084e-06
-9.141495807e-06
-9.76462921e-06
-1.040660934e-05
-1.109268734e-05
-1.234345081e-05
-6.574855056e-06
3.321136626e-08
7.09781844e-08
7.22660746e-08
7.478528607e-08
7.537773947e-08
7.580453489e-08
7.609969506e-08
7.622584368e-08
7.619355209e-08
7.597185559e-08
7.557879218e-08
7.49863249e-08
7.421372343e-08
7.322962524e-08
7.204850314e-08
7.063215009e-08
6.898944072e-08
6.707651508e-08
6.489884142e-08
6.24077052e-08
5.960423128e-08
5.643308885e-08
5.289050172e-08
4.891611266e-08
4.450576804e-08
3.959995883e-08
3.419786163e-08
2.824090432e-08
2.172903076e-08
1.460117524e-08
6.857394764e-09
-1.561349775e-09
-1.064757146e-08
-2.045189542e-08
-3.095605401e-08
-4.220346292e-08
-5.416819993e-08
-6.688697347e-08
-8.032081434e-08
-9.448907634e-08
-1.093266932e-07
-1.248251757e-07
-1.40888068e-07
-1.57478939e-07
-1.744723728e-07
-1.918062643e-07
-2.093266163e-07
-2.269448317e-07
-2.444782701e-07
-2.618141078e-07
-2.787453914e-07
-2.95140806e-07
-3.107748601e-07
-3.255047025e-07
-3.390967032e-07
-3.514130538e-07
-3.622340867e-07
-3.714502183e-07
-3.788733634e-07
-3.844302323e-07
-3.879648687e-07
-3.894417453e-07
-3.887492823e-07
-3.859166668e-07
-3.80913076e-07
-3.738648594e-07
-3.648375232e-07
-3.540484326e-07
-3.416395765e-07
-3.27901345e-07
-3.130507345e-07
-2.974685763e-07
-2.814736278e-07
-2.655545851e-07
-2.501284201e-07
-2.357671944e-07
-2.229558891e-07
-2.12331764e-07
-2.044542422e-07
-2.000525293e-07
-1.997942611e-07
-2.045235986e-07
-2.150209691e-07
-2.322318042e-07
-2.570279411e-07
-2.904352778e-07
-3.334026883e-07
-3.870261787e-07
-4.523222418e-07
-5.30443218e-07
-6.22453421e-07
-7.295323548e-07
-8.527557822e-07
-9.932870019e-07
-1.152167897e-06
-1.330498383e-06
-1.529236093e-06
-1.749358042e-06
-1.991665593e-06
-2.256932239e-06
-2.545737025e-06
-2.858627353e-06
-3.195998984e-06
-3.558247703e-06
-3.945622997e-06
-4.358286035e-06
-4.796119812e-06
-5.258797046e-06
-5.745726131e-06
-6.256212446e-06
-6.789430996e-06
-7.34452459e-06
-7.920596395e-06
-8.516726248e-06
-9.131972231e-06
-9.764825517e-06
-1.04193902e-05
-1.111966704e-05
-1.23915827e-05
-6.604505651e-06
3.316250023e-08
7.086256371e-08
7.211924519e-08
7.465147061e-08
7.525157101e-08
7.570119854e-08
7.599895517e-08
7.614024526e-08
7.610262261e-08
7.588965078e-08
7.548455472e-08
7.489450982e-08
7.410219354e-08
7.311195854e-08
7.190088622e-08
7.046766044e-08
6.87833653e-08
6.68417104e-08
6.460834805e-08
6.207179489e-08
5.919110622e-08
5.594886172e-08
5.229912874e-08
4.822210395e-08
4.367089756e-08
3.862680278e-08
3.30423457e-08
2.689763272e-08
2.014241492e-08
1.275592172e-08
4.689232243e-09
-4.072944076e-09
-1.357228982e-08
-2.381601728e-08
-3.484072654e-08
-4.664906959e-08
-5.927313785e-08
-7.270538104e-08
-8.696110343e-08
-1.020071985e-07
-1.17829364e-07
-1.343627065e-07
-1.515643114e-07
-1.693424697e-07
-1.87630048e-07
-2.063080652e-07
-2.25279463e-07
-2.443899258e-07
-2.635060506e-07
-2.824367461e-07
-3.010170892e-07
-3.190288675e-07
-3.362881344e-07
-3.5256331e-07
-3.676664163e-07
-3.8136875e-07
-3.934951031e-07
-4.038346793e-07
-4.122364119e-07
-4.185159554e-07
-4.225564105e-07
-4.242170334e-07
-4.234424141e-07
-4.201703347e-07
-4.144408439e-07
-4.062931325e-07
-3.958686939e-07
-3.832998568e-07
-3.688171401e-07
-3.526417241e-07
-3.351026532e-07
-3.165287982e-07
-2.973620279e-07
-2.780358648e-07
-2.590808183e-07
-2.410008249e-07
-2.243887291e-07
-2.098162016e-07
-1.979599943e-07
-1.894921656e-07
-1.85197395e-07
-1.858514159e-07
-1.923297046e-07
-2.054887233e-07
-2.262810561e-07
-2.556467087e-07
-2.946287785e-07
-3.442617373e-07
-4.056743977e-07
-4.799720949e-07
-5.683309485e-07
-6.718841498e-07
-7.918146336e-07
-9.292488422e-07
-1.085343719e-06
-1.261180921e-06
-1.457838651e-06
-1.676280585e-06
-1.917414063e-06
-2.181988023e-06
-2.470663837e-06
-2.78395505e-06
-3.122323444e-06
-3.486129506e-06
-3.875675431e-06
-4.291083634e-06
-4.732273258e-06
-5.198878367e-06
-5.690343154e-06
-6.205964758e-06
-6.744984229e-06
-7.306594966e-06
-7.890010813e-06
-8.494473859e-06
-9.119145108e-06
-9.762997563e-06
-1.042946526e-05
-1.114448593e-05
-1.243131612e-05
-6.629673524e-06
3.31260108e-08
7.07585707e-08
7.199216615e-08
7.450946185e-08
7.511273497e-08
7.55600722e-08
7.58622059e-08
7.599753444e-08
7.595878005e-08
7.57330415e-08
7.53197652e-08
7.470863219e-08
7.38984778e-08
7.28753411e-08
7.163333741e-08
7.015287214e-08
6.842258856e-08
6.641694934e-08
6.411864277e-08
6.149477961e-08
5.852107931e-08
5.515841955e-08
5.137886915e-08
4.714171205e-08
4.241868336e-08
3.716768508e-08
3.135756179e-08
2.494160875e-08
1.788512186e-08
1.01405931e-08
1.677285055e-09
-7.545298123e-09
-1.755060347e-08
-2.837451415e-08
-4.003865338e-08
-5.25781355e-08
-6.600929747e-08
-8.035422602e-08
-9.560580386e-08
-1.117554672e-07
-1.287619455e-07
-1.465851232e-07
-1.651563218e-07
-1.844121164e-07
-2.042594373e-07
-2.24606121e-07
-2.453222322e-07
-2.662720643e-07
-2.872780924e-07
-3.081590168e-07
-3.286969938e-07
-3.486795652e-07
-3.678663377e-07
-3.860316965e-07
-4.029288781e-07
-4.183326653e-07
-4.320005887e-07
-4.437164506e-07
-4.53251249e-07
-4.604117884e-07
-4.650056253e-07
-4.66896098e-07
-4.659675842e-07
-4.621788157e-07
-4.555194888e-07
-4.460567981e-07
-4.33885066e-07
-4.19173688e-07
-4.021200914e-07
-3.830053727e-07
-3.621482718e-07
-3.399570599e-07
-3.168709739e-07
-2.93400859e-07
-2.700651965e-07
-2.474375217e-07
-2.26097324e-07
-2.066922282e-07
-1.898937695e-07
-1.764526146e-07
-1.671395962e-07
-1.627888272e-07
-1.642386704e-07
-1.723850073e-07
-1.881394476e-07
-2.124917525e-07
-2.464662714e-07
-2.911689958e-07
-3.477267051e-07
-4.173203985e-07
-5.011241306e-07
-6.003434602e-07
-7.161662566e-07
-8.498033365e-07
-1.002437667e-06
-1.17524994e-06
-1.369353515e-06
-1.585803561e-06
-1.825528546e-06
-2.089345043e-06
-2.377917768e-06
-2.691809031e-06
-3.03147418e-06
-3.39730855e-06
-3.789598222e-06
-4.208483057e-06
-4.653855762e-06
-5.125359113e-06
-5.622420863e-06
-6.144364617e-06
-6.690451527e-06
-7.259931069e-06
-7.852085758e-06
-8.466205457e-06
-9.101642511e-06
-9.757057295e-06
-1.043672306e-05
-1.116403112e-05
-1.246754129e-05
-6.653030172e-06
3.308698567e-08
7.065704406e-08
7.185992214e-08
7.435898065e-08
7.494941578e-08
7.538987427e-08
7.568130195e-08
7.580769375e-08
7.57534948e-08
7.551252183e-08
7.507559365e-08
7.443922371e-08
7.359328505e-08
7.253095022e-08
7.123723942e-08
6.970019589e-08
6.789924539e-08
6.581614525e-08
6.342245784e-08
6.069200733e-08
5.758834863e-08
5.40795346e-08
5.012646608e-08
4.569616062e-08
4.074825331e-08
3.524656196e-08
2.914461498e-08
2.239962568e-08
1.496075628e-08
6.78595135e-09
-2.17032894e-09
-1.194272616e-08
-2.257132247e-08
-3.408928845e-08
-4.653847973e-08
-5.995214901e-08
-7.436525105e-08
-8.979284696e-08
-1.062411825e-07
-1.236900412e-07
-1.421106151e-07
-1.61452101e-07
-1.81661014e-07
-2.026636741e-07
-2.243804535e-07
-2.467024875e-07
-2.695046579e-07
-2.926242154e-07
-3.15879381e-07
-3.390535519e-07
-3.619191374e-07
-3.842233943e-07
-4.057128063e-07
-4.261167432e-07
-4.451701409e-07
-4.62594072e-07
-4.781179826e-07
-4.914607659e-07
-5.023583476e-07
-5.105511589e-07
-5.158194845e-07
-5.179735446e-07
-5.168870931e-07
-5.124790987e-07
-5.047387517e-07
-4.936994244e-07
-4.794633627e-07
-4.621789255e-07
-4.420728684e-07
-4.194306198e-07
-3.946261071e-07
-3.680900361e-07
-3.403247963e-07
-3.118619705e-07
-2.832780154e-07
-2.551650203e-07
-2.281643293e-07
-2.029491738e-07
-1.802563393e-07
-1.608545335e-07
-1.455597465e-07
-1.351974488e-07
-1.306265691e-07
-1.327233095e-07
-1.424250839e-07
-1.607216403e-07
-1.886866224e-07
-2.274451691e-07
-2.781815295e-07
-3.420963694e-07
-4.204192377e-07
-5.143817351e-07
-6.252425721e-07
-7.542643026e-07
-9.027248306e-07
-1.071873678e-06
-1.262919457e-06
-1.476973585e-06
-1.715036175e-06
-1.97795668e-06
-2.266448498e-06
-2.581090023e-06
-2.922367713e-06
-3.290676085e-06
-3.686310244e-06
-4.10938978e-06
-4.559799145e-06
-5.03715645e-06
-5.540886773e-06
-6.070309905e-06
-6.624707174e-06
-7.203353815e-06
-7.805556316e-06
-8.430672473e-06
-9.07792852e-06
-9.746327805e-06
-1.043892672e-05
-1.118197369e-05
-1.250045233e-05
-6.675852498e-06
3.304481349e-08
7.054415982e-08
7.171696939e-08
7.418922561e-08
7.476190741e-08
7.518478574e-08
7.54599229e-08
7.55667098e-08
7.549156515e-08
7.522396312e-08
7.475698715e-08
7.408233748e-08
7.319238893e-08
7.207539014e-08
7.071923919e-08
6.910727919e-08
6.722145631e-08
6.503773679e-08
6.252955436e-08
5.96633302e-08
5.640458125e-08
5.271469141e-08
4.855668629e-08
4.38908907e-08
3.867772827e-08
3.28714508e-08
2.642425786e-08
1.928241791e-08
1.139422456e-08
2.707441811e-09
-6.823834494e-09
-1.724570344e-08
-2.860147019e-08
-4.093924916e-08
-5.43059198e-08
-6.874890031e-08
-8.430413597e-08
-1.009957821e-07
-1.188265974e-07
-1.377839672e-07
-1.578367856e-07
-1.789447733e-07
-2.01053523e-07
-2.240983263e-07
-2.479921532e-07
-2.726257318e-07
-2.978558192e-07
-3.235096083e-07
-3.49379609e-07
-3.752338294e-07
-4.008139564e-07
-4.25846574e-07
-4.500401568e-07
-4.730946161e-07
-4.946956867e-07
-5.145230465e-07
-5.322445458e-07
-5.475281783e-07
-5.600435032e-07
-5.694829047e-07
-5.755694231e-07
-5.780789892e-07
-5.768415983e-07
-5.717535986e-07
-5.627690772e-07
-5.499086228e-07
-5.332527156e-07
-5.129579427e-07
-4.892560962e-07
-4.624709264e-07
-4.330081252e-07
-4.013553389e-07
-3.680555983e-07
-3.336989689e-07
-2.989031874e-07
-2.643228393e-07
-2.306478269e-07
-1.986182944e-07
-1.690135212e-07
-1.426486931e-07
-1.203509679e-07
-1.029594941e-07
-9.132293001e-08
-8.632787818e-08
-8.891616684e-08
-1.001118409e-07
-1.210150021e-07
-1.527969692e-07
-1.966705154e-07
-2.538812496e-07
-3.256930876e-07
-4.134011618e-07
-5.183300045e-07
-6.418406138e-07
-7.853051366e-07
-9.500827166e-07
-1.137469606e-06
-1.348665066e-06
-1.584730494e-06
-1.846576463e-06
-2.134956247e-06
-2.45048787e-06
-2.793673871e-06
-3.164918443e-06
-3.564501445e-06
-3.992523023e-06
-4.448833969e-06
-4.933027146e-06
-5.444502657e-06
-5.982571265e-06
-6.546511253e-06
-7.135601929e-06
-7.749169807e-06
-8.386526487e-06
-9.047030303e-06
-9.7291716e-06
-1.043711384e-05
-1.119417545e-05
-1.25324302e-05
-6.698617237e-06
3.299620501e-08
7.041701777e-08
7.155545082e-08
7.399717486e-08
7.454510849e-08
7.49446959e-08
7.519529936e-08
7.527608605e-08
7.517121805e-08
7.486989414e-08
7.436269368e-08
7.364127363e-08
7.269503814e-08
7.151282958e-08
7.007968506e-08
6.837944305e-08
6.639067183e-08
6.408875398e-08
6.144253851e-08
5.841759715e-08
5.497503024e-08
5.107557013e-08
4.667812311e-08
4.174104984e-08
3.621841499e-08
3.006044801e-08
2.32110672e-08
1.56123545e-08
7.204831548e-09
-2.067338162e-09
-1.225890423e-08
-2.342243078e-08
-3.561383026e-08
-4.889030458e-08
-6.33115035e-08
-7.893078939e-08
-9.579188433e-08
-1.139200867e-07
-1.333240382e-07
-1.539936302e-07
-1.7590732e-07
-1.990303589e-07
-2.233175645e-07
-2.487040995e-07
-2.751021641e-07
-3.023904448e-07
-3.304139458e-07
-3.589800752e-07
-3.878646677e-07
-4.168118582e-07
-4.455412192e-07
-4.737468553e-07
-5.011033833e-07
-5.272637514e-07
-5.518645491e-07
-5.745234737e-07
-5.948467184e-07
-6.124320711e-07
-6.268854103e-07
-6.378330543e-07
-6.449435846e-07
-6.479376988e-07
-6.466016866e-07
-6.407861109e-07
-6.304122337e-07
-6.154693939e-07
-5.960269849e-07
-5.722389236e-07
-5.443597297e-07
-5.127448053e-07
-4.778515206e-07
-4.402197432e-07
-4.004553532e-07
-3.592076793e-07
-3.171645231e-07
-2.750497519e-07
-2.336314271e-07
-1.937169106e-07
-1.561447306e-07
-1.217621775e-07
-9.141317017e-08
-6.593298921e-08
-4.616942084e-08
-3.30092034e-08
-2.741361104e-08
-3.043008483e-08
-4.319439753e-08
-6.690613347e-08
-1.028130438e-07
-1.521941045e-07
-2.163683344e-07
-2.967016161e-07
-3.946208184e-07
-5.116016226e-07
-6.491449951e-07
-8.087286348e-07
-9.917608115e-07
-1.199532748e-06
-1.433189786e-06
-1.693711039e-06
-1.981909888e-06
-2.298444612e-06
-2.643839667e-06
-3.018494074e-06
-3.42266331e-06
-3.85640555e-06
-4.319525913e-06
-4.81157061e-06
-5.3319028e-06
-5.879802979e-06
-6.45452965e-06
-7.055353242e-06
-7.681577614e-06
-8.332557829e-06
-9.007460181e-06
-9.705220437e-06
-1.042856928e-05
-1.120484072e-05
-1.256155411e-05
-6.721496826e-06
3.294003874e-08
7.027121677e-08
7.13722116e-08
7.377818512e-08
7.429694272e-08
7.466702291e-08
7.488714778e-08
7.493484764e-08
7.479330657e-08
7.444999529e-08
7.389440654e-08
7.311614174e-08
7.210392318e-08
7.08444656e-08
6.932258721e-08
6.751930469e-08
6.54122115e-08
6.297313364e-08
6.016881014e-08
5.696133387e-08
5.330992058e-08
4.917209513e-08
4.450419735e-08
3.925953064e-08
3.338711629e-08
2.682985567e-08
1.952610732e-08
1.141085511e-08
2.419605153e-09
-7.51112607e-09
-1.844355012e-08
-3.044184413e-08
-4.357317768e-08
-5.790801871e-08
-7.351521946e-08
-9.04569441e-08
-1.087808733e-07
-1.285181671e-07
-1.49682069e-07
-1.722726308e-07
-1.96277813e-07
-2.216751709e-07
-2.484254709e-07
-2.764667309e-07
-3.057044011e-07
-3.360073644e-07
-3.672047517e-07
-3.990888454e-07
-4.31416376e-07
-4.639119597e-07
-4.962678083e-07
-5.281452753e-07
-5.591744392e-07
-5.889566996e-07
-6.170654443e-07
-6.430504371e-07
-6.664421367e-07
-6.867629971e-07
-7.035414802e-07
-7.163319905e-07
-7.247318575e-07
-7.283973756e-07
-7.270511714e-07
-7.20489371e-07
-7.085841731e-07
-6.912928907e-07
-6.68666533e-07
-6.408644996e-07
-6.081641625e-07
-5.709653811e-07
-5.297816375e-07
-4.852206401e-07
-4.379609473e-07
-3.887330367e-07
-3.383123495e-07
-2.875180345e-07
-2.372113125e-07
-1.882827084e-07
-1.416299064e-07
-9.813350214e-08
-5.864430192e-08
-2.399267777e-08
4.982195069e-09
2.739090616e-08
4.226139945e-08
4.852446352e-08
4.50245541e-08
3.053890761e-08
3.796525507e-09
-3.652334301e-08
-9.18040743e-08
-1.635126417e-07
-2.532035817e-07
-3.625018284e-07
-4.930580441e-07
-6.464928096e-07
-8.24340477e-07
-1.028007059e-06
-1.258740361e-06
-1.517612377e-06
-1.805511891e-06
-2.123147382e-06
-2.471060119e-06
-2.849631401e-06
-3.25907054e-06
-3.69937149e-06
-4.170268651e-06
-4.671240841e-06
-5.201589798e-06
-5.760545936e-06
-6.347329204e-06
-6.961180036e-06
-7.60140674e-06
-8.267302504e-06
-8.958219519e-06
-9.672525732e-06
-1.041446118e-05
-1.120802024e-05
-1.258942812e-05
-6.744245372e-06
3.287500596e-08
7.010471015e-08
7.116432364e-08
7.353021823e-08
7.401488421e-08
7.435042482e-08
7.453427905e-08
7.454277189e-08
7.435771273e-08
7.396510568e-08
7.335288459e-08
7.25090524e-08
7.142076453e-08
7.007377903e-08
6.845077372e-08
6.653158901e-08
6.429066863e-08
6.169731837e-08
5.871509245e-08
5.530353738e-08
5.141919716e-08
4.701676655e-08
4.20483571e-08
3.646224856e-08
3.020065036e-08
2.319996904e-08
1.539139034e-08
6.704191275e-09
-2.933104809e-09
-1.359146785e-08
-2.534389471e-08
-3.826681892e-08
-5.24411545e-08
-6.794955589e-08
-8.487139443e-08
-1.032754716e-07
-1.232159637e-07
-1.44730135e-07
-1.678416501e-07
-1.925628386e-07
-2.18896889e-07
-2.468332058e-07
-2.763405841e-07
-3.073566201e-07
-3.397809475e-07
-3.734711614e-07
-4.082442674e-07
-4.438782438e-07
-4.801144788e-07
-5.166562272e-07
-5.531672361e-07
-5.892690331e-07
-6.245416997e-07
-6.585246749e-07
-6.907208133e-07
-7.206003717e-07
-7.476096766e-07
-7.711829782e-07
-7.907607596e-07
-8.058089079e-07
-8.158389052e-07
-8.204218525e-07
-8.192010543e-07
-8.118996961e-07
-7.983317798e-07
-7.784132497e-07
-7.521774569e-07
-7.197902483e-07
-6.815603341e-07
-6.379407724e-07
-5.895139846e-07
-5.369699036e-07
-4.810783171e-07
-4.226737332e-07
-3.626450874e-07
-3.019321486e-07
-2.415102237e-07
-1.823651254e-07
-1.254588975e-07
-7.170300469e-08
-2.19520817e-08
2.297535969e-08
6.225364462e-08
9.500208865e-08
1.202491082e-07
1.369231292e-07
1.438634143e-07
1.398406192e-07
1.235632171e-07
9.366468452e-08
4.867485142e-08
-1.300183746e-08
-9.308410615e-08
-1.93376687e-07
-3.157089861e-07
-4.618663771e-07
-6.335350759e-07
-8.322629309e-07
-1.059433798e-06
-1.316243353e-06
-1.603677773e-06
-1.922503272e-06
-2.273268792e-06
-2.656317555e-06
-3.071783433e-06
-3.519565525e-06
-3.999295826e-06
-4.510353704e-06
-5.051950105e-06
-5.623237945e-06
-6.223377464e-06
-6.851578926e-06
-7.507122671e-06
-8.189380321e-06
-8.897526602e-06
-9.630561129e-06
-1.03911119e-05
-1.120837443e-05
-1.261273652e-05
-6.766497454e-06
3.280013455e-08
6.991473262e-08
7.092934675e-08
7.325070737e-08
7.369722058e-08
7.399353066e-08
7.413590286e-08
7.409954641e-08
7.38647166e-08
7.341584945e-08
7.273929634e-08
7.182140383e-08
7.064816878e-08
6.920328335e-08
6.746849481e-08
6.542052237e-08
6.303160929e-08
6.026768342e-08
5.708958976e-08
5.345387111e-08
4.931449313e-08
4.462266447e-08
3.932584681e-08
3.336601187e-08
2.667853455e-08
1.919242559e-08
1.083249681e-08
1.521164617e-09
-8.820306687e-09
-2.027290175e-08
-3.292137156e-08
-4.685634247e-08
-6.217275347e-08
-7.896578576e-08
-9.732426346e-08
-1.173249729e-07
-1.390295699e-07
-1.624859075e-07
-1.877314574e-07
-2.147960647e-07
-2.436996463e-07
-2.74445327e-07
-3.070082166e-07
-3.413260186e-07
-3.772925898e-07
-4.147579884e-07
-4.535301626e-07
-4.933773785e-07
-5.340266273e-07
-5.751595543e-07
-6.164069018e-07
-6.573456097e-07
-6.974980279e-07
-7.363349102e-07
-7.732792472e-07
-8.077127608e-07
-8.389852274e-07
-8.664295566e-07
-8.893805793e-07
-9.071971778e-07
-9.192819008e-07
-9.250993672e-07
-9.2419092e-07
-9.161900728e-07
-9.008387397e-07
-8.780047953e-07
-8.477024062e-07
-8.101073884e-07
-7.655693124e-07
-7.146047826e-07
-6.578818268e-07
-5.961888289e-07
-5.304117496e-07
-4.61514711e-07
-3.905318691e-07
-3.18550597e-07
-2.466839804e-07
-1.760279873e-07
-1.076179495e-07
-4.239987458e-08
1.876912069e-08
7.508846937e-08
1.25760444e-07
1.699343251e-07
2.066672562e-07
2.349116433e-07
2.535252602e-07
2.612857804e-07
2.568860082e-07
2.389041457e-07
2.057616713e-07
1.557009927e-07
8.680215313e-08
-2.955997783e-09
-1.156131599e-07
-2.531503797e-07
-4.17438916e-07
-6.102112648e-07
-8.330334087e-07
-1.087266371e-06
-1.374021192e-06
-1.694126612e-06
-2.048125579e-06
-2.436291733e-06
-2.858645863e-06
-3.314948437e-06
-3.804686298e-06
-4.327095734e-06
-4.881257772e-06
-5.466214779e-06
-6.081049354e-06
-6.724926051e-06
-7.397148776e-06
-8.097061725e-06
-8.8241369e-06
-9.576797006e-06
-1.035962567e-05
-1.11980295e-05
-1.263261913e-05
-6.787478363e-06
3.271425207e-08
6.969967472e-08
7.066553351e-08
7.293812619e-08
7.334239849e-08
7.35952322e-08
7.369146468e-08
7.360494986e-08
7.331451165e-08
7.280299348e-08
7.205493619e-08
7.105531957e-08
6.978849062e-08
6.82368492e-08
6.637954851e-08
6.419137871e-08
6.164109764e-08
5.869171158e-08
5.530099232e-08
5.142303391e-08
4.700837387e-08
4.200444843e-08
3.635298495e-08
2.998946406e-08
2.284176168e-08
1.483196535e-08
5.87765838e-09
-4.105893545e-09
-1.520645632e-08
-2.751593958e-08
-4.113324871e-08
-5.616351871e-08
-7.271608963e-08
-9.089805924e-08
-1.108082861e-07
-1.325323111e-07
-1.561430051e-07
-1.81702757e-07
-2.092681835e-07
-2.388894035e-07
-2.706053502e-07
-3.04432083e-07
-3.403514969e-07
-3.783018193e-07
-4.181751269e-07
-4.598185388e-07
-5.030371469e-07
-5.475930459e-07
-5.932004356e-07
-6.395172469e-07
-6.86138098e-07
-7.325899583e-07
-7.783326951e-07
-8.227614168e-07
-8.652113901e-07
-9.049643017e-07
-9.412596409e-07
-9.733104363e-07
-1.000325118e-06
-1.021529935e-06
-1.036192486e-06
-1.04364321e-06
-1.04329734e-06
-1.034678486e-06
-1.017441546e-06
-9.913996005e-07
-9.565447969e-07
-9.130704107e-07
-8.613742429e-07
-8.02052914e-07
-7.358735751e-07
-6.637464163e-07
-5.866975762e-07
-5.058543085e-07
-4.224282914e-07
-3.37687346e-07
-2.529095832e-07
-1.693241974e-07
-8.805824468e-08
-1.01049375e-08
6.367167762e-08
1.32498164e-07
1.956311682e-07
2.522915518e-07
3.016112903e-07
3.426055681e-07
3.741761816e-07
3.951202449e-07
4.041195138e-07
3.996893074e-07
3.801236445e-07
3.434691049e-07
2.875633928e-07
2.101241926e-07
1.088604339e-07
-1.844522411e-08
-1.738964245e-07
-3.594687476e-07
-5.769761663e-07
-8.280014723e-07
-1.113812649e-06
-1.435304056e-06
-1.792987971e-06
-2.187026604e-06
-2.617273636e-06
-3.083294546e-06
-3.584370152e-06
-4.119537308e-06
-4.687694221e-06
-5.287735685e-06
-5.91864158e-06
-6.579541636e-06
-7.269737259e-06
-7.988725433e-06
-8.735855527e-06
-9.510414275e-06
-1.031520283e-05
-1.118213259e-05
-1.26443657e-05
-6.806298088e-06
3.261647897e-08
6.945704741e-08
7.037087891e-08
7.259061937e-08
7.29493153e-08
7.315464009e-08
7.320037804e-08
7.305890662e-08
7.270758395e-08
7.212740287e-08
7.130137317e-08
7.021288267e-08
6.884488147e-08
6.717776619e-08
6.518872602e-08
6.284947727e-08
6.012574903e-08
5.697735049e-08
5.335927773e-08
4.922247142e-08
4.451435106e-08
3.917734425e-08
3.314745709e-08
2.635271921e-08
1.871389311e-08
1.014547758e-08
5.580128193e-10
-1.014183426e-08
-2.205192663e-08
-3.527745716e-08
-4.993164609e-08
-6.613515863e-08
-8.401102681e-08
-1.036783231e-07
-1.252462708e-07
-1.488125634e-07
-1.74464677e-07
-2.022852502e-07
-2.323534795e-07
-2.647430682e-07
-2.99511874e-07
-3.366894384e-07
-3.762647666e-07
-4.181806172e-07
-4.623326641e-07
-5.085727129e-07
-5.56708839e-07
-6.065011288e-07
-6.576516136e-07
-7.097937251e-07
-7.624831341e-07
-8.151945072e-07
-8.673209628e-07
-9.181767193e-07
-9.670000583e-07
-1.012960275e-06
-1.055168512e-06
-1.092696496e-06
-1.124598812e-06
-1.149939275e-06
-1.167817984e-06
-1.177399646e-06
-1.17794595e-06
-1.168846686e-06
-1.14965605e-06
-1.120121286e-06
-1.080214672e-06
-1.030148451e-06
-9.703814524e-07
-9.015996172e-07
-8.246884555e-07
-7.407007952e-07
-6.50834077e-07
-5.564135306e-07
-4.588662758e-07
-3.596787671e-07
-2.603309624e-07
-1.622237695e-07
-6.661174589e-08
2.543552774e-08
1.130345402e-07
1.954540417e-07
2.720519382e-07
3.421938332e-07
4.051601849e-07
4.600812265e-07
5.059228382e-07
5.415117941e-07
5.655236543e-07
5.764173495e-07
5.723472977e-07
5.511346891e-07
5.103221052e-07
4.473066451e-07
3.594856504e-07
2.44353184e-07
9.951293316e-08
-7.733331499e-08
-2.883384713e-07
-5.35384687e-07
-8.199377431e-07
-1.142957072e-06
-1.504886859e-06
-1.905717734e-06
-2.345063323e-06
-2.822213129e-06
-3.336162807e-06
-3.885672851e-06
-4.469396337e-06
-5.086031685e-06
-5.73443719e-06
-6.413693065e-06
-7.123167964e-06
-7.862395406e-06
-8.63116965e-06
-9.428225906e-06
-1.025883049e-05
-1.115068969e-05
-1.264857997e-05
-6.821555485e-06
3.250557381e-08
6.918558846e-08
7.004369e-08
7.220700777e-08
7.251657882e-08
7.267096531e-08
7.266230497e-08
7.246151511e-08
7.204432639e-08
7.139004373e-08
7.048013975e-08
6.929659737e-08
6.782033974e-08
6.603025816e-08
6.3900726e-08
6.14006449e-08
5.849253728e-08
5.513318384e-08
5.127456325e-08
4.686462593e-08
4.184672457e-08
3.615812626e-08
2.972816567e-08
2.247784921e-08
1.432025885e-08
5.162628974e-09
-5.092704464e-09
-1.654837815e-08
-2.931432452e-08
-4.350962094e-08
-5.926326758e-08
-7.671064925e-08
-9.5988456e-08
-1.172276449e-07
-1.405500719e-07
-1.660682714e-07
-1.938903332e-07
-2.241228861e-07
-2.56872167e-07
-2.922359443e-07
-3.302918777e-07
-3.710831013e-07
-4.146093398e-07
-4.608232124e-07
-5.096326143e-07
-5.609018432e-07
-6.144488327e-07
-6.700349479e-07
-7.27352072e-07
-7.860088515e-07
-8.455227349e-07
-9.05315114e-07
-9.647108434e-07
-1.022937357e-06
-1.07912667e-06
-1.132319821e-06
-1.181479575e-06
-1.225509011e-06
-1.263277323e-06
-1.293649795e-06
-1.315520915e-06
-1.327854993e-06
-1.329726727e-06
-1.320369601e-06
-1.299215734e-06
-1.265939661e-06
-1.22048647e-06
-1.163092501e-06
-1.094280206e-06
-1.01483639e-06
-9.257800212e-07
-8.283317297e-07
-7.238948247e-07
-6.140312823e-07
-5.004281472e-07
-3.848365591e-07
-2.689948647e-07
-1.545365375e-07
-4.290763345e-08
6.469239037e-08
1.673361318e-07
2.643556938e-07
3.552910813e-07
4.397735639e-07
5.17352341e-07
5.873352799e-07