/*--------------------------------*- C++ -*----------------------------------*\
  =========                 |
  \\      /  F ield         | OpenFOAM: The Open Source CFD Toolbox
   \\    /   O peration     | Website:  https://openfoam.org
    \\  /    A nd           | Version:  6
     \\/     M anipulation  |
\*---------------------------------------------------------------------------*/
FoamFile
{
    version     2.0;
    format      ascii;
    class       surfaceScalarField;
    location    "0.0058";
    object      phi;
}
// * * * * * * * * * * * * * * * * * * * * * * * * * * * * * * * * * * * * * //

dimensions      [0 3 -1 0 0 0 0];

internalField   nonuniform List<scalar> 
19000
(
1.524399205e-18
-2.392427663e-22
1.527137975e-18
-7.245025917e-22
1.530374746e-18
-1.218827256e-21
1.534171556e-18
-1.708998906e-21
1.538464372e-18
-2.194201853e-21
1.543244775e-18
-2.672791397e-21
1.548501673e-18
-3.14353435e-21
1.554221619e-18
-3.604508918e-21
1.560388662e-18
-4.054249901e-21
1.566984809e-18
-4.490580502e-21
1.573989668e-18
-4.911778318e-21
1.58138073e-18
-5.315374798e-21
1.58913285e-18
-5.699344012e-21
1.597218393e-18
-6.060877783e-21
1.605606594e-18
-6.397603665e-21
1.614263634e-18
-6.706329401e-21
1.623151965e-18
-6.984287119e-21
1.63223041e-18
-7.227843971e-21
1.64145351e-18
-7.433779612e-21
1.65077166e-18
-7.597965881e-21
1.660130418e-18
-7.716695767e-21
1.669470593e-18
-7.785340166e-21
1.678727493e-18
-7.799729398e-21
1.687831038e-18
-7.754773712e-21
1.696705109e-18
-7.645878981e-21
1.705267833e-18
-7.467527194e-21
1.713431092e-18
-7.214744538e-21
1.721100935e-18
-6.881666317e-21
1.728177092e-18
-6.463092386e-21
1.734553391e-18
-5.953053762e-21
1.740117319e-18
-5.346437928e-21
1.744750634e-18
-4.63752522e-21
1.748329253e-18
-3.821656206e-21
1.750724292e-18
-2.893731781e-21
1.751802342e-18
-1.849956923e-21
1.751426842e-18
-6.863505185e-22
1.749458586e-18
5.993901685e-22
1.745757353e-18
2.009369991e-21
1.740182749e-18
3.543543144e-21
1.732596308e-18
5.201244257e-21
1.722862922e-18
6.979200189e-21
1.710853604e-18
8.873143685e-21
1.696447515e-18
1.08757773e-20
1.679535294e-18
1.297844352e-20
1.660021508e-18
1.51690138e-20
1.63782834e-18
1.743361333e-20
1.612898265e-18
1.975446409e-20
1.58519787e-18
2.211173206e-20
1.554720521e-18
2.448140725e-20
1.52149008e-18
2.683736798e-20
1.485563355e-18
2.914937778e-20
1.44703356e-18
3.138543095e-20
1.406032346e-18
3.350989167e-20
1.362732691e-18
3.548612862e-20
1.317349985e-18
3.727476646e-20
1.270143599e-18
3.883658296e-20
1.221416184e-18
4.013085516e-20
1.171513234e-18
4.11185216e-20
1.120820283e-18
4.17606431e-20
1.06976055e-18
4.20218494e-20
1.018790351e-18
4.186887192e-20
9.683950662e-19
4.127415502e-20
9.190826743e-19
4.021425253e-20
8.71377703e-19
3.867334454e-20
8.258125915e-19
3.664125639e-20
7.829198376e-19
3.411670581e-20
7.432221425e-19
3.11048514e-20
7.072243168e-19
2.762022182e-20
6.754039221e-19
2.368374317e-20
6.482043035e-19
1.932524128e-20
6.26026483e-19
1.457981766e-20
6.092235994e-19
9.489802397e-21
5.980942914e-19
4.100470777e-21
5.928791494e-19
-1.538420962e-21
5.937566538e-19
-7.377271157e-21
6.008428962e-19
-1.336513692e-20
6.141910073e-19
-1.945432116e-20
6.33794303e-19
-2.559860611e-20
6.595884326e-19
-3.17575419e-20
6.91456426e-19
-3.78942372e-20
7.292317011e-19
-4.397912307e-20
7.727031851e-19
-4.99870383e-20
8.21617644e-19
-5.590012404e-20
8.756836803e-19
-6.170393383e-20
9.345724506e-19
-6.738929943e-20
9.979197179e-19
-7.294760305e-20
1.065324187e-18
-7.837201714e-20
1.136346848e-18
-8.365258616e-20
1.210506332e-18
-8.877756274e-20
1.287275359e-18
-9.372904334e-20
1.36607365e-18
-9.848494136e-20
1.446262892e-18
-1.030155901e-19
1.527139441e-18
-1.072865824e-19
1.607930442e-18
-1.112564534e-19
1.687788857e-18
-1.148803805e-19
1.765792785e-18
-1.181088724e-19
1.840944223e-18
-1.208920398e-19
1.912172435e-18
-1.231788771e-19
1.978336891e-18
-1.24921527e-19
2.03823459e-18
-1.260744958e-19
2.090606325e-18
-1.265982406e-19
2.134146027e-18
-1.264578619e-19
2.16750775e-18
-1.256256654e-19
2.189314731e-18
-1.240792795e-19
2.198166546e-18
-1.218033226e-19
2.192649508e-18
-1.187871394e-19
2.171346348e-18
-1.150258009e-19
2.132848284e-18
-1.105176229e-19
2.075763607e-18
-1.052646371e-19
1.998725895e-18
-9.927028129e-20
1.900398581e-18
-9.25398713e-20
1.779480348e-18
-8.507885137e-20
1.63470965e-18
-7.689308282e-20
1.464872064e-18
-6.798802587e-20
1.268817326e-18
-5.836849406e-20
1.045490546e-18
-4.803975395e-20
7.938621506e-19
-3.700423338e-20
5.123224618e-19
-2.526773749e-20
1.864040065e-19
-1.283469982e-20
7.093538919e-32
1.523174336e-18
-4.871571703e-22
1.525899461e-18
-1.465765374e-21
1.529147605e-18
-2.447935531e-21
1.532950477e-18
-3.426873443e-21
1.537252322e-18
-4.397175552e-21
1.542043499e-18
-5.355477221e-21
1.547313644e-18
-6.298051295e-21
1.553048853e-18
-7.221829673e-21
1.559234014e-18
-8.122895567e-21
1.565850694e-18
-8.997816142e-21
1.572879383e-18
-9.842193289e-21
1.580297145e-18
-1.06520583e-20
1.588079762e-18
-1.142240086e-20
1.596199188e-18
-1.214860607e-20
1.604625633e-18
-1.282494969e-20
1.613324887e-18
-1.344607322e-20
1.622260433e-18
-1.40054371e-20
1.631390723e-18
-1.449682612e-20
1.640671387e-18
-1.491276284e-20
1.650052443e-18
-1.524607037e-20
1.659480554e-18
-1.548826682e-20
1.668896115e-18
-1.563120513e-20
1.67823554e-18
-1.566544184e-20
1.687428292e-18
-1.55819307e-20
1.69639936e-18
-1.537033296e-20
1.705066357e-18
-1.502076127e-20
1.713342226e-18
-1.452206685e-20
1.721132358e-18
-1.386369279e-20
1.728337391e-18
-1.303399805e-20
1.734850259e-18
-1.202224081e-20
1.740559153e-18
-1.081690205e-20
1.74534468e-18
-9.40773939e-21
1.749083242e-18
-7.784064134e-21
1.751644492e-18
-5.936871556e-21
1.752895175e-18
-3.857132501e-21
1.752696799e-18
-1.538097955e-21
1.750909822e-18
1.026333106e-21
1.7473915e-18
3.83913134e-21
1.742000556e-18
6.901774986e-21
1.734595415e-18
1.021169435e-20
1.725039594e-18
1.376401249e-20
1.713200446e-18
1.754895571e-20
1.698955268e-18
2.155367546e-20
1.682190466e-18
2.575957023e-20
1.662808225e-18
3.014415316e-20
1.640725924e-18
3.46782848e-20
1.615883225e-18
3.932816612e-20
1.588241529e-18
4.405261452e-20
1.557791259e-18
4.880534634e-20
1.524551115e-18
5.353246813e-20
1.488575324e-18
5.81752154e-20
1.449952482e-18
6.266775946e-20
1.408812549e-18
6.694046536e-20
1.365324934e-18
7.091802322e-20
1.319704692e-18
7.452318655e-20
1.27220911e-18
7.767518199e-20
1.223142313e-18
8.02939183e-20
1.172849667e-18
8.22986866e-20
1.121720477e-18
8.36128943e-20
1.070180238e-18
8.416307146e-20
1.018691632e-18
8.388402905e-20
9.677447699e-19
8.271790243e-20
9.178563444e-19
8.061930177e-20
8.695575228e-19
7.755388658e-20
8.233910486e-19
7.350304363e-20
7.798970956e-19
6.846167023e-20
7.396093182e-19
6.244219206e-20
7.030402341e-19
5.547144377e-20
6.706778774e-19
4.759387411e-20
6.429720527e-19
3.886728925e-20
6.203323526e-19
2.936494241e-20
6.031157029e-19
1.916994319e-20
5.916261438e-19
8.376217166e-21
5.861044678e-19
-2.918091981e-21
5.867309209e-19
-1.461020461e-20
5.936182152e-19
-2.659954884e-20
6.068179817e-19
-3.87871531e-20
6.263172388e-19
-5.108210647e-20
6.520477327e-19
-6.340030289e-20
6.838843945e-19
-7.567007122e-20
7.216557365e-19
-8.782979868e-20
7.651425666e-19
-9.983206935e-20
8.140878314e-19
-1.116394842e-19
8.68194254e-19
-1.232267119e-19
9.271323639e-19
-1.345742834e-19
9.905359416e-19
-1.456688331e-19
1.058007164e-18
-1.564957747e-19
1.129109011e-18
-1.670389939e-19
1.20336691e-18
-1.772739123e-19
1.280258133e-18
-1.871680445e-19
1.359210647e-18
-1.966755995e-19
1.439591138e-18
-2.057397056e-19
1.520703429e-18
-2.142891357e-19
1.601777904e-18
-2.222424419e-19
1.681972112e-18
-2.295068864e-19
1.760363854e-18
-2.359842879e-19
1.835955517e-18
-2.415715778e-19
1.907671876e-18
-2.461673894e-19
1.974368664e-18
-2.496730453e-19
2.03483503e-18
-2.51998435e-19
2.087805277e-18
-2.530621556e-19
2.131963867e-18
-2.527956872e-19
2.165957405e-18
-2.511420858e-19
2.18839971e-18
-2.480583055e-19
2.197883379e-18
-2.435126984e-19
2.192986523e-18
-2.374858477e-19
2.172286295e-18
-2.29967321e-19
2.134367561e-18
-2.209554655e-19
2.077834528e-18
-2.104538879e-19
2.001315679e-18
-1.984709119e-19
1.903470563e-18
-1.850167924e-19
1.782992456e-18
-1.701034753e-19
1.638613212e-18
-1.537428396e-19
1.469108504e-18
-1.359467191e-19
1.273309071e-18
-1.167267369e-19
1.050127614e-18
-9.609477567e-20
7.984408031e-19
-7.406781954e-20
5.165214706e-19
-5.067019098e-20
1.884253525e-19
-2.598915856e-20
7.104694414e-32
1.521476605e-18
-7.366660131e-22
1.524200255e-18
-2.212359401e-21
1.527453029e-18
-3.688576672e-21
1.531266288e-18
-5.158655558e-21
1.535582356e-18
-6.616739129e-21
1.540391982e-18
-8.057196428e-21
1.545684092e-18
-9.47501438e-21
1.551445691e-18
-1.086480425e-20
1.557661186e-18
-1.222135123e-20
1.564313212e-18
-1.353878697e-20
1.571381844e-18
-1.48112502e-20
1.578845297e-18
-1.603208617e-20
1.586678977e-18
-1.719455493e-20
1.594856065e-18
-1.829102703e-20
1.603346429e-18
-1.931371991e-20
1.612117162e-18
-2.025387285e-20
1.621131455e-18
-2.110249349e-20
1.63034915e-18
-2.184951095e-20
1.639725608e-18
-2.248454402e-20
1.649212291e-18
-2.299605391e-20
1.658755565e-18
-2.337217556e-20
1.668297266e-18
-2.359988681e-20
1.67777345e-18
-2.366589222e-20
1.687115024e-18
-2.35557669e-20
1.696246566e-18
-2.325486023e-20
1.705087103e-18
-2.274742486e-20
1.713549028e-18
-2.20175906e-20
1.721538969e-18
-2.104856142e-20
1.728956708e-18
-1.982373368e-20
1.735696112e-18
-1.832597235e-20
1.74164413e-18
-1.653882234e-20
1.746681968e-18
-1.444579053e-20
1.750684366e-18
-1.203159878e-20
1.753521145e-18
-9.281493815e-21
1.755056781e-18
-6.182649353e-21
1.755152267e-18
-2.723619301e-21
1.753664923e-18
1.104042944e-21
1.750450623e-18
5.306210686e-21
1.745364003e-18
9.884452752e-21
1.738261262e-18
1.483648629e-20
1.729000939e-18
2.015443885e-20
1.717447357e-18
2.5825363e-20
1.703471933e-18
3.182945093e-20
1.686957177e-18
3.814054548e-20
1.667798431e-18
4.472427435e-20
1.645908329e-18
5.15385982e-20
1.62121886e-18
5.853198891e-20
1.593686141e-18
6.564422161e-20
1.563292581e-18
7.280483059e-20
1.530051712e-18
7.993438332e-20
1.494010173e-18
8.694342743e-20
1.455252339e-18
9.373439489e-20
1.413901842e-18
1.002011238e-19
1.37012561e-18
1.062314327e-19
1.324134382e-18
1.117071841e-19
1.27618545e-18
1.16507509e-19
1.226581388e-18
1.205094321e-19
1.175670871e-18
1.235917894e-19
1.123845262e-18
1.2563648e-19
1.071537414e-18
1.265330696e-19
1.019216173e-18
1.261804628e-19
9.673831404e-19
1.244917493e-19
9.165648651e-19
1.213956483e-19
8.673072699e-19
1.168408651e-19
8.201654607e-19
1.107966602e-19
7.756962579e-19
1.032562525e-19
7.344467041e-19
9.42362164e-20
6.969462288e-19
8.377868771e-20
6.636954374e-19
7.194928959e-20
6.35159179e-19
5.883771741e-20
6.117564705e-19
4.45537555e-20
5.938550664e-19
2.922596538e-20
5.817632409e-19
1.299586088e-20
5.757269097e-19
-3.984802558e-21
5.75924607e-19
-2.156079755e-20
5.824684036e-19
-3.957647902e-20
5.954028118e-19
-5.788244839e-20
6.14709398e-19
-7.633807095e-20
6.403087274e-19
-9.481726638e-20
6.720672215e-19
-1.13209731e-19
7.098004852e-19
-1.314249318e-19
7.532807114e-19
-1.493909249e-19
8.022397373e-19
-1.67055402e-19
8.563752973e-19
-1.843812683e-19
9.153520995e-19
-2.013444439e-19
9.78805231e-19
-2.179267693e-19
1.046337813e-18
-2.341119525e-19
1.11752049e-18
-2.49877763e-19
1.191885177e-18
-2.651923467e-19
1.268920868e-18
-2.800078773e-19
1.348064551e-18
-2.9425899e-19
1.428695213e-18
-3.078592846e-19
1.510124547e-18
-3.207028786e-19
1.59159209e-18
-3.326643302e-19
1.672258608e-18
-3.436034674e-19
1.751204884e-18
-3.533684201e-19
1.827429719e-18
-3.618026722e-19
1.899853658e-18
-3.687495822e-19
1.967322298e-18
-3.74059616e-19
2.028614771e-18
-3.775940879e-19
2.082451071e-18
-3.792305389e-19
2.127502738e-18
-3.788642541e-19
2.162400902e-18
-3.764108606e-19
2.185746331e-18
-3.718054222e-19
2.196117329e-18
-3.650026118e-19
2.192080714e-18
-3.559739271e-19
2.172201973e-18
-3.447061841e-19
2.135057291e-18
-3.311977275e-19
2.079241879e-18
-3.154561089e-19
2.003377031e-18
-2.974944844e-19
1.90611381e-18
-2.773298394e-19
1.786136606e-18
-2.549805761e-19
1.642164849e-18
-2.304656638e-19
1.472956068e-18
-2.038037233e-19
1.277311977e-18
-1.750130901e-19
1.054091787e-18
-1.441142905e-19
8.020809872e-19
-1.11129508e-19
5.193779895e-19
-7.60974041e-20
1.895705803e-19
-3.905538854e-20
7.138292226e-32
1.519328596e-18
-9.88464535e-22
1.522054407e-18
-2.966554466e-21
1.525315266e-18
-4.942044315e-21
1.529142431e-18
-6.908451612e-21
1.533478299e-18
-8.858780618e-21
1.538313111e-18
-1.078632741e-20
1.543636164e-18
-1.268418704e-20
1.549434319e-18
-1.454557447e-20
1.555692662e-18
-1.636320624e-20
1.56239387e-18
-1.812966558e-20
1.569518848e-18
-1.983681797e-20
1.577045953e-18
-2.147623757e-20
1.584951519e-18
-2.303862873e-20
1.593208938e-18
-2.451428968e-20
1.601789099e-18
-2.58925329e-20
1.610659387e-18
-2.716215654e-20
1.619784113e-18
-2.831084617e-20
1.629123492e-18
-2.932565403e-20
1.63863409e-18
-3.019239563e-20
1.648267759e-18
-3.089617629e-20
1.657972077e-18
-3.142082023e-20
1.66768923e-18
-3.174945376e-20
1.677356467e-18
-3.186394908e-20
1.686905008e-18
-3.174552697e-20
1.696260599e-18
-3.137417939e-20
1.70534249e-18
-3.072931743e-20
1.71406409e-18
-2.978924969e-20
1.722331962e-18
-2.853196386e-20
1.730046542e-18
-2.693472945e-20
1.73710118e-18
-2.497502259e-20
1.743383025e-18
-2.263018407e-20
1.748772269e-18
-1.987840541e-20
1.753143329e-18
-1.66984242e-20
1.756364351e-18
-1.3070624e-20
1.758298691e-18
-8.976880162e-21
1.758804661e-18
-4.401907172e-21
1.757737337e-18
6.666942543e-22
1.754948679e-18
6.236897087e-21
1.750289867e-18
1.231213101e-20
1.74361196e-18
1.88896968e-20
1.73476887e-18
2.596067605e-20
1.72361856e-18
3.350830712e-20
1.710026587e-18
4.150786655e-20
1.693867771e-18
4.992494613e-20
1.67503028e-18
5.871531118e-20
1.653417758e-18
6.782316819e-20
1.628953923e-18
7.718119551e-20
1.601585048e-18
8.670907262e-20
1.571284854e-18
9.631396219e-20
1.538057046e-18
1.058895766e-19
1.501940181e-18
1.153173652e-19
1.463009929e-18
1.244662907e-19
1.421383565e-18
1.331948526e-19
1.377221536e-18
1.413516646e-19
1.330731028e-18
1.48778339e-19
1.282166163e-18
1.553108996e-19
1.23182993e-18
1.607836064e-19
1.180072383e-18
1.650312754e-19
1.127290499e-18
1.678941032e-19
1.073924133e-18
1.692208179e-19
1.020453632e-18
1.688741621e-19
9.673933073e-19
1.667342472e-19
9.152865211e-19
1.627038431e-19
8.646964608e-19
1.567110178e-19
8.16198776e-19
1.487134259e-19
7.703702695e-19
1.386996239e-19
7.277802195e-19
1.266918905e-19
6.889784508e-19
1.127457775e-19
6.544868169e-19
9.695093505e-20
6.24787895e-19
7.942826844e-20
6.003176087e-19
6.032818792e-20
5.814554718e-19
3.982508612e-20
5.685194557e-19
1.811316492e-20
5.617591894e-19
-4.60105262e-21
5.613545617e-19
-2.810418162e-20
5.674131012e-19
-5.218410741e-20
5.799728745e-19
-7.663544097e-20
5.990038215e-19
-1.012671226e-19
6.244140328e-19
-1.259067623e-19
6.560537455e-19
-1.504064585e-19
6.937235058e-19
-1.746445328e-19
7.37179202e-19
-1.985278323e-19
7.861402222e-19
-2.21989227e-19
8.40293335e-19
-2.449852647e-19
8.992983892e-19
-2.674891633e-19
9.627886455e-19
-2.894846723e-19
1.030372024e-18
-3.109565168e-19
1.101626629e-18
-3.318830951e-19
1.176097159e-18
-3.522273837e-19
1.253286196e-18
-3.719314484e-19
1.332647211e-18
-3.909103784e-19
1.413573882e-18
-4.090507433e-19
1.495392592e-18
-4.262092501e-19
1.57735307e-18
-4.42216114e-19
1.658623679e-18
-4.568787408e-19
1.738286422e-18
-4.69989453e-19
1.815337486e-18
-4.813325174e-19
1.888688318e-18
-4.906936936e-19
1.957172223e-18
-4.97867567e-19
2.019551195e-18
-5.026656231e-19
2.074526812e-18
-5.049210741e-19
2.120749704e-18
-5.04493463e-19
2.156830851e-18
-5.012697594e-19
2.181350416e-18
-4.951652027e-19
2.192868316e-18
-4.861211529e-19
2.189933849e-18
-4.741029638e-19
2.171097868e-18
-4.590957554e-19
2.134923188e-18
-4.411007465e-19
2.079993967e-18
-4.201303955e-19
2.004920685e-18
-3.962048838e-19
1.908343949e-18
-3.693484128e-19
1.788935849e-18
-3.395870525e-19
1.64540048e-18
-3.069468657e-19
1.476474234e-18
-2.714532113e-19
1.280926299e-18
-2.331310563e-19
1.057571647e-18
-1.920047956e-19
8.051184812e-19
-1.481038542e-19
5.21593238e-19
-1.014518079e-19
1.904229831e-19
-5.209576955e-20
7.178176952e-32
1.516722545e-18
-1.243053811e-21
1.519453799e-18
-3.729404288e-21
1.522725955e-18
-6.210887996e-21
1.526571245e-18
-8.680089634e-21
1.530932066e-18
-1.112928034e-20
1.53579894e-18
-1.355039088e-20
1.541161101e-18
-1.593526554e-20
1.547005927e-18
-1.82753935e-20
1.553318677e-18
-2.056199478e-20
1.560082764e-18
-2.278570694e-20
1.567279428e-18
-2.493668851e-20
1.57488791e-18
-2.700431666e-20
1.582884994e-18
-2.89773186e-20
1.591245074e-18
-3.084348226e-20
1.599939594e-18
-3.25898058e-20
1.608937065e-18
-3.420219355e-20
1.618202473e-18
-3.566560448e-20
1.627697277e-18
-3.696374453e-20
1.637378793e-18
-3.807923539e-20
1.647200172e-18
-3.899333884e-20
1.657109736e-18
-3.968618644e-20
1.667050953e-18
-4.013653592e-20
1.676961789e-18
-4.032203194e-20
1.686774734e-18
-4.021896844e-20
1.696416196e-18
-3.980256162e-20
1.7058066e-18
-3.904675414e-20
1.714859792e-18
-3.79245989e-20
1.723483174e-18
-3.640818984e-20
1.731577161e-18
-3.446920489e-20
1.739035428e-18
-3.207895798e-20
1.745744535e-18
-2.920903514e-20
1.751584406e-18
-2.583141346e-20
1.75642817e-18
-2.191919626e-20
1.76014287e-18
-1.744687998e-20
1.762589515e-18
-1.239132261e-20
1.763624062e-18
-6.732261607e-21
1.763097813e-18
-4.535335784e-22
1.76085888e-18
6.456236179e-21
1.756753126e-18
1.40022991e-20
1.750626242e-18
2.218304775e-20
1.742325261e-18
3.098861908e-20
1.731701181e-18
4.040008983e-20
1.718610972e-18
5.038795609e-20
1.702920732e-18
6.091122937e-20
1.684508242e-18
7.191585579e-20
1.663266748e-18
8.33338823e-20
1.639108105e-18
9.508207573e-20
1.611967095e-18
1.07061474e-19
1.581804936e-18
1.191565088e-19
1.548613816e-18
1.312352321e-19
1.51242038e-18
1.431492154e-19
1.473290093e-18
1.547346658e-19
1.43133031e-18
1.658132986e-19
1.386694017e-18
1.761945328e-19
1.339581945e-18
1.85677455e-19
1.290245045e-18
1.940542244e-19
1.238984956e-18
2.011132763e-19
1.186154571e-18
2.0664403e-19
1.132156308e-18
2.104413556e-19
1.077440275e-18
2.123114079e-19
1.022499899e-18
2.120768611e-19
9.67867274e-19
2.095830659e-19
9.141057947e-19
2.047030336e-19
8.618025698e-19
1.97342845e-19
8.115583298e-19
1.874454208e-19
7.639776518e-19
1.749943819e-19
7.196572977e-19
1.600158925e-19
6.791756214e-19
1.425802361e-19
6.430807175e-19
1.228009187e-19
6.118802794e-19
1.008331035e-19
5.860307783e-19
7.686928245e-20
5.659291009e-19
5.113429715e-20
5.519043487e-19
2.387786117e-20
5.442130214e-19
-4.632943502e-21
5.430350943e-19
-3.41229436e-20
5.484739136e-19
-6.431739381e-20
5.605569834e-19
-9.495153078e-20
5.792402655e-19
-1.257786323e-19
6.044128735e-19
-1.565782589e-19
6.359047042e-19
-1.871619602e-19
6.734937584e-19
-2.17377959e-19
7.169154338e-19
-2.471120468e-19
7.658702042e-19
-2.76286489e-19
8.200316157e-19
-3.04854696e-19
8.790509345e-19
-3.327940667e-19
9.425605467e-19
-3.600955817e-19
1.010172972e-18
-3.867530743e-19
1.08147815e-18
-4.127510987e-19
1.156036551e-18
-4.380545182e-19
1.233371225e-18
-4.625986797e-19
1.31295685e-18
-4.86282974e-19
1.394209208e-18
-5.089665484e-19
1.476473542e-18
-5.304684342e-19
1.559015289e-18
-5.505703287e-19
1.641011796e-18
-5.690236822e-19
1.721548145e-18
-5.855586043e-19
1.79961545e-18
-5.998953394e-19
1.874114002e-18
-6.117555928e-19
1.94385903e-18
-6.208740943e-19
2.007590488e-18
-6.270078579e-19
2.063983924e-18
-6.299440577e-19
2.111662989e-18
-6.295046093e-19
2.149210776e-18
-6.2554875e-19
2.175181215e-18
-6.179725684e-19
2.188109367e-18
-6.06706952e-19
2.186522878e-18
-5.917132377e-19
2.168953383e-18
-5.729782892e-19
2.133947813e-18
-5.50508459e-19
2.08007632e-18
-5.243239842e-19
2.005937122e-18
-4.944535883e-19
1.910158425e-18
-4.609303815e-19
1.79139897e-18
-4.237885612e-19
1.648346657e-18
-3.830615105e-19
1.479716697e-18
-3.38780849e-19
1.284251908e-18
-2.909758445e-19
1.060728469e-18
-2.39675721e-19
8.078228429e-19
-1.849055855e-19
5.23502234e-19
-1.267002408e-19
1.911607564e-19
-6.506861331e-20
7.229042067e-32
1.513650655e-18
-1.501029952e-21
1.516389588e-18
-4.502821605e-21
1.519676361e-18
-7.497878865e-21
1.523543791e-18
-1.047781211e-20
1.527934804e-18
-1.343382859e-20
1.532840106e-18
-1.635680187e-20
1.538249336e-18
-1.923721247e-20
1.544150182e-18
-2.206519636e-20
1.550528504e-18
-2.483035045e-20
1.557368217e-18
-2.752172498e-20
1.564651356e-18
-3.012761139e-20
1.572357828e-18
-3.263554857e-20
1.580465362e-18
-3.503211721e-20
1.588949155e-18
-3.730296024e-20
1.597781743e-18
-3.943257864e-20
1.606932589e-18
-4.140434877e-20
1.616367923e-18
-4.320031086e-20
1.626050289e-18
-4.480119512e-20
1.635938352e-18
-4.618622507e-20
1.645986398e-18
-4.733319706e-20
1.656144123e-18
-4.821832529e-20
1.666356126e-18
-4.881636079e-20
1.676561743e-18
-4.910045817e-20
1.686694579e-18
-4.9042312e-20
1.696682364e-18
-4.861204975e-20
1.706446491e-18
-4.777844614e-20
1.715901871e-18
-4.650893497e-20
1.724956477e-18
-4.476997324e-20
1.733511284e-18
-4.252720274e-20
1.741459956e-18
-3.974594747e-20
1.748688981e-18
-3.639146845e-20
1.755077551e-18
-3.242957549e-20
1.760497873e-18
-2.782703443e-20
1.764815204e-18
-2.255239209e-20
1.767888349e-18
-1.65766524e-20
1.769569972e-18
-9.874389289e-21
1.769707511e-18
-2.424663462e-21
1.768144013e-18
5.787672135e-21
1.764719664e-18
1.47709307e-20
1.759273224e-18
2.452516939e-20
1.751644103e-18
3.504101997e-20
1.741674291e-18
4.629809228e-20
1.729210946e-18
5.826362538e-20
1.714108874e-18
7.089074295e-20
1.696233781e-18
8.411707538e-20
1.675465491e-18
9.78631127e-20
1.651701949e-18
1.120311112e-19
1.624863091e-18
1.265038855e-19
1.594895358e-18
1.411442945e-19
1.561775862e-18
1.557947561e-19
1.525516989e-18
1.702776154e-19
1.486170451e-18
1.843956605e-19
1.443831561e-18
1.979336788e-19
1.398642693e-18
2.106602975e-19
1.350796702e-18
2.223309774e-19
1.300539156e-18
2.326914178e-19
1.248170205e-18
2.41482211e-19
1.194044868e-18
2.484439104e-19
1.138572596e-18
2.533233147e-19
1.082214874e-18
2.558799134e-19
1.025481753e-18
2.558931584e-19
9.689261423e-19
2.531693403e-19
9.131369355e-19
2.475486961e-19
8.587299754e-19
2.389115044e-19
8.063381957e-19
2.271838811e-19
7.566000851e-19
2.123420256e-19
7.101479697e-19
1.944156447e-19
6.675952586e-19
1.734892335e-19
6.295241997e-19
1.497019748e-19
5.964733029e-19
1.232449619e-19
5.689261274e-19
9.435678359e-20
5.473007148e-19
6.331645788e-20
5.319415058e-19
3.043509852e-20
5.231129256e-19
-3.954387288e-21
5.209962217e-19
-3.950805095e-20
5.256883361e-19
-7.588277287e-20
5.372040231e-19
-1.127476991e-19
5.554797702e-19
-1.497958303e-19
5.803806474e-19
-1.867539631e-19
6.117085355e-19
-2.233913098e-19
6.492126083e-19
-2.595247985e-19
6.926000405e-19
-2.95021391e-19
7.415472167e-19
-3.297958505e-19
7.957089684e-19
-3.638049203e-19
8.547259568e-19
-3.97037151e-19
9.182280862e-19
-4.295002598e-19
9.858347187e-19
-4.612059923e-19
1.057150406e-18
-4.921548141e-19
1.131757662e-18
-5.223208489e-19
1.209206129e-18
-5.516393808e-19
1.289000138e-18
-5.799970976e-19
1.370584505e-18
-6.072271234e-19
1.453330932e-18
-6.331083687e-19
1.536525212e-18
-6.573702569e-19
1.619357629e-18
-6.797015906e-19
1.700916613e-18
-6.997634208e-19
1.780187364e-18
-7.172036888e-19
1.856054717e-18
-7.316730459e-19
1.927310899e-18
-7.428394033e-19
1.992666404e-18
-7.504007264e-19
2.050763609e-18
-7.540945349e-19
2.100190762e-18
-7.537042371e-19
2.139495892e-18
-7.490614978e-19
2.1671993e-18
-7.400456606e-19
2.181805684e-18
-7.265799555e-19
2.181815909e-18
-7.086257721e-19
2.165739201e-18
-6.86175354e-19
2.132103791e-18
-6.592441391e-19
2.079464508e-18
-6.278630616e-19
2.006406137e-18
-5.920720157e-19
1.911544299e-18
-5.519144233e-19
1.793524411e-18
-5.074334296e-19
1.651018959e-18
-4.586695549e-19
1.482725198e-18
-4.056594674e-19
1.287362372e-18
-3.484364269e-19
1.063686176e-18
-2.870288982e-19
8.103382155e-19
-2.214666055e-19
5.25289282e-19
-1.517632898e-19
1.918583877e-19
-7.795831584e-20
7.296123459e-32
1.510103745e-18
-1.763094116e-21
1.512852267e-18
-5.288647975e-21
1.516156536e-18
-8.806038768e-21
1.520049983e-18
-1.230573145e-20
1.524476036e-18
-1.577795328e-20
1.529425861e-18
-1.921246413e-20
1.534889498e-18
-2.259859042e-20
1.540855196e-18
-2.592512579e-20
1.547309388e-18
-2.918027812e-20
1.55423675e-18
-3.235151711e-20
1.561620076e-18
-3.542550445e-20
1.569440222e-18
-3.838793787e-20
1.57767585e-18
-4.122348737e-20
1.586303278e-18
-4.391563998e-20
1.59529615e-18
-4.644663846e-20
1.604625233e-18
-4.879731456e-20
1.614258038e-18
-5.094702601e-20
1.624158573e-18
-5.287350386e-20
1.6342869e-18
-5.45528167e-20
1.644598847e-18
-5.595925527e-20
1.655045549e-18
-5.706535103e-20
1.665573179e-18
-5.78417813e-20
1.676122531e-18
-5.825740823e-20
1.686628777e-18
-5.827921994e-20
1.697021038e-18
-5.78724156e-20
1.707222109e-18
-5.700044545e-20
1.717147987e-18
-5.562524053e-20
1.726707621e-18
-5.370739475e-20
1.735802538e-18
-5.120654378e-20
1.744326763e-18
-4.808167384e-20
1.752166631e-18
-4.429162314e-20
1.759200862e-18
-3.979554894e-20
1.765300492e-18
-3.455364585e-20
1.770329055e-18
-2.852787991e-20
1.774142683e-18
-2.168301558e-20
1.776590599e-18
-1.398764238e-20
1.777515681e-18
-5.415447291e-21
1.776755545e-18
4.053562699e-21
1.774143719e-18
1.443161256e-20
1.769511307e-18
2.57217464e-20
1.762688671e-18
3.791613851e-20
1.753507571e-18
5.099441182e-20
1.741803367e-18
6.492168977e-20
1.727417813e-18
7.964675093e-20
1.710202037e-18
9.510006065e-20
1.690020224e-18
1.111920786e-19
1.66675348e-18
1.278116148e-19
1.640304299e-18
1.448246153e-19
1.610601052e-18
1.620731144e-19
1.57760287e-18
1.793747837e-19
1.541304344e-18
1.965228317e-19
1.501740434e-18
2.132866981e-19
1.458990959e-18
2.294133536e-19
1.413185051e-18
2.446296297e-19
1.364504879e-18
2.586453114e-19
1.313188999e-18
2.711574624e-19
1.259534551e-18
2.818556038e-19
1.203898636e-18
2.904281371e-19
1.146698024e-18
2.965695279e-19
1.088407513e-18
2.999884478e-19
1.029556142e-18
3.004162099e-19
9.707217502e-19
2.976155776e-19
9.125232814e-19
2.913891899e-19
8.55611587e-19
2.81587668e-19
8.006583158e-19
2.681166311e-19
7.483438003e-19
2.50942668e-19
6.993435904e-19
2.300974275e-19
6.543146422e-19
2.056798779e-19
6.138808786e-19
1.778559363e-19
5.786193179e-19
1.468556717e-19
5.490466716e-19
1.129675934e-19
5.256078067e-19
7.653059938e-20
5.086660118e-19
3.792342663e-20
4.984962783e-19
-2.447486409e-21
4.952811609e-19
-4.416176752e-20
4.991100115e-19
-8.679954081e-20
5.099808572e-19
-1.299564429e-19
5.278056066e-19
-1.732580569e-19
5.524178245e-19
-2.163733016e-19
5.835835912e-19
-2.59025258e-19
6.210142265e-19
-3.009987603e-19
6.643806332e-19
-3.421432824e-19
7.133272229e-19
-3.823709561e-19
7.674845591e-19
-4.216490152e-19
8.264785635e-19
-4.599874078e-19
8.899358551e-19
-4.974220415e-19
9.574839438e-19
-5.339953763e-19
1.028746824e-18
-5.697356153e-19
1.103335648e-18
-6.046369386e-19
1.180835799e-18
-6.386422088e-19
1.260790687e-18
-6.716302974e-19
1.342684221e-18
-7.034090393e-19
1.425922912e-18
-7.337149093e-19
1.509819946e-18
-7.62219078e-19
1.5935824e-18
-7.885397344e-19
1.676303561e-18
-8.122588515e-19
1.75696072e-18
-8.32941944e-19
1.834419131e-18
-8.501585022e-19
1.907441158e-18
-8.635013253e-19
1.974699913e-18
-8.726027229e-19
2.034795331e-18
-8.771468568e-19
2.086271308e-18
-8.768771615e-19
2.127631945e-18
-8.715990175e-19
2.157356534e-18
-8.611779201e-19
2.173913068e-18
-8.45533998e-19
2.175771235e-18
-8.246336574e-19
2.161414648e-18
-7.984798573e-19
2.129351288e-18
-7.67101794e-19
2.078119906e-18
-7.305452045e-19
2.006292171e-18
-6.888640033e-19
1.912471869e-18
-6.421137687e-19
1.795292424e-18
-5.903471513e-19
1.653413134e-18
-5.336112768e-19
1.485515267e-18
-4.719469522e-19
1.290302333e-18
-4.053881789e-19
1.066507376e-18
-3.33965274e-19
8.127700136e-19
-2.576994359e-19
5.270175843e-19
-1.766212477e-19
1.925516486e-19
-9.072717265e-20
7.365811381e-32
1.506071675e-18
-2.029848048e-21
1.508831274e-18
-6.088687151e-21
1.512155581e-18
-1.013820753e-20
1.5160785e-18
-1.416783891e-20
1.520544079e-18
-1.816681207e-20
1.525543969e-18
-2.212388858e-20
1.53106878e-18
-2.602729191e-20
1.537107371e-18
-2.986464168e-20
1.543646917e-18
-3.362283626e-20
1.550672902e-18
-3.72879474e-20
1.558169067e-18
-4.084508753e-20
1.566117274e-18
-4.427830215e-20
1.574497336e-18
-4.757042682e-20
1.583286775e-18
-5.070298503e-20
1.592460593e-18
-5.365603362e-20
1.601990975e-18
-5.640804974e-20
1.611846992e-18
-5.893578092e-20
1.621994243e-18
-6.12141506e-20
1.632394493e-18
-6.321613435e-20
1.643005261e-18
-6.491270944e-20
1.653779468e-18
-6.627276414e-20
1.664665047e-18
-6.726306306e-20
1.675604622e-18
-6.784818603e-20
1.686535128e-18
-6.799053521e-20
1.697387443e-18
-6.765034929e-20
1.708085928e-18
-6.678583469e-20
1.718548018e-18
-6.535332289e-20
1.72868379e-18
-6.330754371e-20
1.738395671e-18
-6.060191877e-20
1.747578176e-18
-5.718897249e-20
1.756117775e-18
-5.302077269e-20
1.763892734e-18
-4.804955596e-20
1.770773049e-18
-4.222844617e-20
1.776620363e-18
-3.551239522e-20
1.78128808e-18
-2.785922967e-20
1.784621634e-18
-1.92308879e-20
1.786459114e-18
-9.594709215e-21
1.786632135e-18
1.075103886e-21
1.784967051e-18
1.279595748e-20
1.78128636e-18
2.55751057e-20
1.77541038e-18
3.94077632e-20
1.767159134e-18
5.427496936e-20
1.756354623e-18
7.01413812e-20
1.742823467e-18
8.695295349e-20
1.726400123e-18
1.046347345e-19
1.706930547e-18
1.230887177e-19
1.684276419e-18
1.421919706e-19
1.658319704e-18
1.617949529e-19
1.628967609e-18
1.817202199e-19
1.596157719e-18
2.01761513e-19
1.559863344e-18
2.216834861e-19
1.520098878e-18
2.412220925e-19
1.476925155e-18
2.60085962e-19
1.43045452e-18
2.779587481e-19
1.380855588e-18
2.945026965e-19
1.328357316e-18
3.093634286e-19
1.273252277e-18
3.22176073e-19
1.215898684e-18
3.325726144e-19
1.156720957e-18
3.40190491e-19
1.096208351e-18
3.44682085e-19
1.034911549e-18
3.457249733e-19
9.734369422e-19
3.430324352e-19
9.124387718e-19
3.363639832e-19
8.526090848e-19
3.255353112e-19
7.946658811e-19
3.104273611e-19
7.393395131e-19
2.909937971e-19
6.873578272e-19