/*--------------------------------*- C++ -*----------------------------------*\
  =========                 |
  \\      /  F ield         | OpenFOAM: The Open Source CFD Toolbox
   \\    /   O peration     | Website:  https://openfoam.org
    \\  /    A nd           | Version:  6
     \\/     M anipulation  |
\*---------------------------------------------------------------------------*/
FoamFile
{
    version     2.0;
    format      ascii;
    class       volScalarField;
    location    "0.0058";
    object      TRHS;
}
// * * * * * * * * * * * * * * * * * * * * * * * * * * * * * * * * * * * * * //

dimensions      [1 -1 -3 0 0 0 0];

internalField   nonuniform List<scalar> 
9600
(
3.395966179e-09
7.248758359e-09
7.261455185e-09
7.51243013e-09
7.550839242e-09
7.58284958e-09
7.603272141e-09
7.610573223e-09
7.601031772e-09
7.575157693e-09
7.530526778e-09
7.468426042e-09
7.3866789e-09
7.286452038e-09
7.165032841e-09
7.022952092e-09
6.856751909e-09
6.666478032e-09
6.448330861e-09
6.202253312e-09
5.92420826e-09
5.613772966e-09
5.266175201e-09
4.880362011e-09
4.451139597e-09
3.977666745e-09
3.455391331e-09
2.884414178e-09
2.260730401e-09
1.584567807e-09
8.515094794e-10
6.15101094e-11
-7.896950065e-10
-1.701052292e-09
-2.675205862e-09
-3.709213485e-09
-4.804318294e-09
-5.956652818e-09
-7.167054658e-09
-8.431015514e-09
-9.748300654e-09
-1.111229859e-08
-1.252000708e-08
-1.396136486e-08
-1.542996163e-08
-1.691241794e-08
-1.83997714e-08
-1.987670488e-08
-2.133335995e-08
-2.275406357e-08
-2.412916557e-08
-2.544291306e-08
-2.668530777e-08
-2.783953367e-08
-2.889472869e-08
-2.983384029e-08
-3.064771712e-08
-3.132279951e-08
-3.185516859e-08
-3.223650426e-08
-3.246745078e-08
-3.254255591e-08
-3.246486039e-08
-3.223169542e-08
-3.185114972e-08
-3.132754927e-08
-3.067749267e-08
-2.991296765e-08
-2.905659533e-08
-2.812402595e-08
-2.714108557e-08
-2.612756909e-08
-2.511647818e-08
-2.41374454e-08
-2.323526039e-08
-2.245088918e-08
-2.183902395e-08
-2.14483673e-08
-2.13406343e-08
-2.157219584e-08
-2.221495494e-08
-2.333826653e-08
-2.502938809e-08
-2.737349489e-08
-3.047220334e-08
-3.442174144e-08
-3.933081954e-08
-4.529925547e-08
-5.243720734e-08
-6.084546564e-08
-7.063535081e-08
-8.190902835e-08
-9.477794463e-08
-1.093421397e-07
-1.257075012e-07
-1.439656342e-07
-1.642111747e-07
-1.865226936e-07
-2.10979527e-07
-2.376432235e-07
-2.665741885e-07
-2.97815987e-07
-3.314129565e-07
-3.673960274e-07
-4.057955167e-07
-4.466213488e-07
-4.898692001e-07
-5.355029598e-07
-5.834689915e-07
-6.336891022e-07
-6.860754003e-07
-7.405209875e-07
-7.969041924e-07
-8.550753252e-07
-9.14821057e-07
-9.758173243e-07
-1.03798177e-06
-1.103427214e-06
-1.218416176e-06
-6.58069134e-07
3.33907655e-09
7.139297075e-09
7.265383868e-09
7.502288652e-09
7.551764678e-09
7.586007209e-09
7.611405312e-09
7.619384911e-09
7.614417057e-09
7.589096409e-09
7.549205749e-09
7.487809018e-09
7.411071758e-09
7.311736145e-09
7.195616865e-09
7.054598001e-09
6.89400218e-09
6.70499866e-09
6.492802674e-09
6.248200243e-09
5.976319834e-09
5.6672707e-09
5.325733319e-09
4.940957969e-09
4.517488569e-09
4.044569997e-09
3.527582277e-09
2.956265581e-09
2.33668785e-09
1.65830503e-09
9.271055828e-10
1.320476252e-10
-7.202996664e-10
-1.64020553e-09
-2.619292283e-09
-3.666506788e-09
-4.771965763e-09
-5.944133715e-09
-7.172280703e-09
-8.464387584e-09
-9.80796512e-09
-1.120907919e-08
-1.265198823e-08
-1.413978468e-08
-1.565302681e-08
-1.71920529e-08
-1.87344135e-08
-2.027879e-08
-2.180099101e-08
-2.329927869e-08
-2.474856525e-08
-2.614696609e-08
-2.74680599e-08
-2.870916803e-08
-2.984236174e-08
-3.086527991e-08
-3.175108392e-08
-3.250128807e-08
-3.309331126e-08
-3.353405224e-08
-3.380455767e-08
-3.391519899e-08
-3.384925358e-08
-3.362124751e-08
-3.321982722e-08
-3.266791936e-08
-3.196273345e-08
-3.113594019e-08
-3.019086424e-08
-2.916424358e-08
-2.80633187e-08
-2.693069224e-08
-2.578139936e-08
-2.466871586e-08
-2.361893482e-08
-2.269626008e-08
-2.193575411e-08
-2.140885845e-08
-2.115713977e-08
-2.125966676e-08
-2.176793959e-08
-2.277333645e-08
-2.434158865e-08
-2.657810593e-08
-2.956151468e-08
-3.340685946e-08
-3.819984058e-08
-4.405931768e-08
-5.107419732e-08
-5.936534116e-08
-6.902491167e-08
-8.017566136e-08
-9.291144027e-08
-1.073528455e-07
-1.235897904e-07
-1.417343199e-07
-1.618667884e-07
-1.84085612e-07
-2.084567782e-07
-2.350597684e-07
-2.639417962e-07
-2.951617077e-07
-3.28750994e-07
-3.647537698e-07
-4.031884094e-07
-4.440760325e-07
-4.874008084e-07
-5.331355946e-07
-5.812169396e-07
-6.315755153e-07
-6.841176907e-07
-7.387458826e-07
-7.953432407e-07
-8.537752809e-07
-9.138685727e-07
-9.753521044e-07
-1.038407972e-06
-1.105279845e-06
-1.22740442e-06
-6.653259614e-07
3.327773709e-09
7.114794859e-09
7.240541605e-09
7.489630145e-09
7.543253938e-09
7.58391626e-09
7.609701758e-09
7.622061246e-09
7.616333041e-09
7.594939325e-09
7.553926846e-09
7.496318117e-09
7.418227461e-09
7.322507567e-09
7.204691967e-09
7.067035394e-09
6.904346381e-09
6.718477364e-09
6.503767041e-09
6.261894486e-09
5.986726479e-09
5.679499173e-09
5.333327681e-09
4.949014186e-09
4.519343646e-09
4.045415672e-09
3.520380154e-09
2.945926082e-09
2.315303869e-09
1.63021636e-09
8.835281169e-10
7.707445656e-11
-7.95934625e-10
-1.732499068e-09
-2.738244827e-09
-3.808814794e-09
-4.949021898e-09
-6.153663856e-09
-7.426913043e-09
-8.762170531e-09
-1.016185413e-08
-1.161662923e-08
-1.312608546e-08
-1.467755828e-08
-1.626773252e-08
-1.788087293e-08
-1.951123119e-08
-2.114057434e-08
-2.27614143e-08
-2.435374185e-08
-2.590894376e-08
-2.740552943e-08
-2.883375693e-08
-3.01705883e-08
-3.140559159e-08
-3.251560136e-08
-3.349203461e-08
-3.431463425e-08
-3.497918987e-08
-3.546943586e-08
-3.578507361e-08
-3.591274948e-08
-3.585583402e-08
-3.560557992e-08
-3.517252561e-08
-3.45564607e-08
-3.377755314e-08
-3.28440084e-08
-3.178322641e-08
-3.060896924e-08
-2.935454625e-08
-2.804068012e-08
-2.670997323e-08
-2.53936863e-08
-2.414534268e-08
-2.300570183e-08
-2.20361819e-08
-2.128412179e-08
-2.081775891e-08
-2.069267504e-08
-2.098744396e-08
-2.176980875e-08
-2.313113938e-08
-2.515165357e-08
-2.793345566e-08
-3.156575524e-08
-3.615735601e-08
-4.180305304e-08
-4.861601116e-08
-5.66954927e-08
-6.615827381e-08
-7.710689945e-08
-8.96589884e-08
-1.039160566e-07
-1.199911326e-07
-1.379791072e-07
-1.579829887e-07
-1.800858551e-07
-2.043747867e-07
-2.309146196e-07
-2.597708752e-07
-2.909881649e-07
-3.24613719e-07
-3.606785368e-07
-3.992147716e-07
-4.402315988e-07
-4.837244219e-07
-5.296552366e-07
-5.779702575e-07
-6.285934331e-07
-6.814422934e-07
-7.364204975e-07
-7.934277935e-07
-8.523517733e-07
-9.130578014e-07
-9.75370204e-07
-1.039572982e-06
-1.108194336e-06
-1.233249822e-06
-6.694147682e-07
3.319959644e-09
7.095216853e-09
7.223471455e-09
7.474866151e-09
7.533647502e-09
7.575950437e-09
7.605196694e-09
7.617661743e-09
7.614435861e-09
7.59242349e-09
7.553444064e-09
7.494751276e-09
7.418247656e-09
7.320844507e-09
7.204005629e-09
7.063916435e-09
6.901502599e-09
6.712397642e-09
6.497158595e-09
6.250935649e-09
5.973867662e-09
5.660447406e-09
5.310291634e-09
4.917404896e-09
4.48137794e-09
3.996267434e-09
3.462009157e-09
2.872763222e-09
2.228498598e-09
1.52313872e-09
7.566860061e-10
-7.679781087e-11
-9.765403447e-10
-1.94764889e-09
-2.988296245e-09
-4.102869902e-09
-5.288804245e-09
-6.549812829e-09
-7.882045347e-09
-9.287490034e-09
-1.075969857e-08
-1.229789441e-08
-1.38924996e-08
-1.553995303e-08
-1.722779564e-08
-1.894990621e-08
-2.069097311e-08
-2.244224081e-08
-2.418553522e-08
-2.59096753e-08
-2.759406543e-08
-2.922567055e-08
-3.078203636e-08
-3.224896444e-08
-3.360317986e-08
-3.483097463e-08
-3.591045029e-08
-3.683070619e-08
-3.757297615e-08
-3.812996228e-08
-3.848608403e-08
-3.863778739e-08
-3.85738952e-08
-3.829728877e-08
-3.78048276e-08
-3.710907147e-08
-3.621647077e-08
-3.514864607e-08
-3.391965546e-08
-3.255837955e-08
-3.108634346e-08
-2.954143066e-08
-2.795530698e-08
-2.637661166e-08
-2.48468091e-08
-2.342285144e-08
-2.21529746e-08
-2.110064925e-08
-2.032155127e-08
-1.988833847e-08
-1.986751945e-08
-2.034326546e-08
-2.139338312e-08
-2.311220007e-08
-2.558670442e-08
-2.891932005e-08
-3.320479805e-08
-3.855261757e-08
-4.506437595e-08
-5.28552548e-08
-6.203171608e-08
-7.271173887e-08
-8.500302772e-08
-9.902204322e-08
-1.148731542e-07
-1.326666098e-07
-1.524984564e-07
-1.744667145e-07
-1.986518996e-07
-2.251317563e-07
-2.539646447e-07
-2.852057646e-07
-3.188951897e-07
-3.550730063e-07
-3.937646911e-07
-4.349868862e-07
-4.78728417e-07
-5.249570609e-07
-5.736141684e-07
-6.246307391e-07
-6.779247283e-07
-7.334108127e-07
-7.909996654e-07
-8.505995743e-07
-9.121166148e-07
-9.754000578e-07
-1.040860196e-06
-1.110900144e-06
-1.238069655e-06
-6.724344082e-07
3.315068348e-09
7.083651833e-09
7.208822201e-09
7.461520697e-09
7.52108282e-09
7.565687007e-09
7.595198908e-09
7.60921147e-09
7.605454535e-09
7.58433801e-09
7.544198988e-09
7.485759869e-09
7.407325519e-09
7.309340542e-09
7.189537776e-09
7.047813445e-09
6.881288213e-09
6.68935649e-09
6.468608444e-09
6.217914756e-09
5.933200467e-09
5.612742294e-09
5.251969401e-09
4.848913701e-09
4.398911492e-09
3.900086367e-09
3.347723696e-09
2.739828095e-09
2.071391162e-09
1.340328547e-09
5.417515566e-10
-3.25877229e-10
-1.266741519e-09
-2.28157318e-09
-3.374061337e-09
-4.544493224e-09
-5.796112349e-09
-7.12821121e-09
-8.542362637e-09
-1.003531493e-08
-1.160569957e-08
-1.324709082e-08
-1.495527755e-08
-1.67211635e-08
-1.853812523e-08
-2.039434945e-08
-2.22802347e-08
-2.418044139e-08
-2.60817342e-08
-2.79650994e-08
-2.981415275e-08
-3.160716818e-08
-3.332585352e-08
-3.494713957e-08
-3.645231657e-08
-3.781859513e-08
-3.902852372e-08
-4.006108182e-08
-4.090121018e-08
-4.153050721e-08
-4.193730051e-08
-4.21075165e-08
-4.203559701e-08
-4.171528427e-08
-4.115052624e-08
-4.034516717e-08
-3.931325843e-08
-3.806791377e-08
-3.663204741e-08
-3.502761598e-08
-3.328734878e-08
-3.144393303e-08
-2.954133996e-08
-2.762269835e-08
-2.574081096e-08
-2.394582043e-08
-2.229675356e-08
-2.085050643e-08
-1.967448449e-08
-1.883563783e-08
-1.841216287e-08
-1.848138741e-08
-1.913061509e-08
-2.044528242e-08
-2.252043222e-08
-2.544990769e-08
-2.933785309e-08
-3.428762002e-08
-4.041200207e-08
-4.782149926e-08
-5.663372792e-08
-6.69620523e-08
-7.89248545e-08
-9.263492915e-08
-1.082081501e-07
-1.25752929e-07
-1.453773477e-07
-1.67178115e-07
-1.912463191e-07
-2.176572692e-07
-2.464775324e-07
-2.777589359e-07
-3.115481482e-07
-3.478817213e-07
-3.867904104e-07
-4.282869746e-07
-4.723638484e-07
-5.189849702e-07
-5.680952334e-07
-6.196248483e-07
-6.734983424e-07
-7.296354748e-07
-7.879579692e-07
-8.483903539e-07
-9.108489458e-07
-9.752312451e-07
-1.041880499e-06
-1.113393545e-06
-1.242053539e-06
-6.750256212e-07
3.311415425e-09
7.073274844e-09
7.196133432e-09
7.447363278e-09
7.507265054e-09
7.551657048e-09
7.58164954e-09
7.595061672e-09
7.591241202e-09
7.568874606e-09
7.527949643e-09
7.467439112e-09
7.387252896e-09
7.286029007e-09
7.16319254e-09
7.016784443e-09
6.845724867e-09
6.647469152e-09
6.420300804e-09
6.160960927e-09
5.867037296e-09
5.534647477e-09
5.160998602e-09
4.742057183e-09
4.274994784e-09
3.755643942e-09
3.180865418e-09
2.546027653e-09
1.847642076e-09
1.080978248e-09
2.429529821e-10
-6.704900981e-10
-1.661700047e-09
-2.734293605e-09
-3.890449255e-09
-5.133705068e-09
-6.465737041e-09
-7.888794839e-09
-9.402207665e-09
-1.100518707e-08
-1.26936565e-08
-1.446368456e-08
-1.6308475e-08
-1.822176966e-08
-2.019434769e-08
-2.221709146e-08
-2.427709944e-08
-2.636090878e-08
-2.845086216e-08
-3.052894572e-08
-3.257346903e-08
-3.456330037e-08
-3.647449471e-08
-3.828459267e-08
-3.996900453e-08
-4.150529403e-08
-4.286928764e-08
-4.403942849e-08
-4.499286695e-08
-4.57103193e-08
-4.617256192e-08
-4.63659319e-08
-4.627885258e-08
-4.590716149e-08
-4.5249776e-08
-4.431333792e-08
-4.310718482e-08
-4.164813594e-08
-3.995579665e-08
-3.805811649e-08
-3.598678981e-08
-3.378244148e-08
-3.148878478e-08
-2.915666895e-08
-2.683769539e-08
-2.45889637e-08
-2.246815678e-08
-2.053976297e-08
-1.887067642e-08
-1.753567376e-08
-1.661158853e-08
-1.618156175e-08
-1.632919506e-08
-1.714384242e-08
-1.871646618e-08
-2.114584733e-08
-2.453428405e-08
-2.899223808e-08
-3.463231526e-08
-4.157256522e-08
-4.993038935e-08
-5.98263871e-08
-7.137942596e-08
-8.471073073e-08
-9.993876834e-08
-1.171818442e-07
-1.3655157e-07
-1.581537766e-07
-1.820816716e-07
-2.084173206e-07
-2.372276275e-07
-2.685692803e-07
-3.024883179e-07
-3.390247712e-07
-3.782077781e-07
-4.200518473e-07
-4.64546769e-07
-5.116573405e-07
-5.613268416e-07
-6.134880992e-07
-6.680676694e-07
-7.24990902e-07
-7.84186417e-07
-8.455834794e-07
-9.091175888e-07
-9.746549327e-07
-1.042622746e-06
-1.115363173e-06
-1.245690289e-06
-6.774558114e-07
3.307509263e-09
7.063119588e-09
7.182950668e-09
7.432379692e-09
7.491018835e-09
7.534755311e-09
7.563697599e-09
7.576268628e-09
7.570916457e-09
7.547067756e-09
7.503810527e-09
7.440829717e-09
7.357116052e-09
7.252022055e-09
7.124066812e-09
6.972090242e-09
6.794030413e-09
6.58811176e-09
6.351501147e-09
6.081602967e-09
5.774796766e-09
5.427908527e-09
5.037049138e-09
4.598939105e-09
4.10955969e-09
3.565301478e-09
2.961539471e-09
2.293996779e-09
1.557600693e-09
7.481459201e-10
-1.389186992e-10
-1.107071678e-09
-2.160327893e-09
-3.30202166e-09
-4.536358817e-09
-5.866700733e-09
-7.296574451e-09
-8.827530971e-09
-1.0460245e-08
-1.219275109e-08
-1.402223602e-08
-1.594368806e-08
-1.795183943e-08
-2.003940839e-08
-2.219852057e-08
-2.441838875e-08
-2.668660515e-08
-2.89869913e-08
-3.130148681e-08
-3.360853286e-08
-3.588548863e-08
-3.810717869e-08
-4.024836384e-08
-4.228207899e-08
-4.418191357e-08
-4.592006359e-08
-4.746955084e-08
-4.880233205e-08
-4.989205348e-08
-5.071279892e-08
-5.124262002e-08
-5.14625453e-08
-5.135993798e-08
-5.092666335e-08
-5.016158674e-08
-4.906797191e-08
-4.765594832e-08
-4.594023197e-08
-4.394336265e-08
-4.169371771e-08
-3.922851393e-08
-3.659061683e-08
-3.383005072e-08
-3.099973506e-08
-2.815706907e-08
-2.536099884e-08
-2.2675392e-08
-2.01673025e-08
-1.791011427e-08
-1.598043552e-08
-1.445958653e-08
-1.342985251e-08
-1.297687331e-08
-1.318803643e-08
-1.415686397e-08
-1.598214061e-08
-1.877107362e-08
-2.26360458e-08
-2.769538879e-08
-3.406911436e-08
-4.188016021e-08
-5.125173245e-08
-6.230976372e-08
-7.518064659e-08
-8.999234136e-08
-1.068700222e-07
-1.259348113e-07
-1.472981791e-07
-1.710604854e-07
-1.973070711e-07
-2.261097062e-07
-2.575266947e-07
-2.916071786e-07
-3.283911053e-07
-3.679085086e-07
-4.101718764e-07
-4.551701851e-07
-5.028657458e-07
-5.532015845e-07
-6.061101382e-07
-6.615199917e-07
-7.193590748e-07
-7.795583888e-07
-8.420540348e-07
-9.067688417e-07
-9.736033796e-07
-1.042863135e-06
-1.117176017e-06
-1.248999117e-06
-6.798531611e-07
3.303299523e-09
7.051853106e-09
7.16869813e-09
7.415478612e-09
7.472377466e-09
7.514376929e-09
7.541730591e-09
7.552368989e-09
7.544974647e-09
7.518504353e-09
7.472292116e-09
7.405537616e-09
7.317479165e-09
7.206985883e-09
7.072861248e-09
6.913461905e-09
6.727011277e-09
6.51112957e-09
6.263168473e-09
5.979814423e-09
5.657629853e-09
5.292781394e-09
4.881591391e-09
4.420098941e-09
3.904373365e-09
3.329868221e-09
2.691793701e-09
1.984808046e-09
1.203732869e-09
3.433534034e-10
-6.00923952e-10
-1.633709678e-09
-2.759353295e-09
-3.982680465e-09
-5.308403218e-09
-6.741292029e-09
-8.284980957e-09
-9.94192303e-09
-1.171245632e-08
-1.359537278e-08
-1.558762679e-08
-1.768527217e-08
-1.988294239e-08
-2.217425584e-08
-2.455060729e-08
-2.70011698e-08
-2.95117187e-08
-3.206509238e-08
-3.464064315e-08
-3.721529589e-08
-3.976332264e-08
-4.225750586e-08
-4.466879525e-08
-4.696729266e-08
-4.912167068e-08
-5.109998849e-08
-5.286911527e-08
-5.439592111e-08
-5.564742158e-08
-5.659289831e-08
-5.720468312e-08
-5.7460379e-08
-5.734297596e-08
-5.684208006e-08
-5.595304852e-08
-5.467786808e-08
-5.302449289e-08
-5.100846301e-08
-4.865281862e-08
-4.598977451e-08
-4.305971481e-08
-3.991120556e-08
-3.659832263e-08
-3.317984085e-08
-2.971728046e-08
-2.627583106e-08
-2.292421512e-08
-1.97361553e-08
-1.678930732e-08
-1.416490208e-08
-1.194537237e-08
-1.021436486e-08
-9.056479469e-09
-8.560143083e-09
-8.819307429e-09
-9.936174556e-09
-1.202059439e-08
-1.518954866e-08
-1.95642125e-08
-2.526908737e-08
-3.24305422e-08
-4.117810765e-08
-5.16443111e-08
-6.396535997e-08
-7.827864537e-08
-9.472028331e-08
-1.1342018e-07
-1.344985445e-07
-1.580618797e-07
-1.842016392e-07
-2.129935687e-07
-2.444999406e-07
-2.787714838e-07
-3.158491311e-07
-3.557613904e-07
-3.985187934e-07
-4.441069481e-07
-4.924856705e-07
-5.435954533e-07
-5.97367861e-07
-6.537311748e-07
-7.126137184e-07
-7.739485046e-07
-8.376670162e-07
-9.037053317e-07
-9.719126918e-07
-1.042705343e-06
-1.11841811e-06
-1.252217974e-06
-6.822659879e-07
3.298432156e-09
7.039160385e-09
7.152601211e-09
7.396355395e-09
7.4508141e-09
7.490532057e-09
7.515461225e-09
7.523554271e-09
7.513227742e-09
7.483436978e-09
7.433258329e-09
7.361873446e-09
7.26826977e-09
7.151320142e-09
7.009586558e-09
6.841448876e-09
6.64480394e-09
6.417206746e-09
6.15557751e-09
5.856484699e-09
5.516065369e-09
5.130420872e-09
4.695450069e-09
4.207030479e-09
3.660576443e-09
3.05112296e-09
2.373080176e-09
1.620673791e-09
7.879465933e-10
-1.306627597e-10
-1.140643566e-09
-2.24725075e-09
-3.456090669e-09
-4.772900061e-09
-6.203667192e-09
-7.753760708e-09
-9.42758498e-09
-1.122772946e-08
-1.315509479e-08
-1.520874346e-08
-1.738658278e-08
-1.968522056e-08
-2.210022182e-08
-2.462519001e-08
-2.725144872e-08
-2.996696496e-08
-3.275635605e-08
-3.560047121e-08
-3.847701321e-08
-4.136051068e-08
-4.422304584e-08
-4.70341448e-08
-4.976138281e-08
-5.237017e-08
-5.482426721e-08
-5.708554687e-08
-5.911471248e-08
-6.087162109e-08
-6.231692348e-08
-6.341330041e-08
-6.412764163e-08
-6.443203057e-08
-6.430509051e-08
-6.373185086e-08
-6.270438993e-08
-6.122157166e-08
-5.929024047e-08
-5.692567321e-08
-5.415318223e-08
-5.100814153e-08
-4.753611092e-08
-4.37908692e-08
-3.983278236e-08
-3.572653692e-08
-3.154066156e-08
-2.734727618e-08
-2.322289678e-08
-1.924798542e-08
-1.550609636e-08
-1.208166893e-08
-9.058808376e-09
-6.520762487e-09
-4.552039745e-09
-3.241063865e-09
-2.683720096e-09
-2.984551485e-09
-4.256948675e-09
-6.620720107e-09
-1.020052286e-08
-1.512418972e-08
-2.152357e-08
-2.953528068e-08
-3.930205814e-08
-5.097157374e-08
-6.469409197e-08
-8.061756965e-08
-9.888309908e-08
-1.196201e-07
-1.429434502e-07
-1.68951452e-07
-1.977258604e-07
-2.293329674e-07
-2.638256964e-07
-3.012444509e-07
-3.416153152e-07
-3.849446159e-07
-4.312134041e-07
-4.803768112e-07
-5.323716597e-07
-5.871264838e-07
-6.445675808e-07
-7.046223983e-07
-7.672217145e-07
-8.323013244e-07
-8.99778128e-07
-9.6954592e-07
-1.041877688e-06
-1.119509756e-06
-1.25515461e-06
-6.847123549e-07
3.29282044e-09
7.02459722e-09
7.134341668e-09
7.37455762e-09
7.426139154e-09
7.462945393e-09
7.4848746e-09
7.489698977e-09
7.475759577e-09
7.441825142e-09
7.386876567e-09
7.309882752e-09
7.209745981e-09
7.085164786e-09
6.934632746e-09
6.756303661e-09
6.547935817e-09
6.306746129e-09
6.029441958e-09
5.712237292e-09
5.351105771e-09
4.941794942e-09
4.479989461e-09
3.961013575e-09
3.379814294e-09
2.730681326e-09
2.007478516e-09
1.203695556e-09
3.129153642e-10
-6.712167086e-10
-1.754919968e-09
-2.944629742e-09
-4.247058837e-09
-5.669277772e-09
-7.218200449e-09
-8.900066516e-09
-1.071969681e-08
-1.268023593e-08
-1.478308034e-08
-1.702828807e-08
-1.941473224e-08
-2.194024083e-08
-2.460098929e-08
-2.739086161e-08
-3.030051502e-08
-3.331694477e-08
-3.642317197e-08
-3.959854805e-08
-4.281886802e-08
-4.605671881e-08
-4.928144209e-08
-5.245929905e-08
-5.555342246e-08
-5.852406603e-08
-6.132868212e-08
-6.392234842e-08
-6.62582069e-08
-6.82885844e-08
-6.996639545e-08
-7.124713455e-08
-7.209057074e-08
-7.246235176e-08
-7.233473762e-08
-7.16873182e-08
-7.050726833e-08
-6.879024948e-08
-6.65412727e-08
-6.377616021e-08
-6.052251077e-08
-5.682014701e-08
-5.272023637e-08
-4.828333728e-08
-4.357707996e-08
-3.86742737e-08
-3.365219743e-08
-2.859248819e-08
-2.358099081e-08
-1.870646065e-08
-1.405836445e-08
-9.724469502e-09
-5.789557145e-09
-2.336376452e-09
5.514364169e-10
2.785198952e-09
4.267960663e-09
4.893009399e-09
4.545001082e-09
3.1018034e-09
4.364633468e-10
-3.583017526e-09
-9.094927532e-09
-1.624595808e-08
-2.519161066e-08
-3.609448047e-08
-4.911976353e-08
-6.442973195e-08
-8.217805059e-08
-1.025056112e-07
-1.255375402e-07
-1.513814148e-07
-1.801265392e-07
-2.118442054e-07
-2.465890253e-07
-2.843996395e-07
-3.252974886e-07
-3.692824991e-07
-4.163286486e-07
-4.663843177e-07
-5.19380222e-07
-5.752398517e-07
-6.338856835e-07
-6.952421675e-07
-7.592405009e-07
-8.258103443e-07
-8.948871823e-07
-9.663080104e-07
-1.040496804e-06
-1.11985587e-06
-1.257969275e-06
-6.871686574e-07
3.286321223e-09
7.007969593e-09
7.113616988e-09
7.349874676e-09
7.398082956e-09
7.431489301e-09
7.449840095e-09
7.450791723e-09
7.432564029e-09
7.393769743e-09
7.333212083e-09
7.249737758e-09
7.142078801e-09
7.008831464e-09
6.848304409e-09
6.658478425e-09
6.436853623e-09
6.18037758e-09
5.885423523e-09
5.547983496e-09
5.163721635e-09
4.728158573e-09
4.236504013e-09
3.68362424e-09
3.063751459e-09
2.370552272e-09
1.597152577e-09
7.364998172e-10
-2.185484585e-10
-1.275080276e-09
-2.440408614e-09
-3.722159471e-09
-5.128462514e-09
-6.667578508e-09
-8.347484325e-09
-1.017508658e-08
-1.21558413e-08
-1.429353365e-08
-1.659057049e-08
-1.904826588e-08
-2.166700312e-08
-2.444581392e-08
-2.738166023e-08
-3.046840271e-08
-3.369611384e-08
-3.70506633e-08
-4.051387288e-08
-4.406365928e-08
-4.767429592e-08
-5.131623212e-08
-5.495597307e-08
-5.855580858e-08
-6.207386661e-08
-6.546422001e-08
-6.867726925e-08
-7.166015079e-08
-7.43575984e-08
-7.671312279e-08
-7.867084859e-08
-8.017742238e-08
-8.118403441e-08
-8.164781659e-08
-8.153310294e-08
-8.081219071e-08
-7.946643858e-08
-7.748737567e-08
-7.487824504e-08
-7.16555187e-08
-6.784992889e-08
-6.350661742e-08
-5.868363979e-08
-5.344978218e-08
-4.788179829e-08
-4.206288203e-08
-3.608166888e-08
-3.003185248e-08
-2.401067909e-08
-1.811642263e-08
-1.244498401e-08
-7.08720565e-09
-2.128248916e-09
2.350346966e-09
6.26629089e-09
9.531793389e-09
1.204995921e-08
1.371385969e-08
1.440762577e-08
1.400851318e-08
1.238749734e-08
9.408037346e-09
4.923168477e-09
-1.226634316e-09
-9.213290706e-09
-1.921734221e-08
-3.142187566e-08
-4.600559894e-08
-6.313737238e-08
-8.297227548e-08
-1.056490126e-07
-1.312875255e-07
-1.599868521e-07
-1.918240567e-07
-2.268545305e-07
-2.651130892e-07
-3.066136272e-07
-3.513466028e-07
-3.99275737e-07
-4.503395028e-07
-5.044594828e-07
-5.615514833e-07
-6.215319647e-07
-6.843224085e-07
-7.498512031e-07
-8.180558463e-07
-8.888540934e-07
-9.621461531e-07
-1.03819476e-06
-1.11992229e-06
-1.260330226e-06
-6.89599521e-07
3.278838543e-09
6.989003565e-09
7.090199223e-09
7.322048022e-09
7.366489147e-09
7.396022263e-09
7.410279558e-09
7.406810654e-09
7.383661848e-09
7.339302751e-09
7.272395211e-09
7.181595362e-09
7.065528014e-09
6.922594536e-09
6.750985093e-09
6.548416098e-09
6.312116216e-09
6.038721819e-09
5.724341775e-09
5.364656201e-09
4.955094365e-09
4.490790608e-09
3.966529814e-09
3.376516288e-09
2.714319917e-09
1.972867483e-09
1.144651122e-09
2.219192243e-10
-8.031865228e-10
-1.938757117e-09
-3.193272458e-09
-4.575804194e-09
-6.095842993e-09
-7.762940492e-09
-9.585995639e-09
-1.157273035e-08
-1.37293385e-08
-1.606066637e-08
-1.857051423e-08
-2.126194073e-08
-2.41370036e-08
-2.719611121e-08
-3.043686372e-08
-3.385313468e-08
-3.743442453e-08
-4.116584967e-08
-4.502833156e-08
-4.899883025e-08
-5.305017107e-08
-5.715066007e-08
-6.126350585e-08
-6.534653714e-08
-6.935212709e-08
-7.322747887e-08
-7.691501655e-08
-8.035302855e-08
-8.347659809e-08
-8.621911224e-08
-8.851413305e-08
-9.02976143e-08
-9.150985742e-08
-9.209735195e-08
-9.201423844e-08
-9.122385354e-08
-8.970034852e-08
-8.743044815e-08
-8.441548303e-08
-8.067291712e-08
-7.623757438e-08
-7.116094794e-08
-6.550965799e-08
-5.936232924e-08
-5.280732685e-08
-4.594081522e-08
-3.886593596e-08
-3.169114458e-08
-2.452745436e-08
-1.748415123e-08
-1.066445836e-08
-4.162664997e-09
1.935845529e-09
7.551303889e-09
1.260425937e-08
1.700991321e-08
2.06742614e-08
2.349277999e-08
2.53514804e-08
2.612831951e-08
2.569273105e-08
2.390265526e-08
2.060032342e-08
1.560999694e-08
8.739669111e-09
-2.128457623e-10
-1.145162826e-08
-2.517496136e-08
-4.157020051e-08
-6.081085034e-08
-8.305385687e-08
-1.084356806e-07
-1.370678314e-07
-1.690336341e-07
-2.04387869e-07
-2.431583852e-07
-2.853477991e-07
-3.309326911e-07
-3.798622599e-07
-4.320606812e-07
-4.874365653e-07
-5.458946403e-07
-6.07343655e-07
-6.71700458e-07
-7.388958723e-07
-8.088646186e-07
-8.815542001e-07
-9.568071389e-07
-1.035081771e-06
-1.118921477e-06
-1.262351272e-06
-6.919288433e-07
3.270251507e-09
6.967537547e-09
7.063897986e-09
7.290925598e-09
7.331202917e-09
7.356434755e-09
7.366136019e-09
7.357705077e-09
7.329072307e-09
7.278522e-09
7.204541089e-09
7.105655523e-09
6.980327305e-09
6.826812638e-09
6.643077299e-09
6.426611731e-09
6.174314819e-09
5.882534686e-09
5.547054594e-09
5.163328778e-09
4.726439716e-09
4.23114136e-09
3.671655273e-09
3.041537711e-09
2.333610476e-09
1.540089802e-09
6.527592167e-10
-3.368394023e-10
-1.437474527e-09
-2.658333568e-09
-4.009299066e-09
-5.500896877e-09
-7.144073383e-09
-8.949556199e-09
-1.092724546e-08
-1.308575081e-08
-1.543238685e-08
-1.797345026e-08
-2.071465661e-08
-2.366109688e-08
-2.681674447e-08
-3.018328365e-08
-3.375901141e-08
-3.75378519e-08
-4.150913193e-08
-4.565768178e-08
-4.996414689e-08
-5.440486097e-08
-5.895139106e-08
-6.356966737e-08
-6.82192985e-08
-7.285312308e-08
-7.741726768e-08
-8.185138286e-08
-8.608912409e-08
-9.005878552e-08
-9.368442701e-08
-9.688745366e-08
-9.958879582e-08
-1.017111477e-07
-1.031813227e-07
-1.039323974e-07
-1.039059067e-07
-1.030542002e-07
-1.013427333e-07
-9.875275159e-08
-9.528338741e-08
-9.095385603e-08
-8.580379748e-08
-7.989271767e-08
-7.32971362e-08
-6.610786618e-08
-5.842728482e-08
-5.0367866e-08
-4.205050048e-08
-3.360168595e-08
-2.514892228e-08
-1.681482604e-08
-8.71177842e-09
-9.387703001e-10
6.418107446e-09
1.328183694e-08
1.957839701e-08
2.523016618e-08
3.015063366e-08
3.424158019e-08
3.739342018e-08
3.948607522e-08
4.03878979e-08
3.995055458e-08
3.800353743e-08
3.435155564e-08
2.877838386e-08
2.105573311e-08
1.095438719e-08
-1.747539146e-09
-1.726061981e-08
-3.57826839e-08
-5.749544718e-08
-8.255753535e-08
-1.110961702e-07
-1.432012337e-07
-1.789244112e-07
-2.182824455e-07
-2.612612333e-07
-3.078178258e-07
-3.5788086e-07
-4.113545638e-07
-4.681292603e-07
-5.2809495e-07
-5.911500768e-07
-6.572080662e-07
-7.261994306e-07
-7.980742511e-07
-8.727677434e-07
-9.502088258e-07
-1.03067762e-06
-1.117367904e-06
-1.263561204e-06
-6.940692193e-07
3.260482334e-09
6.943317418e-09
7.034520319e-09
7.256320633e-09
7.292082866e-09
7.312632209e-09
7.31735077e-09
7.303498075e-09
7.268833907e-09
7.211489121e-09
7.129801494e-09
7.022128384e-09
6.88677215e-09
6.721836353e-09
6.525040548e-09
6.293595046e-09
6.024100968e-09
5.712573508e-09
5.354545985e-09
4.94512677e-09
4.479098208e-09
3.950726914e-09
3.353645955e-09
2.680678928e-09
1.923927882e-09
1.074863833e-09
1.245612255e-10
-9.363000156e-10
-2.117494305e-09
-3.429531306e-09
-4.883736969e-09
-6.49218974e-09
-8.267183216e-09
-1.022066582e-08
-1.236358118e-08
-1.470572428e-08
-1.72558971e-08
-2.002240903e-08
-2.301324988e-08
-2.623586035e-08
-2.969609889e-08
-3.339702887e-08
-3.733764216e-08
-4.151232725e-08
-4.591077041e-08
-5.051828114e-08
-5.531579804e-08
-6.027947279e-08
-6.537965509e-08
-7.057983229e-08
-7.583572512e-08
-8.10949477e-08
-8.629696126e-08
-9.137332995e-08
-9.624802296e-08
-1.008380968e-07
-1.050547899e-07
-1.088053793e-07
-1.119954189e-07
-1.145313665e-07
-1.163232911e-07
-1.172877019e-07
-1.173507846e-07
-1.164515114e-07
-1.145452706e-07
-1.116067314e-07
-1.076330369e-07
-1.026453045e-07
-9.668927967e-08
-8.983339374e-08
-8.216601258e-08
-7.379220377e-08
-6.48314778e-08
-5.54160972e-08
-4.568849875e-08
-3.579703539e-08
-2.588939073e-08
-1.610534004e-08
-6.570004483e-09
2.60998383e-09
1.134661217e-08
1.956707998e-08
2.720750897e-08
3.420477348e-08
4.048721148e-08
4.596812566e-08
5.054436746e-08
5.409883747e-08
5.64992689e-08
5.759173456e-08
5.719177723e-08
5.508158386e-08
5.101541768e-08
4.473297689e-08
3.597389378e-08
2.448743326e-08
1.003375621e-08
-7.617199363e-09
-2.868103995e-08
-5.334633727e-08
-8.1760077e-08
-1.140186297e-07
-1.501669043e-07
-1.902044627e-07
-2.340931822e-07
-2.817625637e-07
-3.33112722e-07
-3.880202207e-07
-4.463509155e-07
-5.079751403e-07
-5.727792189e-07
-6.406716061e-07
-7.115895801e-07
-7.854868511e-07
-8.623431487e-07
-9.420322413e-07
-1.025080796e-06
-1.114261974e-06
-1.264020157e-06
-6.95882391e-07
3.24939558e-09
6.916208335e-09
7.001913193e-09
7.218108498e-09
7.249036571e-09
7.264543187e-09
7.263881646e-09
7.2441664e-09
7.202996079e-09
7.138329881e-09
7.048336333e-09
6.931237872e-09
6.785178784e-09
6.608051477e-09
6.397333795e-09
6.149950042e-09
5.862173287e-09
5.529713922e-09
5.147806419e-09
4.711281488e-09
4.21448543e-09
3.651196543e-09
3.014367227e-09
2.296117606e-09
1.487793833e-09
5.801409394e-10
-4.365985635e-10
-1.57265928e-09
-2.839035837e-09
-4.247622101e-09
-5.81131146e-09
-7.543655995e-09
-9.458335256e-09
-1.15684573e-08
-1.388624392e-08
-1.642298495e-08
-1.918952326e-08
-2.219658648e-08
-2.54548633e-08
-2.89741992e-08
-3.276245602e-08
-3.682402966e-08
-4.115900452e-08
-4.576275848e-08
-5.062620477e-08
-5.573590335e-08
-6.107378565e-08
-6.661614211e-08
-7.233230252e-08
-7.818329334e-08
-8.412101069e-08
-9.008775503e-08
-9.601616342e-08
-1.018291335e-07
-1.074400101e-07
-1.127530366e-07
-1.176646141e-07
-1.220651685e-07
-1.258417178e-07
-1.288808748e-07
-1.310721531e-07
-1.323120284e-07
-1.325079925e-07
-1.315833931e-07
-1.294814139e-07
-1.261694584e-07
-1.216419543e-07
-1.159224285e-07
-1.090629925e-07
-1.011421673e-07
-9.226166053e-08
-8.254331928e-08
-7.212724333e-08
-6.116936396e-08
-4.983811023e-08
-3.830829245e-08
-2.675343418e-08
-1.533655453e-08
-4.201928661e-09
6.530843586e-09
1.676936474e-08
2.644718751e-08
3.551864498e-08
4.394719273e-08
5.168806539e-08
5.867234406e-08