/*--------------------------------*- C++ -*----------------------------------*\
  =========                 |
  \\      /  F ield         | OpenFOAM: The Open Source CFD Toolbox
   \\    /   O peration     | Website:  https://openfoam.org
    \\  /    A nd           | Version:  10
     \\/     M anipulation  |
\*---------------------------------------------------------------------------*/
FoamFile
{
    format      ascii;
    class       surfaceScalarField;
    location    "0.0005";
    object      phi;
}
// * * * * * * * * * * * * * * * * * * * * * * * * * * * * * * * * * * * * * //

dimensions      [0 3 -1 0 0 0 0];

internalField   nonuniform List<scalar> 
7080
(
-6.432348943e-22
7.281433685e-23
-7.003213446e-22
5.708700185e-23
-7.435151643e-22
4.319448128e-23
-7.745413423e-22
3.102688686e-23
-7.95003125e-22
2.046254741e-23
-8.063759854e-22
1.137366541e-23
-8.100057762e-22
3.630621378e-24
-8.071100935e-22
-2.894806791e-24
-7.98782036e-22
-8.327098984e-24
-7.859956543e-22
-1.278531171e-23
-7.696125485e-22
-1.638190846e-23
-7.503892168e-22
-1.922200048e-23
-7.289848343e-22
-2.140291967e-23
-7.059691947e-22
-2.301405472e-23
-6.818306177e-22
-2.413688795e-23
-6.569836912e-22
-2.484517254e-23
-6.317767362e-22
-2.520520092e-23
-6.064988841e-22
-2.527614735e-23
-5.81386723e-22
-2.511048863e-23
-5.56630531e-22
-2.475448406e-23
-5.323800863e-22
-2.424866086e-23
-5.087499905e-22
-2.362826401e-23
-4.85824474e-22
-2.292368367e-23
-4.636617393e-22
-2.216089722e-23
-4.422979198e-22
-2.136192646e-23
-4.217506677e-22
-2.054526747e-23
-4.020223398e-22
-1.972626293e-23
-3.831027812e-22
-1.891743662e-23
-3.649717679e-22
-1.812882779e-23
-3.476011714e-22
-1.736832662e-23
-3.309568543e-22
-1.664197497e-23
-3.15000278e-22
-1.595420994e-23
-2.996898497e-22
-1.530807002e-23
-2.849820845e-22
-1.470539627e-23
-2.708326287e-22
-1.414703368e-23
-2.571971292e-22
-1.363301109e-23
-2.44031911e-22
-1.31626874e-23
-2.312944745e-22
-1.273487911e-23
-2.189438827e-22
-1.234798667e-23
-2.069410971e-22
-1.200010757e-23
-1.952492561e-22
-1.168910807e-23
-1.838338504e-22
-1.141265783e-23
-1.726627957e-22
-1.11682758e-23
-1.61706467e-22
-1.095342498e-23
-1.509377392e-22
-1.076562588e-23
-1.403319897e-22
-1.060251439e-23
-1.298669995e-22
-1.046181163e-23
-1.19522767e-22
-1.034126367e-23
-1.092813316e-22
-1.023864595e-23
-9.912669105e-23
-1.015185576e-23
-8.904477857e-23
-1.007900772e-23
-7.902337312e-23
-1.001843187e-23
-6.905186688e-23
-9.968592438e-24
-5.912097235e-23
-9.928055646e-24
-4.922252572e-23
-9.895563152e-24
-3.934942155e-23
-9.870088844e-24
-2.949557187e-23
-9.850776891e-24
-1.965577342e-23
-9.836884898e-24
-9.825370612e-24
-9.82772616e-24
-9.822159737e-24
-6.589622293e-22
1.437039388e-22
-7.142138652e-22
1.123398231e-22
-7.556827587e-22
8.466468223e-23
-7.851056817e-22
6.045121351e-23
-8.04092007e-22
3.945035577e-23
-8.141190294e-22
2.14022382e-23
-8.165312044e-22
6.044444891e-24
-8.125423857e-22
-6.881828367e-24
-8.032402488e-22
-1.762725128e-23
-7.895922511e-22
-2.64311138e-23
-7.724526405e-22
-3.351909653e-23
-7.52570136e-22
-3.910185434e-23
-7.305959694e-22
-4.337424226e-23
-7.070920279e-22
-4.651503516e-23
-6.825389023e-22
-4.868701851e-23
-6.573437196e-22
-5.003736325e-23
-6.318476826e-22
-5.069823033e-23
-6.063332253e-22
-5.07875487e-23
-5.810307185e-22
-5.040988704e-23
-5.561247078e-22
-4.965735308e-23
-5.317596895e-22
-4.861050841e-23
-5.080454102e-22
-4.73393124e-23
-4.850616876e-22
-4.590407653e-23
-4.628627685e-22
-4.435637836e-23
-4.414812608e-22
-4.273990472e-23
-4.209316632e-22
-4.109124272e-23
-4.012135135e-22
-3.944065424e-23
-3.823141724e-22
-3.781283298e-23
-3.642112667e-22
-3.622760281e-23
-3.468748197e-22
-3.470052514e-23
-3.302690893e-22
-3.324343013e-23
-3.14354138e-22
-3.186491005e-23
-2.99087176e-22
-3.057078987e-23
-2.844237219e-22
-2.936455848e-23
-2.703186061e-22
-2.824774705e-23
-2.567268055e-22
-2.722026462e-23
-2.436041027e-22
-2.628070715e-23
-2.30907582e-22
-2.542663233e-23
-2.185960036e-22
-2.465477652e-23
-2.066300976e-22
-2.396121468e-23
-1.949728058e-22
-2.334150665e-23
-1.835894684e-22
-2.2790871e-23
-1.724479448e-22
-2.230437106e-23
-1.615186679e-22
-2.187705437e-23
-1.507746278e-22
-2.150401157e-23
-1.401912869e-22
-2.118038569e-23
-1.297464516e-22
-2.090139564e-23
-1.194201493e-22
-2.066241093e-23
-1.091945414e-22
-2.045905588e-23
-9.905384302e-23
-2.028728075e-23
-8.898420272e-23
-2.014335714e-23
-7.897353369e-23
-2.002383324e-23
-6.901133009e-23
-1.992553946e-23
-5.908847985e-23
-1.984566456e-23
-4.919705141e-23
-1.978178575e-23
-3.93301096e-23
-1.973178172e-23
-2.948167988e-23
-1.969381839e-23
-1.964661468e-23
-1.966650946e-23
-9.81980419e-24
-1.964874257e-23
-1.964012681e-23
-6.903263451e-22
2.107134781e-22
-7.41889006e-22
1.63903589e-22
-7.798962274e-22
1.226731402e-22
-8.061065395e-22
8.666285072e-23
-8.221401246e-22
5.548532025e-23
-8.294768228e-22
2.874036808e-23
-8.294574776e-22
6.026617746e-24
-8.232878086e-22
-1.304985322e-23
-8.120441113e-22
-2.886915467e-23
-7.966802338e-22
-4.179304391e-23
-7.780353983e-22
-5.216184507e-23
-7.568425239e-22
-6.029253245e-23
-7.337367623e-22
-6.647773346e-23
-7.092640113e-22
-7.098545666e-23
-6.83889247e-22
-7.405937866e-23
-6.580045867e-22
-7.591953155e-23
-6.31937001e-22
-7.67632675e-23
-6.059555637e-22
-7.676643334e-23
-5.802781845e-22
-7.608470985e-23
-5.550778632e-22
-7.485505056e-23
-5.304884935e-22
-7.319714022e-23
-5.066101743e-22
-7.121481597e-23
-4.835139894e-22
-6.899744055e-23
-4.612462949e-22
-6.662124831e-23
-4.398325988e-22
-6.415067078e-23
-4.192810747e-22
-6.163961076e-23
-3.995856922e-22
-5.913262272e-23
-3.807289422e-22
-5.666598545e-23
-3.626841891e-22
-5.426868284e-23
-3.454177247e-22
-5.196331221e-23
-3.288905692e-22
-4.97669265e-23
-3.130600179e-22
-4.769180761e-23
-2.978809446e-22
-4.574616915e-23
-2.833069105e-22
-4.393478948e-23
-2.692911236e-22
-4.225957542e-23
-2.55787248e-22
-4.07200549e-23
-2.427500279e-22
-3.931380447e-23
-2.301357262e-22
-3.803683082e-23
-2.179024417e-22
-3.68839212e-23
-2.060103895e-22
-3.584895466e-23
-1.944221702e-22
-3.49251559e-23
-1.831029684e-22
-3.410529465e-23
-1.720206282e-22
-3.338185944e-23
-1.611456251e-22
-3.274723054e-23
-1.504510019e-22
-3.21938425e-23
-1.399122968e-22
-3.171430025e-23
-1.295074669e-22
-3.130143352e-23
-1.192167942e-22
-3.094833007e-23
-1.090227662e-22
-3.064840688e-23
-9.890991941e-23
-3.039551178e-23
-8.886467882e-23
-3.018397729e-23
-7.887523991e-23
-3.000859716e-23
-6.893145519e-23
-2.986461296e-23
-5.902460104e-23
-2.974777601e-23
-4.914704739e-23
-2.965440525e-23
-3.929214627e-23
-2.958140002e-23
-2.945437094e-23
-2.952630038e-23
-1.962884779e-23
-2.948711883e-23
-9.81118843e-24
-2.946169888e-23
-2.944929685e-23
-7.371362342e-22
2.718326347e-22
-7.831194548e-22
2.098879979e-22
-8.159065169e-22
1.554615369e-22
-8.372840699e-22
1.080417997e-22
-8.488850767e-22
6.708776188e-23
-8.521905731e-22
3.204736489e-23
-8.485339486e-22
2.37158316e-24
-8.391071101e-22
-2.247501437e-23
-8.249680005e-22
-4.300651329e-23
-8.070490349e-22
-5.971018753e-23
-7.861660857e-22
-7.304288415e-23
-7.630277249e-22
-8.342887683e-23
-7.382444855e-22
-9.125886186e-23
-7.123379333e-22
-9.688984308e-23
-6.857493999e-22
-1.006457087e-22
-6.588483227e-22
-1.028183257e-22
-6.319401669e-22
-1.036690012e-22
-6.052738402e-22
-1.03430194e-22
-5.790485252e-22
-1.023073762e-22
-5.534199528e-22
-1.00480969e-22
-5.285061692e-22
-9.81083031e-23
-5.043927989e-22
-9.532557513e-23
-4.811377972e-22
-9.224976952e-23
-4.587757174e-22
-8.898051486e-23
-4.373215388e-22
-8.560184785e-23
-4.167740866e-22
-8.218387015e-23
-3.97119055e-22
-7.878429783e-23
-3.783316396e-22
-7.544991051e-23
-3.603788184e-22
-7.221789734e-23
-3.43221339e-22
-6.911708549e-23
-3.268154503e-22
-6.616904546e-23
-3.111143794e-22
-6.338908996e-23
-2.960695649e-22
-6.078719023e-23
-2.816316964e-22
-5.836881963e-23
-2.677516031e-22
-5.613571672e-23
-2.543809976e-22
-5.408655487e-23
-2.414730542e-22
-5.221751632e-23
-2.289828166e-22
-5.052278542e-23
-2.168674752e-22
-4.899497939e-23
-2.050865908e-22
-4.762552793e-23
-1.936023089e-22
-4.640500967e-23
-1.823795332e-22
-4.53234537e-23
-1.713859993e-22
-4.437060572e-23
-1.605922371e-22
-4.353614658e-23
-1.499714596e-22
-4.280985415e-23
-1.394994301e-22
-4.218171411e-23
-1.291543634e-22
-4.164200165e-23
-1.18916871e-22
-4.118136722e-23
-1.087698712e-22
-4.079094841e-23
-9.869838492e-23
-4.046248466e-23
-8.868929869e-23
-4.018838188e-23
-7.873125571e-23
-3.996171902e-23
-6.881461823e-23
-3.977623977e-23
-5.893123028e-23
-3.962633156e-23
-4.907404215e-23
-3.950699587e-23
-3.923704662e-23
-3.941396183e-23
-2.94151894e-23
-3.934386122e-23
-1.960342783e-23
-3.929378778e-23
-9.798786403e-24
-3.926149756e-23
-3.924573785e-23
-7.99080871e-22
3.249759949e-22
-8.375459158e-22
2.483542988e-22
-8.633262541e-22
1.812432677e-22
-8.782381078e-22
1.229550861e-22
-8.839254737e-22
7.277659787e-23
-8.818663548e-22
2.998976567e-23
-8.733805461e-22
-6.112654316e-24
-8.59638609e-22
-3.621532568e-23
-8.416716748e-22
-6.097175696e-23
-8.203817316e-22
-8.099836927e-23
-7.965520784e-22
-9.687070455e-23
-7.7085771e-22
-1.091213349e-22
-7.438754667e-22
-1.182391025e-22
-7.160937989e-22
-1.246693998e-22
-6.879220168e-22
-1.288152487e-22
-6.596989982e-22
-1.310389499e-22
-6.317013596e-22
-1.31664113e-22
-6.041510224e-22
-1.309779432e-22
-5.77222118e-22
-1.292336959e-22
-5.51047287e-22
-1.266532235e-22
-5.257234412e-22
-1.234295412e-22
-5.013169933e-22
-1.197293486e-22
-4.778685425e-22
-1.156954602e-22
-4.553970504e-22
-1.114491324e-22
-4.339035611e-22
-1.070922893e-22
-4.133745143e-22
-1.027096336e-22
-3.937846677e-22
-9.837061573e-23
-3.750996265e-22
-9.413124297e-23
-3.572780066e-22
-9.003572899e-23
-3.40273299e-22
-8.611799762e-23
-3.240354948e-22
-8.240306005e-23
-3.085124797e-22
-7.890828381e-23
-2.936511943e-22
-7.564456011e-23
-2.793985935e-22
-7.261735987e-23
-2.657024413e-22
-6.982766333e-23
-2.525119591e-22
-6.727275586e-23
-2.397783233e-22
-6.494690558e-23
-2.274550106e-22
-6.284196064e-23
-2.154980237e-22
-6.09478995e-23
-2.038660725e-22
-5.925333724e-23
-1.92520753e-22
-5.774596863e-23
-1.814266853e-22
-5.641293004e-23
-1.705515401e-22
-5.52410763e-23
-1.598659447e-22
-5.421718872e-23
-1.493433196e-22
-5.332815133e-23
-1.389597176e-22
-5.25611284e-23
-1.28693729e-22
-5.190373837e-23
-1.185264522e-22
-5.134419287e-23
-1.084414074e-22
-5.087138964e-23
-9.842428214e-23
-5.047497942e-23
-8.846263583e-23
-5.014542454e-23
-7.854577646e-23
-4.98740358e-23
-6.866471002e-23
-4.96529398e-23
-5.88118946e-23
-4.947497418e-23
-4.898100811e-23
-4.933371886e-23
-3.916694601e-23
-4.922386938e-23
-2.936511596e-23
-4.914135469e-23
-1.957113762e-23
-4.908255058e-23
-9.78302669e-24
-4.904481262e-23
-4.902644237e-23
-8.75702567e-22
3.67972658e-22
-9.04656947e-22
2.773099597e-22
-9.216144357e-22
1.982021327e-22
-9.28416596e-22
1.297586489e-22
-9.267123059e-22
7.107375684e-23
-9.179687748e-22
2.124773367e-23
-9.034832175e-22
-2.059667099e-23
-8.843950403e-22
-5.530191689e-23
-8.616982871e-22
-8.366686103e-23
-8.362540668e-22
-1.064408561e-22
-8.088027087e-22
-1.24320218e-22
-7.799754775e-22
-1.379465744e-22
-7.50305764e-22
-1.479066634e-22
-7.202396479e-22
-1.547332414e-22
-6.90145718e-22
-1.589068369e-22
-6.603241614e-22
-1.608581089e-22
-6.310151898e-22
-1.609706103e-22
-6.024067751e-22
-1.595838044e-22
-5.746416455e-22
-1.569962151e-22
-5.478236047e-22
-1.534686181e-22
-5.220232487e-22
-1.492272125e-22
-4.972831049e-22
-1.444667305e-22
-4.736222148e-22
-1.393534387e-22
-4.510402073e-22
-1.340280035e-22
-4.295209053e-22
-1.286081996e-22
-4.090354964e-22
-1.2319144e-22
-3.895452949e-22
-1.178571118e-22
-3.710041125e-22
-1.12668726e-22
-3.533602752e-22
-1.076759052e-22
-3.365583614e-22
-1.029162232e-22
-3.205407186e-22
-9.841688825e-23
-3.05248756e-22
-9.419626213e-23
-2.906239941e-22
-9.026521402e-23
-2.76608897e-22
-8.662832197e-23
-2.631475338e-22
-8.328494421e-23
-2.501861088e-22
-8.023017307e-23
-2.376733784e-22
-7.745567622e-23
-2.255609494e-22
-7.495043472e-23
-2.138034615e-22
-7.270139045e-23
-2.023587039e-22
-7.06940088e-23
-1.911877144e-22
-6.891276211e-23
-1.802548315e-22
-6.734153828e-23
-1.695276525e-22
-6.596397038e-23
-1.589769073e-22
-6.476368993e-23
-1.485762967e-22
-6.372454201e-23
-1.383023276e-22
-6.283081097e-23
-1.281341835e-22
-6.206743953e-23
-1.18053649e-22
-6.142016235e-23
-1.080449972e-22
-6.087553196e-23
-9.809472726e-23
-6.042093999e-23
-8.819124708e-23
-6.004474012e-23
-7.832468046e-23
-5.973639924e-23
-6.84867444e-23
-5.94864636e-23
-5.867063928e-23
-5.928635563e-23
-4.887115864e-23
-5.91284438e-23
-3.908443132e-23
-5.900647155e-23
-2.930631185e-23
-5.891532032e-23
-1.953339966e-23
-5.885051663e-23
-9.764656443e-24
-5.880908222e-23
-5.878905277e-23
-9.663652654e-22
3.985661353e-22
-9.837647739e-22
2.947107222e-22
-9.900579195e-22
2.044966023e-22
-9.871014881e-22
1.268035971e-22
-9.765383291e-22
6.051203175e-23
-9.598131795e-22
4.524048972e-24
-9.381884634e-22
-4.221988357e-23
-9.127599844e-22
-8.07288045e-23
-8.844722822e-22
-1.119528293e-22
-8.541334287e-22
-1.367778166e-22
-8.224290652e-22
-1.560225523e-22
-7.899355665e-22
-1.704379264e-22
-7.57132342e-22
-1.807076291e-22
-7.244132433e-22
-1.87449993e-22
-6.9209699e-22
-1.912206836e-22
-6.604366628e-22
-1.925159692e-22
-6.296283839e-22
-1.917763539e-22
-5.998191858e-22
-1.893904138e-22
-5.711140485e-22
-1.856987206e-22
-5.435821992e-22
-1.809977623e-22
-5.172627666e-22
-1.755438084e-22
-4.921698131e-22
-1.69556665e-22
-4.682967796e-22
-1.632232577e-22
-4.456204033e-22
-1.567010069e-22
-4.241041458e-22
-1.501209939e-22
-4.037011683e-22
-1.435909214e-22
-3.84356909e-22
-1.371978655e-22
-3.660112917e-22
-1.310108173e-22
-3.486005932e-22
-1.250830223e-22
-3.320590264e-22
-1.194541152e-22
-3.163200924e-22
-1.141520465e-22
-3.013177078e-22
-1.091948067e-22
-2.86987102e-22
-1.045919679e-22
-2.732655192e-22
-1.003460688e-22
-2.600927627e-22
-9.645386662e-23
-2.474116119e-22
-9.2907454e-23
-2.351681369e-22
-8.969522681e-23
-2.233119052e-22
-8.680270714e-23
-2.117960798e-22
-8.421324636e-23
-2.005774572e-22
-8.190863769e-23
-1.896164905e-22
-7.986966425e-23
-1.788772636e-22
-7.80765899e-23
-1.683273721e-22
-7.650956195e-23
-1.579377594e-22
-7.514889311e-23
-1.476825656e-22
-7.397526372e-23
-1.375389562e-22
-7.296993887e-23
-1.274869063e-22
-7.211501021e-23
-1.175090186e-22
-7.139354883e-23
-1.075904052e-22
-7.07896172e-23
-9.77185274e-23
-7.028829251e-23
-8.78829062e-23
-6.987585697e-23
-7.807474482e-23
-6.953999851e-23
-6.828663644e-23
-6.926970257e-23
-5.851272745e-23
-6.905497506e-23
-4.874918639e-23
-6.888698758e-23
-3.899328008e-23
-6.875840951e-23
-2.924150817e-23
-6.866292149e-23
-1.949196524e-23
-6.859529308e-23
-9.744626997e-24
-6.855234538e-23
-6.853172144e-23
-1.070220679e-21
4.144241047e-22
-1.073978894e-21
2.984701251e-22
-1.067750925e-21
1.982699171e-22
-1.053393053e-21
1.124470909e-22
-1.032526312e-21
3.964671385e-23
-1.006557112e-21
-2.144367507e-23
-9.766973843e-22
-7.207804643e-23
-9.439840092e-22
-1.134404772e-22
-9.092972694e-22
-1.466376995e-22
-8.733781645e-22
-1.726948992e-22
-8.368444393e-22
-1.925541442e-22
-8.002052691e-22
-2.07074862e-22
-7.63874706e-22
-2.170358379e-22
-7.281839339e-22
-2.231383101e-22
-6.933922757e-22
-2.260098385e-22
-6.596970474e-22
-2.262086695e-22
-6.272424438e-22
-2.242283913e-22
-5.961274927e-22
-2.205027342e-22
-5.664130902e-22
-2.154103877e-22
-5.381282452e-22
-2.0927973e-22
-5.112756232e-22
-2.02393416e-22
-4.858364058e-22
-1.949927772e-22
-4.617745288e-22
-1.872819871e-22
-4.390403902e-22
-1.794319758e-22
-4.175740733e-22
-1.715841048e-22
-3.973081124e-22
-1.63853603e-22
-3.781698608e-22
-1.56332741e-22
-3.600834967e-22
-1.490937305e-22
-3.429716861e-22
-1.421913582e-22
-3.267569576e-22
-1.356653771e-22
-3.113628526e-22
-1.295426787e-22
-2.96714869e-22
-1.238392591e-22
-2.82741203e-22
-1.185619843e-22
-2.69373317e-22
-1.137101585e-22
-2.5654635e-22
-1.092769141e-22
-2.441993847e-22
-1.052504302e-22
-2.322756172e-22
-1.016149855e-22
-2.207224444e-22
-9.835186756e-23
-2.094914712e-22
-9.54401642e-23
-1.985384838e-22
-9.28574545e-23
-1.878234162e-22
-9.058041356e-23
-1.773102357e-22
-8.858534533e-23
-1.669667032e-22
-8.684861706e-23
-1.5676413e-22
-8.534695096e-23
-1.466772408e-22
-8.405761368e-23
-1.366840275e-22
-8.29586335e-23
-1.267654449e-22
-8.20290809e-23
-1.16905087e-22
-8.1249264e-23
-1.070890805e-22
-8.060073927e-23
-9.730609186e-23
-8.006630724e-23
-8.754704773e-23
-7.96301858e-23
-7.780444889e-23
-7.927818155e-23
-6.807190893e-23
-7.899755952e-23
-5.834473997e-23
-7.877687455e-23
-4.862060833e-23
-7.860620145e-23
-3.889779206e-23
-7.84771105e-23
-2.917387975e-23
-7.838208975e-23
-1.944901754e-23
-7.831537524e-23
-9.724003067e-24
-7.827351942e-23
-7.825342713e-23
-1.186174658e-21
4.131562736e-22
-1.174179102e-21
2.864756896e-22
-1.153573751e-21
1.776658426e-22
-1.126193431e-21
8.506814107e-23
-1.093616701e-21
7.071417835e-24
-1.057191483e-21
-5.786737856e-23
-1.018059815e-21
-1.112080874e-22
-9.771812314e-22
-1.543172974e-22
-9.353544692e-22
-1.884625399e-22
-8.932374094e-22
-2.148098863e-22
-8.513651572e-22
-2.344242198e-22
-8.10166245e-22
-2.482715187e-22
-7.699771782e-22
-2.572225617e-22
-7.310554623e-22
-2.620576098e-22
-6.935911067e-22
-2.634717286e-22
-6.577167692e-22
-2.620804723e-22
-6.235167868e-22
-2.584257341e-22
-5.910351461e-22
-2.529816265e-22
-5.602824325e-22
-2.461602602e-22
-5.312419312e-22
-2.383173245e-22
-5.038749844e-22
-2.29757434e-22
-4.781256158e-22
-2.207392215e-22
-4.539245175e-22
-2.114801382e-22
-4.311925193e-22
-2.021609458e-22
-4.098435715e-22
-1.929299058e-22
-3.897872504e-22
-1.839066642e-22
-3.709308504e-22
-1.751858118e-22
-3.531811244e-22
-1.668401175e-22
-3.364457051e-22
-1.589234595e-22
-3.206342592e-22
-1.514734926e-22
-3.056594331e-22
-1.445140806e-22
-2.914375942e-22
-1.380574984e-22
-2.778893772e-22
-1.321063896e-22
-2.649400726e-22
-1.266554749e-22
-2.525198661e-22
-1.216930457e-22
-2.405639401e-22
-1.172022705e-22
-2.290124992e-22
-1.131623417e-22
-2.17810741e-22
-1.095494889e-22
-2.069087615e-22
-1.063378681e-22
-1.962614428e-22
-1.035003107e-22
-1.85828348e-22
-1.010089355e-22
-1.755735074e-22
-9.883567222e-23
-1.654650371e-22
-9.695271575e-23
-1.554747927e-22
-9.533286306e-23
-1.455782606e-22
-9.394972713e-23
-1.357544749e-22
-9.277794705e-23
-1.25985628e-22
-9.179346585e-23
-1.162565622e-22
-9.097374424e-23
-1.065546485e-22
-9.029778081e-23
-9.686997042e-23
-8.974607612e-23
-8.719504348e-23
-8.930072851e-23
-7.752382687e-23
-8.894553443e-23
-6.785122395e-23
-8.866593774e-23
-5.817406686e-23
-8.84491014e-23
-4.849151738e-23
-8.828408363e-23
-3.88027713e-23
-8.816131389e-23
-2.910716524e-23
-8.80722364e-23
-1.940716172e-23
-8.80107694e-23
-9.703910784e-24
-8.797285559e-23
-8.795457361e-23
-1.312855242e-21
3.923377445e-22
-1.282988949e-21
2.566105034e-22
-1.246171452e-21
1.408496105e-22
-1.204190154e-21
4.308817952e-23
-1.158555497e-21
-3.856182048e-23
-1.110532192e-21
-1.058891407e-22
-1.061169025e-21
-1.605695824e-22
-1.011326474e-21
-2.041580691e-22
-9.617018156e-22
-2.380853068e-22
-9.128517429e-22
-2.636579609e-22
-8.65212456e-22
-2.820614487e-22
-8.19117288e-22
-2.943645834e-22
-7.748122263e-22
-3.015254361e-22
-7.32469581e-22
-3.043979626e-22
-6.921998504e-22
-3.037390573e-22
-6.54062031e-22
-3.002157574e-22
-6.180726792e-22
-2.944124234e-22
-5.842137798e-22
-2.868377895e-22
-5.524394967e-22
-2.779317751e-22
-5.226820408e-22
-2.680719822e-22
-4.948567719e-22
-2.575798642e-22
-4.688665325e-22
-2.467265551e-22
-4.44605325e-22
-2.35738321e-22
-4.219614793e-22
-2.248016172e-22
-4.008203299e-22
-2.140677637e-22
-3.81066398e-22
-2.036572573e-22
-3.625851561e-22
-1.936637175e-22
-3.452644664e-22
-1.841574715e-22
-3.289957382e-22
-1.751887989e-22
-3.136748471e-22
-1.667908674e-22
-2.992028509e-22
-1.589823897e-22
-2.854864854e-22
-1.517700157e-22
-2.724384625e-22
-1.451504451e-22
-2.599776434e-22
-1.391122656e-22
-2.480290909e-22
-1.336375587e-22
-2.365240114e-22
-1.287033057e-22
-2.253996464e-22
-1.242826195e-22
-2.145991202e-22
-1.203458357e-22
-2.04071204e-22
-1.168614685e-22
-1.937700677e-22
-1.137969941e-22
-1.836550847e-22
-1.11119448e-22
-1.736905509e-22
-1.087959213e-22
-1.638451844e-22
-1.067940392e-22
-1.540916568e-22
-1.0508237e-22
-1.444064805e-22
-1.036306782e-22
-1.347699937e-22
-1.024100871e-22
-1.251659064e-22
-1.013932893e-22
-1.155805988e-22
-1.005547638e-22
-1.060029438e-22
-9.987085473e-23
-9.642462282e-23
-9.931973359e-23
-8.68398494e-23
-9.88813654e-23
-7.724423018e-23
-9.853749653e-23
-6.763438761e-23
-9.827175168e-23
-5.800904909e-23
-9.806996033e-23
-4.836874764e-23
-9.792010653e-23
-3.871369382e-23
-9.781141597e-23
-2.904569824e-23
-9.773456371e-23
-1.936924791e-23
-9.768319461e-23
-9.685628815e-24
-9.765222326e-23
-9.763732822e-23
-1.448582483e-21
3.495347595e-22
-1.398749842e-21
2.067789756e-22
-1.343932883e-21
8.603387491e-23
-1.285840154e-21
-1.500324995e-23
-1.225882817e-21
-9.851772535e-23
-1.165212634e-21
-1.665577375e-22
-1.104757512e-21
-2.210230186e-22
-1.045253712e-21
-2.636601512e-22
-9.872744697e-22
-2.960627903e-22
-9.312552307e-22
-3.19675371e-22
-8.775155908e-22
-3.357992009e-22
-8.262781407e-22
-3.456000722e-22
-7.776847528e-22
-3.501167388e-22
-7.318106757e-22
-3.502698265e-22
-6.886765505e-22
-3.468708622e-22
-6.48258697e-22
-3.406311733e-22
-6.104980453e-22
-3.321705278e-22
-5.753077655e-22
-3.220254521e-22
-5.425797038e-22
-3.106571482e-22
-5.121899228e-22
-2.98458958e-22
-4.840034628e-22
-2.857633811e-22
-4.578782984e-22
-2.728486419e-22
-4.336686211e-22
-2.599447806e-22
-4.112276258e-22
-2.472392639e-22
-3.904098235e-22
-2.348821432e-22
-3.710728582e-22
-2.229907952e-22
-3.530789101e-22
-2.116542564e-22
-3.362957938e-22
-2.009371562e-22
-3.205978066e-22
-1.908832564e-22
-3.058663695e-22
-1.815186226e-22
-2.91990477e-22
-1.728544678e-22
-2.788669147e-22
-1.648897046e-22
-2.664002831e-22
-1.576132017e-22
-2.545029365e-22
-1.510057521e-22
-2.430948379e-22
-1.450417946e-22
-2.321033252e-22
-1.396909077e-22
-2.214628626e-22
-1.34919092e-22
-2.11114753e-22
-1.306898936e-22
-2.010067296e-22
-1.269653974e-22
-1.910925216e-22
-1.237070469e-22
-1.81331558e-22
-1.208762374e-22
-1.716886687e-22
-1.184347764e-22
-1.621335153e-22
-1.163453635e-22
-1.52639965e-22
-1.145720648e-22
-1.431858894e-22
-1.130806017e-22
-1.337531959e-22
-1.11838439e-22
-1.243273808e-22
-1.108148828e-22
-1.148966898e-22
-1.099812952e-22
-1.054518226e-22
-1.093112763e-22
-9.598625463e-23
-1.087806495e-22
-8.649598052e-23
-1.083672665e-22
-7.697848533e-23
-1.080508704e-22
-6.743259626e-23
-1.078133553e-22
-5.785919529e-23
-1.076392297e-22
-4.826005708e-23
-1.075152329e-22
-3.863684156e-23
-1.074293854e-22
-2.899432914e-23
-1.073718823e-22
-1.933827655e-23
-1.073358755e-22
-9.670733778e-24
-1.073151169e-22
-1.073054816e-22
-1.591338267e-21
2.823310778e-22
-1.519494942e-21
1.349367712e-22
-1.444970008e-21
1.151013764e-23
-1.369354629e-21
-9.061731247e-23
-1.29392283e-21
-1.73948049e-22
-1.219677915e-21
-2.408010364e-22
-1.147394644e-21
-2.933046194e-22
-1.077656351e-21
-3.333967886e-22
-1.01088705e-21
-3.628304085e-22
-9.473790606e-22
-3.831815917e-22
-8.873164621e-22
-3.958599457e-22
-8.307948074e-22
-4.021197787e-22
-7.778378405e-22
-4.030716332e-22
-7.284117114e-22
-3.996937887e-22
-6.824368616e-22
-3.928434809e-22
-6.397980515e-22
-3.832676484e-22
-6.003529696e-22
-3.7161314e-22
-5.639394616e-22
-3.58436368e-22
-5.303815136e-22
-3.442123637e-22
-4.994943459e-22
-3.293432184e-22
-4.710887235e-22
-3.141659443e-22
-4.449744372e-22
-2.989597707e-22
-4.209631044e-22
-2.839528696e-22
-3.988705051e-22
-2.693285219e-22
-3.785184755e-22
-2.552307607e-22
-3.597363194e-22
-2.417695277e-22
-3.423618098e-22
-2.290253693e-22
-3.262418941e-22
-2.170536849e-22
-3.112331729e-22
-2.058885328e-22
-2.972022147e-22
-1.955460144e-22
-2.840257137e-22
-1.860272906e-22
-2.715904118e-22
-1.773212813e-22
-2.597928335e-22
-1.694070486e-22
-2.48538979e-22
-1.622558711e-22
-2.377439509e-22
-1.558330565e-22
-2.273315096e-22
-1.500994997e-22
-2.172336641e-22
-1.450129896e-22
-2.073902569e-22
-1.405293306e-22
-1.977483791e-22
-1.366033531e-22
-1.882617121e-22
-1.331897747e-22
-1.78890097e-22
-1.302438066e-22
-1.695992558e-22
-1.277215622e-22
-1.603602166e-22
-1.255804908e-22
-1.511485019e-22
-1.237798829e-22
-1.419437267e-22
-1.22281197e-22
-1.327296398e-22
-1.210480813e-22
-1.234937932e-22
-1.200463451e-22
-1.142266709e-22
-1.192441503e-22
-1.049211959e-22
-1.186122943e-22
-9.557287162e-23
-1.181242212e-22
-8.617958436e-23
-1.177556859e-22
-7.674097026e-23
-1.174845356e-22
-6.725847065e-23
-1.172910816e-22
-5.77351985e-23
-1.171584864e-22
-4.817420957e-23
-1.17072076e-22
-3.857933845e-23
-1.170187877e-22
-2.895832234e-23
-1.169884859e-22
-1.931751801e-23
-1.169734601e-22
-9.661098474e-24
-1.169666388e-22
-1.169642576e-22
-1.738732574e-21
1.883568424e-22
-1.642921576e-21
3.912688583e-23
-1.547097458e-21
-8.431275042e-23
-1.452685366e-21
-1.850280068e-22
-1.360775817e-21
-2.658560479e-22
-1.272181498e-21
-3.293936877e-22
-1.187486814e-21
-3.779975897e-22
-1.107089971e-21
-4.137919235e-22
-1.031238234e-21
-4.386803936e-22
-9.600574146e-22
-4.543605624e-22
-8.93576295e-22
-4.623391449e-22
-8.317466619e-22
-4.639474137e-22
-7.74459996e-22
-4.603561903e-22
-7.215614036e-22
-4.525901955e-22
-6.728610291e-22
-4.415416116e-22
-6.281435431e-22
-4.279827676e-22
-5.871761976e-22
-4.125779593e-22
-5.497154573e-22
-3.958944515e-22
-5.155123683e-22
-3.784126649e-22
-4.843170718e-22
-3.605355802e-22
-4.558825499e-22
-3.425974299e-22
-4.299675361e-22
-3.248717104e-22
-4.063387567e-22
-3.07578531e-22
-3.847727439e-22
-2.908913255e-22
-3.650572425e-22
-2.74942961e-22
-3.469921611e-22
-2.598312808e-22
-3.303901254e-22
-2.456241217e-22
-3.150767419e-22
-2.323638417e-22
-3.008906546e-22
-2.200713694e-22
-2.876834908e-22
-2.087497872e-22
-2.753197045e-22
-1.983875077e-22
-2.636761791e-22
-1.889611041e-22
-2.52641656e-22
-1.804377841e-22
-2.421161644e-22
-1.727775276e-22
-2.320103941e-22
-1.659349547e-22
-2.222449994e-22
-1.598609299e-22
-2.127500051e-22
-1.545038865e-22
-2.034642794e-22
-1.498109274e-22
-1.943348007e-22
-1.45728818e-22
-1.853157441e-22
-1.422048746e-22
-1.763678526e-22
-1.391875927e-22
-1.674581844e-22
-1.366269962e-22
-1.585596087e-22
-1.344749758e-22
-1.49649816e-22
-1.326857743e-22
-1.40710611e-22
-1.312163542e-22
-1.317279036e-22
-1.300263942e-22
-1.226915983e-22
-1.29078149e-22
-1.13594815e-22
-1.283365782e-22
-1.044331227e-22
-1.27769662e-22
-9.520433627e-23
-1.273484175e-22
-8.590843405e-23
-1.270464983e-22
-7.654751634e-23
-1.26839982e-22
-6.712587542e-23
-1.267077487e-22
-5.764878812e-23
-1.266315818e-22
-4.81209213e-23
-1.265953546e-22
-3.854903656e-23
-1.265851538e-22
-2.894329659e-23
-1.265904391e-22
-1.931069673e-23
-1.266023909e-22
-9.658717297e-24
-1.266137033e-22
-1.266205596e-22
-1.88796253e-21
6.532685224e-23
-1.766361212e-21
-8.247330462e-23
-1.647812715e-21
-2.028599076e-22
-1.533513407e-21
-2.993257957e-22
-1.424313457e-21
-3.750543651e-22
-1.3207854e-21
-4.329200116e-22
-1.223281147e-21
-4.75500055e-22
-1.131978441e-21
-5.050928334e-22
-1.046918402e-21
-5.237385798e-22
-9.680359971e-22
-5.332410252e-22
-8.951845637e-22
-5.351885857e-22
-8.281554386e-22
-5.309744735e-22
-7.666940011e-22
-5.218154365e-22
-7.105128198e-22
-5.087690965e-22
-6.593021851e-22
-4.927499048e-22
-6.127387347e-22
-4.745437609e-22
-5.704926899e-22
-4.548214205e-22
-5.322336706e-22
-4.3415081e-22
-4.976352836e-22
-4.130083054e-22
-4.663789215e-22
-3.91789071e-22
-4.381568304e-22
-3.708165528e-22
-4.126743567e-22
-3.50351176e-22
-3.896515512e-22
-3.305982811e-22
-3.688243794e-22
-3.117153451e-22
-3.499455623e-22
-2.938185236e-22
-3.32785002e-22
-2.769885474e-22
-3.171298454e-22
-2.61276028e-22
-3.027842696e-22
-2.467062327e-22
-2.895690723e-22
-2.332833503e-22
-2.773212113e-22
-2.209942477e-22
-2.658933009e-22
-2.098117796e-22
-2.551528591e-22
-1.996977203e-22
-2.449813995e-22
-1.906052939e-22
-2.352735915e-22
-1.824813337e-22
-2.259363694e-22
-1.752681683e-22
-2.16887956e-22
-1.68905256e-22
-2.080570459e-22
-1.633305274e-22
-1.9938217e-22
-1.58481449e-22
-1.908108573e-22
-1.542959488e-22
-1.822984622e-22
-1.507132893e-22
-1.73807256e-22
-1.476747232e-22
-1.653061641e-22
-1.451237992e-22
-1.567704072e-22
-1.430065725e-22
-1.481803959e-22
-1.412720067e-22
-1.39520651e-22
-1.398723649e-22
-1.307796584e-22
-1.387632287e-22
-1.219500276e-22
-1.379032905e-22
-1.130278988e-22
-1.372543745e-22
-1.040118782e-22
-1.367816782e-22
-9.490241706e-23
-1.364537548e-22
-8.570191775e-23
-1.362421498e-22
-7.641528312e-23
-1.361212831e-22
-6.704970852e-23
-1.360687089e-22
-5.761256091e-23
-1.360648265e-22
-4.811072049e-23
-1.360922039e-22
-3.855432182e-23
-1.361363249e-22
-2.895524842e-23
-1.361860063e-22
-1.932200913e-23
-1.362314021e-22
-9.665573546e-24
-1.362653508e-22
-1.362834974e-22
-2.035762687e-21
-8.889995376e-23
-1.886747815e-21
-2.314869953e-22
-1.744278603e-21
-3.45327692e-22
-1.609241976e-21
-4.343608717e-22
-1.482179103e-21
-5.02115625e-22
-1.363365443e-21
-5.517319681e-22
-1.252873926e-21
-5.859897972e-22
-1.150624187e-21
-6.073407611e-22
-1.056420848e-21
-6.179400196e-22
-9.699835576e-22
-6.196763043e-22
-8.909704516e-22
-6.141996251e-22
-8.189964015e-22
-6.029463722e-22
-7.536476611e-22
-5.871618878e-22
-6.944936281e-22
-5.679207636e-22
-6.410960412e-22
-5.461450974e-22
-5.930163943e-22
-5.226209408e-22
-5.498220794e-22
-4.980131946e-22
-5.11091166e-22
-4.728791445e-22
-4.764160491e-22
-4.476807558e-22
-4.454064034e-22
-4.227958837e-22
-4.176914536e-22
-3.985285152e-22
-3.929214618e-22
-3.751180947e-22
-3.707686151e-22
-3.52747993e-22
-3.50927558e-22
-3.315531875e-22
-3.331155861e-22
-3.116272007e-22
-3.170724826e-22
-2.930283199e-22
-3.025600501e-22
-2.757851602e-22
-2.893613873e-22
-2.599016541e-22
-2.772799697e-22
-2.453614943e-22
-2.661387432e-22
-2.321320195e-22
-2.557792417e-22
-2.20167617e-22
-2.460604327e-22
-2.094127238e-22
-2.368574392e-22
-1.998043848e-22
-2.280604261e-22
-1.912744058e-22
-2.195734571e-22
-1.837512176e-22
-2.113132274e-22
-1.771615084e-22
-2.032079676e-22
-1.714315794e-22