/*--------------------------------*- C++ -*----------------------------------*\
  =========                 |
  \\      /  F ield         | OpenFOAM: The Open Source CFD Toolbox
   \\    /   O peration     | Website:  https://openfoam.org
    \\  /    A nd           | Version:  10
     \\/     M anipulation  |
\*---------------------------------------------------------------------------*/
FoamFile
{
    format      ascii;
    class       volScalarField;
    location    "0.0005";
    object      T;
}
// * * * * * * * * * * * * * * * * * * * * * * * * * * * * * * * * * * * * * //

dimensions      [0 0 0 1 0 0 0];

internalField   nonuniform List<scalar> 
3600
(
330.6369138
328.0327138
325.5793521
323.2786247
321.130273
319.1322997
317.2812649
315.5725605
314.0006593
312.5593389
311.2418804
310.0412403
308.9501997
307.9614894
307.0678953
306.2623429
305.5379663
304.8881601
304.3066194
303.7873672
303.3247726
302.91356
302.548812
302.2259665
301.9408091
301.6894622
301.4683718
301.2742913
301.1042657
300.955613
300.825907
300.7129592
300.6148006
300.5296651
300.4559723
300.3923119
300.3374284
300.2902072
300.2496608
300.2149168
300.1852061
300.1598525
300.1382628
300.1199182
300.1043657
300.0912111
300.0801123
300.0707731
300.0629381
300.0563877
300.0509341
300.0464172
300.0427015
300.0396735
300.0372387
300.03532
300.0338554
300.0327974
300.0321109
300.0317734
331.2326872
328.5753269
326.0725438
323.7259983
321.5352806
319.4982309
317.6112401
315.8695275
314.2673926
312.7984414
311.4557856
310.2322173
309.1203577
308.1127842
307.2021355
306.3811966
305.6429682
304.9807187
304.3880241
303.8587956
303.3872972
302.9681557
302.5963623
302.2672703
301.9765869
301.7203625
301.4949763
301.2971211
301.1237858
300.9722377
300.8400045
300.7248555
300.6247843
300.5379903
300.4628628
300.397964
300.342014
300.2938761
300.2525437
300.2171272
300.1868424
300.1609999
300.1389946
300.1202977
300.1044471
300.091041
300.0797304
300.0702135
300.0622297
300.0555553
300.0499986
300.0453966
300.0416111
300.0385262
300.0360458
300.0340912
300.0325993
300.0315215
300.0308223
300.0304784
332.4293002
329.6654006
327.063571
324.6251971
322.3495631
320.2341826
318.2751074
316.4672111
314.8044467
313.2800764
311.8868744
310.6173035
309.4636666
308.4182342
307.4733505
306.6215204
305.8554776
305.1682384
304.5531404
304.003871
303.5144845
303.0794112
302.6934601
302.3518146
302.050025
301.7839967
301.5499757
301.3445322
301.1645433
301.0071744
300.8698602
300.750286
300.6463693
300.5562411
300.4782292
300.4108405
300.352746
300.3027653
300.2598528
300.2230843
300.1916455
300.1648199
300.1419794
300.1225741
300.1061244
300.0922127
300.0804766
300.0706025
300.0623198
300.055396
300.0496323
300.0448591
300.0409331
300.0377341
300.0351621
300.0331353
300.0315885
300.0304711
300.0297462
300.0293897
334.2338365
331.3095934
328.5586954
325.9821058
323.5786432
321.3453272
319.2776982
317.3701108
315.6159981
314.0081073
312.5387074
311.1997689
309.9831175
308.8805646
307.8840144
306.9855514
306.17751
305.4525278
304.8035855
304.2240342
303.7076129
303.2484575
302.8411019
302.4804746
302.1618894
301.8810331
301.6339509
301.4170283
301.2269736
301.0607981
300.9157963
300.7895265
300.6797912
300.5846181
300.5022416
300.4310856
300.3697464
300.3169775
300.2716742
300.2328605
300.1996758
300.1713632
300.1472591
300.1267825
300.1094266
300.0947502
300.0823706
300.0719562
300.0632215
300.0559207
300.0498439
300.044812
300.0406738
300.0373021
300.0345916
300.0324558
300.030826
300.0296486
300.0288849
300.0285093
336.6568033
333.5178065
330.5672478
327.8055095
325.2307783
322.8394078
320.6262534
318.5849763
316.7083171
314.9883382
313.4166371
311.98453
310.6832094
309.5038766
308.4378506
307.4766572
306.6120989
305.8363096
305.1417935
304.5214533
303.9686069
303.4769961
303.0407873
302.6545671
302.3133323
302.0124768
301.7477757
301.5153667
301.3117309
301.1336722
300.9782966
300.8429912
300.7254038
300.6234223
300.5351558
300.4589158
300.3931981
300.3366667
300.2881376
300.2465642
300.211024
300.1807054
300.1548967
300.132975
300.1143969
300.0986893
300.0854418
300.074299
300.0649548
300.0571458
300.0506469
300.0452664
300.040842
300.0372377
300.0343404
300.0320579
300.0303161
300.029058
300.0282419
300.0278406
339.7120007
336.3030885
333.1015613
330.10705
327.3169343
324.7267264
322.3304212
320.1208128
318.0897782
316.2285275
314.5278228
312.9781674
311.5699667
310.2936631
309.1398476
308.09935
307.1633102
306.3232327
305.5710269
304.899034
304.3000448
303.7673067
303.2945246
302.8758551
302.5058963
302.1796727
301.892619
301.6405599
301.4196894
301.2265495
301.0580073
300.9112333
300.7836789
300.6730554
300.5773128
300.4946197
300.4233447
300.3620381
300.3094151
300.2643399
300.2258108
300.192947
300.1649759
300.1412211
300.1210928
300.1040775
300.0897294
300.0776631
300.0675462
300.059093
300.0520591
300.0462367
300.0414497
300.0375506
300.0344168
300.0319482
300.0300647
300.0287043
300.027822
300.0273881
343.4163663
339.6815253
336.1768976
332.9011787
329.8507602
327.0201344
324.40226
321.9888927
319.7708779
317.7384095
315.8812553
314.1889508
312.650964
311.2568335
309.996282
308.8593085
307.8362606
306.9178896
306.0953911
305.3604328
304.7051706
304.1222568
303.6048392
303.1465551
302.7415196
302.3843103
302.0699485
301.7938787
301.5519462
301.3403739
301.1557381
300.9949452
300.8552074
300.7340199
300.6291386
300.5385578
300.4604903
300.3933477
300.3357218
300.2863674
300.2441865
300.2082135
300.1776008
300.1516073
300.1295859
300.1109737
300.0952821
300.0820884
300.0710284
300.061789
300.0541025
300.0477409
300.0425116
300.0382529
300.0348307
300.0321352
300.0300788
300.0285938
300.0276306
300.027157
347.7898112
343.6721278
339.8113743
336.2051166
332.8485724
329.7350348
326.8562542
324.2027803
321.7642651
319.5297291
317.4877927
315.6268748
313.9353614
312.4017469
311.0147498
309.7634063
308.6371442
307.6258392
306.7198556
305.9100741
305.1879089
304.5453142
303.9747842
303.4693452
303.0225435
302.6284289
302.2815347
301.9768555
301.7098231
301.4762821
301.2724637
301.0949602
300.9406993
300.8069194
300.6911449
300.5911626
300.5049997
300.4309022
300.3673148
300.3128621
300.266331
300.2266543
300.1928959
300.1642365
300.1399614
300.1194483
300.1021577
300.0876226
300.0754406
300.065266
300.0568032
300.0498005
300.0440453
300.0393591
300.035594
300.0326289
300.0303671
300.0287339
300.0276747
300.0271539
352.8550647
348.2967329
344.0259097
340.0388318
336.3293566
332.889403
329.7093472
326.7783742
324.0847896
321.6162924
319.3602117
317.3037095
315.433953
313.7382581
312.2042083
310.8197498
309.5732665
308.4536376
307.4502795
306.5531738
305.7528842
305.0405639
304.4079541
303.8473769
303.3517211
302.9144256
302.5294574
302.1912886
301.8948702
301.6356062
301.409325
301.2122527
301.0409846
300.8924587
300.7639286
300.6529383
300.5572976
300.4750585
300.4044934
300.3440741
300.2924527
300.2484432
300.2110052
300.1792283
300.1523179
300.1295828
300.1104233
300.0943206
300.0808278
300.0695608
300.0601913
300.05244
300.0460708
300.0408857
300.0367204
300.0334407
300.0309392
300.0291331
300.0279618
300.027386
358.6375517
353.5799357
348.8441982
344.4250469
340.3147993
336.5038351
332.9810018
329.7339742
326.7495721
324.0140381
321.5132783
319.2330687
317.1592304
315.2777762
313.5750306
312.0377276
310.6530877
309.408876
308.2934458
307.2957675
306.4054458
305.6127279
304.9085018
304.2842886
303.7322287
303.2450632
302.8161117
302.4392474
302.1088697
301.8198759
301.5676315
301.34794
301.1570139
300.9914442
300.848172
300.7244607
300.6178685
300.5262233
300.447598
300.3802879
300.3227887
300.2737773
300.2320923
300.1967177
300.1667671
300.141469
300.1201544
300.1022445
300.0872407
300.0747149
300.0643008
300.0556872
300.048611
300.0428513
300.0382253
300.0345834
300.031806
300.029801
300.0285008
300.0278616
365.1653238
359.5490736
354.2927323
349.3892905
344.8293601
340.6016338
336.6932947
333.0903808
329.778105
326.7411361
323.9638421
321.4304986
319.1254667
317.0333415
315.1390742
313.4280723
311.8862781
310.5002289
309.2571022
308.1447459
307.1516972
306.267191
305.481159
304.7842229
304.1676793
303.6234817
303.1442169
302.723079
302.3538406
302.0308227
301.748863
301.5032835
301.289859
301.1047841
300.9446427
300.8063765
300.687256
300.5848524
300.49701
300.4218215
300.3576039
300.3028763
300.2563391
300.2168555
300.1834332
300.1552093
300.131435
300.1114631
300.0947358
300.0807743
300.0691693
300.0595728
300.0516907
300.0452765
300.0401256
300.0360712
300.0329797
300.030748
300.0293011
300.0285898
372.4690687
366.2342794
360.4008897
354.9600067
349.9003965
345.2089425
340.8710548
336.8710332
333.1923873
329.8181178
326.7309599
323.9135936
321.348822
319.0197219
316.9097688
315.0029379
313.2837858
311.7375134
310.3500125
309.1078989
307.9985333
307.0100306
306.1312618
305.3518462
304.6621387
304.0532106
303.516826
303.045415
302.6320439
302.2703829
301.9546726
301.6796901
301.4407138
301.2334889
301.0541931
300.8994032
300.7660626
300.6514501
300.5531505
300.469026
300.3971899
300.3359822
300.2839461
300.2398068
300.2024524
300.1709154
300.1443569
300.1220515
300.1033743
300.0877891
300.0748376
300.06413
300.0553373
300.0481834
300.0424397
300.0379193
300.0344731
300.0319856
300.030373
300.0295802
380.582221
373.668625
367.2010987
361.1687356
355.5583521
350.3549372
345.5420536
341.1021952
337.0171034
333.2680448
329.8360539
326.702142
323.8474768
321.2535338
318.9022234
316.7759948
314.8579204
313.1317614
311.5820185
310.1939676
308.9536838
307.8480539
306.8647798
305.9923734
305.2201448
304.5381839
303.9373372
303.4091808
302.9459892
302.5407021
302.1868893
301.8787139
301.6108951
301.3786709
301.1777605
301.0043284
300.8549481
300.7265683
300.6164796
300.522284
300.4418644
300.3733581
300.3151304
300.2657509
300.2239721
300.1887085
300.1590192
300.1340908
300.1132225
300.0958133
300.0813496
300.0693946
300.0595797
300.0515959
300.0451871
300.0401442
300.0363001
300.0335258
300.0317274
300.0308433
389.541194
381.8883708
374.7290983
368.0503776
361.8370215
356.0720858
350.7372566
345.8131961
341.2798508
337.1167229
333.303109
329.8183074
326.6417968
323.7533892
321.1333581
318.7625465
316.622454
314.6953072
312.9641148
311.4127077
310.0257669
308.788841
307.6883525
306.7115964
305.8467301
305.0827577
304.4095075
303.8176047
303.2984413
302.8441406
302.4475212
302.1020583
301.8018434
301.5415448
301.3163664
301.1220087
300.9546292
300.8108047
300.6874951
300.5820088
300.4919698
300.415287
300.3501255
300.2948799
300.24815
300.2087179
300.1755278
300.1476673
300.1243508
300.1049042
300.0887518
300.0754045
300.0644489
300.0555393
300.0483887
300.042763
300.0384753
300.0353813
300.0333758
300.03239
399.3857502
390.9333367
383.0243059
375.6435544
368.7738999
362.3964854
356.4911454
351.0367351
346.0114255
341.392966
337.1589164
333.2868505
329.7545338
326.5400763
323.6220639
320.979669
318.592743
316.4418921
314.5085381
312.7749644
311.2243509
309.8407963
308.6093304
307.5159169
306.5474481
305.6917309
304.9374676
304.27423
303.6924286
303.183278
302.7387588
302.3515774
302.0151235
301.7234274
301.4711158
301.253369
301.0658778
300.9048022
300.7667308
300.648643
300.547872
300.4620708
300.3891799
300.3273979
300.2751535
300.2310804
300.1939943
300.1628722
300.1368333
300.115122
300.0970933
300.0821992
300.0699772
300.0600397
300.0520658
300.0457936
300.041014
300.0375654
300.0353302
300.0342315
410.1595203
400.8474037
392.1303009
383.9910738
376.4106285
369.3682855
362.8421173
356.809256
351.2461712
346.1289199
341.43337
337.1353986
333.2110673
329.6367752
326.3893929
323.4463781
320.7858732
318.386789
316.2288723
314.2927614
312.5600283
311.013209
309.6358238
308.4123862
307.3284034
306.3703676
305.5257401
304.7829273
304.1312523
303.5609201
303.0629788
302.6292783
302.2524252
301.9257372
301.6431961
301.3994006
301.1895196
301.0092466
300.8547552
300.7226565
300.6099586
300.5140284
300.4325558
300.3635198
300.3051583
300.2559395
300.2145358
300.1798006
300.1507471
300.1265292
300.1064247
300.08982
300.0761977
300.0651243
300.0562409
300.0492545
300.0439315
300.0400913
300.0376026
300.0363794
421.9106784
411.6791546
402.0954337
393.1405075
384.7935419
377.0322051
369.8329715
363.1714018
357.0224005
351.3604495
346.1598207
341.3947669
337.0396942
333.0693153
329.4587866
326.1838285
323.2208317
320.546949
318.1401737
315.9794052
314.0445021
312.3163239
310.7767601
309.4087493
308.1962873
307.1244252
306.1792588
305.3479091
304.6184959
303.9801047
303.4227481
302.9373229
302.5155636
302.1499939
301.833876
301.5611598
301.3264318
301.1248647
300.9521688
300.8045444
300.6786371
300.5714946
300.4805271
300.4034696
300.3383474
300.2834442
300.2372732
300.1985507
300.1661719
300.1391904
300.116798
300.098309
300.0831447
300.0708208
300.0609364
300.0531644
300.0472437
300.042973
300.0402055
300.0388453
434.6927718
423.4826541
412.9735617
403.1448873
393.974325
385.438151
377.5114881
370.1685545
363.382896
357.1276007
351.3754976
346.0993394
341.2719705
336.8664801
332.8563431
329.2155472
325.9187087
322.941175
320.2591168
317.8496065
315.6906862
313.7614223
312.0419486
310.5134972
309.1584175
307.9601838
306.9033918
305.9737461
305.1580367
304.4441093
303.8208275
303.2780294
302.8064794
302.3978172
302.0445037
301.7397658
301.4775408
301.2524216
301.0596021
300.8948252
300.7543327
300.6348173
300.5333783
300.4474792
300.3749092
300.3137476
300.2623308
300.2192229
300.183189
300.1531709
300.1282661
300.1077086
300.0908524
300.077157
300.0661751
300.0575419
300.0509663
300.0462238
300.0431509
300.0416408
448.5657
436.3183675
424.8249156
414.0635225
404.0107847
394.6419442
385.9311101
377.8514711
370.3754991
363.4751413
357.1220025
351.2875176
345.9431139
341.0603644
336.6111328
332.5677086
328.9029344
325.5903228
322.6041641
319.9196226
317.5128218
315.3609174
313.4421567
311.7359262
310.2227842
308.8844811
307.7039666
306.6653847
305.7540575
304.9564582
304.2601764
303.6538744
303.1272386
302.6709256
302.2765044
301.9363973
301.6438194
301.3927178
301.1777124
300.9940373
300.8374855
300.7043556
300.5914016
300.4957861
300.4150366
300.3470058
300.2898347
300.2419192
300.2018802
300.1685369
300.1408821
300.1180616
300.0993552
300.0841606
300.0719794
300.0624055
300.0551147
300.0498572
300.0464509
300.0447771
463.5968321
450.254213
437.7170935
425.9629415
414.9677403
404.7061602
395.1517322
386.277021
378.0537952
370.4531934
363.445888
357.0022436
351.0924737
345.6867928
340.755566
336.2694543
332.1995551
328.5175364
325.1957643
322.2074211
319.5266124
317.1284626
314.9891962
313.0862053
311.3981014
309.9047511
308.5872978
307.4281673
306.4110601
305.5209307
304.7439561
304.0674936
303.4800318
302.9711339
302.5313774
302.1522897
301.8262826
301.5465856
301.3071803
301.1027361
300.9285479
300.7804772
300.6548954
300.5486317
300.4589246
300.3833761
300.3199115
300.2667412
300.2223274
300.1853538
300.1546984
300.1294099
300.1086867
300.0918586
300.0783713
300.0677732
300.0597039
300.0538859
300.0501169
300.048265
479.8622495
465.3667384
451.7261806
438.9179574
426.9180374
415.70109
405.2406083
395.509037
386.4779057
378.1179651
370.3993272
363.2916085
356.7640774
350.7858053
345.3258208
340.3532662
335.8375535
331.7485204
328.0565809
324.7328699
321.7493783
319.0790762
316.6960215
314.575453
312.6938656
311.0290676
309.5602192
308.2678532
307.1338788
306.1415692
305.2755345
304.5216832
303.8671727
303.3003509
302.8106928
302.3887309
302.025984
301.7148846
301.4487058
301.2214902
301.0279809
300.8635549
300.7241606
300.6062588
300.5067684
300.4230154
300.352687
300.2937896
300.2446109
300.2036858
300.1697662
300.1417944
300.1188795
300.1002772
300.0853717
300.073662
300.0647481
300.0583221
300.0541597
300.0521147
497.4480964
481.7424151
466.9379915
453.0128605
439.9436892
427.7058291
416.2733837
405.6192877
395.7153977
386.5325931
378.0408883
370.2095561
363.0072641
356.4022218
350.3623398
344.8553978
339.8492201
335.3118553
331.2117559
327.5179547
324.2002342
321.2292837
318.5768422
316.2158236
314.1204212
312.2661917
310.6301166
309.1906417
307.9276953
306.8226871
305.8584888
305.0193992
304.2910957
303.6605751
303.1160862
302.6470556
302.2440102
301.8984971
301.6030035
301.3508773
301.1362503
300.9539637
300.7994984
300.6689088
300.5587613
300.4660779
300.3882843
300.3231625
300.2688087
300.2235948
300.1861346
300.155254
300.1299646
300.1094408
300.0930004
300.0800878
300.0702603
300.0631769
300.0585892
300.0563354
516.4520233
499.4790388
483.4494296
468.3427366
454.1371507
440.8095012
428.3352636
416.6885847
405.8423235
395.7681103
386.436425
377.8166953
369.8774168
362.5862941
355.9104037
349.8163739
344.2705818
339.2393606
334.6892137
330.5870297
326.9002922
323.5972796
320.6472497
318.0206046
315.6890326
313.6256249
311.804966
310.203197
308.7980531
307.5688769
306.4966086
305.5637568
304.7543527
304.05389
303.4492535
302.9286402
302.4814749
302.0983221
301.7707973
301.4914789
301.2538221
301.0520764
300.8812066
300.7368189
300.615092
300.5127136
300.4268222
300.3549539
300.2949951
300.2451393
300.2038497
300.169825
300.1419704
300.119372
300.101275
300.0870649
300.0762523
300.0684601
300.063414
300.0609351
536.9847074
518.6872276
501.3699623
485.0149138
469.6027299
455.1126266
441.5223297
428.8080375
416.9444051
405.9045525
395.6601
386.1812342
377.4368054
369.3944582
362.0207945
355.2815666
349.1418956
343.5665121
338.520009
333.9671026
329.8728919
326.2031099
322.9243588
320.0043247
317.411965
315.1176666
313.0933721
311.3126733
309.7508733
308.3850174
307.1938969
306.1580279
305.2596082
304.4824575
303.8119431
303.2348944
302.7395116
302.3152683
301.9528139
301.6438745
301.3811578
301.1582595
300.9695755
300.8102188
300.6759418
300.5630653
300.468413
300.3892519
300.323239
300.2683734
300.2229537
300.1855402
300.1549226
300.1300909
300.1102115
300.0946059
300.082734
300.07418
300.0686413
300.0659207
559.1714342
539.4920104
520.823209
503.1505401
486.4581452
470.7286466
455.9430171
442.0804712
429.1183809
417.0322222
405.7955568
395.3800545
385.7555591
376.8902016
368.7505591
361.3018581
354.5082171
348.3329216
342.7387246
337.6881599
333.143862
329.0688782
325.4269672
322.1828736
319.3025719
316.7534761
314.5046107
312.5267414
310.7924682
309.276279
307.9545705
306.8056368
305.8096319
304.94851
304.2059477
303.567253
303.0192649
302.5502464
302.1497756
301.808636
301.5187086
301.2728682
301.0648843
300.8893272
300.7414817
300.6172665
300.5131606
300.4261372
300.3536032
300.2933455
300.2434839
300.2024285
300.1688433
300.1416144
300.1198227
300.1027207
300.0897134
300.0803431
300.0742767
300.071297
583.1537291
562.0344971
541.9486379
522.8862959
504.8362356
487.7856143
471.7197694
456.6220265
442.4735335
429.2531304
416.9372623
405.4999441
394.9127826
385.1450613
376.1638879
367.9344041
360.4200512
353.5828845
347.3839247
341.783536
336.7418143
332.218976
328.1757314
324.573633
321.3753894
318.5451381
316.0486712
313.8536139
311.9295544
310.2481278
308.7830565
307.5101533
306.40729
305.4543391
304.6330928
303.927165
303.3218809
302.8041598
302.3623925
301.9863194
301.6669088
301.3962409
301.1673956
300.9743477
300.811869
300.6754382
300.5611581
300.4656811
300.3861418
300.3200968
300.2654715
300.2205132
300.1837501
300.1539557
300.1301185
300.1114166
300.097196
300.0869536
300.0803235
300.0770672
609.0910241
586.4736227
564.903374
544.3762439
524.8868338
506.4280679
488.9908879
472.5639623
457.1334233
442.6826397
429.1920426
416.6390128
404.9978416
394.2397723
384.3331257
375.2435084
366.9340993
359.3660052
352.4986706
346.2903288
340.6984738
335.6803384
331.1933601
327.1956189
323.6462375
320.5057305
317.7362995
315.302069
313.1692632
311.3063258
309.683987
308.2752828
307.0555328
306.0022835
305.0952241
304.3160807
303.648495
303.0778938
302.5913524
302.1774571
301.8261691
301.528693
301.2773511
301.0654645
300.8872437
300.7376864
300.6124851
300.5079432
300.4208994
300.3486602
300.2889408
300.2398122
300.1996557
300.1671237
300.1411052
300.120698
300.1051847
300.0940134
300.086783
300.0832323
637.162345
612.9879576
589.8641106
567.7938214
546.7788118
526.8191016
507.9125969
490.0546856
473.2378532
457.4513379
442.6808417
428.9083164
416.1118388
404.2655886
393.3399339
383.3016282
374.1141121
365.7379095
358.131103
351.2498685
345.0490461
339.4827259
334.5048244
330.0696337
326.1323248
322.6493937
319.5790394
316.8814717
314.5191459
312.4569267
310.6621878
309.1048516
307.757378
306.5947112
305.5941907
304.7354371
304.0002185
303.3723038
302.8373104
302.3825485
301.9968683
301.6705106
301.3949653
301.1628378
300.9677244
300.8040984
300.6672055
300.5529698
300.457909
300.379059
300.3139077
300.2603359
300.216567
300.1811225
300.1527848
300.1305655
300.113679
300.1015214
300.0936539
300.0897907
667.5680028
641.7775703
617.0291226
593.3339763
570.7023086
549.142649
528.6613475
509.2620356
490.945097
473.7071746
457.5407358
442.4337236
428.3693144
415.3258029
403.2766253
392.1905259
382.031865
372.7610537
364.3351003
356.7082404
349.8326243
343.6590319
338.1375837
333.2184246
328.8523556
324.9913964
321.5892681
318.6017875
315.9871735
313.7062656
311.7226624
310.0027873
308.5158905
307.2339995
306.1318256
305.1866395
304.3781221
303.6882007
303.1008766
302.6020497
302.1793447
301.8219424
301.5204199
301.2665986
301.0534047
300.8747399
300.7253645
300.6007912
300.4971902
300.4113052
300.3403788
300.2820873
300.2344841
300.1959506
300.1651547
300.1410157
300.1226753
300.1094738
300.1009321
300.0967381
700.5312605
673.0659239
646.6203683
621.2154443
596.8711468
573.6059985
551.4363844
530.3758558
510.4344278
491.6179016
473.927245
457.3580644
441.9002045
427.5374997
414.2477015
402.00259
390.7682702
380.5056415
371.1710177
362.7168666
355.0926343
348.2456143
342.1218229
336.6668473
331.826634
327.5481966
323.780225
320.4735883
317.581727
315.0609392
312.8705668
310.9730918
309.3341547
307.9225089
306.7099225
305.6710402
304.7832174
304.0263347
303.3826024
302.8363616
302.3738862
301.9831926
301.6538567
301.3768435
301.1443482
300.9496512
300.7869858
300.6514195
300.5387473
300.4453979
300.36835
300.3050604
300.2534
300.2116004
300.1782071
300.152041
300.1321659
300.117863
300.1086101
300.1040675
736.2999406
707.1017758
678.88566
651.6831592
625.5254421
600.4425535
576.4626026
553.6108881
531.9089897
511.3738642
492.01699
473.843608
456.8521046
441.0335786
426.3716244
412.8423519
400.4146469
389.0506626
378.7065156
369.3331496
360.8773198
353.2826482
346.4906987
340.4420267
335.0771611
330.33749
326.1660266
322.5080439
319.3115739
316.5277747
314.1111748
312.0198057
310.2152404
308.6625515
307.3302062
306.1899134
305.2164353
304.3873772
303.6829649
303.085817
302.5807201
302.1544113
301.7953709
301.4936286
301.2405841
301.0288431
300.8520684
300.7048463
300.5825676
300.4813221
300.3978056
300.3292393
300.2732995
300.2280576
300.1919288
300.1636289
300.1421393
300.1266781
300.1166776
300.1117684
775.1479158
744.1610359
714.1008702
685.0107764
656.9344017
629.9148508
603.9937212
579.2100299
555.5990636
533.1911999
512.0107564
492.0749303
473.3928929
455.965099
439.7828626
424.8282308
411.0741716
398.4850672
387.017485
376.6211789
367.2402636
358.8144941
351.2805852
344.5735089
338.6277159
333.3782409
328.7616615
324.7168953
321.1858288
318.1137837
315.4498296
313.1469615
311.1621594
309.4563515
307.9942993
306.7444258
305.6786005
304.7718996
304.0023493
303.3506665
302.8000006
302.3356855
301.9450032
301.6169639
301.3421027
301.112294
300.9205839
300.7610404
300.6286195
300.5190473
300.4287168
300.3545977
300.2941587
300.2453007
300.2063001
300.1757618
300.1525794
300.1359041
300.1251202
300.119827
817.3764039
784.5485136
752.5721199
721.5032761
691.3992979
662.3178436
634.3158008
607.4479988
581.7657844
557.3155146
534.1370375
512.2622447
491.7137822
472.504007
454.6342652
438.094545
422.8635361
408.9090939
396.1890767
384.6525014
374.2409405
364.8900746
356.531312
349.0933937
342.5039113
336.6906847
331.5829592
327.1124021
323.2138904
319.8260954
316.8918793
314.358523
312.1778112
310.305998
308.7036805
307.3356016
306.1704032
305.1803492
304.3410297
303.6310626
303.0317969
302.5270288
302.1027318
301.7468064
301.4488496
301.1999448
300.9924733
300.8199452
300.6768503
300.5585256
300.4610408
300.3810977
300.3159441
300.2633001
300.2212953
300.1884167
300.1634653
300.145522
300.1339202
300.128226
863.3149537
828.5994577
794.6378719
761.4995891
729.2565848
697.9824452
667.7511256
638.6354486
610.7053752
584.0261125
558.656143
534.6452821
512.0328843
490.846318
471.0998231
452.7938376
435.9148471
420.4357698
406.3168447
393.5069563
381.9452958
371.5632474
362.2863799
354.0364342
346.7332119
340.2962914
334.6465202
329.707256
325.4053483
321.671866
318.4425916
315.6583093
313.2649156
311.2133872
309.4596365
307.9642826
306.6923655
305.6130226
304.6991474
303.9270424
303.2760792
302.7283708
302.2684641
301.883054
301.5607214
301.2916961
301.0676438
300.8814765
300.7271847
300.5996907
300.4947196
300.4086889
300.3386122
300.2820182
300.2368814
300.2015646
300.1747714
300.1555084
300.1430555
300.1369444
913.3219676
876.6807533
840.6708151
805.3751617
770.8811066
737.279311
704.6624628
673.1235805
642.7539654
613.6408682
585.8649719
559.4978248
534.5993848
511.2158427
489.3778908
469.0995721
450.3778031
433.1926037
417.5080072
403.2735673
390.4263358
378.8931593
368.593136
359.4400843
351.3448961
344.2176752
337.9695969
332.5144503
327.769854
323.6581562
320.1070439
317.0498977
314.4259306
312.1801534
310.2632045
308.6310814
307.244804
306.0700361
305.0766871
304.2385093
303.5327041
302.9395458
302.4420282
302.0255385
301.67756
301.3874033
301.145966
300.9455199
300.7795232
300.6424564
300.5296793
300.4373079
300.3621087
300.3014086
300.2530185
300.2151709
300.1864669
300.1658354
300.1525003
300.145957
967.784563
929.1916018
891.0793962
853.5443435
816.6893144
780.6228172
745.4576917
711.309277
678.2930544
646.5218271
616.1025541
587.1330036
559.698437
533.8685554
509.6949483
487.2092545
466.4221858
447.3234892
429.8828278
414.0514831
399.7647123
386.9445563
375.5028845
365.3444725
356.3699418
348.4784307
341.5699095
335.5470935
330.3169439
325.7917721
321.8899833
318.5365049
315.6629527
313.2075868
311.1151064
309.3363284
307.827788
306.5512919
305.4734513
304.5652124
303.8013996
303.1602809
302.6231632
302.1740189
301.7991479
301.4868734
301.2272709
301.0119292
300.8337401
300.6867155
300.5658286
300.4668776
300.3863683
300.3214156
300.2696591
300.2291944
300.1985157
300.1764706
300.1622245
300.155235
1027.117534
986.56348
946.3088212
906.4624554
867.1423851
828.4751654
790.5947754
753.6407705
717.7556674
683.0816116
649.7564586
617.9094687
587.6568834
559.0976992
532.3099818
507.3480385
484.2406962
462.990824
443.5761048
425.9509402
410.0492679
395.7880162
383.0708978
371.7922674
361.8408085
353.1028755
345.4653786
338.8181534
333.0558061
328.07906
323.795652
320.1208411
316.9775972
314.2965375
312.0156716
310.0800115
308.4410923
307.0564425
305.8890328
304.9067265
304.0817488
303.3901844
302.8115113
302.328175
301.9252031
301.5898613
301.3113476
301.0805243
300.8896825
300.7323389
300.603059
300.4973066
300.4113142
300.3419744
300.286748
300.2435878
300.2108764
300.1873769
300.1721938
300.1647454
1091.761165
1049.259169
1006.841357
964.627402
922.7491395
881.3505428
840.5870353
800.6238418
761.6332327
723.7906916
687.2701505
652.2385286
618.8499003
587.239714
557.5195429
529.7728464
504.0521414
480.37783
458.7387342
439.0942022
421.377492
405.5000513
391.3562804
378.8283967
367.7910801
358.1156681
349.6737534
342.3401149
335.994979
330.5256487
325.8275723
321.8049343
318.3708576
315.447304
312.9647504
310.8617086
309.0841458
307.5848515
306.3227845
305.2624289
304.373174
303.6287333
303.0066083
302.4876007
302.0553745
301.6960662
301.3979405
301.1510892
300.947169
300.7791747
300.6412436
300.528489
300.4368578
300.3630109
300.3042226
300.2582974
300.2235023
300.1985125
300.1823697
300.1744514
1162.177642
1117.770688
1073.195834
1028.580777
984.0687348
939.819332
896.0087349
852.8285652
810.4832125
769.1855704
729.1513639
690.5923303
653.7086325
618.681035
585.6635114
554.7769985
526.1049349
499.6910108
475.5392679
453.6163917
433.8558021
416.1630037
400.4216178
386.4995595
374.2549242
363.5412701
354.2121104
346.1245351
339.1419693
333.136131
327.9882871
323.5899228
319.8429416
316.6595058
313.961616
311.680514
309.7559759
308.1355518
306.7737901
305.6314783
304.6749203
303.8752623
303.2078756
302.6517984
302.1892381
301.8051293
301.4867476
301.2233713
301.0059889
300.8270477
300.6802369
300.5603041
300.4628988
300.3844413
300.3220124
300.2732633
300.2363414
300.2098312
300.1927096
300.1843122
1238.845786
1192.616035
1145.926435
1098.908654
1051.713344
1004.512562
957.5011379
910.8967438
864.9376129
819.8779983
775.9815867
733.5131574
692.728865
653.86577
617.1315237
582.6952732
550.6807985
521.1626134
494.1653237
469.6660712
447.5995204
427.8646202
410.3323166
394.8534611
381.2663113
369.4032085
359.0961932
350.181474
342.502777
335.9136768
330.2790505
325.4758127
321.3930845
317.9319411
315.0048575
312.534958
310.4551495
308.7072035
307.2408318
306.0127916
304.9860399
304.1289524
303.4146127
302.820174
302.326293
301.9166312
301.5774194
301.2970801
301.0659018
300.8757592
300.719875
300.5926166
300.4893253
300.4061724
300.3400394
300.2884193
300.2493364
300.2212823
300.203167
300.1942833
1322.253552
1274.33471
1225.621223
1176.242782
1126.351484
1076.127163
1025.779512
975.550445
925.7127384
876.5655303
828.4269116
781.6240133
736.4808023
693.3042302
652.369957
613.9092183
578.0984419
545.0528483
514.8246029
487.4053477
462.7323472
440.6971402
421.155505
403.9376685
388.8579218
375.7230904
364.3395606
354.5187828
346.0813155
338.8595712
332.699468
327.4612008
323.019339
319.2624302
316.0922643
313.4229232
311.1797126
309.2980498
307.722361
306.4050235
305.3053778
304.3888213
303.6259905
302.9920322
302.4659597
302.0300905
301.6695576
301.3718873
301.1266373
300.9250873
300.7599755
300.6252766
300.5160138
300.4281022
300.3582185
300.3036935
300.2624254
300.2328107
300.2136916
300.2043167
1412.887349
1363.482261
1312.901789
1261.264057
1208.713319
1155.432957
1101.641831