/*--------------------------------*- C++ -*----------------------------------*\
  =========                 |
  \\      /  F ield         | OpenFOAM: The Open Source CFD Toolbox
   \\    /   O peration     | Website:  https://openfoam.org
    \\  /    A nd           | Version:  6
     \\/     M anipulation  |
\*---------------------------------------------------------------------------*/
FoamFile
{
    version     2.0;
    format      ascii;
    class       volScalarField;
    location    "0.0015";
    object      Num_divU;
}
// * * * * * * * * * * * * * * * * * * * * * * * * * * * * * * * * * * * * * //

dimensions      [0 0 -1 0 0 0 0];

internalField   nonuniform List<scalar> 
600
(
3.934797745e-09
-6.004885106e-11
-1.927478978e-09
-4.422657238e-09
-8.478312641e-09
-1.61478669e-08
-3.032282345e-08
-5.538651545e-08
-9.660261187e-08
-1.584492514e-07
-2.375568967e-07
-3.058035512e-07
-2.665075712e-07
8.655306047e-09
1.208667697e-06
1.008461836e-06
-4.11558829e-11
-5.502617556e-11
-9.737386659e-11
-6.715522141e-11
-1.536198587e-11
2.300217997e-11
3.407642074e-11
4.155113905e-12
7.903356925e-11
8.891926585e-11
1.175502103e-10
5.739457562e-11
-2.646991938e-11
1.151070177e-10
-2.772269135e-11
-1.284796732e-09
-1.512141185e-09
-2.809446267e-09
-5.981234129e-09
-1.321182182e-08
-2.810244966e-08
-5.677501794e-08
-1.08850714e-07
-1.994608865e-07
-3.514676406e-07
-5.97444883e-07
-9.030253482e-07
-5.599129622e-07
2.332077695e-07
2.996427301e-06
-1.317842487e-11
-3.451520411e-11
-3.687710581e-11
-2.952734779e-11
-1.125295906e-11
8.384154208e-12
1.869543051e-11
1.454990592e-11
2.536091325e-11
4.254535063e-11
2.806032714e-11
2.087337601e-11
1.394701489e-11
5.7113342e-12
-3.156706072e-09
-2.069446837e-09
-8.835657016e-10
-1.07288428e-09
-3.318764898e-09
-9.774482661e-09
-2.430625216e-08
-5.328859693e-08
-1.063010742e-07
-1.964405588e-07
-3.406035652e-07
-5.653435292e-07
-1.159159347e-06
-1.967624298e-06
-2.822286827e-06
-7.986327077e-12
-2.130181348e-11
-2.754108173e-11
-2.998049632e-11
-2.520830767e-11
-1.414579348e-11
1.25759936e-12
1.313224745e-11
1.84175524e-11
2.907865959e-11
3.31419163e-11
2.798560868e-11
2.743343732e-11
1.401729333e-11
9.593107396e-12
-4.469294727e-09
-2.072113294e-09
-6.630523295e-11
4.24169724e-10
-1.217566608e-09
-7.296050409e-09
-2.209629555e-08
-5.28371199e-08
-1.101004283e-07
-2.071350648e-07
-3.565371565e-07
-5.863216151e-07
-1.501945736e-06
-2.679651337e-06
-2.047520187e-06
-1.677893923e-11
-2.332111411e-11
-2.839553354e-11
-2.827670541e-11
-2.497280832e-11
-1.666020642e-11
-4.188463341e-12
8.875651839e-12
1.836619584e-11
2.711279531e-11
3.271129182e-11
3.007552579e-11
2.633863437e-11
1.738670557e-11
3.53211772e-12
-3.319348753e-09
-1.072922893e-09
8.64936784e-10
1.43395629e-09
-1.04563095e-10
-6.352797473e-09
-2.242452108e-08
-5.760887657e-08
-1.27505055e-07
-2.562530695e-07
-4.767256639e-07
-8.116000017e-07
-9.80895035e-07
-1.359148304e-06
-3.345892447e-07
-1.904972007e-11
-2.703717084e-11
-2.636891235e-11
-2.479227901e-11
-2.180037143e-11
-1.641455534e-11
-7.173320116e-12
4.972441932e-12
1.781101981e-11
2.829582921e-11
3.089077783e-11
2.725518938e-11
2.055668209e-11
1.014705934e-11
5.744591613e-12
5.002030354e-10
9.238048753e-10
1.813080436e-09
1.832795243e-09
6.434619357e-11
-6.196466991e-09
-2.215083015e-08
-5.721749624e-08
-1.272334239e-07
-2.567501918e-07
-4.790503791e-07
-8.179299619e-07
-9.949287444e-07
-1.38239228e-06
-3.329975788e-07
-1.800555937e-11
-1.97807788e-11
-2.315119758e-11
-1.992444063e-11
-1.716804701e-11
-1.41552935e-11
-7.683099826e-12
3.661401271e-12
1.644574108e-11
2.563663552e-11
2.668707617e-11
1.913825932e-11
1.010819638e-11
3.869226961e-12
-6.035699386e-12
6.546477714e-09
3.598275905e-09
2.518474857e-09
1.364432781e-09
-1.038524681e-09
-7.284783558e-09
-2.187850023e-08
-5.233424673e-08
-1.098387044e-07
-2.086762377e-07
-3.630659299e-07
-6.027212873e-07
-1.546646143e-06
-2.744952474e-06
-2.015914118e-06
-9.664543974e-12
-1.72371941e-11
-9.614196306e-12
-9.156358988e-12
-9.461294383e-12
-9.600412289e-12
-5.550247265e-12
3.643351471e-12
1.606034711e-11
2.287095427e-11
1.713451831e-11
3.709427193e-12
-5.336731886e-12
-1.617889627e-11
-4.152183983e-12
1.36762182e-08
6.261695119e-09
2.545310228e-09
-3.65715777e-10
-4.094056987e-09
-1.125968001e-08
-2.594664991e-08
-5.475976518e-08
-1.078039125e-07
-1.995184523e-07
-3.495936116e-07
-5.907566562e-07
-1.226720443e-06
-2.107494796e-06
-3.231932939e-06
-5.618498446e-12
8.607399266e-12
-1.537738521e-11
-3.571310031e-12
-1.148765981e-12
-3.456244452e-12
-2.62045029e-12
4.807406611e-12
1.429767948e-11
1.425842425e-11
4.0368657e-12
-6.128635442e-12
-2.343462172e-11
-7.253526627e-13
-2.686889314e-11
1.992977612e-08
7.812984616e-09
1.3404333e-09
-3.622910736e-09
-9.302710059e-09
-1.84171589e-08
-3.46768657e-08
-6.388919649e-08
-1.153804699e-07
-2.0428619e-07
-3.550301319e-07
-6.043484535e-07
-9.337970541e-07
-7.795278026e-07
-2.83785193e-07
2.933091326e-06
-2.754917911e-11
-3.511769433e-12
-9.160908693e-12
-1.593612042e-12
-1.81586751e-12
-1.332419396e-12
5.673256291e-12
1.161927727e-11
1.211792762e-11
6.808003695e-12
-2.265929038e-11
1.123833887e-11
-3.29224111e-11
3.962819431e-12
2.243764406e-08
6.680634426e-09
-1.763792893e-09
-8.520489197e-09
-1.641369971e-08
-2.806479457e-08
-4.621804808e-08
-7.408404374e-08
-1.151091978e-07
-1.716980647e-07
-2.404908051e-07
-2.976261803e-07
-2.55690154e-07
-9.565850415e-09
1.182000406e-06
8.782845833e-08
-2.471107806e-12
-2.790436366e-11
-1.313140966e-11
-1.732017345e-12
-1.644867451e-12
-4.359868481e-13
5.779199295e-12
1.42644207e-11
1.656616668e-11
-8.533458173e-12
3.880941711e-12
-1.27121433e-11
1.775956355e-12
-4.059327751e-11
1.693230625e-08
6.846254273e-10
-7.538866405e-09
-1.513777048e-08
-2.526791528e-08
-4.025296567e-08
-6.173155797e-08
-9.003638265e-08
-1.223790573e-07
-1.501225652e-07
-1.553499473e-07
-1.033584611e-07
7.67361241e-08
5.05084902e-07
4.480980916e-07
1.960984838e-07
-3.888053262e-06
-1.094445661e-11
6.116744098e-13
5.738868784e-12
2.122973572e-12
1.602870583e-12
8.862214113e-12
1.691172431e-11
1.248026551e-11
8.886303346e-14
4.106536347e-12
9.092977256e-18
-4.178627879e-06
-6.650098256e-12
-2.935938142e-09
-1.276258628e-08
-1.649375182e-08
-2.335498411e-08
-3.570934163e-08
-5.532567605e-08
-8.319010148e-08
-1.17789341e-07
-1.516150331e-07
-1.680121504e-07
-1.46262732e-07
-8.123128055e-08
-3.370628609e-08
3.526075466e-08
5.959678287e-07
2.95646765e-06
6.139021419e-06
1.19550992e-05
-1.295212191e-12
4.36449286e-12
2.452902443e-12
3.202179662e-12
1.077216012e-11
1.84406223e-11
1.489263872e-11
1.039080083e-11
2.473713422e-12
3.939296983e-06
-4.668366997e-08
-2.76000846e-06
-5.998940669e-08
-3.878795317e-08
-2.806079683e-08
-3.249364357e-08
-4.747045458e-08
-7.341676161e-08
-1.114894805e-07
-1.599660818e-07
-2.073945275e-07
-2.219648972e-07
-1.53707496e-07
4.192573629e-08
1.864249926e-07
4.428327759e-07
1.722246337e-06
3.373247748e-06
7.237728218e-06
7.583004885e-06
-9.922492674e-12
1.962977672e-12
2.100637162e-12
4.221235346e-12
1.081389341e-11
1.870686306e-11
1.519505176e-11
8.19536943e-12
3.27890163e-12
-6.272329927e-07
3.772913616e-07
1.084497623e-07
-6.346430565e-08
-4.163600628e-08
-3.261287256e-08
-4.014257229e-08
-6.049499107e-08
-9.506626525e-08
-1.469541428e-07
-2.1798606e-07
-2.99462029e-07
-3.462136514e-07
-2.577549464e-07
1.86616665e-07
4.257048846e-07
2.017060059e-06
3.867881568e-06
3.936532092e-06
1.260781043e-06
-2.118091857e-11
-4.069540112e-12
2.352630081e-12
1.863302407e-12
4.043310461e-12
1.037953175e-11
1.46898407e-11
1.309065051e-11
7.411373596e-12
1.631718235e-12
3.145942879e-13
3.188074136e-06
-4.151246837e-12
-1.678526108e-08
-2.291033605e-08
-3.118430897e-08
-4.803007574e-08
-7.745757414e-08
-1.230686279e-07
-1.898235649e-07
-2.858180901e-07
-4.210048496e-07
-5.62635837e-07
-6.083361369e-07
-2.236778118e-07
4.307782098e-07
2.315738874e-06
-6.078615837e-07
-1.254001404e-11
-1.268336868e-11
-1.178287032e-11
-2.601095164e-12
3.548511923e-13
1.203854615e-12
3.055332506e-12
9.186704854e-12
1.276770691e-11
1.05724626e-11
4.07690923e-12
-7.799305685e-13
-1.878253127e-11
-1.906156711e-11
-1.816471516e-11
-6.872376642e-09
-1.699997385e-08
-3.42569196e-08
-6.171259023e-08
-1.047608914e-07
-1.663033151e-07
-2.472166446e-07
-3.527672437e-07
-5.213433618e-07
-7.862766912e-07
-1.364159961e-06
-1.466715894e-06
1.035650823e-06
2.649438514e-06
-3.630887807e-12
-5.136013421e-12
-1.22019723e-11
-7.697118517e-12
-1.906381356e-12
8.878901219e-14
3.690449035e-15
2.109148041e-12
7.397239676e-12
1.122221573e-11
9.730797717e-12
2.714913157e-12
-4.792709717e-12
-1.465892263e-11
-1.916464165e-11
-8.945401775e-12
-3.521420758e-09
-1.559227403e-08
-4.160326509e-08
-8.34409159e-08
-1.496472903e-07
-2.430586095e-07
-3.51908317e-07
-4.361595801e-07
-4.845442219e-07
-9.207327842e-07
-2.204251205e-06
-4.080899377e-06
-2.656813668e-12
-4.317023121e-12
-6.64706746e-12
-7.931252269e-12
-8.385997764e-12
-4.593362688e-12
-2.391634934e-12
-2.716265228e-13
-1.294395933e-12
1.633351649e-12
5.488512361e-12
1.078932519e-11
9.629368737e-12
4.445301842e-12
-5.338517085e-12
-1.24833678e-11
-1.288431745e-11
-7.382313152e-12
-1.866039646e-09
-1.520200105e-08
-4.973687383e-08
-1.090847011e-07
-2.111495096e-07
-3.732425184e-07
-5.982794767e-07
-8.241379425e-07
-9.16581084e-07
-5.237129073e-07
1.16841062e-07
9.530409991e-14
-9.669353657e-13
-5.906510875e-12
-7.519593371e-12
-9.335524557e-12
-8.8958873e-12
-6.61934403e-12
-3.028811086e-12
-2.254312693e-12
-1.569349068e-12
-1.742385042e-13
5.123115725e-12
9.949485568e-12
1.15904656e-11
6.364527685e-12
-8.231124747e-13
-7.895847079e-12
-7.943493518e-12
-4.69636552e-12
-9.611761314e-11
-1.266380851e-08
-5.174532577e-08
-1.226826943e-07
-2.546113524e-07
-4.912845312e-07
-8.944642198e-07
-1.444021654e-06
-1.312478254e-06
-4.460923275e-07
2.415493455e-06
-3.868650422e-13
-2.413606081e-12
-7.098298375e-12
-9.987010262e-12
-1.199054956e-11
-1.02688021e-11
-7.7376379e-12
-4.30614006e-12
-3.412437997e-12
-2.424031977e-12
-4.461130986e-13
5.37541371e-12
1.102429301e-11
1.356036427e-11
9.018935692e-12
2.590661811e-12
-3.747040508e-12
-3.751499924e-12
-2.11703239e-12
2.364849139e-09
-5.807371751e-09
-4.108955501e-08
-1.054371942e-07
-2.250672718e-07
-4.382293191e-07
-8.085221739e-07
-1.866802117e-06
-2.854803693e-06
-3.229534273e-06
-3.795287834e-13
-4.695235617e-13
-2.830499535e-12
-4.742007681e-12
-6.26065458e-12
-5.837030911e-12
-5.020401352e-12
-3.017761765e-12
-2.208345976e-12
-1.543570337e-12
-1.213497246e-12
1.245926319e-12
4.442669931e-12
7.333486193e-12
6.557741198e-12
3.928554885e-12
1.060090084e-13
-1.352014907e-12
-9.379580922e-13
4.866142659e-13
)
;

boundaryField
{
    lowerWall
    {
        type            calculated;
        value           nonuniform 0();
    }
    atmosphere
    {
        type            calculated;
        value           nonuniform List<scalar> 
20
(
3.934797745e-09
-2.772269135e-11
-3.156706072e-09
-4.469294727e-09
-3.319348753e-09
5.002030354e-10
6.546477714e-09
1.36762182e-08
1.992977612e-08
2.243764406e-08
1.693230625e-08
-2.935938142e-09
-5.998940669e-08
-6.346430565e-08
-1.678526108e-08
-6.872376642e-09
-3.521420758e-09
-1.866039646e-09
-9.611761314e-11
2.364849139e-09
)
;
    }
    rightWall
    {
        type            empty;
    }
    leftWall
    {
        type            empty;
    }
    frontAndBack
    {
        type            calculated;
        value           nonuniform List<scalar> 
30
(
2.364849139e-09
-5.807371751e-09
-4.108955501e-08
-1.054371942e-07
-2.250672718e-07
-4.382293191e-07
-8.085221739e-07
-1.866802117e-06
-2.854803693e-06
-3.229534273e-06
-3.795287834e-13
-4.695235617e-13
-2.830499535e-12
-4.742007681e-12
-6.26065458e-12
-5.837030911e-12
-5.020401352e-12
-3.017761765e-12
-2.208345976e-12
-1.543570337e-12
-1.213497246e-12
1.245926319e-12
4.442669931e-12
7.333486193e-12
6.557741198e-12
3.928554885e-12
1.060090084e-13
-1.352014907e-12
-9.379580922e-13
4.866142659e-13
)
;
    }
    procBoundary4to2
    {
        type            processor;
        value           nonuniform List<scalar> 
30
(
7.680129458e-09
1.21773106e-09
-2.153630313e-09
-5.611242965e-09
-1.035229921e-08
-1.806627723e-08
-3.104325615e-08
-5.170352623e-08
-8.185822328e-08
-1.188415832e-07
-1.484166907e-07
-1.304716696e-07
1.830384528e-08
3.828185565e-07
5.809801794e-07
5.770216696e-07
-2.367189545e-06
-9.069950639e-11
-6.832242735e-11
-3.549201993e-11
-3.471857438e-12
1.790893064e-11
1.213303274e-11
2.748152061e-11
2.129314493e-11
1.353250277e-10
6.68511154e-11
1.335017354e-11
1.464809722e-06
-6.599761768e-11
)
;
    }
    procBoundary4to5
    {
        type            processor;
        value           nonuniform List<scalar> 
20
(
-5.7765861e-11
-1.803531692e-12
-4.359937159e-12
4.556387384e-12
5.067142329e-13
2.609103525e-12
-1.324372084e-11
-4.577500479e-12
-4.093351979e-11
-6.811142733e-12
-5.107220255e-12
1.21540729e-11
1.526177917e-11
-1.960698027e-11
-6.780328988e-12
-9.651745952e-12
-6.18267653e-12
-3.934563694e-12
-7.463736674e-13
3.649182772e-13
)
;
    }
}


// ************************************************************************* //
