/*--------------------------------*- C++ -*----------------------------------*\
  =========                 |
  \\      /  F ield         | OpenFOAM: The Open Source CFD Toolbox
   \\    /   O peration     | Website:  https://openfoam.org
    \\  /    A nd           | Version:  6
     \\/     M anipulation  |
\*---------------------------------------------------------------------------*/
FoamFile
{
    version     2.0;
    format      ascii;
    class       surfaceScalarField;
    location    "0.0015";
    object      phi;
}
// * * * * * * * * * * * * * * * * * * * * * * * * * * * * * * * * * * * * * //

dimensions      [0 3 -1 0 0 0 0];

internalField   nonuniform List<scalar> 
1150
(
-3.399308166e-19
2.912438634e-20
-3.440445018e-19
3.878384527e-20
-3.506955442e-19
5.665064082e-20
-3.609934543e-19
8.350952395e-20
-3.767993233e-19
1.223456397e-19
-4.015310149e-19
1.78513351e-19
-4.409837816e-19
2.599937236e-19
-5.045156366e-19
3.773545834e-19
-6.061008815e-19
5.427314045e-19
-7.645285976e-19
7.665230784e-19
-9.999063902e-19
1.049557038e-18
-1.319601431e-18
1.366379307e-18
-1.671586255e-18
1.630468694e-18
-1.85779343e-18
1.616837251e-18
-9.061314177e-19
7.277173152e-19
-3.39073877e-20
8.988949739e-33
6.378936502e-20
7.336203773e-20
8.068623596e-20
2.707190432e-20
7.801260208e-20
-5.418594754e-21
4.747514784e-20
-3.220555462e-20
2.293653009e-20
-4.129813968e-20
4.460941946e-21
-4.138656694e-20
-9.780625132e-21
-3.715076267e-20
-2.49389865e-20
-3.074384501e-20
-3.983941041e-20
-1.976045661e-20
-4.730758524e-20
-1.459782552e-21
-9.255760657e-22
2.402257836e-20
1.113843637e-19
1.690473011e-20
3.233794961e-19
-9.89926009e-20
1.682719078e-19
-3.186193173e-19
2.942951399e-20
-3.190707807e-19
3.86642879e-20
-3.18636637e-19
5.55444343e-20
-3.169182921e-19
8.054253627e-20
-3.134557703e-19
1.162247916e-19
-3.08260826e-19
1.674464858e-19
-3.024118042e-19
2.416547242e-19
-2.992119203e-19
3.489213582e-19
-3.060117825e-19
5.011531715e-19
-3.375690819e-19
7.094310949e-19
-4.224230499e-19
9.782031661e-19
-6.159513743e-19
1.294376572e-18
-9.943298583e-19
1.607502578e-18
-1.384043046e-18
1.757700233e-18
-1.547629614e-18
9.949517808e-19
-8.723270626e-20
-1.286514393e-19
1.749923164e-20
-3.137575724e-20
4.819573703e-20
-3.639941167e-21
5.122564228e-20
-8.464889826e-21
3.83825629e-20
-1.937559851e-20
2.284810286e-20
-2.576868095e-20
8.696746172e-21
-2.723148396e-20
-3.373707438e-21
-2.507199998e-20
-1.395559815e-20
-2.015548768e-20
-2.153873641e-20
-1.216604683e-20
-2.18252244e-20
-1.154385512e-21
-8.04342431e-21
1.025324952e-20
-4.512967327e-21
1.338355018e-20
-1.217482082e-19
1.824883865e-20
5.519046105e-20
-2.979317942e-19
2.741282701e-20
-2.952213068e-19
3.503404641e-20
-2.885961775e-19
4.852660905e-20
-2.761914283e-19
6.766094965e-20
-2.552622266e-19
9.382058331e-20
-2.223562781e-19
1.301963228e-19
-1.735089561e-19
1.820046234e-19
-1.047122833e-19
2.564408645e-19
-1.25272194e-20
3.617231857e-19
1.055251848e-19
5.040717756e-19
2.515745601e-19
6.807744285e-19
4.274363288e-19
8.672510127e-19
5.226779357e-19
9.970790387e-19
4.624183127e-19
9.434601677e-19
2.030203919e-19
-2.93682224e-33
7.338665378e-20
9.78749306e-22
4.523504776e-20
-3.233618695e-21
4.337078837e-20
-1.787922256e-21
4.031493356e-20
-5.422359681e-21
3.198948048e-20
-1.106134912e-20
2.138529984e-20
-1.517078733e-20
1.085623013e-20
-1.670185531e-20
1.542804897e-21
-1.575273819e-20
-5.966157297e-21
-1.263833991e-20
-1.052707508e-20
-7.592205203e-21
-1.041758936e-20
-1.249141488e-21
-4.913123648e-21
4.761221854e-21
3.523211772e-22
8.130297994e-21
7.785637756e-21
1.082175198e-20
1.288597606e-20
-2.802524191e-19
2.427354833e-20
-2.756835117e-19
2.954419976e-20
-2.652904804e-19
3.810410875e-20
-2.461068581e-19
4.866584721e-20
-2.136491643e-19
6.082174878e-20
-1.618967931e-19
7.520126256e-20
-8.33453858e-20
9.363264035e-20
3.047490002e-20
1.191374143e-19
1.879941408e-19
1.552704212e-19
3.964055652e-19
2.036003225e-19
6.6190348e-19
2.568155556e-19
9.858302066e-19
2.827369017e-19
1.12247378e-18
1.929040271e-19
1.050664434e-18
-1.756866338e-19
1.40655463e-19
-1.479043092e-32
6.917428567e-20
7.245246928e-20
4.668074414e-20
1.92495579e-20
3.973635089e-20
5.143850753e-21
3.467594405e-20
-3.745202688e-22
2.788004224e-20
-4.276546331e-21
1.985423184e-20
-7.15238147e-21
1.18053472e-20
-8.654832216e-21
4.657203198e-21
-8.600649453e-21
-9.200225937e-22
-7.052951363e-21
-4.18401136e-21
-4.316166305e-21
-4.407226012e-21
-1.011388485e-21
-1.544047508e-21
1.91141025e-21
3.043775178e-21
3.554181368e-21
9.849861803e-21
4.023392783e-21
2.464676229e-21
-2.669947492e-19
2.168112025e-20
-2.624741443e-19
2.45467402e-20
-2.519024595e-19
2.79168403e-20
-2.317844233e-19
2.918512493e-20
-1.967746883e-19
2.576554129e-20
-1.396107561e-19
1.521386482e-20
-5.135577029e-20
-4.588799262e-21
7.717792335e-20
-3.500022442e-20
2.515143703e-19
-7.573493914e-20
4.646273002e-19
-1.234028605e-19
6.791450329e-19
-1.695802499e-19
8.003131755e-19
-1.991423532e-19
7.483146178e-19
-1.910507645e-19
9.34861103e-20
-1.249240392e-19
-5.522022077e-20
3.912377062e-33
1.597137439e-20
1.252407583e-21
3.257503704e-20
2.633878735e-21
3.421797993e-20
3.48918834e-21
3.077391804e-20
3.058522836e-21
2.500420715e-20
1.483475503e-21
1.835178112e-20
-5.072508032e-22
1.185952997e-20
-2.165769206e-21
6.204901309e-21
-2.943810817e-21
1.816762461e-21
-2.656896506e-21
-8.79233548e-22
-1.607594372e-21
-1.484427282e-21
-3.924655158e-22
9.87236069e-23
3.403727783e-22
3.512986603e-21
1.490546753e-22
8.291145258e-21
-7.502560686e-22
-1.492391373e-21
-2.581360096e-19
2.148078702e-20
-2.55863362e-19
2.268467251e-20
-2.49274313e-19
2.213360489e-20
-2.35022083e-19
1.574747053e-20
-2.07845962e-19
-1.381981433e-21
-1.603968512e-19
-3.498923125e-20
-8.330233982e-20
-9.152812413e-20
3.366350405e-20
-1.773960667e-19
1.979440869e-19
-2.965637107e-19
4.054676942e-19
-4.450376648e-19
6.226201667e-19
-5.996440029e-19
7.576285535e-19
-6.976751694e-19
7.286721989e-19
-6.042849654e-19
9.403111124e-20
-1.046795233e-19
-5.396781343e-20
2.233526484e-32
1.735284562e-20
-7.007625394e-20
3.343034679e-20
-1.345241389e-20
3.378731458e-20
3.121931131e-21
2.919887083e-20
7.638111276e-21
2.301348094e-20
7.661235153e-21
1.669326279e-20
5.806676101e-21
1.10814884e-20
3.442590473e-21
6.491815655e-21
1.647489221e-21
2.86606461e-21
9.76163758e-22
3.358953126e-22
9.339689854e-22
-7.515889887e-22
7.068797083e-22
-9.25944969e-23
-3.101158204e-22
2.613675867e-21
-2.552723157e-21
7.549009986e-21
-5.683870532e-21
-5.993011152e-21
-2.519910784e-19
2.529205717e-20
-2.540820187e-19
2.637484651e-20
-2.555341945e-19
2.470510286e-20
-2.538939078e-19
1.471359841e-20
-2.450592572e-19
-1.067819856e-20
-2.229554058e-19
-6.033076417e-20
-1.790660586e-19
-1.451412492e-19
-1.021715157e-19
-2.775502745e-19
2.155728277e-20
-4.691097107e-19
2.080414356e-19
-7.242668113e-19
4.750247925e-19
-1.027989993e-18
8.348752341e-19
-1.325401736e-18
1.038069201e-18
-1.494877212e-18
1.040245906e-18
-1.326835092e-18
1.442840847e-19
8.573858548e-33
7.39766847e-20
2.268507557e-22
5.000469111e-20
1.051191872e-20
3.830349416e-20
1.481885511e-20
2.922199428e-20
1.671554166e-20
2.115892155e-20
1.572010286e-20
1.432917695e-20
1.263215386e-20
9.28638701e-21
8.482913633e-21
5.820490101e-21
5.115005397e-21
2.823869795e-21
3.979921996e-21
1.088060344e-22
3.659197614e-21
-1.768584494e-21
2.591885578e-21
-2.335201801e-21
2.581501211e-22
-5.174715158e-22
-4.372825323e-21
7.239869265e-21
-1.344840193e-20
-1.852911036e-20
-2.452451565e-19
3.407239252e-20
-2.533270244e-19
3.723969e-20
-2.66033388e-19
3.854271545e-20
-2.825564007e-19
3.107407078e-20
-3.011733932e-19
6.119213029e-21
-3.189853156e-19
-4.752314402e-20
-3.312867042e-19
-1.44371705e-19
-3.307061314e-19
-3.024685208e-19
-3.060628249e-19
-5.416658675e-19
-2.410868451e-19
-8.779176593e-19
-1.135599308e-19
-1.310891847e-18
1.006626364e-19
-1.802182819e-18
3.013204433e-19
-2.240744108e-18
3.923741952e-19
-2.354553202e-18
2.078546158e-19
-1.251895067e-18
8.426175381e-20
1.238172156e-19
5.431162825e-20
4.04658698e-20
4.020018128e-20
2.892346769e-20
2.822655595e-20
2.868757974e-20
1.807097283e-20
2.587517542e-20
1.017993693e-20
2.052165365e-20
5.918478913e-21
1.274320701e-20
4.685406777e-21
6.350214158e-21
2.503145454e-21
6.168537843e-21
-9.585059984e-22
7.127186145e-21
-4.102319987e-21
5.73749373e-21
-6.966177288e-21
3.119283584e-21
-9.593048174e-21
-1.756369824e-21
2.159160954e-21
-2.520093344e-20
-6.636107338e-20
-2.332768141e-19
4.764517042e-20
-2.481057213e-19
5.554103475e-20
-2.736684716e-19
6.470121388e-20
-3.113675393e-19
6.716295599e-20
-3.628660621e-19
5.348319798e-20
-4.301303957e-19
1.155578554e-20
-5.150414391e-19
-7.487260193e-20
-6.186691739e-19
-2.272359846e-19
-7.403273037e-19
-4.712879469e-19
-8.774839965e-19
-8.315548292e-19
-1.029614176e-18
-1.316552838e-18
-1.211984414e-18
-1.888411895e-18
-1.459057652e-18
-2.408691785e-18
-1.618654253e-18
-2.541413403e-18
-1.489846637e-18
-1.506829437e-18
-6.243327005e-20
1.126869643e-32
4.276922598e-20
-6.474887031e-20
3.996429333e-20
3.172683955e-20
2.541415164e-20
4.323364991e-20
1.271745098e-20
3.85711678e-20
2.401490215e-21
3.083680737e-20
-4.745139883e-22
1.561861902e-20
4.503730451e-21
1.374491167e-21
3.461793765e-21
7.215638652e-21
-2.348198418e-21
1.294256407e-20
-6.720530167e-21
1.011285126e-20
-1.184183074e-20
8.23051336e-21
-3.303761206e-20
1.944440631e-20
-1.31593205e-19
7.334002733e-20
-1.92389814e-19
-2.107638098e-19
6.42382887e-20
-2.31989154e-19
7.973554977e-20
-2.698409706e-19
1.017691226e-19
-3.280901884e-19
1.216252898e-19
-4.121903814e-19
1.302884135e-19
-5.296906293e-19
1.165827915e-19
-6.900910673e-19
6.498648157e-20
-9.038280499e-19
-4.64252434e-20
-1.179614766e-18
-2.466608737e-19
-1.519419422e-18
-5.680604232e-19
-1.910358484e-18
-1.032498577e-18
-2.310553862e-18
-1.620494818e-18
-2.610716175e-18
-2.222169539e-18
-2.566831265e-18
-2.589549803e-18
-1.155045407e-18
-2.393281786e-18
-4.947841857e-22
-1.115515753e-18
1.39244934e-19
-2.044896868e-19
5.147110294e-20
1.194882687e-19
2.075166926e-20
7.394724741e-20
4.983090398e-21
5.433897688e-20
-1.281669796e-20
4.863586467e-20
-1.471864165e-20
1.752036895e-20
1.034487779e-20
-2.368645975e-20
9.188719056e-21
8.37813713e-21
-5.177911147e-21
2.731655702e-20
-8.602867956e-21
1.353401542e-20
-6.27937763e-22
2.573080304e-22
2.085800888e-20
-2.047190175e-21
3.150691698e-19
-2.208703443e-19
4.609459486e-19
-1.724921194e-19
7.99432084e-20
-1.987429906e-19
1.062906989e-19
-2.460468481e-19
1.457223727e-19
-3.202057251e-19
1.890562687e-19
-4.301503152e-19
2.29002819e-19
-5.886783111e-19
2.572205804e-19
-8.126162328e-19
2.614881551e-19
-1.121562552e-18
2.225049058e-19
-1.533342574e-18
1.107284553e-19
-2.053872285e-18
-1.142518524e-19
-2.659958517e-18
-4.954567657e-19
-3.275423142e-18
-1.050967288e-18
-3.737464167e-18
-1.726023571e-18
-3.738252375e-18
-2.364279415e-18
-3.022142125e-18
-2.910237327e-18
-3.30391908e-19
-3.720111088e-18
4.632228891e-19
-2.726128164e-18
5.930082356e-21
5.767762113e-19
1.143399083e-21
7.873420253e-20
-7.200218282e-22
5.62049484e-20
-4.393219392e-20
9.184898031e-20
-5.59254707e-20
2.951435811e-20
4.240947493e-20
-1.220174666e-19
2.812713911e-20
2.266798927e-20
-1.896045283e-20
7.440969575e-20
-2.187957552e-20
1.64531776e-20
-2.932435981e-21
-1.868800638e-20
-3.10357388e-19
3.053777618e-19
-2.031144952e-19
-2.185281191e-18
2.031144932e-19
-1.142001324e-19
8.820800511e-20
-1.437424068e-19
1.301607127e-19
-1.958399782e-19
1.904893877e-19
-2.777331625e-19
2.6056946e-19
-4.008715301e-19
3.36270368e-19
-5.818628731e-19
4.136227339e-19
-8.431881326e-19
4.85840036e-19
-1.212436327e-18
5.394022817e-19
-1.717255028e-18
5.481626972e-19
-2.372276674e-18
4.660977261e-19
-3.157996149e-18
2.252570503e-19
-4.006921989e-18
-2.381442386e-19
-4.85139842e-18
-8.96527712e-19
-5.750077197e-18
-1.449929191e-18
-6.758485921e-18
-1.636954011e-18
-7.022770795e-18
-2.141840586e-18
-6.098202383e-18
-9.222425994e-19
-2.080487199e-19
4.479578603e-32
-7.043442463e-20
-5.888066839e-20
3.492401035e-20
-4.91515468e-20
-1.062668167e-19
2.330408975e-19
-2.074572971e-19
1.307062617e-19
1.870949324e-19
-5.165649085e-19
7.986884605e-20
1.299022715e-19
-7.691697152e-20
2.312021323e-19
-7.972190388e-21
-5.248698539e-20
3.70700194e-20
-6.372911674e-20
2.09324645e-18
4.699158154e-32
1.34005746e-18
-1.452840499e-18
-1.663349233e-32
-3.327377066e-20
7.40573849e-20
-6.580738632e-20
1.454552383e-19
-1.169023342e-19
2.291128704e-19
-1.96072929e-19
3.252984355e-19
-3.159363027e-19
4.350357622e-19
-4.942265839e-19
5.592833435e-19
-7.553160251e-19
6.973785974e-19
-1.130778079e-18
8.437683005e-19
-1.65550296e-18
9.807122334e-19
-2.351180996e-18
1.063124697e-18
-3.188262268e-18
9.940238806e-19
-4.032820896e-18
6.250480492e-19
-4.719773707e-18
-1.267193489e-19
-5.364481305e-18
-6.084070283e-19
-6.169915451e-18
-6.607705626e-20
-6.441747303e-18
-3.707875275e-19
-3.610759478e-18
-5.364623616e-19
-2.669293844e-19
2.6394268e-20
-3.923771305e-19
6.656266773e-20
-3.462272089e-19
-9.530059595e-20
2.988063096e-19
-4.119916873e-19
5.210074184e-19
-9.149297108e-20
-5.42173773e-19
5.466210891e-19
-3.262390549e-19
-8.602413251e-20
3.027375751e-19
-3.977677443e-19
3.124575069e-19
-6.220327485e-20
1.007991347e-19
1.479307127e-19
-4.243943271e-19
2.464232455e-19
-8.165255807e-20
-1.62789722e-18
-1.558519567e-19
5.543037267e-20
5.631170088e-20
2.88121507e-20
1.535685685e-19
-1.280857766e-20
2.562389887e-19
-7.810903066e-20
3.727577452e-19
-1.782322249e-19
5.082722936e-19
-3.281297106e-19
6.669291556e-19
-5.479529939e-19
8.51888928e-19
-8.65311065e-19
1.064243678e-18
-1.316455479e-18
1.298762411e-18
-1.933780766e-18
1.52657725e-18
-2.689424626e-18
1.635109986e-18
-3.315428049e-18
1.333992212e-18
-3.307814132e-18
5.486890652e-20
-2.584648477e-18
-4.351015425e-19
-1.386565709e-18
4.548986588e-19
4.110625113e-32
-7.783408525e-21
5.970776883e-20
-3.58229976e-20
7.159733901e-20
1.449528408e-20
1.383518331e-19
-1.936350883e-22
1.128176047e-19
-6.976532189e-20
-1.564308878e-19
-1.427423667e-19
-2.16614407e-19
-3.130765486e-20
2.009168907e-19
1.290944046e-19
1.377532466e-19
-2.285395959e-20
-1.37433861e-19
-1.225748186e-19
-1.70000734e-19
-2.963310792e-20
-9.906676326e-20
7.699746718e-20
-1.140848694e-20
1.58765109e-19
-1.558519571e-19
-6.653190602e-20
-1.329482642e-19
1.481538185e-19
5.274340237e-20
1.352211397e-19
1.563188757e-19
1.098927681e-19
2.677076673e-19
6.647816145e-20
3.948256514e-19
-3.128607162e-21
5.434534736e-19
-1.080747898e-19
7.171781699e-19
-2.573348759e-19
9.167829848e-19
-4.610874835e-19
1.140966023e-18
-7.406262322e-19
1.391187892e-18
-1.14123176e-18
1.677122404e-18
-1.721304673e-18
1.944811282e-18
-2.152160617e-18
1.665435795e-18
-1.950817405e-18
4.498267837e-20
9.005368613e-20
-1.446755352e-18
1.972010624e-19
7.759057737e-20
9.864776396e-20
9.076431655e-20
4.668237313e-20
1.613675617e-20
5.690841971e-20
4.264000668e-21
6.878014556e-20
-1.206651698e-20
3.984055928e-20
-4.08255779e-20
-4.499617499e-20
-5.790509737e-20
-5.621234581e-20
-2.009012611e-20
4.896852487e-20
2.391761686e-20
3.803238668e-20
-1.191214687e-20
-4.449214948e-20
-4.004558357e-20
-6.337015782e-20
-1.075328762e-20
-1.729912074e-20
3.092608346e-20
9.496632906e-20
4.649131137e-20
4.60598353e-20
-1.763388406e-20
-4.47980259e-20
2.512202098e-19
4.913686169e-20
2.504464304e-19
1.495371113e-19
2.433018438e-19
2.596269564e-19
2.241126865e-19
3.865869911e-19
1.855898871e-19
5.354158773e-19
1.224711673e-19
7.063843059e-19
3.870667863e-20
8.906734103e-19
-4.340011482e-20
1.066287376e-18
-8.902211875e-20
1.205101738e-18
-8.831517738e-20
1.326959158e-18
-2.948467524e-19
1.545049548e-18
-5.505559399e-19
1.269271258e-18
8.770913731e-33
-4.52840112e-20
-1.907375682e-19
-7.84895676e-20
-5.795334593e-20
-5.519525863e-20
2.402020303e-20
8.788484916e-21
3.480961707e-20
5.341919038e-21
4.057790143e-20
-1.507704637e-21
4.002108391e-20
-1.151054674e-20
2.27610395e-20
-2.356549404e-20
-7.181203571e-21
-2.796285265e-20
-1.220460252e-20
-1.506578977e-20
1.313876082e-20
-1.422458816e-21
9.898949788e-21
-8.667348186e-21
-1.519985325e-20
-1.494245573e-20
-2.16907863e-20
-4.261147942e-21
-1.733892787e-21
1.096705985e-20
3.0841133e-20
1.390977051e-20
1.889569315e-20
-5.696961835e-21
-1.656786149e-20
3.545571331e-19
4.251142533e-20
3.664639786e-19
1.307003661e-19
3.783669154e-19
2.292336795e-19
3.826882466e-19
3.451808081e-19
3.678539789e-19
4.83740238e-19
3.21862767e-19
6.443494685e-19
2.444925722e-19
8.116399077e-19
1.788954064e-19
9.38035839e-19
2.476570922e-19
9.209870633e-19
4.999806584e-19
6.654210192e-19
8.47724022e-19
2.176389782e-19
1.597004639e-19
1.435617494e-19
9.34818019e-20
2.093346997e-20
3.754120453e-20
-2.25508889e-20
6.030396903e-21
-2.368740526e-20
2.057363751e-20
-5.758280688e-21
2.795999389e-20
-2.04816446e-21
3.057505992e-20
-4.124812162e-21
2.796613715e-20
-8.902686908e-21
1.836368126e-20
-1.396315887e-20
5.715859225e-21
-1.531560591e-20
1.438728276e-21
-1.078793288e-20
5.893871634e-21
-5.875162835e-21
3.62384238e-21
-6.392523677e-21
-4.518545673e-21
-6.79578796e-21
-6.462578793e-21
-2.315139132e-21
1.208817845e-21
3.293290542e-21
1.123440107e-20
3.878639121e-21
8.024793763e-21
-2.493080894e-21
-6.817787837e-21
4.49340593e-19
3.180643346e-20
4.748747287e-19
9.840978552e-20
5.075925942e-19
1.744105367e-19
5.374645393e-19
2.668267734e-19
5.444697339e-19
3.828908165e-19
4.944833165e-19
5.284503212e-19
3.380255162e-19
7.021957169e-19
3.219438489e-20
8.775834389e-19
-3.966798894e-19
9.424919647e-19
-3.309910619e-19
3.669708983e-19
-6.142272263e-20
-1.145547974e-32
3.707218296e-20
4.506688619e-20
4.999744259e-20
8.0077806e-21
3.640468818e-20
-8.960759616e-21
2.395952165e-20
-1.124558076e-20
2.428375377e-20
-6.086661934e-21
2.588334617e-20
-3.651710589e-21
2.579718513e-20
-4.041593054e-21
2.290566511e-20
-6.012513027e-21
1.701123422e-20
-8.069729895e-21
1.024353229e-20
-8.548601466e-21
6.351498362e-21
-6.895976391e-21
5.376510796e-21
-4.897898328e-21
3.220578094e-21
-4.232168981e-21
-3.789680461e-23
-3.532161743e-21
-8.541490605e-22
-1.496058197e-21
1.794166429e-21
6.446092245e-22
4.862680986e-21
8.066152985e-22
3.700086782e-21
-1.334017131e-21
-3.022378131e-21
5.269015551e-19
1.713770299e-20
5.664173389e-19
5.326564239e-20
6.22562953e-19
9.526700024e-20
6.867793458e-19
1.480847392e-19
7.380950178e-19
2.184145448e-19
7.317146569e-19
3.164820036e-19
5.764545925e-19
4.599161318e-19
1.306161198e-19
6.816345169e-19
-5.207430121e-19
1.010527434e-18
-1.296940022e-18
9.449046536e-19
-1.430431906e-19
-8.034419699e-20
1.307732097e-23
-9.798955368e-20
3.302890183e-20
-2.500911662e-20
3.411986652e-20
-1.005487911e-20
2.911844005e-20
-6.248592962e-21
2.671870472e-20
-3.692255736e-21
2.549346333e-20
-2.43103311e-21
2.38262648e-20
-2.377833475e-21
2.084844792e-20
-3.036609984e-21
1.653236242e-20
-3.755161032e-21
1.189615719e-20
-3.913473589e-21
8.349576296e-21
-3.349593768e-21
6.042240061e-21
-2.58817302e-21
3.920585274e-21
-2.105614508e-21
1.998206714e-21
-1.603756355e-21
1.286518349e-21
-7.803614161e-22
1.956172474e-21
-2.389349541e-23
2.722048509e-21
3.907391255e-23
2.01172575e-21
-6.253617061e-22
-1.205253134e-21
5.785167619e-19
6.292013501e-19
7.062063258e-19
8.074300895e-19
9.258147353e-19
1.047528152e-18
1.148101093e-18
1.000045777e-18
7.417715627e-19
2.513276425e-19
1.709832768e-19
7.299351449e-20
4.798313986e-20
3.79261532e-20
3.167477772e-20
2.797992775e-20
2.554666335e-20
2.316748865e-20
2.012989718e-20
1.637405011e-20
1.246003719e-20
9.110997168e-21
6.524798668e-21
4.422443487e-21
2.821601683e-21
2.042986292e-21
2.019139911e-21
2.057612928e-21
1.431834352e-21
)
;

boundaryField
{
    lowerWall
    {
        type            calculated;
        value           nonuniform 0();
    }
    atmosphere
    {
        type            calculated;
        value           nonuniform List<scalar> 
20
(
3.385251971e-19
3.183018685e-19
2.985455007e-19
2.814053446e-19
2.681119112e-19
2.585586553e-19
2.510893539e-19
2.425431404e-19
2.285617146e-19
2.041429776e-19
1.643126692e-19
1.046304743e-19
2.07624326e-20
-6.589104688e-20
-1.520456361e-19
-2.506680587e-19
-3.494967726e-19
-4.394649521e-19
-5.122755435e-19
-5.603280148e-19
)
;
    }
    rightWall
    {
        type            empty;
        value           nonuniform 0();
    }
    leftWall
    {
        type            empty;
        value           nonuniform 0();
    }
    frontAndBack
    {
        type            calculated;
        value           uniform 0;
    }
    procBoundary4to2
    {
        type            processor;
        value           nonuniform List<scalar> 
30
(
-2.596996789e-20
-3.46968484e-20
-5.085625575e-20
-7.517723931e-20
-1.103079096e-19
-1.609584892e-19
-2.340177672e-19
-3.384389575e-19
-4.840806537e-19
-6.785172518e-19
-9.197600885e-19
-1.182596956e-18
-1.39693168e-18
-1.426783273e-18
-1.142193685e-18
-4.240187702e-19
-1.710770819e-19
-4.399323133e-20
8.048951359e-21
6.271316209e-20
6.582992988e-20
5.987237828e-20
5.140747482e-20
4.59040531e-20
3.469600655e-20
8.967477061e-21
-7.035234299e-20
-1.291891611e-19
-1.13014296e-19
5.093035228e-19
)
;
    }
    procBoundary4to5
    {
        type            processor;
        value           nonuniform List<scalar> 
20
(
-3.541447757e-19
-8.664223127e-21
5.009438635e-20
2.027273146e-20
1.225076601e-20
1.204694723e-20
1.977412306e-20
4.997918224e-20
-5.562703145e-21
-3.382846342e-19
5.47140047e-20
3.1650152e-19
1.223992926e-19
-1.787574946e-19
-4.209847625e-20
-9.338446989e-21
-1.728560919e-21
-9.741019801e-23
1.9365985e-22
2.267974912e-22
)
;
    }
}


// ************************************************************************* //
