/*--------------------------------*- C++ -*----------------------------------*\
  =========                 |
  \\      /  F ield         | OpenFOAM: The Open Source CFD Toolbox
   \\    /   O peration     | Website:  https://openfoam.org
    \\  /    A nd           | Version:  6
     \\/     M anipulation  |
\*---------------------------------------------------------------------------*/
FoamFile
{
    version     2.0;
    format      ascii;
    class       volScalarField;
    location    "0.0038";
    object      Num_divU;
}
// * * * * * * * * * * * * * * * * * * * * * * * * * * * * * * * * * * * * * //

dimensions      [0 0 -1 0 0 0 0];

internalField   nonuniform List<scalar> 
9600
(
-1.250606308e-08
-2.763083454e-08
-3.524089085e-08
-3.549916235e-08
-3.228358491e-08
-2.760614673e-08
-2.275288003e-08
-1.821454994e-08
-1.43659426e-08
-1.120911319e-08
-8.87390065e-09
-7.246061118e-09
-6.410195326e-09
-6.240753389e-09
-6.831397283e-09
-8.072401658e-09
-1.007786102e-08
-1.275775024e-08
-1.6246987e-08
-2.04750478e-08
-2.559673318e-08
-3.155938312e-08
-3.853328191e-08
-4.647875583e-08
-5.557753793e-08
-6.58018438e-08
-7.734411861e-08
-9.018317235e-08
-1.045073292e-07
-1.202792725e-07
-1.3765902e-07
-1.565783221e-07
-1.771678757e-07
-1.993376633e-07
-2.23191625e-07
-2.486006624e-07
-2.755977643e-07
-3.039564661e-07
-3.335903937e-07
-3.641620443e-07
-3.95489665e-07
-4.271663182e-07
-4.589378349e-07
-4.903171438e-07
-5.209540537e-07
-5.502942332e-07
-5.779740656e-07
-6.035237114e-07
-6.267581353e-07
-6.475215047e-07
-6.661057551e-07
-6.831140025e-07
-7.000205031e-07
-7.19333704e-07
-7.455822541e-07
-7.861727097e-07
-8.53239414e-07
-9.650655668e-07
-1.146042143e-06
-1.420035935e-06
-1.789522005e-06
-2.209848943e-06
-2.624002253e-06
-3.331013081e-06
-4.781582162e-06
-1.178056291e-05
-1.852163496e-05
-8.676120799e-06
1.761386744e-11
5.846066261e-11
7.582567362e-11
1.114519674e-10
1.158261015e-10
8.275667693e-11
6.047227092e-11
7.473296841e-11
1.275467512e-10
1.717957266e-10
2.134598165e-10
2.25348647e-10
2.010418916e-10
1.603108897e-10
1.20020044e-10
1.140267537e-10
1.124886832e-10
1.231724146e-10
8.813833546e-11
3.464980355e-11
-3.249466166e-11
-4.359792991e-11
-3.423808151e-11
-1.031248743e-11
-5.789968125e-12
1.709582036e-11
1.932577479e-11
-3.519232019e-11
-1.185581915e-10
-1.818020549e-10
-1.967803123e-10
-1.977955178e-10
-1.581567764e-10
-1.495468404e-10
-1.167690005e-10
-1.017726316e-10
-9.543479169e-11
-1.616976603e-10
-1.896235665e-10
-7.021625602e-11
-3.200980736e-10
-9.153987239e-11
-2.105688466e-10
-4.977477266e-11
-8.452022189e-06
-1.266190325e-05
-6.346926057e-06
-1.019540387e-06
-1.489542347e-07
-7.081959162e-07
-1.920712973e-06
1.395903615e-06
-2.937483935e-08
-5.012463057e-08
-5.600332586e-08
-5.155200838e-08
-4.396432362e-08
-3.596837381e-08
-2.871664134e-08
-2.252001064e-08
-1.748681922e-08
-1.35165714e-08
-1.057512993e-08
-8.529538174e-09
-7.35958727e-09
-6.961856927e-09
-7.351371478e-09
-8.458543133e-09
-1.0330226e-08
-1.292534891e-08
-1.63174463e-08
-2.049017199e-08
-2.554040979e-08
-3.147253057e-08
-3.840163536e-08
-4.634833054e-08
-5.544354829e-08
-6.57233444e-08
-7.733201234e-08
-9.031300067e-08
-1.048065241e-07
-1.208417324e-07
-1.385376832e-07
-1.579048531e-07
-1.790487194e-07
-2.019707675e-07
-2.267577484e-07
-2.533711606e-07
-2.81827536e-07
-3.119994184e-07
-3.438125015e-07
-3.770714183e-07
-4.116567725e-07
-4.473397058e-07
-4.839492611e-07
-5.21185892e-07
-5.588059998e-07
-5.964893103e-07
-6.340584578e-07
-6.713689466e-07
-7.085219129e-07
-7.457711089e-07
-7.837758545e-07
-8.236170362e-07
-8.672101128e-07
-9.175922251e-07
-9.796758496e-07
-1.060936363e-06
-1.172457863e-06
-1.329535008e-06
-1.551624757e-06
-1.860460254e-06
-2.279832824e-06
-2.844660945e-06
-3.663970308e-06
-5.03245983e-06
-7.378004611e-06
-1.124912694e-05
-1.552050691e-05
-1.297633459e-05
-6.204916389e-06
2.263477196e-11
6.321377265e-11
6.785444279e-11
1.756777034e-11
2.63714408e-11
2.290714261e-11
8.057779152e-11
1.237851153e-10
1.653891111e-10
1.627460432e-10
1.637079106e-10
1.062983788e-10
9.633724769e-11
6.412334415e-11
7.055167016e-11
7.610690292e-11
6.855663804e-11
2.326499381e-11
-2.753539676e-11
-5.84972821e-11
-3.927836417e-11
-1.222758484e-11
4.552721447e-12
1.033966288e-11
4.760092808e-11
3.887157139e-11
-2.677228157e-11
-1.156591784e-10
-8.243969267e-11
-1.146664569e-10
-1.02273827e-10
-1.23079096e-10
-9.566533555e-11
-1.27150617e-10
-9.997141837e-11
-1.181809843e-10
-6.843665584e-11
-1.135269546e-10
-1.811629601e-10
-1.162571251e-10
-5.474876089e-11
5.891877687e-17
-8.805073314e-06
-1.438327631e-05
-1.563500663e-05
-1.023342971e-05
-6.58535567e-06
-4.530297112e-06
-3.798826706e-06
-3.352387932e-06
9.445667559e-07
-7.879662406e-08
-9.493975909e-08
-8.774999839e-08
-7.197759834e-08
-5.696707839e-08
-4.440680511e-08
-3.430499401e-08
-2.633951552e-08
-2.013300582e-08
-1.541143148e-08
-1.192712298e-08
-9.531195596e-09
-8.078935461e-09
-7.504204698e-09
-7.728522648e-09
-8.739360038e-09
-1.05020045e-08
-1.304076092e-08
-1.635333319e-08
-2.049363946e-08
-2.548589148e-08
-3.140789053e-08
-3.830466405e-08
-4.627329249e-08
-5.537789208e-08
-6.573409087e-08
-7.742146454e-08
-9.056349465e-08
-1.052374412e-07
-1.215555545e-07
-1.395822944e-07
-1.594221992e-07
-1.811402894e-07
-2.048415361e-07
-2.305775136e-07
-2.58412606e-07
-2.883315997e-07
-3.203223601e-07
-3.543101315e-07
-3.902544305e-07
-4.280764448e-07
-4.677255397e-07
-5.090831501e-07
-5.520323363e-07
-5.964065069e-07
-6.421120386e-07
-6.891130589e-07
-7.375506502e-07
-7.877124557e-07
-8.40156527e-07
-8.957292703e-07
-9.557809574e-07
-1.022331082e-06
-1.098491111e-06
-1.188893758e-06
-1.300352802e-06
-1.442420457e-06
-1.62799204e-06
-1.873773324e-06
-2.201422236e-06
-2.641474038e-06
-3.244993098e-06
-4.106325782e-06
-5.374218575e-06
-7.120106064e-06
-9.03441296e-06
-9.286585865e-06
-1.041918737e-05
-9.761985489e-06
-5.942769667e-06
2.840014561e-11
-1.041987365e-11
2.5424114e-11
6.696355255e-12
7.315974286e-11
1.196940375e-10
1.566214377e-10
1.465583498e-10
1.665883498e-10
1.209212371e-10
1.374132125e-10
6.145552933e-11
6.950417979e-11
8.276776776e-11
8.782327652e-11
5.50234202e-11
-5.124436356e-12
-6.344732894e-11
-7.040386866e-11
-3.724294897e-11
-4.147431209e-12
1.027377327e-11
5.683634887e-11
9.46827019e-11
4.942569105e-11
-6.533896851e-11
-5.341191408e-11
-1.340028774e-10
-1.037308128e-10
-1.401270719e-10
-1.208955138e-10
-1.609173907e-10
-1.033056487e-10
-1.124372515e-10
-1.583552597e-11
-2.726209835e-10
-8.139198232e-11
-4.435376938e-11
-4.015266487e-11
-1.267503738e-16
-1.04131168e-05
-1.590124569e-05
-1.516374062e-05
-1.295987136e-05
-1.166567552e-05
-9.431841245e-06
-7.399285632e-06
-6.110213612e-06
-5.735210078e-06
-2.806425973e-07
-2.917799689e-07
-1.996624984e-07
-1.321221607e-07
-9.377430265e-08
-6.869706502e-08
-5.122316327e-08
-3.8521826e-08
-2.905661789e-08
-2.195874943e-08
-1.665798355e-08
-1.28094926e-08
-1.015054556e-08
-8.531234638e-09
-7.819809927e-09
-7.95996987e-09
-8.889123338e-09
-1.060462404e-08
-1.308734801e-08
-1.637190629e-08
-2.047222073e-08
-2.545259631e-08
-3.135301015e-08
-3.826106601e-08
-4.623876733e-08
-5.539538222e-08
-6.581361745e-08
-7.761943262e-08
-9.09043807e-08
-1.057940827e-07
-1.223742506e-07
-1.407657676e-07
-1.610581935e-07
-1.8338303e-07
-2.078371833e-07
-2.345400059e-07
-2.635480139e-07
-2.949191408e-07
-3.286524312e-07
-3.647775007e-07
-4.033021642e-07
-4.442792332e-07
-4.877190102e-07
-5.336345984e-07
-5.819774239e-07
-6.327367053e-07
-6.859318684e-07
-7.417263479e-07
-8.003988558e-07
-8.624293376e-07
-9.284778988e-07
-9.995186067e-07
-1.076894111e-06
-1.16255131e-06
-1.25924725e-06
-1.37097124e-06
-1.50331764e-06
-1.66395148e-06
-1.862943435e-06
-2.113325243e-06
-2.43209972e-06
-2.842544763e-06
-3.37730237e-06
-4.077651953e-06
-4.968783193e-06
-5.970141219e-06
-6.777559403e-06
-6.890637754e-06
-6.804565997e-06
-1.06237496e-05
-1.055089733e-05
-8.465506517e-06
1.020881623e-11
1.683766424e-12
7.210662299e-11
9.7827082e-11
9.708036106e-11
6.103644088e-11
1.370011918e-10
9.001983505e-11
1.282909153e-10
7.153334759e-11
1.245408419e-10
1.143449984e-10
1.139602787e-10
1.061780707e-10
5.287190627e-11
-3.064645813e-11
-8.606646621e-11
-8.166048478e-11
-3.287545995e-11
4.004054331e-12
3.711708172e-11
9.435447158e-11
1.244402575e-10
1.982073854e-11
-4.165996121e-11
-1.19490356e-10
-5.413057906e-11
-1.639715311e-10
-1.845052977e-10
-1.639548192e-10
1.517159316e-11
-1.246370904e-10
-3.406093171e-11
-1.698657602e-10
-7.175424664e-11
-2.577194504e-11
-1.10894546e-11
2.39598299e-15
-1.380205771e-05
-1.88950398e-05
-1.880322648e-05
-1.4150175e-05
-1.313047632e-05
-1.232317118e-05
-1.080453467e-05
-9.514929774e-06
-8.484897065e-06
-8.18634683e-06
-2.037819637e-06
-3.561401977e-07
-2.337859975e-07
-1.481035443e-07
-1.021614754e-07
-7.335880754e-08
-5.395197819e-08
-4.016869545e-08
-3.008480005e-08
-2.260472179e-08
-1.707786905e-08
-1.307621619e-08
-1.032902823e-08
-8.64070703e-09
-7.893392859e-09
-7.997012356e-09
-8.910271709e-09
-1.060131383e-08
-1.307581724e-08
-1.634191049e-08
-2.044072051e-08
-2.541189129e-08
-3.132433918e-08
-3.824300317e-08
-4.626070779e-08
-5.546581058e-08
-6.597314486e-08
-7.788877902e-08
-9.133768613e-08
-1.064288638e-07
-1.232870696e-07
-1.420254054e-07
-1.627815877e-07
-1.856865792e-07
-2.108880453e-07
-2.385046857e-07
-2.686451342e-07
-3.013772554e-07
-3.367742588e-07
-3.74906724e-07
-4.158845058e-07
-4.598164748e-07
-5.068146784e-07
-5.569460941e-07
-6.102745717e-07
-6.668756133e-07
-7.269192012e-07
-7.906775188e-07
-8.585659777e-07
-9.31123631e-07
-1.009071206e-06
-1.093338023e-06
-1.185170123e-06
-1.286208008e-06
-1.398679345e-06
-1.525599717e-06
-1.671052276e-06
-1.840351645e-06
-2.040151582e-06
-2.278447946e-06
-2.564647536e-06
-2.909361091e-06
-3.322654752e-06
-3.806895142e-06
-4.337371899e-06
-4.828431906e-06
-5.131808253e-06
-5.164030692e-06
-5.321333634e-06
-5.175358156e-06
-3.784305075e-06
6.939207172e-06
1.943618261e-05
9.310505698e-06
3.940813057e-11
1.5212822e-11
-1.567397614e-11
1.576407082e-10
1.09327727e-10
1.870716057e-10
1.57261046e-10
2.343690912e-10
9.151710368e-11
9.330209916e-11
1.285902203e-10
1.130255296e-10
3.56914967e-11
-5.886683183e-11
-1.075138757e-10
-8.037797859e-11
-2.477272315e-11
1.217640466e-11
7.017331211e-11
1.456954011e-10
1.000707465e-10
1.521148262e-11
-8.2787363e-11
-1.787060782e-11
-1.57369108e-10
-1.557185658e-10
-1.769082294e-10
4.659258682e-11
-2.817716504e-10
-2.247460394e-10
-1.079912448e-10
-4.160041385e-11
-2.833865204e-11
-1.709470637e-15
1.130934724e-05
1.287486973e-05
-1.098238234e-06
-1.404253096e-05
-1.484548047e-05
-1.428742542e-05
-1.32445344e-05
-1.244965052e-05
-1.180421346e-05
-1.129477944e-05
-1.084028154e-05
-1.11431199e-05
-4.135905337e-06
-1.999281009e-07
-1.655637064e-07
-1.246701309e-07
-9.270507777e-08
-6.904889888e-08
-5.167372381e-08
-3.879352712e-08
-2.915795731e-08
-2.193704826e-08
-1.6570941e-08
-1.268549225e-08
-1.001921441e-08
-8.397782051e-09
-7.697399291e-09
-7.842806828e-09
-8.783393811e-09
-1.050039366e-08
-1.299010284e-08
-1.627410166e-08
-2.038453338e-08
-2.537532935e-08
-3.13074701e-08
-3.826115261e-08
-4.632246019e-08
-5.559602356e-08
-6.619070625e-08
-7.82294518e-08
-9.183318398e-08
-1.07131676e-07
-1.242519638e-07
-1.433358087e-07
-1.6452972e-07
-1.879967413e-07
-2.138933947e-07
-2.423696473e-07
-2.735475848e-07
-3.075406495e-07
-3.444600239e-07
-3.844479373e-07
-4.276693983e-07
-4.743071995e-07
-5.245217526e-07
-5.784540123e-07
-6.362358494e-07
-6.980517068e-07
-7.641689105e-07
-8.349664301e-07
-9.109136761e-07
-9.925807822e-07
-1.080646259e-06
-1.175951033e-06
-1.279522773e-06
-1.39262948e-06
-1.516824192e-06
-1.654049987e-06
-1.806691643e-06
-1.977533564e-06
-2.169472232e-06
-2.385016711e-06
-2.625441586e-06
-2.889308811e-06
-3.169358266e-06
-3.446392555e-06
-3.679413974e-06
-3.797132728e-06
-3.711865496e-06
-3.367453639e-06
-2.756046909e-06
-1.296247874e-06
2.628550551e-06
9.476862656e-06
1.242489791e-05
2.708318583e-05
6.30343316e-06
-1.557884468e-11
9.601473323e-11
1.574017982e-10
2.745061583e-10
2.306206674e-10
2.046930891e-10
-1.377559475e-10
2.696050257e-10
9.068933848e-11
5.290112562e-11
4.629901872e-11
-1.669523513e-11
-1.007916675e-10
-1.289513042e-10
-8.377529648e-11
-1.830766218e-11
3.358811122e-11
9.183261063e-11
1.283169441e-10
9.938995113e-11
-2.283359534e-11
1.780880139e-11
6.001532892e-12
2.478258728e-10
-4.21020107e-10
-4.462869627e-11
-2.008783991e-10
-3.305989398e-10
-3.442269492e-10
-9.042221803e-11
-1.04010728e-11
2.632238564e-15
1.540969062e-07
1.852001196e-05
8.610372164e-06
2.52186581e-06
-7.205565569e-06
-1.146840424e-05
-1.251947575e-05
-1.276312222e-05
-1.248052532e-05
-1.257432399e-05
-1.24524e-05
-1.274499355e-05
-1.401308684e-05
-6.285934286e-06
-1.267889113e-07
-1.164419195e-07
-9.642409466e-08
-7.652010643e-08
-5.94618241e-08
-4.571160572e-08
-3.489227997e-08
-2.648936027e-08
-2.004204945e-08
-1.518891425e-08
-1.165531812e-08
-9.242518655e-09
-7.80527602e-09
-7.245518279e-09
-7.495733427e-09
-8.519144034e-09
-1.029843189e-08
-1.283957387e-08
-1.616378605e-08
-2.031207191e-08
-2.533731169e-08
-3.130938267e-08
-3.830783052e-08
-4.642806623e-08
-5.577433869e-08
-6.646498413e-08
-7.86234502e-08
-9.238229718e-08
-1.078761133e-07
-1.252498499e-07
-1.446559735e-07
-1.662630567e-07
-1.90245274e-07
-2.167790455e-07
-2.460255551e-07
-2.781343922e-07
-3.13247861e-07
-3.515281535e-07
-3.931657304e-07
-4.383824504e-07
-4.87401269e-07
-5.404306073e-07
-5.976583764e-07
-6.592932589e-07
-7.256027794e-07
-7.969473388e-07
-8.737648647e-07
-9.565544151e-07
-1.04585924e-06
-1.14229255e-06
-1.246554341e-06
-1.359443089e-06
-1.481822135e-06
-1.614593572e-06
-1.758639803e-06
-1.914715895e-06
-2.083138183e-06
-2.263224498e-06
-2.452376979e-06
-2.64480475e-06
-2.829623182e-06
-2.988026857e-06
-3.089256812e-06
-3.086157185e-06
-2.913310802e-06
-2.49300862e-06
-1.73909965e-06
-5.128359031e-07
1.590032431e-06
5.11815926e-06
1.073693721e-05
1.127111636e-05
2.524316392e-05
3.740238591e-05
2.830709107e-05
2.059762044e-06
1.380714328e-10
1.168440604e-10
4.338910197e-11
-3.003432727e-10
4.411063484e-10
2.672359332e-11
1.914574514e-10
8.344246312e-11
2.902412049e-11
-5.565404128e-11
-1.375175478e-10
-1.463427261e-10
-8.069686334e-11
-1.401933322e-11
3.493051026e-11
9.887837493e-11
1.408768799e-10
1.088816378e-10
7.505629079e-11
1.600777162e-10
5.92240489e-10
-8.475045517e-10
-1.361531627e-10
1.152919914e-10
-7.367326864e-11
-2.518499899e-10
-8.605732749e-11
8.120683627e-16
2.864499549e-06
2.068890574e-05
2.29128963e-05
1.571222518e-05
5.370390214e-06
2.363586906e-06
-4.023855466e-06
-8.110638999e-06
-1.036380725e-05
-1.154712274e-05
-1.20980452e-05
-1.291927883e-05
-1.337412899e-05
-1.434227631e-05
-1.653355834e-05
-8.297777988e-06
-7.884049581e-08
-7.844955398e-08
-6.992651089e-08
-5.874295347e-08
-4.757196823e-08
-3.764590908e-08
-2.930376165e-08
-2.252790644e-08
-1.717539349e-08
-1.307716441e-08
-1.007904532e-08
-8.05385383e-09
-6.904648512e-09
-6.560920139e-09
-6.977149632e-09
-8.127971203e-09
-1.000801835e-08
-1.262890237e-08
-1.601979812e-08
-2.022496241e-08
-2.53040028e-08
-3.132915041e-08
-3.838631288e-08
-4.657297584e-08
-5.599959635e-08
-6.678658495e-08
-7.906420969e-08
-9.296969283e-08
-1.086487548e-07
-1.262560746e-07
-1.459596894e-07
-1.679389455e-07
-1.923815106e-07
-2.194722131e-07
-2.49387548e-07
-2.822958475e-07
-3.1837347e-07
-3.578208452e-07
-4.008728858e-07
-4.477851954e-07
-4.988124183e-07
-5.541911166e-07
-6.141571827e-07
-6.789814521e-07
-7.490105294e-07
-8.246681716e-07
-9.064318246e-07
-9.947947173e-07
-1.090261343e-06
-1.193362106e-06
-1.304671486e-06
-1.424780085e-06
-1.554222375e-06
-1.693350585e-06
-1.842166525e-06
-2.00002482e-06
-2.165150166e-06
-2.333838966e-06
-2.499364955e-06
-2.65051827e-06
-2.769782267e-06
-2.831040305e-06
-2.796998347e-06
-2.61692081e-06
-2.225910613e-06
-1.546016323e-06
-4.828486618e-07
1.094790181e-06
3.390415566e-06
6.540378887e-06
1.036591828e-05
1.296747604e-05
1.592774256e-05
2.497412922e-05
3.059959033e-05
5.091292962e-05
3.380853993e-05
3.85164729e-06
-1.407273969e-10
2.022547336e-10
-3.598283227e-12
4.650615851e-10
2.639220831e-10
7.732912745e-11
3.135924088e-12
-8.666749441e-11
-1.62850632e-10
-1.562415345e-10
-8.328393676e-11
-9.629545709e-12
4.072994416e-11
1.092447873e-10
1.834480164e-10
1.386936522e-10
1.333621092e-10
3.988604241e-10
-6.105572197e-10
-2.42192491e-10
5.184364761e-11
6.254414118e-11
-1.84176409e-11
2.965039241e-15
3.646925216e-06
2.603915709e-05
3.921665721e-05
2.203611517e-05
1.521754819e-05
7.815093645e-06
4.880689993e-06
1.902052347e-06
-2.606670626e-06
-6.461715351e-06
-8.789031597e-06
-1.049149948e-05
-1.187465592e-05
-1.315088424e-05
-1.413549172e-05
-1.599089753e-05
-1.891425024e-05
-1.000446123e-05
-4.559144699e-08
-4.952258786e-08
-4.72855485e-08
-4.191471211e-08
-3.532214332e-08
-2.876858788e-08
-2.284032934e-08
-1.777997114e-08
-1.3651927e-08
-1.043754776e-08
-8.085986279e-09
-6.541239532e-09
-5.753529117e-09
-5.685947479e-09
-6.314907552e-09
-7.632173947e-09
-9.64360841e-09
-1.237080765e-08
-1.584963277e-08
-2.013102033e-08
-2.527894133e-08
-3.13709417e-08
-3.84964612e-08
-4.675770911e-08
-5.626802685e-08
-6.715206462e-08
-7.954402218e-08
-9.358763258e-08
-1.094362536e-07
-1.272551512e-07
-1.472219291e-07
-1.695259021e-07
-1.943609241e-07
-2.219192998e-07
-2.52387178e-07
-2.859524122e-07
-3.228183892e-07
-3.632193574e-07
-4.074189207e-07
-4.556943155e-07
-5.083143654e-07
-5.655387284e-07
-6.276413096e-07
-6.949528643e-07
-7.678799458e-07
-8.468932531e-07
-9.32482361e-07
-1.025124122e-06
-1.125278475e-06
-1.233414577e-06
-1.350021206e-06
-1.475567323e-06
-1.61038402e-06
-1.754476093e-06
-1.907233201e-06
-2.067019356e-06
-2.230529978e-06
-2.391907513e-06
-2.541549867e-06
-2.664675919e-06
-2.739618274e-06
-2.735941238e-06
-2.612530769e-06
-2.316151608e-06
-1.781032874e-06
-9.297997818e-07
3.250732764e-07
2.076926895e-06
4.402404463e-06
7.266511689e-06
1.042147807e-05
1.332669413e-05
1.688532531e-05
2.523457812e-05
2.754101894e-05
3.790609917e-05
3.416793012e-05
5.07505e-05
2.948631472e-05
-4.16799998e-06
-1.073676146e-06
1.887374267e-10
2.90761247e-11
-7.07037937e-11
-9.150027008e-11
-1.492892712e-10
-1.990302251e-10
-1.70387565e-10
-8.40212772e-11
-1.567235074e-11
4.303107857e-11
1.301419134e-10
1.888021655e-10
1.405460319e-10
1.464911261e-10
7.658111461e-11
-3.224446865e-11
7.207509362e-11
5.902254994e-16
-1.861009832e-06
-4.873187285e-06
2.252317284e-05
3.896376739e-05
2.416729977e-05
2.780271622e-05
1.814974886e-05
1.627373232e-05
7.975898122e-06
4.411896725e-06
1.395093395e-06
-1.876545896e-06
-5.260623808e-06
-7.782700161e-06
-9.871885036e-06
-1.156774715e-05
-1.31596085e-05
-1.472907627e-05
-1.709280588e-05
-2.04148205e-05
-1.123218063e-05
-2.122638153e-08
-2.723265107e-08
-2.856615199e-08
-2.699470765e-08
-2.376372723e-08
-1.994294508e-08
-1.613786108e-08
-1.269071608e-08
-9.778182509e-09
-7.47940929e-09
-5.820888075e-09
-4.80436618e-09
-4.422809074e-09
-4.670089733e-09
-5.545647658e-09
-7.057552829e-09
-9.225178936e-09
-1.207964431e-08
-1.566493765e-08
-2.003812001e-08
-2.526868694e-08
-3.143839961e-08
-3.864118619e-08
-4.69825063e-08
-5.657906122e-08
-6.755871868e-08
-8.005951981e-08
-9.423024616e-08
-1.102312637e-07
-1.282352314e-07
-1.484270309e-07
-1.71000657e-07
-1.961536041e-07
-2.240814389e-07
-2.549788965e-07
-2.890491193e-07
-3.265180965e-07
-3.676420595e-07
-4.127008477e-07
-4.61978269e-07
-5.157490474e-07
-5.74287771e-07
-6.379035648e-07
-7.069729621e-07
-7.819476212e-07
-8.633202991e-07
-9.515791713e-07
-1.04717753e-06
-1.150546724e-06
-1.262131534e-06
-1.382409178e-06
-1.511841521e-06
-1.650732865e-06
-1.798978638e-06
-1.955711827e-06
-2.118793931e-06
-2.284133832e-06
-2.44475121e-06
-2.589616123e-06
-2.70222314e-06
-2.758960361e-06
-2.727298842e-06
-2.564053009e-06
-2.214078175e-06
-1.609971747e-06
-6.735147305e-07
6.790290833e-07
2.521377118e-06
4.879272717e-06
7.667119708e-06
1.068118801e-05
1.37785242e-05
1.754566717e-05
2.307752472e-05
2.475403571e-05
2.510622993e-05
2.213099585e-05
2.033013793e-05
2.539004651e-06
2.569244923e-05
8.102185765e-05
6.682571673e-05
9.343288993e-11
-4.567786796e-11
-1.096078528e-10
-1.739720076e-10
-2.125718454e-10
-1.712594178e-10
-8.309843754e-11
-1.220942139e-11
4.6222998e-11
1.41841409e-10
1.923347055e-10
1.519765911e-10
2.325799124e-10
2.680855078e-10
4.226688888e-10
-1.727269858e-10
6.703078452e-05
7.580949114e-05
2.014380282e-05
-7.388882483e-06
1.03993229e-05
1.212516693e-05
1.511409614e-05
1.488486403e-05
1.342519026e-05
7.968707897e-06
4.104310635e-06
1.101258005e-06
-1.940558546e-06
-4.884741008e-06
-7.436496504e-06
-9.439380936e-06
-1.15320689e-05
-1.342731391e-05
-1.531025632e-05
-1.756525127e-05
-2.133548644e-05
-1.1958951e-05
-2.803167147e-09
-9.864409648e-09
-1.329458003e-08
-1.420577759e-08
-1.337946222e-08
-1.167573525e-08
-9.631838156e-09
-7.602590476e-09
-5.811439768e-09
-4.391904361e-09
-3.421207119e-09
-2.943354236e-09
-2.985323809e-09
-3.566971959e-09
-4.708366687e-09
-6.433775652e-09
-8.774723019e-09
-1.177233027e-08
-1.547850924e-08
-1.995616484e-08
-2.528026838e-08
-3.15368595e-08
-3.882375765e-08
-4.72495481e-08
-5.693385428e-08
-6.800692011e-08
-8.061016398e-08
-9.489637809e-08
-1.110307083e-07
-1.291910105e-07
-1.495657411e-07
-1.723506882e-07
-1.977431937e-07
-2.259399249e-07
-2.571409461e-07
-2.915607112e-07
-3.294396017e-07
-3.710456067e-07
-4.166612859e-07
-4.665661015e-07
-5.210318359e-07
-5.803438278e-07
-6.448366134e-07
-7.149201198e-07
-7.910677964e-07
-8.737760127e-07
-9.635165688e-07
-1.060723188e-06
-1.165820737e-06
-1.279281138e-06
-1.401656656e-06
-1.533533725e-06
-1.675369214e-06
-1.827211966e-06
-1.988305297e-06
-2.156580788e-06
-2.327977091e-06
-2.49557439e-06
-2.648453577e-06
-2.770265376e-06
-2.837457382e-06
-2.817295263e-06
-2.665920416e-06
-2.326865698e-06
-1.730323411e-06
-7.934648962e-07
5.762482695e-07
2.465852663e-06
4.911904251e-06
7.816628082e-06
1.092769717e-05
1.404414151e-05
1.773787893e-05
2.307832181e-05
2.453039821e-05
2.45828134e-05
2.118801791e-05
1.966276644e-05
1.069940689e-06
2.587373118e-05
8.001633641e-05
6.762069214e-05
2.603853918e-10
-1.223699351e-11
-1.058275145e-10
-1.796301305e-10
-2.136016088e-10
-1.674189789e-10
-7.96002906e-11
-1.211685895e-11
4.82269057e-11
1.371886631e-10
1.820255839e-10
1.464167987e-10
2.010507122e-10
4.414754439e-10
-2.447011721e-10
1.292454887e-10
6.660231228e-05
7.614169154e-05
1.973001037e-05
-7.604610621e-06
9.264347628e-06
1.12918523e-05
1.46919655e-05
1.441743427e-05
1.2599488e-05
7.153903868e-06
3.666687473e-06
1.110166884e-06
-1.854244679e-06
-4.759123298e-06
-7.453584791e-06
-9.49394205e-06
-1.166146804e-05
-1.351208105e-05
-1.511424509e-05
-1.766563741e-05
-2.145271436e-05
-1.208148421e-05
1.138151986e-08
3.777792633e-09
-9.136573521e-10
-3.456068095e-09
-4.329296376e-09
-4.224036788e-09
-3.589213079e-09
-2.752993605e-09
-1.947138833e-09
-1.329681394e-09
-1.006168976e-09
-1.049030063e-09
-1.509419716e-09
-2.428293999e-09
-3.842615516e-09
-5.790552291e-09
-8.315139569e-09
-1.146651714e-08
-1.530355304e-08
-1.989538968e-08
-2.532149413e-08
-3.167228531e-08
-3.904878654e-08
-4.756257638e-08
-5.733531801e-08
-6.84994603e-08
-8.119844275e-08
-9.558804853e-08
-1.118363074e-07
-1.301232697e-07
-1.506381547e-07
-1.735750203e-07
-1.99128674e-07
-2.274944382e-07
-2.58874494e-07
-2.934891764e-07
-3.315843673e-07
-3.734276733e-07
-4.192929822e-07
-4.694465946e-07
-5.241521555e-07
-5.836985261e-07
-6.484349116e-07
-7.1878316e-07
-7.952166185e-07
-8.782131728e-07
-9.682197917e-07
-1.065655469e-06
-1.170965238e-06
-1.284700909e-06
-1.407572583e-06
-1.540406389e-06
-1.683975717e-06
-1.83871343e-06
-2.004348512e-06
-2.179454251e-06
-2.360892088e-06
-2.543044481e-06
-2.71673545e-06
-2.86765997e-06
-2.974315249e-06
-3.005602449e-06
-2.91852916e-06
-2.65647781e-06
-2.147931225e-06
-1.303925847e-06
-1.236922694e-08
1.864059496e-06
4.44876116e-06
7.691128207e-06
1.117433205e-05
1.418382444e-05
1.753598169e-05
2.545151091e-05
2.630099678e-05
3.62867689e-05
3.159446731e-05
4.950006686e-05
2.830667044e-05
-4.858368854e-06
-2.077528296e-06
4.222041599e-10
1.274500226e-10
-9.333326152e-12
-8.796543266e-11
-1.662940966e-10
-2.000106176e-10
-1.542197832e-10
-6.991762391e-11
-7.254781474e-12
4.991289236e-11
1.283766404e-10
1.60982561e-10
1.156357454e-10
1.973400984e-10
5.522147026e-11
2.755449934e-10
-6.103110811e-10
-1.088652517e-10
-1.944236115e-06
-4.775062569e-06
2.086962858e-05
3.701002115e-05
2.007481266e-05
2.4422134e-05
1.561277863e-05
1.426035143e-05
6.286677253e-06
3.446064864e-06
1.007641627e-06
-1.951430434e-06
-5.007868809e-06
-7.7610137e-06
-9.665646662e-06
-1.159461908e-05
-1.330022732e-05
-1.527220079e-05
-1.730956796e-05
-2.085344961e-05
-1.161253225e-05
2.239659911e-08
1.453429514e-08
9.07822598e-09
5.460193683e-09
3.394358026e-09
2.312550697e-09
1.84697115e-09
1.709196023e-09
1.678351847e-09
1.591580906e-09
1.32911956e-09
8.029167403e-10
-5.503368469e-11
-1.300805268e-09
-2.984590012e-09
-5.156413681e-09
-7.868618252e-09
-1.11792341e-08
-1.515370232e-08
-1.986609356e-08
-2.540054675e-08
-3.185110037e-08
-3.932182547e-08
-4.792646281e-08
-5.778842787e-08
-6.90412612e-08
-8.182993865e-08
-9.631127942e-08
-1.126544463e-07
-1.310391309e-07
-1.51652445e-07
-1.746843302e-07
-2.003246001e-07
-2.287644786e-07
-2.602045017e-07
-2.94864086e-07
-3.329854602e-07
-3.74825361e-07
-4.206392949e-07
-4.706732756e-07
-5.25176694e-07
-5.844336495e-07
-6.487906375e-07
-7.186596227e-07
-7.944873442e-07
-8.767145322e-07
-9.657526836e-07
-1.06201056e-06
-1.165975289e-06
-1.278320132e-06
-1.399972529e-06
-1.532076782e-06
-1.675829151e-06
-1.832233562e-06
-2.001822179e-06
-2.184369406e-06
-2.378530724e-06
-2.58126934e-06
-2.786792759e-06
-2.984792751e-06
-3.157954061e-06
-3.278963816e-06
-3.307631908e-06
-3.189009216e-06
-2.852650277e-06
-2.209506702e-06
-1.133204277e-06
5.860392871e-07
3.271855935e-06
7.124167162e-06
1.162804264e-05
1.456318099e-05
1.7238676e-05
2.489789118e-05
2.875249406e-05
4.85089873e-05
3.200161758e-05
2.799299916e-06
-9.623346173e-11
1.313974504e-10
2.047087848e-10
2.472372004e-10
1.290478767e-10
4.107122476e-11
-4.440866646e-11
-1.329178526e-10
-1.724496395e-10
-1.346358456e-10
-6.132718664e-11
-2.032549184e-12
5.072976786e-11
1.117705328e-10
1.351256475e-10
1.037382028e-10
1.389777529e-10
2.050942683e-10
-1.984477346e-10
-1.383452027e-10
-8.98690793e-11
2.192984187e-11
-9.571183673e-11
-5.953272168e-11
2.35974665e-06
2.234582556e-05
3.37888857e-05
1.741627271e-05
1.260961005e-05
4.81611658e-06
3.764684122e-06
1.681862127e-06
-2.116244941e-06
-5.719722078e-06
-8.320474391e-06
-1.023870493e-05
-1.190536555e-05
-1.327488799e-05
-1.473414733e-05
-1.640904598e-05
-1.971182573e-05
-1.060670904e-05
3.095972836e-08
2.300791863e-08
1.709761752e-08
1.277408729e-08
9.878453071e-09
7.926742958e-09
6.617543691e-09
5.702224568e-09
4.979550895e-09
4.291082881e-09
3.514458209e-09
2.553044071e-09
1.329072599e-09
-2.239896415e-10
-2.166299981e-09
-4.556656747e-09
-7.455247979e-09
-1.092652586e-08
-1.5041225e-08
-1.987827762e-08
-2.552541502e-08
-3.208019821e-08
-3.964905639e-08
-4.834736637e-08
-5.829941082e-08
-6.963933819e-08
-8.251225609e-08
-9.70751133e-08
-1.13495957e-07
-1.319520881e-07
-1.526257982e-07
-1.757008096e-07
-2.013595726e-07
-2.297867893e-07
-2.611766834e-07
-2.95741029e-07
-3.337090426e-07
-3.753169364e-07
-4.207942453e-07
-4.703611517e-07
-5.242461781e-07
-5.827154524e-07
-6.460933944e-07
-7.147552986e-07
-7.890970226e-07
-8.695012007e-07
-9.563329239e-07
-1.049990248e-06
-1.151013002e-06
-1.260212657e-06
-1.378751211e-06
-1.508105939e-06
-1.64993513e-06
-1.805912432e-06
-1.977617231e-06
-2.166490802e-06
-2.373772596e-06
-2.600156811e-06
-2.844813028e-06
-3.103508209e-06
-3.365724953e-06
-3.610882604e-06
-3.80404775e-06
-3.892930595e-06
-3.809667364e-06
-3.477021988e-06
-2.791323484e-06
-1.527668945e-06
9.895022832e-07
5.644519208e-06
1.227974215e-05
1.456307515e-05
2.74560601e-05
3.691815737e-05
2.830081656e-05
9.443855259e-07
3.363158396e-10
2.149133228e-10
4.814994828e-11
6.013455322e-11
2.277893532e-10
1.924306054e-10
1.344411175e-10
7.358606124e-11
-1.245920392e-11
-1.034575523e-10
-1.456398841e-10
-1.151466339e-10
-4.924006032e-11
2.798547795e-13
4.204364255e-11
9.747801692e-11
1.168291125e-10
5.769378242e-11
6.923730973e-11
1.008417073e-10
2.293819055e-11
-2.083904109e-10
-1.978309147e-10
-1.519984454e-10
-9.316300266e-11
-3.133195894e-10
-2.210383331e-10
-5.237898407e-11
3.550530178e-07
1.900148851e-05
2.251632909e-05
1.665809884e-05
5.114398387e-06
3.792274387e-06
-2.354351277e-06
-6.909074307e-06
-9.307427688e-06
-1.107572769e-05
-1.222639939e-05
-1.296979902e-05
-1.388496122e-05
-1.533238581e-05
-1.787292333e-05
-9.13127732e-06
3.757751617e-08
2.964563651e-08
2.34831545e-08
1.870647108e-08
1.52418217e-08
1.266180927e-08
1.071621845e-08
9.192258976e-09
7.909129546e-09
6.71922847e-09
5.50175156e-09
4.158288103e-09
2.605497671e-09
7.70660692e-10
-1.41369671e-09
-4.012635287e-09
-7.092237567e-09
-1.072204691e-08
-1.497735077e-08
-1.994073638e-08
-2.570377625e-08
-3.236634743e-08
-4.003701164e-08
-4.88318276e-08
-5.887555199e-08
-7.030172016e-08
-8.325522776e-08
-9.789136994e-08
-1.143758605e-07
-1.328812068e-07
-1.535832782e-07
-1.766570334e-07
-2.022758971e-07
-2.306145995e-07
-2.618567645e-07
-2.961994012e-07
-3.338509743e-07
-3.750193924e-07
-4.199018636e-07
-4.686866816e-07
-5.215723858e-07
-5.787922863e-07
-6.40625645e-07
-7.073856909e-07
-7.793918597e-07
-8.569481362e-07
-9.403581029e-07
-1.029999307e-06
-1.126456415e-06
-1.230663883e-06
-1.343980241e-06
-1.46816124e-06
-1.605273184e-06
-1.757660536e-06
-1.928060341e-06
-2.119881656e-06
-2.337497296e-06
-2.586193419e-06
-2.871445088e-06
-3.197288456e-06
-3.563568573e-06
-3.961158481e-06
-4.364419195e-06
-4.722630166e-06
-4.960878367e-06
-5.00518715e-06
-4.842791088e-06
-4.391508246e-06
-2.630464981e-06
2.539241788e-06
1.240033996e-05
1.711296295e-05
3.038583084e-05
7.353985615e-06
1.154616338e-11
1.193688202e-10
1.729941586e-10
1.874786835e-10
1.245283988e-10
1.412798807e-10
1.488828615e-10
1.583702844e-10
1.422971607e-10