/*--------------------------------*- C++ -*----------------------------------*\
  =========                 |
  \\      /  F ield         | OpenFOAM: The Open Source CFD Toolbox
   \\    /   O peration     | Website:  https://openfoam.org
    \\  /    A nd           | Version:  6
     \\/     M anipulation  |
\*---------------------------------------------------------------------------*/
FoamFile
{
    version     2.0;
    format      ascii;
    class       volScalarField;
    location    "0.0038";
    object      ViscousDissipation;
}
// * * * * * * * * * * * * * * * * * * * * * * * * * * * * * * * * * * * * * //

dimensions      [1 -1 -3 0 0 0 0];

internalField   nonuniform List<scalar> 
9600
(
9.768822296e-19
9.308345728e-19
8.925346817e-19
8.711317459e-19
8.658800925e-19
8.728349408e-19
8.885795229e-19
9.108325383e-19
9.382379144e-19
9.700839435e-19
1.006067629e-18
1.046165455e-18
1.090535199e-18
1.139481387e-18
1.19341362e-18
1.252848881e-18
1.318387924e-18
1.390735155e-18
1.470682034e-18
1.559140338e-18
1.657124783e-18
1.76579397e-18
1.886425582e-18
2.020466506e-18
2.169502872e-18
2.335320902e-18
2.519858641e-18
2.725256681e-18
2.953763201e-18
3.207762879e-18
3.489638796e-18
3.801794414e-18
4.146460521e-18
4.525651915e-18
4.940804308e-18
5.392536289e-18
5.880017894e-18
6.400510698e-18
6.948481369e-18
7.514902599e-18
8.086001649e-18
8.642168426e-18
9.156337986e-18
9.592914067e-18
9.906781537e-18
1.00438301e-17
9.942804561e-18
9.540517938e-18
8.781092575e-18
7.63226189e-18
6.110064787e-18
4.31493132e-18
2.479800123e-18
1.032118106e-18
6.699256803e-19
2.453884113e-18
7.909614076e-18
1.910864485e-17
3.864180011e-17
6.947996389e-17
1.156849566e-16
1.883572183e-16
3.253066148e-16
6.078980268e-16
1.041623534e-15
1.513005446e-15
2.876017801e-16
5.958240928e-16
1.320521684e-15
1.892215642e-15
2.520497171e-15
3.957255732e-15
1.370803023e-15
4.588564523e-16
2.636129374e-17
4.151187279e-17
1.329788441e-16
2.327232131e-16
3.290993767e-16
4.07575232e-16
4.527983845e-16
4.619875723e-16
4.446062348e-16
4.097452004e-16
3.632561804e-16
3.116729229e-16
2.620610738e-16
2.203327103e-16
1.905737042e-16
1.753847355e-16
1.764525307e-16
1.948793424e-16
2.310418509e-16
2.839694404e-16
3.503305965e-16
4.235379642e-16
4.940118248e-16
5.511657951e-16
5.843714862e-16
5.792800957e-16
5.217584141e-16
4.155171097e-16
2.841686119e-16
1.520782766e-16
4.594295776e-17
5.895941582e-17
5.578097696e-16
1.319459393e-15
3.4450791e-15
2.321689303e-15
1.85202367e-15
2.037131553e-15
2.844156547e-16
1.823758246e-15
3.088943526e-15
1.376137141e-15
1.185048005e-15
1.887346273e-15
3.96118703e-15
1.487125888e-15
9.445678651e-19
8.625509296e-19
8.083095351e-19
7.842745664e-19
7.810983774e-19
7.907613545e-19
8.085228504e-19
8.318560409e-19
8.594824304e-19
8.908280013e-19
9.257029257e-19
9.641680724e-19
1.006428796e-18
1.052820325e-18
1.103755424e-18
1.159747036e-18
1.221368056e-18
1.289292708e-18
1.364259131e-18
1.447124602e-18
1.538823594e-18
1.640431756e-18
1.753114312e-18
1.878201362e-18
2.017129764e-18
2.171528198e-18
2.343137346e-18
2.533883062e-18
2.745752089e-18
2.980850643e-18
3.241249074e-18
3.529039576e-18
3.846128976e-18
4.194222818e-18
4.5744478e-18
4.987150605e-18
5.43129493e-18
5.904090759e-18
6.400192626e-18
6.911103417e-18
7.423998834e-18
7.920710035e-18
8.376194236e-18
8.757546388e-18
9.023082508e-18
9.122798675e-18
9.000019323e-18
8.596191301e-18
7.859644496e-18
6.761487219e-18
5.32066936e-18
3.642441448e-18
1.973516221e-18
7.796402836e-19
8.513766975e-19
3.446657687e-18
1.047613675e-17
2.472824006e-17
5.012258697e-17
9.207427882e-17
1.585574044e-16
2.634339125e-16
4.319407902e-16
6.902672915e-16
9.708469128e-16
8.944603677e-16
7.632708827e-17
1.162494501e-15
4.180820962e-16
1.19896719e-15
1.360232004e-14
3.963734412e-14
1.163577629e-14
3.303158224e-15
2.184748802e-16
1.312469703e-16
2.669567711e-16
4.203370803e-16
5.941469606e-16
7.37376166e-16
7.993453156e-16
7.802792452e-16
7.202506016e-16
6.399326528e-16
5.425372932e-16
4.384568247e-16
3.415341148e-16
2.622623354e-16
2.065010511e-16
1.771286018e-16
1.758606149e-16
2.042867796e-16
2.637859812e-16
3.54216371e-16
4.713183991e-16
6.039040247e-16
7.341698448e-16
8.455107917e-16
9.284940874e-16
9.54949866e-16
8.746854313e-16
6.878657778e-16
4.62395736e-16
2.596426975e-16
9.20932251e-17
2.233723619e-16
3.560247756e-15
1.159093246e-14
3.809218095e-14
1.364966924e-14
2.053022718e-15
8.719879306e-17
4.198565124e-16
1.143400856e-15
1.94796049e-15
1.852164059e-15
1.57924479e-15
1.675064183e-15
2.637365922e-15
9.756140984e-16
9.072605038e-19
7.839461323e-19
7.172391119e-19
6.971112619e-19
6.993896134e-19
7.12998294e-19
7.330459175e-19
7.573824813e-19
7.850801342e-19
8.157904108e-19
8.494754325e-19
8.86273937e-19
9.264488625e-19
9.70348181e-19
1.018399892e-18
1.071094161e-18
1.128993935e-18
1.192724339e-18
1.262993572e-18
1.340584485e-18
1.426380174e-18
1.521352076e-18
1.626588095e-18
1.743279183e-18
1.872753501e-18
2.016456752e-18
2.175977949e-18
2.35300268e-18
2.549316556e-18
2.766733842e-18
3.00709731e-18
3.272191653e-18
3.563711978e-18
3.883081961e-18
4.231282666e-18
4.608490988e-18
5.01375567e-18
5.444502248e-18
5.896080711e-18
6.361042844e-18
6.828343635e-18
7.282195277e-18
7.700981612e-18
8.056170943e-18
8.311837564e-18
8.424872691e-18
8.346841959e-18
8.028268786e-18
7.427444257e-18
6.525950687e-18
5.354644576e-18
4.034366763e-18
2.837966495e-18
2.2817269e-18
3.257606645e-18
7.220071358e-18
1.644342262e-17
3.436220309e-17
6.600455089e-17
1.185523026e-16
2.021391261e-16
3.307566311e-16
5.202450986e-16
7.694206894e-16
9.927888787e-16
9.321204805e-16
4.689848738e-16
7.531495112e-16
1.753400352e-15
6.910486953e-16
3.75846185e-14
2.585025952e-13
1.748747959e-13
3.336970136e-14
7.043649952e-15
1.065564955e-15
8.047604138e-16
8.61922081e-16
1.212394361e-15
1.508729148e-15
1.553615392e-15
1.392179468e-15
1.213285856e-15
1.045420285e-15
8.485852637e-16
6.406227059e-16
4.535933252e-16
3.066886979e-16
2.065288095e-16
1.538524506e-16
1.487519531e-16
1.933454905e-16
2.919718775e-16
4.484446933e-16
6.596332925e-16
9.060999544e-16
1.149189168e-15
1.360268506e-15
1.573053596e-15
1.752590924e-15
1.686053779e-15
1.321358964e-15
9.000668865e-16
7.753821753e-16
9.613065967e-16
6.861596418e-15
3.394032377e-14
1.737817811e-13
2.552293201e-13
3.520036661e-14
3.301660723e-16
2.057657416e-16
2.887985678e-16
1.076561871e-15
1.96721632e-15
1.986619555e-15
1.531189986e-15
1.207559354e-15
1.493420371e-15
5.8085702e-16
1.231759226e-18
7.35316185e-19
6.331294845e-19
6.165848222e-19
6.241860405e-19
6.411127949e-19
6.628139762e-19
6.876840533e-19
7.151382901e-19
7.450272865e-19
7.774247924e-19
8.125348732e-19
8.506536655e-19
8.92144511e-19
9.374335305e-19
9.869992654e-19
1.04137976e-18
1.101168653e-18
1.167029349e-18
1.23969355e-18
1.319977137e-18
1.408776526e-18
1.507085192e-18
1.615990609e-18
1.736692588e-18
1.870495841e-18
2.018815829e-18
2.183150405e-18
2.365065571e-18
2.566155455e-18
2.788026078e-18
3.032249009e-18
3.300308156e-18
3.593469319e-18
3.912598343e-18
4.257897538e-18
4.62861994e-18
5.022740041e-18
5.436575411e-18
5.864266537e-18
6.297072607e-18
6.722497926e-18
7.123382278e-18
7.477176937e-18
7.755642657e-18
7.925349004e-18
7.949560191e-18
7.792701999e-18
7.429185949e-18
6.85938341e-18
6.136509522e-18
5.410120529e-18
4.99409529e-18
5.470404843e-18
7.84324605e-18
1.376220051e-17
2.58345719e-17
4.804310466e-17
8.626547876e-17
1.488381661e-16
2.469279828e-16
3.937929523e-16
5.995959553e-16
8.531273624e-16
1.080748715e-15
1.12127652e-15
9.213027203e-16
1.115954473e-15
2.451604181e-15
3.998080214e-15
2.645773166e-15
1.214286735e-13
5.324482289e-13
5.805948967e-13
1.435918265e-13
5.044170274e-15
2.25252759e-15
1.508183114e-15
2.785312803e-15
3.639467518e-15
3.433968473e-15
2.571552176e-15
2.081297107e-15
1.803933087e-15
1.419661751e-15
9.981851929e-16
6.349332832e-16
3.656297713e-16
1.910037444e-16
1.014738001e-16
9.052829394e-17
1.606603196e-16
3.241493695e-16
5.980067625e-16
9.893140095e-16
1.464892607e-15
1.917230717e-15
2.251170321e-15
2.783312597e-15
3.689693446e-15
3.889410529e-15
2.922483201e-15
1.549733868e-15
2.221447656e-15
4.891453762e-15
1.421582716e-13
5.759922178e-13
5.367314608e-13
1.232059142e-13
1.055261969e-15
1.001681645e-15
8.253940819e-16
9.996182889e-16
1.681974148e-15
2.141560695e-15
1.899384041e-15
1.262136809e-15
7.271261985e-16
7.065777998e-16
3.231948265e-16
4.705521688e-19
5.042004959e-19
5.234914022e-19
5.369944485e-19
5.538698371e-19
5.74232984e-19
5.972382161e-19
6.223532873e-19
6.493839323e-19
6.783567748e-19
7.094371871e-19
7.428804948e-19
7.790085135e-19
8.181954144e-19
8.608634037e-19
9.074792843e-19
9.585575618e-19
1.01466294e-18
1.076418194e-18
1.144508294e-18
1.219688586e-18
1.30278693e-18
1.394711904e-18
1.496455271e-18
1.609100857e-18
1.733821244e-18
1.871875261e-18
2.024586866e-18
2.193329601e-18
2.379500005e-18
2.58450597e-18
2.809734064e-18
3.056505186e-18
3.325965639e-18
3.618943241e-18
3.935748066e-18
4.27598549e-18
4.638341258e-18
5.02034791e-18
5.418011747e-18
5.825318338e-18
6.23360134e-18
6.630979101e-18
7.001977732e-18
7.3276315e-18
7.586309902e-18
7.755994368e-18
7.819096224e-18
7.771824059e-18
7.640857673e-18
7.511665955e-18
7.574670529e-18
8.198702707e-18
1.004473617e-17
1.42373389e-17
2.261453303e-17
3.807714832e-17
6.504775919e-17
1.100110853e-16
1.820007037e-16
2.926217594e-16
4.545197566e-16
6.757361203e-16
9.457374273e-16
1.213308084e-15
1.385465679e-15
1.434936982e-15
1.658073877e-15
2.467475442e-15
4.335952993e-15
5.819769538e-15
1.354727122e-15
2.180365595e-15
2.49248214e-13
8.400371444e-13
1.709591752e-13
3.455753382e-15
1.232956113e-15
8.887344657e-15
1.146930839e-14
9.47869824e-15
4.552544831e-15
3.410274296e-15
3.367168621e-15
2.622091562e-15
1.717225866e-15
9.872918915e-16
4.888669745e-16
1.888108233e-16
4.240011762e-17
2.325934671e-17
1.335342687e-16
4.057602413e-16
8.961424299e-16
1.655642059e-15
2.642492237e-15
3.501889505e-15
3.605848862e-15
4.744180575e-15
9.742072438e-15
1.185854753e-14
9.092774204e-15
1.259688093e-15
3.418266143e-15
1.698055748e-13
8.339432289e-13
2.447542947e-13
2.083964839e-15
2.537181799e-16
1.816748151e-15
2.928251029e-15
2.397423761e-15
2.289533988e-15
2.334415285e-15
2.180969631e-15
1.646171508e-15
9.3481568e-16
3.735024153e-16
2.853036816e-16
1.882749618e-16
3.496123961e-19
4.003867707e-19
4.366420991e-19
4.63034066e-19
4.869840981e-19
5.108131616e-19
5.353051838e-19
5.60771636e-19
5.874364691e-19
6.155393628e-19
6.453582877e-19
6.772096057e-19
7.114463878e-19
7.484554864e-19
7.886585835e-19
8.32511886e-19
8.805110095e-19
9.331940129e-19
9.911493643e-19
1.055019318e-18
1.125507028e-18
1.203377892e-18
1.289466061e-18
1.384675943e-18
1.489987715e-18
1.606453053e-18
1.735190164e-18
1.877366671e-18
2.034186493e-18
2.206873356e-18
2.396663192e-18
2.604783908e-18
2.832417992e-18
3.080622768e-18
3.350223978e-18
3.641695128e-18
3.955059024e-18
4.289799914e-18
4.644754125e-18
5.017915575e-18
5.406148714e-18
5.804872487e-18
6.207857897e-18
6.607303811e-18
6.99438142e-18
7.360578405e-18
7.700500901e-18
8.017366306e-18
8.333141425e-18
8.706327505e-18
9.261859244e-18
1.023998163e-17
1.207424138e-17
1.55130211e-17
2.180329273e-17
3.295817493e-17
5.212699278e-17
8.406921542e-17
1.356810554e-16
2.163952364e-16
3.379952946e-16
5.128588726e-16
7.48891872e-16
1.039346183e-15
1.349930994e-15
1.619982872e-15
1.811059412e-15
1.99298217e-15
2.221109651e-15
2.219135513e-15
1.420119741e-15
5.648525475e-15
7.888377496e-15
6.276789881e-15
2.891087431e-13
4.710417451e-13
6.27343947e-14
2.013850122e-14
6.77766334e-14
5.520013363e-14
4.150569908e-14
6.09920387e-15
4.536098697e-15
7.438104951e-15
5.606580169e-15
3.380975588e-15
1.789925522e-15
8.231389732e-16
3.003726897e-16
6.459080461e-17
3.518331408e-17
2.121482714e-16
6.793289414e-16
1.608772957e-15
3.219304584e-15
5.585136483e-15
7.684735867e-15
4.817815643e-15
5.997639557e-15
4.112704453e-14
5.574567356e-14
6.816800537e-14
1.982913702e-14
6.176750058e-14
4.736521065e-13
2.849403886e-13
4.012549455e-15
4.052285744e-15
2.71716201e-15
3.733849385e-16
1.895045933e-15
2.561190037e-15
2.611706665e-15
2.375331693e-15
1.922780922e-15
1.29256732e-15
6.504815738e-16
1.881191827e-16
1.725642924e-16
1.472095879e-16
2.472717498e-19
3.102367541e-19
3.575524693e-19
3.935260959e-19
4.235339624e-19
4.507223454e-19
4.768046022e-19
5.027371803e-19
5.291307988e-19
5.564469516e-19
5.85089096e-19
6.154441727e-19
6.479025571e-19
6.828684201e-19
7.207660959e-19
7.620450559e-19
8.071854574e-19
8.567037046e-19
9.111585004e-19
9.711559266e-19
1.037353296e-18
1.110462035e-18
1.19125063e-18
1.28054672e-18
1.37923799e-18
1.488268767e-18
1.608632255e-18
1.741358288e-18
1.887502204e-18
2.048136159e-18
2.224344694e-18
2.417212942e-18
2.6277989e-18
2.857080241e-18
3.105892348e-18
3.374879008e-18
3.664484108e-18
3.974970955e-18
4.306439124e-18
4.658793525e-18
5.031689381e-18
5.42453018e-18
5.836666911e-18
6.267930923e-18
6.719695521e-18
7.196788364e-18
7.710973891e-18
8.287243795e-18
8.974958194e-18
9.866881596e-18
1.113081443e-17
1.306092392e-17
1.615946793e-17
2.126388327e-17
2.973854219e-17
4.37521838e-17
6.665672982e-17
1.034603826e-16
1.61328576e-16
2.499152088e-16
3.810782327e-16
5.67147397e-16
8.165356998e-16
1.125820766e-15
1.470210954e-15
1.800847034e-15
2.061083614e-15
2.210342466e-15
2.176897655e-15
1.80037205e-15
1.255513895e-15
4.086296165e-15
1.780460814e-14
1.541630339e-14
5.333843885e-15
2.766091018e-15
1.790963078e-14
7.879541923e-14
7.223186701e-13
4.414617452e-13
3.56930887e-13
2.234082503e-14
6.392602015e-15
2.618141501e-14
1.482358903e-14
7.861733628e-15
3.782896792e-15
1.710912381e-15
7.507681094e-16
3.625696754e-16
3.224092455e-16
6.249045505e-16
1.486496951e-15
3.456528857e-15
7.497744392e-15
1.471670392e-14
2.70866539e-14
7.331307401e-15
2.063674193e-14
3.495938209e-13
4.396453505e-13
7.199175851e-13
8.19681642e-14
1.894830262e-14
1.816378338e-15
2.620169304e-15
8.359099159e-15
1.261265406e-14
2.156686575e-15
4.8883736e-16
1.526087248e-15
2.229913043e-15
2.303795769e-15
2.003128117e-15
1.514291966e-15
9.580120394e-16
4.732964513e-16
1.620901031e-16
2.723750259e-16
1.671394302e-16
1.926813348e-19
2.474677358e-19
2.946112886e-19
3.333502148e-19
3.66149902e-19
3.952679665e-19
4.223501038e-19
4.48521032e-19
4.745731794e-19
5.011065135e-19
5.286175502e-19
5.575513492e-19
5.883318091e-19
6.213793188e-19
6.571224301e-19
6.960058672e-19
7.384980106e-19
7.850972398e-19
8.363380663e-19
8.927954536e-19
9.550883965e-19
1.023881781e-18
1.099888304e-18
1.183868644e-18
1.276630709e-18
1.379024702e-18
1.491935712e-18
1.616273412e-18
1.75296435e-18
1.902946906e-18
2.067169406e-18
2.246583066e-18
2.442124034e-18
2.65468511e-18
2.88509618e-18
3.134139372e-18
3.402617241e-18
3.691463568e-18
4.001867189e-18
4.33539504e-18
4.694155721e-18
5.081106455e-18
5.500631572e-18
5.959525567e-18
6.468553664e-18
7.044957515e-18
7.716633808e-18
8.529290084e-18
9.558625348e-18
1.093067897e-17
1.285511283e-17
1.567872561e-17
1.997002959e-17
2.665008161e-17
3.718868161e-17
5.388608316e-17
8.025291487e-17
1.214754376e-16
1.848910101e-16
2.802728458e-16
4.195052625e-16
6.149337765e-16
8.754498065e-16
1.199685219e-15
1.567373768e-15
1.933142434e-15
2.228372947e-15
2.368735548e-15
2.253422363e-15
1.809312405e-15
1.294922907e-15
2.198956122e-15
6.480316338e-15
7.735230226e-15
1.16295729e-14
1.629358069e-14
8.536713013e-15
3.205014604e-15
8.535337874e-13
8.114478735e-13
4.803359695e-13
9.029197179e-14
1.234456811e-13
2.09510417e-13
5.451211882e-14
2.20762513e-14
8.673841893e-15
3.73372769e-15
1.864591016e-15
1.193968898e-15
1.145715398e-15
1.705234732e-15
3.417090442e-15
8.125187002e-15
2.126507191e-14
5.397969903e-14
2.143569059e-13
1.29466316e-13
8.329300116e-14
4.728909982e-13
7.926310933e-13
8.545553088e-13
2.29593997e-15
5.442862308e-15
9.694763453e-15
5.811797702e-15
4.415632298e-15
4.182776486e-15
1.13426175e-15
7.059184089e-16
1.39278755e-15
1.854643035e-15
1.847289383e-15
1.541773663e-15
1.119306323e-15
7.087569527e-16
3.989917047e-16
2.366155302e-16
4.68799054e-16
2.136603817e-16
1.58698166e-19
2.036533138e-19
2.460846772e-19
2.83371186e-19
3.161001631e-19
3.454510421e-19
3.725975681e-19
3.985145658e-19
4.239807732e-19
4.496266216e-19
4.759847503e-19
5.035291709e-19
5.327024858e-19
5.639344965e-19
5.976553281e-19
6.343051739e-19
6.743424412e-19
7.182507661e-19
7.66544488e-19
8.197730081e-19
8.785233915e-19
9.434220217e-19
1.015134811e-18
1.094366384e-18
1.181857069e-18
1.278377496e-18
1.384720783e-18
1.501694542e-18
1.630114282e-18
1.770800374e-18
1.924576104e-18
2.092262994e-18
2.274670815e-18
2.472590523e-18
2.686811453e-18
2.918187734e-18
3.167766393e-18
3.436965144e-18
3.727781851e-18
4.043045017e-18
4.386771488e-18
4.764740837e-18
5.185408627e-18
5.661272745e-18
6.210879852e-18
6.861853901e-18
7.655725434e-18
8.655880389e-18
9.960723555e-18
1.17252209e-17
1.419565285e-17
1.776490102e-17
2.305911324e-17
3.107076995e-17
4.335691155e-17
6.232161754e-17
9.159353698e-17
1.364818899e-16
2.044317956e-16
3.052785228e-16
4.509033421e-16
6.53642709e-16
9.2263017e-16
1.257476093e-15
1.63977343e-15
2.02491993e-15
2.338434207e-15
2.480675432e-15
2.346565413e-15
1.892327722e-15
1.301884679e-15
1.177164949e-15
2.094825562e-15
2.811467287e-15
4.498901734e-15
9.76635595e-15
1.60070988e-14
2.128249162e-14
1.978739052e-14
1.52206291e-14
1.498606713e-14
7.540157702e-13
7.296126933e-13
3.988329748e-13
4.413035196e-13
6.786960877e-14
1.872713095e-14
7.328779722e-15
3.752413825e-15
2.587506392e-15
2.536742409e-15
3.574386473e-15
6.927775411e-15
1.787192788e-14
6.606656133e-14
4.376787176e-13
3.955094059e-13
7.012605573e-13
7.5118164e-13
1.450788712e-14
1.37587362e-14
1.609324051e-14
1.475077325e-14
1.010781658e-14
6.034320925e-15
2.319418914e-15
1.627371562e-15
1.286010985e-15
6.429109522e-16
7.988105037e-16
1.276545813e-15
1.540792448e-15
1.460524442e-15
1.168647246e-15
8.336034711e-16
5.577558096e-16
3.90038959e-16
3.458784754e-16
6.685679046e-16
2.612934813e-16
1.348702523e-19
1.716633433e-19
2.084485717e-19
2.424042997e-19
2.732861062e-19
3.015371447e-19
3.278568462e-19
3.529642505e-19
3.775181577e-19
4.021005908e-19
4.272288376e-19
4.533739697e-19
4.809787137e-19
5.104718912e-19
5.422800624e-19
5.768370245e-19
6.145917295e-19
6.560149719e-19
7.016044811e-19
7.51888672e-19
8.074289967e-19
8.688207471e-19
9.366923617e-19
1.011702984e-18
1.094538078e-18
1.185903123e-18
1.286516046e-18
1.397099765e-18
1.518376068e-18
1.651061649e-18
1.795864493e-18
1.953478673e-18
2.124579776e-18
2.309833696e-18
2.509940959e-18
2.725738905e-18
2.958367556e-18
3.209488707e-18
3.481552052e-18
3.778140364e-18
4.104476746e-18
4.468207704e-18
4.880567596e-18
5.358035769e-18
5.924673507e-18
6.615562487e-18
7.482142871e-18
8.600810744e-18
1.008687424e-17
1.211706255e-17
1.496541428e-17
1.905984892e-17
2.507014594e-17
3.404215587e-17
4.759656682e-17
6.821077807e-17
9.959347416e-17
1.471335509e-16
2.183413933e-16
3.230815177e-16
4.732080496e-16
6.809859782e-16
9.555294046e-16
1.296665363e-15
1.68645475e-15
2.08017611e-15
2.400600319e-15
2.542118198e-15
2.39742416e-15
1.927882078e-15
1.269487845e-15
7.372464099e-16
5.668831326e-16
6.043423085e-16
6.943929602e-16
1.45282732e-15
2.801607598e-15
7.863491175e-15
1.751657724e-14
1.148792351e-14
3.680769683e-14
1.690094236e-14
6.825084438e-16
1.047211548e-15
5.066418117e-16
1.465462084e-13
3.426488654e-14
1.164802278e-14
5.627981224e-15
3.861306755e-15
3.81216418e-15
5.446227142e-15
1.118739089e-14
3.304656435e-14
1.427862461e-13
4.987086356e-16
1.027185446e-15
6.725466993e-16
1.60735583e-14
3.375572e-14
1.076167014e-14
1.641595816e-14
7.052739584e-15
2.021978306e-15
8.219775803e-16
3.285881353e-16
4.025930175e-16
3.715312599e-16
4.59297778e-16
7.922831824e-16
1.165472905e-15
1.329163826e-15
1.211528945e-15
9.412690902e-16
6.686087629e-16
4.795815301e-16
4.014922531e-16
4.277486486e-16
7.977431177e-16
2.92315547e-16
1.16718842e-19
1.47115256e-19
1.786198054e-19
2.087106832e-19
2.368939644e-19
2.63223251e-19
2.880600307e-19
3.118869339e-19
3.352158445e-19
3.585438298e-19
3.823407884e-19
4.070512238e-19
4.331017919e-19
4.609101652e-19
4.90893559e-19
5.23476719e-19
5.59098632e-19
5.982183892e-19
6.413197586e-19
6.889144208e-19
7.415438848e-19
7.997796864e-19
8.642216266e-19
9.354940245e-19
1.0142401e-18
1.101115013e-18
1.196778112e-18
1.301885242e-18
1.417081573e-18
1.54299483e-18
1.68022799e-18
1.829351211e-18
1.99089913e-18
2.165388649e-18
2.353379101e-18
2.555592092e-18
2.773092137e-18
3.007519448e-18
3.261381231e-18
3.53845123e-18
3.844372174e-18
4.187568469e-18
4.580563273e-18
5.041799496e-18
5.598170184e-18
6.288698804e-18
7.170204657e-18
8.326319822e-18
9.881971734e-18
1.202650663e-17
1.505025009e-17
1.940173568e-17
2.577622943e-17
3.525022132e-17
4.948012545e-17
7.098354122e-17
1.035124485e-16
1.524986142e-16
2.254863295e-16
3.323464899e-16
4.848799079e-16
6.951969831e-16
9.721286957e-16
1.315120547e-15
1.705847326e-15
2.099162953e-15
2.416678074e-15
2.549167823e-15
2.382704807e-15
1.87694941e-15
1.191622557e-15
6.968916117e-16
6.535516438e-16
8.022117898e-16
8.919565301e-16
1.561159816e-15
2.773682323e-15
7.551374505e-15
1.710315215e-14
1.160177716e-14
3.678200147e-14
1.693066607e-14
6.839086087e-16
1.047268385e-15
5.067250714e-16
1.465746561e-13
3.426801109e-14
1.164601642e-14
5.625161002e-15
3.858624163e-15
3.809958316e-15
5.445058106e-15
1.118917444e-14
3.30583143e-14
1.428365347e-13
4.988137852e-16
1.027281151e-15
6.738271642e-16
1.599484989e-14
3.377053253e-14
1.098988371e-14
1.585252718e-14
6.521116979e-15
1.785781121e-15
8.174223797e-16
4.883551987e-16
5.566675942e-16
4.76842009e-16
4.838087702e-16
7.529755773e-16
1.089746067e-15
1.24238093e-15
1.131204337e-15
8.787745814e-16
6.263236771e-16
4.597617569e-16
4.053381477e-16
4.423841468e-16
8.215565084e-16
2.974947596e-16
1.020838312e-19
1.274561039e-19
1.543752967e-19
1.806914401e-19
2.059103235e-19
2.299198839e-19
2.528808931e-19
2.751017693e-19
2.969641543e-19
3.188752327e-19
3.412452763e-19
3.644796232e-19
3.889785114e-19
4.151409992e-19
4.433702731e-19
4.740794058e-19
5.076966415e-19
5.446701048e-19
5.854718199e-19
6.306004964e-19
6.805830087e-19
7.359740595e-19
7.973533425e-19
8.653207512e-19
9.404898411e-19
1.023480234e-18
1.114909555e-18
1.215384602e-18
1.325491814e-18
1.44578625e-18
1.576778822e-18
1.718923319e-18
1.872611699e-18
2.038193475e-18
2.216039347e-18
2.406660494e-18
2.610881281e-18
2.830058955e-18
3.066368125e-18
3.323212165e-18
3.605858797e-18
3.922397674e-18
4.285097467e-18
4.712259853e-18
5.230784687e-18
5.879915071e-18
6.717009035e-18
7.826716103e-18
9.33564787e-18
1.143567143e-17
1.442054273e-17
1.874303649e-17
2.510316383e-17
3.458224096e-17
4.884123187e-17
7.040215409e-17
1.030220002e-16
1.521385915e-16
2.252995631e-16
3.323594066e-16
4.85033914e-16
6.951738208e-16
9.710104294e-16
1.310939465e-15
1.695428884e-15
2.079030467e-15
2.38481613e-15
2.503154687e-15
2.307853073e-15
1.748059044e-15
1.084946224e-15
1.091038326e-15
2.384888526e-15
3.34213135e-15
4.872822473e-15
9.839771201e-15
1.607989124e-14
2.080598391e-14
1.935536641e-14
1.525148276e-14
1.510696964e-14
7.554900072e-13
7.300566043e-13
3.994206248e-13
4.416782363e-13
6.794303008e-14
1.873819893e-14
7.32552454e-15
3.74608549e-15
2.581099418e-15
2.531525693e-15
3.572028223e-15
6.932851293e-15
1.789919392e-14
6.616789549e-14
4.380872254e-13
3.960824756e-13
7.017148055e-13
7.525317789e-13
1.44446797e-14
1.371812215e-14
1.53505899e-14
1.412625195e-14
9.931601452e-15
6.027578805e-15
2.754260955e-15
2.08292832e-15
1.606754714e-15
7.27800834e-16
7.016711117e-16
1.065847596e-15
1.288261687e-15
1.219242857e-15
9.757928092e-16
7.017396562e-16
4.924584941e-16
3.829432769e-16
3.835262367e-16
7.320059118e-16
2.762572593e-16
8.981983135e-20
1.11178436e-19
1.342058029e-19
1.570771798e-19
1.793814026e-19
2.009589317e-19
2.218672241e-19
2.423021787e-19
2.62546528e-19
2.829293541e-19
3.038025912e-19
3.255290947e-19
3.484783639e-19
3.730269463e-19
3.995610971e-19
4.284804267e-19
4.602018277e-19
4.951631983e-19
5.338267763e-19
5.766817403e-19
6.242453295e-19
6.770617797e-19
7.356988664e-19
8.007420504e-19
8.727874939e-19
9.524341121e-19
1.040274855e-18
1.136886154e-18
1.242814972e-18
1.358562614e-18
1.484565223e-18
1.621174301e-18
1.768645936e-18
1.927154934e-18
2.09684945e-18
2.2779535e-18
2.470910865e-18
2.676568118e-18
2.89642229e-18
3.133002137e-18
3.390475807e-18
3.675568128e-18
3.998851137e-18
4.376501656e-18
4.832755149e-18
5.403536051e-18
6.142123561e-18
7.128210684e-18
8.482395517e-18
1.038913023e-17
1.313272723e-17
1.715351026e-17
2.313477814e-17
3.213557395e-17
4.578821354e-17
6.658002173e-17
9.822947111e-17
1.46136005e-16
2.178119378e-16
3.230680393e-16
4.735029265e-16
6.805803651e-16
9.514814865e-16
1.282484718e-15
1.651395453e-15
2.012760652e-15
2.297662815e-15
2.408822697e-15
2.206726773e-15
1.598850367e-15
9.984397562e-16
2.172092123e-15
6.942366586e-15
8.275374033e-15
1.189272556e-14
1.586484013e-14
8.46318708e-15
3.089011048e-15
8.530637825e-13
8.098105084e-13
4.806274959e-13
9.038142054e-14
1.232897339e-13
2.097263961e-13
5.464021443e-14
2.212509264e-14
8.686028281e-15
3.732050155e-15
1.858414337e-15
1.187093813e-15
1.14026836e-15
1.703591167e-15
3.423804377e-15
8.150172442e-15
2.132835108e-14
5.410798284e-14
2.145035187e-13
1.292989906e-13
8.336544821e-14
4.730784832e-13
7.911680492e-13
8.542756004e-13
2.055762848e-15
4.99808574e-15
9.09684153e-15
6.450797747e-15
4.893611307e-15
4.618050009e-15
1.28573092e-15
6.080526391e-16
1.076872663e-15
1.447310868e-15
1.450705128e-15
1.212519428e-15
8.938427174e-16
5.912582882e-16
3.690708157e-16
2.773219658e-16
5.565154949e-16
2.353271399e-16
7.927149403e-20
9.736299837e-20
1.170991712e-19
1.369176794e-19
1.565046354e-19
1.757066378e-19
1.945363292e-19
2.131235424e-19
2.316826498e-19
2.504818077e-19
2.69822645e-19
2.900283232e-19
3.114377775e-19
3.344041584e-19
3.592957035e-19
3.86497849e-19
4.164160462e-19
4.494787456e-19
4.861403923e-19
5.268838205e-19
5.722211388e-19
6.226921067e-19
6.788599683e-19
7.413053083e-19
8.106188185e-19
8.873933851e-19
9.722144602e-19
1.06564753e-18
1.168221141e-18
1.28040491e-18
1.402583007e-18
1.535026608e-18
1.677874333e-18
1.831134236e-18
1.994719507e-18
2.168519688e-18
2.352499581e-18
2.54682604e-18
2.752053773e-18
2.969438941e-18
3.20146364e-18
3.452638122e-18
3.730631867e-18
4.047829102e-18
4.423545402e-18
4.887397049e-18
5.484672372e-18
6.28502371e-18
7.396416939e-18
8.987205671e-18
1.132076829e-17
1.480973433e-17
2.010053927e-17
2.82035914e-17
4.068848097e-17
5.996458267e-17
8.965880828e-17
1.350727165e-16
2.036286137e-16
3.050611246e-16
4.508365356e-16
6.519168337e-16
9.138218068e-16
1.228853819e-15
1.568769074e-15
1.886752049e-15
2.134576301e-15
2.266343667e-15
2.150991427e-15
1.573057778e-15
1.00616292e-15
4.257659224e-15
1.8095248e-14
1.597278974e-14
5.723476215e-15
2.791085192e-15
1.798762169e-14
7.918310658e-14
7.215441456e-13
4.410955367e-13
3.568186892e-13
2.233564151e-14
6.400529369e-15
2.625630791e-14
1.488463793e-14
7.894502485e-15
3.795047821e-15
1.712033213e-15
7.471124661e-16
3.577334616e-16
3.188626413e-16
6.251600331e-16
1.494073323e-15
3.476614062e-15
7.535861963e-15
1.477228283e-14
2.71368108e-14
7.326018437e-15
2.063948589e-14
3.494198285e-13
4.392673139e-13
7.193606924e-13
8.231255153e-14
1.906279688e-14
1.689561369e-15
3.076978309e-15
8.958831731e-15
1.288362223e-14
2.252817051e-15
4.536730358e-16
1.16384409e-15
1.707317945e-15
1.776624018e-15
1.557105038e-15
1.190307575e-15
7.74327767e-16
4.026039135e-16
1.774519441e-16
3.521515554e-16
1.868028253e-16
7.003978929e-20
8.542722029e-20
1.023702205e-19
1.195162353e-19
1.366386877e-19
1.53610142e-19
1.704296888e-19
1.871915323e-19
2.040656744e-19
2.212757029e-19
2.390830793e-19
2.577768988e-19
2.776682981e-19
2.990881644e-19
3.223871019e-19
3.47936567e-19
3.761309618e-19
4.073903426e-19
4.421632563e-19
4.809291551e-19
5.241990038e-19
5.725132882e-19
6.264375384e-19
6.865562615e-19
7.534660882e-19
8.277680892e-19
9.100574916e-19
1.000908852e-18
1.100854967e-18
1.210359307e-18
1.329782475e-18
1.459346337e-18
1.599103219e-18
1.748921059e-18
1.908492012e-18
2.077362311e-18
2.25497455e-18
2.440724692e-18
2.634066835e-18
2.834729506e-18
3.043112822e-18
3.260917525e-18
3.492049042e-18
3.743894449e-18
4.029217672e-18
4.369165309e-18
4.798211504e-18
5.37228899e-18
6.181891287e-18
7.372797043e-18
9.178651588e-18
1.197228983e-17
1.634649584e-17
2.323945151e-17
3.412445513e-17
5.128508741e-17
7.819094753e-17
1.199642014e-16
1.838561998e-16
2.794810983e-16
4.182015114e-16
6.105031114e-16
8.597205782e-16
1.151467245e-15
1.444210824e-15
1.681166239e-15
1.851030395e-15
2.052437512e-15
2.272655596e-15
2.069823771e-15
1.357771499e-15
5.67022187e-15
8.498554961e-15
6.793400721e-15
2.885462463e-13
4.714342012e-13
6.26330616e-14
2.013981562e-14
6.766839606e-14
5.512351838e-14
4.151894173e-14
6.125736986e-15
4.55981616e-15
7.476036305e-15
5.642108514e-15
3.404651179e-15
1.801786355e-15
8.269435952e-16
2.999240872e-16
6.279906219e-17
3.437178268e-17
2.145145168e-16
6.872822036e-16
1.624658711e-15
3.243853307e-15
5.614435786e-15
7.708390406e-15
4.827313443e-15
6.008143011e-15
4.110439611e-14
5.56583995e-14
6.810406305e-14
1.982386221e-14
6.169571295e-14
4.738918328e-13
2.844741088e-13
4.478974092e-15
4.349405481e-15
2.783369598e-15
4.409698901e-16
1.550709651e-15
2.033789797e-15
2.050945698e-15
1.876745527e-15
1.534108235e-15
1.045533413e-15
5.365391366e-16
1.570697406e-16
2.063023461e-16
1.539477889e-16
6.186825213e-20
7.498706312e-20
8.954587468e-20
1.043625813e-19
1.192821331e-19
1.342069773e-19
1.49137562e-19
1.641506956e-19
1.79388629e-19
1.950435711e-19
2.113462663e-19
2.285580273e-19
2.469660107e-19
2.668810781e-19
2.886374128e-19
3.125932689e-19
3.391328132e-19
3.686688422e-19
4.016458302e-19
4.385423875e-19
4.798717254e-19
5.261794596e-19
5.780393256e-19
6.360476626e-19
7.008176818e-19
7.72972263e-19
8.53133272e-19
9.41904464e-19
1.039846904e-18
1.147446319e-18
1.265073641e-18
1.392941031e-18
1.531059008e-18
1.679201647e-18
1.836883319e-18
2.003341319e-18
2.177515459e-18
2.358028195e-18
2.543196663e-18
2.731131598e-18
2.919977293e-18
3.108331076e-18
3.295881007e-18