/*--------------------------------*- C++ -*----------------------------------*\
  =========                 |
  \\      /  F ield         | OpenFOAM: The Open Source CFD Toolbox
   \\    /   O peration     | Website:  https://openfoam.org
    \\  /    A nd           | Version:  6
     \\/     M anipulation  |
\*---------------------------------------------------------------------------*/
FoamFile
{
    version     2.0;
    format      ascii;
    class       surfaceScalarField;
    location    "0.0028";
    object      phi;
}
// * * * * * * * * * * * * * * * * * * * * * * * * * * * * * * * * * * * * * //

dimensions      [0 3 -1 0 0 0 0];

internalField   nonuniform List<scalar> 
19000
(
1.91416808e-20
-4.709836433e-21
1.884209912e-20
-1.365760384e-20
1.819445837e-20
-2.206520961e-20
1.720457598e-20
-3.007836244e-20
1.588339764e-20
-3.784944043e-20
1.424267985e-20
-4.548662307e-20
1.228602422e-20
-5.305892131e-20
1.001276165e-20
-6.060754009e-20
7.415754602e-21
-6.815628985e-20
4.486291345e-21
-7.571737654e-20
1.211382797e-21
-8.32961127e-20
-2.42201748e-21
-9.089269946e-20
-6.43037327e-21
-9.850442006e-20
-1.082976487e-20
-1.061258698e-19
-1.563957742e-20
-1.137501959e-19
-2.087888122e-20
-1.213687138e-19
-2.657026436e-20
-1.289717437e-19
-3.273626494e-20
-1.365479343e-19
-3.940330501e-20
-1.440848904e-19
-4.659817634e-20
-1.515683397e-19
-5.435204023e-20
-1.589826425e-19
-6.269693733e-20
-1.663098391e-19
-7.166979373e-20
-1.73530061e-19
-8.130890682e-20
-1.806204905e-19
-9.165797079e-20
-1.875556968e-19
-1.027625887e-19
-1.943065599e-19
-1.146742687e-19
-2.008405842e-19
-1.27446817e-19
-2.071207708e-19
-1.411400301e-19
-2.131058713e-19
-1.558157043e-19
-2.187491975e-19
-1.71540899e-19
-2.239988277e-19
-1.883836426e-19
-2.287965168e-19
-2.06415881e-19
-2.330781544e-19
-2.257088464e-19
-2.367730425e-19
-2.463352494e-19
-2.398047958e-19
-2.68363517e-19
-2.420910668e-19
-2.918582763e-19
-2.435448231e-19
-3.168727718e-19
-2.440746565e-19
-3.434474096e-19
-2.435870302e-19
-3.716005381e-19
-2.419881952e-19
-4.013251677e-19
-2.391887509e-19
-4.325777019e-19
-2.351084158e-19
-4.652717265e-19
-2.296836239e-19
-4.992635501e-19
-2.228755651e-19
-5.343427307e-19
-2.146813565e-19
-5.702154173e-19
-2.051463163e-19
-6.064934812e-19
-1.943800979e-19
-6.426776404e-19
-1.825743378e-19
-6.781468578e-19
-1.70023522e-19
-7.12143086e-19
-1.571456964e-19
-7.437630672e-19
-1.445030602e-19
-7.719465777e-19
-1.328176743e-19
-7.954709531e-19
-1.229808934e-19
-8.129412237e-19
-1.160516066e-19
-8.227861459e-19
-1.132434963e-19
-8.232568747e-19
-1.159006494e-19
-8.12453824e-19
-1.254654239e-19
-7.883963699e-19
-1.434333415e-19
-7.491252455e-19
-1.712697967e-19
-6.926305341e-19
-2.102164628e-19
-6.15880817e-19
-2.60899751e-19
-5.117549412e-19
-3.229782528e-19
-3.64144307e-19
-3.961958678e-19
-1.53936233e-19
-4.866499278e-19
1.079857658e-19
-6.19759164e-19
1.541931541e-19
-8.142990997e-19
-1.226860622e-19
-8.368011334e-19
-6.937769886e-21
-3.317255728e-19
1.250725135e-21
6.937766047e-21
2.57256846e-21
3.538065328e-23
7.281071686e-21
-1.380450264e-20
2.303046942e-20
-3.196368065e-20
2.811186201e-20
-1.810716754e-20
2.655370843e-20
-6.487445658e-21
2.611623463e-20
-5.059523354e-21
2.751896723e-20
-5.397310297e-21
2.983257364e-20
-4.499425923e-21
3.215875608e-20
-1.822706981e-21
3.382467257e-20
2.499910993e-21
3.424581604e-20
8.216434078e-21
3.313700636e-20
1.462615694e-20
3.061155914e-20
2.082351055e-20
2.699912403e-20
2.617069117e-20
2.269951014e-20
3.033056668e-20
1.811233473e-20
3.318741464e-20
1.356985289e-20
3.483206163e-20
9.281902518e-21
3.551496559e-20
5.322021585e-21
3.555607852e-20
1.646698669e-21
3.525603205e-20
-1.866491546e-21
3.483734377e-20
-5.379867351e-21
3.441496001e-20
-9.055064373e-21
3.39861547e-20
-1.301332707e-20
3.34310927e-20
-1.72936648e-20
3.252452816e-20
-2.181833351e-20
3.096601792e-20
-2.637471426e-20
2.843946685e-20
-3.063146923e-20
2.470368199e-20
-3.419453915e-20
1.96828769e-20
-3.667773516e-20
1.351171171e-20
-3.777160768e-20
6.542477954e-21
-3.738595215e-20
-5.779301585e-22
-3.582898111e-20
-6.945029895e-21
-3.370492464e-20
-1.186273687e-20
-3.17038468e-20
-1.508594088e-20
-3.073738544e-20
-1.648501018e-20
-3.17473118e-20
-1.660015252e-20
-3.40270389e-20
-1.841268974e-20
-2.985562475e-20
-3.028938087e-20
-1.528603091e-20
-4.42223801e-20
-1.19604295e-20
-2.611183485e-20
-1.213181159e-20
-1.231899336e-20
-5.430470461e-21
-5.430474263e-21
-1.507749075e-19
-6.874250739e-20
-1.01530578e-18
2.883753111e-19
-1.253966967e-18
1.15595069e-18
-1.045152066e-18
2.074743023e-18
-6.641765844e-19
2.539116235e-18
-2.568965788e-19
2.407909636e-18
9.151942576e-21
1.578341333e-18
-1.221704413e-31
1.183996609e-20
-5.227551902e-21
1.153839829e-20
-1.428195698e-20
1.081682514e-20
-2.23544421e-20
9.735468375e-21
-2.989778506e-20
8.329988483e-21
-3.717892365e-20
6.619864981e-21
-4.434122435e-20
4.609638271e-21
-5.146050942e-20
2.296623154e-21
-5.857548876e-20
-3.281297426e-22
-6.570544335e-20
-3.27535545e-21
-7.285774109e-20
-6.558984453e-21
-8.003362209e-20
-1.019309055e-20
-8.722959744e-20
-1.419416739e-20
-9.444003839e-20
-1.857853592e-20
-1.016568373e-19
-2.33649353e-20
-1.088710381e-19
-2.857206635e-20
-1.160718872e-19
-3.422128464e-20
-1.232481032e-19
-4.033419702e-20
-1.303866716e-19
-4.693542385e-20
-1.374739244e-19
-5.405024051e-20
-1.444942019e-19
-6.170739522e-20
-1.514308437e-19
-6.99367491e-20
-1.582647362e-19
-7.877209218e-20
-1.649752303e-19
-8.824878086e-20
-1.715386245e-19
-9.840657115e-20
-1.779290185e-19
-1.092872829e-19
-1.841167832e-19
-1.209375948e-19
-1.900694027e-19
-1.334065509e-19
-1.957498992e-19
-1.467480451e-19
-2.011176347e-19
-1.610179897e-19
-2.061267294e-19
-1.762764794e-19
-2.107268794e-19
-1.925847942e-19
-2.148619765e-19
-2.100073887e-19
-2.184712625e-19
-2.286086018e-19
-2.214883817e-19
-2.48453904e-19
-2.238430191e-19
-2.696054747e-19
-2.254604454e-19
-2.921219298e-19
-2.262636233e-19
-3.160524761e-19
-2.261735298e-19
-3.414353692e-19
-2.251125023e-19
-3.682911115e-19
-2.230064842e-19
-3.966196694e-19
-2.197909092e-19
-4.263919513e-19
-2.154159212e-19
-4.57544426e-19
-2.098552771e-19
-4.899678887e-19
-2.031148564e-19
-5.234996933e-19
-1.95245246e-19
-5.579112615e-19
-1.8635478e-19
-5.928996623e-19
-1.76627425e-19
-6.280747604e-19
-1.663414943e-19
-6.62949899e-19
-1.558925874e-19
-6.969279454e-19
-1.458160585e-19
-7.29290215e-19
-1.368114725e-19
-7.591801254e-19
-1.297637787e-19
-7.855879412e-19
-1.257629163e-19
-8.073288332e-19
-1.261165666e-19
-8.23021006e-19
-1.32358196e-19
-8.310589686e-19
-1.462466339e-19
-8.295911831e-19
-1.697587126e-19
-8.164938613e-19
-2.050649487e-19
-7.893169505e-19
-2.54473052e-19
-7.451019495e-19
-3.203105269e-19
-6.799700675e-19
-4.047570886e-19
-5.886783569e-19
-5.097758285e-19
-4.665003674e-19
-6.375890088e-19
-3.196872917e-19
-7.914559803e-19
-1.908180258e-19
-9.722819225e-19
-1.858665763e-19
-1.150514476e-18
-2.644850197e-19
-1.207793958e-18
-1.308707369e-19
-8.444720827e-19
-5.651660258e-21
-3.003147609e-19
-1.126731495e-20
5.651664094e-21
-1.08781063e-20
-1.419195535e-20
3.688698253e-20
-7.972688465e-20
3.973158389e-20
-2.09512809e-20
2.798163078e-20
5.263239993e-21
2.577844768e-20
-2.855703949e-21
2.841685158e-20
-8.033475918e-21
3.250929262e-20
-8.588428491e-21
3.648137405e-20
-5.790194268e-21
3.954119572e-20
-5.553899517e-22
4.065553887e-20
7.106638373e-21
3.933435998e-20
1.595028856e-20
3.595873993e-20
2.420180663e-20
3.115899939e-20
3.097221292e-20
2.555635809e-20
3.593516775e-20
1.975698194e-20
3.898890487e-20
1.425275665e-20
4.033819127e-20
9.323015441e-21
4.044535305e-20
5.021975327e-21
3.985635376e-20
1.228010173e-21
3.904837228e-20
-2.288875305e-21
3.835313818e-20
-5.808672461e-21
3.793441751e-20
-9.610126573e-21
3.778773527e-20
-1.391989161e-20
3.774114495e-20
-1.885217486e-20
3.745813365e-20
-2.434488476e-20
3.645980759e-20
-3.011049912e-20
3.420433753e-20
-3.565227422e-20
3.024224434e-20
-4.036570448e-20
2.439401717e-20
-4.364696892e-20
1.678979097e-20
-4.489201582e-20
7.784683912e-21
-4.37530519e-20
-1.720312941e-21
-4.074668808e-20
-9.954051081e-21
-3.692812875e-20
-1.568482816e-20
-3.310291601e-20
-1.891393061e-20
-3.085252778e-20
-1.873868121e-20
-3.355984914e-20
-1.389473218e-20
-4.590372996e-20
-6.071962445e-21
-4.378862398e-20
-3.240951916e-20
2.824514243e-21
-9.083874769e-20
1.832412182e-21
-2.512125358e-20
-5.24329249e-21
-5.243288687e-21
-1.679383194e-19
-8.727725012e-20
-5.927946341e-19
-4.285771635e-20
-1.017492358e-18
2.780977401e-19
-1.1564578e-18
1.011743034e-18
-9.581030387e-19
1.693703366e-18
-5.918623423e-19
2.047565702e-18
-2.148322804e-19
1.926068497e-18
1.667631416e-20
1.252817475e-18
-1.01092269e-31
5.237107609e-21
-6.655372956e-21
4.777100147e-21
-1.561642581e-20
3.856911223e-21
-2.305616342e-20
2.615268598e-21
-2.994753698e-20
1.094970466e-21
-3.664020362e-20
-6.942797608e-22
-4.327555921e-20
-2.756935167e-21
-4.991390256e-20
-5.10353401e-21
-5.658071932e-20
-7.74704888e-21
-6.328452665e-20
-1.070189187e-20
-7.002539029e-20
-1.398305637e-20
-7.679836758e-20
-1.760628908e-20
-8.359592615e-20
-2.158775086e-20
-9.040853712e-20
-2.594444056e-20
-9.722567836e-20
-3.069397885e-20
-1.040356693e-19
-3.585509511e-20
-1.10826222e-19
-4.144743159e-20
-1.175839919e-19
-4.749206285e-20
-1.242949511e-19
-5.401133637e-20
-1.309437943e-19
-6.102943665e-20
-1.375142206e-19
-6.857224609e-20
-1.439882623e-19
-7.666790677e-20
-1.503464881e-19
-8.534666669e-20
-1.56567272e-19
-9.464144932e-20
-1.62626958e-19
-1.045877294e-19
-1.684990833e-19
-1.152241179e-19
-1.741545328e-19
-1.265921881e-19
-1.795607668e-19
-1.387368769e-19
-1.846819321e-19
-1.51706033e-19
-1.894780855e-19
-1.65550528e-19
-1.939053355e-19
-1.803236354e-19
-1.97915168e-19
-1.960810978e-19
-2.01454848e-19
-2.128804639e-19
-2.044671388e-19
-2.307808854e-19
-2.068911468e-19
-2.49841754e-19
-2.086625267e-19
-2.701214055e-19
-2.097148164e-19
-2.91674556e-19
-2.099802231e-19
-3.145500594e-19
-2.093918879e-19
-3.387878339e-19
-2.078861725e-19
-3.644162851e-19
-2.054070109e-19
-3.914485545e-19
-2.019108285e-19
-4.198784676e-19
-1.97373754e-19
-4.496746633e-19
-1.917994903e-19
-4.807744682e-19
-1.852297764e-19
-5.130768523e-19
-1.777562283e-19
-5.464361813e-19
-1.695356984e-19
-5.806554951e-19
-1.608079135e-19
-6.154800689e-19
-1.519168927e-19
-6.505894574e-19
-1.433342388e-19
-6.85588853e-19
-1.356854065e-19
-7.199979541e-19
-1.297768401e-19
-7.532378068e-19
-1.266248798e-19
-7.846134102e-19
-1.274839645e-19
-8.132928439e-19
-1.338744234e-19
-8.382818345e-19
-1.476069012e-19
-8.583957139e-19
-1.708028465e-19
-8.722286917e-19
-2.059053929e-19
-8.781227403e-19
-2.556723861e-19
-8.74137703e-19
-3.23131892e-19
-8.580446748e-19
-4.114734972e-19
-8.274689379e-19
-5.238403351e-19
-7.806461435e-19
-6.629703535e-19
-7.190272249e-19
-8.304541331e-19
-6.531859773e-19
-1.02451596e-18
-6.08745746e-19
-1.232943283e-18
-6.136350313e-19
-1.415216311e-18
-6.190349406e-19
-1.478908726e-18
-4.782010788e-19
-1.292946545e-18
-1.755212339e-19
-8.925316547e-19
-3.11109343e-20
-3.133016042e-19
-7.641303505e-20
3.11109343e-20
9.566258553e-20
-2.518027947e-19
6.594610442e-20
8.765906424e-21
1.986268669e-20
5.134684374e-20
2.060067561e-20
-3.591660654e-21
2.786189879e-20
-1.529137426e-20
3.530752668e-20
-1.602970579e-20
4.17161781e-20
-1.219477462e-20
4.72032238e-20
-6.037808198e-21
4.949918871e-20
4.814032388e-21
4.758587774e-20
1.786741656e-20
4.272914615e-20
2.906024532e-20
3.612195383e-20
3.758133591e-20
2.861009503e-20
4.344932566e-20
2.110626845e-20
4.649517098e-20
1.435991811e-20
4.708607004e-20
8.734016097e-21
4.607111272e-20
4.213994054e-21
4.437461338e-20
5.327758355e-22
4.272763483e-20
-2.707595957e-21
4.159247544e-20
-5.955354436e-21
4.118206078e-20
-9.656717059e-21
4.148938328e-20
-1.420290283e-20
4.228890951e-20
-1.985050059e-20
4.310836149e-20
-2.660035488e-20
4.321103481e-20
-3.407259209e-20
4.167475977e-20
-4.1500501e-20
3.76686696e-20
-4.796993053e-20
3.085972439e-20
-5.265207564e-20
2.146905466e-20
-5.439701235e-20
9.52572821e-21
-5.198678972e-20
-4.133893788e-21
-4.647746486e-20
-1.546784586e-20
-4.015723108e-20
-2.200793154e-20
-3.292766631e-20
-2.614661863e-20
-2.600857861e-20
-2.565820878e-20
-2.573707928e-20
-1.417380431e-20
-7.224128621e-20
4.042998359e-20
-1.022178517e-19
-2.434185695e-21
6.854200778e-20
-2.615997225e-19
2.17103771e-20
2.17103771e-20
-5.217745956e-20
-2.205782003e-19
-2.981039706e-19
-2.833288713e-19
-5.671976248e-19
-1.962375543e-19
-8.135269616e-19
1.642216604e-19
-8.597109917e-19
7.347962167e-19
-6.900107198e-19
1.262309964e-18
-3.943920714e-19
1.547035517e-18
-1.016381164e-19
1.462273756e-18
4.686716516e-20
9.46728707e-19
-8.378465875e-32
-1.330083706e-22
-1.163184588e-20
-1.457200288e-21
-1.811733304e-20
-2.783977934e-21
-2.420502149e-20
-4.24253669e-21
-3.019580615e-20
-5.882728536e-21
-3.620280906e-20
-7.740169293e-21
-4.226877309e-20
-9.84102072e-21
-4.84069705e-20
-1.220631943e-20
-5.461693842e-20
-1.485484964e-20
-6.089189678e-20
-1.78037883e-20
-6.722160708e-20
-2.10699274e-20
-7.359436203e-20
-2.466951824e-20
-7.999736062e-20
-2.861913591e-20
-8.64174858e-20
-3.293534971e-20
-9.28410548e-20
-3.763549402e-20
-9.92542589e-20
-4.273727622e-20
-1.056426969e-19
-4.82595205e-20
-1.119916859e-19
-5.422176968e-20
-1.182857005e-19
-6.064505005e-20
-1.245086024e-19
-6.755149587e-20
-1.306430309e-19
-7.496512961e-20
-1.366705948e-19
-8.29114669e-20
-1.425711997e-19
-9.141828534e-20
-1.483232067e-19
-1.005152404e-19
-1.5390274e-19
-1.102346644e-19
-1.592838131e-19
-1.20611202e-19
-1.644376401e-19
-1.316825344e-19
-1.693327588e-19
-1.434888432e-19
-1.739343202e-19
-1.56073288e-19
-1.782042326e-19
-1.694812771e-19
-1.821005319e-19
-1.837608988e-19
-1.855776809e-19
-1.989622751e-19
-1.885862484e-19
-2.151380381e-19
-1.910736059e-19
-2.323424462e-19
-1.92984018e-19
-2.506312001e-19
-1.942597819e-19
-2.700596336e-19
-1.948418136e-19
-2.90681686e-19
-1.946714354e-19
-3.125477528e-19
-1.936920559e-19
-3.35703819e-19
-1.918525929e-19
-3.601895825e-19
-1.891113017e-19
-3.860373039e-19
-1.85441699e-19
-4.132688186e-19
-1.808390283e-19
-4.418928175e-19
-1.753289226e-19
-4.71900838e-19
-1.689771501e-19
-5.032647384e-19
-1.619024654e-19
-5.35934002e-19
-1.542916352e-19
-5.698345966e-19
-1.464183716e-19
-6.048667802e-19
-1.386646621e-19
-6.409032622e-19
-1.315457472e-19
-6.777855105e-19
-1.257373153e-19
-7.15319721e-19
-1.221063589e-19
-7.532698248e-19
-1.217442606e-19
-7.913487078e-19
-1.260030639e-19
-8.292058117e-19
-1.365324052e-19
-8.664138903e-19
-1.55316373e-19
-9.02454901e-19
-1.847051739e-19
-9.367094585e-19
-2.274354291e-19
-9.684552467e-19
-2.866236834e-19
-9.968947244e-19
-3.657082629e-19
-1.021258544e-18
-4.682931691e-19
-1.04109808e-18
-5.978152184e-19
-1.056973104e-18
-7.568760552e-19
-1.071730399e-18
-9.458888085e-19
-1.091709878e-18
-1.160244968e-18
-1.123970064e-18
-1.38473644e-18
-1.160876093e-18
-1.585055807e-18
-1.145994833e-18
-1.703682793e-18
-9.641841702e-19
-1.682044073e-18
-6.344664782e-19
-1.535176887e-18
1.090263839e-20
-1.269634607e-18
7.139858386e-19
-9.162864475e-19
3.562312864e-19
1.05952041e-19
1.085270424e-19
2.564701972e-19
-3.50758179e-20
1.94951707e-19
8.900962156e-21
-4.756572329e-20
2.712356733e-20
-3.351128276e-20
3.914245816e-20
-2.804690117e-20
4.787314475e-20
-2.092165562e-20
5.80550647e-20
-1.621722759e-20
6.255257315e-20
3.200875791e-22
5.877870676e-20
2.164326997e-20
5.125023721e-20
3.659217434e-20
4.198994357e-20
4.68448058e-20
3.165594051e-20
5.378649429e-20
2.169716792e-20
5.645689295e-20
1.33449606e-20
5.543974603e-20
7.03751681e-21
5.237770522e-20
2.567015793e-21
4.884272366e-20
-6.023838076e-22
4.589476609e-20
-3.118010635e-21
4.410718906e-20
-5.648031727e-21
4.37121931e-20
-8.857191133e-21
4.469957371e-20
-1.338345093e-20
4.681779026e-20
-1.974782714e-20
4.947619437e-20
-2.813663034e-20
5.160038859e-20
-3.807868245e-20
5.161565466e-20
-4.830944627e-20
4.789611424e-20
-5.736060074e-20
3.990937524e-20
-6.459540237e-20
2.869930152e-20
-6.80566347e-20
1.29818354e-20
-6.332074208e-20
-8.874340716e-21
-5.30175508e-20
-2.57706157e-20
-4.429591856e-20
-3.073302593e-20
-3.24392565e-20
-3.800422683e-20
-1.452417433e-20
-4.357800944e-20
2.886670871e-20
-5.756668053e-20
-1.151054562e-19
1.844014326e-19
-3.613833884e-19
2.438434385e-19
-7.214604953e-19
9.847738437e-20
-3.437539575e-19
-7.394194057e-19
-1.859251937e-19
-9.034058289e-19
-2.168579448e-19
-7.737105237e-19
-3.092030219e-19
-4.953279779e-19
-4.227829692e-19
-8.900316218e-20
-4.33499479e-19
4.038136003e-19
-3.150875806e-19
8.427259934e-19
-1.204614769e-19
1.089213914e-18
5.567545393e-20
1.050462984e-18
9.265779235e-20
6.834285589e-19
-6.954281999e-32
-6.441137241e-21
-1.766118761e-20
-8.01443647e-21
-2.101072717e-20
-9.471716297e-21
-2.551972318e-20
-1.10045071e-20
-3.052309061e-20
-1.268525134e-20
-3.580851116e-20
-1.456250682e-20
-4.129031605e-20
-1.666887314e-20
-4.692305733e-20
-1.902909928e-20
-5.267590127e-20
-2.166367529e-20
-5.852425744e-20
-2.459091748e-20
-6.444687329e-20
-2.782781809e-20
-7.042441344e-20
-3.139081945e-20
-7.643890936e-20
-3.529603535e-20
-8.247321539e-20
-3.95597143e-20
-8.85108315e-20
-4.419828742e-20
-9.453552629e-20
-4.922872917e-20
-1.00531232e-19
-5.466855042e-20
-1.064817025e-19
-6.053614698e-20
-1.123704209e-19
-6.685080746e-20
-1.181802492e-19
-7.363307901e-20
-1.238933339e-19
-8.090477486e-20
-1.294907476e-19
-8.868932018e-20
-1.349523611e-19
-9.701175009e-20
-1.402564723e-19
-1.058990675e-19
-1.453796762e-19
-1.153802752e-19
-1.502964758e-19
-1.25486741e-19
-1.54979154e-19
-1.362521599e-19
-1.593973925e-19
-1.477127632e-19
-1.635181339e-19
-1.599070917e-19
-1.673052418e-19
-1.728761094e-19
-1.707194925e-19
-1.866630501e-19
-1.737184291e-19
-2.013137033e-19
-1.762566611e-19
-2.168763611e-19
-1.782860912e-19
-2.334018968e-19
-1.797565593e-19
-2.509431424e-19
-1.806164515e-19
-2.695542712e-19
-1.808138209e-19
-2.892897837e-19
-1.80297709e-19
-3.102041359e-19
-1.790204495e-19
-3.323515e-19
-1.76940669e-19
-3.557861141e-19
-1.740276169e-19
-3.805620978e-19
-1.702663807e-19
-4.06733092e-19
-1.656644832e-19
-4.343513236e-19
-1.602595985e-19
-4.634675e-19
-1.541293877e-19
-4.941316588e-19
-1.474035441e-19
-5.263958311e-19
-1.402790034e-19
-5.603174577e-19
-1.330380052e-19
-5.959636057e-19
-1.260694124e-19
-6.334151266e-19
-1.198928357e-19
-6.727715158e-19
-1.151863744e-19
-7.141557294e-19
-1.128179138e-19
-7.577190991e-19
-1.138807833e-19
-8.036451914e-19
-1.197329655e-19
-8.521537124e-19
-1.320391081e-19
-9.035052658e-19
-1.528119564e-19
-9.580096001e-19
-1.844482343e-19
-1.01603924e-18
-2.297481415e-19
-1.078054588e-18
-2.91900517e-19
-1.144653041e-18
-3.744009897e-19
-1.216667122e-18
-4.808490889e-19
-1.295340131e-18
-6.145324845e-19
-1.382565875e-18
-7.77646833e-19
-1.480966194e-18
-9.699065551e-19
-1.592925838e-18
-1.186217383e-18
-1.716487126e-18
-1.413300821e-18
-1.835924169e-18
-1.626473871e-18
-1.91033867e-18
-1.79106424e-18
-1.883108237e-18
-1.875240705e-18
-1.709671654e-18
-1.870111816e-18
-1.345725593e-18
-1.755833104e-18
-8.175983914e-19
-1.2689668e-18
5.394366017e-31
-1.807539299e-19
-7.729293266e-19
1.287791916e-18
-2.775932501e-19
-3.003832748e-19
2.295540268e-20
-3.481139535e-19
3.258794877e-20
-4.314426424e-20
4.62677039e-20
-4.172227739e-20
5.257757278e-20
-2.722848762e-20
7.459237992e-20
-3.82268383e-20
8.38757556e-20
-8.958919737e-21
7.372761113e-20
3.179792469e-20
6.150286898e-20
4.881945864e-20
4.89316318e-20
5.94186347e-20
3.432633918e-20
6.839535886e-20
2.068002133e-20
7.01063504e-20
1.028291944e-20
6.583783935e-20
3.50253525e-21
5.915645422e-20
-3.809415127e-22
5.272321393e-20
-2.389961112e-21
4.790155297e-20
-3.513006601e-21
4.522954642e-20
-4.66065084e-21
4.486017557e-20
-6.738974845e-21
4.677984698e-20
-1.072504682e-20
5.080790933e-20
-1.76236326e-20
5.63775599e-20
-2.812136458e-20
6.209854311e-20
-4.179822288e-20
6.529021331e-20
-5.629618505e-20
6.239358e-20
-6.857067473e-20
5.217949355e-20
-8.031286849e-20
4.043716977e-20
-8.991281094e-20
2.257686372e-20
-8.021701706e-20
-1.856884036e-20
-5.797996103e-20
-4.801549872e-20
-5.156711972e-20
-3.715211019e-20
-3.80130389e-20
-5.156130741e-20
-2.851284541e-20
-5.30793585e-20
2.708348236e-19
-3.569151368e-19
7.642744288e-19
-3.090381726e-19
-7.414883638e-31
1.322247108e-18
3.919854871e-19
6.38618391e-20
5.808975129e-19
-9.599863211e-19
5.24555239e-19
-1.237193609e-18
4.128999945e-19
-1.073309365e-18
2.66378652e-19
-7.466112041e-19
1.405982273e-19
-3.323885395e-19
8.909235614e-20
1.083183683e-19
1.199992476e-19
4.833235769e-19
1.944275062e-19
7.026342379e-19
2.38724664e-19
7.053828882e-19
1.486368396e-19
4.639060037e-19
-5.638195318e-32
-1.421284884e-20
-2.108047934e-20
-1.512400123e-20
-2.321066453e-20
-1.631688038e-20
-2.662771877e-20
-1.772703182e-20
-3.077995339e-20
-1.934411819e-20
-3.538834661e-20
-2.118039914e-20
-4.030491605e-20
-2.325347635e-20
-4.544352593e-20
-2.558139e-20
-5.074796828e-20
-2.818149611e-20
-5.617767445e-20
-3.107029475e-20
-6.170080538e-20
-3.426369101e-20
-6.729085914e-20
-3.777715851e-20
-7.292469662e-20
-4.162603364e-20
-7.858146659e-20
-4.582563595e-20
-8.424180236e-20
-5.039151691e-20
-8.988737173e-20
-5.533952928e-20
-9.550039784e-20
-6.068604968e-20
-1.010634105e-19
-6.644805987e-20
-1.065588887e-19
-7.264339036e-20
-1.119690665e-19
-7.929082023e-20
-1.172756206e-19
-8.641031725e-20
-1.22459499e-19
-9.402311816e-20
-1.275006049e-19
-1.021519651e-19
-1.323776335e-19
-1.10821199e-19
-1.370677617e-19
-1.200570238e-19
-1.415464814e-19
-1.298876107e-19
-1.457872997e-19
-1.403432983e-19
-1.497615766e-19
-1.514565667e-19
-1.534382301e-19
-1.632621339e-19
-1.567836475e-19
-1.757969198e-19
-1.597615327e-19
-1.891003014e-19
-1.623330304e-19
-2.032143176e-19
-1.644568642e-19
-2.181840424e-19
-1.660897608e-19
-2.340576222e-19
-1.67186854e-19
-2.508862125e-19
-1.677024169e-19
-2.687236208e-19
-1.675907155e-19
-2.876263265e-19
-1.668074793e-19
-3.076539115e-19
-1.65311951e-19
-3.288703142e-19
-1.630699436e-19
-3.513452913e-19
-1.600576448e-19
-3.751559939e-19
-1.562664608e-19
-4.003882455e-19
-1.517086437e-19
-4.271383775e-19
-1.464243346e-19
-4.555162137e-19
-1.404902985e-19
-4.856502661e-19
-1.340312014e-19
-5.176948401e-19
-1.27233438e-19
-5.518389268e-19
-1.203618621e-19
-5.883162107e-19
-1.137790406e-19
-6.274168053e-19
-1.079675497e-19
-6.695009731e-19
-1.035555635e-19
-7.150154287e-19
-1.013467e-19
-7.645114551e-19
-1.023541925e-19
-8.186648353e-19
-1.078394732e-19
-8.782975866e-19
-1.193533819e-19
-9.444030027e-19
-1.387770393e-19
-1.018174302e-18
-1.683554852e-19
-1.101036648e-18
-2.107126598e-19
-1.194680612e-18
-2.688272846e-19
-1.301095656e-18
-3.459373674e-19
-1.422596411e-18
-4.453213756e-19
-1.561811624e-18
-5.698792571e-19
-1.721533603e-18
-7.21406094e-19
-1.90416506e-18
-8.994365786e-19
-2.110218294e-18
-1.099592658e-18
-2.335139685e-18
-1.311648994e-18
-2.564606446e-18
-1.518229385e-18
-2.771503102e-18
-1.695875989e-18
-2.922189286e-18
-1.819050194e-18
-2.985687916e-18
-1.860024411e-18
-2.925870505e-18
-1.759131631e-18
-2.559247402e-18
-1.387359846e-18
-1.945224938e-18
-4.614022885e-19
9.923810536e-20
-1.454585378e-20
7.479886719e-19
-7.796048809e-19
3.279250891e-19
7.194919656e-20
3.400993516e-20
2.507735567e-19
6.076149355e-20
-6.846946351e-20
4.157922189e-20
-8.03859079e-21
1.038602978e-19
-1.005015081e-19
1.246325993e-19
-2.972553535e-20
9.074914449e-20
6.567755299e-20
7.210204495e-20
6.747404721e-20
5.790835526e-20
7.361484354e-20
3.60373305e-20
9.026785309e-20
1.641151058e-20
8.973345641e-20
3.601533897e-21
7.864735228e-20
-2.930705008e-21
6.568589336e-20
-5.202602155e-21
5.499152909e-20
-5.061967913e-21
4.775859163e-20
-3.882377428e-21
4.404944739e-20
-2.740979135e-21
4.371971028e-20
-2.710912753e-21
4.67523315e-20
-5.155396238e-21
5.325595718e-20
-1.190264895e-20
6.312757345e-20
-2.492969461e-20
7.51249545e-20
-4.46948559e-20
8.505586929e-20
-6.651027079e-20
8.42091616e-20
-8.031299834e-20
6.598910515e-20
-9.81731739e-20
5.828565033e-20
-1.310585143e-19
5.546096448e-20
-1.096636746e-19
-3.996926e-20
-4.711657225e-20
-1.105717844e-19
-6.597631685e-20
-1.830192745e-20
-3.953108945e-20
-7.800904654e-20
-3.323486208e-19
2.397378839e-19
-7.546008129e-19
6.533705547e-20
-3.328951424e-19
-7.261364366e-19
1.308041033e-18
1.953796978e-19
1.721769534e-18
-1.116686151e-19
1.764219568e-18
-9.310202727e-19
1.535027214e-18
-1.20916939e-18
1.259688139e-18
-1.116492366e-18
1.001965721e-18
-8.367394051e-19
7.910486724e-19
-4.744233751e-19
6.512837301e-19
-9.960625021e-20
5.704630792e-19
2.156168933e-19
5.177952106e-19
4.084602485e-19
4.277115347e-19
4.402876456e-19
2.061723215e-19
2.953038969e-19
-4.440757127e-32
-2.145132609e-20
-2.320517864e-20
-2.208145045e-20
-2.471994703e-20
-2.305255319e-20
-2.739814114e-20
-2.430872394e-20
-3.087026089e-20
-2.581986256e-20
-3.488448592e-20
-2.757881226e-20
-3.927937939e-20
-2.958991689e-20
-4.394967978e-20
-3.186305501e-20
-4.882326752e-20
-3.441054631e-20
-5.384771623e-20
-3.724575818e-20
-5.898267426e-20
-4.038243352e-20
-6.419543768e-20
-4.383449813e-20
-6.945836051e-20
-4.7615973e-20
-7.474719734e-20
-5.174104913e-20
-8.004006166e-20
-5.622411468e-20
-8.531666291e-20
-6.107988867e-20
-9.055778449e-20
-6.632347877e-20
-9.574484046e-20
-7.197055699e-20
-1.008595586e-19
-7.803746246e-20
-1.058836581e-19
-8.454140021e-20
-1.10798615e-19
-9.150054866e-20
-1.155853921e-19
-9.893424084e-20
-1.202242206e-19
-1.068630669e-19
-1.246943558e-19
-1.153090796e-19
-1.289738861e-19
-1.242959186e-19
-1.330394848e-19
-1.338490207e-19
-1.368662346e-19
-1.439957041e-19
-1.404273953e-19
-1.54765294e-19
-1.436942376e-19
-1.661891674e-19
-1.466359009e-19
-1.783009588e-19
-1.492193871e-19
-1.911368176e-19
-1.514096086e-19
-2.047358722e-19
-1.531696267e-19
-2.191406155e-19
-1.54460923e-19
-2.343972504e-19
-1.552438032e-19
-2.505558099e-19
-1.554779013e-19
-2.676704484e-19
-1.551229982e-19
-2.858001012e-19
-1.541402408e-19
-3.050099978e-19
-1.524940757e-19
-3.253738412e-19
-1.501548276e-19
-3.469765108e-19
-1.471019829e-19
-3.699168064e-19
-1.433280347e-19
-3.943106037e-19
-1.388431126e-19
-4.202949936e-19
-1.336806741e-19
-4.480345999e-19
-1.27904966e-19
-4.777304495e-19
-1.216205329e-19
-5.096314735e-19
-1.149840366e-19
-5.440480584e-19
-1.082181559e-19
-5.813679276e-19
-1.016276837e-19
-6.220749759e-19
-9.561800069e-20
-6.667723322e-19
-9.071675991e-20
-7.162098973e-19
-8.759933145e-20
-7.713162458e-19
-8.711858036e-20
-8.332341231e-19
-9.033860001e-20
-9.033596954e-19
-9.857118979e-20
-9.833851648e-19
-1.134115576e-19
-1.075343266e-18
-1.3676701e-19
-1.181648024e-18
-1.708670522e-19
-1.305122314e-18
-2.182370595e-19
-1.448995829e-18
-2.81607201e-19
-1.616845413e-18
-3.6371618e-19
-1.812421219e-18
-4.66954232e-19
-2.039249917e-18
-5.92781976e-19
-2.299826758e-18
-7.408750266e-19
-2.594143189e-18
-9.080139528e-19
-2.917404619e-18
-1.086909363e-18
-3.257410467e-18
-1.265403386e-18
-3.593095499e-18
-1.426485097e-18
-3.895654074e-18
-1.548478916e-18
-4.126584641e-18
-1.602095251e-18
-4.219808189e-18
-1.539957169e-18
-4.02425735e-18
-1.299491155e-18
-3.329122232e-18
-8.562456959e-19
-2.082073564e-18
-5.716009943e-19
-1.007172224e-18
-8.265877111e-19
1.409086056e-30
-1.544994261e-19
-3.185835983e-20
3.396764269e-19
1.21192367e-19
-2.215163551e-19
-5.088369487e-20
1.640407168e-19
1.74636271e-19
-3.260202687e-19
2.200356886e-19
-7.513329582e-20
9.254563926e-20
1.931798553e-19
7.824284215e-20
8.177758664e-20
7.456136472e-20
7.730163924e-20
3.550293403e-20
1.293286016e-19
5.325407015e-21
1.199117897e-19
-9.359925472e-21
9.333113882e-20
-1.362506926e-20
6.994721721e-20
-1.243553936e-20
5.379793412e-20
-8.77111247e-21
4.409192316e-20
-4.212114561e-21
3.949006006e-20
2.91642349e-22
3.921692366e-20
3.792712627e-21
4.325400784e-20
4.716219971e-21
5.233636308e-20
9.473247349e-23
6.775208544e-20
-1.499878041e-20
9.022055228e-20
-4.554156386e-20
1.156030993e-19
-8.473032724e-20
1.234143761e-19
-8.801645404e-20
6.925169016e-20
-1.009978603e-19
7.126327458e-20
-2.264887398e-19
1.809550466e-19
-1.802661995e-19
-8.619384685e-20
4.515328416e-20
-3.359982639e-19
-1.256834368e-19
1.52532403e-19
2.484111577e-20
-2.285335991e-19
-1.564343682e-30
3.441177287e-19
7.254215805e-19
-8.533650789e-20
1.300483225e-18
-6.643523849e-19
2.234299581e-18
-3.030943464e-19
2.739512651e-18
-4.673566878e-19
2.732701021e-18
-8.582314644e-19
2.446624694e-18
-1.035488503e-18
2.082714899e-18
-9.784416977e-19
1.72949632e-18
-7.719136186e-19
1.426315058e-18
-4.912034647e-19
1.186504434e-18
-1.966722691e-19
9.931035042e-19
5.085837251e-20
8.180288663e-19
2.11083834e-19
6.028552718e-19
2.568807794e-19
2.61479864e-19
1.783267151e-19
-3.289767321e-32
-2.821076864e-20
-2.444294368e-20
-2.870944846e-20
-2.561428499e-20
-2.95335465e-20
-2.779595918e-20
-3.065829071e-20
-3.074445672e-20
-3.206043964e-20
-3.425820544e-20
-3.372937754e-20
-3.818789356e-20
-3.566351655e-20
-4.242572815e-20
-3.786729866e-20
-4.689293242e-20
-4.034884237e-20
-5.153028474e-20
-4.311836695e-20
-5.629162508e-20
-4.618728586e-20
-6.11396298e-20
-4.956769623e-20
-6.604303626e-20
-5.327213609e-20
-7.097481774e-20
-5.731347162e-20
-7.59109347e-20
-6.170487479e-20
-8.082946489e-20
-6.645984099e-20
-8.570995247e-20
-7.159225486e-20
-9.053293113e-20
-7.711648736e-20
-9.527953533e-20
-8.304752197e-20
-9.993118443e-20
-8.94010858e-20
-1.044693041e-19
-9.619378686e-20
-1.088750878e-19
-1.03443235e-19
-1.131292549e-19
-1.111681821e-19
-1.172118542e-19
-1.193886604e-19
-1.211020573e-19
-1.281261486e-19
-1.247779691e-19
-1.374037174e-19
-1.282164394e-19
-1.472461727e-19
-1.313928915e-19
-1.576801744e-19
-1.34281159e-19
-1.68734406e-19
-1.368534066e-19
-1.804398231e-19
-1.390801125e-19
-1.928300682e-19
-1.409301575e-19
-2.05941967e-19
-1.423709797e-19
-2.198160593e-19
-1.433687955e-19
-2.344970442e-19
-1.438888329e-19
-2.500342462e-19
-1.438957043e-19
-2.664823441e-19
-1.433539958e-19
-2.839027638e-19
-1.422292799e-19
-3.023659118e-19
-1.404896399e-19
-3.219541931e-19
-1.381077052e-19
-3.427654679e-19
-1.350630337e-19
-3.64916885e-19
-1.313448654e-19
-3.885494878e-19
-1.269553498e-19
-4.138345938e-19
-1.219137378e-19
-4.409828159e-19