/*--------------------------------*- C++ -*----------------------------------*\
  =========                 |
  \\      /  F ield         | OpenFOAM: The Open Source CFD Toolbox
   \\    /   O peration     | Website:  https://openfoam.org
    \\  /    A nd           | Version:  6
     \\/     M anipulation  |
\*---------------------------------------------------------------------------*/
FoamFile
{
    version     2.0;
    format      ascii;
    class       volVectorField;
    location    "0.0045";
    object      gradT;
}
// * * * * * * * * * * * * * * * * * * * * * * * * * * * * * * * * * * * * * //

dimensions      [0 -1 0 1 0 0 0];

internalField   nonuniform List<vector> 
600
(
(0 -5.908054775e-08 -2.517021916e-05)
(0 -1.734299953e-07 -2.540177683e-05)
(0 -2.906381784e-07 -2.586489206e-05)
(0 -4.10705098e-07 -2.656242368e-05)
(0 -5.307720185e-07 -2.750199502e-05)
(0 -6.575093217e-07 -2.868837049e-05)
(0 -7.851995378e-07 -3.012917353e-05)
(0 -9.147955794e-07 -3.182916869e-05)
(0 -1.04534453e-06 -3.379026166e-05)
(0 -1.172081834e-06 -3.601531132e-05)
(0 -1.28929002e-06 -3.8490024e-05)
(0 -1.396016169e-06 -4.11962942e-05)
(0 -1.472249133e-06 -4.409409977e-05)
(0 -1.514177266e-06 -4.712531309e-05)
(-1.239779192e-25 -1.506553968e-06 -5.020512484e-05)
(1.239779192e-25 -1.432226827e-06 -5.321632695e-05)
(0 -1.279760898e-06 -5.601407679e-05)
(0 -1.042485794e-06 -5.842494425e-05)
(0 -7.194486056e-07 -6.0269782e-05)
(0 -3.249430131e-07 -6.137801882e-05)
(0 1.191140076e-07 -6.162291712e-05)
(0 5.984287739e-07 -6.093491462e-05)
(0 1.10918964e-06 -5.926160113e-05)
(0 1.66473737e-06 -5.653531963e-05)
(0 2.268883616e-06 -5.265029716e-05)
(0 2.914957997e-06 -4.749027843e-05)
(0 3.56103237e-06 -4.098474772e-05)
(0 4.149932023e-06 -3.318039794e-05)
(0 4.617811852e-06 -2.425637653e-05)
(0 2.408961689e-06 -1.452333271e-05)
(0 -1.724770855e-07 -2.503204729e-05)
(0 -5.193370815e-07 -2.525979331e-05)
(0 -8.700087242e-07 -2.57190969e-05)
(0 -1.227350752e-06 -2.641281689e-05)
(0 -1.595174815e-06 -2.734857659e-05)
(0 -1.969669258e-06 -2.853114043e-05)
(0 -2.355598649e-06 -2.996908475e-05)
(0 -2.746292603e-06 -3.166907994e-05)
(0 -3.140798198e-06 -3.363779624e-05)
(0 -3.527680501e-06 -3.587428088e-05)
(0 -3.888834183e-06 -3.837567513e-05)
(0 -4.209965546e-06 -4.11238735e-05)
(0 -4.457722686e-06 -4.408647714e-05)
(0 -4.596847853e-06 -4.721107588e-05)
(0 -4.586365818e-06 -5.041381334e-05)
(0 -4.376725161e-06 -5.357748142e-05)
(0 -3.927903576e-06 -5.654961422e-05)
(0 -3.212266604e-06 -5.914725248e-05)
(0 -2.233625903e-06 -6.116456734e-05)
(0 -1.029145042e-06 -6.240716478e-05)
(0 3.239901054e-07 -6.272639023e-05)
(0 1.76384025e-06 -6.208317458e-05)
(0 3.290405399e-06 -6.047275326e-05)
(0 4.94656658e-06 -5.784366876e-05)
(0 6.775204851e-06 -5.40663253e-05)
(0 8.750591595e-06 -4.896062247e-05)
(0 1.074980111e-05 -4.239124656e-05)
(0 1.25793923e-05 -3.438773804e-05)
(0 1.403734779e-05 -2.513496183e-05)
(0 7.32598803e-06 -1.497501325e-05)
(0 -2.868265302e-07 -2.475570242e-05)
(0 -8.604795919e-07 -2.498154261e-05)
(0 -1.444614684e-06 -2.543512872e-05)
(0 -2.039231809e-06 -2.612027249e-05)
(0 -2.650048444e-06 -2.704555014e-05)
(0 -3.278017488e-06 -2.821763193e-05)
(0 -3.922186041e-06 -2.964700002e-05)
(0 -4.582554105e-06 -3.134604227e-05)
(0 -5.251498365e-06 -3.332142893e-05)
(0 -5.910913511e-06 -3.558173634e-05)
(0 -6.53983548e-06 -3.813172907e-05)
(0 -7.105865235e-06 -4.095997201e-05)
(0 -7.559451375e-06 -4.404835999e-05)
(0 -7.841513353e-06 -4.735305907e-05)
(-1.239779192e-25 -7.872006535e-06 -5.080164779e-05)
(1.239779192e-25 -7.568027587e-06 -5.427787099e-05)
(0 -6.849531897e-06 -5.761878071e-05)
(0 -5.655533079e-06 -6.060901869e-05)
(0 -3.980313676e-06 -6.299892214e-05)
(0 -1.886765882e-06 -6.452739318e-05)
(0 4.42151196e-07 -6.495620351e-05)
(0 2.851112885e-06 -6.436730386e-05)
(0 5.349648315e-06 -6.286742037e-05)
(0 8.072118064e-06 -6.045750567e-05)
(0 1.115192984e-05 -5.695555385e-05)
(0 1.458908367e-05 -5.202804566e-05)
(0 1.813391651e-05 -4.534908496e-05)
(0 2.140526361e-05 -3.694440058e-05)
(0 2.40324422e-05 -2.699409289e-05)
(0 1.25708159e-05 -1.590981976e-05)
(0 -3.983172413e-07 -2.434404441e-05)
(0 -1.197810462e-06 -2.456321422e-05)
(0 -2.009691535e-06 -2.500631829e-05)
(0 -2.838725028e-06 -2.568002712e-05)
(0 -3.690628416e-06 -2.658719944e-05)
(0 -4.57397789e-06 -2.774308173e-05)
(0 -5.483055996e-06 -2.915720322e-05)
(0 -6.420721473e-06 -3.084481053e-05)
(0 -7.377445172e-06 -3.282591466e-05)
(0 -8.337027617e-06 -3.51129036e-05)
(0 -9.266116889e-06 -3.771911814e-05)
(0 -1.012754938e-05 -4.065599306e-05)
(0 -1.085080963e-05 -4.391876395e-05)
(0 -1.135108848e-05 -4.748646676e-05)
(1.239779192e-25 -1.151022478e-05 -5.130097371e-05)
(-1.239779192e-25 -1.119290507e-05 -5.526127623e-05)
(0 -1.025905125e-05 -5.919108561e-05)
(0 -8.594313873e-06 -6.283502126e-05)
(0 -6.152000262e-06 -6.586528162e-05)
(0 -2.984520578e-06 -6.791308974e-05)
(0 4.840793267e-07 -6.83762049e-05)
(0 3.853576372e-06 -6.772631887e-05)
(0 7.199250627e-06 -6.63379261e-05)
(0 1.085748002e-05 -6.432442281e-05)
(0 1.520561775e-05 -6.141899394e-05)
(0 2.035706038e-05 -5.698604712e-05)
(0 2.583344596e-05 -5.015462048e-05)
(0 3.093438422e-05 -4.114293112e-05)
(0 3.507097552e-05 -3.005961099e-05)
(0 1.841216683e-05 -1.741065626e-05)
(0 -5.059963117e-07 -2.379802615e-05)
(0 -1.524659322e-06 -2.401147849e-05)
(0 -2.560474745e-06 -2.443933598e-05)
(0 -3.620112972e-06 -2.509208075e-05)
(0 -4.712150217e-06 -2.597447737e-05)
(0 -5.84706849e-06 -2.710177232e-05)
(0 -7.025820727e-06 -2.848825939e-05)
(0 -8.252218579e-06 -3.015585556e-05)
(0 -9.517685802e-06 -3.212647769e-05)
(0 -1.08041171e-05 -3.442871326e-05)
(0 -1.208387804e-05 -3.709114965e-05)
(0 -1.33055113e-05 -4.014332697e-05)
(0 -1.438897233e-05 -4.361097401e-05)
(0 -1.522277041e-05 -4.750076115e-05)
(0 -1.56487221e-05 -5.179553584e-05)
(0 -1.545718677e-05 -5.642001815e-05)
(0 -1.442232427e-05 -6.120458971e-05)
(0 -1.233068225e-05 -6.583764815e-05)
(0 -9.058382182e-06 -6.9881807e-05)
(0 -4.397689231e-06 -7.306072179e-05)
(0 6.289219693e-07 -7.308645031e-05)
(0 4.889391855e-06 -7.200298928e-05)
(0 8.751544507e-06 -7.061078484e-05)
(0 1.298914449e-05 -6.924812047e-05)
(0 1.849125881e-05 -6.757290104e-05)
(0 2.585536336e-05 -6.448737184e-05)
(0 3.397608002e-05 -5.726620404e-05)
(0 4.150027377e-05 -4.751600769e-05)
(0 4.776471782e-05 -3.477080875e-05)
(0 2.522167679e-05 -1.962045962e-05)
(0 -6.117695428e-07 -2.312526988e-05)
(0 -1.839120279e-06 -2.33291931e-05)
(0 -3.0893409e-06 -2.373989816e-05)
(0 -4.372913445e-06 -2.436214974e-05)
(0 -5.701272866e-06 -2.520738277e-05)
(0 -7.087759905e-06 -2.629274957e-05)
(0 -8.537139149e-06 -2.763349684e-05)
(0 -1.005798681e-05 -2.925916486e-05)
(0 -1.165220867e-05 -3.119643503e-05)
(0 -1.329979363e-05 -3.348818854e-05)
(0 -1.498263635e-05 -3.618207099e-05)
(0 -1.664642078e-05 -3.933335112e-05)
(0 -1.820824365e-05 -4.299920381e-05)
(0 -1.953565017e-05 -4.724061544e-05)
(0 -2.042948167e-05 -5.209665528e-05)
(0 -2.060386458e-05 -5.756637051e-05)
(0 -1.967572824e-05 -6.352969422e-05)
(0 -1.72715311e-05 -6.959879107e-05)
(0 -1.337507368e-05 -7.494367482e-05)
(0 -6.190116754e-06 -8.155212008e-05)
(0 1.541811714e-06 -7.909360684e-05)
(0 6.330194817e-06 -7.678184218e-05)
(0 9.954119398e-06 -7.503896613e-05)
(0 1.389726949e-05 -7.466447158e-05)
(0 1.996541349e-05 -7.531054596e-05)
(0 3.066185141e-05 -7.62920455e-05)
(0 4.280576267e-05 -6.705261004e-05)
(0 5.343073214e-05 -5.700034072e-05)
(0 6.296557031e-05 -4.196815303e-05)
(0 3.356251568e-05 -2.28184322e-05)
(0 -7.09919485e-07 -2.233339996e-05)
(0 -2.138334667e-06 -2.252398241e-05)
(0 -3.59343138e-06 -2.290895884e-05)
(0 -5.088550403e-06 -2.349404685e-05)
(0 -6.642749983e-06 -2.429068137e-05)
(0 -8.274135421e-06 -2.53150618e-05)
(0 -9.991282954e-06 -2.658910522e-05)
(0 -1.181515665e-05 -2.813949319e-05)
(0 -1.37476623e-05 -3.001005952e-05)
(0 -1.579070575e-05 -3.224940286e-05)
(0 -1.792618171e-05 -3.492232124e-05)
(0 -2.012169107e-05 -3.81155295e-05)
(0 -2.229814221e-05 -4.193098939e-05)
(0 -2.432117454e-05 -4.648876783e-05)
(0 -2.597352404e-05 -5.19241782e-05)
(0 -2.689022545e-05 -5.836681664e-05)
(0 -2.645569756e-05 -6.59062569e-05)
(0 -2.374370981e-05 -7.425757813e-05)
(0 -2.101075802e-05 -7.892112976e-05)
(0 -8.548574107e-06 -9.930963635e-05)
(0 5.399199734e-06 -8.515317463e-05)
(0 8.944985511e-06 -8.118715464e-05)
(0 1.086700915e-05 -7.828934918e-05)
(0 1.271851727e-05 -7.925846063e-05)
(0 1.686368473e-05 -8.290430217e-05)
(0 3.411234599e-05 -9.850633148e-05)
(0 5.326778418e-05 -7.781384594e-05)
(0 6.658473022e-05 -7.160181222e-05)
(0 8.194757858e-05 -5.338499244e-05)
(0 4.437520883e-05 -2.752581778e-05)
(0 -8.023519669e-07 -2.143194547e-05)
(0 -2.415632113e-06 -2.160632841e-05)
(0 -4.06035835e-06 -2.195890585e-05)
(0 -5.755588931e-06 -2.249634826e-05)
(0 -7.521335017e-06 -2.323009059e-05)
(0 -9.384278112e-06 -2.41725206e-05)
(0 -1.136157067e-05 -2.535031992e-05)
(0 -1.347989423e-05 -2.679302884e-05)
(0 -1.575925989e-05 -2.854543411e-05)
(0 -1.821491431e-05 -3.066852221e-05)
(0 -2.084876331e-05 -3.32442436e-05)
(0 -2.365508934e-05 -3.638408884e-05)
(0 -2.658243524e-05 -4.023290071e-05)
(0 -2.952693358e-05 -4.498221453e-05)
(0 -3.2307531e-05 -5.087025822e-05)
(0 -3.458594377e-05 -5.821816323e-05)
(0 -3.556744323e-05 -6.762817001e-05)
(0 -3.028735738e-05 -8.278328358e-05)
(0 -3.842617941e-05 -6.736040165e-05)
(0 -1.242216182e-05 -5.585398843e-05)
(0 1.966429357e-05 -4.395402236e-05)
(0 1.319306767e-05 -4.158127129e-05)
(0 1.18837665e-05 -3.970594039e-05)
(0 9.283269432e-06 -4.056546702e-05)
(0 7.156369681e-07 -4.314118836e-05)
(0 3.57532611e-05 -5.672209133e-05)
(0 6.971123574e-05 -7.427949622e-05)
(0 7.785958689e-05 -9.836720765e-05)
(0 0.0001070406135 -7.256234877e-05)
(0 5.942454989e-05 -3.48660999e-05)
(0 -8.843023921e-07 -2.043519914e-05)
(0 -2.666247949e-06 -2.059242966e-05)
(0 -4.482498332e-06 -2.090689061e-05)
(0 -6.358782179e-06 -2.138525246e-05)
(0 -8.319875212e-06 -2.203895017e-05)
(0 -1.039341184e-05 -2.287846566e-05)
(0 -1.261369694e-05 -2.39323864e-05)
(0 -1.50102708e-05 -2.52254881e-05)
(0 -1.762315565e-05 -2.680255752e-05)
(0 -2.048856221e-05 -2.872934571e-05)
(0 -2.364174825e-05 -3.109828514e-05)
(0 -2.711130103e-05 -3.404278336e-05)
(0 -3.089531482e-05 -3.774484671e-05)
(0 -3.495757897e-05 -4.24493736e-05)
(0 -3.920947257e-05 -4.848225983e-05)
(0 -4.364813695e-05 -5.61436728e-05)
(0 -5.102081759e-05 -6.37650635e-05)
(0 -2.347689443e-05 -4.436853845e-05)
(0 5.918536807e-06 -2.862643121e-05)
(0 1.485780487e-05 8.338933453e-06)
(0 1.967191658e-05 5.061868865e-06)
(0 1.319211456e-05 6.564611184e-06)
(0 1.188376632e-05 6.167246864e-06)
(0 9.282316381e-06 6.570328657e-06)
(0 7.08966573e-07 6.046227023e-06)
(0 2.974038545e-06 1.11948109e-05)
(0 1.162171549e-05 -2.608501474e-05)
(0 6.830092484e-05 -5.811905948e-05)
(0 0.0001454505913 -0.0001037873701)
(0 8.207908032e-05 -4.753125357e-05)
(0 -9.586295328e-07 -1.93574556e-05)
(0 -2.885417723e-06 -1.949086331e-05)
(0 -4.854134036e-06 -1.976149031e-05)
(0 -6.886695461e-06 -2.017314832e-05)
(0 -9.016453929e-06 -2.073250773e-05)
(0 -1.127771424e-05 -2.145481504e-05)
(0 -1.370763999e-05 -2.235150529e-05)
(0 -1.635006516e-05 -2.344926002e-05)
(0 -1.926502313e-05 -2.479000725e-05)
(0 -2.250873578e-05 -2.642996891e-05)
(0 -2.616220066e-05 -2.846253038e-05)
(0 -3.030165061e-05 -3.103158125e-05)
(0 -3.498902503e-05 -3.434485648e-05)
(0 -4.026625207e-05 -3.869585299e-05)
(0 -4.600278265e-05 -4.458008494e-05)
(0 -4.986874688e-05 -5.423880159e-05)
(0 -2.379135544e-05 -3.128029133e-05)
(0 4.853181124e-06 4.706432666e-06)
(0 1.428224596e-05 7.518476157e-06)
(0 2.126423266e-05 1.516368964e-05)
(0 1.789092393e-05 1.040675261e-05)
(0 1.429749255e-05 1.189424834e-05)
(0 1.18894838e-05 1.152165974e-05)
(0 9.161296549e-06 1.232496459e-05)
(0 5.340119187e-06 1.248886546e-05)
(0 3.622971659e-06 1.96080715e-05)
(0 3.973643292e-07 1.544861032e-05)
(0 1.5723049e-07 1.032003761e-05)
(0 0.0001176284178 -5.951126409e-05)
(0 0.0001156930533 -0.00010334236)
(0 -1.01961592e-06 -1.821205557e-05)
(0 -3.070282709e-06 -1.832354631e-05)
(0 -5.165736357e-06 -1.854748062e-05)
(0 -7.330752591e-06 -1.888576441e-05)
(0 -9.599636255e-06 -1.934220932e-05)
(0 -1.20114567e-05 -1.992348566e-05)
(0 -1.460909502e-05 -2.064007554e-05)
(0 -1.744877303e-05 -2.150913138e-05)
(0 -2.060386488e-05 -2.255352298e-05)
(0 -2.416108565e-05 -2.381517857e-05)
(0 -2.824431394e-05 -2.537509568e-05)
(0 -3.299362767e-05 -2.735905858e-05)
(0 -3.855768128e-05 -2.999481338e-05)
(0 -4.51928081e-05 -3.349485946e-05)
(6.198896052e-26 -5.47514691e-05 -3.700443461e-05)
(-6.198896052e-26 -3.034929668e-05 -3.173864249e-05)
(0 7.921558085e-06 -3.138892377e-06)
(0 1.532282616e-05 7.584227203e-06)
(0 1.637484109e-05 1.375242706e-05)
(0 1.774703451e-05 1.149593129e-05)
(0 1.640247554e-05 9.497674649e-06)
(0 1.43079748e-05 9.349973277e-06)
(0 1.231448276e-05 9.506250872e-06)
(0 1.024856936e-05 1.038197705e-05)
(0 7.993026483e-06 1.199716302e-05)
(0 5.933783498e-06 1.563061678e-05)
(0 2.332728759e-06 1.832640502e-05)
(0 -6.658949578e-06 2.508064581e-05)
(0 3.178819395e-05 2.975372667e-05)
(0 7.645785323e-05 -5.420449755e-05)
(0 -1.069167332e-06 -1.702567978e-05)
(0 -3.221795681e-06 -1.711334772e-05)
(0 -5.415399239e-06 -1.728677769e-05)
(0 -7.680471207e-06 -1.754692268e-05)
(0 -1.005512808e-05 -1.78937827e-05)
(0 -1.257653337e-05 -1.832831057e-05)
(0 -1.529233275e-05 -1.884955347e-05)
(0 -1.826255967e-05 -1.946037013e-05)
(0 -2.157202322e-05 -2.016647793e-05)
(0 -2.533030839e-05 -2.097931192e-05)
(0 -2.970608062e-05 -2.192841237e-05)
(0 -3.49232741e-05 -2.311288203e-05)
(0 -4.112482579e-05 -2.485956983e-05)
(0 -4.727587319e-05 -2.836628624e-05)
(0 -4.42446599e-05 -3.828324204e-05)
(0 -1.600129933e-05 -7.951098236e-06)
(0 1.553056078e-05 3.701110447e-06)
(0 2.174450031e-05 6.239668172e-06)
(0 1.819585579e-05 8.060683119e-06)
(0 1.70094803e-05 7.564215947e-06)
(0 1.574401306e-05 6.733276619e-06)
(0 1.430606876e-05 6.501718988e-06)
(0 1.292148756e-05 6.772346024e-06)
(0 1.165316159e-05 7.710011481e-06)
(0 1.05878059e-05 9.510062363e-06)
(0 9.951260662e-06 1.262227317e-05)
(0 9.848346144e-06 1.718672192e-05)
(0 1.158550483e-05 2.601640507e-05)
(0 3.834136972e-05 4.473255092e-05)
(0 5.733767159e-05 2.738955135e-05)
(0 -1.106330902e-06 -1.581548147e-05)
(0 -3.331380568e-06 -1.587742077e-05)
(0 -5.600264179e-06 -1.600129932e-05)
(0 -7.937757463e-06 -1.618330552e-05)
(0 -1.038007109e-05 -1.641962774e-05)
(0 -1.296722732e-05 -1.670454842e-05)
(0 -1.574210724e-05 -1.702949143e-05)
(0 -1.876665015e-05 -1.738111601e-05)
(0 -2.212185348e-05 -1.773750509e-05)
(0 -2.59239726e-05 -1.806721267e-05)
(0 -3.037693071e-05 -1.831211109e-05)
(0 -3.592287885e-05 -1.83626154e-05)
(0 -4.38120378e-05 -1.802337871e-05)
(0 -5.861647963e-05 -1.688941338e-05)
(0 -3.433628029e-05 -1.41583674e-05)
(0 1.163505626e-05 5.048528098e-06)
(0 2.21132773e-05 9.216565458e-06)
(0 1.967953987e-05 5.594546707e-06)
(0 1.769938861e-05 4.672127832e-06)
(0 1.641962774e-05 3.955537969e-06)
(0 1.533997835e-05 3.360920837e-06)
(0 1.434799689e-05 3.138892327e-06)
(0 1.352372798e-05 3.375214523e-06)
(0 1.298533265e-05 4.185189769e-06)
(0 1.290433512e-05 5.71651945e-06)
(0 1.361139589e-05 8.188373347e-06)
(0 1.572781356e-05 1.180943916e-05)
(0 2.088592654e-05 1.711430061e-05)
(0 3.316038684e-05 2.354645705e-05)
(0 4.09123264e-05 8.52379838e-06)
(0 -1.132059545e-06 -1.45995659e-05)
(0 -3.40570776e-06 -1.46376824e-05)
(0 -5.721284097e-06 -1.471486826e-05)
(0 -8.100705547e-06 -1.482254732e-05)
(0 -1.057827696e-05 -1.495690795e-05)
(0 -1.318544438e-05 -1.510270347e-05)
(0 -1.596794764e-05 -1.524278155e-05)
(0 -1.89696207e-05 -1.535236646e-05)
(0 -2.225812024e-05 -1.539143583e-05)
(0 -2.590396184e-05 -1.529519171e-05)
(0 -3.000338963e-05 -1.493784971e-05)
(0 -3.463454227e-05 -1.406021766e-05)
(0 -3.965067143e-05 -1.202575038e-05)
(0 -4.341086252e-05 -7.0467848e-06)
(0 -2.23095775e-05 6.694207328e-06)
(0 7.373633637e-06 6.700877712e-06)
(0 1.607848545e-05 4.217588847e-06)
(0 1.720006295e-05 2.235531727e-06)
(0 1.655494147e-05 1.061544051e-06)
(0 1.569827354e-05 2.144052171e-07)
(0 1.492832056e-05 -3.973643352e-07)
(0 1.432131557e-05 -6.908612542e-07)
(0 1.396587939e-05 -6.00334608e-07)
(0 1.399541964e-05 -6.384510901e-08)
(0 1.45919426e-05 9.891227336e-07)
(0 1.604322771e-05 2.615743649e-06)
(0 1.87742737e-05 4.76741911e-06)
(0 2.33206172e-05 7.098242045e-06)
(0 2.975277375e-05 7.989214846e-06)
(0 3.425147161e-05 2.487100515e-06)
(0 -1.145400297e-06 -1.340175522e-05)
(0 -3.44763584e-06 -1.341986057e-05)
(0 -5.784176207e-06 -1.345321247e-05)
(0 -8.179797127e-06 -1.349704642e-05)
(0 -1.065832141e-05 -1.353706875e-05)
(0 -1.325310094e-05 -1.355898571e-05)
(0 -1.599272311e-05 -1.354088038e-05)
(0 -1.891530443e-05 -1.344844793e-05)
(0 -2.206563167e-05 -1.323690143e-05)
(0 -2.546943355e-05 -1.283477254e-05)
(0 -2.914100376e-05 -1.213247637e-05)
(0 -3.30107796e-05 -1.095372413e-05)
(0 -3.680051086e-05 -9.010736443e-06)
(0 -3.989556928e-05 -5.99572269e-06)
(0 -2.058861799e-05 -2.759633328e-06)
(0 9.159390729e-06 -2.76058624e-06)
(0 1.764697847e-05 -1.297866228e-06)
(0 1.652635386e-05 -1.939176043e-06)
(0 1.567826213e-05 -2.883511895e-06)
(0 1.495976646e-05 -3.777343413e-06)
(0 1.443280607e-05 -4.482498332e-06)
(0 1.414407371e-05 -4.914167496e-06)
(0 1.415074412e-05 -5.038998983e-06)
(0 1.457574288e-05 -4.840793267e-06)
(0 1.558487675e-05 -4.317644546e-06)
(0 1.738969222e-05 -3.487658146e-06)
(0 2.021031189e-05 -2.451842731e-06)
(0 2.410962804e-05 -1.486542814e-06)
(0 2.854924537e-05 -1.186375517e-06)
(0 3.175579441e-05 -2.40038548e-06)
(0 -1.14921195e-06 -1.223539091e-05)
(0 -3.458117888e-06 -1.223634384e-05)
(0 -5.797517002e-06 -1.223348509e-05)
(0 -8.183608812e-06 -1.222014432e-05)
(0 -1.064021613e-05 -1.218393368e-05)
(0 -1.319116171e-05 -1.210388905e-05)
(0 -1.585550384e-05 -1.195618768e-05)
(0 -1.866659446e-05 -1.170843056e-05)
(0 -2.164349173e-05 -1.131297203e-05)
(0 -2.48004894e-05 -1.071168452e-05)
(0 -2.81223409e-05 -9.841675819e-06)
(0 -3.151280198e-05 -8.642912427e-06)
(0 -3.469266954e-05 -7.092524498e-06)
(0 -3.715975891e-05 -5.179077077e-06)
(0 -1.907444081e-05 -2.083065774e-06)
(0 8.834447756e-06 -2.08115995e-06)
(0 1.689894257e-05 -4.719773461e-06)
(0 1.561441709e-05 -5.820386891e-06)
(0 1.471772684e-05 -6.891460052e-06)
(0 1.409928693e-05 -7.972062345e-06)
(0 1.379149631e-05 -8.855411817e-06)
(0 1.37667206e-05 -9.458605154e-06)
(0 1.404020638e-05 -9.807370985e-06)
(0 1.471582102e-05 -9.956025252e-06)
(0 1.594412467e-05 -9.944590307e-06)
(0 1.790807646e-05 -9.811182633e-06)
(0 2.077443592e-05 -9.626317678e-06)
(0 2.458799001e-05 -9.425253232e-06)
(0 2.883893077e-05 -8.876375896e-06)
(0 3.176246494e-05 -7.271671966e-06)
(0 -1.146353216e-06 -1.111571925e-05)
(0 -3.443824212e-06 -1.110142559e-05)
(0 -5.76988256e-06 -1.107093238e-05)
(0 -8.128339924e-06 -1.101375766e-05)
(0 -1.054301912e-05 -1.091656065e-05)
(0 -1.302630794e-05 -1.076123596e-05)
(0 -1.55972647e-05 -1.052014921e-05)
(0 -1.82720889e-05 -1.015708973e-05)
(0 -2.106793287e-05 -9.631082252e-06)
(0 -2.399813747e-05 -8.893528313e-06)
(0 -2.707223184e-05 -7.910123073e-06)
(0 -3.026353431e-05 -6.708500946e-06)
(0 -3.333667572e-05 -5.559288994e-06)
(0 -3.488420495e-05 -5.558336088e-06)
(0 -1.749070098e-05 -1.072121366e-05)
(0 6.522683096e-06 -1.072502531e-05)
(0 1.390870453e-05 -9.684445338e-06)
(0 1.435371445e-05 -9.742572964e-06)
(0 1.352658678e-05 -1.090131404e-05)
(0 1.299581478e-05 -1.237642193e-05)
(0 1.294721624e-05 -1.352468095e-05)
(0 1.319020882e-05 -1.427462275e-05)
(0 1.36533241e-05 -1.479300694e-05)
(0 1.443852363e-05 -1.525326344e-05)
(0 1.573067239e-05 -1.571828453e-05)
(0 1.770891786e-05 -1.621570465e-05)
(0 2.059528849e-05 -1.684843824e-05)
(0 2.485956998e-05 -1.774322267e-05)
(0 3.07018739e-05 -1.766127226e-05)
(0 3.417619125e-05 -1.13958754e-05)
(0 -1.136824093e-06 -1.005226937e-05)
(0 -3.413331021e-06 -1.002844658e-05)
(0 -5.70889618e-06 -9.975083493e-06)
(0 -8.030189969e-06 -9.888368495e-06)
(0 -1.038769443e-05 -9.750196261e-06)
(0 -1.279379738e-05 -9.545320152e-06)
(0 -1.525231051e-05 -9.242294116e-06)
(0 -1.777848042e-05 -8.808719139e-06)
(0 -2.037993033e-05 -8.197902493e-06)
(0 -2.307953021e-05 -7.358386964e-06)
(0 -2.59354077e-05 -6.224421616e-06)
(0 -2.916196792e-05 -4.742643346e-06)
(0 -3.354250468e-05 -2.894946853e-06)
(0 -4.232168357e-05 -7.842466301e-07)
(0 -2.424113003e-05 1.090131403e-06)
(0 9.872168995e-06 -8.438036337e-06)
(0 1.787948909e-05 -1.355422122e-05)
(0 1.43985013e-05 -1.257462761e-05)
(0 1.208387789e-05 -1.460814195e-05)
(0 1.14749671e-05 -1.712573565e-05)
(0 1.189424839e-05 -1.861132554e-05)
(0 1.249744173e-05 -1.934125618e-05)
(0 1.30625186e-05 -1.986535784e-05)
(0 1.378959049e-05 -2.057241856e-05)
(0 1.498073057e-05 -2.149388453e-05)
(0 1.677887566e-05 -2.252684124e-05)
(0 1.92478708e-05 -2.384948316e-05)
(0 2.37742031e-05 -2.708271379e-05)
(0 3.518532513e-05 -3.268107222e-05)
(0 4.041204775e-05 -1.676744069e-05)
(0 -1.122530412e-06 -9.048852966e-06)
(0 -3.368544154e-06 -9.019312706e-06)
(0 -5.629804478e-06 -8.956420496e-06)
(0 -7.903452665e-06 -8.850647257e-06)
(0 -1.019997076e-05 -8.691510955e-06)
(0 -1.251840579e-05 -8.459000398e-06)
(0 -1.485971074e-05 -8.129292824e-06)
(0 -1.722674433e-05 -7.667130484e-06)
(0 -1.961760068e-05 -7.024867741e-06)
(0 -2.202465655e-05 -6.139612433e-06)
(0 -2.4458394e-05 -4.912261701e-06)
(0 -2.693215368e-05 -3.166526791e-06)
(0 -2.937732604e-05 -5.059963064e-07)
(0 -3.090198538e-05 4.223306275e-06)
(0 -2.514639649e-05 1.503599948e-05)
(0 -8.121669531e-06 1.886765889e-06)
(0 9.773066146e-06 -7.993979319e-06)
(0 1.330169951e-05 -1.239738596e-05)
(0 8.974525825e-06 -1.783660803e-05)
(0 8.992631168e-06 -2.292134684e-05)
(0 1.07336015e-05 -2.447268765e-05)
(0 1.193712943e-05 -2.462896522e-05)
(0 1.242025587e-05 -2.477952537e-05)
(0 1.280999689e-05 -2.571433207e-05)
(0 1.377624972e-05 -2.719134577e-05)
(0 1.53523663e-05 -2.859022072e-05)
(0 1.603846296e-05 -2.89952083e-05)
(0 1.602798093e-05 -3.412568686e-05)
(0 4.10190528e-05 -5.284469154e-05)
(0 5.563386507e-05 -3.888262389e-05)
(0 -1.106330909e-06 -8.111187507e-06)
(0 -3.319945643e-06 -8.079741421e-06)
(0 -5.541183665e-06 -8.012084652e-06)
(0 -7.764327515e-06 -7.901546852e-06)
(0 -9.997953413e-06 -7.737645989e-06)
(0 -1.223157928e-05 -7.504182521e-06)
(0 -1.445948769e-05 -7.179239506e-06)
(0 -1.667310245e-05 -6.733276669e-06)
(0 -1.885336523e-05 -6.124365849e-06)
(0 -2.09678771e-05 -5.290567791e-06)
(0 -2.296232209e-05 -4.140402934e-06)
(0 -2.475570257e-05 -2.524264063e-06)
(0 -2.615267166e-05 -1.982057098e-07)
(0 -2.677968782e-05 3.137939437e-06)
(0 -2.657576462e-05 7.201156487e-06)
(0 -1.315876273e-05 6.482660789e-06)
(0 3.596290141e-06 -1.875330948e-06)
(0 4.553966764e-06 -1.118814057e-05)
(0 1.559917052e-06 -2.143480402e-05)
(0 4.840793303e-06 -3.225512058e-05)
(0 1.018472416e-05 -3.174912422e-05)
(0 1.219060406e-05 -2.995193206e-05)
(0 1.197810469e-05 -2.894470405e-05)
(0 1.137872298e-05 -3.034929639e-05)
(0 1.210579489e-05 -3.301268562e-05)
(0 1.497501314e-05 -3.569799188e-05)
(0 1.371145172e-05 -2.948024059e-05)
(0 -7.528005322e-08 -2.765731981e-05)
(0 3.042838814e-05 -3.361778483e-05)
(0 7.139312491e-05 3.434866834e-05)
)
;

boundaryField
{
    lowerWall
    {
        type            calculated;
        value           nonuniform 0();
    }
    atmosphere
    {
        type            calculated;
        value           nonuniform List<vector> 
20
(
(0 0 -2.517021916e-05)
(0 0 -2.503204729e-05)
(0 0 -2.475570242e-05)
(0 0 -2.434404441e-05)
(0 0 -2.379802615e-05)
(0 0 -2.312526988e-05)
(0 0 -2.233339996e-05)
(0 0 -2.143194547e-05)
(0 0 -2.043519914e-05)
(0 0 -1.93574556e-05)
(0 0 -1.821205557e-05)
(0 0 -1.702567978e-05)
(0 0 -1.581548147e-05)
(0 0 -1.45995659e-05)
(0 0 -1.340175522e-05)
(0 0 -1.223539091e-05)
(0 0 -1.111571925e-05)
(0 0 -1.005226937e-05)
(0 0 -9.048852966e-06)
(0 0 -8.111187507e-06)
)
;
    }
    rightWall
    {
        type            empty;
    }
    leftWall
    {
        type            empty;
    }
    frontAndBack
    {
        type            calculated;
        value           nonuniform List<vector> 
30
(
(0 -5.908054775e-08 -2.520266649e-05)
(0 -1.734299953e-07 -2.543629294e-05)
(0 -2.906381784e-07 -2.590013524e-05)
(0 -4.10705098e-07 -2.659930929e-05)
(0 -5.307720185e-07 -2.75406363e-05)
(0 -6.575093217e-07 -2.872582158e-05)
(0 -7.851995378e-07 -3.016850754e-05)
(0 -9.147955794e-07 -3.186698889e-05)
(0 -1.04534453e-06 -3.382808683e-05)
(0 -1.172081834e-06 -3.604839076e-05)
(0 -1.28929002e-06 -3.851425826e-05)
(0 -1.396016169e-06 -4.12103416e-05)
(0 -1.472249133e-06 -4.409400822e-05)
(0 -1.514177266e-06 -4.710045663e-05)
(-1.239779192e-25 -1.506553968e-06 -5.015124291e-05)
(1.239779192e-25 -1.432226827e-06 -5.312529057e-05)
(0 -1.279760898e-06 -5.58793542e-05)
(0 -1.042485794e-06 -5.824631415e-05)
(0 -7.194486056e-07 -6.004711365e-05)
(0 -3.249430131e-07 -6.112315956e-05)
(0 1.191140076e-07 -6.13499648e-05)
(0 5.984287739e-07 -6.064738015e-05)
(0 1.10918964e-06 -5.895742531e-05)
(0 1.66473737e-06 -5.620677229e-05)
(0 2.268883616e-06 -5.229992413e-05)
(0 2.914957997e-06 -4.713115208e-05)
(0 3.56103237e-06 -4.064077055e-05)
(0 4.149932023e-06 -3.288505451e-05)
(0 4.617811852e-06 -2.404306076e-05)
(0 2.408961689e-06 -1.441151191e-05)
)
;
    }
    procBoundary0to1
    {
        type            processor;
        value           nonuniform List<vector> 
20
(
(0 7.337422832e-08 -1.452237974e-05)
(0 2.277459848e-07 -1.497215445e-05)
(0 4.0784636e-07 -1.590886678e-05)
(0 6.403569017e-07 -1.740779744e-05)
(0 9.662528394e-07 -1.961950662e-05)
(0 1.460814182e-06 -2.281462045e-05)
(0 2.300329704e-06 -2.752391183e-05)
(0 3.900269104e-06 -3.485847645e-05)
(0 7.409844148e-06 -4.75188655e-05)
(0 1.643106258e-05 -6.513249195e-05)
(0 7.384973255e-05 -2.860260871e-05)
(0 4.790193615e-05 9.187025133e-06)
(0 3.92428243e-05 4.593036111e-07)
(0 3.487181722e-05 -1.165411462e-06)
(0 3.272109418e-05 -3.675381801e-06)
(0 3.253337065e-05 -6.455979209e-06)
(0 3.408661736e-05 -9.012642281e-06)
(0 3.694058893e-05 -1.122244534e-05)
(0 4.332700556e-05 -2.18626614e-05)
(0 6.895748136e-05 1.16445854e-05)
)
;
    }
    procBoundary0to2
    {
        type            processor;
        value           nonuniform List<vector> 
30
(
(0 -1.091084314e-06 -7.239272956e-06)
(0 -3.269441299e-06 -7.207826868e-06)
(0 -5.451609922e-06 -7.143028837e-06)
(0 -7.62901399e-06 -7.036302686e-06)
(0 -9.8007006e-06 -6.883836766e-06)
(0 -1.195999932e-05 -6.669431541e-06)
(0 -1.40907107e-05 -6.379746273e-06)
(0 -1.617187067e-05 -5.990005248e-06)
(0 -1.81739389e-05 -5.4735269e-06)
(0 -2.004164654e-05 -4.779806917e-06)
(0 -2.169113736e-05 -3.853576395e-06)
(0 -2.299090939e-05 -2.605261585e-06)
(0 -2.371512255e-05 -9.138426701e-07)
(0 -2.350262319e-05 1.323594859e-06)
(0 -2.179976931e-05 4.138497099e-06)
(0 -1.719910986e-05 7.972062337e-06)
(0 -7.898688113e-06 1.045344536e-06)
(0 -6.255867705e-06 -5.493538053e-06)
(0 -1.20924541e-05 -3.203880944e-05)
(0 -1.321689036e-06 -5.293235945e-05)
(0 1.303583705e-05 -4.033486187e-05)
(0 1.473964382e-05 -3.451733372e-05)
(0 1.202384445e-05 -3.073713161e-05)
(0 8.74106237e-06 -3.377215649e-05)
(0 8.4275543e-06 -3.886928312e-05)
(0 1.888481133e-05 -5.177838294e-05)
(0 2.40819937e-05 -3.718929915e-05)
(0 1.188948383e-05 -9.551990537e-06)
(0 0.0001030250409 3.74656437e-05)
(0 0.0001008962352 7.503896636e-05)
)
;
    }
}


// ************************************************************************* //
