/*--------------------------------*- C++ -*----------------------------------*\
  =========                 |
  \\      /  F ield         | OpenFOAM: The Open Source CFD Toolbox
   \\    /   O peration     | Website:  https://openfoam.org
    \\  /    A nd           | Version:  6
     \\/     M anipulation  |
\*---------------------------------------------------------------------------*/
FoamFile
{
    version     2.0;
    format      ascii;
    class       volScalarField;
    location    "0.0045";
    object      Num_divU;
}
// * * * * * * * * * * * * * * * * * * * * * * * * * * * * * * * * * * * * * //

dimensions      [0 0 -1 0 0 0 0];

internalField   nonuniform List<scalar> 
600
(
9.464873463e-10
-9.989486774e-10
-8.830006601e-09
-1.747295226e-08
-2.782711252e-08
-4.00476276e-08
-5.444716786e-08
-7.128892105e-08
-9.074357815e-08
-1.129195504e-07
-1.377769408e-07
-1.651514075e-07
-1.947750668e-07
-2.265046604e-07
-2.602942818e-07
-2.954622647e-07
-3.286129799e-07
-3.514782368e-07
-3.529824313e-07
-3.320217932e-07
-3.093572911e-07
-2.946133894e-07
-2.756225065e-07
-2.544021596e-07
-2.500579969e-07
-2.858992079e-07
-3.469934801e-07
-4.378410978e-07
-4.928093245e-07
-1.256261023e-07
1.147677444e-09
-5.544216024e-10
-8.235257408e-09
-1.681993383e-08
-2.720039299e-08
-3.957669199e-08
-5.440526914e-08
-7.205117071e-08
-9.291984914e-08
-1.172549968e-07
-1.451769291e-07
-1.763902459e-07
-2.103299553e-07
-2.462097256e-07
-2.836378722e-07
-3.225346866e-07
-3.618962108e-07
-3.953740389e-07
-4.06993319e-07
-3.847019859e-07
-3.587563394e-07
-3.424690131e-07
-3.100967912e-07
-2.636466045e-07
-2.199897099e-07
-2.181718453e-07
-2.465999948e-07
-3.196235663e-07
-4.487693466e-07
-1.107291516e-07
1.286903188e-09
-4.640716951e-10
-8.517692892e-09
-1.759584443e-08
-2.865261697e-08
-4.204625089e-08
-5.834008394e-08
-7.815839374e-08
-1.020872299e-07
-1.306261254e-07
-1.639036418e-07
-2.014946787e-07
-2.421825575e-07
-2.843670508e-07
-3.270184709e-07
-3.717733744e-07
-4.226042375e-07
-4.783467119e-07
-5.084538414e-07
-4.667177191e-07
-4.253855079e-07
-4.144240006e-07
-3.611970958e-07
-2.744921249e-07
-1.665631241e-07
-1.300234571e-07
-1.39034718e-07
-1.891426954e-07
-3.139072996e-07
6.399188824e-09
1.370433631e-09
-6.388287826e-10
-9.450860559e-09
-1.942731608e-08
-3.1698901e-08
-4.675563935e-08
-6.539511468e-08
-8.847889159e-08
-1.169164358e-07
-1.514636705e-07
-1.924742636e-07
-2.39404806e-07
-2.903725583e-07
-3.419655499e-07
-3.909481487e-07
-4.394687588e-07
-5.016405474e-07
-5.981583028e-07
-6.771123709e-07
-5.877151219e-07
-5.128295457e-07
-5.25799689e-07
-4.394461669e-07
-3.045620566e-07
-9.26174608e-08
-2.410750031e-08
-1.506935874e-08
-1.019997513e-08
-1.057379386e-07
2.040629342e-07
1.390041875e-09
-1.118134672e-09
-1.102350009e-08
-2.229944872e-08
-3.625723395e-08
-5.359662132e-08
-7.534421086e-08
-1.026654931e-07
-1.367905366e-07
-1.788919158e-07
-2.298029002e-07
-2.894358968e-07
-3.556048617e-07
-4.222656567e-07
-4.797189951e-07
-5.239128369e-07
-5.796087233e-07
-7.392099128e-07
-9.478032024e-07
-7.679096493e-07
-6.399455863e-07
-6.78234393e-07
-5.28644836e-07
-3.626368274e-07
-2.423921364e-08
7.294657187e-08
1.007709557e-07
2.556636029e-07
1.696818348e-07
4.746757185e-07
1.320824839e-09
-1.918986831e-09
-1.322988785e-08
-2.615050789e-08
-4.223476625e-08
-6.240527343e-08
-8.79473837e-08
-1.202835726e-07
-1.609416212e-07
-2.115437683e-07
-2.737914392e-07
-3.491384543e-07
-4.369531997e-07
-5.298540196e-07
-6.061599363e-07
-6.364196908e-07
-6.228560306e-07
-8.414903127e-07
-1.277503782e-06
-1.32018945e-06
-1.385891875e-06
-5.798903165e-07
-4.490533675e-07
-1.972198517e-07
-6.231551725e-07
-1.213542745e-07
2.102666462e-07
7.095041316e-07
5.592567968e-07
8.12028703e-07
1.143585835e-09
-3.070529545e-09
-1.60480735e-08
-3.091832872e-08
-4.951126551e-08
-7.301923362e-08
-1.029752452e-07
-1.409895946e-07
-1.887028854e-07
-2.479349854e-07
-3.212362989e-07
-4.126647778e-07
-5.272903342e-07
-6.644228374e-07
-7.940993834e-07
-8.392098361e-07
-6.328812199e-07
-9.303751771e-07
-7.752011558e-07
-2.097610827e-06
-2.405896467e-06
-5.347064952e-07
-1.130740106e-07
-8.803281499e-08
-1.408023867e-06
-4.112554374e-07
5.59814795e-07
1.722187936e-06
1.282643053e-06
1.226936652e-06
8.303779676e-10
-4.602514299e-09
-1.945299193e-08
-3.649592459e-08
-5.790217344e-08
-8.519341083e-08
-1.201913318e-07
-1.646373329e-07
-2.200106997e-07
-2.87603247e-07
-3.694297298e-07
-4.709605581e-07
-6.059119697e-07
-7.976760797e-07
-1.037204023e-06
-1.222989653e-06
-1.092180608e-06
-4.966878099e-07
3.093752877e-07
-2.20991965e-06
-1.939728744e-06
6.457786836e-08
4.801402952e-07
3.374373138e-07
-1.184723664e-06
-2.734746732e-06
1.074373149e-06
3.890972815e-06
3.67239773e-06
1.890508638e-06
3.397561877e-10
-6.573342268e-09
-2.341710313e-08
-4.271828874e-08
-6.706615522e-08
-9.843891004e-08
-1.390938341e-07
-1.91069588e-07
-2.556835066e-07
-3.329421957e-07
-4.213956644e-07
-5.209526849e-07
-6.450828715e-07
-8.567537426e-07
-1.232341689e-06
-1.818947736e-06
-2.424314651e-06
4.30242109e-07
2.716784804e-06
2.691152295e-12
1.380567007e-11
2.042777192e-11
2.661568241e-11
2.727189296e-11
-2.524148335e-12
-9.507720862e-12
3.657262055e-06
1.265392011e-06
4.389136527e-06
3.726226825e-06
-4.187044724e-10
-9.123681791e-09
-2.796217811e-08
-4.935445999e-08
-7.642845708e-08
-1.117788095e-07
-1.583836725e-07
-2.191144093e-07
-2.960885002e-07
-3.890915287e-07
-4.921296625e-07
-5.878056578e-07
-6.448378089e-07
-6.743337199e-07
-1.113075472e-06
-2.378787562e-06
-4.174312564e-06
-1.847707317e-11
-1.009046253e-11
3.192027658e-13
7.488783103e-12
1.185542056e-11
1.869836769e-11
1.138477084e-11
-8.84652718e-13
-3.533243946e-11
-2.816222995e-11
1.060216049e-11
6.125978483e-06
-6.788986489e-13
-1.675172663e-09
-1.262918025e-08
-3.32916552e-08
-5.621045645e-08
-8.520741508e-08
-1.236222388e-07
-1.75342538e-07
-2.447218926e-07
-3.366083113e-07
-4.558547999e-07
-6.040507233e-07
-7.683710587e-07
-8.889670964e-07
-9.627076736e-07
-6.058090213e-07
3.817936984e-07
-6.542611751e-12
-9.245001758e-12
-6.938320903e-12
-5.068515713e-13
3.751789036e-12
6.003019776e-12
1.021371355e-11
1.161773982e-11
-8.902463854e-12
-1.973274985e-11
6.43153037e-14
-1.39324765e-11
-1.643219554e-11
-2.7430289e-11
-4.077509364e-09
-1.801548905e-08
-4.003963345e-08
-6.332396501e-08
-9.268740911e-08
-1.321469399e-07
-1.861845887e-07
-2.601047373e-07
-3.612132377e-07
-5.013784242e-07
-7.015341158e-07
-9.945231677e-07
-1.344239587e-06
-8.160674338e-07
4.570896404e-07
2.550842515e-06
-3.884455945e-12
-7.986457766e-12
-5.469901474e-12
-9.963835215e-13
1.320787646e-12
1.007890229e-12
1.870124337e-12
2.881648664e-12
-2.859045144e-12
-1.3539072e-11
-6.813016049e-12
-1.014306187e-11
-2.261146562e-11
-1.109974086e-11
-9.578441047e-09
-2.746900526e-08
-4.962718644e-08
-7.120462406e-08
-9.863874655e-08
-1.364172267e-07
-1.887746029e-07
-2.600373271e-07
-3.549088705e-07
-4.789498159e-07
-6.396183718e-07
-8.548674233e-07
-1.406316832e-06
-2.17375207e-06
-2.227387869e-06
-2.982549745e-12
-7.802018246e-12
-9.681233933e-12
-7.539156065e-12
-4.091432027e-12
-2.910127907e-12
-3.703023344e-12
-3.232892431e-12
-9.949442242e-13
-2.443972804e-12
-5.245260215e-12
-5.166150208e-12
-1.101197617e-11
-1.205979451e-11
-1.770198869e-11
-2.481878986e-08
-4.607114515e-08
-6.456202411e-08
-8.069331246e-08
-1.032949328e-07
-1.368900838e-07
-1.851310621e-07
-2.515249648e-07
-3.395120534e-07
-4.517108196e-07
-5.883255097e-07
-7.645587421e-07
-1.532596616e-06
-2.507042218e-06
-2.003992948e-06
-7.910346114e-12
-1.275769736e-11
-1.441652597e-11
-1.282208447e-11
-1.036225709e-11
-9.228204046e-12
-9.036683265e-12
-6.518021498e-12
-8.610042372e-13
3.026588576e-12
2.713681243e-12
2.086023679e-12
-2.453030414e-12
-9.119923019e-12
-8.958703609e-12
-7.029486221e-08
-8.429079464e-08
-8.776540016e-08
-9.192719408e-08
-1.06203108e-07
-1.333058155e-07
-1.755390511e-07
-2.363662317e-07
-3.217525479e-07
-4.422075969e-07
-6.141900498e-07
-8.433417302e-07
-7.936590108e-07
-8.236900738e-07
1.554177536e-08
-1.170188206e-11
-1.814667807e-11
-2.061369172e-11
-1.861147469e-11
-1.606793319e-11
-1.489325126e-11
-1.217809075e-11
-5.06790096e-12
3.794048904e-12
1.02971878e-11
1.328355427e-11
9.330634629e-12
4.03203342e-12
-3.823844371e-13
-1.261799221e-11
-2.720775237e-07
-1.775076344e-07
-1.204996459e-07
-1.023119977e-07
-1.052954535e-07
-1.240020716e-07
-1.569511603e-07
-2.052797674e-07
-2.729686439e-07
-3.68440982e-07
-5.059225833e-07
-6.887329643e-07
-5.876507518e-07
-5.369333281e-07
2.052503401e-07
-1.355392913e-11
-1.928726367e-11
-1.997008902e-11
-2.281882727e-11
-2.23539493e-11
-1.888100492e-11
-1.227484948e-11
-4.44528546e-13
1.110790754e-11
1.699328737e-11
1.367454031e-11
1.640892592e-11
1.131107964e-11
7.847398079e-13
-2.622121501e-13
-3.097973142e-07
-1.935387551e-07
-1.227388585e-07
-9.841135388e-08
-9.634738012e-08
-1.083779043e-07
-1.307377933e-07
-1.613161391e-07
-1.981820814e-07
-2.380413572e-07
-2.742189029e-07
-3.143540509e-07
-9.266034246e-07
-1.623306935e-06
-1.342663755e-06
-1.019590102e-11
-1.392447261e-11
-2.5287365e-11
-2.387432011e-11
-2.305341479e-11
-2.028398754e-11
-9.059081894e-12
4.977785076e-12
1.525045296e-11
1.675080122e-11
2.682699004e-11
1.501765671e-11
1.434938762e-11
1.944265581e-11
-1.015667264e-11
-1.206970108e-07
-1.056202559e-07
-8.611377751e-08
-7.781046236e-08
-7.958289005e-08
-8.886768544e-08
-1.030479482e-07
-1.194663774e-07
-1.351873726e-07
-1.471220282e-07
-1.532656509e-07
-1.5971104e-07
-4.208541193e-07
-6.425063556e-07
-2.147189215e-06
-4.695752179e-12
-1.103627663e-11
-8.072760575e-12
-3.564002336e-11
-3.455076545e-11
-2.179663984e-11
-3.519401715e-12
1.329854191e-11
1.87060834e-11
1.949109928e-11
-3.530322748e-12
4.30767018e-11
3.670015073e-11
-3.17981065e-11
1.947114607e-11
-2.07465614e-08
-4.049758779e-08
-4.74233429e-08
-5.307191119e-08
-6.016127972e-08
-6.863635349e-08
-7.67946936e-08
-8.23241125e-08
-8.305252541e-08
-7.956447126e-08
-7.993007647e-08
-1.050741451e-07
-1.31470395e-07
5.56871099e-07
1.403477344e-06
3.770775552e-06
5.383111979e-12
-6.369491209e-11
-6.225078258e-11
-4.901457782e-11
-2.387591932e-11
-1.182233228e-13
1.330224376e-11
7.281010063e-12
-1.376156047e-11
9.258140143e-11
8.467160265e-11
-5.297292671e-12
4.134882186e-11
-4.341859004e-11
4.798869554e-08
8.958543443e-09
-1.42614978e-08
-3.012914502e-08
-4.18427735e-08
-4.985263625e-08
-5.249561593e-08
-4.603036646e-08
-2.466257716e-08
2.082409319e-08
1.073211496e-07
2.733375317e-07
6.188267179e-07
1.266675543e-06
3.034414705e-06
2.173549893e-06
-3.953467009e-11
-4.854855367e-11
-7.138070021e-11
-6.150942311e-11
-1.445840227e-11
1.562639855e-11
2.058736656e-11
4.508269189e-12
7.108886814e-11
1.019989643e-10
1.075936983e-10
5.031876649e-11
-2.428171201e-11
9.72044786e-11
)
;

boundaryField
{
    lowerWall
    {
        type            calculated;
        value           nonuniform 0();
    }
    atmosphere
    {
        type            calculated;
        value           nonuniform List<scalar> 
20
(
9.464873463e-10
1.147677444e-09
1.286903188e-09
1.370433631e-09
1.390041875e-09
1.320824839e-09
1.143585835e-09
8.303779676e-10
3.397561877e-10
-4.187044724e-10
-1.675172663e-09
-4.077509364e-09
-9.578441047e-09
-2.481878986e-08
-7.029486221e-08
-2.720775237e-07
-3.097973142e-07
-1.206970108e-07
-2.07465614e-08
4.798869554e-08
)
;
    }
    rightWall
    {
        type            empty;
    }
    leftWall
    {
        type            empty;
    }
    frontAndBack
    {
        type            calculated;
        value           nonuniform List<scalar> 
30
(
9.464873463e-10
-9.989486774e-10
-8.830006601e-09
-1.747295226e-08
-2.782711252e-08
-4.00476276e-08
-5.444716786e-08
-7.128892105e-08
-9.074357815e-08
-1.129195504e-07
-1.377769408e-07
-1.651514075e-07
-1.947750668e-07
-2.265046604e-07
-2.602942818e-07
-2.954622647e-07
-3.286129799e-07
-3.514782368e-07
-3.529824313e-07
-3.320217932e-07
-3.093572911e-07
-2.946133894e-07
-2.756225065e-07
-2.544021596e-07
-2.500579969e-07
-2.858992079e-07
-3.469934801e-07
-4.378410978e-07
-4.928093245e-07
-1.256261023e-07
)
;
    }
    procBoundary0to1
    {
        type            processor;
        value           nonuniform List<scalar> 
20
(
1.645868026e-11
1.698943098e-11
1.721838543e-11
1.730500087e-11
1.754237386e-11
2.340911737e-11
2.500726449e-11
-3.947732671e-13
1.277488763e-11
-4.774429139e-11
-1.173370754e-11
-2.289970961e-11
-1.658344468e-11
-2.168220534e-11
-1.440062372e-11
-1.972500737e-11
-4.19652449e-12
-2.818476932e-11
3.681636365e-11
-4.202293239e-11
)
;
    }
    procBoundary0to2
    {
        type            processor;
        value           nonuniform List<scalar> 
30
(
9.387216933e-08
4.343173029e-08
1.04813854e-08
-1.220479722e-08
-2.723203471e-08
-3.50336904e-08
-3.332666408e-08
-1.702223146e-08
2.285483401e-08
1.012009311e-07
2.437342223e-07
4.957154782e-07
9.330739998e-07
1.619017439e-06
2.175360269e-06
2.288725484e-06
-1.288435762e-06
-7.674564424e-11
-8.107608531e-11
-4.466798751e-11
3.604978552e-12
3.601422359e-11
3.200379521e-11
6.925535963e-12
2.853248469e-11
1.498170835e-10
8.992091796e-11
2.491469952e-11
1.548870619e-06
-4.155813154e-11
)
;
    }
}


// ************************************************************************* //
