/*--------------------------------*- C++ -*----------------------------------*\
  =========                 |
  \\      /  F ield         | OpenFOAM: The Open Source CFD Toolbox
   \\    /   O peration     | Website:  https://openfoam.org
    \\  /    A nd           | Version:  6
     \\/     M anipulation  |
\*---------------------------------------------------------------------------*/
FoamFile
{
    version     2.0;
    format      ascii;
    class       volVectorField;
    location    "0.0045";
    object      U;
}
// * * * * * * * * * * * * * * * * * * * * * * * * * * * * * * * * * * * * * //

dimensions      [0 1 -1 0 0 0 0];

internalField   nonuniform List<vector> 
600
(
(0 2.463259914e-10 -2.167685771e-13)
(0 2.473312548e-10 -6.335253284e-13)
(0 2.487439987e-10 -9.961538287e-13)
(0 2.502728203e-10 -1.263805185e-12)
(0 2.516098339e-10 -1.393276922e-12)
(0 2.523250091e-10 -1.338485296e-12)
(0 2.518693927e-10 -1.0506792e-12)
(0 2.495752754e-10 -4.816712799e-13)
(0 2.446647991e-10 4.105144706e-13)
(0 2.362741989e-10 1.650715612e-12)
(0 2.235055818e-10 3.231869659e-12)
(0 2.055178879e-10 5.09584555e-12)
(0 1.816593178e-10 7.117790824e-12)
(0 1.516209054e-10 9.105578851e-12)
(8.889857479e-53 1.155578836e-10 1.083798423e-11)
(5.918655086e-53 7.410006716e-11 1.215475342e-11)
(0 2.819568835e-11 1.306800856e-11)
(0 -2.112314303e-11 1.375851721e-11)
(0 -7.270216043e-11 1.425473187e-11)
(0 -1.244857783e-10 1.382079025e-11)
(0 -1.723029086e-10 1.095383181e-11)
(0 -2.101903526e-10 5.035843797e-12)
(0 -2.325841604e-10 -3.17187379e-12)
(0 -2.355398969e-10 -1.304317855e-11)
(0 -2.163481655e-10 -2.436714561e-11)
(0 -1.738573231e-10 -3.616197763e-11)
(0 -1.114802479e-10 -4.465484267e-11)
(0 -4.144216279e-11 -4.41261492e-11)
(0 1.781322072e-11 -2.981834289e-11)
(0 1.179204762e-12 1.094772153e-24)
(0 2.451056896e-10 -6.698225262e-13)
(0 2.462218032e-10 -1.959415708e-12)
(0 2.478376258e-10 -3.089039128e-12)
(0 2.496697379e-10 -3.937811145e-12)
(0 2.514166504e-10 -4.377802124e-12)
(0 2.526545596e-10 -4.271329243e-12)
(0 2.528373012e-10 -3.472530176e-12)
(0 2.512914504e-10 -1.835009634e-12)
(0 2.472175957e-10 7.709314661e-13)
(0 2.397057549e-10 4.428221421e-12)
(0 2.277788592e-10 9.127412698e-12)
(0 2.104821626e-10 1.470750913e-11)
(0 1.87032909e-10 2.079753703e-11)
(0 1.570260252e-10 2.680000109e-11)
(0 1.206448345e-10 3.199053051e-11)
(0 7.874475083e-11 3.581057418e-11)
(0 3.26067144e-11 3.829473715e-11)
(0 -1.671819126e-11 4.021171931e-11)
(0 -6.896052876e-11 4.208640122e-11)
(0 -1.235601956e-10 4.177533835e-11)
(0 -1.763685646e-10 3.383962878e-11)
(0 -2.196027362e-10 1.616275889e-11)
(0 -2.469221806e-10 -8.066269025e-12)
(0 -2.552938078e-10 -3.679770594e-11)
(0 -2.420896446e-10 -7.018617103e-11)
(0 -2.032123389e-10 -1.065909959e-10)
(0 -1.378167838e-10 -1.343297156e-10)
(0 -5.718932481e-11 -1.346261387e-10)
(0 1.575446649e-11 -9.16869025e-11)
(0 1.221492938e-12 1.151824023e-24)
(0 2.429680032e-10 -1.186161953e-12)
(0 2.442638408e-10 -3.477464441e-12)
(0 2.462017954e-10 -5.510965925e-12)
(0 2.485114352e-10 -7.091663952e-12)
(0 2.509016008e-10 -8.011798672e-12)
(0 2.529592584e-10 -8.045903867e-12)
(0 2.541453292e-10 -6.952513352e-12)
(0 2.537831853e-10 -4.484080194e-12)
(0 2.510499961e-10 -4.116320152e-13)
(0 2.44978142e-10 5.430902338e-12)
(0 2.344813773e-10 1.307311804e-11)
(0 2.184297929e-10 2.23009743e-11)
(0 1.958087325e-10 3.25251955e-11)
(0 1.659969037e-10 4.26864876e-11)
(1.001492373e-52 1.291529182e-10 5.134889792e-11)
(6.889088647e-53 8.653272457e-11 5.722194283e-11)
(0 4.025521238e-11 6.022688979e-11)
(0 -8.103855122e-12 6.244602245e-11)
(0 -5.975403274e-11 6.677707899e-11)
(0 -1.177837245e-10 7.03444778e-11)
(0 -1.784075663e-10 5.969093451e-11)
(0 -2.294816821e-10 3.002760473e-11)
(0 -2.633638914e-10 -8.857545444e-12)
(0 -2.803644654e-10 -5.274661396e-11)
(0 -2.798165543e-10 -1.050094132e-10)
(0 -2.524829878e-10 -1.690288411e-10)
(0 -1.882555051e-10 -2.239299976e-10)
(0 -9.480760531e-11 -2.319228029e-10)
(0 -1.491776238e-13 -1.613718322e-10)
(0 1.313564863e-12 1.262885295e-24)
(0 2.397198096e-10 -1.800015571e-12)
(0 2.412533591e-10 -5.292369034e-12)
(0 2.436141192e-10 -8.441933039e-12)
(0 2.465488083e-10 -1.098847964e-11)
(0 2.49779918e-10 -1.26527123e-11)
(0 2.529094895e-10 -1.312920312e-11)
(0 2.554109817e-10 -1.208631065e-11)
(0 2.566119249e-10 -9.175837132e-12)
(0 2.556755687e-10 -4.05783981e-12)
(0 2.515852082e-10 3.550308387e-12)
(0 2.431404106e-10 1.37841669e-11)
(0 2.289891428e-10 2.647663757e-11)
(0 2.077535459e-10 4.091770442e-11)
(0 1.783608325e-10 5.55690799e-11)
(-1.130350187e-52 1.407040607e-10 6.795420645e-11)
(-7.570093334e-53 9.654914682e-11 7.527083088e-11)
(0 4.983885921e-11 7.652362143e-11)
(0 4.405385546e-12 7.593316741e-11)
(0 -4.27049989e-11 8.345120762e-11)
(0 -1.034314202e-10 9.909042398e-11)
(0 -1.755013318e-10 9.008859332e-11)
(0 -2.358840934e-10 4.557687559e-11)
(0 -2.743995666e-10 -6.004765223e-12)
(0 -3.004719488e-10 -5.681841098e-11)
(0 -3.206904412e-10 -1.183555834e-10)
(0 -3.176304366e-10 -2.141034598e-10)
(0 -2.622935743e-10 -3.109365511e-10)
(0 -1.539484047e-10 -3.395620449e-10)
(0 -2.711169145e-11 -2.45114827e-10)
(0 1.473550082e-12 1.430787624e-24)
(0 2.351103242e-10 -2.540911391e-12)
(0 2.369248056e-10 -7.493767215e-12)
(0 2.3978254e-10 -1.2035407e-11)
(0 2.434502262e-10 -1.585171129e-11)
(0 2.476652132e-10 -1.860358778e-11)
(0 2.520462228e-10 -1.991739586e-11)
(0 2.560826049e-10 -1.93829432e-11)
(0 2.591148494e-10 -1.655978764e-11)
(0 2.603124055e-10 -1.099560211e-11)
(0 2.586455044e-10 -2.264283034e-12)
(0 2.528446251e-10 9.953181448e-12)
(0 2.413510229e-10 2.569527174e-11)
(0 2.223149628e-10 4.436850726e-11)
(0 1.938406085e-10 6.414458533e-11)
(0 1.548953512e-10 8.123846009e-11)
(0 1.073342633e-10 8.9931469e-11)
(0 5.825053818e-11 8.568315857e-11)
(0 1.829749798e-11 7.395583562e-11)
(0 -1.523296483e-11 8.189011591e-11)
(0 -7.534307267e-11 1.27155695e-10)
(0 -1.644627789e-10 1.276727218e-10)
(0 -2.336968623e-10 5.694391888e-11)
(0 -2.680125541e-10 -5.321824687e-12)
(0 -2.971773241e-10 -4.814216685e-11)
(0 -3.464727798e-10 -9.486594034e-11)
(0 -3.873182874e-10 -2.27095897e-10)
(0 -3.556015951e-10 -3.906773587e-10)
(0 -2.335127005e-10 -4.596961912e-10)
(0 -6.440819175e-11 -3.50600164e-10)
(0 1.739029228e-12 1.687879079e-24)
(0 2.288468356e-10 -3.43114676e-12)
(0 2.309673013e-10 -1.014920407e-11)
(0 2.343635235e-10 -1.640602798e-11)
(0 2.388228619e-10 -2.184669407e-11)
(0 2.440951627e-10 -2.608580148e-11)
(0 2.498116324e-10 -2.869627153e-11)
(0 2.554728327e-10 -2.920634186e-11)
(0 2.604327609e-10 -2.710356939e-11)
(0 2.638854801e-10 -2.184416921e-11)
(0 2.648446388e-10 -1.2867446e-11)
(0 2.620859575e-10 3.708723079e-13)
(0 2.540021922e-10 1.828795517e-11)
(0 2.383479441e-10 4.082566293e-11)
(0 2.120503937e-10 6.654140468e-11)
(0 1.718601135e-10 9.076813123e-11)
(0 1.176846422e-10 1.033060886e-10)
(0 5.991282948e-11 8.997149399e-11)
(0 2.610224509e-11 4.845993561e-11)
(0 2.365258382e-11 4.039628747e-11)
(0 -2.867228304e-11 1.51611209e-10)
(0 -1.425396334e-10 1.758464443e-10)
(0 -2.163401124e-10 5.002770444e-11)
(0 -2.285802558e-10 -1.921234167e-11)
(0 -2.446363986e-10 -3.399378425e-11)
(0 -3.257741003e-10 -1.560926245e-11)
(0 -4.338363739e-10 -1.882452598e-10)
(0 -4.528293338e-10 -4.556224608e-10)
(0 -3.264069037e-10 -5.868422404e-10)
(0 -1.119066951e-10 -4.856094296e-10)
(0 2.189459246e-12 2.119624312e-24)
(0 2.206105285e-10 -4.484727388e-12)
(0 2.230419158e-10 -1.330056232e-11)
(0 2.269820891e-10 -2.162354577e-11)
(0 2.322377202e-10 -2.907101188e-11)
(0 2.385650572e-10 -3.522428771e-11)
(0 2.455958978e-10 -3.961632861e-11)
(0 2.52822702e-10 -4.173077503e-11)
(0 2.595891612e-10 -4.101035018e-11)
(0 2.650997838e-10 -3.686773878e-11)
(0 2.684444648e-10 -2.868306791e-11)
(0 2.685959897e-10 -1.576739476e-11)
(0 2.642612845e-10 2.702966009e-12)
(0 2.5336e-10 2.764057552e-11)
(0 2.319279348e-10 5.932348724e-11)
(0 1.930143163e-10 9.456474588e-11)
(0 1.294186459e-10 1.195974677e-10)
(0 4.829618684e-11 1.018873925e-10)
(0 1.27370239e-11 -1.737266995e-12)
(0 6.605272453e-11 -7.673988665e-11)
(0 2.581016393e-11 1.820630107e-10)
(0 -9.985654162e-11 2.606386615e-10)
(0 -1.616851134e-10 -6.674717399e-12)
(0 -1.40988908e-10 -6.452382086e-11)
(0 -1.292900413e-10 -4.332200129e-11)
(0 -2.180306914e-10 1.587166376e-10)
(0 -3.802617266e-10 -6.628927612e-11)
(0 -5.09525015e-10 -4.914781405e-10)
(0 -4.059308395e-10 -6.867528372e-10)
(0 -1.72845492e-10 -6.51402216e-10)
(0 3.007070296e-12 2.918764833e-24)
(0 2.100750141e-10 -5.706864258e-12)
(0 2.128013331e-10 -1.696262056e-11)
(0 2.172538238e-10 -2.771033458e-11)
(0 2.232568747e-10 -3.755167809e-11)
(0 2.305662497e-10 -4.604461412e-11)
(0 2.387976024e-10 -5.268811346e-11)
(0 2.474003009e-10 -5.692544586e-11)
(0 2.55645448e-10 -5.816801925e-11)
(0 2.626567829e-10 -5.583467899e-11)
(0 2.675098483e-10 -4.938078199e-11)
(0 2.693991233e-10 -3.824969369e-11)
(0 2.677637423e-10 -2.16166606e-11)
(0 2.619409762e-10 2.209445518e-12)
(0 2.492749361e-10 3.643917132e-11)
(0 2.200852897e-10 8.435661281e-11)
(0 1.528773859e-10 1.378564396e-10)
(0 2.495035155e-11 1.47210026e-10)
(0 -2.464418381e-11 -5.145868997e-11)
(0 9.817600432e-11 -3.55555127e-10)
(0 1.53767403e-24 1.44969933e-11)
(0 -3.337841042e-24 9.856881804e-12)
(0 -1.630197947e-24 -4.289457775e-12)
(0 -5.525830439e-25 -2.731153132e-12)
(0 5.910920689e-25 -3.677980115e-12)
(0 2.313938963e-24 1.102872886e-11)
(0 -3.336081738e-24 1.589582012e-11)
(0 -4.394128099e-10 -4.880037158e-10)
(0 -3.919490208e-10 -6.682735939e-10)
(0 -2.769135537e-10 -8.210183647e-10)
(0 4.657345893e-12 4.059137845e-24)
(0 1.969275413e-10 -7.094273733e-12)
(0 1.999113061e-10 -2.112340093e-11)
(0 2.048064183e-10 -3.464203821e-11)
(0 2.114566095e-10 -4.724832824e-11)
(0 2.196167917e-10 -5.84838966e-11)
(0 2.288766806e-10 -6.780776052e-11)
(0 2.386070455e-10 -7.45991624e-11)
(0 2.479165334e-10 -7.82012413e-11)
(0 2.556598616e-10 -7.801650891e-11)
(0 2.60566819e-10 -7.364977768e-11)
(0 2.616087646e-10 -6.503466125e-11)
(0 2.587333757e-10 -5.230985449e-11)
(0 2.538118772e-10 -3.483081066e-11)
(0 2.502675441e-10 -8.243095182e-12)
(0 2.449911088e-10 4.085162933e-11)
(0 2.051565735e-10 1.311746713e-10)
(0 2.875959203e-12 2.631182043e-10)
(0 3.005992456e-24 -4.213845945e-12)
(0 -1.037839384e-11 -8.672419469e-12)
(0 -1.026772936e-11 1.850501793e-11)
(0 6.088936224e-12 1.384661649e-11)
(0 7.53657639e-12 -4.158267492e-12)
(0 6.114776588e-13 -2.95628744e-12)
(0 -6.364729333e-12 -2.883975774e-12)
(0 -5.301587064e-12 1.652315593e-11)
(0 9.095882305e-12 2.292807153e-11)
(0 8.979567017e-12 -1.480182803e-12)
(0 -2.89142359e-24 9.834756208e-12)
(0 -5.550247521e-10 -8.401931936e-10)
(0 8.481423204e-12 -2.272521122e-11)
(0 1.808938641e-10 -8.636365187e-12)
(0 1.84074554e-10 -2.574558893e-11)
(0 1.89299231e-10 -4.234786422e-11)
(0 1.964399536e-10 -5.80557389e-11)
(0 2.052670887e-10 -7.240586145e-11)
(0 2.153619174e-10 -8.480481271e-11)
(0 2.260190159e-10 -9.451399415e-11)
(0 2.361329145e-10 -1.006935799e-10)
(0 2.440937056e-10 -1.025397827e-10)
(0 2.477606939e-10 -9.956869005e-11)
(0 2.447160071e-10 -9.210465952e-11)
(0 2.33325799e-10 -8.193639595e-11)
(0 2.156759603e-10 -7.261704998e-11)
(0 2.038085678e-10 -6.742664381e-11)
(0 2.222322581e-10 -5.930751955e-11)
(0 3.021462907e-10 -2.39364904e-11)
(0 1.115998926e-11 1.113528854e-11)
(0 1.620296717e-11 -2.31129642e-12)
(0 2.594252349e-12 -9.853471773e-12)
(0 -2.356351033e-12 5.474959788e-12)
(0 2.212101859e-12 5.952366198e-12)
(0 3.321707374e-12 1.180523031e-12)
(0 1.27429172e-12 6.800230431e-13)
(0 -6.451679379e-13 2.378179461e-12)
(0 9.366600393e-13 8.61720536e-12)
(0 6.872048295e-12 1.049955606e-11)
(0 7.031296249e-12 4.432167091e-13)
(0 8.424600317e-12 1.487204069e-11)
(0 -1.611399863e-11 1.406729109e-12)
(0 -2.617158294e-11 -6.472928491e-11)
(0 1.617705809e-10 -1.031893183e-11)
(0 1.650617418e-10 -3.076959683e-11)
(0 1.704447255e-10 -5.07063386e-11)
(0 1.778392415e-10 -6.979335773e-11)
(0 1.870713215e-10 -8.759505692e-11)
(0 1.977758999e-10 -1.034685197e-10)
(0 2.092573545e-10 -1.16504986e-10)
(0 2.202974379e-10 -1.255286944e-10)
(0 2.288800477e-10 -1.291851844e-10)
(0 2.31789297e-10 -1.2619828e-10)
(0 2.240685458e-10 -1.159635983e-10)
(0 1.985855373e-10 -9.979143314e-11)
(0 1.469059737e-10 -8.305696988e-11)
(0 6.696577303e-11 -7.698316329e-11)
(1.908146368e-52 -2.029171291e-11 -7.821174363e-11)
(3.892490471e-52 -4.238546786e-12 3.468671853e-24)
(0 -2.311296268e-12 1.610456174e-11)
(0 3.886626612e-12 3.772665308e-12)
(0 2.158637986e-12 -6.022217041e-13)
(0 7.873327739e-13 2.545044437e-12)
(0 1.794499451e-12 3.307030397e-12)
(0 2.264233219e-12 2.247489515e-12)
(0 1.809134091e-12 2.117130365e-12)
(0 1.572453005e-12 3.098943378e-12)
(0 2.819789563e-12 5.067717427e-12)
(0 5.67266951e-12 5.258614047e-12)
(0 8.601276077e-12 2.593532125e-12)
(0 1.633734804e-11 3.591301715e-12)
(0 3.527405832e-11 -9.64099679e-12)
(0 -4.176210386e-12 -3.210488617e-11)
(0 1.394731878e-10 -1.213640778e-11)
(0 1.427594058e-10 -3.612363839e-11)
(0 1.480427466e-10 -5.953503338e-11)
(0 1.553244596e-10 -8.217024088e-11)
(0 1.645465876e-10 -1.036985781e-10)
(0 1.754945129e-10 -1.234762074e-10)
(0 1.876498925e-10 -1.404368137e-10)
(0 1.99988532e-10 -1.530183085e-10)
(0 2.106579667e-10 -1.591160292e-10)
(0 2.163983521e-10 -1.560717126e-10)
(0 2.113814432e-10 -1.40729916e-10)
(0 1.847557694e-10 -1.097076746e-10)
(0 1.151598481e-10 -6.04233565e-11)
(0 -3.061002956e-11 3.728244913e-12)
(0 -3.347266022e-10 8.008350729e-11)
(0 -8.770825274e-12 -1.055703028e-11)
(0 -9.94273217e-12 2.339498505e-12)
(0 -5.038159798e-13 1.899967531e-12)
(0 1.366631485e-12 1.127029218e-12)
(0 1.552901059e-12 2.000365422e-12)
(0 1.914546939e-12 2.483015842e-12)
(0 2.131807346e-12 2.384912681e-12)
(0 2.125745581e-12 2.44150458e-12)
(0 2.305419116e-12 2.83246282e-12)
(0 3.096330702e-12 3.296041112e-12)
(0 4.397862999e-12 2.874377026e-12)
(0 5.36398392e-12 1.081707664e-12)
(0 4.619489553e-12 -1.889478808e-12)
(0 -6.810187769e-12 -1.166935296e-11)
(0 -9.696210796e-12 1.225717554e-11)
(0 1.141196083e-10 -1.413227141e-11)
(0 1.172494091e-10 -4.17562417e-11)
(0 1.220406286e-10 -6.85805694e-11)
(0 1.28645132e-10 -9.47282679e-11)
(0 1.371842167e-10 -1.201094878e-10)
(0 1.476715822e-10 -1.441788108e-10)
(0 1.599073539e-10 -1.658191889e-10)
(0 1.733616463e-10 -1.832450635e-10)
(0 1.870334741e-10 -1.939026825e-10)
(0 1.993219925e-10 -1.943714319e-10)
(0 2.080251313e-10 -1.802675115e-10)
(0 2.107531432e-10 -1.46256788e-10)
(0 2.042295551e-10 -8.734954278e-11)
(0 1.995306823e-10 -1.214489105e-11)
(0 1.431835699e-11 1.45640709e-24)
(0 1.822556311e-11 -1.070300907e-11)
(0 5.394925685e-12 -2.840322896e-12)
(0 2.674157352e-12 3.606625666e-13)
(0 2.259035885e-12 1.20998562e-12)
(0 2.143319399e-12 1.846252701e-12)
(0 2.179046711e-12 2.239532798e-12)
(0 2.222721958e-12 2.367317254e-12)
(0 2.256684231e-12 2.431064235e-12)
(0 2.426989536e-12 2.492941788e-12)
(0 2.861703767e-12 2.409822445e-12)
(0 3.45833606e-12 1.86162818e-12)
(0 3.837420245e-12 7.482259467e-13)
(0 3.586287441e-12 -5.614743884e-13)
(0 2.935713197e-12 -9.189666155e-13)
(0 5.119604562e-12 2.206805115e-12)
(0 8.621002001e-11 -1.652590719e-11)
(0 8.892967419e-11 -4.771659662e-11)
(0 9.261158206e-11 -7.751835847e-11)
(0 9.771830037e-11 -1.067892292e-10)
(0 1.045834831e-10 -1.358514768e-10)
(0 1.134394304e-10 -1.643524948e-10)
(0 1.243844646e-10 -1.912410755e-10)
(0 1.373293691e-10 -2.147108281e-10)
(0 1.519116488e-10 -2.321524462e-10)
(0 1.674471832e-10 -2.402424957e-10)
(0 1.831615493e-10 -2.353911456e-10)
(0 1.994191507e-10 -2.147696313e-10)
(0 2.185507191e-10 -1.774120948e-10)
(0 2.689707895e-10 -1.169062806e-10)
(0 9.421602367e-12 -2.751203336e-24)
(0 1.326423908e-11 5.286744355e-12)
(0 5.871715287e-12 1.392036463e-12)
(0 3.546492549e-12 1.17280569e-12)
(0 2.852221622e-12 1.505752918e-12)
(0 2.582448239e-12 1.93481477e-12)
(0 2.435611493e-12 2.261193761e-12)
(0 2.323338783e-12 2.413424485e-12)
(0 2.251370116e-12 2.42221371e-12)
(0 2.284177327e-12 2.2982929e-12)
(0 2.465017093e-12 1.988874892e-12)
(0 2.736266498e-12 1.41462907e-12)
(0 2.940881346e-12 6.11338967e-13)
(0 2.952296988e-12 -1.854217496e-13)
(0 2.902508638e-12 -5.958114825e-13)
(0 3.230742463e-12 -6.30069894e-13)
(0 5.71536532e-11 -2.014432646e-11)
(0 5.862587554e-11 -5.430473162e-11)
(0 6.017388769e-11 -8.594959938e-11)
(0 6.271133028e-11 -1.17436364e-10)
(0 6.667555103e-11 -1.49569678e-10)
(0 7.238860701e-11 -1.821822054e-10)
(0 8.012408253e-11 -2.143135182e-10)
(0 9.00537814e-11 -2.441621959e-10)
(0 1.020093125e-10 -2.689534961e-10)
(0 1.148759597e-10 -2.848705854e-10)
(0 1.252278138e-10 -2.872743279e-10)
(0 1.244964004e-10 -2.714621501e-10)
(0 9.502197387e-11 -2.334489223e-10)
(0 2.836738391e-14 -1.602501153e-10)
(0 -5.270285989e-12 -1.266483244e-24)
(0 -5.257787752e-12 5.582271964e-12)
(0 1.280987029e-12 1.948573868e-12)
(0 2.787873807e-12 1.432406395e-12)
(0 3.021044963e-12 1.705036515e-12)
(0 2.898760241e-12 2.125660485e-12)
(0 2.657656424e-12 2.456603555e-12)
(0 2.383741906e-12 2.60269071e-12)
(0 2.141552646e-12 2.546012056e-12)
(0 1.993650719e-12 2.289300843e-12)
(0 1.978039939e-12 1.833179858e-12)
(0 2.080800138e-12 1.197291869e-12)
(0 2.237369429e-12 4.684058264e-13)
(0 2.379136994e-12 -1.952386277e-13)
(0 2.491065054e-12 -6.483984254e-13)
(0 2.517080207e-12 -9.327678922e-13)
(0 3.098369171e-11 -2.735697659e-11)
(0 2.725934023e-11 -6.197485665e-11)
(0 2.514106854e-11 -9.328191953e-11)
(0 2.401638185e-11 -1.255232624e-10)
(0 2.387504441e-11 -1.596531513e-10)
(0 2.488126737e-11 -1.955235192e-10)
(0 2.738868587e-11 -2.322432181e-10)
(0 3.1895141e-11 -2.680436165e-10)
(0 3.887884766e-11 -2.999073017e-10)
(0 4.830839174e-11 -3.229660916e-10)
(0 5.840555111e-11 -3.295746405e-10)
(0 6.287105906e-11 -3.080861376e-10)
(0 4.663329428e-11 -2.425604546e-10)
(0 -2.537533687e-11 -1.258445218e-10)
(0 -5.120737165e-12 1.886097974e-24)
(0 -4.911798543e-12 -5.031029937e-12)
(0 1.721849729e-12 -6.12636979e-13)
(0 3.302955199e-12 9.030243952e-13)
(0 3.545475713e-12 1.755993039e-12)
(0 3.33401528e-12 2.405787377e-12)
(0 2.912641718e-12 2.836547506e-12)
(0 2.412747284e-12 2.994614806e-12)
(0 1.937980248e-12 2.870045412e-12)
(0 1.571345129e-12 2.48011752e-12)
(0 1.373008119e-12 1.857717384e-12)
(0 1.371492466e-12 1.073318083e-12)
(0 1.54835085e-12 2.607085259e-13)
(0 1.835492736e-12 -4.150813575e-13)
(0 2.164979374e-12 -8.694455444e-13)
(0 2.4079638e-12 -9.811362813e-13)
(0 -2.197213856e-12 -5.268757814e-11)
(0 -8.128571731e-12 -7.212528113e-11)
(0 -1.30082978e-11 -9.875583233e-11)
(0 -1.784515385e-11 -1.297890081e-10)
(0 -2.283080535e-11 -1.644388426e-10)
(0 -2.789507656e-11 -2.02176068e-10)
(0 -3.26345053e-11 -2.421784646e-10)
(0 -3.621747419e-11 -2.829366368e-10)
(0 -3.721267302e-11 -3.217543117e-10)
(0 -3.328312219e-11 -3.539827847e-10)
(0 -2.05458741e-11 -3.717824452e-10)
(0 7.965294398e-12 -3.622462294e-10)
(0 6.284655677e-11 -3.055719526e-10)
(0 1.802807489e-10 -1.821359335e-10)
(0 9.823295558e-12 3.170041755e-24)
(0 1.425418675e-11 -4.96909303e-12)
(0 7.215041362e-12 -2.709754956e-13)
(0 5.156503826e-12 1.036179337e-12)
(0 4.523807947e-12 2.009948441e-12)
(0 3.979314709e-12 2.904715629e-12)
(0 3.246483853e-12 3.489004594e-12)
(0 2.417239812e-12 3.669279562e-12)
(0 1.627055359e-12 3.45977212e-12)
(0 9.8132269e-13 2.90378832e-12)
(0 5.712405008e-13 2.044469196e-12)
(0 4.837912784e-13 9.780060005e-13)
(0 7.489699872e-13 -8.36188805e-14)
(0 1.248982923e-12 -8.560058712e-13)
(0 1.925010129e-12 -1.432505279e-12)
(0 2.959090618e-12 -1.694814512e-12)
(0 -4.335040817e-11 -6.272839682e-11)
(0 -4.707889996e-11 -7.696283057e-11)
(0 -5.316177357e-11 -9.992173282e-11)
(0 -6.131879067e-11 -1.288054113e-10)
(0 -7.151335689e-11 -1.624195974e-10)
(0 -8.368510993e-11 -2.001183788e-10)
(0 -9.753144583e-11 -2.412557803e-10)
(0 -1.122874671e-10 -2.84782695e-10)
(0 -1.264333236e-10 -3.288307615e-10)
(0 -1.372594045e-10 -3.701828461e-10)
(0 -1.401903005e-10 -4.035335019e-10)
(0 -1.277105585e-10 -4.20198604e-10)
(0 -8.952744384e-11 -4.043791947e-10)
(0 1.31365618e-14 -3.135086527e-10)
(0 1.478555714e-11 -7.505474281e-25)
(0 1.96926133e-11 1.030131593e-11)
(0 7.727122096e-12 3.461923727e-12)
(0 5.583879134e-12 1.503116585e-12)
(0 5.414012004e-12 2.342478386e-12)
(0 4.813071433e-12 3.713715543e-12)
(0 3.677205651e-12 4.545378491e-12)
(0 2.38351481e-12 4.734018577e-12)
(0 1.172489006e-12 4.396433291e-12)
(0 1.560422048e-13 3.631047716e-12)
(0 -5.527741994e-13 2.438448341e-12)
(0 -7.565956109e-13 8.772821082e-13)
(0 -2.856610216e-13 -7.162952519e-13)
(0 4.866063389e-13 -1.491971665e-12)
(0 1.326170733e-12 -2.310841282e-12)
(0 4.893389575e-12 -5.417879205e-12)
(0 -8.057428721e-11 -6.505996763e-11)
(0 -8.444277915e-11 -7.638845147e-11)
(0 -9.21554504e-11 -9.600118148e-11)
(0 -1.037111786e-10 -1.218057334e-10)
(0 -1.192645141e-10 -1.526692278e-10)
(0 -1.389960959e-10 -1.879766454e-10)
(0 -1.629526455e-10 -2.272497434e-10)
(0 -1.908541794e-10 -2.698168532e-10)
(0 -2.218909837e-10 -3.144602195e-10)
(0 -2.545958798e-10 -3.589564445e-10)
(0 -2.870715746e-10 -3.993723049e-10)
(0 -3.182777303e-10 -4.287963133e-10)
(0 -3.52176214e-10 -4.347553894e-10)
(0 -3.989586915e-10 -3.92838645e-10)
(0 -5.013932386e-10 -2.769076737e-10)
(0 -7.159276845e-12 1.008983019e-11)
(0 -6.333933822e-12 -2.43589437e-12)
(0 4.037058483e-12 -8.293953616e-13)
(0 6.734406905e-12 2.141853757e-12)
(0 6.182214815e-12 5.061424296e-12)
(0 4.266786888e-12 6.244655519e-12)
(0 2.268294612e-12 6.325280993e-12)
(0 5.240844977e-13 5.761172233e-12)
(0 -9.766622599e-13 4.785255263e-12)
(0 -2.182525107e-12 3.199977266e-12)
(0 -2.670952316e-12 8.111611573e-13)
(0 -1.620283787e-12 -2.164550773e-12)
(0 -3.455631072e-13 -2.085399145e-12)
(0 -8.945314177e-12 6.044138005e-12)
(0 -9.357428305e-12 -1.692844308e-11)
(0 -1.134527339e-10 -6.164590819e-11)
(0 -1.180105825e-10 -7.077113351e-11)
(0 -1.274965737e-10 -8.69946147e-11)
(0 -1.422567745e-10 -1.087793542e-10)
(0 -1.627679155e-10 -1.351663214e-10)
(0 -1.89566889e-10 -1.655906465e-10)
(0 -2.231468746e-10 -1.996478645e-10)
(0 -2.637820737e-10 -2.368396021e-10)
(0 -3.112882289e-10 -2.762502289e-10)
(0 -3.647057092e-10 -3.160367782e-10)
(0 -4.218191999e-10 -3.524913639e-10)
(0 -4.780881586e-10 -3.782015919e-10)
(0 -5.234819317e-10 -3.786419565e-10)
(0 -5.309192229e-10 -3.273559749e-10)
(0 -4.388910847e-10 -1.962152981e-10)
(0 -2.867892531e-12 -2.477535491e-24)
(0 1.558672415e-12 -1.771611011e-11)
(0 1.016162726e-11 -4.52800661e-12)
(0 1.130483166e-11 1.99171635e-12)
(0 8.915873196e-12 8.144573743e-12)
(0 4.941062349e-12 9.0467829e-12)
(0 1.900031524e-12 8.561915836e-12)
(0 -3.675367248e-13 7.537962346e-12)
(0 -2.405152762e-12 6.548350575e-12)
(0 -4.526868306e-12 4.766764228e-12)
(0 -6.121123652e-12 1.335453671e-12)
(0 -3.182221325e-12 -6.665519282e-12)
(0 8.695295116e-12 -1.072875818e-11)
(0 3.296812602e-11 -9.835131549e-13)
(0 -2.000313388e-12 2.548212332e-11)
)
;

boundaryField
{
    lowerWall
    {
        type            slip;
    }
    atmosphere
    {
        type            pressureInletOutletVelocity;
        tangentialVelocity uniform (0 0 0);
        value           nonuniform List<vector> 
20
(
(0 2.463259914e-10 0)
(0 2.451056896e-10 0)
(0 2.429680032e-10 0)
(0 2.397198096e-10 0)
(0 2.351103242e-10 0)
(0 2.288468356e-10 0)
(0 2.206105285e-10 0)
(0 2.100750141e-10 0)
(0 1.969275413e-10 0)
(0 1.808938641e-10 0)
(0 1.617705809e-10 0)
(0 1.394731878e-10 0)
(0 1.141196083e-10 0)
(0 8.621002001e-11 0)
(0 5.71536532e-11 0)
(0 3.098369171e-11 0)
(0 -2.197213856e-12 -5.268757814e-11)
(0 -4.335040817e-11 -6.272839682e-11)
(0 -8.057428721e-11 -6.505996763e-11)
(0 -1.134527339e-10 -6.164590819e-11)
)
;
    }
    rightWall
    {
        type            empty;
    }
    leftWall
    {
        type            empty;
    }
    frontAndBack
    {
        type            slip;
    }
    procBoundary0to1
    {
        type            processor;
        value           nonuniform List<vector> 
20
(
(0 2.316669972e-12 4.228817567e-14)
(0 2.39376844e-12 1.343601009e-13)
(0 2.559790378e-12 2.520571442e-13)
(0 2.842183069e-12 4.254643662e-13)
(0 3.293692325e-12 7.159091683e-13)
(0 4.01251777e-12 1.268041069e-12)
(0 5.182309609e-12 2.467886653e-12)
(0 7.140876869e-12 5.474352936e-12)
(0 1.044035708e-11 1.417106982e-11)
(0 -6.769250141e-12 2.056890044e-11)
(0 -3.772056132e-11 2.083599904e-12)
(0 -4.364029174e-12 -1.406873158e-11)
(0 3.883410776e-12 -8.116625194e-12)
(0 2.383357679e-12 -3.198335852e-12)
(0 1.938082231e-12 -1.471177091e-12)
(0 1.990021341e-12 -4.274351308e-13)
(0 2.609210985e-12 1.052920504e-12)
(0 4.521233892e-12 5.4972516e-12)
(0 -2.823596344e-12 1.084562865e-11)
(0 -3.439050801e-11 -5.706955759e-12)
)
;
    }
    procBoundary0to2
    {
        type            processor;
        value           nonuniform List<vector> 
30
(
(0 -1.410430055e-10 -5.413067007e-11)
(0 -1.462581142e-10 -6.114156978e-11)
(0 -1.57214308e-10 -7.368506795e-11)
(0 -1.744988e-10 -9.057474666e-11)
(0 -1.988754233e-10 -1.10969807e-10)
(0 -2.312160556e-10 -1.342943157e-10)
(0 -2.724202655e-10 -1.60108073e-10)
(0 -3.232336908e-10 -1.879405997e-10)
(0 -3.839325057e-10 -2.170695166e-10)
(0 -4.537716317e-10 -2.461787318e-10)
(0 -5.299297419e-10 -2.728210963e-10)
(0 -6.052741715e-10 -2.926580068e-10)
(0 -6.635039919e-10 -2.988350682e-10)
(0 -6.691985177e-10 -2.82854688e-10)
(0 -5.579696333e-10 -2.40908486e-10)
(0 -2.149501175e-10 -1.64388814e-10)
(0 1.401344648e-11 -1.25059427e-11)
(0 2.374488489e-11 -1.558672384e-12)
(0 1.940698725e-11 2.207816995e-12)
(0 1.323728136e-11 1.647851632e-11)
(0 4.684128981e-12 1.323690253e-11)
(0 7.594740574e-13 1.133884152e-11)
(0 -1.489480763e-12 9.281034122e-12)
(0 -3.747860377e-12 9.103408614e-12)
(0 -7.39542201e-12 7.984685201e-12)
(0 -1.410323583e-11 6.431316445e-12)
(0 -1.368449564e-11 -1.510404687e-11)
(0 -3.092975449e-12 -2.47501756e-11)
(0 -1.773443139e-11 -8.425506206e-12)
(0 -1.883164618e-11 5.715708208e-11)
)
;
    }
}


// ************************************************************************* //
