/*--------------------------------*- C++ -*----------------------------------*\
  =========                 |
  \\      /  F ield         | OpenFOAM: The Open Source CFD Toolbox
   \\    /   O peration     | Website:  https://openfoam.org
    \\  /    A nd           | Version:  6
     \\/     M anipulation  |
\*---------------------------------------------------------------------------*/
FoamFile
{
    version     2.0;
    format      ascii;
    class       volScalarField;
    location    "0.0045";
    object      ViscousDissipation;
}
// * * * * * * * * * * * * * * * * * * * * * * * * * * * * * * * * * * * * * //

dimensions      [1 -1 -3 0 0 0 0];

internalField   nonuniform List<scalar> 
600
(
6.496141546e-22
2.372789494e-21
4.31345079e-21
5.617846555e-21
5.451697878e-21
3.675426116e-21
1.982605907e-21
5.276006174e-21
2.314673809e-20
7.077835144e-20
1.679515635e-19
3.343071456e-19
5.798881634e-19
8.935791194e-19
1.238266838e-18
1.563942646e-18
1.836859467e-18
2.051849836e-18
2.177517927e-18
2.051860629e-18
1.472633134e-18
6.388451661e-19
1.40667596e-19
5.335820781e-19
2.257520886e-18
5.342475765e-18
8.220705834e-18
7.930661168e-18
2.613801383e-18
1.004652922e-19
3.312623389e-21
5.051397696e-21
6.956337028e-21
8.224868238e-21
8.084667283e-21
6.439880703e-21
5.005480333e-21
8.680809457e-21
2.705208086e-20
7.542113236e-20
1.739972845e-19
3.432491441e-19
5.936188364e-19
9.11418833e-19
1.250504888e-18
1.547823157e-18
1.772627105e-18
1.972676178e-18
2.205686704e-18
2.301001346e-18
1.884702675e-18
1.127218386e-18
7.064568007e-19
1.15105287e-18
2.965354269e-18
6.395441318e-18
9.745099917e-18
9.714026712e-18
4.331718271e-18
7.228939577e-19
8.806208083e-21
1.067975297e-20
1.271173611e-20
1.417273747e-20
1.434946042e-20
1.31474343e-20
1.219967772e-20
1.619961243e-20
3.445033832e-20
8.211322502e-20
1.799379674e-19
3.500658522e-19
6.048064793e-19
9.275034338e-19
1.255038792e-18
1.49125347e-18
1.592608846e-18
1.706415904e-18
2.120175744e-18
2.685979156e-18
2.554085164e-18
1.772826437e-18
1.3139003e-18
1.70237055e-18
3.654225897e-18
7.836456172e-18
1.222811202e-17
1.294431782e-17
8.289166732e-18
2.181902367e-18
1.910478572e-20
2.127793881e-20
2.368125326e-20
2.568789523e-20
2.665062203e-20
2.645958823e-20
2.659021393e-20
3.136420086e-20
4.950528775e-20
9.570105606e-20
1.911751675e-19
3.607530984e-19
6.213709573e-19
9.562977386e-19
1.279177029e-18
1.42901e-18
1.296625516e-18
1.175965019e-18
1.88433142e-18
3.33594496e-18
3.570886155e-18
2.3055149e-18
1.453017845e-18
1.657572265e-18
4.240738784e-18
1.005773307e-17
1.622425436e-17
1.827714223e-17
1.625226918e-17
5.138908044e-18
3.700590262e-20
3.975179042e-20
4.296160836e-20
4.612242455e-20
4.862565317e-20
5.028371619e-20
5.229277605e-20
5.837414844e-20
7.630004968e-20
1.197630566e-19
2.101595827e-19
3.762326707e-19
6.451084759e-19
1.011125968e-18
1.37111068e-18
1.468394567e-18
1.023661776e-18
4.960128684e-19
1.99540318e-18
4.819239748e-18
5.16612633e-18
2.362702785e-18
6.930379061e-19
1.057493866e-18
5.937517609e-18
1.425810561e-17
2.232635739e-17
2.566483595e-17
3.053396629e-17
1.0839241e-17
6.63619025e-20
7.006374187e-20
7.470827956e-20
7.987645616e-20
8.491245591e-20
8.942113037e-20
9.41257599e-20
1.018783331e-19
1.19081841e-19
1.577310868e-19
2.384765423e-19
3.945585361e-19
6.716486545e-19
1.102208413e-18
1.610467182e-18
1.877132853e-18
1.437875171e-18
7.28877599e-19
5.502599191e-18
8.66626367e-18
8.356570192e-18
2.526401013e-18
5.790111071e-19
3.884973619e-18
1.701883742e-17
2.264079187e-17
2.902805283e-17
3.074364934e-17
5.196279459e-17
2.137418212e-17
1.120199967e-19
1.171502324e-19
1.240130802e-19
1.322069319e-19
1.408465176e-19
1.490632902e-19
1.567707759e-19
1.6559412e-19
1.801948932e-19
2.102125499e-19
2.739527033e-19
4.070619978e-19
6.801548629e-19
1.213208087e-18
2.091822688e-18
3.144922088e-18
4.561354095e-18
5.53061885e-18
2.949188127e-17
1.415914381e-17
4.324093281e-18
1.383628104e-18
3.322132535e-18
1.931952757e-17
1.589073403e-17
2.472090913e-17
3.121654338e-17
2.095714171e-17
6.852477192e-17
3.95190013e-17
1.795418202e-19
1.866252781e-19
1.965886769e-19
2.088925026e-19
2.220810963e-19
2.342828466e-19
2.439021815e-19
2.50634535e-19
2.569854811e-19
2.702486684e-19
3.058008903e-19
3.968270005e-19
6.284594775e-19
1.245775001e-18
2.831367907e-18
6.291974714e-18
1.401952679e-17
2.327131922e-17
6.699087508e-19
1.080699938e-17
7.229240067e-18
2.040130592e-18
2.093626231e-18
1.724086847e-18
6.60896898e-18
2.738415063e-17
6.705196961e-17
6.088902748e-17
3.328668811e-17
6.748422395e-17
2.746515887e-19
2.842200688e-19
2.982489553e-19
3.158420968e-19
3.344352506e-19
3.501987635e-19
3.585969254e-19
3.556756219e-19
3.40558923e-19
3.192614618e-19
3.101704036e-19
3.544807829e-19
5.471156805e-19
1.171915867e-18
3.723685709e-18
2.016936681e-17
5.811381706e-18
4.753457129e-18
1.361520693e-17
1.694605269e-16
1.65045749e-16
4.597349713e-17
6.345743597e-17
7.591576337e-17
1.83715874e-16
8.994653782e-17
4.239408552e-17
1.455445841e-16
8.997558087e-17
9.65884117e-17
4.023478787e-19
4.148467681e-19
4.340692109e-19
4.586149881e-19
4.841641349e-19
5.035652854e-19
5.069853515e-19
4.833752748e-19
4.249039589e-19
3.371387081e-19
2.605440199e-19
3.194837761e-19
8.710257204e-19
2.890247582e-18
7.902979515e-18
5.853755945e-18
7.328249823e-18
8.640072911e-17
1.878303465e-16
1.876874522e-16
5.494128407e-17
2.972699966e-17
1.351922764e-17
4.936053876e-17
9.745298013e-17
1.270059498e-16
8.228394796e-18
2.208389909e-16
1.006825831e-16
3.271011119e-20
5.655834013e-19
5.810136734e-19
6.068296667e-19
6.413484042e-19
6.780464344e-19
7.052107723e-19
7.053099213e-19
6.560650945e-19
5.372625405e-19
3.5462008e-19
2.143767079e-19
5.414356565e-19
2.62109787e-18
9.191372081e-18
2.355470891e-17
3.898778758e-18
8.949593242e-17
1.816908176e-16
4.060738698e-17
1.303944902e-17
4.388686898e-18
1.305525829e-18
1.533776998e-18
5.682555811e-18
1.660179623e-17
3.16492295e-17
3.649441165e-17
3.417731091e-16
2.865959917e-16
1.940183473e-18
7.633969243e-19
7.80098798e-19
8.140433341e-19
8.640291389e-19
9.213072165e-19
9.695026895e-19
9.834932791e-19
9.301805024e-19
7.780475824e-19
5.387302804e-19
4.330539167e-19
1.561129923e-18
7.960430017e-18
3.825521728e-17
7.926455981e-19
1.191546129e-17
1.92232214e-16
4.344055208e-17
2.297318614e-18
1.361545533e-18
5.397706651e-19
1.902270463e-20
1.61357305e-19
8.444098723e-19
3.489650741e-18
8.075416131e-18
1.489083474e-17
1.495801321e-16
1.36119454e-16
2.009778896e-19
9.881919866e-19
9.998684149e-19
1.04318822e-18
1.117538514e-18
1.211434129e-18
1.304985782e-18
1.369386773e-18
1.369458009e-18
1.279123417e-18
1.130779356e-18
1.152399212e-18
2.115571016e-18
5.661309514e-18
1.58833317e-17
1.216944821e-17
1.569718408e-16
1.841307273e-16
1.31617297e-17
1.475328447e-18
6.495677346e-19
1.824701016e-19
2.445907245e-20
2.246532612e-20
1.988674326e-19
1.088233921e-18
2.623321248e-18
3.652521938e-18
2.828124401e-18
6.184953924e-17
5.590866026e-17
1.219498938e-18
1.212304717e-18
1.267004278e-18
1.379193008e-18
1.530921587e-18
1.699280829e-18
1.853939972e-18
1.958734539e-18
1.987553076e-18
1.964464906e-18
2.021865194e-18
2.377023576e-18
3.504598069e-18
4.344117361e-18
7.965164112e-18
1.590928123e-16
4.610146518e-17
3.137344146e-18
7.120371578e-19
4.246760147e-19
1.745027365e-19
4.305473198e-20
1.258497765e-20
1.410595992e-19
6.398233504e-19
1.360664047e-18
1.599160727e-18
9.298874257e-19
1.665792809e-19
7.216771054e-18
1.403304875e-18
1.37033521e-18
1.445871751e-18
1.616046759e-18
1.848805645e-18
2.119469482e-18
2.394509121e-18
2.621544876e-18
2.724334958e-18
2.601779124e-18
2.137049629e-18
1.399544886e-18
2.479404998e-18
1.33236789e-18
1.90721132e-18
8.568175771e-17
3.146280311e-17
9.818656267e-19
3.15977664e-19
4.52327577e-19
3.205551556e-19
1.890738062e-19
1.674263106e-19
3.280616568e-19
7.346830952e-19
1.19175933e-18
1.247015164e-18
7.962128216e-19
3.60301414e-19
5.43427517e-19
1.929748196e-18
1.481416035e-18
1.559884863e-18
1.800680812e-18
2.131482921e-18
2.528305233e-18
2.957956317e-18
3.349710552e-18
3.563052018e-18
3.34870893e-18
2.384979929e-18
9.44271093e-19
3.339491043e-18
1.510510312e-17
1.572850507e-18
1.026643829e-16
4.35482594e-17
4.483092618e-18
1.405738962e-18
1.019119981e-18
7.951491715e-19
6.371494604e-19
6.318020313e-19
8.373025998e-19
1.232531865e-18
1.579170994e-18
1.509362196e-18
1.027844209e-18
4.827361515e-19
3.055033023e-19
8.444796748e-19
1.21761327e-18
1.536482457e-18
1.894838888e-18
2.338922027e-18
2.883130081e-18
3.51520355e-18
4.17830941e-18
4.740451539e-18
4.97435657e-18
4.68333338e-18
4.466970993e-18
9.526507417e-18
1.254951567e-17
6.17253383e-18
1.640067892e-16
5.228403918e-17
5.489495635e-18
2.656061317e-18
2.352866255e-18
1.990659861e-18
1.72249238e-18
1.696218284e-18
1.965067422e-18
2.439609473e-18
2.782764071e-18
2.520522081e-18
1.884642417e-18
1.953961459e-18
9.910207981e-18
7.215549669e-19
1.072693377e-18
1.446270915e-18
1.88150457e-18
2.429199147e-18
3.126769106e-18
3.994308622e-18
5.021342746e-18
6.151991962e-18
7.296823522e-18
8.452748965e-18
1.004448508e-17
1.339353718e-17
1.122836583e-17
1.165656512e-17
1.334508714e-16
1.382405004e-16
3.455960479e-18
3.165830234e-18
5.296919936e-18
4.749559169e-18
4.076892792e-18
3.869205952e-18
4.324265063e-18
5.284808838e-18
6.098724581e-18
5.214630587e-18
2.803002368e-18
5.634119445e-17
7.696424214e-17
5.498773693e-19
8.846593833e-19
1.272789936e-18
1.75212177e-18
2.377770697e-18
3.207945231e-18
4.29655424e-18
5.680624893e-18
7.362921112e-18
9.296808158e-18
1.137442497e-17
1.336405174e-17
1.432822661e-17
1.601156337e-17
3.010661098e-17
3.256013635e-17
2.194684615e-16
7.594053744e-17
2.260136139e-17
1.810710378e-17
1.182204761e-17
8.880439007e-18
7.665279917e-18
8.827888141e-18
1.215808249e-17
1.770657902e-17
1.755911156e-17
8.34551225e-17
6.83198497e-17
1.655918597e-19
4.209387426e-19
6.989560941e-19
1.058022357e-18
1.537646072e-18
2.198372511e-18
3.114763594e-18
4.367864181e-18
6.026340699e-18
8.102640179e-18
1.045215131e-17
1.253263579e-17
1.289759337e-17
8.810768935e-18
2.019680303e-18
4.002380019e-17
3.312740459e-17
1.20823716e-16
2.659533667e-16
9.839569195e-17
8.244103316e-17
3.00185676e-17
1.764320684e-17
1.190038348e-17
1.56417746e-17
2.77579789e-17
8.986399774e-17
2.067169158e-16
5.563406155e-16
2.133259355e-16
1.686080287e-18
)
;

boundaryField
{
    lowerWall
    {
        type            calculated;
        value           nonuniform 0();
    }
    atmosphere
    {
        type            calculated;
        value           nonuniform List<scalar> 
20
(
4.947196502e-22
3.165090982e-21
8.674936255e-21
1.899693409e-20
3.692491833e-20
6.630691847e-20
1.119883026e-19
1.795346688e-19
2.746909736e-19
4.025311301e-19
5.662838801e-19
7.660088911e-19
9.978761779e-19
1.255217088e-18
1.536307678e-18
2.461045815e-18
5.821424959e-19
5.213468692e-19
4.060207422e-19
3.177170551e-19
)
;
    }
    rightWall
    {
        type            empty;
    }
    leftWall
    {
        type            empty;
    }
    frontAndBack
    {
        type            calculated;
        value           nonuniform List<scalar> 
30
(
3.503367561e-22
2.079773181e-21
4.024507677e-21
5.319656086e-21
5.116003382e-21
3.259235625e-21
1.432787946e-21
4.545850892e-21
2.222518457e-20
6.972991329e-20
1.669488088e-19
3.336270241e-19
5.799056375e-19
8.948727998e-19
1.242028483e-18
1.572336099e-18
1.851927717e-18
2.071402096e-18
2.190853001e-18
2.045742412e-18
1.448620903e-18
5.99717155e-19
8.312037895e-20
4.664544052e-19
2.190870381e-18
5.258021251e-18
8.107087376e-18
7.823233156e-18
2.54730613e-18
1.00254929e-19
)
;
    }
    procBoundary0to1
    {
        type            processor;
        value           nonuniform List<scalar> 
20
(
3.296419074e-19
3.756722023e-19
4.927764539e-19
7.594206098e-19
1.42252167e-18
3.418714185e-18
1.145408027e-17
5.893872118e-17
1.266643919e-16
2.746338502e-16
5.982630057e-16
1.319702049e-16
4.667146792e-17
1.807740602e-17
3.270604592e-18
2.818011614e-18
1.581936396e-17
3.670231981e-17
1.062191981e-16
4.917676919e-16
)
;
    }
    procBoundary0to2
    {
        type            processor;
        value           nonuniform List<scalar> 
30
(
3.072460504e-19
5.22208463e-19
8.305604803e-19
1.277225523e-18
1.929838761e-18
2.877075975e-18
4.22320603e-18
6.066071778e-18
8.439366619e-18
1.118055834e-17
1.366410368e-17
1.442373244e-17
1.147338726e-17
8.002240809e-18
3.658885872e-17
9.779031973e-17
7.342133396e-17
2.261041983e-17
1.137739427e-16
4.012742193e-16
7.867314288e-17
3.1115964e-17
1.002791916e-17
2.281885123e-17
5.143572361e-17
5.013065155e-16
4.09153908e-16
1.167376957e-17
5.925000904e-18
5.772200898e-20
)
;
    }
}


// ************************************************************************* //
