/*--------------------------------*- C++ -*----------------------------------*\
  =========                 |
  \\      /  F ield         | OpenFOAM: The Open Source CFD Toolbox
   \\    /   O peration     | Website:  https://openfoam.org
    \\  /    A nd           | Version:  10
     \\/     M anipulation  |
\*---------------------------------------------------------------------------*/
FoamFile
{
    format      ascii;
    class       volVectorField;
    location    "0.0002";
    object      Marangoni;
}
// * * * * * * * * * * * * * * * * * * * * * * * * * * * * * * * * * * * * * //

dimensions      [1 -2 -2 0 0 0 0];

internalField   nonuniform List<vector> 
3600
(
(-0 0.0005263977847 1.226361151e-05)
(-0 0.0002460461389 5.297844635e-06)
(-0 4.148115161e-05 8.299909985e-07)
(-0 1.580739219e-05 2.957167722e-07)
(-0 4.099541947e-06 7.21468411e-08)
(-0 1.137086366e-06 1.893467114e-08)
(-0 4.237158717e-07 6.710984393e-09)
(-0 1.931924428e-06 2.92367424e-08)
(-0 5.322464914e-07 7.726416803e-09)
(-0 1.026339499e-06 1.433915103e-08)
(-0 6.097188227e-07 8.221313687e-09)
(-0 1.040631607e-06 1.35738589e-08)
(-0 6.957196291e-07 8.795990487e-09)
(-0 6.453009267e-07 7.920793834e-09)
(-0 3.010701991e-07 3.592769956e-09)
(-0 3.954658621e-07 4.593404131e-09)
(-0 2.059529882e-07 2.330744386e-09)
(-0 2.809445229e-07 3.100475292e-09)
(-0 1.224775747e-07 1.319111161e-09)
(-0 1.617609026e-07 1.701440659e-09)
(-0 3.208644789e-08 3.298051454e-10)
(-0 8.495624171e-08 8.538393162e-10)
(-0 4.797402324e-08 4.717014439e-10)
(-0 1.888725328e-08 1.817736395e-10)
(-0 1.834831254e-08 1.729290821e-10)
(-0 3.451580854e-08 3.187117988e-10)
(-0 9.39008973e-09 8.4985964e-11)
(-0 8.744476366e-09 7.760497322e-11)
(-0 4.383643568e-09 3.816300645e-11)
(-0 8.026201991e-09 6.857018111e-11)
(-0 2.66936682e-09 2.238777708e-11)
(-0 4.210339377e-09 3.467773236e-11)
(-0 4.675637154e-09 3.783142009e-11)
(-0 1.33406159e-09 1.060736774e-11)
(-0 1.997220872e-10 1.561039312e-12)
(-0 1.251907303e-09 9.621584518e-12)
(-0 6.70722236e-10 5.070247246e-12)
(-0 2.342864357e-10 1.742470834e-12)
(-0 1.635268674e-10 1.196888728e-12)
(-0 5.129281848e-10 3.695522931e-12)
(-0 2.294790786e-10 1.627866628e-12)
(-0 4.019610148e-11 2.808082708e-13)
(-0 6.957934263e-11 4.787851039e-13)
(-0 4.819813527e-11 3.267354333e-13)
(-0 5.017504583e-12 3.351301107e-14)
(-0 2.600360706e-11 1.711387145e-13)
(-0 3.038183753e-11 1.970204469e-13)
(-0 2.169208387e-11 1.385869158e-13)
(-0 1.117775834e-11 7.033353747e-14)
(-0 1.002986379e-11 6.212078424e-14)
(-0 6.805924995e-12 4.145175706e-14)
(-0 3.599817725e-12 2.152753795e-14)
(-0 1.828564555e-12 1.071327754e-14)
(-0 2.09273035e-12 1.197718138e-14)
(-0 1.635411283e-12 9.115263463e-15)
(-0 1.168054334e-12 6.335733237e-15)
(-0 2.461597467e-13 1.312524215e-15)
(-0 5.462419855e-13 3.001484071e-15)
(-0 3.045964081e-13 2.04354149e-15)
(-0 1.420682979e-13 2.296465395e-15)
(-0 0.0002971143423 1.85736331e-05)
(-0 8.156030662e-05 4.804507713e-06)
(-0 2.751954562e-05 1.533670086e-06)
(-0 5.858382573e-06 3.10094931e-07)
(-0 4.258754715e-06 2.149040152e-07)
(-0 2.537356791e-06 1.224813008e-07)
(-0 2.32152388e-06 1.075248964e-07)
(-0 9.628962117e-07 4.290651338e-08)
(-0 1.527724784e-06 6.564587111e-08)
(-0 1.392555495e-06 5.781905974e-08)
(-0 1.1138385e-06 4.476506033e-08)
(-0 5.699305095e-07 2.220550752e-08)
(-0 2.07317858e-07 7.841102189e-09)
(-0 4.531448724e-07 1.665668695e-08)
(-0 4.269623081e-07 1.526874485e-08)
(-0 2.819196598e-07 9.817572875e-09)
(-0 1.940375028e-07 6.585553314e-09)
(-0 2.485126983e-07 8.22646031e-09)
(-0 2.433598284e-07 7.862741804e-09)
(-0 9.584115057e-08 3.024253265e-09)
(-0 1.419170589e-07 4.3762601e-09)
(-0 7.441760742e-08 2.243839925e-09)
(-0 7.540835658e-09 2.22440904e-10)
(-0 4.575131678e-08 1.320982223e-09)
(-0 6.753883518e-09 1.909648849e-10)
(-0 1.047958194e-08 2.903013839e-10)
(-0 1.122065041e-08 3.046618751e-10)
(-0 1.253809329e-08 3.338166848e-10)
(-0 1.360274375e-08 3.55265826e-10)
(-0 5.80128586e-09 1.486854002e-10)
(-0 3.795273706e-09 9.549141893e-11)
(-0 3.041936042e-09 7.516266568e-11)
(-0 2.432464561e-09 5.904417526e-11)
(-0 2.514267623e-09 5.997389544e-11)
(-0 1.048690033e-09 2.458975876e-11)
(-0 1.040172219e-09 2.398277487e-11)
(-0 5.724080451e-10 1.298112198e-11)
(-0 7.33167217e-10 1.635843216e-11)
(-0 7.68104368e-11 1.686573148e-12)
(-0 2.81665351e-10 6.087974024e-12)
(-0 2.096982146e-10 4.462619166e-12)
(-0 5.354667646e-11 1.122216411e-12)
(-0 1.682761395e-10 3.473752652e-12)
(-0 5.817575115e-11 1.183097943e-12)
(-0 5.230324966e-11 1.048001244e-12)
(-0 3.612261554e-11 7.131702633e-13)
(-0 8.535739989e-12 1.660448742e-13)
(-0 2.047472374e-11 3.923801533e-13)
(-0 5.037582826e-12 9.507553344e-14)
(-0 3.947197337e-12 7.332040087e-14)
(-0 4.481042853e-12 8.183886935e-14)
(-0 1.077193221e-12 1.931185876e-14)
(-0 1.049449026e-12 1.842557157e-14)
(-0 5.996790598e-13 1.027874343e-14)
(-0 3.70591852e-13 6.179946986e-15)
(-0 9.547370465e-13 1.546899382e-14)
(-0 8.38337935e-14 1.331684661e-15)
(-0 1.951892147e-13 3.181633375e-15)
(-0 1.510623354e-13 2.988104912e-15)
(-0 7.243282922e-14 3.432296644e-15)
(-0 5.998965635e-05 6.098862579e-06)
(-0 3.261289968e-05 3.137607886e-06)
(-0 4.457363501e-06 4.072961891e-07)
(-0 1.69359943e-06 1.474895964e-07)
(-0 3.117672961e-06 2.595871217e-07)
(-0 1.175987784e-06 9.388777989e-08)
(-0 1.230582402e-06 9.444624629e-08)
(-0 1.900810001e-06 1.405603262e-07)
(-0 1.113473877e-06 7.949082307e-08)
(-0 6.66756968e-07 4.603363428e-08)
(-0 1.976244541e-07 1.321557495e-08)
(-0 5.162060868e-07 3.34807544e-08)
(-0 7.868539648e-07 4.955822792e-08)
(-0 2.85819985e-08 1.749969429e-09)
(-0 1.472725802e-07 8.773957682e-09)
(-0 2.777047833e-07 1.611286274e-08)
(-0 1.539994151e-07 8.709051797e-09)
(-0 8.851394937e-08 4.88252918e-09)
(-0 4.355550306e-08 2.345053936e-09)
(-0 3.306939916e-08 1.738954108e-09)
(-0 1.801730981e-08 9.258954279e-10)
(-0 4.930783538e-08 2.477657923e-09)
(-0 6.140142529e-08 3.018473661e-09)
(-0 2.005091373e-08 9.648172716e-10)
(-0 2.72580835e-08 1.284446715e-09)
(-0 6.829183675e-09 3.152809818e-10)
(-0 1.249178465e-08 5.65263842e-10)
(-0 3.054642224e-09 1.355395942e-10)
(-0 1.323560509e-08 5.761061518e-10)
(-0 3.900389076e-10 1.666042806e-11)
(-0 7.560679457e-09 3.170432105e-10)
(-0 3.497552141e-09 1.440305916e-10)
(-0 9.113535851e-10 3.686869715e-11)
(-0 1.258354546e-09 5.002600592e-11)
(-0 8.097949915e-10 3.164650565e-11)
(-0 1.101268072e-09 4.231867212e-11)
(-0 8.616312392e-10 3.256669647e-11)
(-0 2.862707969e-10 1.064540186e-11)
(-0 4.987515343e-11 1.825222057e-12)
(-0 1.33644023e-10 4.814319861e-12)
(-0 2.84662142e-11 1.009646853e-12)
(-0 8.137583164e-11 2.842376791e-12)
(-0 6.093503374e-11 2.096433809e-12)
(-0 2.579572693e-11 8.742934534e-13)
(-0 4.013390153e-11 1.340183716e-12)
(-0 5.265076687e-12 1.732294574e-13)
(-0 1.020234836e-12 3.30720884e-14)
(-0 8.61553435e-12 2.751115873e-13)
(-0 2.785947067e-12 8.759846439e-14)
(-0 5.143234661e-12 1.591314716e-13)
(-0 1.151443786e-12 3.501568218e-14)
(-0 3.960683253e-12 1.18172087e-13)
(-0 1.468394579e-12 4.287101264e-14)
(-0 8.302409487e-13 2.363333419e-14)
(-0 4.610234358e-13 1.274109237e-14)
(-0 3.704334807e-13 9.912997616e-15)
(-0 7.609398068e-13 1.985213408e-14)
(-0 1.818547854e-13 4.824169357e-15)
(-0 3.920194971e-14 1.245273544e-15)
(-0 3.176000962e-14 2.38638775e-15)
(-0 2.534829712e-05 3.566378006e-06)
(-0 1.090172252e-05 1.454046325e-06)
(-0 6.136464913e-06 7.786971117e-07)
(-0 2.976505771e-06 3.605372967e-07)
(-0 1.052958959e-06 1.221064842e-07)
(-0 2.638030836e-06 2.936599588e-07)
(-0 7.375626753e-07 7.899936034e-08)
(-0 1.102816689e-06 1.138910398e-07)
(-0 8.065738507e-07 8.046131393e-08)
(-0 7.592916613e-07 7.328427112e-08)
(-0 6.847653118e-07 6.403619692e-08)
(-0 1.338460601e-07 1.214297246e-08)
(-0 4.109293346e-07 3.620910638e-08)
(-0 3.200052322e-07 2.741479374e-08)
(-0 3.591812505e-07 2.994489477e-08)
(-0 2.721377592e-07 2.209772831e-08)
(-0 6.89309426e-08 5.455833807e-09)
(-0 8.012462807e-08 6.186056831e-09)
(-0 8.143506139e-08 6.136932537e-09)
(-0 1.276225384e-07 9.393591324e-09)
(-0 1.556822824e-07 1.119860321e-08)
(-0 5.667505958e-08 3.986380449e-09)
(-0 2.640068543e-08 1.816741151e-09)
(-0 4.800352451e-08 3.233401723e-09)
(-0 1.878202123e-09 1.238924425e-10)
(-0 2.0556248e-08 1.328495493e-09)
(-0 3.023714637e-09 1.915401688e-10)
(-0 1.27339521e-08 7.909810448e-10)
(-0 1.154970986e-08 7.037706335e-10)
(-0 7.764160566e-09 4.642779525e-10)
(-0 4.846509564e-09 2.845087808e-10)
(-0 5.347163e-09 3.08266445e-10)
(-0 1.444943298e-09 8.183459943e-11)
(-0 9.881563806e-10 5.499667175e-11)
(-0 1.370083803e-09 7.495800486e-11)
(-0 3.14975631e-10 1.694486198e-11)
(-0 6.608593659e-10 3.496913073e-11)
(-0 2.645218229e-10 1.377117137e-11)
(-0 2.567867199e-10 1.315614016e-11)
(-0 2.159504406e-10 1.089088264e-11)
(-0 1.479365357e-10 7.345756884e-12)
(-0 0 0)
(-0 2.851860445e-11 1.37357507e-12)
(-0 2.728852969e-11 1.294757238e-12)
(-0 1.896571766e-11 8.865504218e-13)
(-0 9.153620647e-12 4.215646175e-13)
(-0 9.090004164e-12 4.124187685e-13)
(-0 1.088976171e-11 4.866252187e-13)
(-0 7.112181059e-12 3.12880822e-13)
(-0 3.618962441e-12 1.566054798e-13)
(-0 3.564450723e-12 1.515249837e-13)
(-0 6.847105524e-13 2.853401948e-14)
(-0 1.23928818e-12 5.047037452e-14)
(-0 1.086441378e-12 4.30492714e-14)
(-0 5.782076513e-13 2.216888038e-14)
(-0 2.082564004e-13 7.688835186e-15)
(-0 1.266695542e-13 4.517194985e-15)
(-0 2.758153677e-13 9.848540677e-15)
(-0 4.985510462e-14 2.083035451e-15)
(-0 5.752412859e-14 5.55692387e-15)
(-0 7.201229667e-06 1.292658023e-06)
(-0 2.83151846e-06 4.823219194e-07)
(-0 4.961568073e-06 8.04918444e-07)
(-0 2.997807515e-06 4.646776938e-07)
(-0 4.259401991e-06 6.326359957e-07)
(-0 6.746229192e-07 9.625443993e-08)
(-0 1.428172749e-06 1.96183178e-07)
(-0 5.514061221e-07 7.306783317e-08)
(-0 1.07959373e-06 1.382424648e-07)
(-0 1.321660302e-06 1.637927598e-07)
(-0 5.625460116e-07 6.756480539e-08)
(-0 3.834109329e-07 4.46833484e-08)
(-0 5.991225525e-07 6.782552614e-08)
(-0 1.662631017e-07 1.830212933e-08)
(-0 4.871998978e-07 5.219565675e-08)
(-0 2.643437663e-07 2.75853151e-08)
(-0 3.365403486e-07 3.423417989e-08)
(-0 1.011759434e-07 1.003973371e-08)
(-0 3.300615643e-08 3.197051408e-09)
(-0 1.990361756e-07 1.883068447e-08)
(-0 3.40405305e-08 3.147486236e-09)
(-0 9.328710084e-08 8.434565068e-09)
(-0 3.336273345e-08 2.951236793e-09)
(-0 4.018829893e-08 3.479845575e-09)
(-0 5.974449794e-09 5.06620301e-10)
(-0 6.169427237e-10 5.125673184e-11)
(-0 1.534023402e-08 1.249245729e-09)
(-0 1.418624651e-08 1.132853117e-09)
(-0 3.306519256e-09 2.590241368e-10)
(-0 4.211611648e-09 3.23777269e-10)
(-0 6.822049806e-09 5.148738863e-10)
(-0 1.53338616e-09 1.136522869e-10)
(-0 1.891876509e-09 1.377547925e-10)
(-0 1.799299954e-09 1.287495049e-10)
(-0 3.48273501e-10 2.4497715e-11)
(-0 8.649715249e-10 5.982732408e-11)
(-0 2.507022079e-10 1.705581201e-11)
(-0 5.970032116e-10 3.995999748e-11)
(-0 9.880968045e-11 6.508707204e-12)
(-0 2.763004171e-10 1.79154743e-11)
(-0 1.131429356e-10 7.223086744e-12)
(-0 3.095793861e-11 1.946270904e-12)
(-0 9.215749101e-11 5.706531889e-12)
(-0 5.380589691e-11 3.282003143e-12)
(-0 3.081652001e-11 1.851795277e-12)
(-0 7.168839036e-12 4.243809207e-13)
(-0 1.133969206e-11 6.612277242e-13)
(-0 1.657945306e-12 9.519839232e-14)
(-0 5.502954275e-12 3.109665819e-13)
(-0 5.58562631e-12 3.103262132e-13)
(-0 3.409000316e-12 1.859108301e-13)
(-0 3.222345285e-12 1.720626304e-13)
(-0 3.572753761e-13 1.860773511e-14)
(-0 8.544967397e-13 4.316828406e-14)
(-0 1.444281089e-13 7.024877247e-15)
(-0 2.907893231e-13 1.350700136e-14)
(-0 2.020522639e-13 8.937796211e-15)
(-0 7.383371522e-14 3.191898335e-15)
(-0 7.772651404e-14 3.784265809e-15)
(-0 2.549733453e-14 2.757067152e-15)
(-0 7.031205231e-06 1.532538761e-06)
(-0 4.688012113e-06 9.704162085e-07)
(-0 3.983647389e-06 7.860019511e-07)
(-0 3.919265707e-06 7.394357274e-07)
(-0 0 0)
(-0 2.60726508e-06 4.533669841e-07)
(-0 7.785632813e-07 1.304051972e-07)
(-0 2.077846337e-06 3.358652883e-07)
(-0 7.575676455e-07 1.183706729e-07)
(-0 5.659443701e-07 8.56066331e-08)
(-0 8.983457466e-07 1.317223764e-07)
(-0 1.057085196e-06 1.50425425e-07)
(-0 4.01370498e-07 5.549001202e-08)
(-0 1.091730975e-07 1.46778841e-08)
(-0 2.52121498e-07 3.299287947e-08)
(-0 2.656295076e-07 3.386119763e-08)
(-0 9.406057764e-08 1.168896249e-08)
(-0 4.591957193e-08 5.566886866e-09)
(-0 1.035816745e-07 1.225823515e-08)
(-0 1.419917698e-07 1.641366899e-08)
(-0 1.826712395e-07 2.063773491e-08)
(-0 1.324846472e-08 1.463676747e-09)
(-0 1.111218994e-08 1.201139258e-09)
(-0 1.701001878e-08 1.799815353e-09)
(-0 4.161320211e-08 4.312102823e-09)
(-0 1.750533778e-08 1.777294629e-09)
(-0 4.483955232e-10 4.462402801e-11)
(-0 6.007817006e-09 5.863033954e-10)
(-0 7.867763079e-09 7.532295932e-10)
(-0 1.108082689e-09 1.041079263e-10)
(-0 4.009449954e-09 3.698200206e-10)
(-0 2.103766596e-09 1.90567701e-10)
(-0 1.134200715e-09 1.009331468e-10)
(-0 1.623417819e-09 1.419732504e-10)
(-0 1.640430486e-09 1.410265211e-10)
(-0 5.762812031e-10 4.871614276e-11)
(-0 5.688043616e-10 4.729549914e-11)
(-0 3.746608581e-10 3.06500119e-11)
(-0 4.205471912e-10 3.385735058e-11)
(-0 2.398036686e-10 1.900391558e-11)
(-0 1.270028975e-10 9.909329976e-12)
(-0 6.066238922e-11 4.660976248e-12)
(-0 1.317061181e-11 9.96687008e-13)
(-0 3.15356852e-11 2.350711103e-12)
(-0 4.209753847e-11 3.091134275e-12)
(-0 1.828441262e-11 1.322466203e-12)
(-0 7.95687439e-12 5.667668575e-13)
(-0 9.901174839e-12 6.942713913e-13)
(-0 9.699827467e-13 6.690630689e-14)
(-0 5.002286471e-12 3.389966504e-13)
(-0 3.681326441e-12 2.446183595e-13)
(-0 3.305778208e-12 2.147111659e-13)
(-0 5.079862745e-13 3.209489283e-14)
(-0 4.901111686e-13 2.990577873e-14)
(-0 6.547413925e-13 3.819087796e-14)
(-0 5.799827705e-14 3.191883697e-15)
(-0 1.599428123e-13 8.207002393e-15)
(-0 1.975490085e-14 9.536307462e-16)
(-0 4.986861153e-14 2.539772067e-15)
(-0 3.692555843e-14 3.868836689e-15)
(-0 4.404641322e-06 1.127220759e-06)
(-0 2.221773901e-06 5.404523793e-07)
(-0 9.842706331e-07 2.284029392e-07)
(-0 2.087369977e-06 4.635136256e-07)
(-0 1.255884413e-06 2.675790473e-07)
(-0 5.563371943e-07 1.139966544e-07)
(-0 3.862382332e-06 7.626881856e-07)
(-0 8.662089865e-07 1.651325295e-07)
(-0 1.592911114e-06 2.936370858e-07)
(-0 1.131461194e-06 2.019686619e-07)
(-0 1.022033996e-06 1.768828691e-07)
(-0 7.404776911e-07 1.243955273e-07)
(-0 4.807597531e-07 7.847705156e-08)
(-0 2.166693018e-07 3.439879653e-08)
(-0 6.071491092e-07 9.383134252e-08)
(-0 1.508347516e-07 2.270946628e-08)
(-0 3.29837462e-07 4.841496568e-08)
(-0 5.321236592e-08 7.620191539e-09)
(-0 1.121536205e-07 1.567909481e-08)
(-0 1.111635358e-07 1.51805875e-08)
(-0 8.3331461e-08 1.112252263e-08)
(-0 7.169463157e-08 9.358052395e-09)
(-0 3.437211035e-08 4.389693876e-09)
(-0 4.199930391e-08 5.250652546e-09)
(-0 1.721520544e-08 2.107806159e-09)
(-0 2.212210096e-08 2.653915862e-09)
(-0 1.607504681e-08 1.890348896e-09)
(-0 8.966519576e-09 1.034001834e-09)
(-0 4.777809237e-10 5.405118822e-11)
(-0 3.322060796e-09 3.688309921e-10)
(-0 2.021030003e-09 2.202894559e-10)
(-0 2.790134116e-09 2.986747749e-10)
(-0 9.527870475e-10 1.001998652e-10)
(-0 1.33800293e-09 1.382819798e-10)
(-0 1.684833717e-09 1.71173449e-10)
(-0 8.448021037e-10 8.439815802e-11)
(-0 9.443444254e-10 9.279591723e-11)
(-0 1.537699009e-10 1.486639904e-11)
(-0 4.831362575e-10 4.596726501e-11)
(-0 2.336613139e-10 2.18832059e-11)
(-0 9.770765076e-11 9.009246515e-12)
(-0 6.460030515e-11 5.865543264e-12)
(-0 4.576144545e-11 4.092117887e-12)
(-0 5.262381919e-11 4.634923734e-12)
(-0 1.209557975e-11 1.049304294e-12)
(-0 2.323756031e-11 1.98532606e-12)
(-0 5.174617519e-12 4.352734965e-13)
(-0 5.945642769e-12 4.921375725e-13)
(-0 7.043837464e-12 5.731736871e-13)
(-0 1.41173549e-12 1.127549208e-13)
(-0 4.106488125e-12 3.211145784e-13)
(-0 4.511417226e-13 3.440147891e-14)
(-0 1.34892097e-12 9.968446866e-14)
(-0 8.134476257e-13 5.770432921e-14)
(-0 1.116885452e-13 7.49752872e-15)
(-0 3.526572374e-13 2.19474999e-14)
(-0 2.516286962e-13 1.414067128e-14)
(-0 9.078237609e-14 4.510140081e-15)
(-0 1.062921469e-13 4.925866149e-15)
(-0 2.29678779e-14 1.828467794e-15)
(-0 2.57994972e-06 7.565273122e-07)
(-0 1.24323613e-06 3.468719737e-07)
(-0 4.702388247e-06 1.252721297e-06)
(-0 3.453567129e-07 8.810850429e-08)
(-0 2.236404317e-06 5.478070017e-07)
(-0 2.94283418e-06 6.936452349e-07)
(-0 1.239535942e-06 2.81690245e-07)
(-0 3.112146896e-06 6.830626002e-07)
(-0 1.144713067e-06 2.430230545e-07)
(-0 1.390194493e-06 2.85869928e-07)
(-0 9.038128334e-07 1.802373568e-07)
(-0 4.450008638e-07 8.615500213e-08)
(-0 2.29218657e-07 4.312797471e-08)
(-0 9.286792387e-08 1.699663689e-08)
(-0 2.905560931e-08 5.177046848e-09)
(-0 2.143670855e-07 3.721382125e-08)
(-0 1.457969202e-07 2.46776656e-08)
(-0 8.604119308e-08 1.420910229e-08)
(-0 1.304344735e-07 2.102974641e-08)
(-0 3.996390765e-08 6.294367445e-09)
(-0 6.030546149e-08 9.283895441e-09)
(-0 8.427578293e-09 1.268820301e-09)
(-0 3.258677885e-08 4.800486873e-09)
(-0 1.66246786e-08 2.397485401e-09)
(-0 2.690996154e-08 3.800820411e-09)
(-0 2.48983443e-08 3.445800132e-09)
(-0 1.081937562e-08 1.467785645e-09)
(-0 1.813358371e-08 2.412473785e-09)
(-0 5.646342149e-09 7.369449663e-10)
(-0 5.462291989e-09 6.996730265e-10)
(-0 1.777008705e-09 2.234698746e-10)
(-0 4.260889725e-09 5.262468074e-10)
(-0 2.00036292e-09 2.42718101e-10)
(-0 2.215307554e-09 2.641618362e-10)
(-0 9.784129297e-10 1.146920961e-10)
(-0 8.776169607e-10 1.011621815e-10)
(-0 1.740210235e-11 1.973045772e-12)
(-0 5.91744153e-10 6.60093343e-11)
(-0 1.517783287e-10 1.666184762e-11)
(-0 1.90864241e-10 2.062419596e-11)
(-0 8.618832567e-11 9.16907884e-12)
(-0 8.285878768e-11 8.679835774e-12)
(-0 5.332327909e-11 5.500927289e-12)
(-0 8.442927887e-12 8.577875376e-13)
(-0 5.404579961e-11 5.407486626e-12)
(-0 1.971804479e-11 1.942498822e-12)
(-0 1.204099567e-11 1.167467418e-12)
(-0 9.406036488e-12 8.969176477e-13)
(-0 4.66925982e-12 4.373352251e-13)
(-0 1.764023852e-12 1.619595156e-13)
(-0 1.114257577e-12 9.995558636e-14)
(-0 1.266307377e-12 1.104167792e-13)
(-0 5.635630167e-13 4.737729378e-14)
(-0 1.290506766e-13 1.032620833e-14)
(-0 4.537739137e-13 3.386779263e-14)
(-0 4.120115575e-13 2.778145521e-14)
(-0 1.590148565e-13 9.207497969e-15)
(-0 8.248388364e-14 3.77954007e-15)
(-0 7.246821676e-14 2.308950702e-15)
(-0 1.086859766e-14 2.483713164e-16)
(-0 2.53599852e-06 8.364162403e-07)
(-0 4.273264417e-06 1.342622341e-06)
(-0 1.111715127e-06 3.338432241e-07)
(-0 1.992275676e-06 5.734249284e-07)
(-0 2.077809195e-06 5.745988962e-07)
(-0 1.441681752e-06 3.838640315e-07)
(-0 2.061955904e-06 5.295913629e-07)
(-0 5.572362971e-07 1.382820504e-07)
(-0 1.221479049e-06 2.9329897e-07)
(-0 5.885202976e-07 1.369150547e-07)
(-0 8.051616618e-07 1.816975713e-07)
(-0 3.482063518e-07 7.630311119e-08)
(-0 1.597451666e-07 3.402477537e-08)
(-0 4.776824421e-07 9.898203393e-08)
(-0 3.152029999e-07 6.359377915e-08)
(-0 7.50342285e-08 1.475104422e-08)
(-0 3.847768491e-08 7.375998866e-09)
(-0 2.039411887e-07 3.814656543e-08)
(-0 7.001791598e-09 1.27870733e-09)
(-0 8.995582066e-08 1.604946003e-08)
(-0 2.649483023e-08 4.62067685e-09)
(-0 1.709340504e-08 2.915534659e-09)
(-0 2.084406374e-08 3.478867722e-09)
(-0 1.848119837e-08 3.019687996e-09)
(-0 4.115562465e-09 6.586256916e-10)
(-0 4.895564924e-09 7.676834364e-10)
(-0 3.770682598e-09 5.796334109e-10)
(-0 4.962049781e-09 7.480405701e-10)
(-0 2.022244945e-09 2.990870983e-10)
(-0 5.207644394e-09 7.559055598e-10)
(-0 1.698528546e-09 2.420567626e-10)
(-0 2.043570088e-09 2.860234248e-10)
(-0 4.446735521e-10 6.11454963e-11)
(-0 8.292928012e-10 1.120674691e-10)
(-0 1.220956793e-09 1.622003549e-10)
(-0 1.481200539e-09 1.934952628e-10)
(-0 8.632848873e-10 1.109261991e-10)
(-0 0 0)
(-0 2.162206312e-10 2.689982667e-11)
(-0 1.939579348e-10 2.375144001e-11)
(-0 2.608631775e-11 3.144882286e-12)
(-0 8.228952071e-11 9.768022966e-12)
(-0 1.772672902e-11 2.072037536e-12)
(-0 5.71905454e-11 6.58264722e-12)
(-0 3.327154879e-12 3.770546966e-13)
(-0 2.579163113e-11 2.876960015e-12)
(-0 8.053087434e-12 8.836699813e-13)
(-0 1.096787021e-11 1.182737482e-12)
(-0 4.685786986e-12 4.957576464e-13)
(-0 7.104987703e-12 7.355498887e-13)
(-0 9.840406394e-13 9.925924967e-14)
(-0 1.259636017e-12 1.22958069e-13)
(-0 6.587127556e-13 6.155035256e-14)
(-0 4.056818579e-13 3.565208562e-14)
(-0 5.376195195e-13 4.315929721e-14)
(-0 1.266807653e-13 8.833363256e-15)
(-0 6.553364588e-14 3.60619336e-15)
(-0 3.260219683e-14 1.120483943e-15)
(-0 3.868715561e-14 1.20540283e-16)
(-0 6.784877648e-15 -5.390522436e-16)
(-0 1.849413753e-06 6.761658968e-07)
(-0 8.474525165e-07 2.955527703e-07)
(-0 3.555222175e-06 1.186360259e-06)
(-0 1.011805625e-06 3.239045348e-07)
(-0 1.691147801e-06 5.205449281e-07)
(-0 9.068468143e-07 2.68923788e-07)
(-0 1.588929348e-06 4.54755365e-07)
(-0 9.81592784e-07 2.7155418e-07)
(-0 6.421783299e-07 1.719629381e-07)
(-0 3.88592234e-07 1.008483691e-07)
(-0 4.019125851e-07 1.012026284e-07)
(-0 9.201196393e-08 2.250275936e-08)
(-0 6.452928781e-07 1.534220814e-07)
(-0 3.522635204e-07 8.14918449e-08)
(-0 2.701700587e-07 6.086215748e-08)
(-0 2.97822689e-07 6.538161875e-08)
(-0 1.5813367e-07 3.385424795e-08)
(-0 2.127416505e-08 4.444440279e-09)
(-0 1.595019055e-07 3.253679047e-08)
(-0 6.514957348e-08 1.298430674e-08)
(-0 3.575008543e-08 6.965041023e-09)
(-0 2.597344701e-08 4.94931203e-09)
(-0 1.441454911e-08 2.687840041e-09)
(-0 3.194090806e-08 5.831029907e-09)
(-0 1.235461704e-08 2.209135236e-09)
(-0 1.865520124e-08 3.268727733e-09)
(-0 4.529846775e-09 7.78091884e-10)
(-0 1.571917476e-08 2.648017763e-09)
(-0 6.058118436e-09 1.0012459e-09)
(-0 9.081510555e-09 1.473106585e-09)
(-0 1.676258609e-09 2.669592067e-10)
(-0 1.942740598e-09 3.038749481e-10)
(-0 1.476792627e-09 2.269436375e-10)
(-0 1.642812592e-09 2.481081337e-10)
(-0 1.244787928e-09 1.84813058e-10)
(-0 1.037550148e-09 1.514795405e-10)
(-0 9.666844189e-10 1.388204323e-10)
(-0 3.466582196e-10 4.897811882e-11)
(-0 9.628004653e-11 1.338650838e-11)
(-0 1.725156079e-10 2.360892595e-11)
(-0 1.627860499e-10 2.193068829e-11)
(-0 8.04003877e-11 1.066421694e-11)
(-0 5.778066936e-11 7.545822179e-12)
(-0 1.796077553e-11 2.309268521e-12)
(-0 2.572716052e-11 3.255904448e-12)
(-0 1.688317817e-11 2.102173382e-12)
(-0 1.262984632e-11 1.54595605e-12)
(-0 6.549955254e-12 7.871101113e-13)
(-0 1.011853143e-11 1.191126163e-12)
(-0 1.271541309e-12 1.461100587e-13)
(-0 3.540468458e-12 3.948793679e-13)
(-0 1.96927224e-12 2.112590089e-13)
(-0 1.045068698e-12 1.062502137e-13)
(-0 1.020722794e-12 9.594804167e-14)
(-0 5.536811579e-14 4.608749555e-15)
(-0 6.996781394e-14 4.748457176e-15)
(-0 1.348931468e-13 6.145914505e-15)
(-0 2.944566734e-14 3.531412592e-16)
(-0 1.081792297e-13 -4.991966042e-15)
(-0 5.369707711e-15 -1.327652512e-15)
(-0 3.282188189e-06 1.314801439e-06)
(-0 2.767742699e-06 1.059126206e-06)
(-0 4.654032627e-07 1.706044367e-07)
(-0 1.55936779e-07 5.489045254e-08)
(-0 1.282310149e-06 4.34352397e-07)
(-0 5.503886242e-07 1.797306974e-07)
(-0 7.135620551e-07 2.250086597e-07)
(-0 9.931935139e-07 3.028658228e-07)
(-0 8.087538471e-07 2.3880925e-07)
(-0 8.486772989e-07 2.42946313e-07)
(-0 5.162556897e-07 1.43427775e-07)
(-0 3.205977509e-07 8.652812355e-08)
(-0 4.107211709e-07 1.077868296e-07)
(-0 5.461657195e-07 1.394853727e-07)
(-0 2.455319778e-07 6.107115865e-08)
(-0 1.376149887e-07 3.336058758e-08)
(-0 1.718031748e-07 4.061958448e-08)
(-0 6.270988227e-08 1.446957855e-08)
(-0 1.845518443e-07 4.158319312e-08)
(-0 2.93015049e-08 6.450882292e-09)
(-0 4.371125793e-08 9.407841775e-09)
(-0 3.630267992e-08 7.642392207e-09)
(-0 2.311226414e-08 4.761492266e-09)
(-0 1.909920903e-08 3.852408467e-09)
(-0 1.120674948e-08 2.214167236e-09)
(-0 6.732114493e-10 1.303422297e-10)
(-0 1.690980705e-08 3.20964071e-09)
(-0 5.102278105e-09 9.498166798e-10)
(-0 1.201751459e-08 2.194900995e-09)
(-0 2.341752472e-09 4.197839497e-10)
(-0 5.435448532e-09 9.566613509e-10)
(-0 4.355829628e-09 7.529719678e-10)
(-0 6.993320322e-10 1.187728664e-10)
(-0 1.527060906e-09 2.548886869e-10)
(-0 1.222782763e-09 2.006466221e-10)
(-0 1.296422826e-09 2.091888491e-10)
(-0 3.381059247e-10 5.366203521e-11)
(-0 3.544935742e-10 5.535403494e-11)
(-0 1.828652182e-10 2.809903563e-11)
(-0 7.052867664e-11 1.066654456e-11)
(-0 5.592209681e-11 8.325262017e-12)
(-0 1.179916055e-10 1.72923242e-11)
(-0 5.215183313e-11 7.524048643e-12)
(-0 2.430103558e-12 3.450806789e-13)
(-0 1.528160967e-11 2.135140378e-12)
(-0 1.677095071e-11 2.304056967e-12)
(-0 1.240461633e-11 1.673837807e-12)
(-0 2.765878189e-12 3.65901089e-13)
(-0 2.128085362e-12 2.751951877e-13)
(-0 3.39460385e-12 4.270826912e-13)
(-0 1.269139915e-12 1.541731249e-13)
(-0 1.550367588e-13 1.796190584e-14)
(-0 8.04462348e-13 8.70820659e-14)
(-0 5.403049591e-13 5.27371962e-14)
(-0 7.842294911e-14 6.457469073e-15)
(-0 1.303744675e-13 7.825065252e-15)
(-0 4.314955213e-14 1.148790091e-15)
(-0 1.872009525e-13 -4.881074424e-15)
(-0 3.258607407e-14 -4.069261812e-15)
(-0 2.272677757e-14 -1.157097678e-14)
(-0 1.104137163e-06 4.800171752e-07)
(-0 4.186774832e-07 1.741381141e-07)
(-0 2.070330794e-06 8.258982782e-07)
(-0 2.085898575e-06 7.998432232e-07)
(-0 3.00495874e-07 1.109715389e-07)
(-0 5.217733011e-07 1.858903584e-07)
(-0 2.109060014e-07 7.259824054e-08)
(-0 9.423247438e-07 3.138286022e-07)
(-0 5.811800534e-07 1.874963069e-07)
(-0 7.362654098e-07 2.303525401e-07)
(-0 7.091222868e-07 2.153778687e-07)
(-0 4.312138525e-07 1.272632074e-07)
(-0 4.577362715e-07 1.313813425e-07)
(-0 1.82746481e-07 5.105365333e-08)
(-0 3.828934358e-08 1.041940901e-08)
(-0 1.587813622e-07 4.2117207e-08)
(-0 3.347488765e-08 8.660910176e-09)
(-0 9.613453839e-08 2.427625455e-08)
(-0 1.837975791e-07 4.532720605e-08)
(-0 1.792119108e-07 4.318660557e-08)
(-0 4.334628166e-08 1.021248357e-08)
(-0 5.835397616e-08 1.344840372e-08)
(-0 1.54673994e-08 3.488604786e-09)
(-0 1.769581012e-08 3.9078981e-09)
(-0 2.230447537e-08 4.825013472e-09)
(-0 8.432226479e-09 1.787597664e-09)
(-0 1.173595328e-08 2.439194528e-09)
(-0 2.652121863e-09 5.406227573e-10)
(-0 1.664946215e-09 3.329960497e-10)
(-0 8.461554685e-09 1.661061014e-09)
(-0 5.731948299e-09 1.104806511e-09)
(-0 1.374564991e-09 2.602216087e-10)
(-0 2.337365999e-09 4.347484869e-10)
(-0 7.998585355e-10 1.462144881e-10)
(-0 3.6895319e-10 6.630404332e-11)
(-0 7.452124785e-10 1.316917042e-10)
(-0 4.638666854e-10 8.062882392e-11)
(-0 1.835008402e-10 3.137998753e-11)
(-0 2.378515301e-10 4.002428239e-11)
(-0 8.413423755e-11 1.393351914e-11)
(-0 1.659360524e-10 2.704844629e-11)
(-0 8.711020745e-11 1.397630579e-11)
(-0 2.680623169e-11 4.232904995e-12)
(-0 2.995627885e-11 4.654281373e-12)
(-0 1.712856763e-11 2.617083923e-12)
(-0 1.181481611e-11 1.773591416e-12)
(-0 5.159337277e-12 7.597742669e-13)
(-0 4.717108298e-12 6.797564605e-13)
(-0 3.264663715e-12 4.585393838e-13)
(-0 3.420939415e-12 4.653463594e-13)
(-0 7.350787187e-13 9.584655803e-14)
(-0 9.611464377e-13 1.180983772e-13)
(-0 1.878023232e-12 2.112051434e-13)
(-0 5.942236299e-13 5.79978231e-14)
(-0 1.072919955e-13 8.143913764e-15)
(-0 1.32804301e-13 5.787525162e-15)
(-0 1.677688598e-14 -9.924487684e-17)
(-0 3.055833986e-14 -2.648566761e-15)
(-0 2.874330574e-14 -7.068592834e-15)
(-0 8.51445275e-15 -7.714872328e-15)
(-0 5.453257775e-07 2.552712843e-07)
(-0 2.073550276e-06 9.300648478e-07)
(-0 2.279778278e-06 9.820040761e-07)
(-0 1.360352389e-06 5.638300565e-07)
(-0 1.326909656e-06 5.301170074e-07)
(-0 2.057782855e-07 7.936697304e-08)
(-0 3.813905835e-07 1.422092833e-07)
(-0 1.127644811e-06 4.070030956e-07)
(-0 7.593624802e-07 2.656085452e-07)
(-0 7.172924694e-07 2.433965053e-07)
(-0 3.956802426e-07 1.303793133e-07)
(-0 2.806583443e-07 8.988310733e-08)
(-0 2.516481706e-07 7.839562835e-08)
(-0 2.88303327e-07 8.743472227e-08)
(-0 1.177856211e-07 3.48000657e-08)
(-0 4.651377594e-08 1.339743475e-08)
(-0 1.39622016e-07 3.923091893e-08)
(-0 1.97010095e-07 5.403373951e-08)
(-0 1.189802339e-07 3.187185815e-08)
(-0 1.24887956e-07 3.269271558e-08)
(-0 6.939547284e-09 1.776192802e-09)
(-0 2.543028829e-08 6.36735541e-09)
(-0 9.665231647e-09 2.36853399e-09)
(-0 2.716474396e-08 6.518298442e-09)
(-0 1.491586744e-08 3.50615976e-09)
(-0 1.001292893e-08 2.306663319e-09)
(-0 3.078802765e-09 6.953806602e-10)
(-0 4.009299178e-09 8.881727344e-10)
(-0 1.728364268e-09 3.756783158e-10)
(-0 3.355005931e-09 7.157856026e-10)
(-0 8.375086552e-10 1.754438546e-10)
(-0 2.053133334e-09 4.224438971e-10)
(-0 1.89174919e-09 3.824332773e-10)
(-0 1.097574083e-09 2.180702713e-10)
(-0 1.427332756e-09 2.787925201e-10)
(-0 3.066155558e-10 5.889217752e-11)
(-0 5.84415131e-10 1.104070076e-10)
(-0 1.198188287e-10 2.226915306e-11)
(-0 1.167781823e-10 2.135596092e-11)
(-0 2.247823206e-10 4.045306774e-11)
(-0 7.453075647e-11 1.320014535e-11)
(-0 8.789686266e-11 1.531960352e-11)
(-0 5.862306797e-11 1.005274886e-11)
(-0 1.745685693e-11 2.943996404e-12)
(-0 2.663942196e-11 4.41484049e-12)
(-0 1.475043462e-11 2.399112547e-12)
(-0 1.587226884e-11 2.528278971e-12)
(-0 7.816400705e-12 1.215250203e-12)
(-0 5.728545343e-12 8.646283645e-13)
(-0 2.325428833e-12 3.377809099e-13)
(-0 2.799478808e-12 3.858041924e-13)
(-0 3.033747275e-12 3.872397876e-13)
(-0 4.710612125e-13 5.335749601e-14)
(-0 1.246641397e-12 1.152055147e-13)
(-0 3.489928585e-13 2.146613376e-14)
(-0 3.715788821e-14 5.498431447e-16)
(-0 8.938258889e-14 -5.18259343e-15)
(-0 8.970475275e-14 -1.611227367e-14)
(-0 2.506970338e-14 -1.072225781e-14)
(-0 1.585456337e-14 -2.373294454e-14)
(-0 4.076724136e-07 2.041330157e-07)
(-0 1.402564201e-06 6.7399081e-07)
(-0 4.791462677e-07 2.213995984e-07)
(-0 1.747262134e-06 7.776792984e-07)
(-0 7.14126859e-08 3.066405698e-08)
(-0 4.212868682e-08 1.747653887e-08)
(-0 1.121191545e-06 4.499200329e-07)
(-0 3.513386138e-07 1.365417884e-07)
(-0 5.894764687e-07 2.221031798e-07)
(-0 6.320215035e-07 2.310984967e-07)
(-0 2.198599475e-07 7.808820889e-08)
(-0 2.963631049e-07 1.02331055e-07)
(-0 4.143070381e-07 1.391860367e-07)
(-0 1.003139946e-07 3.28133069e-08)
(-0 5.916522494e-08 1.885717238e-08)
(-0 5.214376162e-09 1.620405871e-09)
(-0 1.540748874e-07 4.67131938e-08)
(-0 7.514191664e-08 2.224013903e-08)
(-0 1.389894664e-07 4.018218216e-08)