/*--------------------------------*- C++ -*----------------------------------*\
  =========                 |
  \\      /  F ield         | OpenFOAM: The Open Source CFD Toolbox
   \\    /   O peration     | Website:  https://openfoam.org
    \\  /    A nd           | Version:  10
     \\/     M anipulation  |
\*---------------------------------------------------------------------------*/
FoamFile
{
    format      ascii;
    class       volScalarField;
    location    "0.0002";
    object      pVap;
}
// * * * * * * * * * * * * * * * * * * * * * * * * * * * * * * * * * * * * * //

dimensions      [1 -1 -2 0 0 0 0];

internalField   nonuniform List<scalar> 
3600
(
8.983191686e-23
1.527723668e-26
2.362060017e-30
3.930547802e-34
8.354534857e-38
2.661528094e-41
1.455719928e-44
1.514592731e-47
3.197552504e-50
1.40675629e-52
1.280543798e-54
2.330572558e-56
8.037841429e-58
4.920779102e-59
4.98307347e-60
7.777647485e-61
1.749619332e-61
5.335333667e-62
2.088864491e-62
1.001805039e-62
5.65556824e-63
3.63543823e-63
2.589138844e-63
1.99815137e-63
1.641436107e-63
1.415043873e-63
1.265884217e-63
1.164878745e-63
1.095126176e-63
1.046296529e-63
1.011805338e-63
9.873088906e-64
9.698624072e-64
9.574273259e-64
9.485706358e-64
9.422742611e-64
9.3781002e-64
9.346551571e-64
9.324338993e-64
9.308762605e-64
9.297886152e-64
9.290324906e-64
9.285092041e-64
9.281487119e-64
9.279015145e-64
9.277327917e-64
9.276181663e-64
9.275406549e-64
9.27488484e-64
9.27453532e-64
9.274302246e-64
9.274147553e-64
9.274045375e-64
9.273978234e-64
9.273934384e-64
9.273905984e-64
9.27388785e-64
9.27387661e-64
9.273870134e-64
9.273867183e-64
6.191300635e-23
1.07036925e-26
1.689234663e-30
2.879475071e-34
6.287430273e-38
2.061576176e-41
1.161549169e-44
1.244694803e-47
2.703282992e-50
1.221132697e-52
1.13850934e-54
2.116408015e-56
7.434098175e-58
4.622389614e-59
4.741884688e-60
7.480252592e-61
1.697262286e-61
5.211447751e-62
2.051522582e-62
9.881163851e-63
5.596895654e-63
3.606982288e-63
2.57393842e-63
1.989402304e-63
1.636104769e-63
1.411652435e-63
1.263656843e-63
1.163381492e-63
1.094102974e-63
1.04558935e-63
1.011312996e-63
9.869646566e-64
9.69621256e-64
9.572583508e-64
9.48452361e-64
9.421916419e-64
9.377524654e-64
9.346151935e-64
9.324062508e-64
9.308572068e-64
9.297755384e-64
9.290235538e-64
9.285031233e-64
9.281445927e-64
9.278987366e-64
9.27730927e-64
9.276169203e-64
9.275398264e-64
9.274879358e-64
9.274531712e-64
9.274299885e-64
9.274146017e-64
9.274044383e-64
9.273977599e-64
9.273933981e-64
9.273905731e-64
9.273887694e-64
9.273876512e-64
9.273870071e-64
9.273867135e-64
3.042703883e-23
5.40144848e-27
8.83002969e-31
1.571646013e-34
3.607012675e-38
1.248939701e-41
7.449415238e-45
8.45248442e-48
1.940218797e-50
9.230729109e-53
9.021698535e-55
1.74864128e-56
6.368697498e-58
4.083519579e-59
4.297838789e-60
6.923993476e-61
1.598067859e-61
4.974314091e-62
1.979461299e-62
9.615310547e-63
5.482376171e-63
3.551226449e-63
2.544066751e-63
1.972169776e-63
1.625585833e-63
1.404952255e-63
1.259252069e-63
1.160418379e-63
1.092076894e-63
1.044188449e-63
1.010337372e-63
9.862823617e-64
9.691431916e-64
9.569233238e-64
9.482178325e-64
9.420278018e-64
9.376383226e-64
9.34535933e-64
9.323514128e-64
9.308194144e-64
9.297496001e-64
9.290058271e-64
9.284910612e-64
9.281364215e-64
9.278932262e-64
9.27727228e-64
9.276144489e-64
9.275381831e-64
9.274868486e-64
9.274524556e-64
9.274295202e-64
9.274142972e-64
9.274042418e-64
9.273976342e-64
9.273933185e-64
9.273905234e-64
9.273887386e-64
9.273876322e-64
9.273869949e-64
9.273867043e-64
1.069965606e-23
1.971968301e-27
3.391214232e-31
6.427459042e-35
1.586774449e-38
5.952963777e-42
3.862099275e-45
4.768630194e-48
1.187998399e-50
6.102587737e-53
6.395414582e-55
1.318663948e-56
5.066865435e-58
3.39985944e-59
3.716509232e-60
6.176691959e-61
1.461980492e-61
4.643462912e-62
1.877568615e-62
9.235431179e-63
5.317392059e-63
3.470389598e-63
2.500545698e-63
1.946969133e-63
1.610159245e-63
1.395104865e-63
1.252767727e-63
1.156050972e-63
1.089087845e-63
1.042120283e-63
1.008896295e-63
9.852741578e-64
9.684365609e-64
9.564280044e-64
9.478710335e-64
9.417854969e-64
9.374694971e-64
9.344186908e-64
9.322702905e-64
9.307635043e-64
9.297112252e-64
9.289795999e-64
9.284732145e-64
9.281243315e-64
9.278850731e-64
9.27721755e-64
9.276107924e-64
9.275357519e-64
9.274852403e-64
9.274513974e-64
9.274288281e-64
9.274138474e-64
9.274039518e-64
9.273974489e-64
9.273932016e-64
9.273904506e-64
9.273886939e-64
9.27387605e-64
9.273869776e-64
9.273866916e-64
2.706852451e-24
5.243323835e-28
9.642914364e-32
1.986107749e-35
5.399607701e-39
2.251994597e-42
1.632329262e-45
2.252792525e-48
6.250318955e-51
3.55099535e-53
4.078048336e-55
9.118087121e-57
3.757974764e-58
2.676063218e-59
3.073900887e-60
5.320741129e-61
1.301546518e-61
4.244291789e-62
1.752356647e-62
8.761819457e-63
5.109367979e-63
3.367570884e-63
2.444816854e-63
1.914533288e-63
1.590225734e-63
1.382342698e-63
1.24434518e-63
1.150368526e-63
1.085193834e-63
1.039423382e-63
1.007015768e-63
9.839577901e-64
9.675135629e-64
9.557808162e-64
9.474177928e-64
9.414687618e-64
9.372487792e-64
9.342653927e-64
9.321642099e-64
9.30690387e-64
9.296610363e-64
9.289452966e-64
9.284498715e-64
9.281085177e-64
9.278744086e-64
9.277145965e-64
9.2760601e-64
9.275325727e-64
9.274831377e-64
9.274500145e-64
9.27427924e-64
9.274132605e-64
9.27403574e-64
9.273972082e-64
9.273930502e-64
9.273903569e-64
9.273886371e-64
9.27387571e-64
9.273869567e-64
9.273866767e-64
4.96565542e-25
1.024858389e-28
2.051330178e-32
4.689110847e-36
1.437782963e-39
6.839571331e-43
5.686876655e-46
9.004115913e-49
2.852071395e-51
1.833644589e-53
2.355661188e-55
5.815662016e-57
2.61117088e-58
1.999319575e-59
2.439550375e-60
4.437207518e-61
1.129832051e-61
3.804456612e-62
1.611169988e-62
8.218007596e-63
4.867105354e-63
3.246509349e-63
2.378644174e-63
1.875769271e-63
1.566285762e-63
1.366958163e-63
1.234163301e-63
1.143484492e-63
1.080468858e-63
1.036147031e-63
1.004729122e-63
9.823560433e-64
9.663898812e-64
9.549925988e-64
9.468656163e-64
9.410827952e-64
9.369797658e-64
9.340785226e-64
9.320348817e-64
9.306012367e-64
9.295998371e-64
9.289034653e-64
9.284214043e-64
9.28089232e-64
9.278614029e-64
9.277058668e-64
9.276001786e-64
9.275286968e-64
9.274805751e-64
9.274483299e-64
9.274268237e-64
9.274125472e-64
9.274031158e-64
9.273969173e-64
9.273928683e-64
9.273902456e-64
9.273885707e-64
9.273875323e-64
9.273869341e-64
9.273866614e-64
6.677394214e-26
1.490516194e-29
3.308098918e-33
8.577728408e-37
3.03889037e-40
1.691426287e-43
1.655353375e-46
3.083167205e-49
1.141557433e-51
8.486324591e-54
1.243223269e-55
3.446114395e-57
1.709817621e-58
1.424631212e-59
1.864934431e-60
3.593256418e-61
9.585971506e-62
3.350452822e-62
1.461390153e-62
7.628541585e-63
4.600056203e-63
3.11131402e-63
2.304002046e-63
1.831707314e-63
1.538914481e-63
1.349290462e-63
1.222431132e-63
1.135532235e-63
1.075000296e-63
1.032349638e-63
1.002075966e-63
9.804960466e-64
9.650842189e-64
9.540762944e-64
9.462234742e-64
9.406338144e-64
9.366667609e-64
9.338610539e-64
9.318843544e-64
9.304974607e-64
9.295285908e-64
9.288547627e-64
9.283882594e-64
9.280667769e-64
9.2784626e-64
9.276957033e-64
9.275933904e-64
9.275241862e-64
9.274775942e-64
9.274463719e-64
9.274255463e-64
9.274117207e-64
9.274025865e-64
9.273965829e-64
9.27392661e-64
9.273901204e-64
9.273884979e-64
9.27387492e-64
9.273869124e-64
9.273866481e-64
6.673270273e-27
1.637320027e-30
4.109698438e-34
1.236309634e-37
5.185549374e-41
3.463061125e-44
4.089916586e-47
9.177152306e-50
4.060502389e-52
3.560555744e-54
6.053372177e-56
1.912694787e-57
1.06223542e-58
9.73480084e-60
1.379260621e-60
2.835337625e-61
7.970705159e-62
2.904985685e-62
1.309762701e-62
7.016964112e-63
4.317629222e-63
2.966195246e-63
2.222960238e-63
1.783447145e-63
1.508734739e-63
1.329711148e-63
1.209379726e-63
1.126660206e-63
1.068885951e-63
1.028096849e-63
9.991009627e-64
9.784084686e-64
9.63617759e-64
9.530465825e-64
9.455015522e-64
9.401288853e-64
9.363146595e-64
9.336163702e-64
9.317149606e-64
9.303806615e-64
9.294483947e-64
9.287999378e-64
9.283509459e-64
9.280414972e-64
9.278292131e-64
9.276842632e-64
9.275857513e-64
9.275191121e-64
9.274742432e-64
9.274441729e-64
9.274241141e-64
9.274107965e-64
9.274019971e-64
9.273962132e-64
9.273924345e-64
9.273899865e-64
9.27388423e-64
9.273874536e-64
9.27386895e-64
9.273866403e-64
5.038632272e-28
1.382796443e-31
4.007772044e-35
1.431527034e-38
7.284396048e-42
5.98225599e-45
8.731333962e-48
2.413523583e-50
1.302307222e-52
1.371502359e-54
2.748713169e-56
1.00334317e-57
6.307439833e-59
6.417250359e-60
9.915815524e-61
2.188232147e-61
6.514363847e-62
2.485432059e-62
1.16192716e-62
6.404237067e-63
4.028602721e-63
2.815223888e-63
2.137576112e-63
1.732105903e-63
1.476390174e-63
1.308609393e-63
1.195253669e-63
1.117026858e-63
1.062230882e-63
1.023459536e-63
9.958525103e-64
9.761266379e-64
9.620135729e-64
9.519194781e-64
9.44710977e-64
9.395757342e-64
9.359288185e-64
9.33348177e-64
9.315292559e-64
9.302525963e-64
9.293604527e-64
9.287398125e-64
9.283100232e-64
9.280137725e-64
9.278105187e-64
9.276717196e-64
9.275773781e-64
9.275135534e-64
9.274705753e-64
9.274417694e-64
9.274225522e-64
9.274097922e-64
9.274013605e-64
9.273958178e-64
9.273921963e-64
9.273898499e-64
9.273883513e-64
9.273874219e-64
9.273868865e-64
9.273866423e-64
2.929101951e-29
9.163518148e-33
3.134603846e-36
1.361223344e-39
8.609364974e-43
8.903494678e-46
1.642381025e-48
5.708596991e-51
3.825733487e-53
4.916451152e-55
1.177448012e-56
5.022258331e-58
3.607874867e-59
4.106923595e-60
6.964673837e-61
1.658368944e-61
5.249403765e-62
2.103391305e-62
1.022175272e-62
5.807720313e-63
3.740691159e-63
2.662137402e-63
2.049802291e-63
1.678771395e-63
1.442520176e-63
1.286377888e-63
1.180302785e-63
1.106795571e-63
1.05514421e-63
1.018511718e-63
9.923813753e-64
9.736856283e-64
9.602959999e-64
9.507119084e-64
9.438635264e-64
9.389825495e-64
9.355149202e-64
9.330604078e-64
9.313299552e-64
9.301151326e-64
9.292660453e-64
9.286752615e-64
9.282660869e-64
9.279840071e-64
9.277904508e-64
9.276582578e-64
9.27568396e-64
9.27507595e-64
9.274666485e-64
9.274392013e-64
9.274208886e-64
9.274087278e-64
9.274006913e-64
9.273954078e-64
9.273919554e-64
9.273897184e-64
9.273882894e-64
9.273874032e-64
9.273868926e-64
9.273866597e-64
1.339233689e-30
4.875406957e-34
2.014017111e-37
1.089076143e-40
8.767248404e-44
1.167818344e-46
2.779560276e-49
1.237410537e-51
1.046556624e-53
1.66362247e-55
4.815460546e-57
2.422740095e-58
2.00417596e-59
2.568411886e-60
4.804177352e-61
1.239207472e-61
4.184038836e-62
1.765100973e-62
8.934161812e-63
5.24071136e-63
3.46028182e-63
2.510202795e-63
1.961414942e-63
1.624463339e-63
1.407738109e-63
1.263400112e-63
1.164774422e-63
1.096129834e-63
1.047736022e-63
1.01332854e-63
9.887393386e-64
9.711213434e-64
9.584900243e-64
9.49441286e-64
9.429713358e-64
9.383577785e-64
9.350788332e-64
9.327571286e-64
9.311198671e-64
9.299702041e-64
9.291664991e-64
9.286071922e-64
9.282197556e-64
9.279526215e-64
9.277692949e-64
9.276440715e-64
9.275589365e-64
9.275013265e-64
9.274625242e-64
9.274365113e-64
9.274191535e-64
9.274076255e-64
9.274000063e-64
9.273949966e-64
9.273917227e-64
9.273896011e-64
9.273882458e-64
9.273874052e-64
9.273869208e-64
9.273866999e-64
4.931650577e-32
2.136214501e-35
1.091347335e-38
7.526721887e-42
7.890991348e-45
1.382634528e-47
4.326083126e-50
2.506581989e-52
2.711724126e-54
5.391561106e-56
1.903303317e-57
1.137727233e-58
1.090077203e-59
1.579957413e-60
3.271512414e-61
9.167761246e-62
3.309156274e-62
1.472391173e-62
7.772975771e-63
4.712465294e-63
3.192332115e-63
2.362137869e-63
1.87396482e-63
1.570104086e-63
1.372613693e-63
1.240039524e-63
1.148906656e-63
1.085188874e-63
1.040114503e-63
1.007984354e-63
9.849779038e-64
9.684696365e-64
9.566206703e-64
9.481250918e-64
9.420466103e-64
9.377099297e-64
9.34626475e-64
9.324424437e-64
9.309018292e-64
9.298197662e-64
9.290631571e-64
9.285365239e-64
9.281716568e-64
9.279200434e-64
9.277473417e-64
9.276293586e-64
9.275491347e-64
9.274948406e-64
9.274582669e-64
9.274337447e-64
9.274173796e-64
9.274065095e-64
9.273993243e-64
9.273945993e-64
9.273915111e-64
9.273895097e-64
9.273882309e-64
9.273874378e-64
9.273869807e-64
9.273867722e-64
1.501493702e-33
7.925364188e-37
5.130870349e-40
4.620806997e-43
6.447427901e-46
1.514738255e-48
6.332552058e-51
4.839948391e-53
6.770197913e-55
1.698001436e-56
7.35886022e-58
5.253054035e-59
5.852160726e-60
9.621945009e-61
2.210610316e-61
6.741932853e-62
2.605155747e-62
1.223857797e-62
6.744212555e-63
4.228566531e-63
2.940399814e-63
2.220085216e-63
1.788750481e-63
1.516499165e-63
1.337659978e-63
1.216630987e-63
1.132922642e-63
1.074123892e-63
1.032383403e-63
1.002550997e-63
9.81147114e-64
9.657654937e-64
9.547124372e-64
9.467804831e-64
9.411013527e-64
9.370473836e-64
9.341636821e-64
9.321204057e-64
9.306786464e-64
9.296657537e-64
9.289573497e-64
9.284641688e-64
9.281224146e-64
9.278866988e-64
9.277248823e-64
9.276143181e-64
9.275391274e-64
9.274882322e-64
9.27453943e-64
9.274309494e-64
9.274156023e-64
9.27405407e-64
9.273986668e-64
9.27394234e-64
9.273913364e-64
9.273894582e-64
9.27388258e-64
9.273875136e-64
9.273870845e-64
9.273868888e-64
3.889338048e-35
2.56514012e-38
2.156756824e-41
2.594685353e-44
4.915738401e-47
1.57480558e-49
8.91708794e-52
9.085508557e-54
1.656386053e-55
5.271028935e-57
2.816165808e-58
2.407724885e-59
3.125267249e-60
5.837306764e-61
1.489505587e-61
4.947427788e-62
2.047602801e-62
1.016008483e-62
5.845963449e-63
3.791512171e-63
2.706769445e-63
2.085629061e-63
1.70681104e-63
1.464327113e-63
1.303324888e-63
1.193474551e-63
1.117026206e-63
1.063074988e-63
1.024639892e-63
9.970962979e-64
9.772945097e-64
9.630423055e-64
9.527887898e-64
9.454239376e-64
9.40147115e-64
9.363782201e-64
9.336960901e-64
9.317949328e-64
9.304530341e-64
9.295100424e-64
9.288503688e-64
9.283910143e-64
9.280726373e-64
9.278530046e-64
9.277022024e-64
9.275991467e-64
9.275290509e-64
9.274815968e-64
9.274496211e-64
9.274281755e-64
9.274138595e-64
9.274043478e-64
9.273980587e-64
9.273939219e-64
9.273912174e-64
9.273894641e-64
9.273883437e-64
9.273876486e-64
9.273872479e-64
9.273870651e-64
8.840197115e-37
7.476399036e-40
8.364014664e-43
1.373204115e-45
3.596099536e-48
1.593324522e-50
1.235015905e-52
1.6902194e-54
4.036447137e-56
1.634905972e-57
1.078732512e-58
1.105547553e-59
1.672439456e-60
3.548356934e-61
1.005397916e-61
3.635919389e-62
1.611277921e-62
8.442321565e-63
5.070870075e-63
3.401381679e-63
2.492637004e-63
1.959843004e-63
1.628934649e-63
1.414137341e-63
1.269986996e-63
1.170831509e-63
1.101398722e-63
1.052168818e-63
1.016972858e-63
9.916828516e-64
9.734642523e-64
9.603312447e-64
9.508717179e-64
9.440709435e-64
9.391947812e-64
9.357100666e-64
9.332290275e-64
9.314697356e-64
9.302275676e-64
9.293544143e-64
9.287434439e-64
9.28317907e-64
9.280229072e-64
9.278193615e-64
9.276795789e-64
9.275840366e-64
9.2751904e-64
9.274750306e-64
9.274453712e-64
9.274254759e-64
9.274121926e-64
9.274033657e-64
9.273975284e-64
9.273936883e-64
9.273911773e-64
9.273895493e-64
9.273885087e-64
9.273878631e-64
9.273874909e-64
9.273873211e-64
1.8221536e-38
2.028449738e-41
3.090373017e-44
7.060016239e-47
2.59484254e-49
1.607865704e-51
1.718811963e-53
3.17371508e-55
9.949243647e-57
5.131664904e-58
4.179245604e-59
5.128377298e-60
9.028895438e-61
2.17286395e-61
6.827023436e-62
2.68485649e-62
1.272683271e-62
7.035307478e-63
4.408276845e-63
3.056497274e-63
2.298319694e-63
1.843356846e-63
1.555678355e-63
1.366354438e-63
1.237954918e-63
1.148922537e-63
1.086197192e-63
1.041516985e-63
1.009461643e-63
9.863670698e-64
9.696964288e-64
9.576607619e-64
9.489813747e-64
9.427357408e-64
9.382543844e-64
9.350499694e-64
9.327674266e-64
9.311482549e-64
9.300046398e-64
9.292005285e-64
9.286377229e-64
9.282456401e-64
9.279737726e-64
9.277861492e-64
9.276572757e-64
9.275691734e-64
9.275092271e-64
9.274686301e-64
9.274412655e-64
9.274229065e-64
9.274106469e-64
9.274024988e-64
9.273971095e-64
9.273935635e-64
9.273912445e-64
9.273897407e-64
9.273887794e-64
9.273881829e-64
9.27387839e-64
9.273876821e-64
3.526053911e-40
5.300873232e-43
1.12379022e-45
3.633231073e-48
1.897091373e-50
1.656848263e-52
2.452816156e-54
6.118254054e-56
2.515873152e-57
1.649088084e-58
1.653149797e-59
2.421659062e-60
4.94732267e-61
1.346821381e-61
4.68121414e-62
1.997917298e-62
1.011315794e-62
5.890142366e-63
3.845935318e-63
2.754013133e-63
2.123465003e-63
1.736432148e-63
1.487395162e-63
1.321287204e-63
1.207469625e-63
1.127927606e-63
1.071553434e-63
1.031215104e-63
1.002175223e-63
9.811985195e-64
9.660265417e-64
9.550562042e-64
9.471357972e-64
9.414311206e-64
9.373349628e-64
9.344042921e-64
9.323157517e-64
9.308336122e-64
9.297864265e-64
9.29049898e-64
9.285342564e-64
9.281749427e-64
9.279257403e-64
9.277537217e-64
9.276355425e-64
9.275547351e-64
9.274997417e-64
9.27462492e-64
9.27437379e-64
9.274205275e-64
9.274092725e-64
9.274017908e-64
9.273968415e-64
9.273935843e-64
9.273914539e-64
9.273900722e-64
9.273891888e-64
9.273886405e-64
9.273883243e-64
9.273881801e-64
6.639766408e-42
1.38111681e-44
4.153192244e-47
1.926610696e-49
1.441638701e-51
1.782215426e-53
3.656493738e-55
1.229848069e-56
6.610378059e-58
5.482090499e-59
6.732543482e-60
1.171849189e-60
2.766018754e-61
8.48539356e-62
3.251922904e-62
1.502074135e-62
8.100817943e-63
4.961952758e-63
3.37124442e-63
2.490401845e-63
1.967241824e-63
1.639038442e-63
1.424264629e-63
1.27914073e-63
1.178708914e-63
1.107987333e-63
1.057574195e-63
1.021342492e-63
9.951717885e-64
9.762195276e-64
9.624851797e-64
9.52539558e-64
9.453507119e-64
9.401682808e-64
9.364444558e-64
9.33778641e-64
9.318779471e-64
9.305285732e-64
9.295748618e-64
9.289038729e-64
9.284339862e-64
9.281064729e-64
9.27879272e-64
9.277224054e-64
9.276146126e-64
9.275408918e-64
9.274907112e-64
9.274567145e-64
9.274337903e-64
9.274184045e-64
9.274081266e-64
9.27401293e-64
9.273967716e-64
9.273937956e-64
9.273918486e-64
9.273905857e-64
9.273897781e-64
9.273892768e-64
9.273889877e-64
9.273888558e-64
1.26189226e-43
3.712585857e-46
1.609187877e-48
1.082044233e-50
1.166049879e-52
2.041717992e-54
5.789970403e-56
2.613291804e-57
1.824863175e-58
1.902167549e-59
2.843152012e-60
5.844101381e-61
1.585012504e-61
5.453123312e-62
2.294935757e-62
1.143383767e-62
6.551891192e-63
4.211326738e-63
2.97207617e-63
2.261829766e-63
1.828503957e-63
1.55092442e-63
1.366324099e-63
1.240030114e-63
1.151793335e-63
1.089205422e-63
1.044342037e-63
1.011962382e-63
9.884986889e-64
9.71465036e-64
9.590978613e-64
9.501293094e-64
9.436394217e-64
9.389567396e-64
9.355896394e-64
9.331778184e-64
9.314574033e-64
9.302355243e-64
9.293716218e-64
9.287636296e-64
9.283377388e-64
9.280408136e-64
9.278347817e-64
9.276924978e-64
9.275947038e-64
9.275278068e-64
9.274822613e-64
9.274513986e-64
9.274305833e-64
9.274166102e-64
9.27407274e-64
9.274010655e-64
9.273969568e-64
9.273942518e-64
9.273924819e-64
9.273913336e-64
9.273905991e-64
9.273901432e-64
9.273898802e-64
9.273897602e-64
2.510067946e-45
1.064391493e-47
6.731813872e-50
6.601944002e-52
1.025602965e-53
2.535745528e-55
9.881009627e-57
5.939142673e-58
5.342818687e-59
6.940414474e-60
1.252366375e-60
3.017614491e-61
9.342908198e-62
3.584800396e-62
1.648967716e-62
8.827292353e-63
5.357711518e-63
3.604718472e-63
2.637266901e-63
2.064428173e-63
1.70592235e-63
1.471680718e-63
1.313498465e-63
1.203994631e-63
1.126792936e-63
1.071651846e-63
1.03191681e-63
1.003122563e-63
9.821926855e-64
9.669626769e-64
9.558850329e-64
9.478404151e-64
9.420127703e-64
9.378043026e-64
9.347760991e-64
9.326058022e-64
9.310569423e-64
9.299564624e-64
9.291781181e-64
9.286301669e-64
9.282462235e-64
9.279784718e-64
9.277926362e-64
9.276642687e-64
9.275760192e-64
9.275156376e-64
9.27474519e-64
9.2744665e-64
9.274278498e-64
9.274152267e-64
9.274067908e-64
9.274011797e-64
9.273974657e-64
9.2739502e-64
9.273934195e-64
9.273923809e-64
9.273917165e-64
9.273913039e-64
9.273910659e-64
9.273909574e-64
5.413840136e-47
3.358433605e-49
3.124009774e-51
4.476744822e-53
9.995151103e-55
3.466482527e-56
1.839565061e-57
1.457588868e-58
1.671590244e-59
2.678710017e-60
5.780676653e-61
1.619095609e-61
5.680931922e-62
2.415887184e-62
1.208368602e-62
6.920971681e-63
4.434116463e-63
3.114221175e-63
2.356859802e-63
1.894475382e-63
1.598086677e-63
1.400792685e-63
1.265627123e-63
1.171011496e-63
1.103734337e-63
1.055366503e-63
1.020337546e-63
9.948563693e-64
9.762804628e-64
9.627330356e-64
9.528622036e-64
9.4568437e-64
9.404791763e-64
9.367170796e-64
9.340082386e-64
9.320657496e-64
9.306788202e-64
9.29692997e-64
9.289954995e-64
9.285043073e-64
9.281600334e-64
9.279198804e-64
9.277531567e-64
9.276379623e-64
9.2755875e-64
9.275045391e-64
9.274676141e-64
9.274425818e-64
9.274256914e-64
9.274143482e-64
9.274067659e-64
9.274017215e-64
9.273983819e-64
9.273961823e-64
9.273947425e-64
9.27393808e-64
9.2739321e-64
9.273928387e-64
9.273926245e-64
9.273925267e-64
1.309272851e-48
1.200327436e-50
1.647491044e-52
3.440927812e-54
1.09648181e-55
5.281370854e-57
3.772438979e-58
3.891951724e-59
5.620845677e-60
1.098451148e-60
2.805478021e-61
9.050415197e-62
3.570345212e-62
1.671656565e-62
9.041637017e-63
5.515797955e-63
3.716696895e-63
2.717003768e-63
2.122176156e-63
1.748508005e-63
1.503579409e-63
1.337682927e-63
1.222487395e-63
1.141008646e-63
1.082607721e-63
1.040363081e-63
1.009624618e-63
9.871839071e-64
9.707793369e-64
9.587900674e-64
9.500401945e-64
9.436693598e-64
9.390447277e-64
9.356995449e-64
9.332893186e-64
9.315600242e-64
9.303247451e-64
9.294463624e-64
9.288246611e-64
9.283867048e-64
9.280796523e-64
9.278654036e-64
9.277166241e-64
9.276138016e-64
9.275430791e-64
9.274946667e-64
9.274616835e-64
9.274393181e-64
9.274242237e-64
9.274140843e-64
9.274073052e-64
9.274027941e-64
9.273998069e-64
9.27397839e-64
9.273965505e-64
9.273957141e-64
9.273951788e-64
9.273948463e-64
9.273946545e-64
9.273945669e-64
3.661051168e-50
4.985279756e-52
1.007955667e-53
3.04717198e-55
1.371173882e-56
9.054021599e-58
8.583150025e-59
1.136700374e-59
2.039431411e-60
4.79984661e-61
1.434712876e-61
5.279114493e-62
2.322136753e-62
1.188723751e-62
6.912959399e-63
4.470833373e-63
3.156546717e-63
2.394610374e-63
1.925777919e-63
1.623379163e-63
1.421026753e-63
1.28174427e-63
1.183814184e-63
1.113876178e-63
1.063373481e-63
1.026632946e-63
9.997820534e-64
9.801134457e-64
9.656981112e-64
9.551416327e-64
9.474254799e-64
9.418004818e-64
9.37713328e-64
9.347546348e-64
9.326215233e-64
9.310902404e-64
9.299959085e-64
9.292174408e-64
9.286662609e-64
9.28277857e-64
9.280054634e-64
9.278153441e-64
9.276832846e-64
9.275919933e-64
9.275291861e-64
9.274861813e-64
9.27456875e-64
9.27436998e-64
9.274235799e-64
9.274145643e-64
9.274085351e-64
9.274045221e-64
9.274018641e-64
9.274001126e-64
9.273989657e-64
9.273982209e-64
9.273977441e-64
9.27397448e-64
9.273972771e-64
9.273971991e-64
1.216241177e-51
2.458849157e-53
7.275818538e-55
3.148818262e-56
1.972999248e-57
1.758328826e-58
2.176992472e-59
3.643437968e-60
8.002871554e-61
2.238453348e-61
7.739676053e-62
3.215705682e-62
1.563802893e-62
8.690469499e-63
5.402208052e-63
3.686364344e-63
2.716700093e-63
2.13224502e-63
1.761368427e-63
1.516279236e-63
1.349131181e-63
1.232364315e-63
1.149315978e-63
1.089476302e-63
1.045968338e-63
1.014148914e-63
9.90799881e-64
9.736429034e-64
9.610380291e-64
9.517901173e-64
9.450205969e-64
9.400800196e-64
9.364868813e-64
9.338838742e-64
9.320060472e-64
9.30657325e-64
9.296930288e-64
9.290067925e-64
9.285207422e-64
9.281781213e-64
9.279377623e-64
9.27769953e-64
9.276533579e-64
9.275727352e-64
9.275172532e-64
9.274792541e-64
9.274533525e-64
9.274357804e-64
9.274239151e-64
9.27415941e-64
9.274106069e-64
9.274070558e-64
9.27404703e-64
9.274031524e-64
9.274021367e-64
9.27401477e-64
9.274010546e-64
9.274007922e-64
9.274006407e-64
9.274005715e-64
4.91133123e-53
1.465506634e-54
6.276172411e-56
3.831339602e-57
3.286764291e-58
3.88376427e-59
6.170494413e-60
1.283450161e-60
3.398863515e-61
1.114509134e-61
4.404703231e-62
2.045483045e-62
1.090311339e-62
6.531082031e-63
4.314424664e-63
3.091707574e-63
2.369268415e-63
1.918108707e-63
1.62366383e-63
1.424731789e-63
1.28668994e-63
1.188942948e-63
1.118687509e-63
1.06765179e-63
1.030310825e-63
1.002868804e-63
9.826564394e-64
9.677613628e-64
9.567937795e-64
9.487331085e-64
9.42824604e-64
9.385077559e-64
9.353655086e-64
9.330875263e-64
9.314432003e-64
9.302615903e-64
9.294164025e-64
9.288146932e-64
9.283883601e-64
9.280877351e-64
9.27876772e-64
9.277294421e-64
9.27627047e-64
9.275562237e-64
9.27507472e-64
9.274740737e-64
9.274513021e-64
9.274358494e-64
9.274254126e-64
9.274183966e-64
9.274137023e-64
9.274105762e-64
9.274085046e-64
9.274071389e-64
9.274062441e-64
9.274056628e-64
9.274052905e-64
9.274050592e-64
9.274049256e-64
9.274048646e-64
2.454634479e-54
1.069149114e-55
6.525808888e-57
5.518931673e-58
6.358267475e-59
9.770326764e-60
1.955156771e-60
4.967256873e-61
1.561325503e-61
5.919637981e-62
2.642422634e-62
1.357690834e-62
7.865285542e-63
5.042809302e-63
3.519882058e-63
2.636557998e-63
2.09320448e-63
1.742819464e-63
1.508256463e-63
1.346574307e-63
1.232603407e-63
1.1509042e-63
1.0916195e-63
1.048232992e-63
1.016306119e-63
9.927387023e-64
9.753205864e-64
9.624505689e-64
9.5295452e-64
9.459640965e-64
9.408335659e-64
9.370813098e-64
9.343477826e-64
9.323647574e-64
9.309325234e-64
9.299028159e-64
9.291659629e-64
9.286411758e-64
9.282692122e-64
9.280068382e-64
9.278226597e-64
9.276939966e-64
9.276045489e-64
9.275426633e-64
9.275000522e-64
9.274708525e-64
9.274509382e-64
9.274374208e-64
9.274282887e-64
9.274221481e-64
9.274180384e-64
9.27415301e-64
9.274134864e-64
9.274122899e-64
9.274115057e-64
9.274109961e-64
9.274106697e-64
9.274104668e-64
9.274103497e-64
9.274102962e-64
1.538174927e-55
9.626099461e-57
8.216600599e-58
9.429996167e-59
1.428608892e-59
2.796790258e-60
6.91458291e-61
2.108313593e-61
7.743269111e-62
3.348356665e-62
1.668441903e-62
9.391129272e-63
5.864024858e-63
3.996830844e-63
2.931400453e-63
2.284911183e-63
1.872590478e-63
1.59892381e-63
1.411482932e-63
1.279930719e-63
1.185876409e-63
1.117703739e-63
1.067805968e-63
1.031043567e-63
1.00385021e-63
9.836959155e-64
9.687537639e-64
9.57686371e-64
9.495048842e-64
9.43473181e-64
9.390410491e-64
9.357964854e-64
9.334309733e-64
9.317138104e-64
9.304729107e-64
9.29580336e-64
9.289413425e-64
9.284860753e-64
9.281632716e-64
9.279354975e-64
9.277755562e-64
9.276637903e-64
9.275860666e-64
9.275322768e-64
9.274952293e-64
9.27469835e-64
9.274525112e-64
9.274407489e-64
9.274328003e-64
9.27427454e-64
9.27423875e-64
9.274214904e-64
9.274199092e-64
9.274188663e-64
9.274181827e-64
9.274177383e-64
9.274174536e-64
9.274172766e-64
9.274171743e-64
9.274171277e-64
1.21793004e-56
1.073551184e-57
1.25370279e-58
1.908949553e-59
3.719213113e-60
9.082441336e-61
2.720753312e-61
9.783369478e-62
4.134176989e-62
2.011875832e-62
1.106389856e-62
6.757181301e-63
4.51184945e-63
3.247874481e-63
2.489742105e-63
2.010818316e-63
1.695344563e-63
1.480495734e-63
1.330303772e-63
1.223180495e-63
1.145614973e-63
1.088833096e-63
1.046949539e-63
1.01590507e-63
9.928334474e-64
9.756715884e-64
9.629118913e-64
9.534400795e-64
9.464259495e-64
9.412477594e-64
9.374386115e-64
9.346476197e-64
9.326112957e-64
9.311321804e-64
9.30062736e-64
9.29293129e-64
9.287419371e-64
9.283490758e-64
9.28070421e-64
9.278737326e-64
9.277355748e-64
9.27639001e-64
9.275718217e-64
9.275253153e-64
9.274932749e-64
9.274713064e-64
9.274563153e-64
9.274461339e-64
9.274392516e-64
9.274346213e-64
9.274315207e-64
9.274294542e-64
9.274280836e-64
9.274271794e-64
9.274265864e-64
9.274262009e-64
9.274259539e-64
9.274258002e-64
9.274257115e-64
9.27425671e-64
1.22181141e-57
1.482193701e-58
2.311805407e-59
4.559938559e-60
1.116723372e-60
3.330265561e-61
1.18571399e-61
4.942831438e-62
2.367552088e-62
1.280090581e-62
7.685101134e-63
5.046628132e-63
3.576232788e-63
2.702155284e-63
2.154174375e-63
1.795428018e-63
1.552252283e-63
1.382813481e-63
1.262197688e-63
1.174927452e-63
1.111020329e-63
1.063821549e-63
1.028765183e-63
1.002640574e-63
9.831435135e-64
9.685929925e-64
9.577470722e-64
9.496797163e-64
9.43696145e-64
9.392731827e-64
9.360162743e-64
9.336279208e-64
9.318841515e-64
9.306167884e-64
9.29699976e-64
9.290399069e-64
9.285669705e-64
9.282297571e-64
9.279904877e-64
9.278215419e-64
9.277028322e-64
9.276198265e-64
9.275620675e-64
9.275220705e-64
9.274945063e-64
9.274756013e-64
9.274626968e-64
9.274539301e-64
9.274480023e-64
9.27444013e-64
9.274413408e-64
9.274395594e-64
9.274383775e-64
9.274375975e-64
9.274370859e-64
9.274367531e-64
9.274365399e-64
9.274364072e-64
9.274363306e-64
9.274362956e-64
1.549760621e-58
2.522188635e-59
5.122066018e-60
1.277096232e-60
3.842299067e-61
1.370312085e-61
5.691189057e-62
2.705483665e-62
1.448108441e-62
8.593793288e-63
5.574897673e-63
3.902689572e-63
2.914428832e-63
2.298086339e-63
1.896337642e-63
1.624924335e-63
1.436245229e-63
1.302102389e-63
1.205071007e-63
1.133970158e-63
1.081381494e-63
1.042236383e-63
1.012982734e-63
9.910774805e-64
9.746678871e-64
9.62385496e-64
9.532091038e-64
9.463711453e-64
9.412920856e-64
9.375333645e-64
9.347629636e-64
9.327297874e-64
9.3124436e-64
9.301641468e-64
9.2938233e-64
9.288192011e-64
9.284155571e-64
9.281276413e-64
9.279232775e-64
9.277789287e-64
9.276774684e-64
9.276065011e-64
9.275571034e-64
9.275228856e-64
9.27499297e-64
9.274831136e-64
9.274720636e-64
9.274645543e-64
9.274594753e-64
9.274560562e-64
9.274537653e-64
9.274522375e-64
9.274512236e-64
9.274505543e-64
9.274501151e-64
9.274498295e-64
9.274496463e-64
9.274495323e-64
9.274494665e-64
9.274494364e-64
2.469907094e-59
5.249038769e-60
1.35222825e-60
4.158787878e-61
1.502981012e-61
6.281873056e-62
2.989365753e-62
1.595474715e-62
9.415681698e-63
6.063585422e-63
4.209863731e-63
3.116841104e-63
2.43681514e-63
1.994525342e-63
1.69623155e-63
1.489086123e-63
1.341865355e-63
1.235332153e-63
1.15718158e-63
1.099274946e-63
1.056067328e-63
1.023682079e-63
9.993484714e-64
9.810496479e-64
9.672958453e-64
9.569742324e-64
9.492467911e-64
9.434790748e-64
9.391893221e-64
9.360113358e-64
9.336669174e-64
9.319451051e-64
9.306863723e-64
9.29770515e-64
9.291073324e-64
9.286294444e-64
9.282867616e-64
9.280422361e-64
9.278686083e-64
9.277459268e-64
9.27659667e-64
9.275993119e-64
9.275572873e-64
9.275281676e-64