/*--------------------------------*- C++ -*----------------------------------*\
  =========                 |
  \\      /  F ield         | OpenFOAM: The Open Source CFD Toolbox
   \\    /   O peration     | Website:  https://openfoam.org
    \\  /    A nd           | Version:  10
     \\/     M anipulation  |
\*---------------------------------------------------------------------------*/
FoamFile
{
    format      ascii;
    class       volScalarField;
    location    "0.0002";
    object      Qv;
}
// * * * * * * * * * * * * * * * * * * * * * * * * * * * * * * * * * * * * * //

dimensions      [1 0 -3 0 0 0 0];

internalField   nonuniform List<scalar> 
3600
(
1.4902782e-18
2.678975793e-22
4.354494546e-26
7.574855714e-30
1.67359571e-33
5.51123904e-37
3.099473358e-40
3.299734755e-43
7.09706391e-46
3.168916293e-48
2.918257107e-50
5.358925682e-52
1.86084318e-53
1.145041245e-54
1.163926723e-55
1.821693732e-56
4.106145753e-57
1.25390761e-57
4.914082561e-58
2.35835324e-58
1.331982326e-58
8.564596666e-59
6.100783178e-59
4.708754635e-59
3.868363525e-59
3.334914566e-59
2.983400373e-59
2.745338521e-59
2.580918394e-59
2.465804765e-59
2.384484345e-59
2.326722181e-59
2.285578962e-59
2.25625043e-59
2.235359109e-59
2.220505257e-59
2.209972268e-59
2.202527674e-59
2.197285429e-59
2.193608851e-59
2.19104127e-59
2.189256054e-59
2.188020397e-59
2.18716903e-59
2.186585145e-59
2.186186561e-59
2.185915734e-59
2.185732569e-59
2.185609268e-59
2.185526649e-59
2.185471547e-59
2.18543497e-59
2.185410807e-59
2.185394926e-59
2.185384553e-59
2.185377834e-59
2.185373543e-59
2.185370883e-59
2.185369351e-59
2.185368652e-59
1.029500874e-18
1.880669974e-22
3.119289105e-26
5.556907209e-30
1.26093957e-33
4.272854417e-37
2.474961988e-40
2.713308821e-43
6.002737199e-46
2.751727766e-48
2.59525178e-50
4.867424813e-52
1.721317289e-53
1.075719444e-54
1.107673395e-55
1.752129761e-56
3.983416423e-57
1.224822875e-57
4.826317189e-58
2.326154789e-58
1.31817342e-58
8.49759624e-59
6.064982382e-59
4.688143673e-59
3.855801762e-59
3.326922443e-59
2.978150767e-59
2.741809295e-59
2.578506303e-59
2.464137479e-59
2.383323442e-59
2.325910414e-59
2.285010217e-59
2.255851862e-59
2.235080096e-59
2.220310331e-59
2.209836461e-59
2.202433362e-59
2.197220172e-59
2.193563873e-59
2.191010397e-59
2.189234953e-59
2.188006036e-59
2.187159301e-59
2.186578583e-59
2.186182155e-59
2.18591279e-59
2.185730611e-59
2.185607972e-59
2.185525796e-59
2.185470989e-59
2.185434607e-59
2.185410572e-59
2.185394776e-59
2.185384458e-59
2.185377774e-59
2.185373506e-59
2.18537086e-59
2.185369336e-59
2.185368641e-59
5.082257363e-19
9.527228948e-23
1.635880577e-26
3.04135996e-30
7.25028585e-34
2.59336347e-37
1.589633167e-40
1.84471185e-43
4.312238797e-46
2.081517831e-48
2.057588409e-50
4.023181197e-52
1.475051892e-53
9.505106545e-55
1.004095809e-55
1.622004478e-56
3.750883444e-57
1.169148743e-57
4.656945539e-58
2.263619553e-58
1.291220277e-58
8.366316034e-59
5.994626631e-59
4.647547239e-59
3.831016816e-59
3.311133022e-59
2.967769303e-59
2.734824821e-59
2.573730016e-59
2.460834628e-59
2.381022996e-59
2.324301433e-59
2.28388272e-59
2.255061618e-59
2.234526835e-59
2.219923778e-59
2.209567126e-59
2.202246312e-59
2.19709074e-59
2.193474661e-59
2.190949159e-59
2.189193096e-59
2.187977551e-59
2.187140002e-59
2.186565566e-59
2.186173416e-59
2.18590695e-59
2.185726728e-59
2.185605402e-59
2.185524105e-59
2.185469882e-59
2.185433887e-59
2.185410107e-59
2.185394479e-59
2.18538427e-59
2.185377657e-59
2.185373433e-59
2.185370815e-59
2.185369307e-59
2.185368619e-59
1.798997867e-19
3.498044506e-23
6.313148742e-27
1.248868819e-30
3.200240523e-34
1.239493829e-37
8.259450586e-41
1.042531308e-43
2.643935667e-46
1.377538113e-48
1.459736396e-50
3.035654312e-52
1.174029185e-53
7.916180881e-55
8.684701736e-56
1.44716528e-56
3.431835025e-57
1.09146642e-57
4.417447333e-58
2.174259628e-58
1.25238895e-58
8.175978082e-59
5.892121728e-59
4.588178976e-59
3.794668104e-59
3.287926861e-59
2.952486502e-59
2.724530184e-59
2.566683594e-59
2.455958572e-59
2.377625033e-59
2.321923886e-59
2.28221615e-59
2.253893281e-59
2.233708721e-59
2.219352099e-59
2.209168758e-59
2.201969626e-59
2.196899269e-59
2.19334268e-59
2.190858559e-59
2.189131167e-59
2.187935405e-59
2.187111446e-59
2.186546306e-59
2.186160485e-59
2.185898309e-59
2.185720982e-59
2.185601601e-59
2.185521603e-59
2.185468245e-59
2.185432823e-59
2.185409421e-59
2.185394041e-59
2.185383993e-59
2.185377484e-59
2.185373328e-59
2.18537075e-59
2.185369266e-59
2.185368589e-59
4.590427083e-20
9.370179807e-24
1.806501708e-27
3.879552637e-31
1.093790295e-34
4.705754454e-38
3.500882494e-41
4.936227332e-44
1.393464363e-46
8.026367395e-49
9.317388437e-51
2.100611608e-52
8.712258552e-54
6.233370113e-55
7.185091786e-56
1.246869225e-56
3.0556579e-57
9.977341815e-58
4.123118113e-58
2.062845748e-58
1.203426003e-58
7.93387632e-59
5.760861752e-59
4.511764934e-59
3.747699562e-59
3.257851563e-59
2.932635455e-59
2.711135716e-59
2.557503746e-59
2.449600124e-59
2.373190847e-59
2.318819609e-59
2.28003927e-59
2.252366713e-59
2.232639499e-59
2.218604808e-59
2.208647939e-59
2.201607847e-59
2.196648889e-59
2.193170079e-59
2.190740067e-59
2.189050168e-59
2.187880278e-59
2.187074095e-59
2.186521114e-59
2.186143572e-59
2.185887009e-59
2.185713468e-59
2.185596631e-59
2.185518334e-59
2.185466108e-59
2.185431435e-59
2.185408528e-59
2.185393471e-59
2.185383635e-59
2.185377263e-59
2.185373193e-59
2.18537067e-59
2.185369216e-59
2.185368553e-59
8.509241149e-21
1.848031357e-24
3.872505443e-28
9.218576472e-32
2.92803862e-35
1.435396289e-38
1.223908087e-41
1.978334894e-44
6.371943273e-47
4.151303106e-49
5.388668893e-51
1.341010512e-52
6.057572801e-54
4.659249688e-55
5.704272475e-56
1.040070676e-56
2.652964505e-57
8.944413299e-58
3.791211013e-58
1.934910496e-58
1.146402004e-58
7.648811117e-59
5.604999889e-59
4.420441263e-59
3.691290085e-59
3.221596035e-59
2.908637639e-59
2.694908775e-59
2.54636487e-59
2.441875459e-59
2.367799014e-59
2.315042316e-59
2.277389058e-59
2.250507474e-59
2.231336872e-59
2.217694168e-59
2.208013154e-59
2.201166836e-59
2.196343635e-59
2.192959629e-59
2.190595579e-59
2.188951392e-59
2.187813049e-59
2.187028543e-59
2.186490391e-59
2.186122947e-59
2.185873229e-59
2.185704308e-59
2.185590573e-59
2.185514351e-59
2.185463506e-59
2.185429749e-59
2.185407444e-59
2.185392783e-59
2.185383204e-59
2.185376999e-59
2.185373036e-59
2.185370578e-59
2.185369162e-59
2.185368517e-59
1.158146611e-21
2.715846762e-25
6.300695306e-29
1.698953658e-32
6.226915371e-36
3.56754931e-39
3.576872062e-42
6.795510399e-45
2.556622813e-47
1.924842003e-49
2.8478939e-51
7.954487212e-53
3.969558924e-54
3.321805401e-55
4.362384328e-56
8.424827342e-57
2.251317817e-57
7.878064763e-58
3.439068987e-58
1.79622551e-58
1.083540773e-58
7.330454259e-59
5.429185e-59
4.316634357e-59
3.626794533e-59
3.179959452e-59
2.88098563e-59
2.676163651e-59
2.533472911e-59
2.432922243e-59
2.361542903e-59
2.310655968e-59
2.274309614e-59
2.248346084e-59
2.229821993e-59
2.216634843e-59
2.207274555e-59
2.200653607e-59
2.195988341e-59
2.19271465e-59
2.190427368e-59
2.188836391e-59
2.187734773e-59
2.186975504e-59
2.186454618e-59
2.186098934e-59
2.185857189e-59
2.185693648e-59
2.185583527e-59
2.185509722e-59
2.185460486e-59
2.185427794e-59
2.185406192e-59
2.185391992e-59
2.185382714e-59
2.185376703e-59
2.185372863e-59
2.185370482e-59
2.185369111e-59
2.185368485e-59
1.173179499e-22
3.018332297e-26
7.905573795e-30
2.469194571e-33
1.06989204e-36
7.345171292e-40
8.876928128e-43
2.029798205e-45
9.118505412e-48
8.092602864e-50
1.388814675e-51
4.420042544e-53
2.468185984e-54
2.27123624e-55
3.22771149e-56
6.649820993e-57
1.872359695e-57
6.831605202e-58
3.082544472e-58
1.652327395e-58
1.017056178e-58
6.988716791e-59
5.238290791e-59
4.202934385e-59
3.555680164e-59
3.133817225e-59
2.850223876e-59
2.65525019e-59
2.519058375e-59
2.422895219e-59
2.354527802e-59
2.30573287e-59
2.270850884e-59
2.245917158e-59
2.228118885e-59
2.215443499e-59
2.206443691e-59
2.200076143e-59
2.195588511e-59
2.192438925e-59
2.190238025e-59
2.188706931e-59
2.187646651e-59
2.186915793e-59
2.186414347e-59
2.186071904e-59
2.185839137e-59
2.185681656e-59
2.185575606e-59
2.185504523e-59
2.185457099e-59
2.185425608e-59
2.185404798e-59
2.185391117e-59
2.185382177e-59
2.185376385e-59
2.185372686e-59
2.185370391e-59
2.185369069e-59
2.185368466e-59
8.989619e-24
2.581761149e-27
7.793400421e-31
2.885132664e-34
1.514203792e-37
1.276547288e-40
1.904254207e-43
5.358461018e-46
2.933096727e-48
3.124155407e-50
6.316856735e-52
2.321491153e-53
1.46690764e-54
1.498192878e-55
2.321554939e-56
5.133821845e-57
1.530605114e-57
5.845853219e-58
2.734894709e-58
1.508146804e-58
9.49014039e-59
6.63318231e-59
5.037162086e-59
4.081972653e-59
3.479463272e-59
3.084086303e-59
2.816928736e-59
2.632541819e-59
2.503368883e-59
2.411961439e-59
2.346867804e-59
2.300351597e-59
2.267067268e-59
2.243258463e-59
2.226253789e-59
2.214138361e-59
2.205533197e-59
2.199443187e-59
2.195150176e-59
2.192136599e-59
2.19003039e-59
2.188564953e-59
2.187550003e-59
2.186850306e-59
2.186370184e-59
2.186042267e-59
2.18581935e-59
2.185668518e-59
2.185566936e-59
2.185498841e-59
2.185453406e-59
2.185423233e-59
2.185403292e-59
2.185390181e-59
2.185381613e-59
2.185376062e-59
2.185372515e-59
2.185370316e-59
2.185369048e-59
2.185368471e-59
5.308881094e-25
1.734270978e-28
6.166193121e-32
2.77003913e-35
1.803883539e-38
1.912141541e-41
3.600276332e-44
1.272489077e-46
8.643036574e-49
1.122548964e-50
2.71066748e-52
1.163539704e-53
8.398732835e-55
9.594739521e-56
1.6314115e-56
3.892043876e-57
1.23368544e-57
4.948076854e-58
2.406212814e-58
1.367768158e-58
8.812301143e-59
6.272650488e-59
4.830397409e-59
3.956311522e-59
3.399650203e-59
3.031691957e-59
2.781688918e-59
2.608423585e-59
2.486661632e-59
2.400295387e-59
2.33868259e-59
2.294594845e-59
2.263016158e-59
2.240409917e-59
2.224254484e-59
2.212738743e-59
2.204556479e-59
2.198764019e-59
2.19467974e-59
2.191812082e-59
2.189807487e-59
2.188412521e-59
2.187446237e-59
2.186779998e-59
2.186322775e-59
2.18601046e-59
2.185798124e-59
2.185654435e-59
2.185557653e-59
2.185492769e-59
2.185449471e-59
2.185420715e-59
2.185401708e-59
2.185389211e-59
2.185381043e-59
2.18537575e-59
2.185372368e-59
2.185370271e-59
2.185369062e-59
2.185368511e-59
2.467754935e-26
9.359335871e-30
4.009943497e-33
2.23865908e-36
1.852207503e-39
2.52482521e-42
6.125445805e-45
2.769719819e-47
2.371910315e-49
3.807666732e-51
1.110604089e-52
5.620447714e-54
4.670067069e-55
6.004650336e-56
1.125900399e-56
2.909335652e-57
9.835493557e-58
4.152962104e-58
2.103344728e-58
1.234321158e-58
8.152080964e-59
5.914814387e-59
4.622180111e-59
3.828353124e-59
3.317686059e-59
2.977537787e-59
2.745087315e-59
2.583280799e-59
2.4691961e-59
2.388074198e-59
2.330094233e-59
2.288547265e-59
2.258756466e-59
2.237412583e-59
2.222149592e-59
2.211264572e-59
2.203527381e-59
2.198048233e-59
2.194183833e-59
2.191469936e-59
2.189572446e-59
2.188251779e-59
2.187336812e-59
2.186705861e-59
2.186272794e-59
2.18597694e-59
2.185775769e-59
2.185639619e-59
2.185547903e-59
2.185486408e-59
2.185445368e-59
2.185418107e-59
2.185400087e-59
2.185388237e-59
2.185380492e-59
2.185375472e-59
2.185372264e-59
2.185370275e-59
2.185369128e-59
2.185368605e-59
9.243812105e-28
4.161498901e-31
2.2000293e-34
1.563228376e-37
1.681244514e-40
3.009683062e-43
9.585163386e-46
5.63419478e-48
6.165755727e-50
1.237041177e-51
4.397711063e-53
2.642964096e-54
2.542578243e-55
3.696393048e-56
7.670961628e-57
2.153116977e-57
7.780803589e-58
3.464846693e-58
1.830172546e-58
1.109985167e-58
7.521153701e-59
5.566074855e-59
4.416163032e-59
3.700270378e-59
3.234913187e-59
2.92248025e-59
2.707684995e-59
2.557488745e-59
2.451227296e-59
2.375473145e-59
2.321224159e-59
2.282293394e-59
2.254347203e-59
2.234307688e-59
2.2199679e-59
2.209735917e-59
2.202459865e-59
2.197305513e-59
2.193669151e-59
2.191114775e-59
2.189328438e-59
2.188084895e-59
2.187223211e-59
2.186628905e-59
2.186220929e-59
2.185942175e-59
2.185752605e-59
2.185624289e-59
2.185537839e-59
2.185479867e-59
2.185441173e-59
2.185415467e-59
2.185398473e-59
2.185387296e-59
2.18537999e-59
2.185375254e-59
2.185372228e-59
2.185370351e-59
2.185369269e-59
2.185368775e-59
2.863723584e-29
1.567097878e-32
1.047412295e-35
9.697668595e-39
1.385435716e-41
3.319884625e-44
1.410694133e-46
1.092496498e-48
1.544352127e-50
3.905448307e-52
1.703428562e-53
1.221944682e-54
1.366346783e-55
2.252700696e-56
5.185995955e-57
1.58395189e-57
6.126980741e-58
2.880469508e-58
1.588119934e-58
9.960763414e-59
6.927900454e-59
5.231479083e-59
4.215405337e-59
3.573961166e-59
3.152540486e-59
2.867308466e-59
2.670007876e-59
2.5314038e-59
2.432999775e-59
2.362661582e-59
2.312190353e-59
2.275915726e-59
2.249846142e-59
2.231135697e-59
2.217737718e-59
2.208172549e-59
2.201367701e-59
2.196545422e-59
2.193142311e-59
2.190751168e-59
2.189078603e-59
2.187914025e-59
2.187106905e-59
2.186550137e-59
2.186167866e-59
2.185906634e-59
2.185728954e-59
2.185608668e-59
2.185527616e-59
2.185473256e-59
2.185436969e-59
2.185412858e-59
2.185396916e-59
2.18538643e-59
2.185379575e-59
2.185375131e-59
2.18537229e-59
2.185370528e-59
2.185369512e-59
2.185369049e-59
7.548670187e-31
5.148423588e-34
4.458452286e-37
5.50236115e-40
1.065279605e-42
3.475008798e-45
1.997094519e-47
2.059361463e-49
3.790433874e-51
1.215272146e-52
6.530583503e-54
5.60818038e-55
7.303834974e-56
1.367585683e-56
3.496036955e-57
1.162750766e-57
4.816831733e-58
2.391658321e-58
1.3767464e-58
8.93184577e-59
6.377706229e-59
4.914759991e-59
4.022355395e-59
3.451024328e-59
3.07162348e-59
2.81272955e-59
2.632536353e-59
2.50535619e-59
2.4147426e-59
2.349799417e-59
2.303104903e-59
2.269492996e-59
2.245308619e-59
2.227935473e-59
2.215486298e-59
2.20659353e-59
2.200264184e-59
2.195777204e-59
2.192609724e-59
2.190383541e-59
2.188825991e-59
2.187741262e-59
2.186989333e-59
2.186470541e-59
2.186114281e-59
2.185870784e-59
2.185705139e-59
2.185592982e-59
2.185517397e-59
2.185466696e-59
2.185432846e-59
2.185410351e-59
2.185395476e-59
2.18538569e-59
2.185379291e-59
2.185375142e-59
2.185372491e-59
2.185370845e-59
2.185369897e-59
2.185369464e-59
1.745781909e-32
1.522910274e-35
1.750566144e-38
2.941960915e-41
7.857911725e-44
3.539232681e-46
2.780422132e-48
3.84663604e-50
9.265501415e-52
3.778195935e-53
2.505897572e-54
2.578393643e-55
3.912183356e-56
8.318791833e-57
2.360902384e-57
8.548016687e-58
3.791272695e-58
1.987605384e-58
1.194328956e-58
8.013308297e-59
5.873393952e-59
4.61844839e-59
3.838870639e-59
3.332754605e-59
2.993054344e-59
2.759359327e-59
2.595697921e-59
2.479644469e-59
2.396665312e-59
2.337034223e-59
2.294071937e-59
2.263098714e-59
2.240786495e-59
2.224743547e-59
2.213239313e-59
2.205016853e-59
2.199161889e-59
2.195009618e-59
2.192077468e-59
2.190016101e-59
2.188573504e-59
2.187568605e-59
2.186871869e-59
2.186391063e-59
2.186060827e-59
2.185835076e-59
2.185681477e-59
2.18557746e-59
2.185507348e-59
2.185460311e-59
2.185428901e-59
2.185408026e-59
2.185394219e-59
2.185385134e-59
2.185379193e-59
2.185375341e-59
2.185372878e-59
2.18537135e-59
2.185370469e-59
2.185370067e-59
3.660212995e-34
4.192002873e-37
6.546595341e-40
1.527615159e-42
5.715698355e-45
3.594416883e-47
3.889048934e-49
7.250877979e-51
2.29058401e-52
1.188556971e-53
9.724557665e-55
1.197521311e-55
2.113925309e-56
5.097327723e-57
1.603863753e-57
6.314060952e-58
2.995217684e-58
1.656586096e-58
1.038367857e-58
7.201223312e-59
5.415717554e-59
4.344030108e-59
3.666264262e-59
3.220152756e-59
2.917560467e-59
2.707717932e-59
2.559862665e-59
2.45453172e-59
2.378954967e-59
2.324499009e-59
2.285185981e-59
2.256799973e-59
2.236327302e-59
2.221593509e-59
2.211020432e-59
2.203459144e-59
2.198072453e-59
2.194250782e-59
2.191551189e-59
2.189652763e-59
2.188323853e-59
2.187397928e-59
2.186755808e-59
2.1863126e-59
2.186008128e-59
2.18579995e-59
2.185658282e-59
2.185562327e-59
2.185497638e-59
2.185454232e-59
2.185425242e-59
2.185405972e-59
2.185393224e-59
2.185384835e-59
2.185379348e-59
2.185375789e-59
2.185373514e-59
2.185372102e-59
2.185371288e-59
2.185370917e-59
7.200871443e-36
1.110884745e-38
2.408428069e-41
7.936520652e-44
4.210894988e-46
3.726524047e-48
5.576332295e-50
1.402967731e-51
5.808483105e-53
3.827563947e-54
3.852708268e-55
5.661315749e-56
1.159281504e-56
3.161407709e-57
1.100217474e-57
4.699947981e-58
2.380576128e-58
1.38712282e-58
9.059872647e-59
6.488911317e-59
5.003853705e-59
4.092123732e-59
3.505368874e-59
3.113946786e-59
2.845709882e-59
2.658229604e-59
2.525341323e-59
2.430243362e-59
2.361774191e-59
2.312310649e-59
2.276530756e-59
2.250656554e-59
2.231973584e-59
2.218515533e-59
2.208850978e-59
2.201935418e-59
2.197006411e-59
2.193508065e-59
2.191036024e-59
2.1892971e-59
2.188079517e-59
2.187230952e-59
2.186642346e-59
2.186235987e-59
2.185956773e-59
2.185765826e-59
2.185635859e-59
2.185547813e-59
2.185488445e-59
2.185448602e-59
2.185421987e-59
2.185404292e-59
2.185392585e-59
2.185384879e-59
2.185379838e-59
2.185376568e-59
2.185374477e-59
2.185373179e-59
2.185372431e-59
2.185372089e-59
1.377637171e-37
2.933226484e-40
8.999708597e-43
4.246618997e-45
3.223182408e-47
4.031522511e-49
8.350086784e-51
2.829883933e-52
1.53016929e-53
1.274914889e-54
1.571336403e-55
2.742476171e-56
6.486524041e-57
1.992894712e-57
7.645936681e-58
3.534475897e-58
1.907235975e-58
1.168678405e-58
7.942269856e-59
5.868085295e-59
4.635851461e-59
3.862659923e-59
3.356608511e-59
3.014620395e-59
2.777921793e-59
2.611225863e-59
2.492385564e-59
2.406966406e-59
2.345260193e-59
2.300568956e-59
2.268178401e-59
2.244720314e-59
2.227762439e-59
2.215536036e-59
2.206749685e-59
2.200458905e-59
2.195973073e-59
2.192787993e-59
2.190536538e-59
2.188952299e-59
2.18784272e-59
2.18706923e-59
2.186532573e-59
2.186161996e-59
2.185907313e-59
2.185733106e-59
2.185614509e-59
2.18553415e-59
2.185479954e-59
2.185443576e-59
2.18541927e-59
2.185403108e-59
2.185392412e-59
2.185385371e-59
2.185380764e-59
2.185377775e-59
2.185375864e-59
2.185374677e-59
2.185373993e-59
2.185373681e-59
2.657913072e-39
7.984810725e-42
3.523427503e-44
2.405241985e-46
2.624693411e-48
4.643225146e-50
1.327717613e-51
6.03242336e-53
4.234449312e-54
4.43174202e-55
6.644717787e-56
1.369047713e-56
3.719636279e-57
1.281384676e-57
5.397801538e-58
2.69112194e-58
1.542819421e-58
9.919947522e-59
7.002368564e-59
5.329734046e-59
4.309017047e-59
3.655048995e-59
3.220072148e-59
2.922445252e-59
2.714480518e-59
2.566951246e-59
2.461190073e-59
2.384849954e-59
2.329524632e-59
2.28935634e-59
2.260189106e-59
2.23903486e-59
2.223725248e-59
2.212677476e-59
2.204732542e-59
2.199040938e-59
2.19498044e-59
2.1920962e-59
2.190056688e-59
2.188621138e-59
2.187615414e-59
2.18691414e-59
2.186427468e-59
2.186091329e-59
2.185860262e-59
2.185702175e-59
2.185594529e-59
2.185521575e-59
2.185472364e-59
2.185439324e-59
2.185417245e-59
2.18540256e-59
2.18539284e-59
2.185386441e-59
2.185382252e-59
2.185379535e-59
2.185377796e-59
2.185376717e-59
2.185376094e-59
2.18537581e-59
5.362170644e-41
2.316337714e-43
1.488285979e-45
1.479037937e-47
2.322991525e-49
5.795087807e-51
2.27450007e-52
1.374985144e-53
1.242511405e-54
1.619694169e-55
2.930504943e-56
7.075476068e-57
2.193977899e-57
8.427528554e-58
3.879711373e-58
2.07809688e-58
1.261807093e-58
8.491892016e-59
6.213925128e-59
4.864760622e-59
4.020225174e-59
3.468328698e-59
3.095583777e-59
2.837514365e-59
2.655551382e-59
2.525570816e-59
2.431896009e-59
2.364006724e-59
2.314654216e-59
2.278737979e-59
2.252611105e-59
2.233635479e-59
2.2198876e-59
2.209958273e-59
2.20281273e-59
2.197690905e-59
2.194035175e-59
2.191437401e-59
2.189599808e-59
2.188305974e-59
2.187399274e-59
2.186766878e-59
2.186327896e-59
2.186024623e-59
2.1858161e-59
2.185673404e-59
2.185576218e-59
2.185510338e-59
2.185465889e-59
2.18543604e-59
2.18541609e-59
2.185402818e-59
2.185394031e-59
2.185388245e-59
2.185384457e-59
2.185381999e-59
2.185380426e-59
2.18537945e-59
2.185378886e-59
2.185378629e-59
1.171812994e-42
7.388557076e-45
6.968264342e-47
1.010131503e-48
2.276818367e-50
7.957602583e-52
4.249155738e-53
3.38345443e-54
3.895211745e-55
6.260732975e-56
1.354165244e-56
3.799411156e-57
1.334821813e-57
5.681878296e-58
2.843887455e-58
1.629639072e-58
1.04442745e-58
7.337022783e-59
5.55352678e-59
4.464411393e-59
3.766158251e-59
3.301288498e-59
2.982765881e-59
2.759774502e-59
2.601197369e-59
2.487178758e-59
2.404595469e-59
2.34451536e-59
2.3007119e-59
2.268762441e-59
2.245480992e-59
2.228549296e-59
2.216269361e-59
2.207392846e-59
2.201000645e-59
2.196416261e-59
2.193142603e-59
2.190815394e-59
2.189168608e-59
2.18800875e-59
2.1871957e-59
2.186628467e-59
2.186234616e-59
2.185962454e-59
2.185775277e-59
2.18564716e-59
2.185559882e-59
2.185500705e-59
2.18546077e-59
2.185433947e-59
2.185416014e-59
2.185404082e-59
2.185396181e-59
2.185390977e-59
2.18538757e-59
2.185385358e-59
2.185383942e-59
2.185383063e-59
2.185382556e-59
2.185382325e-59
2.868232191e-44
2.667080556e-46
3.704617247e-48
7.814593088e-50
2.510561955e-51
1.217265875e-52
8.740968909e-54
9.055751723e-55
1.312147043e-55
2.570765561e-56
6.578540058e-57
2.125325151e-57
8.393419567e-58
3.932978687e-58
2.128485938e-58
1.298996885e-58
8.755447342e-59
6.401661554e-59
5.000761377e-59
4.120538407e-59
3.543480875e-59
3.152569765e-59
2.881094597e-59
2.689056276e-59
2.551395593e-59
2.451807486e-59
2.379336579e-59
2.326423328e-59
2.28773856e-59
2.259462667e-59
2.238824311e-59
2.223795634e-59
2.212884904e-59
2.204991761e-59
2.199303986e-59
2.195222586e-59
2.192306758e-59
2.190233097e-59
2.188765205e-59
2.187731011e-59
2.187005834e-59
2.186499765e-59
2.18614829e-59
2.185905348e-59
2.185738226e-59
2.185623808e-59
2.185545843e-59
2.185492969e-59
2.18545728e-59
2.185433302e-59
2.185417268e-59
2.185406597e-59
2.18539953e-59
2.185394873e-59
2.185391824e-59
2.185389844e-59
2.185388577e-59
2.18538779e-59
2.185387336e-59
2.185387128e-59
8.108468983e-46
1.117691607e-47
2.28305489e-49
6.960651888e-51
3.153944175e-52
2.094281406e-53
1.994268428e-54
2.650440896e-55
4.768481171e-56
1.124665935e-56
3.36718143e-57
1.240490286e-57
5.461524343e-58
2.797658065e-58
1.627736153e-58
1.053060589e-58
7.436630353e-59
5.642406366e-59
4.538131209e-59
3.825736901e-59
3.348959909e-59
3.020743446e-59
2.789946021e-59
2.625101108e-59
2.506052954e-59
2.419436807e-59
2.356128938e-59
2.309750197e-59
2.275755003e-59
2.250857228e-59
2.232656354e-59
2.219386535e-59
2.209743449e-59
2.202761953e-59
2.197727911e-59
2.194113693e-59
2.191530455e-59
2.189692591e-59
2.18839115e-59
2.18747393e-59
2.186830581e-59
2.186381489e-59
2.186069499e-59
2.185853793e-59
2.185705369e-59
2.185603727e-59
2.185534451e-59
2.185487458e-59
2.18545573e-59
2.185434409e-59
2.185420149e-59
2.185410655e-59
2.185404367e-59
2.185400222e-59
2.185397508e-59
2.185395745e-59
2.185394616e-59
2.185393915e-59
2.18539351e-59
2.185393326e-59
2.720287238e-47
5.557044215e-49
1.658678862e-50
7.229954587e-52
4.55667729e-53
4.080033135e-54
5.07047433e-55
8.511115379e-56
1.873791344e-56
5.250417944e-57
1.817835933e-57
7.56045754e-58
3.679417984e-58
2.045865075e-58
1.272254165e-58
8.683973986e-59
6.400908615e-59
5.024454612e-59
4.150820878e-59
3.573394587e-59
3.179541185e-59
2.90436792e-59
2.708633912e-59
2.567584663e-59
2.465020547e-59
2.390002802e-59
2.334949146e-59
2.294491134e-59
2.264764213e-59
2.242951788e-59
2.226983134e-59
2.215327403e-59
2.206849503e-59
2.200707028e-59
2.196275247e-59
2.193091776e-59
2.190815392e-59
2.189195202e-59
2.188047493e-59
2.187238353e-59
2.186670639e-59
2.186274229e-59
2.185998761e-59
2.185808255e-59
2.185677136e-59
2.185587321e-59
2.18552609e-59
2.185484545e-59
2.185456487e-59
2.185437629e-59
2.185425012e-59
2.185416611e-59
2.185411044e-59
2.185407374e-59
2.18540497e-59
2.185403409e-59
2.185402409e-59
2.185401788e-59
2.185401429e-59
2.185401265e-59
1.108090707e-48
3.335586698e-50
1.438940429e-51
8.836855295e-53
7.617775116e-54
9.036724635e-55
1.440221426e-55
3.002971917e-56
7.967696562e-57
2.61648449e-57
1.035221792e-57
4.811422565e-58
2.566220857e-58
1.537875193e-58
1.016237577e-58
7.283917175e-59
5.582694094e-59
4.520047605e-59
3.826395951e-59
3.357682448e-59
3.032393233e-59
2.80203028e-59
2.636439518e-59
2.516136759e-59
2.428106594e-59
2.363406197e-59
2.315746246e-59
2.280620476e-59
2.254753724e-59
2.235740698e-59
2.221802458e-59
2.211617747e-59
2.204203365e-59
2.198827619e-59
2.194946731e-59
2.192157574e-59
2.190162271e-59
2.188741581e-59
2.187734834e-59
2.187024839e-59
2.186526534e-59
2.186178485e-59
2.185936555e-59
2.185769196e-59
2.185653977e-59
2.185575033e-59
2.185521199e-59
2.185484663e-59
2.185459982e-59
2.185443389e-59
2.185432284e-59
2.185424889e-59
2.185419987e-59
2.185416755e-59
2.185414637e-59
2.185413261e-59
2.18541238e-59
2.185411832e-59
2.185411516e-59
2.185411371e-59
5.580566271e-50
2.448527761e-51
1.503586643e-52
1.277911379e-53
1.478183985e-54
2.278755847e-55
4.571732147e-56
1.163825062e-56
3.663880605e-57
1.390791273e-57
6.213864689e-58
3.194870433e-58
1.851747073e-58
1.187665882e-58
8.291985286e-59
6.212150582e-59
4.932477429e-59
4.107109066e-59
3.554482347e-59
3.173509698e-59
2.904927049e-59
2.712374305e-59
2.572634552e-59
2.470357909e-59
2.395087815e-59
2.339520056e-59
2.298446928e-59
2.268095259e-59
2.245698023e-59
2.229208646e-59
2.217105073e-59
2.208251971e-59
2.201801682e-59
2.197121767e-59
2.193741286e-59
2.191310571e-59
2.189570938e-59
2.188331806e-59
2.187453405e-59
2.186833719e-59
2.186398658e-59
2.186094692e-59
2.185883343e-59
2.185737098e-59
2.185636386e-59
2.185567363e-59
2.185520282e-59
2.18548832e-59
2.185466724e-59
2.1854522e-59
2.185442478e-59
2.185436002e-59
2.185431708e-59
2.185428876e-59
2.18542702e-59
2.185425814e-59
2.185425041e-59
2.185424561e-59
2.185424283e-59
2.185424156e-59
3.520221985e-51
2.216317825e-52
1.901219057e-53
2.190856428e-54
3.329973664e-55
6.536241052e-56
1.619339049e-56
4.945555194e-57
1.818664373e-57
7.871895088e-58
3.925319387e-58
2.210633007e-58
1.380912045e-58
9.414741679e-59
6.906420465e-59
5.383994146e-59
4.412807654e-59
3.76809768e-59
3.326456551e-59
3.016459346e-59
2.794799302e-59
2.634118138e-59
2.516498412e-59
2.429832809e-59
2.365719259e-59
2.318196739e-59
2.282960394e-59
2.256858618e-59
2.237560932e-59
2.223332323e-59
2.212875835e-59
2.205220198e-59
2.199638027e-59
2.195585337e-59
2.192656309e-59
2.1905492e-59
2.189040525e-59
2.187965489e-59
2.187203142e-59
2.186665148e-59
2.18628732e-59
2.186023261e-59
2.185839604e-59
2.185712483e-59
2.185624918e-59
2.185564887e-59
2.185523928e-59
2.185496115e-59
2.185477316e-59
2.185464671e-59
2.185456204e-59
2.185450562e-59
2.18544682e-59
2.185444352e-59
2.185442733e-59
2.185441681e-59
2.185441007e-59
2.185440588e-59
2.185440346e-59
2.185440235e-59
2.803151407e-52
2.483014835e-53
2.91141648e-54
4.44766709e-55
8.688425906e-56
2.126244105e-56
6.380099094e-57
2.297183619e-57
9.717082763e-58
4.732418846e-58
2.604006243e-58
1.591056125e-58
1.062696844e-58
7.6515514e-59
5.866380842e-59
4.738404216e-59
3.995253777e-59
3.489064861e-59
3.135162864e-59
2.882715638e-59
2.69990476e-59
2.566064277e-59
2.467330705e-59
2.394141163e-59
2.339742658e-59
2.299274066e-59
2.269182821e-59
2.246842979e-59
2.230297882e-59
2.218082047e-59
2.209094857e-59
2.202509087e-59
2.197703483e-59
2.194212425e-59
2.191687968e-59
2.189871052e-59
2.188569609e-59
2.187641885e-59
2.186983766e-59
2.186519171e-59
2.186192785e-59
2.185964606e-59
2.185805857e-59
2.185695944e-59
2.185620209e-59
2.185568274e-59
2.185532828e-59
2.185508752e-59
2.185492475e-59
2.185481522e-59
2.185474186e-59
2.185469297e-59
2.185466053e-59
2.185463913e-59
2.18546251e-59
2.185461597e-59
2.185461012e-59
2.185460648e-59
2.185460438e-59
2.185460342e-59
2.825591154e-53
3.441332363e-54
5.384938805e-55
1.064958883e-55
2.613611167e-56
7.807446792e-57
2.783491303e-57
1.161550154e-57
5.568139402e-58
3.012422916e-58
1.809350819e-58
1.188556636e-58
8.424591474e-59
6.366584465e-59
5.076057261e-59
4.23102457e-59
3.658128774e-59
3.258895084e-59
2.974664834e-59
2.768990769e-59
2.618362234e-59
2.50710403e-59
2.424460066e-59
2.362866218e-59
2.316893441e-59
2.282580717e-59
2.257001379e-59
2.23797301e-59
2.223858055e-59
2.213423304e-59
2.20573863e-59
2.200102635e-59
2.195987216e-59
2.192995776e-59
2.190831491e-59
2.18927309e-59
2.188156358e-59
2.18736e-59
2.186794869e-59
2.186395782e-59
2.186115325e-59
2.185919194e-59
2.185782698e-59
2.185688164e-59
2.185623006e-59
2.185578311e-59
2.185547798e-59
2.185527065e-59
2.185513045e-59
2.185503608e-59
2.185497286e-59
2.18549307e-59
2.185490273e-59
2.185488427e-59
2.185487216e-59
2.185486428e-59
2.185485923e-59
2.185485609e-59
2.185485427e-59
2.185485344e-59
3.598393417e-54
5.874711078e-55
1.1961107e-55
2.988521251e-56
9.006428659e-57
3.216332315e-57
1.337214446e-57
6.362066633e-58
3.407431551e-58
2.023099694e-58
1.312872981e-58
9.193092733e-59
6.866424069e-59
5.414998692e-59
4.468728496e-59
3.829341072e-59
3.384794037e-59
3.068701297e-59
2.840032346e-59
2.672455289e-59
2.548497154e-59
2.45621815e-59
2.387250088e-59
2.33560138e-59
2.296906532e-59
2.267940868e-59
2.246297792e-59
2.230168284e-59
2.218186351e-59
2.209318188e-59
2.202781055e-59
2.197982926e-59
2.19447701e-59
2.191927166e-59
2.190081454e-59
2.188751849e-59
2.18779868e-59
2.187118704e-59
2.186635989e-59
2.186294986e-59
2.186055268e-59
2.185887573e-59
2.185770829e-59
2.18568995e-59
2.185634187e-59
2.185595924e-59
2.185569794e-59
2.185552035e-59
2.185540021e-59
2.185531933e-59
2.185526512e-59
2.185522897e-59
2.185520497e-59
2.185518913e-59
2.185517873e-59
2.185517197e-59
2.185516763e-59
2.185516493e-59
2.185516337e-59
2.185516266e-59
5.753864915e-55
1.225831034e-55
3.164293467e-56
9.747721749e-57
3.527437499e-57
1.475867424e-57
7.028983599e-58
3.753867652e-58
2.216417207e-58
1.427867099e-58
9.916156646e-59
7.343016211e-59
5.741715728e-59
4.700009572e-59
3.9973304e-59
3.509295536e-59
3.162399924e-59
2.911348168e-59
2.727162677e-59
2.590674665e-59
2.488822906e-59
2.412474952e-59
2.355103075e-59
2.311955246e-59
2.279521071e-59
2.255178128e-59
2.236951435e-59
2.22334564e-59
2.213225155e-59
2.205726708e-59
2.200194409e-59
2.196130831e-59
2.193159784e-59
2.190997774e-59
2.189432039e-59
2.18830363e-59
2.187494367e-59
2.186916832e-59
2.186506693e-59
2.186216858e-59
2.186013043e-59
2.185870415e-59
2.185771091e-59
2.185702258e-59
2.185654785e-59
2.185622201e-59