/*--------------------------------*- C++ -*----------------------------------*\
  =========                 |
  \\      /  F ield         | OpenFOAM: The Open Source CFD Toolbox
   \\    /   O peration     | Website:  https://openfoam.org
    \\  /    A nd           | Version:  6
     \\/     M anipulation  |
\*---------------------------------------------------------------------------*/
FoamFile
{
    version     2.0;
    format      ascii;
    class       volVectorField;
    location    "0.0003";
    object      U;
}
// * * * * * * * * * * * * * * * * * * * * * * * * * * * * * * * * * * * * * //

dimensions      [0 1 -1 0 0 0 0];

internalField   nonuniform List<vector> 
600
(
(0 -1.008810132e-11 4.726118139e-13)
(0 -1.021994307e-11 8.879015092e-13)
(0 -1.040770935e-11 1.528729815e-12)
(0 -1.064008849e-11 2.39909792e-12)
(0 -1.096877157e-11 3.610990955e-12)
(0 -1.145240344e-11 5.365945322e-12)
(0 -1.218781037e-11 7.977629105e-12)
(0 -1.335388276e-11 1.19256708e-11)
(0 -1.530178171e-11 1.792636686e-11)
(0 -1.876309974e-11 2.699781476e-11)
(0 -2.530579332e-11 4.035949617e-11)
(0 -3.810782332e-11 5.86201895e-11)
(0 -6.233929582e-11 7.880207979e-11)
(0 -9.950393298e-11 8.72284657e-11)
(0 -1.313922125e-10 6.168556977e-11)
(0 -2.54305408e-12 2.803301747e-24)
(0 2.241148301e-12 1.833293399e-11)
(0 1.083567008e-11 5.329885171e-12)
(0 1.190241286e-11 -1.010065958e-12)
(0 9.411581253e-12 -7.118903761e-12)
(0 5.28087585e-12 -8.034605212e-12)
(0 2.054810405e-12 -7.594420887e-12)
(0 -3.989762394e-13 -6.641867818e-12)
(0 -2.603970875e-12 -5.748592355e-12)
(0 -4.858379773e-12 -4.084234735e-12)
(0 -6.53602468e-12 -7.820444718e-13)
(0 -3.617487102e-12 7.078119098e-12)
(0 8.284409078e-12 1.095704184e-11)
(0 3.260728952e-11 1.051627133e-12)
(0 -2.307395969e-12 -2.557737111e-11)
(0 -9.499437701e-12 4.953662213e-13)
(0 -9.559582067e-12 9.263280094e-13)
(0 -9.588247088e-12 1.585706308e-12)
(0 -9.540217161e-12 2.47175416e-12)
(0 -9.404879618e-12 3.697707551e-12)
(0 -9.141705727e-12 5.472154499e-12)
(0 -8.690709461e-12 8.131340061e-12)
(0 -7.984250729e-12 1.22119614e-11)
(0 -6.996977685e-12 1.858618067e-11)
(0 -5.95381085e-12 2.869956836e-11)
(0 -6.082795329e-12 4.494463739e-11)
(0 -1.197227653e-11 7.086654605e-11)
(0 -3.810838942e-11 1.094911325e-10)
(0 -1.150826841e-10 1.529123397e-10)
(0 -3.232670785e-10 1.773823778e-10)
(0 -6.542452966e-12 -9.648857949e-12)
(0 -5.230010594e-12 3.148971038e-12)
(0 4.927122648e-12 1.757397235e-12)
(0 7.456603444e-12 -1.041261343e-12)
(0 6.720615385e-12 -3.868586488e-12)
(0 4.59229993e-12 -5.030011545e-12)
(0 2.365863676e-12 -5.146353815e-12)
(0 3.992279049e-13 -4.666707203e-12)
(0 -1.299697918e-12 -3.81744995e-12)
(0 -2.66207509e-12 -2.394487757e-12)
(0 -3.252297059e-12 -1.96062605e-13)
(0 -2.240148652e-12 2.570687089e-12)
(0 -9.417293723e-13 2.27162102e-12)
(0 -9.46958816e-12 -6.055782174e-12)
(0 -9.780932345e-12 1.675967765e-11)
(0 -8.922347267e-12 4.657297714e-13)
(0 -8.920861563e-12 8.607532805e-13)
(0 -8.811862997e-12 1.449085506e-12)
(0 -8.517549838e-12 2.212296686e-12)
(0 -7.966409622e-12 3.236215e-12)
(0 -7.018245801e-12 4.690751351e-12)
(0 -5.446294739e-12 6.856932635e-12)
(0 -2.886725753e-12 1.018849385e-11)
(0 1.268974049e-12 1.542657545e-11)
(0 8.101567153e-12 2.381122275e-11)
(0 1.959798231e-11 3.745480714e-11)
(0 3.93059264e-11 5.961216618e-11)
(0 7.059114586e-11 9.229471702e-11)
(0 1.265795807e-10 1.146664601e-10)
(0 1.522652938e-11 7.988934132e-25)
(0 2.073052842e-11 -9.575451751e-12)
(0 8.896627612e-12 -2.595703197e-12)
(0 6.645437707e-12 -4.070897565e-13)
(0 6.276429142e-12 -1.041543712e-12)
(0 5.42283105e-12 -2.282771074e-12)
(0 4.003108522e-12 -3.07046012e-12)
(0 2.418114747e-12 -3.295000444e-12)
(0 9.299276262e-13 -3.061855366e-12)
(0 -3.317514298e-13 -2.459537068e-12)
(0 -1.236992428e-12 -1.481868902e-12)
(0 -1.570849832e-12 -1.802645252e-13)
(0 -1.149803475e-12 1.126085352e-12)
(0 -3.420601851e-13 1.613538612e-12)
(0 6.103469197e-13 2.1802943e-12)
(0 4.341001806e-12 5.105732781e-12)
(0 -8.417440597e-12 3.993326773e-13)
(0 -8.379723485e-12 7.204126178e-13)
(0 -8.18900186e-12 1.169261045e-12)
(0 -7.743080407e-12 1.699335336e-12)
(0 -6.924555018e-12 2.344109581e-12)
(0 -5.520468282e-12 3.194988371e-12)
(0 -3.191122582e-12 4.411665284e-12)
(0 5.99330909e-13 6.243419733e-12)
(0 6.725138984e-12 9.033755027e-12)
(0 1.672304475e-11 1.313353362e-11)
(0 3.356400098e-11 1.852429364e-11)
(0 6.345796558e-11 2.375279072e-11)
(0 1.162512383e-10 2.388381432e-11)
(0 2.274118743e-10 1.345984043e-11)
(0 1.054915973e-11 -2.680439967e-24)
(0 1.573723116e-11 5.507341394e-12)
(0 8.689127244e-12 1.201195441e-12)
(0 6.481282133e-12 2.516946371e-13)
(0 5.580922126e-12 -4.34765996e-13)
(0 4.691698977e-12 -1.15034216e-12)
(0 3.580070559e-12 -1.67423766e-12)
(0 2.374468431e-12 -1.901751564e-12)
(0 1.234691281e-12 -1.826504075e-12)
(0 2.802885456e-13 -1.476846845e-12)
(0 -3.828025469e-13 -8.931278626e-13)
(0 -6.443428035e-13 -1.695397481e-13)
(0 -4.463455144e-13 5.004474075e-13)
(0 1.124795754e-13 8.763359517e-13)
(0 9.670227745e-13 1.113385859e-12)
(0 2.259194497e-12 1.151298921e-12)
(0 -8.01884706e-12 3.229613613e-13)
(0 -7.981995874e-12 5.563601688e-13)
(0 -7.791521363e-12 8.363016828e-13)
(0 -7.333949909e-12 1.07799504e-12)
(0 -6.469134786e-12 1.246593237e-12)
(0 -4.950442584e-12 1.332967558e-12)
(0 -2.398015284e-12 1.352668165e-12)
(0 1.733778636e-12 1.350202476e-12)
(0 8.146823777e-12 1.382133384e-12)
(0 1.750427371e-11 1.405508397e-12)
(0 2.963415048e-11 8.887069268e-13)
(0 4.10745303e-11 -2.124263601e-12)
(0 3.968284755e-11 -1.200925046e-11)
(0 -8.637068522e-12 -2.575995229e-11)
(0 -4.141516556e-12 -1.369124827e-24)
(0 -2.943663478e-12 5.527865765e-12)
(0 3.640980855e-12 1.641257749e-12)
(0 5.00947627e-12 6.474779316e-13)
(0 4.874392345e-12 2.013001924e-13)
(0 4.183359387e-12 -2.094803124e-13)
(0 3.251699119e-12 -5.744724202e-13)
(0 2.265848331e-12 -8.115451062e-13)
(0 1.354832345e-12 -8.658345211e-13)
(0 6.016247824e-13 -7.282385897e-13)
(0 7.031466842e-14 -4.442820505e-13)
(0 -1.772745622e-13 -1.052890501e-13)
(0 -1.039277756e-13 1.68883727e-13)
(0 2.708782656e-13 2.777427031e-13)
(0 8.853098891e-13 2.454852538e-13)
(0 1.540643345e-12 7.292136414e-14)
(0 -7.722708451e-12 2.70239565e-13)
(0 -7.729071369e-12 4.33449211e-13)
(0 -7.633101273e-12 5.65556921e-13)
(0 -7.325455989e-12 5.356824896e-13)
(0 -6.668217637e-12 2.334716194e-13)
(0 -5.414251515e-12 -4.595470965e-13)
(0 -3.174603189e-12 -1.678116174e-12)
(0 6.228448346e-13 -3.560144305e-12)
(0 6.736728459e-12 -6.187362281e-12)
(0 1.593461729e-11 -9.39871092e-12)
(0 2.821415033e-11 -1.227763696e-11)
(0 4.033479424e-11 -1.203266111e-11)
(0 4.031633947e-11 -2.776178167e-12)
(0 -5.993359402e-12 1.471505883e-11)
(0 -4.047585987e-12 1.911480473e-24)
(0 -2.746122572e-12 -5.161788476e-12)
(0 3.808739412e-12 -8.113901373e-13)
(0 5.041324578e-12 4.958339601e-13)
(0 4.723963882e-12 8.02247558e-13)
(0 3.915926363e-12 6.858532999e-13)
(0 2.978005765e-12 3.974568971e-13)
(0 2.083106329e-12 9.576159501e-14)
(0 1.317997798e-12 -9.722411981e-14)
(0 7.018410163e-13 -1.26054956e-13)
(0 2.40146993e-13 -5.052190396e-14)
(0 -3.117702555e-14 2.358106446e-14)
(0 -6.33137611e-14 2.269271837e-15)
(0 1.890811018e-13 -1.80275136e-13)
(0 7.622014352e-13 -4.825594955e-13)
(0 1.469696784e-12 -5.614051891e-13)
(0 -7.481321181e-12 2.759819946e-13)
(0 -7.570915745e-12 4.193566081e-13)
(0 -7.659674822e-12 4.788395867e-13)
(0 -7.659585622e-12 2.723529519e-13)
(0 -7.463131373e-12 -3.844545095e-13)
(0 -6.861743517e-12 -1.720991846e-12)
(0 -5.497892724e-12 -4.039909559e-12)
(0 -2.769966349e-12 -7.729993217e-12)
(0 2.348884005e-12 -1.323811491e-11)
(0 1.169028479e-11 -2.091381891e-11)
(0 2.871969587e-11 -3.049985564e-11)
(0 6.033141845e-11 -3.981898424e-11)
(0 1.168867034e-10 -4.225124424e-11)
(0 2.338668261e-10 -2.88076081e-11)
(0 1.082130646e-11 3.241894356e-24)
(0 1.636955787e-11 -5.238705238e-12)
(0 9.298603279e-12 -2.205371378e-13)
(0 6.623113961e-12 1.345558967e-12)
(0 5.064411684e-12 1.826523969e-12)
(0 3.778568725e-12 1.753600353e-12)
(0 2.661607414e-12 1.382912246e-12)
(0 1.771167314e-12 8.944128075e-13)
(0 1.133015795e-12 5.071870968e-13)
(0 6.483269986e-13 3.717064314e-13)
(0 2.199506894e-13 3.444874948e-13)
(0 -1.244833857e-13 2.474073967e-13)
(0 -3.077839753e-13 -3.897427451e-15)
(0 -2.139505009e-13 -5.194161357e-13)
(0 5.041798362e-13 -1.434920436e-12)
(0 2.026049445e-12 -1.839159113e-12)
(0 -7.205325229e-12 3.6945771e-13)
(0 -7.407301271e-12 5.720078086e-13)
(0 -7.749171416e-12 6.827386647e-13)
(0 -8.181937941e-12 4.681308411e-13)
(0 -8.660257991e-12 -3.160980421e-13)
(0 -9.069477583e-12 -1.992963852e-12)
(0 -9.183495319e-12 -5.024916571e-12)
(0 -8.574648238e-12 -1.008639294e-11)
(0 -6.440916111e-12 -1.816802788e-11)
(0 -1.277242274e-12 -3.074131407e-11)
(0 9.679952884e-12 -4.999335426e-11)
(0 3.11263463e-11 -7.874031355e-11)
(0 6.744631529e-11 -1.17099514e-10)
(0 1.3121674e-10 -1.382646485e-10)
(0 1.558909611e-11 -2.22861824e-25)
(0 2.190872761e-11 9.303304977e-12)
(0 1.03930036e-11 3.823334141e-12)
(0 7.088385679e-12 3.280674208e-12)
(0 5.132005266e-12 3.405234103e-12)
(0 3.472314641e-12 3.119645874e-12)
(0 2.118818222e-12 2.486535562e-12)
(0 1.207381182e-12 1.591959047e-12)
(0 7.952914228e-13 8.598914675e-13)
(0 5.391414147e-13 7.611344876e-13)
(0 1.158479586e-13 8.089787815e-13)
(0 -3.79561947e-13 6.247034487e-13)
(0 -8.301372915e-13 2.533075277e-13)
(0 -1.241941903e-12 -4.596896358e-13)
(0 -5.575415387e-13 -2.898700156e-12)
(0 3.91037572e-12 -6.366763778e-12)
(0 -6.773609463e-12 5.675419223e-13)
(0 -7.098540541e-12 9.264702382e-13)
(0 -7.722415428e-12 1.245270475e-12)
(0 -8.649404576e-12 1.245425525e-12)
(0 -9.922531338e-12 6.523291683e-13)
(0 -1.157050439e-11 -9.035835922e-13)
(0 -1.35932317e-11 -3.975090846e-12)
(0 -1.592819688e-11 -9.410697751e-12)
(0 -1.841376706e-11 -1.852253371e-11)
(0 -2.083648497e-11 -3.333634077e-11)
(0 -2.342479186e-11 -5.689293603e-11)
(0 -2.887129293e-11 -9.315280605e-11)
(0 -4.857992506e-11 -1.443984544e-10)
(0 -1.093638765e-10 -1.983123761e-10)
(0 -2.849193334e-10 -2.191426942e-10)
(0 -4.682495231e-12 9.286291171e-12)
(0 -1.474803298e-12 -1.821225039e-12)
(0 6.205013917e-12 4.54877304e-12)
(0 4.903383348e-12 5.394092221e-12)
(0 2.859870182e-12 4.833475746e-12)
(0 1.133920584e-12 3.851884575e-12)
(0 1.445232163e-13 2.127136951e-12)
(0 3.021912332e-13 5.793528999e-13)
(0 5.974143132e-13 1.003813237e-12)
(0 8.351965057e-14 1.505231266e-12)
(0 -6.801546405e-13 1.188775875e-12)
(0 -1.392177061e-12 8.512347703e-13)
(0 -3.365958193e-12 1.326602736e-12)
(0 -1.234731122e-11 3.610432045e-12)
(0 -1.028669306e-11 -1.940631654e-11)
(0 -6.051224512e-12 8.68151563e-13)
(0 -6.485852945e-12 1.483241896e-12)
(0 -7.36828691e-12 2.174431525e-12)
(0 -8.761467933e-12 2.631047499e-12)
(0 -1.080675707e-11 2.589857348e-12)
(0 -1.36966914e-11 1.704097394e-12)
(0 -1.769233349e-11 -5.602544216e-13)
(0 -2.31354594e-11 -5.050600459e-12)
(0 -3.045774353e-11 -1.309884741e-11)
(0 -4.020773205e-11 -2.670005031e-11)
(0 -5.319094639e-11 -4.848233401e-11)
(0 -7.086619673e-11 -8.072876158e-11)
(0 -9.554453735e-11 -1.215385941e-10)
(0 -1.25311547e-10 -1.545146562e-10)
(0 -1.380728995e-10 -1.39007446e-10)
(0 -3.710881448e-14 5.036972447e-25)
(0 1.040626134e-11 -2.019289179e-11)
(0 1.430370291e-11 1.134113311e-11)
(0 5.416707969e-12 8.788567294e-12)
(0 1.930106994e-12 6.968260858e-12)
(0 -5.87520573e-13 5.9604504e-12)
(0 -2.065150492e-12 2.485424096e-12)
(0 -3.28032293e-13 -1.673397645e-12)
(0 1.465019778e-12 1.169533183e-12)
(0 3.008105962e-13 3.01943408e-12)
(0 -1.033558443e-12 1.773515003e-12)
(0 -6.923104358e-13 6.36586604e-13)
(0 1.517255349e-12 1.30479121e-12)
(0 2.519453865e-11 -1.106477378e-11)
(0 -1.741159849e-12 2.014171009e-11)
(0 -4.9103115e-12 1.243602293e-12)
(0 -5.418782675e-12 2.20059577e-12)
(0 -6.481340382e-12 3.40536611e-12)
(0 -8.214044242e-12 4.532243657e-12)
(0 -1.084576231e-11 5.375766154e-12)
(0 -1.472006773e-11 5.689345998e-12)
(0 -2.03484265e-11 5.078462601e-12)
(0 -2.847123866e-11 2.868493894e-12)
(0 -4.009376035e-11 -2.101644125e-12)
(0 -5.640470169e-11 -1.175437113e-11)
(0 -7.841441029e-11 -2.895188004e-11)
(0 -1.06075062e-10 -5.706266663e-11)
(0 -1.362902088e-10 -9.820182949e-11)
(0 -1.572754142e-10 -1.505539722e-10)
(0 -1.335959242e-10 -2.11626036e-10)
(0 7.527815502e-11 -2.549380776e-10)
(0 3.474171651e-11 -1.533672652e-11)
(0 3.518647269e-11 5.221983597e-11)
(0 5.305111053e-13 1.145110874e-11)
(0 3.175329397e-14 8.290794404e-12)
(0 -3.348916165e-12 1.053636337e-11)
(0 -7.489324809e-12 3.527604527e-12)
(0 -1.013699677e-12 -1.092779449e-11)
(0 5.290246027e-12 2.328459479e-12)
(0 6.875014673e-13 7.629468953e-12)
(0 -3.063002111e-12 2.249039479e-12)
(0 -1.860900854e-12 -1.382302376e-12)
(0 -2.349673668e-11 2.274979286e-11)
(0 -3.851039104e-11 -1.656527584e-11)
(0 -1.113003673e-11 4.980453311e-11)
(0 -3.24163563e-12 1.6267422e-12)
(0 -3.782701886e-12 2.991751116e-12)
(0 -4.904270199e-12 4.801309569e-12)
(0 -6.763263288e-12 6.736482575e-12)
(0 -9.644520182e-12 8.693278685e-12)
(0 -1.399305163e-11 1.059690196e-11)
(0 -2.05122614e-11 1.23161658e-11)
(0 -3.031055987e-11 1.355009852e-11)
(0 -4.505617471e-11 1.357199239e-11)
(0 -6.696879547e-11 1.069503316e-11)
(0 -9.830687873e-11 1.464509221e-12)
(0 -1.403560713e-10 -1.958366576e-11)
(0 -1.941860948e-10 -5.732323046e-11)
(0 -2.735492943e-10 -1.08684185e-10)
(0 -4.290345438e-10 -1.834856546e-10)
(0 -7.091593628e-10 -3.56893343e-10)
(0 -1.333277288e-09 -5.563069205e-10)
(0 -1.560365391e-11 4.325821582e-11)
(0 -2.088623574e-11 1.48901506e-12)
(0 -2.663281058e-12 5.290051201e-13)
(0 -5.350710449e-12 2.436674083e-11)
(0 -2.352930841e-11 1.201654648e-11)
(0 -1.527177342e-12 -4.789367818e-11)
(0 2.002228328e-11 1.144276955e-11)
(0 2.213905888e-13 2.292088709e-11)
(0 -6.366687111e-12 -2.702535587e-12)
(0 2.182337165e-12 -6.181284231e-12)
(0 2.780251441e-12 2.290333213e-11)
(0 5.092913135e-10 -5.196263991e-10)
(0 2.373761388e-11 1.523358698e-11)
(0 -9.172240174e-13 1.880541431e-12)
(0 -1.524900359e-12 3.73246231e-12)
(0 -2.568589114e-12 6.172234502e-12)
(0 -4.2879057e-12 8.939566769e-12)
(0 -6.979180722e-12 1.206512353e-11)
(0 -1.109587055e-11 1.568878402e-11)
(0 -1.739164074e-11 2.004234223e-11)
(0 -2.718970691e-11 2.543681216e-11)
(0 -4.280100855e-11 3.205083205e-11)
(0 -6.783833614e-11 3.903424457e-11)
(0 -1.06282139e-10 4.218036685e-11)
(0 -1.583528088e-10 3.145104716e-11)
(0 -2.13564859e-10 -2.941432027e-12)
(0 -2.769835133e-10 -2.544835189e-11)
(0 -4.258355347e-10 2.328121652e-11)
(0 -6.07677776e-10 -3.444810619e-11)
(0 -8.153379722e-10 -9.489066759e-11)
(0 -2.001970403e-11 1.979570099e-12)
(0 -4.944798911e-11 5.761499503e-13)
(0 -5.539532601e-11 -1.083391072e-11)
(0 -3.556567485e-12 -1.342130923e-11)
(0 6.148603022e-11 2.940996794e-12)
(0 -1.587476608e-12 2.254213552e-12)
(0 -6.513096274e-11 3.29086042e-12)
(0 -1.762611003e-12 -1.24924209e-11)
(0 4.613963161e-11 -8.601769527e-12)
(0 3.099424843e-11 6.315119696e-12)
(0 7.55993518e-12 1.84817434e-11)
(0 -8.056328663e-11 -4.023487377e-10)
(0 9.179947034e-12 -1.168889675e-11)
(0 1.710676493e-12 1.487765967e-12)
(0 1.237188061e-12 4.25093001e-12)
(0 4.60602752e-13 7.305773009e-12)
(0 -8.395078316e-13 1.08020857e-11)
(0 -2.890081824e-12 1.494085944e-11)
(0 -6.015296318e-12 2.005299373e-11)
(0 -1.075818408e-11 2.672643734e-11)
(0 -1.823066937e-11 3.60460044e-11)
(0 -3.096258873e-11 4.977121206e-11)
(0 -5.432101987e-11 6.935544627e-11)
(0 -9.615657157e-11 9.032045401e-11)
(0 -1.568716268e-10 8.989232473e-11)
(0 -1.878147143e-10 2.000746974e-11)
(0 -1.448871982e-10 -3.702622501e-11)
(0 -1.793173626e-10 1.508508427e-10)
(0 4.612997241e-24 -5.837556395e-13)
(0 4.47808264e-12 -2.686724821e-12)
(0 9.847883038e-12 3.066716404e-12)
(0 1.574618783e-11 4.977677446e-12)
(0 1.883770774e-11 -1.237994385e-11)
(0 -3.270996218e-12 -4.160505403e-11)
(0 -2.797839697e-11 -9.210046941e-12)
(0 -1.177313717e-12 5.067866208e-11)
(0 2.540026017e-11 -8.165856903e-12)
(0 2.395391738e-14 -3.90256922e-11)
(0 -2.305759451e-11 -6.887728715e-12)
(0 -2.018006219e-11 1.686961348e-11)
(0 -8.285643724e-12 3.038912657e-11)
(0 -1.254453324e-11 -4.989892956e-12)
(0 -2.509570875e-11 -2.166001656e-11)
(0 4.506691442e-12 1.517528632e-12)
(0 4.365907669e-12 4.608652207e-12)
(0 4.019967344e-12 8.040271049e-12)
(0 3.357126924e-12 1.203137144e-11)
(0 2.271980185e-12 1.684520739e-11)
(0 6.814986818e-13 2.285547387e-11)
(0 -1.418225365e-12 3.07406954e-11)
(0 -4.076002563e-12 4.20610985e-11)
(0 -8.410306402e-12 6.048308918e-11)
(0 -2.032673494e-11 9.251175979e-11)
(0 -5.568406486e-11 1.388803142e-10)
(0 -1.35916812e-10 1.610556476e-10)
(0 -1.296986593e-10 -1.296997691e-11)
(0 7.910516416e-11 -3.149815887e-10)
(0 1.47900796e-11 5.819293303e-12)
(0 2.218866186e-11 6.223568101e-12)
(0 1.089976023e-11 -1.476468108e-12)
(0 7.769309424e-12 1.406946355e-12)
(0 9.426642348e-12 -9.195114046e-13)
(0 8.146552822e-12 -8.294317493e-12)
(0 -3.866711758e-13 -1.50485598e-11)
(0 -7.590639022e-12 -3.854833571e-12)
(0 -5.432865684e-13 1.147590162e-11)
(0 6.525068333e-12 -2.607457983e-12)
(0 -4.844822076e-13 -1.219653016e-11)
(0 -8.089673007e-12 -3.028979669e-12)
(0 -6.050195862e-12 8.094266294e-12)
(0 5.825040595e-12 1.539423152e-11)
(0 1.057696227e-11 -6.312434262e-12)
(0 2.971019275e-13 -1.333097175e-11)
(0 7.578160131e-12 1.51476262e-12)
(0 7.726303122e-12 4.674518117e-12)
(0 7.88377087e-12 8.234347291e-12)
(0 7.966317894e-12 1.244259106e-11)
(0 7.92607584e-12 1.755254497e-11)
(0 7.829795459e-12 2.377455005e-11)
(0 8.235698012e-12 3.127932425e-11)
(0 1.096380182e-11 4.06954889e-11)
(0 1.973570897e-11 5.54583499e-11)
(0 3.571477106e-11 8.793107225e-11)
(0 4.100815817e-11 1.579886656e-10)
(0 -7.614539255e-11 2.700249358e-10)
(0 3.050809039e-24 -3.396300838e-12)
(0 -1.430531776e-11 -5.886717573e-12)
(0 -1.865181875e-11 1.679648906e-12)
(0 -2.544985743e-12 7.466460109e-12)
(0 4.412236551e-12 1.610900642e-12)
(0 5.654063944e-12 2.067222022e-13)
(0 6.044923961e-12 -1.768279778e-12)
(0 4.708659303e-12 -4.8293304e-12)
(0 1.168487707e-12 -6.440096248e-12)
(0 -1.453935471e-12 -2.63669369e-12)
(0 7.006187325e-14 1.687136855e-12)
(0 1.727828313e-12 -1.543462128e-12)
(0 -3.975677638e-13 -4.124102946e-12)
(0 -2.766797994e-12 -1.126082668e-12)
(0 -1.756850949e-12 3.141985747e-12)
(0 2.183043038e-12 4.530081138e-12)
(0 3.730261999e-12 -1.749813444e-12)
(0 7.167934694e-13 -4.602441552e-12)
(0 1.06003767e-11 1.406760943e-12)
(0 1.106397068e-11 4.374167505e-12)
(0 1.178774693e-11 7.791422073e-12)
(0 1.267752416e-11 1.195428896e-11)
(0 1.358432768e-11 1.714429897e-11)
(0 1.42378008e-11 2.341501824e-11)
(0 1.458858346e-11 3.002448969e-11)
(0 1.647687148e-11 3.446964215e-11)
(0 2.924565762e-11 3.236490319e-11)
(0 7.661569149e-11 2.464579596e-11)
(0 2.196474886e-10 2.2334368e-11)
(0 1.197753473e-11 1.07671312e-11)
(0 1.898866984e-11 -1.826290591e-12)
(0 9.826725433e-12 -7.578034242e-12)
(0 3.267870091e-12 -5.916199791e-12)
(0 1.995302571e-12 2.27265317e-13)
(0 3.640022337e-12 2.470315935e-13)
(0 4.390129014e-12 -4.224387597e-13)
(0 4.390589758e-12 -1.530992523e-12)
(0 3.474736363e-12 -2.814648971e-12)
(0 1.805965527e-12 -3.24588439e-12)
(0 5.365940599e-13 -1.939029198e-12)
(0 5.499449905e-13 -5.473216244e-13)
(0 7.138285475e-13 -1.129490389e-12)
(0 -6.710274658e-14 -1.630368276e-12)
(0 -8.235843308e-13 -4.93221531e-13)
(0 -3.940320691e-13 1.069526279e-12)
(0 9.332414137e-13 1.334130721e-12)
(0 1.444439605e-12 -6.142532053e-13)
(0 4.72217461e-13 -1.753923699e-12)
(0 1.329877331e-11 1.164271026e-12)
(0 1.410779532e-11 3.64952247e-12)
(0 1.548247374e-11 6.610882904e-12)
(0 1.735132597e-11 1.043829122e-11)
(0 1.940381203e-11 1.565477131e-11)
(0 2.044965166e-11 2.281493251e-11)
(0 1.719576476e-11 3.186835934e-11)
(0 2.434319734e-12 4.010963503e-11)
(0 -3.231526851e-11 3.787632985e-11)
(0 -8.800752535e-11 1.75767348e-11)
(0 -4.606704174e-12 2.908143352e-26)
(0 -1.826290466e-12 1.414714766e-11)
(0 6.530221883e-12 2.170593792e-12)
(0 6.480159775e-12 -2.36337364e-12)
(0 4.527315715e-12 -2.619973951e-12)
(0 3.618245638e-12 -8.883706966e-13)
(0 3.762532477e-12 -4.274906289e-13)
(0 3.876039829e-12 -6.124803909e-13)
(0 3.65271375e-12 -1.118639995e-12)
(0 2.993767435e-12 -1.652466659e-12)
(0 2.044107478e-12 -1.789815552e-12)
(0 1.244627293e-12 -1.326293195e-12)
(0 8.796006824e-13 -8.07979588e-13)
(0 6.447816635e-13 -7.968519489e-13)
(0 2.387010955e-13 -7.745962273e-13)
(0 -6.690343955e-14 -2.858398e-13)
(0 7.050130229e-14 2.953424823e-13)
(0 4.992635537e-13 3.513940813e-13)
(0 6.422075794e-13 -2.870323522e-13)
(0 2.702007424e-13 -7.380124472e-13)
(0 1.540663378e-11 7.796193453e-13)
(0 1.656561861e-11 2.46620537e-12)
(0 1.867885691e-11 4.564254615e-12)
(0 2.190731299e-11 7.509791001e-12)
(0 2.631730264e-11 1.213332106e-11)
(0 3.099030219e-11 2.010734373e-11)
(0 3.131646924e-11 3.469663148e-11)
(0 1.106252909e-11 6.142903489e-11)
(0 -6.592936018e-11 1.040775462e-10)
(0 -3.075146612e-10 1.738095115e-10)
(0 -1.07282394e-11 -6.02581478e-12)
(0 -1.07272586e-11 -3.96920006e-12)
(0 2.478148461e-12 -1.275100201e-12)
(0 5.036157677e-12 -1.426172905e-12)
(0 4.742873041e-12 -1.312063029e-12)
(0 4.1877859e-12 -7.334188252e-13)
(0 3.915912643e-12 -4.562057777e-13)
(0 3.698979647e-12 -4.814569894e-13)
(0 3.350603487e-12 -6.786842255e-13)
(0 2.803560803e-12 -8.868668204e-13)
(0 2.132138992e-12 -9.346556286e-13)
(0 1.518430027e-12 -7.684177616e-13)
(0 1.079386238e-12 -5.614553517e-13)
(0 7.472119076e-13 -4.753337615e-13)
(0 4.439094035e-13 -3.851938572e-13)
(0 2.463543822e-13 -1.707314712e-13)
(0 2.432018141e-13 4.655367966e-14)
(0 3.508665772e-13 6.34266908e-14)
(0 3.55033073e-13 -1.469534129e-13)
(0 1.654039217e-13 -3.170723447e-13)
(0 1.672041356e-11 2.746161256e-13)
(0 1.815333472e-11 8.739813125e-13)
(0 2.092480245e-11 1.641571294e-12)
(0 2.564157203e-11 2.781298332e-12)
(0 3.357985817e-11 4.738209187e-12)
(0 4.703309132e-11 8.543396935e-12)
(0 6.96201214e-11 1.645060335e-11)
(0 1.02769186e-10 3.204051496e-11)
(0 1.627068788e-10 4.988275649e-11)
(0 1.884957309e-11 3.506004992e-24)
(0 3.167331879e-11 -6.02581478e-12)
(0 1.829825926e-11 -7.349216522e-12)
(0 9.073249031e-12 -1.875683746e-12)
(0 6.443196947e-12 -7.541159335e-13)
(0 5.220069793e-12 -4.686444721e-13)
(0 4.474102888e-12 -2.769191802e-13)
(0 4.014494312e-12 -1.823274833e-13)
(0 3.653561381e-12 -1.783375105e-13)
(0 3.24730392e-12 -2.277457487e-13)
(0 2.737796033e-12 -2.816370777e-13)
(0 2.162556537e-12 -2.93510519e-13)
(0 1.617827569e-12 -2.512195325e-13)
(0 1.172684682e-12 -1.941129767e-13)
(0 8.210431575e-13 -1.579210881e-13)
(0 5.433033851e-13 -1.202817266e-13)
(0 3.648440963e-13 -5.852710627e-14)
(0 3.046594637e-13 -1.792012155e-15)
(0 3.057564615e-13 2.93054344e-15)
(0 2.617085447e-13 -4.6902128e-14)
(0 1.243973876e-13 -9.0393985e-14)
)
;

boundaryField
{
    lowerWall
    {
        type            slip;
    }
    atmosphere
    {
        type            pressureInletOutletVelocity;
        tangentialVelocity uniform (0 0 0);
        value           nonuniform List<vector> 
20
(
(0 -1.008810132e-11 4.726118139e-13)
(0 -9.499437701e-12 4.953662213e-13)
(0 -8.922347267e-12 4.657297714e-13)
(0 -8.417440597e-12 3.993326773e-13)
(0 -8.01884706e-12 3.229613613e-13)
(0 -7.722708451e-12 2.70239565e-13)
(0 -7.481321181e-12 2.759819946e-13)
(0 -7.205325229e-12 3.6945771e-13)
(0 -6.773609463e-12 5.675419223e-13)
(0 -6.051224512e-12 8.68151563e-13)
(0 -4.9103115e-12 1.243602293e-12)
(0 -3.24163563e-12 1.6267422e-12)
(0 -9.172240174e-13 1.880541431e-12)
(0 1.710676493e-12 0)
(0 4.506691442e-12 0)
(0 7.578160131e-12 0)
(0 1.06003767e-11 0)
(0 1.329877331e-11 0)
(0 1.540663378e-11 0)
(0 1.672041356e-11 0)
)
;
    }
    rightWall
    {
        type            empty;
    }
    leftWall
    {
        type            empty;
    }
    frontAndBack
    {
        type            slip;
    }
    procBoundary4to2
    {
        type            processor;
        value           nonuniform List<vector> 
30
(
(0 -1.061728801e-11 3.951826478e-13)
(0 -1.081477247e-11 7.412643933e-13)
(0 -1.114743588e-11 1.273339901e-12)
(0 -1.163249223e-11 1.990875004e-12)
(0 -1.237357712e-11 2.981164935e-12)
(0 -1.350873269e-11 4.399586011e-12)
(0 -1.525113365e-11 6.483140973e-12)
(0 -1.793747536e-11 9.579323171e-12)
(0 -2.209646846e-11 1.417657135e-11)
(0 -2.853175925e-11 2.090704781e-11)
(0 -3.834058857e-11 3.04404574e-11)
(0 -5.24841819e-11 4.310825912e-11)
(0 -6.967307302e-11 5.816987494e-11)
(0 -7.942093403e-11 7.346558768e-11)
(0 -5.092205762e-11 8.911256228e-11)
(0 1.007759286e-10 9.792327723e-11)
(0 1.431549114e-11 1.283078115e-11)
(0 2.427012254e-11 2.24114827e-12)
(0 1.990539237e-11 -1.208935717e-12)
(0 1.374515464e-11 -1.556215857e-11)
(0 5.067817057e-12 -1.239534403e-11)
(0 9.731262823e-13 -1.05551742e-11)
(0 -1.446600627e-12 -8.55753208e-12)
(0 -3.857331e-12 -8.451247971e-12)
(0 -7.628622973e-12 -7.411678765e-12)
(0 -1.441465089e-11 -5.929092307e-12)
(0 -1.397923496e-11 1.556549891e-11)
(0 -3.344655877e-12 2.49976324e-11)
(0 -1.793517393e-11 8.476072208e-12)
(0 -1.902252856e-11 -5.727046179e-11)
)
;
    }
    procBoundary4to5
    {
        type            processor;
        value           nonuniform List<vector> 
20
(
(0 -3.464406723e-11 5.542448077e-12)
(0 -3.134242107e-12 -1.110257801e-11)
(0 4.150173772e-12 -5.904190663e-12)
(0 2.187682377e-12 -1.686972611e-12)
(0 1.54805086e-12 -5.440124612e-13)
(0 1.549850907e-12 2.846607698e-15)
(0 2.220043252e-12 1.005758514e-12)
(0 4.33494782e-12 4.913169177e-12)
(0 -2.414913901e-12 9.654090056e-12)
(0 -3.235234642e-11 -7.157341946e-12)
(0 5.565319459e-12 -2.290630697e-11)
(0 3.177634019e-11 -4.565403299e-12)
(0 1.320300467e-11 1.629128745e-11)
(0 -1.636824125e-11 1.100264912e-11)
(0 -5.133841282e-12 -6.245433772e-13)
(0 -1.632090401e-12 -1.574697901e-12)
(0 -5.423405866e-13 -1.06084593e-12)
(0 -1.988923602e-13 -5.938458902e-13)
(0 -8.791534684e-14 -2.92756768e-13)
(0 -5.387687467e-14 -8.790866213e-14)
)
;
    }
}


// ************************************************************************* //
