/*--------------------------------*- C++ -*----------------------------------*\
  =========                 |
  \\      /  F ield         | OpenFOAM: The Open Source CFD Toolbox
   \\    /   O peration     | Website:  https://openfoam.org
    \\  /    A nd           | Version:  6
     \\/     M anipulation  |
\*---------------------------------------------------------------------------*/
FoamFile
{
    version     2.0;
    format      ascii;
    class       volScalarField;
    location    "0.0003";
    object      ViscousDissipation;
}
// * * * * * * * * * * * * * * * * * * * * * * * * * * * * * * * * * * * * * //

dimensions      [1 -1 -3 0 0 0 0];

internalField   nonuniform List<scalar> 
600
(
1.755391311e-22
4.093804e-22
7.250044948e-22
1.343529593e-21
2.725178788e-21
5.913669354e-21
1.340094056e-20
3.113659224e-20
7.31134817e-20
1.705176444e-19
3.822835713e-19
7.704203021e-19
1.230425239e-18
2.035272249e-18
1.295665517e-17
6.352349908e-18
1.139550637e-16
2.566741968e-16
9.511959694e-17
8.514787487e-17
3.317724104e-17
1.993753527e-17
1.331026027e-17
1.659779309e-17
2.742735891e-17
8.645528476e-17
2.02471496e-16
5.595177932e-16
2.186749777e-16
1.681227337e-18
1.864348403e-22
4.17735319e-22
7.184751765e-22
1.311319638e-21
2.656993466e-21
5.842777223e-21
1.355539501e-20
3.260138011e-20
8.085028778e-20
2.07859048e-19
5.615335028e-19
1.634378827e-18
5.028925292e-18
1.997031516e-17
2.314849314e-18
1.271069211e-17
2.233717313e-16
6.981326913e-17
2.028146812e-17
1.933372679e-17
1.42901871e-17
1.107635558e-17
9.080663161e-18
9.303344722e-18
1.122339738e-17
1.519623457e-17
1.614279438e-17
8.792996428e-17
7.094158399e-17
1.6364663e-19
1.600969047e-22
3.493052614e-22
5.991131802e-22
1.122656206e-21
2.374726957e-21
5.4741125e-21
1.324487559e-20
3.303064432e-20
8.506831166e-20
2.303539338e-19
6.693341614e-19
2.023218416e-18
5.821606654e-18
6.899117241e-18
5.737121723e-18
1.413128309e-16
1.428902647e-16
4.255553004e-18
2.712821501e-18
6.33845519e-18
6.810595226e-18
6.088970539e-18
5.190333211e-18
4.62389818e-18
4.322906187e-18
4.149650172e-18
3.729329269e-18
2.215593081e-18
5.192828003e-17
8.04810725e-17
1.120119103e-22
2.340378441e-22
4.040789227e-22
8.220321553e-22
1.93880194e-21
4.892185786e-21
1.250880426e-20
3.176082934e-20
8.008845966e-20
2.041380473e-19
5.518042292e-19
1.63023091e-18
6.48601848e-18
4.155938242e-18
4.68165563e-18
1.475892503e-16
4.843331874e-17
4.915560591e-18
2.64570406e-18
3.467831782e-18
3.880716237e-18
3.571534468e-18
2.917393025e-18
2.24265139e-18
1.630927953e-18
1.187105958e-18
1.121023811e-18
1.382076702e-18
2.592326676e-18
1.295835033e-17
6.508807234e-23
1.183419147e-22
1.982905925e-22
4.992694445e-22
1.486901511e-21
4.339124336e-21
1.185090959e-20
3.006594328e-20
6.971414547e-20
1.406516854e-19
2.213502341e-19
2.805144247e-19
1.305093919e-18
4.248720605e-18
2.861069788e-20
9.640856404e-17
3.504429646e-17
1.746810294e-18
1.122512938e-18
2.197721993e-18
2.650535534e-18
2.365213604e-18
1.76032226e-18
1.167666644e-18
6.380183543e-19
2.498678369e-19
2.263726317e-19
6.423153109e-19
1.293705229e-18
1.408358571e-18
3.621280054e-23
4.048232692e-23
4.607291389e-23
2.597355389e-22
1.200155837e-21
4.177263963e-21
1.228297045e-20
3.209456569e-20
7.485362526e-20
1.492520174e-19
2.269664212e-19
2.711585523e-19
1.348533622e-18
5.117774328e-18
4.789984163e-21
1.063396227e-16
3.906461121e-17
1.992134404e-18
1.213564321e-18
2.204225542e-18
2.404573153e-18
1.876613295e-18
1.186417628e-18
7.24379174e-19
3.671277917e-19
6.768183278e-20
4.921941245e-20
5.448246374e-19
1.449475992e-18
1.447357471e-18
3.473852735e-23
2.790763154e-23
8.008568274e-24
2.199633365e-22
1.285914182e-21
4.771215408e-21
1.451036599e-20
3.960703938e-20
1.014989979e-19
2.538386794e-19
6.612664921e-19
1.893876048e-18
7.32225872e-18
4.9919047e-18
5.021256089e-18
1.555109273e-16
6.194297581e-17
1.038526589e-17
4.634061532e-18
3.686063882e-18
3.009223396e-18
1.862475353e-18
8.302695553e-19
5.102856867e-19
4.167000105e-19
2.690644496e-19
3.801896716e-19
1.47350286e-18
4.37149649e-18
1.480456186e-17
7.844697052e-23
1.261168932e-22
1.743065654e-22
5.44009882e-22
2.025107477e-21
6.565477933e-21
1.903007762e-20
5.163426522e-20
1.362217555e-19
3.621225794e-19
9.978762513e-19
2.782572965e-18
7.170109633e-18
6.889943514e-18
5.20194645e-18
1.178011405e-16
1.107502501e-16
1.167271644e-17
7.882654552e-18
6.174616911e-18
4.845510488e-18
2.610724942e-18
5.586586048e-19
2.641487966e-19
6.793881562e-19
7.312745822e-19
1.166684982e-18
7.120235377e-18
6.949447884e-17
1.044670237e-16
2.166165995e-22
4.394348054e-22
7.080093984e-22
1.480090769e-21
3.800621637e-21
1.014834115e-20
2.664238635e-20
6.849884553e-20
1.740606981e-19
4.409689713e-19
1.112347024e-18
2.747187026e-18
6.303617618e-18
1.726519643e-17
4.756801938e-18
1.168925854e-17
2.153820557e-16
6.395549541e-17
1.229658556e-17
1.02979157e-17
1.039312594e-17
6.984376581e-18
2.78866144e-18
5.881070069e-19
2.007972294e-18
1.327111884e-18
2.254891239e-18
4.218228757e-17
3.876645512e-17
1.334367918e-19
5.380314048e-22
1.141187902e-21
1.845016573e-21
3.33452412e-21
7.016543454e-21
1.605864282e-20
3.80477398e-20
9.114297649e-20
2.176719312e-19
5.085082197e-19
1.116498286e-18
2.106346252e-18
2.675065393e-18
9.653319099e-19
1.012146744e-17
1.711034037e-17
4.631639454e-16
1.212588104e-15
6.952176277e-17
1.951203264e-17
3.074243244e-17
3.615206156e-17
4.522568509e-17
1.408346642e-17
1.355965073e-17
4.105568078e-18
3.638588147e-18
4.986996768e-16
1.355213971e-16
1.349732428e-18
1.150785682e-21
2.420099711e-21
3.809868691e-21
6.350828737e-21
1.192982176e-20
2.458547532e-20
5.377056033e-20
1.216834008e-19
2.784252326e-19
6.250558758e-19
1.315857671e-18
2.434847799e-18
3.685611318e-18
5.406648699e-18
2.202239224e-17
4.232527856e-17
1.120010413e-16
6.688870132e-16
1.144929032e-15
2.185538163e-17
1.343684945e-16
3.102758084e-16
7.019810343e-16
2.430367533e-16
1.420262606e-16
3.945615684e-17
2.247631575e-16
5.812640015e-16
4.927827901e-17
3.579576999e-19
2.188219383e-21
4.389032412e-21
6.664098241e-21
1.051137306e-20
1.839534532e-20
3.542212386e-20
7.358953967e-20
1.616952373e-19
3.666761721e-19
8.279935004e-19
1.770810715e-18
3.399874182e-18
5.964214476e-18
1.489969847e-17
6.067998689e-17
2.375367665e-16
7.66170789e-17
2.068712733e-16
7.630824742e-19
3.465934241e-16
3.271260055e-16
6.206912108e-18
6.314381254e-16
1.237441284e-18
3.777410226e-16
9.865869937e-17
3.083180728e-19
4.708917383e-17
2.442174976e-17
5.099149771e-17
3.397818922e-21
6.937875765e-21
1.013779037e-20
1.534840709e-20
2.559982735e-20
4.712816453e-20
9.52123298e-20
2.091621571e-19
4.866870777e-19
1.130910271e-18
2.37715045e-18
3.787376069e-18
3.109384151e-18
8.904730517e-18
3.932554113e-17
7.187962503e-17
2.218308864e-16
6.418524893e-17
2.576191816e-19
3.830852222e-19
3.020178287e-18
8.615802481e-20
7.850112813e-15
7.133379912e-20
2.712547306e-18
1.819440976e-19
3.381421166e-19
1.583379114e-17
6.713376763e-17
1.266933021e-17
9.043648104e-21
1.029245195e-20
1.366611242e-20
1.995216384e-20
3.202041523e-20
5.667463628e-20
1.123501136e-19
2.542931482e-19
6.434626144e-19
1.626458435e-18
3.38355719e-18
4.062014903e-18
2.249142686e-19
3.345335977e-17
1.982555215e-17
2.020228542e-17
5.529916847e-17
2.304185821e-16
3.128168889e-16
1.560688324e-16
6.751445002e-16
9.75146246e-17
8.952570118e-16
6.070282303e-17
7.169277321e-16
1.343434287e-16
6.749984326e-17
1.055421917e-16
1.734882152e-17
7.09124143e-21
1.044324552e-20
1.235506679e-20
1.627126419e-20
2.333446973e-20
3.59921582e-20
5.978954002e-20
1.122535577e-19
2.640651019e-19
8.006599594e-19
2.527904414e-18
6.054622271e-18
6.7479879e-18
1.458585687e-17
4.156105851e-18
1.986690843e-17
3.91346789e-17
7.265197168e-17
5.170911071e-18
7.130372456e-17
1.684656746e-16
4.645229311e-16
4.421683637e-16
7.934520814e-16
3.550646905e-16
4.365985051e-16
2.706090438e-16
3.234408034e-16
2.905150478e-16
3.614616747e-17
3.152190056e-16
1.095090478e-20
1.308851363e-20
1.753598962e-20
2.521312231e-20
3.722790318e-20
5.404245811e-20
8.010935055e-20
1.757691513e-19
7.649821498e-19
3.874212919e-18
2.001244486e-17
2.15035315e-18
1.597348574e-18
1.063273418e-17
8.466483447e-17
2.357252929e-16
5.353843934e-17
8.795635032e-18
1.585082283e-17
2.971254852e-17
5.697992786e-17
4.176196192e-17
4.788816011e-17
2.132404828e-17
4.030180079e-17
3.471601504e-17
4.202148064e-17
8.403838436e-17
6.141057533e-17
4.964787768e-17
9.643250159e-21
1.218075599e-20
1.748152385e-20
2.65448988e-20
3.911649069e-20
4.751809211e-20
2.92604478e-20
3.395885536e-20
9.095089063e-19
8.309150089e-18
2.742518663e-18
5.481896378e-18
3.213783226e-17
1.216226127e-16
1.70678761e-16
4.448422698e-17
3.272710044e-18
2.303992156e-18
3.87352428e-18
6.906778808e-18
9.692375397e-18
5.444828201e-18
2.30738233e-18
1.001237743e-18
4.387679971e-18
4.692529499e-18
5.447502998e-18
8.082337456e-18
6.531948542e-18
5.878177202e-18
6.856648924e-21
9.903618429e-21
1.660471987e-20
2.932776036e-20
5.079780907e-20
8.05896164e-20
1.301077518e-19
4.716754876e-19
3.228975125e-18
1.8054471e-17
5.41576416e-18
1.682962659e-16
1.873444482e-16
2.675497589e-17
1.028662803e-17
3.390532476e-18
2.173927791e-19
2.959935413e-19
1.118273222e-18
2.196607113e-18
2.626219794e-18
1.419013546e-18
2.807198778e-19
2.563682314e-19
7.862564747e-19
7.383417174e-19
6.643638821e-19
7.986543272e-19
8.06252957e-19
9.025471796e-19
3.518593437e-21
7.084742257e-21
1.564976484e-20
3.518378104e-20
8.150981392e-20
2.088648828e-19
7.159796277e-19
3.386968794e-18
2.340387998e-17
4.608813523e-19
1.099201105e-17
2.88378702e-16
8.469210604e-17
2.354440622e-18
1.923257594e-18
7.690791631e-19
1.298446949e-19
1.850599465e-19
5.866346406e-19
1.065506206e-18
1.194674939e-18
7.751840415e-19
3.486073861e-19
2.665211122e-19
2.635517405e-19
1.416924258e-19
6.368655077e-20
6.365291544e-20
1.163485525e-19
2.0065332e-19
8.89863362e-22
4.763285644e-21
1.485473513e-20
4.177247712e-20
1.206144373e-19
3.743238943e-19
1.182005821e-18
4.072135018e-18
5.266955729e-18
7.949149649e-18
2.316681853e-16
3.625516525e-16
7.239548034e-17
7.182798934e-18
2.287669707e-18
8.042905265e-19
3.35487245e-19
3.134179363e-19
5.126723594e-19
7.776550281e-19
8.428506362e-19
6.217207927e-19
3.729128054e-19
2.46349172e-19
1.473665488e-19
4.194826343e-20
3.978475517e-21
3.143670033e-21
2.679562854e-20
8.200651248e-20
)
;

boundaryField
{
    lowerWall
    {
        type            calculated;
        value           nonuniform 0();
    }
    atmosphere
    {
        type            calculated;
        value           nonuniform List<scalar> 
20
(
9.206916669e-23
9.84005321e-23
8.557249859e-23
6.114639131e-23
3.664452228e-23
2.115274868e-23
2.084123314e-23
4.695939692e-23
1.268367943e-22
3.067413933e-22
6.412165181e-22
1.203593014e-21
1.77084782e-21
9.343805009e-21
1.03329791e-20
1.071337166e-20
9.357029079e-21
6.548657708e-21
3.211774591e-21
5.924120644e-22
)
;
    }
    rightWall
    {
        type            empty;
    }
    leftWall
    {
        type            empty;
    }
    frontAndBack
    {
        type            calculated;
        value           nonuniform List<scalar> 
30
(
5.631630425e-22
4.430498229e-21
1.456159307e-20
4.177184184e-20
1.2193875e-19
3.800653257e-19
1.191423117e-18
3.957231697e-18
4.271849561e-18
5.603432708e-19
1.854484292e-16
4.21810055e-16
6.663977942e-17
7.602285875e-18
2.288149591e-18
8.296634277e-19
3.689048944e-19
3.348971274e-19
5.103153581e-19
7.463197747e-19
8.02787604e-19
6.080931385e-19
3.786850151e-19
2.432508326e-19
1.355269976e-19
3.621255662e-20
1.655927187e-21
9.135173261e-22
2.208607835e-20
7.047828576e-20
)
;
    }
    procBoundary4to2
    {
        type            processor;
        value           nonuniform List<scalar> 
30
(
1.308477885e-22
3.312399151e-22
6.306810636e-22
1.238643328e-21
2.607396502e-21
5.73782555e-21
1.295060657e-20
2.95334183e-20
6.699463582e-20
1.478242009e-19
3.03898823e-19
5.291236027e-19
6.083107406e-19
3.859969619e-19
6.239924259e-18
9.723851749e-18
2.206976316e-17
2.354784731e-17
1.104799214e-16
4.082888834e-16
8.169461845e-17
3.318550238e-17
1.095959345e-17
2.470046639e-17
5.321486848e-17
5.008308896e-16
4.016345636e-16
1.076302836e-17
5.901207926e-18
5.778604474e-20
)
;
    }
    procBoundary4to5
    {
        type            processor;
        value           nonuniform List<scalar> 
20
(
4.924800522e-16
1.072660575e-16
3.368760197e-17
1.354341155e-17
1.23848171e-18
1.086229597e-18
1.242172273e-17
2.879477758e-17
9.502747708e-17
3.776110243e-16
6.212181763e-17
5.321558859e-16
2.253037887e-16
2.407102078e-16
1.836197488e-16
1.450439441e-17
2.047101571e-18
4.575011593e-19
1.471096787e-19
7.658866115e-20
)
;
    }
}


// ************************************************************************* //
