/*--------------------------------*- C++ -*----------------------------------*\
  =========                 |
  \\      /  F ield         | OpenFOAM: The Open Source CFD Toolbox
   \\    /   O peration     | Website:  https://openfoam.org
    \\  /    A nd           | Version:  6
     \\/     M anipulation  |
\*---------------------------------------------------------------------------*/
FoamFile
{
    version     2.0;
    format      ascii;
    class       volVectorField;
    location    "0.0053";
    object      gradT;
}
// * * * * * * * * * * * * * * * * * * * * * * * * * * * * * * * * * * * * * //

dimensions      [0 -1 0 1 0 0 0];

internalField   nonuniform List<vector> 
9600
(
(0 3.049318488e-08 -0.0001277816912)
(0 9.147956013e-08 -0.0001276597262)
(0 1.524659244e-07 -0.0001274119614)
(0 2.096406461e-07 -0.0001270460432)
(0 2.706270321e-07 -0.0001265619714)
(0 3.316133856e-07 -0.0001259673467)
(0 3.849764591e-07 -0.0001252507569)
(0 4.345279106e-07 -0.0001244198251)
(0 4.955142543e-07 -0.0001234897755)
(0 5.412540316e-07 -0.0001224568188)
(0 5.831821958e-07 -0.0001213247666)
(0 6.403568825e-07 -0.0001200974087)
(0 6.860966598e-07 -0.0001187709551)
(0 7.20401536e-07 -0.0001173606524)
(0 7.62329622e-07 -0.0001158741025)
(0 8.004461031e-07 -0.0001143075152)
(0 8.271276895e-07 -0.0001126723249)
(0 8.65244121e-07 -0.0001109761347)
(0 8.957373059e-07 -0.0001092151533)
(0 9.186072497e-07 -0.0001074008152)
(0 9.376654351e-07 -0.0001055445362)
(0 9.567236757e-07 -0.0001036425238)
(0 9.719703264e-07 -0.0001017062126)
(0 9.948401568e-07 -9.973558445e-05)
(0 1.006275101e-06 -9.774209249e-05)
(0 1.013898458e-06 -9.571430144e-05)
(0 1.021521694e-06 -9.367506396e-05)
(0 1.025333342e-06 -9.162820892e-05)
(0 1.029145051e-06 -8.957373596e-05)
(0 1.036768286e-06 -8.750400567e-05)
(0 1.02914499e-06 -8.543809239e-05)
(0 1.025333403e-06 -8.338361906e-05)
(0 1.02914499e-06 -8.132151243e-05)
(0 1.021521694e-06 -7.92746574e-05)
(0 1.013898458e-06 -7.723924194e-05)
(0 1.002463453e-06 -7.522287545e-05)
(0 9.910285086e-07 -7.322557184e-05)
(0 9.834052714e-07 -7.12435191e-05)
(0 9.757819162e-07 -6.92843277e-05)
(0 9.567236757e-07 -6.735182211e-05)
(0 9.414771397e-07 -6.544981363e-05)
(0 9.300421389e-07 -6.357447883e-05)
(0 9.224188427e-07 -6.172201785e-05)
(0 8.99549008e-07 -5.990005365e-05)
(0 8.881140097e-07 -5.811619874e-05)
(0 8.690557691e-07 -5.635521731e-05)
(0 8.538092279e-07 -5.463235564e-05)
(0 8.385625842e-07 -5.294379225e-05)
(0 8.195043437e-07 -5.128953697e-05)
(0 7.966345028e-07 -4.96772128e-05)
(0 7.851995107e-07 -4.808775256e-05)
(0 7.62329622e-07 -4.654403507e-05)
(0 7.470830744e-07 -4.503081348e-05)
(0 7.28024789e-07 -4.355570296e-05)
(0 7.127781966e-07 -4.211108832e-05)
(0 6.937199977e-07 -4.070078096e-05)
(0 6.746617155e-07 -3.93285852e-05)
(0 6.632267712e-07 -3.799450836e-05)
(0 6.365452726e-07 -3.669092691e-05)
(0 6.251102901e-07 -3.542926918e-05)
(0 6.098636976e-07 -3.41942952e-05)
(0 5.908054925e-07 -3.299362802e-05)
(0 5.793705127e-07 -3.182726172e-05)
(0 5.603122722e-07 -3.068757894e-05)
(0 5.374424158e-07 -2.958601441e-05)
(0 5.298190873e-07 -2.851493951e-05)
(0 5.107608468e-07 -2.747817123e-05)
(0 4.993259324e-07 -2.646808607e-05)
(0 4.8407931e-07 -2.548849091e-05)
(0 4.688327176e-07 -2.453176724e-05)
(0 4.573978007e-07 -2.360934981e-05)
(0 4.421511808e-07 -2.270979944e-05)
(0 4.307162365e-07 -2.184074367e-05)
(0 4.154696689e-07 -2.09983707e-05)
(0 4.002230516e-07 -2.01788651e-05)
(0 3.925997553e-07 -1.938985394e-05)
(0 3.735415372e-07 -1.861990214e-05)
(0 3.621065705e-07 -1.788425293e-05)
(0 3.544832742e-07 -1.716385144e-05)
(0 3.392367022e-07 -1.647394412e-05)
(0 3.392366818e-07 -1.579928142e-05)
(0 3.201784413e-07 -1.513986629e-05)
(0 3.087435154e-07 -1.450713358e-05)
(0 3.049318488e-07 -1.388964571e-05)
(0 2.934969045e-07 -1.33026519e-05)
(0 2.820619771e-07 -1.272328216e-05)
(0 2.744386639e-07 -1.216678077e-05)
(0 2.630037196e-07 -1.162552674e-05)
(0 2.59192087e-07 -1.110333161e-05)
(0 2.477571272e-07 -1.059638175e-05)
(0 2.439454791e-07 -1.010086749e-05)
(0 2.36322197e-07 -9.624412056e-06)
(0 2.286988866e-07 -9.159390409e-06)
(0 2.210755904e-07 -8.709615932e-06)
(0 2.13452307e-07 -8.275088544e-06)
(0 2.096406461e-07 -7.851995107e-06)
(0 2.058289979e-07 -7.436525463e-06)
(0 1.982057136e-07 -7.036302834e-06)
(0 1.943940536e-07 -6.647514304e-06)
(0 1.829591093e-07 -6.270161141e-06)
(0 1.791474719e-07 -5.908054925e-06)
(0 1.791474612e-07 -5.545948e-06)
(0 1.753358131e-07 -5.195276374e-06)
(0 1.639008786e-07 -4.852228335e-06)
(0 1.639008687e-07 -4.520614659e-06)
(0 1.677125168e-07 -4.192812921e-06)
(0 1.562775819e-07 -3.868823064e-06)
(0 1.562775725e-07 -3.560079335e-06)
(0 1.524659244e-07 -3.251335838e-06)
(0 1.448426369e-07 -2.950215814e-06)
(0 1.486542763e-07 -2.652907085e-06)
(0 1.448426282e-07 -2.363221828e-06)
(0 1.410309885e-07 -2.073536696e-06)
(0 1.448426282e-07 -1.791474612e-06)
(0 1.410309801e-07 -1.505601004e-06)
(0 1.410309885e-07 -1.227350765e-06)
(0 1.37219332e-07 -9.529120275e-07)
(0 1.334076839e-07 -6.746617155e-07)
(0 1.334076919e-07 -4.078463723e-07)
(0 1.37219332e-07 -1.37219332e-07)
(0 9.910285681e-08 -0.0001279913396)
(0 2.744386969e-07 -0.0001278655628)
(0 4.535861523e-07 -0.0001276216097)
(0 6.403569209e-07 -0.0001272518798)
(0 8.080694963e-07 -0.0001267678081)
(0 9.834052714e-07 -0.0001261579367)
(0 1.162552743e-06 -0.0001254413468)
(0 1.318830404e-06 -0.0001246180383)
(0 1.475107907e-06 -0.0001236803653)
(0 1.627573841e-06 -0.0001226359737)
(0 1.772416584e-06 -0.0001215001097)
(0 1.913447466e-06 -0.0001202613167)
(0 2.050666806e-06 -0.0001189348631)
(0 2.172639684e-06 -0.0001175245603)
(0 2.290800652e-06 -0.0001160227638)
(0 2.401338453e-06 -0.000114459988)
(0 2.50044146e-06 -0.0001128133627)
(0 2.595732519e-06 -0.0001111057374)
(0 2.683400431e-06 -0.0001093447559)
(0 2.752010266e-06 -0.0001075266061)
(0 2.820619771e-06 -0.000105658892)
(0 2.881606144e-06 -0.0001037530678)
(0 2.9273461e-06 -0.0001018053216)
(0 2.976897353e-06 -9.982325835e-05)
(0 3.015013836e-06 -9.782214297e-05)
(0 3.045507205e-06 -9.58019751e-05)
(0 3.068376913e-06 -9.376273749e-05)
(0 3.083623506e-06 -9.170444739e-05)
(0 3.08743534e-06 -8.963472772e-05)
(0 3.102681748e-06 -8.757262059e-05)
(0 3.095058451e-06 -8.549908389e-05)
(0 3.08743534e-06 -8.34331755e-05)
(0 3.076000209e-06 -8.137488039e-05)
(0 3.064565264e-06 -7.932421358e-05)
(0 3.037883908e-06 -7.7288798e-05)
(0 3.015013836e-06 -7.526861975e-05)
(0 2.984520649e-06 -7.325988107e-05)
(0 2.950215991e-06 -7.128163986e-05)
(0 2.919722628e-06 -6.932244834e-05)
(0 2.881606144e-06 -6.738231933e-05)
(0 2.832054886e-06 -6.547268745e-05)
(0 2.797749881e-06 -6.358972924e-05)
(0 2.755821749e-06 -6.174107979e-05)
(0 2.706270483e-06 -5.991911548e-05)
(0 2.660530541e-06 -5.812382552e-05)
(0 2.607167464e-06 -5.636665564e-05)
(0 2.557616189e-06 -5.464760551e-05)
(0 2.508064607e-06 -5.295904202e-05)
(0 2.45470153e-06 -5.130097499e-05)
(0 2.397526949e-06 -4.968483908e-05)
(0 2.351787025e-06 -4.809919039e-05)
(0 2.298423948e-06 -4.654784951e-05)
(0 2.237437709e-06 -4.503462783e-05)
(0 2.191697795e-06 -4.355570557e-05)
(0 2.138334718e-06 -4.211109085e-05)
(0 2.084971766e-06 -4.070459505e-05)
(0 2.031608565e-06 -3.932858756e-05)
(0 1.978245488e-06 -3.799069899e-05)
(0 1.924882527e-06 -3.669092911e-05)
(0 1.871519334e-06 -3.541783636e-05)
(0 1.829591203e-06 -3.418667395e-05)
(0 1.772416584e-06 -3.298219506e-05)
(0 1.730488346e-06 -3.181582868e-05)
(0 1.680936917e-06 -3.068758078e-05)
(0 1.627573938e-06 -2.958220453e-05)
(0 1.581834061e-06 -2.851112957e-05)
(0 1.532282632e-06 -2.747054958e-05)
(0 1.494166238e-06 -2.646046436e-05)
(0 1.452238017e-06 -2.548086915e-05)
(0 1.410309885e-06 -2.452795706e-05)
(0 1.364570187e-06 -2.360172793e-05)
(0 1.326453622e-06 -2.270598915e-05)
(0 1.28452549e-06 -2.183693333e-05)
(0 1.242597433e-06 -2.099456031e-05)
(0 1.212104172e-06 -2.018267795e-05)
(0 1.166364392e-06 -1.938604345e-05)
(0 1.128247976e-06 -1.862752655e-05)
(0 1.093943073e-06 -1.788044236e-05)
(0 1.059638238e-06 -1.716385247e-05)
(0 1.025333465e-06 -1.646251016e-05)
(0 9.986518648e-07 -1.578403577e-05)
(0 9.681586781e-07 -1.51398672e-05)
(0 9.338538991e-07 -1.449951115e-05)
(0 9.033606563e-07 -1.388964655e-05)
(0 8.766791179e-07 -1.329121776e-05)
(0 8.499976306e-07 -1.271947127e-05)
(0 8.271276895e-07 -1.21591582e-05)
(0 7.966345028e-07 -1.162171579e-05)
(0 7.737646592e-07 -1.109570898e-05)
(0 7.508947228e-07 -1.058494744e-05)
(0 7.280248327e-07 -1.01008681e-05)
(0 7.05154985e-07 -9.620600985e-06)
(0 6.899083493e-07 -9.159390958e-06)
(0 6.63226811e-07 -8.705804806e-06)
(0 6.441686079e-07 -8.263654095e-06)
(0 6.251103276e-07 -7.844372281e-06)
(0 6.136753826e-07 -7.436525909e-06)
(0 5.90805528e-07 -7.036303256e-06)
(0 5.717472508e-07 -6.647514703e-06)
(0 5.565006575e-07 -6.273973166e-06)
(0 5.450657452e-07 -5.900431983e-06)
(0 5.374424158e-07 -5.542136685e-06)
(0 5.183841741e-07 -5.191465038e-06)
(0 5.031376109e-07 -4.848416978e-06)
(0 4.955142841e-07 -4.516803282e-06)
(0 4.84079339e-07 -4.196624821e-06)
(0 4.726444224e-07 -3.880258242e-06)
(0 4.688327457e-07 -3.560079549e-06)
(0 4.573978007e-07 -3.251336033e-06)
(0 4.459628824e-07 -2.95402764e-06)
(0 4.421512073e-07 -2.652907244e-06)
(0 4.38339559e-07 -2.359410322e-06)
(0 4.269046396e-07 -2.073536821e-06)
(0 4.230929656e-07 -1.787663071e-06)
(0 4.230929656e-07 -1.509412742e-06)
(0 4.154696939e-07 -1.227350839e-06)
(0 4.154696689e-07 -9.529120847e-07)
(0 4.078463723e-07 -6.822850527e-07)
(0 4.040347482e-07 -4.040347482e-07)
(0 4.078463723e-07 -1.334076919e-07)
(0 1.639008687e-07 -0.0001284068015)
(0 4.61209449e-07 -0.0001282810248)
(0 7.661412701e-07 -0.0001280294484)
(0 1.071073119e-06 -0.0001276635302)
(0 1.360758457e-06 -0.0001271718352)
(0 1.646631984e-06 -0.0001265619639)
(0 1.932505592e-06 -0.0001258377507)
(0 2.20313274e-06 -0.0001249991956)
(0 2.469947975e-06 -0.000124057711)
(0 2.717705103e-06 -0.0001230095078)
(0 2.965462408e-06 -0.0001218507741)
(0 3.205596061e-06 -0.0001206043579)
(0 3.422860003e-06 -0.0001192664694)
(0 3.632500867e-06 -0.00011784092)
(0 3.830706351e-06 -0.0001163315003)
(0 4.006042164e-06 -0.0001147496664)
(0 4.177566579e-06 -0.0001130954179)
(0 4.337655549e-06 -0.0001113801694)
(0 4.478686529e-06 -0.0001096039414)
(0 4.593036248e-06 -0.0001077743568)
(0 4.711197064e-06 -0.0001058952078)
(0 4.817923211e-06 -0.0001039741371)
(0 4.897968115e-06 -0.0001020149561)
(0 4.970389136e-06 -0.0001000290814)
(0 5.035187154e-06 -9.800890786e-05)
(0 5.080927236e-06 -9.596587023e-05)
(0 5.115231764e-06 -9.391900943e-05)
(0 5.145724949e-06 -9.185690781e-05)
(0 5.160971851e-06 -8.978718827e-05)
(0 5.176218134e-06 -8.769839972e-05)
(0 5.164783189e-06 -8.56286748e-05)
(0 5.153348554e-06 -8.354751994e-05)
(0 5.138101653e-06 -8.148160165e-05)
(0 5.107608468e-06 -7.942331167e-05)
(0 5.069492291e-06 -7.738027293e-05)
(0 5.031375505e-06 -7.534865984e-05)
(0 4.978012432e-06 -7.333992129e-05)
(0 4.924649654e-06 -7.135024526e-05)
(0 4.871286285e-06 -6.938343055e-05)
(0 4.802676619e-06 -6.745092496e-05)
(0 4.734067237e-06 -6.552985824e-05)
(0 4.665457287e-06 -6.36430885e-05)
(0 4.593035973e-06 -6.178300422e-05)
(0 4.516803282e-06 -5.995722837e-05)
(0 4.4367584e-06 -5.816575016e-05)
(0 4.352902142e-06 -5.640476873e-05)
(0 4.261422843e-06 -5.467809542e-05)
(0 4.181377977e-06 -5.298572038e-05)
(0 4.089898422e-06 -5.132765345e-05)
(0 4.006042404e-06 -4.970008269e-05)
(0 3.918374257e-06 -4.811824574e-05)
(0 3.826894703e-06 -4.656690496e-05)
(0 3.735415372e-06 -4.504987172e-05)
(0 3.655370538e-06 -4.356332625e-05)
(0 3.563890983e-06 -4.211871162e-05)
(0 3.476223285e-06 -4.071221591e-05)
(0 3.38855517e-06 -3.934383179e-05)
(0 3.300887263e-06 -3.799832001e-05)
(0 3.21321955e-06 -3.669473856e-05)
(0 3.12555145e-06 -3.542164589e-05)
(0 3.04550684e-06 -3.41866719e-05)
(0 2.954027463e-06 -3.298981637e-05)
(0 2.881605971e-06 -3.182345007e-05)
(0 2.793938065e-06 -3.068757894e-05)
(0 2.717705266e-06 -2.958601441e-05)
(0 2.645283788e-06 -2.850731622e-05)
(0 2.557615882e-06 -2.746292463e-05)
(0 2.485194717e-06 -2.645665112e-05)
(0 2.42039655e-06 -2.547324432e-05)
(0 2.344163588e-06 -2.452795559e-05)
(0 2.279365707e-06 -2.360172651e-05)
(0 2.206944256e-06 -2.270598779e-05)
(0 2.142146238e-06 -2.183693202e-05)
(0 2.069725048e-06 -2.09983707e-05)
(0 2.012550202e-06 -2.017505345e-05)
(0 1.947752184e-06 -1.938604229e-05)
(0 1.879142631e-06 -1.861609049e-05)
(0 1.829591093e-06 -1.787662964e-05)
(0 1.764793075e-06 -1.716003979e-05)
(0 1.711430104e-06 -1.646250918e-05)
(0 1.665690224e-06 -1.579165812e-05)
(0 1.608515502e-06 -1.513605465e-05)
(0 1.562775819e-06 -1.450332193e-05)
(0 1.505601004e-06 -1.388964571e-05)
(0 1.463672874e-06 -1.329502861e-05)
(0 1.417933182e-06 -1.271565886e-05)
(0 1.368381672e-06 -1.216296912e-05)
(0 1.33026519e-06 -1.161790344e-05)
(0 1.292148787e-06 -1.109570831e-05)
(0 1.25022058e-06 -1.05925701e-05)
(0 1.212104099e-06 -1.00932442e-05)
(0 1.173987688e-06 -9.616788759e-06)
(0 1.143494433e-06 -9.151767113e-06)
(0 1.113001248e-06 -8.705804284e-06)
(0 1.074884832e-06 -8.271276895e-06)
(0 1.040579934e-06 -7.848183459e-06)
(0 1.013898397e-06 -7.436525463e-06)
(0 9.834052714e-07 -7.040114482e-06)
(0 9.529120275e-07 -6.651325952e-06)
(0 9.33853787e-07 -6.270161141e-06)
(0 9.10983953e-07 -5.900431629e-06)
(0 8.843023616e-07 -5.545948e-06)
(0 8.690557691e-07 -5.195276374e-06)
(0 8.423742829e-07 -4.859851632e-06)
(0 8.195043437e-07 -4.520614659e-06)
(0 8.042577512e-07 -4.196624569e-06)
(0 7.928228545e-07 -3.876446361e-06)
(0 7.813878626e-07 -3.563890983e-06)
(0 7.585179739e-07 -3.258959134e-06)
(0 7.470830744e-07 -2.954027463e-06)
(0 7.432713815e-07 -2.656718733e-06)
(0 7.242131409e-07 -2.363221828e-06)
(0 7.127782394e-07 -2.077348345e-06)
(0 7.051549004e-07 -1.787662964e-06)
(0 7.051549004e-07 -1.509412652e-06)
(0 6.899083493e-07 -1.231162413e-06)
(0 6.899083079e-07 -9.567236757e-07)
(0 6.822850117e-07 -6.822850117e-07)
(0 6.784734043e-07 -4.078463723e-07)
(0 6.784733636e-07 -1.37219332e-07)
(0 2.248872385e-07 -0.0001290242885)
(0 6.517918659e-07 -0.0001288985119)
(0 1.074884767e-06 -0.0001286469354)
(0 1.497977707e-06 -0.0001282695822)
(0 1.913447466e-06 -0.000127770264)
(0 2.321293699e-06 -0.0001271527693)
(0 2.717705103e-06 -0.0001264209329)
(0 3.095058451e-06 -0.0001255747545)
(0 3.472411428e-06 -0.0001246142117)
(0 3.834517999e-06 -0.0001235469502)
(0 4.169943283e-06 -0.0001223805932)
(0 4.501556418e-06 -0.0001211151187)
(0 4.814111563e-06 -0.000119758172)
(0 5.103797126e-06 -0.0001183211877)
(0 5.382047132e-06 -0.0001167927097)
(0 5.637427555e-06 -0.0001151880059)
(0 5.869938442e-06 -0.0001135223225)
(0 6.09101368e-06 -0.0001117803925)
(0 6.285407734e-06 -0.0001099889179)
(0 6.460743934e-06 -0.000108140275)
(0 6.624644415e-06 -0.0001062420678)
(0 6.758052099e-06 -0.0001043057505)
(0 6.8838369e-06 -0.0001023236997)
(0 6.982939338e-06 -0.000100314955)
(0 7.066795596e-06 -9.828334652e-05)
(0 7.131594042e-06 -9.623268561e-05)
(0 7.177333391e-06 -9.415914327e-05)
(0 7.223073169e-06 -9.208179505e-05)
(0 7.249755141e-06 -8.998539398e-05)
(0 7.257378002e-06 -8.790041707e-05)
(0 7.245943057e-06 -8.580401061e-05)
(0 7.230696899e-06 -8.372285576e-05)
(0 7.204014928e-06 -8.163787922e-05)
(0 7.165898447e-06 -7.9560531e-05)
(0 7.108724152e-06 -7.750605732e-05)
(0 7.055360652e-06 -7.546682093e-05)
(0 6.982939338e-06 -7.344664744e-05)
(0 6.902895142e-06 -7.145315976e-05)
(0 6.826661765e-06 -6.94749101e-05)
(0 6.738993859e-06 -6.752334627e-05)
(0 6.636079758e-06 -6.560227956e-05)
(0 6.540788157e-06 -6.370407487e-05)
(0 6.441685306e-06 -6.184399059e-05)
(0 6.327336243e-06 -6.00144031e-05)
(0 6.209174771e-06 -5.821530159e-05)
(0 6.098636976e-06 -5.645050851e-05)
(0 5.972852947e-06 -5.472002355e-05)
(0 5.862314793e-06 -5.302002521e-05)
(0 5.736530406e-06 -5.135814664e-05)
(0 5.606934706e-06 -4.973057588e-05)
(0 5.488773279e-06 -4.813730398e-05)
(0 5.366800539e-06 -4.657833991e-05)
(0 5.237204818e-06 -4.506130666e-05)
(0 5.119043412e-06 -4.357857284e-05)
(0 4.993259024e-06 -4.213014656e-05)
(0 4.86366328e-06 -4.071602756e-05)
(0 4.749313545e-06 -3.934002015e-05)
(0 4.623529158e-06 -3.799832001e-05)
(0 4.49774504e-06 -3.669473856e-05)
(0 4.383395327e-06 -3.542545754e-05)
(0 4.265234235e-06 -3.41866719e-05)
(0 4.139450096e-06 -3.298219308e-05)
(0 4.025100404e-06 -3.181963842e-05)
(0 3.918374257e-06 -3.067995564e-05)
(0 3.807836691e-06 -2.957457946e-05)
(0 3.697298667e-06 -2.850731622e-05)
(0 3.594384168e-06 -2.746292463e-05)
(0 3.480034933e-06 -2.644521618e-05)
(0 3.384743522e-06 -2.546562102e-05)
(0 3.281829023e-06 -2.4512709e-05)
(0 3.178914715e-06 -2.359029157e-05)
(0 3.095058265e-06 -2.26983645e-05)
(0 2.995955415e-06 -2.182549708e-05)
(0 2.900664386e-06 -2.098312411e-05)
(0 2.812996305e-06 -2.017505345e-05)
(0 2.732951695e-06 -1.938223064e-05)
(0 2.637660651e-06 -1.860846719e-05)
(0 2.549992586e-06 -1.787281799e-05)
(0 2.477571272e-06 -1.714860485e-05)
(0 2.397526805e-06 -1.645488588e-05)
(0 2.321293699e-06 -1.578403482e-05)
(0 2.256495681e-06 -1.512843135e-05)
(0 2.184074498e-06 -1.449569863e-05)
(0 2.115464701e-06 -1.388202242e-05)
(0 2.046855035e-06 -1.328740531e-05)
(0 1.978245488e-06 -1.271184721e-05)
(0 1.921070648e-06 -1.215534582e-05)
(0 1.867707574e-06 -1.161790344e-05)
(0 1.802909664e-06 -1.109189667e-05)
(0 1.749546483e-06 -1.058113515e-05)
(0 1.699995057e-06 -1.008943255e-05)
(0 1.642820434e-06 -9.616788759e-06)
(0 1.600892206e-06 -9.155578761e-06)
(0 1.551340781e-06 -8.705804284e-06)
(0 1.501789446e-06 -8.267465247e-06)
(0 1.459861226e-06 -7.844371811e-06)
(0 1.421744745e-06 -7.432713815e-06)
(0 1.37600505e-06 -7.032491185e-06)
(0 1.341700135e-06 -6.647514304e-06)
(0 1.299772006e-06 -6.270161141e-06)
(0 1.273090545e-06 -5.904243277e-06)
(0 1.242597284e-06 -5.545948e-06)
(0 1.212104099e-06 -5.199088022e-06)
(0 1.177799337e-06 -4.852228335e-06)
(0 1.154929377e-06 -4.516803011e-06)
(0 1.128247841e-06 -4.189001273e-06)
(0 1.105378018e-06 -3.876446361e-06)
(0 1.082508063e-06 -3.560079335e-06)
(0 1.067261471e-06 -3.255147486e-06)
(0 1.048203293e-06 -2.950215814e-06)
(0 1.032956638e-06 -2.660530381e-06)
(0 1.017710045e-06 -2.367033476e-06)
(0 1.002463513e-06 -2.077348345e-06)
(0 9.910285086e-07 -1.791474612e-06)
(0 9.834052124e-07 -1.509412652e-06)
(0 9.681586781e-07 -1.231162413e-06)
(0 9.605353238e-07 -9.529120275e-07)
(0 9.567236757e-07 -6.822850117e-07)
(0 9.491004364e-07 -4.116580206e-07)
(0 9.529120275e-07 -1.37219332e-07)
(0 2.973085704e-07 -0.0001298552356)
(0 8.423743334e-07 -0.0001297218357)
(0 1.395063292e-06 -0.0001294626358)
(0 1.940129004e-06 -0.0001290776593)
(0 2.47375992e-06 -0.0001285707178)
(0 2.999767243e-06 -0.0001279455998)
(0 3.514339768e-06 -0.0001271985167)
(0 4.006042645e-06 -0.0001263332801)
(0 4.493933392e-06 -0.0001253574906)
(0 4.958954489e-06 -0.0001242711708)
(0 5.40110602e-06 -0.0001230857555)
(0 5.816575365e-06 -0.0001217935994)
(0 6.224421737e-06 -0.0001204175943)
(0 6.601775319e-06 -0.0001189501168)
(0 6.95244657e-06 -0.0001174025805)
(0 7.280248327e-06 -0.0001157750066)
(0 7.588992298e-06 -0.00011407883)
(0 7.867242171e-06 -0.0001123178416)
(0 8.118810962e-06 -0.0001104958737)
(0 8.347510363e-06 -0.0001086205492)
(0 8.545715576e-06 -0.000106699472)
(0 8.732486344e-06 -0.0001047326614)
(0 8.884952811e-06 -0.0001027391755)
(0 9.014548321e-06 -0.0001007037491)
(0 9.117462827e-06 -9.864927066e-05)
(0 9.205131291e-06 -9.657573976e-05)
(0 9.26992876e-06 -9.447932738e-05)
(0 9.31566854e-06 -9.23676742e-05)
(0 9.346162288e-06 -9.026364973e-05)
(0 9.353785024e-06 -8.815199113e-05)
(0 9.349973375e-06 -8.60441496e-05)
(0 9.319480748e-06 -8.392868981e-05)
(0 9.29279865e-06 -8.183608984e-05)
(0 9.235623925e-06 -7.975111819e-05)
(0 9.163203156e-06 -7.767758616e-05)
(0 9.08696964e-06 -7.562691469e-05)
(0 8.999301728e-06 -7.359149448e-05)
(0 8.900199405e-06 -7.157894845e-05)
(0 8.793472718e-06 -6.959307537e-05)
(0 8.679123268e-06 -6.763007648e-05)
(0 8.553339386e-06 -6.569757471e-05)
(0 8.423742829e-06 -6.379555825e-05)
(0 8.28271184e-06 -6.192403891e-05)
(0 8.145492989e-06 -6.008301637e-05)
(0 8.000649863e-06 -5.827629145e-05)
(0 7.84818393e-06 -5.650006333e-05)
(0 7.695718458e-06 -5.475814332e-05)
(0 7.539440414e-06 -5.305814488e-05)
(0 7.383162832e-06 -5.13886429e-05)
(0 7.219262387e-06 -4.97572604e-05)
(0 7.06679602e-06 -4.816017676e-05)
(0 6.90670679e-06 -4.660121259e-05)
(0 6.742806316e-06 -4.507274431e-05)
(0 6.58652833e-06 -4.358619876e-05)
(0 6.422627451e-06 -4.213777239e-05)
(0 6.262538597e-06 -4.07236533e-05)
(0 6.102448991e-06 -3.934383415e-05)
(0 5.949983057e-06 -3.800594559e-05)
(0 5.786082526e-06 -3.669474076e-05)
(0 5.637427893e-06 -3.542545966e-05)
(0 5.481150311e-06 -3.418667395e-05)
(0 5.324873049e-06 -3.29860067e-05)
(0 5.180030093e-06 -3.181201704e-05)
(0 5.042810752e-06 -3.067614583e-05)
(0 4.894156761e-06 -2.956695794e-05)
(0 4.756937127e-06 -2.849588298e-05)
(0 4.619717787e-06 -2.745149134e-05)
(0 4.478687067e-06 -2.643759446e-05)
(0 4.352902403e-06 -2.545799926e-05)
(0 4.219494711e-06 -2.450127552e-05)
(0 4.09752221e-06 -2.358266969e-05)
(0 3.971737569e-06 -2.267930762e-05)
(0 3.849764822e-06 -2.181787509e-05)
(0 3.727792299e-06 -2.097550207e-05)
(0 3.621065922e-06 -2.015980806e-05)
(0 3.502904823e-06 -1.936698521e-05)
(0 3.392367225e-06 -1.860465666e-05)
(0 3.285640868e-06 -1.785757247e-05)
(0 3.178914715e-06 -1.714479423e-05)
(0 3.079812043e-06 -1.644726357e-05)
(0 2.992143946e-06 -1.576878918e-05)
(0 2.896852738e-06 -1.511699731e-05)
(0 2.801561697e-06 -1.449188785e-05)
(0 2.717705266e-06 -1.387439995e-05)
(0 2.633849002e-06 -1.328359446e-05)
(0 2.55380454e-06 -1.270803632e-05)
(0 2.466136475e-06 -1.214772326e-05)
(0 2.397526805e-06 -1.160646919e-05)
(0 2.321293978e-06 -1.108427403e-05)
(0 2.24887252e-06 -1.057732414e-05)
(0 2.184074498e-06 -1.008943315e-05)
(0 2.111653306e-06 -9.609166039e-06)
(0 2.054478455e-06 -9.144144365e-06)
(0 1.99730373e-06 -8.694369861e-06)
(0 1.928694175e-06 -8.263654095e-06)
(0 1.875330983e-06 -7.840560633e-06)
(0 1.821967906e-06 -7.432714261e-06)
(0 1.772416584e-06 -7.036303256e-06)
(0 1.726676698e-06 -6.643703055e-06)
(0 1.677125269e-06 -6.262538221e-06)
(0 1.627573938e-06 -5.896620334e-06)
(0 1.597080654e-06 -5.542136685e-06)
(0 1.558964171e-06 -5.195276686e-06)
(0 1.51703613e-06 -4.848416978e-06)
(0 1.482731204e-06 -4.52061493e-06)
(0 1.456049665e-06 -4.189001524e-06)
(0 1.417933267e-06 -3.865011648e-06)
(0 1.395063292e-06 -3.563891197e-06)
(0 1.372193402e-06 -3.255147681e-06)
(0 1.341700296e-06 -2.95402764e-06)
(0 1.33026527e-06 -2.656718892e-06)
(0 1.30739538e-06 -2.359410322e-06)
(0 1.288337216e-06 -2.073536821e-06)
(0 1.280713842e-06 -1.791474719e-06)
(0 1.2616556e-06 -1.501789446e-06)
(0 1.238785784e-06 -1.231162487e-06)
(0 1.23878571e-06 -9.529120847e-07)
(0 1.227350765e-06 -6.74661756e-07)
(0 1.22353919e-06 -4.078463967e-07)
(0 1.227350765e-06 -1.372193402e-07)
(0 3.582949224e-07 -0.0001308919961)
(0 1.036768348e-06 -0.0001307585963)
(0 1.719053298e-06 -0.0001304917731)
(0 2.393715013e-06 -0.0001301029849)
(0 3.049318671e-06 -0.0001295846086)
(0 3.689675371e-06 -0.0001289366206)
(0 4.322408957e-06 -0.0001281781026)
(0 4.943707896e-06 -0.0001272938079)
(0 5.534513056e-06 -0.0001262913368)
(0 6.110071921e-06 -0.0001251859589)
(0 6.643703055e-06 -0.0001239700506)
(0 7.169710095e-06 -0.0001226550245)
(0 7.657601053e-06 -0.0001212447147)
(0 8.12262261e-06 -0.0001197467442)
(0 8.557150007e-06 -0.0001181687147)
(0 8.957373059e-06 -0.0001165144594)
(0 9.330915134e-06 -0.0001147839781)
(0 9.670151256e-06 -0.0001129924966)
(0 9.982706401e-06 -0.0001111362239)
(0 1.025714568e-05 -0.0001092342181)
(0 1.050490219e-05 -0.0001072826477)
(0 1.072597778e-05 -0.0001052853441)
(0 1.091274919e-05 -0.0001032461186)
(0 1.107664941e-05 -0.0001011954457)
(0 1.11948105e-05 -9.909903922e-05)
(0 1.130153732e-05 -9.699501528e-05)
(0 1.138158126e-05 -9.487573311e-05)
(0 1.143494433e-05 -9.274883346e-05)
(0 1.14654382e-05 -9.061431596e-05)
(0 1.148068411e-05 -8.847597593e-05)
(0 1.146543752e-05 -8.633764134e-05)
(0 1.143494502e-05 -8.421074675e-05)
(0 1.138920455e-05 -8.209146535e-05)
(0 1.132440654e-05 -7.999124724e-05)
(0 1.12367393e-05 -7.789484545e-05)
(0 1.113763578e-05 -7.582130421e-05)
(0 1.103090963e-05 -7.377063752e-05)
(0 1.09051259e-05 -7.174284503e-05)
(0 1.077171756e-05 -6.974553712e-05)
(0 1.063068658e-05 -6.776729175e-05)
(0 1.047822128e-05 -6.581954352e-05)
(0 1.031813143e-05 -6.390609222e-05)
(0 1.014660727e-05 -6.202313805e-05)
(0 9.971272055e-06 -6.017449233e-05)
(0 9.799747291e-06 -5.834870927e-05)
(0 9.609164886e-06 -5.657248125e-05)
(0 9.418583045e-06 -5.481912641e-05)
(0 9.228000075e-06 -5.310388147e-05)
(0 9.037417669e-06 -5.143056795e-05)
(0 8.843024146e-06 -4.97953739e-05)
(0 8.648629562e-06 -4.819066706e-05)
(0 8.446612212e-06 -4.662026804e-05)
(0 8.252218654e-06 -4.50956115e-05)
(0 8.054012457e-06 -4.360525438e-05)
(0 7.859618403e-06 -4.214539315e-05)
(0 7.657601513e-06 -4.07350858e-05)
(0 7.463207e-06 -3.935907839e-05)
(0 7.276436242e-06 -3.800975495e-05)
(0 7.074419317e-06 -3.670236186e-05)
(0 6.891459783e-06 -3.542926918e-05)
(0 6.704689026e-06 -3.41942952e-05)
(0 6.514107011e-06 -3.298219308e-05)
(0 6.338770807e-06 -3.180820348e-05)
(0 6.159623346e-06 -3.066852069e-05)
(0 5.984287892e-06 -2.956314452e-05)
(0 5.816575016e-06 -2.848825798e-05)
(0 5.648862499e-06 -2.744386639e-05)
(0 5.477338663e-06 -2.643378123e-05)
(0 5.321060762e-06 -2.544656278e-05)
(0 5.160971541e-06 -2.449365076e-05)
(0 5.004694269e-06 -2.356742168e-05)
(0 4.848416396e-06 -2.267549461e-05)
(0 4.703573768e-06 -2.181406213e-05)
(0 4.558731413e-06 -2.096787751e-05)
(0 4.421511808e-06 -2.014837191e-05)
(0 4.288104124e-06 -1.935936075e-05)
(0 4.147073393e-06 -1.859703225e-05)
(0 4.017477108e-06 -1.785375975e-05)
(0 3.887881072e-06 -1.712954661e-05)
(0 3.765908559e-06 -1.643201599e-05)
(0 3.655370538e-06 -1.575735329e-05)
(0 3.533397798e-06 -1.510937311e-05)
(0 3.426671857e-06 -1.447664039e-05)
(0 3.323757152e-06 -1.386296418e-05)
(0 3.213219357e-06 -1.326453542e-05)
(0 3.114116693e-06 -1.270041227e-05)
(0 3.018825303e-06 -1.214391088e-05)
(0 2.927345749e-06 -1.160265685e-05)
(0 2.832054716e-06 -1.108046172e-05)
(0 2.752009936e-06 -1.057351186e-05)
(0 2.664342029e-06 -1.008180925e-05)
(0 2.588109222e-06 -9.605353814e-06)
(0 2.511876105e-06 -9.144143816e-06)
(0 2.431831494e-06 -8.698180987e-06)
(0 2.359410322e-06 -8.263653599e-06)
(0 2.294612162e-06 -7.840560163e-06)
(0 2.226002496e-06 -7.428902167e-06)
(0 2.165016256e-06 -7.028679537e-06)
(0 2.115464701e-06 -6.63607936e-06)
(0 2.046855035e-06 -6.262537845e-06)
(0 1.985868785e-06 -5.89661998e-06)
(0 1.943940536e-06 -5.538324704e-06)
(0 1.905824055e-06 -5.187653078e-06)
(0 1.856272741e-06 -4.856039984e-06)
(0 1.8143445e-06 -4.516803011e-06)
(0 1.780039667e-06 -4.192812921e-06)
(0 1.734299994e-06 -3.876446361e-06)
(0 1.699995057e-06 -3.556267687e-06)
(0 1.677125168e-06 -3.251335838e-06)
(0 1.642820434e-06 -2.950215814e-06)
(0 1.623762095e-06 -2.649095437e-06)
(0 1.600892206e-06 -2.367033476e-06)
(0 1.570399116e-06 -2.073536696e-06)
(0 1.558964077e-06 -1.791474612e-06)
(0 1.543717485e-06 -1.517035948e-06)
(0 1.520847687e-06 -1.231162413e-06)
(0 1.517035948e-06 -9.529120275e-07)
(0 1.497977707e-06 -6.822850117e-07)
(0 1.490354501e-06 -4.078463723e-07)
(0 1.501789355e-06 -1.37219332e-07)
(0 4.345278846e-07 -0.0001321307817)
(0 1.23878571e-06 -0.000131997382)
(0 2.054478331e-06 -0.0001317343703)
(0 2.847301138e-06 -0.000131326524)
(0 3.640124164e-06 -0.0001307929011)
(0 4.406265215e-06 -0.0001301334781)
(0 5.157159893e-06 -0.000129344467)
(0 5.89661998e-06 -0.0001284334908)
(0 6.601774527e-06 -0.000127415773)
(0 7.276436242e-06 -0.0001262760902)
(0 7.924416897e-06 -0.0001250335005)
(0 8.545715063e-06 -0.0001236917928)
(0 9.132708872e-06 -0.0001222433665)
(0 9.673963484e-06 -0.0001207072796)
(0 1.019234705e-05 -0.0001190911336)
(0 1.066880306e-05 -0.0001173949501)
(0 1.111095491e-05 -0.0001156263524)
(0 1.151498894e-05 -0.0001137929427)
(0 1.187328386e-05 -0.0001119023652)
(0 1.220489798e-05 -0.0001099584313)
(0 1.249458251e-05 -0.0001079649327)
(0 1.276139787e-05 -0.0001059333243)
(0 1.29710393e-05 -0.0001038750405)
(0 1.316543257e-05 -0.0001017671929)
(0 1.33178985e-05 -9.96441049e-05)
(0 1.342462545e-05 -9.750196451e-05)
(0 1.351991585e-05 -9.534837748e-05)
(0 1.358090222e-05 -9.3187173e-05)
(0 1.361520787e-05 -9.102216233e-05)
(0 1.363045364e-05 -8.885714074e-05)
(0 1.361520705e-05 -8.669212462e-05)
(0 1.356946809e-05 -8.453854851e-05)
(0 1.35084809e-05 -8.23887739e-05)
(0 1.343605959e-05 -8.026187426e-05)
(0 1.332933424e-05 -7.815022589e-05)
(0 1.321117235e-05 -7.605762639e-05)
(0 1.307395302e-05 -7.398790147e-05)
(0 1.292911117e-05 -7.194105075e-05)
(0 1.277283282e-05 -6.991706129e-05)
(0 1.2597497e-05 -6.792356932e-05)
(0 1.241453864e-05 -6.596438615e-05)
(0 1.222014384e-05 -6.403568825e-05)
(0 1.202193814e-05 -6.213748749e-05)
(0 1.181610985e-05 -6.027359518e-05)
(0 1.160265685e-05 -5.844400047e-05)
(0 1.138158126e-05 -5.664490257e-05)
(0 1.115288304e-05 -5.488773608e-05)
(0 1.093180678e-05 -5.317249114e-05)
(0 1.06954846e-05 -5.148774267e-05)
(0 1.046297469e-05 -4.983730203e-05)
(0 1.023808682e-05 -4.822878354e-05)
(0 1.000176464e-05 -4.665838452e-05)
(0 9.761631396e-06 -4.512229304e-05)
(0 9.529120275e-06 -4.362431262e-05)
(0 9.292798093e-06 -4.217207469e-05)
(0 9.052664805e-06 -4.075033239e-05)
(0 8.831588671e-06 -3.936670168e-05)
(0 8.602889785e-06 -3.801737825e-05)
(0 8.370379752e-06 -3.67061735e-05)
(0 8.14930366e-06 -3.542926918e-05)
(0 7.928228069e-06 -3.41790486e-05)
(0 7.707152941e-06 -3.297456978e-05)
(0 7.493700185e-06 -3.180058018e-05)
(0 7.287871187e-06 -3.065708575e-05)
(0 7.074419317e-06 -2.955170957e-05)
(0 6.872401543e-06 -2.847301138e-05)
(0 6.678007489e-06 -2.743243145e-05)
(0 6.475990528e-06 -2.641853464e-05)
(0 6.285407734e-06 -2.543512784e-05)
(0 6.102448624e-06 -2.448602746e-05)
(0 5.911866574e-06 -2.355979838e-05)
(0 5.736530406e-06 -2.266405966e-05)
(0 5.557382945e-06 -2.17873806e-05)
(0 5.389670751e-06 -2.094881927e-05)
(0 5.221957911e-06 -2.013312532e-05)
(0 5.06186869e-06 -1.934411416e-05)