/*--------------------------------*- C++ -*----------------------------------*\
  =========                 |
  \\      /  F ield         | OpenFOAM: The Open Source CFD Toolbox
   \\    /   O peration     | Website:  https://openfoam.org
    \\  /    A nd           | Version:  10
     \\/     M anipulation  |
\*---------------------------------------------------------------------------*/
FoamFile
{
    format      ascii;
    class       volVectorField;
    location    "0.0004";
    object      U;
}
// * * * * * * * * * * * * * * * * * * * * * * * * * * * * * * * * * * * * * //

dimensions      [0 1 -1 0 0 0 0];

internalField   nonuniform List<vector> 
3600
(
(0 0.7853296521 -0.001629828995)
(0 0.7866499075 -0.004856958059)
(0 0.7890739611 -0.008092007048)
(0 0.7925934808 -0.01134940537)
(0 0.7971318522 -0.01464385673)
(0 0.8026361985 -0.01798928417)
(0 0.8090704639 -0.02139738522)
(0 0.8164085786 -0.02487649472)
(0 0.8246321837 -0.028430326)
(0 0.8337287065 -0.03205648799)
(0 0.8436889695 -0.03574476665)
(0 0.8545044713 -0.03947517401)
(0 0.8661643321 -0.04321579737)
(0 0.8786518397 -0.04692052641)
(0 0.8919405629 -0.05052678905)
(0 0.9059900653 -0.05395348648)
(0 0.9207413302 -0.05709938052)
(0 0.9361121243 -0.05984224753)
(0 0.9519926802 -0.06203916372)
(0 0.9682422558 -0.06352831915)
(0 0.9846873492 -0.0641327587)
(0 1.001122574 -0.06366640584)
(0 1.017315427 -0.0619426351)
(0 1.033016356 -0.05878552169)
(0 1.047975626 -0.05404371875)
(0 1.061968339 -0.04760671694)
(0 1.07482846 -0.03942305967)
(0 1.086491648 -0.02951994483)
(0 1.097044658 -0.01802354308)
(0 1.106775861 -0.005179219694)
(0 1.116216714 0.008629535085)
(0 1.126158492 0.0228650829)
(0 1.137621762 0.03682654022)
(0 1.151752772 0.04965216351)
(0 1.16962559 0.06034181927)
(0 1.191944243 0.06780782096)
(0 1.218675314 0.07095965008)
(0 1.248693691 0.06882383144)
(0 1.27958095 0.06070036196)
(0 1.307752749 0.04637278143)
(0 1.329048828 0.02643840014)
(0 1.339624012 0.002940757608)
(0 1.336410169 -0.01977065647)
(0 1.317232704 -0.03544604773)
(0 1.280620927 -0.03730024286)
(0 1.226858243 -0.0225323247)
(0 1.157859801 0.008155505854)
(0 1.080958163 0.04527509463)
(0 1.017282675 0.07369874047)
(0 0.9948810889 0.08695709387)
(0 1.030737997 0.08962655068)
(0 1.131297365 0.0911666828)
(0 1.302131741 0.1178696544)
(0 1.537138113 0.2153712892)
(0 1.791666432 0.4096197618)
(0 1.996910972 0.6312137585)
(0 2.19503873 0.6811283222)
(0 2.497826132 0.52177713)
(0 2.867719495 0.2478326016)
(0 3.080980885 -0.03309383379)
(0 0.7799893655 -0.002276773893)
(0 0.78126525 -0.006696336537)
(0 0.7835985112 -0.01103408589)
(0 0.7869846535 -0.01532296689)
(0 0.7913473097 -0.01959335649)
(0 0.7966341475 -0.02387242715)
(0 0.8028098096 -0.02818309336)
(0 0.8098490011 -0.03254288644)
(0 0.8177343345 -0.03696260214)
(0 0.8264545643 -0.04144466415)
(0 0.8360023581 -0.04598117322)
(0 0.8463717402 -0.05055164207)
(0 0.8575551899 -0.05512045888)
(0 0.8695403095 -0.0596341793)
(0 0.8823060085 -0.06401881917)
(0 0.8958181981 -0.06817740409)
(0 0.9100250687 -0.07198812451)
(0 0.9248521235 -0.07530353828)
(0 0.9401972775 -0.07795134847)
(0 0.9559264993 -0.07973734798)
(0 0.9718706694 -0.08045114345)
(0 0.9878245517 -0.07987523653)
(0 1.003548989 -0.07779792893)
(0 1.018777638 -0.07403030883)
(0 1.033229676 -0.06842726463)
(0 1.046629935 -0.06091201653)
(0 1.058737595 -0.05150303193)
(0 1.069383918 -0.040341374)
(0 1.07851796 -0.02771543886)
(0 1.086256719 -0.01407865484)
(0 1.092932204 -5.406643583e-05)
(0 1.099122363 0.01358176126)
(0 1.105647363 0.02594361736)
(0 1.113506177 0.03611780574)
(0 1.123728698 0.04327698826)
(0 1.137128034 0.04681572315)
(0 1.153964356 0.04647087037)
(0 1.173579641 0.04237320534)
(0 1.194129471 0.03497979934)
(0 1.212624203 0.02489855766)
(0 1.225572631 0.0128053478)
(0 1.23011297 0.0001234790301)
(0 1.223957042 -0.009164539739)
(0 1.204769357 -0.009122903204)
(0 1.168486044 0.007266829201)
(0 1.112533955 0.03971767879)
(0 1.034547504 0.08597308784)
(0 0.9364991924 0.1255609676)
(0 0.8446911405 0.1271510931)
(0 0.8002495009 0.08572895529)
(0 0.8236172481 0.02260716418)
(0 0.9184203417 -0.048000553)
(0 1.092341681 -0.09182206339)
(0 1.33516914 -0.03432570905)
(0 1.562764251 0.1917279177)
(0 1.63754839 0.4981243302)
(0 1.642651568 0.4877870281)
(0 1.803668263 0.2058281619)
(0 2.118056711 -0.05589606536)
(0 2.299811792 -0.07308528413)
(0 0.7716901695 -0.002894118163)
(0 0.7728948244 -0.008448701253)
(0 0.7750877857 -0.01383316652)
(0 0.7782665253 -0.01909868365)
(0 0.7823557404 -0.02429105642)
(0 0.7873038997 -0.02945054053)
(0 0.793076225 -0.03461121025)
(0 0.799647908 -0.0397998744)
(0 0.8070021278 -0.04503465569)
(0 0.8151284862 -0.05032322025)
(0 0.8240210005 -0.05566060596)
(0 0.83367578 -0.06102664182)
(0 0.8440883494 -0.06638300426)
(0 0.8552505112 -0.07167002556)
(0 0.8671466554 -0.07680345813)
(0 0.8797494621 -0.08167150433)
(0 0.8930150051 -0.08613254018)
(0 0.9068773413 -0.09001408688)
(0 0.9212427833 -0.09311370079)
(0 0.9359841957 -0.0952025467)
(0 0.9509358256 -0.09603246521)
(0 0.9658893767 -0.09534732588)
(0 0.9805922597 -0.09289935173)
(0 0.9947491854 -0.08847087219)
(0 1.00802852 -0.08190158021)
(0 1.020075048 -0.07312077556)
(0 1.030530935 -0.06218316689)
(0 1.039066558 -0.04930547094)
(0 1.045422279 -0.03489913793)
(0 1.049460668 -0.01959192932)
(0 1.051225594 -0.004227943258)
(0 1.05099954 0.01016736807)
(0 1.049343935 0.02247216367)
(0 1.047097711 0.03161381779)
(0 1.0453023 0.03677511974)
(0 1.04501814 0.03763357224)
(0 1.047010652 0.03456342697)
(0 1.051319082 0.02868477043)
(0 1.056798564 0.02161428941)
(0 1.060914149 0.01483275641)
(0 1.060522113 0.008917584806)
(0 1.053910929 0.004300304976)
(0 1.039861839 0.005487215995)
(0 1.016322227 0.01927268231)
(0 0.9752298455 0.0563298424)
(0 0.9118241077 0.1105057648)
(0 0.8181128576 0.1832985525)
(0 0.6834276979 0.238766599)
(0 0.5425048026 0.2137211208)
(0 0.4619614519 0.1065114647)
(0 0.4628411877 -0.02790890774)
(0 0.5340172664 -0.1753062386)
(0 0.683127231 -0.2993205444)
(0 0.9066605729 -0.2834967885)
(0 1.06342285 0.04969882593)
(0 0.9502972779 0.6296610136)
(0 0.7278240177 0.5164129188)
(0 0.7025762546 -0.06653444768)
(0 0.9197892518 -0.4595044537)
(0 1.007925201 -0.1067434899)
(0 0.760494851 -0.003469039578)
(0 0.7616020737 -0.0100764857)
(0 0.7636065162 -0.01642768142)
(0 0.7665057018 -0.02259143286)
(0 0.7702261261 -0.02862845507)
(0 0.774717197 -0.03459168077)
(0 0.7799444378 -0.0405260771)
(0 0.7858830334 -0.04646763803)
(0 0.7925160658 -0.05244192948)
(0 0.7998331826 -0.05846221441)
(0 0.8078288688 -0.06452708172)
(0 0.816500423 -0.07061755612)
(0 0.8258455869 -0.07669373019)
(0 0.8358596875 -0.08269103825)
(0 0.8465321603 -0.08851639286)
(0 0.8578423409 -0.09404452852)
(0 0.8697544484 -0.09911503931)
(0 0.8822117349 -0.1035307486)
(0 0.8951298517 -0.1070581938)
(0 0.9083895819 -0.1094311289)
(0 0.9218292237 -0.1103580254)
(0 0.9352370595 -0.1095345644)
(0 0.948344559 -0.1066620461)
(0 0.9608212348 -0.101472469)
(0 0.9722724619 -0.09376069629)
(0 0.9822421102 -0.0834235657)
(0 0.9902225384 -0.07050484507)
(0 0.9956752547 -0.05524334514)
(0 0.9980661402 -0.0381189683)
(0 0.9969189828 -0.01988768777)
(0 0.9918893013 -0.001591386466)
(0 0.9828562682 0.01547711086)
(0 0.9700228353 0.02987750102)
(0 0.9540011866 0.04021614415)
(0 0.9358460011 0.04544157604)
(0 0.9169757701 0.0452192412)
(0 0.8989102829 0.04029849039)
(0 0.882743282 0.03269613194)
(0 0.8683105767 0.0253841049)
(0 0.853330649 0.02109230376)
(0 0.8343059491 0.02006220606)
(0 0.8111392402 0.02040531807)
(0 0.7841541491 0.02865768121)
(0 0.752948578 0.0527328059)
(0 0.7017927989 0.1140523759)
(0 0.626791784 0.190711145)
(0 0.5165470076 0.304575319)
(0 0.3353112355 0.4002325154)
(0 0.1285757941 0.3481714319)
(0 0.002927641388 0.1535474023)
(0 -0.03041409892 -0.04880777698)
(0 -0.01879787559 -0.262451346)
(0 0.04263208449 -0.4821629007)
(0 0.2235908805 -0.5584362546)
(0 0.2105450299 -0.03046065195)
(0 -0.09664112741 1.605238062)
(0 -0.3848143789 1.355565094)
(0 -0.7268103839 0.1175825108)
(0 -0.7126712212 -0.4271473719)
(0 -0.7247379282 0.249299637)
(0 0.7464882892 -0.003989127585)
(0 0.7474729081 -0.01154335037)
(0 0.7492426016 -0.01875806583)
(0 0.7517930133 -0.02571879794)
(0 0.7550530731 -0.03250035234)
(0 0.7589731334 -0.03916765236)
(0 0.7635185658 -0.04577603337)
(0 0.7686638248 -0.05237035212)
(0 0.7743909324 -0.05898354059)
(0 0.780688407 -0.06563466753)
(0 0.787549858 -0.07232640168)
(0 0.7949723297 -0.07904183243)
(0 0.8029543175 -0.08574067493)
(0 0.8114932936 -0.09235497025)
(0 0.8205825665 -0.09878450134)
(0 0.8302073035 -0.1048922823)
(0 0.8403395469 -0.1105006373)
(0 0.8509320748 -0.1153885538)
(0 0.8619109852 -0.1192911614)
(0 0.8731669263 -0.1219023229)
(0 0.884544956 -0.1228814363)
(0 0.8958330995 -0.1218655997)
(0 0.9067498204 -0.1184883098)
(0 0.9169308954 -0.1124058164)
(0 0.9259166851 -0.1033321365)
(0 0.9331416524 -0.09108342809)
(0 0.9379293311 -0.07563175772)
(0 0.9394978124 -0.05716684124)
(0 0.9369829924 -0.03616150464)
(0 0.9294886542 -0.01343177768)
(0 0.9161726873 0.009824757988)
(0 0.8963761225 0.03203818888)
(0 0.8697932723 0.05135673921)
(0 0.8366691661 0.065858199)
(0 0.7979873162 0.07391737334)
(0 0.7555725219 0.07474349396)
(0 0.7119812258 0.06902856553)
(0 0.6699279482 0.05952480634)
(0 0.6308482108 0.0510130654)
(0 0.5923856269 0.04858386918)
(0 0.5488074357 0.05200729257)
(0 0.502719933 0.05319891482)
(0 0.4560268431 0.0642550056)
(0 0.413228995 0.09205900298)
(0 0.3433988258 0.1861882139)
(0 0.2511732777 0.2765880318)
(0 0.1315223061 0.4553508037)
(0 -0.08727576005 0.6532778415)
(0 -0.3478780618 0.5775323319)
(0 -0.5051901393 0.2177992955)
(0 -0.5914356249 -0.06729947048)
(0 -0.7208585676 -0.2587173093)
(0 -0.9045845121 -0.4841252944)
(0 -0.6312775115 -0.2694245132)
(0 -1.096954103 0.412144696)
(0 -1.398505347 0.9947501014)
(0 -0.7982753496 0.4306040867)
(0 -0.6463601292 0.1852754919)
(0 -0.9116294167 -0.3020899504)
(0 -1.177581018 0.267951569)
(0 0.7297768377 -0.004442570996)
(0 0.7306151261 -0.01281474311)
(0 0.7321066033 -0.02076768865)
(0 0.7342431258 -0.02840236645)
(0 0.7369565922 -0.03580651055)
(0 0.7401981708 -0.04305602468)
(0 0.7439324539 -0.05021577585)
(0 0.7481322051 -0.05733886508)
(0 0.7527771117 -0.0644652417)
(0 0.7578529825 -0.0716197538)
(0 0.7633507006 -0.07880949572)
(0 0.7692649879 -0.08602038001)
(0 0.7755928893 -0.0932129368)
(0 0.782331792 -0.1003174293)
(0 0.7894767742 -0.107228488)
(0 0.7970170549 -0.1137996097)
(0 0.8049312958 -0.1198380335)
(0 0.81318148 -0.1251006818)
(0 0.8217050715 -0.1292920206)
(0 0.8304051264 -0.1320648422)
(0 0.8391379844 -0.1330250909)
(0 0.8476981393 -0.131741963)
(0 0.855799905 -0.1277646273)
(0 0.8630556804 -0.1206470896)
(0 0.8689511393 -0.1099829775)
(0 0.872818789 -0.09545229855)
(0 0.8738133625 -0.07688227576)
(0 0.8708956901 -0.05432359904)
(0 0.8628358436 -0.02814083713)
(0 0.8482507989 0.0008898004439)
(0 0.8256950656 0.03149203886)
(0 0.7938214161 0.06184088765)
(0 0.7516218446 0.08959777814)
(0 0.6987501215 0.1120864104)
(0 0.6359094969 0.1266792309)
(0 0.5652438986 0.1314786915)
(0 0.4905960601 0.1263451197)
(0 0.4171555636 0.1143209688)
(0 0.3493123689 0.1027310176)
(0 0.284253886 0.1017181509)
(0 0.2090033019 0.111406192)
(0 0.1314441127 0.1081927656)
(0 0.05465250016 0.1185432034)
(0 -0.006898319404 0.1410207801)
(0 -0.1099491497 0.3152744492)
(0 -0.2257552835 0.3924833597)
(0 -0.3524983068 0.6891142014)
(0 -0.5682284742 1.184617125)
(0 -0.7921736524 1.149958577)
(0 -0.942977432 0.4102995641)
(0 -1.061145197 0.2393881382)
(0 -1.377190953 -0.1373005055)
(0 -1.285456183 -0.4171894679)
(0 -1.008777096 -0.225463793)
(0 -1.771168725 0.5108070572)
(0 -1.464831972 0.6460724598)
(0 -0.5132724785 0.2218423912)
(0 -0.3156958894 0.1652116602)
(0 -0.4529880593 0.1331972967)
(0 -0.5221622352 0.2301190033)
(0 0.7104874235 -0.004818364754)
(0 0.7111575491 -0.01385851656)
(0 0.7123309471 -0.02240388031)
(0 0.7139938546 -0.03056917429)
(0 0.7160815774 -0.03845352444)
(0 0.7185458549 -0.04614243803)
(0 0.7213497207 -0.05370910888)
(0 0.7244630721 -0.06121389591)
(0 0.7278616894 -0.0687030565)
(0 0.7315266927 -0.07620685052)
(0 0.7354438656 -0.08373683941)
(0 0.7396028768 -0.09128227412)
(0 0.743996296 -0.09880554301)
(0 0.7486182125 -0.1062367348)
(0 0.7534622333 -0.1134674849)
(0 0.7585185946 -0.1203444169)
(0 0.7637700758 -0.1266626527)
(0 0.7691863429 -0.1321600329)
(0 0.7747162639 -0.136512833)
(0 0.7802776222 -0.1393338949)
(0 0.7857434809 -0.1401741894)
(0 0.7909242425 -0.1385289598)
(0 0.7955442599 -0.1338498182)
(0 0.7992118115 -0.1255646188)
(0 0.8013816357 -0.11310774)
(0 0.8013104273 -0.09596461535)
(0 0.7980083405 -0.0737357129)
(0 0.790194159 -0.04622582513)
(0 0.7762683704 -0.01356298062)
(0 0.7543263983 0.023653877)
(0 0.7222412345 0.06419480252)
(0 0.6778435992 0.1060572654)
(0 0.6192219633 0.1463978469)
(0 0.5451593003 0.1816037332)
(0 0.455728518 0.2075874609)
(0 0.3530519347 0.2204648729)
(0 0.2422956489 0.2179094664)
(0 0.1322622451 0.202151996)
(0 0.0330848219 0.1841357699)
(0 -0.0582672981 0.1852677546)
(0 -0.1730933175 0.2091981842)
(0 -0.2936816901 0.1968101139)
(0 -0.4115641959 0.2256714927)
(0 -0.5008350152 0.1991337742)
(0 -0.6455613727 0.6726191808)
(0 -0.7567784165 0.5999753371)
(0 -0.9909588091 0.7674546418)
(0 -1.161231707 0.8747171001)
(0 -0.9326091273 0.6656349812)
(0 -0.7784076039 0.4532878698)
(0 -0.8801510466 0.3271229235)
(0 -1.109675726 0.05530992465)
(0 -0.8486805403 -0.2964841008)
(0 -0.6162891851 -0.3162799681)
(0 -0.9168941934 0.3258517281)
(0 -0.6180481889 0.3420962841)
(0 -0.3185597018 0.0254040853)
(0 -0.2717986672 -0.007931567674)
(0 -0.2626313592 0.09509735307)
(0 -0.2124180486 0.1652585368)
(0 0.6887663106 -0.005106533345)
(0 0.6892488116 -0.01464559349)
(0 0.6900687659 -0.02361904483)
(0 0.6912050941 -0.03215328067)
(0 0.692596873 -0.04035688485)
(0 0.6941960901 -0.04832318818)
(0 0.6959633381 -0.05613208521)
(0 0.697864311 -0.06384976567)
(0 0.6998690662 -0.07152763078)
(0 0.701951706 -0.07920052534)
(0 0.7040900573 -0.08688407231)
(0 0.7062653556 -0.09457096687)
(0 0.7084618259 -0.1022261642)
(0 0.7106659786 -0.1097809748)
(0 0.7128653953 -0.1171261903)
(0 0.7150467329 -0.1241044999)
(0 0.7171926074 -0.1305026024)
(0 0.7192769285 -0.1360435589)
(0 0.7212581216 -0.1403800342)
(0 0.7230694608 -0.1430891349)
(0 0.7246054183 -0.1436695943)
(0 0.725702503 -0.1415421325)
(0 0.7261125545 -0.1360541095)
(0 0.7254660295 -0.1264903237)
(0 0.7232228005 -0.1120933145)
(0 0.71860901 -0.09209905833)
(0 0.7105415982 -0.0657973616)
(0 0.6975482674 -0.03262955524)
(0 0.6776996468 0.00766355476)
(0 0.6485858219 0.05483357357)
(0 0.6073784734 0.1078707438)
(0 0.551020389 0.1647381618)
(0 0.4765725639 0.2221647396)
(0 0.3817228018 0.2755490808)
(0 0.2654975277 0.3189694099)
(0 0.1293149528 0.3454863631)
(0 -0.02073997605 0.3484392511)
(0 -0.1708278264 0.3270958988)
(0 -0.2997021711 0.2968306548)
(0 -0.4099161118 0.3048524111)
(0 -0.5691231159 0.3784318589)
(0 -0.7379420411 0.3329814572)
(0 -0.901659226 0.5407577603)
(0 -1.060575846 0.1122210069)
(0 -1.251893664 0.6980180139)
(0 -1.308732246 0.6667395304)
(0 -1.234820127 0.7467765178)
(0 -1.181197703 0.8503285616)
(0 -0.6474769466 0.5754264324)
(0 -0.2234998391 0.3512828197)
(0 -0.3075038266 0.2144758151)
(0 -0.2420123213 -0.1548304651)
(0 -0.2630312473 -0.3275265355)
(0 -0.4684756184 -0.1379598822)
(0 -0.5417521392 0.2675748346)
(0 -0.3364348655 0.230493701)
(0 -0.25276305 0.01953361726)
(0 -0.2748893982 -0.003918263458)
(0 -0.2628382831 0.08978430722)
(0 -0.1934524227 0.1255392726)
(0 0.6647774845 -0.005298364487)
(0 0.6650557564 -0.01515066228)
(0 0.6654923161 -0.02437182723)
(0 0.6660572766 -0.03309743668)
(0 0.666693814 -0.04144319319)
(0 0.6673538223 -0.04950804407)
(0 0.6679945466 -0.05737649335)
(0 0.66857607 -0.06511862751)
(0 0.6690607656 -0.07278927976)
(0 0.6694131426 -0.08042647118)
(0 0.6695998329 -0.0880488773)
(0 0.6695897014 -0.0956521399)
(0 0.6693539788 -0.1032039204)
(0 0.6688662549 -0.1106376661)
(0 0.6681021346 -0.1178451634)
(0 0.667038306 -0.1246680788)
(0 0.6656507069 -0.1308888064)
(0 0.6639113677 -0.1362210365)
(0 0.6617833427 -0.1403004831)
(0 0.6592128497 -0.1426761547)
(0 0.6561172771 -0.1428024445)
(0 0.6523670268 -0.1400322459)
(0 0.6477582528 -0.1336115307)
(0 0.6419725427 -0.1226767646)
(0 0.6345188515 -0.106258795)
(0 0.624653391 -0.08330106029)
(0 0.6112761589 -0.05270639666)
(0 0.5928107959 -0.01343461721)
(0 0.5670853966 0.035321059)
(0 0.5312599548 0.09386006937)
(0 0.4818627159 0.161596443)
(0 0.4150032037 0.236643279)
(0 0.3267865434 0.3154564513)
(0 0.2138276129 0.3925372037)
(0 0.0738686798 0.4598712051)
(0 -0.09315810908 0.5062251174)
(0 -0.2807483899 0.5178900792)
(0 -0.4686740277 0.4875629809)
(0 -0.6145821293 0.4239219653)
(0 -0.7154012622 0.4314778262)
(0 -0.91824092 0.7061566801)
(0 -1.119072018 0.3398186148)
(0 -1.237538937 0.7718859078)
(0 -1.564989522 0.3160835632)
(0 -1.411062493 0.594440692)
(0 -1.037163158 0.5675578561)
(0 -0.6773914883 0.4911698184)
(0 -0.6130917522 0.4487052991)
(0 -0.3320027021 0.2938050731)
(0 -0.2118467727 0.2326889277)
(0 -0.1720590659 0.1497472076)
(0 -0.1532837897 -0.06478642668)
(0 -0.2532405481 -0.1430228548)
(0 -0.3650149059 -0.04212258928)
(0 -0.3527987839 0.1273737041)
(0 -0.2393218895 0.100794811)
(0 -0.1998278764 0.009313897736)
(0 -0.2214210631 0.00364781026)
(0 -0.2195446756 0.06402115356)
(0 -0.1771704802 0.08981398342)
(0 0.6387006219 -0.005386643371)
(0 0.6387613902 -0.01535287346)
(0 0.6387909085 -0.02462828947)
(0 0.63874928 -0.03335478398)
(0 0.6385841269 -0.04165244866)
(0 0.6382469771 -0.04962320792)
(0 0.637690906 -0.05735359184)
(0 0.6368690335 -0.06491509063)
(0 0.6357340897 -0.07236362992)
(0 0.6342383352 -0.07973830284)
(0 0.6323337697 -0.08705907027)
(0 0.6299725856 -0.09432321395)
(0 0.6271077756 -0.1015004041)
(0 0.6236937664 -0.1085263164)
(0 0.619686925 -0.1152948316)
(0 0.615045744 -0.1216489634)
(0 0.6097304655 -0.127370752)
(0 0.6037018073 -0.1321703908)
(0 0.5969182851 -0.1356747783)
(0 0.5893312965 -0.1374154506)
(0 0.5808765567 -0.1368154976)
(0 0.5714595451 -0.1331746974)
(0 0.5609312569 -0.1256520631)
(0 0.5490487767 -0.113245915)
(0 0.5354133682 -0.09477447973)
(0 0.5193778514 -0.0688661716)
(0 0.4999168129 -0.03397934886)
(0 0.475460909 0.01151363061)
(0 0.4437188892 0.06912913431)
(0 0.4015384399 0.1399144926)
(0 0.34491388 0.2239097078)
(0 0.2692768765 0.3195224843)
(0 0.1700587015 0.4229919291)
(0 0.04316161977 0.5278871068)
(0 -0.1146505204 0.6238239784)
(0 -0.3044701146 0.6948603631)
(0 -0.5180427895 0.7178651314)
(0 -0.7348589012 0.6680083834)
(0 -0.8667288161 0.4775332756)
(0 -0.8778705055 0.2779905522)
(0 -1.134925488 0.9833058197)
(0 -1.431924347 0.4688024951)
(0 -1.103060548 0.7485013279)
(0 -1.039430298 0.5435983341)
(0 -0.9560049943 0.2870342051)
(0 -0.8057217816 0.2756159297)
(0 -0.5879760818 0.3600545484)
(0 -0.4271992708 0.3107744118)
(0 -0.2797828399 0.1991642377)
(0 -0.2093652053 0.1581316281)
(0 -0.1479144889 0.09577968296)
(0 -0.1419515801 -0.02610020501)
(0 -0.2003713904 -0.05678998348)
(0 -0.2438575087 -0.008050847893)
(0 -0.2236952682 0.05823093116)
(0 -0.1696052854 0.04924558617)
(0 -0.152428401 0.01526758069)
(0 -0.1640692848 0.01766311332)
(0 -0.1610083845 0.0505522738)
(0 -0.1325483993 0.06646143741)
(0 0.6107286283 -0.005365873552)
(0 0.6105623746 -0.01523649664)
(0 0.6101683135 -0.02436302841)
(0 0.6094957176 -0.03289049289)
(0 0.6084970976 -0.04094029389)
(0 0.6071235202 -0.0486142806)
(0 0.6053232903 -0.05599792967)
(0 0.6030414331 -0.06316105525)
(0 0.6002192723 -0.07015765345)
(0 0.5967943138 -0.07702500248)
(0 0.5927005574 -0.08378169313)
(0 0.5878691644 -0.09042434289)
(0 0.5822293957 -0.09692282894)
(0 0.5757097327 -0.1032139511)
(0 0.5682390815 -0.1091935353)
(0 0.5597479492 -0.1147070917)
(0 0.5501694704 -0.1195392088)
(0 0.5394400994 -0.123401824)
(0 0.527499666 -0.1259213252)
(0 0.5142901838 -0.1266239543)
(0 0.4997521789 -0.1249182923)
(0 0.483816214 -0.1200727435)
(0 0.4663854772 -0.1111853176)
(0 0.4473026699 -0.09714348506)
(0 0.426291089 -0.07657493438)
(0 0.4028565851 -0.04779806548)
(0 0.3761360357 -0.008796796953)
(0 0.3446845112 0.04273046717)
(0 0.3062178535 0.1091684368)
(0 0.257375492 0.1925270792)
(0 0.1936730842 0.2936652589)
(0 0.1098880999 0.4112771779)
(0 0.000878872814 0.5409835057)
(0 -0.1377673938 0.6749195984)
(0 -0.308266507 0.8017179069)
(0 -0.5088019106 0.9095280814)
(0 -0.727855742 0.9725254467)
(0 -0.9920758639 0.9406657012)
(0 -1.08132461 0.747538184)
(0 -1.303583015 0.5877759868)
(0 -1.036360658 0.9800572176)
(0 -1.029050913 0.7085719122)
(0 -0.8931084842 0.4307205673)
(0 -0.7650021157 0.3116263714)
(0 -0.6385200999 0.213349811)
(0 -0.5403257829 0.1629807786)
(0 -0.428916185 0.1845295587)
(0 -0.3130902995 0.1699178206)
(0 -0.2242613517 0.1242300037)
(0 -0.1654946556 0.09971075266)
(0 -0.1166937189 0.05708045003)
(0 -0.1085466224 -0.004494470663)
(0 -0.1328917669 -0.02153208293)
(0 -0.1463282392 -0.002775101515)
(0 -0.1323183184 0.02279103338)
(0 -0.10835337 0.02135284061)
(0 -0.1011103219 0.01241991326)
(0 -0.104760856 0.01953843592)
(0 -0.0959496173 0.03560839458)
(0 -0.06453812079 0.03597866689)
(0 0.5810647512 -0.005232466447)
(0 0.58066605 -0.01479148506)
(0 0.5798396235 -0.02356015025)
(0 0.578523575 -0.03168322293)
(0 0.5766759385 -0.03928007049)
(0 0.5742475337 -0.0464490493)
(0 0.5711816768 -0.05327103131)
(0 0.5674145764 -0.05981049268)
(0 0.562874814 -0.06611578124)
(0 0.5574830666 -0.07221865167)
(0 0.5511523853 -0.07813270591)
(0 0.5437889124 -0.08385046509)
(0 0.5352929473 -0.08933889277)
(0 0.5255603059 -0.09453327548)
(0 0.5144839269 -0.09932947491)
(0 0.5019557012 -0.1035746734)
(0 0.4878685419 -0.1070567891)
(0 0.472118707 -0.1094926255)
(0 0.4546083724 -0.1105145577)
(0 0.435248244 -0.1096547467)
(0 0.4139594273 -0.1063248022)
(0 0.3906726637 -0.09978723146)
(0 0.3653209474 -0.08911344112)
(0 0.3378180872 -0.07312240997)
(0 0.3080105987 -0.05029645726)
(0 0.2755838927 -0.01867943162)
(0 0.2398969126 0.02421716974)
(0 0.1997220346 0.08143736899)
(0 0.1528827001 0.1564091866)
(0 0.09584146235 0.2523996837)
(0 0.02344134144 0.371354353)
(0 -0.07080308701 0.5120177569)
(0 -0.1933931421 0.6680913996)
(0 -0.3479823446 0.8296791936)
(0 -0.5256280309 0.9886946)
(0 -0.705529087 1.149607638)
(0 -0.8645807811 1.269670896)
(0 -1.094054694 0.8477852297)
(0 -0.968814416 0.8249164962)
(3.192587579e-44 -1.276122756 0.9347720256)
(4.00500399e-45 -1.113859742 0.6628460917)
(0 -0.8665122858 0.4504726104)
(0 -0.6491023971 0.2707743093)
(0 -0.5052959843 0.1776349569)
(0 -0.410167369 0.1181917059)
(0 -0.3436884144 0.08693811174)
(0 -0.2776536725 0.08894682098)
(0 -0.2080242329 0.08391050125)
(0 -0.1519587273 0.06850860741)
(0 -0.1084505137 0.05534569343)
(0 -0.07480776291 0.03033062524)
(0 -0.06482964353 -0.0007716157518)
(0 -0.07165714799 -0.01102090091)
(0 -0.07456850763 -0.004179119157)
(0 -0.06791229577 0.007473848873)
(0 -0.05934940118 0.01091656379)
(0 -0.05579860177 0.0120855263)
(0 -0.05173251289 0.01623956601)
(0 -0.03743521999 0.01165437374)
(0 -0.01396907713 -0.0004292145245)
(0 0.5499193051 -0.004984877277)
(0 0.549287023 -0.01401388338)
(0 0.5480275881 -0.02221399824)
(0 0.5460681893 -0.02972626549)
(0 0.5433733314 -0.03666450586)
(0 0.5398942607 -0.04311987458)
(0 0.5355696387 -0.04916466887)
(0 0.530326749 -0.05485382583)
(0 0.524080769 -0.06022566762)
(0 0.5167342205 -0.06530192687)
(0 0.5081770837 -0.07008664883)
(0 0.4982873905 -0.07456367487)
(0 0.486932184 -0.07869252324)
(0 0.4739688008 -0.08240258887)
(0 0.4592464624 -0.08558570966)
(0 0.4426082166 -0.0880872802)
(0 0.4238933834 -0.0896961526)
(0 0.4029406891 -0.09013336598)
(0 0.3795924364 -0.08903957754)
(0 0.3537000214 -0.08595974343)
(0 0.3251306773 -0.08032224067)
(0 0.2937744332 -0.0714071358)
(0 0.2595481482 -0.05829537348)
(0 0.2223895781 -0.03978803127)
(0 0.1822271984 -0.01428487577)
(0 0.1389019935 0.02038122689)
(0 0.09200352376 0.06713744106)
(0 0.04056713506 0.1298215317)
(0 -0.01741244718 0.2131415757)
(0 -0.08571590768 0.3221389263)
(0 -0.1708149764 0.4605479439)
(0 -0.2822552147 0.627443708)
(0 -0.4297753034 0.8145140283)
(0 -0.616056677 1.013126293)
(0 -0.8123777059 1.225313001)
(0 -0.9880953183 1.427756737)
(0 -1.376926887 1.155105595)
(0 -1.446621662 1.036565356)
(0 -1.405553769 0.9133127356)
(4.657574444e-45 -1.166401561 0.678885625)
(-2.81177113e-45 -0.8196412011 0.3764430652)
(0 -0.5543869784 0.2139242822)
(0 -0.385911297 0.1186660466)
(0 -0.2867743783 0.08331881304)
(0 -0.2296661974 0.05297800035)
(0 -0.1912066754 0.03573665908)
(0 -0.1546432074 0.03514600078)
(0 -0.1168113368 0.03472110939)
(0 -0.08386952384 0.03092296273)
(0 -0.05598412434 0.02501880708)
(0 -0.03464060407 0.01187406744)
(0 -0.02613444676 -0.003265892286)
(0 -0.02726993806 -0.008326386435)
(0 -0.02855889608 -0.004708817013)
(0 -0.02726092906 0.003670251043)
(0 -0.02335725515 0.00680955184)
(0 -0.01892121842 0.0008115009546)
(0 -0.01093639284 -2.458492166e-05)
(0 7.41765983e-11 -1.612589328e-11)
(0 1.081041996e-10 -3.125918075e-11)
(0 0.517506085 -0.004623661136)
(0 0.5166433807 -0.01290600352)
(0 0.5149584743 -0.02032951534)
(0 0.512368612 -0.02702821167)
(0 0.5088461774 -0.03310683327)
(0 0.504344135 -0.03864542788)
(0 0.4987975465 -0.04370340483)
(0 0.492125461 -0.04832150267)
(0 0.4842298981 -0.05252308141)
(0 0.4749949566 -0.05631468405)
(0 0.4642866728 -0.05968541787)
(0 0.4519533489 -0.06260484326)
(0 0.4378261871 -0.06501919448)
(0 0.4217201694 -0.06684588584)
(0 0.4034351594 -0.06796641309)
(0 0.3827572833 -0.06821793621)
(0 0.359460879 -0.0673839645)
(0 0.3333111923 -0.06518400643)
(0 0.3040685236 -0.06126283353)
(0 0.2714947166 -0.05517715738)
(0 0.2353625309 -0.04637672326)
(0 0.1954680937 -0.03417303712)
(0 0.1516447496 -0.01768450128)
(0 0.103773269 0.004258645851)
(0 0.05177457589 0.03327070875)
(0 -0.004442462615 0.07164613765)
(0 -0.06512507475 0.1226778434)
(0 -0.130984244 0.1910099974)
(0 -0.2037898682 0.2828907525)
(0 -0.2875534124 0.4059344043)
(0 -0.3906042647 0.5672827083)
(0 -0.5264421313 0.7688230667)
(0 -0.7067599398 1.003449104)
(0 -0.9357320378 1.264739776)
(0 -1.232504806 1.478416721)
(0 -1.643912058 1.486891438)
(0 -1.698020817 1.334270717)
(0 -1.4607239 0.916646448)
(0 -1.147217424 0.626285463)
(0 -0.8155512584 0.321553087)
(0 -0.5096802766 0.04947956588)
(0 -0.2876450428 0.03340401445)
(0 -0.1749878494 0.006496023212)
(0 -0.1228027043 0.02808925214)
(0 -0.0979233392 0.02192247346)
(0 -0.08215529682 0.0110937078)
(0 -0.06589879551 0.008953602174)
(0 -0.04861259168 0.00940564399)
(0 -0.03208455014 0.009284087105)
(0 -0.0171047385 0.007328668605)
(0 -0.005303396105 0.0008291185867)
(0 2.212731372e-05 -0.006155790459)
(0 -0.001462863366 -0.00743484321)
(0 -0.004737965928 -0.004724668473)
(0 -0.00634029495 0.0003083933002)
(0 -0.0003220908917 5.701276311e-05)
(0 2.498649194e-11 5.43548702e-12)
(0 7.572871234e-11 5.41535236e-12)
(0 8.979050781e-11 9.915100316e-12)
(0 8.304272912e-11 -3.692785809e-11)
(0 0.4840385799 -0.004151418043)
(0 0.4829526364 -0.01147628271)
(0 0.4808575425 -0.01792211331)
(0 0.4776624398 -0.02361298219)
(0 0.4733496411 -0.02864114552)
(0 0.4678759024 -0.03307152957)
(0 0.4611745969 -0.03694607994)
(0 0.4531581685 -0.04028632846)
(0 0.4437168092 -0.04309533869)
(0 0.4327172386 -0.04535884852)
(0 0.4200023008 -0.04704511178)
(0 0.4053909674 -0.04810311807)
(0 0.388678506 -0.04845903475)
(0 0.3696367023 -0.04801087154)
(0 0.348014051 -0.04662154455)
(0 0.3235358779 -0.04411076244)
(0 0.2959050086 -0.04024644956)
(0 0.2648025311 -0.0347352364)
(0 0.2298897958 -0.027214051)
(0 0.1908132655 -0.0172397143)
(0 0.1472128706 -0.004274087584)
(0 0.09873559223 0.01234303909)
(0 0.04505437751 0.03344740436)
(0 -0.01411025476 0.0601520342)
(0 -0.0789771891 0.0940311351)
(0 -0.1497255192 0.1374201831)
(0 -0.2266009393 0.1938639036)
(0 -0.3101767004 0.2687196724)
(0 -0.4019468212 0.3699037161)
(0 -0.5059157667 0.5085262)
(0 -0.6317385276 0.6978413087)
(0 -0.7945292505 0.9474129506)
(0 -1.002618931 1.259153572)
(0 -1.35640218 1.635940041)
(0 -1.913850232 1.794527655)
(0 -2.042416188 1.657506729)
(0 -1.683318965 1.031029178)
(0 -1.200132858 0.5378067151)
(0 -0.7946535113 0.2398663358)
(0 -0.4363042841 0.01181988354)
(0 -0.231059347 -0.1625223432)
(0 -0.1285580006 -0.1078484998)
(0 -0.05737305909 -0.04279819003)
(0 -0.03800704044 0.01304913085)
(0 -0.02290500166 0.01119716817)
(0 -0.01811852735 -0.0008699732654)
(0 -0.01330003778 -0.002919515439)
(0 -0.007724138096 -0.001924970532)
(0 -0.001117900525 -0.001324652878)
(0 0.005036256487 -0.00199524817)
(0 0.009119828784 -0.005863861374)
(0 0.008743211029 -0.008008492231)
(0 0.005055454267 -0.0003323230297)
(0 -1.933085893e-11 3.278707795e-12)
(0 -2.079456159e-11 9.683134393e-12)
(0 2.237573487e-11 1.896834606e-11)
(0 5.369651399e-11 3.863753435e-11)
(0 6.296305417e-11 2.025032945e-11)
(0 6.608211211e-11 3.728143007e-12)
(0 6.085539596e-11 -1.877976664e-11)
(0 0.4497261448 -0.00357258843)
(0 0.4484275402 -0.009738724712)
(0 0.4459442575 -0.01501691212)
(0 0.4421802352 -0.01951906343)
(0 0.4371306428 -0.02332180605)
(0 0.4307590318 -0.0264708712)
(0 0.4229999313 -0.0289859563)
(0 0.4137617929 -0.03086414923)
(0 0.402925462 -0.03208269949)
(0 0.3903427715 -0.03260079647)
(0 0.3758359994 -0.03235981853)
(0 0.3591976189 -0.03128174291)
(0 0.3401899992 -0.02926559689)
(0 0.3185448815 -0.02618200579)
(0 0.2939624355 -0.02186609536)
(0 0.2661096297 -0.01610918673)
(0 0.2346190573 -0.008649779623)
(0 0.1990865802 0.0008337211196)
(0 0.1590692096 0.01273143444)
(0 0.1140857888 0.02750884876)
(0 0.06361991981 0.0457168268)
(0 0.007128636605 0.06801234702)
(0 -0.05594075841 0.09520587329)
(0 -0.1261258519 0.128363032)
(0 -0.2039238867 0.1690029524)
(0 -0.2897958531 0.2194482353)
(0 -0.3842410209 0.283381403)
(0 -0.4879556821 0.366712201)
(0 -0.602217765 0.4789641837)
(0 -0.7307378591 0.6349032941)
(0 -0.8844412937 0.8535538637)
(0 -1.074789019 1.150375503)
(0 -1.268949711 1.532151577)
(0 -1.713274206 2.110258104)
(0 -1.868497066 1.956548231)