/*--------------------------------*- C++ -*----------------------------------*\
  =========                 |
  \\      /  F ield         | OpenFOAM: The Open Source CFD Toolbox
   \\    /   O peration     | Website:  https://openfoam.org
    \\  /    A nd           | Version:  10
     \\/     M anipulation  |
\*---------------------------------------------------------------------------*/
FoamFile
{
    format      ascii;
    class       volScalarField;
    location    "0.0001";
    object      p;
}
// * * * * * * * * * * * * * * * * * * * * * * * * * * * * * * * * * * * * * //

dimensions      [1 -1 -2 0 0 0 0];

internalField   nonuniform List<scalar> 
3600
(
-0.03931670935
-0.05188100815
-0.06098380212
-0.07096287058
-0.08198806158
-0.09390631802
-0.1067945613
-0.1208104922
-0.1361120413
-0.1528652875
-0.1712530801
-0.1914759285
-0.2137519921
-0.2383169861
-0.2654237017
-0.2953408079
-0.3283507145
-0.3647464138
-0.4048270308
-0.4488916481
-0.4972314775
-0.5501208881
-0.6078077666
-0.6705034353
-0.7383708973
-0.8115108709
-0.8899432618
-0.9735810887
-1.062177426
-1.155200765
-1.251556959
-1.348980346
-1.442659837
-1.521935713
-1.561549657
-1.499374373
-1.201114453
-0.494912109
0.6605095833
3.525204694
24.56505142
335.8027529
-9307.712748
-21500.52016
-22402.46838
-20494.22848
-19262.07583
-17475.37091
-15665.22318
-14034.17918
-12630.15519
-11441.97212
-10440.73373
-9595.528861
-8878.690728
-8267.042697
-7741.708281
-7287.490374
-6892.195449
-6546.030051
-0.03885191978
-0.05132131901
-0.06035045544
-0.07024964173
-0.0811878248
-0.09301335476
-0.1058026209
-0.1197121008
-0.1348984091
-0.1515262507
-0.1697769444
-0.1898492775
-0.2119596679
-0.2363423472
-0.2632490661
-0.2929479244
-0.3257211882
-0.361862161
-0.401670979
-0.4454490293
-0.4934919958
-0.5460816768
-0.6034768387
-0.6659038083
-0.7335474848
-0.8065440575
-0.8849738509
-0.9688614966
-1.058181884
-1.152872256
-1.252894261
-1.358382882
-1.469729627
-1.586536611
-1.7051085
-1.824548349
-1.965374962
-2.048549077
-1.328868831
2.189008631
11.66660026
32.49084712
-23285.46162
-22127.90552
-23261.624
-22046.60107
-19836.99104
-17501.45889
-15486.10895
-13807.15043
-12414.30686
-11255.02095
-10284.69438
-9467.156884
-8773.495899
-8180.724655
-7670.587621
-7228.56362
-6843.062443
-6504.790142
-0.03793646932
-0.05021559671
-0.05909719257
-0.06883657347
-0.07960105613
-0.09124176063
-0.1038338011
-0.1175310241
-0.1324872698
-0.1488643534
-0.1668405584
-0.1866115161
-0.2083904652
-0.2324086144
-0.2589150853
-0.2881760398
-0.3204728425
-0.356099279
-0.3953577159
-0.4385541066
-0.4859920473
-0.5379659886
-0.5947536142
-0.6566078148
-0.723750221
-0.7963690477
-0.8746228158
-0.9586639622
-1.048699429
-1.145140563
-1.249040223
-1.363183417
-1.494174279
-1.65525053
-1.877084585
-2.273330236
-3.184181747
-4.804095035
-5.312873173
-5.908307803
-72.35720359
-1417.679404
-30220.02692
-25534.27238
-25118.87093
-26758.92599
-20562.37706
-17209.53614
-14970.60325
-13294.00666
-11964.9008
-10879.11039
-9975.865834
-9214.908258
-8567.411216
-8011.772246
-7531.353736
-7113.113871
-6746.700373
-6423.814455
-0.03659831707
-0.04859111184
-0.05725059377
-0.06674995898
-0.07725419854
-0.08861850072
-0.1009159451
-0.1142962965
-0.128909044
-0.1449113949
-0.1624767762
-0.1817958226
-0.2030767992
-0.2265461689
-0.2524487808
-0.2810473206
-0.3126209387
-0.3474630667
-0.3858782706
-0.4281781251
-0.4746764337
-0.5256839471
-0.5815024166
-0.642417986
-0.7086955643
-0.7805751843
-0.858270777
-0.9419783029
-1.031899356
-1.128312734
-1.231867898
-1.344432848
-1.470722262
-1.620117187
-1.816769123
-2.17281567
-3.046788953
-4.555641982
-4.421944832
-6.307456011
-114.1895176
-7410.96665
-27151.50042
-24197.13503
-25559.86129
-21956.73483
-18407.46212
-15801.77652
-13892.76121
-12433.3721
-11272.1792
-10320.65388
-9524.750194
-8849.19895
-8269.468313
-7767.599243
-7329.941064
-6945.837558
-6606.810537
-6306.019798
-0.03487764508
-0.04648701385
-0.05484887561
-0.06402787441
-0.07418597142
-0.08518353304
-0.0970906727
-0.1100514485
-0.124209231
-0.1397146931
-0.1567343303
-0.1754516352
-0.1960677466
-0.2188022487
-0.2438936126
-0.2715989759
-0.3021932671
-0.3359677358
-0.3732277412
-0.4142898121
-0.4594783485
-0.5091221761
-0.5635506564
-0.6230890657
-0.6880539321
-0.7587454973
-0.8354322692
-0.9183171305
-1.007452539
-1.102547791
-1.202629852
-1.305420047
-1.4058086
-1.490661505
-1.527998183
-1.47254208
-1.301013376
-0.7417367225
1.930176263
7.833790069
-95.89805698
-11817.66901
-17652.58955
-20429.36181
-18345.76107
-17071.0828
-15305.5038
-13697.34658
-12365.29292
-11274.54124
-10369.78993
-9606.575627
-8953.282003
-8387.668934
-7893.6637
-7459.215178
-7074.973558
-6733.484587
-6428.68423
-6155.56716
-0.03282496085
-0.04395239078
-0.05193976349
-0.06071792805
-0.0704451165
-0.08098768952
-0.09241157727
-0.10485319
-0.1184476885
-0.133336997
-0.1496783559
-0.1676457146
-0.1874305974
-0.2092431115
-0.233312626
-0.2598878786
-0.2892366126
-0.3216448678
-0.3574158134
-0.3968681965
-0.4403348959
-0.4881619897
-0.5407081709
-0.5983445292
-0.6614553403
-0.7304359629
-0.8056803687
-0.8875400176
-0.9762018911
-1.071378913
-1.171633529
-1.272912479
-1.365409226
-1.425386032
-1.394466952
-1.158165464
-0.59743759
0.4916988852
5.872416184
26.67908327
-2370.548143
-1675.211326
-9225.496451
-14831.78967
-13260.86152
-12709.65766
-12050.63504
-11316.81303
-10596.52257
-9929.709956
-9325.863547
-8782.576605
-8294.133147
-7854.530966
-7458.302212
-7100.624048
-6777.253242
-6484.442824
-6218.874438
-5977.606404
-0.03049869952
-0.04104378503
-0.04857781885
-0.05687458713
-0.06608789086
-0.07609042901
-0.0869422855
-0.09876983825
-0.1116975459
-0.1258560318
-0.1413906706
-0.15846319
-0.1772526769
-0.1979567052
-0.2207921953
-0.2459958126
-0.2738240742
-0.3045533448
-0.3384796846
-0.3759187364
-0.4172063392
-0.4627006376
-0.5127861076
-0.5678806737
-0.6284482731
-0.6950167887
-0.7682002045
-0.8487193008
-0.9373947597
-1.03503915
-1.142078642
-1.257549448
-1.377517246
-1.492167949
-1.57208128
-1.532186856
-1.204953438
-0.4277985924
1.786228677
182.6831754
2255.46168
7811.973909
-695.5616901
-5508.587025
-7468.931688
-8461.64926
-8870.565624
-8922.747858
-8774.274328
-8521.912391
-8221.377625
-7903.733968
-7586.14288
-7278.019441
-6984.390005
-6707.725406
-6448.972371
-6208.15885
-5984.764094
-5777.951853
-0.02796241392
-0.03782210356
-0.04482106471
-0.05255584773
-0.06117501818
-0.07055716693
-0.08075419641
-0.09187947748
-0.1040437975
-0.1173635769
-0.1319694543
-0.1480079935
-0.1656426911
-0.1850551187
-0.2064458692
-0.2300351236
-0.2560630614
-0.2847903745
-0.3164989483
-0.3514929929
-0.39010148
-0.4326830405
-0.4796345315
-0.5314060319
-0.5885273375
-0.6516526211
-0.7216351003
-0.7996545556
-0.887432207
-0.9875378479
-1.103682912
-1.241131981
-1.409929663
-1.631689571
-1.913697251
-2.138999311
-2.128365229
-2.600164866
1.372821582
3119.430224
24155.12372
16627.28869
7063.010655
972.2772256
-2644.96898
-4797.442031
-6047.230303
-6729.338407
-7055.914423
-7162.287561
-7134.000499
-7024.838645
-6868.684869
-6687.013787
-6493.512801
-6296.915045
-6102.751819
-5914.455932
-5734.071038
-5562.716896
-0.02528157515
-0.03434886684
-0.04072672526
-0.04781904479
-0.05576796481
-0.06445618951
-0.0739240419
-0.08426811566
-0.09558201727
-0.1079647274
-0.1215290655
-0.1364033022
-0.1527319842
-0.1706769468
-0.1904181889
-0.2121543948
-0.2361033753
-0.2625027933
-0.2916113333
-0.3237105988
-0.359108573
-0.398145954
-0.4412070483
-0.4887388554
-0.5412851824
-0.5995474565
-0.6644957375
-0.7375825158
-0.8211619198
-0.9192093517
-1.038360893
-1.190629022
-1.406359897
-1.760301678
-2.305153441
-2.773953201
-3.440814443
-12.6315491
-30.98955236
28569.83168
35510.73115
21333.2026
11532.88269
4979.390075
714.2205959
-2035.91955
-3791.575099
-4891.460986
-5557.757317
-5937.322866
-6127.498088
-6192.935122
-6176.744037
-6107.83791
-6005.732219
-5883.670002
-5750.663772
-5612.841839
-5474.34704
-5337.944884
-0.02251988565
-0.03068146242
-0.03634567317
-0.04271553273
-0.04992442444
-0.05785508604
-0.06653121968
-0.07602780846
-0.08641713039
-0.09777718807
-0.110199799
-0.123791804
-0.1386754569
-0.1549890948
-0.1728876992
-0.1925430895
-0.2141440764
-0.2378970377
-0.2640271296
-0.2927802862
-0.3244265573
-0.3592658413
-0.3976373975
-0.4399358141
-0.4866385474
-0.5383544072
-0.5959134204
-0.6605494089
-0.7342817291
-0.8205891833
-0.9253922024
-1.060371286
-1.260856462
-1.621221977
-2.173744003
-2.345516896
-2.610873814
-22.55809198
31.26639204
62117.02114
36152.01042
21821.422
12771.10469
6698.179812
2558.380869
-268.881626
-2191.689507
-3487.173073
-4346.33091
-4901.748439
-5245.733751
-5442.659607
-5537.518124
-5561.861457
-5537.90802
-5481.368812
-5403.391258
-5311.900429
-5212.530212
-5109.274988
-0.01973457413
-0.02686672207
-0.0317149053
-0.03728379181
-0.04369285446
-0.0508167605
-0.05865500494
-0.06725472091
-0.07666203484
-0.08693026997
-0.09812718446
-0.1103353207
-0.1236516254
-0.1381874614
-0.1540685238
-0.1714343911
-0.1904380914
-0.2112462021
-0.2340396705
-0.2590152934
-0.2863879854
-0.3163943508
-0.349297958
-0.3853963474
-0.4250294432
-0.4685882997
-0.5165225417
-0.5693504902
-0.6276856958
-0.6922553578
-0.7638045995
-0.8437518099
-0.9423419212
-1.098239174
-1.317346492
-1.277802504
-1.34067819
-13.03749059
-55.45377133
34279.05396
24783.75035
17026.68996
11031.93426
6483.843641
3090.004728
593.7017236
-1219.128187
-2519.21083
-3438.644706
-4077.606139
-4511.028753
-4794.451324
-4968.807287
-5064.181631
-5102.669448
-5100.505811
-5069.631844
-5018.838224
-4954.598201
-4881.674968
-0.01696919628
-0.02293126029
-0.02684678659
-0.03154043289
-0.03710617731
-0.04339546902
-0.05037219118
-0.05804767196
-0.06643654984
-0.07556395884
-0.08547106589
-0.09621392326
-0.107861866
-0.1204964472
-0.1342103176
-0.1491058321
-0.1652937994
-0.1828928543
-0.2020295527
-0.222838952
-0.2454655565
-0.2700647812
-0.2968044738
-0.3258640208
-0.357425255
-0.3916424002
-0.4285618304
-0.4679285239
-0.5087471078
-0.5483558651
-0.5804977408
-0.5904078042
-0.5411293669
-0.3514975674
0.07262520204
0.7215535451
2.557251821
16.65381118
-119.5873909
1915.494186
11480.13752
10469.45747
7846.098783
5115.255786
2724.092707
772.8120205
-759.3140849
-1931.897242
-2811.430891
-3459.002578
-3926.323703
-4255.309543
-4479.07795
-4623.38819
-4708.082181
-4748.352986
-4755.791913
-4739.222237
-4705.349207
-4659.260686
-0.01423943965
-0.01886413869
-0.02171218872
-0.02546807645
-0.03017477719
-0.03563352631
-0.04175592419
-0.04850786746
-0.05586727008
-0.06382848376
-0.07240474585
-0.08162466217
-0.09152880513
-0.1021670921
-0.1135962517
-0.1258772447
-0.1390730307
-0.1532469997
-0.1684620593
-0.1847801392
-0.2022621643
-0.2209689494
-0.2409629322
-0.262308388
-0.2850647988
-0.309260799
-0.3348168308
-0.3613428034
-0.3876503007
-0.41067448
-0.4231263248
-0.4069193955
-0.3125224307
-0.02246234119
0.5868115429
1.385903269
4.053535863
29.04887248
-87.70066664
267.7128341
4968.573482
5526.917572
4767.747632
3406.988035
1918.298328
532.7678049
-659.0428962
-1637.633091
-2416.178966
-3020.649481
-3479.953832
-3821.385087
-4068.806649
-4242.210863
-4357.91795
-4429.031879
-4465.960417
-4476.909426
-4468.31551
-4445.208154
-0.0114983021
-0.01458016904
-0.01621121479
-0.01899827917
-0.02287921133
-0.02755975899
-0.03287669764
-0.0387404555
-0.04508863503
-0.05188445335
-0.05911408628
-0.06677968484
-0.07489354326
-0.0834734976
-0.09253872295
-0.102105838
-0.1121855443
-0.1227798374
-0.1338797164
-0.1454632855
-0.1574947994
-0.1699261547
-0.1827023932
-0.1957718897
-0.2091037766
-0.222716016
-0.2367150929
-0.2513496602
-0.267082123
-0.2845905575
-0.3044036975
-0.3261042869
-0.3486218562
-0.3712278407
-0.371652849
-0.2110240252
0.6922419386
4.105154535
1275.278622
2095.415091
-356.3791823
1906.140674
2290.986159
1826.650432
1009.344827
99.0037598
-771.9921158
-1543.413189
-2195.002315
-2727.462452
-3151.456958
-3481.470215
-3732.552567
-3918.730529
-4052.346732
-4143.896001
-4202.108278
-4234.139363
-4245.795062
-4241.751215
-0.008548113553
-0.009849823848
-0.01012778114
-0.01199031486
-0.01516533265
-0.01919252753
-0.02380756947
-0.02885909922
-0.03424577292
-0.03990374716
-0.04579657576
-0.05190369193
-0.05821168724
-0.06470757004
-0.0713729009
-0.07817861703
-0.08508038183
-0.09201418787
-0.09889215468
-0.1055983917
-0.1119859532
-0.1178774078
-0.1230723879
-0.127365554
-0.1305868362
-0.1326866631
-0.1339063766
-0.1351286007
-0.1386333456
-0.149434699
-0.177481183
-0.244705913
-0.4134856328
-0.8352622644
-1.594460698
-2.181380271
-4.574267479
-38.88042397
2329.438012
7370.096459
-1038.555825
164.3753647
663.4059239
599.2827186
193.4268418
-374.1054103
-984.5160701
-1569.025168
-2092.954569
-2542.740963
-2916.941233
-3220.486132
-3461.20275
-3647.811815
-3788.842296
-3892.096955
-3964.437158
-4011.744507
-4038.973971
-4050.24877
-0.004857858073
-0.004216104331
-0.003092819065
-0.004221113551
-0.006951162134
-0.01055323398
-0.0146370972
-0.01899534212
-0.02349985846
-0.02807139541
-0.03266040707
-0.03723073906
-0.04174820502
-0.04617208693
-0.05044804039
-0.05450191534
-0.0582337437
-0.06151126424
-0.06416324159
-0.06597190546
-0.06666541127
-0.06591357088
-0.06332842101
-0.05847479688
-0.05090521669
-0.04024447002
-0.02637188574
-0.009817126065
0.007389132182
0.02014458194
0.01763621363
-0.02421235813
-0.1714779506
-0.5801305712
-1.352182514
-1.951409341
-3.670802506
-32.57198432
1985.460382
6583.787569
-1341.760711
-874.4206211
-401.0205521
-286.3522338
-460.8147588
-804.3361184
-1222.941536
-1655.216775
-2065.049753
-2433.605504
-2753.080775
-3022.330209
-3243.960359
-3422.471546
-3563.11353
-3671.212206
-3751.798721
-3809.427351
-3848.107359
-3871.300714
0.0008290302709
0.003190054418
0.005444158741
0.004592140755
0.001841273691
-0.001696432737
-0.005492618234
-0.009313521318
-0.01303576191
-0.01658785005
-0.01992292149
-0.02299982564
-0.02577065371
-0.02817177198
-0.03011642313
-0.03148819038
-0.03213375567
-0.03185421932
-0.03039520352
-0.02743447318
-0.02256809728
-0.01529613862
-0.005006550076
0.009038641446
0.02770839885
0.05198980095
0.08293573431
0.1215217051
0.1683115139
0.2228236159
0.2824045336
0.3395067537
0.3738206877
0.3360083989
0.1276201556
-0.401122573
-1.419219819
-2.424795996
111.887056
-2720.827666
-4026.618673
-1921.775738
-1106.715232
-882.8563346
-945.9974796
-1159.482723
-1447.697124
-1763.85057
-2078.42208
-2373.550427
-2639.446044
-2871.793452
-3069.836801
-3235.000341
-3369.92792
-3477.839457
-3562.117999
-3626.05863
-3672.727209
-3704.89121
0.01267072922
0.01533689972
0.01665623523
0.01479708141
0.01123021785
0.00724212125
0.003426467832
-2.970410227e-05
-0.003070086142
-0.005669914906
-0.007807149569
-0.009448587071
-0.01054077468
-0.01100307096
-0.01072144572
-0.00954223243
-0.007263926841
-0.003626647025
0.00170135091
0.009140869677
0.0192226572
0.03261440439
0.05015650144
0.07290866969
0.1022128911
0.1397848094
0.1878541374
0.2493965234
0.3285726361
0.4316060169
0.5683107191
0.7558682057
1.034651683
1.510661953
2.318880602
3.213203097
4.543994201
23.68246642
79.08704048
-2656.571308
-2763.293278
-1536.046827
-1221.208279
-1192.36036
-1280.83606
-1439.900118
-1644.513601
-1874.066227
-2111.237484
-2342.727984
-2559.359416
-2755.560636
-2928.592924
-3077.764954
-3203.758205
-3308.099542
-3392.775013
-3459.961776
-3511.851443
-3550.540539
0.04797703286
0.04308020498
0.03351856465
0.02676133404
0.02100767935
0.01593313741
0.01179036534
0.008563774095
0.006142455926
0.004451695685
0.00346461535
0.003194843769
0.003694574117
0.005056176793
0.007415543979
0.01095753981
0.015924459
0.02262768415
0.03146362972
0.04293461827
0.05767628632
0.07649494388
0.1004192806
0.130773193
0.169283422
0.2182463312
0.2807951302
0.3613571569
0.4664954299
0.6065245936
0.7981364657
1.069243074
1.475676219
2.153425279
3.348635489
5.08917378
7.069378824
15.6566042
74.30003126
-1669.9589
2812.021759
-114.6621857
-1051.952545
-1384.54073
-1545.086239
-1674.768035
-1816.390869
-1976.66318
-2149.733561
-2326.764512
-2499.702897
-2662.496635
-2811.209172
-2943.708207
-3059.240253
-3158.025331
-3240.920563
-3309.161833
-3364.176051
-3407.451055
0.1443743239
0.0998893958
0.05720605753
0.03924977131
0.02995406072
0.02350729392
0.01901596422
0.01606791465
0.01431030929
0.01354248906
0.0136823806
0.01472336568
0.01671593005
0.01976215783
0.0240156183
0.02968551688
0.03704491328
0.04644298918
0.05832204293
0.07324028615
0.09190266756
0.115203189
0.1442834653
0.1806156876
0.2261244663
0.2833693728
0.3558214871
0.4482986121
0.5677193911
0.7243276489
0.93340468
1.216937388
1.607810105
2.173864969
3.046579212
4.182536186
4.659915249
2.530828023
2.136058969
-553.2940188
748.0860694
-765.4838712
-1488.40731
-1748.763743
-1840.200087
-1897.694861
-1969.6186
-2066.461989
-2184.268983
-2314.893514
-2450.190918
-2583.513713
-2710.038791
-2826.61831
-2931.469118
-3023.840803
-3103.719901
-3171.588757
-3228.239671
-3274.637605
0.1332127043
0.1155671566
0.06522753319
0.04407466236
0.03440390172
0.02822086572
0.02424928711
0.02202576976
0.02115212418
0.02139859926
0.02267321024
0.02497060325
0.02834887563
0.03292179911
0.03885770765
0.04638318996
0.05579103445
0.06745227266
0.08183287155
0.09951631774
0.1212340896
0.1479067365
0.1806996542
0.2211003099
0.2710264463
0.3329774375
0.4102481027
0.5072377262
0.6298939897
0.7863242924
0.9873894381
1.24616354
1.575949612
1.996494533
2.551915684
3.160230111
2.914280481
0.5331470504
1.349698964
-29.01326474
-1165.726713
-2275.389584
-2389.965721
-2281.906811
-2169.255466
-2106.19267
-2097.926616
-2135.297116
-2205.986781
-2298.349545
-2402.653436
-2511.328389
-2618.81384
-2721.256983
-2816.176956
-2902.1487
-2978.529308
-3045.233442
-3102.556073
-3151.03695
0.07269290732
0.07708944366
0.05170830195
0.03971277642
0.03370613558
0.02968021668
0.02725222479
0.02628352223
0.02655246636
0.02791919546
0.03033794182
0.03383091001
0.03847536321
0.0443998692
0.05178500599
0.06086773236
0.0719491305
0.08540553407
0.1017037326
0.1214213343
0.1452735219
0.1741479445
0.2091505676
0.2516660375
0.3034359918
0.3666602593
0.4441309474
0.5393973267
0.6569463029
0.8023864432
0.9824694491
1.204110752
1.471898409
1.79088852
2.182395572
2.600995079
2.486283986
1.025221747
7.161667346
43.55771588
-7316.654838
-4821.511402
-3515.53276
-2819.64228
-2448.722253
-2259.893682
-2180.59801
-2170.812999
-2206.031393
-2269.864351
-2350.744782
-2440.33245
-2532.631069
-2623.418686
-2709.83287
-2790.04757
-2863.015016
-2928.259444
-2985.714031
-3035.594033
0.03790667971
0.04696423335
0.03765376581
0.03302131244
0.03062449779
0.02908613631
0.02853724353
0.02905523265
0.0305935273
0.033122499
0.03665927536
0.04126379017
0.04703708537
0.05412260546
0.06270941655
0.07303747574
0.08540493099
0.1001777722
0.1178026355
0.1388233795
0.1639018313
0.1938435249
0.2296294823
0.2724541735
0.3237693383
0.3853361542
0.4592808282
0.5481344503
0.6548345247
0.7826552814
0.9349623686
1.114373854
1.321005112
1.553555719
1.820827407
2.122666817
2.252672785
1.863580751
4.090627571
24.08873331
-12104.65334
-6271.938881
-4031.267091
-3032.407264
-2546.097538
-2304.061736
-2193.758674
-2161.3254
-2177.461355
-2224.331586
-2290.128785
-2366.62544
-2447.959172
-2529.953679
-2609.688115
-2685.193532
-2755.22357
-2819.075104
-2876.446378
-2927.325063
0.01732871025
0.02659191286
0.02592056271
0.02602026787
0.02654652928
0.02731142934
0.0286117493
0.03062834346
0.033436742
0.0370963746
0.04168052951
0.04728459192
0.05403135359
0.06207587031
0.07161055005
0.0828708451
0.09614168173
0.111765228
0.1301507054
0.1517862748
0.1772526949
0.2072387025
0.242557443
0.2841620406
0.3331597242
0.3908198563
0.4585614118
0.537901594
0.6303354067
0.7371009747
0.8587462849
0.9942698183
1.139547867
1.285985119
1.422212344
1.530308588
1.539363209
1.263190519
0.6363619464
-1.219173588
-5392.320279
-4219.4333
-3304.900445
-2732.622115
-2399.198856
-2216.496997
-2129.049485
-2103.268499
-2118.156954
-2159.871755
-2218.813224
-2288.081235
-2362.626366
-2438.7486
-2513.772229
-2585.814713
-2653.610456
-2716.370839
-2773.671118
-2825.358848
0.00250279606
0.01099578124
0.0158572365
0.01929027939
0.02215267978
0.02490143299
0.02786797392
0.03127221876
0.03526371688
0.03996292745
0.04548480731
0.05195188337
0.05950275489
0.06829870491
0.07852960336
0.09041932235
0.1042309032
0.1202722254
0.1389025969
0.1605396887
0.1856660095
0.2148342589
0.2486700233
0.2878699844
0.333191593
0.3854254663
0.4453378396
0.5135639795
0.5904231934
0.6756102869
0.7676949499
0.8633135534
0.955862764
1.03364625
1.077623268
1.058105942
0.9324613078
0.6280614705
-0.1385868823
-2.566161308
-277.4682065
-1937.29625
-2236.32068
-2193.981865
-2101.578733
-2033.677859
-2002.673708
-2004.54208
-2032.026121
-2078.185157
-2137.171011
-2204.259784
-2275.716326
-2348.641985
-2420.837337
-2490.682474
-2557.032528
-2619.126494
-2676.508211
-2728.958743
-0.008812066987
-0.00134445782
0.007356851317
0.0131963294
0.01786115812
0.02222740732
0.02660780408
0.03122056272
0.03625176441
0.04185761699
0.04817903019
0.05535530455
0.06353330462
0.07287435846
0.08355997534
0.09579637054
0.1098181397
0.1258918313
0.1443193595
0.165440173
0.1896312851
0.2173045136
0.2488994233
0.2848682321
0.3256473036
0.3716083223
0.4229777799
0.4797088225
0.5412817814
0.6064015693
0.6725489947
0.7353416389
0.7876570586
0.8184245623
0.8106659165
0.7392756888
0.576619151
0.309820709
-0.1295082198
-1.32989194
-1.584197171
-1020.84383
-1509.18336
-1705.4059
-1779.456313
-1813.961945
-1843.425342
-1880.199916
-1927.220204
-1983.671639
-2047.425766
-2116.070443
-2187.337037
-2259.265537
-2330.252512
-2399.045157
-2464.710515
-2526.594215
-2584.276295
-2637.528276
-0.01740248997
-0.01096175765
0.0003898224908
0.007914219825
0.01390900693
0.01953276003
0.02505371803
0.03066433055
0.03656112775
0.04291607899
0.04988203447
0.05760501857
0.06623266757
0.07592042126
0.08683631657
0.09916424463
0.1131061226
0.1288835098
0.1467380236
0.1669293417
0.1897304409
0.2154196845
0.2442666407
0.2765075055
0.3123075149
0.3517033108
0.3945163098
0.4402277374
0.4877988197
0.5354161707
0.5801557965
0.6175443578
0.6410712215
0.6416519252
0.6067561135
0.5195803544
0.3653763473
0.1527853348
-0.122158233
-0.8241024121
-0.9034469671
-636.0377648
-1074.20497
-1339.002028
-1496.878631
-1599.288209
-1676.865732
-1745.611958
-1812.983051
-1881.855327
-1952.78986
-2025.259067
-2098.295714
-2170.830477
-2241.861867
-2310.534963
-2376.169986
-2438.263372
-2496.474281
-2550.604106
-0.02383778987
-0.01833607916
-0.0051933345
0.003469840054
0.01040527033
0.0169635929
0.02336055188
0.02975239063
0.03632992751
0.0432666261
0.05071623398
0.05882306985
0.06772910894
0.0775789056
0.08852305014
0.1007200593
0.1143371861
0.1295502488
0.1465414202
0.1654943046
0.1865864362
0.2099778256
0.2357917844
0.2640864831
0.2948150524
0.327768047
0.3624925842
0.3981836785
0.4335405879
0.4665781794
0.4944004982
0.512948015
0.5167765234
0.4989255129
0.4507278702
0.3619086669
0.2259838892
0.05539417833
-0.1481069144
-0.6403792652
-0.6998097407
-448.4078292
-812.6213174
-1079.518577
-1269.767927
-1409.446471
-1519.137351
-1612.399056
-1697.244627
-1777.976659
-1856.619174
-1933.880132
-2009.756149
-2083.89865
-2155.829363
-2225.062679
-2291.170917
-2353.814819
-2412.753154
-2467.840163
-0.02854109157
-0.02386903996
-0.009570261548
-0.0001784236109
0.00738557118
0.01460057761
0.02163201754
0.02859790078
0.03567430502
0.04302680216
0.05080212708
0.05913655297
0.06816147381
0.07800683975
0.08880316814
0.100682174
0.1137763889
0.128217434
0.1441319971
0.1616353072
0.1808220881
0.2017525618
0.2244316256
0.2487805868
0.2745990872
0.3015130423
0.3289073191
0.3558395989
0.3809311846
0.4022495719
0.4171666714
0.4222462888
0.413192062
0.3849165603
0.3316405991
0.2473261653
0.1299001449
-0.00871754248
-0.1680416415
-0.5406712295
-0.5861385267
-344.4813404
-648.3710888
-896.6829998
-1093.227983
-1249.592343
-1377.838079
-1487.602211
-1585.619659
-1676.187411
-1761.829938
-1843.886022
-1922.949968
-1999.178468
-2072.494103
-2142.715306
-2209.636007
-2273.071647
-2332.883156
-2388.986814
-0.03181972988
-0.02786835868
-0.01290250267
-0.003096704916
0.004845862526
0.01248287841
0.01993555553
0.02728591376
0.03469083321
0.04230229716
0.05025485921
0.05867244556
0.06767251742
0.07736804056
0.08786816467
0.09927780003
0.1116962933
0.1252145417
0.1399099386
0.155839148
0.1730280306
0.1914570577
0.2110410818
0.2316037479
0.2528439062
0.2742915961
0.2952556376
0.3147632338
0.3314828676
0.3436559355
0.3490316131
0.3448331799
0.327806411
0.2943710035
0.2408042194
0.1636777537
0.0630762549
-0.05044366589
-0.1772701988
-0.4688558712
-0.5043714086
-280.7479036
-539.7117244
-765.6143182
-956.868618
-1117.856783
-1255.020346
-1374.551975
-1481.4443
-1579.323293
-1670.627039
-1756.883928
-1838.979102
-1917.371008
-1992.253118
-2063.66827
-2131.585983
-2195.95242
-2256.720813
-2313.86837
-0.03391057814
-0.03057823483
-0.01533287269
-0.00535958673
0.002760706296
0.01062375625
0.01831351427
0.0258800902
0.03345949356
0.04118705167
0.04918215246
0.05755382546
0.06640365484
0.075826447
0.08590982542
0.09673307674
0.1083651229
0.1208609702
0.1342560678
0.1485587909
0.1637405135
0.1797215804
0.1963531341
0.2133952204
0.2304890822
0.2471232564
0.2625944034
0.2759654744
0.2860262581
0.2912499967
0.2897824492
0.2794560549
0.257880645
0.2226153247
0.1713463591
0.1022243321
0.0162903043
-0.07745150218
-0.1798160167
-0.4125301509
-0.4407897295
-238.4469077
-464.1237913
-669.1938987
-850.7753442
-1009.94577
-1149.834482
-1274.140966
-1386.282189
-1489.034324
-1584.470885
-1674.043425
-1758.711371
-1839.073199
-1915.47894
-1988.118509
-2057.087063
-2122.431051
-2184.179111
-2242.36158
-0.03500748593
-0.03220183072
-0.01698844963
-0.007042821926
0.001093747925
0.009020666663
0.01679116375
0.02442807837
0.03204652154
0.03976390556
0.04768310574
0.05589709701
0.06449080728
0.07354072232
0.08311375302
0.09326560368
0.1040383845
0.1154565401
0.1275210606
0.1402023714
0.1534310205
0.1670850292
0.1809746336
0.1948244049
0.2082511655
0.2207399318
0.2316193793
0.2400307538
0.2449136988
0.2449905059
0.2387768898
0.2246255421
0.2008255697
0.1657617646
0.1180558187
0.05679625794
-0.01662493081
-0.09467664133
-0.1783551675
-0.3667196662
-0.3895023534
-208.5973271
-409.1507804
-596.2621086
-767.093045
-921.3164161
-1060.23078
-1185.895144
-1300.509076
-1406.060829
-1504.178638
-1596.107396
-1682.749625
-1764.731337
-1842.470784
-1916.239603
-1986.212535
-2052.505429
-2115.202803
-2174.376844
-0.03527492281
-0.03291299855
-0.01798259258
-0.008219575589
-0.0001961208861
0.00766175941
0.01538229482
0.02296563254
0.03050690281
0.03810553957
0.04584770282
0.05381016473
0.06206132515
0.0706600507
0.07965408317
0.08907824016
0.09895166442
0.1092735693
0.120017799
0.1311264354
0.1425013975
0.153993597
0.165390838
0.1764041267
0.1866512506
0.1956393019
0.2027513845
0.2072314269
0.2081764163
0.2045445078
0.1951756048
0.1788449289
0.1543569337
0.1206783291
0.07703815472
0.02307114137
-0.03977162729
-0.1052329834
-0.1743517771
-0.3285114224
-0.3470665938
-186.5003239
-367.6264874
-539.6106762
-700.0182665
-847.9960146
-983.877012
-1108.699676
-1223.798051
-1330.521178
-1430.075333
-1523.457777
-1611.448269
-1694.6316
-1773.433104
-1848.15642
-1919.017875
-1986.175141
-2049.74963
-2109.84308
-0.03485546353
-0.03286311283
-0.01841665908
-0.008958686036
-0.001151233848
0.00652997059
0.01409301774
0.02151962827
0.02888639886
0.0362754784
0.04375685502
0.05139164857
0.05923248448
0.06732189868
0.07569056009
0.08435530353
0.09331621244
0.102552461
0.1120174906
0.1216334884
0.1312841323
0.1408057794
0.1499781034
0.1585138586
0.1660483745
0.172128761
0.1762042955
0.17762591
0.17564411
0.1694261724
0.1580834157
0.1407233878
0.1165319531
0.08487787342
0.04537705685
-0.00202565948
-0.05595259256
-0.1112043847
-0.168788238
-0.2961245964
-0.3113711223
-169.5099169
-335.2495626
-494.5358091
-645.3732866
-786.7723097
-918.581512
-1041.228419
-1155.462187
-1262.1504
-1362.143631
-1456.199991
-1544.953945
-1628.913548
-1708.473463
-1783.934937
-1855.527232
-1923.427446
-1987.777299
-2048.696449
-0.03387429136
-0.03218545901
-0.01838147552
-0.009323957976
-0.001813147815
0.005605593461
0.01292432315
0.02011020972
0.02722303739
0.03432882551
0.0414824115
0.04873025566
0.05611042487
0.06365077385
0.07136713527
0.07926131155
0.08731811577
0.09550151331
0.1037505114
0.1119744872
0.1200471994
0.127800114
0.1350156082
0.1414194636
0.146674119
0.1503745174
0.1520424857
0.1511308613
0.1470298453
0.1390855873
0.1266295842
0.1090249457
0.08573440813
0.05639963698
0.02087804528
-0.0207162968
-0.06713234465
-0.1140361242
-0.1623684853
-0.2684072817
-0.2810373099
-156.0432209
-309.3304917
-457.9096787
-600.1667186
-735.1383717
-862.448242
-982.1702231
-1094.67179
-1200.474506
-1300.148691
-1394.244493
-1483.253842
-1567.595043
-1647.612109
-1723.582468
-1795.728494
-1864.229926
-1929.235469
-1990.872712
-0.03244198981
-0.0309980573
-0.01795843955
-0.009373904975
-0.002221480785
0.004867953063
0.01187390454
0.01875244501
0.02554836367
0.03231293627
0.03908715353
0.04590415399
0.05278893154
0.05975648507
0.06681008998
0.07393931135
0.08111713226
0.08829655211
0.0954072155
0.10235156
0.109000073
0.1151864117
0.1207027144
0.1252950041
0.1286590409
0.1304391064
0.13022861
0.1275744264
0.1219882209
0.1129649571
0.1000106213
0.08268127374
0.06063745118
0.03370294718
0.001882143708
-0.03462499964
-0.07470884011
-0.1147407647
-0.155583091
-0.2445471783
-0.2550904926
-145.1046517
-288.123214
-427.6056638
-562.2454946
-691.1661624
-813.9027952
-930.3323653
-1040.580156
-1144.927047
-1243.732023
-1337.375328
-1426.221755
-1510.600528
-1590.797308
-1667.054169
-1739.574175
-1808.528109
-1874.061739
-1936.30264
-0.03065632001
-0.02940548968
-0.01722032918
-0.009161732361
-0.002413284642
0.004296452439
0.01093742233
0.01745762435
0.02388861043
0.03026838472
0.03662555019
0.04298141
0.04934953238
0.05573398336
0.06212771715
0.06851064592
0.07484697067
0.0810823255
0.08714108501
0.09292327694
0.09830108789
0.1031155057
0.1071730283
0.1102433462
0.1120580588
0.1123102973
0.1106593764
0.1067360923