/*--------------------------------*- C++ -*----------------------------------*\
  =========                 |
  \\      /  F ield         | OpenFOAM: The Open Source CFD Toolbox
   \\    /   O peration     | Website:  https://openfoam.org
    \\  /    A nd           | Version:  10
     \\/     M anipulation  |
\*---------------------------------------------------------------------------*/
FoamFile
{
    format      ascii;
    class       volScalarField;
    location    "0.0001";
    object      p_rgh;
}
// * * * * * * * * * * * * * * * * * * * * * * * * * * * * * * * * * * * * * //

dimensions      [1 -1 -2 0 0 0 0];

internalField   nonuniform List<scalar> 
3600
(
-0.03591968581
-0.04856999395
-0.05775880615
-0.06782390227
-0.07893513128
-0.09093943739
-0.1039137438
-0.1180157533
-0.1334033991
-0.1502427631
-0.1687166981
-0.1890257176
-0.2113879852
-0.2360392212
-0.2632322219
-0.2932356627
-0.3263319593
-0.362814111
-0.4029812502
-0.4471324669
-0.4955589808
-0.5485351692
-0.6063089265
-0.6690915818
-0.7370461439
-0.8102733337
-0.8887930543
-0.9725183141
-1.061202166
-1.154313063
-1.250756796
-1.348267617
-1.442034313
-1.521397005
-1.56109718
-1.499007306
-1.200831715
-0.4947123389
0.6606280275
3.525243697
24.56501109
335.7606599
-9308.109335
-21501.25951
-22402.46838
-20494.22848
-19262.07583
-17475.37091
-15665.22318
-14034.17918
-12630.15519
-11441.97212
-10440.73373
-9595.528861
-8878.690728
-8267.042697
-7741.708281
-7287.490374
-6892.195449
-6546.030051
-0.03545489622
-0.04801030481
-0.05712545952
-0.06711067356
-0.07813489476
-0.09004647458
-0.102921804
-0.1169173629
-0.1321897683
-0.1489037284
-0.1672405653
-0.1873990706
-0.2095956663
-0.2340645892
-0.2610575954
-0.2908427907
-0.3237024475
-0.3599298763
-0.3998252205
-0.4436898748
-0.4918195308
-0.5444959949
-0.601978041
-0.6644920029
-0.7322227848
-0.8053065784
-0.8838237057
-0.9677987877
-1.057206693
-1.151984624
-1.252094171
-1.357670227
-1.469104178
-1.585997978
-1.704656094
-1.824181345
-1.965092273
-2.048349344
-1.328750425
2.189047589
11.66656182
32.48131309
-23285.93659
-22128.6465
-23261.624
-22046.60107
-19836.99104
-17501.45889
-15486.10895
-13807.15043
-12414.30686
-11255.02095
-10284.69438
-9467.156884
-8773.495899
-8180.724655
-7670.587621
-7228.56362
-6843.062443
-6504.790142
-0.03453944568
-0.0469045825
-0.05587219674
-0.06569760556
-0.0765481266
-0.0882748813
-0.1009529855
-0.1147362882
-0.1297786319
-0.1462418352
-0.164304185
-0.1841613167
-0.2060264738
-0.2301308698
-0.256723632
-0.2860709284
-0.3184541299
-0.3541670293
-0.3935120002
-0.4367950036
-0.4843196436
-0.5363803784
-0.5932548989
-0.6551961023
-0.722425624
-0.7951316807
-0.8734727903
-0.957601379
-1.047724367
-1.144253064
-1.248240269
-1.362470901
-1.493548971
-1.654712042
-1.876632322
-2.272963366
-3.183899174
-4.803895392
-5.312754843
-5.908268914
-72.35724175
-1417.719003
-30220.54237
-25534.27238
-25118.87093
-26758.92599
-20562.37706
-17209.53614
-14970.60325
-13294.00666
-11964.9008
-10879.11039
-9975.865834
-9214.908258
-8567.411216
-8011.772246
-7531.353736
-7113.113871
-6746.700373
-6423.814455
-0.03320129331
-0.04528009757
-0.05402559804
-0.06361099141
-0.07420126969
-0.08565162255
-0.09803513137
-0.1115015634
-0.1262004101
-0.1422888824
-0.1599404107
-0.1793456341
-0.2007128223
-0.2242684434
-0.2502573523
-0.278942241
-0.3106022662
-0.3455308668
-0.3840326159
-0.4264190959
-0.4730041175
-0.5240984389
-0.5800038184
-0.6410064055
-0.7073711131
-0.7793379754
-0.8571209194
-0.9409158946
-1.030924473
-1.127425417
-1.231068126
-1.343720516
-1.470097144
-1.619578895
-1.816317065
-2.172449008
-3.046506576
-4.555442496
-4.421826588
-6.307417111
-114.189556
-7411.077156
-27152.02078
-24197.13503
-25559.86129
-21956.73483
-18407.46212
-15801.77652
-13892.76121
-12433.3721
-11272.1792
-10320.65388
-9524.750194
-8849.19895
-8269.468313
-7767.599243
-7329.941064
-6945.837558
-6606.810537
-6306.019798
-0.03148062109
-0.04317599946
-0.05162387994
-0.06088890717
-0.07113304334
-0.08221665625
-0.09420986123
-0.1072567187
-0.1215006021
-0.1370921876
-0.1541979746
-0.17300146
-0.1937037876
-0.2165245469
-0.2417022149
-0.2694939356
-0.3001746444
-0.3340355977
-0.3713821623
-0.4125308742
-0.4578061406
-0.5075367943
-0.5620522028
-0.6216776476
-0.6867296598
-0.7575084811
-0.8342826144
-0.9172549311
-1.006477866
-1.101660681
-1.201830282
-1.304707913
-1.40518368
-1.490123418
-1.527546345
-1.472175655
-1.300731241
-0.7415374556
1.930294342
7.83382885
-95.90268002
-11817.89341
-17653.11832
-20429.36181
-18345.76107
-17071.0828
-15305.5038
-13697.34658
-12365.29292
-11274.54124
-10369.78993
-9606.575627
-8953.282003
-8387.668934
-7893.6637
-7459.215178
-7074.973558
-6733.484587
-6428.68423
-6155.56716
-0.02942793649
-0.04064137613
-0.04871476777
-0.0575789611
-0.06739218917
-0.07802081415
-0.08953076816
-0.1020584639
-0.115739065
-0.1307144993
-0.1471420111
-0.1651955544
-0.1850666585
-0.2069654364
-0.2311212631
-0.257782883
-0.2872180463
-0.3197128
-0.3555703204
-0.3951093621
-0.4386628107
-0.4865767507
-0.5392098804
-0.5969332934
-0.6601312675
-0.7291991595
-0.8045309353
-0.8864780417
-0.9752274377
-1.070492011
-1.170834151
-1.27220052
-1.364784466
-1.4248481
-1.394015276
-1.157799219
-0.5971556415
0.4918980293
5.872534898
26.67913072
-2370.581785
-1675.528291
-9225.496451
-14831.78967
-13260.86152
-12709.65766
-12050.63504
-11316.81303
-10596.52257
-9929.709956
-9325.863547
-8782.576605
-8294.133147
-7854.530966
-7458.302212
-7100.624048
-6777.253242
-6484.442824
-6218.874438
-5977.606404
-0.02710167461
-0.03773276993
-0.04535282291
-0.05373562029
-0.06303496413
-0.07312355494
-0.08406147867
-0.09597511577
-0.1089889279
-0.1232335421
-0.138854337
-0.1560130454
-0.1748887591
-0.1956790581
-0.218600869
-0.2438908641
-0.2718055675
-0.3026213512
-0.3366342826
-0.3741600115
-0.4155343834
-0.4611155487
-0.5112879878
-0.5664696277
-0.627124406
-0.6937802022
-0.7670509923
-0.847657542
-0.9364205097
-1.034152427
-1.141279412
-1.256837598
-1.376892557
-1.491630059
-1.571629636
-1.531820663
-1.204671595
-0.4275996045
1.786349192
182.6956624
2255.46168
7811.973909
-695.5616901
-5508.587025
-7468.931688
-8461.64926
-8870.565624
-8922.747858
-8774.274328
-8521.912391
-8221.377625
-7903.733968
-7586.14288
-7278.019441
-6984.390005
-6707.725406
-6448.972371
-6208.15885
-5984.764094
-5777.951853
-0.02456538821
-0.03451108779
-0.0415960683
-0.04941688074
-0.05812209177
-0.06759029385
-0.07787339153
-0.08908475825
-0.1013351846
-0.1147410947
-0.1294331315
-0.1455578639
-0.1632787939
-0.1827774991
-0.204254579
-0.2279302217
-0.2540446137
-0.2828584544
-0.3146536363
-0.3497343763
-0.388429652
-0.4310980992
-0.4781365785
-0.5299951696
-0.5872036669
-0.6504162377
-0.7204860892
-0.7985929853
-0.88645812
-0.9866512491
-1.102883753
-1.240420139
-1.409304912
-1.631151554
-1.913245435
-2.138632957
-2.128083366
-2.599966308
1.375267238
3119.430224
24155.12372
16627.28869
7063.010655
972.2772256
-2644.96898
-4797.442031
-6047.230303
-6729.338407
-7055.914423
-7162.287561
-7134.000499
-7024.838645
-6868.684869
-6687.013787
-6493.512801
-6296.915045
-6102.751819
-5914.455932
-5734.071038
-5562.716896
-0.02188454835
-0.03103785009
-0.03750172806
-0.04468007729
-0.0527150383
-0.06148931692
-0.07104323833
-0.08147339894
-0.09287340851
-0.1053422516
-0.1189927521
-0.133953186
-0.1503681055
-0.1683993522
-0.1882269318
-0.2100495357
-0.2340849822
-0.2605709412
-0.2897661045
-0.321952082
-0.3574368622
-0.3965611473
-0.4397092456
-0.4873281565
-0.5399616828
-0.5983112443
-0.6633468875
-0.7365210833
-0.8201879317
-0.9183227954
-1.037561701
-1.189917056
-1.405734919
-1.759763321
-2.304701177
-2.773586302
-3.440531936
-12.63134968
-30.98138219
28569.83168
35510.73115
21333.2026
11532.88269
4979.390075
714.2205959
-2035.91955
-3791.575099
-4891.460986
-5557.757317
-5937.322866
-6127.498088
-6192.935122
-6176.744037
-6107.83791
-6005.732219
-5883.670002
-5750.663772
-5612.841839
-5474.34704
-5337.944884
-0.01912285741
-0.02737044432
-0.03312067477
-0.03957656425
-0.04687149726
-0.05488821322
-0.06365041654
-0.07323309311
-0.08370852435
-0.09515471686
-0.1076634929
-0.1213416983
-0.136311593
-0.1527115207
-0.1706964695
-0.1904382663
-0.2121257291
-0.235965243
-0.262181971
-0.2910218533
-0.3227549443
-0.3576811455
-0.3961397169
-0.4385252442
-0.4853151777
-0.5371183166
-0.5947646719
-0.6594880427
-0.7333077541
-0.8197025663
-0.924592855
-1.059659047
-1.260231073
-1.620683058
-2.173291018
-2.345149127
-2.610590335
-22.55789164
31.26639204
62117.02114
36152.01042
21821.422
12771.10469
6698.179812
2558.380869
-268.881626
-2191.689507
-3487.173073
-4346.33091
-4901.748439
-5245.733751
-5442.659607
-5537.518124
-5561.861457
-5537.90802
-5481.368812
-5403.391258
-5311.900429
-5212.530212
-5109.274988
-0.01633754406
-0.02355570221
-0.02848990524
-0.03414482178
-0.0406399259
-0.04784988656
-0.05577420108
-0.06446000546
-0.0739534296
-0.0843078009
-0.09559088226
-0.1078852215
-0.1212877714
-0.1359099013
-0.1518773135
-0.1693295937
-0.1884197775
-0.2093144494
-0.2321945632
-0.2572569214
-0.2847164426
-0.3148097327
-0.3478003595
-0.3839858591
-0.4237061473
-0.4673522649
-0.5153738177
-0.5682891004
-0.6267116294
-0.6913685591
-0.7630049556
-0.8430391347
-0.941715934
-1.097699473
-1.316892529
-1.277433553
-1.340393341
-13.03728877
-55.45377133
34279.05396
24783.75035
17026.68996
11031.93426
6483.843641
3090.004728
593.7017236
-1219.128187
-2519.21083
-3438.644706
-4077.606139
-4511.028753
-4794.451324
-4968.807287
-5064.181631
-5102.669448
-5100.505811
-5069.631844
-5018.838224
-4954.598201
-4881.674968
-0.01357216394
-0.01962023821
-0.02362178432
-0.02840146066
-0.03405324654
-0.0404285929
-0.04749138522
-0.05525295461
-0.06372794309
-0.07294148889
-0.08293476379
-0.09376382558
-0.1054980155
-0.1182188931
-0.1320191165
-0.1470010478
-0.1632755031
-0.180961124
-0.2001844728
-0.2210806119
-0.2437940486
-0.2684801987
-0.2953069075
-0.3244535553
-0.356101964
-0.3904063413
-0.4274130389
-0.4668670057
-0.5077728311
-0.5474687504
-0.5796976503
-0.5896945266
-0.5405025979
-0.3509568859
0.07308036079
0.7219239155
2.557538339
16.65401493
-119.5873909
1915.494186
11480.13752
10469.45747
7846.098783
5115.255786
2724.092707
772.8120205
-759.3140849
-1931.897242
-2811.430891
-3459.002578
-3926.323703
-4255.309543
-4479.07795
-4623.38819
-4708.082181
-4748.352986
-4755.791913
-4739.222237
-4705.349207
-4659.260686
-0.01084240458
-0.0155531139
-0.01848718367
-0.0223291013
-0.0271218433
-0.03266664681
-0.03887511456
-0.04571314615
-0.05315865912
-0.06120600942
-0.0698684393
-0.07917456014
-0.08916495052
-0.09988953449
-0.1114050478
-0.1237724585
-0.1370547332
-0.1513152688
-0.1666169785
-0.1830217966
-0.20059065
-0.2193843532
-0.2394653399
-0.2608978772
-0.2837414339
-0.3080246256
-0.3336678692
-0.3602810413
-0.3866756852
-0.4097869084
-0.4223256351
-0.406205353
-0.3118947118
-0.02192051275
0.5872680453
1.386275166
4.05382414
29.04908883
-87.70066664
267.7128341
4968.573482
5526.917572
4767.747632
3406.988035
1918.298328
532.7678049
-659.0428962
-1637.633091
-2416.178966
-3020.649481
-3479.953832
-3821.385087
-4068.806649
-4242.210863
-4357.91795
-4429.031879
-4465.960417
-4476.909426
-4468.31551
-4445.208154
-0.008101263833
-0.01126914101
-0.01298620636
-0.01585930034
-0.01982627333
-0.02459287481
-0.02999588264
-0.03594572799
-0.0423800169
-0.04926197075
-0.05657777026
-0.06432957198
-0.07252967629
-0.08119592587
-0.09034750282
-0.1000010329
-0.1101672247
-0.12084808
-0.1320346032
-0.1437049022
-0.155823233
-0.1683414905
-0.1812047111
-0.1943612594
-0.2077802526
-0.2214796315
-0.2355658529
-0.2502875344
-0.2661070382
-0.2837023893
-0.3036022624
-0.3253893315
-0.3479930446
-0.3706847407
-0.3711949181
-0.2106506024
0.6925325401
4.105657715
1275.278622
2095.415091
-356.3791823
1906.140674
2290.986159
1826.650432
1009.344827
99.0037598
-771.9921158
-1543.413189
-2195.002315
-2727.462452
-3151.456958
-3481.470215
-3732.552567
-3918.730529
-4052.346732
-4143.896001
-4202.108278
-4234.139363
-4245.795062
-4241.751215
-0.00515107161
-0.006538792067
-0.006902768696
-0.008851331567
-0.01211238952
-0.01622563733
-0.02092674731
-0.02606436313
-0.0315371445
-0.03728125221
-0.04326024493
-0.04945356134
-0.05584779904
-0.06242997291
-0.06918165029
-0.07607377531
-0.08306201793
-0.09008237665
-0.0970469757
-0.1038399274
-0.1103142866
-0.1162926188
-0.1215745494
-0.1259547273
-0.1292630654
-0.1314499689
-0.1327567495
-0.1340659934
-0.1376576658
-0.1485458036
-0.1766788713
-0.2439899192
-0.4128556174
-0.8347178092
-1.594001302
-2.181005342
-4.573976408
-38.88021616
2329.438012
7370.096459
-1038.555825
164.3753647
663.4059239
599.2827186
193.4268418
-374.1054103
-984.5160701
-1569.025168
-2092.954569
-2542.740963
-2916.941233
-3220.486132
-3461.20275
-3647.811815
-3788.842296
-3892.096955
-3964.437158
-4011.744507
-4038.973971
-4050.24877
-0.001460811989
-0.0009050682873
0.0001321980063
-0.001082125006
-0.003898212842
-0.00758633639
-0.01175626607
-0.01620059506
-0.02079121659
-0.02544888396
-0.03012405601
-0.03478058371
-0.03938428657
-0.04389445287
-0.04825674477
-0.05239701874
-0.05621531289
-0.05957937145
-0.06231796298
-0.06421331941
-0.06499359577
-0.06432860011
-0.06183036012
-0.05706369808
-0.04958111343
-0.03900737069
-0.02522176689
-0.008753925521
0.008365521841
0.02103431819
0.01843950992
-0.02349522855
-0.170846653
-0.5795847137
-1.351721613
-1.951032826
-3.670510108
-32.57177556
1985.460382
6583.787569
-1341.760711
-874.4206211
-401.0205521
-286.3522338
-460.8147588
-804.3361184
-1222.941536
-1655.216775
-2065.049753
-2433.605504
-2753.080775
-3022.330209
-3243.960359
-3422.471546
-3563.11353
-3671.212206
-3751.798721
-3809.427351
-3848.107359
-3871.300714
0.004226080929
0.006501095203
0.00866918102
0.007731135296
0.004894230127
0.00127047355
-0.00261177637
-0.006518760947
-0.01032710349
-0.01396531803
-0.01738654489
-0.02054963866
-0.02340669617
-0.02589408974
-0.02792506827
-0.02938322106
-0.03011523584
-0.02992221797
-0.02854979251
-0.02567572582
-0.02089608548
-0.01371092924
-0.003508200513
0.0104500881
0.02903291942
0.05322739832
0.08408644383
0.1225856009
0.1692887145
0.2237142875
0.2832088956
0.3402250796
0.3744533024
0.3365556707
0.1280825314
-0.4007446454
-1.418926187
-2.424586382
111.887056
-2720.827666
-4026.618673
-1921.775738
-1106.715232
-882.8563346
-945.9974796
-1159.482723
-1447.697124
-1763.85057
-2078.42208
-2373.550427
-2639.446044
-2871.793452
-3069.836801
-3235.000341
-3369.92792
-3477.839457
-3562.117999
-3626.05863
-3672.727209
-3704.89121
0.01606778485
0.01864794568
0.01988126325
0.01793608264
0.01428318235
0.01020903746
0.00630732207
0.002765071774
-0.0003614082606
-0.003047358474
-0.005270742427
-0.006998361968
-0.008176769708
-0.008725329934
-0.008530018284
-0.007437173701
-0.005245297125
-0.001694510819
0.003546926577
0.01089981726
0.02089491148
0.03419990603
0.05165520132
0.07432053376
0.1035379058
0.1410229875
0.1890055239
0.2504612012
0.3295507298
0.4324976961
0.5691162024
0.7565877594
1.035285616
1.511210609
2.319344343
3.213582269
4.544289124
23.68267708
79.10322863
-2656.571308
-2763.293278
-1536.046827
-1221.208279
-1192.36036
-1280.83606
-1439.900118
-1644.513601
-1874.066227
-2111.237484
-2342.727984
-2559.359416
-2755.560636
-2928.592924
-3077.764954
-3203.758205
-3308.099542
-3392.775013
-3459.961776
-3511.851443
-3550.540539
0.05137409378
0.04639125649
0.03674359887
0.02990034256
0.02406065272
0.01890006465
0.01467123342
0.01135856745
0.008851155885
0.007074279977
0.006001057546
0.005645112812
0.006058634032
0.007333986325
0.009607056569
0.01306270386
0.01794321841
0.02455997934
0.03330939924
0.04469380092
0.05934882396
0.07808078495
0.1019183843
0.1321855339
0.1706089953
0.2194851579
0.2819472626
0.3624226831
0.4674744756
0.6074173271
0.7989430983
1.069963858
1.476311441
2.153975247
3.349100525
5.089554216
7.069936166
15.6573776
74.30003126
-1669.9589
2812.021759
-114.6621857
-1051.952545
-1384.54073
-1545.086239
-1674.768035
-1816.390869
-1976.66318
-2149.733561
-2326.764512
-2499.702897
-2662.496635
-2811.209172
-2943.708207
-3059.240253
-3158.025331
-3240.920563
-3309.161833
-3364.176051
-3407.451055
0.1477713903
0.1032004532
0.06043109833
0.04238878762
0.03300704365
0.02647423311
0.0218968474
0.01886272716
0.01701903356
0.01616510418
0.01621886179
0.01717368393
0.01908005175
0.02204004464
0.02620722707
0.03179080001
0.03906381934
0.04837546391
0.06016803089
0.07499973284
0.09357552212
0.1167894076
0.1457830152
0.1820285514
0.2274506466
0.2846088974
0.3569744132
0.449365028
0.5686994213
0.7252214554
0.9342124618
1.217659376
1.608446556
2.174416149
3.047045443
4.182999422
4.66066171
2.531509542
2.13639526
-553.2940188
748.0860694
-765.4838712
-1488.40731
-1748.763743
-1840.200087
-1897.694861
-1969.6186
-2066.461989
-2184.268983
-2314.893514
-2450.190918
-2583.513713
-2710.038791
-2826.61831
-2931.469118
-3023.840803
-3103.719901
-3171.588757
-3228.239671
-3274.637605
0.1366097765
0.11887822
0.06845258086
0.04721368686
0.03745689472
0.03118781757
0.02713018639
0.0248206028
0.02386087465
0.02402124773
0.02520973378
0.02742097505
0.03071306473
0.03519977028
0.04104942148
0.04848860315
0.05781010049
0.06938494292
0.0836790968
0.1012760503
0.1229072857
0.1494933601
0.1821996798
0.2225137273
0.2723532644
0.3342176887
0.411401845
0.5083050474
0.6308750096
0.7872191633
0.9881983425
1.246886685
1.576587221
1.997046835
2.552386795
3.160669826
2.914682611
0.5334673743
1.349943623
-29.01326474
-1165.726713
-2275.389584
-2389.965721
-2281.906811
-2169.255466
-2106.19267
-2097.926616
-2135.297116
-2205.986781
-2298.349545
-2402.653436
-2511.328389
-2618.81384
-2721.256983
-2816.176956
-2902.1487
-2978.529308
-3045.233442
-3102.556073
-3151.03695
0.07608998538
0.08040051327
0.05493335665
0.04285180935
0.03675913905
0.03264718176
0.03013314093
0.02907837686
0.02926124446
0.03054187921
0.03287451023
0.03628133859
0.04083962381
0.04667792991
0.05397683124
0.06297328333
0.07396836576
0.08733841067
0.1035502075
0.1231813666
0.1469470747
0.1757349888
0.2106510846
0.253080023
0.3047634595
0.3679012433
0.4452855058
0.5404655442
0.6579282922
0.8032823442
0.9832794262
1.204834988
1.472537097
1.791442002
2.18286548
2.601380569
2.486591027
1.025636333
7.162051267
43.55771588
-7316.654838
-4821.511402
-3515.53276
-2819.64228
-2448.722253
-2259.893682
-2180.59801
-2170.812999
-2206.031393
-2269.864351
-2350.744782
-2440.33245
-2532.631069
-2623.418686
-2709.83287
-2790.04757
-2863.015016
-2928.259444
-2985.714031
-3035.594033
0.04130376365
0.0502753092
0.04087882764
0.03616035396
0.03367751194
0.03205311495
0.03141817703
0.03185010955
0.03330233395
0.03574521924
0.03919589019
0.04371427754
0.04940141997
0.05640075876
0.06490135692
0.07514316882
0.0874243404
0.1021108606
0.1196493659
0.1405837173
0.1655757462
0.195430994
0.2311304928
0.2738687259
0.3250974489
0.3865778579
0.4604361816
0.5492035333
0.6558174409
0.7835521569
0.9357733487
1.115099098
1.321644784
1.554109997
1.821296405
2.123052103
2.252990643
1.863958492
4.090985403
24.08873331
-12104.65334
-6271.938881
-4031.267091
-3032.407264
-2546.097538
-2304.061736
-2193.758674
-2161.3254
-2177.461355
-2224.331586
-2290.128785
-2366.62544
-2447.959172
-2529.953679
-2609.688115
-2685.193532
-2755.22357
-2819.075104
-2876.446378
-2927.325063
0.02072580003
0.02990299492
0.02914563167
0.029159318
0.0295995542
0.03027842167
0.03149270035
0.0334232429
0.03614557757
0.0397191318
0.04421719136
0.0497351388
0.05639576305
0.06435411716
0.0738026065
0.0849766812
0.09816126598
0.1136985284
0.1319976907
0.1535469162
0.178926968
0.20882659
0.2440589368
0.2855771443
0.3344884556
0.3920622503
0.459717522
0.538971494
0.6313191899
0.7379987527
0.859558184
0.9949959736
1.140188415
1.286540188
1.422682299
1.530698073
1.539676799
1.263417668
0.6365008687
-1.219173588
-5392.320279
-4219.4333
-3304.900445
-2732.622115
-2399.198856
-2216.496997
-2129.049485
-2103.268499
-2118.156954
-2159.871755
-2218.813224
-2288.081235
-2362.626366
-2438.7486
-2513.772229
-2585.814713
-2653.610456
-2716.370839
-2773.671118
-2825.358848
0.00589989157
0.01430686942
0.01908231248
0.02242933803
0.02520571536
0.0278684389
0.0307489424
0.0340671406
0.03797258118
0.04258572137
0.04802151586
0.05440248927
0.06186723849
0.07057704424
0.08072177435
0.09252529921
0.106250659
0.1222057332
0.1407498306
0.1623006248
0.1873406288
0.2164225487
0.250171979
0.2892856118
0.3345209108
0.3866685081
0.4464946551
0.514634635
0.5914077717
0.6765088849
0.7685076753
0.8640405197
0.9565040831
1.034202055
1.078094121
1.058492391
0.9327610434
0.6282755136
-0.1384583574
-2.566161308
-277.4682065
-1937.29625
-2236.32068
-2193.981865
-2101.578733
-2033.677859
-2002.673708
-2004.54208
-2032.026121
-2078.185157
-2137.171011
-2204.259784
-2275.716326
-2348.641985
-2420.837337
-2490.682474
-2557.032528
-2619.126494
-2676.508211
-2728.958743
-0.005414965928
0.001966636283
0.01058193413
0.01633539634
0.02091420411
0.02519442649
0.02948878958
0.03401550643
0.03896065676
0.04448044673
0.05071578423
0.05780596787
0.06589786021
0.07515278742
0.08575225706
0.09790248312
0.1118380605
0.1278255378
0.1461668304
0.1672013893
0.1913062322
0.2188931821
0.2504018112
0.2862843471
0.3269771645
0.3728519603
0.4241352401
0.4807801637
0.5422670754
0.6073008991
0.6733624511
0.7360693154
0.7882990487
0.8189809693
0.8111368306
0.7396610036
0.5769189533
0.3100349652
-0.1293795795
-1.32989194
-1.584197171
-1020.84383
-1509.18336
-1705.4059
-1779.456313
-1813.961945
-1843.425342
-1880.199916
-1927.220204
-1983.671639
-2047.425766
-2116.070443
-2187.337037
-2259.265537
-2330.252512
-2399.045157
-2464.710515
-2526.594215
-2584.276295
-2637.528276
-0.0140053836
-0.007650657871
0.003614911849
0.01105329473
0.01696206291
0.02249979195
0.02793471989
0.03345929528
0.03927004702
0.04553894306
0.05241883205
0.06005573674
0.0685972918
0.07819893547
0.08902870334
0.1012704856
0.1151261989
0.130817403
0.1485857164
0.1686908192
0.1914056918
0.2170087024
0.2457694259
0.2779240664
0.3136378694
0.3529474877
0.395674349
0.4412996902
0.4887847475
0.5363161435
0.5809698894
0.6182726474
0.6417137808
0.6422088161
0.6072273792
0.5199660203
0.3656764101
0.152999762
-0.1220295042
-0.8241024121
-0.9034469671
-636.0377648
-1074.20497
-1339.002028
-1496.878631
-1599.288209
-1676.865732
-1745.611958
-1812.983051
-1881.855327
-1952.78986
-2025.259067
-2098.295714
-2170.830477
-2241.861867
-2310.534963
-2376.169986
-2438.263372
-2496.474281
-2550.604106
-0.02044067849
-0.01502497402
-0.001968238944
0.006608922502
0.01345833578
0.01993063689
0.02624156923
0.03254737523
0.0390388722
0.04588952253
0.05325307252
0.06127383955
0.07009379749
0.07985749948
0.09071553482
0.1028264195
0.1163574065
0.1314843143
0.1483893171
0.1672560211
0.1882619639
0.2115671605
0.2372949282
0.2655034445
0.2961458482
0.3290127029
0.363651135
0.3992561682
0.4345270682
0.4674787085
0.4952151376
0.5136768263
0.5174195636
0.4994828299
0.4511994978
0.3622946203
0.226284162
0.05560874022
-0.1479781176
-0.6403792652
-0.6998097407
-448.4078292
-812.6213174
-1079.518577
-1269.767927
-1409.446471
-1519.137351
-1612.399056
-1697.244627
-1777.976659
-1856.619174
-1933.880132
-2009.756149
-2083.89865
-2155.829363
-2225.062679
-2291.170917
-2353.814819
-2412.753154
-2467.840163
-0.02514397552
-0.02055792981
-0.006345160207
0.002960665882
0.01043864547
0.01756763287
0.02451304933
0.03139290388
0.03838327334
0.04564972864
0.05333900358
0.06158737027
0.07052622164
0.08028550688
0.09099574257
0.1027886433
0.1157967405
0.1301516558
0.1459800782
0.1633972388
0.1824978638
0.2033421795
0.225935088
0.2501979024
0.2759302714
0.3027581174
0.3300663152
0.3569125529
0.3819181397
0.4031505757
0.4179817738
0.4229755387
0.413835504
0.3854742309
0.3321125228
0.2477123515
0.1302005852
-0.008502875067
-0.1679127927
-0.5406712295
-0.5861385267
-344.4813404
-648.3710888
-896.6829998
-1093.227983
-1249.592343
-1377.838079
-1487.602211
-1585.619659
-1676.187411
-1761.829938
-1843.886022
-1922.949968
-1999.178468
-2072.494103
-2142.715306
-2209.636007
-2273.071647
-2332.883156
-2388.986814
-0.02842260953
-0.02455724392
-0.009677396001
4.239106598e-05
0.007898944958
0.01544994403
0.02281660057
0.03008093384
0.03739982318
0.04492525109
0.05279177032
0.06112330619
0.07003731907
0.07964677399
0.09006082008
0.1013843673
0.1137167624
0.1271489031
0.1417581837
0.15760127
0.1747040253
0.1930469241
0.2125448232
0.2330213722
0.2541754272
0.275537033
0.2964150158
0.315836584
0.3324702253
0.3445573393
0.3498471027
0.3455627941
0.3284501841
0.294928963
0.2412763828
0.1640641262
0.06337682768
-0.05022891638
-0.1771413102
-0.4688558712
-0.5043714086
-280.7479036
-539.7117244
-765.6143182
-956.868618
-1117.856783
-1255.020346
-1374.551975
-1481.4443
-1579.323293
-1670.627039
-1756.883928
-1838.979102
-1917.371008
-1992.253118
-2063.66827
-2131.585983
-2195.95242
-2256.720813
-2313.86837
-0.03051345388
-0.02726711589
-0.01210776117
-0.002220484847
0.005813796125
0.01359083128
0.02119457135
0.02867512563
0.03616850308
0.04381003035
0.05171909469
0.06000472494
0.06876850461
0.07810523956
0.08810255285
0.09883973092
0.1103856959
0.1227954543
0.1361044566
0.1503210794
0.1654166988
0.1813116624
0.1978571162
0.2148131101
0.2318208912
0.2483690012
0.263754105
0.2770391582
0.2870139528
0.2921517332
0.2905982591
0.2801859681
0.2585246879
0.2231735178
0.1718187146
0.1026108525
0.01659098095
-0.07723668919
-0.179687098
-0.4125301509
-0.4407897295
-238.4469077
-464.1237913
-669.1938987
-850.7753442
-1009.94577
-1149.834482
-1274.140966
-1386.282189
-1489.034324
-1584.470885
-1674.043425
-1758.711371
-1839.073199
-1915.47894
-1988.118509
-2057.087063
-2122.431051
-2184.179111
-2242.36158
-0.03161035815
-0.02889070801
-0.01376333376
-0.003903714747
0.004146844387
0.01198775012
0.01967223158
0.02722312751
0.03475554847
0.04238690623
0.05022007557
0.05834803086
0.06685569951
0.07581956689
0.08530654357
0.09537233376
0.1060590477
0.1173911308
0.1293695738
0.1419648033
0.1551073694
0.1686752957
0.1824788209
0.1962425196
0.2095832178
0.2219859354
0.2327793514
0.2411047152
0.2459016723
0.2458925161
0.2395929613
0.2253556981
0.2014698302
0.1663201447
0.1185283268
0.05718289466
-0.0163241733
-0.09446177957
-0.1782262262
-0.3667196662
-0.3895023534
-208.5973271
-409.1507804
-596.2621086
-767.093045
-921.3164161
-1060.23078
-1185.895144
-1300.509076
-1406.060829
-1504.178638
-1596.107396
-1682.749625
-1764.731337
-1842.470784
-1916.239603
-1986.212535
-2052.505429
-2115.202803
-2174.376844
-0.03187779191
-0.02960187248
-0.01475747284
-0.005080463714
0.002856981449
0.01062885032
0.01826337213
0.02576069375
0.03321594505
0.04072855954
0.04838469679
0.05626112857
0.06442625434
0.07293894039
0.08184692831
0.09118503569
0.1009724054
0.1112082513
0.1218664183
0.1328889895
0.1441778853
0.1555840194
0.166895198
0.1778224301
0.1879835058
0.1968855203
0.2039115802
0.2083056165
0.2091646179
0.2054467407
0.1959918882
0.1795752803
0.1550013681
0.1212368576
0.07751078291
0.02345786894
-0.03947080726
-0.1050180844
-0.1742228187
-0.3285114224
-0.3470665938
-186.5003239
-367.6264874
-539.6106762
-700.0182665
-847.9960146
-983.877012
-1108.699676
-1223.798051
-1330.521178
-1430.075333
-1523.457777
-1611.448269
-1694.6316
-1773.433104
-1848.15642
-1919.017875
-1986.175141
-2049.74963
-2109.84308
-0.03145832989
-0.02955198383
-0.01519153595
-0.005819570049
0.001901873624
0.009497068
0.01697410332
0.02431469999
0.03159545439
0.03889851508
0.04629386986
0.05384263825
0.06159744542
0.06960082703
0.07788345189
0.08646215483
0.09533701946
0.1044872203
0.1138661996
0.1233961453
0.1329607365
0.1423963319
0.151482607
0.1599323182
0.1673807971
0.173375156
0.1773646741
0.1787002853
0.1766324964
0.1703285847
0.1588998686
0.1414538947
0.1171765252
0.08543651858
0.04584977888
-0.00163886148
-0.05565172449
-0.1109894574
-0.1686592669
-0.2961245964
-0.3113711223
-169.5099169
-335.2495626
-494.5358091
-645.3732866
-786.7723097
-918.581512
-1041.228419
-1155.462187
-1262.1504
-1362.143631
-1456.199991
-1544.953945
-1628.913548
-1708.473463
-1783.934937
-1855.527232
-1923.427446
-1987.777299
-2048.696449
-0.03047715534
-0.02887432747
-0.01515634946
-0.00618483843
0.001239964096
0.008572696482
0.01580541585
0.02290529047
0.02993210431
0.03695187649
0.04401944414
0.05118126735
0.05847541276
0.06592973494
0.07356006647
0.0813682098
0.08933897821
0.09743633741
0.1055992952
0.1137372294
0.1217239
0.1293907739
0.1365202299
0.1428380512
0.1480066783
0.1516210558
0.1532030122
0.1522053862
0.1480183797
0.1399881426
0.1274461717
0.1097555754
0.08637908828
0.05695837322
0.02135084008
-0.02032944458
-0.06683143992
-0.1138211756
-0.1622395048
-0.2684072817
-0.2810373099
-156.0432209
-309.3304917
-457.9096787
-600.1667186
-735.1383717
-862.448242
-982.1702231
-1094.67179
-1200.474506
-1300.148691
-1394.244493
-1483.253842
-1567.595043
-1647.612109
-1723.582468
-1795.728494
-1864.229926
-1929.235469
-1990.872712
-0.02904485176
-0.02768692358
-0.01473331098
-0.006234782384
0.0008316349168
0.007835060869
0.01475500331
0.02154753343
0.02825744025
0.03493599933
0.0416242012
0.04835518419
0.05515394206
0.06203547356
0.06900305407
0.07604624871
0.08313804073
0.0902314298
0.09725606101
0.1041143726
0.1106768526
0.1167771594
0.1222074322
0.1267136955
0.1299917105
0.1316857601
0.1313892549
0.1286490705
0.1229768728
0.1138676255
0.1008273147
0.08341199959
0.0612822155
0.03426175397
0.002354994539
-0.03423810594
-0.07440790757
-0.1145258001
-0.1554541036
-0.2445471783
-0.2550904926
-145.1046517
-288.123214
-427.6056638
-562.2454946
-691.1661624
-813.9027952
-930.3323653
-1040.580156
-1144.927047
-1243.732023
-1337.375328
-1426.221755
-1510.600528
-1590.797308
-1667.054169
-1739.574175
-1808.528109
-1874.061739
-1936.30264
-0.02725918022
-0.02609435411
-0.01399519848
-0.006022607196
0.0006398342619
0.007263564278
0.0138185262
0.0202527192
0.02659769511
0.03289145789
0.03916261039
0.04543245561
0.05171456168
0.05801299456
0.06432070842
0.0706176155
0.07686791695
0.08301724709
0.08898998092
0.09468614668
0.0999779316
0.1047063243
0.1086778236
0.1116621209
0.1133908166
0.113557043
0.1118201154