/*--------------------------------*- C++ -*----------------------------------*\
  =========                 |
  \\      /  F ield         | OpenFOAM: The Open Source CFD Toolbox
   \\    /   O peration     | Website:  https://openfoam.org
    \\  /    A nd           | Version:  10
     \\/     M anipulation  |
\*---------------------------------------------------------------------------*/
FoamFile
{
    format      ascii;
    class       volScalarField;
    location    "0.0001";
    object      T;
}
// * * * * * * * * * * * * * * * * * * * * * * * * * * * * * * * * * * * * * //

dimensions      [0 0 0 1 0 0 0];

internalField   nonuniform List<scalar> 
3600
(
300.7305931
300.7832454
300.8936763
301.0700015
301.3237715
301.6705143
302.1303961
302.7290199
303.4983887
304.4780615
305.7165393
307.2729296
309.2189503
311.6413571
314.6449037
318.3559812
322.927128
328.5426565
335.4257021
343.8470597
354.1362142
366.6949651
382.0139562
400.6921816
423.4590789
451.1980646
484.9692638
526.0277514
575.8319884
636.0354724
708.452128
794.9942502
897.5738384
1017.969054
1157.662306
1317.654273
1498.219732
1698.427589
1914.918314
2135.555461
2330.721799
2331.506127
2321.29002
2258.793924
2004.984248
1756.841409
1511.587826
1302.943662
1125.205221
974.2372701
846.7645813
739.9508012
651.2079773
578.1316909
518.4943743
470.2586135
431.5909071
400.8680205
376.6745872
357.7935181
300.7304562
300.7832721
300.8940451
301.0709328
301.3255584
301.6735588
302.135253
302.736451
303.5094279
304.4940939
305.7393946
307.3049897
309.2632703
311.7017955
314.7262554
318.4641034
323.0690433
328.7266138
335.6611707
344.1446294
354.5073727
367.1517361
382.5684008
401.3558072
424.2422698
452.1097474
486.0171471
527.2195991
577.1784414
637.5546
710.1730011
796.9600659
899.8371873
1020.570358
1160.584347
1320.769257
1501.331458
1701.736247
1920.623991
2154.742518
2394.441993
2398.978694
2388.712449
2226.222265
1976.953426
1733.102667
1493.445216
1289.01532
1114.377371
965.7666641
840.1347121
734.7759753
647.1861989
575.0215931
516.1021063
468.428799
430.1995462
399.8166259
375.8853053
357.2050993
300.7301106
300.7832429
300.894677
301.0726515
301.3289304
301.6793623
302.1445633
302.7507454
303.5307133
304.52506
305.7835951
307.3670519
309.3491291
311.8189459
314.8840095
318.6738318
323.3443715
329.0835338
336.1180188
344.721873
355.2271512
368.0371131
383.6423247
402.6398547
425.7553784
453.8673406
488.0313147
529.5012784
579.7427214
640.4296794
713.4114325
800.6516032
904.1138978
1025.589046
1166.467388
1327.501867
1508.708022
1709.793671
1932.158479
2185.921837
2519.073576
2522.842972
2591.827061
2211.534576
1921.663625
1685.624341
1458.508568
1262.060349
1093.266651
949.1848778
827.133078
724.6193423
639.2885186
568.9114514
511.4001765
464.8308511
427.4626659
397.7477596
374.3317361
356.0465928
300.7294157
300.7829963
300.8953655
301.0748766
301.3334944
301.6873699
302.1575449
302.7708067
303.5607185
304.5688511
305.8462517
307.4551901
309.471236
311.9857381
315.1087971
318.9728561
323.7370746
329.5926989
336.7697079
345.5450746
356.2530481
369.2978959
385.1695244
404.4622704
427.8968529
456.3449195
490.8547181
532.6750929
583.2731859
644.3375592
717.7533643
805.5497125
909.7885536
1032.381258
1174.823178
1337.871834
1521.295028
1724.013461
1944.890335
2180.732218
2389.365418
2408.36149
2462.144762
2134.334647
1873.323254
1625.38437
1410.02768
1223.518491
1062.770373
925.1421388
808.2517194
709.8556204
627.799161
560.0155571
504.5492505
459.5846605
423.4693615
394.7273707
372.0624943
354.3536712
300.7281696
300.7822999
300.895813
301.0772031
301.338684
301.696783
302.1730726
302.7950584
303.5972504
304.6224405
305.9232208
307.5637783
309.6220147
312.1920537
315.3872161
319.343573
324.2242238
330.2244922
337.5782977
346.5660227
357.524272
370.8579725
387.0552795
406.7056901
430.5215531
459.3627356
494.2634618
536.4591657
587.4094937
648.8095616
722.5795849
810.8281975
915.7596123
1039.502076
1183.82534
1349.720113
1536.892393
1743.671547
1969.838557
2234.950163
2242.815869
2279.544254
2240.43687
2011.963251
1778.852436
1548.219146
1348.309842
1174.503132
1023.980171
894.5402077
784.1960382
691.0243834
613.1263314
548.6407583
495.7789782
452.8614988
418.346947
390.8497683
369.147165
352.177444
300.7261192
300.7808619
300.8956452
301.0791206
301.3437843
301.7065931
302.1897256
302.8215101
303.6375407
304.6820083
306.0092739
307.6857182
309.7919072
312.4251279
315.7023596
319.7637737
324.7768871
330.9415356
338.4958966
347.7238545
358.9640851
372.6213054
389.1801908
409.222451
433.4474438
462.696404
497.9797895
540.5062692
591.7103479
653.2722617
727.1246162
815.4357106
920.5463746
1044.831927
1190.428091
1358.669467
1548.84583
1754.650584
1951.620697
2096.128968
2146.192677
2238.868211
2074.320582
1880.456852
1656.605631
1454.791286
1275.232221
1116.863157
978.4195575
858.5633082
755.866408
668.8041312
595.7793328
535.1685161
485.3745531
444.8741582
412.2537964
386.2324527
365.6725838
349.5817863
300.7229731
300.7783454
300.8944283
301.0800362
301.3479639
301.7156256
302.2058486
302.8478419
303.6783621
304.7431002
306.0983132
307.8127296
309.9697615
312.6700635
316.0344902
320.2075237
325.3612693
331.700157
339.4665395
348.9474469
360.4828403
374.475794
391.4051181
411.8409762
436.4640156
466.0883468
501.6882717
544.427856
595.6910815
657.1086004
730.5797839
818.2749123
922.6092557
1046.173616
1191.58756
1361.141009
1555.57866
1768.702622
1950.806605
1959.284441
2007.215882
2021.929776
1890.078076
1708.173559
1525.427254
1352.925578
1195.067321
1053.360633
928.0236599
818.6166126
724.3002845
643.9671714
576.3354651
520.0311112
473.6596992
435.8647844
405.3706255
381.0098559
361.7383383
346.640107
300.7184172
300.7743858
300.8916907
301.0793026
301.3503123
301.7225926
302.2196238
302.8715044
303.7161664
304.8008171
306.1836287
307.9356974
310.1432963
312.9104481
316.3618548
320.6462291
325.940098
332.4521799
340.428484
350.1583473
361.9817053
376.2979907
393.5771519
414.3733647
439.3420315
469.2605587
505.0530714
547.8185129
598.8603151
659.7158257
732.1886376
818.3610088
920.5988086
1041.564183
1184.317839
1352.818354
1554.087385
1807.935121
1843.402456
1850.17962
1905.472505
1821.799033
1694.228481
1547.671116
1396.382285
1249.511191
1112.150422
986.8805891
874.81098
776.1611295
690.5768643
617.3196963
555.4004172
503.6846234
460.9778451
426.0915668
397.8909889
375.326516
357.4518499
343.4318034
300.712131
300.7686094
300.8869459
301.0762486
301.3498822
301.7261506
302.2291529
302.8898328
303.7472412
304.8500295
306.2581913
308.0450681
310.2996327
313.1290629
316.6616223
321.0498696
326.4742326
333.1470088
341.3168951
351.2742067
363.3570246
377.9586101
395.5365302
416.6240373
441.8443013
471.9280384
507.7347904
550.2774164
600.7480628
660.5445507
731.3054438
814.9157776
913.5091819
1029.476903
1165.541783
1324.991206
1511.892177
1728.49853
1734.79561
1744.937727
1729.614667
1637.199128
1525.746597
1402.198215
1274.438866
1148.835477
1029.745243
919.8448798
820.5853756
732.553126
655.7236439
589.6434958
533.5699213
486.5827381
447.6737652
415.8156509
390.0118505
369.3302431
352.923411
340.0386582
300.7038062
300.7606539
300.8797177
301.0702125
301.3457351
301.7249649
302.2325454
302.9001692
303.7678803
304.885612
306.3149721
308.1312821
310.4258772
313.3086617
316.9109178
321.3883616
326.9244494
333.7339514
342.066845
352.2126269
364.5052153
379.3287081
397.1243683
418.3993024
443.7373698
473.8128266
509.4069243
551.4269422
600.9256613
659.1195213
727.4189638
807.4121212
900.8349823
1009.522635
1135.390707
1280.596024
1448.226217
1644.504254
1646.12359
1666.227126
1571.975831
1478.197042
1377.461193
1270.488351
1160.996945
1053.039199
949.9367357
854.0384933
766.8006921
688.9510868
620.6534291
561.6525968
511.3992326
469.1548507
434.0776559
405.2894583
381.9249803
363.1657774
348.2615168
336.5414171
300.6931638
300.750188
300.8695658
301.0605763
301.3369886
301.7177742
302.2280102
302.8999903
303.7745597
304.9026862
306.3472746
308.1852255
310.5097306
313.4327879
317.0879104
321.6329975
327.2533326
334.1646845
342.6165066
352.8952676
365.3280088
380.2863116
398.1909567
419.5176219
444.8040235
474.6589081
509.7729983
550.9311793
599.02345
655.0517736
720.1489948
795.5307385
882.4116888
981.8482319
1094.499957
1220.35073
1358.517209
1508.688052
1509.916374
1510.436033
1419.151144
1332.514722
1243.066935
1150.192551
1055.928932
963.0077125
873.9440204
790.6884099
714.5583772
646.290547
586.1364536
533.9686604
489.3830093
451.790144
420.4927517
394.7471655
373.8097016
356.9693106
343.5687618
333.0167391
300.6799719
300.7369319
300.8561102
301.0467987
301.3228618
301.703456
302.2139461
302.8870337
303.7641131
304.8968611
306.3490647
308.1986788
310.540095
313.4865889
317.1729007
321.757886
327.4271701
334.3957335
342.9103718
353.251994
365.7377588
380.7231539
398.6042222
419.8201268
444.8562168
474.2478817
508.5851619
548.5172322
594.7539237
648.0607607
709.261466
779.1572334
858.3839889
947.1291674
1044.598033
1147.992896
1249.260725
1332.187902
1332.405562
1322.281106
1266.842404
1195.770123
1119.370883
1039.66915
958.8260156
879.0849892
802.4757435
730.6209632
664.6675653
605.3000886
552.7979492
507.1118701
467.9446789
434.8275713
407.1866949
384.3976191
365.8272516
350.8640955
338.938479
329.5346602
300.6640604
300.7206741
300.8390546
301.0284464
301.302719
301.6810861
302.1890256
302.8594152
303.7338945
304.8644586
306.3152788
308.1647369
310.5076418
313.4575811
317.1493411
321.7413069
327.4177388
334.3908066
342.9022798
353.2247817
365.6624533
380.5510624
398.2577625
419.1806231
443.747452
472.4142495
505.6630773
543.9984152
587.9398987
638.0076059
694.705954
758.4194734
829.2302491
906.5640833
988.5077518
1070.154059
1140.043424
1175.949288
1175.930016
1171.335607
1128.502596
1070.249659
1005.963403
938.2981113
869.4654748
801.4521356
735.9735191
674.3986493
617.7141412
566.5319849
521.1286083
481.5015405
447.4327323
418.5506821
394.38628
374.4196137
358.1168066
344.9572328
334.452215
326.1566506
300.6453343
300.7012871
300.8182049
301.0052201
301.2761066
301.6499915
302.1522691
302.8157311
303.6819203
304.8027087
306.2420917
308.0781734
310.4053053
313.3363124
317.0047214
321.5668839
327.2038513
334.1228207
342.5580286
352.7710565
365.0500031
379.7074878
397.0777856
417.5141422
441.3831908
469.0580873
500.9096644
537.2941538
578.5383868
624.9229756
676.6466639
733.712992
795.7391577
861.6209033
928.8654458
992.4607366
1043.498444
1059.115652
1058.809029
1043.568604
1004.958806
956.5056243
902.7594475
845.8575142
787.7722245
730.2407386
674.7307132
622.4064496
574.1141071
530.3915388
491.4987015
457.4614251
428.1213366
403.1859948
382.2749673
364.9592736
350.7930793
339.3376223
330.1780601
322.9342954
300.6237828
300.6787379
300.7934848
300.9769756
301.2427822
301.6097911
302.1031019
302.7551387
303.6069796
304.7099014
306.1271241
307.9357234
310.2286644
313.1168758
316.731253
321.224484
326.772538
333.5754711
341.8573629
351.8661329
363.8712944
378.1597223
395.0283612
414.7832503
437.7280664
464.1526726
494.3188756
528.4402794
566.6492479
609.0088739
655.4510459
705.6559052
758.8880629
813.7777101
867.7479435
916.3397635
952.1048953
962.5581694
962.1562557
930.0809686
892.7725851
853.8827807
809.5448407
762.2254661
713.7236298
665.5429647
618.936678
574.8964933
534.1475657
497.159453
464.1712947
435.2266845
410.2134177
388.9038511
370.9925745
356.1292229
343.9453296
334.0750005
326.1697987
319.9085864
300.5994848
300.6530951
300.7649446
300.9437373
301.202734
301.5604231
302.0413921
302.6774077
303.5087058
304.5854841
305.9695756
307.7362627
309.9761824
312.7972329
316.3263023
320.7107592
326.1197324
332.7442706
340.7952507
350.5044842
362.1211355
375.9076016
392.1145276
411.0017592
432.8099906
457.747093
485.9694425
517.5580461
552.4920594
590.6396995
631.6730186
675.0040456
719.687237
764.3437086
806.5014212
842.8676223
868.6721577
877.180532
877.1076931
832.7086484
795.660473
762.9276248
726.3248514
687.3410784
647.2950804
607.3955911
568.6869037
532.0077696
497.9783454
467.0075647
439.3134708
414.9512763
393.8452182
375.821049
360.63668
348.0092437
337.6375957
329.2199449
322.4668046
317.1097762
300.5726096
300.6245305
300.7327647
300.9057031
301.1561889
301.5021558
301.9674647
302.5829395
303.3876019
304.4300952
305.7702707
307.4808711
309.6492804
312.3793137
315.7925712
320.0292921
325.2502162
331.6370871
339.3826667
348.7002261
359.8140173
372.9519608
388.3351379
406.1723136
426.6432422
449.8808563
475.949812
504.8208109
536.3420246
570.2332764
605.9717973
642.7611335
679.4596847
714.515028
745.867989
771.2357796
788.4220216
799.6578095
799.6974188
744.5553577
710.2681204
682.757686
652.7841045
621.0428152
588.391209
555.7526758
523.9790171
493.7737343
465.6656641
440.0104768
417.006186
396.7156074
379.0919252
364.0048349
351.2653828
340.648149
331.9099459
324.8046994
319.0945801
314.5577261
300.5434137
300.5933163
300.697253
300.8632421
301.1036076
301.4355803
301.8820911
302.472752
303.2450183
304.2455294
305.5316122
307.1727832
309.2522265
311.8688233
315.1381409
319.1905422
324.1761042
330.2611976
337.6252631
346.4600245
356.9633252
369.3313595
383.7489594
400.3784557
419.3439991
440.7127233
464.472154
490.5029473
518.5701467
548.2729316
578.9595458
609.6976517
639.2077434
665.7894604
687.2269873
700.6658059
702.0814148
707.5399501
708.6463434
666.8238319
636.2211661
612.9453598
588.5927464
563.0826313
536.8202134
510.4680329
484.708324
460.1268995
437.1731536
416.1557686
397.2538537
380.5347043
365.9742417
353.4779904
342.9011372
334.0666174
326.7805447
320.8446638
316.0658191
312.2626594
300.5122338
300.5598173
300.6588359
300.8168822
301.0456682
301.3615855
301.7864513
302.3484286
303.0830874
304.0346319
305.2574262
306.8172903
308.7918692
311.2736229
314.3696577
318.2018697
322.907615
328.6380005
335.5551679
343.8288814
353.6305768
365.1253467
378.4617917
393.7594869
411.0933155
430.4747345
451.8297903
474.9764755
499.633814
525.30918
551.2900248
576.5973485
599.9321257
619.6037998
633.3780944
638.0016931
633.8893015
632.2928086
631.6399546
614.5188978
573.6812082
552.9059927
533.2712916
513.0851243
492.2736505
471.2864043
450.6681617
430.9054305
412.3786739
395.3547116
379.9945264
366.3671375
354.4658086
344.2247829
335.5353979
328.2607472
322.2483285
317.3403819
313.3818682
310.2262253
300.4794764
300.5244804
300.6180442
300.7672899
300.9832363
301.2813148
301.6820694
302.2120316
302.9046395
303.8011324
304.9522135
306.4189378
308.2737319
310.6017028
313.501074
317.0832577
321.4724382
326.8039083
333.2212025
340.871882
349.9013911
360.4448859
372.6169046
386.4986792
402.122857
419.4555768
438.3758055
458.6925474
480.0531981
501.9382165
523.6314146
544.1934816
562.4482518
576.9977768
586.2850153
588.6545152
586.8255395
576.6516188
536.7226535
533.0428502
514.4783816
500.6479427
486.0373553
470.5280125
454.3237744
437.8469543
421.558035
405.8642466
391.0866403
377.4544557
365.1110614
354.1247205
344.5013036
336.1975275
329.1338111
323.2060846
318.296083
314.2798613
311.0344563
308.4427745
300.445606
300.4878182
300.5754871
300.7152333
300.9173211
301.1961119
301.5707198
302.0657495
302.7121496
303.5481618
304.6204429
305.9850269
307.7082385
309.8674926
312.5516425
315.8608304
319.9056494
324.8052855
330.684453
337.668897
345.8791702
355.4225188
366.3827534
378.8080139
392.6963847
407.9794016
424.5327824
442.1171219
460.3628269
478.7536271
496.6076655
513.0694532
527.1285079
537.7012705
543.8536722
545.5039198
542.2169531
520.3743586
479.1685416
478.6639147
466.4468841
457.1518446
446.5433864
434.8679935
422.4547845
409.7014818
397.0002368
384.6910675
373.0431248
362.2517445
352.4431576
343.6827534
335.9849292
329.3234601
323.6416731
318.8618867
314.893724
311.6410672
309.0075676
306.9007524
300.4111193
300.4503674
300.5317983
300.6614768
300.8488465
301.1071371
301.4539159
301.9117497
302.5089671
303.2805017
304.2687894
305.5246067
307.1078069
309.0878536
311.5439752
314.5648001
318.2472801
322.6946708
328.0133581
334.3083174
341.6770053
350.2015443
359.9391324
370.9106787
383.0877638
396.397882
410.6861126
425.6977634
441.0669863
456.3018653
470.7739444
483.717767
494.249012
501.4111269
504.2516354
501.7305436
489.6557919
466.0658336
437.972467
436.9140851
427.8998346
421.6351696
414.0614971
405.4283631
396.0690013
386.3368571
376.5618695
367.0258894
357.9527993
349.5075094
341.7997518
334.8903779
328.7989119
323.5115973
318.9893795
315.1753885
312.0015952
309.3944395
307.2793429
305.58412
300.3764188
300.4125775
300.4875141
300.6067264
300.778806
301.0157911
301.3336416
301.7528155
302.2989312
303.003486
303.9045934
305.0476664
306.4859779
308.2809938
310.5023456
313.227292
316.5394953
320.5269205
325.278665
330.880542
337.4092672
344.925161
353.4633567
363.0236016
373.5720806
385.0158082
397.1864628
409.8317833
422.6035632
435.0481061
446.6012566
456.590842
464.2485399
468.7261599
469.0790877
464.0553135
451.8717125
435.3237808
413.9150182
400.4103202
396.7189526
392.9297987
387.7180606
381.4697775
374.5280066
367.2058613
359.779658
352.4815275
345.4961517
338.9613144
332.9710656
327.5805208
322.8116089
318.6592589
315.0976058
312.0858661
309.5736174
307.5053074
305.8239105
304.4737284
300.3419226
300.3749185
300.4432236
300.5517668
300.7082752
300.9235751
301.2119968
301.5918683
302.0860758
302.7226629
303.5354282
304.5644603
305.8565387
307.4653053
309.4510873
311.8802362
314.8238291
318.3555678
322.5487168
327.471939
333.1839254
339.7267776
347.1181917
355.3514266
364.3776103
374.0920753
384.327326
394.8432727
405.3191318
415.3482715
424.4376822
432.0140765
437.438443
440.0297595
439.0992297
434.0659183
424.9744957
413.4135738
397.0296091
372.5243679
372.354288
370.2121557
366.7109952
362.2655951
357.1916924
351.7551625
346.1826355
340.6625741
335.3453806
330.3446275
325.7396062
321.5789298
317.884853
314.6579731
311.8820008
309.5283251
307.5601552
305.9360931
304.6130629
303.5485821
300.3080555
300.3378726
300.3995297
300.4973976
300.6383473
300.8320025
301.0910812
301.4318092
301.8743859
302.4434729
303.168667
304.0849029
305.2327183
306.6582944
308.4131693
310.553503
313.1387646
316.2297042
319.8854837
324.1598601
329.0963599
334.7224439
341.0487005
348.0561557
355.6856112
363.8315617
372.3341445
380.9721896
389.4583035
397.4371507
404.488388
410.1360919
413.8671363
415.1627239
413.555075
408.7435183
400.6547676
389.3406203
374.0471537
353.9733385
353.9489877
352.6153793
350.2433848
347.1040744
343.4353812
339.4446798
335.3102554
331.1812947
327.1779495
323.3921935
319.8896006
316.7119225
313.880255
311.3985493
309.2572283
307.436687
305.9105023
304.6482304
303.6177233
302.786948
300.2752261
300.3019052
300.3570154
300.4443907
300.5700725
300.7425183
300.972885
301.2753696
301.6675885
302.170967
302.8111035
303.6180593
304.6265113
305.8756944
307.4090408
309.2734162
311.5178437
314.1916059
317.3416276
321.009071
325.2251078
330.0099792
335.3635797
341.2577347
347.6308961
354.381508
361.3620118
368.3741844
375.1666538
381.4356044
386.8298796
390.9619481
393.4266005
393.82994
391.8316448
387.1885811
379.761801
369.500449
356.2269673
340.0344605
340.0151923
339.1347942
337.5081345
335.2970287
332.6648436
329.7632846
326.7268743
323.6703178
320.6874201
317.8511409
315.2145687
312.812624
310.6642936
308.7751931
307.1402595
305.7463959
304.5749248
303.603749
302.8091607
302.1672784
300.243807
300.2674419
300.3162141
300.3934513
300.5044066
300.6564296
300.8591964
301.1249863
301.4689836
301.9095817
302.4686548
303.1717535
304.0481713
305.1308154
306.455807
308.0617247
309.9884054
312.2752155
314.958721
318.0697254
321.6325063
325.6576572
330.1368981
335.0385503
340.3021657
345.8334379
351.4999011
357.1280383
362.5025253
367.3684374
371.4373255
374.3981302
375.9338663
375.7445955
373.5752064
369.2408482
362.6403335
353.7520035
342.6217413
329.5065522
329.4910816
328.8931782
327.7682057
326.2129397
324.3355949
322.2429343
320.0331809
317.7921761
315.591471
313.487708
311.5229355
309.7256172
308.112137
306.6886166
305.45288
304.3964187
303.5062385
302.7665061
302.1599416
301.6689382
300.2141189
300.2348492
300.2775857
300.3451865
300.4421698
300.5748518
300.751531
300.9827081
301.281322
301.662981
302.1461581
302.752312
303.5058895
304.4341505
305.5667564
306.9350505
308.5709635
310.5054785
312.7665879
315.3788397
318.3578287
321.7069775
325.4138076
329.4457116
333.7457615
338.2289107
342.779036
347.2473519
351.4527945
355.1850085
358.2105692
360.2829863
361.1567932
360.6054193
358.4412459
354.5342535
348.8254596
341.3354405
332.1770973
321.597031
321.5846415
321.1731793
320.3917299
319.2994617
317.9673006
316.4687743
314.8739303
313.2455707
311.6371169
310.0916389
308.6417371
307.3100541
306.1102346
305.0481771
304.1234354
303.3306532
302.6609331
302.103072
301.6446191
301.2727353
300.1864191
300.2044218
300.2415008
300.3000849
300.3840192
300.498673
300.6510859
300.8501384
301.1067338
301.4339682
301.8472651
302.36444
303.005657
303.7932306
304.7512224
305.9047795
307.2791634
308.8984366
310.7850957
312.9560575
315.4207454
318.1781427
321.2135678
324.4953428
327.9715949
331.5675009
335.1833582
338.6939193
341.949459
344.7790424
346.9964039
348.4087055
348.8281662
348.0860685
346.0479077
342.6277211
337.7998003
331.6075937
324.171396
315.6940106
315.6841458
315.399401
314.8558431
314.0904749
313.149764
312.0837591
310.9415971
309.7683958
308.6033007
307.4784425
306.4185963
305.4413724
304.557794
303.7731315
303.0878817
302.4987955
301.9998767
301.5832955
301.2401807
300.9612701
300.1608953
300.1763756
300.2082311
300.2585049
300.3304348
300.4285373
300.55872
300.7284129
300.9467044
301.2244634
301.5744263
302.0112202
302.5512908
303.2126968
304.014731
304.9773256
306.1203407
307.4630085
309.0214607
310.8073876
312.8258963
315.07312
317.5336604
320.1780115
322.9601718
325.8157085
328.6605893
331.3911295
333.8854128
336.0065167
337.6077932
338.5403051
338.6622717
337.8500207
336.0095095
333.0871223
329.0784557
324.0341356
318.0616416
311.3203666
311.3125657
311.1152322
310.7374578
310.202804
309.541802
308.7882982
307.9763584
307.1379274
306.3012333
305.48984
304.7222341
304.0118342
303.367313
302.7931383
302.2902414
301.8567408
301.4886596
301.1805913
300.9262835
300.7191245
300.1376642
300.150846
300.1779484
300.2206729
300.2817184
300.3648443
300.4749571
300.6182082
300.8020938
301.0355396
301.3289518
301.6942124
302.1445916
302.6945452
303.3593724
304.1548777
305.0967257
306.1991498
307.4738773
308.9286711
310.5656142
312.3792106
314.3543922
316.464564
318.6698624
320.9158451
323.1328634
325.2363897
327.1285619
328.7011722
329.8402388
330.4321639
330.3712733
329.568277
327.9588995
325.5117002
322.2340085
318.1748901
313.4239378
308.1044094
308.0982847
307.9616721
307.6997411
307.3276888
306.8656374
306.3363835
305.7633369
305.1688497
304.572999
303.9928061
303.4418396
302.9301353
302.4643614
302.0481567
301.682579
301.366606
301.0976423
300.8719982
300.6853138
300.5329177
300.1167743
300.1278907
300.1507281
300.1866897
300.2380023
300.307764
300.4000084
300.5197768
300.6731895
300.8675018
301.1111297
301.4136275
301.785596
302.2384853
302.7844807
303.4359116
304.2046213
305.101197
306.1339679
307.307816
308.622811
310.0727248
311.6435039
313.3118139
315.0437996
316.7942373
318.5062768
320.1119766
321.5338222
322.6873732
323.4851057
323.841396
323.6784274
322.932611
321.5609088
319.5462877
316.9014462
313.6699452
309.9239512
305.758117
305.7533428
305.6590162
305.4780418
305.2203043
304.8990939
304.5297161
304.1281438
303.7098622
303.2889816
302.8776329
302.4856275
302.120347
301.7868144
301.4879006
301.2246189
300.9964664
300.8017773
300.6380619
300.5023117
300.391259
300.0982115
300.1074971
300.1265586
300.1565422
300.1992673
300.2572619
300.3338092
300.4330005
300.5597835
300.719998
300.9203836
301.1685472
301.4728863
301.8425166
302.2868689
302.815385
303.4369916
304.1594411
304.9885012
305.9270022
306.973766
308.122459
309.3604412
310.6677011
312.0159968
313.3683404
314.6789768
315.8940076
316.9527903
317.7902032
318.3397928
318.537722
318.3273117
317.6638216
316.5189838
314.8846932
312.7752213
310.227365
307.2981222
304.0598929
304.0561977
303.9913103
303.866813
303.6891672
303.4671569
303.2110269
302.9316077
302.6395348
302.3446206
302.0554069
301.7788936
301.520428
301.2837259
301.0709935
300.8831174
300.7198941
300.5802727
300.4625921
300.3647971
300.2846243
300.0819083
300.089592
300.1053538
300.1301208
300.1653657
300.2131314
300.2760652
300.3574553
300.461264
300.5921473
300.7554517
300.9572053
301.20404
301.5030074
301.8613733
302.2863051
302.7844473
303.3613853
304.0209977
304.7647054
305.5906408
306.4927756
307.4600657
308.4756874
309.5164591
310.5525558
311.5476282
312.4594348
313.2410745
313.8428691
314.2148835
314.3099942
314.0873183
313.5157127
312.5769647
311.2682339
309.6033065
307.6123029
305.3396683
302.8406109
302.8377707
302.7933343
302.7081141
302.5863428
302.4338229
302.2573886
302.0643411
301.8619274
301.6569065
301.4552274
301.261823
301.0805139
300.9140046
300.7639528
300.6310905
300.5153758
300.4161578
300.3323405
300.2625334
300.2051842
300.0677535
300.0740532
300.0869669
300.1072381
300.1360474
300.1750306
300.2263023
300.2924812
300.3767115
300.4826719
300.614593
300.7771951
300.9756184
301.215297
301.50177
301.8404214
302.2361359
302.6928704
303.2131424
303.7974459
304.4436152
305.1461713
305.8956946
306.6782888
307.4752044
308.2627053
309.0122605
309.6911357
310.2634412
310.6916583
310.938618
310.9698444
310.7561022
310.2759206
309.5178058
308.4818318
307.1803186
305.637394
303.8873939
301.97229
301.9701218
301.9398431
301.8818251
301.7988405
301.6947156
301.573992
301.4415639
301.3023329
301.1609139
301.0214085
300.8872539
300.7611456
300.645023
300.5401078
300.4469797
300.3656755
300.2958002
300.2366381
300.187258
300.1466047
300.055603
300.0607211
300.0712061
300.0876487
300.1109869
300.1425185
300.1839176
300.2372508
300.3049935
300.3900442
300.4956943
300.6256025
300.7837265
300.9742143
301.2012473
301.4688275
301.7805021
302.1390244
302.5459554
303.0012143
303.5025984
304.0452978
304.6214439
305.2197391
305.8252225
306.4192323
306.9796237
307.4812941
307.8970485
308.1988118
308.359155
308.3530569
308.1597718
307.7646271
307.1605415
306.3490502
305.3406521
304.1543695
302.816531
301.3589406
301.3572965
301.3367759
301.2975048
301.2412968
301.1706678
301.0886234
300.9984252
300.9033653
300.8065685
300.7108361
300.6185383
300.5315543
300.4512565
300.3785298
300.3138188
300.2571917
300.208414
300.1670235
300.1324023
300.1038398
300.0452899
300.0494113
300.0578491
300.0710686
300.0898087
300.1150902
300.1482264
300.1908381
300.2448616
300.312544
300.3964307
300.4993337
300.6242729
300.7743858
300.952799
301.1624571
301.405904
301.685019
302.0007091
302.3525679
302.7385168
303.1544494
303.5939114
304.0478497
304.5044752
304.9492805
305.3652562
305.7333388
306.0331082
306.2437331
306.3451304
306.319272
306.1515377
305.8319837
305.3563763
304.7268485
303.9520638
303.0468336
302.0312159
300.9292228
300.9279841
300.9141554
300.8877333
300.8499008
300.8023065
300.7469298
300.685932
300.6215088
300.5557593
300.4905797
300.4275884
300.3680815
300.3130178
300.2630287
300.2184464
300.1793449
300.1455887
300.1168826
300.0928202
300.0729274
300.0366349
300.0399247
300.0466561
300.0571926
300.0721111
300.0922076
300.1185066
300.1522673
300.1949859
300.2483931
300.3144403
300.3952699
300.4931667
300.6104829
300.749535
300.9124675
301.1010826
301.3166355
301.5596008
301.8294155
302.1242139
302.4405711
302.773278
303.115176
303.4570829
303.7878394
304.0945077
304.362741
304.5773354
304.7229547
304.7849992
304.7505645
304.6094119
304.3548564
303.9844676
303.500488
302.9099012
302.2241212
301.4583378
300.6306068
300.6296795
300.6204146
300.6027471
300.577446
300.5455869
300.5084667
300.4675093
300.424169
300.3798451
300.3358106
300.2931598
300.2527777
300.2153264
300.1812503
300.150792
300.1240196
300.1008568
300.0811173
300.0645363
300.0508001
300.0294543
300.0320579
300.0373823
300.0457092
300.0574852
300.0733276
300.0940272
300.1205526
300.1540513
300.1958453
300.2474178
300.3103877
300.3864689
300.4774097
300.584911
300.7105195
300.8554957
301.0206578
301.2062054
301.4115283
301.6350132
301.8738595
302.1239246
302.3796171
302.6338627
302.8781624
303.1027646
303.2969638
303.4495284
303.5492488
303.5855818
303.5493455
303.4334111
303.2333206
302.9477599
302.5788266
302.1320481
301.6161424
301.0425459
300.4247758
300.424086
300.4179153
300.4061758
300.3893652
300.3681816
300.3434706
300.3161642
300.2872195
300.2575621
300.2280396
300.1993857
300.1721985
300.1469305
300.1238902
300.1032519
300.0850724
300.0693107
300.0558504
300.0445203
300.0351149
300.023567
300.0256103
300.0297867
300.0363127
300.0455324
300.057919
300.0740775
300.0947474
300.1208015
300.1532414
300.1931851
300.241846
300.300499
300.3704328
300.4528856
300.5489619
300.659532
300.7851139
300.9257416
301.0808243
301.2490065
301.4280382
301.6146686
301.8045804
301.9923785
302.1716503
302.3351089
302.4748292
302.5825747
302.6502076
302.6701599
302.6359352
302.5425965
302.3871951
302.1690897
301.8901168
301.5545873
301.1691059
300.7422344
300.2840437
300.2835336
300.2794481
300.271697
300.2606005
300.2466097
300.2302727
300.2121957
300.1930044
300.1733067
300.1536624
300.1345592
300.1163975
300.0994836
300.0840291
300.0701572
300.0579125
300.0472745
300.038171
300.0304925
300.0241055
300.0188005
300.0203909
300.0236401
300.0287137
300.0358735
300.0454796
300.0579913
300.0739685
300.0940698
300.1190477
300.1497384
300.1870438
300.2319049
300.2852639
300.3480142
300.4209371
300.5046257
300.5993959
300.7051896
300.821472
300.947131
301.0803866
301.2187197
301.358832
301.4966488
301.6273739
301.7456066
301.845524
301.921128
301.9665476
301.9763819
301.946058
301.8721747
301.7527982
301.5876773
301.3783524
301.1281437
300.8420171
300.5263454
300.1885939
300.188219
300.1855301
300.1804447
300.1731679
300.1639895
300.1532626
300.1413793
300.1287456
300.1157581
300.1027834
300.0901433
300.0781035
300.0668691
300.0565838
300.0473332
300.0391514
300.0320287
300.0259211
300.0207593
300.016457
300.0149945
300.0162226
300.0187305
300.0226433
300.0281591