/*--------------------------------*- C++ -*----------------------------------*\
  =========                 |
  \\      /  F ield         | OpenFOAM: The Open Source CFD Toolbox
   \\    /   O peration     | Website:  https://openfoam.org
    \\  /    A nd           | Version:  10
     \\/     M anipulation  |
\*---------------------------------------------------------------------------*/
FoamFile
{
    format      ascii;
    class       volVectorField;
    location    "0.0001";
    object      U;
}
// * * * * * * * * * * * * * * * * * * * * * * * * * * * * * * * * * * * * * //

dimensions      [0 1 -1 0 0 0 0];

internalField   nonuniform List<vector> 
3600
(
(0 0.1720089385 -0.0002480374852)
(0 0.173044218 -0.0007397436631)
(0 0.1749819945 -0.00122895823)
(0 0.1779151771 -0.001716308668)
(0 0.1818223282 -0.002202230083)
(0 0.1866960603 -0.002686844377)
(0 0.1925337131 -0.003169905489)
(0 0.1993321479 -0.003650705178)
(0 0.207085845 -0.004127944608)
(0 0.2157859733 -0.004599587137)
(0 0.2254188857 -0.005062693509)
(0 0.2359641228 -0.005513242398)
(0 0.2473920703 -0.005945940575)
(0 0.2596612418 -0.006354028389)
(0 0.2727151696 -0.006729089367)
(0 0.2864789219 -0.00706087581)
(0 0.3008552888 -0.007337166582)
(0 0.3157207255 -0.00754368106)
(0 0.3309211883 -0.007664082798)
(0 0.3462680733 -0.007680111546)
(0 0.3615345373 -0.007571878288)
(0 0.3764525527 -0.007318347178)
(0 0.3907110836 -0.006898008767)
(0 0.4039557551 -0.006289711956)
(0 0.4157902884 -0.00547356726)
(0 0.4257797606 -0.004431744858)
(0 0.4334553692 -0.00314887791)
(0 0.4383197851 -0.00161158101)
(0 0.4398513304 0.0001937179685)
(0 0.4375038569 0.002286216064)
(0 0.4306958862 0.004703007599)
(0 0.4187757565 0.007525101969)
(0 0.4009323478 0.01092974978)
(0 0.3759929278 0.01528880807)
(0 0.3420075233 0.02134126626)
(0 0.2955220414 0.0304085163)
(0 0.2306909321 0.04407041101)
(0 0.1385643428 0.06129880552)
(0 0.005490800016 0.07268520518)
(0 -0.1964870029 0.06216316159)
(0 -0.1429683823 0.04494294414)
(0 -0.1259419934 -0.03424484021)
(0 0.1528069041 -0.01693986607)
(0 0.1640014161 0.06449267418)
(0 0.01788109757 0.07042332277)
(0 -3.058880253e-10 2.052350755e-10)
(0 -3.008225267e-10 5.749000662e-11)
(0 -3.596852652e-10 2.607508414e-12)
(0 -3.441191729e-10 -1.79124639e-11)
(0 -3.035067994e-10 -2.270373014e-11)
(0 -2.592207061e-10 -2.158555926e-11)
(0 -2.189421457e-10 -1.869574648e-11)
(0 -1.846443255e-10 -1.560448827e-11)
(0 -1.562043002e-10 -1.283769568e-11)
(0 -1.328486164e-10 -1.051993651e-11)
(0 -1.136982447e-10 -8.63221106e-12)
(0 -9.795523229e-11 -7.112433906e-12)
(0 -8.495128324e-11 -5.893018808e-12)
(0 -7.414603223e-11 -4.913619407e-12)
(0 -6.510945767e-11 -4.124278094e-12)
(0 0.1706989349 -0.0007408294196)
(0 0.1717209355 -0.00220946352)
(0 0.1736330191 -0.003670593389)
(0 0.1765273782 -0.005126043463)
(0 0.1803824364 -0.00657707438)
(0 0.1851905386 -0.00802402718)
(0 0.1909486902 -0.009466159717)
(0 0.197653432 -0.01090136393)
(0 0.2052989852 -0.01232578123)
(0 0.2138763615 -0.01373336244)
(0 0.2233719032 -0.01511537739)
(0 0.2337653404 -0.01645988078)
(0 0.2450275084 -0.01775114539)
(0 0.2571176956 -0.01896907964)
(0 0.2699806066 -0.0200886546)
(0 0.2835429528 -0.02107937644)
(0 0.297709709 -0.02190485581)
(0 0.3123601099 -0.02252254431)
(0 0.3273435053 -0.02288372764)
(0 0.3424752579 -0.02293387829)
(0 0.357532933 -0.02261347312)
(0 0.3722530936 -0.02185936142)
(0 0.3863290609 -0.0206067119)
(0 0.3994099992 -0.01879146218)
(0 0.41110164 -0.01635303362)
(0 0.4209688231 -0.01323688957)
(0 0.4285399363 -0.009396325071)
(0 0.4333132558 -0.004792619315)
(0 0.4347655203 0.0006077576314)
(0 0.4323642447 0.006841507621)
(0 0.4255863133 0.01396876166)
(0 0.4139481857 0.0221188748)
(0 0.3970522464 0.03159073893)
(0 0.3746663217 0.04306402111)
(0 0.3468370573 0.05803122874)
(0 0.3136894699 0.07949832391)
(0 0.273809754 0.1118061132)
(0 0.2222876684 0.1547485945)
(0 0.1559486442 0.1905266318)
(0 0.08034736157 0.186871228)
(0 -0.1419594379 0.1397155403)
(0 -0.0004848032188 -0.4064651302)
(0 0.1855178544 -0.5158899424)
(0 0.05196629075 0.08516386546)
(0 0.01487764963 0.1703149229)
(0 -3.326489474e-10 7.487583795e-10)
(0 -4.536456098e-10 1.300301232e-10)
(0 -4.35088209e-10 -2.65834762e-11)
(0 -3.694308456e-10 -6.946199261e-11)
(0 -3.071802086e-10 -7.401725129e-11)
(0 -2.552129478e-10 -6.65254384e-11)
(0 -2.129612484e-10 -5.628617266e-11)
(0 -1.78786407e-10 -4.648678955e-11)
(0 -1.511198482e-10 -3.806206021e-11)
(0 -1.286432229e-10 -3.112795121e-11)
(0 -1.102908278e-10 -2.55270451e-11)
(0 -9.521610346e-11 -2.103545452e-11)
(0 -8.275251778e-11 -1.743765026e-11)
(0 -7.237734778e-11 -1.454950762e-11)
(0 -6.368092969e-11 -1.222155961e-11)
(0 0.1680969166 -0.00122386106)
(0 0.1690926576 -0.003650133458)
(0 0.1709539361 -0.006063803834)
(0 0.1737714994 -0.008467706831)
(0 0.1775234774 -0.01086379101)
(0 0.1822016625 -0.01325254379)
(0 0.1878023777 -0.01563271989)
(0 0.1943215115 -0.01800086848)
(0 0.2017527555 -0.02035069231)
(0 0.2100867921 -0.02267231727)
(0 0.2193099231 -0.02495148106)
(0 0.2294022259 -0.02716865312)
(0 0.2403353859 -0.02929810372)
(0 0.2520701748 -0.03130694675)
(0 0.2645535578 -0.03315419256)
(0 0.2777154357 -0.03478986546)
(0 0.2914650452 -0.03615426563)
(0 0.3056870701 -0.03717748533)
(0 0.3202375489 -0.0377793193)
(0 0.3349397163 -0.03786973056)
(0 0.349579969 -0.03735003741)
(0 0.3639041968 -0.03611495911)
(0 0.3776147633 -0.03405557909)
(0 0.3903684397 -0.03106314563)
(0 0.4017755839 -0.02703344076)
(0 0.4114008253 -0.02187128933)
(0 0.4187656323 -0.01549474098)
(0 0.4233535859 -0.007838763111)
(0 0.4246206892 0.001141011508)
(0 0.4220168931 0.01146302118)
(0 0.4150314537 0.02311153065)
(0 0.403290008 0.03602637301)
(0 0.3867581578 0.05010327129)
(0 0.3661966868 0.0652481595)
(0 0.3441050824 0.0816081914)
(0 0.3257442106 0.1001595815)
(0 0.3179757314 0.1230725032)
(0 0.3315980475 0.1503029496)
(0 0.4257134449 0.1698874613)
(0 0.8222610452 0.1454137095)
(0 0.4229109228 -0.1109874049)
(0 -0.0270914547 -0.1951643898)
(0 -0.2521769087 -0.1688138981)
(0 -0.2622784961 0.03228862214)
(0 -0.01305748331 0.1341185563)
(0 -4.703041115e-10 8.673575525e-11)
(0 -9.557105037e-10 -1.429528919e-10)
(0 -5.591773808e-10 -1.699682363e-10)
(0 -3.91552948e-10 -1.593347736e-10)
(0 -3.005702452e-10 -1.373778333e-10)
(0 -2.414896275e-10 -1.142127664e-10)
(0 -1.989034969e-10 -9.343670753e-11)
(0 -1.66420213e-10 -7.599441864e-11)
(0 -1.408454618e-10 -6.179579342e-11)
(0 -1.203136013e-10 -5.040275854e-11)
(0 -1.03605748e-10 -4.131254122e-11)
(0 -8.986583745e-11 -3.406465563e-11)
(0 -7.846533634e-11 -2.82726062e-11)
(0 -6.892994158e-11 -2.362519058e-11)
(0 -6.089533345e-11 -1.987703449e-11)
(0 0.1642384611 -0.001690874321)
(0 0.1651955552 -0.005043115539)
(0 0.1669820697 -0.008377497221)
(0 0.1696865537 -0.01169754614)
(0 0.1732866558 -0.01500567023)
(0 0.1777732989 -0.0183023845)
(0 0.1831417504 -0.02158592984)
(0 0.1893868932 -0.02485160624)
(0 0.1965015977 -0.02809087392)
(0 0.2044760184 -0.03129033578)
(0 0.2132963442 -0.03443061545)
(0 0.2229430963 -0.03748514712)
(0 0.2333891225 -0.0404188995)
(0 0.244597265 -0.04318706255)
(0 0.25651768 -0.04573374017)
(0 0.2690848091 -0.04799071511)
(0 0.2822140047 -0.04987638434)
(0 0.2957978338 -0.05129500148)
(0 0.309702102 -0.05213640172)
(0 0.3237616741 -0.05227641362)
(0 0.3377762014 -0.05157816855)
(0 0.3515058931 -0.0498944842)
(0 0.364667498 -0.04707140559)
(0 0.3769306688 -0.04295282756)
(0 0.3879148573 -0.03738593372)
(0 0.3971868284 -0.0302270926)
(0 0.4042589186 -0.02134808082)
(0 0.4085884114 -0.0106435654)
(0 0.4095795781 0.001956730532)
(0 0.4065931648 0.01646305151)
(0 0.39897379 0.03277216785)
(0 0.3861213864 0.05055967836)
(0 0.367662371 0.06908532096)
(0 0.3438873402 0.08688024756)
(0 0.3167596736 0.1013296475)
(0 0.2910885429 0.108373202)
(0 0.2734148721 0.1032440111)
(0 0.2766074539 0.08509942024)
(0 0.380401698 0.0698785547)
(0 0.8816068141 0.1339844662)
(0 0.078880848 0.45845104)
(0 -0.5201195787 0.7263599934)
(0 -0.2679924163 0.2750232713)
(0 -0.1574794231 -0.2448595784)
(0 -3.316015328e-10 -7.547497945e-10)
(0 -7.166224107e-10 -9.695558399e-10)
(0 -6.154958301e-10 -5.25687326e-10)
(0 -4.514700906e-10 -3.512189563e-10)
(0 -3.368404425e-10 -2.605310336e-10)
(0 -2.620582013e-10 -2.019465419e-10)
(0 -2.11271822e-10 -1.595110877e-10)
(0 -1.747429006e-10 -1.272534761e-10)
(0 -1.471454929e-10 -1.022583831e-10)
(0 -1.255281881e-10 -8.27239324e-11)
(0 -1.081599707e-10 -6.737475162e-11)
(0 -9.395272486e-11 -5.525570675e-11)
(0 -8.217616845e-11 -4.563801776e-11)
(0 -7.231305274e-11 -3.796292838e-11)
(0 -6.398177606e-11 -3.180161426e-11)
(0 -5.68923947e-11 -2.682472957e-11)
(0 0.1591760441 -0.002135983285)
(0 0.1600829938 -0.006370862612)
(0 0.1617725096 -0.01058235702)
(0 0.1643301493 -0.01477422737)
(0 0.1677328371 -0.0189490205)
(0 0.1719702614 -0.0231071207)
(0 0.1770362245 -0.02724624964)
(0 0.1829242249 -0.03136059378)
(0 0.1896259966 -0.03543964051)
(0 0.1971309348 -0.03946687536)
(0 0.2054249924 -0.04341836239)
(0 0.2144891476 -0.04726122693)
(0 0.2242975999 -0.05095206334)
(0 0.2348156761 -0.05443529599)
(0 0.2459974263 -0.05764153649)
(0 0.2577828982 -0.0604860069)
(0 0.270095076 -0.06286713432)
(0 0.282836474 -0.06466546559)
(0 0.2958853789 -0.06574309485)
(0 0.3090917517 -0.06594383023)
(0 0.3222728082 -0.0650943332)
(0 0.3352083021 -0.06300642377)
(0 0.3476355399 -0.05948063392)
(0 0.3592441375 -0.05431090185)
(0 0.3696704496 -0.04729006915)
(0 0.3784914358 -0.03821570876)
(0 0.3852174262 -0.02689605592)
(0 0.389282698 -0.01315708053)
(0 0.3900321039 0.003145055663)
(0 0.3867012225 0.0220953129)
(0 0.3783854165 0.04365217611)
(0 0.3639947288 0.06750073458)
(0 0.3421893012 0.09276759367)
(0 0.3113413237 0.1175230724)
(0 0.2696517553 0.1380307773)
(0 0.2150492129 0.1480771851)
(0 0.142917506 0.1403038554)
(0 0.0433819758 0.1144098566)
(0 -0.06958128035 0.09148535028)
(0 -0.2121947696 0.1786254)
(0 -0.2409089289 0.5341272305)
(0 -0.4550783219 0.6260106408)
(0 0.1177824367 -0.2911540576)
(0 0.03053048537 -0.4369221152)
(0 -3.21694153e-10 -1.54026757e-09)
(0 -3.022211843e-10 -9.247077161e-10)
(0 -3.373736222e-10 -6.356827081e-10)
(0 -2.940210884e-10 -4.484963498e-10)
(0 -2.422805336e-10 -3.296238641e-10)
(0 -1.995502993e-10 -2.503662143e-10)
(0 -1.667965617e-10 -1.946315653e-10)
(0 -1.416507922e-10 -1.538077274e-10)
(0 -1.218906693e-10 -1.230617046e-10)
(0 -1.059618304e-10 -9.946679837e-11)
(0 -9.284537564e-11 -8.111661008e-11)
(0 -8.186901411e-11 -6.669751948e-11)
(0 -7.257305908e-11 -5.526878222e-11)
(0 -6.462893285e-11 -4.613947345e-11)
(0 -5.779174277e-11 -3.879360994e-11)
(0 -5.187264547e-11 -3.28413394e-11)
(0 0.1529779906 -0.002553821103)
(0 0.1538244878 -0.007617347432)
(0 0.1553970596 -0.01265153736)
(0 0.1577774206 -0.01765977374)
(0 0.1609414442 -0.02264433277)
(0 0.1648771495 -0.02760528308)
(0 0.1695764219 -0.03253984132)
(0 0.1750309727 -0.03744126667)
(0 0.181231067 -0.04229741448)
(0 0.1881650832 -0.04708914666)
(0 0.1958185636 -0.05178863001)
(0 0.2041728653 -0.05635754221)
(0 0.2132035823 -0.06074520401)
(0 0.2228787285 -0.06488665801)
(0 0.2331566628 -0.06870073018)
(0 0.2439837371 -0.07208813733)
(0 0.2552916371 -0.07492974211)
(0 0.2669943751 -0.07708510146)
(0 0.2789848867 -0.07839150052)
(0 0.2911311782 -0.07866369882)
(0 0.3032719592 -0.07769462289)
(0 0.3152116864 -0.07525719274)
(0 0.3267149313 -0.07110734228)
(0 0.3374999656 -0.06498806243)
(0 0.3472313758 -0.05663397674)
(0 0.3555113285 -0.04577563188)
(0 0.361868646 -0.03214258172)
(0 0.3657437619 -0.01546493445)
(0 0.3664655168 0.004524825668)
(0 0.3632115449 0.02808284858)
(0 0.3549355497 0.05542080232)
(0 0.3402346844 0.08661539153)
(0 0.3171043679 0.1214086091)
(0 0.2825452507 0.158814282)
(0 0.232155523 0.1964294194)
(0 0.1598504253 0.2297293329)
(0 0.05610128894 0.2530319445)
(0 -0.09976262569 0.2652156499)
(0 -0.2930918555 0.2708216046)
(0 -0.2405837223 0.3236544402)
(0 -0.4663495047 0.5820898174)
(0 0.106398695 0.3344902886)
(0 0.4750318889 -0.4757390419)
(0 8.389899065e-10 -2.235668145e-09)
(0 -2.099740082e-10 -1.085878396e-09)
(0 -1.210226477e-10 -8.609433543e-10)
(0 -1.392844639e-10 -6.434938178e-10)
(0 -1.454112466e-10 -4.774598723e-10)
(0 -1.38710307e-10 -3.59101859e-10)
(0 -1.270659025e-10 -2.752628853e-10)
(0 -1.147133352e-10 -2.148412301e-10)
(0 -1.031730399e-10 -1.70284166e-10)
(0 -9.280456385e-11 -1.367139123e-10)
(0 -8.358309351e-11 -1.109649494e-10)
(0 -7.539069183e-11 -9.092736943e-11)
(0 -6.8104897e-11 -7.514897724e-11)
(0 -6.161812241e-11 -6.26001188e-11)
(0 -5.583788046e-11 -5.253257369e-11)
(0 -5.068364202e-11 -4.43920136e-11)
(0 -4.608427296e-11 -3.776153064e-11)
(0 0.1457271047 -0.002939689)
(0 0.1465043375 -0.008768494307)
(0 0.147942877 -0.01456134905)
(0 0.1501196507 -0.0203204724)
(0 0.1530090295 -0.0260473816)
(0 0.1565968387 -0.03174164481)
(0 0.1608725503 -0.03740003521)
(0 0.1658256745 -0.04301513828)
(0 0.1714446765 -0.0485735895)
(0 0.1777166543 -0.05405419049)
(0 0.1846265271 -0.05942594446)
(0 0.1921558658 -0.06464602543)
(0 0.2002815492 -0.06965768787)
(0 0.2089742475 -0.07438812251)
(0 0.2181967166 -0.07874627896)
(0 0.2279018787 -0.08262070434)
(0 0.2380306478 -0.08587748403)
(0 0.248509434 -0.08835841517)
(0 0.2592472452 -0.0898795879)
(0 0.2701322793 -0.09023058534)
(0 0.2810278791 -0.0891745211)
(0 0.2917676959 -0.08644908857)
(0 0.3021499083 -0.08176866689)
(0 0.3119303588 -0.07482728208)
(0 0.3208144864 -0.06530183981)
(0 0.3284479352 -0.05285452757)
(0 0.3344055714 -0.03713271581)
(0 0.3381779622 -0.01776424499)
(0 0.339152556 0.005653895123)
(0 0.3365825162 0.03357380346)
(0 0.3295274195 0.06651724326)
(0 0.316737808 0.1050835867)
(0 0.2964110689 0.14990659)
(0 0.2657173479 0.2014068994)
(0 0.2203038387 0.2589336887)
(0 0.1545339321 0.3192197227)
(0 0.06257933876 0.3756185314)
(0 -0.06547399508 0.4183344555)
(0 -0.1556329234 0.387398109)
(0 -0.1817866955 0.3592026375)
(0 -0.2672866955 0.2216308734)
(0 0.4473745985 -0.168662521)
(0 2.071517573e-09 -2.117659486e-09)
(0 6.756684766e-10 -1.578167499e-09)
(0 2.953062235e-10 -1.061589254e-09)
(0 1.401633937e-10 -7.912215633e-10)
(0 4.610985978e-11 -6.003404736e-10)
(0 -9.629129569e-12 -4.587474619e-10)
(0 -4.008354665e-11 -3.540608149e-10)
(0 -5.528967037e-11 -2.767422396e-10)
(0 -6.181784234e-11 -2.191863048e-10)
(0 -6.352347446e-11 -1.75773796e-10)
(0 -6.25714527e-11 -1.425448278e-10)
(0 -6.017528747e-11 -1.167517179e-10)
(0 -5.702940351e-11 -9.647894115e-11)
(0 -5.354176347e-11 -8.037090026e-11)
(0 -4.995665553e-11 -6.74501423e-11)
(0 -4.642082765e-11 -5.699868919e-11)
(0 -4.302069972e-11 -4.848033995e-11)
(0 -3.980445491e-11 -4.148895073e-11)
(0 0.1375189953 -0.003289710949)
(0 0.138219981 -0.009812619943)
(0 0.1395108394 -0.0162919408)
(0 0.1414626234 -0.0227277449)
(0 0.1440475648 -0.02912025054)
(0 0.1472486558 -0.03546839202)
(0 0.1510524238 -0.04176865628)
(0 0.1554457824 -0.04801330565)
(0 0.1604151056 -0.05418824297)
(0 0.1659459755 -0.06027082136)
(0 0.1720224681 -0.06622764212)
(0 0.1786261368 -0.07201233953)
(0 0.1857348941 -0.0775633365)
(0 0.1933218021 -0.08280155276)
(0 0.2013537602 -0.08762806478)
(0 0.2097900617 -0.09192174432)
(0 0.2185807699 -0.09553693903)
(0 0.2276648347 -0.09830129918)
(0 0.2369678411 -0.1000138975)
(0 0.2463992489 -0.100443824)
(0 0.2558489434 -0.09932945)
(0 0.2651828909 -0.09637852722)
(0 0.2742376974 -0.09126918526)
(0 0.2828139366 -0.08365169919)
(0 0.2906682802 -0.07315057274)
(0 0.2975047952 -0.05936598627)
(0 0.3029663067 -0.04187294479)
(0 0.3066273075 -0.02021540844)
(0 0.3079900805 0.006108805429)
(0 0.3064848637 0.03767844716)
(0 0.3014732264 0.07520300866)
(0 0.2922447145 0.1196120653)
(0 0.2779016119 0.172176866)
(0 0.2568579462 0.2344580811)
(0 0.2262890727 0.3073214572)
(0 0.1833592064 0.3889397727)
(0 0.1263667187 0.4757717362)
(0 -0.001040770298 0.565042708)
(0 -0.05091751996 0.4750795058)
(0 -0.2280475048 0.2831216341)
(0 0.1320719569 -0.1048904994)
(0 2.124041128e-09 -1.551133286e-09)
(0 1.563367634e-09 -1.224512962e-09)
(0 9.707979635e-10 -1.04879771e-09)
(0 5.769719257e-10 -8.183152283e-10)
(0 3.402261322e-10 -6.42572971e-10)
(0 1.931896375e-10 -5.078990525e-10)
(0 1.00868412e-10 -4.031286872e-10)
(0 4.329491539e-11 -3.216517011e-10)
(0 7.808607554e-12 -2.584589525e-10)
(0 -1.374489157e-11 -2.093879537e-10)
(0 -2.653156296e-11 -1.710798846e-10)
(0 -3.378248581e-11 -1.409398843e-10)
(0 -3.751720681e-11 -1.170181531e-10)
(0 -3.900987416e-11 -9.786577867e-11)
(0 -3.907609816e-11 -8.240554034e-11)
(0 -3.824591133e-11 -6.983085982e-11)
(0 -3.686807811e-11 -5.953170116e-11)
(0 -3.517390356e-11 -5.104170536e-11)
(0 -3.331717014e-11 -4.400069688e-11)
(0 0.1284601243 -0.003601004891)
(0 0.1290800973 -0.0107409041)
(0 0.130213693 -0.01782798967)
(0 0.1319247662 -0.02485897728)
(0 0.134182501 -0.0318322567)
(0 0.1369662814 -0.0387461395)
(0 0.1402591545 -0.04559715911)
(0 0.144045115 -0.05237774681)
(0 0.148308254 -0.05907364213)
(0 0.1530324853 -0.06566138388)
(0 0.1582008585 -0.07210590966)
(0 0.1637946485 -0.07835822676)
(0 0.1697924371 -0.08435309994)
(0 0.1761692039 -0.09000670505)
(0 0.182895413 -0.09521421965)
(0 0.1899360691 -0.09984735139)
(0 0.1972496878 -0.1037518394)
(0 0.2047870986 -0.1067450007)
(0 0.2124899564 -0.1086134311)
(0 0.2202887991 -0.1091110018)
(0 0.2281004358 -0.1079573116)
(0 0.2358244047 -0.1048367443)
(0 0.2433382292 -0.09939824117)
(0 0.2504912669 -0.09125581888)
(0 0.2570971715 -0.07998975202)
(0 0.2629255358 -0.06514817892)
(0 0.2676943937 -0.04624864824)
(0 0.2710671402 -0.02277859161)
(0 0.2726602679 0.005807630691)
(0 0.2720735237 0.04010066892)
(0 0.2689674806 0.08076997903)
(0 0.2632229152 0.1286500405)
(0 0.2550651379 0.1849256142)
(0 0.2446824024 0.2513029464)
(0 0.2323637878 0.3294361485)
(0 0.2256088902 0.4192983114)
(0 0.2511317618 0.5198987964)
(0 0.1486666714 0.6272858144)
(0 -0.0005870394867 0.5211746404)
(0 0.03033155741 0.1339967149)
(0 2.638934245e-09 -5.745895193e-10)
(0 2.393382472e-09 -5.215468433e-10)
(0 1.635381252e-09 -5.708094032e-10)
(0 1.081866209e-09 -5.725902586e-10)
(0 7.015309625e-10 -5.203349849e-10)
(0 4.505795695e-10 -4.528560405e-10)
(0 2.855541437e-10 -3.855540796e-10)
(0 1.766182218e-10 -3.242165333e-10)
(0 1.04586188e-10 -2.709583513e-10)
(0 5.697407708e-11 -2.260539121e-10)
(0 2.556122559e-11 -1.888266747e-10)
(0 4.924594888e-12 -1.582179038e-10)
(0 -8.509721268e-12 -1.331166745e-10)
(0 -1.710118182e-11 -1.12515233e-10)
(0 -2.241679072e-11 -9.556047807e-11)
(0 -2.550684463e-11 -8.155462329e-11)
(0 -2.708281636e-11 -6.99360561e-11)
(0 -2.763167319e-11 -6.025555029e-11)
(0 -2.748969544e-11 -5.215408259e-11)
(0 -2.689068866e-11 -4.534419082e-11)
(0 0.1186655988 -0.003871892821)
(0 0.1192025191 -0.01154793016)
(0 0.1201740631 -0.01915942729)
(0 0.1216351695 -0.02669830384)
(0 0.1235506715 -0.03416073643)
(0 0.1258954317 -0.04154473324)
(0 0.1286485457 -0.04884750452)
(0 0.1317909346 -0.05606234361)
(0 0.135304402 -0.06317548139)
(0 0.1391711966 -0.07016326249)
(0 0.1433732512 -0.07698961371)
(0 0.1478913177 -0.08360369814)
(0 0.1527042141 -0.08993764235)
(0 0.1577881963 -0.09590424411)
(0 0.1631164377 -0.1013946011)
(0 0.1686585848 -0.1062756345)
(0 0.1743803393 -0.1103875148)
(0 0.1802429862 -0.1135410277)
(0 0.1862027458 -0.1155149465)
(0 0.1922097807 -0.1160534981)
(0 0.1982066198 -0.1148640251)
(0 0.2041256854 -0.1116149456)
(0 0.2098855302 -0.1059341208)
(0 0.2153853571 -0.09740778276)
(0 0.2204974546 -0.08558031689)
(0 0.2250575215 -0.06995553747)
(0 0.2288537385 -0.05000077794)
(0 0.2316173055 -0.02515615837)
(0 0.233020673 0.005147631779)
(0 0.2326978708 0.04146033989)
(0 0.2303249773 0.08427425493)
(0 0.2258259241 0.1339985001)
(0 0.2196071073 0.1910249661)
(0 0.2122425448 0.2561280013)
(0 0.2051673821 0.3316727827)
(0 0.2130323854 0.42389705)
(0 0.2934224719 0.5454332991)
(0 0.09793736841 0.7156539713)
(0 -0.07986325173 0.7267505125)
(0 2.073277393e-09 4.469922191e-09)
(0 4.032765556e-09 1.068295707e-09)
(0 2.338090573e-09 4.306512636e-10)
(0 1.512324219e-09 5.009484268e-11)
(0 1.021272382e-09 -1.504453565e-10)
(0 6.967061438e-10 -2.375784132e-10)
(0 4.750070376e-10 -2.629621273e-10)
(0 3.218291447e-10 -2.572446912e-10)
(0 2.154641403e-10 -2.372250156e-10)
(0 1.414575366e-10 -2.119112611e-10)
(0 8.994028413e-11 -1.859716727e-10)
(0 5.409111679e-11 -1.616469335e-10)
(0 2.917843732e-11 -1.398483798e-10)
(0 1.192018501e-11 -1.207936749e-10)
(0 3.898957519e-14 -1.043656279e-10)
(0 -8.049264476e-12 -9.030627706e-11)
(0 -1.345167619e-11 -7.831641909e-11)
(0 -1.694683834e-11 -6.810319279e-11)
(0 -1.908610459e-11 -5.940036152e-11)
(0 -2.026254409e-11 -5.197488391e-11)
(0 -2.075807751e-11 -4.562699164e-11)
(0 0.1082567271 -0.004102197183)
(0 0.1087120403 -0.01223237233)
(0 0.1095224501 -0.0202822452)
(0 0.1107316012 -0.02823733012)
(0 0.112298128 -0.03609163041)
(0 0.1141913712 -0.04384375445)
(0 0.1163862128 -0.0514926897)
(0 0.1188606621 -0.05903354825)
(0 0.1215945361 -0.06645377685)
(0 0.1245686586 -0.07373007371)
(0 0.1277639067 -0.0808258455)
(0 0.1311603287 -0.08768897983)
(0 0.1347365258 -0.09424974171)
(0 0.1384692854 -0.1004186557)
(0 0.1423334335 -0.1060842862)
(0 0.1463018735 -0.1111108696)
(0 0.1503457657 -0.1153357824)
(0 0.1544347814 -0.1185668553)
(0 0.1585373286 -0.1205795521)
(0 0.1626205982 -0.1211140382)
(0 0.1666502038 -0.1198721503)
(0 0.1705890702 -0.1165142592)
(0 0.1743950664 -0.1106560115)
(0 0.178016654 -0.1018650003)
(0 0.1813855333 -0.08965764071)
(0 0.1844049249 -0.073497139)
(0 0.1869317965 -0.05279476785)
(0 0.1887512089 -0.0269191187)
(0 0.1895415196 0.004778216161)
(0 0.1888330126 0.04290771705)
(0 0.1859774692 0.08793961741)
(0 0.1801784425 0.140034466)
(0 0.1705920465 0.1988515594)
(0 0.156333293 0.2638512281)
(0 0.1376942836 0.3369531436)
(0 0.1260733752 0.428884181)
(0 0.1667165578 0.5649860519)
(0 0.1155015422 0.804472766)
(0 0.001477842797 0.8978081404)
(0 1.445306835e-09 8.661442395e-09)
(0 1.725314716e-09 2.467187292e-09)
(0 1.375181609e-09 1.135196453e-09)
(0 1.054284632e-09 4.925005904e-10)
(0 7.941929535e-10 1.582924026e-10)
(0 5.890141917e-10 -1.657118374e-11)
(0 4.309132915e-10 -1.041693646e-10)
(0 3.112912554e-10 -1.432375422e-10)
(0 2.219516519e-10 -1.555275831e-10)
(0 1.558395309e-10 -1.534900019e-10)
(0 1.072384047e-10 -1.442745861e-10)
(0 7.16845185e-11 -1.319410048e-10)
(0 4.57778534e-11 -1.187350064e-10)
(0 2.697303066e-11 -1.058440174e-10)
(0 1.338621606e-11 -9.384732668e-11)
(0 3.632418083e-12 -8.298258391e-11)
(0 -3.303760356e-12 -7.330158261e-11)
(0 -8.166758784e-12 -6.47599345e-11)
(0 -1.150336431e-11 -5.726781916e-11)
(0 -1.371632556e-11 -5.071810053e-11)
(0 -1.510326624e-11 -4.50014302e-11)
(0 0.09735835326 -0.00429372724)
(0 0.09773826899 -0.01279797603)
(0 0.09839541182 -0.02119944562)
(0 0.0993586857 -0.02947575504)
(0 0.100578005 -0.03761976203)
(0 0.102016292 -0.04563260263)
(0 0.1036444336 -0.05351682331)
(0 0.1054382257 -0.06127060755)
(0 0.1073762443 -0.06888334827)
(0 0.1094384402 -0.07633247546)
(0 0.1116048867 -0.08358110721)
(0 0.1138548465 -0.09057612418)
(0 0.1161662776 -0.0972463848)
(0 0.1185157173 -0.103500904)
(0 0.120878486 -0.1092268934)
(0 0.1232291726 -0.1142876106)
(0 0.1255423664 -0.1185199933)
(0 0.127793593 -0.1217320693)
(0 0.1299603948 -0.1237001241)
(0 0.1320234557 -0.1241655855)
(0 0.1339676087 -0.12283153)
(0 0.1357824375 -0.119358635)
(0 0.1374619763 -0.1133603044)
(0 0.1390026551 -0.1043966086)
(0 0.1403980314 -0.09196667615)
(0 0.1416277786 -0.07549944173)
(0 0.1426365648 -0.05434354134)
(0 0.1432953913 -0.02775917182)
(0 0.1433331115 0.005081375959)
(0 0.1422183663 0.04507124233)
(0 0.1389600748 0.09309809302)
(0 0.1317957912 0.1498750505)
(0 0.1178143182 0.2156320551)
(0 0.09276512528 0.2899169793)
(0 0.05085592081 0.372878897)
(0 -0.01785167901 0.4690455635)
(0 -0.1329574955 0.58973789)
(0 -0.09101644522 0.7735488771)
(0 -0.01510974886 0.8926400194)
(-8.402293134e-52 1.494560798e-10 5.043042539e-09)
(-7.338914719e-52 -5.122532935e-10 2.389942763e-09)
(0 3.634038733e-10 1.149977239e-09)
(0 5.354201682e-10 6.264186631e-10)
(0 5.122006076e-10 3.076855606e-10)
(0 4.342443766e-10 1.1717064e-10)
(0 3.483406791e-10 6.093391875e-12)
(0 2.704709263e-10 -5.600852905e-11)
(0 2.052116806e-10 -8.81577739e-11)
(0 1.527105336e-10 -1.02246574e-10)
(0 1.114892812e-10 -1.056956658e-10)
(0 7.963069647e-11 -1.031074921e-10)
(0 5.527542472e-11 -9.730662372e-11)
(0 3.68078647e-11 -9.000006385e-11)
(0 2.290042307e-11 -8.219707676e-11)
(0 1.24964796e-11 -7.447514975e-11)
(0 4.770973228e-12 -6.714739322e-11)
(0 -9.130748853e-13 -6.036714278e-11)
(0 -5.044270621e-12 -5.419287972e-11)
(0 -7.996155132e-12 -4.862826916e-11)
(0 -1.005392694e-11 -4.364668144e-11)
(0 0.0860959783 -0.00445117989)
(0 0.08641381099 -0.01325509126)
(0 0.08693426523 -0.02192220388)
(0 0.08766646737 -0.03042177491)
(0 0.08854848914 -0.03874861649)
(0 0.08953653906 -0.04690998055)
(0 0.09059867629 -0.05491462239)
(0 0.09171000742 -0.06276527307)
(0 0.09284918165 -0.07045384608)
(0 0.09399617011 -0.07795855558)
(0 0.09513068105 -0.08524208609)
(0 0.0962312078 -0.09225020086)
(0 0.09727469371 -0.09891043078)
(0 0.09823667675 -0.1051306562)
(0 0.09909182301 -0.1107974931)
(0 0.09981480473 -0.1157744487)
(0 0.1003815044 -0.1198998351)
(0 0.1007705391 -0.1229844298)
(0 0.1009651029 -0.1248088505)
(0 0.1009551197 -0.1251205583)
(0 0.1007396722 -0.1236303101)
(0 0.1003295959 -0.1200077236)
(0 0.09974997604 -0.1138753968)
(0 0.09904199506 -0.1048006877)
(0 0.09826300511 -0.09228378534)
(0 0.09748253184 -0.07574013652)
(0 0.09676969315 -0.05447469097)
(0 0.09616336995 -0.02764496188)
(0 0.09560899676 0.00578988433)
(0 0.09483248015 0.04713408338)
(0 0.09309564221 0.09802670371)
(0 0.08875280163 0.1604881514)
(0 0.07859962864 0.2368465115)
(0 0.05731171787 0.3291765048)
(0 0.01605022876 0.4373858101)
(0 -0.06630589876 0.5555761348)
(0 -0.239144804 0.6684519906)
(0 -0.1587541807 0.7483251906)
(0 -0.03621889092 0.7285715153)
(1.499975678e-52 6.900689651e-10 1.751918992e-09)
(3.594471131e-52 -2.521977002e-10 1.781146745e-09)
(0 2.008259738e-11 8.563316809e-10)
(0 2.119929538e-10 5.555112623e-10)
(0 2.849449304e-10 3.288605354e-10)
(0 2.87422023e-10 1.71474788e-10)
(0 2.577341224e-10 6.738082608e-11)
(0 2.170400896e-10 1.267803106e-12)
(0 1.75713607e-10 -3.884840525e-11)
(0 1.38301639e-10 -6.164285759e-11)
(0 1.063774866e-10 -7.31540126e-11)
(0 8.007356058e-11 -7.74866745e-11)
(0 5.888528169e-11 -7.738393285e-11)
(0 4.208257762e-11 -7.465253829e-11)
(0 2.891113016e-11 -7.046576613e-11)
(0 1.868210162e-11 -6.557354494e-11)
(0 1.080424661e-11 -6.04456985e-11)
(0 4.787754713e-12 -5.536836357e-11)
(0 2.355093165e-13 -5.050828739e-11)
(0 -3.170127275e-12 -4.595541452e-11)
(0 -5.68107989e-12 -4.175094712e-11)
(0 0.07459273422 -0.004583918603)
(0 0.07487339341 -0.01362313931)
(0 0.07528486146 -0.02247119118)
(0 0.07580959449 -0.03109194211)
(0 0.07637085667 -0.03948926367)
(0 0.07691952547 -0.04768253055)
(0 0.07742365698 -0.05569020877)
(0 0.0778603061 -0.06352096511)
(0 0.07821010668 -0.07116933093)
(0 0.07845420643 -0.07861380503)
(0 0.07857248635 -0.08581599224)
(0 0.07854273543 -0.09271999766)
(0 0.07834056997 -0.09925171648)
(0 0.07793987293 -0.1053178826)
(0 0.07731363453 -0.1108048438)
(0 0.07643515132 -0.115577075)
(0 0.07527958723 -0.1194754548)
(0 0.0738259331 -0.1223153151)
(0 0.07205942954 -0.1238842437)
(0 0.06997455042 -0.1239395605)
(0 0.06757868107 -0.1222052667)
(0 0.0648966416 -0.1183680815)
(0 0.06197621466 -0.1120718608)
(0 0.05889482545 -0.1029092129)
(0 0.05576740572 -0.09040825461)
(0 0.05275506767 -0.07401115696)
(0 0.05007328785 -0.05303918854)
(0 0.04799629913 -0.0266360038)
(0 0.04685011948 0.006322892021)
(0 0.04698005283 0.04736952463)
(0 0.04867149503 0.09864784566)
(0 0.05198240645 0.1631857024)
(0 0.05637696381 0.2451322559)
(0 0.05998196722 0.3491634888)
(0 0.05881151754 0.4763709678)
(0 0.04719303471 0.6151774685)
(0 0.02118716026 0.7323438666)
(0 -0.0002251253228 0.7263057464)
(0 -0.01646872122 0.6257812228)
(0 -1.776246599e-10 5.820190103e-10)
(0 -9.048585677e-10 1.723067399e-09)
(0 -2.647364237e-10 5.362542313e-10)
(0 7.9490242e-12 4.104341709e-10)
(0 1.281641333e-10 2.807705317e-10)
(0 1.727646672e-10 1.724871487e-10)
(0 1.781336943e-10 9.068732154e-11)
(0 1.642416949e-10 3.25473174e-11)
(0 1.423010199e-10 -6.86079234e-12)
(0 1.184049263e-10 -3.232243964e-11)
(0 9.564546427e-11 -4.779085181e-11)
(0 7.540077622e-11 -5.630125986e-11)
(0 5.810956093e-11 -6.008989549e-11)
(0 4.372603141e-11 -6.076038988e-11)
(0 3.197941643e-11 -5.943990476e-11)
(0 2.251654723e-11 -5.690756546e-11)
(0 1.49761546e-11 -5.369349241e-11)
(0 9.024336222e-12 -5.015232585e-11)
(0 4.368678423e-12 -4.651649194e-11)
(0 7.611851393e-13 -4.293415382e-11)
(0 -2.004268008e-12 -3.949593832e-11)
(0 0.0629666271 -0.004709588239)
(0 0.06325524905 -0.0139345584)
(0 0.06359924295 -0.02287766171)
(0 0.06394717844 -0.03150972831)
(0 0.06420721118 -0.03985782719)
(0 0.06432990673 -0.04796232969)
(0 0.0642886222 -0.05585515484)
(0 0.06406619031 -0.06355146556)
(0 0.06364751037 -0.07104750984)
(0 0.0630160578 -0.07832075129)
(0 0.06215232403 -0.08533048037)
(0 0.06103340196 -0.09201818621)
(0 0.0596333092 -0.09830748994)
(0 0.05792376767 -0.1041036471)
(0 0.05587532006 -0.1092926907)
(0 0.05345875803 -0.1137403004)
(0 0.05064689391 -0.1172904745)
(0 0.04741675274 -0.1197640588)
(0 0.04375230374 -0.1209571445)
(0 0.03964791251 -0.1206393232)
(0 0.03511278711 -0.1185516747)
(0 0.03017681268 -0.1144041827)
(0 0.02489833798 -0.1078720188)
(0 0.01937480071 -0.09858968093)
(0 0.01375751506 -0.08614109264)
(0 0.008272617128 -0.07004240801)
(0 0.003251126816 -0.0497121671)
(0 -0.0008274721035 -0.02442014638)
(0 -0.003272379474 0.006798331455)
(0 -0.003088349323 0.04528019452)
(0 0.001181368526 0.09294437129)
(0 0.01170831056 0.1525804899)
(0 0.03152022887 0.2281421257)
(0 0.06381192377 0.3244977135)
(0 0.1129502255 0.4448075572)
(0 0.1997974003 0.5836709365)
(0 0.3943563201 0.7154893241)
(0 0.1413178236 0.7517027773)
(0 0.0104597666 0.6769984972)
(0 -5.598586211e-11 9.678307334e-10)