/*--------------------------------*- C++ -*----------------------------------*\
  =========                 |
  \\      /  F ield         | OpenFOAM: The Open Source CFD Toolbox
   \\    /   O peration     | Website:  https://openfoam.org
    \\  /    A nd           | Version:  6
     \\/     M anipulation  |
\*---------------------------------------------------------------------------*/
FoamFile
{
    version     2.0;
    format      ascii;
    class       volVectorField;
    location    "0.0017";
    object      gradT;
}
// * * * * * * * * * * * * * * * * * * * * * * * * * * * * * * * * * * * * * //

dimensions      [0 -1 0 1 0 0 0];

internalField   nonuniform List<vector> 
600
(
(0 4.192813047e-08 -5.230534276e-06)
(0 1.162552726e-07 -5.06282183e-06)
(0 1.791474666e-07 -4.748360776e-06)
(0 2.20122685e-07 -4.326220735e-06)
(0 2.4394549e-07 -3.839282732e-06)
(0 2.487100467e-07 -3.328521812e-06)
(0 2.391809261e-07 -2.826337158e-06)
(0 2.191697762e-07 -2.357504462e-06)
(0 1.982057077e-07 -1.93250565e-06)
(0 1.715241701e-07 -1.560869948e-06)
(0 1.438897226e-07 -1.244503164e-06)
(0 1.200669191e-07 -9.786406816e-07)
(0 9.910285384e-08 -7.613767328e-07)
(0 7.71858777e-08 -5.860409233e-07)
(0 6.28921957e-08 -4.469157543e-07)
(0 4.859851486e-08 -3.363779558e-07)
(0 3.811648282e-08 -2.496629625e-07)
(0 2.858736168e-08 -1.829591148e-07)
(0 2.286988935e-08 -1.334076879e-07)
(0 1.524659313e-08 -9.624411911e-08)
(0 1.238785673e-08 -6.95625801e-08)
(0 9.529120561e-09 -4.955142692e-08)
(0 4.764560352e-09 -3.430483454e-08)
(0 4.764560281e-09 -2.38228014e-08)
(0 4.764560281e-09 -1.619950495e-08)
(0 9.529120704e-10 -1.143494485e-08)
(0 1.905824112e-09 -7.623296449e-09)
(0 9.529120561e-10 -3.811648225e-09)
(0 9.529120704e-10 -3.811648282e-09)
(0 9.529120561e-10 -9.529120561e-10)
(0 1.276902174e-07 -5.552618634e-06)
(0 3.649653284e-07 -5.359177564e-06)
(0 5.584064733e-07 -5.001835458e-06)
(0 6.880025148e-07 -4.528238159e-06)
(0 7.528005469e-07 -3.992701635e-06)
(0 7.651883926e-07 -3.440012574e-06)
(0 7.318364701e-07 -2.903523079e-06)
(0 6.727559318e-07 -2.407055926e-06)
(0 5.993816923e-07 -1.964904689e-06)
(0 5.183841663e-07 -1.580881125e-06)
(0 4.373866469e-07 -1.254985216e-06)
(0 3.630594988e-07 -9.862639929e-07)
(0 2.944498298e-07 -7.642354805e-07)
(0 2.36322197e-07 -5.869938442e-07)
(0 1.877236779e-07 -4.440570248e-07)
(0 1.496071951e-07 -3.325663126e-07)
(0 1.133965381e-07 -2.47757142e-07)
(0 8.671499841e-08 -1.820062055e-07)
(0 6.479802079e-08 -1.324547778e-07)
(0 4.859851632e-08 -9.624412056e-08)
(0 3.525774661e-08 -6.7656757e-08)
(0 2.57286259e-08 -4.764560352e-08)
(0 1.810532961e-08 -3.430483505e-08)
(0 1.334076899e-08 -2.382280176e-08)
(0 1.048203277e-08 -1.715241727e-08)
(0 5.717472508e-09 -1.143494502e-08)
(0 6.670384493e-09 -6.670384493e-09)
(0 2.858736211e-09 -3.811648282e-09)
(0 1.905824169e-09 -9.529120847e-10)
(0 3.811648282e-09 -9.529120704e-10)
(0 2.353692779e-07 -6.225374463e-06)
(0 6.660855372e-07 -5.974758682e-06)
(0 1.009133867e-06 -5.521172453e-06)
(0 1.231162377e-06 -4.937037363e-06)
(0 1.332171074e-06 -4.295727613e-06)
(0 1.337888527e-06 -3.653464823e-06)
(0 1.271184683e-06 -3.048365668e-06)
(0 1.158741078e-06 -2.501394185e-06)
(0 1.02438046e-06 -2.023985207e-06)
(0 8.795378278e-07 -1.618044671e-06)
(0 7.404126787e-07 -1.275949262e-06)
(0 6.1176954e-07 -9.967460107e-07)
(0 4.964671812e-07 -7.699529414e-07)
(0 3.973643334e-07 -5.869938354e-07)
(0 3.154138906e-07 -4.450099302e-07)
(0 2.458513105e-07 -3.335192196e-07)
(0 1.89629502e-07 -2.468042262e-07)
(0 1.438897205e-07 -1.820062027e-07)
(0 1.095848865e-07 -1.324547758e-07)
(0 8.004461392e-08 -9.529120704e-08)
(0 5.812763542e-08 -6.860966804e-08)
(0 4.383395458e-08 -4.764560281e-08)
(0 3.049318625e-08 -3.335192246e-08)
(0 2.191697729e-08 -2.286988935e-08)
(0 1.715241701e-08 -1.619950495e-08)
(0 1.143494485e-08 -9.529120704e-09)
(0 8.576208505e-09 -6.670384393e-09)
(0 6.670384393e-09 -3.811648225e-09)
(0 3.811648282e-09 -2.858736211e-09)
(0 3.811648225e-09 -9.529120561e-10)
(0 3.802119104e-07 -7.312647119e-06)
(0 1.070120255e-06 -6.948634818e-06)
(0 1.596127694e-06 -6.319712756e-06)
(0 1.912494497e-06 -5.545948167e-06)
(0 2.036373094e-06 -4.732161342e-06)
(0 2.012550263e-06 -3.950773385e-06)
(0 1.883907135e-06 -3.242759727e-06)
(0 1.697136397e-06 -2.624319842e-06)
(0 1.483684071e-06 -2.097359436e-06)
(0 1.266420123e-06 -1.65901989e-06)
(0 1.056779486e-06 -1.299772064e-06)
(0 8.690557952e-07 -1.006275131e-06)
(0 7.042020095e-07 -7.728116775e-07)
(0 5.612652095e-07 -5.888996595e-07)
(0 4.42151194e-07 -4.440570182e-07)
(0 3.468599884e-07 -3.316133955e-07)
(0 2.649095556e-07 -2.477571383e-07)
(0 2.020173559e-07 -1.810532907e-07)
(0 1.515130169e-07 -1.305489517e-07)
(0 1.114907122e-07 -9.433829497e-08)
(0 8.385626094e-08 -6.670384393e-08)
(0 6.098637159e-08 -4.764560281e-08)
(0 4.19281311e-08 -3.335192246e-08)
(0 3.144609785e-08 -2.286988935e-08)
(0 2.191697729e-08 -1.429368084e-08)
(0 1.61995052e-08 -1.048203277e-08)
(0 1.143494467e-08 -7.623296449e-09)
(0 8.576208505e-09 -4.764560281e-09)
(0 5.717472423e-09 -3.811648282e-09)
(0 5.717472337e-09 0)
(0 5.993816923e-07 -8.926880276e-06)
(0 1.658067027e-06 -8.359897719e-06)
(0 2.412773362e-06 -7.422232117e-06)
(0 2.818713904e-06 -6.341629829e-06)
(0 2.927345924e-06 -5.271509653e-06)
(0 2.827290113e-06 -4.299539262e-06)
(0 2.599544128e-06 -3.459070816e-06)
(0 2.303188509e-06 -2.752010101e-06)
(0 1.988727491e-06 -2.170733696e-06)
(0 1.678078156e-06 -1.697136397e-06)
(0 1.392204556e-06 -1.316924501e-06)
(0 1.138729924e-06 -1.012945531e-06)
(0 9.147955876e-07 -7.747175133e-07)
(0 7.261190086e-07 -5.869938442e-07)
(0 5.717472423e-07 -4.402453765e-07)
(0 4.440570248e-07 -3.287546643e-07)
(0 3.411425263e-07 -2.429925816e-07)
(0 2.601449952e-07 -1.781945572e-07)
(0 1.953469744e-07 -1.286431295e-07)
(0 1.438897248e-07 -9.147956013e-08)
(0 1.057732398e-07 -6.479802079e-08)
(0 7.71858777e-08 -4.478686731e-08)
(0 5.526890091e-08 -3.14460988e-08)
(0 4.097521903e-08 -2.001115348e-08)
(0 2.858736211e-08 -1.334076899e-08)
(0 1.905824169e-08 -8.576208762e-09)
(0 1.429368106e-08 -5.717472423e-09)
(0 9.529120704e-09 -3.811648282e-09)
(0 8.576208762e-09 -9.529120847e-10)
(0 6.670384493e-09 -9.529120704e-10)
(0 9.491004079e-07 -1.129010204e-05)
(0 2.575721326e-06 -1.031146151e-05)
(0 3.613442517e-06 -8.836353497e-06)
(0 4.063217007e-06 -7.278342285e-06)
(0 4.077510749e-06 -5.856597585e-06)
(0 3.824988993e-06 -4.646399186e-06)
(0 3.433342138e-06 -3.652511911e-06)
(0 2.985473517e-06 -2.854924563e-06)
(0 2.538557718e-06 -2.219332179e-06)
(0 2.118323501e-06 -1.716194613e-06)
(0 1.741923265e-06 -1.32073613e-06)
(0 1.412215667e-06 -1.011992604e-06)
(0 1.131106611e-06 -7.680471172e-07)
(0 8.947844341e-07 -5.793705388e-07)
(0 7.003903613e-07 -4.335749855e-07)
(0 5.43159872e-07 -3.22084275e-07)
(0 4.145167506e-07 -2.372751055e-07)
(0 3.163668026e-07 -1.743829063e-07)
(0 2.391809261e-07 -1.267373035e-07)
(0 1.75335821e-07 -9.052664669e-08)
(0 1.295960396e-07 -6.384510776e-08)
(0 9.33853815e-08 -4.573977869e-08)
(0 6.7656757e-08 -3.144609832e-08)
(0 4.955142692e-08 -2.096406523e-08)
(0 3.525774608e-08 -1.429368084e-08)
(0 2.286988969e-08 -9.529120704e-09)
(0 1.715241701e-08 -3.811648225e-09)
(0 1.143494467e-08 -3.811648225e-09)
(0 8.576208634e-09 -1.905824141e-09)
(0 9.529120561e-09 -9.529120561e-10)
(0 1.577069453e-06 -1.482540577e-05)
(0 4.112768496e-06 -1.29472163e-05)
(0 5.445892401e-06 -1.050966707e-05)
(0 5.799422774e-06 -8.241736373e-06)
(0 5.560241931e-06 -6.370217191e-06)
(0 5.029469832e-06 -4.901779617e-06)
(0 4.390065843e-06 -3.76781427e-06)
(0 3.73732114e-06 -2.89494687e-06)
(0 3.126504456e-06 -2.221238003e-06)
(0 2.5766742e-06 -1.701900932e-06)
(0 2.098312379e-06 -1.300724976e-06)
(0 1.690465988e-06 -9.881698022e-07)
(0 1.347417647e-06 -7.480359641e-07)
(0 1.061544046e-06 -5.612652095e-07)
(0 8.280805768e-07 -4.202342168e-07)
(0 6.394039897e-07 -3.116022424e-07)
(0 4.878909801e-07 -2.286988969e-07)
(0 3.716357019e-07 -1.677125219e-07)
(0 2.792032324e-07 -1.210198311e-07)
(0 2.077348314e-07 -8.766791048e-08)
(0 1.52465929e-07 -6.098637159e-08)
(0 1.086319744e-07 -4.288104253e-08)
(0 7.909170185e-08 -2.954027418e-08)
(0 5.717472337e-08 -2.191697729e-08)
(0 4.097521841e-08 -1.429368084e-08)
(0 2.954027418e-08 -9.529120704e-09)
(0 1.905824112e-08 -6.670384393e-09)
(0 1.334076879e-08 -2.858736168e-09)
(0 9.529120704e-09 -2.858736211e-09)
(0 1.048203262e-08 -9.529120561e-10)
(0 2.829195937e-06 -2.045330468e-05)
(0 6.891460197e-06 -1.634815973e-05)
(0 8.318922375e-06 -1.220108615e-05)
(0 8.20171419e-06 -8.976431703e-06)
(0 7.416514755e-06 -6.637985582e-06)
(0 6.429297739e-06 -4.956095678e-06)
(0 5.439222098e-06 -3.735415316e-06)
(0 4.532049875e-06 -2.833007628e-06)
(0 3.731603668e-06 -2.156440015e-06)
(0 3.040742417e-06 -1.641867497e-06)
(0 2.453748618e-06 -1.247361919e-06)
(0 1.964904689e-06 -9.462416859e-07)
(0 1.557058323e-06 -7.137311407e-07)
(0 1.222586205e-06 -5.364895037e-07)
(0 9.519591584e-07 -3.992701575e-07)
(0 7.337422942e-07 -2.954027418e-07)
(0 5.593593937e-07 -2.182168674e-07)
(0 4.230929593e-07 -1.581834037e-07)
(0 3.192255436e-07 -1.143494485e-07)
(0 2.36322197e-07 -8.09975272e-08)
(0 1.724770847e-07 -5.908054837e-08)
(0 1.248314812e-07 -4.002230696e-08)
(0 9.052664805e-08 -2.763445046e-08)
(0 6.479802079e-08 -1.810532934e-08)
(0 4.573977938e-08 -1.334076899e-08)
(0 3.239901088e-08 -9.529120847e-09)
(0 2.286988969e-08 -5.717472423e-09)
(0 1.61995052e-08 -1.905824141e-09)
(0 1.143494502e-08 -9.529120847e-10)
(0 1.143494485e-08 0)
(0 5.684120415e-06 -3.043315234e-05)
(0 1.236498703e-05 -2.002925881e-05)
(0 1.281857298e-05 -1.317782082e-05)
(0 1.136347627e-05 -9.007877667e-06)
(0 9.579625044e-06 -6.402616201e-06)
(0 7.932992867e-06 -4.689280228e-06)
(0 6.512200992e-06 -3.501951806e-06)
(0 5.316296441e-06 -2.648142644e-06)
(0 4.317644526e-06 -2.013503175e-06)
(0 3.485752301e-06 -1.53418841e-06)
(0 2.79393819e-06 -1.167317286e-06)
(0 2.224096739e-06 -8.862082122e-07)
(0 1.757169832e-06 -6.689442634e-07)
(0 1.37600503e-06 -5.021846611e-07)
(0 1.068214415e-06 -3.744944381e-07)
(0 8.223631044e-07 -2.782503204e-07)
(0 6.260632303e-07 -2.039231831e-07)
(0 4.735972919e-07 -1.486542808e-07)
(0 3.56389109e-07 -1.086319744e-07)
(0 2.630037314e-07 -7.813878977e-08)
(0 1.934411474e-07 -5.622181131e-08)
(0 1.410309843e-07 -3.90693943e-08)
(0 1.000557674e-07 -2.763445004e-08)
(0 7.146840421e-08 -1.810532907e-08)
(0 5.050433897e-08 -1.238785673e-08)
(0 3.621065868e-08 -8.576208634e-09)
(0 2.572862552e-08 -5.717472337e-09)
(0 1.810532907e-08 -3.811648225e-09)
(0 1.334076899e-08 -9.529120704e-10)
(0 1.143494467e-08 0)
(0 1.324071302e-05 -4.329937092e-05)
(0 2.414679186e-05 -2.041042364e-05)
(0 1.933839727e-05 -1.169318384e-05)
(0 1.497691879e-05 -7.660460019e-06)
(0 1.173701797e-05 -5.434457538e-06)
(0 9.329961942e-06 -4.025100525e-06)
(0 7.480359641e-06 -3.050271492e-06)
(0 6.019545549e-06 -2.336540397e-06)
(0 4.845557805e-06 -1.796239226e-06)
(0 3.885975365e-06 -1.380769569e-06)
(0 3.102681701e-06 -1.05868531e-06)
(0 2.462324753e-06 -8.071165115e-07)
(0 1.941081858e-06 -6.1176954e-07)
(0 1.517036016e-06 -4.612094421e-07)
(0 1.176846389e-06 -3.449541643e-07)
(0 9.043135413e-07 -2.55380431e-07)
(0 6.870496028e-07 -1.886765899e-07)
(0 5.202899826e-07 -1.372193361e-07)
(0 3.89741031e-07 -9.910285384e-08)
(0 2.887323573e-07 -7.146840528e-08)
(0 2.124993885e-07 -5.145725103e-08)
(0 1.543717531e-07 -3.621065813e-08)
(0 1.105378002e-07 -2.382280176e-08)
(0 7.81387886e-08 -1.715241701e-08)
(0 5.622181131e-08 -1.143494467e-08)
(0 4.002230696e-08 -5.717472423e-09)
(0 2.858736168e-08 -3.811648225e-09)
(0 1.905824112e-08 -2.858736168e-09)
(0 1.429368106e-08 0)
(0 1.238785673e-08 -9.529120561e-10)
(0 4.476399742e-05 -7.755751341e-06)
(0 4.397022233e-05 -6.91147135e-06)
(0 2.556948959e-05 -5.748918521e-06)
(0 1.762220292e-05 -4.693091947e-06)
(0 1.32159377e-05 -3.801166306e-06)
(0 1.031527316e-05 -3.059800658e-06)
(0 8.200761278e-06 -2.448031109e-06)
(0 6.571281736e-06 -1.942987741e-06)
(0 5.273415398e-06 -1.532282609e-06)
(0 4.223306296e-06 -1.199716297e-06)
(0 3.367591307e-06 -9.309951068e-07)
(0 2.671012533e-06 -7.16589877e-07)
(0 2.103076939e-06 -5.479244405e-07)
(0 1.641867522e-06 -4.154696689e-07)
(0 1.27499635e-06 -3.11602247e-07)
(0 9.776877843e-07 -2.334634573e-07)
(0 7.461301623e-07 -1.705712632e-07)
(0 5.622181216e-07 -1.248314812e-07)
(0 4.202342231e-07 -9.052664669e-08)
(0 3.125551638e-07 -6.575093385e-08)
(0 2.277459848e-07 -4.573977938e-08)
(0 1.677125244e-07 -3.335192246e-08)
(0 1.200669227e-07 -2.382280212e-08)
(0 8.576208634e-08 -1.524659313e-08)
(0 6.098637251e-08 -1.048203277e-08)
(0 4.288104381e-08 -5.717472508e-09)
(0 2.954027418e-08 -3.811648282e-09)
(0 2.191697762e-08 -1.905824141e-09)
(0 1.429368127e-08 -9.529120847e-10)
(0 1.334076899e-08 0)
(0 2.153676538e-05 2.492055609e-05)
(0 2.615362468e-05 5.990005275e-06)
(0 2.155677653e-05 7.909170066e-08)
(0 1.692371812e-05 -1.744781975e-06)
(0 1.337030926e-05 -2.16787496e-06)
(0 1.068309706e-05 -2.091641963e-06)
(0 8.598125482e-06 -1.841026092e-06)
(0 6.935294049e-06 -1.547529202e-06)
(0 5.588829209e-06 -1.266420123e-06)
(0 4.488215784e-06 -1.01485134e-06)
(0 3.583902297e-06 -8.023519633e-07)
(0 2.846348312e-06 -6.260632209e-07)
(0 2.24315498e-06 -4.831264125e-07)
(0 1.754311122e-06 -3.678240592e-07)
(0 1.358852592e-06 -2.792032324e-07)
(0 1.043438701e-06 -2.086877403e-07)
(0 7.956815788e-07 -1.543717554e-07)
(0 6.012875074e-07 -1.133965347e-07)
(0 4.497744905e-07 -8.290334888e-08)
(0 3.316134005e-07 -6.003346044e-08)
(0 2.439454864e-07 -4.288104253e-08)
(0 1.791474666e-07 -2.954027374e-08)
(0 1.276902174e-07 -2.096406555e-08)
(0 9.147955739e-08 -1.52465929e-08)
(0 6.575093187e-08 -9.529120561e-09)
(0 4.573977938e-08 -6.670384493e-09)
(0 3.144609785e-08 -4.764560281e-09)
(0 2.38228014e-08 -3.811648225e-09)
(0 1.61995052e-08 -9.529120704e-10)
(0 1.334076879e-08 9.529120561e-10)
(0 1.68198507e-05 1.173797071e-05)
(0 1.91287569e-05 5.634569072e-06)
(0 1.783565495e-05 1.625667968e-06)
(0 1.537618894e-05 -3.525774608e-07)
(0 1.28681246e-05 -1.171128935e-06)
(0 1.064212184e-05 -1.406498195e-06)
(0 8.744873939e-06 -1.368381713e-06)
(0 7.144934704e-06 -1.21972745e-06)
(0 5.806093158e-06 -1.033909581e-06)
(0 4.688327316e-06 -8.49044642e-07)
(0 3.756379382e-06 -6.813321304e-07)
(0 2.990238032e-06 -5.383953117e-07)
(0 2.361316075e-06 -4.183283926e-07)
(0 1.846743592e-06 -3.220842798e-07)
(0 1.433179732e-06 -2.429925743e-07)
(0 1.102519249e-06 -1.839120268e-07)
(0 8.404684461e-07 -1.362664261e-07)
(0 6.346394294e-07 -1.000557659e-07)
(0 4.75503116e-07 -7.242131627e-08)
(0 3.497187298e-07 -5.241016387e-08)
(0 2.582391672e-07 -3.811648225e-08)
(0 1.886765871e-07 -2.763444963e-08)
(0 1.35313514e-07 -1.810532934e-08)
(0 9.719702973e-08 -1.429368084e-08)
(0 6.860966804e-08 -8.576208505e-09)
(0 4.859851559e-08 -6.670384493e-09)
(0 3.430483402e-08 -4.764560281e-09)
(0 2.477571346e-08 -2.858736168e-09)
(0 1.810532934e-08 -2.858736211e-09)
(0 1.334076879e-08 -9.529120561e-10)
(0 1.497787192e-05 5.280085782e-06)
(0 1.604132203e-05 3.006437627e-06)
(0 1.556867741e-05 9.862639929e-07)
(0 1.412787436e-05 -2.582391711e-07)
(0 1.231829452e-05 -8.700087333e-07)
(0 1.048489151e-05 -1.087272672e-06)
(0 8.783943465e-06 -1.092990145e-06)
(0 7.269766294e-06 -9.957931285e-07)
(0 5.959512088e-06 -8.595266875e-07)
(0 4.839840406e-06 -7.156369649e-07)
(0 3.896457514e-06 -5.822292838e-07)
(0 3.108399174e-06 -4.621623542e-07)
(0 2.459466054e-06 -3.621065868e-07)
(0 1.928694059e-06 -2.782503287e-07)
(0 1.497024863e-06 -2.134523038e-07)
(0 1.152070693e-06 -1.591363158e-07)
(0 8.795378542e-07 -1.191140106e-07)
(0 6.641797131e-07 -8.671499841e-08)
(0 4.955142766e-07 -6.384510872e-08)
(0 3.678240647e-07 -4.669269215e-08)
(0 2.70627028e-07 -3.239901039e-08)
(0 1.982057106e-07 -2.286988969e-08)
(0 1.400780765e-07 -1.619950544e-08)
(0 1.019615915e-07 -1.143494485e-08)
(0 7.242131735e-08 -7.623296563e-09)
(0 5.050434049e-08 -5.717472508e-09)
(0 3.430483454e-08 -3.811648282e-09)
(0 2.668153797e-08 -9.529120704e-10)
(0 1.810532961e-08 -9.529120847e-10)
(0 1.61995052e-08 -9.529120704e-10)
(0 1.408594601e-05 5.183841585e-07)
(0 1.48339822e-05 2.858736211e-09)
(0 1.457097825e-05 -5.422069599e-07)
(0 1.351705752e-05 -9.00501893e-07)
(0 1.203813819e-05 -1.056779486e-06)
(0 1.042009333e-05 -1.066308591e-06)
(0 8.837306409e-06 -9.910285384e-07)
(0 7.379351073e-06 -8.738203686e-07)
(0 6.086249303e-06 -7.442243158e-07)
(0 4.965624725e-06 -6.184399244e-07)
(0 4.009853992e-06 -5.021846611e-07)
(0 3.209407805e-06 -3.992701515e-07)
(0 2.54427519e-06 -3.144609785e-07)
(0 1.996350788e-06 -2.42992578e-07)
(0 1.552293739e-06 -1.858178509e-07)
(0 1.197810455e-06 -1.400780723e-07)
(0 9.128897635e-07 -1.038674157e-07)
(0 6.889554166e-07 -7.81387886e-08)
(0 5.155254224e-07 -5.622181131e-08)
(0 3.821177402e-07 -4.002230696e-08)
(0 2.811090566e-07 -3.04931858e-08)
(0 2.048760921e-07 -2.096406523e-08)
(0 1.467484588e-07 -1.429368106e-08)
(0 1.048203262e-07 -1.048203262e-08)
(0 7.623296449e-08 -7.623296449e-09)
(0 5.14572518e-08 -5.717472423e-09)
(0 3.811648225e-08 -2.858736168e-09)
(0 2.668153757e-08 -2.858736168e-09)
(0 2.001115348e-08 -1.905824141e-09)
(0 1.619950495e-08 0)
(0 1.436800805e-05 -3.898363239e-06)
(0 1.498263655e-05 -3.055036112e-06)
(0 1.466626952e-05 -2.339399108e-06)
(0 1.361425461e-05 -1.819109123e-06)
(0 1.215153478e-05 -1.455096738e-06)
(0 1.055159525e-05 -1.191140076e-06)
(0 8.975478697e-06 -9.862639825e-07)
(0 7.515617533e-06 -8.147398239e-07)
(0 6.21584537e-06 -6.698971785e-07)
(0 5.08283293e-06 -5.431598744e-07)
(0 4.113721427e-06 -4.364337302e-07)
(0 3.296122817e-06 -3.4685999e-07)
(0 2.616696518e-06 -2.706270252e-07)
(0 2.056384257e-06 -2.105935685e-07)
(0 1.599939349e-06 -1.600892262e-07)
(0 1.23497403e-06 -1.210198317e-07)
(0 9.405242177e-07 -9.05266471e-08)
(0 7.118253091e-07 -6.670384423e-08)
(0 5.345836659e-07 -4.955142714e-08)
(0 3.935526869e-07 -3.430483469e-08)
(0 2.887323543e-07 -2.477571357e-08)
(0 2.134523015e-07 -1.810532915e-08)
(0 1.52465932e-07 -1.238785697e-08)
(0 1.095848869e-07 -7.623296483e-09)
(0 7.623296483e-08 -4.764560302e-09)
(0 5.431598826e-08 -3.811648299e-09)
(0 3.906939448e-08 -2.858736181e-09)
(0 2.668153769e-08 -2.858736181e-09)
(0 2.096406564e-08 -1.905824149e-09)
(0 1.715241709e-08 0)
(0 1.575830677e-05 -8.367520815e-06)
(0 1.639294645e-05 -6.029074706e-06)
(0 1.580595237e-05 -3.987936979e-06)
(0 1.44023129e-05 -2.630037291e-06)
(0 1.26651544e-05 -1.80386256e-06)
(0 1.088987904e-05 -1.303583701e-06)
(0 9.213706726e-06 -9.872168961e-07)
(0 7.696670839e-06 -7.699529575e-07)
(0 6.356876365e-06 -6.079578955e-07)
(0 5.198135297e-06 -4.812205912e-07)
(0 4.208059728e-06 -3.811648305e-07)
(0 3.375214523e-06 -3.001672995e-07)
(0 2.679588718e-06 -2.325105431e-07)
(0 2.1068886e-06 -1.810532945e-07)
(0 1.642820395e-06 -1.38172249e-07)
(0 1.26642013e-06 -1.029145027e-07)
(0 9.662528452e-07 -7.623296609e-08)
(0 7.308835514e-07 -5.717472371e-08)
(0 5.479244356e-07 -4.097521866e-08)
(0 4.059405444e-07 -2.954027436e-08)
(0 2.982614754e-07 -2.00111533e-08)
(0 2.182168622e-07 -1.429368093e-08)
(0 1.562775805e-07 -1.143494491e-08)
(0 1.124436233e-07 -6.670384433e-09)
(0 7.909170113e-08 -4.764560309e-09)
(0 5.526890042e-08 -2.858736228e-09)
(0 3.811648247e-08 -2.858736186e-09)
(0 2.954027392e-08 -1.905824124e-09)
(0 2.096406568e-08 0)
(0 1.810532918e-08 0)
(0 1.780039729e-05 -1.408594608e-05)
(0 1.936126753e-05 -8.712475099e-06)
(0 1.806530684e-05 -4.972295131e-06)
(0 1.579928196e-05 -2.931157498e-06)
(0 1.347798838e-05 -1.855319809e-06)
(0 1.136633506e-05 -1.26737304e-06)
(0 9.511015275e-06 -9.195601383e-07)
(0 7.894876539e-06 -6.975316387e-07)
(0 6.503624812e-06 -5.403011383e-07)
(0 5.309626001e-06 -4.230929548e-07)
(0 4.294774721e-06 -3.297075779e-07)
(0 3.444777098e-06 -2.582391684e-07)
(0 2.735810525e-06 -2.001115327e-07)
(0 2.151675465e-06 -1.52465932e-07)
(0 1.678078138e-06 -1.162552714e-07)
(0 1.295960402e-06 -8.766790956e-08)
(0 9.872169094e-07 -6.384510901e-08)
(0 7.461301433e-07 -4.764560302e-08)
(0 5.612652036e-07 -3.525774624e-08)
(0 4.154696646e-07 -2.477571394e-08)
(0 3.058847714e-07 -1.715241709e-08)
(0 2.21075598e-07 -1.143494473e-08)
(0 1.591363165e-07 -9.529120747e-09)
(0 1.143494473e-07 -6.670384423e-09)
(0 8.099752514e-08 -5.717472363e-09)
(0 5.622181241e-08 -3.811648299e-09)
(0 4.09752186e-08 -2.858736181e-09)
(0 2.954027387e-08 -9.529120604e-10)
(0 2.191697772e-08 -9.529120747e-10)
(0 1.905824121e-08 -9.529120604e-10)
(0 2.252398237e-05 -2.71322651e-05)
(0 2.55065975e-05 -9.725420635e-06)
(0 2.158726982e-05 -4.239505757e-06)
(0 1.751833532e-05 -2.265071968e-06)
(0 1.432989178e-05 -1.430321024e-06)
(0 1.182373285e-05 -1.007228048e-06)
(0 9.784501036e-06 -7.528005277e-07)
(0 8.075929833e-06 -5.803234535e-07)
(0 6.631315028e-06 -4.535861408e-07)
(0 5.408728855e-06 -3.563891106e-07)
(0 4.371960599e-06 -2.782503258e-07)
(0 3.506716382e-06 -2.153581257e-07)
(0 2.784409041e-06 -1.677125226e-07)
(0 2.19074486e-06 -1.27690218e-07)
(0 1.707618412e-06 -9.62441181e-08)
(0 1.318830292e-06 -7.146840453e-08)
(0 1.006275151e-06 -5.431598826e-08)
(0 7.604238242e-07 -3.906939448e-08)
(0 5.717472363e-07 -2.763444975e-08)
(0 4.230929612e-07 -2.096406564e-08)
(0 3.096964196e-07 -1.524659297e-08)
(0 2.258401583e-07 -1.238785679e-08)
(0 1.619950527e-07 -6.670384523e-09)
(0 1.172081834e-07 -5.717472363e-09)
(0 8.290334926e-08 -1.905824121e-09)
(0 5.622181241e-08 -1.905824149e-09)
(0 4.09752186e-08 -9.529120604e-10)
(0 3.049318593e-08 0)
(0 2.286988979e-08 0)
(0 1.905824121e-08 0)
(0 4.614286077e-05 3.908845278e-06)
(0 4.225307437e-05 1.254032292e-06)
(0 2.552470249e-05 4.192813072e-08)
(0 1.860941966e-05 -4.478686691e-07)
(0 1.473678526e-05 -5.927113114e-07)
(0 1.204385555e-05 -5.841350939e-07)
(0 9.936966981e-06 -5.174312496e-07)
(0 8.195043855e-06 -4.335749946e-07)
(0 6.728512069e-06 -3.535303749e-07)
(0 5.484961828e-06 -2.820619703e-07)
(0 4.434852802e-06 -2.229814258e-07)
(0 3.555314903e-06 -1.743829073e-07)
(0 2.825384263e-06 -1.353135128e-07)
(0 2.222190962e-06 -1.019615921e-07)
(0 1.732394128e-06 -7.813878907e-08)
(0 1.338841447e-06 -6.00334599e-08)
(0 1.020568834e-06 -4.288104343e-08)
(0 7.718587701e-07 -3.144609804e-08)
(0 5.793705336e-07 -2.382280155e-08)
(0 4.288104343e-07 -1.715241737e-08)
(0 3.154138925e-07 -1.143494474e-08)
(0 2.286988948e-07 -7.623296495e-09)
(0 1.658067012e-07 -4.764560381e-09)
(0 1.181610957e-07 -2.858736186e-09)
(0 8.48091735e-08 -2.858736186e-09)
(0 5.717472457e-08 -9.529120761e-10)
(0 4.192813072e-08 -9.529120618e-10)
(0 3.049318598e-08 0)
(0 2.286988983e-08 0)
(0 1.905824124e-08 0)
)
;

boundaryField
{
    lowerWall
    {
        type            calculated;
        value           nonuniform List<vector> 
20
(
(0 0 -9.529120561e-10)
(0 3.410605115e-09 -9.529120704e-10)
(0 5.115907672e-09 -9.529120561e-10)
(0 5.115907672e-09 0)
(0 5.115907672e-09 -9.529120704e-10)
(0 1.023181534e-08 -9.529120561e-10)
(0 1.023181534e-08 -9.529120561e-10)
(0 1.19371179e-08 0)
(0 1.19371179e-08 0)
(0 1.19371179e-08 -9.529120561e-10)
(0 1.364242046e-08 0)
(0 1.364242046e-08 9.529120561e-10)
(0 1.023181534e-08 -9.529120561e-10)
(0 1.534772302e-08 -9.529120704e-10)
(0 1.534772302e-08 0)
(0 1.534772302e-08 0)
(0 1.534772302e-08 0)
(0 1.705302557e-08 -9.529120604e-10)
(0 1.705302557e-08 0)
(0 1.705302557e-08 0)
)
;
    }
    atmosphere
    {
        type            calculated;
        value           nonuniform 0();
    }
    rightWall
    {
        type            empty;
    }
    leftWall
    {
        type            empty;
    }
    frontAndBack
    {
        type            calculated;
        value           nonuniform List<vector> 
30
(
(0 4.192813047e-08 -5.151719026e-06)
(0 1.162552726e-07 -4.989715283e-06)
(0 1.791474666e-07 -4.684466125e-06)
(0 2.20122685e-07 -4.275193511e-06)
(0 2.4394549e-07 -3.8011194e-06)
(0 2.487100467e-07 -3.299760448e-06)
(0 2.391809261e-07 -2.805222707e-06)
(0 2.191697762e-07 -2.346496319e-06)
(0 1.982057077e-07 -1.925286587e-06)
(0 1.715241701e-07 -1.55353063e-06)
(0 1.438897226e-07 -1.241460262e-06)
(0 1.200669191e-07 -9.771383653e-07)
(0 9.910285384e-08 -7.605649406e-07)
(0 7.71858777e-08 -5.849187772e-07)
(0 6.28921957e-08 -4.4678927e-07)
(0 4.859851486e-08 -3.359446038e-07)
(0 3.811648282e-08 -2.506794759e-07)
(0 2.858736168e-08 -1.841726762e-07)
(0 2.286988935e-08 -1.34718902e-07)
(0 1.524659313e-08 -9.549694321e-08)
(0 1.238785673e-08 -6.991740485e-08)
(0 9.529120561e-09 -4.945377416e-08)
(0 4.764560352e-09 -3.410605115e-08)
(0 4.764560281e-09 -2.557953836e-08)
(0 4.764560281e-09 -1.534772302e-08)
(0 9.529120704e-10 -1.023181534e-08)
(0 1.905824112e-09 -8.526512786e-09)
(0 9.529120561e-10 -5.115907672e-09)
(0 9.529120704e-10 -3.410605115e-09)
(0 9.529120561e-10 0)
)
;
    }
    procBoundary1to0
    {
        type            processor;
        value           nonuniform List<vector> 
20
(
(0 1.073931892e-06 -5.231487212e-06)
(0 3.275158801e-06 -5.552618659e-06)
(0 5.634569013e-06 -6.226327403e-06)
(0 8.289382014e-06 -7.313600064e-06)
(0 1.142636869e-05 -8.92878614e-06)
(0 1.53285434e-05 -1.1291055e-05)
(0 2.047426853e-05 -1.482635875e-05)
(0 2.772307099e-05 -2.045711642e-05)
(0 3.852432878e-05 -3.043982286e-05)
(0 5.305147314e-05 -5.948839411e-05)
(0 3.240186928e-05 -1.52075238e-05)
(0 2.30318845e-05 3.393319847e-05)
(0 1.611564877e-05 1.219441564e-05)
(0 1.334839234e-05 5.739389426e-06)
(0 1.252602903e-05 6.117695428e-07)
(0 1.301010842e-05 -4.727396753e-06)
(0 1.483969961e-05 -9.459558081e-06)
(0 1.87980963e-05 -1.547815067e-05)
(0 2.758203971e-05 -3.806883699e-05)
(0 3.78915954e-05 1.284239592e-05)
)
;
    }
    procBoundary1to3
    {
        type            processor;
        value           nonuniform List<vector> 
30
(
(0 1.093657172e-05 3.225321451e-05)
(0 2.16396803e-05 1.088511463e-05)
(0 1.988632179e-05 3.648700279e-06)
(0 1.688274297e-05 1.044391618e-06)
(0 1.419362535e-05 9.624411955e-08)
(0 1.189996581e-05 -2.248872463e-07)
(0 9.93410823e-06 -3.058847714e-07)
(0 8.23983071e-06 -2.954027432e-07)
(0 6.783780958e-06 -2.553804322e-07)
(0 5.537371983e-06 -2.115464774e-07)
(0 4.480592575e-06 -1.705712614e-07)
(0 3.59343138e-06 -1.343606005e-07)
(0 2.856830357e-06 -1.048203266e-07)
(0 2.247919584e-06 -8.004461428e-08)
(0 1.751452367e-06 -6.098637187e-08)
(0 1.353135126e-06 -4.57397789e-08)
(0 1.032956689e-06 -3.621065884e-08)
(0 7.823408016e-07 -2.572862563e-08)
(0 5.850880051e-07 -1.715241709e-08)
(0 4.345279061e-07 -1.334076905e-08)
(0 3.201784523e-07 -8.576208544e-09)
(0 2.315576307e-07 -3.811648242e-09)
(0 1.667596131e-07 -3.811648299e-09)
(0 1.191140076e-07 -2.858736181e-09)
(0 8.576208544e-08 -2.858736181e-09)
(0 5.908054863e-08 -9.529120747e-10)
(0 4.192813066e-08 0)
(0 3.049318593e-08 0)
(0 2.286988979e-08 0)
(0 1.905824121e-08 0)
)
;
    }
}


// ************************************************************************* //
