/*--------------------------------*- C++ -*----------------------------------*\
  =========                 |
  \\      /  F ield         | OpenFOAM: The Open Source CFD Toolbox
   \\    /   O peration     | Website:  https://openfoam.org
    \\  /    A nd           | Version:  6
     \\/     M anipulation  |
\*---------------------------------------------------------------------------*/
FoamFile
{
    version     2.0;
    format      ascii;
    class       volScalarField;
    location    "0.0016";
    object      Num_divU;
}
// * * * * * * * * * * * * * * * * * * * * * * * * * * * * * * * * * * * * * //

dimensions      [0 0 -1 0 0 0 0];

internalField   nonuniform List<scalar> 
9600
(
2.993600772e-08
6.241970914e-08
5.842018002e-08
5.683125748e-08
5.332402041e-08
4.999415913e-08
4.68303731e-08
4.385224028e-08
4.105213037e-08
3.84596662e-08
3.606968497e-08
3.390957936e-08
3.196756646e-08
3.02617997e-08
2.876881925e-08
2.749556457e-08
2.640802804e-08
2.550696587e-08
2.475495828e-08
2.415346815e-08
2.366556485e-08
2.329262032e-08
2.299501804e-08
2.277271088e-08
2.258668558e-08
2.244395786e-08
2.231636137e-08
2.222373531e-08
2.214633261e-08
2.210683964e-08
2.208143426e-08
2.208897359e-08
2.210422776e-08
2.21523269e-08
2.221765661e-08
2.233577172e-08
2.24945272e-08
2.272624659e-08
2.300835072e-08
2.336298526e-08
2.376005205e-08
2.422260272e-08
2.472655715e-08
2.53066305e-08
2.594895871e-08
2.669688097e-08
2.753740069e-08
2.850890435e-08
2.958382279e-08
3.078212911e-08
3.205420322e-08
3.340374087e-08
3.477099065e-08
3.616080906e-08
3.751754316e-08
3.884933236e-08
4.009044486e-08
4.122774035e-08
4.216379049e-08
4.286099751e-08
4.321172831e-08
4.319264898e-08
4.272249424e-08
4.180761771e-08
4.03805884e-08
3.844840206e-08
3.593487462e-08
3.285177535e-08
2.91483731e-08
2.488914446e-08
2.008344305e-08
1.484857795e-08
9.217850488e-09
3.306820787e-09
-2.872328124e-09
-9.220935856e-09
-1.573008791e-08
-2.228428569e-08
-2.885263393e-08
-3.530685917e-08
-4.163245042e-08
-4.775038917e-08
-5.372582541e-08
-5.957284186e-08
-6.544630186e-08
-7.143122091e-08
-7.773170208e-08
-8.446917777e-08
-9.188959101e-08
-1.001834971e-07
-1.09705664e-07
-1.208010468e-07
-1.340154002e-07
-1.499172331e-07
-1.693011003e-07
-1.930190068e-07
-2.22187201e-07
-2.580284778e-07
-3.020723259e-07
-3.559987807e-07
-4.218290601e-07
-5.017873594e-07
-5.984870835e-07
-7.14789906e-07
-8.539231133e-07
-1.019258748e-06
-1.214339033e-06
-1.442650934e-06
-1.707706247e-06
-2.012897026e-06
-2.361560982e-06
-2.756799875e-06
-3.20143511e-06
-3.697800836e-06
-4.247339937e-06
-4.850238371e-06
-5.508056975e-06
-6.259220959e-06
-7.390508936e-06
-4.075167474e-06
2.936582716e-08
6.131166262e-08
5.843667167e-08
5.669480807e-08
5.328463506e-08
4.996297614e-08
4.683438431e-08
4.384791596e-08
4.107790311e-08
3.847480953e-08
3.611551175e-08
3.394505332e-08
3.203525643e-08
3.031979746e-08
2.886071145e-08
2.75785147e-08
2.652711278e-08
2.561873547e-08
2.490641476e-08
2.430008952e-08
2.385525737e-08
2.347898294e-08
2.322674976e-08
2.300222336e-08
2.286488695e-08
2.272329715e-08
2.264994427e-08
2.256231122e-08
2.254275115e-08
2.250786218e-08
2.253971649e-08
2.254903493e-08
2.262097191e-08
2.266965046e-08
2.279200398e-08
2.290699097e-08
2.311620052e-08
2.333100679e-08
2.364672772e-08
2.396284569e-08
2.437362829e-08
2.477704335e-08
2.527752806e-08
2.577887202e-08
2.639744301e-08
2.703865672e-08
2.782257026e-08
2.86449767e-08
2.96178069e-08
3.061667083e-08
3.174027378e-08
3.284616991e-08
3.403030552e-08
3.514650312e-08
3.629907321e-08
3.733782594e-08
3.836180882e-08
3.919476488e-08
3.991351849e-08
4.031627022e-08
4.048004738e-08
4.021307553e-08
3.962298406e-08
3.853721142e-08
3.707790855e-08
3.506351745e-08
3.261165923e-08
2.953966996e-08
2.599474241e-08
2.183762219e-08
1.727285413e-08
1.220062912e-08
6.846297076e-09
1.10206503e-09
-4.82132952e-09
-1.104433485e-08
-1.734903396e-08
-2.383559266e-08
-3.026150647e-08
-3.671678382e-08
-4.297591063e-08
-4.917498768e-08
-5.516018548e-08
-6.114570856e-08
-6.705506954e-08
-7.316059824e-08
-7.943567738e-08
-8.619088122e-08
-9.345787821e-08
-1.016248943e-07
-1.108506632e-07
-1.216799869e-07
-1.344754077e-07
-1.500016957e-07
-1.688836269e-07
-1.921665699e-07
-2.208121829e-07
-2.562299233e-07
-2.998045694e-07
-3.533845374e-07
-4.188499647e-07
-4.985696144e-07
-5.950221735e-07
-7.111966464e-07
-8.50198276e-07
-1.01551026e-06
-1.210560246e-06
-1.438926713e-06
-1.704025485e-06
-2.00933856e-06
-2.358144361e-06
-2.75362952e-06
-3.198639902e-06
-3.69560521e-06
-4.246234863e-06
-4.850930106e-06
-5.51305234e-06
-6.270345993e-06
-7.44998182e-06
-4.121606143e-06
2.924243121e-08
6.1047659e-08
5.816992302e-08
5.654704093e-08
5.317464717e-08
4.991297617e-08
4.678360376e-08
4.383623711e-08
4.105405496e-08
3.848565215e-08
3.611111748e-08
3.397503458e-08
3.204876605e-08
3.036774386e-08
2.889108554e-08
2.764367846e-08
2.657455928e-08
2.570326074e-08
2.497467441e-08
2.440865007e-08
2.394840274e-08
2.361356591e-08
2.334483443e-08
2.316288662e-08
2.301063627e-08
2.291702243e-08
2.283360826e-08
2.279957084e-08
2.27708382e-08
2.278888453e-08
2.28068104e-08
2.28665373e-08
2.292247682e-08
2.302385426e-08
2.313054934e-08
2.329730557e-08
2.348145707e-08
2.373357543e-08
2.400245817e-08
2.433547704e-08
2.467943822e-08
2.508746509e-08
2.551115164e-08
2.601150834e-08
2.65423299e-08
2.716741702e-08
2.783624558e-08
2.860876292e-08
2.942348262e-08
3.033092872e-08
3.125551095e-08
3.223990148e-08
3.320074017e-08
3.418160904e-08
3.509676812e-08
3.598800364e-08
3.675509273e-08
3.742243582e-08
3.786616042e-08
3.809962844e-08
3.799782638e-08
3.75921614e-08
3.67771657e-08
3.560315387e-08
3.396618763e-08
3.191186573e-08
2.932716716e-08
2.626631e-08
2.264113982e-08
1.855061262e-08
1.394988691e-08
8.971686187e-09
3.581347619e-09
-2.09168731e-09
-8.091034361e-09
-1.428428672e-08
-2.069905693e-08
-2.717720954e-08
-3.372652768e-08
-4.018738642e-08
-4.659156047e-08
-5.282693092e-08
-5.898573602e-08
-6.502088904e-08
-7.108231417e-08
-7.717616734e-08
-8.349889215e-08
-9.011229668e-08
-9.728151467e-08
-1.051688718e-07
-1.141679911e-07
-1.246091747e-07
-1.370789761e-07
-1.521370042e-07
-1.70623876e-07
-1.933981131e-07
-2.216331013e-07
-2.565708012e-07
-2.997941401e-07
-3.529944742e-07
-4.18226319e-07
-4.97710109e-07
-5.940787092e-07
-7.101894587e-07
-8.492868567e-07
-1.01473897e-06
-1.210091253e-06
-1.438819715e-06
-1.704442124e-06
-2.010376308e-06
-2.360009277e-06
-2.756525253e-06
-3.202901549e-06
-3.701714897e-06
-4.254917533e-06
-4.863588243e-06
-5.531598697e-06
-6.298810155e-06
-7.496293711e-06
-4.150911536e-06
2.915128534e-08
6.082961833e-08
5.798292452e-08
5.638647501e-08
5.306829092e-08
4.98250265e-08
4.673237236e-08
4.378812134e-08
4.10335762e-08
3.846245798e-08
3.611270177e-08
3.397147761e-08
3.206875449e-08
3.038066107e-08
2.892625899e-08
2.767032333e-08
2.662375173e-08
2.574459507e-08
2.504116983e-08
2.446870286e-08
2.403462419e-08
2.369230037e-08
2.3449118e-08
2.325930273e-08
2.313587254e-08
2.30394036e-08
2.299158982e-08
2.295873078e-08
2.296687672e-08
2.298241024e-08
2.303279763e-08
2.308574153e-08
2.317422101e-08
2.327030838e-08
2.341151044e-08
2.356871078e-08
2.377634316e-08
2.399889087e-08
2.426825417e-08
2.454816644e-08
2.487589983e-08
2.522003375e-08
2.562386403e-08
2.605641616e-08
2.656067981e-08
2.710059934e-08
2.771596399e-08
2.836490496e-08
2.908384527e-08
2.982409956e-08
3.0616984e-08
3.140572594e-08
3.221727717e-08
3.298815061e-08
3.374099829e-08
3.440161215e-08
3.49807155e-08
3.538651138e-08
3.561817217e-08
3.557753038e-08
3.527180118e-08
3.461567037e-08
3.363284647e-08
3.224407356e-08
3.047228217e-08
2.822937802e-08
2.553750696e-08
2.231900339e-08
1.86254558e-08
1.441517806e-08
9.775223837e-09
4.684073472e-09
-7.634731116e-10
-6.589621275e-09
-1.269378558e-08
-1.908133042e-08
-2.562376633e-08
-3.230043222e-08
-3.897085644e-08
-4.562472666e-08
-5.215341127e-08
-5.85909704e-08
-6.487721687e-08
-7.109080114e-08
-7.721607316e-08
-8.337725855e-08
-8.961617227e-08
-9.612736407e-08
-1.030450146e-07
-1.106744973e-07
-1.192889205e-07
-1.293546659e-07
-1.41339387e-07
-1.559321078e-07
-1.738667294e-07
-1.961353251e-07
-2.238229807e-07
-2.583039739e-07
-3.010809986e-07
-3.539626948e-07
-4.189234761e-07
-4.982851336e-07
-5.946077915e-07
-7.108421942e-07
-8.50172356e-07
-1.016049437e-06
-1.211963382e-06
-1.441459559e-06
-1.7080171e-06
-2.015131587e-06
-2.366194724e-06
-2.764491354e-06
-3.213079345e-06
-3.714686618e-06
-4.271574763e-06
-4.884920824e-06
-5.559663215e-06
-6.334304503e-06
-7.545350078e-06
-4.177990183e-06
2.908632619e-08
6.068875709e-08
5.782292898e-08
5.624880687e-08
5.294717212e-08
4.973543256e-08
4.665407799e-08
4.373469162e-08
4.098501318e-08
3.843431525e-08
3.608622298e-08
3.396305109e-08
3.205930911e-08
3.038700006e-08
2.892890732e-08
2.768729773e-08
2.663642145e-08
2.57728768e-08
2.506637258e-08
2.451087208e-08
2.407328046e-08
2.374656191e-08
2.349815275e-08
2.332485359e-08
2.319938003e-08
2.31257571e-08
2.308209319e-08
2.307619649e-08
2.308767381e-08
2.312638615e-08
2.317480193e-08
2.324849284e-08
2.33351709e-08
2.345451841e-08
2.359334638e-08
2.376750413e-08
2.395735084e-08
2.417529426e-08
2.440211206e-08
2.465672635e-08
2.492748667e-08
2.524035665e-08
2.558483243e-08
2.598369682e-08
2.641842183e-08
2.690492173e-08
2.741888315e-08
2.797521687e-08
2.854940106e-08
2.915715294e-08
2.977129774e-08
3.040303096e-08
3.101645892e-08
3.161336209e-08
3.214534433e-08
3.260215838e-08
3.292207408e-08
3.308607457e-08
3.302789663e-08
3.273291641e-08
3.214329909e-08
3.125525008e-08
3.001561451e-08
2.841952374e-08
2.640629582e-08
2.396696243e-08
2.104471829e-08
1.764917504e-08
1.375093198e-08
9.389940407e-09
4.558430239e-09
-6.918557322e-10
-6.364439494e-09
-1.239882206e-08
-1.877843261e-08
-2.54100343e-08
-3.224217053e-08
-3.915812582e-08
-4.610519381e-08
-5.298805336e-08
-5.978864842e-08
-6.644793944e-08
-7.297792745e-08
-7.934674626e-08
-8.559876659e-08
-9.175242407e-08
-9.792370662e-08
-1.042253851e-07
-1.108823735e-07
-1.181312262e-07
-1.263330639e-07
-1.358834621e-07
-1.473317321e-07
-1.613044097e-07
-1.786248932e-07
-2.002424576e-07
-2.273398092e-07
-2.612579833e-07
-3.035885213e-07
-3.56102984e-07
-4.20849857e-07
-5.001134784e-07
-5.965214836e-07
-7.129954377e-07
-8.527824518e-07
-1.019308374e-06
-1.216115926e-06
-1.44672906e-06
-1.714679288e-06
-2.023468216e-06
-2.376562616e-06
-2.777298771e-06
-3.228834257e-06
-3.734033614e-06
-4.295220998e-06
-4.914010371e-06
-5.594659409e-06
-6.377709754e-06
-7.597761093e-06
-4.206950733e-06
2.90317128e-08
6.055834976e-08
5.768676029e-08
5.611279888e-08
5.282935392e-08
4.963045658e-08
4.656919965e-08
4.366006604e-08
4.092736957e-08
3.838380472e-08
3.604968246e-08
3.393090243e-08
3.203842003e-08
3.036723612e-08
2.891767837e-08
2.767508102e-08
2.663218274e-08
2.57680025e-08
2.507062391e-08
2.451456933e-08
2.408517218e-08
2.375603271e-08
2.3514862e-08
2.334030097e-08
2.322661948e-08
2.315775952e-08
2.313144733e-08
2.313270902e-08
2.316037699e-08
2.320226864e-08
2.326339347e-08
2.333874349e-08
2.343934074e-08
2.35609931e-08
2.371057504e-08
2.387627806e-08
2.405880407e-08
2.424534319e-08
2.444284915e-08
2.464870474e-08
2.488047156e-08
2.514020341e-08
2.544290074e-08
2.578086153e-08
2.615763112e-08
2.655599238e-08
2.697621629e-08
2.740307231e-08
2.784239684e-08
2.828289992e-08
2.873046512e-08
2.916743319e-08
2.958854332e-08
2.996101051e-08
3.026437841e-08
3.045215658e-08
3.04958369e-08
3.034704549e-08
2.998291673e-08
2.936403599e-08
2.847633067e-08
2.728286989e-08
2.576528316e-08
2.387673542e-08
2.159100967e-08
1.88609826e-08
1.56729899e-08
1.200189357e-08
7.860010149e-09
3.242172643e-09
-1.828547614e-09
-7.35424454e-09
-1.330587066e-08
-1.966685541e-08
-2.637291049e-08
-3.336299818e-08
-4.053456844e-08
-4.780928571e-08
-5.509294096e-08
-6.233371861e-08
-6.946681231e-08
-7.646049725e-08
-8.326037951e-08
-8.984650662e-08
-9.619583911e-08
-1.023506676e-07
-1.083826468e-07
-1.144495461e-07
-1.207476659e-07
-1.275605734e-07
-1.352180074e-07
-1.441574132e-07
-1.549014836e-07
-1.681299066e-07
-1.846609226e-07
-2.055135715e-07
-2.318788868e-07
-2.651656805e-07
-3.069679969e-07
-3.591107831e-07
-4.236376277e-07
-5.028796163e-07
-5.994620003e-07
-7.16350744e-07
-8.567917483e-07
-1.024248064e-06
-1.222258298e-06
-1.454379318e-06
-1.724151298e-06
-2.035125002e-06
-2.390807293e-06
-2.794604708e-06
-3.249752969e-06
-3.759167875e-06
-4.325369773e-06
-4.949679762e-06
-5.637266201e-06
-6.426244145e-06
-7.657610848e-06
-4.239548679e-06
2.897277865e-08
6.042991004e-08
5.755105073e-08
5.597952602e-08
5.270404038e-08
4.951964246e-08
4.64696937e-08
4.357532145e-08
4.085239381e-08
3.832138113e-08
3.599466588e-08
3.38855749e-08
3.199712619e-08
3.033224932e-08
2.888349478e-08
2.764518024e-08
2.66021555e-08
2.574246783e-08
2.504495897e-08
2.449273754e-08
2.406163085e-08
2.373467723e-08
2.349147121e-08
2.332149954e-08
2.321044467e-08
2.315183358e-08
2.313228401e-08
2.314499762e-08
2.317769626e-08
2.322839405e-08
2.32926203e-08
2.337687917e-08
2.348113144e-08
2.360982187e-08
2.375523516e-08
2.391322582e-08
2.40713122e-08
2.42286955e-08
2.438340592e-08
2.454807279e-08
2.47302603e-08
2.494404479e-08
2.518857161e-08
2.546414082e-08
2.575610795e-08
2.605686522e-08
2.635162856e-08
2.663920431e-08
2.691295192e-08
2.71770116e-08
2.74232362e-08
2.764718735e-08
2.782596638e-08
2.793803192e-08
2.79445538e-08
2.781385079e-08
2.750496161e-08
2.699307861e-08
2.62491468e-08
2.525992458e-08
2.400057044e-08
2.245242224e-08
2.057712964e-08
1.83422362e-08
1.570278252e-08
1.263294122e-08
9.105933912e-09
5.120026926e-09
6.681563817e-10
-4.241879443e-09
-9.618083178e-09
-1.545465928e-08
-2.175022172e-08
-2.846934266e-08
-3.556290216e-08
-4.294404032e-08
-5.052671437e-08
-5.821344525e-08
-6.593122269e-08
-7.360447239e-08
-8.117365504e-08
-8.856075972e-08
-9.569674684e-08
-1.025083917e-07
-1.089663498e-07
-1.150814791e-07
-1.209434697e-07
-1.266976918e-07
-1.32564925e-07
-1.388145829e-07
-1.457964553e-07
-1.539374439e-07
-1.637940107e-07
-1.76059737e-07
-1.916119453e-07
-2.115036695e-07
-2.369900661e-07
-2.695094878e-07
-3.107056816e-07
-3.624215773e-07
-4.267411624e-07
-5.060107528e-07
-6.028928911e-07
-7.203666472e-07
-8.617066054e-07
-1.030380716e-06
-1.22994896e-06
-1.463975669e-06
-1.736031414e-06
-2.049695937e-06
-2.408527272e-06
-2.815986626e-06
-3.275359673e-06
-3.789657415e-06
-4.361307649e-06
-4.992026901e-06
-5.685862407e-06
-6.483861112e-06
-7.724830875e-06
-4.276728426e-06
2.890973746e-08
6.029094164e-08
5.74107998e-08
5.583892911e-08
5.25725264e-08
4.939790014e-08
4.636039682e-08
4.347647329e-08
4.07654133e-08
3.824339321e-08
3.592610146e-08
3.382303004e-08
3.194052759e-08
3.027802638e-08
2.883219488e-08
2.759400356e-08
2.655278438e-08
2.569254047e-08
2.499612587e-08
2.444184706e-08
2.400994414e-08
2.367991669e-08
2.34368519e-08
2.326691932e-08
2.316071174e-08
2.310654913e-08
2.309433296e-08
2.311162133e-08
2.315026709e-08
2.320424702e-08
2.327473693e-08
2.336311233e-08
2.347254289e-08
2.359937254e-08
2.373750821e-08
2.387520326e-08
2.400536828e-08
2.41239248e-08
2.42375955e-08
2.435561963e-08
2.4490988e-08
2.46485716e-08
2.482826963e-08
2.501872539e-08
2.520754398e-08
2.537926653e-08
2.552595352e-08
2.564117088e-08
2.572517517e-08
2.577423491e-08
2.578377696e-08
2.573837423e-08
2.561766363e-08
2.539015744e-08
2.502350606e-08
2.448198714e-08
2.373880002e-08
2.277158645e-08
2.156918077e-08
2.011916051e-08
1.840907019e-08
1.641338637e-08
1.410130245e-08
1.143285069e-08
8.375158357e-09
4.900131645e-09
9.962810112e-10
-3.343946982e-09
-8.121318515e-09
-1.334633201e-08
-1.903059585e-08
-2.518992646e-08
-3.182195913e-08
-3.890327142e-08
-4.637599273e-08
-5.416337969e-08
-6.217489815e-08
-7.032700885e-08
-7.853800026e-08
-8.672920919e-08
-9.480549398e-08
-1.026585605e-07
-1.101675249e-07
-1.172303677e-07
-1.237845155e-07
-1.298386456e-07
-1.354722505e-07
-1.408399296e-07
-1.461528563e-07
-1.516858437e-07
-1.577819343e-07
-1.648888953e-07
-1.735856778e-07
-1.846212259e-07
-1.989248276e-07
-2.176194526e-07
-2.420121713e-07
-2.735982536e-07
-3.14058664e-07
-3.652808973e-07
-4.293801797e-07
-5.087427618e-07
-6.060563679e-07
-7.243268122e-07
-8.66838709e-07
-1.037071645e-06
-1.238588588e-06
-1.474968598e-06
-1.749799307e-06
-2.066693964e-06
-2.42924939e-06
-2.840971582e-06
-3.305206942e-06
-3.824963213e-06
-4.40284995e-06
-5.040135163e-06
-5.742070525e-06
-6.546786476e-06
-7.801891392e-06
-4.318922867e-06
2.883944941e-08
6.013932538e-08
5.725926922e-08
5.56887588e-08
5.243021883e-08
4.926577628e-08
4.623853583e-08
4.336587356e-08
4.066459172e-08
3.815219449e-08
3.584244077e-08
3.37458853e-08
3.186724402e-08
3.02075432e-08
2.876246434e-08
2.752494027e-08
2.648295307e-08
2.562209587e-08
2.492318318e-08
2.43662223e-08
2.39300875e-08
2.359714e-08
2.335184994e-08
2.31827949e-08
2.307848938e-08
2.302817738e-08
2.301883564e-08
2.303935231e-08
2.308029043e-08
2.313834638e-08
2.321272707e-08
2.33055808e-08
2.341513247e-08
2.353598235e-08
2.365711207e-08
2.376840473e-08
2.386223805e-08
2.394017963e-08
2.400918177e-08
2.408106512e-08
2.416294089e-08
2.425605019e-08
2.435109103e-08
2.44340848e-08
2.4487907e-08
2.450029712e-08
2.446209047e-08
2.436998928e-08
2.42193578e-08
2.400433104e-08
2.371129418e-08
2.332146439e-08
2.280762408e-08
2.2140104e-08
2.128663552e-08
2.022106149e-08
1.892353451e-08
1.738580783e-08
1.560425143e-08
1.357760197e-08
1.129568452e-08
8.740226412e-09
5.881773709e-09
2.690846802e-09
-8.597238808e-10
-4.784616186e-09
-9.09216829e-09
-1.378481289e-08
-1.887318213e-08
-2.437639214e-08
-3.032537484e-08
-3.674721025e-08
-4.365427845e-08
-5.10284439e-08
-5.882388926e-08
-6.697258631e-08
-7.540047433e-08
-8.403031152e-08
-9.27799916e-08
-1.015460835e-07
-1.10196373e-07
-1.185681463e-07
-1.264921531e-07
-1.338218455e-07
-1.404713023e-07
-1.46430994e-07
-1.517746938e-07
-1.566434714e-07
-1.612402276e-07
-1.658281427e-07
-1.707584988e-07
-1.765015817e-07
-1.836892343e-07
-1.931355013e-07
-2.058504471e-07
-2.23030659e-07
-2.46053874e-07
-2.764731927e-07
-3.160262042e-07
-3.666500699e-07
-4.30511772e-07
-5.100388952e-07
-6.079524262e-07
-7.272741652e-07
-8.712942535e-07
-1.043487946e-06
-1.247415974e-06
-1.4866587e-06
-1.764817461e-06
-2.085526762e-06
-2.452415551e-06
-2.86903163e-06
-3.338750248e-06
-3.86467483e-06
-4.449281136e-06
-5.094347923e-06
-5.803784813e-06
-6.619693727e-06
-7.88719888e-06
-4.366425452e-06
2.876136689e-08
5.997142406e-08
5.709417898e-08
5.552538384e-08
5.227574288e-08
4.912112995e-08
4.610452414e-08
4.324201428e-08
4.055084243e-08
3.804717989e-08
3.574495994e-08
3.365369127e-08
3.177869361e-08
3.01206687e-08
2.867627258e-08
2.743807797e-08
2.639497398e-08
2.553130476e-08
2.482877073e-08
2.426669631e-08
2.382568634e-08
2.348832884e-08
2.324095627e-08
2.307135221e-08
2.296824399e-08
2.291887288e-08
2.291055689e-08
2.29314688e-08
2.297407097e-08
2.303466695e-08
2.31129067e-08
2.320722968e-08
2.331303927e-08
2.342048027e-08
2.351793417e-08
2.359508106e-08
2.364876415e-08
2.368267008e-08
2.37061115e-08
2.372686142e-08
2.374683616e-08
2.37580295e-08
2.37450925e-08
2.368902261e-08
2.357351316e-08
2.338659774e-08
2.312119029e-08
2.277049569e-08
2.232523808e-08
2.176996299e-08
2.108366376e-08
2.023990721e-08
1.921000449e-08
1.796479507e-08
1.647934626e-08
1.473585557e-08
1.272766061e-08
1.045768315e-08
7.935315935e-09
5.168106888e-09
2.157046833e-09
-1.107122029e-09
-4.639151417e-09
-8.455073228e-09
-1.256453169e-08
-1.697112154e-08
-2.167429884e-08
-2.667951771e-08
-3.200580602e-08
-3.769058737e-08
-4.378380249e-08
-5.033349102e-08
-5.736946302e-08
-6.489296367e-08
-7.287911238e-08
-8.128568257e-08
-9.006143145e-08
-9.914226493e-08
-1.084375831e-07
-1.178125565e-07
-1.270809763e-07
-1.360181269e-07
-1.44393039e-07
-1.520118838e-07
-1.587520318e-07
-1.645794598e-07
-1.695423247e-07
-1.737579863e-07
-1.774049937e-07
-1.80738187e-07
-1.841209867e-07
-1.880704145e-07
-1.932902454e-07
-2.006884447e-07
-2.113701541e-07
-2.266236299e-07
-2.479070904e-07
-2.768486742e-07
-3.152582355e-07
-3.651454153e-07
-4.287428067e-07
-5.085302802e-07
-6.072591974e-07
-7.27958577e-07
-8.739068253e-07
-1.048558781e-06
-1.255455033e-06
-1.498163822e-06
-1.780284277e-06
-2.10546049e-06
-2.47734291e-06
-2.899508881e-06
-3.375396025e-06
-3.908105199e-06
-4.500357634e-06
-5.153428228e-06
-5.872816683e-06
-6.697189188e-06
-7.982843322e-06
-4.419214117e-06
2.867477537e-08
5.978614806e-08
5.691319529e-08
5.53470382e-08
5.210709266e-08
4.896301686e-08
4.595702209e-08
4.310521271e-08
4.04237776e-08
3.79288197e-08
3.563337983e-08
3.354707965e-08
3.167512192e-08
3.001843171e-08
2.857407269e-08
2.733489081e-08
2.628934506e-08
2.542199751e-08
2.471398036e-08
2.414572622e-08
2.369869313e-08
2.335679523e-08
2.310665846e-08
2.293615346e-08
2.283243926e-08
2.27823701e-08
2.277261822e-08
2.279279789e-08
2.283584474e-08
2.289871589e-08
2.297873765e-08
2.307155314e-08
2.316777916e-08
2.325533213e-08
2.332181411e-08
2.336011444e-08
2.33701216e-08
2.33585102e-08
2.333243846e-08
2.329442801e-08
2.323684229e-08
2.31431786e-08
2.299117708e-08
2.276006473e-08
2.243360453e-08
2.200112213e-08
2.145290865e-08
2.077630316e-08
1.99515353e-08
1.89523718e-08
1.774787212e-08
1.630640062e-08
1.459802598e-08
1.259815197e-08
1.028972859e-08
7.667169752e-09
4.737235056e-09
1.518343974e-09
-1.965344615e-09
-5.689575065e-09
-9.636091193e-09
-1.379227735e-08
-1.814971568e-08
-2.269856852e-08
-2.742666746e-08
-3.232058723e-08
-3.737335416e-08
-4.25945118e-08
-4.801820929e-08
-5.370560748e-08
-5.973348483e-08
-6.617880416e-08
-7.309991244e-08
-8.053160448e-08
-8.848691529e-08
-9.696537437e-08
-1.059499149e-07
-1.153928602e-07
-1.251916461e-07
-1.351698041e-07
-1.450769612e-07
-1.546133429e-07
-1.634760659e-07
-1.714075209e-07
-1.782330654e-07
-1.838710208e-07
-1.883248531e-07
-1.916684853e-07
-1.940485648e-07
-1.957111159e-07
-1.970487906e-07
-1.986470023e-07
-2.01311975e-07
-2.060689077e-07
-2.141410054e-07
-2.269239321e-07
-2.45975548e-07
-2.73022437e-07
-3.099756682e-07
-3.589457545e-07
-4.222519452e-07
-5.024344403e-07
-6.022678487e-07
-7.247707696e-07
-8.731859967e-07
-1.050922759e-06
-1.261476218e-06
-1.508378491e-06
-1.795203426e-06
-2.1255859e-06
-2.503183389e-06
-2.931609071e-06
-3.414336241e-06
-3.954605107e-06
-4.555020868e-06
-5.217547911e-06
-5.94614834e-06
-6.784544246e-06
-8.086094495e-06
-4.477212576e-06
2.85790417e-08
5.958164495e-08
5.671461823e-08
5.515197923e-08
5.192298222e-08
4.879018066e-08
4.579561356e-08
4.295462736e-08
4.028320551e-08
3.779674948e-08
3.550800907e-08
3.34263305e-08
3.155707427e-08
2.990142971e-08
2.845690626e-08
2.721606778e-08
2.616739381e-08
2.529502353e-08
2.458061908e-08
2.400527627e-08
2.35517712e-08
2.320509851e-08
2.295197659e-08
2.277942869e-08
2.267387035e-08
2.26212324e-08
2.260889526e-08
2.262728014e-08
2.267043787e-08
2.273419176e-08
2.281370762e-08
2.290008391e-08
2.298088567e-08
2.304188637e-08
2.307235824e-08
2.306831665e-08
2.303305571e-08
2.29728661e-08
2.28907938e-08
2.278023106e-08
2.262351275e-08
2.239492547e-08
2.206776035e-08
2.161957683e-08
2.103439422e-08
2.029889924e-08
1.939689722e-08
1.830399052e-08
1.698687396e-08
1.540607332e-08
1.352144351e-08
1.129656794e-08
8.702441418e-09
5.719530651e-09
2.340803528e-09
-1.426013735e-09
-5.556803595e-09
-1.001354338e-08
-1.474884432e-08
-1.971255103e-08
-2.485504827e-08
-3.012905966e-08
-3.54879929e-08
-4.088601552e-08
-4.628049312e-08
-5.163793676e-08
-5.694541208e-08
-6.222011325e-08
-6.751925644e-08
-7.293434854e-08
-7.858055949e-08
-8.457324825e-08
-9.101607323e-08
-9.799426897e-08
-1.055806402e-07
-1.138336867e-07
-1.227845123e-07
-1.324073765e-07
-1.425879382e-07
-1.53104017e-07
-1.636327225e-07
-1.737875879e-07
-1.831738679e-07
-1.914454596e-07
-1.983432968e-07
-2.03708592e-07
-2.074735215e-07
-2.096513113e-07
-2.103484125e-07
-2.098071944e-07
-2.084659963e-07
-2.070065414e-07
-2.063678454e-07
-2.077224258e-07
-2.124356461e-07
-2.220344271e-07
-2.382039585e-07
-2.628055992e-07
-2.978943568e-07
-3.457200262e-07
-4.087145177e-07
-4.894828975e-07
-5.908106007e-07
-7.156781089e-07
-8.672584476e-07
-1.04887731e-06
-1.263947824e-06
-1.515928823e-06
-1.808337382e-06
-2.144771921e-06
-2.528885962e-06
-2.964317098e-06
-3.454629725e-06
-4.003099725e-06
-4.612688007e-06
-5.284836665e-06
-6.025530837e-06
-6.874512748e-06
-8.198726934e-06
-4.539972726e-06
2.847363563e-08
5.935724468e-08
5.649741635e-08
5.493908217e-08
5.172219311e-08
4.860171263e-08
4.561935911e-08
4.278974897e-08
4.012871717e-08
3.765078421e-08
3.53687291e-08
3.329149918e-08
3.142484531e-08
2.97702664e-08
2.832525072e-08
2.708242566e-08
2.602981653e-08
2.515168599e-08
2.443003774e-08
2.384725445e-08
2.338717392e-08
2.303559046e-08
2.277897218e-08
2.260357998e-08
2.249474486e-08
2.243846721e-08
2.242267363e-08
2.243892943e-08
2.248130063e-08
2.254435172e-08
2.261950877e-08
2.269435021e-08
2.275333409e-08
2.278256225e-08
2.277343694e-08
2.272543111e-08
2.264290047e-08
2.25295155e-08
2.238012648e-08
2.217754215e-08
2.189332577e-08
2.149449953e-08
2.095053182e-08
2.023769797e-08
1.933675717e-08
1.822712236e-08
1.68795025e-08
1.525314655e-08
1.329773578e-08
1.095999239e-08
8.190270142e-09
4.948141739e-09
1.205003512e-09
-3.053044952e-09
-7.822515236e-09
-1.307886174e-08
-1.877574436e-08
-2.484633886e-08
-3.120891957e-08
-3.777149075e-08
-4.443656812e-08
-5.110347033e-08
-5.767143283e-08
-6.404541289e-08
-7.014299866e-08
-7.590787954e-08
-8.132048609e-08
-8.641348055e-08
-9.127260349e-08
-9.603277164e-08
-1.008553056e-07
-1.059104389e-07
-1.113626924e-07
-1.17371749e-07
-1.240926179e-07
-1.316654543e-07
-1.401865224e-07
-1.496656593e-07
-1.599865422e-07
-1.708861055e-07
-1.819672118e-07
-1.927417106e-07
-2.026927828e-07
-2.113404041e-07
-2.182926134e-07
-2.232719528e-07
-2.261118052e-07
-2.267495597e-07
-2.252440562e-07
-2.218378678e-07
-2.170295572e-07
-2.116251303e-07
-2.067308638e-07
-2.037036345e-07
-2.04084625e-07
-2.095652563e-07
-2.219979917e-07
-2.434319331e-07
-2.761268313e-07
-3.225243778e-07
-3.851994541e-07
-4.668245247e-07
-5.701724194e-07
-6.981451701e-07
-8.537971482e-07
-1.040317839e-06
-1.260984301e-06
-1.519131207e-06
-1.818172636e-06
-2.161639723e-06
-2.553161085e-06
-2.996414975e-06
-3.495031858e-06
-4.052504367e-06
-4.671727865e-06
-5.355057386e-06
-6.106759283e-06
-6.972844252e-06
-8.316666053e-06
-4.606943984e-06
2.835797202e-08
5.911133678e-08
5.626021076e-08
5.470708612e-08
5.150365102e-08
4.839690774e-08
4.542753301e-08
4.261021977e-08
3.995981287e-08
3.749084733e-08
3.521539902e-08
3.314276134e-08
3.127878066e-08
2.962528429e-08
2.817973186e-08
2.693451436e-08
2.587750082e-08
2.499287626e-08
2.426381287e-08
2.367336278e-08
2.320690607e-08
2.285024749e-08
2.25897196e-08
2.241049073e-08
2.229745782e-08
2.223664353e-08
2.221709713e-08
2.223088073e-08
2.227157231e-08
2.233102761e-08
2.239747806e-08
2.245492794e-08
2.248690463e-08
2.248032359e-08
2.242991689e-08
2.233680283e-08
2.220426186e-08
2.202910477e-08
2.179610773e-08
2.147596525e-08
2.10308342e-08
2.042153314e-08
1.961453511e-08
1.858194193e-08
1.729662058e-08
1.572340818e-08
1.381389447e-08
1.150586096e-08
8.729824547e-09
5.417147179e-09
1.508150766e-09
-3.043485541e-09
-8.267085015e-09
-1.417195938e-08
-2.07420676e-08
-2.79319854e-08
-3.566402624e-08
-4.383067888e-08
-5.229838349e-08
-6.091358632e-08
-6.950823069e-08
-7.790605692e-08
-8.593325893e-08
-9.342904357e-08
-1.002635341e-07
-1.06350848e-07
-1.116693451e-07
-1.162689633e-07
-1.202752272e-07
-1.238717831e-07
-1.27280067e-07
-1.307383947e-07
-1.34494756e-07
-1.38808372e-07
-1.439441694e-07
-1.501513111e-07
-1.57618216e-07
-1.664189731e-07
-1.764624377e-07
-1.874667698e-07
-1.989669363e-07
-2.103536798e-07
-2.20937748e-07
-2.300295859e-07
-2.370290536e-07
-2.414865885e-07
-2.431149614e-07
-2.417644726e-07
-2.374394102e-07
-2.303728788e-07
-2.211318815e-07
-2.10670295e-07
-2.00307466e-07
-1.916360252e-07
-1.864242992e-07
-1.865722106e-07
-1.94152233e-07
-2.114741561e-07
-2.41087759e-07
-2.857006033e-07
-3.480684652e-07
-4.309290724e-07
-5.370058477e-07
-6.690646271e-07
-8.299700522e-07
-1.022700528e-06
-1.250321987e-06
-1.515974707e-06
-1.822912471e-06
-2.174555394e-06
-2.57449398e-06
-3.026433723e-06
-3.53414403e-06
-4.101216606e-06
-4.731047065e-06
-5.425483612e-06
-6.191318402e-06
-7.070075656e-06
-8.441102953e-06
-4.677053146e-06
2.823158431e-08
5.884335677e-08
5.600229755e-08
5.445509023e-08
5.126664602e-08
4.817473524e-08
4.521953255e-08
4.241524107e-08
3.977625018e-08
3.731640939e-08
3.504795874e-08
3.298013988e-08
3.11191244e-08
2.94668641e-08
2.802072153e-08
2.677297066e-08
2.571104861e-08
2.481981128e-08
2.408299508e-08
2.348529944e-08
2.301246752e-08
2.26508152e-08
2.238577602e-08
2.220191057e-08
2.208383124e-08
2.201826188e-08
2.199485634e-08
2.200573896e-08
2.204287949e-08
2.20955385e-08
2.214819677e-08
2.21830745e-08
2.21835144e-08
2.213908321e-08
2.204654998e-08
2.19071676e-08
2.171905728e-08
2.146971582e-08
2.113123027e-08
2.066326299e-08
2.001936462e-08
1.915578057e-08
1.803385573e-08
1.661747947e-08
1.486391508e-08
1.271638006e-08
1.010037148e-08
6.928542801e-09
3.10903856e-09
-1.44408802e-09
-6.804178123e-09
-1.302651776e-08
-2.014473508e-08
-2.816373308e-08
-3.705289293e-08
-4.673812955e-08
-5.709934464e-08
-6.79706774e-08
-7.914527245e-08
-9.038215494e-08
-1.014147314e-07
-1.119661682e-07
-1.217650244e-07
-1.305700559e-07
-1.381887962e-07
-1.445035418e-07
-1.494858287e-07
-1.532086477e-07
-1.558382122e-07
-1.576149269e-07
-1.588295539e-07
-1.598064318e-07
-1.609026477e-07
-1.625058091e-07
-1.650246384e-07
-1.688529257e-07
-1.743172142e-07
-1.816074299e-07
-1.907134692e-07
-2.013812145e-07
-2.130972019e-07
-2.25106346e-07
-2.364640247e-07
-2.461492521e-07
-2.532327603e-07
-2.570302825e-07
-2.571236771e-07
-2.532848299e-07
-2.454414781e-07
-2.337887724e-07
-2.189414261e-07
-2.020250045e-07
-1.846338501e-07
-1.686853471e-07
-1.562510415e-07
-1.494949923e-07
-1.50766955e-07
-1.627346384e-07
-1.883636769e-07
-2.30734254e-07
-2.928347153e-07
-3.774566654e-07
-4.872187514e-07
-6.246641065e-07
-7.923683503e-07
-9.929929382e-07
-1.229290084e-06
-1.504113128e-06
-1.820479622e-06
-2.181650703e-06
-2.591147854e-06
-3.052722193e-06