/*--------------------------------*- C++ -*----------------------------------*\
  =========                 |
  \\      /  F ield         | OpenFOAM: The Open Source CFD Toolbox
   \\    /   O peration     | Website:  https://openfoam.org
    \\  /    A nd           | Version:  6
     \\/     M anipulation  |
\*---------------------------------------------------------------------------*/
FoamFile
{
    version     2.0;
    format      ascii;
    class       volScalarField;
    location    "0.0016";
    object      ViscousDissipation;
}
// * * * * * * * * * * * * * * * * * * * * * * * * * * * * * * * * * * * * * //

dimensions      [1 -1 -3 0 0 0 0];

internalField   nonuniform List<scalar> 
9600
(
2.091799756e-21
9.664038409e-21
1.284642464e-20
1.385147755e-20
1.533789059e-20
1.696156209e-20
1.871759179e-20
2.059417447e-20
2.258058687e-20
2.466197729e-20
2.68220825e-20
2.903799532e-20
3.12829481e-20
3.352134349e-20
3.571196017e-20
3.780384289e-20
3.974072296e-20
4.145814068e-20
4.288898934e-20
4.396104786e-20
4.460287158e-20
4.474163869e-20
4.431039999e-20
4.324808644e-20
4.1509562e-20
3.906787179e-20
3.592551582e-20
3.211704004e-20
2.772067847e-20
2.286277233e-20
1.773241896e-20
1.258981524e-20
7.783161739e-21
3.757770389e-21
1.070533073e-21
3.966208532e-22
2.539710956e-21
8.435318173e-21
1.915313472e-20
3.589017343e-20
5.995480761e-20
9.273938352e-20
1.356765571e-19
1.901848901e-19
2.575919347e-19
3.390495061e-19
4.354221494e-19
5.471767215e-19
6.742470794e-19
8.159164365e-19
9.706815977e-19
1.136157426e-18
1.308978183e-18
1.484777273e-18
1.658196533e-18
1.823023038e-18
1.972379046e-18
2.099054565e-18
2.19586843e-18
2.256144293e-18
2.274172074e-18
2.245754473e-18
2.168689597e-18
2.043266505e-18
1.872579066e-18
1.662714759e-18
1.42264247e-18
1.163913842e-18
9.000872118e-19
6.460391886e-19
4.171136383e-19
2.282579208e-19
9.31249167e-20
2.328984191e-20
2.762123072e-20
1.119281217e-19
2.789151345e-19
5.284398149e-19
8.580399384e-19
1.263598906e-18
1.740115547e-18
2.282393892e-18
2.885676576e-18
3.54601645e-18
4.260482991e-18
5.026990639e-18
5.843930886e-18
6.709403066e-18
7.62032317e-18
8.571239102e-18
9.553243931e-18
1.05528506e-17
1.155128238e-17
1.252400384e-17
1.344091323e-17
1.426692991e-17
1.496333453e-17
1.548951503e-17
1.580537546e-17
1.587395787e-17
1.566440381e-17
1.515488522e-17
1.433582871e-17
1.321354164e-17
1.181474559e-17
1.019206295e-17
8.430253883e-18
6.652941335e-18
5.029763167e-18
3.784713448e-18
3.205685435e-18
3.655413687e-18
5.582651945e-18
9.532189343e-18
1.615187091e-17
2.618604121e-17
4.052646979e-17
5.848050465e-17
1.003778114e-16
3.347086173e-17
3.381829359e-21
1.101238737e-20
1.418121444e-20
1.523157829e-20
1.670933524e-20
1.832111127e-20
2.006288584e-20
2.192716867e-20
2.389829874e-20
2.596547875e-20
2.810803947e-20
3.030719543e-20
3.25321194e-20
3.475141443e-20
3.692004276e-20
3.899139391e-20
4.090549848e-20
4.260231956e-20
4.401093226e-20
4.506352242e-20
4.568472799e-20
4.580632693e-20
4.535762493e-20
4.428249544e-20
4.253216476e-20
4.008459953e-20
3.693851801e-20
3.313328502e-20
2.874362676e-20
2.390107687e-20
1.879207949e-20
1.368248412e-20
8.918851555e-21
4.952551209e-21
2.34051375e-21
1.765025999e-21
4.032587487e-21
1.008726025e-20
2.100481844e-20
3.799232789e-20
6.236879416e-20
9.553995724e-20
1.389569192e-19
1.940575418e-19
2.621976029e-19
3.445532367e-19
4.420243582e-19
5.551020008e-19
6.83757143e-19
8.272912919e-19
9.842358387e-19
1.152214111e-18
1.327888832e-18
1.506886799e-18
1.683864465e-18
1.852576568e-18
2.00613396e-18
2.137258859e-18
2.238729065e-18
2.303772478e-18
2.326625556e-18
2.302993199e-18
2.230633481e-18
2.109759459e-18
1.943453843e-18
1.737761989e-18
1.501676e-18
1.246743975e-18
9.865783463e-19
7.360819482e-19
5.106616335e-19
3.252913552e-19
1.936556894e-19
1.273145823e-19
1.350924203e-19
2.227043216e-19
3.927101123e-19
6.447948396e-19
9.762843769e-19
1.382886904e-18
1.859439697e-18
2.400715959e-18
3.002000728e-18
3.659588098e-18
4.370866071e-18
5.134255758e-18
5.94865438e-18
6.812769915e-18
7.723997875e-18
8.677353645e-18
9.664136068e-18
1.067094661e-17
1.167874031e-17
1.266255331e-17
1.359151002e-17
1.442968143e-17
1.513731408e-17
1.567288301e-17
1.59954243e-17
1.606741091e-17
1.585762549e-17
1.534422357e-17
1.451786009e-17
1.338531281e-17
1.197396175e-17
1.033715098e-17
8.560463499e-18
6.768192053e-18
5.130666581e-18
3.872277593e-18
3.28141161e-18
3.721092526e-18
5.640624282e-18
9.585680128e-18
1.620524431e-17
2.624784323e-17
4.061527277e-17
5.864943963e-17
1.017611433e-16
3.421691642e-17
4.255164057e-21
1.186505378e-20
1.506376603e-20
1.615777172e-20
1.765249048e-20
1.926717669e-20
2.101001549e-20
2.287115277e-20
2.484132517e-20
2.690567819e-20
2.904880168e-20
3.124794087e-20
3.34773779e-20
3.570210744e-20
3.788230732e-20
3.996811732e-20
4.190496424e-20
4.362973018e-20
4.507687281e-20
4.617540636e-20
4.685535007e-20
4.704539421e-20
4.668057031e-20
4.570197041e-20
4.406681492e-20
4.175023725e-20
3.875673477e-20
3.512261567e-20
3.092833861e-20
2.630279848e-20
2.143869972e-20
1.660025188e-20
1.214102911e-20
8.51228821e-21
6.279282533e-21
6.126864598e-21
8.872076286e-21
1.546538599e-20
2.699624252e-20
4.468394531e-20
6.986721949e-20
1.039745964e-19
1.484878182e-19
2.048826233e-19
2.745579291e-19
3.587415358e-19
4.583838426e-19
5.740342681e-19
7.057128983e-19
8.527778507e-19
1.013799268e-18
1.186445867e-18
1.367396887e-18
1.552298061e-18
1.735780771e-18
1.911570074e-18
2.072688957e-18
2.211766596e-18
2.32142946e-18
2.394766143e-18
2.425834939e-18
2.410204208e-18
2.345482083e-18
2.231798057e-18
2.072156375e-18
1.872603201e-18
1.642146445e-18
1.392427956e-18
1.137164666e-18
8.91417692e-19
6.707365907e-19
4.902421555e-19
3.637065242e-19
3.027200242e-19
3.160383578e-19
4.09207112e-19
5.845155932e-19
8.412888308e-19
1.17646088e-18
1.585348149e-18
2.062505031e-18
2.602559336e-18
3.200905585e-18
3.854176313e-18
4.560399983e-18
5.318824663e-18
6.12937441e-18
6.991792323e-18
7.904498139e-18
8.863293526e-18
9.860010162e-18
1.088131336e-17
1.190779017e-17
1.291354539e-17
1.386636261e-17
1.472857549e-17
1.545856494e-17
1.601293289e-17
1.634910431e-17
1.642832326e-17
1.621866424e-17
1.569814976e-17
1.485782751e-17
1.370541166e-17
1.226955074e-17
1.060524916e-17
8.799797333e-18
6.979392324e-18
5.316039741e-18
4.035936751e-18
3.429064669e-18
3.860446128e-18
5.781714959e-18
9.742156224e-18
1.639729524e-17
2.650821002e-17
4.101382035e-17
5.932555268e-17
1.032733155e-16
3.479525164e-17
5.28629318e-21
1.287445987e-20
1.609408222e-20
1.722753376e-20
1.874978342e-20
2.038405202e-20
2.213911893e-20
2.401094097e-20
2.599008297e-20
2.806550041e-20
3.0220956e-20
3.243687602e-20
3.468687199e-20
3.693904417e-20
3.915335711e-20
4.128322744e-20
4.327435674e-20
4.506698751e-20
4.659604568e-20
4.779379271e-20
4.859079041e-20
4.891912417e-20
4.871483804e-20
4.792295406e-20
4.650213511e-20
4.443157362e-20
4.17169944e-20
3.839855148e-20
3.455791365e-20
3.032838507e-20
2.590483478e-20
2.15573329e-20
1.764309129e-20
1.462106246e-20
1.306209529e-20
1.366151561e-20
1.724527737e-20
2.477899414e-20
3.736677455e-20
5.625118212e-20
8.279584762e-20
1.184661753e-19
1.647844139e-19
2.232808721e-19
2.954118804e-19
3.824756709e-19
4.854919747e-19
6.050892926e-19
7.413597751e-19
8.93738456e-19
1.060856836e-18
1.240441803e-18
1.429202677e-18
1.622800426e-18
1.815838036e-18
2.001985e-18
2.174152761e-18
2.324828617e-18
2.446444888e-18
2.531884045e-18
2.574972939e-18
2.571073191e-18
2.517597586e-18
2.414539722e-18
2.264806624e-18
2.074425858e-18
1.852436716e-18
1.61059104e-18
1.362756421e-18
1.124194831e-18
9.106557507e-19
7.374444816e-19
6.184451152e-19
5.652615198e-19
5.865273468e-19
6.875198146e-19
8.701250728e-19
1.133154272e-18
1.472991159e-18
1.884426257e-18
2.361639249e-18
2.899102795e-18
3.492404495e-18
4.138727411e-18
4.837066251e-18
5.587943363e-18
6.392821677e-18
7.253028566e-18
8.16850248e-18
9.136224373e-18
1.014875707e-17
1.119280385e-17
1.224828623e-17
1.328782805e-17
1.427710265e-17
1.517578211e-17
1.593941246e-17
1.65217692e-17
1.687788608e-17
1.696716208e-17
1.675669171e-17
1.622429945e-17
1.536177786e-17
1.417825642e-17
1.270454309e-17
1.099816369e-17
9.149358704e-18
7.28726393e-18
5.586964615e-18
4.277566332e-18
3.652230681e-18
4.079425128e-18
6.015280014e-18
1.001553605e-17
1.674569366e-17
2.698627316e-17
4.170585244e-17
6.036203157e-17
1.050341137e-16
3.53833641e-17
6.540649829e-21
1.411695702e-20
1.735632346e-20
1.852421765e-20
2.008032188e-20
2.174272664e-20
2.352237712e-20
2.541579018e-20
2.741692186e-20
2.951541829e-20
3.169794909e-20
3.394561365e-20
3.623471021e-20
3.853433349e-20
4.080730927e-20
4.300860726e-20
4.508707606e-20
4.698494857e-20
4.86403515e-20
4.998763068e-20
5.096057216e-20
5.149372822e-20
5.15269485e-20
5.100849399e-20
4.990145554e-20
4.818849607e-20
4.587962964e-20
4.30182327e-20
3.969047769e-20
3.60337201e-20
3.224902326e-20
2.861247598e-20
2.548972711e-20
2.334769634e-20
2.276814001e-20
2.445727537e-20
2.92567307e-20
3.814938381e-20
5.226435785e-20
7.287290086e-20
1.013784781e-19
1.392917584e-19
1.881942e-19
2.496809063e-19
3.252881202e-19
4.163976383e-19
5.241271348e-19
6.492019463e-19
7.91821243e-19
9.515156282e-19
1.127011897e-18
1.316104051e-18
1.515553372e-18
1.721025569e-18
1.927098801e-18
2.127353753e-18
2.31457387e-18
2.48104698e-18
2.618973211e-18
2.720948045e-18
2.780513409e-18
2.792734782e-18
2.754781463e-18
2.666438119e-18
2.530492727e-18
2.352914027e-18
2.142785296e-18
1.911966164e-18
1.674520175e-18
1.445938632e-18
1.242225454e-18
1.078891277e-18
9.699412615e-19
9.269513667e-19
9.583540577e-19
1.069040111e-18
1.260340014e-18
1.530398966e-18
1.874885456e-18
2.287954595e-18
2.763326356e-18
3.295361039e-18
3.879956847e-18
4.515158486e-18
5.201329598e-18
5.940861629e-18
6.737369708e-18
7.594467352e-18
8.514168431e-18
9.49511218e-18
1.053074771e-17
1.160776492e-17
1.270495668e-17
1.379279908e-17
1.483383924e-17
1.5784021e-17
1.659482568e-17
1.721615964e-17
1.759967793e-17
1.770235188e-17
1.748990981e-17
1.694010465e-17
1.604579475e-17
1.481832989e-17
1.329154872e-17
1.152674327e-17
9.618237764e-18
7.699505957e-18
5.949879072e-18
4.602796082e-18
3.955846444e-18
4.382605388e-18
6.345530664e-18
1.040898593e-17
1.725165641e-17
2.767157814e-17
4.266989788e-17
6.17037949e-17
1.071462653e-16
3.605188535e-17
8.033506794e-21
1.561129568e-20
1.887368739e-20
2.007663285e-20
2.166915711e-20
2.336721056e-20
2.518036458e-20
2.710678679e-20
2.914147599e-20
3.127662572e-20
3.350040177e-20
3.579652013e-20
3.814303489e-20
4.05118638e-20
4.286808108e-20
4.516993394e-20
4.736908685e-20
4.941141272e-20
5.123813181e-20
5.278732279e-20
5.399611162e-20
5.480325006e-20
5.515277907e-20
5.499813517e-20
5.430738811e-20
5.306869615e-20
5.129697327e-20
4.904103217e-20
4.639243551e-20
4.34954596e-20
4.055886382e-20
3.786840272e-20
3.579995161e-20
3.483244892e-20
3.556035214e-20
3.870580733e-20
4.512935457e-20
5.58394193e-20
7.199690629e-20
9.491479891e-20
1.260466346e-19
1.669650736e-19
2.193227454e-19
2.847993327e-19
3.650256468e-19
4.614930288e-19
5.75438242e-19
7.077185766e-19
8.586668362e-19
1.027947972e-18
1.214406034e-18
1.415932384e-18
1.629345853e-18
1.8503303e-18
2.073423309e-18
2.292110601e-18
2.499007517e-18
2.686171809e-18
2.845501575e-18
2.969247852e-18
3.050573992e-18
3.084180461e-18
3.066899866e-18
2.998253188e-18
2.880839685e-18
2.720543978e-18
2.526458494e-18
2.31056063e-18
2.087112269e-18
1.871868546e-18
1.681100499e-18
1.530534366e-18
1.434260584e-18
1.403757763e-18
1.44714187e-18
1.568768385e-18
1.769249208e-18
2.045886838e-18
2.393488816e-18
2.805449348e-18
3.27500305e-18
3.796456339e-18
4.36626499e-18
4.983722935e-18
5.651175887e-18
6.373602498e-18
7.157627995e-18
8.00995161e-18
8.935407546e-18
9.934756007e-18
1.10025456e-17
1.212522787e-17
1.327992314e-17
1.443398548e-17
1.554565115e-17
1.656569867e-17
1.7440149e-17
1.811366806e-17
1.853349242e-17
1.865339591e-17
1.843749366e-17
1.78635753e-17
1.692620089e-17
1.563982752e-17
1.404258949e-17
1.220084825e-17
1.021449937e-17
8.222690174e-18
6.410411445e-18
5.016659946e-18
4.344825796e-18
4.774963592e-18
6.777488128e-18
1.09274099e-17
1.791721156e-17
2.856590128e-17
4.389293459e-17
6.336641971e-17
1.096597877e-16
3.683682905e-17
9.788708719e-21
1.737783169e-20
2.067026783e-20
2.191147933e-20
2.354481018e-20
2.528454513e-20
2.713993923e-20
2.910946265e-20
3.118978655e-20
3.337481139e-20
3.565509306e-20
3.80166126e-20
4.044020949e-20
4.290059043e-20
4.536612688e-20
4.779852992e-20
5.015336009e-20
5.238049512e-20
5.442536926e-20
5.623037426e-20
5.773724432e-20
5.888979691e-20
5.963772955e-20
5.994072417e-20
5.97734171e-20
5.913065301e-20
5.803400879e-20
5.653924956e-20
5.474569003e-20
5.280673032e-20
5.094196024e-20
4.94494926e-20
4.87189393e-20
4.924409319e-20
5.1636322e-20
5.66377719e-20
6.513480701e-20
7.81689963e-20
9.694452513e-20
1.228277827e-19
1.573377346e-19
2.021230758e-19
2.5892569e-19
3.295266859e-19
4.156752566e-19
5.189964682e-19
6.408801836e-19
7.82348746e-19
9.439099222e-19
1.125396993e-18
1.325808736e-18
1.543156804e-18
1.774341367e-18
2.015069306e-18
2.259842997e-18
2.502034787e-18
2.734071103e-18
2.947727852e-18
3.134544824e-18
3.286340468e-18
3.395815214e-18
3.457199062e-18
3.466901326e-18
3.424083638e-18
3.331089594e-18
3.193651005e-18
3.02083463e-18
2.824704034e-18
2.619718195e-18
2.421888537e-18
2.247748982e-18
2.113202239e-18
2.032353471e-18
2.016464931e-18
2.073180522e-18
2.20613819e-18
2.415032489e-18
2.696133912e-18
3.04321495e-18
3.448805036e-18
3.90563866e-18
4.408130471e-18
4.953642754e-18
5.543326407e-18
6.182318865e-18
6.879200435e-18
7.644674658e-18
8.489586522e-18
9.422438557e-18
1.044668681e-17
1.155810718e-17
1.274260914e-17
1.397481732e-17
1.521774518e-17
1.642371418e-17
1.753657584e-17
1.849505793e-17
1.923696614e-17
1.970379765e-17
1.984534357e-17
1.962383656e-17
1.901746235e-17
1.802330701e-17
1.666022694e-17
1.497215717e-17
1.303222126e-17
1.094750803e-17
8.864423184e-18
6.974982999e-18
5.525036449e-18
4.824932795e-18
5.262442702e-18
7.317334271e-18
1.157639329e-17
1.874821591e-17
2.966888898e-17
4.538725517e-17
6.534761463e-17
1.126313935e-16
3.775457637e-17
1.183449409e-20
1.944297293e-20
2.277312834e-20
2.405862666e-20
2.573823238e-20
2.752649344e-20
2.943245005e-20
3.145536597e-20
3.359319836e-20
3.584189643e-20
3.819427873e-20
4.063913173e-20
4.316025249e-20
4.57357876e-20
4.833781656e-20
5.093226013e-20
5.347913918e-20
5.59331571e-20
5.824473312e-20
6.036157817e-20
6.223109212e-20
6.380341901e-20
6.503523316e-20
6.589387975e-20
6.636199783e-20
6.644271196e-20
6.616605094e-20
6.559692257e-20
6.484494489e-20
6.407565207e-20
6.352262664e-20
6.349977984e-20
6.441387671e-20
6.677759219e-20
7.122379579e-20
7.852107639e-20
8.958955639e-20
1.055147553e-19
1.27556345e-19
1.571489134e-19
1.958919356e-19
2.45527855e-19
3.079061472e-19
3.849328294e-19
4.785017638e-19
5.904062309e-19
7.222263962e-19
8.751939071e-19
1.050033708e-18
1.246792396e-18
1.46466056e-18
1.70180698e-18
1.955237914e-18
2.220705538e-18
2.492681245e-18
2.764420186e-18
3.02812877e-18
3.27525575e-18
3.496905264e-18
3.684375109e-18
3.829790346e-18
3.926800927e-18
3.971271858e-18
3.961899786e-18
3.900665685e-18
3.793066222e-18
3.648067675e-18
3.477773499e-18
3.296798157e-18
3.121378021e-18
2.968255907e-18
2.853430357e-18
2.790892034e-18
2.791515622e-18
2.862263288e-18
3.00582038e-18
3.220719854e-18
3.501958194e-18
3.842072861e-18
4.232606261e-18
4.665833259e-18
5.136533116e-18
5.643532366e-18
6.190695666e-18
6.787113503e-18
7.44631676e-18
8.184525061e-18
9.018049144e-18
9.960127353e-18
1.10175306e-17
1.218736505e-17
1.345448016e-17
1.47899104e-17
1.615066396e-17
1.748108149e-17
1.871575236e-17
1.978379871e-17
2.061408409e-17
2.114081144e-17
2.130888239e-17
2.107852728e-17
2.042891804e-17
1.936092096e-17
1.789948142e-17
1.60963249e-17
1.403336422e-17
1.18268399e-17
9.63211784e-18
7.649696613e-18
6.133438976e-18
5.40166569e-18
5.85082132e-18
7.97098621e-18
1.236224199e-17
1.974914322e-17
3.099051556e-17
4.715130764e-17
6.768200121e-17
1.160833396e-16
3.882106692e-17
1.420174042e-20
2.183579388e-20
2.521163192e-20
2.654859244e-20
2.828143883e-20
3.01257782e-20
3.209126226e-20
3.417811041e-20
3.638584765e-20
3.871247874e-20
4.115341549e-20
4.370040927e-20
4.634069638e-20
4.905625326e-20
5.182348108e-20
5.461306009e-20
5.73901976e-20
6.011514352e-20
6.274420643e-20
6.523143154e-20
6.753111204e-20
6.960106395e-20
7.140638874e-20
7.292357569e-20
7.414488418e-20
7.508349715e-20
7.578008508e-20
7.631132307e-20
7.680025743e-20
7.742796672e-20
7.844565837e-20
8.01867546e-20
8.307930853e-20
8.765971084e-20
9.458870343e-20
1.046695395e-19
1.188667681e-19
1.383224636e-19
1.643664045e-19
1.98517057e-19
2.4247194e-19
2.980865182e-19
3.673414312e-19
4.522959095e-19
5.550241127e-19
6.775286945e-19
8.216274474e-19
9.888104076e-19
1.180070938e-18
1.395717853e-18
1.635182409e-18
1.896834555e-18
2.177827776e-18
2.473989459e-18
2.779778449e-18
3.088328025e-18
3.391597803e-18
3.680651101e-18
3.946074364e-18
4.178535005e-18
4.369459145e-18
4.511776998e-18
4.600668297e-18
4.63421953e-18
4.613915395e-18
4.544893111e-18
4.435917337e-18
4.299045172e-18
4.148975764e-18
4.002092609e-18
3.87524951e-18
3.784399726e-18
3.743230092e-18
3.76198823e-18
3.846674656e-18
3.998711893e-18
4.215141568e-18
4.489363387e-18
4.812405798e-18
5.174681869e-18
5.568087134e-18
5.988179588e-18
6.436061573e-18
6.919555165e-18
7.453313935e-18
8.057680344e-18
8.756288649e-18
9.572635832e-18
1.052599621e-17
1.162717379e-17
1.287460468e-17
1.425132478e-17
1.572325376e-17
1.723918437e-17
1.873270706e-17
2.012608933e-17
2.133580898e-17
2.227916245e-17
2.288115214e-17
2.308084451e-17
2.283653145e-17
2.212939881e-17
2.096587564e-17
1.937930785e-17
1.743174846e-17
1.521642833e-17
1.286101639e-17
1.053174257e-17
8.439028454e-18
6.84578467e-18
6.079022712e-18
6.544447283e-18
8.743236899e-18
1.328928946e-17
2.092586294e-17
3.253069472e-17
4.920324075e-17
7.036107378e-17
1.200566595e-16
4.00418941e-17
1.692355827e-20
2.458818121e-20
2.801732761e-20
2.941377695e-20
3.120775919e-20
3.311675363e-20
3.515148132e-20
3.731355768e-20
3.960427265e-20
4.2023974e-20
4.457085254e-20
4.72399987e-20
5.002241497e-20
5.290443185e-20
5.586727212e-20
5.888701466e-20
6.193472205e-20
6.497698466e-20
6.797693819e-20
7.089608763e-20
7.369695744e-20
7.634647278e-20
7.881972215e-20
8.110395016e-20
8.320283247e-20
8.51416963e-20
8.697448389e-20
8.879277065e-20
9.073666132e-20
9.300665751e-20
9.58756276e-20
9.970079447e-20
1.049364452e-19
1.121490156e-19
1.220354406e-19
1.354444149e-19
1.533979836e-19
1.771097855e-19
2.079959442e-19
2.476764821e-19
2.979665494e-19
3.608582643e-19
4.384927685e-19
5.331196812e-19
6.470380541e-19
7.82511375e-19
9.416502677e-19
1.126261037e-18
1.337663742e-18
1.576489552e-18
1.842470696e-18
2.134239305e-18
2.449151662e-18
2.783156496e-18
3.130726136e-18
3.484873559e-18
3.837279869e-18
4.178559627e-18
4.49868388e-18
4.787565517e-18
5.035781192e-18
5.235374432e-18
5.380657367e-18
5.468921721e-18
5.500973876e-18
5.481427136e-18
5.418699185e-18
5.324678591e-18
5.214035721e-18
5.103182099e-18
5.008931773e-18
4.94699414e-18
4.930493426e-18
4.968732612e-18
5.066377142e-18
5.223162099e-18
5.434174306e-18
5.690747615e-18
5.982004936e-18
6.297019312e-18
6.627431506e-18
6.97017294e-18
7.32979123e-18
7.719822608e-18
8.162748024e-18
8.688282093e-18
9.330042868e-18
1.012095099e-17
1.108793872e-17
1.224663596e-17
1.359667501e-17
1.511816731e-17
1.676984524e-17
1.848930615e-17
2.019569132e-17
2.179485276e-17
2.318662988e-17
2.427337952e-17
2.496861705e-17
2.520462446e-17
2.49381905e-17
2.415415938e-17
2.286708622e-17
2.112181951e-17
1.899401711e-17
1.659133307e-17
1.4055544e-17
1.156581398e-17
9.343891557e-18
7.662512559e-18
6.85770307e-18
7.344585625e-18
9.635593152e-18
1.435962755e-17
2.227839386e-17
3.429687449e-17
5.153441184e-17
7.341739504e-17
1.245529625e-16
4.142766363e-17
2.00346043e-20
2.773371437e-20
3.122358705e-20
3.268793067e-20
3.455178867e-20
3.653490678e-20
3.864954767e-20
4.089903588e-20
4.32868072e-20
4.581575452e-20
4.848721549e-20
5.129989237e-20
5.424901019e-20
5.732568348e-20
6.051655306e-20
6.380368441e-20
6.716470748e-20
7.057338188e-20
7.400069754e-20
7.741681925e-20
8.079393121e-20
8.41096257e-20
8.735065146e-20
9.051677259e-20
9.362511852e-20
9.671565092e-20
9.985865091e-20
1.031642734e-19
1.067937927e-19
1.10971475e-19
1.159964369e-19
1.222547397e-19
1.302331696e-19
1.405363792e-19
1.539082644e-19
1.712563492e-19
1.936758253e-19
2.224689662e-19
2.591565689e-19
3.054801631e-19
3.633961041e-19
4.350626923e-19
5.228195194e-19
6.291537412e-19
7.566448813e-19
9.07878629e-19
1.085323454e-18
1.291169184e-18
1.527133061e-18
1.794243077e-18
2.09261168e-18
2.421213422e-18
2.777683033e-18
3.158151492e-18
3.557142128e-18
3.967552217e-18
4.380752095e-18
4.786835009e-18
5.175046033e-18
5.534395261e-18
5.854428633e-18
6.126091188e-18
6.342594494e-18
6.500191203e-18
6.598770206e-18
6.642199298e-18
6.638355986e-18
6.598793383e-18
6.538002375e-18
6.472263899e-18
6.418159829e-18
6.390904474e-18
6.402735792e-18
6.461606879e-18
6.570353527e-18
6.726432617e-18
6.922300192e-18
7.146520094e-18
7.38569377e-18
7.627205678e-18
7.862568396e-18
8.09089208e-18
8.321793895e-18
8.576998555e-18
8.890000848e-18
9.303468392e-18
9.864511303e-18
1.061842028e-17
1.160178033e-17
1.283588823e-17
1.432119884e-17
1.60333153e-17
1.792098042e-17
1.990661206e-17
2.188992439e-17
2.375485014e-17
2.537927159e-17
2.66462705e-17
2.745514954e-17
2.773059701e-17
2.742894835e-17
2.654129157e-17
2.509394338e-17
2.314741533e-17
2.079515834e-17
1.816305473e-17
1.5410099e-17
1.273061114e-17
1.035893451e-17
8.578026613e-18
7.732695312e-18
8.246966007e-18
1.064439214e-17
1.556880851e-17
2.380378184e-17
3.627767227e-17
5.415450226e-17
7.682235036e-17
1.295976625e-16
4.297740779e-17
2.35704391e-20
3.130717416e-20
3.486483053e-20
3.640580442e-20
3.834887178e-20
4.041645875e-20
4.262264752e-20
4.497283138e-20
4.747286615e-20
5.012856091e-20
5.294466045e-20
5.592386953e-20
5.906605631e-20
6.236761932e-20
6.582116527e-20
6.941537727e-20
7.31352092e-20
7.696246542e-20
8.087707553e-20
8.485919125e-20
8.889215599e-20
9.296589045e-20
9.708057695e-20
1.012505104e-19
1.055086048e-19
1.099123878e-19
1.14552028e-19
1.195604449e-19
1.251246517e-19
1.314975637e-19
1.39009805e-19
1.480825238e-19
1.592429373e-19
1.731443895e-19
1.905911198e-19
2.12565551e-19
2.402540065e-19
2.750667584e-19
3.18650037e-19
3.728906174e-19
4.399154084e-19
5.220869197e-19
6.219915694e-19
7.424127469e-19
8.862772283e-19
1.056565192e-18
1.2561791e-18
1.487773092e-18
1.753549016e-18
2.055027699e-18
2.392804693e-18
2.766301775e-18
3.173529219e-18
3.610879088e-18
4.07297513e-18
4.552610765e-18
5.04081313e-18
5.527074649e-18
5.999785202e-18
6.446873338e-18
6.856626198e-18
7.218618195e-18
7.52465404e-18
7.769624529e-18
7.952182797e-18
8.075158757e-18
8.145637009e-18
8.174625767e-18
8.176256341e-18
8.166501548e-18
8.161499506e-18
8.175691596e-18
8.220057837e-18
8.300710063e-18
8.418010063e-18
8.566312909e-18
8.734452728e-18
8.907149809e-18
9.067504941e-18
9.200587193e-18
9.29781459e-18
9.361474209e-18
9.408447796e-18
9.472108337e-18
9.601491117e-18
9.857290155e-18
1.030496696e-17
1.100605943e-17
1.200919573e-17
1.334210304e-17
1.500529091e-17
1.69676448e-17
1.916422206e-17
2.149699027e-17
2.383954448e-17
2.604642122e-17
2.796638856e-17
2.945764085e-17
3.040210099e-17
3.071644984e-17
3.035865926e-17
2.933004187e-17
2.767379647e-17
2.54716223e-17
2.284006691e-17
1.992784157e-17
1.691471401e-17
1.401246649e-17
1.146903421e-17
9.577415648e-18
8.690168815e-18
9.238924295e-18
1.175725403e-17
1.69046102e-17
2.548612503e-17
3.846475701e-17
5.70324981e-17
8.059355945e-17
1.351631961e-16
4.469627264e-17
2.756692988e-20
3.534363421e-20
3.897589383e-20
4.060245148e-20
4.263462262e-20
4.47978279e-20
4.710821216e-20
4.957352839e-20
5.220234839e-20
5.500371693e-20
5.798612539e-20
6.11566769e-20
6.452030945e-20
6.807921398e-20
7.183253213e-20
7.57762444e-20
7.990339393e-20
8.420479117e-20
8.867046715e-20
9.329197538e-20
9.806538173e-20
1.0299473e-19
1.080955602e-19
1.133989363e-19
1.189562896e-19
1.248460664e-19
1.311823949e-19
1.381255753e-19
1.458934471e-19
1.547730595e-19
1.651328435e-19
1.77436777e-19
1.922625757e-19
2.103253059e-19
2.325056309e-19
2.598794237e-19
2.937445129e-19
3.356409934e-19
3.87364886e-19
4.509776287e-19
5.288143365e-19
6.234903288e-19
7.378993465e-19
8.75191754e-19
1.038720151e-18
1.231943674e-18
1.458289664e-18
1.720976291e-18
2.022801585e-18
2.365903055e-18
2.751491873e-18
3.179569874e-18
3.648645312e-18
4.155471493e-18
4.694839395e-18
5.259461749e-18
5.839993776e-18
6.425238773e-18
7.002577785e-18
7.55863443e-18
8.080143038e-18
8.55494868e-18
8.973040753e-18
9.32751529e-18
9.615364068e-18
9.837993268e-18
1.000137453e-17
1.011572507e-17
1.019463139e-17
1.025359645e-17
1.030812999e-17
1.037164486e-17
1.045348885e-17
1.05573779e-17
1.068039124e-17
1.081266017e-17
1.093796915e-17
1.103557646e-17
1.108351788e-17
1.106340044e-17
1.096627294e-17
1.079868066e-17
1.058762302e-17
1.038292692e-17
1.025565826e-17
1.029184794e-17
1.058212865e-17
1.120935735e-17
1.223688387e-17
1.369925436e-17
1.559560662e-17
1.788515113e-17
2.048458603e-17
2.326861941e-17
2.607573953e-17
2.872080159e-17
3.10136646e-17
3.278032378e-17
3.388180272e-17
3.422726312e-17
3.378013577e-17
3.255801392e-17
3.062811727e-17
2.810057012e-17
2.512161148e-17
2.186822312e-17
1.854489743e-17
1.538313514e-17
1.264498679e-17
1.063245881e-17
9.703751516e-18
1.029560588e-17
1.294990336e-17
1.834075359e-17
2.729909104e-17
4.081882222e-17
6.015219654e-17
8.466448359e-17
1.412448631e-16
4.657374581e-17
3.2059554e-20
3.987790777e-20
4.359133727e-20
4.531262647e-20
4.744430214e-20
4.971503489e-20
5.214327105e-20
5.47393382e-20
5.751484526e-20
6.048235589e-20
6.365449201e-20
6.704313965e-20
7.065875766e-20
7.450983822e-20
7.860265056e-20
8.294117989e-20
8.752739218e-20
9.236212632e-20
9.744676608e-20
1.027857326e-19
1.083895102e-19
1.142780992e-19
1.204845519e-19
1.27059236e-19
1.340752404e-19
1.416357397e-19
1.498833494e-19
1.590108273e-19
1.692724536e-19
1.80995742e-19
1.945945163e-19
2.105852316e-19
2.296085987e-19
2.524571186e-19
2.801065352e-19
3.137471775e-19
3.548111182e-19
4.049934343e-19
4.662695472e-19
5.409128968e-19
6.315151218e-19
7.410054297e-19
8.726581723e-19
1.030074114e-18
1.217123077e-18
1.437842848e-18
1.696296343e-18
1.996391593e-18
2.341665962e-18
2.735032168e-18
3.178484383e-18
3.672770763e-18
4.217051119e-18
4.80856908e-18
5.442374896e-18
6.11114254e-18
6.805133274e-18
7.512361777e-18
8.219011715e-18
8.910114562e-18
9.570463493e-18
1.018569136e-17
1.074341729e-17
1.123435296e-17
1.165325382e-17
1.199959547e-17
1.227783948e-17
1.249714441e-17
1.267039528e-17
1.281253496e-17
1.293835938e-17
1.306010831e-17
1.318521066e-17
1.331444324e-17
1.34406641e-17
1.354833632e-17
1.361422362e-17
1.360974855e-17
1.350540411e-17
1.327725004e-17
1.291494697e-17
1.243014451e-17
1.186344683e-17
1.128772919e-17
1.080548695e-17
1.053883794e-17
1.061332034e-17
1.113965451e-17
1.219847435e-17
1.383050133e-17
1.60309953e-17
1.874579265e-17
2.186778472e-17
2.523597481e-17
2.864168235e-17
3.184563247e-17
3.460503394e-17
3.670408555e-17
3.797938822e-17
3.833495754e-17
3.774639007e-17
3.625666433e-17
3.396682921e-17
3.102470668e-17
2.761418894e-17
2.394673294e-17
2.025573299e-17
1.679438569e-17
1.383860162e-17
1.169716165e-17
1.073030583e-17
1.137598566e-17
1.41811834e-17
1.983451508e-17
2.919261194e-17
4.329550946e-17
6.343777293e-17
8.901692831e-17
1.477637485e-16
4.860496402e-17
3.708281908e-20
4.494380154e-20
4.874473784e-20
5.057011713e-20
5.281213583e-20
5.520305045e-20
5.776375166e-20
6.0507389e-20
6.344888455e-20
6.660464543e-20
6.999174369e-20
7.362725442e-20
7.752760826e-20
8.170816795e-20
8.618293144e-20
9.096460028e-20
9.606498158e-20
1.014960287e-19
1.072718247e-19
1.134111577e-19
1.199407168e-19
1.268984258e-19
1.343372394e-19
1.423296676e-19
1.50974011e-19
1.604024545e-19
1.707910291e-19
1.823705278e-19
1.954379206e-19
2.103685789e-19
2.27630905e-19
2.478056617e-19
2.716116564e-19
2.999371712e-19
3.338741536e-19
3.747507183e-19
4.241589279e-19
4.839786029e-19
5.564014507e-19
6.439604468e-19
7.495647121e-19
8.765319615e-19
1.028603858e-18
1.209928316e-18
1.424999119e-18
1.678552333e-18
1.975424033e-18
2.320371744e-18
2.717854288e-18
3.171759481e-18
3.68507341e-18
4.259498169e-18
4.895040365e-18
5.589603838e-18
6.338627171e-18
7.134814918e-18
7.968022432e-18
8.825361535e-18
9.691580678e-18
1.054974188e-17
1.1382172e-17
1.217162839e-17
1.290259204e-17
1.356257567e-17
1.414331682e-17
1.464169292e-17
1.506017061e-17
1.540657225e-17
1.56929945e-17
1.593386995e-17
1.614340301e-17
1.633277084e-17
1.650745654e-17
1.666494322e-17
1.679295959e-17
1.686863417e-17
1.685917319e-17
1.672480841e-17
1.642462689e-17
1.592540964e-17
1.521284165e-17
1.43035536e-17
1.325554582e-17
1.217357498e-17
1.120530714e-17
1.052516139e-17
1.030783102e-17
1.07001594e-17
1.180145342e-17
1.365554748e-17
1.624957392e-17
1.951196638e-17
2.330651878e-17
2.742678721e-17
3.160066231e-17
3.551373468e-17
3.88505828e-17
4.134094908e-17
4.279448285e-17
4.311624856e-17
4.230549347e-17
4.044407156e-17
3.768001654e-17
3.421030064e-17
3.026560637e-17
2.609850173e-17
2.197532651e-17
1.817229826e-17
1.497775879e-17
1.270337141e-17
1.170589139e-17
1.241858754e-17
1.538924727e-17
2.131880926e-17
3.109527027e-17
4.580271162e-17
6.682072205e-17
9.351852651e-17
1.5465799e-16
5.076349176e-17
4.266958322e-20
5.057351191e-20
5.446803763e-20
5.640702227e-20
5.87706573e-20
6.129508544e-20
6.400378728e-20
6.691299488e-20
7.004118699e-20
7.340888172e-20
7.703797918e-20
8.095114139e-20
8.517123789e-20
8.972102588e-20
9.462290044e-20
9.989907029e-20
1.055721051e-19
1.116662677e-19
1.18209677e-19
1.252371363e-19
1.32793339e-19
1.409363173e-19
1.497414682e-19
1.593067148e-19
1.697594859e-19
1.812656754e-19
1.940400856e-19
2.083576414e-19
2.245650595e-19
2.430942206e-19
2.644791625e-19
2.893791902e-19
3.186088307e-19
3.531729895e-19
3.943032998e-19
4.434916684e-19
5.025198387e-19
5.734884073e-19
6.588515995e-19
7.614617052e-19
8.846199672e-19
1.032121358e-18
1.208275512e-18