/*--------------------------------*- C++ -*----------------------------------*\
  =========                 |
  \\      /  F ield         | OpenFOAM: The Open Source CFD Toolbox
   \\    /   O peration     | Website:  https://openfoam.org
    \\  /    A nd           | Version:  6
     \\/     M anipulation  |
\*---------------------------------------------------------------------------*/
FoamFile
{
    version     2.0;
    format      ascii;
    class       volVectorField;
    location    "0.0011";
    object      gradT;
}
// * * * * * * * * * * * * * * * * * * * * * * * * * * * * * * * * * * * * * //

dimensions      [0 -1 0 1 0 0 0];

internalField   nonuniform List<vector> 
9600
(
(0 7.390785819e-06 0.0001328969254)
(0 2.157774163e-05 0.0001302097212)
(0 3.467456348e-05 0.0001251707145)
(0 4.612094296e-05 0.0001183478643)
(0 5.568055994e-05 0.0001103319748)
(0 6.332291119e-05 0.0001017252666)
(0 6.914329796e-05 9.297753403e-05)
(0 7.33627969e-05 8.440514234e-05)
(0 7.619484709e-05 7.623677522e-05)
(0 7.787578394e-05 6.859442063e-05)
(0 7.860762511e-05 6.154668684e-05)
(0 7.85847505e-05 5.510499772e-05)
(0 7.795582855e-05 4.926174106e-05)
(0 7.683139695e-05 4.398642262e-05)
(0 7.533722625e-05 3.9240918e-05)
(0 7.354193996e-05 3.499474193e-05)
(0 7.152177072e-05 3.118690727e-05)
(0 6.933388037e-05 2.778310358e-05)
(0 6.702020993e-05 2.474140833e-05)
(0 6.46150638e-05 2.203513944e-05)
(0 6.214892356e-05 1.961855318e-05)
(0 5.964848235e-05 1.745734866e-05)
(0 5.714423293e-05 1.554009056e-05)
(0 5.463235335e-05 1.382484794e-05)
(0 5.215097038e-05 1.230018867e-05)
(0 4.969627194e-05 1.094324258e-05)
(0 4.728730731e-05 9.727326152e-06)
(0 4.492789708e-05 8.641006421e-06)
(0 4.261041755e-05 7.680471541e-06)
(0 4.037297751e-05 6.811415295e-06)
(0 3.81889031e-05 6.04908566e-06)
(0 3.607725218e-05 5.374424255e-06)
(0 3.403801824e-05 4.764560223e-06)
(0 3.208264272e-05 4.22711783e-06)
(0 3.018444374e-05 3.739227088e-06)
(0 2.837772069e-05 3.312322267e-06)
(0 2.664342077e-05 2.938780746e-06)
(0 2.498154366e-05 2.607167511e-06)
(0 2.340351982e-05 2.3022355e-06)
(0 2.189410714e-05 2.035420127e-06)
(0 2.0457117e-05 1.799098048e-06)
(0 1.909635738e-05 1.593268939e-06)
(0 1.780039699e-05 1.414121474e-06)
(0 1.656923563e-05 1.242597381e-06)
(0 1.541049359e-05 1.090131379e-06)
(0 1.432417386e-05 9.643469892e-07)
(0 1.329884129e-05 8.423742981e-07)
(0 1.233449351e-05 7.47083043e-07)
(0 1.141207465e-05 6.556034868e-07)
(0 1.056207774e-05 5.755589095e-07)
(0 9.761630986e-06 5.10760856e-07)
(0 9.014547943e-06 4.421511887e-07)
(0 8.317016825e-06 3.849764892e-07)
(0 7.657601191e-06 3.354250397e-07)
(0 7.051549131e-06 2.973085579e-07)
(0 6.475990644e-06 2.591920917e-07)
(0 5.946171159e-06 2.286988907e-07)
(0 5.458280192e-06 1.982057053e-07)
(0 4.993259414e-06 1.715241783e-07)
(0 4.581601111e-06 1.524659272e-07)
(0 4.189001348e-06 1.334076863e-07)
(0 3.823083353e-06 1.143494522e-07)
(0 3.483846435e-06 9.910285265e-08)
(0 3.175102933e-06 8.385625993e-08)
(0 2.889229493e-06 7.623296815e-08)
(0 2.630037243e-06 6.860966722e-08)
(0 2.389903408e-06 5.717472268e-08)
(0 2.172639592e-06 4.95514293e-08)
(0 1.962998812e-06 3.811648179e-08)
(0 1.780039699e-06 3.430483361e-08)
(0 1.60470398e-06 3.049318726e-08)
(0 1.456049604e-06 3.049318543e-08)
(0 1.315018622e-06 2.286988907e-08)
(0 1.185422655e-06 2.668153885e-08)
(0 1.063449842e-06 2.668153725e-08)
(0 9.605353411e-07 1.905824089e-08)
(0 8.576208917e-07 1.905824204e-08)
(0 7.699529321e-07 1.143494454e-08)
(0 6.899083204e-07 1.524659272e-08)
(0 6.212986904e-07 1.143494522e-08)
(0 5.641239305e-07 7.623296358e-09)
(0 5.031375596e-07 1.143494454e-08)
(0 4.421512153e-07 7.623296815e-09)
(0 3.964114106e-07 0)
(0 3.544832806e-07 1.143494454e-08)
(0 3.08743521e-07 7.623296815e-09)
(0 2.744386689e-07 0)
(0 2.477571316e-07 7.623296358e-09)
(0 2.172639592e-07 3.811648407e-09)
(0 1.905824089e-07 -3.811648179e-09)
(0 1.639008717e-07 0)
(0 1.448426395e-07 0)
(0 1.334076863e-07 3.811648179e-09)
(0 1.105377972e-07 3.811648179e-09)
(0 9.529121019e-08 0)
(0 8.385625993e-08 0)
(0 7.623296358e-08 0)
(0 5.717472611e-08 0)
(0 5.33630745e-08 0)
(0 4.573977815e-08 0)
(0 3.811648407e-08 0)
(0 3.049318543e-08 0)
(0 3.430483361e-08 0)
(0 1.905824204e-08 0)
(0 1.524659272e-08 3.811648179e-09)
(0 1.143494454e-08 0)
(0 0 0)
(0 0 0)
(0 3.811648179e-09 -3.811648179e-09)
(0 3.811648407e-09 0)
(0 3.811648179e-09 0)
(0 -3.811648179e-09 0)
(0 0 3.811648407e-09)
(0 3.811648179e-09 3.811648179e-09)
(0 3.811648179e-09 0)
(0 -3.811648407e-09 0)
(0 -3.811648179e-09 -3.811648179e-09)
(0 0 0)
(0 0 -3.811648407e-09)
(0 0 0)
(0 6.251103013e-06 0.0001138806126)
(0 1.828447741e-05 0.0001118795041)
(0 2.957076657e-05 0.0001080983424)
(0 3.967163424e-05 0.0001028840076)
(0 4.836219499e-05 9.664815702e-05)
(0 5.558526539e-05 8.980243109e-05)
(0 6.132560755e-05 8.268227229e-05)
(0 6.572044184e-05 7.557736462e-05)
(0 6.891459907e-05 6.869733513e-05)
(0 7.10529337e-05 6.214892356e-05)
(0 7.22917237e-05 5.602360829e-05)
(0 7.280248021e-05 5.036330739e-05)
(0 7.269194242e-05 4.517565421e-05)
(0 7.207445974e-05 4.045302455e-05)
(0 7.10453104e-05 3.618016451e-05)
(0 6.968836365e-05 3.232277656e-05)
(0 6.806079396e-05 2.885799009e-05)
(0 6.623882205e-05 2.574006015e-05)
(0 6.4256765e-05 2.294993368e-05)
(0 6.213749234e-05 2.045330535e-05)
(0 5.994197926e-05 1.821967829e-05)
(0 5.768548354e-05 1.622237465e-05)
(0 5.538325136e-05 1.444233582e-05)
(0 5.306957759e-05 1.285668931e-05)
(0 5.075590715e-05 1.143875618e-05)
(0 4.845367456e-05 1.017710125e-05)
(0 4.617811769e-05 9.048852776e-06)
(0 4.393686856e-05 8.046389305e-06)
(0 4.172611512e-05 7.154464061e-06)
(0 3.958396634e-05 6.354017514e-06)
(0 3.749137149e-05 5.637427656e-06)
(0 3.544833019e-05 5.004694359e-06)
(0 3.349295255e-05 4.440570128e-06)
(0 3.158712846e-05 3.937432569e-06)
(0 2.974229252e-05 3.49528159e-06)
(0 2.799274423e-05 3.098869969e-06)
(0 2.629656079e-05 2.744386689e-06)
(0 2.467661179e-05 2.428020036e-06)
(0 2.31252695e-05 2.153581221e-06)
(0 2.165016166e-05 1.905824089e-06)
(0 2.023985304e-05 1.680936948e-06)
(0 1.890577497e-05 1.482731142e-06)
(0 1.762887283e-05 1.307395325e-06)
(0 1.641676969e-05 1.158741116e-06)
(0 1.52770859e-05 1.013898416e-06)
(0 1.420601276e-05 8.919256738e-07)
(0 1.319592679e-05 7.966345172e-07)
(0 1.224301395e-05 6.975316167e-07)
(0 1.133203004e-05 6.17487005e-07)
(0 1.048584477e-05 5.374424255e-07)
(0 9.700644615e-06 4.726443742e-07)
(0 8.95737322e-06 4.230929478e-07)
(0 8.263653747e-06 3.697298955e-07)
(0 7.615673061e-06 3.239900952e-07)
(0 7.009621001e-06 2.820619652e-07)
(0 6.43787416e-06 2.439454981e-07)
(0 5.919489622e-06 2.13452298e-07)
(0 5.431598655e-06 1.905824089e-07)
(0 4.974201172e-06 1.677125299e-07)
(0 4.558731222e-06 1.410309826e-07)
(0 4.169943108e-06 1.181610935e-07)
(0 3.804025111e-06 1.067261554e-07)
(0 3.476223139e-06 9.147955629e-08)
(0 3.163667988e-06 8.385625993e-08)
(0 2.881606196e-06 7.242131974e-08)
(0 2.622413947e-06 6.479801904e-08)
(0 2.378468464e-06 5.33630745e-08)
(0 2.157392999e-06 4.95514293e-08)
(0 1.959187164e-06 3.811648179e-08)
(0 1.776228051e-06 3.430483361e-08)
(0 1.60470398e-06 3.049318726e-08)
(0 1.456049604e-06 3.049318543e-08)
(0 1.311206974e-06 2.286988907e-08)
(0 1.181611006e-06 1.905824204e-08)
(0 1.059638194e-06 1.905824089e-08)
(0 9.567236929e-07 1.905824089e-08)
(0 8.576208917e-07 1.524659363e-08)
(0 7.661412839e-07 1.905824089e-08)
(0 6.937199685e-07 1.143494454e-08)
(0 6.212986904e-07 1.524659363e-08)
(0 5.603122823e-07 1.524659272e-08)
(0 4.993259114e-07 7.623296358e-09)
(0 4.421512153e-07 7.623296815e-09)
(0 3.964114106e-07 7.623296358e-09)
(0 3.506716324e-07 7.623296358e-09)
(0 3.08743521e-07 3.811648407e-09)
(0 2.744386689e-07 3.811648179e-09)
(0 2.477571316e-07 0)
(0 2.096406624e-07 0)
(0 1.905824089e-07 0)
(0 1.677125199e-07 -3.811648179e-09)
(0 1.486542879e-07 -3.811648407e-09)
(0 1.295960381e-07 0)
(0 1.105377972e-07 -3.811648179e-09)
(0 9.529121019e-08 0)
(0 8.766790811e-08 -3.811648179e-09)
(0 6.860966722e-08 0)
(0 6.098637452e-08 -3.811648407e-09)
(0 5.33630745e-08 0)
(0 4.573977815e-08 0)
(0 3.430483567e-08 0)
(0 3.430483361e-08 -3.811648179e-09)
(0 3.049318543e-08 -3.811648179e-09)
(0 1.905824204e-08 -7.623296815e-09)
(0 1.524659272e-08 -7.623296358e-09)
(0 1.143494454e-08 0)
(0 3.811648407e-09 0)
(0 0 -3.811648179e-09)
(0 3.811648179e-09 -3.811648179e-09)
(0 0 0)
(0 3.811648179e-09 -3.811648179e-09)
(0 3.811648179e-09 3.811648179e-09)
(0 3.811648407e-09 3.811648407e-09)
(0 0 3.811648179e-09)
(0 0 0)
(0 -3.811648407e-09 3.811648407e-09)
(0 -7.623296358e-09 3.811648179e-09)
(0 0 7.623296358e-09)
(0 0 0)
(0 3.811648179e-09 0)
(0 5.389670557e-06 9.692640212e-05)
(0 1.579928274e-05 9.54284301e-05)
(0 2.567526229e-05 9.255062998e-05)
(0 3.467456369e-05 8.852934113e-05)
(0 4.259517121e-05 8.36542481e-05)
(0 4.935322092e-05 7.819977451e-05)
(0 5.492966223e-05 7.244799737e-05)
(0 5.937023595e-05 6.661236797e-05)
(0 6.276641094e-05 6.086058684e-05)
(0 6.520205414e-05 5.53298853e-05)
(0 6.682582028e-05 5.009268367e-05)
(0 6.773680019e-05 4.519852438e-05)
(0 6.804173205e-05 4.067409796e-05)
(0 6.783209547e-05 3.651940361e-05)
(0 6.721079274e-05 3.273443476e-05)
(0 6.621976421e-05 2.930395137e-05)
(0 6.493905431e-05 2.620127131e-05)
(0 6.342963772e-05 2.340733161e-05)
(0 6.172964263e-05 2.088783215e-05)
(0 5.987718519e-05 1.863133753e-05)
(0 5.792561772e-05 1.660735121e-05)
(0 5.587876264e-05 1.480444162e-05)
(0 5.377092441e-05 1.318830357e-05)
(0 5.163258654e-05 1.173987646e-05)
(0 4.947138201e-05 1.044772772e-05)
(0 4.730636867e-05 9.292798873e-06)
(0 4.515659625e-05 8.267464949e-06)
(0 4.30258849e-05 7.352669381e-06)
(0 4.092185755e-05 6.53316541e-06)
(0 3.885594177e-05 5.808951859e-06)
(0 3.683957987e-05 5.157160017e-06)
(0 3.487658314e-05 4.573978116e-06)
(0 3.297838024e-05 4.063216983e-06)
(0 3.113354251e-05 3.598195902e-06)
(0 2.934588127e-05 3.190349736e-06)
(0 2.762301452e-05 2.828242966e-06)
(0 2.597638249e-05 2.504252868e-06)
(0 2.439073831e-05 2.214567738e-06)
(0 2.286988921e-05 1.962998824e-06)
(0 2.142527454e-05 1.730488284e-06)
(0 2.004164745e-05 1.532282669e-06)
(0 1.872281597e-05 1.349323463e-06)
(0 1.747259536e-05 1.196857535e-06)
(0 1.62757388e-05 1.052014967e-06)
(0 1.515511325e-05 9.300421612e-07)
(0 1.40992867e-05 8.233160116e-07)
(0 1.310063566e-05 7.204015533e-07)
(0 1.215534612e-05 6.365452497e-07)
(0 1.125579714e-05 5.603122856e-07)
(0 1.042104681e-05 4.955142959e-07)
(0 9.64346995e-06 4.34527895e-07)
(0 8.907821847e-06 3.811648202e-07)
(0 8.214102367e-06 3.392367103e-07)
(0 7.573744977e-06 2.934969115e-07)
(0 6.971504561e-06 2.553804295e-07)
(0 6.41119266e-06 2.21075609e-07)
(0 5.89280812e-06 1.982057065e-07)
(0 5.408728798e-06 1.753358173e-07)
(0 4.951331311e-06 1.486542888e-07)
(0 4.53586136e-06 1.295960389e-07)
(0 4.147073243e-06 1.14349446e-07)
(0 3.78877854e-06 9.529121076e-08)
(0 3.468599864e-06 8.004461223e-08)
(0 3.156044711e-06 6.860966763e-08)
(0 2.873982916e-06 6.479802332e-08)
(0 2.610979018e-06 5.336307482e-08)
(0 2.37465683e-06 5.336307482e-08)
(0 2.145958066e-06 3.81164843e-08)
(0 1.959187176e-06 3.811648202e-08)
(0 1.772416414e-06 3.430483381e-08)
(0 1.600892341e-06 3.049318744e-08)
(0 1.448426317e-06 2.286988921e-08)
(0 1.307395333e-06 2.286988921e-08)
(0 1.177799365e-06 1.905824215e-08)
(0 1.0596382e-06 1.905824101e-08)
(0 9.567236986e-07 1.905824101e-08)
(0 8.538092484e-07 1.143494529e-08)
(0 7.661412885e-07 1.14349446e-08)
(0 6.937199727e-07 1.524659281e-08)
(0 6.212986941e-07 1.143494529e-08)
(0 5.603122856e-07 7.623296403e-09)
(0 4.91702618e-07 0)
(0 4.459628664e-07 3.81164843e-09)
(0 3.96411413e-07 3.811648202e-09)
(0 3.468599864e-07 0)
(0 3.049318744e-07 0)
(0 2.744386705e-07 3.811648202e-09)
(0 2.439454849e-07 0)
(0 2.134523121e-07 0)
(0 1.905824101e-07 0)
(0 1.677125209e-07 0)
(0 1.410309919e-07 0)
(0 1.295960389e-07 0)
(0 1.181610943e-07 0)
(0 9.529121076e-08 0)
(0 8.004461223e-08 3.811648202e-09)
(0 7.242131583e-08 0)
(0 6.098637489e-08 0)
(0 5.336307482e-08 0)
(0 4.573977842e-08 0)
(0 3.430483587e-08 0)
(0 3.430483381e-08 -3.811648202e-09)
(0 2.668153741e-08 -3.811648202e-09)
(0 1.905824215e-08 -3.81164843e-09)
(0 1.905824101e-08 -7.623296403e-09)
(0 1.524659281e-08 -3.811648202e-09)
(0 0 0)
(0 0 0)
(0 0 0)
(0 3.81164843e-09 0)
(0 3.811648202e-09 0)
(0 7.623296403e-09 0)
(0 0 0)
(0 0 0)
(0 3.811648202e-09 3.811648202e-09)
(0 0 0)
(0 -3.811648202e-09 3.811648202e-09)
(0 -3.811648202e-09 3.811648202e-09)
(0 0 3.81164843e-09)
(0 -3.811648202e-09 0)
(0 4.73025539e-06 8.156164773e-05)
(0 1.390489339e-05 8.04181581e-05)
(0 2.267549502e-05 7.821883228e-05)
(0 3.077143575e-05 7.510852736e-05)
(0 3.804406276e-05 7.129307181e-05)
(0 4.43752081e-05 6.698209345e-05)
(0 4.973438544e-05 6.236237585e-05)
(0 5.414065398e-05 5.762068898e-05)
(0 5.762830882e-05 5.288661848e-05)
(0 6.028121595e-05 4.827833583e-05)
(0 6.216417388e-05 4.387207317e-05)
(0 6.338008592e-05 3.971737402e-05)
(0 6.401663116e-05 3.584855112e-05)
(0 6.413098446e-05 3.227703871e-05)
(0 6.38298604e-05 2.899139605e-05)
(0 6.315519867e-05 2.599162893e-05)
(0 6.216417388e-05 2.327011353e-05)
(0 6.092919614e-05 2.081922235e-05)
(0 5.948076983e-05 1.860084311e-05)
(0 5.786082283e-05 1.660735211e-05)
(0 5.611127284e-05 1.481587647e-05)
(0 5.425881183e-05 1.320736094e-05)
(0 5.231868604e-05 1.177037028e-05)
(0 5.033662585e-05 1.048203249e-05)
(0 4.831264067e-05 9.33472639e-06)
(0 4.626960002e-05 8.313205177e-06)
(0 4.423798876e-05 7.394597467e-06)
(0 4.220256864e-05 6.575093108e-06)
(0 4.018239751e-05 5.843257009e-06)
(0 3.82041497e-05 5.187653171e-06)
(0 3.625639748e-05 4.612094296e-06)
(0 3.436201039e-05 4.097522038e-06)
(0 3.250954732e-05 3.636312363e-06)
(0 3.071807267e-05 3.224654359e-06)
(0 2.897615119e-05 2.858736306e-06)
(0 2.729902426e-05 2.534746039e-06)
(0 2.569050873e-05 2.245060777e-06)
(0 2.412773442e-05 1.98586882e-06)
(0 2.264500183e-05 1.753358162e-06)
(0 2.121944541e-05 1.555152457e-06)
(0 1.986249985e-05 1.372193427e-06)
(0 1.856272663e-05 1.215915769e-06)
(0 1.733156427e-05 1.071073138e-06)
(0 1.615376595e-05 9.491004535e-07)
(0 1.504076371e-05 8.385625993e-07)
(0 1.400018376e-05 7.356480985e-07)
(0 1.301296766e-05 6.517918777e-07)
(0 1.207530143e-05 5.717472268e-07)
(0 1.11948107e-05 5.031375596e-07)
(0 1.036006037e-05 4.459628637e-07)
(0 9.590106818e-06 3.964114106e-07)
(0 8.862082016e-06 3.468599843e-07)
(0 8.172174186e-06 2.973085758e-07)
(0 7.531816801e-06 2.630037243e-07)
(0 6.941011334e-06 2.286988907e-07)
(0 6.380699434e-06 2.020173656e-07)
(0 5.866126547e-06 1.753358162e-07)
(0 5.385858877e-06 1.524659272e-07)
(0 4.932273039e-06 1.372193427e-07)
(0 4.52061474e-06 1.181610935e-07)
(0 4.135638274e-06 9.910285265e-08)
(0 3.777343572e-06 8.766791337e-08)
(0 3.445729954e-06 8.385625993e-08)
(0 3.148421396e-06 6.860966722e-08)
(0 2.866359602e-06 6.098637452e-08)
(0 2.603355706e-06 5.33630745e-08)
(0 2.367033519e-06 4.573977815e-08)
(0 2.145958053e-06 4.192813248e-08)
(0 1.951563868e-06 3.811648179e-08)
(0 1.764793107e-06 3.049318543e-08)
(0 1.600892331e-06 2.668153885e-08)
(0 1.44461466e-06 2.668153725e-08)
(0 1.303583677e-06 2.668153725e-08)
(0 1.177799358e-06 2.286989044e-08)
(0 1.059638194e-06 1.905824089e-08)
(0 9.567236929e-07 1.905824089e-08)
(0 8.538092433e-07 2.286989044e-08)
(0 7.661412839e-07 1.905824089e-08)
(0 6.860966722e-07 1.143494454e-08)
(0 6.17487042e-07 7.623296815e-09)
(0 5.565006341e-07 7.623296358e-09)
(0 4.917026151e-07 1.143494454e-08)
(0 4.459628637e-07 7.623296815e-09)
(0 3.925997624e-07 7.623296358e-09)
(0 3.468599843e-07 3.811648179e-09)
(0 3.08743521e-07 3.811648407e-09)
(0 2.744386689e-07 3.811648179e-09)
(0 2.439454834e-07 3.811648179e-09)
(0 2.134523108e-07 3.811648407e-09)
(0 1.867707608e-07 7.623296358e-09)
(0 1.677125199e-07 3.811648179e-09)
(0 1.448426395e-07 7.623296815e-09)
(0 1.334076863e-07 3.811648179e-09)
(0 1.143494454e-07 7.623296358e-09)
(0 9.529121019e-08 7.623296815e-09)
(0 8.385625993e-08 7.623296358e-09)
(0 6.479801904e-08 0)
(0 5.717472611e-08 0)
(0 5.717472268e-08 -7.623296358e-09)
(0 4.573977815e-08 -7.623296358e-09)
(0 3.430483567e-08 -3.811648407e-09)
(0 3.049318543e-08 -3.811648179e-09)
(0 2.286988907e-08 -3.811648179e-09)
(0 1.905824204e-08 -3.811648407e-09)
(0 1.524659272e-08 0)
(0 1.905824089e-08 -3.811648179e-09)
(0 3.811648407e-09 -3.811648407e-09)
(0 3.811648179e-09 0)
(0 3.811648179e-09 3.811648179e-09)
(0 3.811648407e-09 3.811648407e-09)
(0 3.811648179e-09 7.623296358e-09)
(0 3.811648179e-09 0)
(0 0 3.811648407e-09)
(0 7.623296358e-09 7.623296358e-09)
(0 -3.811648179e-09 7.623296358e-09)
(0 0 3.811648407e-09)
(0 -7.623296358e-09 0)
(0 -3.811648179e-09 0)
(0 0 -3.811648407e-09)
(0 0 0)
(0 4.238552775e-06 6.739375145e-05)
(0 1.2456467e-05 6.652469966e-05)
(0 2.036563622e-05 6.483994717e-05)
(0 2.774879874e-05 6.245004376e-05)
(0 3.44649249e-05 5.949220834e-05)
(0 4.042252894e-05 5.610364954e-05)
(0 4.557206563e-05 5.245209059e-05)
(0 4.989066601e-05 4.865569192e-05)
(0 5.342024923e-05 4.482498258e-05)
(0 5.61951291e-05 4.106288583e-05)
(0 5.826866921e-05 3.743801066e-05)
(0 5.970946872e-05 3.399990175e-05)
(0 6.059758275e-05 3.075618915e-05)
(0 6.097493957e-05 2.774880041e-05)
(0 6.092538449e-05 2.497391887e-05)
(0 6.050610319e-05 2.243154953e-05)
(0 5.976283538e-05 2.011406865e-05)
(0 5.875655668e-05 1.801003764e-05)
(0 5.751777102e-05 1.611183685e-05)
(0 5.609602961e-05 1.439278439e-05)
(0 5.452943885e-05 1.285668931e-05)
(0 5.283325541e-05 1.146543772e-05)
(0 5.104559547e-05 1.021521773e-05)
(0 4.91931314e-05 9.106027499e-06)
(0 4.72949306e-05 8.107375676e-06)
(0 4.536623935e-05 7.219262084e-06)
(0 4.342229605e-05 6.426438829e-06)
(0 4.147835548e-05 5.71366062e-06)
(0 3.953441728e-05 5.077115679e-06)
(0 3.762477917e-05 4.512991444e-06)
(0 3.574563662e-05 4.006042236e-06)
(0 3.390080094e-05 3.556267964e-06)
(0 3.210551261e-05 3.156044692e-06)
(0 3.03559661e-05 2.80537306e-06)
(0 2.865216108e-05 2.485194762e-06)
(0 2.701696229e-05 2.203132647e-06)
(0 2.542369335e-05 1.951563868e-06)
(0 2.390284716e-05 1.72286508e-06)
(0 2.244298448e-05 1.52847092e-06)
(0 2.104029795e-05 1.349323455e-06)
(0 1.969478732e-05 1.189234303e-06)
(0 1.84255073e-05 1.048203249e-06)
(0 1.720577988e-05 9.262305074e-07)
(0 1.604322815e-05 8.23316056e-07)
(0 1.494547251e-05 7.24213154e-07)
(0 1.391251585e-05 6.441685422e-07)
(0 1.293292305e-05 5.641239643e-07)
(0 1.201050341e-05 4.955142632e-07)
(0 1.113382433e-05 4.383395406e-07)
(0 1.031050894e-05 3.849764892e-07)
(0 9.540555392e-06 3.354250397e-07)
(0 8.812530589e-06 2.934969098e-07)
(0 8.134057702e-06 2.553804433e-07)
(0 7.505135264e-06 2.248872425e-07)
(0 6.910518148e-06 1.982057053e-07)
(0 6.354017895e-06 1.715241783e-07)
(0 5.847068306e-06 1.524659272e-07)
(0 5.366800636e-06 1.334076863e-07)
(0 4.917026446e-06 1.143494522e-07)
(0 4.505368147e-06 1.06726149e-07)
(0 4.116580033e-06 9.147955629e-08)
(0 3.769720275e-06 7.623296815e-08)
(0 3.441918305e-06 6.860966722e-08)
(0 3.136986451e-06 6.098637086e-08)
(0 2.854924657e-06 4.95514293e-08)
(0 2.599544058e-06 4.573977815e-08)
(0 2.363221871e-06 3.811648179e-08)
(0 2.142146405e-06 3.811648407e-08)
(0 1.943940571e-06 3.430483361e-08)
(0 1.760981459e-06 2.668153725e-08)
(0 1.597080683e-06 2.286989044e-08)
(0 1.44461466e-06 1.905824089e-08)
(0 1.303583677e-06 1.905824089e-08)
(0 1.17398771e-06 1.524659363e-08)
(0 1.055826546e-06 1.524659272e-08)
(0 9.567236929e-07 1.524659272e-08)
(0 8.538092433e-07 1.143494522e-08)
(0 7.623296358e-07 1.524659272e-08)
(0 6.860966722e-07 1.143494454e-08)
(0 6.17487042e-07 1.524659363e-08)
(0 5.526889859e-07 1.143494454e-08)
(0 4.917026151e-07 7.623296358e-09)
(0 4.383395669e-07 7.623296815e-09)
(0 3.925997624e-07 7.623296358e-09)
(0 3.506716324e-07 0)
(0 3.08743521e-07 3.811648407e-09)
(0 2.744386689e-07 3.811648179e-09)
(0 2.401338353e-07 3.811648179e-09)
(0 2.134523108e-07 3.811648407e-09)
(0 1.905824089e-07 0)
(0 1.71524168e-07 3.811648179e-09)
(0 1.448426395e-07 3.811648407e-09)
(0 1.295960381e-07 3.811648179e-09)
(0 1.143494454e-07 3.811648179e-09)
(0 9.529121019e-08 0)
(0 8.004461175e-08 -3.811648179e-09)
(0 6.479801904e-08 3.811648179e-09)
(0 5.717472611e-08 -3.811648407e-09)
(0 4.573977815e-08 0)
(0 4.573977815e-08 -3.811648179e-09)
(0 3.811648407e-08 -7.623296815e-09)
(0 3.430483361e-08 0)
(0 2.668153725e-08 0)
(0 1.905824204e-08 -3.811648407e-09)
(0 2.286988907e-08 -3.811648179e-09)
(0 7.623296358e-09 -7.623296358e-09)
(0 3.811648407e-09 -3.811648407e-09)
(0 3.811648179e-09 3.811648179e-09)
(0 7.623296358e-09 3.811648179e-09)
(0 3.811648407e-09 -3.811648407e-09)
(0 3.811648179e-09 -3.811648179e-09)
(0 3.811648179e-09 0)
(0 0 3.811648407e-09)
(0 7.623296358e-09 3.811648179e-09)
(0 -3.811648179e-09 0)
(0 -3.811648407e-09 3.811648407e-09)
(0 0 3.811648179e-09)
(0 -3.811648179e-09 0)
(0 -3.811648407e-09 0)
(0 0 0)
(0 3.861199628e-06 5.414827435e-05)
(0 1.135490067e-05 5.349267407e-05)
(0 1.860465487e-05 5.222720366e-05)
(0 2.541988186e-05 5.042048241e-05)
(0 3.169766835e-05 4.815636627e-05)
(0 3.733509414e-05 4.555681931e-05)
(0 4.22826135e-05 4.272095304e-05)
(0 4.65135458e-05 3.975168148e-05)
(0 5.004694089e-05 3.674428866e-05)
(0 5.289043045e-05 3.375595647e-05)
(0 5.508975476e-05 3.085910569e-05)
(0 5.670207865e-05 2.808422395e-05)
(0 5.776934014e-05 2.546943328e-05)
(0 5.835252582e-05 2.301854487e-05)
(0 5.85087999e-05 2.075442446e-05)
(0 5.82953476e-05 1.866945289e-05)
(0 5.774266207e-05 1.67636298e-05)
(0 5.693077754e-05 1.502932886e-05)
(0 5.586351604e-05 1.345511815e-05)
(0 5.460186376e-05 1.203337409e-05)
(0 5.318011571e-05 1.074503628e-05)
(0 5.16211516e-05 9.586295227e-06)
(0 4.995927598e-05 8.553339078e-06)
(0 4.82211614e-05 7.619484755e-06)
(0 4.643349839e-05 6.788545447e-06)
(0 4.458866334e-05 6.041462762e-06)
(0 4.272857634e-05 5.378235613e-06)
(0 4.085705707e-05 4.779806845e-06)
(0 3.89817285e-05 4.253799648e-06)
(0 3.713688843e-05 3.784966664e-06)
(0 3.530348564e-05 3.358062066e-06)
(0 3.350820135e-05 2.980709073e-06)
(0 3.175865282e-05 2.6490955e-06)
(0 3.004341113e-05 2.347975292e-06)
(0 2.837772256e-05 2.084971691e-06)
(0 2.676539367e-05 1.841026081e-06)
(0 2.520642956e-05 1.635197079e-06)
(0 2.370464159e-05 1.444614755e-06)
(0 2.226764879e-05 1.276902148e-06)
(0 2.08840205e-05 1.124436219e-06)
(0 1.956137974e-05 9.910285919e-07)
(0 1.830353466e-05 8.766790864e-07)
(0 1.710286548e-05 7.737645849e-07)
(0 1.594793703e-05 6.82285069e-07)
(0 1.486542799e-05 6.022404159e-07)
(0 1.383628297e-05 5.298191e-07)
(0 1.28681251e-05 4.650211085e-07)
(0 1.194951711e-05 4.116580058e-07)
(0 1.108046132e-05 3.621065792e-07)
(0 1.026476922e-05 3.163668197e-07)
(0 9.49481567e-06 2.782503187e-07)
(0 8.782037457e-06 2.401338367e-07)
(0 8.103564563e-06 2.172639605e-07)
(0 7.474642123e-06 1.867707619e-07)
(0 6.8876483e-06 1.639008727e-07)
(0 6.331148043e-06 1.448426404e-07)
(0 5.831821749e-06 1.219727425e-07)
(0 5.351554075e-06 1.067261496e-07)
(0 4.897968233e-06 9.529121076e-08)
(0 4.49393323e-06 8.004461223e-08)
(0 4.105145113e-06 7.242131583e-08)
(0 3.754473704e-06 6.098637489e-08)
(0 3.43429503e-06 4.955142662e-08)
(0 3.13698647e-06 4.573977842e-08)
(0 2.851113026e-06 4.192813273e-08)
(0 2.591920777e-06 3.430483381e-08)
(0 2.355598589e-06 2.668153741e-08)
(0 2.138334769e-06 2.286989058e-08)
(0 1.943940583e-06 1.905824101e-08)
(0 1.760981469e-06 1.905824101e-08)
(0 1.589457395e-06 2.286989058e-08)
(0 1.44080302e-06 1.524659281e-08)
(0 1.303583685e-06 1.524659281e-08)
(0 1.170176068e-06 1.143494529e-08)
(0 1.055826552e-06 1.14349446e-08)
(0 9.567236986e-07 3.811648202e-09)
(0 8.538092484e-07 1.143494529e-08)
(0 7.623296403e-07 3.811648202e-09)
(0 6.822850281e-07 7.623296403e-09)
(0 6.136753973e-07 3.81164843e-09)
(0 5.526889892e-07 3.811648202e-09)
(0 4.955142662e-07 7.623296403e-09)
(0 4.383395695e-07 3.81164843e-09)
(0 3.887881166e-07 3.811648202e-09)
(0 3.506716346e-07 7.623296403e-09)
(0 3.087435229e-07 3.81164843e-09)
(0 2.706270223e-07 3.811648202e-09)
(0 2.439454849e-07 3.811648202e-09)
(0 2.096406637e-07 0)
(0 1.905824101e-07 0)
(0 1.677125209e-07 0)
(0 1.410309919e-07 -3.81164843e-09)
(0 1.334076871e-07 0)
(0 1.14349446e-07 0)
(0 9.147956233e-08 -3.81164843e-09)
(0 8.385626044e-08 -3.811648202e-09)
(0 6.479801943e-08 0)
(0 5.336307802e-08 0)
(0 5.336307482e-08 0)
(0 4.192813022e-08 0)
(0 3.430483587e-08 0)
(0 3.049318561e-08 -3.811648202e-09)
(0 3.049318561e-08 -3.811648202e-09)
(0 1.905824215e-08 0)
(0 1.524659281e-08 -3.811648202e-09)
(0 1.524659281e-08 -3.811648202e-09)
(0 1.143494529e-08 0)
(0 3.811648202e-09 0)
(0 3.811648202e-09 0)
(0 0 0)
(0 3.811648202e-09 0)
(0 1.14349446e-08 0)
(0 3.81164843e-09 0)
(0 3.811648202e-09 -3.811648202e-09)
(0 0 0)
(0 -3.81164843e-09 -3.81164843e-09)
(0 -3.811648202e-09 0)
(0 -7.623296403e-09 0)
(0 -3.81164843e-09 0)
(0 0 0)
(0 3.586760936e-06 4.160795152e-05)
(0 1.05353962e-05 4.113149797e-05)
(0 1.728582449e-05 4.020526499e-05)
(0 2.368177013e-05 3.887881142e-05)
(0 2.960126153e-05 3.72131234e-05)
(0 3.498711863e-05 3.528442719e-05)
(0 3.976692545e-05 3.316896245e-05)
(0 4.391781295e-05 3.094677342e-05)
(0 4.742452664e-05 2.86712176e-05)
(0 5.030613266e-05 2.641091023e-05)
(0 5.259693637e-05 2.418872079e-05)
(0 5.43197982e-05 2.206181966e-05)
(0 5.552809067e-05 2.004164612e-05)
(0 5.626374214e-05 1.814725807e-05)
(0 5.657629392e-05 1.638627552e-05)
(0 5.651530755e-05 1.475870175e-05)
(0 5.61188995e-05 1.326072481e-05)
(0 5.544804606e-05 1.189615397e-05)
(0 5.452181555e-05 1.065736831e-05)
(0 5.338975924e-05 9.536744316e-06)
(0 5.207854907e-05 8.51903368e-06)
(0 5.063774606e-05 7.604238117e-06)
(0 4.908259654e-05 6.784734165e-06)
(0 4.743596159e-05 6.052897308e-06)
(0 4.571690826e-05 5.397293821e-06)
(0 4.395592944e-05 4.806488642e-06)
(0 4.216445215e-05 4.272857608e-06)
(0 4.034629597e-05 3.804024882e-06)
(0 3.853195375e-05 3.377120489e-06)
(0 3.67328535e-05 2.999767117e-06)
(0 3.49451905e-05 2.668153725e-06)
(0 3.318802268e-05 2.367033661e-06)
(0 3.147277901e-05 2.104029795e-06)
(0 2.979184217e-05 1.863895959e-06)
(0 2.814902349e-05 1.654255409e-06)
(0 2.656337616e-05 1.467484549e-06)
(0 2.502728194e-05 1.295960381e-06)
(0 2.354455221e-05 1.143494522e-06)
(0 2.212280603e-05 1.010086767e-06)
(0 2.075442433e-05 8.919256738e-07)
(0 1.945084182e-05 7.851995719e-07)
(0 1.82044317e-05 6.975316167e-07)
(0 1.701900912e-05 6.098637086e-07)
(0 1.586789232e-05 5.374424255e-07)
(0 1.479300658e-05 4.764560223e-07)
(0 1.378291981e-05 4.192812997e-07)
(0 1.280713865e-05 3.697298955e-07)
(0 1.190377726e-05 3.239900952e-07)
(0 1.103853313e-05 2.782503171e-07)
(0 1.022665268e-05 2.439454981e-07)
(0 9.464322428e-06 2.13452298e-07)
(0 8.751544218e-06 1.905824089e-07)
(0 8.080694624e-06 1.677125299e-07)
(0 7.455583838e-06 1.448426308e-07)
(0 6.86477837e-06 1.295960381e-07)
(0 6.315901411e-06 1.143494522e-07)
(0 5.808951824e-06 9.910285265e-08)
(0 5.33630745e-06 8.385625993e-08)
(0 4.894156555e-06 7.623296815e-08)
(0 4.474874962e-06 6.479801904e-08)
(0 4.10133344e-06 5.33630745e-08)
(0 3.746850385e-06 4.95514293e-08)
(0 3.430483361e-06 4.192812997e-08)
(0 3.125551507e-06 3.430483361e-08)
(0 2.843489712e-06 2.668153885e-08)
(0 2.588109113e-06 2.286988907e-08)
(0 2.355598574e-06 2.286988907e-08)
(0 2.134523108e-06 1.905824204e-08)
(0 1.940128923e-06 1.905824089e-08)
(0 1.760981459e-06 1.905824089e-08)
(0 1.589457386e-06 1.143494522e-08)
(0 1.436991363e-06 1.524659272e-08)
(0 1.299772029e-06 7.623296358e-09)
(0 1.166364413e-06 1.143494522e-08)
(0 1.055826546e-06 3.811648179e-09)
(0 9.529120447e-07 7.623296358e-09)
(0 8.538092433e-07 7.623296815e-09)
(0 7.623296358e-07 7.623296358e-09)
(0 6.82285024e-07 7.623296358e-09)
(0 6.136753936e-07 3.811648407e-09)
(0 5.565006341e-07 3.811648179e-09)
(0 4.955142632e-07 3.811648179e-09)
(0 4.421512153e-07 3.811648407e-09)
(0 3.887881142e-07 3.811648179e-09)
(0 3.468599843e-07 3.811648179e-09)
(0 3.049318726e-07 7.623296815e-09)
(0 2.744386689e-07 0)
(0 2.401338353e-07 -3.811648179e-09)
(0 2.096406624e-07 3.811648407e-09)
(0 1.905824089e-07 7.623296358e-09)
(0 1.639008717e-07 0)
(0 1.486542879e-07 3.811648407e-09)
(0 1.295960381e-07 -3.811648179e-09)
(0 1.06726149e-07 -3.811648179e-09)
(0 9.147956178e-08 -3.811648407e-09)
(0 8.385625993e-08 -3.811648179e-09)
(0 7.24213154e-08 -3.811648179e-09)
(0 5.33630777e-08 3.811648407e-09)
(0 4.955142632e-08 0)
(0 4.573977815e-08 3.811648179e-09)
(0 3.811648407e-08 3.811648407e-09)
(0 3.049318543e-08 3.811648179e-09)
(0 2.668153725e-08 0)
(0 1.524659363e-08 0)
(0 1.905824089e-08 0)
(0 1.524659272e-08 3.811648179e-09)
(0 7.623296815e-09 -3.811648407e-09)
(0 7.623296358e-09 -3.811648179e-09)
(0 3.811648179e-09 3.811648179e-09)
(0 3.811648407e-09 3.811648407e-09)
(0 7.623296358e-09 3.811648179e-09)
(0 0 3.811648179e-09)
(0 0 -3.811648407e-09)
(0 0 -3.811648179e-09)
(0 0 -7.623296358e-09)
(0 0 -7.623296815e-09)
(0 -3.811648179e-09 -7.623296358e-09)
(0 -3.811648179e-09 -7.623296358e-09)
(0 -3.811648407e-09 -3.811648407e-09)
(0 3.811648179e-09 -3.811648179e-09)
(0 3.384743583e-06 2.957457822e-05)
(0 9.952213992e-06 2.925058988e-05)
(0 1.634815904e-05 2.861404288e-05)
(0 2.243154953e-05 2.769543567e-05)
(0 2.809947206e-05 2.655194281e-05)
(0 3.329093519e-05 2.5221676e-05)
(0 3.794114597e-05 2.37580031e-05)
(0 4.201961204e-05 2.220285197e-05)
(0 4.550345596e-05 2.061339335e-05)
(0 4.841555517e-05 1.902012441e-05)
(0 5.074447525e-05 1.745734971e-05)
(0 5.255119344e-05 1.594412433e-05)
(0 5.385477712e-05 1.450332132e-05)
(0 5.4693343e-05 1.314637536e-05)
(0 5.512405596e-05 1.188853067e-05)
(0 5.516598409e-05 1.071454303e-05)
(0 5.489154872e-05 9.639658823e-06)
(0 5.432360984e-05 8.652441366e-06)
(0 5.350410549e-05 7.760515692e-06)
(0 5.246734033e-05 6.948635047e-06)
(0 5.124760976e-05 6.212986531e-06)
(0 4.989066301e-05 5.549759748e-06)
(0 4.840412313e-05 4.951331281e-06)
(0 4.682990952e-05 4.413888591e-06)
(0 4.518327751e-05 3.929809272e-06)
(0 4.346803844e-05 3.502904886e-06)
(0 4.172611261e-05 3.114116562e-06)
(0 3.995750786e-05 2.767256578e-06)
(0 3.818509375e-05 2.458513223e-06)
(0 3.642029835e-05 2.184074406e-06)
(0 3.467456348e-05 1.936317275e-06)
(0 3.294407719e-05 1.72286508e-06)
(0 3.125170342e-05 1.524659272e-06)