/*--------------------------------*- C++ -*----------------------------------*\
  =========                 |
  \\      /  F ield         | OpenFOAM: The Open Source CFD Toolbox
   \\    /   O peration     | Website:  https://openfoam.org
    \\  /    A nd           | Version:  6
     \\/     M anipulation  |
\*---------------------------------------------------------------------------*/
FoamFile
{
    version     2.0;
    format      ascii;
    class       volVectorField;
    location    "0.0023";
    object      gradT;
}
// * * * * * * * * * * * * * * * * * * * * * * * * * * * * * * * * * * * * * //

dimensions      [0 -1 0 1 0 0 0];

internalField   nonuniform List<vector> 
3600
(
(0 -3.906939448e-08 -1.017328916e-05)
(0 -1.143494474e-07 -1.032384928e-05)
(0 -1.905824121e-07 -1.062878112e-05)
(0 -2.68721201e-07 -1.108713182e-05)
(0 -3.487658146e-07 -1.170461886e-05)
(0 -4.307162513e-07 -1.248219508e-05)
(0 -5.117137764e-07 -1.34236722e-05)
(0 -5.955700387e-07 -1.453381477e-05)
(0 -6.78473387e-07 -1.581071691e-05)
(0 -7.57565088e-07 -1.725151994e-05)
(0 -8.280805817e-07 -1.884764767e-05)
(0 -8.928786006e-07 -2.058480633e-05)
(0 -9.367125554e-07 -2.243536155e-05)
(0 -9.567237097e-07 -2.436024394e-05)
(-1.239779192e-25 -9.462416764e-07 -2.630132579e-05)
(1.239779192e-25 -8.91925689e-07 -2.818428002e-05)
(0 -7.899640989e-07 -2.992048582e-05)
(0 -6.413098167e-07 -3.140416986e-05)
(0 -4.440570202e-07 -3.253432357e-05)
(0 -2.086877415e-07 -3.321565574e-05)
(0 4.478686684e-08 -3.339289733e-05)
(0 3.096964196e-07 -3.304699026e-05)
(0 5.841350939e-07 -3.216840538e-05)
(0 8.862082162e-07 -3.072569648e-05)
(0 1.221633261e-06 -2.865311274e-05)
(0 1.593268967e-06 -2.586393918e-05)
(0 1.978245437e-06 -2.228575436e-05)
(0 2.341304932e-06 -1.792141712e-05)
(0 2.642425148e-06 -1.285001915e-05)
(0 1.386487048e-06 -7.239272923e-06)
(0 4.859851486e-08 -7.238319978e-06)
(0 1.410309864e-07 -7.038208552e-06)
(0 2.172639488e-07 -6.657996536e-06)
(0 2.71579936e-07 -6.14532985e-06)
(0 3.020731263e-07 -5.547854074e-06)
(0 3.144609785e-07 -4.910355825e-06)
(0 3.068376821e-07 -4.271904748e-06)
(0 2.896852694e-07 -3.662041087e-06)
(0 2.668153757e-07 -3.096964182e-06)
(0 2.391809261e-07 -2.588109144e-06)
(0 2.077348314e-07 -2.139287598e-06)
(0 1.781945545e-07 -1.752405271e-06)
(0 1.52465929e-07 -1.420791876e-06)
(0 1.267373054e-07 -1.143494485e-06)
(0 1.048203262e-07 -9.138426618e-07)
(0 8.576208505e-08 -7.242131627e-07)
(0 6.956258114e-08 -5.68888506e-07)
(0 5.622181131e-08 -4.431041061e-07)
(0 4.573977869e-08 -3.430483402e-07)
(0 3.525774661e-08 -2.639566435e-07)
(0 2.763444963e-08 -2.010644438e-07)
(0 2.191697729e-08 -1.52465929e-07)
(0 1.61995052e-08 -1.143494485e-07)
(0 1.334076879e-08 -8.4809173e-08)
(0 1.048203262e-08 -6.193928365e-08)
(0 7.623296563e-09 -4.573977938e-08)
(0 6.670384393e-09 -3.04931858e-08)
(0 4.764560281e-09 -2.001115318e-08)
(0 4.764560352e-09 -1.238785692e-08)
(0 2.858736168e-09 -3.811648225e-09)
(0 -1.133965369e-07 -1.011516167e-05)
(0 -3.401896112e-07 -1.026667471e-05)
(0 -5.73653069e-07 -1.056874782e-05)
(0 -8.071165273e-07 -1.102709853e-05)
(0 -1.045344548e-06 -1.164267975e-05)
(0 -1.290242949e-06 -1.241930307e-05)
(0 -1.538953001e-06 -1.336363894e-05)
(0 -1.790521791e-06 -1.447664026e-05)
(0 -2.03923184e-06 -1.576116572e-05)
(0 -2.281271507e-06 -1.721626245e-05)
(0 -2.502347112e-06 -1.883716592e-05)
(0 -2.695788259e-06 -2.060767653e-05)
(0 -2.840630895e-06 -2.250683029e-05)
(0 -2.907334743e-06 -2.449460491e-05)
(0 -2.880653203e-06 -2.651954305e-05)
(0 -2.727234359e-06 -2.850255308e-05)
(0 -2.427067057e-06 -3.034834379e-05)
(0 -1.973480907e-06 -3.194447148e-05)
(0 -1.367428827e-06 -3.316801058e-05)
(0 -6.489331239e-07 -3.391223497e-05)
(0 1.238785697e-07 -3.410758189e-05)
(0 9.157485038e-07 -3.376834519e-05)
(0 1.736205803e-06 -3.29126302e-05)
(0 2.629084414e-06 -3.152900182e-05)
(0 3.640124125e-06 -2.953169811e-05)
(0 4.774089501e-06 -2.679302884e-05)
(0 5.964276676e-06 -2.319769155e-05)
(0 7.095383308e-06 -1.8727581e-05)
(0 8.038766274e-06 -1.346369472e-05)
(0 4.225212139e-06 -7.591850499e-06)
(0 1.534188433e-07 -7.590897553e-06)
(0 4.38339559e-07 -7.361245854e-06)
(0 6.746617459e-07 -6.938152785e-06)
(0 8.404684461e-07 -6.369264279e-06)
(0 9.319480189e-07 -5.717472508e-06)
(0 9.624411911e-07 -5.032328644e-06)
(0 9.405242135e-07 -4.355761074e-06)
(0 8.852553267e-07 -3.71635713e-06)
(0 8.080694357e-07 -3.129363239e-06)
(0 7.184957011e-07 -2.607167425e-06)
(0 6.270161517e-07 -2.151675487e-06)
(0 5.393482319e-07 -1.759075682e-06)
(0 4.573977938e-07 -1.425556457e-06)
(0 3.802119218e-07 -1.145400326e-06)
(0 3.154138953e-07 -9.119368514e-07)
(0 2.591920832e-07 -7.213544373e-07)
(0 2.105935707e-07 -5.660297783e-07)
(0 1.686654365e-07 -4.411982886e-07)
(0 1.35313514e-07 -3.411425212e-07)
(0 1.067261535e-07 -2.620508233e-07)
(0 8.290335013e-08 -2.001115348e-07)
(0 6.575093286e-08 -1.505601071e-07)
(0 4.955142841e-08 -1.12443626e-07)
(0 3.811648282e-08 -8.290335013e-08)
(0 3.144609832e-08 -6.098637251e-08)
(0 2.286989003e-08 -4.288104381e-08)
(0 1.715241727e-08 -3.144609832e-08)
(0 1.61995052e-08 -2.001115348e-08)
(0 1.23878571e-08 -1.048203293e-08)
(0 1.143494485e-08 -2.858736211e-09)
(0 -1.88676588e-07 -1.000081207e-05)
(0 -5.679355889e-07 -1.015137219e-05)
(0 -9.519591484e-07 -1.045249239e-05)
(0 -1.342653093e-06 -1.090798436e-05)
(0 -1.740970337e-06 -1.152165974e-05)
(0 -2.151675432e-06 -1.229733014e-05)
(0 -2.570003827e-06 -1.32426189e-05)
(0 -2.993096786e-06 -1.436133768e-05)
(0 -3.418095561e-06 -1.56601568e-05)
(0 -3.831659395e-06 -1.714193505e-05)
(0 -4.21949461e-06 -1.880476663e-05)
(0 -4.562542945e-06 -2.064102814e-05)
(0 -4.824593762e-06 -2.263166143e-05)
(0 -4.970389312e-06 -2.474903206e-05)
(-1.239779192e-25 -4.951331068e-06 -2.693787105e-05)
(1.239779192e-25 -4.720726349e-06 -2.912575714e-05)
(0 -4.233788289e-06 -3.120405836e-05)
(0 -3.460023691e-06 -3.303841405e-05)
(0 -2.411820425e-06 -3.447349961e-05)
(0 -1.149211947e-06 -3.535113167e-05)
(0 1.877236759e-07 -3.555791353e-05)
(0 1.503695231e-06 -3.519675986e-05)
(0 2.824431351e-06 -3.438106719e-05)
(0 4.269046031e-06 -3.312608196e-05)
(0 5.957606202e-06 -3.13203136e-05)
(0 7.92632253e-06 -2.87331574e-05)
(0 1.004369312e-05 -2.511399735e-05)
(0 1.207434872e-05 -2.043519914e-05)
(0 1.37781555e-05 -1.47653724e-05)
(0 7.260236988e-06 -8.328451408e-06)
(0 2.792032324e-07 -8.328451371e-06)
(0 7.937757547e-07 -8.036860402e-06)
(0 1.209245399e-06 -7.50799409e-06)
(0 1.491307368e-06 -6.819991586e-06)
(0 1.639961673e-06 -6.050038735e-06)
(0 1.675219395e-06 -5.268650758e-06)
(0 1.624715056e-06 -4.516803146e-06)
(0 1.516083104e-06 -3.819271578e-06)
(0 1.375052097e-06 -3.196067036e-06)
(0 1.217821608e-06 -2.64623678e-06)
(0 1.056779486e-06 -2.169780784e-06)
(0 9.043135413e-07 -1.767651864e-06)
(0 7.661412931e-07 -1.42746226e-06)
(0 6.384510872e-07 -1.144447397e-06)
(0 5.279132791e-07 -9.109839257e-07)
(0 4.316691614e-07 -7.194486024e-07)
(0 3.497187298e-07 -5.641239457e-07)
(0 2.820619686e-07 -4.383395458e-07)
(0 2.239343332e-07 -3.39236692e-07)
(0 1.772416451e-07 -2.601449952e-07)
(0 1.391251602e-07 -1.982057077e-07)
(0 1.086319744e-07 -1.505601049e-07)
(0 8.480917427e-08 -1.124436243e-07)
(0 6.479801982e-08 -8.385626094e-08)
(0 4.955142692e-08 -6.098637159e-08)
(0 3.811648282e-08 -4.478686731e-08)
(0 2.954027374e-08 -3.04931858e-08)
(0 2.572862552e-08 -2.001115318e-08)
(0 2.001115348e-08 -1.238785692e-08)
(0 1.905824112e-08 -4.764560281e-09)
(0 -2.630037287e-07 -9.830240815e-06)
(0 -7.928228355e-07 -9.9779422e-06)
(0 -1.329312324e-06 -1.027429784e-05)
(0 -1.875330935e-06 -1.072502524e-05)
(0 -2.434690318e-06 -1.133203024e-05)
(0 -3.011202111e-06 -1.210674773e-05)
(0 -3.603913413e-06 -1.305203649e-05)
(0 -4.208059665e-06 -1.417647274e-05)
(0 -4.820782114e-06 -1.549244428e-05)
(0 -5.425881272e-06 -1.700757445e-05)
(0 -6.001440166e-06 -1.872758075e-05)
(0 -6.524588878e-06 -2.0653416e-05)
(0 -6.945776008e-06 -2.277745698e-05)
(0 -7.214497217e-06 -2.507969254e-05)
(1.239779192e-25 -7.258331167e-06 -2.752105323e-05)
(-1.239779192e-25 -6.992468703e-06 -3.002721195e-05)
(0 -6.340676857e-06 -3.248286635e-05)
(0 -5.241016332e-06 -3.472030383e-05)
(0 -3.681099289e-06 -3.652797801e-05)
(0 -1.732394128e-06 -3.766289633e-05)
(0 2.792032337e-07 -3.777057534e-05)
(0 2.092594885e-06 -3.727887272e-05)
(0 3.806883687e-06 -3.647747373e-05)
(0 5.687932089e-06 -3.545976359e-05)
(0 8.032095757e-06 -3.406279451e-05)
(0 1.09813586e-05 -3.186442644e-05)
(0 1.426223481e-05 -2.822811397e-05)
(0 1.7445914e-05 -2.324247807e-05)
(0 2.014456099e-05 -1.691133036e-05)
(0 1.066118013e-05 -9.513874011e-06)
(0 4.459628423e-07 -9.511968144e-06)
(0 1.259749757e-06 -9.101263185e-06)
(0 1.891530431e-06 -8.382767358e-06)
(0 2.295565143e-06 -7.488935849e-06)
(0 2.483288856e-06 -6.534118067e-06)
(0 2.497582499e-06 -5.59835833e-06)
(0 2.389903437e-06 -4.731208359e-06)
(0 2.205038531e-06 -3.955538004e-06)
(0 1.981104165e-06 -3.274205825e-06)
(0 1.744781975e-06 -2.689117822e-06)
(0 1.504648159e-06 -2.192650674e-06)
(0 1.282619628e-06 -1.773369336e-06)
(0 1.07964936e-06 -1.425556436e-06)
(0 8.976431703e-07 -1.140635748e-06)
(0 7.404126676e-07 -9.043135413e-07)
(0 6.070049798e-07 -7.12778218e-07)
(0 4.897968042e-07 -5.584064733e-07)
(0 3.935526792e-07 -4.345278976e-07)
(0 3.135080665e-07 -3.344721317e-07)
(0 2.468042262e-07 -2.563333469e-07)
(0 1.943940595e-07 -1.943940595e-07)
(0 1.52465929e-07 -1.467484566e-07)
(0 1.162552726e-07 -1.095848881e-07)
(0 8.957373328e-08 -8.099752477e-08)
(0 6.95625801e-08 -6.003345954e-08)
(0 5.336307594e-08 -4.288104317e-08)
(0 4.288104253e-08 -2.858736168e-08)
(0 3.430483402e-08 -1.810532907e-08)
(0 2.668153797e-08 -1.143494485e-08)
(0 2.763444963e-08 -3.811648225e-09)
(0 -3.363779624e-07 -9.599636241e-06)
(0 -1.012945537e-06 -9.744478891e-06)
(0 -1.699042229e-06 -1.003702288e-05)
(0 -2.40229134e-06 -1.047822117e-05)
(0 -3.122692874e-06 -1.107760289e-05)
(0 -3.868823023e-06 -1.184374418e-05)
(0 -4.639728892e-06 -1.278045675e-05)
(0 -5.433504658e-06 -1.390965758e-05)
(0 -6.250150298e-06 -1.523801699e-05)
(0 -7.066795946e-06 -1.67855462e-05)
(0 -7.865336276e-06 -1.856653889e-05)
(0 -8.611466419e-06 -2.059624158e-05)
(0 -9.251823333e-06 -2.288418347e-05)
(0 -9.7139857e-06 -2.542655292e-05)
(0 -9.898850637e-06 -2.820047995e-05)
(0 -9.682539596e-06 -3.114878991e-05)
(0 -8.926880325e-06 -3.415808627e-05)
(0 -7.5051355e-06 -3.702539866e-05)
(0 -5.354412948e-06 -3.945341863e-05)
(0 -2.391809311e-06 -4.120391817e-05)
(0 5.707943328e-07 -4.078940136e-05)
(0 2.796796939e-06 -3.988318198e-05)
(0 4.644493459e-06 -3.899125633e-05)
(0 6.681819468e-06 -3.836805178e-05)
(0 9.554849373e-06 -3.779058706e-05)
(0 1.376100329e-05 -3.660039993e-05)
(0 1.866659463e-05 -3.284211466e-05)
(0 2.338922687e-05 -2.750961868e-05)
(0 2.750675999e-05 -2.021412387e-05)
(0 1.466055227e-05 -1.127104402e-05)
(0 6.89908339e-07 -1.126913814e-05)
(0 1.922023675e-06 -1.064021634e-05)
(0 2.822525553e-06 -9.593918725e-06)
(0 3.342815543e-06 -8.366567978e-06)
(0 3.529586362e-06 -7.133499866e-06)
(0 3.476223233e-06 -5.988099451e-06)
(0 3.268488402e-06 -4.971342271e-06)
(0 2.973085704e-06 -4.094663228e-06)
(0 2.640519347e-06 -3.35043884e-06)
(0 2.300329738e-06 -2.725328521e-06)
(0 1.971575103e-06 -2.206944388e-06)
(0 1.672360684e-06 -1.773369363e-06)
(0 1.398874919e-06 -1.420791897e-06)
(0 1.160646919e-06 -1.130153732e-06)
(0 9.548178946e-07 -8.9287861e-07)
(0 7.785291615e-07 -7.013432838e-07)
(0 6.29874888e-07 -5.488773608e-07)
(0 5.040904853e-07 -4.249987834e-07)
(0 4.030818058e-07 -3.287546643e-07)
(0 3.163668121e-07 -2.506158783e-07)
(0 2.487100504e-07 -1.905824141e-07)
(0 1.934411503e-07 -1.429368106e-07)
(0 1.496071973e-07 -1.076790656e-07)
(0 1.133965364e-07 -7.909170185e-08)
(0 8.957373462e-08 -5.717472423e-08)
(0 6.86096701e-08 -4.097521964e-08)
(0 5.336307594e-08 -2.954027418e-08)
(0 4.288104317e-08 -1.905824141e-08)
(0 3.621065922e-08 -1.048203293e-08)
(0 3.335192246e-08 -2.858736211e-09)
(0 -4.078463619e-07 -9.314715391e-06)
(0 -1.228303648e-06 -9.454793478e-06)
(0 -2.062101699e-06 -9.736855433e-06)
(0 -2.916863817e-06 -1.01685246e-05)
(0 -3.799260391e-06 -1.075265971e-05)
(0 -4.715961787e-06 -1.150069566e-05)
(0 -5.670779672e-06 -1.242692618e-05)
(0 -6.664666961e-06 -1.354564496e-05)
(0 -7.696670712e-06 -1.487686309e-05)
(0 -8.754403099e-06 -1.644726216e-05)
(0 -9.813088413e-06 -1.828257082e-05)
(0 -1.084128051e-05 -2.041614089e-05)
(0 -1.177513433e-05 -2.287465401e-05)
(0 -1.25298407e-05 -2.568765044e-05)
(0 -1.2981521e-05 -2.886275341e-05)
(0 -1.295102782e-05 -3.238281056e-05)
(0 -1.221823845e-05 -3.616396564e-05)
(0 -1.053539574e-05 -3.996608473e-05)
(0 -7.859618674e-06 -4.326601919e-05)
(0 -3.070282663e-06 -4.712626602e-05)
(0 1.600892262e-06 -4.452672185e-05)
(0 3.891692855e-06 -4.269141322e-05)
(0 5.322966777e-06 -4.145548634e-05)
(0 6.889554197e-06 -4.143833386e-05)
(0 9.798794717e-06 -4.233311828e-05)
(0 1.592983094e-05 -4.40988644e-05)
(0 2.335301586e-05 -3.919232013e-05)
(0 3.00719988e-05 -3.388078831e-05)
(0 3.638408835e-05 -2.525979294e-05)
(0 1.960616564e-05 -1.383437729e-05)
(0 1.076790623e-06 -1.383342432e-05)
(0 2.934969177e-06 -1.276997466e-05)
(0 4.166131509e-06 -1.114525941e-05)
(0 4.755984072e-06 -9.405241994e-06)
(0 4.861757383e-06 -7.784338703e-06)
(0 4.65783413e-06 -6.375934568e-06)
(0 4.283339692e-06 -5.19051197e-06)
(0 3.826894875e-06 -4.208059703e-06)
(0 3.351391701e-06 -3.40189604e-06)
(0 2.88732353e-06 -2.741527985e-06)
(0 2.456607318e-06 -2.201226883e-06)
(0 2.068772074e-06 -1.761934392e-06)
(0 1.72381791e-06 -1.403639459e-06)
(0 1.424603545e-06 -1.111095474e-06)
(0 1.168270181e-06 -8.776320037e-07)
(0 9.51006232e-07 -6.880025045e-07)
(0 7.670942167e-07 -5.364894956e-07)
(0 6.136753641e-07 -4.173754806e-07)
(0 4.888438848e-07 -3.201784509e-07)
(0 3.849764765e-07 -2.458513142e-07)
(0 3.020731218e-07 -1.858178509e-07)
(0 2.344163658e-07 -1.400780723e-07)
(0 1.801003813e-07 -1.048203277e-07)
(0 1.410309843e-07 -7.718587655e-08)
(0 1.067261503e-07 -5.622181131e-08)
(0 8.290335013e-08 -4.002230696e-08)
(0 6.479801982e-08 -2.668153757e-08)
(0 5.145725103e-08 -1.905824112e-08)
(0 4.383395524e-08 -1.048203277e-08)
(0 4.097521841e-08 -3.811648225e-09)
(0 -4.774089423e-07 -8.974525785e-06)
(0 -1.436038477e-06 -9.107933487e-06)
(0 -2.412773337e-06 -9.381419235e-06)
(0 -3.417142649e-06 -9.794030157e-06)
(0 -4.455816801e-06 -1.035529538e-05)
(0 -5.542136543e-06 -1.107664979e-05)
(0 -6.683725192e-06 -1.197524586e-05)
(0 -7.885347312e-06 -1.306823602e-05)
(0 -9.150814516e-06 -1.438420755e-05)
(0 -1.047155063e-05 -1.595365372e-05)
(0 -1.183326198e-05 -1.781945556e-05)
(0 -1.320450242e-05 -2.003211733e-05)
(0 -1.452523854e-05 -2.264881385e-05)
(0 -1.570208495e-05 -2.573053148e-05)
(0 -1.659496354e-05 -2.933920944e-05)
(0 -1.698279875e-05 -3.35310696e-05)
(0 -1.650824855e-05 -3.833660514e-05)
(0 -1.460814189e-05 -4.360811462e-05)
(0 -1.251459409e-05 -4.6735572e-05)
(0 -3.652511933e-06 -5.974758628e-05)
(0 5.006599965e-06 -4.773136511e-05)
(0 5.86898538e-06 -4.512991518e-05)
(0 5.895666927e-06 -4.292582965e-05)
(0 5.80418736e-06 -4.382442566e-05)
(0 6.893365845e-06 -4.623148152e-05)
(0 1.690275415e-05 -5.848593071e-05)
(0 2.888276455e-05 -4.613904905e-05)
(0 3.732556541e-05 -4.371484077e-05)
(0 4.755221771e-05 -3.321756156e-05)
(0 2.608596765e-05 -1.765555466e-05)
(0 1.755264007e-06 -1.765364875e-05)
(0 4.609235685e-06 -1.564014581e-05)
(0 6.186305068e-06 -1.299105006e-05)
(0 6.703736315e-06 -1.048393844e-05)
(0 6.559846693e-06 -8.372285451e-06)
(0 6.07100271e-06 -6.671337305e-06)
(0 5.43636328e-06 -5.322013833e-06)
(0 4.761701616e-06 -4.249987834e-06)
(0 4.10609805e-06 -3.398084392e-06)
(0 3.500045982e-06 -2.716752272e-06)
(0 2.953074506e-06 -2.16787496e-06)
(0 2.468995137e-06 -1.725723734e-06)
(0 2.048760921e-06 -1.370287537e-06)
(0 1.686654365e-06 -1.083461024e-06)
(0 1.379816657e-06 -8.519033782e-07)
(0 1.118718754e-06 -6.670384393e-07)
(0 9.005019066e-07 -5.202899905e-07)
(0 7.213544265e-07 -4.021288877e-07)
(0 5.736530578e-07 -3.087435062e-07)
(0 4.516803214e-07 -2.353692814e-07)
(0 3.535303728e-07 -1.781945545e-07)
(0 2.744386722e-07 -1.35313512e-07)
(0 2.124993917e-07 -1.000557674e-07)
(0 1.629479616e-07 -7.432714038e-08)
(0 1.267373035e-07 -5.336307514e-08)
(0 9.624411911e-08 -3.716357075e-08)
(0 7.528005243e-08 -2.763444963e-08)
(0 6.003345954e-08 -1.715241701e-08)
(0 5.050433973e-08 -9.529120704e-09)
(0 4.764560281e-08 -2.858736168e-09)
(0 -5.422069705e-07 -8.582879057e-06)
(0 -1.633291299e-06 -8.710569288e-06)
(0 -2.747245511e-06 -8.965949711e-06)
(0 -3.892645825e-06 -9.352832013e-06)
(0 -5.082833014e-06 -9.885509878e-06)
(0 -6.335912385e-06 -1.056779491e-05)
(0 -7.662365993e-06 -1.142255704e-05)
(0 -9.072675877e-06 -1.246885452e-05)
(0 -1.058208859e-05 -1.373718047e-05)
(0 -1.218965126e-05 -1.5270416e-05)
(0 -1.389250516e-05 -1.712383001e-05)
(0 -1.566968616e-05 -1.936603209e-05)
(0 -1.747354871e-05 -2.208659607e-05)
(0 -1.922023657e-05 -2.538748352e-05)
(0 -2.078015362e-05 -2.938685549e-05)
(0 -2.194842383e-05 -3.422860174e-05)
(0 -2.229528384e-05 -4.02290891e-05)
(0 -1.893722166e-05 -4.960479096e-05)
(0 -2.399623187e-05 -4.054355004e-05)
(0 -4.067028741e-06 -3.430292892e-05)
(0 1.621665769e-05 -2.446125296e-05)
(0 8.697228506e-06 -2.308905957e-05)
(0 6.628456402e-06 -2.163110413e-05)
(0 3.584855225e-06 -2.235627018e-05)
(0 -4.862710317e-06 -2.385138923e-05)
(0 1.602226365e-05 -3.411806397e-05)
(0 3.812410629e-05 -4.337560473e-05)
(0 4.299348699e-05 -6.181064173e-05)
(0 6.244432835e-05 -4.637823075e-05)
(0 3.517103177e-05 -2.36989233e-05)
(0 3.091246756e-06 -2.369511154e-05)
(0 7.598520964e-06 -1.935173862e-05)
(0 9.321385873e-06 -1.488353363e-05)
(0 9.374748949e-06 -1.133488908e-05)
(0 8.674358707e-06 -8.699134421e-06)
(0 7.70905865e-06 -6.751382019e-06)
(0 6.703736415e-06 -5.292473639e-06)
(0 5.749871519e-06 -4.180425316e-06)
(0 4.885580185e-06 -3.316134005e-06)
(0 4.118485968e-06 -2.635754787e-06)
(0 3.447635923e-06 -2.095453674e-06)
(0 2.866359508e-06 -1.663784475e-06)
(0 2.367033583e-06 -1.316924481e-06)
(0 1.942034829e-06 -1.038674172e-06)
(0 1.584692773e-06 -8.156927323e-07)
(0 1.282619647e-06 -6.384510872e-07)
(0 1.031050876e-06 -4.964671961e-07)
(0 8.242689409e-07 -3.840235644e-07)
(0 6.546505924e-07 -2.954027418e-07)
(0 5.164783499e-07 -2.258401641e-07)
(0 4.021288937e-07 -1.715241727e-07)
(0 3.135080712e-07 -1.286431295e-07)
(0 2.420396695e-07 -9.624412056e-08)
(0 1.867707658e-07 -6.956258114e-08)
(0 1.429368106e-07 -5.14572518e-08)
(0 1.095848897e-07 -3.71635713e-08)
(0 8.576208634e-08 -2.477571383e-08)
(0 6.860966907e-08 -1.61995052e-08)
(0 5.717472508e-08 -7.623296678e-09)
(0 5.431598801e-08 -3.811648282e-09)
(0 -6.031933342e-07 -8.148351029e-06)
(0 -1.819109126e-06 -8.264606312e-06)
(0 -3.057894802e-06 -8.499022667e-06)
(0 -4.334796963e-06 -8.857317602e-06)
(0 -5.668873856e-06 -9.345208591e-06)
(0 -7.080136609e-06 -9.976989273e-06)
(0 -8.584784752e-06 -1.076600046e-05)
(0 -1.019997071e-05 -1.173701787e-05)
(0 -1.195332889e-05 -1.292339336e-05)
(0 -1.385724718e-05 -1.436896096e-05)
(0 -1.592983094e-05 -1.614328324e-05)
(0 -1.816726843e-05 -1.833593387e-05)
(0 -2.054668985e-05 -2.106793274e-05)
(0 -2.300234425e-05 -2.448316959e-05)
(0 -2.543608164e-05 -2.873887484e-05)
(0 -2.782598509e-05 -3.393510431e-05)
(0 -3.188348466e-05 -3.89417043e-05)
(0 -1.492164995e-05 -2.68006517e-05)
(0 2.787267777e-06 -1.683414446e-05)
(0 1.242883202e-05 8.874470032e-06)
(0 1.6221422e-05 5.275321166e-06)
(0 8.697228375e-06 6.634173765e-06)
(0 6.628456302e-06 6.116742525e-06)
(0 3.584855171e-06 6.349253059e-06)
(0 -4.867474805e-06 5.461139018e-06)
(0 -2.622413994e-06 9.673963252e-06)
(0 1.192092988e-06 -1.487591018e-05)
(0 3.432103368e-05 -3.695202388e-05)
(0 8.566298271e-05 -6.696684806e-05)
(0 4.876813343e-05 -3.433342154e-05)
(0 6.10340172e-06 -3.432484517e-05)
(0 1.342271942e-05 -2.341400248e-05)
(0 1.42031542e-05 -1.605466232e-05)
(0 1.288718265e-05 -1.145495583e-05)
(0 1.114335375e-05 -8.492352372e-06)
(0 9.478616222e-06 -6.480754894e-06)
(0 8.007320008e-06 -5.038998953e-06)
(0 6.73804125e-06 -3.966020037e-06)
(0 5.649815581e-06 -3.142703961e-06)
(0 4.719773414e-06 -2.497582499e-06)
(0 3.925044818e-06 -1.984915843e-06)
(0 3.247524287e-06 -1.578022365e-06)
(0 2.67387123e-06 -1.248314794e-06)
(0 2.187886114e-06 -9.853110808e-07)
(0 1.780992633e-06 -7.756704137e-07)
(0 1.436991381e-06 -6.070049798e-07)
(0 1.155882341e-06 -4.707385628e-07)
(0 9.233717824e-07 -3.640124054e-07)
(0 7.318364591e-07 -2.801561445e-07)
(0 5.746059785e-07 -2.144052158e-07)
(0 4.497744905e-07 -1.648537857e-07)
(0 3.516245487e-07 -1.229256552e-07)
(0 2.70627028e-07 -9.147955876e-08)
(0 2.077348282e-07 -6.765675599e-08)
(0 1.600892254e-07 -4.859851486e-08)
(0 1.229256571e-07 -3.525774661e-08)
(0 9.529120561e-08 -2.477571346e-08)
(0 7.623296449e-08 -1.52465929e-08)
(0 6.384510872e-08 -9.529120704e-09)
(0 6.003345954e-08 -2.858736168e-09)
(0 -6.594151458e-07 -7.671894998e-06)
(0 -1.984915825e-06 -7.775762425e-06)
(0 -3.33900386e-06 -7.986355978e-06)
(0 -4.738831676e-06 -8.307487343e-06)
(0 -6.202504611e-06 -8.74392108e-06)
(0 -7.756704172e-06 -9.30995083e-06)
(0 -9.422394453e-06 -1.001415284e-05)
(0 -1.123006865e-05 -1.087939701e-05)
(0 -1.321403154e-05 -1.193712938e-05)
(0 -1.541049384e-05 -1.32340427e-05)
(0 -1.785852495e-05 -1.484255828e-05)
(0 -2.059433545e-05 -1.687130803e-05)
(0 -2.362078415e-05 -1.947752251e-05)
(0 -2.689117837e-05 -2.285940744e-05)
(0 -3.023208804e-05 -2.728854269e-05)
(0 -3.215125293e-05 -3.398751447e-05)
(0 -1.516178381e-05 -1.948133418e-05)
(0 3.172244249e-06 5.148583862e-06)
(0 1.167698439e-05 8.964043752e-06)
(0 1.804338989e-05 1.60927789e-05)
(0 1.39773141e-05 1.086796205e-05)
(0 9.538649725e-06 1.206577251e-05)
(0 6.341629772e-06 1.142065106e-05)
(0 2.930204586e-06 1.18361207e-05)
(0 -1.537047153e-06 1.130153704e-05)
(0 -4.315738728e-06 1.697612838e-05)
(0 -8.502834315e-06 1.09746882e-05)
(0 -9.097451441e-06 7.828172576e-06)
(0 6.506388267e-05 -4.239886928e-05)
(0 6.781303387e-05 -6.973696332e-05)
(0 1.401066596e-05 -4.833455822e-05)
(0 2.586584524e-05 -2.417156758e-05)
(0 2.128043204e-05 -1.468723352e-05)
(0 1.693896471e-05 -1.012373768e-05)
(0 1.36495125e-05 -7.49751217e-06)
(0 1.116145891e-05 -5.770835412e-06)
(0 9.216565407e-06 -4.537767211e-06)
(0 7.647119365e-06 -3.605819274e-06)
(0 6.35401759e-06 -2.878747322e-06)
(0 5.276274055e-06 -2.300329704e-06)
(0 4.367196019e-06 -1.838167384e-06)
(0 3.603913396e-06 -1.463672918e-06)
(0 2.959744846e-06 -1.162552708e-06)
(0 2.415632099e-06 -9.19560148e-07)
(0 1.963951748e-06 -7.232602506e-07)
(0 1.586598573e-06 -5.660297613e-07)
(0 1.272137614e-06 -4.411982886e-07)
(0 1.01485134e-06 -3.420954282e-07)
(0 8.052106874e-07 -2.639566395e-07)
(0 6.317807027e-07 -2.010644469e-07)
(0 4.955142692e-07 -1.52465929e-07)
(0 3.840235586e-07 -1.153023588e-07)
(0 2.97308566e-07 -8.766791048e-08)
(0 2.277459814e-07 -6.479801982e-08)
(0 1.772416424e-07 -4.859851486e-08)
(0 1.343606019e-07 -3.335192246e-08)
(0 1.057732382e-07 -2.38228014e-08)
(0 8.385626094e-08 -1.52465929e-08)
(0 6.956258114e-08 -8.576208634e-09)
(0 6.575093187e-08 -2.858736168e-09)
(0 -7.070607594e-07 -7.163992978e-06)
(0 -2.132617226e-06 -7.253566724e-06)
(0 -3.588666873e-06 -7.437478743e-06)
(0 -5.094267951e-06 -7.715729069e-06)
(0 -6.671337445e-06 -8.094988087e-06)
(0 -8.349415599e-06 -8.577161584e-06)
(0 -1.015327816e-05 -9.177496192e-06)
(0 -1.212390034e-05 -9.910285592e-06)
(0 -1.430892771e-05 -1.079744672e-05)
(0 -1.676267631e-05 -1.187804901e-05)
(0 -1.956709657e-05 -1.321593758e-05)
(0 -2.280223304e-05 -1.492832056e-05)
(0 -2.653383672e-05 -1.721054498e-05)
(0 -3.081241197e-05 -2.029702721e-05)
(6.198896052e-26 -3.656418924e-05 -2.368939419e-05)
(-6.198896052e-26 -2.001972979e-05 -2.092499626e-05)
(0 7.250707984e-06 -2.052572611e-06)
(0 1.352468108e-05 8.490446586e-06)
(0 1.3731463e-05 1.46233887e-05)
(0 1.433084471e-05 1.226397842e-05)
(0 1.219536873e-05 1.001510591e-05)
(0 9.251823333e-06 9.608212449e-06)
(0 6.398804591e-06 9.465275652e-06)
(0 3.466694128e-06 9.937920027e-06)
(0 2.687212051e-07 1.095848886e-05)
(0 -2.947357052e-06 1.375242708e-05)
(0 -7.95491e-06 1.568588566e-05)
(0 -1.905157111e-05 2.117656504e-05)
(0 8.095940999e-06 2.402100762e-05)
(0 4.283339776e-05 -2.435929137e-05)
(0 5.166879828e-05 -1.258796845e-05)
(0 4.707099825e-05 -1.053634892e-05)
(0 2.825193706e-05 -8.618136765e-06)
(0 2.00759515e-05 -7.039161464e-06)
(0 1.54943505e-05 -5.756541904e-06)
(0 1.243740834e-05 -4.711197276e-06)
(0 1.017424218e-05 -3.849764765e-06)
(0 8.397061291e-06 -3.137939495e-06)
(0 6.955305202e-06 -2.549039788e-06)
(0 5.76225929e-06 -2.063054632e-06)
(0 4.760748775e-06 -1.660925764e-06)
(0 3.922186082e-06 -1.332171074e-06)
(0 3.217984062e-06 -1.064402783e-06)
(0 2.626225705e-06 -8.442801071e-07)
(0 2.133570126e-06 -6.660855372e-07)
(0 1.720959199e-06 -5.221958146e-07)
(0 1.380769611e-06 -4.078463723e-07)
(0 1.100613441e-06 -3.163668074e-07)
(0 8.719145444e-07 -2.4394549e-07)
(0 6.86096701e-07 -1.867707686e-07)
(0 5.355365836e-07 -1.419838985e-07)
(0 4.164225748e-07 -1.07679064e-07)
(0 3.230371967e-07 -8.004461512e-08)
(0 2.477571383e-07 -5.908054837e-08)
(0 1.89629502e-07 -4.288104317e-08)
(0 1.45795549e-07 -3.14460988e-08)
(0 1.143494485e-07 -2.191697762e-08)
(0 9.243247083e-08 -1.429368106e-08)
(0 7.623296678e-08 -6.670384593e-09)
(0 7.051549321e-08 -1.905824141e-09)
(0 -7.489888795e-07 -6.633220853e-06)
(0 -2.259354499e-06 -6.711359652e-06)
(0 -3.801166209e-06 -6.863825571e-06)
(0 -5.395388086e-06 -7.097289026e-06)
(0 -7.063937114e-06 -7.407938369e-06)
(0 -8.841118097e-06 -7.802443951e-06)
(0 -1.075551843e-05 -8.285570365e-06)
(0 -1.284906624e-05 -8.862082175e-06)
(0 -1.518084203e-05 -9.542461373e-06)
(0 -1.782898465e-05 -1.03429075e-05)
(0 -2.090974937e-05 -1.129867832e-05)
(0 -2.458894281e-05 -1.24993475e-05)
(0 -2.899044361e-05 -1.423269453e-05)
(0 -3.337002748e-05 -1.752595863e-05)
(0 -3.085910418e-05 -2.634325392e-05)
(0 -1.051252586e-05 -6.334959381e-06)
(0 1.425365861e-05 4.795053493e-06)
(0 1.984629948e-05 7.182098199e-06)
(0 1.545146906e-05 8.911633589e-06)
(0 1.343606007e-05 8.307487355e-06)
(0 1.132059528e-05 7.308835503e-06)
(0 8.988819466e-06 6.87240178e-06)
(0 6.673243169e-06 6.892412943e-06)
(0 4.420559048e-06 7.499417916e-06)
(0 2.279365649e-06 8.860176338e-06)
(0 4.116580107e-07 1.143018018e-05)
(0 -1.079649364e-06 1.542669335e-05)
(0 -7.623296483e-07 2.362840745e-05)
(0 1.952802688e-05 4.202437484e-05)
(0 3.120501124e-05 3.240663335e-05)
(0 2.783360825e-05 2.126327962e-05)
(0 2.983567693e-05 2.961650715e-06)
(0 2.477761928e-05 -2.425161183e-06)
(0 1.979770088e-05 -3.836423938e-06)
(0 1.59784296e-05 -3.932668115e-06)
(0 1.307014176e-05 -3.589619715e-06)
(0 1.078982321e-05 -3.119834072e-06)
(0 8.946891429e-06 -2.639566435e-06)
(0 7.430808214e-06 -2.198368113e-06)
(0 6.161529355e-06 -1.809579995e-06)
(0 5.097126665e-06 -1.477013709e-06)
(0 4.202342168e-06 -1.193998806e-06)
(0 3.446682907e-06 -9.586295285e-07)
(0 2.814902256e-06 -7.642354805e-07)
(0 2.286036023e-06 -6.050991556e-07)
(0 1.843884829e-06 -4.783618522e-07)
(0 1.478919533e-06 -3.735415316e-07)
(0 1.178752213e-06 -2.88732353e-07)
(0 9.33853815e-07 -2.239343332e-07)
(0 7.346952063e-07 -1.734299968e-07)
(0 5.727001457e-07 -1.315018637e-07)
(0 4.469157543e-07 -9.910285384e-08)
(0 3.449541695e-07 -7.337422942e-08)
(0 2.658624637e-07 -5.526889926e-08)
(0 2.0392318e-07 -4.097521841e-08)
(0 1.562775795e-07 -2.954027418e-08)
(0 1.219727432e-07 -2.096406523e-08)
(0 1.000557659e-07 -1.334076879e-08)
(0 8.195043806e-08 -7.623296563e-09)
(0 7.528005243e-08 -9.529120561e-10)
(0 -7.842466257e-07 -6.092919714e-06)
(0 -2.362269001e-06 -6.153906095e-06)
(0 -3.975549116e-06 -6.277784654e-06)
(0 -5.636474837e-06 -6.458837946e-06)
(0 -7.378398095e-06 -6.702783443e-06)
(0 -9.225141657e-06 -7.005809468e-06)
(0 -1.121386913e-05 -7.365057315e-06)
(0 -1.338079117e-05 -7.777668249e-06)
(0 -1.578975284e-05 -8.236018938e-06)
(0 -1.852079881e-05 -8.723909913e-06)
(0 -2.172163045e-05 -9.20608343e-06)
(0 -2.573624893e-05 -9.608212305e-06)
(0 -3.155949453e-05 -9.770207355e-06)
(0 -4.292297089e-05 -9.303280456e-06)
(0 -2.537318944e-05 -7.232602542e-06)
(0 1.111857793e-05 5.944265436e-06)
(0 2.076585964e-05 1.021426439e-05)
(0 1.764126097e-05 6.500766076e-06)
(0 1.485685193e-05 5.510690445e-06)
(0 1.272804641e-05 4.719773442e-06)
(0 1.076028299e-05 4.019383071e-06)
(0 8.834447712e-06 3.661088136e-06)
(0 7.025820632e-06 3.723027426e-06)
(0 5.434457481e-06 4.308115425e-06)
(0 4.201389274e-06 5.560241873e-06)
(0 3.617254187e-06 7.708105668e-06)
(0 4.243317405e-06 1.099279353e-05)
(0 7.546110606e-06 1.594603042e-05)
(0 1.687416679e-05 2.189696627e-05)
(0 2.207134914e-05 1.132821857e-05)
(0 2.222476789e-05 9.111745081e-06)
(0 2.338255638e-05 3.317086917e-06)
(0 2.145576786e-05 -3.954585033e-07)
(0 1.856939724e-05 -2.101171084e-06)
(0 1.574020158e-05 -2.680541654e-06)
(0 1.324928923e-05 -2.710081888e-06)
(0 1.112429534e-05 -2.494723763e-06)
(0 9.318527137e-06 -2.189791938e-06)
(0 7.785291499e-06 -1.866754718e-06)
(0 6.484566542e-06 -1.563728684e-06)
(0 5.376329901e-06 -1.291195855e-06)
(0 4.43961727e-06 -1.053920734e-06)
(0 3.648700263e-06 -8.519033782e-07)
(0 2.978803132e-06 -6.832379545e-07)
(0 2.419443711e-06 -5.441127841e-07)
(0 1.954422627e-06 -4.297633373e-07)
(0 1.568493268e-06 -3.363779609e-07)
(0 1.249267706e-06 -2.630037275e-07)
(0 9.891227143e-07 -2.020173559e-07)
(0 7.785291615e-07 -1.553246675e-07)
(0 6.098637159e-07 -1.18161095e-07)
(0 4.735972919e-07 -8.862082122e-08)
(0 3.65918235e-07 -6.7656757e-08)
(0 2.811090566e-07 -5.050433897e-08)
(0 2.163110367e-07 -3.716357019e-08)
(0 1.658067003e-07 -2.668153797e-08)
(0 1.305489517e-07 -1.810532907e-08)
(0 1.057732382e-07 -1.238785673e-08)
(0 8.766791048e-08 -7.623296563e-09)
(0 7.909170066e-08 -1.905824112e-09)
(0 -8.118810877e-07 -5.548807011e-06)
(0 -2.444219475e-06 -5.595499711e-06)
(0 -4.107051042e-06 -5.687932174e-06)
(0 -5.821339864e-06 -5.824198601e-06)
(0 -7.60995584e-06 -6.000487343e-06)
(0 -9.502439209e-06 -6.212033815e-06)
(0 -1.152737737e-05 -6.454073482e-06)