/*--------------------------------*- C++ -*----------------------------------*\
  =========                 |
  \\      /  F ield         | OpenFOAM: The Open Source CFD Toolbox
   \\    /   O peration     | Website:  https://openfoam.org
    \\  /    A nd           | Version:  6
     \\/     M anipulation  |
\*---------------------------------------------------------------------------*/
FoamFile
{
    version     2.0;
    format      ascii;
    class       volVectorField;
    location    "0.0046";
    object      gradT;
}
// * * * * * * * * * * * * * * * * * * * * * * * * * * * * * * * * * * * * * //

dimensions      [0 -1 0 1 0 0 0];

internalField   nonuniform List<vector> 
600
(
(0 -1.098707611e-06 -7.44414905e-06)
(0 -3.294217013e-06 -7.410797138e-06)
(0 -5.488773493e-06 -7.343140371e-06)
(0 -7.681424154e-06 -7.234508395e-06)
(0 -9.867404445e-06 -7.074419179e-06)
(0 -1.203813811e-05 -6.855249394e-06)
(0 -1.418314317e-05 -6.558893741e-06)
(0 -1.627478518e-05 -6.159623596e-06)
(0 -1.82844767e-05 -5.63075739e-06)
(0 -2.015599599e-05 -4.926555375e-06)
(0 -2.180643972e-05 -3.987936997e-06)
(0 -2.310049427e-05 -2.720563945e-06)
(0 -2.381041376e-05 -1.013898437e-06)
(0 -2.357409159e-05 1.238785685e-06)
(0 -2.183407415e-05 4.067981606e-06)
(0 -1.717433415e-05 7.903452668e-06)
(0 -7.86057163e-06 1.000557669e-06)
(0 -6.225374519e-06 -5.491632229e-06)
(0 -1.203527938e-05 -3.203785653e-05)
(0 -1.23592695e-06 -5.297047593e-05)
(0 1.316448017e-05 -4.039013077e-05)
(0 1.490830925e-05 -3.458308465e-05)
(0 1.222681472e-05 -3.081431748e-05)
(0 8.977384562e-06 -3.386458896e-05)
(0 8.692463854e-06 -3.898553839e-05)
(0 1.91983194e-05 -5.194800129e-05)
(0 2.443266534e-05 -3.740465728e-05)
(0 1.223253217e-05 -9.655857952e-06)
(0 0.0001044391624 3.768862513e-05)
(0 0.0001021474088 7.569361695e-05)
(0 -1.083461018e-06 -6.605586433e-06)
(0 -3.244665585e-06 -6.576046168e-06)
(0 -5.403964319e-06 -6.516012698e-06)
(0 -7.555639761e-06 -6.41976858e-06)
(0 -9.690162801e-06 -6.284455076e-06)
(0 -1.180086301e-05 -6.102448862e-06)
(0 -1.386582345e-05 -5.86136211e-06)
(0 -1.585931552e-05 -5.550712785e-06)
(0 -1.774322264e-05 -5.157160094e-06)
(0 -1.94536998e-05 -4.658787084e-06)
(0 -2.08887854e-05 -4.033676776e-06)
(0 -2.191411875e-05 -3.254194701e-06)
(0 -2.231148308e-05 -2.299376812e-06)
(0 -2.179024021e-05 -1.186375522e-06)
(0 -1.996064903e-05 -5.050433945e-08)
(0 -1.623666868e-05 6.632267973e-07)
(0 -9.783548179e-06 -9.043135504e-07)
(0 -2.843870766e-05 -9.186072304e-06)
(0 -4.584364652e-05 -2.328345339e-05)
(0 -3.404754812e-06 -3.620589395e-05)
(0 2.871505216e-05 -2.46270594e-05)
(0 2.194842359e-05 -2.036373082e-05)
(0 1.291672306e-05 -1.753929949e-05)
(0 3.461929531e-06 -1.982724133e-05)
(0 -5.686979202e-06 -2.340923778e-05)
(0 1.68922722e-05 -3.480892486e-05)
(0 5.638380687e-05 -2.289180653e-05)
(0 7.54449069e-05 1.62471507e-06)
(0 0.0001164801593 4.755698248e-05)
(0 7.419563918e-05 1.470057442e-05)
(0 -1.069167338e-06 -5.821339812e-06)
(0 -3.203690371e-06 -5.797517019e-06)
(0 -5.332495922e-06 -5.747012671e-06)
(0 -7.451772357e-06 -5.671732618e-06)
(0 -9.549131829e-06 -5.566912299e-06)
(0 -1.161599809e-05 -5.427787129e-06)
(0 -1.363045419e-05 -5.255310045e-06)
(0 -1.556963027e-05 -5.048528134e-06)
(0 -1.739159812e-05 -4.806488462e-06)
(0 -1.903537143e-05 -4.536814347e-06)
(0 -2.040089445e-05 -4.25379947e-06)
(0 -2.136524143e-05 -3.978407876e-06)
(0 -2.17416417e-05 -3.752567716e-06)
(0 -2.132617206e-05 -3.642029921e-06)
(0 -1.998351895e-05 -3.762096839e-06)
(0 -1.802814339e-05 -4.310974189e-06)
(0 -1.771082368e-05 -5.705084546e-06)
(0 -2.86045144e-05 -8.951655949e-06)
(0 -3.905605394e-05 -6.469320017e-06)
(0 -2.580485879e-06 -4.796959348e-06)
(0 2.900854912e-05 -4.357666878e-06)
(0 2.199511631e-05 -4.204248036e-06)
(0 1.276425715e-05 -4.261422766e-06)
(0 3.107446248e-06 -4.510132809e-06)
(0 -6.290172549e-06 -4.972295161e-06)
(0 1.971670359e-05 -5.721284054e-06)
(0 6.086630531e-05 -7.972062345e-06)
(0 8.268036833e-05 -1.116622359e-05)
(0 0.0001175159749 -6.394992885e-06)
(0 6.928147177e-05 -2.648142632e-06)
(0 -1.057732392e-06 -5.087597513e-06)
(0 -3.170338444e-06 -5.067586368e-06)
(0 -5.279132838e-06 -5.031375702e-06)
(0 -7.372680645e-06 -4.973248066e-06)
(0 -9.447170224e-06 -4.898920932e-06)
(0 -1.149021368e-05 -4.807441366e-06)
(0 -1.348465863e-05 -4.704526863e-06)
(0 -1.541239976e-05 -4.597800719e-06)
(0 -1.723246178e-05 -4.503462418e-06)
(0 -1.890005789e-05 -4.450099342e-06)
(0 -2.033037893e-05 -4.481545447e-06)
(0 -2.141288701e-05 -4.671174941e-06)
(0 -2.197510512e-05 -5.105702843e-06)
(0 -2.180072224e-05 -5.888996566e-06)
(0 -2.062864039e-05 -7.061078403e-06)
(0 -1.817965638e-05 -8.460906226e-06)
(0 -1.442422994e-05 -8.681028919e-06)
(0 -2.920294314e-05 2.315576317e-07)
(0 -4.168799701e-05 1.51408198e-05)
(0 -1.293101674e-06 2.874935704e-05)
(0 2.930776346e-05 1.747354853e-05)
(0 2.204371479e-05 1.327215924e-05)
(0 1.261083828e-05 1.032670806e-05)
(0 2.752962955e-06 1.233068212e-05)
(0 -6.898130436e-06 1.542859924e-05)
(0 1.38915521e-05 2.602593435e-05)
(0 5.093886733e-05 1.26689659e-05)
(0 7.702197637e-05 -1.279475029e-05)
(0 0.0001249982403 -5.93492693e-05)
(0 7.794248942e-05 -2.015123143e-05)
(0 -1.049156183e-06 -4.386254234e-06)
(0 -3.148421467e-06 -4.373866384e-06)
(0 -5.239110532e-06 -4.347184839e-06)
(0 -7.320270481e-06 -4.311927093e-06)
(0 -9.383325115e-06 -4.26618732e-06)
(0 -1.142160401e-05 -4.217588798e-06)
(0 -1.341986061e-05 -4.172801931e-06)
(0 -1.53685658e-05 -4.148979136e-06)
(0 -1.724389672e-05 -4.172801931e-06)
(0 -1.901250152e-05 -4.288104291e-06)
(0 -2.062292294e-05 -4.570166269e-06)
(0 -2.198939881e-05 -5.12761982e-06)
(0 -2.295946329e-05 -6.130083312e-06)
(0 -2.328154759e-05 -7.757657127e-06)
(0 -2.255542858e-05 -1.015423097e-05)
(0 -1.964904678e-05 -1.380769582e-05)
(0 -9.01835979e-06 -5.509737564e-06)
(0 -4.782665653e-06 4.24617616e-06)
(0 -1.053825452e-05 2.849588238e-05)
(0 -2.458513131e-07 4.792671237e-05)
(0 1.352849258e-05 3.494423832e-05)
(0 1.48492287e-05 2.88922938e-05)
(0 1.182278e-05 2.49872602e-05)
(0 8.209337437e-06 2.799655646e-05)
(0 7.406032567e-06 3.318516265e-05)
(0 1.695707022e-05 4.636298367e-05)
(0 2.20446677e-05 3.340433243e-05)
(0 1.0663086e-05 8.418978092e-06)
(0 0.0001101585407 -4.371007647e-05)
(0 0.0001084890386 -8.357324681e-05)
(0 -1.044391624e-06 -3.714451234e-06)
(0 -3.132221966e-06 -3.707780855e-06)
(0 -5.215287738e-06 -3.692534256e-06)
(0 -7.29168313e-06 -3.672523103e-06)
(0 -9.351879031e-06 -3.649653219e-06)
(0 -1.139778122e-05 -3.633453708e-06)
(0 -1.341700189e-05 -3.633453708e-06)
(0 -1.541239978e-05 -3.666805636e-06)
(0 -1.737253988e-05 -3.764955573e-06)
(0 -1.929551643e-05 -3.974596228e-06)
(0 -2.116989449e-05 -4.388160071e-06)
(0 -2.297280409e-05 -5.158113014e-06)
(0 -2.460609537e-05 -6.537929686e-06)
(0 -2.582486993e-05 -8.877328817e-06)
(0 -2.667772622e-05 -1.199906874e-05)
(0 -1.353706882e-05 -1.08269869e-05)
(0 3.630594976e-06 8.576208604e-08)
(0 4.803629725e-06 8.383720358e-06)
(0 1.991586218e-06 1.758503927e-05)
(0 5.154301373e-06 2.752581798e-05)
(0 1.027334499e-05 2.649476709e-05)
(0 1.208673665e-05 2.439073724e-05)
(0 1.171510096e-05 2.324343115e-05)
(0 1.095086546e-05 2.466994048e-05)
(0 1.14673438e-05 2.755535822e-05)
(0 1.411167481e-05 3.078096561e-05)
(0 1.299581476e-05 2.576293062e-05)
(0 -9.243247042e-08 2.481192438e-05)
(0 3.300792111e-05 3.155091856e-05)
(0 7.612623914e-05 -4.323743209e-05)
(0 -1.042485799e-06 -3.065518112e-06)
(0 -3.124598665e-06 -3.060753556e-06)
(0 -5.204805697e-06 -3.055036079e-06)
(0 -7.279295262e-06 -3.048365695e-06)
(0 -9.345208633e-06 -3.044554051e-06)
(0 -1.140254577e-05 -3.049318607e-06)
(0 -1.345321253e-05 -3.072188497e-06)
(0 -1.549911476e-05 -3.131269049e-06)
(0 -1.755359314e-05 -3.250383053e-06)
(0 -1.963761183e-05 -3.472411564e-06)
(0 -2.18045339e-05 -3.867870076e-06)
(0 -2.413821551e-05 -4.589224504e-06)
(0 -2.667963199e-05 -6.00429892e-06)
(0 -2.874268664e-05 -9.22609462e-06)
(0 -2.450603958e-05 -1.815488066e-05)
(0 -7.561357237e-06 -4.626388076e-06)
(0 1.019139454e-05 5.066633453e-06)
(0 1.271756442e-05 8.965949617e-06)
(0 8.603843032e-06 1.368191143e-05)
(0 8.662923593e-06 1.806816569e-05)
(0 1.03943648e-05 1.909731069e-05)
(0 1.159884565e-05 1.89162574e-05)
(0 1.210198324e-05 1.891244578e-05)
(0 1.252126453e-05 1.987869858e-05)
(0 1.351896346e-05 2.159489321e-05)
(0 1.51627368e-05 2.346641254e-05)
(0 1.607562653e-05 2.458036671e-05)
(0 1.645012097e-05 3.033119102e-05)
(0 4.210727838e-05 4.940753772e-05)
(0 5.899192719e-05 3.385791857e-05)
(0 -1.041532887e-06 -2.427067029e-06)
(0 -3.121739929e-06 -2.42611412e-06)
(0 -5.203852785e-06 -2.427067029e-06)
(0 -7.279295262e-06 -2.428972853e-06)
(0 -9.352831929e-06 -2.436596153e-06)
(0 -1.142541566e-05 -2.453748567e-06)
(0 -1.350085813e-05 -2.487100489e-06)
(0 -1.558868849e-05 -2.545228129e-06)
(0 -1.771368237e-05 -2.642425155e-06)
(0 -1.99120505e-05 -2.799655646e-06)
(0 -2.228766031e-05 -3.026448722e-06)
(0 -2.511018582e-05 -3.331380578e-06)
(0 -2.924296544e-05 -3.676334746e-06)
(0 -3.797449873e-05 -3.882163756e-06)
(0 -2.207897255e-05 -3.364732502e-06)
(0 9.684445318e-06 6.396898693e-06)
(0 1.722293268e-05 1.012850235e-05)
(0 1.34189077e-05 8.712475008e-06)
(0 1.109475517e-05 1.009038585e-05)
(0 1.056874773e-05 1.19485644e-05)
(0 1.11204838e-05 1.289099441e-05)
(0 1.190187169e-05 1.324928935e-05)
(0 1.267754213e-05 1.359996101e-05)
(0 1.363140709e-05 1.433275037e-05)
(0 1.505505771e-05 1.547815067e-05)
(0 1.70981012e-05 1.692181247e-05)
(0 1.986154616e-05 1.878952009e-05)
(0 2.473569138e-05 2.256305187e-05)
(0 3.65336957e-05 2.864167797e-05)
(0 4.289438368e-05 1.293196963e-05)
(0 -1.040579976e-06 -1.795286332e-06)
(0 -3.124598668e-06 -1.798145071e-06)
(0 -5.206711527e-06 -1.801956716e-06)
(0 -7.288824391e-06 -1.810532925e-06)
(0 -9.369031444e-06 -1.825779521e-06)
(0 -1.145400303e-05 -1.846743583e-06)
(0 -1.35446921e-05 -1.878189682e-06)
(0 -1.565539235e-05 -1.925835288e-06)
(0 -1.780706777e-05 -1.985868745e-06)
(0 -2.002163541e-05 -2.059242974e-06)
(0 -2.233721177e-05 -2.113558965e-06)
(0 -2.478619574e-05 -2.042090557e-06)
(0 -2.723041519e-05 -1.48558991e-06)
(0 -2.843203733e-05 7.270719069e-07)
(0 -1.422697715e-05 8.644818264e-06)
(0 5.9309247e-06 8.649582824e-06)
(0 1.250697088e-05 6.433109362e-06)
(0 1.267944795e-05 5.647909813e-06)
(0 1.18389795e-05 6.00144019e-06)
(0 1.146448508e-05 6.72565337e-06)
(0 1.169699561e-05 7.25642538e-06)
(0 1.230685933e-05 7.580415483e-06)
(0 1.318544427e-05 7.894876476e-06)
(0 1.440040714e-05 8.374191233e-06)
(0 1.610707265e-05 9.067911217e-06)
(0 1.847505916e-05 9.970318958e-06)
(0 2.171591307e-05 1.11119076e-05)
(0 2.630227884e-05 1.251935872e-05)
(0 3.247714907e-05 1.287098329e-05)
(0 3.639457053e-05 6.898130444e-06)
(0 -1.043438711e-06 -1.162552719e-06)
(0 -3.130316139e-06 -1.167317282e-06)
(0 -5.216240645e-06 -1.177799313e-06)
(0 -7.303118067e-06 -1.193045906e-06)
(0 -9.389042592e-06 -1.211151237e-06)
(0 -1.147973165e-05 -1.234974036e-06)
(0 -1.35770911e-05 -1.261655574e-06)
(0 -1.569636756e-05 -1.290242938e-06)
(0 -1.784709007e-05 -1.320736122e-06)
(0 -2.003974073e-05 -1.340747276e-06)
(0 -2.227050791e-05 -1.332171069e-06)
(0 -2.448316969e-05 -1.241644421e-06)
(0 -2.647475591e-05 -9.605353617e-07)
(0 -2.784218475e-05 -3.735415299e-07)
(0 -1.415455582e-05 -2.134523027e-07)
(0 7.472736418e-06 -2.153581268e-07)
(0 1.422030676e-05 1.301677882e-06)
(0 1.298819145e-05 1.43508557e-06)
(0 1.217249872e-05 1.531329689e-06)
(0 1.182373292e-05 1.689513094e-06)
(0 1.197524592e-05 1.821014956e-06)
(0 1.254032278e-05 1.916306163e-06)
(0 1.347036497e-05 2.025891054e-06)
(0 1.480444184e-05 2.198368134e-06)
(0 1.665118543e-05 2.452795656e-06)
(0 1.914209759e-05 2.786314883e-06)
(0 2.241058595e-05 3.179867561e-06)
(0 2.649381415e-05 3.547691619e-06)
(0 3.091342035e-05 3.438106736e-06)
(0 3.394653941e-05 2.039231819e-06)
(0 -1.046297448e-06 -5.250545479e-07)
(0 -3.138892347e-06 -5.336307573e-07)
(0 -5.231487238e-06 -5.469715254e-07)
(0 -7.323129221e-06 -5.660297667e-07)
(0 -9.410959569e-06 -5.908054813e-07)
(0 -1.150260154e-05 -6.155811941e-07)
(0 -1.360186682e-05 -6.403569078e-07)
(0 -1.57154258e-05 -6.575093259e-07)
(0 -1.785661919e-05 -6.641797094e-07)
(0 -2.003307035e-05 -6.527447646e-07)
(0 -2.22381089e-05 -6.327336122e-07)
(0 -2.441456002e-05 -6.355923474e-07)
(0 -2.636135937e-05 -7.423184987e-07)
(0 -2.768781299e-05 -1.045344537e-06)
(0 -1.406879374e-05 -8.214102005e-07)
(0 7.447007792e-06 -8.195043764e-07)
(0 1.415741457e-05 -2.455654394e-06)
(0 1.290909975e-05 -2.74533966e-06)
(0 1.209245411e-05 -3.009296302e-06)
(0 1.175417034e-05 -3.325663112e-06)
(0 1.192378867e-05 -3.585808101e-06)
(0 1.251173542e-05 -3.767814306e-06)
(0 1.346750624e-05 -3.910751121e-06)
(0 1.482731173e-05 -4.061311222e-06)
(0 1.669501938e-05 -4.24522325e-06)
(0 1.920213105e-05 -4.466298856e-06)
(0 2.247728979e-05 -4.724538019e-06)
(0 2.655956508e-05 -4.949425266e-06)
(0 3.096964216e-05 -4.706432697e-06)
(0 3.397607968e-05 -3.205596187e-06)
(0 -1.052014921e-06 1.210198323e-07)
(0 -3.150327294e-06 1.124436239e-07)
(0 -5.250545482e-06 9.338538244e-08)
(0 -7.347904939e-06 6.575093253e-08)
(0 -9.438594025e-06 3.430483442e-08)
(0 -1.152737726e-05 1.905824131e-09)
(0 -1.361997216e-05 -2.286988958e-08)
(0 -1.571923746e-05 -3.335192235e-08)
(0 -1.784232552e-05 -1.715241718e-08)
(0 -2.000924756e-05 2.858736197e-08)
(0 -2.22533555e-05 8.862082224e-08)
(0 -2.459084877e-05 8.004461352e-08)
(0 -2.688546102e-05 -3.258959265e-07)
(0 -2.792032355e-05 -2.241249181e-06)
(0 -1.393062149e-05 -9.567237144e-06)
(0 5.838492229e-06 -9.572001704e-06)
(0 1.229447148e-05 -7.560404337e-06)
(0 1.243454955e-05 -6.952446431e-06)
(0 1.159312819e-05 -7.490841749e-06)
(0 1.124626822e-05 -8.395155311e-06)
(0 1.153309473e-05 -9.072675778e-06)
(0 1.221728559e-05 -9.491004174e-06)
(0 1.317591515e-05 -9.841675829e-06)
(0 1.446901681e-05 -1.029716778e-05)
(0 1.624619781e-05 -1.091179606e-05)
(0 1.866278283e-05 -1.168651359e-05)
(0 2.192936537e-05 -1.266991883e-05)
(0 2.651191949e-05 -1.39153749e-05)
(0 3.265534363e-05 -1.411739227e-05)
(0 3.647652096e-05 -7.985403111e-06)
(0 -1.05677948e-06 7.871053654e-07)
(0 -3.16843262e-06 7.718587736e-07)
(0 -5.277227014e-06 7.461301467e-07)
(0 -7.380303941e-06 7.089665761e-07)
(0 -9.475757586e-06 6.641797101e-07)
(0 -1.156072917e-05 6.1843993e-07)
(0 -1.363712456e-05 5.831821836e-07)
(0 -1.570970832e-05 5.707943276e-07)
(0 -1.779563281e-05 6.003346008e-07)
(0 -1.992539127e-05 6.984845434e-07)
(0 -2.218760455e-05 8.890669577e-07)
(0 -2.483002967e-05 1.195904641e-06)
(0 -2.868265315e-05 1.603751005e-06)
(0 -3.692820128e-05 1.977292536e-06)
(0 -2.139954625e-05 1.78099265e-06)
(0 9.453840598e-06 -7.215450157e-06)
(0 1.677601692e-05 -1.125579732e-05)
(0 1.297866232e-05 -1.001034124e-05)
(0 1.065069815e-05 -1.160361021e-05)
(0 1.017233631e-05 -1.369144057e-05)
(0 1.082793979e-05 -1.481492387e-05)
(0 1.174178246e-05 -1.528375661e-05)
(0 1.266420136e-05 -1.567063893e-05)
(0 1.375719148e-05 -1.637484092e-05)
(0 1.530472067e-05 -1.742304419e-05)
(0 1.744305537e-05 -1.870852259e-05)
(0 2.024747555e-05 -2.03694483e-05)
(0 2.511399747e-05 -2.395049183e-05)
(0 3.689866102e-05 -2.988046366e-05)
(0 4.300110983e-05 -1.396206757e-05)
(0 -1.064402776e-06 1.473202052e-06)
(0 -3.190349597e-06 1.456049637e-06)
(0 -5.314390585e-06 1.418886064e-06)
(0 -7.428902456e-06 1.366475901e-06)
(0 -9.528167749e-06 1.304536619e-06)
(0 -1.160932768e-05 1.237832772e-06)
(0 -1.366857066e-05 1.1768464e-06)
(0 -1.57001792e-05 1.142541567e-06)
(0 -1.771558819e-05 1.162552719e-06)
(0 -1.972146809e-05 1.281666727e-06)
(0 -2.175498247e-05 1.580881118e-06)
(0 -2.387711761e-05 2.221238023e-06)
(0 -2.61040731e-05 3.579137715e-06)
(0 -2.774308188e-05 6.775204787e-06)
(0 -2.312336417e-05 1.567254474e-05)
(0 -7.19829774e-06 3.288499537e-06)
(0 9.500533295e-06 -6.174870186e-06)
(0 1.208578372e-05 -1.022093481e-05)
(0 7.912981785e-06 -1.521419403e-05)
(0 8.034954542e-06 -1.993873207e-05)
(0 9.940778659e-06 -2.120134053e-05)
(0 1.135966472e-05 -2.114797745e-05)
(0 1.208387791e-05 -2.118418814e-05)
(0 1.271851733e-05 -2.211137155e-05)
(0 1.391346906e-05 -2.370654635e-05)
(0 1.571637871e-05 -2.536937794e-05)
(0 1.668739608e-05 -2.617744733e-05)
(0 1.699995123e-05 -3.166622082e-05)
(0 4.264376787e-05 -5.056342005e-05)
(0 5.9048149e-05 -3.527775755e-05)
(0 -1.074884811e-06 2.19074484e-06)
(0 -3.222748613e-06 2.16596913e-06)
(0 -5.364894932e-06 2.117370611e-06)
(0 -7.495606312e-06 2.048760942e-06)
(0 -9.606306553e-06 1.959187211e-06)
(0 -1.168746649e-05 1.858178529e-06)
(0 -1.373146287e-05 1.75716985e-06)
(0 -1.572400203e-05 1.672360679e-06)
(0 -1.765650767e-05 1.634244193e-06)
(0 -1.950706291e-05 1.695230566e-06)
(0 -2.124708037e-05 1.945846442e-06)
(0 -2.283272602e-05 2.537604832e-06)
(0 -2.412868643e-05 3.731603651e-06)
(0 -2.483574721e-05 5.88232619e-06)
(0 -2.488434571e-05 8.872564252e-06)
(0 -1.239357434e-05 7.872959494e-06)
(0 3.267535478e-06 -1.038674153e-06)
(0 3.939338481e-06 -9.466228465e-06)
(0 9.329009127e-07 -1.907062918e-05)
(0 4.184236889e-06 -2.963175365e-05)
(0 9.617741484e-06 -2.88884822e-05)
(0 1.176084072e-05 -2.69140484e-05)
(0 1.170080728e-05 -2.579437676e-05)
(0 1.123388035e-05 -2.717324048e-05)
(0 1.204576143e-05 -2.993287382e-05)
(0 1.497215441e-05 -3.290500661e-05)
(0 1.395063265e-05 -2.733618844e-05)
(0 7.270719065e-07 -2.602593435e-05)
(0 3.328998308e-05 -3.254671167e-05)
(0 7.596138535e-05 4.14926501e-05)
(0 -1.08917849e-06 2.951168664e-06)
(0 -3.264676739e-06 2.920675483e-06)
(0 -5.433504593e-06 2.857783282e-06)
(0 -7.586132947e-06 2.7643979e-06)
(0 -9.716844338e-06 2.645283896e-06)
(0 -1.181229795e-05 2.499488346e-06)
(0 -1.385438851e-05 2.337493295e-06)
(0 -1.582405777e-05 2.168827863e-06)
(0 -1.769176539e-05 2.023032313e-06)
(0 -1.941081876e-05 1.93822314e-06)
(0 -2.09126082e-05 1.985868746e-06)
(0 -2.20913604e-05 2.268883626e-06)
(0 -2.275744593e-05 2.941639544e-06)
(0 -2.260212129e-05 4.172801936e-06)
(0 -2.113273087e-05 6.079578976e-06)
(0 -1.711144195e-05 9.108886431e-06)
(0 -7.838654653e-06 1.986821657e-06)
(0 -5.947124196e-06 -4.723585105e-06)
(0 -1.225444915e-05 -3.047508074e-05)
(0 -1.781945564e-06 -5.06063011e-05)
(0 1.265943678e-05 -3.778486919e-05)
(0 1.445472311e-05 -3.180153434e-05)
(0 1.182373292e-05 -2.7893642e-05)
(0 8.580020231e-06 -3.085148101e-05)
(0 8.181702988e-06 -3.594956055e-05)
(0 1.831306409e-05 -4.900255009e-05)
(0 2.356551536e-05 -3.53606609e-05)
(0 1.179038098e-05 -8.98596077e-06)
(0 0.0001101623523 4.172420773e-05)
(0 0.0001080278291 8.186181674e-05)
(0 -1.105377995e-06 3.761143919e-06)
(0 -3.317086902e-06 3.723027442e-06)
(0 -5.522125415e-06 3.64584156e-06)
(0 -7.707152779e-06 3.529586288e-06)
(0 -9.870263181e-06 3.372355802e-06)
(0 -1.199620998e-05 3.176055912e-06)
(0 -1.406021751e-05 2.936874983e-06)
(0 -1.60394159e-05 2.665295049e-06)
(0 -1.788711237e-05 2.367986481e-06)
(0 -1.954422645e-05 2.068772092e-06)
(0 -2.091737276e-05 1.803862541e-06)
(0 -2.187504936e-05 1.628526719e-06)
(0 -2.222476809e-05 1.611374301e-06)
(0 -2.169780774e-05 1.808627101e-06)
(0 -1.9950167e-05 2.188839014e-06)
(0 -1.648537873e-05 2.442313623e-06)
(0 -1.056398316e-05 9.691115708e-07)
(0 -2.852256392e-05 -7.505135422e-06)
(0 -4.495076792e-05 -2.149483744e-05)
(0 -3.124598665e-06 -3.398370301e-05)
(0 2.842155524e-05 -2.223620303e-05)
(0 2.165206793e-05 -1.774322264e-05)
(0 1.265086059e-05 -1.462815313e-05)
(0 3.177961736e-06 -1.657209372e-05)
(0 -6.105307599e-06 -1.97462438e-05)
(0 1.556295986e-05 -3.063802875e-05)
(0 5.396626896e-05 -1.783565512e-05)
(0 7.781289338e-05 7.610908661e-06)
(0 0.0001241358549 5.505925918e-05)
(0 7.813688348e-05 1.829114708e-05)
(0 -1.126342062e-06 4.631152641e-06)
(0 -3.379026192e-06 4.587318693e-06)
(0 -5.627898663e-06 4.497744952e-06)
(0 -7.860571634e-06 4.358619791e-06)
(0 -1.007037473e-05 4.166131559e-06)
(0 -1.224777879e-05 3.914562768e-06)
(0 -1.43651494e-05 3.596290138e-06)
(0 -1.639485212e-05 3.202737459e-06)
(0 -1.828733546e-05 2.732951806e-06)
(0 -1.997398982e-05 2.183121544e-06)
(0 -2.135380652e-05 1.552293758e-06)
(0 -2.228384867e-05 8.480917389e-07)
(0 -2.25782985e-05 8.576208595e-08)
(0 -2.202465661e-05 -7.184956986e-07)
(0 -2.049809146e-05 -1.556105405e-06)
(0 -1.833021651e-05 -2.463277692e-06)
(0 -1.778610373e-05 -3.624877503e-06)
(0 -2.841012034e-05 -5.739389374e-06)
(0 -3.873301675e-05 -3.693487168e-06)
(0 -2.522358243e-06 -2.572862582e-06)
(0 2.890087005e-05 -2.054478415e-06)
(0 2.206086724e-05 -1.611374304e-06)
(0 1.299581478e-05 -1.234021127e-06)
(0 3.461929536e-06 -9.205130559e-07)
(0 -5.884232008e-06 -6.689442704e-07)
(0 2.02226999e-05 -4.840793303e-07)
(0 6.181349991e-05 -3.411425197e-07)
(0 8.468529532e-05 8.862082215e-08)
(0 0.0001208435438 2.420396652e-07)
(0 7.124923519e-05 4.802676813e-07)
(0 -1.14921195e-06 5.574535579e-06)
(0 -3.450494591e-06 5.524984159e-06)
(0 -5.749871398e-06 5.424928384e-06)
(0 -8.03971909e-06 5.267697894e-06)
(0 -1.03143202e-05 5.04566939e-06)
(0 -1.25660514e-05 4.74454917e-06)
(0 -1.477299574e-05 4.3519494e-06)
(0 -1.689989549e-05 3.846906011e-06)
(0 -1.89086341e-05 3.206549098e-06)
(0 -2.07248845e-05 2.400385491e-06)
(0 -2.225144966e-05 1.396969089e-06)
(0 -2.334253394e-05 1.524659304e-07)
(0 -2.379135552e-05 -1.374099197e-06)
(0 -2.333967523e-05 -3.18749086e-06)
(0 -2.169494899e-05 -5.2048057e-06)
(0 -1.855605664e-05 -7.085854116e-06)
(0 -1.383914193e-05 -7.224979282e-06)
(0 -2.859117359e-05 1.764793144e-06)
(0 -4.178519404e-05 1.668072569e-05)
(0 -1.485589911e-06 3.026353431e-05)
(0 2.938399643e-05 1.932124502e-05)
(0 2.247157231e-05 1.549244435e-05)
(0 1.334172184e-05 1.293959295e-05)
(0 3.743991502e-06 1.535713083e-05)
(0 -5.668873873e-06 1.892483361e-05)
(0 1.58898087e-05 3.014156156e-05)
(0 5.453992202e-05 1.763840232e-05)
(0 7.839607556e-05 -7.523240751e-06)
(0 0.0001245294075 -5.462854293e-05)
(0 7.837415859e-05 -1.731536513e-05)
(0 -1.175893488e-06 6.593198576e-06)
(0 -3.527680469e-06 6.541741334e-06)
(0 -5.883279088e-06 6.438826821e-06)
(0 -8.240783536e-06 6.271114298e-06)
(0 -1.059352344e-05 6.029074642e-06)
(0 -1.294054584e-05 5.696508323e-06)
(0 -1.526469836e-05 5.245780916e-06)
(0 -1.754120531e-05 4.650210883e-06)
(0 -1.973290304e-05 3.866917159e-06)
(0 -2.178261689e-05 2.844442513e-06)
(0 -2.360172605e-05 1.508459801e-06)
(0 -2.505491692e-05 -2.401338403e-07)
(0 -2.591825525e-05 -2.521405323e-06)
(0 -2.585536308e-05 -5.436363335e-06)
(0 -2.439645469e-05 -8.967855445e-06)
(0 -2.035039006e-05 -1.34189077e-05)
(0 -8.936409352e-06 -5.137148946e-06)
(0 -4.503462418e-06 4.231882479e-06)
(0 -1.023236975e-05 2.877413271e-05)
(0 1.172081841e-07 4.876432207e-05)
(0 1.412882718e-05 3.635073653e-05)
(0 1.568016802e-05 3.076095436e-05)
(0 1.286050124e-05 2.720849822e-05)
(0 9.446217297e-06 3.04798453e-05)
(0 8.901151596e-06 3.584664605e-05)
(0 1.893531567e-05 4.915215728e-05)
(0 2.414965046e-05 3.57475432e-05)
(0 1.241930294e-05 9.3042334e-06)
(0 0.0001110495135 -4.119248279e-05)
(0 0.0001085719419 -8.120811907e-05)
)
;

boundaryField
{
    lowerWall
    {
        type            calculated;
        value           nonuniform 0();
    }
    atmosphere
    {
        type            calculated;
        value           nonuniform List<vector> 
20
(
(0 0 -7.44414905e-06)
(0 0 -6.605586433e-06)
(0 0 -5.821339812e-06)
(0 0 -5.087597513e-06)
(0 0 -4.386254234e-06)
(0 0 -3.714451234e-06)
(0 0 -3.065518112e-06)
(0 0 -2.427067029e-06)
(0 0 -1.795286332e-06)
(0 0 -1.162552719e-06)
(0 0 -5.250545479e-07)
(0 0 1.210198323e-07)
(0 0 7.871053654e-07)
(0 0 1.473202052e-06)
(0 0 2.19074484e-06)
(0 0 2.951168664e-06)
(0 0 3.761143919e-06)
(0 0 4.631152641e-06)
(0 0 5.574535579e-06)
(0 0 6.593198576e-06)
)
;
    }
    rightWall
    {
        type            empty;
    }
    leftWall
    {
        type            empty;
    }
    frontAndBack
    {
        type            calculated;
        value           nonuniform 0();
    }
    procBoundary2to0
    {
        type            processor;
        value           nonuniform List<vector> 
30
(
(0 -1.115860029e-06 -8.338933491e-06)
(0 -3.345674269e-06 -8.306534493e-06)
(0 -5.581205971e-06 -8.2369719e-06)
(0 -7.822455151e-06 -8.12166954e-06)
(0 -1.006846891e-05 -7.953957028e-06)
(0 -1.231829428e-05 -7.711917351e-06)
(0 -1.456049637e-05 -7.378398128e-06)
(0 -1.678649898e-05 -6.921953259e-06)
(0 -1.897819671e-05 -6.299701669e-06)
(0 -2.109556732e-05 -5.45160993e-06)
(0 -2.309572978e-05 -4.282386832e-06)
(0 -2.488625152e-05 -2.643378071e-06)
(0 -2.626987984e-05 -2.915910922e-07)
(0 -2.687307321e-05 3.076000153e-06)
(0 -2.662531605e-05 7.168757477e-06)
(0 -1.316924476e-05 6.471225844e-06)
(0 3.611536734e-06 -1.86675474e-06)
(0 4.599706543e-06 -1.119004639e-05)
(0 1.634244193e-06 -2.144719187e-05)
(0 4.946566543e-06 -3.228751959e-05)
(0 1.032861388e-05 -3.179676982e-05)
(0 1.237165735e-05 -3.001482426e-05)
(0 1.219727446e-05 -2.902093702e-05)
(0 1.163505633e-05 -3.044172886e-05)
(0 1.239833889e-05 -3.312703507e-05)
(0 1.531043819e-05 -3.583997577e-05)
(0 1.409071072e-05 -2.963556526e-05)
(0 3.516245524e-07 -2.784409057e-05)
(0 3.113163725e-05 -3.386554197e-05)
(0 7.234413115e-05 3.494137964e-05)
)
;
    }
    procBoundary2to3
    {
        type            processor;
        value           nonuniform List<vector> 
20
(
(0 1.418504893e-05 3.953918012e-05)
(0 8.088317569e-06 1.469199815e-05)
(0 6.672290257e-06 -2.649095532e-06)
(0 8.205525752e-06 -2.014074931e-05)
(0 1.449569826e-05 -4.55263266e-05)
(0 7.226694495e-05 -1.794619286e-05)
(0 4.713198342e-05 1.617568223e-05)
(0 3.994321484e-05 6.043368287e-06)
(0 3.651654311e-05 3.925044781e-06)
(0 3.474317374e-05 1.018662993e-06)
(0 3.475270286e-05 -2.176451147e-06)
(0 3.652607223e-05 -5.093314968e-06)
(0 3.986412314e-05 -7.308835503e-06)
(0 4.692138986e-05 -1.760219158e-05)
(0 7.225551e-05 1.643296851e-05)
(0 1.457383705e-05 4.38987528e-05)
(0 8.309393167e-06 1.828161788e-05)
(0 6.825709099e-06 4.793147671e-07)
(0 8.33416888e-06 -1.730488302e-05)
(0 1.463101178e-05 -4.288580728e-05)
)
;
    }
    procBoundary2to4
    {
        type            processor;
        value           nonuniform List<vector> 
30
(
(0 -1.201622115e-06 7.696670758e-06)
(0 -3.604866352e-06 7.649025166e-06)
(0 -6.021451346e-06 7.547063564e-06)
(0 -8.448518378e-06 7.383162688e-06)
(0 -1.089083202e-05 7.13921721e-06)
(0 -1.334934513e-05 6.793310119e-06)
(0 -1.581738739e-05 6.317806998e-06)
(0 -1.827875928e-05 5.671732626e-06)
(0 -2.071344958e-05 4.799818077e-06)
(0 -2.308620063e-05 3.62964206e-06)
(0 -2.533602605e-05 2.056384242e-06)
(0 -2.73723991e-05 -7.813878942e-08)
(0 -2.898567923e-05 -3.013107953e-06)
(0 -2.978421957e-05 -7.045831824e-06)
(0 -2.968035214e-05 -1.178847518e-05)
(0 -1.472535016e-05 -1.125007986e-05)
(0 3.811648269e-06 -9.624411878e-08)
(0 5.319155153e-06 8.413260632e-06)
(0 2.747245487e-06 1.79747803e-05)
(0 6.091013936e-06 2.848730626e-05)
(0 1.138062881e-05 2.801085018e-05)
(0 1.333028689e-05 2.638613511e-05)
(0 1.30606128e-05 2.561237055e-05)
(0 1.238118648e-05 2.728758993e-05)
(0 1.300343805e-05 3.028735711e-05)
(0 1.579165878e-05 3.345293104e-05)
(0 1.469295115e-05 2.802990843e-05)
(0 1.453190901e-06 2.683972125e-05)
(0 3.401705499e-05 3.341957912e-05)
(0 7.668083396e-05 -4.042824732e-05)
)
;
    }
}


// ************************************************************************* //
