/*--------------------------------*- C++ -*----------------------------------*\
  =========                 |
  \\      /  F ield         | OpenFOAM: The Open Source CFD Toolbox
   \\    /   O peration     | Website:  https://openfoam.org
    \\  /    A nd           | Version:  6
     \\/     M anipulation  |
\*---------------------------------------------------------------------------*/
FoamFile
{
    version     2.0;
    format      ascii;
    class       volScalarField;
    location    "0.0046";
    object      Num_divU;
}
// * * * * * * * * * * * * * * * * * * * * * * * * * * * * * * * * * * * * * //

dimensions      [0 0 -1 0 0 0 0];

internalField   nonuniform List<scalar> 
600
(
9.56158606e-08
4.437449231e-08
1.094926944e-08
-1.189300208e-08
-2.674700942e-08
-3.401745244e-08
-3.13898054e-08
-1.376024481e-08
2.782558002e-08
1.081905561e-07
2.529156496e-07
5.070593735e-07
9.462929384e-07
1.633518487e-06
2.190235706e-06
2.301883212e-06
-1.282025329e-06
-7.674564424e-11
-8.107608531e-11
-4.466798751e-11
3.604978552e-12
3.601422359e-11
3.200379521e-11
6.925535963e-12
2.853248469e-11
1.498170835e-10
8.992091796e-11
2.491469952e-11
1.54548514e-06
-4.155813154e-11
1.231636584e-07
6.587482767e-08
2.706491525e-08
1.02760601e-10
-1.714120052e-08
-2.482307001e-08
-2.029839135e-08
2.068454016e-09
5.170939347e-08
1.424388689e-07
2.930606237e-07
5.253308369e-07
8.57004259e-07
1.280101021e-06
1.854767044e-06
2.798627765e-06
5.783367226e-06
5.911728828e-06
-7.054020261e-07
1.23975985e-11
-6.636864562e-13
2.665350795e-11
4.509852857e-12
-2.461745682e-11
4.68335116e-11
7.790049591e-18
-1.317460939e-06
-1.231664826e-06
-1.377911429e-07
9.320539238e-07
1.331252803e-07
7.461197351e-08
3.401815633e-08
5.141549798e-09
-1.381787043e-08
-2.281078088e-08
-1.916550421e-08
2.788915381e-09
5.206679559e-08
1.409306847e-07
2.828446832e-07
4.861980416e-07
7.407720118e-07
1.002079127e-06
1.26365591e-06
1.623489615e-06
2.088673478e-06
2.599397769e-06
7.139119016e-06
1.641853646e-05
-2.49546079e-11
2.050390245e-11
-5.687254614e-12
8.02517475e-11
6.645840632e-12
1.000693534e-05
-1.803075427e-06
-2.051096383e-06
-3.11115487e-06
-1.763229421e-06
1.274952355e-07
7.210052597e-08
3.273568065e-08
3.670197818e-09
-1.655423741e-08
-2.785992504e-08
-2.769346975e-08
-1.061751572e-08
3.246300561e-08
1.15048654e-07
2.555582796e-07
4.757626686e-07
7.933966216e-07
1.201731479e-06
1.75831329e-06
2.662398634e-06
5.602001819e-06
5.753083813e-06
-8.691638723e-07
-7.170829391e-11
-9.34087164e-12
1.871562702e-11
5.060125751e-11
2.005398422e-11
1.11897531e-10
3.393656814e-11
-1.790916863e-06
-1.3922308e-06
-2.482881002e-07
8.543826059e-07
1.090779506e-07
6.046518438e-08
2.470978039e-08
-3.197985155e-09
-2.442568274e-08
-3.898108755e-08
-4.480957939e-08
-3.729846481e-08
-8.214714322e-09
5.650932528e-08
1.817222411e-07
4.119600337e-07
8.22549754e-07
1.477939562e-06
1.999011963e-06
2.086868313e-06
-1.48640574e-06
-4.887426984e-11
-5.658235024e-11
-4.825666199e-11
-8.095329875e-12
1.531476803e-11
2.750577867e-11
7.9747352e-11
6.447009831e-11
4.563734298e-11
6.079186128e-11
3.217049193e-11
1.51594523e-06
2.555059803e-11
8.167569909e-08
4.241026164e-08
1.192191141e-08
-1.389894696e-08
-3.591339525e-08
-5.435597171e-08
-6.805384238e-08
-7.426677549e-08
-6.829530337e-08
-4.224836217e-08
1.951771232e-08
1.53993486e-07
4.600284685e-07
1.06640858e-06
2.774906237e-06
1.961091525e-06
-2.94475371e-11
-3.449701982e-11
-5.523276986e-11
-3.590963597e-11
-2.480405583e-12
1.9841256e-11
3.142249635e-11
4.719547173e-11
6.438205917e-11
6.713303308e-11
6.149369158e-11
9.883418812e-11
7.725150195e-11
4.641459285e-11
4.979659994e-08
2.106141594e-08
-3.368767281e-09
-2.659248678e-08
-4.914276202e-08
-7.145829573e-08
-9.32322785e-08
-1.136920614e-07
-1.324386959e-07
-1.518197626e-07
-1.816839012e-07
-2.452916939e-07
-3.139770139e-07
2.907291575e-07
1.148903166e-06
3.585798994e-06
-4.067278867e-11
-4.193038191e-11
-3.925885959e-11
-2.589405464e-11
-2.670538863e-12
1.648678614e-11
2.838633503e-11
4.532901472e-11
5.007563568e-11
5.53878019e-11
7.794926754e-11
8.55869556e-11
7.266047106e-11
4.866457082e-11
1.818982654e-08
-3.627106099e-10
-1.887185626e-08
-3.946521229e-08
-6.234921392e-08
-8.803396599e-08
-1.166321267e-07
-1.478748507e-07
-1.812379961e-07
-2.165934348e-07
-2.558406346e-07
-3.115992666e-07
-6.579058531e-07
-1.047760837e-06
-2.302685076e-06
-3.972197309e-11
-3.679444657e-11
-3.598882827e-11
-3.617672892e-11
-2.541252686e-11
-6.260569691e-12
1.154837876e-11
2.351830776e-11
3.525660209e-11
4.736421395e-11
5.743202101e-11
7.150694724e-11
8.333184973e-11
7.156637739e-11
4.938104886e-11
-8.800031761e-09
-1.894282061e-08
-3.253342551e-08
-5.094370551e-08
-7.416527736e-08
-1.028882228e-07
-1.378192869e-07
-1.797259254e-07
-2.292709722e-07
-2.865398334e-07
-3.498198248e-07
-4.351546858e-07
-1.146422951e-06
-2.033382804e-06
-1.598837663e-06
-2.770784082e-11
-3.266228792e-11
-3.604166618e-11
-3.569296335e-11
-2.660735248e-11
-1.179528376e-11
3.531467075e-12
1.839629876e-11
3.479932678e-11
5.124097831e-11
6.555614728e-11
7.71177596e-11
8.22002999e-11
7.024058238e-11
4.932388359e-11
-2.779987186e-08
-3.240089718e-08
-4.272157955e-08
-5.969189493e-08
-8.324133448e-08
-1.143264258e-07
-1.545508383e-07
-2.0685455e-07
-2.770182503e-07
-3.762640287e-07
-5.237209819e-07
-7.324502114e-07
-7.192294792e-07
-8.556329511e-07
4.869025087e-09
-3.011229691e-11
-3.332499072e-11
-3.582827143e-11
-3.615629278e-11
-3.175963154e-11
-1.904793092e-11
-3.521386079e-12
1.626865174e-11
3.984379154e-11
6.059928292e-11
7.714296666e-11
8.497174514e-11
7.793863693e-11
7.132467603e-11
5.074117154e-11
-3.689602814e-08
-3.941321227e-08
-4.843468664e-08
-6.478495591e-08
-8.834605445e-08
-1.200533465e-07
-1.615136252e-07
-2.15752008e-07
-2.887095132e-07
-3.91973225e-07
-5.450264283e-07
-7.618746374e-07
-7.589031464e-07
-9.128775961e-07
-3.191837928e-08
-3.01775297e-11
-3.8290623e-11
-4.017164546e-11
-4.197128815e-11
-3.171281498e-11
-2.145568558e-11
-2.978427418e-12
2.219883837e-11
4.853964466e-11
7.639945751e-11
8.50754124e-11
7.330162373e-11
7.868294952e-11
4.853485538e-11
4.104858569e-11
-3.584419653e-08
-3.976947528e-08
-4.94917663e-08
-6.605596097e-08
-8.932072983e-08
-1.198875825e-07
-1.584969174e-07
-2.061075345e-07
-2.638803683e-07
-3.327544e-07
-4.124992761e-07
-5.208863043e-07
-1.263601866e-06
-2.206713262e-06
-1.71874487e-06
-3.441991659e-11
-5.244476087e-11
-4.436485777e-11
-3.286222257e-11
-3.630203892e-11
-2.007173433e-11
5.304283971e-12
3.339460289e-11
6.361532698e-11
7.360583567e-11
7.473140417e-11
6.515577804e-11
1.700160404e-11
5.025187519e-11
2.717547683e-11
-2.606820894e-08
-3.436611081e-08
-4.651932977e-08
-6.4105707e-08
-8.708697119e-08
-1.158224567e-07
-1.504495155e-07
-1.909842061e-07
-2.375560294e-07
-2.912310258e-07
-3.555995578e-07
-4.463171047e-07
-8.470008206e-07
-1.342829737e-06
-2.398863293e-06
-3.151605363e-11
-4.134318131e-11
-4.468268639e-11
-5.501408624e-11
-2.431896866e-11
-6.730454568e-12
1.841516091e-11
4.695624339e-11
5.753954081e-11
8.076497298e-11
4.670376714e-11
-5.695112866e-12
8.158100185e-11
4.778142725e-11
3.761302395e-11
-1.03293937e-08
-2.497017726e-08
-4.072648516e-08
-5.991590563e-08
-8.270370656e-08
-1.09299501e-07
-1.394082701e-07
-1.725756803e-07
-2.091135699e-07
-2.524868603e-07
-3.139477845e-07
-4.181835785e-07
-5.35978631e-07
2.118987946e-08
9.14585591e-07
3.361799481e-06
-4.72350774e-11
-4.858299264e-11
6.784155513e-12
-6.03090058e-11
-2.265100015e-12
4.058222644e-11
5.05202411e-11
6.637704576e-11
1.169178242e-11
5.25257971e-11
7.787438795e-11
6.67061458e-11
7.903303498e-11
3.081278579e-11
7.762995306e-09
-1.388677531e-08
-3.366639794e-08
-5.466952403e-08
-7.724632687e-08
-1.013192103e-07
-1.257086635e-07
-1.480057464e-07
-1.642277467e-07
-1.675114366e-07
-1.435511355e-07
-5.688211648e-08
1.878685486e-07
7.039358805e-07
2.241273546e-06
1.659271485e-06
-1.64446005e-11
3.322335266e-11
-1.007688285e-10
-2.091933684e-11
-2.440743004e-11
2.446873684e-11
3.808066616e-11
-1.625162551e-11
1.609996879e-10
6.066438194e-11
4.261247569e-11
5.52797241e-11
3.375649101e-11
1.593432563e-11
2.444172037e-08
-3.54563181e-09
-2.700888756e-08
-4.971745038e-08
-7.214386326e-08
-9.392311027e-08
-1.129482845e-07
-1.249702126e-07
-1.223678316e-07
-9.189669517e-08
-9.289015189e-09
1.696371749e-07
5.211756064e-07
1.107087065e-06
1.522525879e-06
1.595998986e-06
-1.813874696e-06
-4.630433192e-11
-1.325611936e-11
-1.01295109e-10
-3.620692682e-11
1.400110665e-11
9.217281067e-14
1.586521121e-10
7.527276079e-11
3.026211578e-11
1.065315423e-11
5.45041845e-17
1.554318992e-06
1.898767547e-12
3.642981418e-08
3.942050838e-09
-2.224903304e-08
-4.631363712e-08
-6.886599624e-08
-8.9319359e-08
-1.051291898e-07
-1.111778238e-07
-9.90526168e-08
-5.585337948e-08
3.645636181e-08
1.999938094e-07
4.539448841e-07
7.954283482e-07
1.290083058e-06
2.135521688e-06
5.036402229e-06
5.417218093e-06
-8.14222572e-07
-3.540532452e-11
7.992372063e-12
3.108818106e-11
6.859786083e-11
5.833200112e-11
1.33545476e-11
9.015302148e-18
-1.432047967e-06
-1.3079879e-06
-2.368230638e-07
1.042207154e-06
4.158549834e-08
7.149734555e-09
-2.03863917e-08
-4.53500023e-08
-6.839077316e-08
-8.891513188e-08
-1.042633569e-07
-1.092313547e-07
-9.552874255e-08
-5.159760356e-08
3.573636361e-08
1.75505013e-07
3.597112591e-07
5.495848069e-07
7.496108966e-07
1.053041207e-06
1.514489146e-06
2.300780717e-06
6.772210477e-06
1.613918068e-05
2.651704546e-11
3.299335964e-11
2.72696228e-11
-1.381727089e-11
-2.317571117e-12
9.91581272e-06
-1.929734916e-06
-2.095943152e-06
-3.271837932e-06
-1.610070675e-06
3.923250632e-08
5.625387076e-09
-2.17537053e-08
-4.712456874e-08
-7.104570955e-08
-9.311367552e-08
-1.107782247e-07
-1.19136121e-07
-1.096825539e-07
-6.966196598e-08
1.91042097e-08
1.78376027e-07
4.273678183e-07
7.640540759e-07
1.253992467e-06
2.072702442e-06
4.989704942e-06
5.397250621e-06
-8.402709633e-07
-2.710452632e-11
1.265003745e-11
2.29191474e-11
6.640631767e-12
-2.074407469e-12
4.402949187e-11
2.918652868e-11
-1.646244775e-06
-1.494363219e-06
8.720097981e-08
9.592740486e-07
3.030141366e-08
4.73586872e-12
-2.599613092e-08
-5.128408e-08
-7.65338394e-08
-1.014314992e-07
-1.242074989e-07
-1.406836593e-07
-1.435018439e-07
-1.192275856e-07
-4.38521006e-08
1.269753766e-07
4.693856752e-07
1.043666353e-06
1.425334275e-06
1.477727307e-06
-1.900648353e-06
-9.069950639e-11
-6.832242736e-11
-3.549201993e-11
-3.471857438e-12
1.790893064e-11
1.213303274e-11
2.748152061e-11
2.129314493e-11
1.353250277e-10
6.68511154e-11
1.335017352e-11
1.469348395e-06
-6.599761767e-11
)
;

boundaryField
{
    lowerWall
    {
        type            calculated;
        value           nonuniform 0();
    }
    atmosphere
    {
        type            calculated;
        value           nonuniform List<scalar> 
20
(
9.56158606e-08
1.231636584e-07
1.331252803e-07
1.274952355e-07
1.090779506e-07
8.167569909e-08
4.979659994e-08
1.818982654e-08
-8.800031761e-09
-2.779987186e-08
-3.689602814e-08
-3.584419653e-08
-2.606820894e-08
-1.03293937e-08
7.762995306e-09
2.444172037e-08
3.642981418e-08
4.158549834e-08
3.923250632e-08
3.030141366e-08
)
;
    }
    rightWall
    {
        type            empty;
    }
    leftWall
    {
        type            empty;
    }
    frontAndBack
    {
        type            calculated;
        value           nonuniform 0();
    }
    procBoundary2to0
    {
        type            processor;
        value           nonuniform List<scalar> 
30
(
4.853492398e-08
8.866489887e-09
-1.465253059e-08
-3.054759209e-08
-4.202641216e-08
-4.951082514e-08
-5.129839994e-08
-4.362071975e-08
-2.068818296e-08
2.666398306e-08
1.152206811e-07
2.833325746e-07
6.307722724e-07
1.280273202e-06
3.050450585e-06
2.182241065e-06
-3.953467009e-11
-4.854855367e-11
-7.138070021e-11
-6.150942311e-11
-1.445840227e-11
1.562639855e-11
2.058736656e-11
4.508269189e-12
7.108886814e-11
1.019989643e-10
1.075936983e-10
5.031876649e-11
-2.428171201e-11
9.72044786e-11
)
;
    }
    procBoundary2to3
    {
        type            processor;
        value           nonuniform List<scalar> 
20
(
5.707936867e-11
-4.721979718e-11
-4.098817237e-11
-2.631415274e-11
1.715055749e-11
4.672616861e-11
5.180571924e-11
5.813739001e-11
6.313183243e-11
6.577643268e-11
5.759418548e-11
3.306180553e-11
1.080599958e-11
4.816514462e-11
3.208285527e-11
-2.53416226e-11
-3.439822361e-11
-2.554206781e-12
-3.668161038e-11
9.0043293e-11
)
;
    }
    procBoundary2to4
    {
        type            processor;
        value           nonuniform List<scalar> 
30
(
1.721327211e-08
-8.284064035e-09
-3.203324747e-08
-5.706914468e-08
-8.383733121e-08
-1.125761928e-07
-1.423889967e-07
-1.713024178e-07
-1.954475963e-07
-2.081187975e-07
-1.949681092e-07
-1.210985464e-07
1.083834955e-07
6.074157558e-07
2.113171494e-06
1.554176493e-06
-4.11558829e-11
-5.502617556e-11
-9.737386659e-11
-6.715522141e-11
-1.536198587e-11
2.300217997e-11
3.407642074e-11
4.155113905e-12
7.903356925e-11
8.891926585e-11
1.175502103e-10
5.739457561e-11
-2.646991937e-11
1.151070177e-10
)
;
    }
}


// ************************************************************************* //
