/*--------------------------------*- C++ -*----------------------------------*\
  =========                 |
  \\      /  F ield         | OpenFOAM: The Open Source CFD Toolbox
   \\    /   O peration     | Website:  https://openfoam.org
    \\  /    A nd           | Version:  6
     \\/     M anipulation  |
\*---------------------------------------------------------------------------*/
FoamFile
{
    version     2.0;
    format      ascii;
    class       volScalarField;
    location    "0.0046";
    object      TRHS;
}
// * * * * * * * * * * * * * * * * * * * * * * * * * * * * * * * * * * * * * //

dimensions      [1 -1 -3 0 0 0 0];

internalField   nonuniform List<scalar> 
600
(
9.527071639e-09
4.41865072e-09
1.085372077e-09
-1.195941926e-09
-2.684964239e-09
-3.422704598e-09
-3.178302054e-09
-1.441629761e-09
2.683198885e-09
1.067995633e-08
2.510945895e-08
5.048153222e-08
9.436834611e-08
1.630660738e-07
2.187308177e-07
2.29929716e-07
-1.68107556e-07
21.92721345
18.22874913
0
0
0
0
0
0
0
-0.005972238653
20.34657071
-5.117060069e-05
-2.519401748e-10
1.226647106e-08
6.554894992e-09
2.685055436e-09
-6.672358778e-12
-1.733806302e-09
-2.512629766e-09
-2.079264552e-09
1.297012169e-10
5.058111957e-09
1.408919066e-08
2.910645801e-08
5.229012222e-08
8.542156484e-08
1.27709826e-07
1.851771324e-07
2.795980877e-07
5.7812966e-07
-5.470463872e-05
-4.60462976e-05
441.0458492
132.9583696
126.7899674
66.44120738
117.6990121
105.8928943
360.0707085
-1.784768764e-07
-1.462849388e-07
-1.365817524e-08
7.111030581e-08
1.325494313e-08
7.421362071e-09
3.373978957e-09
4.916798449e-10
-1.406378104e-09
-2.316085196e-09
-1.970921588e-09
1.960653271e-10
5.087006511e-09
1.393005075e-08
2.807494293e-08
4.836546226e-08
7.378600381e-08
9.989523452e-08
1.260548206e-07
1.620721613e-07
2.08656331e-07
2.598248488e-07
7.138719455e-07
-0.002211536439
-0.0006554113317
-0.0006224748264
-0.0003180323844
-0.0005775872143
-0.0005205318966
-0.001805470868
-1.804365618e-07
-2.038534813e-07
-3.125332568e-07
-1.947039152e-07
1.269107084e-08
7.168898636e-09
3.244481014e-09
3.436620898e-10
-1.680433838e-09
-2.821039041e-09
-2.823575951e-09
-1.144557394e-09
3.126146058e-09
1.134040888e-08
2.534337452e-08
4.73168899e-08
7.904058779e-08
1.198489116e-07
1.755044033e-07
2.659450138e-07
5.599636966e-07
-4.390322627e-05
-2.758753095e-05
436.8921333
127.0402084
120.1428564
59.72073683
111.4271103
100.5996502
356.5225472
-2.264300525e-07
-1.623215102e-07
-2.476786391e-08
6.336694809e-08
1.085413064e-08
6.008991948e-09
2.445025646e-09
-3.399972226e-10
-2.46405721e-09
-3.929088941e-09
-4.530555185e-09
-3.807602347e-09
-9.364956216e-10
5.491124449e-09
1.796307735e-08
4.093732742e-08
8.195213855e-08
1.474588211e-07
1.995521298e-07
2.083591558e-07
-1.894052089e-07
17.63588928
10.89959331
0
0
0
0
0
0
0
-0.006186229415
17.08496159
-4.295266004e-05
-2.154444654e-10
8.122833303e-09
4.210788773e-09
1.172663253e-09
-1.403873241e-09
-3.606289749e-09
-5.459355152e-09
-6.846883735e-09
-7.495471042e-09
-6.934987526e-09
-4.375053286e-09
1.751239695e-09
1.514670867e-08
4.570077068e-08
1.062965299e-07
2.77091742e-07
-0.0001045716474
41.55317049
0
0
0
0
0
0
0
0
0
0
0
391.8050893
-0.002065114083
4.946240101e-09
2.085358184e-09
-3.480022426e-10
-2.665145556e-09
-4.920850066e-09
-7.16043765e-09
-9.354490573e-09
-1.142656848e-08
-1.333684929e-08
-1.531913597e-08
-1.83561174e-08
-2.477033798e-08
-3.16895634e-08
2.87417657e-08
1.145771387e-07
-0.0006627527167
106.5547472
0
0
0
0
0
0
0
0
0
0
0
-0.005417580673
-2.511078054e-05
1.797464556e-09
-4.697804518e-11
-1.889295465e-09
-3.943752277e-09
-6.232550953e-09
-8.808266519e-09
-1.168356686e-08
-1.483256852e-08
-1.820316312e-08
-2.178191549e-08
-2.575718628e-08
-3.138900187e-08
-6.607894847e-08
-1.051554307e-07
-2.532478674e-07
156.4892919
0
0
0
0
0
0
0
0
0
0
0
0
0
-0.002528705261
-8.906833826e-10
-1.895708694e-09
-3.247087017e-09
-5.083538481e-09
-7.405840403e-09
-1.028463899e-08
-1.379211328e-08
-1.800612372e-08
-2.299338069e-08
-2.876187906e-08
-3.513864215e-08
-4.37252375e-08
-1.149044311e-07
-2.036603275e-07
-1.757255213e-07
-0.006212997051
0
0
0
0
0
0
0
0
0
0
0
0
0
0
-2.782194264e-09
-3.234146688e-09
-4.259186129e-09
-5.951846551e-09
-8.306719111e-09
-1.142113769e-08
-1.54570267e-08
-2.07095721e-08
-2.775732642e-08
-3.772196883e-08
-5.251456942e-08
-7.34379434e-08
-7.21637694e-08
-8.585420266e-08
-0.0001753687594
69.5680886
0
0
0
0
0
0
0
0
0
0
0
0
0
0
-3.686498671e-09
-3.930615013e-09
-4.826055495e-09
-6.456790232e-09
-8.812661359e-09
-1.198889374e-08
-1.614775513e-08
-2.159297043e-08
-2.891917066e-08
-3.928457788e-08
-5.463572305e-08
-7.636990618e-08
-7.611967619e-08
-9.156607707e-08
-0.0001753009542
69.53973364
0
0
0
0
0
0
0
0
0
0
0
0
0
0
-3.579389114e-09
-3.964290183e-09
-4.929789452e-09
-6.581855005e-09
-8.907970475e-09
-1.196995819e-08
-1.584343306e-08
-2.062549317e-08
-2.643278749e-08
-3.335879729e-08
-4.137890104e-08
-5.226749813e-08
-1.26588357e-07
-2.209553534e-07
-1.877046406e-07
-0.006215769986
0
0
0
0
0
0
0
0
0
0
0
0
0
0
-2.602908403e-09
-3.424546417e-09
-4.632804547e-09
-6.386899843e-09
-8.684566941e-09
-1.156337596e-08
-1.50385979e-08
-1.911301843e-08
-2.380011504e-08
-2.920609689e-08
-3.568859688e-08
-4.48112222e-08
-8.493338642e-08
-1.345958629e-07
-2.62834202e-07
156.406716
0
0
0
0
0
0
0
0
0
0
0
0
0
-0.00247837817
-1.032387554e-09
-2.487429232e-09
-4.055432876e-09
-5.969527866e-09
-8.247755057e-09
-1.091264426e-08
-1.393617026e-08
-1.727399186e-08
-2.095770195e-08
-2.533320273e-08
-3.152390235e-08
-4.199535471e-08
-5.382081585e-08
1.859828751e-09
9.121273026e-08
-0.000661899927
106.2901468
0
0
0
0
0
0
0
0
0
0
0
-0.005430656131
-2.640565848e-05
7.723373996e-10
-1.38254466e-09
-3.352185826e-09
-5.447273076e-09
-7.704273952e-09
-1.011694041e-08
-1.256871238e-08
-1.481969232e-08
-1.647187377e-08
-1.68381492e-08
-1.448589805e-08
-5.865313629e-09
1.856512184e-08
7.013342464e-08
2.238208094e-07
-0.0001040876762
41.34922237
0
0
0
0
0
0
0
0
0
0
0
391.1475364
-0.002065608438
2.435714633e-09
-3.51887738e-10
-2.689186403e-09
-4.954399384e-09
-7.196181772e-09
-9.379490622e-09
-1.129495682e-08
-1.251856116e-08
-1.228832205e-08
-9.278805088e-09
-1.060877608e-09
1.678745573e-08
5.190066435e-08
1.104609862e-07
1.519902674e-07
1.593552421e-07
-2.221668252e-07
17.2768163
10.02012392
0
0
0
0
0
0
0
-0.006133422172
18.12055558
-4.555940137e-05
-8.500694533e-11
3.631075517e-09
3.942798331e-10
-2.215176069e-09
-4.615571176e-09
-6.869699627e-09
-8.920314423e-09
-1.051423466e-08
-1.114052669e-08
-9.957950727e-09
-5.675346544e-09
3.513508065e-09
1.982446328e-08
4.518169083e-08
7.930384604e-08
1.287621945e-07
2.133286474e-07
5.034619248e-07
-4.303166238e-05
-2.53652009e-05
435.2302211
128.5608766
122.6369614
62.44464494
113.9959277
102.5664572
357.0164545
-1.905695186e-07
-1.538435213e-07
-2.364894657e-08
8.196146628e-08
4.144946763e-09
7.139008488e-10
-2.029582062e-09
-4.519475217e-09
-6.822120073e-09
-8.879581437e-09
-1.04271556e-08
-1.094524724e-08
-9.604808964e-09
-5.248854631e-09
3.44270624e-09
1.73773164e-08
3.576102175e-08
5.472374384e-08
7.472151852e-08
1.050872949e-07
1.512826408e-07
2.299873452e-07
6.771896035e-07
-0.002192591847
-0.0006481286377
-0.0006184153561
-0.0003150798948
-0.000575085263
-0.0005175344094
-0.001799388338
-1.930659457e-07
-2.092237888e-07
-3.268102154e-07
-1.787214691e-07
3.90996414e-09
5.620014326e-10
-2.165466363e-09
-4.695710096e-09
-7.08599071e-09
-9.297413184e-09
-1.107625664e-08
-1.193304723e-08
-1.101734103e-08
-7.052448675e-09
1.782080467e-09
1.76664114e-08
4.252761843e-08
7.617001461e-08
1.251568482e-07
2.070507998e-07
4.987963667e-07
-4.247886062e-05
-2.471099591e-05
435.1811727
128.5486931
122.6854901
62.54606192
114.1376788
102.736998
357.160159
-2.120305469e-07
-1.721228815e-07
8.015624253e-09
7.411387107e-08
3.018975391e-09
2.001588011e-12
-2.587463903e-09
-5.109066056e-09
-7.631737906e-09
-1.01256076e-08
-1.241508569e-08
-1.408329358e-08
-1.439456586e-08
-1.200447316e-08
-4.509759424e-09
1.252851078e-08
4.672863388e-08
1.041257063e-07
1.422781016e-07
1.475368865e-07
-2.308940219e-07
17.05672269
9.759568854
0
0
0
0
0
0
0
-0.006121988256
18.3328613
-4.610243222e-05
-8.18533442e-11
)
;

boundaryField
{
    lowerWall
    {
        type            calculated;
        value           nonuniform 0();
    }
    atmosphere
    {
        type            calculated;
        value           nonuniform List<scalar> 
20
(
9.527071639e-09
1.226647106e-08
1.325494313e-08
1.269107084e-08
1.085413064e-08
8.122833303e-09
4.946240101e-09
1.797464556e-09
-8.906833826e-10
-2.782194264e-09
-3.686498671e-09
-3.579389114e-09
-2.602908403e-09
-1.032387554e-09
7.723373996e-10
2.435714633e-09
3.631075517e-09
4.144946763e-09
3.90996414e-09
3.018975391e-09
)
;
    }
    rightWall
    {
        type            empty;
    }
    leftWall
    {
        type            empty;
    }
    frontAndBack
    {
        type            calculated;
        value           nonuniform 0();
    }
    procBoundary2to0
    {
        type            processor;
        value           nonuniform List<scalar> 
30
(
4.84283491e-09
8.884991113e-10
-1.457639803e-09
-3.046787641e-09
-4.199514083e-09
-4.958546726e-09
-5.154389675e-09
-4.410696332e-09
-2.148376066e-09
2.550095619e-09
1.136532607e-08
2.813549045e-08
6.284138178e-08
1.277593131e-07
3.047294202e-07
-0.0001163531745
46.23581439
0
0
0
0
0
0
0
0
0
0
0
393.7128196
-0.002066295491
)
;
    }
    procBoundary2to3
    {
        type            processor;
        value           nonuniform List<scalar> 
20
(
-9.828763159e-05
-0.008773702983
-0.007212221876
-0.008774500233
-8.647299967e-05
427.410757
9.95338304
0
0
0
0
0
0
10.46709155
428.2645126
-3.379468263e-05
-0.008695011692
-0.007138562331
-0.008690896168
-2.985053753e-05
)
;
    }
    procBoundary2to4
    {
        type            processor;
        value           nonuniform List<scalar> 
30
(
1.713477193e-09
-8.237616004e-10
-3.187945712e-09
-5.683985667e-09
-8.357986755e-09
-1.123538191e-08
-1.422795149e-08
-1.713941802e-08
-1.95831918e-08
-2.088792571e-08
-1.961675055e-08
-1.227655777e-08
1.062636838e-08
6.049048654e-08
2.110192191e-07
-0.0001032122676
40.9977723
0
0
0
0
0
0
0
0
0
0
0
391.0692514
-0.002065449672
)
;
    }
}


// ************************************************************************* //
