/*--------------------------------*- C++ -*----------------------------------*\
  =========                 |
  \\      /  F ield         | OpenFOAM: The Open Source CFD Toolbox
   \\    /   O peration     | Website:  https://openfoam.org
    \\  /    A nd           | Version:  6
     \\/     M anipulation  |
\*---------------------------------------------------------------------------*/
FoamFile
{
    version     2.0;
    format      ascii;
    class       volScalarField;
    location    "0.0038";
    object      TRHS;
}
// * * * * * * * * * * * * * * * * * * * * * * * * * * * * * * * * * * * * * //

dimensions      [1 -1 -3 0 0 0 0];

internalField   nonuniform List<scalar> 
3600
(
1.659092524e-10
1.568719715e-10
-3.842866567e-10
-9.705836537e-10
-1.677834264e-09
-2.512565983e-09
-3.500454717e-09
-4.666959042e-09
-6.034103244e-09
-7.624413108e-09
-9.452867216e-09
-1.152931573e-08
-1.38599352e-08
-1.646860517e-08
-1.939194302e-08
-2.260308208e-08
-2.580064747e-08
-2.818996018e-08
-2.868744578e-08
-2.7197574e-08
-2.58013299e-08
-2.545367e-08
-2.491648177e-08
-2.4354278e-08
-2.562260393e-08
-3.097837329e-08
-3.883795176e-08
-4.951945683e-08
-5.669248706e-08
-1.869924796e-08
-0.0007016256525
0
0
0
0
0
0
0
0
0
0
0
0
0
0
0
0
0
0
0
0
0
0
0
0
0
0
0
0
0
1.858937966e-10
2.035526634e-10
-3.171960751e-10
-8.911110325e-10
-1.592534456e-09
-2.432094086e-09
-3.449650348e-09
-4.680993249e-09
-6.172214999e-09
-7.960472559e-09
-1.007842214e-08
-1.252494807e-08
-1.527894263e-08
-1.830239339e-08
-2.159931436e-08
-2.520408579e-08
-2.905415519e-08
-3.25447986e-08
-3.409883017e-08
-3.252140258e-08
-3.083911495e-08
-3.037098279e-08
-2.851668648e-08
-2.543485108e-08
-2.275294382e-08
-2.429803133e-08
-2.881860797e-08
-3.761697737e-08
-5.204075462e-08
-1.70707995e-08
-0.0007267870745
0
0
0
0
0
0
0
0
0
0
0
0
0
0
0
0
0
0
0
0
0
0
0
0
0
0
0
0
0
2.030133687e-10
2.275082785e-10
-3.129057291e-10
-9.166447968e-10
-1.663210196e-09
-2.578775273e-09
-3.714153174e-09
-5.131994339e-09
-6.898144078e-09
-9.077832324e-09
-1.170772299e-08
-1.477740437e-08
-1.820444718e-08
-2.187297441e-08
-2.572576677e-08
-2.99696136e-08
-3.503764358e-08
-4.083814055e-08
-4.432754279e-08
-4.088492924e-08
-3.772916522e-08
-3.783546097e-08
-3.390720136e-08
-2.677498572e-08
-1.760015424e-08
-1.556604315e-08
-1.800300033e-08
-2.434682723e-08
-3.813476266e-08
-5.187916559e-09
-0.0007815697776
0
0
0
0
0
0
0
0
0
0
0
0
0
0
0
0
0
0
0
0
0
0
0
0
0
0
0
0
0
2.174075438e-10
2.355969024e-10
-3.529963585e-10
-1.016514261e-09
-1.850853852e-09
-2.895254767e-09
-4.224601394e-09
-5.92688293e-09
-8.102920857e-09
-1.084721483e-08
-1.422337795e-08
-1.821414209e-08
-2.267553167e-08
-2.731507866e-08
-3.185825006e-08
-3.656382066e-08
-4.287557902e-08
-5.287878768e-08
-6.137674001e-08
-5.327089916e-08
-4.68366756e-08
-4.937207121e-08
-4.21199414e-08
-3.010662364e-08
-1.041185732e-08
-5.009433822e-09
-5.433606259e-09
-6.066514867e-09
-1.668926099e-08
1.477646743e-08
-0.0008767608228
0
0
0
0
0
0
0
0
0
0
0
0
0
0
0
0
0
0
0
0
0
0
0
0
0
0
0
0
0
2.281896575e-10
2.231498105e-10
-4.384673848e-10
-1.193185199e-09
-2.153653149e-09
-3.380183589e-09
-4.971597658e-09
-7.048489508e-09
-9.747142956e-09
-1.320819723e-08
-1.754854024e-08
-2.280226598e-08
-2.880091646e-08
-3.499420062e-08
-4.046541364e-08
-4.485492941e-08
-5.066739878e-08
-6.71479534e-08
-8.87700542e-08
-7.172606902e-08
-6.006154345e-08
-6.514133161e-08
-5.151531632e-08
-3.62763584e-08
-3.757976021e-09
4.754843484e-09
6.487661295e-09
2.110147074e-08
1.170733366e-08
4.200982801e-08
-0.001034720649
0
0
0
0
0
0
0
0
0
0
0
0
0
0
0
0
0
0
0
0
0
0
0
0
0
0
0
0
0
2.327074711e-10
1.872770994e-10
-5.71864206e-10
-1.446142324e-09
-2.571278607e-09
-4.030207975e-09
-5.949030253e-09
-8.47670711e-09
-1.178319329e-08
-1.605899622e-08
-2.151340046e-08
-2.834052278e-08
-3.65332518e-08
-4.541335023e-08
-5.287143484e-08
-5.601247127e-08
-5.508473053e-08
-7.769044529e-08
-1.222622904e-07
-1.275731281e-07
-1.353476362e-07
-5.596077937e-08
-4.409848809e-08
-2.010160012e-08
-6.377436376e-08
-1.446955023e-08
1.800798774e-08
6.728414411e-08
5.173455684e-08
7.575065811e-08
-0.001302726059
0
0
0
0
0
0
0
0
0
0
0
0
0
0
0
0
0
0
0
0
0
0
0
0
0
0
0
0
0
2.28857495e-10
1.236867844e-10
-7.54695565e-10
-1.776007593e-09
-3.102601758e-09
-4.84495827e-09
-7.155619047e-09
-1.020523919e-08
-1.417908761e-08
-1.929220864e-08
-2.584380725e-08
-3.429333774e-08
-4.520860342e-08
-5.858576759e-08
-7.149417409e-08
-7.62845162e-08
-5.629393431e-08
-8.709030696e-08
-7.283721085e-08
-2.060280467e-07
-2.382096572e-07
-5.220811006e-08
-1.110182369e-08
-9.575276163e-09
-1.423942108e-07
-4.320520956e-08
5.385282092e-08
1.695543152e-07
1.253009794e-07
1.167535303e-07
-0.001789203814
0
0
0
0
0
0
0
0
0
0
0
0
0
0
0
0
0
0
0
0
0
0
0
0
0
0
0
0
0
2.137429734e-10
2.816739216e-11
-9.883306546e-10
-2.179673686e-09
-3.741592067e-09
-5.818193228e-09
-8.592619427e-09
-1.225155732e-08
-1.696787594e-08
-2.290776433e-08
-3.032034911e-08
-3.980883425e-08
-5.280730611e-08
-7.172261084e-08
-9.572213879e-08
-1.14745552e-07
-1.025192207e-07
-4.440521234e-08
3.426533997e-08
-2.411829018e-07
-2.083118172e-07
-0.0001743470346
-0.0001109654195
-0.0001494656997
-1.358913229e-07
-2.973769261e-07
1.071741834e-07
3.875342302e-07
3.655489214e-07
1.813374073e-07
-0.002771116141
0
0
0
0
0
0
0
0
0
0
0
0
0
0
0
0
0
0
0
0
0
0
0
0
0
0
0
0
0
1.834865332e-10
-1.056426123e-10
-1.273246069e-09
-2.648184356e-09
-4.467310568e-09
-6.920853399e-09
-1.023707589e-08
-1.463499373e-08
-2.027431014e-08
-2.719517761e-08
-3.530114151e-08
-4.463765586e-08
-5.660968462e-08
-7.757613977e-08
-1.152403102e-07
-1.744918889e-07
-2.356920674e-07
-0.0001712336067
-0.0007740861332
167.3375045
-0.005864834831
69.16524582
44.03840478
59.30549084
-0.006562082662
144.7813271
-0.0004247922971
1.113261074e-07
4.384343125e-07
3.597040439e-07
-0.005046438311
0
0
0
0
0
0
0
0
0
0
0
0
0
0
0
0
0
0
0
0
0
0
0
0
0
0
0
0
0
1.302932245e-10
-2.902686671e-10
-1.612812947e-09
-3.16474158e-09
-5.235145402e-09
-8.075509174e-09
-1.198723402e-08
-1.727469658e-08
-2.417967608e-08
-3.272081524e-08
-4.23449325e-08
-5.136013308e-08
-5.668351375e-08
-5.94698269e-08
-1.034354558e-07
-2.307430039e-07
-4.471667472e-07
67.93940422
139.838192
0
0
0
0
0
0
0
23.86716737
106.5964686
-0.000268115638
-0.0001400846667
55.57092529
0
0
0
0
0
0
0
0
0
0
0
0
0
0
0
0
0
0
0
0
0
0
0
0
0
0
0
0
0
3.50388304e-11
-5.57120287e-10
-2.024183614e-09
-3.713325019e-09
-5.978094548e-09
-9.142257817e-09
-1.359842826e-08
-1.980086515e-08
-2.826551688e-08
-3.951645186e-08
-5.37531417e-08
-6.972869074e-08
-8.147652975e-08
-8.86668994e-08
-5.229485789e-08
-0.0001722415441
68.33770731
0
0
0
0
0
0
0
0
0
0
0
384.7933079
-0.002109749049
452.1333347
0
0
0
0
0
0
0
0
0
0
0
0
0
0
0
0
0
0
0
0
0
0
0
0
0
0
0
0
0
-1.556005875e-10
-9.824448833e-10
-2.559571211e-09
-4.296320738e-09
-6.632867885e-09
-9.955443273e-09
-1.471595278e-08
-2.146552425e-08
-3.096666947e-08
-4.444238072e-08
-6.402008664e-08
-9.301458163e-08
-1.278682875e-07
-7.523425334e-08
5.035721803e-08
-0.0007853613396
141.4249345
0
0
0
0
0
0
0
0
0
0
0
-0.005128010861
-4.382135836e-05
17.37719386
0
0
0
0
0
0
0
0
0
0
0
0
0
0
0
0
0
0
0
0
0
0
0
0
0
0
0
0
0
-6.019539507e-10
-1.746182359e-09
-3.33676028e-09
-4.957678665e-09
-7.181764737e-09
-1.043450776e-08
-1.514440593e-08
-2.176837603e-08
-3.080976572e-08
-4.285535558e-08
-5.866704327e-08
-8.002260021e-08
-1.350304539e-07
-2.11018039e-07
-2.417215785e-07
170.2180285
0
0
0
0
0
0
0
0
0
0
0
0
0
-0.001403000509
0
0
0
0
0
0
0
0
0
0
0
0
0
0
0
0
0
0
0
0
0
0
0
0
0
0
0
0
0
0
-1.850094041e-09
-3.266571232e-09
-4.564533329e-09
-5.772025116e-09
-7.653313799e-09
-1.063500911e-08
-1.509611323e-08
-2.142042987e-08
-2.998956733e-08
-4.10946898e-08
-5.476481336e-08
-7.249471286e-08
-1.494469367e-07
-2.468036455e-07
-2.12489273e-07
-0.005605843987
0
0
0
0
0
0
0
0
0
0
0
0
0
0
0
0
0
0
0
0
0
0
0
0
0
0
0
0
0
0
0
0
0
0
0
0
0
0
0
0
0
0
0
0
-5.58925637e-09
-6.40752926e-09
-6.488106274e-09
-6.75722893e-09
-8.016015184e-09
-1.053997803e-08
-1.460014005e-08
-2.059322434e-08
-2.916186187e-08
-4.138760682e-08
-5.892092318e-08
-8.229560438e-08
-7.784391642e-08
-8.128343451e-08
-0.000214219381
84.98058361
0
0
0
0
0
0
0
0
0
0
0
0
0
0
0
0
0
0
0
0
0
0
0
0
0
0
0
0
0
0
0
0
0
0
0
0
0
0
0
0
0
0
0
0
-2.225388246e-08
-1.410033523e-08
-9.222557235e-09
-7.707734984e-09
-8.099657621e-09
-9.994250544e-09
-1.334132602e-08
-1.832966286e-08
-2.541316282e-08
-3.546603359e-08
-4.991208729e-08
-6.904943486e-08
-5.987386599e-08
-5.579973138e-08
-0.0002081235026
82.56918763
0
0
0
0
0
0
0
0
0
0
0
0
0
0
0
0
0
0
0
0
0
0
0
0
0
0
0
0
0
0
0
0
0
0
0
0
0
0
0
0
0
0
0
0
-2.52584148e-08
-1.542061263e-08
-9.484406927e-09
-7.528854169e-09
-7.561651845e-09
-8.948932224e-09
-1.143239708e-08
-1.488501538e-08
-1.917127584e-08
-2.399023473e-08
-2.867022195e-08
-3.394204385e-08
-9.654406928e-08
-1.679174305e-07
-1.52547408e-07
-0.005844851033
0
0
0
0
0
0
0
0
0
0
0
0
0
0
0
0
0
0
0
0
0
0
0
0
0
0
0
0
0
0
0
0
0
0
0
0
0
0
0
0
0
0
0
0
-9.516956178e-09
-8.20922759e-09
-6.601831135e-09
-6.026777153e-09
-6.422420577e-09
-7.618625306e-09
-9.43901131e-09
-1.168875276e-08
-1.412205025e-08
-1.644658212e-08
-1.844422682e-08
-2.06891502e-08
-4.857380007e-08
-7.357793899e-08
-2.413033987e-07
162.6843961
0
0
0
0
0
0
0
0
0
0
0
0
0
-0.002528936189
0
0
0
0
0
0
0
0
0
0
0
0
0
0
0
0
0
0
0
0
0
0
0
0
0
0
0
0
0
0
-1.291790351e-09
-2.965857406e-09
-3.600108597e-09
-4.218642572e-09
-5.087167432e-09
-6.24462397e-09
-7.580960996e-09
-8.919410041e-09
-1.007467971e-08
-1.109984787e-08
-1.274714577e-08
-1.699426997e-08
-2.12755716e-08
4.636289329e-08
1.323319742e-07
-0.0007007524273
115.4395655
0
0
0
0
0
0
0
0
0
0
0
-0.00529066684
-1.894237256e-05
7.506527781
0
0
0
0
0
0
0
0
0
0
0
0
0
0
0
0
0
0
0
0
0
0
0
0
0
0
0
0
0
4.306858813e-09
9.559673717e-10
-1.068740256e-09
-2.559410067e-09
-3.832290208e-09
-4.964369874e-09
-5.836022417e-09
-6.114624654e-09
-5.237889446e-09
-2.25955598e-09
4.588307908e-09
1.929128666e-08
5.20124044e-08
1.151967187e-07
2.896863024e-07
-0.0001163613994
46.23581439
0
0
0
0
0
0
0
0
0
0
0
393.7128196
-0.002066295491
425.9718306
0
0
0
0
0
0
0
0
0
0
0
0
0
0
0
0
0
0
0
0
0
0
0
0
0
0
0
0
0
8.003038111e-09
3.645662298e-09
7.875965434e-10
-1.284689485e-09
-2.842852467e-09
-3.962827459e-09
-4.457962587e-09
-3.852811881e-09
-1.255336596e-09
4.865930223e-09
1.71869512e-08
4.040663601e-08
8.23535976e-08
1.496382644e-07
2.047460594e-07
2.173788663e-07
-1.742531543e-07
21.92721345
18.22874913
0
0
0
0
0
0
0
-0.005972238653
20.34657071
-5.117060024e-05
-2.519401748e-10
-9.828763159e-05
0
0
0
0
0
0
0
0
0
0
0
0
0
0
0
0
0
0
0
0
0
0
0
0
0
0
0
0
0
1.011725447e-08
5.231856605e-09
1.92288656e-09
-4.903031981e-10
-2.247991387e-09
-3.406879458e-09
-3.747296786e-09
-2.736727723e-09
5.72371307e-10
7.623464611e-09
2.043468546e-08
4.140437162e-08
7.26128317e-08
1.13637511e-07
1.709077805e-07
2.668186888e-07
5.680121876e-07
-5.470906216e-05
-4.6046263e-05
441.0458492
132.9583696
126.7899674
66.44120738
117.6990121
105.8928943
360.0707085
-1.78781099e-07
-1.467256538e-07
-1.342520619e-08
7.174362873e-08
-0.008773702983
0
0
0
0
0
0
0
0
0
0
0
0
0
0
0
0
0
0
0
0
0
0
0
0
0
0
0
0
0
1.081159364e-08
5.825899592e-09
2.377658599e-09
-1.861521507e-10
-2.084380691e-09
-3.360140475e-09
-3.794519701e-09
-2.852467769e-09
3.731087283e-10
7.174471148e-09
1.904330729e-08
3.705324172e-08
6.050436156e-08
8.534271974e-08
1.113570233e-07
1.48815135e-07
1.984497478e-07
2.54231808e-07
7.119179314e-07
-0.002211537056
-0.0006554113317
-0.0006224748264
-0.0003180323844
-0.0005775872143
-0.0005205318966
-0.001805470878
-1.81419134e-07
-2.034633847e-07
-3.147902924e-07
-1.950871137e-07
-0.007212221876
0
0
0
0
0
0
0
0
0
0
0
0
0
0
0
0
0
0
0
0
0
0
0
0
0
0
0
0
0
1.024836679e-08
5.552139579e-09
2.229831418e-09
-3.336725897e-10
-2.331911357e-09
-3.812276169e-09
-4.57346732e-09
-4.108899514e-09
-1.50836034e-09
4.639056288e-09
1.631482999e-08
3.592407109e-08
6.555398746e-08
1.049188214e-07
1.602018418e-07
2.519720692e-07
5.486457634e-07
-4.39079723e-05
-2.758756555e-05
436.8921333
127.0402084
120.1428564
59.72073683
111.4271103
100.5996502
356.5225472
-2.257089585e-07
-1.623303583e-07
-2.368251693e-08
6.342244742e-08
-0.008774500233
0
0
0
0
0
0
0
0
0
0
0
0
0
0
0
0
0
0
0
0
0
0
0
0
0
0
0
0
0
8.655627516e-09
4.579842405e-09
1.594793477e-09
-8.489276418e-10
-2.922879217e-09
-4.689968217e-09
-6.005923439e-09
-6.454697146e-09
-5.222140514e-09
-8.532532237e-10
9.259699429e-09
2.977540362e-08
6.850714859e-08
1.322419552e-07
1.834205393e-07
1.930336266e-07
-1.965466972e-07
17.63588928
10.89959331
0
0
0
0
0
0
0
-0.006186229415
17.08496159
-4.295139224e-05
-2.154444654e-10
-8.647299967e-05
0
0
0
0
0
0
0
0
0
0
0
0
0
0
0
0
0
0
0
0
0
0
0
0
0
0
0
0
0
6.344852506e-09
3.121736188e-09
6.217361293e-10
-1.619220408e-09
-3.747948407e-09
-5.856496242e-09
-7.896376585e-09
-9.648320344e-09
-1.066400393e-08
-1.01227883e-08
-6.360106329e-09
4.495669593e-09
3.255204802e-08
9.092568416e-08
2.58869527e-07
-0.0001045820694
41.55317049
0
0
0
0
0
0
0
0
0
0
0
391.8050893
-0.002065114083
427.410757
0
0
0
0
0
0
0
0
0
0
0
0
0
0
0
0
0
0
0
0
0
0
0
0
0
0
0
0
0
3.686737751e-09
1.423051087e-09
-5.219111372e-10
-2.514612408e-09
-4.673811216e-09
-7.117605531e-09
-9.891217873e-09
-1.298146252e-08
-1.638254474e-08
-2.031393718e-08
-2.567937815e-08
-3.464594145e-08
-4.407100299e-08
1.432915485e-08
1.007215296e-07
-0.000662758938
106.5547472
0
0
0
0
0
0
0
0
0
0
0
-0.005417580673
-2.511078054e-05
9.95338304
0
0
0
0
0
0
0
0
0
0
0
0
0
0
0
0
0
0
0
0
0
0
0
0
0
0
0
0
0
1.073258867e-09
-2.639999031e-10
-1.668229344e-09
-3.411179296e-09
-5.582477843e-09
-8.311784417e-09
-1.169208844e-08
-1.57685075e-08
-2.053373859e-08
-2.597612142e-08
-3.223351923e-08
-4.048325363e-08
-7.801876109e-08
-1.213885161e-07
-2.629108494e-07
156.4892919
0
0
0
0
0
0
0
0
0
0
0
0
0
-0.002528705261
0
0
0
0
0
0
0
0
0
0
0
0
0
0
0
0
0
0
0
0
0
0
0
0
0
0
0
0
0
0
-1.136927675e-09
-1.711175677e-09
-2.668020945e-09
-4.204857077e-09
-6.392042894e-09
-9.380171963e-09
-1.332556562e-08
-1.838199554e-08
-2.466657094e-08
-3.219325399e-08
-4.073451664e-08
-5.177217157e-08
-1.254493415e-07
-2.170533775e-07
-1.833033114e-07
-0.006212997051
0
0
0
0
0
0
0
0
0
0
0
0
0
0
0
0
0
0
0
0
0
0
0
0
0
0
0
0
0
0
0
0
0
0
0
0
0
0
0
0
0
0
0
0
-2.665749347e-09
-2.740601044e-09
-3.402320129e-09
-4.804209838e-09
-7.011304932e-09
-1.020231176e-08
-1.462541075e-08
-2.065438419e-08
-2.892086283e-08
-4.05534529e-08
-5.740355342e-08
-8.06332994e-08
-8.16309308e-08
-9.76954147e-08
-0.0001753753544
69.5680886
0
0
0
0
0
0
0
0
0
0
0
0
0
0
0
0
0
0
0
0
0
0
0
0
0
0
0
0
0
0
0
0
0
0
0
0
0
0
0
0
0
0
0
0
-3.35738098e-09
-3.250137873e-09
-3.797880817e-09
-5.142402516e-09
-7.343672317e-09
-1.057847902e-08
-1.509603935e-08
-2.127988952e-08
-2.977940255e-08
-4.17616838e-08
-5.911569323e-08
-8.310016692e-08
-8.506981394e-08
-1.028298851e-07
-0.0001753072659
69.53973364
0
0
0
0
0
0
0
0
0
0
0
0
0
0
0
0
0
0
0
0
0
0
0
0
0
0
0
0
0
0
0
0
0
0
0
0
0
0
0
0
0
0
0
0
-3.19569405e-09
-3.226344011e-09
-3.843454123e-09
-5.209010887e-09
-7.379272688e-09
-1.049672782e-08
-1.472341316e-08
-2.023614481e-08
-2.720710556e-08
-3.574172349e-08
-4.576671231e-08
-5.894110132e-08
-1.355995676e-07
-2.326039875e-07
-1.944083044e-07
-0.006215769986
0
0
0
0
0
0
0
0
0
0
0
0
0
0
0
0
0
0
0
0
0
0
0
0
0
0
0
0
0
0
0
0
0
0
0
0
0
0
0
0
0
0
0
0
-2.30477234e-09
-2.744330916e-09
-3.588935267e-09
-5.051362168e-09
-7.195976731e-09
-1.013916668e-08
-1.398085082e-08
-1.88017245e-08
-2.466927298e-08
-3.170200814e-08
-4.021663302e-08
-5.16961721e-08
-9.438419622e-08
-1.477852647e-07
-2.707599894e-07
156.406716
0
0
0
0
0
0
0
0
0
0
0
0
0
-0.00247837817
0
0
0
0
0
0
0
0
0
0
0
0
0
0
0
0
0
0
0
0
0
0
0
0
0
0
0
0
0
0
-9.206604721e-10
-1.948165058e-09
-3.12642756e-09
-4.739357222e-09
-6.868977673e-09
-9.614102567e-09
-1.302843657e-08
-1.714166978e-08
-2.203370881e-08
-2.805328906e-08
-3.626371624e-08
-4.899471103e-08
-6.307567478e-08
-9.264986671e-09
8.03917975e-08
-0.0006619048914
106.2901468
0
0
0
0
0
0
0
0
0
0
0
-0.005430656131
-2.640565848e-05
10.46709155
0
0
0
0
0
0
0
0
0
0
0
0
0
0
0
0
0
0
0
0
0
0
0
0
0
0
0
0
0
6.493952689e-10
-1.024422676e-09
-2.57246545e-09
-4.353501789e-09
-6.46528094e-09
-8.975092535e-09
-1.184472801e-08
-1.490362376e-08
-1.779528128e-08
-1.982578447e-08
-1.949035287e-08
-1.309478166e-08
9.103716823e-09
5.866238452e-08
2.09915937e-07
-0.0001040955737
41.34922237
0
0
0
0
0
0
0
0
0
0
0
391.1475364
-0.002065608438
428.2645126
0
0
0
0
0
0
0
0
0
0
0
0
0
0
0
0
0
0
0
0
0
0
0
0
0
0
0
0
0
2.085694292e-09
-1.692924989e-10
-2.052747124e-09
-3.988805171e-09
-6.08515539e-09
-8.377888856e-09
-1.073289918e-08
-1.279101354e-08
-1.382495898e-08
-1.249221123e-08
-6.276015194e-09
9.413984796e-09
4.245836186e-08
9.935182285e-08
1.399514628e-07
1.479215659e-07
-2.275218057e-07
17.2768163
10.02012392
0
0
0
0
0
0
0
-0.006133422172
18.12055558
-4.555892996e-05
-8.500694533e-11
-3.379468263e-05
0
0
0
0
0
0
0
0
0
0
0
0
0
0
0
0
0
0
0
0
0
0
0
0
0
0
0
0
0
3.110352367e-09
4.470872192e-10
-1.680586703e-09
-3.735627335e-09
-5.83852896e-09
-8.001711157e-09
-1.004523904e-08
-1.151995376e-08
-1.161447104e-08
-9.012976731e-09
-1.810055998e-09
1.239589261e-08
3.580104853e-08
6.847039668e-08
1.173632591e-07
2.028001075e-07
4.949452159e-07
-4.303527946e-05
-2.536520679e-05
435.2302211
128.5608766
122.6369614
62.44464494
113.9959277
102.5664572
357.0164545
-1.903166167e-07
-1.537769032e-07
-2.364971922e-08
8.193531902e-08
-0.008695011692
0
0
0
0
0
0
0
0
0
0
0
0
0
0
0
0
0
0
0
0
0
0
0
0
0
0
0
0
0
3.542831685e-09
7.09947386e-10
-1.531182407e-09
-3.659195452e-09
-5.798074638e-09
-7.95939944e-09
-9.951383901e-09
-1.131545604e-08
-1.1250981e-08
-8.573714096e-09
-1.860086764e-09
9.989697116e-09
2.646302903e-08
4.404596075e-08
6.359112326e-08
9.484676365e-08
1.433278445e-07
2.256118712e-07
6.756634488e-07
-0.002192592329
-0.0006481286377
-0.0006184153561
-0.0003150798948
-0.000575085263
-0.0005175344094
-0.001799387674
-1.94494733e-07
-2.086936215e-07
-3.266758403e-07
-1.794299434e-07
-0.007138562331
0
0
0
0
0
0
0
0
0
0
0
0
0
0
0
0
0
0
0
0
0
0
0
0
0
0
0
0
0
3.327164471e-09
5.842022568e-10
-1.628498736e-09
-3.780233679e-09
-5.987201231e-09
-8.281361693e-09
-1.048344066e-08
-1.216690579e-08
-1.251218827e-08
-1.021851889e-08
-3.36609624e-09
1.041226159e-08
3.331827627e-08
6.550666783e-08
1.139335371e-07
1.967139554e-07
4.904744695e-07
-4.248242375e-05
-2.471099001e-05
435.1811727
128.5486931
122.6854901
62.54606192
114.1376788
102.736998
357.160159
-2.121329567e-07
-1.724954777e-07
8.66998608e-09
7.421271162e-08
-0.008690896168
0
0
0
0
0
0
0
0
0
0
0
0
0
0
0
0
0
0
0
0
0
0
0
0
0
0
0
0
0
2.544698612e-09
1.24733185e-10
-1.944102337e-09
-4.070074601e-09
-6.383601486e-09
-8.928267687e-09
-1.160608825e-08
-1.406731526e-08
-1.561295344e-08
-1.488264804e-08
-9.385250895e-09
5.48892724e-09
3.76095145e-08
9.33330236e-08
1.305662567e-07
1.365130697e-07
-2.360926909e-07
17.05672269
9.759568854
0
0
0
0
0
0
0
-0.006121988256
18.3328613
-4.610266643e-05
-8.18533442e-11
-2.985053753e-05
0
0
0
0
0
0
0
0
0
0
0
0
0
0
0
0
0
0
0
0
0
0
0
0
0
0
0
0
0
1.405751743e-09
-5.504225816e-10
-2.390973884e-09
-4.472959314e-09
-6.907366422e-09
-9.796507204e-09
-1.313385002e-08
-1.679569978e-08
-2.043975582e-08
-2.338957922e-08
-2.41359629e-08
-1.903845469e-08
1.604433814e-09
4.942948916e-08
1.975083857e-07
-0.0001032198817
40.9977723
0
0
0
0
0
0
0
0
0
0
0
391.0692514
-0.002065449672
428.2798371
0
0
0
0
0
0
0
0
0
0
0
0
0
0
0
0
0
0
0
0
0
0
0
0
0
0
0
0
0
1.986565965e-10
-1.259304058e-09
-2.862449968e-09
-4.892807925e-09
-7.457631539e-09
-1.069916077e-08
-1.471983333e-08
-1.960805015e-08
-2.547963e-08
-3.271066361e-08
-4.235664188e-08
-5.677793199e-08
-7.272826284e-08
-2.155378463e-08
6.628618939e-08
-0.0006578013609
105.4936056
0
0
0
0
0
0
0
0
0
0
0
-0.005433004659
-2.643300587e-05
10.47795229
0
0
0
0
0
0
0
0
0
0
0
0
0
0
0
0
0
0
0
0
0
0
0
0
0
0
0
0
0
-7.57495114e-10
-1.818807136e-09
-3.248382528e-09
-5.258082075e-09
-7.953119338e-09
-1.14995997e-08
-1.606396481e-08
-2.17979012e-08
-2.883540526e-08
-3.733061184e-08
-4.763841787e-08
-6.119529966e-08
-1.062934246e-07
-1.63604286e-07
-2.825831277e-07
155.5736887
0
0
0
0
0
0
0
0
0
0
0
0
0
-0.002462870183
0
0
0
0
0
0
0
0
0
0
0
0
0
0
0
0
0
0
0
0
0
0
0
0
0
0
0
0
0
0
-1.181626247e-09
-2.075905717e-09
-3.464745386e-09
-5.521656371e-09
-8.35570229e-09
-1.217022015e-08
-1.720291938e-08
-2.372032417e-08
-3.198012154e-08
-4.216246609e-08
-5.420084052e-08
-6.976533741e-08
-1.491756687e-07
-2.49940834e-07
-2.028852787e-07
-0.006276739491
0
0
0
0
0
0
0
0
0
0
0
0
0
0
0
0
0
0
0
0
0
0
0
0
0
0
0
0
0
0
0
0
0
0
0
0
0
0
0
0
0
0
0
0
-9.041086647e-10
-1.949016357e-09
-3.480282286e-09
-5.667978214e-09
-8.642541642e-09
-1.264934726e-08
-1.802180802e-08
-2.524461115e-08
-3.508480989e-08
-4.881693817e-08
-6.841586553e-08
-9.507715128e-08
-1.007237292e-07
-1.234078567e-07
-0.0001683598211
66.77977147
0
0
0
0
0
0
0
0
0
0
0
0
0
0
0
0
0
0
0
0
0
0
0
0
0
0
0
0
0
0
0
0
0
0
0
0
0
0
0
0
0
0
0
0
8.510739333e-11
-1.465505933e-09
-3.334825052e-09
-5.731885114e-09
-8.812773679e-09
-1.283196158e-08
-1.812182945e-08
-2.516405298e-08
-3.473147626e-08
-4.812467255e-08
-6.73509931e-08
-9.371403524e-08
-9.930069019e-08
-1.217370736e-07
-0.0001645390075
65.26519055
0
0
0
0
0
0
0
0
0
0
0
0
0
0
0
0
0
0
0
0
0
0
0
0
0
0
0
0
0
0
0
0
0
0
0
0
0
0
0
0
0
0
0
0
1.592892552e-09
-7.862776895e-10
-3.164279074e-09
-5.834117991e-09
-8.98419071e-09
-1.284207244e-08
-1.763601879e-08
-2.361359731e-08
-3.104259155e-08
-4.017234785e-08
-5.109383059e-08
-6.566186219e-08
-1.455904689e-07
-2.450339415e-07
-1.921148769e-07
-0.006438666525
0
0
0
0
0
0
0
0
0
0
0
0
0
0
0
0
0
0
0
0
0
0
0
0
0
0
0
0
0
0
0
0
0
0
0
0
0
0
0
0
0
0
0
0
3.215165679e-09
-2.110115445e-10
-3.199043894e-09
-6.177789867e-09
-9.38782594e-09
-1.302818555e-08
-1.722672786e-08
-2.207372342e-08
-2.768149204e-08
-3.431562232e-08
-4.267471906e-08
-5.495305847e-08
-1.011695884e-07
-1.607555881e-07
-3.178932542e-07
149.7272741
0
0
0
0
0
0
0
0
0
0
0
0
0
-0.002961357906
0
0
0
0
0
0
0
0
0
0
0
0
0
0
0
0
0
0
0
0
0
0
0
0
0
0
0
0
0
0
4.341960794e-09
-1.649723285e-10
-3.737916388e-09
-7.000759734e-09
-1.026308504e-08
-1.368515059e-08
-1.727469993e-08
-2.095782058e-08
-2.472856253e-08
-2.899031022e-08
-3.518699609e-08
-4.660205505e-08
-6.243390297e-08
-2.955003999e-08
2.245210156e-08
-0.000567460591
75.50276747
0
0
0
0
0
0
0
0
0
0
0
-0.005872336876
-1.698030901e-05
6.727174156
0
0
0
0
0
0
0
0
0
0
0
0
0
0
0
0
0
0
0
0
0
0
0
0
0
0
0
0
0
4.175407729e-09
-1.169829557e-09
-5.106775884e-09
-8.533203842e-09
-1.182150931e-08
-1.504606204e-08
-1.800475407e-08
-2.025613507e-08
-2.115609539e-08
-1.990415099e-08
-1.540436603e-08
-5.263460836e-09
1.809591094e-08
6.267914759e-08
2.059998991e-07
-1.451328534e-06
0.5892347337
0
0
0
0
0
0
0
0
0
0
0
381.0144694
-0.00199176543
409.0996093
0
0
0
0
0
0
0
0
0
0
0
0
0
0
0
0
0
0
0
0
0
0
0
0
0
0
0
0
0
1.681418621e-09
-3.807238114e-09
-7.58819546e-09
-1.09473477e-08
-1.424662551e-08
-1.740072744e-08
-1.994312977e-08
-2.101237139e-08
-1.928454783e-08
-1.294264429e-08
2.628875614e-10
2.323565841e-08
6.095374579e-08
1.214800797e-07
1.258284429e-07
8.995574559e-08
-4.304334634e-07
697.495254
95.21606311
0
0
0
0
0
0
0
-0.0008339508787
369.2903067
-4.77220125e-07
-6.155990491e-09
-0.002441608337
0
0
0
0
0
0
0
0
0
0
0
0
0
0
0
0
0
0
0
0
0
0
0
0
0
0
0
0
0
-4.474695697e-09
-8.578236706e-09
-1.125689462e-08
-1.425184066e-08
-1.761951802e-08
-2.098691482e-08
-2.361755059e-08
-2.431064721e-08
-2.120725113e-08
-1.177647788e-08
6.218427369e-09
3.222188613e-08
5.738694396e-08
8.130384744e-08
1.447578287e-07
3.693653145e-07
6.627444874e-07
-0.001757099911
-0.0004547442866
85.17665405
281.8246233
158.0677184
0
157.0954245
279.6009393
-0.002697986191
-2.99902475e-09
-0.0009305566556
-3.629182714e-09
-3.122680186e-07
-0.01412385648
0
0
0
0
0
0
0
0
0
0
0
0
0
0
0
0
0
0
0
0
0
0
0
0
0
0
0
0
0
-1.923732039e-08
-1.633241295e-08
-1.573167893e-08
-1.816165637e-08
-2.18533499e-08
-2.588831608e-08
-2.930039993e-08
-3.0708411e-08
-2.780100241e-08
-1.662321049e-08
7.705463939e-09
4.814285346e-08
8.350296974e-08
1.266342956e-07
2.625536461e-07
4.148581843e-07
7.722656715e-07
7.741962012e-07
-7.489292384e-09
-0.000290531784
-0.001966397994
-0.0006774385405
-0.04744438141
-0.0006583180445
-0.001917430424
-0.0001896341459
-1.664187732e-08
-9.061077965e-08
3.516210415e-08
-2.71501862e-09
-0.00546205929
0
0
0
0
0
0
0
0
0
0
0
0
0
0
0
0
0
0
0
0
0
0
0
0
0
0
0
0
0
-1.944244783e-08
-1.763990696e-08
-1.824149254e-08
-2.179696633e-08
-2.670822867e-08
-3.207883393e-08
-3.701617677e-08
-4.038642746e-08
-4.012321764e-08
-3.104278113e-08
-3.513300232e-09
6.265075768e-08
1.066040621e-07
2.843449852e-07
4.885171371e-07
-2.327801857e-05
-0.000109082047
-0.003842296925
-0.002970354061
115.2503912
498.2361608
110.6456952
0
104.0320347
481.034642
75.22462674
-0.006601396974
-0.01150572174
-0.0002025060673
-0.0009502427948
216.1777766
0
0
0
0
0
0
0
0
0
0
0
0
0
0
0
0
0
0
0
0
0
0
0
0
0
0
0
0
0
-7.115993776e-09
-1.33025652e-08
-1.900794331e-08
-2.52879026e-08
-3.234139207e-08
-3.968506659e-08
-4.659519282e-08
-5.25006137e-08
-5.719284896e-08
-5.684021634e-08
-4.196446692e-08
1.874494378e-08
9.855298213e-08
3.061131943e-07
-4.331412235e-08
9.403951857
43.32202135
0
0
0
0
0
0
0
0
0
0
0
80.45939334
160.7790504
0
0
0
0
0
0
0
0
0
0
0
0
0
0
0
0
0
0
0
0
0
0
0
0
0
0
0
0
0
0
-4.63980958e-09
-1.241398935e-08
-2.071395994e-08
-2.961489142e-08
-3.936459308e-08
-4.935957759e-08
-5.838289114e-08
-6.549818377e-08
-7.331620247e-08
-8.458725036e-08
-1.217776457e-07
-1.018854317e-07
-0.0001379080312
-0.0008204737133
230.6622461
0
0
0
0
0
0
0
0
0
0
0
0
0
0
0
0
0
0
0
0
0
0
0
0
0
0
0
0
0
0
0
0
0
0
0
0
0
0
0
0
0
0
0
0
0
-4.007955147e-09
-1.272968794e-08
-2.318303811e-08
-3.488812494e-08
-4.825295031e-08
-6.254282784e-08
-7.515305387e-08
-8.053260031e-08
-7.639438029e-08
-1.049596676e-07
-2.148190813e-07
-4.296715317e-07
54.75643434
94.92021822
0
0
0
0
0
0
0
0
0
0
0
0
0
0
0
0
0
0
0
0
0
0
0
0
0
0
0
0
0
0
0
0
0
0
0
0
0
0
0
0
0
0
0
0
0
0
-3.908183011e-09
-1.340948236e-08
-2.57657501e-08
-4.038843103e-08
-5.851273947e-08
-8.071972826e-08
-1.057229548e-07
-1.255871611e-07
-1.255347118e-07
-6.82127867e-08
-0.0001872436794
74.2742702
0
0
0
0
0
0
0
0
0
0
0
0
0
0
0
0
0
0
0
0
0
0
0
0
0
0
0
0
0
0
0
0
0
0
0
0
0
0
0
0
0
0
0
0
0
0
0
0
-3.86807089e-09
-1.38293415e-08
-2.74518791e-08
-4.415028726e-08
-6.62294755e-08
-9.68251811e-08
-1.404416088e-07
-1.933108789e-07
-1.714751342e-07
-7.042583807e-08
-0.0006807618909
172.9872056
0
0
0
0
0
0
0
0
0
0
0
0
0
0
0
0
0
0
0
0
0
0
0
0
0
0
0
0
0
0
0
0
0
0
0
0
0
0
0
0
0
0
0
0
0
0
0
0
-3.7190755e-09
-1.356036921e-08
-2.728288578e-08
-4.390187525e-08
-6.542827203e-08
-9.441649329e-08
-1.355114569e-07
-2.399246157e-07
-3.305296569e-07
-3.712595897e-07
97.15187189
0
0
0
0
0
0
0
0
0
0
0
0
0
0
0
0
0
0
0
0
0
0
0
0
0
0
0
0
0
0
0
0
0
0
0
0
0
0
0
0
0
0
0
0
0
0
0
0
0
)
;

boundaryField
{
    lowerWall
    {
        type            calculated;
        value           uniform 0;
    }
    atmosphere
    {
        type            calculated;
        value           nonuniform List<scalar> 
60
(
1.659092524e-10
1.858937966e-10
2.030133687e-10
2.174075438e-10
2.281896575e-10
2.327074711e-10
2.28857495e-10
2.137429734e-10
1.834865332e-10
1.302932245e-10
3.50388304e-11
-1.556005875e-10
-6.019539507e-10
-1.850094041e-09
-5.58925637e-09
-2.225388246e-08
-2.52584148e-08
-9.516956178e-09
-1.291790351e-09
4.306858813e-09
8.003038111e-09
1.011725447e-08
1.081159364e-08
1.024836679e-08
8.655627516e-09
6.344852506e-09
3.686737751e-09
1.073258867e-09
-1.136927675e-09
-2.665749347e-09
-3.35738098e-09
-3.19569405e-09
-2.30477234e-09
-9.206604721e-10
6.493952689e-10
2.085694292e-09
3.110352367e-09
3.542831685e-09
3.327164471e-09
2.544698612e-09
1.405751743e-09
1.986565965e-10
-7.57495114e-10
-1.181626247e-09
-9.041086647e-10
8.510739333e-11
1.592892552e-09
3.215165679e-09
4.341960794e-09
4.175407729e-09
1.681418621e-09
-4.474695697e-09
-1.923732039e-08
-1.944244783e-08
-7.115993776e-09
-4.63980958e-09
-4.007955147e-09
-3.908183011e-09
-3.86807089e-09
-3.7190755e-09
)
;
    }
    rightWall
    {
        type            empty;
    }
    leftWall
    {
        type            empty;
    }
    frontAndBack
    {
        type            calculated;
        value           nonuniform List<scalar> 
120
(
1.659092524e-10
1.568719715e-10
-3.842866567e-10
-9.705836537e-10
-1.677834264e-09
-2.512565983e-09
-3.500454717e-09
-4.666959042e-09
-6.034103244e-09
-7.624413108e-09
-9.452867216e-09
-1.152931573e-08
-1.38599352e-08
-1.646860517e-08
-1.939194302e-08
-2.260308208e-08
-2.580064747e-08
-2.818996018e-08
-2.868744578e-08
-2.7197574e-08
-2.58013299e-08
-2.545367e-08
-2.491648177e-08
-2.4354278e-08
-2.562260393e-08
-3.097837329e-08
-3.883795176e-08
-4.951945683e-08
-5.669248706e-08
-1.869924796e-08
-0.0007016256525
0
0
0
0
0
0
0
0
0
0
0
0
0
0
0
0
0
0
0
0
0
0
0
0
0
0
0
0
0
-3.7190755e-09
-1.356036921e-08
-2.728288578e-08
-4.390187525e-08
-6.542827203e-08
-9.441649329e-08
-1.355114569e-07
-2.399246157e-07
-3.305296569e-07
-3.712595897e-07
97.15187189
0
0
0
0
0
0
0
0
0
0
0
0
0
0
0
0
0
0
0
0
0
0
0
0
0
0
0
0
0
0
0
0
0
0
0
0
0
0
0
0
0
0
0
0
0
0
0
0
0
)
;
    }
}


// ************************************************************************* //
