/*--------------------------------*- C++ -*----------------------------------*\
  =========                 |
  \\      /  F ield         | OpenFOAM: The Open Source CFD Toolbox
   \\    /   O peration     | Website:  https://openfoam.org
    \\  /    A nd           | Version:  6
     \\/     M anipulation  |
\*---------------------------------------------------------------------------*/
FoamFile
{
    version     2.0;
    format      ascii;
    class       volVectorField;
    location    "0.0038";
    object      U;
}
// * * * * * * * * * * * * * * * * * * * * * * * * * * * * * * * * * * * * * //

dimensions      [0 1 -1 0 0 0 0];

internalField   nonuniform List<vector> 
3600
(
(0 2.084274131e-10 -1.793061485e-13)
(0 2.093732005e-10 -5.231849863e-13)
(0 2.107309175e-10 -8.194281975e-13)
(0 2.12244346e-10 -1.03178844e-12)
(0 2.136614356e-10 -1.121441629e-12)
(0 2.146231494e-10 -1.046262854e-12)
(0 2.146638846e-10 -7.606963987e-13)
(0 2.132070177e-10 -2.185364555e-13)
(0 2.095671652e-10 6.219251698e-13)
(0 2.029663789e-10 1.787422264e-12)
(0 1.925765677e-10 3.275231955e-12)
(0 1.776005556e-10 5.033998456e-12)
(0 1.573951433e-10 6.947712425e-12)
(0 1.316171129e-10 8.834439564e-12)
(8.889857479e-53 1.003400402e-10 1.048351166e-11)
(5.918655689e-53 6.406405353e-11 1.174449627e-11)
(0 2.356337323e-11 1.263753267e-11)
(0 -2.034040822e-11 1.334865689e-11)
(0 -6.672886059e-11 1.390802639e-11)
(0 -1.137939653e-10 1.357719731e-11)
(0 -1.576087607e-10 1.084600039e-11)
(0 -1.924345221e-10 5.084535255e-12)
(0 -2.128950411e-10 -2.962178763e-12)
(0 -2.151792826e-10 -1.268778988e-11)
(0 -1.966404223e-10 -2.390278787e-11)
(0 -1.561056107e-10 -3.564548211e-11)
(0 -9.687578076e-11 -4.415806996e-11)
(0 -3.097829363e-11 -4.372692794e-11)
(0 2.34503566e-11 -2.958877989e-11)
(0 1.179204762e-12 9.215450551e-25)
(0 2.316669972e-12 4.228817567e-14)
(0 2.198527166e-12 7.709846814e-14)
(0 2.022702024e-12 1.001157116e-13)
(0 1.813015936e-12 1.108724474e-13)
(0 1.591711757e-12 1.115444857e-13)
(0 1.375775812e-12 1.052979885e-13)
(0 1.17605595e-12 9.514613978e-14)
(0 9.980887758e-13 8.340257126e-14)
(0 8.435562357e-13 7.160645275e-14)
(0 7.117133998e-13 6.06375597e-14)
(0 6.005058245e-13 5.091479538e-14)
(0 5.073340447e-13 4.255682771e-14)
(0 4.295193754e-13 3.55188827e-14)
(0 3.64557048e-13 2.9670156e-14)
(0 3.102297119e-13 2.485296702e-14)
(0 2.646399506e-13 2.090540523e-14)
(0 2.261980825e-13 1.768143752e-14)
(0 1.935906586e-13 1.505166952e-14)
(0 1.657415503e-13 1.290892137e-14)
(0 1.417729505e-13 1.116310603e-14)
(0 1.209673091e-13 9.742375891e-15)
(0 1.027338428e-13 8.587679275e-15)
(0 8.658258772e-14 7.652619336e-15)
(0 7.21091937e-14 6.899548124e-15)
(0 5.898310793e-14 6.299357223e-15)
(0 4.692675419e-14 5.828980513e-15)
(0 3.570430839e-14 5.473598375e-15)
(0 2.508392257e-14 5.211175711e-15)
(0 1.489957923e-14 5.058106724e-15)
(0 4.953159202e-15 4.962982941e-15)
(0 2.07435204e-10 -5.547419699e-13)
(0 2.084801198e-10 -1.620323095e-12)
(0 2.100209187e-10 -2.5453598e-12)
(0 2.118096021e-10 -3.222749567e-12)
(0 2.136014066e-10 -3.537728306e-12)
(0 2.150448192e-10 -3.364579611e-12)
(0 2.156787736e-10 -2.567176298e-12)
(0 2.149230733e-10 -1.005261462e-12)
(0 2.120731425e-10 1.449851608e-12)
(0 2.06307077e-10 4.886596127e-12)
(0 1.96719326e-10 9.308420389e-12)
(0 1.823996925e-10 1.457460586e-11)
(0 1.625732019e-10 2.034071917e-11)
(0 1.367980401e-10 2.603984746e-11)
(0 1.051719447e-10 3.097919991e-11)
(0 6.841604241e-11 3.462941188e-11)
(0 2.763326433e-11 3.704865055e-11)
(0 -1.633767973e-11 3.902080519e-11)
(0 -6.34616109e-11 4.107533678e-11)
(0 -1.134204714e-10 4.10607823e-11)
(0 -1.623008881e-10 3.351649225e-11)
(0 -2.025340939e-10 1.629155169e-11)
(0 -2.279579481e-10 -7.471782918e-12)
(0 -2.356659149e-10 -3.578054298e-11)
(0 -2.230889203e-10 -6.885102783e-11)
(0 -1.861077209e-10 -1.051010841e-10)
(0 -1.237662333e-10 -1.328930533e-10)
(0 -4.715237758e-11 -1.334699939e-10)
(0 2.11304995e-11 -9.102319032e-11)
(0 1.221492938e-12 9.765371691e-25)
(0 2.39376844e-12 1.343601009e-13)
(0 2.256354702e-12 2.431204067e-13)
(0 2.056476003e-12 3.126316909e-13)
(0 1.82444471e-12 3.427327504e-13)
(0 1.586137298e-12 3.415730717e-13)
(0 1.359377466e-12 3.198231539e-13)
(0 1.154160533e-12 2.870437827e-13)
(0 9.745490888e-13 2.502749544e-13)
(0 8.207912242e-13 2.139988214e-13)
(0 6.910217426e-13 1.806752765e-13)
(0 5.824250925e-13 1.5138331e-13)
(0 4.91938132e-13 1.26356975e-13)
(0 4.166327038e-13 1.053705853e-13)
(0 3.538911323e-13 8.798454533e-14)
(0 3.014649612e-13 7.369218164e-14)
(0 2.574684212e-13 6.199733942e-14)
(0 2.203443468e-13 5.245256694e-14)
(0 1.888181424e-13 4.467178463e-14)
(0 1.618529868e-13 3.833203596e-14)
(0 1.38606405e-13 3.316761973e-14)
(0 1.183918824e-13 2.896341746e-14)
(0 1.006440862e-13 2.554615399e-14)
(0 8.489445657e-14 2.2777579e-14)
(0 7.075593159e-14 2.054756986e-14)
(0 5.791254033e-14 1.876983835e-14)
(0 4.610099534e-14 1.737738512e-14)
(0 3.508650359e-14 1.63201645e-14)
(0 2.466843092e-14 1.555764644e-14)
(0 1.465138646e-14 1.506419538e-14)
(0 4.858035419e-15 1.482370044e-14)
(0 2.056988285e-10 -9.846230578e-13)
(0 2.069051956e-10 -2.883075969e-12)
(0 2.087383513e-10 -4.555899162e-12)
(0 2.109636546e-10 -5.830951434e-12)
(0 2.133480628e-10 -6.522497996e-12)
(0 2.15552726e-10 -6.425313107e-12)
(0 2.171260538e-10 -5.314667218e-12)
(0 2.174873722e-10 -2.953921842e-12)
(0 2.159114281e-10 8.834678748e-13)
(0 2.115209273e-10 6.372084505e-12)
(0 2.033022223e-10 1.356255964e-11)
(0 1.901691391e-10 2.227446233e-11)
(0 1.711115006e-10 3.196277258e-11)
(0 1.454652942e-10 4.161917369e-11)
(1.001492294e-52 1.132954217e-10 4.985998659e-11)
(6.889089437e-53 7.571479107e-11 5.544228968e-11)
(0 3.465746814e-11 5.832467344e-11)
(0 -8.51473025e-12 6.061221647e-11)
(0 -5.523897699e-11 6.520806112e-11)
(0 -1.088296154e-10 6.922196688e-11)
(0 -1.657125828e-10 5.916054399e-11)
(0 -2.139309175e-10 3.018240901e-11)
(0 -2.45996799e-10 -7.994341951e-12)
(0 -2.623300496e-10 -5.123635466e-11)
(0 -2.623151413e-10 -1.03005925e-10)
(0 -2.366959918e-10 -1.667756475e-10)
(0 -1.75266094e-10 -2.217431462e-10)
(0 -8.551882331e-11 -2.301546179e-10)
(0 4.828241497e-12 -1.603548957e-10)
(0 1.313564863e-12 1.083436525e-24)
(0 2.559790378e-12 2.520571442e-13)
(0 2.376798756e-12 4.484146283e-13)
(0 2.122314368e-12 5.64579353e-13)
(0 1.841957316e-12 6.058770912e-13)
(0 1.568802161e-12 5.922156899e-13)
(0 1.321246523e-12 5.453994018e-13)
(0 1.106507751e-12 4.829470428e-13)
(0 9.250438145e-13 4.166649546e-13)
(0 7.739565581e-13 3.534436836e-13)
(0 6.490978887e-13 2.966835901e-13)
(0 5.46187523e-13 2.475869053e-13)
(0 4.613213201e-13 2.061179634e-13)
(0 3.911469459e-13 1.716229574e-13)
(0 3.328786444e-13 1.43206858e-13)
(0 2.842425061e-13 1.199355726e-13)
(0 2.43400336e-13 1.009411012e-13)
(0 2.088725278e-13 8.546134478e-14)
(0 1.794701276e-13 7.285253303e-14)
(0 1.542373854e-13 6.258131488e-14)
(0 1.324043319e-13 5.421375346e-14)
(0 1.133458434e-13 4.739927452e-14)
(0 9.654800434e-14 4.185752707e-14)
(0 8.158400359e-14 3.736479455e-14)
(0 6.810145306e-14 3.374407034e-14)
(0 5.581292321e-14 3.085620716e-14)
(0 4.447708034e-14 2.859319701e-14)
(0 3.388456972e-14 2.687342017e-14)
(0 2.382795346e-14 2.563094944e-14)
(0 1.416563323e-14 2.483319629e-14)
(0 4.712664263e-15 2.44343381e-14)
(0 2.030533262e-10 -1.498397482e-12)
(0 2.044740491e-10 -4.401755144e-12)
(0 2.066927996e-10 -7.00697167e-12)
(0 2.094925725e-10 -9.085625962e-12)
(0 2.12655775e-10 -1.038940806e-11)
(0 2.158609984e-10 -1.064180515e-11)
(0 2.186720941e-10 -9.535626466e-12)
(0 2.205157647e-10 -6.739307587e-12)
(0 2.206559446e-10 -1.917800116e-12)
(0 2.18168582e-10 5.222099518e-12)
(0 2.119265031e-10 1.484450533e-11)
(0 2.006194051e-10 2.682908333e-11)
(0 1.828683594e-10 4.052799923e-11)
(0 1.575483526e-10 5.447463139e-11)
(-1.130350088e-52 1.244457927e-10 6.62652156e-11)
(-7.570094716e-53 8.516915523e-11 7.3162147e-11)
(0 4.346433652e-11 7.421835981e-11)
(0 2.945554332e-12 7.368072288e-11)
(0 -3.955865336e-11 8.150345792e-11)
(0 -9.618606862e-11 9.767540696e-11)
(0 -1.648341388e-10 8.938150052e-11)
(0 -2.226115402e-10 4.568961906e-11)
(0 -2.594521718e-10 -5.041458878e-12)
(0 -2.84861635e-10 -5.507123972e-11)
(0 -3.054676807e-10 -1.159985004e-10)
(0 -3.038320986e-10 -2.114177537e-10)
(0 -2.508832678e-10 -3.082988349e-10)
(0 -1.457506866e-10 -3.37409184e-10)
(0 -2.270064783e-11 -2.438672828e-10)
(0 1.473550082e-12 1.244778592e-24)
(0 2.842183069e-12 4.254643662e-13)
(0 2.568876913e-12 7.339019472e-13)
(0 2.213938467e-12 8.913854784e-13)
(0 1.852081046e-12 9.239657582e-13)
(0 1.525659609e-12 8.76005045e-13)
(0 1.250108819e-12 7.866038411e-13)
(0 1.025426086e-12 6.826748042e-13)
(0 8.45045729e-13 5.799841487e-13)
(0 7.008098596e-13 4.864168497e-13)
(0 5.851649642e-13 4.050145603e-13)
(0 4.918594654e-13 3.361506464e-13)
(0 4.15974184e-13 2.78892607e-13)
(0 3.537215983e-13 2.317871495e-13)
(0 3.022037473e-13 1.932755682e-13)
(0 2.591992044e-13 1.618958875e-13)
(0 2.229941934e-13 1.363640162e-13)
(0 1.922557786e-13 1.155946828e-13)
(0 1.659381125e-13 9.869104529e-14)
(0 1.432142072e-13 8.49233694e-14)
(0 1.234243645e-13 7.370319782e-14)
(0 1.06035656e-13 6.455953507e-14)
(0 9.060960626e-14 5.711683646e-14)
(0 7.67809998e-14 5.107711321e-14)
(0 6.424734418e-14 4.620483337e-14)
(0 5.2761667e-14 4.23153e-14)
(0 4.211820834e-14 3.92650205e-14)
(0 3.212425602e-14 3.694376037e-14)
(0 2.262820705e-14 3.52714022e-14)
(0 1.345477512e-14 3.418259112e-14)
(0 4.459177225e-15 3.365175984e-14)
(0 1.992840763e-10 -2.121618208e-12)
(0 2.009591576e-10 -6.254080973e-12)
(0 2.036333399e-10 -1.003220981e-11)
(0 2.071101535e-10 -1.318251441e-11)
(0 2.111889353e-10 -1.540602487e-11)
(0 2.155676194e-10 -1.636725736e-11)
(0 2.198291888e-10 -1.568917621e-11)
(0 2.234168905e-10 -1.295503357e-11)
(0 2.256043238e-10 -7.721328657e-12)
(0 2.254569663e-10 4.493980563e-13)
(0 2.217792175e-10 1.191146441e-11)
(0 2.130515177e-10 2.676327131e-11)
(0 1.974160048e-10 4.44922351e-11)
(0 1.729120769e-10 6.336363312e-11)
(0 1.383823845e-10 7.968661054e-11)
(0 9.550258855e-11 8.782365196e-11)
(0 5.114756853e-11 8.329041048e-11)
(0 1.574047823e-11 7.157274091e-11)
(0 -1.363635854e-11 7.980511111e-11)
(0 -7.014334127e-11 1.256206772e-10)
(0 -1.563185046e-10 1.268585931e-10)
(0 -2.233303699e-10 5.696034874e-11)
(0 -2.56202744e-10 -4.442199777e-12)
(0 -2.847454212e-10 -4.645829569e-11)
(0 -3.342587012e-10 -9.253748706e-11)
(0 -3.761509294e-10 -2.243864028e-10)
(0 -3.462695645e-10 -3.879588645e-10)
(0 -2.267421909e-10 -4.574413425e-10)
(0 -6.073401079e-11 -3.492757329e-10)
(0 1.739029228e-12 1.491898879e-24)
(0 3.293692325e-12 7.159091683e-13)
(0 2.84271987e-12 1.170334705e-12)
(0 2.312378179e-12 1.343064465e-12)
(0 1.826576882e-12 1.322558413e-12)
(0 1.431440243e-12 1.201200709e-12)
(0 1.127916282e-12 1.042310933e-12)
(0 8.998880589e-13 8.81143007e-13)
(0 7.287858595e-13 7.341616639e-13)
(0 5.989869698e-13 6.072055961e-13)
(0 4.988316856e-13 5.0078861e-13)
(0 4.200655693e-13 4.130900558e-13)
(0 3.569578231e-13 3.414987583e-13)
(0 3.055299072e-13 2.833431573e-13)
(0 2.629873821e-13 2.362008767e-13)
(0 2.273309541e-13 1.979982997e-13)
(0 1.970991314e-13 1.670163119e-13)
(0 1.711995567e-13 1.418550265e-13)
(0 1.487988143e-13 1.213875188e-13)
(0 1.29249538e-13 1.047122128e-13)
(0 1.120404975e-13 9.111121213e-14)
(0 9.675948207e-14 8.001409859e-14)
(0 8.306558249e-14 7.09688405e-14)
(0 7.067200047e-14 6.361780468e-14)
(0 5.933963985e-14 5.767915011e-14)
(0 4.887311034e-14 5.293189987e-14)
(0 3.910554069e-14 4.920417853e-14)
(0 2.989095142e-14 4.636485282e-14)
(0 2.106678422e-14 4.431324086e-14)
(0 1.254599087e-14 4.298724626e-14)
(0 4.181832979e-15 4.232916082e-14)
(0 1.941401466e-10 -2.873731896e-12)
(0 1.960936275e-10 -8.499119449e-12)
(0 1.992641111e-10 -1.373233606e-11)
(0 2.03476353e-10 -1.826786214e-11)
(0 2.085443256e-10 -2.176982361e-11)
(0 2.141811403e-10 -2.385928128e-11)
(0 2.199842794e-10 -2.410762557e-11)
(0 2.254142219e-10 -2.203491807e-11)
(0 2.297729538e-10 -1.711206234e-11)
(0 2.321724732e-10 -8.767905855e-12)
(0 2.314637631e-10 3.582960308e-12)
(0 2.26076866e-10 2.043107003e-11)
(0 2.137513327e-10 4.181960197e-11)
(0 1.913357353e-10 6.642434776e-11)
(0 1.554335908e-10 8.969703336e-11)
(0 1.057420622e-10 1.015374112e-10)
(0 5.239470098e-11 8.782415353e-11)
(0 2.268731516e-11 4.626449705e-11)
(0 2.380109202e-11 3.845972304e-11)
(0 -2.559305155e-11 1.501925612e-10)
(0 -1.371876414e-10 1.750529249e-10)
(0 -2.093122418e-10 4.99389975e-11)
(0 -2.204592584e-10 -1.85714738e-11)
(0 -2.360029127e-10 -3.266548654e-11)
(0 -3.172008271e-10 -1.370702765e-11)
(0 -4.258734626e-10 -1.859522409e-10)
(0 -4.460009017e-10 -4.532165744e-10)
(0 -3.213448964e-10 -5.84789213e-10)
(0 -1.091118671e-10 -4.843754695e-10)
(0 2.189459246e-12 1.910041068e-24)
(0 4.01251777e-12 1.268041069e-12)
(0 3.196032209e-12 1.888617282e-12)
(0 2.366162174e-12 1.988026942e-12)
(0 1.71021729e-12 1.821982157e-12)
(0 1.245412129e-12 1.563886765e-12)
(0 9.30051118e-13 1.300254265e-12)
(0 7.172768182e-13 1.065390498e-12)
(0 5.711083181e-13 8.682846136e-13)
(0 4.674368065e-13 7.07429971e-13)
(0 3.910494247e-13 5.778204435e-13)
(0 3.325696136e-13 4.739010605e-13)
(0 2.862272859e-13 3.906499769e-13)
(0 2.484237171e-13 3.238696618e-13)
(0 2.168588897e-13 2.701724176e-13)
(0 1.900146398e-13 2.2686863e-13)
(0 1.668509204e-13 1.918379414e-13)
(0 1.466269854e-13 1.634133289e-13)
(0 1.287952989e-13 1.402843674e-13)
(0 1.129379007e-13 1.214203205e-13)
(0 9.872625032e-14 1.06009342e-13)
(0 8.589328444e-14 9.341141173e-14)
(0 7.421331242e-14 8.312155159e-14)
(0 6.349130941e-14 7.474153595e-14)
(0 5.356143941e-14 6.795791714e-14)
(0 4.428669545e-14 6.252508899e-14)
(0 3.555116128e-14 5.825206088e-14)
(0 2.723331836e-14 5.4991825e-14)
(0 1.925060051e-14 5.263733849e-14)
(0 1.147069507e-14 5.110384375e-14)
(0 3.80109178e-15 5.035313207e-14)
(0 1.873472477e-10 -3.767197088e-12)
(0 1.895855014e-10 -1.117428532e-11)
(0 1.93261214e-10 -1.817013709e-11)
(0 1.982189366e-10 -2.443034635e-11)
(0 2.04280944e-10 -2.95955011e-11)
(0 2.11163227e-10 -3.325754976e-11)
(0 2.18458013e-10 -3.495484853e-11)
(0 2.256189086e-10 -3.417361796e-11)
(0 2.319621979e-10 -3.03495617e-11)
(0 2.366799194e-10 -2.285544667e-11)
(0 2.38822973e-10 -1.095659896e-11)
(0 2.371360813e-10 6.257909455e-12)
(0 2.295199455e-10 2.982504796e-11)
(0 2.119205091e-10 6.017111563e-11)
(0 1.772173752e-10 9.425939283e-11)
(0 1.179614713e-10 1.184478585e-10)
(0 4.099363638e-11 1.002764244e-10)
(0 9.073426258e-12 -3.439739693e-12)
(0 6.520698953e-11 -7.822793353e-11)
(0 2.702395453e-11 1.81067398e-10)
(0 -9.730068128e-11 2.600629021e-10)
(0 -1.58191127e-10 -6.806405456e-12)
(0 -1.368887164e-10 -6.420447009e-11)
(0 -1.248838421e-10 -4.257489719e-11)
(0 -2.13589733e-10 1.598398458e-10)
(0 -3.759964096e-10 -6.483933158e-11)
(0 -5.054621796e-10 -4.89746757e-10)
(0 -4.027325313e-10 -6.851882164e-10)
(0 -1.710032858e-10 -6.504173112e-10)
(0 3.007070296e-12 2.690017318e-24)
(0 5.182309609e-12 2.467886653e-12)
(0 3.562705746e-12 3.128359103e-12)
(0 2.245743054e-12 2.898604465e-12)
(0 1.402436704e-12 2.413496068e-12)
(0 9.097123491e-13 1.932087524e-12)
(0 6.294200152e-13 1.529388853e-12)
(0 4.679184074e-13 1.211840102e-12)
(0 3.708253309e-13 9.661217674e-13)
(0 3.085227995e-13 7.763788519e-13)
(0 2.653027751e-13 6.291354549e-13)
(0 2.328951019e-13 5.140197108e-13)
(0 2.069264243e-13 4.233094506e-13)
(0 1.850523479e-13 3.512947571e-13)
(0 1.6598635e-13 2.937350536e-13)
(0 1.489964778e-13 2.474526616e-13)
(0 1.336438302e-13 2.100424599e-13)
(0 1.196459826e-13 1.796664228e-13)
(0 1.068058059e-13 1.549080815e-13)
(0 9.49745126e-14 1.346679648e-13)
(0 8.403158862e-14 1.180877963e-13)
(0 7.387169162e-14 1.044945412e-13)
(0 6.439570672e-14 9.335885678e-14)
(0 5.550836596e-14 8.426383745e-14)
(0 4.712319288e-14 7.688146141e-14)
(0 3.916725409e-14 7.095446318e-14)
(0 3.157227667e-14 6.628235017e-14)
(0 2.427622902e-14 6.27116647e-14)
(0 1.717880296e-14 6.012539987e-14)
(0 1.026178444e-14 5.844871077e-14)
(0 3.4311213e-15 5.761753986e-14)
(0 1.786229127e-10 -4.807067803e-12)
(0 1.811339589e-10 -1.429422826e-11)
(0 1.8529115e-10 -2.336868623e-11)
(0 1.909570264e-10 -3.169940968e-11)
(0 1.979545827e-10 -3.891360601e-11)
(0 2.059848712e-10 -4.458093353e-11)
(0 2.145986391e-10 -4.821267488e-11)
(0 2.231792611e-10 -4.927731769e-11)
(0 2.309655785e-10 -4.722812695e-11)
(0 2.371395881e-10 -4.151910921e-11)
(0 2.409788811e-10 -3.15452235e-11)
(0 2.419652992e-10 -1.638056262e-11)
(0 2.394203587e-10 5.816499319e-12)
(0 2.305965179e-10 3.844148937e-11)
(0 2.056305254e-10 8.497135326e-11)
(0 1.427446169e-10 1.374655024e-10)
(0 1.884236703e-11 1.463083796e-10)
(0 -2.745518252e-11 -5.242714801e-11)
(0 9.716301384e-11 -3.563199012e-10)
(0 1.347674201e-24 1.44969933e-11)
(0 -3.261428506e-24 9.856881804e-12)
(0 -1.530218483e-24 -4.289457775e-12)
(0 -4.35677598e-25 -2.731153132e-12)
(0 7.18107133e-25 -3.677980115e-12)
(0 2.438505805e-24 1.102872886e-11)
(0 -2.892432554e-24 1.589582012e-11)
(0 -4.380318022e-10 -4.872681157e-10)
(0 -3.905497373e-10 -6.674295047e-10)
(0 -2.75976448e-10 -8.204027673e-10)
(0 4.657345893e-12 3.801886837e-24)
(0 7.140876869e-12 5.474352936e-12)
(0 3.626750024e-12 5.258047502e-12)
(0 1.651299143e-12 4.064471667e-12)
(0 7.437003496e-13 3.001272708e-12)
(0 3.613049112e-13 2.221529725e-12)
(0 2.098036969e-13 1.673319511e-12)
(0 1.540097327e-13 1.286409403e-12)
(0 1.356470662e-13 1.007940381e-12)
(0 1.304504939e-13 8.027916703e-13)
(0 1.286902837e-13 6.482911726e-13)
(0 1.267436086e-13 5.297054304e-13)
(0 1.235023322e-13 4.37249391e-13)
(0 1.188493202e-13 3.642443044e-13)
(0 1.130167938e-13 3.060027721e-13)
(0 1.063220461e-13 2.591496473e-13)
(0 9.906468158e-14 2.21200144e-13)
(0 9.14926068e-14 1.902910199e-13)
(0 8.379684098e-14 1.650041293e-13)
(0 7.611761556e-14 1.442473435e-13)
(0 6.855282659e-14 1.271718381e-13)
(0 6.116434493e-14 1.131133045e-13)
(0 5.398260867e-14 1.015492905e-13)
(0 4.701391398e-14 9.206792916e-14)
(0 4.025206513e-14 8.434457289e-14)
(0 3.368758422e-14 7.812404735e-14)
(0 2.730836277e-14 7.320713782e-14)
(0 2.107636806e-14 6.943996965e-14)
(0 1.498764658e-14 6.670987307e-14)
(0 8.962835055e-15 6.492873217e-14)
(0 2.96992087e-15 6.405408349e-14)
(0 1.676938244e-10 -5.991214568e-12)
(0 1.704467392e-10 -1.785113579e-11)
(0 1.750282785e-10 -2.931225672e-11)
(0 1.813202119e-10 -4.004916459e-11)
(0 1.891445061e-10 -4.968250449e-11)
(0 1.981753896e-10 -5.775414095e-11)
(0 2.078841825e-10 -6.372629233e-11)
(0 2.174918009e-10 -6.701562443e-11)
(0 2.259696429e-10 -6.707413423e-11)
(0 2.321578421e-10 -6.351509615e-11)
(0 2.351177851e-10 -5.622414411e-11)
(0 2.348504155e-10 -4.522629565e-11)
(0 2.332256105e-10 -2.969876896e-11)
(0 2.335920026e-10 -5.0589309e-12)
(0 2.326702981e-10 4.234001066e-11)
(0 1.973506798e-10 1.31440266e-10)
(0 -7.597583018e-13 2.628407851e-10)
(0 2.810158908e-24 -4.213845945e-12)
(0 -1.037839384e-11 -8.672419469e-12)
(0 -1.026772936e-11 1.850501793e-11)
(0 6.088936224e-12 1.384661649e-11)
(0 7.53657639e-12 -4.158267492e-12)
(0 6.114776588e-13 -2.95628744e-12)
(0 -6.364729333e-12 -2.883975774e-12)
(0 -5.301587064e-12 1.652315593e-11)
(0 9.095882305e-12 2.292807153e-11)
(0 8.979567017e-12 -1.480182803e-12)
(0 -2.133090302e-24 9.834756208e-12)
(0 -5.547717017e-10 -8.399849488e-10)
(0 8.481423204e-12 -2.272521122e-11)
(0 1.044035708e-11 1.417106982e-11)
(0 2.152824477e-12 8.364660338e-12)
(0 -1.103173219e-14 5.099764472e-12)
(0 -4.405052302e-13 3.305473847e-12)
(0 -4.182408478e-13 2.279349405e-12)
(0 -3.057003047e-13 1.655875307e-12)
(0 -1.974607199e-13 1.252474722e-12)
(0 -1.127924013e-13 9.763864937e-13)
(0 -5.112640736e-14 7.785126777e-13)
(0 -7.783463605e-15 6.314952914e-13)
(0 2.185332032e-14 5.192298126e-13)
(0 4.146529886e-14 4.317112048e-13)
(0 5.380572961e-14 3.624069747e-13)
(0 6.089169283e-14 3.068622602e-13)
(0 6.419384996e-14 2.619261697e-13)
(0 6.478520312e-14 2.253031618e-13)
(0 6.344996782e-14 1.952811248e-13)
(0 6.076212968e-14 1.705594722e-13)
(0 5.714222156e-14 1.501361382e-13)
(0 5.289754964e-14 1.332306245e-13)
(0 4.824914412e-14 1.192299855e-13)
(0 4.335033147e-14 1.07650143e-13)
(0 3.830364832e-14 9.810772108e-14)
(0 3.317931112e-14 9.029914857e-14)
(0 2.802981906e-14 8.398470962e-14)
(0 2.288819897e-14 7.897619558e-14)
(0 1.777896429e-14 7.512852788e-14)
(0 1.266756549e-14 7.233066686e-14)
(0 7.605994864e-15 7.051054796e-14)
(0 2.556472626e-15 6.960770709e-14)
(0 1.543161055e-10 -7.31110751e-12)
(0 1.572592111e-10 -2.181546177e-11)
(0 1.621695952e-10 -3.594627845e-11)
(0 1.689565468e-10 -4.940116019e-11)
(0 1.774549006e-10 -6.180408495e-11)
(0 1.87326051e-10 -7.265613554e-11)
(0 1.979602193e-10 -8.131786632e-11)
(0 2.08360021e-10 -8.70423e-11)
(0 2.170300629e-10 -8.909427889e-11)
(0 2.219413803e-10 -8.701283123e-11)
(0 2.207730241e-10 -8.107939062e-11)
(0 2.119594008e-10 -7.296041774e-11)
(0 1.97611704e-10 -6.600535446e-11)
(0 1.897408182e-10 -6.322065363e-11)
(0 2.127469041e-10 -5.723131942e-11)
(0 2.976338244e-10 -2.34467057e-11)
(0 1.115998926e-11 1.113528854e-11)
(0 1.620296717e-11 -2.31129642e-12)
(0 2.594252349e-12 -9.853471773e-12)
(0 -2.356351033e-12 5.474959788e-12)
(0 2.212101859e-12 5.952366198e-12)
(0 3.321707374e-12 1.180523031e-12)
(0 1.27429172e-12 6.800230431e-13)
(0 -6.451679379e-13 2.378179461e-12)
(0 9.366600393e-13 8.61720536e-12)
(0 6.872048295e-12 1.049955606e-11)
(0 7.031296249e-12 4.432167091e-13)
(0 8.424600317e-12 1.487204069e-11)
(0 -1.611399863e-11 1.406729109e-12)
(0 -2.617158294e-11 -6.472928491e-11)
(0 -6.769250141e-12 2.056890044e-11)
(0 -5.444555377e-12 8.929598515e-12)
(0 -3.40788736e-12 4.664256636e-12)
(0 -2.076714716e-12 2.841348858e-12)
(0 -1.288293635e-12 1.934395863e-12)
(0 -8.170709868e-13 1.418261082e-12)
(0 -5.254790796e-13 1.091150229e-12)
(0 -3.383149802e-13 8.665552021e-13)
(0 -2.144407085e-13 7.03325393e-13)
(0 -1.305925812e-13 5.799041165e-13)
(0 -7.304047869e-14 4.839705902e-13)
(0 -3.332050577e-14 4.079273516e-13)
(0 -5.999624318e-15 3.467835288e-13)
(0 1.25359885e-14 2.970905827e-13)
(0 2.47629477e-14 2.563705618e-13)
(0 3.241963674e-14 2.227890674e-13)
(0 3.6748917e-14 1.949570911e-13)
(0 3.86518544e-14 1.718046939e-13)
(0 3.878876783e-14 1.524968816e-13)
(0 3.764667374e-14 1.363754358e-13)
(0 3.558386342e-14 1.229175424e-13)
(0 3.286034425e-14 1.117058684e-13)
(0 2.966291949e-14 1.024066407e-13)
(0 2.612905367e-14 9.475323914e-14)
(0 2.236463124e-14 8.853341311e-14)
(0 1.8452181e-14 8.357932654e-14)
(0 1.443083933e-14 7.97597806e-14)
(0 1.036966667e-14 7.697790805e-14)
(0 6.239875277e-15 7.51573435e-14)
(0 2.067079996e-15 7.426053702e-14)
(0 1.383020956e-10 -8.754360027e-12)
(0 1.413593372e-10 -2.61370725e-11)
(0 1.464503827e-10 -4.317182612e-11)
(0 1.535298381e-10 -5.961361898e-11)
(0 1.624815457e-10 -7.511825354e-11)
(0 1.730107885e-10 -8.914666457e-11)
(0 1.845066827e-10 -1.009057396e-10)
(0 1.958485179e-10 -1.093344128e-10)
(0 2.051261387e-10 -1.131700695e-10)
(0 2.092309907e-10 -1.111790268e-10)
(0 2.033061413e-10 -1.027248689e-10)
(0 1.803016888e-10 -8.899407067e-11)
(0 1.318405308e-10 -7.514228438e-11)
(0 5.589346993e-11 -7.208705476e-11)
(1.908146585e-52 -2.657959238e-11 -7.610662924e-11)
(3.892490471e-52 -4.238546786e-12 3.230750821e-24)
(0 -2.311296268e-12 1.610456174e-11)
(0 3.886626612e-12 3.772665308e-12)
(0 2.158637986e-12 -6.022217041e-13)
(0 7.873327739e-13 2.545044437e-12)
(0 1.794499451e-12 3.307030397e-12)
(0 2.264233219e-12 2.247489515e-12)
(0 1.809134091e-12 2.117130365e-12)
(0 1.572453005e-12 3.098943378e-12)
(0 2.819789563e-12 5.067717427e-12)
(0 5.67266951e-12 5.258614047e-12)
(0 8.601276077e-12 2.593532125e-12)
(0 1.633734804e-11 3.591301715e-12)
(0 3.527405832e-11 -9.64099679e-12)
(0 -4.176210386e-12 -3.210488617e-11)
(0 -3.772056132e-11 2.083599904e-12)
(0 -1.375181938e-11 2.120139936e-12)
(0 -6.099281402e-12 1.785954901e-12)
(0 -3.170366002e-12 1.461012162e-12)
(0 -1.84132863e-12 1.198445462e-12)
(0 -1.14894594e-12 9.91494046e-13)
(0 -7.491665993e-13 8.272125732e-13)
(0 -5.006172387e-13 6.952824819e-13)
(0 -3.377774933e-13 5.882682795e-13)
(0 -2.271382664e-13 5.007747686e-13)
(0 -1.501234453e-13 4.2877892e-13)
(0 -9.572176264e-14 3.692085379e-13)
(0 -5.703103922e-14 3.196792118e-13)
(0 -2.952127446e-14 2.783207246e-13)
(0 -1.010766543e-14 2.436551925e-13)
(0 3.371732372e-15 2.145075669e-13)
(0 1.246559416e-14 1.899383664e-13)
(0 1.830192016e-14 1.69192522e-13)
(0 2.171296342e-14 1.51660245e-13)
(0 2.331821039e-14 1.368469012e-13)
(0 2.357957672e-14 1.243498469e-13)
(0 2.283942974e-14 1.138407435e-13)
(0 2.135101901e-14 1.0505217e-13)
(0 1.930608353e-14 9.776716232e-14)
(0 1.685590646e-14 9.181053189e-14)
(0 1.411456643e-14 8.704170583e-14)
(0 1.117754579e-14 8.335030132e-14)
(0 8.0651284e-15 8.065043388e-14)
(0 4.888623831e-15 7.888601719e-14)
(0 1.659666147e-15 7.800919314e-14)
(0 1.195611028e-10 -1.031398219e-11)
(0 1.22627744e-10 -3.075104835e-11)
(0 1.27671566e-10 -5.083273949e-11)
(0 1.347220493e-10 -7.044550074e-11)
(0 1.437655351e-10 -8.934457201e-11)
(0 1.546405652e-10 -1.06994449e-10)
(0 1.668949093e-10 -1.224601804e-10)
(0 1.795829618e-10 -1.343180902e-10)
(0 1.909404249e-10 -1.40582035e-10)
(0 1.97800719e-10 -1.38660259e-10)
(0 1.944285577e-10 -1.253814386e-10)
(0 1.700589108e-10 -9.724342863e-11)
(0 1.034019257e-10 -5.143663606e-11)
(0 -3.871920271e-11 8.980281321e-12)
(0 -3.384991197e-10 8.179428525e-11)
(0 -8.770825274e-12 -1.055703028e-11)
(0 -9.94273217e-12 2.339498505e-12)
(0 -5.038159798e-13 1.899967531e-12)
(0 1.366631485e-12 1.127029218e-12)
(0 1.552901059e-12 2.000365422e-12)
(0 1.914546939e-12 2.483015842e-12)
(0 2.131807346e-12 2.384912681e-12)
(0 2.125745581e-12 2.44150458e-12)
(0 2.305419116e-12 2.83246282e-12)
(0 3.096330702e-12 3.296041112e-12)
(0 4.397862999e-12 2.874377026e-12)
(0 5.36398392e-12 1.081707664e-12)
(0 4.619489553e-12 -1.889478808e-12)
(0 -6.810187769e-12 -1.166935296e-11)
(0 -9.696210796e-12 1.225717554e-11)
(0 -4.364029174e-12 -1.406873158e-11)
(0 -5.742200379e-12 -4.319045449e-12)
(0 -4.067015131e-12 -1.101992495e-12)
(0 -2.664224153e-12 1.800283638e-14)
(0 -1.757811752e-12 4.066697308e-13)
(0 -1.188303875e-12 5.219053121e-13)
(0 -8.216906424e-13 5.308098616e-13)
(0 -5.77259274e-13 4.990060114e-13)
(0 -4.089484212e-13 4.536206442e-13)
(0 -2.9008194e-13 4.060909512e-13)
(0 -2.046067094e-13 3.611146983e-13)
(0 -1.424202136e-13 3.204092709e-13)
(0 -9.688743723e-14 2.843709996e-13)
(0 -6.348803077e-14 2.528302366e-13)
(0 -3.905020976e-14 2.253987739e-13)
(0 -2.129718911e-14 2.016283022e-13)
(0 -8.56612797e-15 1.810801208e-13)
(0 3.737330798e-16 1.633532277e-13)
(0 6.443147169e-15 1.480930866e-13)
(0 1.033627569e-14 1.349917715e-13)
(0 1.257770581e-14 1.23784663e-13)
(0 1.356266738e-14 1.142463124e-13)
(0 1.358933833e-14 1.06186501e-13)
(0 1.28874156e-14 9.944632364e-14)
(0 1.163917479e-14 9.389412529e-14)
(0 9.991950426e-15 8.942186525e-14)
(0 8.039567395e-15 8.59423258e-14)
(0 5.905382562e-15 8.338987416e-14)
(0 3.598634534e-15 8.171157582e-14)
(0 1.190255941e-15 8.088146721e-14)
(0 9.817130645e-11 -1.202069928e-11)
(0 1.011064452e-10 -3.56014962e-11)
(0 1.057524282e-10 -5.87015343e-11)
(0 1.122695623e-10 -8.149855486e-11)
(0 1.20798982e-10 -1.039652085e-10)
(0 1.313817391e-10 -1.256618101e-10)
(0 1.438572843e-10 -1.456171385e-10)
(0 1.577459173e-10 -1.622089983e-10)
(0 1.721056336e-10 -1.730311544e-10)
(0 1.854019046e-10 -1.747566389e-10)
(0 1.955067319e-10 -1.630063339e-10)
(0 2.001165265e-10 -1.323399111e-10)
(0 1.960709038e-10 -7.755664654e-11)
(0 1.945992235e-10 -7.004498043e-12)
(0 1.431835699e-11 1.308439878e-24)
(0 1.822556311e-11 -1.070300907e-11)
(0 5.394925685e-12 -2.840322896e-12)
(0 2.674157352e-12 3.606625666e-13)
(0 2.259035885e-12 1.20998562e-12)
(0 2.143319399e-12 1.846252701e-12)
(0 2.179046711e-12 2.239532798e-12)
(0 2.222721958e-12 2.367317254e-12)
(0 2.256684231e-12 2.431064235e-12)
(0 2.426989536e-12 2.492941788e-12)
(0 2.861703767e-12 2.409822445e-12)
(0 3.45833606e-12 1.86162818e-12)
(0 3.837420245e-12 7.482259467e-13)
(0 3.586287441e-12 -5.614743884e-13)
(0 2.935713197e-12 -9.189666155e-13)
(0 5.119604562e-12 2.206805115e-12)
(0 3.883410776e-12 -8.116625194e-12)
(0 -7.850802629e-13 -4.226002991e-12)
(0 -1.762233107e-12 -1.893253875e-12)
(0 -1.661703778e-12 -6.939708295e-13)
(0 -1.337426151e-12 -1.118942168e-13)
(0 -1.024805808e-12 1.584832302e-13)
(0 -7.720658996e-13 2.749908103e-13)
(0 -5.77806456e-13 3.16214622e-13)
(0 -4.306925533e-13 3.21041193e-13)
(0 -3.196442122e-13 3.087921675e-13)
(0 -2.358051259e-13 2.891289617e-13)
(0 -1.724654613e-13 2.66900581e-13)
(0 -1.246100734e-13 2.445299208e-13)
(0 -8.849350032e-14 2.232009065e-13)
(0 -6.130959979e-14 2.034567558e-13)
(0 -4.094692073e-14 1.855062977e-13)
(0 -2.580948055e-14 1.693836362e-13)
(0 -1.468511399e-14 1.550330608e-13)
(0 -6.648492703e-15 1.423550721e-13)
(0 -9.902133038e-16 1.312317171e-13)
(0 2.834117575e-15 1.21540848e-13)
(0 5.241267778e-15 1.13164494e-13)
(0 6.551030225e-15 1.059938244e-13)
(0 7.013707779e-15 9.993158024e-14)
(0 6.83144808e-15 9.489258201e-14)
(0 6.16276691e-15 9.080345918e-14)
(0 5.145554696e-15 8.760336793e-14)
(0 3.834378425e-15 8.524303151e-14)
(0 2.380216876e-15 8.369088096e-14)
(0 8.295575399e-16 8.2917046e-14)
(0 7.453372858e-11 -1.404709803e-11)
(0 7.710533314e-11 -4.07060144e-11)
(0 8.080457244e-11 -6.647506724e-11)
(0 8.604883751e-11 -9.216416938e-11)
(0 9.315437996e-11 -1.181087482e-10)
(0 1.023494159e-10 -1.440539099e-10)
(0 1.137391518e-10 -1.691090709e-10)
(0 1.272473772e-10 -1.9165706e-10)
(0 1.425285082e-10 -2.092655309e-10)
(0 1.589202513e-10 -2.187318991e-10)
(0 1.756792673e-10 -2.164905747e-10)
(0 1.932174467e-10 -1.99612515e-10)
(0 2.139385712e-10 -1.669011896e-10)
(0 2.663347175e-10 -1.116056502e-10)
(0 9.421602367e-12 -2.762950163e-24)
(0 1.326423908e-11 5.286744355e-12)
(0 5.871715287e-12 1.392036463e-12)
(0 3.546492549e-12 1.17280569e-12)
(0 2.852221622e-12 1.505752918e-12)
(0 2.582448239e-12 1.93481477e-12)
(0 2.435611493e-12 2.261193761e-12)
(0 2.323338783e-12 2.413424485e-12)
(0 2.251370116e-12 2.42221371e-12)
(0 2.284177327e-12 2.2982929e-12)