/*--------------------------------*- C++ -*----------------------------------*\
  =========                 |
  \\      /  F ield         | OpenFOAM: The Open Source CFD Toolbox
   \\    /   O peration     | Website:  https://openfoam.org
    \\  /    A nd           | Version:  6
     \\/     M anipulation  |
\*---------------------------------------------------------------------------*/
FoamFile
{
    version     2.0;
    format      ascii;
    class       volScalarField;
    location    "0.0054";
    object      Num_divU;
}
// * * * * * * * * * * * * * * * * * * * * * * * * * * * * * * * * * * * * * //

dimensions      [0 0 -1 0 0 0 0];

internalField   nonuniform List<scalar> 
9600
(
4.45788824e-08
4.035439917e-08
3.633601886e-08
3.246028073e-08
2.88113139e-08
2.517094014e-08
2.13525471e-08
1.737700809e-08
1.307031058e-08
8.458383189e-09
3.368789682e-09
-2.172086934e-09
-8.342595234e-09
-1.512238905e-08
-2.269950685e-08
-3.105998418e-08
-4.039920303e-08
-5.070773102e-08
-6.218893569e-08
-7.484089363e-08
-8.887674967e-08
-1.042990834e-07
-1.213214222e-07
-1.399392167e-07
-1.603588581e-07
-1.825706257e-07
-2.067828383e-07
-2.329873034e-07
-2.613855857e-07
-2.919434676e-07
-3.248208327e-07
-3.599384385e-07
-3.97425421e-07
-4.37187738e-07
-4.793401199e-07
-5.237514285e-07
-5.704711326e-07
-6.192953902e-07
-6.702214532e-07
-7.230175729e-07
-7.776490192e-07
-8.338169754e-07
-8.913910876e-07
-9.500045927e-07
-1.00954694e-06
-1.069784049e-06
-1.130806616e-06
-1.192587384e-06
-1.255404672e-06
-1.319464924e-06
-1.385450229e-06
-1.45419287e-06
-1.527184915e-06
-1.606228653e-06
-1.694105375e-06
-1.794598829e-06
-1.914083256e-06
-2.063760261e-06
-2.264289993e-06
-2.543597043e-06
-2.912332022e-06
-3.255605356e-06
-3.068053806e-06
-1.841000499e-06
2.418833802e-08
-7.078933924e-06
-1.477253952e-05
9.704966296e-11
2.084700211e-10
2.037530463e-10
2.04460427e-10
1.945319577e-10
1.772391853e-10
1.855880661e-10
1.901142876e-10
2.167690766e-10
2.26198348e-10
2.458819493e-10
2.374664141e-10
2.470443951e-10
2.350214314e-10
2.411781332e-10
2.092424391e-10
1.841957143e-10
1.21482516e-10
7.70505848e-11
1.079484484e-11
-1.493825008e-11
-3.78418383e-11
-1.570675961e-11
-1.737628853e-11
-1.200300479e-11
-3.973700794e-11
-5.246861897e-11
-9.205796799e-11
-1.223070976e-10
-1.673816821e-10
-1.931879117e-10
-2.267148943e-10
-2.380298379e-10
-2.422183055e-10
-2.259366463e-10
-2.167764489e-10
-2.025800001e-10
-1.985448644e-10
-1.998124013e-10
-1.929742792e-10
-1.935057337e-10
-1.641041275e-10
-2.453325305e-10
-1.420157425e-10
-1.567007286e-10
-3.815605322e-11
-9.997234009e-06
2.704193927e-06
5.687492428e-06
3.799985344e-06
-1.097586262e-07
-2.760466051e-06
5.837079616e-07
4.71434705e-08
4.251675072e-08
3.815555469e-08
3.395261874e-08
3.003550564e-08
2.613686887e-08
2.211685967e-08
1.794325414e-08
1.348992356e-08
8.729027896e-09
3.536496222e-09
-2.115831687e-09
-8.357370292e-09
-1.522177945e-08
-2.284597355e-08
-3.126896175e-08
-4.063308644e-08
-5.098280443e-08
-6.246800745e-08
-7.514067654e-08
-8.91578738e-08
-1.045727077e-07
-1.215388002e-07
-1.401021858e-07
-1.604112005e-07
-1.825111801e-07
-2.065529238e-07
-2.325776908e-07
-2.607173951e-07
-2.909760894e-07
-3.23440416e-07
-3.580768952e-07
-3.949511277e-07
-4.340158053e-07
-4.753061009e-07
-5.187124294e-07
-5.641848244e-07
-6.115343535e-07
-6.606552922e-07
-7.113145094e-07
-7.633376716e-07
-8.163820639e-07
-8.701476919e-07
-9.242093415e-07
-9.782694677e-07
-1.031988189e-06
-1.085186325e-06
-1.137635369e-06
-1.189279915e-06
-1.240120348e-06
-1.290522576e-06
-1.34109185e-06
-1.392885779e-06
-1.447157238e-06
-1.505368075e-06
-1.568816309e-06
-1.639709657e-06
-1.72538156e-06
-1.849741589e-06
-2.072215119e-06
-2.496722645e-06
-3.105729389e-06
-3.13955312e-06
-2.45738257e-06
1.004465338e-05
1.347873831e-05
1.248851198e-10
1.228253845e-10
1.194471406e-10
1.241429053e-10
1.224554245e-10
1.231621877e-10
1.186148629e-10
1.243105668e-10
1.295294864e-10
1.465385988e-10
1.539383809e-10
1.646982639e-10
1.59568611e-10
1.614179244e-10
1.51389195e-10
1.505433956e-10
1.320438139e-10
1.169057171e-10
8.115281214e-11
5.236590578e-11
1.238314396e-11
-5.717365928e-12
-1.924033109e-11
-8.173988461e-12
-8.580799559e-12
-8.722735137e-12
-3.040465226e-11
-4.819766139e-11
-7.769180649e-11
-9.779495425e-11
-1.223557424e-10
-1.35480563e-10
-1.500357912e-10
-1.511764562e-10
-1.494556421e-10
-1.411965405e-10
-1.403511148e-10
-1.377057853e-10
-1.387387603e-10
-1.323838316e-10
-1.28105272e-10
-1.177093417e-10
-1.094939579e-10
-1.072271075e-10
-1.165653575e-10
-8.254368707e-11
-1.230808572e-10
-7.358144803e-11
1.77427488e-05
8.706530869e-06
2.657115324e-06
2.97610007e-07
-3.178635105e-06
3.750178153e-07
4.969463946e-08
4.463419158e-08
3.991655796e-08
3.536797891e-08
3.117599238e-08
2.700740786e-08
2.278550631e-08
1.840781395e-08
1.381229692e-08
8.90020465e-09
3.61219277e-09
-2.151961874e-09
-8.455039453e-09
-1.540326395e-08
-2.306397011e-08
-3.154782891e-08
-4.092610481e-08
-5.131468753e-08
-6.279215231e-08
-7.548192826e-08
-8.946656161e-08
-1.048685044e-07
-1.217637699e-07
-1.402676342e-07
-1.604527445e-07
-1.824365324e-07
-2.062930422e-07
-2.3213002e-07
-2.599920207e-07
-2.89941106e-07
-3.219750593e-07
-3.561251757e-07
-3.923760409e-07
-4.307431347e-07
-4.711654559e-07
-5.13574035e-07
-5.578052741e-07
-6.037027354e-07
-6.510413837e-07
-6.996017345e-07
-7.490571722e-07
-7.990379825e-07
-8.49057158e-07
-8.986295196e-07
-9.472270424e-07
-9.943778939e-07
-1.039576009e-06
-1.08236028e-06
-1.122281142e-06
-1.159086244e-06
-1.192760967e-06
-1.223690366e-06
-1.252585935e-06
-1.280326978e-06
-1.307056813e-06
-1.330669967e-06
-1.345069592e-06
-1.340930616e-06
-1.314514948e-06
-1.320411679e-06
-1.562321467e-06
-2.542029574e-06
-4.571257406e-06
5.797391268e-06
1.164940172e-05
2.098498756e-05
1.342044219e-10
1.11141928e-10
1.076431994e-10
1.078720061e-10
1.110680235e-10
1.12002586e-10
1.157336305e-10
1.192508384e-10
1.299825927e-10
1.404379089e-10
1.532038811e-10
1.567152133e-10
1.58174008e-10
1.515835523e-10
1.483861697e-10
1.390268802e-10
1.303682858e-10
1.094112779e-10
8.565395099e-11
5.164632682e-11
2.365475519e-11
-6.368178083e-13
-6.629191744e-12
-7.656015157e-12
-4.52013906e-12
-1.538833894e-11
-3.240190287e-11
-5.864484529e-11
-8.008703216e-11
-1.017191695e-10
-1.170910579e-10
-1.327809237e-10
-1.411400418e-10
-1.448367977e-10
-1.409252213e-10
-1.386970296e-10
-1.384438329e-10
-1.413239285e-10
-1.378527635e-10
-1.287743415e-10
-1.166122266e-10
-1.089192306e-10
-9.933834457e-11
-9.530434503e-11
-8.697631909e-11
-1.07801866e-10
-1.487564178e-10
-5.598338227e-11
1.054662986e-05
1.958484568e-05
1.498033432e-05
5.22743286e-07
-3.090968907e-06
9.464068498e-07
5.217963003e-08
4.668448376e-08
4.156280994e-08
3.667754893e-08
3.217392432e-08
2.775378308e-08
2.330099654e-08
1.874522472e-08
1.398433455e-08
8.951896411e-09
3.547937883e-09
-2.294420604e-09
-8.67883725e-09
-1.567586843e-08
-2.339245625e-08
-3.190135059e-08
-4.131267844e-08
-5.170403655e-08
-6.319253303e-08
-7.586225602e-08
-8.983258638e-08
-1.051831853e-07
-1.220256683e-07
-1.404323298e-07
-1.605135062e-07
-1.823448464e-07
-2.060361541e-07
-2.316464363e-07
-2.592472678e-07
-2.888461454e-07
-3.204697718e-07
-3.541022841e-07
-3.897626365e-07
-4.274141364e-07
-4.670137789e-07
-5.084208311e-07
-5.514766884e-07
-5.95948395e-07
-6.416084715e-07
-6.881420101e-07
-7.351855401e-07
-7.822343408e-07
-8.287246748e-07
-8.739921232e-07
-9.173670299e-07
-9.581030998e-07
-9.954314863e-07
-1.028497116e-06
-1.056492031e-06
-1.078714353e-06
-1.094793113e-06
-1.104792725e-06
-1.109397167e-06
-1.109612295e-06
-1.105624144e-06
-1.093625082e-06
-1.0591173e-06
-9.609000384e-07
-7.059324084e-07
-8.339381281e-08
1.307975824e-06
3.767463084e-06
3.193536238e-06
4.831006175e-06
-4.653154841e-06
1.113439531e-10
1.018376295e-10
9.413340979e-11
9.195341708e-11
9.534995533e-11
9.9239356e-11
1.052333809e-10
1.088842769e-10
1.157372186e-10
1.232041458e-10
1.354714672e-10
1.43599569e-10
1.498058019e-10
1.471979553e-10
1.443464131e-10
1.369385942e-10
1.322841513e-10
1.20650628e-10
1.064969063e-10
8.155128316e-11
5.582166306e-11
2.695382862e-11
8.597722354e-12
-2.8249929e-12
-2.975797957e-12
-7.734869274e-12
-1.796537557e-11
-3.975629248e-11
-6.056288414e-11
-8.109152878e-11
-9.560979569e-11
-1.107790528e-10
-1.225480516e-10
-1.329944075e-10
-1.359465187e-10
-1.353835021e-10
-1.335384882e-10
-1.366574825e-10
-1.38456862e-10
-1.335693792e-10
-1.204386259e-10
-1.072298303e-10
-9.922402661e-11
-9.228729774e-11
-8.545802427e-11
-7.630939914e-11
-1.089924985e-10
-1.036915085e-10
-1.361973672e-10
-4.376884603e-11
1.468792329e-06
2.273705363e-05
8.11254494e-06
1.823588734e-06
2.840656571e-06
5.457490307e-08
4.86017652e-08
4.307182961e-08
3.782201722e-08
3.301388496e-08
2.832417111e-08
2.365664285e-08
1.891196657e-08
1.400740538e-08
8.847473206e-09
3.352167743e-09
-2.574617517e-09
-9.014688541e-09
-1.606642272e-08
-2.381270203e-08
-3.235246202e-08
-4.177043762e-08
-5.217053167e-08
-6.364377877e-08
-7.62994602e-08
-9.022877904e-08
-1.055345044e-07
-1.22298307e-07
-1.406161138e-07
-1.605694414e-07
-1.822578557e-07
-2.057591279e-07
-2.31149884e-07
-2.584625901e-07
-2.877199031e-07
-3.189136595e-07
-3.520507253e-07
-3.871178179e-07
-4.240930744e-07
-4.628845316e-07
-5.033501695e-07
-5.452757237e-07
-5.884259655e-07
-6.325124594e-07
-6.771970042e-07
-7.220213529e-07
-7.664175938e-07
-8.09685606e-07
-8.51044241e-07
-8.896074817e-07
-9.24395551e-07
-9.542789942e-07
-9.780129204e-07
-9.942787523e-07
-1.001844362e-06
-9.997480466e-07
-9.876530637e-07
-9.662422078e-07
-9.374820659e-07
-9.04169621e-07
-8.679244594e-07
-8.218714128e-07
-7.313116531e-07
-4.738393088e-07
2.83228353e-07
2.277196844e-06
6.064205644e-06
1.464794979e-05
1.20777387e-05
4.511949441e-11
7.508956574e-11
7.971460328e-11
7.79519825e-11
7.953670216e-11
8.422221901e-11
9.179797672e-11
9.848805241e-11
1.048956385e-10
1.104309411e-10
1.185406954e-10
1.268971638e-10
1.352652295e-10
1.384743101e-10
1.380926517e-10
1.329100653e-10
1.278517798e-10
1.20731507e-10
1.12766955e-10
9.845282727e-11
7.966313761e-11
5.521836689e-11
3.248094519e-11
1.351476478e-11
3.636479491e-12
-2.983476526e-12
-1.015109059e-11
-2.518140385e-11
-4.373956728e-11
-6.284932916e-11
-7.673420634e-11
-8.889372579e-11
-1.004223421e-10
-1.138880109e-10
-1.242908584e-10
-1.293568816e-10
-1.284969986e-10
-1.286478894e-10
-1.31609237e-10
-1.333638848e-10
-1.260123093e-10
-1.119847454e-10
-9.966823443e-11
-9.341199633e-11
-8.794415037e-11
-8.159202776e-11
-7.322138846e-11
-8.49326249e-11
-1.213420443e-10
-9.05881826e-11
-2.340263711e-11
-1.470133628e-12
2.159405675e-05
1.500690966e-05
-1.850789425e-06
9.444916627e-07
5.681420785e-08
5.034627991e-08
4.43807368e-08
3.876446367e-08
3.363851919e-08
2.868891456e-08
2.380323459e-08
1.888692989e-08
1.384076236e-08
8.574195581e-09
2.991229166e-09
-2.997949336e-09
-9.489913738e-09
-1.657420439e-08
-2.434637786e-08
-3.289504357e-08
-4.231676079e-08
-5.270435477e-08
-6.41603956e-08
-7.678171318e-08
-9.066882594e-08
-1.059101838e-07
-1.2259572e-07
-1.408070925e-07
-1.606348993e-07
-1.821633072e-07
-2.054754607e-07
-2.306270923e-07
-2.57651964e-07
-2.865526554e-07
-3.173281684e-07
-3.499714209e-07
-3.844755138e-07
-4.207942141e-07
-4.588272348e-07
-4.983984927e-07
-5.39284763e-07
-5.812200546e-07
-6.239014805e-07
-6.669405545e-07
-7.098325712e-07
-7.519234918e-07
-7.924261191e-07
-8.304169338e-07
-8.648340513e-07
-8.944267427e-07
-9.177219462e-07
-9.330036959e-07
-9.383644836e-07
-9.318138486e-07
-9.11526676e-07
-8.763069487e-07
-8.263291654e-07
-7.641211947e-07
-6.959090031e-07
-6.330353009e-07
-5.903939799e-07
-5.651483106e-07
-4.772772785e-07
1.265775826e-07
1.89350666e-06
1.403742604e-05
1.877342757e-05
1.16938657e-05
3.092285459e-11
5.392379217e-11
6.168465056e-11
6.491170736e-11
6.913321437e-11
7.67182887e-11
8.573895718e-11
9.43304892e-11
1.006886862e-10
1.063155512e-10
1.121598077e-10
1.192603039e-10
1.25151363e-10
1.283658576e-10
1.270178314e-10
1.230142039e-10
1.17309807e-10
1.116752614e-10
1.039321235e-10
9.273942612e-11
7.594712168e-11
5.586488924e-11
3.499301154e-11
1.812277541e-11
5.698803139e-12
-3.51779634e-12
-1.512811657e-11
-3.043661213e-11
-4.78032653e-11
-6.145244865e-11
-7.095001168e-11
-7.901128403e-11
-9.0788915e-11
-1.05284796e-10
-1.182271254e-10
-1.239003588e-10
-1.237394327e-10
-1.230807205e-10
-1.256814567e-10
-1.261755543e-10
-1.187185449e-10
-1.055156851e-10
-9.577261845e-11
-9.13562738e-11
-8.793088257e-11
-8.216240663e-11
-7.725189044e-11
-8.014251766e-11
-8.614401196e-11
-6.324495467e-11
-1.859506034e-11
-6.631099684e-12
5.921144646e-08
3.925891042e-05
7.940158208e-06
-1.100367775e-07
5.884006387e-08
5.18469892e-08
4.543459318e-08
3.944069394e-08
3.400054734e-08
2.87930439e-08
2.370341588e-08
1.862525417e-08
1.345702776e-08
8.096614797e-09
2.446982778e-09
-3.591794388e-09
-1.011465974e-08
-1.721916251e-08
-2.499719223e-08
-3.35434736e-08
-4.295028831e-08
-5.331613159e-08
-6.473843605e-08
-7.731785147e-08
-9.114776189e-08
-1.063187454e-07
-1.229124834e-07
-1.410131105e-07
-1.607026078e-07
-1.820661796e-07
-2.051749375e-07
-2.300813361e-07
-2.568056796e-07
-2.853505872e-07
-3.157082334e-07
-3.478756218e-07
-3.818354127e-07
-4.175337716e-07
-4.548482725e-07
-4.93592484e-07
-5.335282663e-07
-5.74386282e-07
-6.158448328e-07
-6.574924471e-07
-6.987783786e-07
-7.389977843e-07
-7.772868225e-07
-8.126214699e-07
-8.437778639e-07
-8.692713791e-07
-8.872842468e-07
-8.956203663e-07
-8.916905288e-07
-8.725572198e-07
-8.351385086e-07
-7.766893354e-07
-6.956388885e-07
-5.929576436e-07
-4.748390363e-07
-3.577125811e-07
-2.695728437e-07
-2.431190869e-07
-1.459940962e-07
8.28501549e-07
2.813585503e-06
1.33712587e-05
1.335373774e-05
-2.244876056e-12
2.32212559e-11
4.206679188e-11
5.150599281e-11
5.654730827e-11
6.265727736e-11
7.139843143e-11
8.169507569e-11
9.076109129e-11
9.749928817e-11
1.022611145e-10
1.068333602e-10
1.116126244e-10
1.160223552e-10
1.180674389e-10
1.170866288e-10
1.132526733e-10
1.082845994e-10
1.027074738e-10
9.605760513e-11
8.625668299e-11
7.237004124e-11
5.49055933e-11
3.683439793e-11
2.059231221e-11
7.315257708e-12
-5.354456248e-12
-1.956350826e-11
-3.559374342e-11
-4.947214809e-11
-5.829282076e-11
-6.299450519e-11
-6.967439164e-11
-8.249482374e-11
-9.99820607e-11
-1.143011752e-10
-1.197540781e-10
-1.1767726e-10
-1.159641783e-10
-1.18186972e-10
-1.19574118e-10
-1.133161846e-10
-1.023158656e-10
-9.464031406e-11
-9.213892887e-11
-8.861465705e-11
-8.314917802e-11
-7.875218414e-11
-7.862946127e-11
-7.781144588e-11
-5.013048286e-11
-2.696802012e-11
4.643940143e-11
2.432090366e-11
2.563764729e-05
1.93514975e-05
1.349304025e-06
6.057328302e-08
5.303405214e-08
4.615954686e-08
3.978665947e-08
3.403564774e-08
2.858374998e-08
2.330491133e-08
1.808647939e-08
1.281588408e-08
7.385627093e-09
1.689510326e-09
-4.375004562e-09
-1.090973139e-08
-1.801205572e-08
-2.577841879e-08
-3.430242984e-08
-4.367996261e-08
-5.400749512e-08
-6.53844778e-08
-7.790795783e-08
-9.167111902e-08
-1.067590242e-07
-1.232527671e-07
-1.412305624e-07
-1.607735505e-07
-1.819593257e-07
-2.048550209e-07
-2.295030557e-07
-2.559206781e-07
-2.841056854e-07
-3.140528201e-07
-3.457557983e-07
-3.791933656e-07
-4.142981116e-07
-4.509376432e-07
-4.889169275e-07
-5.280003103e-07
-5.679198519e-07
-6.083529658e-07
-6.488740638e-07
-6.889131426e-07
-7.277376455e-07
-7.644490542e-07
-7.979627846e-07
-8.269498317e-07
-8.497474867e-07
-8.642544314e-07
-8.678305967e-07
-8.571900924e-07
-8.283417307e-07
-7.766646984e-07
-6.97252032e-07
-5.855174497e-07
-4.382596444e-07
-2.56231589e-07
-4.986623644e-08
1.33829657e-07
1.812955195e-07
-1.805498371e-07
-9.043386181e-07
4.053984182e-06
9.327993918e-06
1.349856553e-05
3.242208777e-12
2.43609889e-11
3.881364493e-11
4.668568281e-11
5.209804365e-11
5.87065968e-11
6.797523018e-11
7.842277468e-11
8.760896204e-11
9.403853537e-11
9.80597467e-11
1.011710015e-10
1.043627123e-10
1.073822664e-10
1.08922633e-10
1.080705172e-10
1.048545299e-10
1.004063641e-10
9.533176614e-11
8.933171987e-11
8.072933413e-11
6.859251839e-11
5.323198845e-11
3.678240057e-11
2.113929051e-11
6.761635327e-12
-7.621458487e-12
-2.294393215e-11
-3.759470096e-11
-4.799678047e-11
-5.244709879e-11
-5.466370054e-11
-6.162900228e-11
-7.730002729e-11
-9.734153134e-11
-1.12303816e-10
-1.156702657e-10
-1.109422385e-10
-1.075543256e-10
-1.105559798e-10
-1.141946941e-10
-1.110246001e-10
-1.023691203e-10
-9.597842543e-11
-9.277143381e-11
-8.814610803e-11
-8.191314256e-11
-7.862180251e-11
-7.632461649e-11
-7.038846806e-11
-5.350410358e-11
7.17888379e-13
3.01685617e-11
7.130558485e-12
-5.080138731e-06
4.173212488e-05
7.308360529e-06
6.192599373e-08
5.381690993e-08
4.647310999e-08
3.97234693e-08
3.367452215e-08
2.799624104e-08
2.255353005e-08
1.722105323e-08
1.187757415e-08
6.405442114e-09
6.921822901e-10
-5.371743429e-09
-1.189109276e-08
-1.896757794e-08
-2.66987666e-08
-3.518113269e-08
-4.451042318e-08
-5.47846359e-08
-6.610143373e-08
-7.855688768e-08
-9.224018208e-08
-1.07234028e-07
-1.236149197e-07
-1.414589657e-07
-1.608422812e-07
-1.818384061e-07
-2.045072296e-07
-2.288863956e-07
-2.549883045e-07
-2.828112452e-07
-3.123500622e-07
-3.435980768e-07
-3.765266442e-07
-4.110595431e-07
-4.470572138e-07
-4.843279e-07
-5.226475325e-07
-5.617624875e-07
-6.013588246e-07
-6.41014189e-07
-6.801620274e-07
-7.180792462e-07
-7.538806232e-07
-7.864833547e-07
-8.145308267e-07
-8.362758567e-07
-8.494476047e-07
-8.510807809e-07
-8.373056586e-07
-8.031243937e-07
-7.423243058e-07
-6.476123079e-07
-5.109527533e-07
-3.237316461e-07
-7.467333285e-08
2.59555169e-07
7.541384746e-07
1.61469542e-06
3.297857176e-06
1.64099196e-07
7.446256628e-06
1.358643249e-07
2.865376579e-12
1.62266563e-11
2.913615907e-11
3.904529214e-11
4.548045189e-11
5.048265232e-11
5.685649366e-11
6.557377157e-11
7.547366412e-11
8.424621308e-11
9.028548473e-11
9.374769603e-11
9.586695387e-11
9.794496401e-11
1.000159553e-10
1.013499157e-10
1.008284471e-10
9.837396538e-11
9.433786467e-11
8.950920113e-11
8.342111795e-11
7.530135965e-11
6.405272267e-11
5.024176179e-11
3.515601866e-11
2.038515845e-11
5.944724775e-12
-8.823400896e-12
-2.382966425e-11
-3.648937676e-11
-4.370350751e-11
-4.558941681e-11
-4.765763421e-11
-5.720245666e-11
-7.622485504e-11
-9.79749711e-11
-1.113128378e-10
-1.108982917e-10
-1.025544568e-10
-9.829345566e-11
-1.032996538e-10
-1.109554449e-10
-1.115130304e-10
-1.047668678e-10
-9.733832385e-11
-9.17229864e-11
-8.548461631e-11
-7.959825064e-11
-7.771740205e-11
-7.648613694e-11
-7.200912639e-11
-5.527181572e-11
-2.277842204e-11
-3.899827395e-12
-1.747880427e-10
-1.005562307e-10
4.448107431e-05
-1.319102329e-10
6.279140438e-08
5.409531012e-08
4.6278164e-08
3.916243549e-08
3.283544382e-08
2.696002798e-08
2.138638416e-08
1.597683014e-08
1.059728831e-08
5.120700114e-09
-5.745296876e-10
-6.60353458e-09
-1.307648276e-08
-2.00980185e-08
-2.77688083e-08
-3.618664174e-08
-4.544880866e-08
-5.565257933e-08
-6.689463788e-08
-7.926763607e-08
-9.285789363e-08
-1.077438404e-07
-1.23998964e-07
-1.416952965e-07
-1.609053592e-07
-1.816973552e-07
-2.041259782e-07
-2.282237193e-07
-2.540011611e-07
-2.814564643e-07
-3.10585495e-07
-3.413785742e-07
-3.738012343e-07
-4.07770331e-07
-4.431472061e-07
-4.797516986e-07
-5.173803011e-07
-5.558020169e-07
-5.947224811e-07
-6.337399577e-07
-6.723181761e-07
-7.097840774e-07
-7.453181962e-07
-7.779128431e-07
-8.062777429e-07
-8.287154576e-07
-8.429549709e-07
-8.459262921e-07
-8.334183235e-07
-7.996687306e-07
-7.370008898e-07
-6.357817957e-07
-4.85234155e-07
-2.762819375e-07
-7.069658379e-09
3.197615183e-07
7.289745277e-07
1.458224908e-06
3.433067143e-06
6.955185642e-06
1.776237595e-05
1.699515959e-05
4.074097761e-11
3.756032703e-11
3.868396683e-11
4.267039741e-11
4.64934422e-11
5.051101181e-11
5.609502523e-11
6.389964272e-11
7.277604933e-11
8.062538557e-11
8.602088485e-11
8.890674422e-11
9.062561493e-11
9.227641848e-11
9.431520659e-11
9.579206326e-11
9.586274998e-11
9.376488802e-11
9.001568323e-11
8.483642922e-11
7.851569609e-11
7.0119641e-11
5.93784105e-11
4.635640876e-11
3.253368224e-11
1.874002998e-11
5.273001221e-12
-8.498803197e-12
-2.170874709e-11
-3.209740836e-11
-3.737477376e-11
-3.924339365e-11
-4.375158867e-11
-5.711196431e-11
-7.893587211e-11
-1.002537388e-10
-1.099346492e-10
-1.046387527e-10
-9.331542083e-11
-8.947659063e-11
-9.805562167e-11
-1.100672691e-10
-1.135829108e-10
-1.069402122e-10
-9.739944524e-11
-8.926211185e-11
-8.172811736e-11
-7.727807977e-11
-7.73873254e-11
-7.923892002e-11
-7.540854162e-11
-6.679587964e-11
-4.390609514e-11
-1.118890199e-10
-1.542220838e-10
-4.280230658e-10
-3.348226228e-10
-2.152538722e-10
6.304581702e-08
5.374695822e-08
4.546166512e-08
3.799938534e-08
3.142673783e-08
2.539420004e-08
1.973544027e-08
1.42964842e-08
8.929133285e-09
3.494184912e-09
-2.138744628e-09
-8.092351678e-09
-1.448176155e-08
-2.141583546e-08
-2.899779379e-08
-3.732724073e-08
-4.650165845e-08
-5.661741173e-08
-6.77683596e-08
-8.004397383e-08
-9.352612631e-08
-1.08289514e-07
-1.244038137e-07
-1.419377224e-07
-1.60959617e-07
-1.815330568e-07
-2.03707293e-07
-2.275106891e-07
-2.529518923e-07
-2.800293751e-07
-3.087384004e-07
-3.390662642e-07
-3.709725605e-07
-4.043713857e-07
-4.39130816e-07
-4.750899913e-07
-5.120733086e-07
-5.498783814e-07
-5.882393189e-07
-6.267895974e-07
-6.65050968e-07
-7.024383509e-07
-7.382545195e-07
-7.71637573e-07
-8.014702474e-07
-8.26252639e-07
-8.439426301e-07
-8.516842715e-07
-8.453555888e-07
-8.188676741e-07
-7.632195015e-07
-6.65348107e-07
-5.075509278e-07
-2.706765828e-07
5.233759547e-08
4.1322405e-07
6.410722466e-07
3.952115126e-07
4.054781494e-07
1.422148112e-05
2.506681211e-05
2.840375092e-05
7.490709897e-11
5.415302449e-11
4.671420912e-11
4.601736754e-11
4.801158853e-11
5.1309683e-11
5.617327027e-11
6.270940802e-11
7.006628121e-11
7.666548816e-11
8.130833787e-11
8.410861739e-11
8.595875577e-11
8.800640642e-11
9.025601196e-11
9.214147781e-11
9.235130315e-11
9.047708407e-11
8.636188654e-11
8.0733847e-11
7.354346088e-11
6.482000215e-11
5.409483734e-11
4.206607855e-11
2.952044309e-11
1.751378998e-11
5.734877912e-12
-5.991753961e-12
-1.730117066e-11
-2.615856861e-11
-3.161660578e-11
-3.589457993e-11
-4.451919713e-11
-6.144145733e-11
-8.377188187e-11
-1.017617091e-10
-1.059416735e-10
-9.632048682e-11
-8.413060479e-11
-8.290210906e-11
-9.534853208e-11
-1.104927528e-10
-1.151861674e-10
-1.074742714e-10
-9.536214626e-11
-8.524129684e-11
-7.89420781e-11
-7.724965766e-11
-8.099002966e-11
-8.463562288e-11
-8.345032505e-11
-7.564019186e-11
-6.462699477e-11
-9.337181505e-11
-2.463664286e-10
-3.072226838e-10
-2.776380813e-10
-2.039456638e-10
6.254108083e-08
5.263166463e-08
4.389120871e-08
3.611554481e-08
2.934321086e-08
2.320939225e-08
1.752632278e-08
1.212000882e-08
6.825433335e-09
1.490017382e-09
-4.027579792e-09
-9.857763618e-09
-1.61215307e-08
-2.293183463e-08
-3.039456113e-08
-3.861011374e-08
-4.767537682e-08
-5.768414832e-08
-6.872701961e-08
-8.08886335e-08
-9.424679979e-08
-1.088717701e-07
-1.248300818e-07
-1.421865636e-07
-1.610056873e-07
-1.813456904e-07
-2.032507805e-07
-2.267449443e-07
-2.518348123e-07
-2.785174809e-07
-3.067869064e-07
-3.36625899e-07
-3.679900665e-07
-4.00794815e-07
-4.34920728e-07
-4.702307582e-07
-5.0657973e-07
-5.437969161e-07
-5.816511249e-07
-6.198264617e-07
-6.579244857e-07
-6.954823957e-07
-7.319660164e-07
-7.667238111e-07
-7.989025857e-07
-8.273573599e-07
-8.505234194e-07
-8.661840893e-07
-8.709915083e-07
-8.595879114e-07
-8.229332539e-07
-7.450244601e-07
-5.965978047e-07
-3.241652942e-07
1.659061904e-07
1.016153789e-06
2.447378182e-06
4.770870179e-06
4.348806065e-06
9.868008314e-06
3.745132164e-06
8.511055495e-11
7.324533185e-11
5.902158262e-11
5.08479449e-11
4.841311705e-11
4.949293706e-11
5.245044034e-11
5.662689075e-11
6.19152053e-11
6.764684873e-11
7.279432807e-11
7.671978475e-11
7.952655265e-11
8.208602522e-11
8.484028193e-11
8.777241272e-11
8.974393143e-11
8.988716432e-11
8.740664307e-11
8.274700417e-11
7.627628839e-11
6.865715194e-11
5.964975377e-11
4.946245505e-11
3.831416264e-11
2.739317937e-11
1.709103069e-11
7.45353659e-12
-2.402534249e-12
-1.219167155e-11
-2.108948236e-11
-2.85573935e-11
-3.673273503e-11
-4.931666583e-11
-6.779705189e-11
-8.773154311e-11
-1.001506255e-10
-9.872993385e-11
-8.669618606e-11
-7.642400941e-11
-7.958396766e-11
-9.588566314e-11
-1.122095171e-10
-1.153229149e-10
-1.049273978e-10
-9.112127699e-11
-8.211947387e-11
-7.888953091e-11
-8.163498063e-11
-8.841864311e-11
-9.334085695e-11
-9.097702227e-11
-8.628206325e-11
-8.199019822e-11
-1.054797723e-10
-1.717708283e-10
-2.563853038e-10
-2.313130585e-10
-1.674988063e-10
6.110187471e-08
5.057934077e-08
4.141156699e-08
3.337223932e-08
2.646654618e-08
2.030734117e-08
1.467981507e-08
9.38569575e-09
4.240181834e-09
-9.257782193e-10
-6.264856338e-09
-1.191647444e-08
-1.800765852e-08
-2.465516412e-08
-3.196636311e-08
-4.004148209e-08
-4.89750462e-08
-5.885717196e-08
-6.977352114e-08
-8.180409821e-08
-9.502175477e-08
-1.094931734e-07
-1.252806771e-07
-1.42445825e-07
-1.610480498e-07
-1.811403025e-07
-2.027605229e-07
-2.259279803e-07
-2.506455598e-07
-2.769086853e-07
-3.047078194e-07
-3.340221469e-07
-3.648043531e-07
-3.969744698e-07
-4.304284222e-07
-4.650550687e-07
-5.00739285e-07
-5.373418349e-07
-5.746700174e-07
-6.124670532e-07
-6.504320557e-07
-6.882443304e-07
-7.255623529e-07
-7.619798351e-07
-7.969730075e-07
-8.298592385e-07
-8.597650965e-07
-8.855202544e-07
-9.053990522e-07
-9.165604643e-07
-9.138032338e-07
-8.864369087e-07
-8.10429083e-07
-6.287042266e-07
-2.066759137e-07
7.686235603e-07
2.94496611e-06
7.196064245e-06
3.994680622e-06
1.572612933e-05
6.913647488e-06
7.004668125e-11
6.879936098e-11
5.943411006e-11
5.219205592e-11
4.954499796e-11
5.079671689e-11
5.38630393e-11
5.759810401e-11
6.155488076e-11
6.553697407e-11
6.926855833e-11
7.263996106e-11
7.595884949e-11
7.942997944e-11
8.311285416e-11
8.618109114e-11
8.780277582e-11
8.694101196e-11
8.361263974e-11
7.809184567e-11
7.133863482e-11
6.360330323e-11
5.51269206e-11
4.564701224e-11
3.581967135e-11
2.622331213e-11
1.764717316e-11
9.473925776e-12
9.608114356e-13
-8.641929835e-12
-1.88829602e-11
-2.960699731e-11
-4.165822753e-11
-5.64724297e-11
-7.333854864e-11
-8.766853408e-11
-9.326834916e-11
-8.787690531e-11
-7.725715409e-11
-7.253346935e-11
-8.122703175e-11
-9.931290561e-11
-1.132701098e-10
-1.125565118e-10
-9.958505227e-11
-8.606352469e-11
-8.015075519e-11
-8.224994685e-11
-8.879915706e-11
-9.627046514e-11
-9.930536315e-11
-9.552042753e-11
-8.829159455e-11
-8.724146148e-11
-1.047061712e-10
-1.559383583e-10
-1.924287512e-10
-1.790282253e-10
-1.444154816e-10
5.851555352e-08
4.738977046e-08
3.783904864e-08
2.961009313e-08
2.266332821e-08
1.658123679e-08
1.111384395e-08
6.033371724e-09
1.130303599e-09
-3.781792172e-09
-8.869423922e-09
-1.428058759e-08
-2.014824774e-08
-2.659131043e-08
-3.371764975e-08
-4.162493387e-08
-5.040358962e-08
-6.013858544e-08
-7.091012505e-08
-8.279270933e-08
-9.585478834e-08
-1.101585885e-07
-1.25762943e-07
-1.427244021e-07
-1.610970095e-07
-1.809267506e-07
-2.022448945e-07
-2.250643572e-07
-2.493839119e-07
-2.75194757e-07
-3.024837843e-07
-3.31225729e-07
-3.613729066e-07
-3.928515243e-07
-4.255737004e-07
-4.594513664e-07
-4.943953717e-07
-5.302949687e-07
-5.669968128e-07
-6.043098074e-07
-6.420368649e-07
-6.800071594e-07
-7.180739766e-07
-7.560850155e-07
-7.938565402e-07
-8.311995602e-07
-8.679849198e-07
-9.042256668e-07
-9.401681325e-07
-9.765036376e-07
-1.014794746e-06
-1.058095429e-06
-1.111065972e-06
-1.175723845e-06
-1.226438621e-06
-1.124021344e-06
-3.564389432e-07
2.649613123e-06
1.82823979e-05
3.502216043e-05
3.071169488e-05
7.976689414e-11
7.293051447e-11
6.122376372e-11
5.32586922e-11
5.078477131e-11
5.230910421e-11
5.549290061e-11
5.868920101e-11
6.148017586e-11
6.399569186e-11
6.661618013e-11
6.977822888e-11
7.36159544e-11
7.799598011e-11
8.20305663e-11
8.479739739e-11
8.519398975e-11
8.303089199e-11
7.849601705e-11
7.263692194e-11
6.607830496e-11
5.930393018e-11
5.185177602e-11
4.365690325e-11
3.475884713e-11
2.619043583e-11
1.826296017e-11
1.074765556e-11
2.188334598e-12
-8.290616581e-12
-2.074705627e-11
-3.4291333e-11
-4.827336586e-11
-6.209951274e-11
-7.425255247e-11
-8.173594909e-11
-8.200399389e-11
-7.627634777e-11
-7.082998703e-11
-7.352204241e-11
-8.701652834e-11
-1.044209572e-10
-1.134279e-10
-1.072741712e-10
-9.219496381e-11
-8.106402257e-11
-8.070977225e-11
-8.761102637e-11
-9.601652069e-11
-1.01885217e-10
-1.020208657e-10
-9.482983359e-11
-8.646360567e-11
-8.57230739e-11
-9.911266005e-11
-1.279313762e-10
-1.573174073e-10
-1.489079078e-10
-1.20111451e-10
5.45249849e-08
4.281682861e-08
3.295460161e-08
2.464312654e-08
1.778444265e-08
1.191723637e-08
6.746572022e-09
2.006750456e-09
-2.539377157e-09
-7.099202914e-09
-1.185243057e-08
-1.6955513e-08
-2.254519826e-08
-2.874121675e-08
-3.564859097e-08
-4.336034889e-08
-5.196086835e-08
-6.152890615e-08
-7.213804599e-08
-8.38580056e-08
-9.67518255e-08
-1.108776271e-07
-1.262888556e-07
-1.430366124e-07
-1.611676803e-07
-1.807202346e-07
-2.017171645e-07
-2.241643637e-07
-2.480545714e-07
-2.733743781e-07
-3.001058304e-07
-3.282202356e-07
-3.576689612e-07
-3.883846642e-07
-4.202926618e-07
-4.533227464e-07
-4.874052971e-07
-5.224527671e-07
-5.583493362e-07
-5.949689041e-07
-6.322171674e-07
-6.700644536e-07
-7.085459606e-07
-7.477387631e-07
-7.877681867e-07
-8.288764327e-07
-8.715582608e-07
-9.167334433e-07
-9.660321684e-07
-1.022407299e-06
-1.091566731e-06
-1.185132599e-06
-1.32739561e-06
-1.566658112e-06
-1.991087427e-06
-2.694038643e-06
-3.534908602e-06
-3.068016351e-06
1.424304799e-05
3.395415696e-05
3.53778871e-05
9.567725483e-11
7.662808637e-11
6.239586874e-11
5.406699396e-11
5.172526364e-11
5.360313771e-11
5.688054891e-11
5.970451584e-11
6.154102218e-11
6.29618877e-11
6.496363181e-11
6.821321658e-11
7.274062496e-11
7.755766645e-11
8.139853765e-11
8.28983625e-11
8.1649286e-11
7.785355271e-11
7.266559978e-11
6.70376335e-11
6.175888262e-11
5.645954846e-11
5.058055684e-11
4.329605397e-11
3.499072269e-11
2.632437046e-11
1.819829221e-11
1.009368499e-11
8.079658854e-13
-1.094986181e-11
-2.497832211e-11
-3.976062318e-11