/*--------------------------------*- C++ -*----------------------------------*\
  =========                 |
  \\      /  F ield         | OpenFOAM: The Open Source CFD Toolbox
   \\    /   O peration     | Website:  https://openfoam.org
    \\  /    A nd           | Version:  10
     \\/     M anipulation  |
\*---------------------------------------------------------------------------*/
FoamFile
{
    format      ascii;
    class       volScalarField;
    location    "0.0003";
    object      kappa;
}
// * * * * * * * * * * * * * * * * * * * * * * * * * * * * * * * * * * * * * //

dimensions      [1 1 -3 -1 0 0 0];

internalField   nonuniform List<scalar> 
16000
(
0.01612212314
0.01601458079
0.01600742407
0.01600484484
0.016
0.016
0.016
0.016
0.016
0.016
0.016
0.016
0.016
0.016
0.016
0.016
0.016
0.016
0.016
0.016
0.016
0.016
0.016
0.016
0.016
0.016
0.016
0.016
0.016
0.016
0.016
0.016
0.016
0.016
0.016
0.016
0.01600484126
0.01600741427
0.01601443077
0.01612191452
0.01706949671
0.01612551115
0.01601918345
0.01602398075
0.016
0.016
0.016
0.016
0.016
0.016
0.016
0.016
0.016
0.016
0.016
0.016
0.016
0.016
0.016
0.016
0.016
0.016
0.016
0.016
0.016
0.016
0.016
0.016
0.016
0.016
0.016
0.016
0.016
0.016
0.016
0.016
0.01602403021
0.0160164983
0.01612513882
0.0169632323
0.2112486519
0.01885269144
0.01923607813
0.01679240304
0.01636128249
0.016
0.016
0.016
0.016
0.016
0.016
0.01600000005
0.016
0.016
0.016
0.016
0.01600000001
0.01600000014
0.01600000003
0.016
0.016
0.01600000003
0.01600000014
0.01600000001
0.016
0.016
0.016
0.016
0.01600000005
0.016
0.016
0.016
0.016
0.016
0.016
0.01636122223
0.01679178614
0.01923630849
0.01885108272
0.2111672706
5.709218506
3.600757246
2.0215678
1.087887773
0.2774515887
0.01623195361
0.016
0.016
0.016
0.016
0.016
0.01600000056
0.01600000139
0.01600064121
0.01600003796
0.016
0.016
0.01600000303
0.01600000398
0.01600000006
0.01600000006
0.01600000396
0.01600000296
0.016
0.016
0.01600004063
0.01600064138
0.01600000139
0.01600000056
0.016
0.016
0.016
0.016
0.016
0.01623182894
0.2773706482
1.087788045
2.021508615
3.600386891
5.7088977
4.954538471
6.888962296
7.291282507
8.799563132
8.722544944
5.924017993
6.060728017
2.182319521
0.3316829229
0.02119571761
0.016
0.016
0.01600098075
0.01606922411
0.01600249732
0.01600621444
0.01600729353
0.01600276326
0.01600081683
0.01600126416
0.01600126464
0.01600081546
0.01600276528
0.01600730045
0.01600621215
0.01600250221
0.01606925075
0.01600098115
0.016
0.016
0.02119299921
0.3316526266
2.182226515
6.060568761
5.923572528
8.722180899
8.80055961
7.291239354
6.888908961
4.954458252
7.999999823
7.999999999
8
8.000000014
7.999999844
7.999999687
8
15.99999594
14.20012612
8.288919535
3.836836528
1.447890439
0.09107764059
0.01601130955
0.01600277961
0.01600420099
0.01600546161
0.01602858541
0.01600845967
0.01602472133
0.01602473306
0.01600849123
0.01602859684
0.01600546584
0.01600419928
0.01600278469
0.01601130975
0.09109774817
1.447952052
3.836922848
8.289001546
14.20018838
15.99999594
8
7.999999703
7.99999985
8.000000004
7.999999966
7.999999927
7.999999957
8
8
8
8
8
8
8
8
8.672113546
15.9999961
15.23634123
10.82718855
6.051056652
1.849922376
0.03842215233
0.01600057894
0.01600063846
0.01600066127
0.01600485663
0.01601684158
0.01601685035
0.01600487393
0.01600066138
0.01600063855
0.01600057907
0.03844227605
1.849983245
6.051176123
10.82729126
15.23637674
15.9999961
8.672046403
8
8
8
8
8
8
8
8
8
8
8
8
8
8
8
8
7.999999996
8
9.290473706
15.99999996
15.84031151
13.46828588
8.871091804
3.661929914
1.309441635
0.1982156808
0.1682876566
0.06440673907
0.06441487362
0.1683096349
0.1982414467
1.309475899
3.661989138
8.871162124
13.46834707
15.84031839
15.99999997
9.290444367
8
7.999999999
8
8
8
8
8
8
8
8
8
8
8
8
8
8
8
8
8
8
8.000000007
8
13.43707327
15.9999978
15.99999993
15.99971303
14.23222936
11.43366688
9.290672667
8.29884998
8.298857569
9.29068578
11.43369086
14.23225643
15.99971402
15.99999998
15.9999978
13.43705762
8
7.999999992
8
8
8
8
8
8
8
8
8
8
8
8
8
8
8
8
8
8
8
8
8
8
7.999999992
8
8.876749952
16
15.99982426
15.99995743
15.99761316
15.9820861
15.98208653
15.99761303
15.99995738
15.99982429
16.00000026
8.87675187
8
8.000000002
8
8
8
8
8
8
8
8
8
8
8
8
8
8
8
8
8
8
8
8
8
8
8
8
8
8
8.000000002
7.99999998
7.999999975
8.323799685
11.19256258
13.04279919
13.04279415
11.1925491
8.323792928
8
7.999999983
7.999999992
8
8
8
8
8
8
8
8
8
8
8
8
8
8
8
8
8
8
8
8
8
8
8
8
8
8
8
8
8
8
8
8
7.999999979
7.999999981
7.99999998
7.999999995
8
8
8
8
8
8
8
8
8
8
8
8
8
8
8
8
8
8
8
8
8
8
8
8
8
8
8
8
8
8
8
8
8
8
8
8
8
8
8
8
8
8
8
8
8
8
8
8
8
8
8
8
8
8
8
8
8
8
8
8
8
8
8
8
8
8
8
8
8
8
8
8
8
8
8
8
8
8
8
8
8
8
8
8
8
8
8
8
8
8
8
8
8
8
8
8
8
8
8
8
8
8
8
8
8
8
8
8
8
8
8
8
8
8
8
8
8
8
8
8
8
8
8
8
8
8
8
8
8
8
8
8
8
8
8
8
8
8
8
8
8
8
8
8
8
8
8
8
8
8
8
8
8
8
8
8
8
8
8
8
8
8
8
8
8
8
8
8
8
8
8
8
8
8
8
8
8
8
8
8
8
8
8
8
8
8
8
8
8
8
8
8
8
8
8
8
8
8
8
8
8
8
8
8
8
8
8
8
8
8
8
8
8
8
8
8
8
8
8
8
8
8
8
8
8
8
8
8
8
8
8
8
8
8
8
8
8
8
8
8
8
8
8
8
8
8
8
8
8
8
8
8
8
8
8
8
8
8
8
8
8
8
8
8
8
8
8
8
8
8
8
8
8
8
8
8
8
8
8
8
8
8
8
8
8
8
8
8
8
8
8
8
8
8
8
8
8
8
8
8
8
8
8
8
8
8
8
8
8
8
8
8
8
8
8
8
8
8
8
8
8
8
8
8
8
8
8
8
8
8
8
8
8
8
8
8
8
7.999999999
0.01611657927
0.01601128726
0.01600587196
0.01600380387
0.016
0.016
0.016
0.016
0.016
0.016
0.016
0.016
0.016
0.016
0.016
0.016
0.016
0.016
0.016
0.016
0.016
0.016
0.016
0.016
0.016
0.016
0.016
0.016
0.016
0.016
0.016
0.016
0.016
0.016
0.016
0.016
0.01600380182
0.01600585688
0.01601123448
0.01611648284
0.01708503581
0.01611945437
0.01601206104
0.01602219511
0.016
0.016
0.016
0.016
0.016
0.016
0.016
0.016
0.016
0.016
0.016
0.016
0.016
0.016
0.016
0.016
0.016
0.016
0.016
0.016
0.016
0.016
0.016
0.016
0.016
0.016
0.016
0.016
0.016
0.016
0.016
0.016
0.01602161537
0.01601178557
0.0161193176
0.01698025561
0.2350894357
0.01876594898
0.01818035437
0.01664057725
0.01610982616
0.01599999705
0.016
0.016
0.016
0.016
0.016
0.016
0.016
0.016
0.016
0.016
0.016
0.01600000003
0.01600000003
0.01600000003
0.01600000003
0.01600000003
0.01600000003
0.016
0.016
0.016
0.016
0.016
0.016
0.016
0.016
0.016
0.016
0.016
0.01599999706
0.01610964298
0.01664097334
0.0181772896
0.01876495382
0.2350195707
5.819357249
3.755063656
2.024673947
1.045706298
0.2492556757
0.01608161241
0.016
0.016
0.016
0.016
0.01600000005
0.01600000103
0.016
0.01600030243
0.01600001866
0.016
0.016
0.01600000376
0.01600001149
0.01600000397
0.01600000398
0.01600001139
0.01600000371
0.016
0.016
0.01600001911
0.01600030249
0.016
0.01600000102
0.01600000005
0.016
0.016
0.016
0.016
0.01608149344
0.2491785513
1.045495309
2.0246403
3.75478342
5.819083335
4.941300694
6.800868919
7.290317967
8.380000092
8.560219512
5.521667863
5.572248293
2.170982589
0.1769593382
0.016
0.016
0.016
0.016
0.0160430474
0.01600213879
0.01600887585
0.01601821522
0.01600000392
0.0160019391
0.01600082632
0.01600082613
0.01600193799
0.01600000388
0.01601821801
0.01600886954
0.01600214001
0.01604305294
0.016
0.016
0.016
0.016
0.1769463526
2.170925851
5.57213877
5.521277821
8.559848201
8.381185654
7.290297361
6.80079591
4.941221044
7.9999999
7.999999994
7.999999972
7.999999987
7.999999681
7.999999698
8
15.04468911
14.49415434
8.703978596
4.131452071
1.631001686
0.1503891264
0.01603906605
0.01600180379
0.01600710102
0.01601825979
0.01602478182
0.01601418552
0.01600849306
0.01600849775
0.01601419853
0.0160247921
0.01601826186
0.01600709656
0.01600180491
0.0160390748
0.1504148703
1.631062749
4.131548356
8.704076891
14.49421883
15.04443861
8
7.9999997
7.999999679
7.999999985
7.999999993
7.999999984
7.999999947
8
8
8
8
8
8
8
7.999999963
8
15.99999905
15.51695868
11.36331227
6.666600473
2.21813609
0.2124032939
0.01600051858
0.01600059565
0.01600077474
0.01612718122
0.01600483857
0.0160048415
0.01612730909
0.01600077504
0.01600059592
0.0160005189
0.2124250673
2.218199997
6.666707172
11.36341189
15.51699051
15.99999901
8
8.000000042
8
8
8
8
8
8
8
8
8
8
8
8
8
8
8
8
8
8.546240515
15.99999899
15.94411818
14.0162747
9.618970045
4.611026007
1.608821919
0.5045590106
0.1792013117
0.1652380846
0.1652482211
0.1792208515
0.5045809076
1.608855745
4.611082555
9.619031169
14.01632189
15.9441242
15.999999
8.54623119
7.999999968
8
8
8
8
8
8
8
8
8
8
8
8
8
8
8
8
8
8
8
8.000000001
8
11.62937894
16
15.99999997
15.99999998
14.81219526
12.30792957
10.33741848
9.284414479
9.284419681
10.33742765
12.3079535
14.81221671
15.99999998
15.99999995
16
11.62935537
8
8
8
8
8
8
8
8
8
8
8
8
8
8
8
8
8
8
8
8
8
8
8
8
7.999999996
8.000000003
7.999999999
16
16
15.99980647
15.99997688
15.99756331
15.99756338
15.99997688
15.99980647
15.99999999
16
7.999999984
8.000000002
7.999999999
8
8
8
8
8
8
8
8
8
8
8
8
8
8
8
8
8
8
8
8
8
8
8
8
8
8
8
7.999999999
8.000000015
8
9.429617742
11.19306181
11.19305584
9.42960721
8
7.999999987
7.999999986
8
8
8
8
8
8
8
8
8
8
8
8
8
8
8
8
8
8
8
8
8
8
8
8
8
8
8
8
8
8
8
8
8
8.000000008
8.00000001
8.000000004
8.000000002
8
8
8
8
8
8
8
8
8
8
8
8
8
8
8
8
8
8
8
8
8
8
8
8
8
8
8
8
8
8
8
8
8
8
8
8
8
8
8
8
8
8
8
8
8
8
8
8
8
8
8
8
8
8
8
8
8
8
8
8
8
8
8
8
8
8
8
8
8
8
8
8
8
8
8
8
8
8
8
8
8
8
8
8
8
8
8
8
8
8
8
8
8
8
8
8
8
8
8
8
8
8
8
8
8
8
8
8
8
8
8
8
8
8
8
8
8
8
8
8
8
8
8
8
8
8
8
8
8
8
8
8
8
8
8
8
8
8
8
8
8
8
8
8
8
8
8
8
8
8
8
8
8
8
8
8
8
8
8
8
8
8
8
8
8
8
8
8
8
8
8
8
8
8
8
8
8
8
8
8
8
8
8
8
8
8
8
8
8
8
8
8
8
8
8
8
8
8
8
8
8
8
8
8
8
8
8
8
8
8
8
8
8
8
8
8
8
8
8
8
8
8
8
8
8
8
8
8
8
8
8
8
8
8
8
8
8
8
8
8
8
8
8
8
8
8
8
8
8
8
8
8
8
8
8
8
8
8
8
8
8
8
8
8
8
8
8
8
8
8
8
8
8
8
8
8
8
8
8
8
8
8
8
8
8
8
8
8
8
8
8
8
8
8
8
8
8
8
8
8
8
8
8
8
8
8
8
8
8
8
8
8
8
8
8
8
8
8
8
8
8
8
8
8
8
8
8
8
8
8
8
8
8
8
8
8
8
8
0.01611147157
0.01601184302
0.01600744058
0.01600510836
0.016
0.016
0.016
0.016
0.016
0.016
0.016
0.016
0.016
0.016
0.016
0.016
0.016
0.016
0.016
0.016
0.016
0.016
0.016
0.016
0.016
0.016
0.016
0.016
0.016
0.016
0.016
0.016
0.016
0.016
0.016
0.016
0.01600510596
0.01600735329
0.01601174585
0.01611135632
0.0173419083
0.01611395108
0.0160146634
0.01604258709
0.01600034333
0.016
0.016
0.016
0.016
0.016
0.016
0.016
0.016
0.016
0.016
0.016
0.016
0.016
0.016
0.016
0.016
0.016
0.016
0.016
0.016
0.016
0.016
0.016
0.016
0.016
0.016
0.016
0.016
0.016
0.016
0.01600034326
0.01604088126
0.0160142778
0.01611380862
0.0172328804
0.2329087342
0.01862464466
0.0170370856
0.01750815291
0.01633443322
0.01599999996
0.016
0.016
0.016
0.016
0.016
0.016
0.016
0.016
0.016
0.016
0.016
0.016
0.01600000003
0.01600000014
0.01600000014
0.01600000003
0.016
0.016
0.016
0.016
0.016
0.016
0.016
0.016
0.016
0.016
0.016
0.016
0.01599999996
0.01633424089
0.01750872654
0.01703203863
0.01862404958
0.2328526984
5.81429784
3.86287357
1.960955751
1.205235387
0.361632802
0.0160009464
0.016
0.016
0.016
0.016
0.016
0.01600000003
0.01600000107
0.016
0.016
0.016
0.016
0.016
0.01600000375
0.01600000298
0.01600000299
0.01600000371
0.016
0.016
0.016
0.016
0.016
0.01600000107
0.01600000003
0.016
0.016
0.016
0.016
0.016
0.01600094588
0.3615358599
1.205048631
1.96125767
3.862752662
5.814113505
4.910761258
6.647978486
7.179539481
6.285145279
9.106858667
6.228536193
6.178378921
2.911826545
0.451504268
0.016
0.016
0.016
0.016
0.016
0.01600858242
0.01600088808
0.01601600723
0.01601476938
0.01600000376
0.0160027722
0.01600277241
0.01600000373
0.01601477331
0.01601600937
0.0160008884
0.01600858427
0.016
0.016
0.016
0.016
0.016
0.4515090626
2.911773121
6.17833011
6.228134346
9.106337279
6.284905907
7.179660345
6.647884433
4.910710687
7.999999891
7.999999971
7.999999957
8.000000002
7.999999924
7.99999981
8
12.63072674
15.32926436
10.12189593
5.204537941
2.125388588
0.3468079471
0.02360572692
0.01600071484
0.01600051858
0.01601563703
0.01602447064
0.01602478206
0.01602883714
0.01602883714
0.01602478993
0.01602447468
0.01601563817
0.0160005189
0.0160007153
0.02360740029
0.3468328005
2.125445597
5.204630636
10.12199147
15.32929729
12.63050509
8
7.999999815
7.999999888
7.999999997
7.999999989
7.999999978
7.999999921
8
8
8
8
8
8
8
7.99999999
8
16
15.96944922
12.6814229
8.075020896
3.109976757
0.6165371831
0.01600052559
0.01600051858
0.01600068849
0.01600076435
0.01600064595
0.01600064603
0.01600076473
0.01600068891
0.0160005189
0.01600052592
0.6165630555
3.11003781
8.075100655
12.68150015
15.96945892
15.99999996
8
8.00000003
8
8
8
8
8
8
8
8
8
8
8
8
8
8
8
8
8.000000021
8
15.99999997
15.99996712
14.90459947
11.24532934
6.316676514
2.611272357
0.911873368
0.5071455891
0.1946076097
0.1946144654
0.5071600718
0.9118932916
2.611313163
6.316726295
11.24537273
14.90462403
15.99996713
15.99999998
8
7.999999964
8
8
8
8
8
8
8
8
8
8
8
8
8
8
8
8
8
8
8
8
8
8.617235363
16
15.9999999
16
15.93932823
13.89567282
12.30664296
11.42817744
11.42818344
12.30665339
13.89569712
15.93933588
16
15.99999997
16
8.617230513
8
8
8
8
8
8
8
8
8
8
8
8
8
8
8
8
8
8
8
8
8
8
8
8
8
8.000000007
7.999999925
10.51675017
16
16
15.99978413
15.99995778
15.99995778
15.9997839
15.99999995
16
10.51674862
7.999999997
8.000000025
8.000000001
8
8
8
8
8
8
8
8
8
8
8
8
8
8
8
8
8
8
8
8
8
8
8
8
8
8
8
7.999999998
8.000000004
8.000000031
8
8.323567503
8.323566102
8
7.999999949
7.999999978
7.999999989
8
8
8
8
8
8
8
8
8
8
8
8
8
8
8
8
8
8
8
8
8
8
8
8
8
8
8
8
8
8
8
8
8
8
8
8
8
8
8
8
8
8
8
8
8
8
8
8
8
8
8
8
8
8
8
8
8
8
8
8
8
8
8
8
8
8
8
8
8
8
8
8
8
8
8
8
8
8
8
8
8
8
8
8
8
8
8
8
8
8
8
8
8
8
8
8
8
8
8
8
8
8
8
8
8
8
8
8
8
8
8
8
8
8
8
8
8
8
8
8
8
8
8
8
8
8
8
8
8
8
8
8
8
8
8
8
8
8
8
8
8
8
8
8
8
8
8
8
8
8
8
8
8
8
8
8
8
8
8
8
8
8
8
8
8
8
8
8
8
8
8
8
8
8
8
8
8
8
8
8
8
8
8
8
8
8
8
8
8
8
8
8
8
8
8
8
8
8
8
8
8
8
8
8
8
8
8
8
8
8
8
8
8
8
8
8
8
8
8
8
8
8
8
8
8
8
8
8
8
8
8
8
8
8
8
8
8
8
8
8
8
8
8
8
8
8
8
8
8
8
8
8
8
8
8
8
8
8
8
8
8
8
8
8
8
8
8
8
8
8
8
8
8
8
8
8
8
8
8
8
8
8
8
8
8
8
8
8
8
8
8
8
8
8
8
8
8
8
8
8
8
8
8
8
8
8
8
8
8
8
8
8
8
8
8
8
8
8
8
8
8
8
8
8
8
8
8
8
8
8
8
8
8
8
8
8
8
8
8
8
8
8
8
8
8
8
8
8
8
8
8
8
8
8
8
8
8
8
8
8
8
8
8
8
8
8
8
8
8
8
8
8
8
8
8
0.01606754911
0.01600948046
0.01600615623
0.016004817
0.01600031391
0.016
0.016
0.016
0.016
0.016
0.016
0.016
0.016
0.016
0.016
0.016
0.016
0.016
0.016
0.016
0.016
0.016
0.016
0.016
0.016
0.016
0.016
0.016
0.016
0.016
0.016
0.016
0.016
0.016
0.016
0.01600031342
0.0160047822
0.01600606975
0.01600929685
0.01606733418
0.01769468181
0.01606921971
0.01602814808
0.01608201299
0.01600337613
0.016
0.016
0.016
0.016
0.016
0.016
0.016
0.016
0.016
0.016
0.016
0.016
0.016
0.016
0.016
0.016
0.016
0.016
0.016
0.016
0.016
0.016
0.016
0.016
0.016
0.016
0.016
0.016
0.016
0.016
0.01600337995
0.01607622288
0.0160230979
0.01606883124
0.01757680709
0.1959498962
0.01781973592
0.01723669026
0.01852929521
0.01615145942
0.01599999963
0.016
0.016
0.016
0.016
0.016
0.016
0.016
0.016
0.016
0.016
0.016
0.016
0.016
0.01600000001
0.01600000001
0.016
0.016
0.016
0.016
0.016
0.016
0.016
0.016
0.016
0.016
0.016
0.016
0.016
0.01599999964
0.01615167336
0.01854633378
0.01723904654
0.0178194277
0.195911706
5.657796814
3.737344968
1.46389293
0.9530367476
0.3393826184
0.01875084606
0.01599945615
0.016
0.016
0.016
0.016
0.016
0.01600000185
0.01600003741
0.0160000683
0.016
0.016
0.016
0.016
0.016
0.016
0.016
0.016
0.016
0.016
0.01600006814
0.01600003733
0.01600000185
0.016
0.016
0.016
0.016
0.016
0.01599945667
0.01875106404
0.3393803541
0.9530847277
1.464058631
3.737425687
5.657739751
4.866388704
6.480838501
7.040158245
6.227192591
8.877174932
5.089882196
3.06959423
2.854931672
0.3272304928
0.016
0.016
0.016
0.016
0.016
0.01600022475
0.01603944819
0.01600456226
0.01601598877
0.01601820948
0.01600729872
0.01600730028
0.0160182113
0.01601599028
0.01600456325
0.01603945799
0.01600023206
0.016
0.016
0.016
0.016
0.016
0.3272411464
2.85489193
3.069497789
5.089569766
8.877080657
6.22712419
7.04030178
6.48072571
4.866330578
7.999999891
7.999999945
7.99999992
7.999999988
7.999999993
7.999999892
8
8.141833599
15.64986313
11.32882217
6.55100361
2.706757786
0.8618289252
0.04129618174
0.01600254423
0.01600071482
0.01600279998
0.01601563288
0.01601827748
0.01600545844
0.01600545981
0.01601827856
0.01601563379
0.01600280443
0.01600071528
0.01600255482
0.04130261906
0.8618631129
2.706817737
6.55109737
11.32890459
15.64988824
8.141780399
8
7.999999863
7.999999967
7.999999992
7.999999963
7.999999952
7.999999926
8
8
8
8
8
8
8
8
8
12.7871321
15.99995233
14.16863194
9.796552955
4.842905644
1.62873494
0.1106121805
0.01600056091
0.01600050336
0.01600058098
0.01600062326
0.01600062332
0.01600058138
0.01600050378
0.01600056149
0.1106198705
1.628772373
4.842974148
9.796621603
14.16868977
15.99995233
12.78696157
8
8
8
8
8
8
8
8
8
8
8
8
8
8
8
8
8
8
8.000000013
8
16
15.99999548
15.77389035
13.11347549
9.410946096
5.274897616
2.611578332
1.619596501
1.30440537
1.30441301
1.619610334
2.611610504
5.274934591
9.410995334
13.11350366
15.77389443
15.99999548
16
8
8
8
8
8
8
8
8
8
8
8
8
8
8
8
8
8
8
8
8
8
8
8.000000025
8
15.20594007
15.99999997
15.9999999
16
15.93988561
14.81655031
14.22649726
14.22650037
14.81655904
15.93989245
16
16
16
15.20592334
8
8.000000021
8
8
8
8
8
8
8
8
8
8
8
8
8
8
8
8
8
8
8
8
8
8
8
8
7.999999985
7.999999982
7.999999903
13.29942724
16
15.99999999
15.99984506
15.99984505
15.99999998
16
13.2994308
8.000000207
8.000000004
8.000000014
8
8
8
8
8
8
8
8
8
8
8
8
8
8
8
8
8
8
8
8
8
8
8
8
8
8
8
8
8
8.000000004
7.999999999
7.999999976
7.999999968
7.999999995
7.999999968
7.999999975
7.999999985
8
8
8
8
8
8
8
8
8
8
8
8
8
8
8
8
8
8
8
8
8
8
8
8
8
8
8
8
8
8
8
8
8
8
8
8
8
8
8
8
8
8
8
8
8
8
8
8
8
8
8
8
8
8
8
8
8
8
8
8
8
8
8
8
8
8
8
8
8
8
8
8
8
8
8
8
8
8
8
8
8
8
8
8
8
8
8
8
8
8
8
8
8
8
8
8
8
8
8
8
8
8
8
8
8
8
8
8
8
8
8
8
8
8
8
8
8
8
8
8
8
8
8
8
8
8
8
8
8
8
8
8
8
8
8
8
8
8
8
8
8
8
8
8
8
8
8
8
8
8
8
8
8
8
8
8
8
8
8
8
8
8
8
8
8
8
8
8
8
8
8
8
8
8
8
8
8
8
8
8
8
8
8
8
8
8
8
8
8
8
8
8
8
8
8
8
8
8
8
8
8
8
8
8
8
8
8
8
8
8
8
8
8
8
8
8
8
8
8
8
8
8
8
8
8
8
8
8
8
8
8
8
8
8
8
8
8
8
8
8
8
8
8
8
8
8
8
8
8
8
8
8
8
8
8
8
8
8
8
8
8
8
8
8
8
8
8
8
8
8
8
8
8
8
8
8
8
8
8
8
8
8
8
8
8
8
8
8
8
8
8
8
8
8
8
8
8
8
8
8
8
8
8
8
8
8
8
8
8
8
8
8
8
8
8
8
8
8
8
8
8
8
8
8
8
8
8
8
8
8
8
8
8
8
8
8
8
8
8
8
8
8
8
8
8
8
8
8
8
8
8
8
8
8
8
8
8
8
8
8
8
8
8
8
8
8
8
8
8
8
8
8
8
8
8
8
0.0160453212
0.01601481853
0.01600869785
0.01600784748
0.0160031006
0.016
0.016
0.016
0.016
0.016
0.016
0.016
0.016
0.016
0.016
0.016
0.016
0.016
0.016
0.016
0.016
0.016
0.016
0.016
0.016
0.016
0.016
0.016
0.016
0.016
0.016
0.016
0.016
0.016
0.016
0.01600310052
0.01600764118
0.0160084512
0.01601450334
0.01604494483
0.01781230273
0.01604562026
0.01601893004
0.0161136361
0.01600884908
0.016
0.016
0.016
0.016
0.016
0.016
0.016
0.016
0.016
0.016
0.016
0.016
0.016
0.016
0.016
0.016
0.016
0.016
0.016
0.016
0.016
0.016
0.016
0.016
0.016
0.016
0.016
0.016
0.016
0.016
0.01600880773
0.01610575222
0.0160173508
0.01604528029
0.01767875362
0.07287876614
0.01715582581
0.01638988167
0.01612257058
0.01619732765
0.01600024799
0.016
0.016
0.016
0.016
0.016
0.016
0.016
0.016
0.016
0.016
0.016
0.016
0.016
0.016
0.016
0.016
0.016
0.016
0.016
0.016
0.016
0.016
0.016
0.016
0.016
0.016
0.016
0.016
0.01600024709
0.01619727759
0.01611471753
0.01638687353
0.017155014
0.07287042651
5.358736529
3.511718757
1.20029348
0.8532775227
0.4240206085
0.01658096649
0.0159999997
0.016
0.016
0.016
0.016
0.016
0.01600000592
0.01600014771
0.016
0.01600035007
0.016
0.016
0.016
0.016
0.016
0.016
0.016
0.016
0.01600035044
0.016
0.01600014765
0.01600000592
0.016
0.016
0.016
0.016
0.016
0.0159999997
0.01657936639
0.424014335
0.8532490558
1.200324399
3.51180191
5.358719989
4.803557375
6.251500592
6.765868995
6.250685339
9.181486731
5.50523373
3.800729166
4.614144229
1.909952508
0.016
0.016
0.016
0.016
0.01600000002
0.01600025836
0.01601358157
0.01603898385
0.01600084986
0.01600886883
0.01600625699
0.01600625744
0.01600886737
0.01600085103
0.01603899872
0.01601360115
0.01600025733
0.01600000002
0.016
0.016
0.016
0.016
1.909974899
4.614098354
3.800648097
5.505024384
9.181372262
6.250593978
6.766044292
6.251374467
4.803520249
7.999999858
7.999999918
7.999999891
7.999999999
7.999999993
7.999999852
7.999999813
8
15.99998219
14.12466099
8.908597502
4.189178191
1.757109953
0.3513250787
0.01625960953
0.01600411754
0.01600068349
0.01600050336
0.01600710249
0.01600420683
0.01600420684
0.01600710065
0.01600050378
0.01600068403
0.01600412559
0.01625960914
0.3513442664
1.75714117
4.189236004
8.908667962
14.12472811
15.99998214
8
7.999999796
7.999999833
7.999999992
7.999999993
7.999999918
7.999999924
7.99999991
8
8
8
8
8
8
8
8
8
8.657032182
15.99999967
15.75152018
12.04632367
7.757089563
3.512497394
1.10437859
0.1096643007
0.01600051003
0.01600050336
0.01600056338
0.01600056352
0.01600050378
0.01600051045
0.1096708028
1.104403972
3.512548779
7.757140966
12.046365
15.75154406
15.99999971
8.657003713
7.999999963
8
8
8
8
8
8
8
8
8
8
8
8
8
8
8
8
8
8.000000003
7.999999961
8.430290253
16
15.99996512
15.02703233
12.60256935
9.402702373
6.303166529
4.595964449
3.634627208
3.634635125
4.595982576
6.303197094
9.402741989
12.60259474
15.02703571
15.99996512
16
8.430272832
8
7.999999999
8
8
8
8
8
8
8
8
8
8
8
8
8
8
8
8
8
8
8
8
8.000000001
8.000000073
8.082866993
15.99999998
15.99999992
15.99999997
16
15.99999999
15.99930097
15.99930113
15.99999998
16
16
16
16
8.082866209
7.999999997
8
8
8
8
8
8
8
8
8
8
8
8
8
8
8
8
8
8
8
8
8
8
8
8
8
8
7.999999979
7.999999925
7.999999967
10.52242705
16
16
15.99999999
16
10.52244071
8.000000206
8.000000069
8.000000021
8
8
8
8
8
8
8
8
8
8
8
8
8
8
8
8
8
8
8
8
8
8
8
8
8
8
8
8
8
8
8
8.000000001
7.999999981
7.999999984
7.999999982
7.999999979
7.999999988
8
8
8
8
8
8
8
8
8
8
8
8
8
8
8
8
8
8
8
8
8
8
8
8
8
8
8
8
8
8
8
8
8
8
8
8
8
8
8
8
8
8
8
8
8
8
8
8
8
8
8
8
8
8
8
8
8
8
8
8
8
8
8
8
8
8
8
8
8
8
8
8
8
8
8
8
8
8
8
8
8
8
8
8
8
8
8
8
8
8
8
8
8
8
8
8
8
8
8
8
8
8
8
8
8
8
8
8
8
8
8
8
8
8
8
8
8
8
8
8
8
8
8
8
8
8
8
8
8
8
8
8
8
8
8
8
8
8
8
8
8
8
8
8
8
8
8
8
8
8
8
8
8
8
8
8
8
8
8
8
8
8
8
8
8
8
8
8
8
8
8
8
8
8
8
8
8
8
8
8
8
8
8
8
8
8
8
8
8
8
8
8
8
8
8
8
8
8
8
8
8
8
8
8
8
8
8
8
8
8
8
8
8
8
8
8
8
8
8
8
8
8
8
8
8
8
8
8
8
8
8
8
8
8
8
8
8
8
8
8
8
8
8
8
8
8
8
8
8
8
8
8
8
8
8
8
8
8
8
8
8
8
8
8
8
8
8
8
8
8
8
8
8
8
8
8
8
8
8
8
8
8
8
8
8
8
8
8
8
8
8
8
8
8
8
8
8
8
8
8
8
8
8
8
8
8
8
8
8
8
8
8
8
8
8
8
8
8
8
8
8
8
8
8
8
8
8
8
8
8
8
8
8
8
8
8
8
8
8
8
8
8
8
8
8
8
8
8
8
8
8
8
8
8
8
8
8
8
8
8
8
8
8
8
8
8
8
8
8
8
8
8
8
8
8
8
8
0.01608986744
0.01602142247
0.01601056435
0.01600893939
0.01600803591
0.016
0.016
0.016
0.016
0.016
0.016
0.016
0.016
0.016
0.016
0.016
0.016
0.016
0.016
0.016
0.016
0.016
0.016
0.016
0.016
0.016
0.016
0.016
0.016
0.016
0.016
0.016
0.016
0.016
0.016
0.01600803958
0.01600867023
0.01601018377
0.01602101595
0.01608322679
0.01780442976
0.01603767629
0.01602397014
0.01612188915
0.01601471981
0.016
0.016
0.016
0.016
0.016
0.016
0.016
0.016
0.016
0.016
0.016
0.016
0.016
0.016
0.016
0.016
0.016
0.016
0.016
0.016
0.016
0.016
0.016
0.016
0.016
0.016
0.016
0.016
0.016
0.016
0.01601441272
0.01611089985
0.01602330197
0.01603799574
0.01765930981
0.01739470955
0.01661006308
0.01652687492
0.01790606925
0.01640825404
0.01600002422
0.016
0.016
0.016
0.016
0.016
0.016
0.016
0.016
0.016
0.016
0.016
0.016
0.016
0.016
0.016
0.016
0.016
0.016
0.016
0.016
0.016
0.016
0.016
0.016
0.016
0.016
0.016
0.016
0.01600002416
0.01640819614
0.01791613645
0.01652601394
0.01659479699
0.01732252922
5.194500544
3.562993246
1.281023137
0.8898243455
0.491352156
0.01601060951
0.016
0.016
0.016
0.016
0.016
0.016
0.01600000013
0.01600000918
0.0160002452
0.016
0.01600007231
0.016
0.0160000177
0.01600003074
0.01600003075
0.0160000177
0.016
0.01600007248
0.016
0.01600024519
0.0160000091
0.01600000013
0.016
0.016
0.016
0.016
0.016
0.016
0.01601058072
0.4913438667
0.8898119941
1.281029097
3.563074114
5.194680284
4.719943886
6.010576438
6.387659459
6.408899326
9.479720941
5.711192458
3.643391054
4.988463306
2.446993565
0.4482040796
0.016
0.016
0.016
0.016
0.01600000002
0.01600026185
0.01600046605
0.01600808304
0.01600178123
0.016001732
0.01600173258
0.01600178212
0.01600808807
0.01600047869
0.01600026118
0.01600000002
0.016
0.016
0.016
0.016
0.4482050441
2.446999973
4.988385148
3.643324433
5.71105293
9.479663686
6.408835719
6.387847396
6.010454002
4.719918759
7.99999982
7.999999852
7.999999886
7.999999997
8
7.999999886
7.999999943
8
10.65432896
15.61234851
11.093954
6.819352343
2.989541007
1.240423273
0.2167026624
0.01625938918
0.01600198005
0.01600068351
0.01600164822
0.01600196036
0.01600196091
0.01600164911
0.01600068405
0.01600199011
0.01625940068
0.2167161456
1.24045373
2.989583341
6.819415645
11.09400828
15.61237214
10.65418273
8
7.999999943
7.999999883
7.999999998
7.999999975
7.999999866
7.999999867
7.999999902
8
8
8
8
8
8
8
8
8.000000016
8
15.58265554
15.99997134
14.53519793
11.01439739
6.787802723
3.503853055
1.617098023
0.605727416
0.2025485749
0.02781803516
0.02782011732
0.2025540791
0.6057395776
1.617120841
3.503893657
6.787847721
11.01442603
14.53522963
15.99997133
15.58255665
8
8.000000009
8
8
8
8
8
8
8
8
8
8
8
8
8
8
8
8
8
8
8.000000023
8
15.29680829
15.99999975
15.99993657
15.01975166
13.09671612
11.2183967
9.581985452
8.819891073
8.819897136
9.581996431
11.21841418
13.0967309
15.01975079
15.99993657
15.99999965
15.29678754
8
7.999999993
8
8
8
8
8
8
8
8
8
8
8
8
8
8
8
8
8
8
8
8
8
8
8.000000017
8
8.918172512
15.99999999
15.99999996
15.99999993
15.99999993
15.9999999
15.99999989
15.99999994
15.99999997
15.99999999
16
8.918169837
7.999999902
8
8
8
8
8
8
8
8
8
8
8
8
8
8
8
8
8
8
8
8
8
8
8
8
8
8
8
7.999999999
7.999999991
7.999999974
7.999999961
7.999999977
8.879554242
8.879557019
7.999999982
7.999999998
7.999999991
8.000000019
8.000000004
8
8
8
8
8
8
8
8
8
8
8
8
8
8
8
8
8
8
8
8
8
8
8
8
8
8
8
8
8
8
8
8
8
7.999999996
7.999999998
8
8
8
8
8
8
8
8
8
8
8
8
8
8
8
8
8
8
8
8
8
8
8
8
8
8
8
8
8
8
8
8
8
8
8
8
8
8
8
8
8
8
8
8
8
8
8
8
8
8
8
8
8
8
8
8
8
8
8
8
8
8
8
8
8
8
8
8
8
8
8
8
8
8
8
8
8
8
8
8
8
8
8
8
8
8
8
8
8
8
8
8
8
8
8
8
8
8
8
8
8
8
8
8
8
8
8
8
8
8
8
8
8
8
8
8
8
8
8
8
8
8
8
8
8
8
8
8
8
8
8
8
8
8
8
8
8
8
8
8
8
8
8
8
8
8
8
8
8
8
8
8
8
8
8
8
8
8
8
8
8
8
8
8
8
8
8
8
8
8
8
8
8
8
8
8
8
8
8
8
8
8
8
8
8
8
8
8
8
8
8
8
8
8
8
8
8
8
8
8
8
8
8
8
8
8
8
8
8
8
8
8
8
8
8
8
8
8
8
8
8
8
8
8
8
8
8
8
8
8
8
8
8
8
8
8
8
8
8
8
8
8
8
8
8
8
8
8
8
8
8
8
8
8
8
8
8
8
8
8
8
8
8
8
8
8
8
8
8
8
8
8
8
8
8
8
8
8
8
8
8
8
8
8
8
8
8
8
8
8
8
8
8
8
8
8
8
8
8
8
8
8
8
8
8
8
8
8
8
8
8
8
8
8
8
8
8
8
8
8
8
8
8
8
8
8
8
8
8
8
8
8
8
8
8
8
8
8
8
8
8
8
8
8
8
8
8
8
8
8
8
8
8
8
8
8
8
8
8
8
8
8
8
8
8
8
8
8
8
8
8
8
8
8
8
8
8
8
8
0.01618452786
0.01603407278
0.01601463608
0.01601095671
0.01601465902
0.016
0.016
0.016
0.016
0.016
0.016
0.016
0.016
0.016
0.016
0.016
0.016
0.016
0.016
0.016
0.016
0.016
0.016
0.016
0.016
0.016
0.016
0.016
0.016
0.016
0.016
0.016
0.016
0.016
0.016
0.01601406202
0.01601052519
0.01601395877
0.01603337142
0.01616679543
0.01787933295
0.01605592762
0.01603660903
0.01612315466
0.01604689454
0.01600781701
0.016
0.016
0.016
0.016
0.016
0.016
0.016
0.016
0.016
0.016
0.016
0.016
0.016
0.016
0.016
0.016
0.016
0.016
0.016
0.016
0.016
0.016
0.016
0.016
0.016
0.016
0.016
0.016
0.01600784092
0.0160438797
0.01610425284
0.01603549687
0.01605594334
0.01773192126
0.0175114061
0.01676934082
0.01686877061
0.02047471873
0.01707388976
0.01669903217
0.01599993241
0.016
0.016
0.016
0.016
0.016
0.016
0.016
0.016
0.016
0.016
0.016
0.016
0.016
0.016
0.016
0.016
0.016
0.016
0.016
0.016
0.016
0.016
0.016
0.016
0.016
0.016
0.01599993209
0.01669902729
0.0170775312
0.02048768874
0.01686771869
0.01675659108
0.01743760271
4.955566638
3.701228863
1.524793988
1.178132676
0.6101581178
0.03675385937
0.01599982327
0.016
0.016
0.016
0.016
0.016
0.016
0.016
0.01600000907
0.01600014644
0.01600003823
0.016
0.01600029025
0.01600052594
0.01600052602
0.01600029036
0.016
0.01600003829
0.01600014647
0.01600000903
0.016
0.016
0.016
0.016
0.016
0.016
0.016
0.01599988129
0.03675448822
0.6101701825
1.178155455
1.524820562
3.701321171
4.955987543
4.607895353
5.766534433
6.044925802
6.509773845
10.08403278
6.547666625
3.451626406
3.775374158
4.27465604
2.200394272
0.1251982944
0.016
0.016
0.016
0.016
0.01600000002
0.016
0.016
0.0160422897
0.01605959727
0.01605960071
0.01604229456
0.016
0.016
0.01600000002
0.016
0.016
0.016
0.016
0.1252086451
2.20042276
4.274682468
3.775364701
3.45163376
6.547678985
10.08407372
6.50974619
6.045059557
5.766436103
4.607873768
7.999999779
7.999999794
7.999999845
8
8.000000001
7.999999882
7.999999801
7.999999973
8
16
14.8306905
9.836176199
5.80052789
2.872551635
1.240214458
0.3474917559
0.0402167117
0.02292748158
0.0160351528
0.01600534016
0.01600539654
0.0160351602
0.02292843583
0.0402210327
0.3475067165
1.24024188
2.872588671
5.800579548
9.836230058
14.83074137
16
8
7.999999964
7.99999978
7.999999899
8.000000012
7.999999975
7.999999796
7.999999817
7.999999889
8
8
8
8
8
8
8
8
8
8.000000032
8
15.9999999
15.9999627
14.06380197
11.00620902
7.733352608
4.806214356
3.072214785
2.174209743
1.804667826
1.804671598
2.174218801
3.072232795
4.806239905
7.733375667
11.00622544
14.06382056
15.9999627
15.99999991
8
8.000000021
8
8
8
8
8
8
8
8
8
8
8
8
8
8
8
8
8
8
8
8
7.999999898
8
16
15.99999974
15.99996473
15.76467364
14.87937861
13.97895223
13.41914538
13.41914687
13.9789511
14.87937657
15.76466833
15.99996472
15.99999964
16
8
7.999999911
8
8
8
8
8
8
8
8
8
8
8
8
8
8
8
8
8
8
8
8
8
8
8
8
8.000000049
8
8.083341055
15.21209915
15.99999998
15.99999997
15.99999804
15.99999804
15.99999998
16
15.21209388
8.083339704
7.999999903
8.000000007
8
8
8
8
8
8
8
8
8
8
8
8
8
8
8
8
8
8
8
8
8
8
8
8
8
8
8
8
8
7.999999988
7.999999982
7.999999974
7.999999999
8
7.99999998
8.000000008
8.000000011
8
8
8
8
8
8
8
8
8
8
8
8
8
8
8
8
8
8
8
8
8
8
8
8
8
8
8
8
8
8
8
8
8
8
8
8
8
8
8
8
8
8
8
8
8
8
8
8
8
8
8
8
8
8
8
8
8
8
8
8
8
8
8
8
8
8
8
8
8
8
8
8
8
8
8
8
8
8
8
8
8
8
8
8
8
8
8
8
8
8
8
8
8
8
8
8
8
8
8
8
8
8
8
8
8
8
8
8
8
8
8
8
8
8
8
8
8
8
8
8
8
8
8
8
8
8
8
8
8
8
8
8
8
8
8
8
8
8
8
8
8
8
8
8
8
8
8
8
8
8
8
8
8
8
8
8
8
8
8
8
8
8
8
8
8
8
8
8
8
8
8
8
8
8
8
8
8
8
8
8
8
8
8
8
8
8
8
8
8
8
8
8
8
8
8
8
8
8
8
8
8
8
8
8
8
8
8
8
8
8
8
8
8
8
8
8
8
8
8
8
8
8
8
8
8
8
8
8
8
8
8
8
8
8
8
8
8
8
8
8
8
8
8
8
8
8
8
8
8
8
8
8
8
8
8
8
8
8
8
8
8
8
8
8
8
8
8
8
8
8
8
8
8
8
8
8
8
8
8
8
8
8
8
8
8
8
8
8
8
8
8
8
8
8
8
8
8
8
8
8
8
8
8
8
8
8
8
8
8
8
8
8
8
8
8
8
8
8
8
8
8
8
8
8
8
8
8
8
8
8
8
8
8
8
8
8
8
8
8
8
8
8
8
8
8
8
8
8
8
8
8
8
8
8
8
8
8
8
8
8
8
8
8
8
8
8
8
8
8
8
8
8
8
8
8
8
8
8
8
8
8
8
8
8
8
8
8
8
8
8
8
8
8
8
8
8
8
8
8
8
8
8
8
8
8
8
8
8
8
8
8
8
8
8
8
8
0.01623449098
0.0160437691