/*--------------------------------*- C++ -*----------------------------------*\
  =========                 |
  \\      /  F ield         | OpenFOAM: The Open Source CFD Toolbox
   \\    /   O peration     | Website:  https://openfoam.org
    \\  /    A nd           | Version:  6
     \\/     M anipulation  |
\*---------------------------------------------------------------------------*/
FoamFile
{
    version     2.0;
    format      ascii;
    class       volScalarField;
    location    "0.0012";
    object      TRHS;
}
// * * * * * * * * * * * * * * * * * * * * * * * * * * * * * * * * * * * * * //

dimensions      [1 -1 -3 0 0 0 0];

internalField   nonuniform List<scalar> 
600
(
1.84317029e-09
6.775832449e-10
1.358057346e-10
-2.182125227e-10
-5.216296235e-10
-9.236159927e-10
-1.565723497e-09
-2.614623322e-09
-4.177636944e-09
-6.042974936e-09
-6.953667001e-09
-3.209273522e-09
1.329723876e-08
5.186651459e-08
8.06209664e-08
8.490879176e-08
-2.454370394e-07
21.92721345
18.22874913
0
0
0
0
0
0
0
-0.005972238653
20.34657071
-5.116997729e-05
-2.519401748e-10
2.129227238e-09
8.074966793e-10
1.72242287e-10
-2.491440046e-10
-6.021052844e-10
-1.040642042e-09
-1.696613095e-09
-2.708729744e-09
-4.159561125e-09
-5.941590288e-09
-7.424842532e-09
-7.071868582e-09
-2.17181287e-09
1.020442341e-08
4.337524499e-08
1.320594006e-07
4.446213462e-07
-5.476628352e-05
-4.604619426e-05
441.0458492
132.9583696
126.7899674
66.44120738
117.6990121
105.8928943
360.0707085
-1.790014821e-07
-1.461133748e-07
-1.42078957e-08
7.11813925e-08
2.162137425e-09
8.201992144e-10
1.747651136e-10
-2.557805447e-10
-6.204758872e-10
-1.072984757e-09
-1.753983623e-09
-2.808505286e-09
-4.37259407e-09
-6.506550264e-09
-9.119647301e-09
-1.198843353e-08
-1.510921712e-08
-1.901663718e-08
-1.668901406e-08
1.319758724e-08
7.953926482e-08
1.834975812e-07
6.853737286e-07
-0.0022115459
-0.0006554113317
-0.0006224748264
-0.0003180323844
-0.0005775872143
-0.0005205318966
-0.001805470678
-1.813316457e-07
-2.049489602e-07
-3.123006028e-07
-1.949928402e-07
1.974063771e-09
7.392870022e-10
1.607723715e-10
-2.293498715e-10
-5.682015378e-10
-1.012899126e-09
-1.711159542e-09
-2.824411264e-09
-4.484529742e-09
-6.660092747e-09
-8.84612796e-09
-9.632970758e-09
-6.461404098e-09
3.605080406e-09
3.36164348e-08
1.165611571e-07
4.235225048e-07
-4.396555802e-05
-2.758763428e-05
436.8921333
127.0402084
120.1428564
59.72073683
111.4271103
100.5996502
356.5225472
-2.257448364e-07
-1.611791771e-07
-2.438636072e-08
6.324197965e-08
1.603906327e-09
5.88882172e-10
1.402041878e-10
-1.648600534e-10
-4.465548857e-10
-8.626661248e-10
-1.587524004e-09
-2.837887528e-09
-4.821748671e-09
-7.49063956e-09
-9.832421397e-09
-8.455858492e-09
4.412510553e-09
3.798189855e-08
6.024044674e-08
5.704462033e-08
-2.687081568e-07
17.63588928
10.89959331
0
0
0
0
0
0
0
-0.006186229415
17.08496159
-4.295267927e-05
-2.154444654e-10
1.108990402e-09
3.932193855e-10
1.203443746e-10
-6.669795531e-11
-2.623397119e-10
-6.264716294e-10
-1.380044194e-09
-2.876657451e-09
-5.642557463e-09
-1.026671511e-08
-1.679121653e-08
-2.29226874e-08
-1.935171899e-08
7.93366975e-09
1.30082105e-07
-0.0001046611749
41.55317049
0
0
0
0
0
0
0
0
0
0
0
391.8050893
-0.002065114083
5.586629594e-10
1.791058508e-10
1.031226557e-10
5.299274826e-11
-3.230848459e-11
-3.035377816e-10
-1.012914212e-09
-2.639977896e-09
-6.075958547e-09
-1.290532842e-08
-2.574947497e-08
-4.837109812e-08
-7.795396807e-08
-4.358660496e-08
3.161930388e-08
-0.0006628035922
106.5547472
0
0
0
0
0
0
0
0
0
0
0
-0.005417580673
-2.511078054e-05
2.966067776e-11
-2.681815123e-11
8.544789344e-11
1.681327007e-10
1.968550678e-10
4.609317119e-11
-5.192845602e-10
-1.952150975e-09
-5.057735332e-09
-1.114773689e-08
-2.216424675e-08
-4.133450161e-08
-9.748167008e-08
-1.743050175e-07
-2.958912497e-07
156.4892919
0
0
0
0
0
0
0
0
0
0
0
0
0
-0.002528705261
-4.078628971e-10
-2.015360025e-10
6.085427462e-11
2.44602296e-10
3.519542194e-10
2.678239324e-10
-2.505359308e-10
-1.687956884e-09
-4.885950284e-09
-1.109562417e-08
-2.181010439e-08
-4.038332247e-08
-1.280297855e-07
-2.410675532e-07
-2.066954242e-07
-0.006212997051
0
0
0
0
0
0
0
0
0
0
0
0
0
0
-6.98235363e-10
-3.253635188e-10
2.797619853e-11
2.661987841e-10
4.018254342e-10
3.107662116e-10
-3.072634636e-10
-2.108341231e-09
-6.388722321e-09
-1.54476576e-08
-3.278151971e-08
-6.130499027e-08
-7.331900048e-08
-1.058714628e-07
-0.0001753883216
69.5680886
0
0
0
0
0
0
0
0
0
0
0
0
0
0
-8.1167304e-10
-3.866994976e-10
-9.252845524e-12
2.377377786e-10
3.72882139e-10
2.765619849e-10
-3.476563144e-10
-2.158106698e-09
-6.459106891e-09
-1.557787956e-08
-3.303945291e-08
-6.185130605e-08
-7.430512115e-08
-1.078725547e-07
-0.0001753184667
69.53973364
0
0
0
0
0
0
0
0
0
0
0
0
0
0
-7.461647406e-10
-3.842794434e-10
-4.9636805e-11
1.615989584e-10
2.684747023e-10
1.71240763e-10
-3.645952678e-10
-1.825559135e-09
-5.080995343e-09
-1.144417639e-08
-2.253714354e-08
-4.187367365e-08
-1.309017852e-07
-2.471343221e-07
-2.122273553e-07
-0.006215769986
0
0
0
0
0
0
0
0
0
0
0
0
0
0
-5.301941823e-10
-3.28666546e-10
-9.492179927e-11
3.584154929e-11
6.794159322e-11
-1.001007771e-10
-6.891732108e-10
-2.155689659e-09
-5.340203436e-09
-1.164484183e-08
-2.315891988e-08
-4.338180757e-08
-1.02077666e-07
-1.843177974e-07
-2.959298524e-07
156.406716
0
0
0
0
0
0
0
0
0
0
0
0
0
-0.00247837817
-2.142985716e-10
-2.366217997e-10
-1.414664685e-10
-1.203325972e-10
-1.946622178e-10
-4.831923578e-10
-1.220514496e-09
-2.890499131e-09
-6.426352533e-09
-1.350836253e-08
-2.692072082e-08
-5.067166789e-08
-8.218680001e-08
-5.018369513e-08
2.651827548e-08
-0.0006619404875
106.2901468
0
0
0
0
0
0
0
0
0
0
0
-0.005430656131
-2.640565848e-05
1.349352663e-10
-1.288626774e-10
-1.808233788e-10
-2.715934733e-10
-4.459494348e-10
-8.257214921e-10
-1.612811827e-09
-3.167049137e-09
-6.061908632e-09
-1.09870661e-08
-1.816650353e-08
-2.558561118e-08
-2.447985663e-08
-2.621907255e-09
1.080174115e-07
-0.0001041592548
41.34922237
0
0
0
0
0
0
0
0
0
0
0
391.1475364
-0.002065608438
4.496266058e-10
-2.774540948e-11
-2.075378379e-10
-3.91704337e-10
-6.404399132e-10
-1.072083263e-09
-1.839639987e-09
-3.172202699e-09
-5.323263358e-09
-8.346740113e-09
-1.138213223e-08
-1.128318743e-08
-5.38440228e-10
2.926467028e-08
4.292595128e-08
3.725291829e-08
-2.870360337e-07
17.2768163
10.02012392
0
0
0
0
0
0
0
-0.006133422172
18.12055558
-4.555923286e-05
-8.500694533e-11
6.690954491e-10
4.6719427e-11
-2.215200618e-10
-4.665302118e-10
-7.638472525e-10
-1.22478703e-09
-1.984851386e-09
-3.216699736e-09
-5.115013708e-09
-7.754278522e-09
-1.081259449e-08
-1.314207511e-08
-1.252939281e-08
-6.35808797e-09
1.836242722e-08
9.310252108e-08
3.913554059e-07
-4.308342571e-05
-2.536525925e-05
435.2302211
128.5608766
122.6369614
62.44464494
113.9959277
102.5664572
357.0164545
-1.901444039e-07
-1.539654022e-07
-2.25218302e-08
8.220285045e-08
7.560177098e-10
7.89749991e-11
-2.227233353e-10
-4.918637291e-10
-8.070534117e-10
-1.282553354e-09
-2.049495368e-09
-3.280475678e-09
-5.187820562e-09
-7.974337786e-09
-1.177442437e-08
-1.66766864e-08
-2.304814611e-08
-3.165524508e-08
-3.531652108e-08
-1.420503827e-08
4.530865243e-08
1.665221375e-07
6.532969118e-07
-0.002192599829
-0.0006481286377
-0.0006184153561
-0.0003150798948
-0.000575085263
-0.0005175344094
-0.001799387922
-1.938552183e-07
-2.098763136e-07
-3.270869259e-07
-1.7882918e-07
6.976338009e-10
6.449157635e-11
-2.110466908e-10
-4.652960829e-10
-7.65725231e-10
-1.23748152e-09
-2.010616123e-09
-3.275939158e-09
-5.219617313e-09
-7.937753631e-09
-1.110933649e-08
-1.36439816e-08
-1.334793361e-08
-7.530969772e-09
1.679825269e-08
8.892433281e-08
3.886963918e-07
-4.253005349e-05
-2.471093756e-05
435.1811727
128.5486931
122.6854901
62.54606192
114.1376788
102.736998
357.160159
-2.119863029e-07
-1.728295772e-07
8.67342895e-09
7.425830157e-08
5.105750443e-10
1.493803411e-11
-1.88610887e-10
-3.840649105e-10
-6.465465208e-10
-1.090380083e-09
-1.892586401e-09
-3.283253869e-09
-5.544729044e-09
-8.728371987e-09
-1.203303975e-08
-1.234298994e-08
-2.210146498e-09
2.661390165e-08
3.701505201e-08
2.973283812e-08
-2.940855028e-07
17.05672269
9.759568854
0
0
0
0
0
0
0
-0.006121988256
18.3328613
-4.610300241e-05
-8.18533442e-11
)
;

boundaryField
{
    lowerWall
    {
        type            calculated;
        value           nonuniform 0();
    }
    atmosphere
    {
        type            calculated;
        value           nonuniform List<scalar> 
20
(
1.84317029e-09
2.129227238e-09
2.162137425e-09
1.974063771e-09
1.603906327e-09
1.108990402e-09
5.586629594e-10
2.966067776e-11
-4.078628971e-10
-6.98235363e-10
-8.1167304e-10
-7.461647406e-10
-5.301941823e-10
-2.142985716e-10
1.349352663e-10
4.496266058e-10
6.690954491e-10
7.560177098e-10
6.976338009e-10
5.105750443e-10
)
;
    }
    rightWall
    {
        type            empty;
    }
    leftWall
    {
        type            empty;
    }
    frontAndBack
    {
        type            calculated;
        value           nonuniform 0();
    }
    procBoundary2to0
    {
        type            processor;
        value           nonuniform List<scalar> 
30
(
1.254592933e-09
3.864970067e-10
3.117002174e-11
-1.861387584e-10
-3.990865212e-10
-7.361468716e-10
-1.37614454e-09
-2.581243882e-09
-4.732639566e-09
-8.165267271e-09
-1.255710315e-08
-1.51070804e-08
-5.99730336e-09
2.839230691e-08
1.603727425e-07
-0.0001164385952
46.23581439
0
0
0
0
0
0
0
0
0
0
0
393.7128196
-0.002066295491
)
;
    }
    procBoundary2to3
    {
        type            processor;
        value           nonuniform List<scalar> 
20
(
-9.828763159e-05
-0.008773702983
-0.007212221876
-0.008774500233
-8.647299967e-05
427.410757
9.95338304
0
0
0
0
0
0
10.46709155
428.2645126
-3.379468263e-05
-0.008695011692
-0.007138562331
-0.008690896168
-2.985053753e-05
)
;
    }
    procBoundary2to4
    {
        type            processor;
        value           nonuniform List<scalar> 
30
(
2.445932892e-10
-5.964726154e-11
-1.466285652e-10
-2.615202089e-10
-4.500040149e-10
-8.513274453e-10
-1.681248473e-09
-3.335061566e-09
-6.404096086e-09
-1.162338362e-08
-1.927060812e-08
-2.746948457e-08
-2.758741895e-08
-7.383135745e-09
9.998600402e-08
-0.0001032806809
40.9977723
0
0
0
0
0
0
0
0
0
0
0
391.0692514
-0.002065449672
)
;
    }
}


// ************************************************************************* //
