/*--------------------------------*- C++ -*----------------------------------*\
  =========                 |
  \\      /  F ield         | OpenFOAM: The Open Source CFD Toolbox
   \\    /   O peration     | Website:  https://openfoam.org
    \\  /    A nd           | Version:  6
     \\/     M anipulation  |
\*---------------------------------------------------------------------------*/
FoamFile
{
    version     2.0;
    format      ascii;
    class       volVectorField;
    location    "0.0012";
    object      U;
}
// * * * * * * * * * * * * * * * * * * * * * * * * * * * * * * * * * * * * * //

dimensions      [0 1 -1 0 0 0 0];

internalField   nonuniform List<vector> 
600
(
(0 -3.682771318e-11 -9.291153469e-12)
(0 -3.831178977e-11 -1.229077439e-11)
(0 -4.143622597e-11 -1.730298035e-11)
(0 -4.64685929e-11 -2.382583049e-11)
(0 -5.389145583e-11 -3.17768702e-11)
(0 -6.44265589e-11 -4.14157462e-11)
(0 -7.91446169e-11 -5.329833263e-11)
(0 -9.958443758e-11 -6.823036527e-11)
(0 -1.278437785e-10 -8.715037777e-11)
(0 -1.664880374e-10 -1.10797794e-10)
(0 -2.178636783e-10 -1.38976113e-10)
(0 -2.818591429e-10 -1.69264562e-10)
(0 -3.502785634e-10 -1.955060575e-10)
(0 -3.950087358e-10 -2.076410601e-10)
(0 -3.549976e-10 -1.974075959e-10)
(0 -1.116560676e-10 -1.506638482e-10)
(0 1.401344648e-11 -1.25059427e-11)
(0 2.374488489e-11 -1.558672384e-12)
(0 1.940698725e-11 2.207816995e-12)
(0 1.323728136e-11 1.647851632e-11)
(0 4.684128981e-12 1.323690253e-11)
(0 7.594740574e-13 1.133884152e-11)
(0 -1.489480763e-12 9.281034122e-12)
(0 -3.747860377e-12 9.103408614e-12)
(0 -7.39542201e-12 7.984685201e-12)
(0 -1.410323583e-11 6.431316445e-12)
(0 -1.368449564e-11 -1.510404687e-11)
(0 -3.092975449e-12 -2.47501756e-11)
(0 -1.773443139e-11 -8.425506206e-12)
(0 -1.883164618e-11 5.715708208e-11)
(0 -4.237312658e-11 -7.10766267e-12)
(0 -4.401676126e-11 -9.264661961e-12)
(0 -4.748337927e-11 -1.279780108e-11)
(0 -5.309386604e-11 -1.724127781e-11)
(0 -6.14261115e-11 -2.240081686e-11)
(0 -7.334498682e-11 -2.829697036e-11)
(0 -9.01302513e-11 -3.512401108e-11)
(0 -1.13610985e-10 -4.321828593e-11)
(0 -1.462701083e-10 -5.300541509e-11)
(0 -1.911959877e-10 -6.4886972e-11)
(0 -2.516208509e-10 -7.905563786e-11)
(0 -3.296478546e-10 -9.540575622e-11)
(0 -4.238937852e-10 -1.142027831e-10)
(0 -5.267591548e-10 -1.390035276e-10)
(0 -6.255254965e-10 -1.8326759e-10)
(0 -7.036115442e-10 -2.686932338e-10)
(0 -7.819109933e-10 -3.978106967e-10)
(0 5.684077826e-24 1.360388745e-12)
(0 1.616182597e-11 1.130502017e-12)
(0 1.626631603e-11 3.86485929e-11)
(0 -1.986124529e-13 1.608392921e-11)
(0 -2.055836885e-12 1.427588117e-11)
(0 -2.602969633e-12 9.143388089e-12)
(0 -3.701501683e-12 1.25985937e-11)
(0 -7.198960473e-12 1.163644301e-11)
(0 -2.553121302e-11 2.782713114e-11)
(0 -2.118351898e-11 -1.003739276e-11)
(0 -5.165705756e-24 -1.518356464e-11)
(0 -1.545432199e-10 2.070312187e-10)
(0 1.474574412e-11 1.899683574e-11)
(0 -4.619196784e-11 -4.774240307e-12)
(0 -4.784921467e-11 -6.051822872e-12)
(0 -5.133617863e-11 -8.028006935e-12)
(0 -5.697901258e-11 -1.025735391e-11)
(0 -6.537603923e-11 -1.241033925e-11)
(0 -7.742677778e-11 -1.423082462e-11)
(0 -9.446863702e-11 -1.549607904e-11)
(0 -1.184241992e-10 -1.599090193e-11)
(0 -1.519339733e-10 -1.549852776e-11)
(0 -1.983906e-10 -1.381547568e-11)
(0 -2.61740875e-10 -1.079579521e-11)
(0 -3.460060282e-10 -6.435991724e-12)
(0 -4.550555615e-10 -9.963071701e-13)
(0 -5.947116031e-10 4.866467489e-12)
(0 -7.814571077e-10 1.010107365e-11)
(0 -1.05298769e-09 1.357447344e-11)
(0 -1.469624482e-09 1.455472887e-11)
(0 -1.651870134e-09 6.891480534e-12)
(0 -2.237558806e-09 1.263057697e-11)
(0 -3.693390115e-11 2.575937009e-13)
(0 -5.774416419e-11 3.670297443e-13)
(0 -2.630567852e-11 4.122374112e-13)
(0 -3.166768231e-12 4.167869917e-13)
(0 1.8869806e-11 3.889678668e-13)
(0 4.588869686e-11 3.282739313e-13)
(0 2.934753811e-11 2.200400865e-13)
(0 1.277902294e-09 3.164393942e-11)
(0 4.139963597e-10 8.876740668e-12)
(0 2.208567062e-10 9.296093803e-12)
(0 1.212140171e-11 3.322038077e-26)
(0 -4.829327494e-11 -2.529259318e-12)
(0 -4.981154743e-11 -2.971966896e-12)
(0 -5.29832983e-11 -3.467755079e-12)
(0 -5.809035134e-11 -3.586520328e-12)
(0 -6.567177633e-11 -2.864780308e-12)
(0 -7.654466072e-11 -7.731873986e-13)
(0 -9.193809967e-11 3.325290386e-12)
(0 -1.136393256e-10 1.019940188e-11)
(0 -1.441209207e-10 2.071797164e-11)
(0 -1.865309323e-10 3.57113642e-11)
(0 -2.442865998e-10 5.569963323e-11)
(0 -3.198601575e-10 8.062931793e-11)
(0 -4.12451783e-10 1.102635336e-10)
(0 -5.151344561e-10 1.467441998e-10)
(0 -6.15459887e-10 2.009829281e-10)
(0 -6.954219019e-10 2.916372981e-10)
(0 -7.73341503e-10 4.23049658e-10)
(0 5.953908043e-24 -1.094261235e-12)
(0 1.641941967e-11 -6.759658676e-13)
(0 1.663334577e-11 -3.798805138e-11)
(0 -4.396874261e-14 -1.528593058e-11)
(0 -2.006079638e-12 -1.341101286e-11)
(0 -2.626239177e-12 -8.27590902e-12)
(0 -3.790014743e-12 -1.178629411e-11)
(0 -7.367888254e-12 -1.093018643e-11)
(0 -2.585948695e-11 -2.72741135e-11)
(0 -2.140355906e-11 1.039704171e-11)
(0 -5.432546948e-24 1.538583412e-11)
(0 -1.504208682e-10 -1.982401198e-10)
(0 1.474708404e-11 -1.896345568e-11)
(0 -4.884416558e-11 -5.861007515e-13)
(0 -5.008774303e-11 -3.209031946e-13)
(0 -5.264533806e-11 4.332349993e-13)
(0 -5.670885359e-11 2.086199339e-12)
(0 -6.268312843e-11 5.208036275e-12)
(0 -7.119091975e-11 1.055461451e-11)
(0 -8.319477304e-11 1.911390561e-11)
(0 -1.001392916e-10 3.212705938e-11)
(0 -1.24087254e-10 5.100221203e-11)
(0 -1.577070838e-10 7.697265494e-11)
(0 -2.037022394e-10 1.102855084e-10)
(0 -2.627158485e-10 1.487413419e-10)
(0 -3.278363574e-10 1.858455349e-10)
(0 -3.727766407e-10 2.100752087e-10)
(0 -3.385179435e-10 2.095435555e-10)
(0 -1.055491588e-10 1.632913542e-10)
(0 1.427957399e-11 1.2796338e-11)
(0 2.419942104e-11 2.16957532e-12)
(0 1.980140127e-11 -1.315524978e-12)
(0 1.358074384e-11 -1.5604192e-11)
(0 4.888455764e-12 -1.230476737e-11)
(0 8.289545009e-13 -1.037001077e-11)
(0 -1.542049484e-12 -8.322009668e-12)
(0 -3.909082873e-12 -8.203454227e-12)
(0 -7.654703969e-12 -7.180326078e-12)
(0 -1.444984345e-11 -5.728704259e-12)
(0 -1.403524379e-11 1.578638457e-11)
(0 -3.452624393e-12 2.519984644e-11)
(0 -1.790332082e-11 8.666043736e-12)
(0 -1.881812268e-11 -5.70348484e-11)
(0 -4.815516555e-11 8.882782481e-13)
(0 -4.902593477e-11 1.666343748e-12)
(0 -5.075297421e-11 3.312334304e-12)
(0 -5.340316141e-11 6.201968416e-12)
(0 -5.718681939e-11 1.09589738e-11)
(0 -6.243791444e-11 1.847737505e-11)
(0 -6.971209235e-11 2.997463893e-11)
(0 -7.992381031e-11 4.702086247e-11)
(0 -9.454068056e-11 7.143236746e-11)
(0 -1.157952221e-10 1.048034588e-10)
(0 -1.467121223e-10 1.472570065e-10)
(0 -1.902774639e-10 1.947249792e-10)
(0 -2.458895592e-10 2.33974682e-10)
(0 -2.967793977e-10 2.356757682e-10)
(0 -2.906854784e-10 1.615569858e-10)
(0 -2.577497233e-12 2.746697198e-24)
(0 2.169575351e-12 1.82671246e-11)
(0 1.076352398e-11 5.257144402e-12)
(0 1.182584675e-11 -1.073903273e-12)
(0 9.322746084e-12 -7.128588318e-12)
(0 5.190212492e-12 -7.958707447e-12)
(0 1.976678065e-12 -7.442215665e-12)
(0 -4.596826335e-13 -6.439303947e-12)
(0 -2.648331154e-12 -5.524282335e-12)
(0 -4.893138287e-12 -3.860543244e-12)
(0 -6.571419012e-12 -5.670127933e-13)
(0 -3.655202759e-12 7.301712391e-12)
(0 8.253494952e-12 1.120164453e-11)
(0 3.264068887e-11 1.377143196e-12)
(0 -2.207855903e-12 -2.533517425e-11)
(0 -4.66409239e-11 1.794097751e-12)
(0 -4.709425509e-11 2.84815537e-12)
(0 -4.789269948e-11 4.948947888e-12)
(0 -4.89608528e-11 8.416278216e-12)
(0 -5.02812857e-11 1.385383466e-11)
(0 -5.18395336e-11 2.216676603e-11)
(0 -5.367600722e-11 3.461652615e-11)
(0 -5.597705994e-11 5.286231276e-11)
(0 -5.925885643e-11 7.888859562e-11)
(0 -6.472842658e-11 1.146241672e-10)
(0 -7.501813836e-11 1.609086271e-10)
(0 -9.576293541e-11 2.152228523e-10)
(0 -1.393597873e-10 2.672628464e-10)
(0 -2.250740441e-10 2.897858792e-10)
(0 -4.06021845e-10 2.473137924e-10)
(0 -6.60826235e-12 -9.705639303e-12)
(0 -5.338668519e-12 3.062361254e-12)
(0 4.858393215e-12 1.666012462e-12)
(0 7.415668558e-12 -1.108066744e-12)
(0 6.695939667e-12 -3.876805137e-12)
(0 4.574828416e-12 -4.959077607e-12)
(0 2.348358e-12 -5.000801432e-12)
(0 3.758838464e-13 -4.468678767e-12)
(0 -1.330322172e-12 -3.5949752e-12)
(0 -2.697434428e-12 -2.171031588e-12)
(0 -3.287587819e-12 1.980894812e-14)
(0 -2.266586466e-12 2.786405176e-12)
(0 -9.477751184e-13 2.500238175e-12)
(0 -9.440140885e-12 -5.805134132e-12)
(0 -9.722477146e-12 1.698615041e-11)
(0 -4.476294836e-11 2.112284166e-12)
(0 -4.481532638e-11 3.197978584e-12)
(0 -4.472395998e-11 5.301987783e-12)
(0 -4.427842323e-11 8.663699625e-12)
(0 -4.324231426e-11 1.378477129e-11)
(0 -4.126045295e-11 2.143463266e-11)
(0 -3.78516663e-11 3.268484145e-11)
(0 -3.240739124e-11 4.892214455e-11)
(0 -2.42089347e-11 7.174198957e-11)
(0 -1.243426543e-11 1.025418686e-10)
(0 3.945459431e-12 1.415116582e-10)
(0 2.659599685e-11 1.854301999e-10)
(0 5.685139082e-11 2.22279524e-10)
(0 1.091225836e-10 2.095917595e-10)
(0 1.516974803e-11 8.460564723e-25)
(0 2.060947547e-11 -9.682582081e-12)
(0 8.790451238e-12 -2.729073524e-12)
(0 6.593095982e-12 -5.474387927e-13)
(0 6.283029148e-12 -1.146935824e-12)
(0 5.47173522e-12 -2.311137975e-12)
(0 4.066216197e-12 -3.000122414e-12)
(0 2.467076905e-12 -3.133510115e-12)
(0 9.461435985e-13 -2.839897961e-12)
(0 -3.50683975e-13 -2.21630607e-12)
(0 -1.278354139e-12 -1.248984115e-12)
(0 -1.613982247e-12 3.055163058e-14)
(0 -1.174773531e-12 1.324194959e-12)
(0 -3.380443545e-13 1.817520368e-12)
(0 6.416018739e-13 2.400741414e-12)
(0 4.3842164e-12 5.328072363e-12)
(0 -4.296296667e-11 1.906286388e-12)
(0 -4.268913814e-11 2.808145938e-12)
(0 -4.187748727e-11 4.518640703e-12)
(0 -4.021523771e-11 7.177710343e-12)
(0 -3.730250746e-11 1.111737923e-11)
(0 -3.253794295e-11 1.685105978e-11)
(0 -2.508563281e-11 2.50727444e-11)
(0 -1.385510731e-11 3.661158716e-11)
(0 2.4774069e-12 5.222648208e-11)
(0 2.542506768e-11 7.201142168e-11)
(0 5.678151108e-11 9.402471748e-11)
(0 9.941891271e-11 1.117209643e-10)
(0 1.568231057e-10 1.106110232e-10)
(0 2.567371733e-10 7.266112646e-11)
(0 1.04420294e-11 -2.870172499e-24)
(0 1.553805145e-11 5.3911982e-12)
(0 8.547250609e-12 1.002408386e-12)
(0 6.440530916e-12 2.043800615e-14)
(0 5.651969375e-12 -6.209809199e-13)
(0 4.842753076e-12 -1.220712304e-12)
(0 3.752456276e-12 -1.59706812e-12)
(0 2.508582454e-12 -1.693650496e-12)
(0 1.293087891e-12 -1.541429895e-12)
(0 2.605916745e-13 -1.181717994e-12)
(0 -4.505767268e-13 -6.391115891e-13)
(0 -7.144087438e-13 2.752567504e-14)
(0 -4.796177285e-13 6.622749454e-13)
(0 1.287713372e-13 1.044794035e-12)
(0 1.014827876e-12 1.318009617e-12)
(0 2.306061122e-12 1.38497345e-12)
(0 -4.159968967e-11 1.310336234e-12)
(0 -4.111874801e-11 1.872903968e-12)
(0 -3.985506197e-11 2.906965254e-12)
(0 -3.744214942e-11 4.445660021e-12)
(0 -3.339808806e-11 6.61548004e-12)
(0 -2.700863896e-11 9.616923895e-12)
(0 -1.730729559e-11 1.370670259e-11)
(0 -3.126643009e-12 1.915046569e-11)
(0 1.664039991e-11 2.607919984e-11)
(0 4.230082418e-11 3.41131846e-11)
(0 7.163325996e-11 4.151923188e-11)
(0 9.62922121e-11 4.371346613e-11)
(0 9.610510044e-11 3.197284365e-11)
(0 2.871333459e-11 4.051370805e-12)
(0 -4.3144411e-12 -1.595588714e-24)
(0 -3.26350347e-12 5.369899483e-12)
(0 3.419691044e-12 1.327186508e-12)
(0 4.969706677e-12 2.477687026e-13)
(0 5.041878837e-12 -1.367128757e-13)
(0 4.49564802e-12 -3.538737734e-13)
(0 3.593278005e-12 -4.742135094e-13)
(0 2.52271513e-12 -5.030961817e-13)
(0 1.458076101e-12 -4.506947842e-13)
(0 5.516343305e-13 -3.298715142e-13)
(0 -6.911047076e-14 -1.528287545e-13)
(0 -3.125957126e-13 5.704474479e-14)
(0 -1.575051712e-13 2.5303394e-13)
(0 3.176903165e-13 3.811914359e-13)
(0 9.817812889e-13 4.415215114e-13)
(0 1.615075435e-12 3.449885059e-13)
(0 -4.090034167e-11 5.060763592e-13)
(0 -4.035505243e-11 6.53929975e-13)
(0 -3.895879132e-11 8.789384565e-13)
(0 -3.634445979e-11 1.11139335e-12)
(0 -3.203055451e-11 1.266287759e-12)
(0 -2.530471202e-11 1.222798847e-12)
(0 -1.520411175e-11 8.080025126e-13)
(0 -5.698622783e-13 -1.988760735e-13)
(0 1.968447714e-11 -1.998446043e-12)
(0 4.581872079e-11 -4.536544859e-12)
(0 7.551607951e-11 -6.901620478e-12)
(0 1.002567225e-10 -6.167066239e-12)
(0 9.960583689e-11 3.550008249e-12)
(0 3.093939093e-11 2.040463486e-11)
(0 -4.312682596e-12 1.607071223e-24)
(0 -3.259373524e-12 -5.363480575e-12)
(0 3.425119829e-12 -1.31151815e-12)
(0 4.976631533e-12 -2.199744938e-13)
(0 5.050326899e-12 1.800252108e-13)
(0 4.505252442e-12 4.159734141e-13)
(0 3.603233868e-12 5.56862024e-13)
(0 2.532101179e-12 6.059570669e-13)
(0 1.466312559e-12 5.717452054e-13)
(0 5.584577041e-13 4.662134867e-13)
(0 -6.366046793e-14 3.014619565e-13)
(0 -3.085460493e-13 1.010987608e-13)
(0 -1.554710375e-13 -8.850257081e-14)
(0 3.172589085e-13 -2.147009882e-13)
(0 9.786249457e-13 -2.788270373e-13)
(0 1.609470316e-12 -1.917474864e-13)
(0 -4.093548776e-11 -3.076457955e-13)
(0 -4.04691112e-11 -5.631575104e-13)
(0 -3.926042551e-11 -1.117861076e-12)
(0 -3.699408594e-11 -2.131067557e-12)
(0 -3.327053396e-11 -3.881486427e-12)
(0 -2.749254996e-11 -6.793270252e-12)
(0 -1.883309312e-11 -1.146610535e-11)
(0 -6.223332768e-12 -1.866938077e-11)
(0 1.160612925e-11 -2.920723298e-11)
(0 3.604303869e-11 -4.345763636e-11)
(0 6.862064534e-11 -6.02331428e-11)
(0 1.117290383e-10 -7.456012966e-11)
(0 1.680488641e-10 -7.476503408e-11)
(0 2.643183078e-10 -4.729986818e-11)
(0 1.04466898e-11 2.883712548e-24)
(0 1.554958986e-11 -5.387835745e-12)
(0 8.563197126e-12 -9.904413659e-13)
(0 6.461250038e-12 3.541708445e-15)
(0 5.677826745e-12 6.609246005e-13)
(0 4.872484833e-12 1.280728781e-12)
(0 3.783261658e-12 1.679696997e-12)
(0 2.537598311e-12 1.798611409e-12)
(0 1.318332521e-12 1.666075917e-12)
(0 2.813510817e-13 1.322310683e-12)
(0 -4.342251965e-13 7.917978848e-13)
(0 -7.0256024e-13 1.343105274e-13)
(0 -4.733049201e-13 -4.94102528e-13)
(0 1.273658501e-13 -8.746970146e-13)
(0 1.004734791e-12 -1.151083613e-12)
(0 2.288752799e-12 -1.228787263e-12)
(0 -4.161839747e-11 -9.468819145e-13)
(0 -4.135192113e-11 -1.51418783e-12)
(0 -4.060149815e-11 -2.668992094e-12)
(0 -3.915041441e-11 -4.63621601e-12)
(0 -3.675996723e-11 -7.841452608e-12)
(0 -3.307763103e-11 -1.294715062e-11)
(0 -2.763067209e-11 -2.091219741e-11)
(0 -1.9836026e-11 -3.303813371e-11)
(0 -9.044957335e-12 -5.092438592e-11)
(0 5.397816537e-12 -7.618059791e-11)
(0 2.417280793e-11 -1.096290406e-10)
(0 4.828824387e-11 -1.49439415e-10)
(0 7.789634454e-11 -1.862581396e-10)
(0 1.258903422e-10 -1.82439552e-10)
(0 1.517486899e-11 -8.204200272e-25)
(0 2.062557244e-11 9.677921678e-12)
(0 8.816497282e-12 2.733944975e-12)
(0 6.627997499e-12 5.63507725e-13)
(0 6.327513971e-12 1.178967941e-12)
(0 5.524024839e-12 2.366566575e-12)
(0 4.121116495e-12 3.083076617e-12)
(0 2.518480099e-12 3.243428773e-12)
(0 9.900118335e-13 2.972461618e-12)
(0 -3.158203278e-13 2.365455441e-12)
(0 -1.251660624e-12 1.40925389e-12)
(0 -1.594446462e-12 1.371689369e-13)
(0 -1.164478579e-12 -1.150154279e-12)
(0 -3.397221758e-13 -1.638804328e-12)
(0 6.24534697e-13 -2.22204825e-12)
(0 4.352354232e-12 -5.164232777e-12)
(0 -4.272958966e-11 -1.272253345e-12)
(0 -4.274127906e-11 -1.999223846e-12)
(0 -4.262393153e-11 -3.460440977e-12)
(0 -4.228940234e-11 -5.911890934e-12)
(0 -4.171191651e-11 -9.848996234e-12)
(0 -4.087348886e-11 -1.604640045e-11)
(0 -3.98163235e-11 -2.563023268e-11)
(0 -3.874690657e-11 -4.014456746e-11)
(0 -3.825088083e-11 -6.15290243e-11)
(0 -3.971135711e-11 -9.18366265e-11)
(0 -4.613729619e-11 -1.323755741e-10)
(0 -6.388845295e-11 -1.817146665e-10)
(0 -1.066702353e-10 -2.316124413e-10)
(0 -1.958834713e-10 -2.581191815e-10)
(0 -3.892336412e-10 -2.301455682e-10)
(0 -6.591852487e-12 9.700518343e-12)
(0 -5.301992667e-12 -3.065810328e-12)
(0 4.906273003e-12 -1.66256433e-12)
(0 7.480885595e-12 1.126194411e-12)
(0 6.77659351e-12 3.922692728e-12)
(0 4.660123857e-12 5.043207678e-12)
(0 2.426983312e-12 5.120741382e-12)
(0 4.403591879e-13 4.615457197e-12)
(0 -1.281856647e-12 3.757887629e-12)
(0 -2.662511701e-12 2.340529497e-12)
(0 -3.26196841e-12 1.545254226e-13)
(0 -2.249278185e-12 -2.604455245e-12)
(0 -9.445281209e-13 -2.306660949e-12)
(0 -9.465110424e-12 6.011303868e-12)
(0 -9.776311676e-12 -1.680769516e-11)
(0 -4.396335431e-11 -1.211242056e-12)
(0 -4.427581175e-11 -1.915636249e-12)
(0 -4.484012142e-11 -3.333636994e-12)
(0 -4.570079505e-11 -5.713880235e-12)
(0 -4.705005917e-11 -9.532024591e-12)
(0 -4.92075264e-11 -1.552441602e-11)
(0 -5.271866244e-11 -2.474929508e-11)
(0 -5.850613978e-11 -3.863152605e-11)
(0 -6.809647937e-11 -5.889371367e-11)
(0 -8.388908437e-11 -8.716428223e-11)
(0 -1.092781142e-10 -1.238651904e-10)
(0 -1.479783345e-10 -1.657051277e-10)
(0 -2.00760686e-10 -2.009902123e-10)
(0 -2.534057187e-10 -2.030024133e-10)
(0 -2.574449254e-10 -1.377312918e-10)
(0 -2.564849341e-12 -2.718000069e-24)
(0 2.204190487e-12 -1.828353446e-11)
(0 1.082000223e-11 -5.271552256e-12)
(0 1.191277103e-11 1.064156142e-12)
(0 9.441038107e-12 7.15491557e-12)
(0 5.319165149e-12 8.045730749e-12)
(0 2.090729618e-12 7.581073663e-12)
(0 -3.728419198e-13 6.610442306e-12)
(0 -2.590748028e-12 5.707648673e-12)
(0 -4.85502283e-12 4.043125535e-12)
(0 -6.539431205e-12 7.453238553e-13)
(0 -3.625664952e-12 -7.113920915e-12)
(0 8.276036936e-12 -1.099556479e-11)
(0 3.260849972e-11 -1.1038469e-12)
(0 -2.301589449e-12 2.553406386e-11)
(0 -4.498910291e-11 -7.683390332e-13)
(0 -4.556714358e-11 -1.27320586e-12)
(0 -4.673149952e-11 -2.310388665e-12)
(0 -4.863849042e-11 -4.087782178e-12)
(0 -5.166118902e-11 -6.98176128e-12)
(0 -5.639266605e-11 -1.156169666e-11)
(0 -6.376892431e-11 -1.86325384e-11)
(0 -7.522694689e-11 -2.926204959e-11)
(0 -9.287340776e-11 -4.471889084e-11)
(0 -1.195257267e-10 -6.618809186e-11)
(0 -1.582218844e-10 -9.406255399e-11)
(0 -2.102470715e-10 -1.266445548e-10)
(0 -2.698172193e-10 -1.585068759e-10)
(0 -3.12519042e-10 -1.799464066e-10)
(0 -2.818855577e-10 -1.816965072e-10)
(0 -6.127719379e-11 -1.468117246e-10)
(0 1.430184198e-11 -1.280898589e-11)
(0 2.425396356e-11 -2.204190456e-12)
(0 1.990735342e-11 1.246398829e-12)
(0 1.375816812e-11 1.558571647e-11)
(0 5.086281949e-12 1.240259469e-11)
(0 9.916948692e-13 1.054649418e-11)
(0 -1.433065802e-12 8.535908756e-12)
(0 -3.849173416e-12 8.422215055e-12)
(0 -7.624836517e-12 7.381119483e-12)
(0 -1.441901486e-11 5.896823262e-12)
(0 -1.399016683e-11 -1.560322819e-11)
(0 -3.363872575e-12 -2.503063546e-11)
(0 -1.79354805e-11 -8.505429344e-12)
(0 -1.900304011e-11 5.723624852e-11)
(0 -4.551471886e-11 -2.089996421e-14)
(0 -4.627437874e-11 -1.87446465e-13)
(0 -4.784797324e-11 -5.808644629e-13)
(0 -5.046470635e-11 -1.344904826e-12)
(0 -5.461399937e-11 -2.700652358e-12)
(0 -6.106292429e-11 -4.961575212e-12)
(0 -7.09934359e-11 -8.55882956e-12)
(0 -8.616737086e-11 -1.405999972e-11)
(0 -1.090902235e-10 -2.215034224e-11)
(0 -1.430577177e-10 -3.353510071e-11)
(0 -1.918315359e-10 -4.874709837e-11)
(0 -2.585437371e-10 -6.801382134e-11)
(0 -3.435319214e-10 -9.181576666e-11)
(0 -4.416959108e-10 -1.235851245e-10)
(0 -5.432553032e-10 -1.759149641e-10)
(0 -6.337781899e-10 -2.686050329e-10)
(0 -7.342095795e-10 -4.021034847e-10)
(0 6.039036736e-24 1.071993237e-12)
(0 1.652248356e-11 6.214233474e-13)
(0 1.691859126e-11 3.785983123e-11)
(0 2.799428572e-13 1.543351737e-11)
(0 -1.775956318e-12 1.366662025e-11)
(0 -2.497121043e-12 8.565500723e-12)
(0 -3.7455373e-12 1.206666943e-11)
(0 -7.380414622e-12 1.115739258e-11)
(0 -2.584513617e-11 2.738341308e-11)
(0 -2.137292928e-11 -1.030828989e-11)
(0 -5.377211589e-24 -1.532161151e-11)
(0 -1.743649504e-10 2.032493861e-10)
(0 1.461348963e-11 1.905983797e-11)
(0 -4.534039587e-11 8.982496239e-13)
(0 -4.616592823e-11 1.14580925e-12)
(0 -4.788732573e-11 1.53843295e-12)
(0 -5.075707597e-11 2.007525607e-12)
(0 -5.530095939e-11 2.515152486e-12)
(0 -6.234164396e-11 3.048900221e-12)
(0 -7.314232745e-11 3.613632086e-12)
(0 -8.957893601e-11 4.224918986e-12)
(0 -1.143182943e-10 4.898446518e-12)
(0 -1.509217933e-10 5.639910344e-12)
(0 -2.037459457e-10 6.427427278e-12)
(0 -2.775923304e-10 7.1895146e-12)
(0 -3.776239713e-10 7.771512363e-12)
(0 -5.115321849e-10 7.906194668e-12)
(0 -6.979800811e-10 7.190190099e-12)
(0 -9.761539211e-10 5.036911416e-12)
(0 -1.404347904e-09 1.023694654e-12)
(0 -1.603785499e-09 -2.416159983e-12)
(0 -2.198027953e-09 1.703477237e-12)
(0 -3.655434757e-11 3.041753343e-15)
(0 -5.716251047e-11 7.555932495e-16)
(0 -2.600093323e-11 -3.009628926e-15)
(0 -3.033016622e-12 -6.28963075e-15)
(0 1.88673299e-11 -8.791052211e-15)
(0 4.574748857e-11 -1.05765208e-14)
(0 2.923991238e-11 -8.911866178e-15)
(0 1.26554546e-09 1.442710477e-11)
(0 3.982097936e-10 2.317215648e-11)
(0 2.000109912e-10 -6.183686666e-12)
(0 1.199760395e-11 6.277565596e-27)
(0 -4.439360779e-11 1.827643429e-12)
(0 -4.515955633e-11 2.48904748e-12)
(0 -4.674533926e-11 3.665901664e-12)
(0 -4.937354778e-11 5.36165741e-12)
(0 -5.352089808e-11 7.720203667e-12)
(0 -5.993966014e-11 1.102788221e-11)
(0 -6.979798352e-11 1.572606327e-11)
(0 -8.484858808e-11 2.241336602e-11)
(0 -1.075944101e-10 3.180896843e-11)
(0 -1.413356827e-10 4.462847183e-11)
(0 -1.898455749e-10 6.135781783e-11)
(0 -2.562739707e-10 8.206689953e-11)
(0 -3.409709626e-10 1.069089845e-10)
(0 -4.388146307e-10 1.387714685e-10)
(0 -5.399897716e-10 1.894731293e-10)
(0 -6.299202865e-10 2.777253942e-10)
(0 -7.290896994e-10 4.022368997e-10)
(0 6.036301996e-24 -1.058344078e-12)
(0 1.652552531e-11 -6.052643655e-13)
(0 1.691934686e-11 -3.784814312e-11)
(0 2.738914749e-13 -1.543037186e-11)
(0 -1.783001542e-12 -1.367339703e-11)
(0 -2.502902466e-12 -8.580923806e-12)
(0 -3.74982419e-12 -1.208698103e-11)
(0 -7.380535436e-12 -1.118097324e-11)
(0 -2.583455965e-11 -2.740751114e-11)
(0 -2.136401741e-11 1.028907319e-11)
(0 -5.387836043e-24 1.530844532e-11)
(0 -1.588937608e-10 -2.020913746e-10)
(0 1.460657277e-11 -1.90726976e-11)
(0 -4.274032687e-11 2.608713792e-12)
(0 -4.333482414e-11 3.609187605e-12)
(0 -4.453165304e-11 5.425138857e-12)
(0 -4.647352434e-11 8.116951371e-12)
(0 -4.950726814e-11 1.197687173e-11)
(0 -5.419457932e-11 1.754241516e-11)
(0 -6.144154966e-11 2.562702859e-11)
(0 -7.2664517e-11 3.733233585e-11)
(0 -8.996555799e-11 5.396640487e-11)
(0 -1.161773343e-10 7.672914319e-11)
(0 -1.543791101e-10 1.059584299e-10)
(0 -2.059227823e-10 1.39765783e-10)
(0 -2.650837806e-10 1.723210789e-10)
(0 -3.074030073e-10 1.932742814e-10)
(0 -2.760479201e-10 1.925859123e-10)
(0 -5.254400559e-11 1.529376493e-10)
(0 1.431549114e-11 1.283078115e-11)
(0 2.427012254e-11 2.24114827e-12)
(0 1.990539237e-11 -1.208935717e-12)
(0 1.374515464e-11 -1.556215857e-11)
(0 5.067817057e-12 -1.239534403e-11)
(0 9.731262823e-13 -1.05551742e-11)
(0 -1.446600627e-12 -8.55753208e-12)
(0 -3.857331e-12 -8.451247971e-12)
(0 -7.628622973e-12 -7.411678765e-12)
(0 -1.441465089e-11 -5.929092307e-12)
(0 -1.397923496e-11 1.556549891e-11)
(0 -3.344655877e-12 2.49976324e-11)
(0 -1.793517393e-11 8.476072208e-12)
(0 -1.902252856e-11 -5.727046179e-11)
)
;

boundaryField
{
    lowerWall
    {
        type            slip;
    }
    atmosphere
    {
        type            pressureInletOutletVelocity;
        tangentialVelocity uniform (0 0 0);
        value           nonuniform List<vector> 
20
(
(0 -3.682771318e-11 -9.291153469e-12)
(0 -4.237312658e-11 -7.10766267e-12)
(0 -4.619196784e-11 -4.774240307e-12)
(0 -4.829327494e-11 -2.529259318e-12)
(0 -4.884416558e-11 -5.861007515e-13)
(0 -4.815516555e-11 8.882782481e-13)
(0 -4.66409239e-11 1.794097751e-12)
(0 -4.476294836e-11 2.112284166e-12)
(0 -4.296296667e-11 1.906286388e-12)
(0 -4.159968967e-11 1.310336234e-12)
(0 -4.090034167e-11 5.060763592e-13)
(0 -4.093548776e-11 -3.076457955e-13)
(0 -4.161839747e-11 -9.468819145e-13)
(0 -4.272958966e-11 -1.272253345e-12)
(0 -4.396335431e-11 -1.211242056e-12)
(0 -4.498910291e-11 -7.683390332e-13)
(0 -4.551471886e-11 -2.089996421e-14)
(0 -4.534039587e-11 8.982496239e-13)
(0 -4.439360779e-11 1.827643429e-12)
(0 -4.274032687e-11 2.608713792e-12)
)
;
    }
    rightWall
    {
        type            empty;
    }
    leftWall
    {
        type            empty;
    }
    frontAndBack
    {
        type            slip;
    }
    procBoundary2to0
    {
        type            processor;
        value           nonuniform List<vector> 
30
(
(0 -2.969080663e-11 -1.107349098e-11)
(0 -3.090184745e-11 -1.481808074e-11)
(0 -3.342641891e-11 -2.11041871e-11)
(0 -3.743624663e-11 -2.936703855e-11)
(0 -4.325786794e-11 -3.959034211e-11)
(0 -5.138170538e-11 -5.220102817e-11)
(0 -6.254116351e-11 -6.800933262e-11)
(0 -7.781625875e-11 -8.815481542e-11)
(0 -9.876110721e-11 -1.139480797e-10)
(0 -1.274975838e-10 -1.463868454e-10)
(0 -1.665634122e-10 -1.849481218e-10)
(0 -2.178539878e-10 -2.25018095e-10)
(0 -2.78854221e-10 -2.532548974e-10)
(0 -3.297809647e-10 -2.413084601e-10)
(0 -3.139339974e-10 -1.552459106e-10)
(0 -2.867892531e-12 -2.446716943e-24)
(0 1.558672415e-12 -1.771611011e-11)
(0 1.016162726e-11 -4.52800661e-12)
(0 1.130483166e-11 1.99171635e-12)
(0 8.915873196e-12 8.144573743e-12)
(0 4.941062349e-12 9.0467829e-12)
(0 1.900031524e-12 8.561915836e-12)
(0 -3.675367248e-13 7.537962346e-12)
(0 -2.405152762e-12 6.548350575e-12)
(0 -4.526868306e-12 4.766764228e-12)
(0 -6.121123652e-12 1.335453671e-12)
(0 -3.182221325e-12 -6.665519282e-12)
(0 8.695295116e-12 -1.072875818e-11)
(0 3.296812602e-11 -9.835131549e-13)
(0 -2.000313388e-12 2.548212332e-11)
)
;
    }
    procBoundary2to3
    {
        type            processor;
        value           nonuniform List<vector> 
20
(
(0 -3.217553757e-13 -2.34992539e-11)
(0 2.069164827e-11 -1.404695079e-11)
(0 1.899141236e-11 1.339918143e-15)
(0 2.06841813e-11 1.406047428e-11)
(0 -3.700873904e-13 2.3530909e-11)
(0 -3.45421417e-11 5.722013462e-12)
(0 -3.072793386e-12 -1.090825544e-11)
(0 4.186620311e-12 -5.695332122e-12)
(0 2.209887811e-12 -1.451131356e-12)
(0 1.56280407e-12 -2.55069297e-13)
(0 1.555730058e-12 3.948503282e-13)
(0 2.187878846e-12 1.591800312e-12)
(0 4.146596788e-12 5.83749908e-12)
(0 -3.137900023e-12 1.105255379e-11)
(0 -3.464517306e-11 -5.579800061e-12)
(0 -5.30466567e-13 -2.341015547e-11)
(0 2.045824937e-11 -1.399935462e-11)
(0 1.87702682e-11 -6.91685866e-15)
(0 2.044999427e-11 1.397986617e-11)
(0 -5.367744461e-13 2.338190868e-11)
)
;
    }
    procBoundary2to4
    {
        type            processor;
        value           nonuniform List<vector> 
30
(
(0 -4.056961992e-11 3.118275863e-12)
(0 -4.091672663e-11 4.322592208e-12)
(0 -4.155017636e-11 6.516139586e-12)
(0 -4.249370077e-11 9.787093068e-12)
(0 -4.389813187e-11 1.451373685e-11)
(0 -4.603190137e-11 2.139124081e-11)
(0 -4.938888094e-11 3.148131064e-11)
(0 -5.485351762e-11 4.624700826e-11)
(0 -6.394143808e-11 6.746283149e-11)
(0 -7.908467895e-11 9.679129813e-11)
(0 -1.037762138e-10 1.346087496e-10)
(0 -1.419226372e-10 1.774149745e-10)
(0 -1.945661542e-10 2.130371265e-10)
(0 -2.477422138e-10 2.139682492e-10)
(0 -2.531837986e-10 1.451677333e-10)
(0 -2.54305408e-12 3.012166731e-24)
(0 2.241148301e-12 1.833293399e-11)
(0 1.083567008e-11 5.329885171e-12)
(0 1.190241286e-11 -1.010065958e-12)
(0 9.411581253e-12 -7.118903761e-12)
(0 5.28087585e-12 -8.034605212e-12)
(0 2.054810405e-12 -7.594420887e-12)
(0 -3.989762394e-13 -6.641867818e-12)
(0 -2.603970875e-12 -5.748592355e-12)
(0 -4.858379773e-12 -4.084234735e-12)
(0 -6.53602468e-12 -7.820444718e-13)
(0 -3.617487102e-12 7.078119098e-12)
(0 8.284409078e-12 1.095704184e-11)
(0 3.260728952e-11 1.051627133e-12)
(0 -2.307395969e-12 -2.557737111e-11)
)
;
    }
}


// ************************************************************************* //
