/*--------------------------------*- C++ -*----------------------------------*\
  =========                 |
  \\      /  F ield         | OpenFOAM: The Open Source CFD Toolbox
   \\    /   O peration     | Website:  https://openfoam.org
    \\  /    A nd           | Version:  6
     \\/     M anipulation  |
\*---------------------------------------------------------------------------*/
FoamFile
{
    version     2.0;
    format      ascii;
    class       surfaceScalarField;
    location    "0.0047";
    object      phi;
}
// * * * * * * * * * * * * * * * * * * * * * * * * * * * * * * * * * * * * * //

dimensions      [0 3 -1 0 0 0 0];

internalField   nonuniform List<scalar> 
19000
(
3.369957789e-20
-8.210749299e-21
3.315570051e-20
-2.3740274e-20
3.197693788e-20
-3.82223391e-20
3.017228766e-20
-5.191325636e-20
2.776364265e-20
-6.509154951e-20
2.477329477e-20
-7.796052099e-20
2.1210628e-20
-9.065358054e-20
1.70758105e-20
-1.032538923e-19
1.235842217e-20
-1.158121042e-19
7.043239028e-21
-1.283572151e-19
1.108216807e-21
-1.409046002e-19
-5.470806594e-21
-1.534599102e-19
-1.272311253e-20
-1.660226054e-19
-2.067905234e-20
-1.785870615e-19
-2.937353846e-20
-1.911443652e-19
-3.884222329e-20
-2.03682265e-19
-4.912515857e-20
-2.161862401e-19
-6.026301607e-20
-2.28638951e-19
-7.230078685e-20
-2.410209343e-19
-8.528399148e-20
-2.533098167e-19
-9.926236158e-20
-2.654808379e-19
-1.142859592e-19
-2.7750589e-19
-1.304087476e-19
-2.893539269e-19
-1.476845679e-19
-3.009899065e-19
-1.661705799e-19
-3.12375092e-19
-1.859231272e-19
-3.23465961e-19
-2.070010013e-19
-3.342144846e-19
-2.294610465e-19
-3.445669633e-19
-2.533609792e-19
-3.544642483e-19
-2.787544861e-19
-3.638405238e-19
-3.05693507e-19
-3.726234651e-19
-3.342229394e-19
-3.80733132e-19
-3.643825649e-19
-3.880824025e-19
-3.962013985e-19
-3.945762308e-19
-4.296988941e-19
-4.001125625e-19
-4.64878258e-19
-4.04582089e-19
-5.017261048e-19
-4.078695831e-19
-5.402041792e-19
-4.098543219e-19
-5.802473818e-19
-4.104125013e-19
-6.217542556e-19
-4.094193824e-19
-6.645836717e-19
-4.067541795e-19
-7.085438453e-19
-4.023052591e-19
-7.533867616e-19
-3.959782615e-19
-7.987947579e-19
-3.877048207e-19
-8.443725262e-19
-3.774545324e-19
-8.896323934e-19
-3.652481577e-19
-9.339858814e-19
-3.511748383e-19
-9.767297505e-19
-3.354109322e-19
-1.017038802e-18
-3.182421578e-19
-1.053954494e-18
-3.00085657e-19
-1.086381024e-18
-2.815119447e-19
-1.113078223e-18
-2.632619184e-19
-1.132661005e-18
-2.462574915e-19
-1.143594594e-18
-2.316008318e-19
-1.144195703e-18
-2.205623372e-19
-1.132636248e-18
-2.145566249e-19
-1.106974969e-18
-2.151103325e-19
-1.065231371e-18
-2.238164646e-19
-1.005491514e-18
-2.422500345e-19
-9.258380518e-19
-2.717728896e-19
-8.233795348e-19
-3.131401219e-19
-6.911807648e-19
-3.66144931e-19
-5.133659168e-19
-4.30667771e-19
-2.711304823e-19
-5.1293468e-19
2.420716861e-20
-6.384641076e-19
1.04114628e-19
-8.260306769e-19
-1.39370836e-19
-8.425105419e-19
-6.937769886e-21
-3.330949532e-19
1.250725135e-21
6.937766047e-21
2.57256846e-21
3.538065328e-23
7.281071686e-21
-1.380450264e-20
2.303046942e-20
-3.196368065e-20
2.811186201e-20
-1.810716754e-20
2.655370843e-20
-6.487445658e-21
2.611623463e-20
-5.059523354e-21
2.751896723e-20
-5.397310297e-21
2.983257364e-20
-4.499425923e-21
3.215875608e-20
-1.822706981e-21
3.382467257e-20
2.499910993e-21
3.424581604e-20
8.216434078e-21
3.313700636e-20
1.462615694e-20
3.061155914e-20
2.082351055e-20
2.699912403e-20
2.617069117e-20
2.269951014e-20
3.033056668e-20
1.811233473e-20
3.318741464e-20
1.356985289e-20
3.483206163e-20
9.281902518e-21
3.551496559e-20
5.322021585e-21
3.555607852e-20
1.646698669e-21
3.525603205e-20
-1.866491546e-21
3.483734377e-20
-5.379867351e-21
3.441496001e-20
-9.055064373e-21
3.39861547e-20
-1.301332707e-20
3.34310927e-20
-1.72936648e-20
3.252452816e-20
-2.181833351e-20
3.096601792e-20
-2.637471426e-20
2.843946685e-20
-3.063146923e-20
2.470368199e-20
-3.419453915e-20
1.96828769e-20
-3.667773516e-20
1.351171171e-20
-3.777160768e-20
6.542477954e-21
-3.738595215e-20
-5.779301585e-22
-3.582898111e-20
-6.945029895e-21
-3.370492464e-20
-1.186273687e-20
-3.17038468e-20
-1.508594088e-20
-3.073738544e-20
-1.648501018e-20
-3.17473118e-20
-1.660015252e-20
-3.40270389e-20
-1.841268974e-20
-2.985562475e-20
-3.028938087e-20
-1.528603091e-20
-4.42223801e-20
-1.19604295e-20
-2.611183485e-20
-1.213181159e-20
-1.231899336e-20
-5.430470461e-21
-5.430474263e-21
-1.50362104e-19
-6.904344123e-20
-1.014429089e-18
2.874645272e-19
-1.254086119e-18
1.155132612e-18
-1.046242021e-18
2.074269242e-18
-6.644474334e-19
2.538224069e-18
-2.579488993e-19
2.407211445e-18
8.647790277e-21
1.578497232e-18
-1.42246678e-31
2.158191e-20
-9.223637107e-21
2.105171958e-20
-2.506582571e-20
1.975049193e-20
-3.903015968e-20
1.778799685e-20
-5.193806895e-20
1.523151506e-20
-6.428305284e-20
1.211849717e-20
-7.633760176e-20
8.460385502e-21
-8.825099837e-20
4.254219946e-21
-1.001044534e-19
-5.138141398e-22
-1.11942043e-19
-5.862401897e-21
-1.237853595e-19
-1.181566155e-20
-1.356432665e-19
-1.839961049e-20
-1.475155885e-19
-2.564415532e-20
-1.593970669e-19
-3.358031014e-20
-1.712778545e-19
-4.224263317e-20
-1.831456607e-19
-5.166663713e-20
-1.949851143e-19
-6.189133313e-20
-2.06779224e-19
-7.295665159e-20
-2.185082829e-19
-8.490600653e-20
-2.301510111e-19
-9.778368336e-20
-2.416832486e-19
-1.116373656e-19
-2.530789634e-19
-1.265154171e-19
-2.64308792e-19
-1.424692853e-19
-2.7534096e-19
-1.595506505e-19
-2.861397548e-19
-1.778137134e-19
-2.966663635e-19
-1.973122236e-19
-3.06877331e-19
-2.181015781e-19
-3.167253879e-19
-2.402355475e-19
-3.261578507e-19
-2.637679206e-19
-3.351174145e-19
-2.887487569e-19
-3.435405466e-19
-3.152255894e-19
-3.513582867e-19
-3.432394163e-19
-3.584948531e-19
-3.728256602e-19
-3.648687901e-19
-4.04009835e-19
-3.703920088e-19
-4.368077738e-19
-3.749714442e-19
-4.712202369e-19
-3.785086329e-19
-5.072317484e-19
-3.809018643e-19
-5.448039854e-19
-3.82046609e-19
-5.838736347e-19
-3.818390036e-19
-6.24345193e-19
-3.801782892e-19
-6.660880531e-19
-3.769729799e-19
-7.089281473e-19
-3.721464431e-19
-7.52643096e-19
-3.656462574e-19
-7.969518976e-19
-3.574533015e-19
-8.415085356e-19
-3.475950346e-19
-8.858913377e-19
-3.361593398e-19
-9.295969129e-19
-3.233133533e-19
-9.720301781e-19
-3.093232204e-19
-1.012498439e-18
-2.945781539e-19
-1.050201333e-18
-2.796140961e-19
-1.084224122e-18
-2.651393688e-19
-1.113526114e-18
-2.520569987e-19
-1.13693051e-18
-2.414853821e-19
-1.153107785e-18
-2.347719193e-19
-1.160559239e-18
-2.335016855e-19
-1.157595643e-18
-2.394973296e-19
-1.142320047e-18
-2.548116336e-19
-1.112606358e-18
-2.817026671e-19
-1.066049537e-18
-3.225762677e-19
-9.997870279e-19
-3.798670661e-19
-9.100902288e-19
-4.5586868e-19
-7.919250057e-19
-5.526617247e-19
-6.408413613e-19
-6.725847716e-19
-4.634559985e-19
-8.190042909e-19
-3.028313744e-19
-9.929139812e-19
-2.656200901e-19
-1.16482945e-18
-3.122105283e-19
-1.216584358e-18
-1.467970271e-19
-8.486373992e-19
-5.651660258e-21
-3.012666497e-19
-1.126731495e-20
5.651664094e-21
-1.08781063e-20
-1.419195535e-20
3.688698253e-20
-7.972688465e-20
3.973158389e-20
-2.09512809e-20
2.798163078e-20
5.263239993e-21
2.577844768e-20
-2.855703949e-21
2.841685158e-20
-8.033475918e-21
3.250929262e-20
-8.588428491e-21
3.648137405e-20
-5.790194268e-21
3.954119572e-20
-5.553899517e-22
4.065553887e-20
7.106638373e-21
3.933435998e-20
1.595028856e-20
3.595873993e-20
2.420180663e-20
3.115899939e-20
3.097221292e-20
2.555635809e-20
3.593516775e-20
1.975698194e-20
3.898890487e-20
1.425275665e-20
4.033819127e-20
9.323015441e-21
4.044535305e-20
5.021975327e-21
3.985635376e-20
1.228010173e-21
3.904837228e-20
-2.288875305e-21
3.835313818e-20
-5.808672461e-21
3.793441751e-20
-9.610126573e-21
3.778773527e-20
-1.391989161e-20
3.774114495e-20
-1.885217486e-20
3.745813365e-20
-2.434488476e-20
3.645980759e-20
-3.011049912e-20
3.420433753e-20
-3.565227422e-20
3.024224434e-20
-4.036570448e-20
2.439401717e-20
-4.364696892e-20
1.678979097e-20
-4.489201582e-20
7.784683912e-21
-4.37530519e-20
-1.720312941e-21
-4.074668808e-20
-9.954051081e-21
-3.692812875e-20
-1.568482816e-20
-3.310291601e-20
-1.891393061e-20
-3.085252778e-20
-1.873868121e-20
-3.355984914e-20
-1.389473218e-20
-4.590372996e-20
-6.071962445e-21
-4.378862398e-20
-3.240951916e-20
2.824514243e-21
-9.083874769e-20
1.832412182e-21
-2.512125358e-20
-5.24329249e-21
-5.243288687e-21
-1.679379357e-19
-8.743778729e-20
-5.927815321e-19
-4.458701513e-20
-1.018417779e-18
2.769890058e-19
-1.15693976e-18
1.011563817e-18
-9.585148905e-19
1.69280868e-18
-5.914693024e-19
2.046438416e-18
-2.149814038e-19
1.927043652e-18
1.660290658e-20
1.254006489e-18
-1.18342802e-31
1.070538505e-20
-1.1914957e-20
9.900915339e-21
-2.771864371e-20
8.245222676e-21
-4.062265561e-20
5.994859537e-21
-5.241078924e-20
3.230832118e-21
-6.373762213e-20
-2.57790238e-23
-7.487782e-20
-3.780075659e-21
-8.595647931e-20
-8.048607512e-21
-9.703284202e-20
-1.285311685e-20
-1.081333611e-19
-1.821852898e-20
-1.192671866e-19
-2.417168549e-20
-1.304331339e-19
-3.074135261e-20
-1.416240333e-19
-3.795779543e-20
-1.528284252e-19
-4.585315364e-20
-1.640322318e-19
-5.446116218e-20
-1.752189795e-19
-6.381756658e-20
-1.863705846e-19
-7.395982498e-20
-1.974670442e-19
-8.492749804e-20
-2.08486885e-19
-9.676191182e-20
-2.194065994e-19
-1.095065068e-19
-2.302009522e-19
-1.232064256e-19
-2.40842315e-19
-1.37908751e-19
-2.513008643e-19
-1.536619592e-19
-2.615438513e-19
-1.705160347e-19
-2.715357648e-19
-1.885218162e-19
-2.812375418e-19
-2.077309782e-19
-2.906067247e-19
-2.281951819e-19
-2.995966846e-19
-2.499657187e-19
-3.081567235e-19
-2.730922291e-19
-3.162312959e-19
-2.976219238e-19
-3.237601521e-19
-3.235979954e-19
-3.306776502e-19
-3.51058684e-19
-3.369131675e-19
-3.800355693e-19
-3.423908223e-19
-4.105523081e-19
-3.470303199e-19
-4.426222246e-19
-3.507471886e-19
-4.76245996e-19
-3.534541461e-19
-5.11408151e-19
-3.550619388e-19
-5.480739899e-19
-3.554816981e-19
-5.861858293e-19
-3.546273528e-19
-6.25659941e-19
-3.524201496e-19
-6.663825642e-19
-3.487938159e-19
-7.082059173e-19
-3.437020817e-19
-7.509427417e-19
-3.371269376e-19
-7.943609995e-19
-3.29089597e-19
-8.381780942e-19
-3.196629266e-19
-8.820563898e-19
-3.089874984e-19
-9.25598773e-19
-2.972900355e-19
-9.683450457e-19
-2.849057247e-19
-1.009767354e-18
-2.723024698e-19
-1.049265461e-18
-2.601081835e-19
-1.08616005e-18
-2.491389546e-19
-1.119684439e-18
-2.404289383e-19
-1.148972443e-18
-2.352594655e-19
-1.173043032e-18
-2.351875804e-19
-1.190780572e-18
-2.420709831e-19
-1.200912479e-18
-2.580887614e-19
-1.201984035e-18
-2.857521438e-19
-1.19233254e-18
-3.278969873e-19
-1.170062307e-18
-3.876382605e-19
-1.133042553e-18
-4.682597655e-19
-1.07905477e-18
-5.730039188e-19
-1.006553884e-18
-7.047099286e-19
-9.172796428e-19
-8.650674769e-19
-8.221725343e-19
-1.052392911e-18
-7.473046793e-19
-1.254555897e-18
-7.211343927e-19
-1.431115647e-18
-6.953843888e-19
-1.489761224e-18
-5.238201485e-19
-1.29951213e-18
-1.907322753e-19
-8.955480433e-19
-3.11109343e-20
-3.13952063e-19
-7.641303505e-20
3.11109343e-20
9.566258553e-20
-2.518027947e-19
6.594610442e-20
8.765906424e-21
1.986268669e-20
5.134684374e-20
2.060067561e-20
-3.591660654e-21
2.786189879e-20
-1.529137426e-20
3.530752668e-20
-1.602970579e-20
4.17161781e-20
-1.219477462e-20
4.72032238e-20
-6.037808198e-21
4.949918871e-20
4.814032388e-21
4.758587774e-20
1.786741656e-20
4.272914615e-20
2.906024532e-20
3.612195383e-20
3.758133591e-20
2.861009503e-20
4.344932566e-20
2.110626845e-20
4.649517098e-20
1.435991811e-20
4.708607004e-20
8.734016097e-21
4.607111272e-20
4.213994054e-21
4.437461338e-20
5.327758355e-22
4.272763483e-20
-2.707595957e-21
4.159247544e-20
-5.955354436e-21
4.118206078e-20
-9.656717059e-21
4.148938328e-20
-1.420290283e-20
4.228890951e-20
-1.985050059e-20
4.310836149e-20
-2.660035488e-20
4.321103481e-20
-3.407259209e-20
4.167475977e-20
-4.1500501e-20
3.76686696e-20
-4.796993053e-20
3.085972439e-20
-5.265207564e-20
2.146905466e-20
-5.439701235e-20
9.52572821e-21
-5.198678972e-20
-4.133893788e-21
-4.647746486e-20
-1.546784586e-20
-4.015723108e-20
-2.200793154e-20
-3.292766631e-20
-2.614661863e-20
-2.600857861e-20
-2.565820878e-20
-2.573707928e-20
-1.417380431e-20
-7.224128621e-20
4.042998359e-20
-1.022178517e-19
-2.434185695e-21
6.854200778e-20
-2.615997225e-19
2.17103771e-20
2.17103771e-20
-5.21520574e-20
-2.20687949e-19
-2.972533026e-19
-2.836173985e-19
-5.672665035e-19
-1.962677398e-19
-8.13655347e-19
1.622412301e-19
-8.599990182e-19
7.327095667e-19
-6.903684796e-19
1.261154433e-18
-3.946001154e-19
1.546142484e-18
-1.009949525e-19
1.462664565e-18
4.685746561e-20
9.46784078e-19
-9.840253974e-32
2.049088943e-21
-2.110917961e-20
-3.257830909e-22
-3.254146595e-20
-2.722451579e-21
-4.306656014e-20
-5.369600215e-21
-5.327328061e-20
-8.3541236e-21
-6.33974681e-20
-1.17373768e-20
-7.354033523e-20
-1.556386513e-20
-8.374454505e-20
-1.986959097e-20
-9.402435936e-20
-2.468690009e-20
-1.043796094e-19
-3.004617374e-20
-1.148018519e-19
-3.597762278e-20
-1.252781525e-19
-4.251144733e-20
-1.357924995e-19
-4.967888723e-20
-1.463271883e-19
-5.751197858e-20
-1.568629435e-19
-6.604436686e-20
-1.673795772e-19
-7.5310899e-20
-1.778556372e-19
-8.534830954e-20
-1.882687808e-19
-9.619472219e-20
-1.985952418e-19
-1.078902721e-19
-2.088100649e-19
-1.204765379e-19
-2.188864971e-19
-1.339970741e-19
-2.28796169e-19
-1.484967147e-19
-2.385084165e-19
-1.640219768e-19
-2.479904386e-19
-1.806202421e-19
-2.572066005e-19
-1.98340054e-19
-2.661185594e-19
-2.172301719e-19
-2.746845796e-19
-2.373396449e-19
-2.828596642e-19
-2.587165335e-19
-2.905948442e-19
-2.814075835e-19
-2.978373375e-19
-3.054566124e-19
-3.045299299e-19
-3.309039882e-19
-3.106112817e-19
-3.577849789e-19
-3.160156262e-19
-3.861291777e-19
-3.206734874e-19
-4.159585478e-19
-3.245117876e-19
-4.472861579e-19
-3.274550264e-19
-4.801133263e-19
-3.294259145e-19
-5.144275978e-19
-3.303472154e-19
-5.501996992e-19
-3.3014352e-19
-5.873819176e-19
-3.287447887e-19
-6.259056538e-19
-3.260903312e-19
-6.65679943e-19
-3.221349458e-19
-7.065884303e-19
-3.168556541e-19
-7.484869651e-19
-3.102606955e-19
-7.912003067e-19
-3.02399696e-19
-8.345207729e-19
-2.933770209e-19
-8.782072174e-19
-2.833673803e-19
-9.219861054e-19
-2.726354435e-19
-9.655521e-19
-2.61557915e-19
-1.008569584e-18
-2.506493167e-19
-1.050672895e-18
-2.405900347e-19
-1.091466775e-18
-2.322580282e-19
-1.13052434e-18
-2.267627243e-19
-1.167383687e-18
-2.254820288e-19
-1.201541199e-18
-2.300998526e-19
-1.232444199e-18
-2.426433617e-19
-1.259482793e-18
-2.655147897e-19
-1.281985178e-18
-3.015115485e-19
-1.299221664e-18
-3.538191783e-19
-1.310437613e-18
-4.259522072e-19
-1.314961649e-18
-5.215965494e-19
-1.312502521e-18
-6.442745949e-19
-1.303840622e-18
-7.966745988e-19
-1.292109605e-18
-9.792942799e-19
-1.284003328e-18
-1.187604887e-18
-1.286996451e-18
-1.406472544e-18
-1.293919002e-18
-1.601662307e-18
-1.248817212e-18
-1.715733521e-18
-1.036995436e-18
-1.690174535e-18
-6.778926449e-19
-1.540040816e-18
-3.568306988e-21
-1.271812102e-18
7.139858386e-19
-9.167472831e-19
3.562312864e-19
1.05952041e-19
1.085270424e-19
2.564701972e-19
-3.50758179e-20
1.94951707e-19
8.900962156e-21
-4.756572329e-20
2.712356733e-20
-3.351128276e-20
3.914245816e-20
-2.804690117e-20
4.787314475e-20
-2.092165562e-20
5.80550647e-20
-1.621722759e-20
6.255257315e-20
3.200875791e-22
5.877870676e-20
2.164326997e-20
5.125023721e-20
3.659217434e-20
4.198994357e-20
4.68448058e-20
3.165594051e-20
5.378649429e-20
2.169716792e-20
5.645689295e-20
1.33449606e-20
5.543974603e-20
7.03751681e-21
5.237770522e-20
2.567015793e-21
4.884272366e-20
-6.023838076e-22
4.589476609e-20
-3.118010635e-21
4.410718906e-20
-5.648031727e-21
4.37121931e-20
-8.857191133e-21
4.469957371e-20
-1.338345093e-20
4.681779026e-20
-1.974782714e-20
4.947619437e-20
-2.813663034e-20
5.160038859e-20
-3.807868245e-20
5.161565466e-20
-4.830944627e-20
4.789611424e-20
-5.736060074e-20
3.990937524e-20
-6.459540237e-20
2.869930152e-20
-6.80566347e-20
1.29818354e-20
-6.332074208e-20
-8.874340716e-21
-5.30175508e-20
-2.57706157e-20
-4.429591856e-20
-3.073302593e-20
-3.24392565e-20
-3.800422683e-20
-1.452417433e-20
-4.357800944e-20
2.886670871e-20
-5.756668053e-20
-1.151054562e-19
1.844014326e-19
-3.613833884e-19
2.438434385e-19
-7.214604953e-19
9.847738437e-20
-3.438221377e-19
-7.395380886e-19
-1.859167385e-19
-9.03627207e-19
-2.176567376e-19
-7.740490263e-19
-3.102267591e-19
-4.960009701e-19
-4.221205271e-19
-9.010237091e-20
-4.336703628e-19
4.026635027e-19
-3.161644911e-19
8.408047135e-19
-1.208815691e-19
1.088334239e-18
5.553949122e-20
1.049236773e-18
9.267464734e-20
6.82513104e-19
-8.168084147e-32
-8.343102096e-21
-3.232411075e-20
-1.118528111e-20
-3.81387999e-20
-1.382805301e-20
-4.585054859e-20
-1.66160819e-20
-5.430488242e-20
-1.967897763e-20
-6.315268997e-20
-2.310217866e-20
-7.226530431e-20
-2.694253243e-20
-8.158096865e-20
-3.124301925e-20
-9.106010289e-20
-3.603955964e-20
-1.006713054e-19
-4.136475849e-20
-1.103867552e-19
-4.724965882e-20
-1.201803287e-19
-5.372500044e-20
-1.300269488e-19
-6.082174063e-20
-1.399020407e-19
-6.857167078e-20
-1.497813747e-19
-7.700754765e-20
-1.596406899e-19
-8.616347209e-20
-1.694555737e-19
-9.60748533e-20
-1.792011005e-19
-1.067786802e-19
-1.888517081e-19
-1.18313406e-19
-1.983808141e-19
-1.307191373e-19
-2.077606976e-19
-1.440374231e-19
-2.169621216e-19
-1.583113146e-19
-2.259541834e-19
-1.735850184e-19
-2.347039408e-19
-1.899038472e-19
-2.431762808e-19
-2.07313767e-19
-2.513335236e-19
-2.258612075e-19
-2.591353145e-19
-2.455923925e-19
-2.665382512e-19
-2.665528285e-19
-2.734957554e-19
-2.887862901e-19
-2.799577646e-19
-3.123340648e-19
-2.858707412e-19
-3.372338528e-19
-2.911775517e-19
-3.635190548e-19
-2.958178027e-19
-3.912176611e-19
-2.997281031e-19
-4.203512456e-19
-3.028427457e-19
-4.509332435e-19
-3.0509437e-19
-4.82967249e-19
-3.064151457e-19
-5.164449662e-19
-3.067381625e-19
-5.513448851e-19
-3.059998339e-19
-5.876312215e-19
-3.041430197e-19
-6.252536205e-19
-3.011214991e-19
-6.641465567e-19
-2.969053829e-19
-7.042288486e-19
-2.914879502e-19
-7.454029382e-19
-2.848936471e-19
-7.875554059e-19
-2.771882815e-19
-8.305589024e-19
-2.684914872e-19
-8.742764026e-19
-2.589924086e-19
-9.185667645e-19
-2.48968318e-19
-9.632916791e-19
-2.388065405e-19
-1.008323158e-18
-2.290292191e-19
-1.053552324e-18
-2.203217363e-19
-1.098898739e-18
-2.135646786e-19
-1.144320347e-18
-2.09870123e-19
-1.189822831e-18
-2.106214065e-19
-1.235469353e-18
-2.175155683e-19
-1.281391389e-18
-2.326050372e-19
-1.327803125e-18
-2.583335516e-19
-1.375021153e-18
-2.975554104e-19
-1.423495383e-18
-3.535200687e-19
-1.473863533e-18
-4.297893516e-19
-1.527054003e-18
-5.300332257e-19
-1.584465456e-18
-6.576122995e-19
-1.648209294e-18
-8.147955937e-19
-1.721188163e-18
-1.00136914e-18
-1.806128929e-18
-1.212306767e-18
-1.901470858e-18
-1.434394044e-18
-1.991927756e-18
-1.643009043e-18
-2.037063037e-18
-1.803537773e-18
-1.980708901e-18
-1.884192553e-18
-1.778708656e-18
-1.876096209e-18
-1.387075142e-18
-1.759382531e-18
-8.314774774e-19
-1.270500008e-18
5.279687765e-31
-1.809577974e-19
-7.729293266e-19
1.288077835e-18
-2.775932501e-19
-3.003832748e-19
2.295540268e-20
-3.481139535e-19
3.258794877e-20
-4.314426424e-20
4.62677039e-20
-4.172227739e-20
5.257757278e-20
-2.722848762e-20
7.459237992e-20
-3.82268383e-20
8.38757556e-20
-8.958919737e-21
7.372761113e-20
3.179792469e-20
6.150286898e-20
4.881945864e-20
4.89316318e-20
5.94186347e-20
3.432633918e-20
6.839535886e-20
2.068002133e-20
7.01063504e-20
1.028291944e-20
6.583783935e-20
3.50253525e-21
5.915645422e-20
-3.809415127e-22
5.272321393e-20
-2.389961112e-21
4.790155297e-20
-3.513006601e-21
4.522954642e-20
-4.66065084e-21
4.486017557e-20
-6.738974845e-21
4.677984698e-20
-1.072504682e-20
5.080790933e-20
-1.76236326e-20
5.63775599e-20
-2.812136458e-20
6.209854311e-20
-4.179822288e-20
6.529021331e-20
-5.629618505e-20
6.239358e-20
-6.857067473e-20
5.217949355e-20
-8.031286849e-20
4.043716977e-20
-8.991281094e-20
2.257686372e-20
-8.021701706e-20
-1.856884036e-20
-5.797996103e-20
-4.801549872e-20
-5.156711972e-20
-3.715211019e-20
-3.80130389e-20
-5.156130741e-20
-2.851284541e-20
-5.30793585e-20
2.708348236e-19
-3.569151368e-19
7.642744288e-19
-3.090381726e-19
-7.943408881e-31
1.32229539e-18
3.921196013e-19
6.383650609e-20
5.803080186e-19
-9.60198759e-19
5.248566454e-19
-1.238446589e-18
4.123186838e-19
-1.072838425e-18
2.665765065e-19
-7.477653635e-19
1.407866914e-19
-3.328282201e-19
8.921998085e-20
1.075744969e-19
1.207254645e-19
4.823814472e-19
1.942786516e-19
7.019330811e-19
2.394099228e-19
7.04816259e-19
1.486498639e-19
4.63713819e-19
-6.615448239e-32
-2.14633931e-20
-3.889652269e-20
-2.311472031e-20
-4.252848365e-20
-2.528471774e-20
-4.828951696e-20
-2.78552162e-20
-5.522704985e-20
-3.080658975e-20
-6.287178258e-20
-3.415906536e-20
-7.098328461e-20
-3.794263782e-20
-7.942703198e-20
-4.218850642e-20
-8.811831584e-20
-4.69271507e-20
-9.699736772e-20
-5.218822167e-20
-1.060177211e-19
-5.800103778e-20
-1.151406135e-19
-6.439495918e-20
-1.243319319e-19
-7.139986506e-20
-1.335605761e-19
-7.904637182e-20
-1.427973254e-19
-8.736615041e-20
-1.520141864e-19
-9.639200914e-20
-1.611837645e-19
-1.061580889e-19
-1.70278902e-19
-1.166998768e-19
-1.792722394e-19
-1.280543362e-19
-1.88135945e-19
-1.402598451e-19
-1.968413565e-19
-1.5335623e-19
-2.053587727e-19
-1.673845792e-19
-2.13657103e-19
-1.823871527e-19
-2.217036974e-19
-1.984070817e-19
-2.294640305e-19
-2.154881799e-19
-2.369015343e-19
-2.336745009e-19
-2.439773116e-19
-2.530099304e-19
-2.506499954e-19
-2.735374649e-19
-2.568754712e-19
-2.952985231e-19
-2.626068227e-19
-3.183320661e-19
-2.677942198e-19
-3.426739092e-19
-2.723850724e-19
-3.683559321e-19
-2.763242276e-19
-3.954053946e-19
-2.795544467e-19
-4.238438755e-19
-2.820168639e-19
-4.536860936e-19
-2.836517946e-19
-4.849384369e-19
-2.843996706e-19
-5.175979082e-19
-2.842025958e-19
-5.516515589e-19
-2.830065127e-19
-5.87076861e-19
-2.807643852e-19
-6.238424554e-19
-2.774401514e-19
-6.619092404e-19
-2.730137531e-19
-7.012314389e-19
-2.674869796e-19
-7.417585627e-19
-2.608907568e-19
-7.834389355e-19
-2.53294185e-19
-8.262258788e-19
-2.448161561e-19
-8.700863353e-19
-2.356395632e-19
-9.150118363e-19
-2.260284627e-19
-9.610311876e-19
-2.163477939e-19
-1.008225506e-18
-2.07086158e-19
-1.056745862e-18
-1.988819081e-19
-1.106834106e-18
-1.925534777e-19
-1.158846072e-18
-1.891339899e-19
-1.213277067e-18
-1.899102146e-19
-1.270789562e-18
-1.964640382e-19
-1.332244425e-18
-2.107134436e-19
-1.398735862e-18
-2.349460784e-19
-1.471629646e-18
-2.718339286e-19
-1.552602489e-18
-3.244086348e-19
-1.643680935e-18
-3.959651421e-19
-1.747272277e-18
-4.898417242e-19
-1.8661571e-18
-6.089995842e-19
-2.003340894e-18
-7.552949096e-19
-2.161501137e-18
-9.283217543e-19
-2.341484238e-18
-1.12375838e-18
-2.539124842e-18
-1.331431938e-18
-2.740534719e-18
-1.534014312e-18
-2.919069757e-18
-1.708089274e-18
-3.041590868e-18
-1.828146188e-18
-3.077659938e-18
-1.866462886e-18
-2.991789837e-18
-1.76334775e-18
-2.601379982e-18
-1.389728505e-18
-1.969001287e-18
-4.621334702e-19
9.09307287e-20
-1.433021554e-20
7.479886719e-19
-7.795102178e-19
3.279250891e-19
7.194919656e-20
3.400993516e-20
2.507735567e-19
6.076149355e-20
-6.846946351e-20
4.157922189e-20
-8.03859079e-21
1.038602978e-19
-1.005015081e-19
1.246325993e-19
-2.972553535e-20
9.074914449e-20
6.567755299e-20
7.210204495e-20
6.747404721e-20
5.790835526e-20
7.361484354e-20
3.60373305e-20
9.026785309e-20
1.641151058e-20
8.973345641e-20
3.601533897e-21
7.864735228e-20
-2.930705008e-21
6.568589336e-20
-5.202602155e-21
5.499152909e-20
-5.061967913e-21
4.775859163e-20
-3.882377428e-21
4.404944739e-20
-2.740979135e-21
4.371971028e-20
-2.710912753e-21
4.67523315e-20
-5.155396238e-21
5.325595718e-20
-1.190264895e-20
6.312757345e-20
-2.492969461e-20
7.51249545e-20
-4.46948559e-20
8.505586929e-20
-6.651027079e-20
8.42091616e-20
-8.031299834e-20
6.598910515e-20
-9.81731739e-20
5.828565033e-20
-1.310585143e-19
5.546096448e-20
-1.096636746e-19
-3.996926e-20
-4.711657225e-20
-1.105717844e-19
-6.597631685e-20
-1.830192745e-20
-3.953108945e-20
-7.800904654e-20
-3.323486208e-19
2.397378839e-19
-7.546008129e-19
6.533705547e-20
-3.327266845e-19
-7.265886854e-19
1.308517329e-18
1.954585779e-19
1.723276153e-18
-1.116094716e-19
1.76508922e-18
-9.320490537e-19
1.536089595e-18
-1.209450957e-18
1.260652837e-18
-1.116852876e-18
1.001934505e-18
-8.376112728e-19
7.91483523e-19
-4.744446069e-19
6.516203986e-19
-1.006012358e-19
5.706027669e-19
2.15148743e-19
5.180085548e-19
4.087347589e-19
4.279399597e-19
4.397382802e-19
2.063449146e-19
2.958134081e-19
-5.190425941e-32
-3.369778583e-20
-4.316167317e-20
-3.48425804e-20
-4.569246721e-20
-3.661334142e-20
-5.013209964e-20
-3.890686383e-20
-5.585541318e-20
-4.166832956e-20
-6.244208336e-20
-4.488296555e-20
-6.962763732e-20
-4.855697881e-20
-7.724342655e-20
-5.270697215e-20
-8.517637246e-20
-5.73545566e-20
-9.334567147e-20
-6.252391926e-20
-1.016897565e-19
-6.824073772e-20
-1.101589245e-19
-7.453184168e-20
-1.187110891e-19
-8.142509089e-20
-1.273091621e-19
-8.894945119e-20
-1.359194304e-19
-9.713502466e-20
-1.445104097e-19
-1.060131608e-19
-1.530520579e-19
-1.156164824e-19
-1.615151485e-19
-1.25978979e-19
-1.69870814e-19
-1.371360057e-19
-1.780901147e-19
-1.491243248e-19
-1.861437328e-19
-1.619820115e-19
-1.940016425e-19
-1.757483886e-19
-2.016328583e-19
-1.904638121e-19
-2.090051662e-19
-2.061695008e-19
-2.160849258e-19
-2.22907221e-19
-2.22836825e-19
-2.407189737e-19
-2.292237137e-19
-2.596464828e-19
-2.35206399e-19
-2.797306417e-19
-2.407435041e-19
-3.010107952e-19
-2.457913689e-19
-3.235241006e-19
-2.503040924e-19
-3.473048639e-19
-2.542336337e-19
-3.723840055e-19
-2.575301165e-19
-3.987883903e-19
-2.601421771e-19
-4.265400645e-19
-2.620174453e-19
-4.5565525e-19
-2.631031478e-19
-4.861434945e-19
-2.633470273e-19
-5.180072297e-19
-2.626986745e-19
-5.512422423e-19
-2.611115944e-19
-5.858389276e-19
-2.585459285e-19
-6.217842182e-19
-2.549718925e-19
-6.590637782e-19
-2.503738081e-19
-6.976648734e-19
-2.447549319e-19
-7.375805676e-19
-2.38143364e-19
-7.788165009e-19
-2.305997668e-19
-8.21400676e-19
-2.222271415e-19
-8.653964036e-19
-2.13182938e-19
-9.109178704e-19
-2.036932747e-19
-9.581486457e-19
-1.940693605e-19
-1.007363783e-18
-1.847262924e-19
-1.058956785e-18
-1.762050663e-19
-1.11347168e-18
-1.691983144e-19
-1.171640024e-18
-1.645803254e-19
-1.23442202e-18
-1.634409619e-19
-1.303051786e-18
-1.671222205e-19
-1.379086254e-18
-1.772538908e-19
-1.464456053e-18
-1.957820614e-19
-1.561512552e-18
-2.249788525e-19
-1.673061409e-18
-2.674155283e-19
-1.802365931e-18
-3.258706546e-19
-1.953091992e-18
-4.031328731e-19
-2.129137614e-18
-5.016427691e-19
-2.334238132e-18
-6.229104989e-19
-2.571158406e-18
-7.66659198e-19
-2.840218528e-18
-9.297138683e-19
-3.137007659e-18
-1.104825511e-18
-3.449758675e-18
-1.279871376e-18
-3.757883943e-18
-1.437867928e-18
-4.033096719e-18
-1.557154446e-18
-4.23746062e-18
-1.608437862e-18
-4.305529197e-18
-1.544315514e-18
-4.086948343e-18
-1.302170095e-18
-3.371788929e-18
-8.575168865e-19
-2.10714517e-18
-5.719990643e-19
-1.015477765e-18
-8.266119435e-19
1.396135287e-30
-1.544010943e-19
-3.185835983e-20
3.399080352e-19
1.21192367e-19
-2.215163551e-19
-5.088369487e-20
1.640407168e-19
1.74636271e-19
-3.260202687e-19
2.200356886e-19
-7.513329582e-20
9.254563926e-20
1.931798553e-19
7.824284215e-20
8.177758664e-20
7.456136472e-20
7.730163924e-20
3.550293403e-20
1.293286016e-19
5.325407015e-21
1.199117897e-19
-9.359925472e-21
9.333113882e-20
-1.362506926e-20
6.994721721e-20
-1.243553936e-20
5.379793412e-20
-8.77111247e-21
4.409192316e-20
-4.212114561e-21
3.949006006e-20
2.91642349e-22
3.921692366e-20
3.792712627e-21
4.325400784e-20
4.716219971e-21
5.233636308e-20
9.473247349e-23
6.775208544e-20
-1.499878041e-20
9.022055228e-20
-4.554156386e-20
1.156030993e-19
-8.473032724e-20
1.234143761e-19
-8.801645404e-20
6.925169016e-20
-1.009978603e-19
7.126327458e-20
-2.264887398e-19
1.809550466e-19
-1.802661995e-19
-8.619384685e-20
4.515328416e-20
-3.359982639e-19
-1.256834368e-19
1.52532403e-19
2.484111577e-20
-2.285335991e-19
-1.600200146e-30
3.443191198e-19
7.255695365e-19
-8.516253102e-20
1.300932158e-18
-6.642817132e-19
2.23507723e-18
-3.029826636e-19
2.740677504e-18
-4.673433563e-19
2.7341949e-18
-8.583194592e-19
2.449188674e-18
-1.035711871e-18
2.084432869e-18
-9.78369799e-19
1.731069161e-18
-7.715946018e-19
1.426929563e-18
-4.905089945e-19
1.187376559e-18
-1.963468432e-19
9.928938925e-19
5.069257635e-20
8.195176424e-19
2.105955787e-19
6.041319329e-19
2.560975193e-19
2.617127087e-19
1.778061137e-19
-3.819218599e-32
-4.513750145e-20
-4.583059811e-20
-4.604476015e-20
-4.774813376e-20
-4.754956951e-20
-5.130066153e-20
-4.960524804e-20
-5.60895128e-20
-5.216987314e-20
-6.178499607e-20
-5.522258054e-20
-6.814473962e-20
-5.875899095e-20
-7.499578707e-20
-6.278605902e-20
-8.221333632e-20
-6.73179567e-20
-8.970456395e-20
-7.23733867e-20
-9.739765087e-20
-7.797401978e-20
-1.052347172e-19
-8.414363906e-20
-1.131672759e-19
-9.090771808e-20
-1.211532855e-19
-9.829320274e-20
-1.29155167e-19
-1.063284335e-19
-1.371384494e-19
-1.15043103e-19
-1.450707691e-19
-1.24468265e-19
-1.529211546e-19
-1.346363381e-19
-1.606594496e-19
-1.45581127e-19
-1.682558675e-19
-1.5733779e-19
-1.756806111e-19
-1.699427944e-19
-1.829035716e-19
-1.834337837e-19
-1.898940276e-19
-1.978494207e-19
-1.966204274e-19
-2.132291659e-19
-2.030501691e-19
-2.296130051e-19
-2.091494051e-19
-2.470410995e-19
-2.148828748e-19
-2.655533415e-19
-2.202137554e-19
-2.851888082e-19
-2.251035304e-19
-3.059851829e-19
-2.295119635e-19
-3.279781718e-19
-2.333971394e-19
-3.512009994e-19
-2.367156178e-19
-3.756839194e-19
-2.394226767e-19
-4.014536849e-19
-2.41472626e-19
-4.285328841e-19
-2.428191422e-19
-4.56939265e-19
-2.434157647e-19
-4.866853113e-19
-2.432166144e-19
-5.177785055e-19
-2.421775433e-19
-5.502224904e-19
-2.40257816e-19
-5.8401912e-19
-2.374223112e-19
-6.19171098e-19
-2.336440729e-19
-6.556852048e-19
-2.28907254e-19
-6.935765615e-19
-2.232105356e-19
-7.328750062e-19
-2.165715186e-19
-7.736345056e-19