/*--------------------------------*- C++ -*----------------------------------*\
  =========                 |
  \\      /  F ield         | OpenFOAM: The Open Source CFD Toolbox
   \\    /   O peration     | Website:  https://openfoam.org
    \\  /    A nd           | Version:  6
     \\/     M anipulation  |
\*---------------------------------------------------------------------------*/
FoamFile
{
    version     2.0;
    format      ascii;
    class       volScalarField;
    location    "0.0047";
    object      TRHS;
}
// * * * * * * * * * * * * * * * * * * * * * * * * * * * * * * * * * * * * * //

dimensions      [1 -1 -3 0 0 0 0];

internalField   nonuniform List<scalar> 
9600
(
-1.675591073e-09
-3.764620586e-09
-4.878338239e-09
-5.037449237e-09
-4.735245876e-09
-4.234917827e-09
-3.700785733e-09
-3.201118814e-09
-2.783399752e-09
-2.452921399e-09
-2.225189261e-09
-2.089925762e-09
-2.05601378e-09
-2.110945822e-09
-2.263857782e-09
-2.503315092e-09
-2.840061964e-09
-3.264177159e-09
-3.787906895e-09
-4.40266247e-09
-5.121894204e-09
-5.937908461e-09
-6.864704488e-09
-7.894740411e-09
-9.041941371e-09
-1.029860974e-08
-1.167832211e-08
-1.317256494e-08
-1.479300129e-08
-1.652799636e-08
-1.838491141e-08
-2.034764898e-08
-2.241939384e-08
-2.458079183e-08
-2.683154595e-08
-2.914786649e-08
-3.152219877e-08
-3.392127364e-08
-3.632631204e-08
-3.869419677e-08
-4.09984395e-08
-4.319139946e-08
-4.524237865e-08
-4.709941739e-08
-4.872653282e-08
-5.006994704e-08
-5.109782481e-08
-5.177080745e-08
-5.208130854e-08
-5.202807579e-08
-5.165811144e-08
-5.105300714e-08
-5.038485031e-08
-4.993236973e-08
-5.017927423e-08
-5.189968436e-08
-5.634265279e-08
-6.537365646e-08
-8.146960361e-08
-1.070542998e-07
-1.424096061e-07
-1.830995416e-07
-2.234462531e-07
-2.934016862e-07
-4.381305779e-07
-1.13939537e-06
-1.814426528e-06
-0.002039345081
268.4828431
0
0
0
0
0
0
0
0
0
0
0
0
0
0
0
0
0
0
0
0
0
0
0
0
0
0
0
0
0
0
0
0
0
0
0
0
0
0
0
0
0
0
-0.00775470148
-0.001031075582
-1.271008312e-06
-6.356910074e-07
-1.055865411e-07
-1.500860118e-08
-7.251813749e-08
-1.904123286e-07
5.342689954e-08
-3.82922973e-09
-6.642237847e-09
-7.546296517e-09
-7.107375191e-09
-6.247666821e-09
-5.321733114e-09
-4.479566322e-09
-3.765663709e-09
-3.195354092e-09
-2.759467634e-09
-2.454168521e-09
-2.265320412e-09
-2.189990374e-09
-2.216983387e-09
-2.34693753e-09
-2.57208309e-09
-2.896168812e-09
-3.314021173e-09
-3.831679947e-09
-4.445922875e-09
-5.164451315e-09
-5.985268318e-09
-6.916939388e-09
-7.95798711e-09
-9.117308386e-09
-1.039364529e-08
-1.179579086e-08
-1.332168968e-08
-1.497819636e-08
-1.676026581e-08
-1.867109362e-08
-2.070230416e-08
-2.285439605e-08
-2.511694394e-08
-2.748763908e-08
-2.995143716e-08
-3.249873309e-08
-3.510572542e-08
-3.775437938e-08
-4.041526587e-08
-4.306757662e-08
-4.568092057e-08
-4.823238032e-08
-5.068818125e-08
-5.302251142e-08
-5.52045426e-08
-5.722070315e-08
-5.906391613e-08
-6.07550883e-08
-6.233396357e-08
-6.388450444e-08
-6.553650384e-08
-6.750682351e-08
-7.012794628e-08
-7.392309851e-08
-7.967467216e-08
-8.852836087e-08
-1.020528034e-07
-1.222341042e-07
-1.51286553e-07
-1.916304158e-07
-2.467997991e-07
-3.277460195e-07
-4.640134586e-07
-6.985154538e-07
-1.086437811e-06
-1.515080183e-06
-1.261138674e-06
-0.0006146686487
218.7121761
0
0
0
0
0
0
0
0
0
0
0
0
0
0
0
0
0
0
0
0
0
0
0
0
0
0
0
0
0
0
0
0
0
0
0
0
0
0
0
0
-0.007487406358
-8.986432705e-07
-1.444091267e-06
-1.560587849e-06
-1.018133793e-06
-6.593609907e-07
-4.526163796e-07
-3.767314292e-07
-3.342772437e-07
1.750155341e-08
-1.014210809e-08
-1.237877897e-08
-1.162623317e-08
-9.742415728e-09
-7.932902809e-09
-6.420021143e-09
-5.210806797e-09
-4.267512628e-09
-3.54555762e-09
-3.011747192e-09
-2.636911102e-09
-2.402883594e-09
-2.29280772e-09
-2.298245427e-09
-2.40994074e-09
-2.625398133e-09
-2.940004699e-09
-3.35498639e-09
-3.868759457e-09
-4.485091313e-09
-5.204451587e-09
-6.032221778e-09
-6.97001728e-09
-8.024061958e-09
-9.196645149e-09
-1.049449927e-08
-1.191998807e-08
-1.347909178e-08
-1.517234488e-08
-1.700299005e-08
-1.896867703e-08
-2.107033143e-08
-2.33042475e-08
-2.567013774e-08
-2.816192616e-08
-3.077454468e-08
-3.349486492e-08
-3.631021326e-08
-3.920205856e-08
-4.215597441e-08
-4.51547295e-08
-4.818521034e-08
-5.12292171e-08
-5.427073648e-08
-5.729117782e-08
-6.028195947e-08
-6.32433172e-08
-6.619647854e-08
-6.918088608e-08
-7.226673119e-08
-7.555687784e-08
-7.920842981e-08
-8.344923801e-08
-8.862000967e-08
-9.521703319e-08
-1.039578164e-07
-1.158364207e-07
-1.321834526e-07
-1.54712307e-07
-1.856329555e-07
-2.280445094e-07
-2.871015012e-07
-3.722924041e-07
-4.985583244e-07
-6.731252021e-07
-8.651385183e-07
-8.914319333e-07
-1.006180073e-06
-9.409450226e-07
-0.001793723471
1203.953807
0
0
0
0
0
0
0
0
0
0
0
0
0
0
0
0
0
0
0
0
0
0
0
0
0
0
0
0
0
0
0
0
0
0
0
0
0
0
840.1641334
-0.001060004975
-1.587175049e-06
-1.517712658e-06
-1.295750809e-06
-1.169873203e-06
-9.433281665e-07
-7.398862864e-07
-6.202383316e-07
-5.711122755e-07
-9.822618913e-08
-3.732430073e-08
-2.57766135e-08
-1.732949282e-08
-1.255922017e-08
-9.45748268e-09
-7.311270466e-09
-5.764866369e-09
-4.626572853e-09
-3.787924797e-09
-3.17879796e-09
-2.756481524e-09
-2.48925797e-09
-2.358454887e-09
-2.348323119e-09
-2.451343131e-09
-2.659752638e-09
-2.971967773e-09
-3.384800238e-09
-3.900320637e-09
-4.518319841e-09
-5.243300991e-09
-6.076936904e-09
-7.025154339e-09
-8.090734146e-09
-9.280555483e-09
-1.059810467e-08
-1.205044237e-08
-1.364036305e-08
-1.537325963e-08
-1.724966311e-08
-1.927283359e-08
-2.144208084e-08
-2.37602216e-08
-2.622596326e-08
-2.883978771e-08
-3.159555269e-08
-3.448712161e-08
-3.750258446e-08
-4.063341628e-08
-4.386960205e-08
-4.72065758e-08
-5.063686671e-08
-5.415493866e-08
-5.775115374e-08
-6.142205449e-08
-6.516997273e-08
-6.901475024e-08
-7.299114344e-08
-7.715769147e-08
-8.159479777e-08
-8.641824365e-08
-9.178469571e-08
-9.791523772e-08
-1.051158453e-07
-1.138193616e-07
-1.246224719e-07
-1.383318691e-07
-1.559972917e-07
-1.789666033e-07
-2.089864028e-07
-2.484322646e-07
-3.006178922e-07
-3.697231158e-07
-4.583214447e-07
-5.584101855e-07
-6.396091607e-07
-6.518308135e-07
-6.444942518e-07
-1.028037096e-06
-1.021346257e-06
-0.001519593956
2049.595184
4962.536073
0
0
0
0
0
0
0
0
0
0
0
0
0
0
0
0
0
0
0
0
0
0
0
0
0
0
0
0
0
0
0
0
0
0
4718.21628
1904.959969
-0.001061633351
-1.889545897e-06
-1.882477977e-06
-1.412071427e-06
-1.315992691e-06
-1.226994939e-06
-1.089670335e-06
-9.496070636e-07
-8.456497134e-07
-8.149360471e-07
-2.683327368e-07
-4.567587606e-08
-3.022312657e-08
-1.942809399e-08
-1.366882853e-08
-1.007930196e-08
-7.677692839e-09
-5.987452482e-09
-4.766013301e-09
-3.876142863e-09
-3.236543108e-09
-2.794329283e-09
-2.515947697e-09
-2.377570101e-09
-2.364409738e-09
-2.465382647e-09
-2.674697037e-09
-2.987833767e-09
-3.40404455e-09
-3.922801381e-09
-4.546639784e-09
-5.27768529e-09
-6.120554538e-09
-7.078983714e-09
-8.158926919e-09
-9.365234401e-09
-1.070466385e-08
-1.218233583e-08
-1.380443475e-08
-1.55746655e-08
-1.74974825e-08
-1.957528873e-08
-2.181214216e-08
-2.421066995e-08
-2.677450216e-08
-2.950384545e-08
-3.239752143e-08
-3.54500875e-08
-3.865671834e-08
-4.201262793e-08
-4.551758768e-08
-4.917222677e-08
-5.297879454e-08
-5.693671619e-08
-6.104714927e-08
-6.531485963e-08
-6.975687987e-08
-7.440360341e-08
-7.93032387e-08
-8.452009913e-08
-9.014063361e-08
-9.62762563e-08
-1.030742348e-07
-1.107254347e-07
-1.194834695e-07
-1.296845761e-07
-1.417752495e-07
-1.563282354e-07
-1.740528279e-07
-1.95794634e-07
-2.225419352e-07
-2.554044783e-07
-2.95438104e-07
-3.42928456e-07
-3.954512789e-07
-4.444806568e-07
-4.752115349e-07
-4.792789919e-07
-4.962579915e-07
-4.832325719e-07
-3.459686996e-07
7.260561221e-07
-0.005165998971
-0.05020947138
14955.47909
0
0
0
0
0
0
0
0
0
0
0
0
0
0
0
0
0
0
0
0
0
0
0
0
0
0
0
0
0
0
0
0
14788.00611
-0.04917122886
-0.004802086547
-1.136455424e-07
-1.406555737e-06
-1.480327715e-06
-1.427627434e-06
-1.32446133e-06
-1.248168101e-06
-1.178009095e-06
-1.126575693e-06
-1.083401741e-06
-1.113506574e-06
-4.739444988e-07
-2.594337096e-08
-2.162920491e-08
-1.649745272e-08
-1.249688562e-08
-9.549942138e-09
-7.399020522e-09
-5.81842008e-09
-4.650734535e-09
-3.79177919e-09
-3.171765007e-09
-2.744189719e-09
-2.476869353e-09
-2.348231563e-09
-2.343089414e-09
-2.45184993e-09
-2.667902439e-09
-2.988096849e-09
-3.410823429e-09
-3.936971028e-09
-4.568284473e-09
-5.308391196e-09
-6.161202138e-09
-7.132081515e-09
-8.226381488e-09
-9.450652331e-09
-1.081113513e-08
-1.231468217e-08
-1.3967101e-08
-1.577420403e-08
-1.774065182e-08
-1.987167035e-08
-2.217214117e-08
-2.464777672e-08
-2.730297046e-08
-3.014084786e-08
-3.316137296e-08
-3.636340632e-08
-3.974560648e-08
-4.331003235e-08
-4.706161732e-08
-5.100799131e-08
-5.515584524e-08
-5.951160247e-08
-6.408283368e-08
-6.888482739e-08
-7.394400479e-08
-7.930115723e-08
-8.500966633e-08
-9.113681829e-08
-9.776479226e-08
-1.049962384e-07
-1.129567751e-07
-1.218003499e-07
-1.317135832e-07
-1.429260666e-07
-1.55715197e-07
-1.704015574e-07
-1.873196385e-07
-2.067672899e-07
-2.28920334e-07
-2.536839772e-07
-2.803809146e-07
-3.07138463e-07
-3.299000935e-07
-3.41572634e-07
-3.334111876e-07
-2.998065585e-07
-2.399743185e-07
-9.579570648e-08
2.942791851e-07
9.757401748e-07
1.263942919e-06
2.726752927e-06
-1.246699092e-06
1391.63738
4852.309699
0
0
0
0
0
0
0
0
0
0
0
0
0
0
0
0
0
0
0
0
0
0
0
0
0
0
0
0
4638.77641
1263.691911
-1.898874978e-06
1.852062377e-06
8.622773345e-07
2.544268783e-07
-7.191334244e-07
-1.146824479e-06
-1.251167042e-06
-1.275477783e-06
-1.248259311e-06
-1.255590682e-06
-1.248258666e-06
-1.282289387e-06
-1.397282577e-06
-6.858539356e-07
-1.669945325e-08
-1.542290397e-08
-1.293025409e-08
-1.04518353e-08
-8.336442947e-09
-6.641411442e-09
-5.31964001e-09
-4.306756802e-09
-3.545296275e-09
-2.990401469e-09
-2.608193999e-09
-2.374248436e-09
-2.270796928e-09
-2.285707509e-09
-2.410563923e-09
-2.640384202e-09
-2.972333329e-09
-3.405958659e-09
-3.942231261e-09
-4.583902936e-09
-5.334613526e-09
-6.199278019e-09
-7.183286823e-09
-8.293007902e-09
-9.535051411e-09
-1.091666467e-08
-1.244480243e-08
-1.412648685e-08
-1.596802027e-08
-1.79758485e-08
-2.015625884e-08
-2.251625198e-08
-2.506258867e-08
-2.780150764e-08
-3.073712521e-08
-3.387194739e-08
-3.720750393e-08
-4.074728719e-08
-4.44979029e-08
-4.846963585e-08
-5.26738082e-08
-5.712156258e-08
-6.182365726e-08
-6.679498962e-08
-7.205882422e-08
-7.765057904e-08
-8.361667407e-08
-9.001323884e-08
-9.690472191e-08
-1.043667121e-07
-1.124877861e-07
-1.213707755e-07
-1.311293952e-07
-1.418855282e-07
-1.537631566e-07
-1.66877272e-07
-1.813022918e-07
-1.970155151e-07
-2.138047394e-07
-2.311397346e-07
-2.479812339e-07
-2.624970977e-07
-2.716576029e-07
-2.707892436e-07
-2.533860143e-07
-2.117042719e-07
-1.371476856e-07
-1.585895309e-08
1.925563131e-07
5.42895275e-07
1.101589527e-06
1.150762388e-06
2.544738922e-06
3.760077905e-06
-0.003506582087
-0.01378556113
616.2809487
3174.084098
0
0
0
0
0
0
0
0
0
0
0
0
0
0
0
0
0
0
0
0
0
0
0
0
2951.405507
480.4967044
-0.01290492533
-0.003184835034
2.292369325e-06
1.571886339e-06
5.391251099e-07
2.326376659e-07
-4.005284582e-07
-8.117509238e-07
-1.037119997e-06
-1.148774258e-06
-1.21636791e-06
-1.292993193e-06
-1.334700218e-06
-1.437275972e-06
-1.653665573e-06
-8.860306048e-07
-1.061869342e-08
-1.060133862e-08
-9.562840574e-09
-8.187432338e-09
-6.816804389e-09
-5.60561256e-09
-4.597492297e-09
-3.79100258e-09
-3.16897947e-09
-2.710859074e-09
-2.39802437e-09
-2.215086684e-09
-2.150347469e-09
-2.195259177e-09
-2.344120252e-09
-2.593488321e-09
-2.942014712e-09
-3.390016465e-09
-3.939469375e-09
-4.593596763e-09
-5.356837447e-09
-6.234470469e-09
-7.232617746e-09
-8.357976347e-09
-9.617825542e-09
-1.10197089e-08
-1.257132094e-08
-1.428018124e-08
-1.615373916e-08
-1.819941174e-08
-2.042500987e-08
-2.283858547e-08
-2.544816957e-08
-2.826074068e-08
-3.128181058e-08
-3.451560404e-08
-3.79668553e-08
-4.164267094e-08
-4.555384535e-08
-4.971376974e-08
-5.413664933e-08
-5.883612784e-08
-6.382745499e-08
-6.913143995e-08
-7.47789428e-08
-8.081144632e-08
-8.727907116e-08
-9.423715493e-08
-1.017461206e-07
-1.098731788e-07
-1.186943404e-07
-1.282917137e-07
-1.387462748e-07
-1.501251576e-07
-1.624646141e-07
-1.757399946e-07
-1.898170086e-07
-2.043712989e-07
-2.187782788e-07
-2.319661784e-07
-2.422327125e-07
-2.470145684e-07
-2.42628276e-07
-2.240422155e-07
-1.848030103e-07
-1.171450799e-07
-1.165246155e-08
1.447754359e-07
3.724704704e-07
6.850461656e-07
1.064622091e-06
1.321290354e-06
1.613972902e-06
2.515424817e-06
3.073144523e-06
5.101473464e-06
2.987395944e-06
-0.02202755759
5563.554862
-0.09849847288
13552.0111
0
0
0
0
0
0
0
0
0
0
0
0
0
0
0
0
0
0
13221.19698
-0.1069294435
5423.059159
-0.02111209208
2.192022501e-06
3.932822209e-06
2.199569351e-06
1.522693148e-06
7.772142804e-07
4.90144071e-07
1.848494e-07
-2.625191117e-07
-6.524550218e-07
-8.80122863e-07
-1.050369689e-06
-1.188324152e-06
-1.316761045e-06
-1.417792736e-06
-1.598653002e-06
-1.887605593e-06
-1.054285548e-06
-6.381321302e-09
-6.910628857e-09
-6.668166632e-09
-6.029327908e-09
-5.239613755e-09
-4.456802624e-09
-3.755849159e-09
-3.168280961e-09
-2.703169941e-09
-2.359042208e-09
-2.130328725e-09
-2.010671839e-09
-1.994385609e-09
-2.077166708e-09
-2.256144948e-09
-2.530047254e-09
-2.898988623e-09
-3.364571758e-09
-3.929631224e-09
-4.598236356e-09
-5.375421795e-09
-6.267111313e-09
-7.279913445e-09
-8.421061614e-09
-9.698234457e-09
-1.111946248e-08
-1.269288401e-08
-1.442671232e-08
-1.632918524e-08
-1.840879282e-08
-2.067428921e-08
-2.313467677e-08
-2.579855558e-08
-2.867357213e-08
-3.176609815e-08
-3.508216515e-08
-3.862907551e-08
-4.241712078e-08
-4.645975382e-08
-5.077231993e-08
-5.537018521e-08
-6.026904853e-08
-6.54877004e-08
-7.10526657e-08
-7.70005517e-08
-8.337727251e-08
-9.023393661e-08
-9.762405167e-08
-1.056034179e-07
-1.142330041e-07
-1.235801963e-07
-1.337149294e-07
-1.446979131e-07
-1.565616689e-07
-1.692814306e-07
-1.827337461e-07
-1.966317062e-07
-2.104358892e-07
-2.232344553e-07
-2.335987981e-07
-2.394117721e-07
-2.376782913e-07
-2.243329825e-07
-1.940944726e-07
-1.40422561e-07
-5.561028785e-08
6.907131901e-08
2.429397619e-07
4.736509802e-07
7.577107795e-07
1.070377861e-06
1.357684294e-06
1.710194745e-06
2.541659044e-06
2.768310471e-06
3.801265523e-06
3.424204303e-06
5.080062372e-06
1.080587606e-06
-6.650913144e-07
-0.03416345135
9223.36405
-0.1416273323
11575.92008
4149.438172
0
0
0
0
0
0
0
0
0
0
4108.587483
11508.17565
-0.1463281679
8939.768724
-0.03332963153
-7.570648851e-07
3.680437238e-07
3.898187596e-06
2.417465631e-06
2.781351824e-06
1.81181076e-06
1.63182649e-06
7.966796768e-07
4.397153212e-07
1.32437344e-07
-1.998153536e-07
-5.212804513e-07
-7.824124536e-07
-9.877552223e-07
-1.159108724e-06
-1.31330812e-06
-1.467624782e-06
-1.705878514e-06
-2.042176762e-06
-1.17763261e-06
-3.256539283e-09
-4.048567334e-09
-4.258918397e-09
-4.102561139e-09
-3.740688813e-09
-3.30632036e-09
-2.876725669e-09
-2.496030285e-09
-2.187493785e-09
-1.962039567e-09
-1.823883368e-09
-1.774011428e-09
-1.81216327e-09
-1.937960987e-09
-2.151442012e-09
-2.45348946e-09
-2.845891302e-09
-3.331491181e-09
-3.914178868e-09
-4.598806993e-09
-5.391111086e-09
-6.297591116e-09
-7.325380652e-09
-8.482148548e-09
-9.776003558e-09
-1.121533256e-08
-1.280874391e-08
-1.456498577e-08
-1.649301586e-08
-1.860207146e-08
-2.090163777e-08
-2.340116959e-08
-2.610956745e-08
-2.90347577e-08
-3.218388603e-08
-3.55644153e-08
-3.918576335e-08
-4.306029898e-08
-4.720293023e-08
-5.162946798e-08
-5.635568226e-08
-6.139855473e-08
-6.67801757e-08
-7.253142748e-08
-7.869320309e-08
-8.531340731e-08
-9.244280205e-08
-1.001323411e-07
-1.084348002e-07
-1.174085827e-07
-1.271197984e-07
-1.376376253e-07
-1.490200645e-07
-1.612887373e-07
-1.743932861e-07
-1.881601383e-07
-2.02223896e-07
-2.159330729e-07
-2.282332728e-07
-2.375237017e-07
-2.414930085e-07
-2.369370318e-07
-2.195835291e-07
-1.839605517e-07
-1.233652216e-07
-3.000666625e-08
1.044651656e-07
2.874072952e-07
5.213911821e-07
7.978727532e-07
1.096524973e-06
1.403141641e-06
1.776517925e-06
2.326201965e-06
2.490150969e-06
2.521883752e-06
2.221157423e-06
2.038379634e-06
2.570639139e-07
2.570610266e-06
8.102890811e-06
-0.02324489216
-3.570349516e-07
-0.02918088694
-0.02052889607
3994.277974
0
0
0
0
0
0
0
0
3748.04382
-0.01980520493
-0.02901011493
-3.689124337e-07
-0.02253000194
7.579303228e-06
2.01409137e-06
-7.405557487e-07
1.03027862e-06
1.215489494e-06
1.506108726e-06
1.493471442e-06
1.33969771e-06
8.0354111e-07
4.105153568e-07
1.125186302e-07
-1.932302915e-07
-4.853207343e-07
-7.435924602e-07
-9.442341777e-07
-1.153693895e-06
-1.342507009e-06
-1.53042938e-06
-1.755760822e-06
-2.134681802e-06
-1.246822036e-06
-8.758451117e-10
-1.801688198e-09
-2.278593299e-09
-2.438401674e-09
-2.383663691e-09
-2.220336158e-09
-2.016850855e-09
-1.818874274e-09
-1.655533093e-09
-1.544620227e-09
-1.496761916e-09
-1.518313523e-09
-1.613324093e-09
-1.784743898e-09
-2.03527083e-09
-2.36777605e-09
-2.785671268e-09
-3.293060934e-09
-3.894813805e-09
-4.596604778e-09
-5.404828836e-09
-6.326549972e-09
-7.36938603e-09
-8.54143216e-09
-9.851125992e-09
-1.130719592e-08
-1.291860259e-08
-1.469454741e-08
-1.664450263e-08
-1.877821553e-08
-2.110554753e-08
-2.363610849e-08
-2.637876314e-08
-2.934149889e-08
-3.253193103e-08
-3.595859127e-08
-3.963225044e-08
-4.356633597e-08
-4.777590131e-08
-5.227621088e-08
-5.708256865e-08
-6.221288398e-08
-6.769160898e-08
-7.355279556e-08
-7.983932271e-08
-8.659927886e-08
-9.388159226e-08
-1.017350907e-07
-1.102117241e-07
-1.193724412e-07
-1.292907292e-07
-1.400480836e-07
-1.517176739e-07
-1.643363832e-07
-1.778648581e-07
-1.921365277e-07
-2.067890229e-07
-2.211769898e-07
-2.342572624e-07
-2.444448618e-07
-2.494346517e-07
-2.460022693e-07
-2.298085837e-07
-1.952498956e-07
-1.353833834e-07
-4.195782398e-08
9.425641586e-08
2.819476373e-07
5.247678346e-07
8.129540632e-07
1.121318118e-06
1.429850273e-06
1.795882235e-06
2.326419192e-06
2.467915394e-06
2.469642664e-06
2.126943365e-06
1.971694449e-06
1.10206083e-07
2.58875551e-06
8.002344713e-06
-0.02320460568
-3.58723498e-07
-0.02912897376
-0.02047011977
3993.507447
0
0
0
0
0
0
0
0
3747.185658
-0.01975050479
-0.0289627641
-3.704106698e-07
-0.02249377599
7.61430402e-06
1.969126311e-06
-7.59837742e-07
9.274267631e-07
1.132962164e-06
1.468297306e-06
1.435340296e-06
1.262736949e-06
7.165473113e-07
3.611213734e-07
1.105526116e-07
-1.861148965e-07
-4.76104788e-07
-7.449537234e-07
-9.486070504e-07
-1.166801004e-06
-1.348656926e-06
-1.514669285e-06
-1.766031512e-06
-2.146308292e-06
-1.258628597e-06
9.73553371e-10
-2.151926197e-11
-6.593337738e-10
-1.027666031e-09
-1.19098449e-09
-1.233256154e-09
-1.211593434e-09
-1.168172875e-09
-1.133104582e-09
-1.127216329e-09
-1.164769835e-09
-1.255658438e-09
-1.407035569e-09
-1.624505791e-09
-1.912927596e-09
-2.276965516e-09
-2.721457439e-09
-3.251668996e-09
-3.873389236e-09
-4.593045938e-09
-5.41764873e-09
-6.354802066e-09
-7.412551851e-09
-8.599354374e-09
-9.923943945e-09
-1.139529296e-08
-1.302263768e-08
-1.48154857e-08
-1.678363338e-08
-1.893707244e-08
-2.128572157e-08
-2.383903183e-08
-2.660559002e-08
-2.959323408e-08
-3.28097552e-08
-3.626421459e-08
-3.99678853e-08
-4.393408714e-08
-4.817694424e-08
-5.271027982e-08
-5.754851338e-08
-6.270978717e-08
-6.82198933e-08
-7.411393833e-08
-8.043465686e-08
-8.722811999e-08
-9.454063055e-08
-1.024193578e-07
-1.109180955e-07
-1.201056053e-07
-1.300709624e-07
-1.409194563e-07
-1.527557239e-07
-1.656548852e-07
-1.796259949e-07
-1.945665314e-07
-2.102063113e-07
-2.260301847e-07
-2.411693443e-07
-2.54243389e-07
-2.631524223e-07
-2.648360479e-07
-2.550422973e-07
-2.281530554e-07
-1.770552104e-07
-9.288479888e-08
3.554192904e-08
2.219386592e-07
4.78635086e-07
8.005728995e-07
1.146100319e-06
1.443848674e-06
1.77569501e-06
2.563771685e-06
2.644704849e-06
3.639630147e-06
3.167144647e-06
4.955159619e-06
9.612679271e-07
-7.362421402e-07
-0.03408955694
9207.413537
-0.1423037436
11555.32636
4126.892416
0
0
0
0
0
0
0
0
0
0
4087.746362
11489.39177
-0.1469344455
8925.379894
-0.03326498934
-7.469662118e-07
2.042033769e-07
3.701034945e-06
2.01328452e-06
2.441559133e-06
1.560884521e-06
1.425593671e-06
6.298828355e-07
3.420700031e-07
1.053864298e-07
-2.018925864e-07
-5.028974632e-07
-7.724120049e-07
-9.635701056e-07
-1.16902522e-06
-1.331454104e-06
-1.526655075e-06
-1.730510066e-06
-2.082363303e-06
-1.213555751e-06
2.424735342e-09
1.396203626e-09
6.602416409e-10
1.537024328e-10
-1.635001343e-10
-3.593377739e-10
-4.804861517e-10
-5.639999097e-10
-6.384916387e-10
-7.254199385e-10
-8.406982584e-10
-9.962927945e-10
-1.201420917e-09
-1.463620254e-09
-1.789438585e-09
-2.184987143e-09
-2.656346318e-09
-3.209732817e-09
-3.851803368e-09
-4.589605757e-09
-5.430754004e-09
-6.383283088e-09
-7.455664748e-09
-8.656613324e-09
-9.995092793e-09
-1.148025109e-08
-1.312148241e-08
-1.492845754e-08
-1.69110868e-08
-1.907934978e-08
-2.144297012e-08
-2.401096452e-08
-2.679145292e-08
-2.97918272e-08
-3.301971309e-08
-3.648407232e-08
-4.019577126e-08
-4.416702709e-08
-4.84100735e-08
-5.293668143e-08
-5.775977477e-08
-6.289695614e-08
-6.837368006e-08
-7.422396995e-08
-8.048780158e-08
-8.720740912e-08
-9.442540494e-08
-1.021877736e-07
-1.105523495e-07
-1.19599826e-07
-1.294407976e-07
-1.402121197e-07
-1.520604626e-07
-1.651177708e-07
-1.794731508e-07
-1.951439263e-07
-2.120390922e-07
-2.299014062e-07
-2.482003463e-07
-2.659552778e-07
-2.814853419e-07
-2.921092501e-07
-2.938559777e-07
-2.81275048e-07
-2.473611727e-07
-1.832423057e-07
-7.630721466e-08
9.440033321e-08
3.612212498e-07
7.441224285e-07
1.191598847e-06
1.481653435e-06
1.745803495e-06
2.508521707e-06
2.889222431e-06
4.861531155e-06
2.805386581e-06
-0.02192305842
5548.404928
-0.09934342961
13522.65712
0
0
0
0
0
0
0
0
0
0
0
0
0
0
0
0
0
0
13195.55003
-0.1076563891
5410.19045
-0.0210247709
1.820481984e-06
3.376029831e-06
1.741405734e-06
1.263851302e-06
4.850631268e-07
3.737668436e-07
1.688906915e-07
-2.106154085e-07
-5.681332669e-07
-8.30846355e-07
-1.023694447e-06
-1.18988385e-06
-1.322626605e-06
-1.466189195e-06
-1.650511099e-06
-1.9656215e-06
-1.115970649e-06
3.566824943e-09
2.526129917e-09
1.731263974e-09
1.133381625e-09
7.083199063e-10
3.991182281e-10
1.677025493e-10
-1.782588444e-11
-1.835560316e-10
-3.502451596e-10
-5.342095378e-10
-7.483698365e-10
-1.003225479e-09
-1.30757859e-09
-1.669234235e-09
-2.095421653e-09
-2.593177868e-09
-3.169562984e-09
-3.831869189e-09
-4.587778895e-09
-5.445346002e-09
-6.413049979e-09
-7.499648546e-09
-8.714090682e-09
-1.006546487e-08
-1.156300044e-08
-1.321615709e-08
-1.503461151e-08
-1.7028199e-08
-1.920666879e-08
-2.157926983e-08
-2.415442382e-08
-2.693950113e-08
-2.994126558e-08
-3.316672858e-08
-3.662407406e-08
-4.032289337e-08
-4.427335074e-08
-4.848509721e-08
-5.296731116e-08
-5.77308223e-08
-6.279143209e-08
-6.81723422e-08
-7.390388891e-08
-8.002087134e-08
-8.655964596e-08
-9.355806441e-08
-1.010609016e-07
-1.091310669e-07
-1.178628698e-07
-1.27390083e-07
-1.378825691e-07
-1.495328438e-07
-1.62539459e-07
-1.770958297e-07
-1.933855591e-07
-2.115756499e-07
-2.317816257e-07
-2.539689601e-07
-2.777645197e-07
-3.021675036e-07
-3.251704853e-07
-3.433291173e-07
-3.51460007e-07
-3.428167433e-07
-3.097078284e-07
-2.417897815e-07
-1.165932772e-07
1.334052632e-07
5.965687083e-07
1.257018154e-06
1.481164114e-06
2.76704797e-06
3.712683239e-06
-0.003466347419
-0.01367694819
599.805732
3147.737433
0
0
0
0
0
0
0
0
0
0
0
0
0
0
0
0
0
0
0
0
0
0
0
0
2929.58301
467.0315035
-0.01281789817
-0.003153554003
2.247690798e-06
1.669830333e-06
5.099191264e-07
3.832481463e-07
-2.351185824e-07
-6.896963519e-07
-9.270114137e-07
-1.106792347e-06
-1.22251257e-06
-1.296871176e-06
-1.393338083e-06
-1.523279955e-06
-1.789654121e-06
-9.704239988e-07
4.46267251e-09
3.423524433e-09
2.595280728e-09
1.938077787e-09
1.438254597e-09
1.046446214e-09
7.311498113e-10
4.650853122e-10
2.248768617e-10
-8.842789792e-12
-2.520683842e-10
-5.179836036e-10
-8.177060426e-10
-1.16084509e-09
-1.556042772e-09
-2.011343133e-09
-2.534490859e-09
-3.133192633e-09
-3.815300784e-09
-4.588946314e-09
-5.46265075e-09
-6.44518558e-09
-7.54555334e-09
-8.7728314e-09
-1.013614857e-08
-1.164474162e-08
-1.330802021e-08
-1.513555192e-08
-1.71369229e-08
-1.932142857e-08
-2.169767943e-08
-2.427325061e-08
-2.705462131e-08
-3.004759899e-08
-3.325813475e-08
-3.669301347e-08
-4.03597622e-08
-4.42657701e-08
-4.841748942e-08
-5.282096155e-08
-5.748406097e-08
-6.241933294e-08
-6.764548958e-08
-7.318665662e-08
-7.90699802e-08
-8.532389288e-08
-9.198000824e-08
-9.908091994e-08
-1.066938453e-07
-1.149251443e-07
-1.239279518e-07
-1.338996093e-07
-1.450730113e-07
-1.57713297e-07
-1.721291082e-07
-1.887002524e-07
-2.079064809e-07
-2.303219728e-07
-2.565423223e-07
-2.870211183e-07
-3.217940037e-07
-3.599997196e-07
-3.991249008e-07
-4.341451909e-07
-4.576108218e-07
-4.621546095e-07
-4.465142725e-07
-4.024763663e-07
-2.279738283e-07
2.8678101e-07
1.269711181e-06
1.734730832e-06
3.058249263e-06
-1.144452535e-06
1375.675847
4825.653923
0
0
0
0
0
0
0
0
0
0
0
0
0
0
0
0
0
0
0
0
0
0
0
0
0
0
0
0
4617.619145
1251.214293
-1.732085319e-06
2.265335455e-06
1.441580331e-06
7.144896804e-07
-3.779564448e-07
-8.647037972e-07
-1.086217703e-06
-1.18828376e-06
-1.230004168e-06
-1.287966441e-06
-1.288571606e-06
-1.391701019e-06
-1.551175463e-06
-7.89515262e-07
5.158548427e-09
4.130136601e-09
3.285914672e-09
2.591757625e-09
2.041333949e-09
1.590305086e-09
1.212230324e-09
8.836257424e-10
5.837574853e-10
2.947488865e-10
1.39384022e-12
-3.093346409e-10
-6.48738124e-10
-1.026853172e-09
-1.452828874e-09
-1.935268979e-09
-2.482390804e-09
-3.102397458e-09
-3.803559101e-09
-4.594419614e-09
-5.483801979e-09
-6.48077687e-09
-7.59444195e-09
-8.833945056e-09
-1.020835724e-08
-1.172686308e-08
-1.339871591e-08
-1.523327999e-08
-1.723973646e-08
-1.942676774e-08
-2.180215238e-08
-2.437246653e-08
-2.714306855e-08
-3.011856024e-08
-3.330339969e-08
-3.67023708e-08
-4.032028682e-08
-4.416119267e-08
-4.822785719e-08
-5.252257349e-08
-5.704919706e-08
-6.181527111e-08
-6.683278714e-08
-7.211721542e-08
-7.768567209e-08
-8.355661354e-08
-8.97534835e-08
-9.631474947e-08
-1.033088923e-07
-1.108484406e-07
-1.190965486e-07
-1.282649672e-07
-1.386129283e-07
-1.504602047e-07
-1.642253108e-07
-1.804876143e-07
-2.000506628e-07
-2.239758262e-07
-2.535670424e-07
-2.903143446e-07
-3.357408332e-07
-3.909382834e-07
-4.553362273e-07
-5.244270191e-07
-5.869037129e-07
-6.297255475e-07
-6.511078211e-07
-6.951133758e-07
-6.822279603e-07
-4.108540836e-07
1.087292896e-06
-0.005123927347
-0.05008451573
14934.86698
0
0
0
0
0
0
0
0
0
0
0
0
0
0
0
0
0
0
0
0
0
0
0
0
0
0
0
0
0
0
0
0
14772.36254
-0.04907817876
-0.004771320853
7.12756015e-07
-7.562825983e-07
-1.210483134e-06
-1.250353004e-06
-1.241801439e-06
-1.244603999e-06
-1.24967666e-06
-1.210946104e-06
-1.20994744e-06
-1.28959937e-06
-5.852352919e-07
5.689625564e-09
4.678565826e-09
3.830511169e-09
3.115432737e-09
2.532186724e-09
2.039854933e-09
1.615737607e-09
1.239482356e-09
8.926233365e-10
5.588425059e-10
2.238274291e-10
-1.250045206e-10
-4.98900139e-10
-9.080235389e-10
-1.361810107e-09
-1.869109339e-09
-2.438552417e-09
-3.078602264e-09
-3.797909513e-09
-4.605295509e-09
-5.509880606e-09
-6.520846351e-09
-7.647398748e-09
-8.89856913e-09
-1.028338623e-08
-1.181085653e-08
-1.349008234e-08
-1.533009193e-08
-1.733956254e-08
-1.952641454e-08
-2.189743829e-08
-2.445803464e-08
-2.721229157e-08
-3.016331962e-08
-3.331373742e-08
-3.666586437e-08
-4.022132033e-08
-4.398032953e-08
-4.79414938e-08
-5.210262573e-08
-5.646237726e-08
-6.102155789e-08
-6.578336841e-08
-7.075238072e-08
-7.593356947e-08
-8.133306184e-08
-8.696374873e-08
-9.285676463e-08
-9.907649142e-08
-1.057325139e-07
-1.129833697e-07
-1.210362592e-07
-1.301545259e-07
-1.406887473e-07
-1.531418038e-07
-1.682601971e-07
-1.871263926e-07
-2.112313395e-07
-2.425536326e-07
-2.836992809e-07
-3.38075001e-07
-4.098191583e-07
-5.027150437e-07
-6.156111962e-07
-7.343136558e-07
-8.193840611e-07
-8.180058243e-07
-8.489160846e-07
-1.188341801e-06
-1.062340407e-06
-0.001469919383
2032.98644
4933.644358
0
0
0
0
0
0
0
0
0
0
0
0
0
0
0
0
0
0
0
0
0
0
0
0
0
0
0
0
0
0
0
0
0
0
4697.079632
1893.035375
-0.001026829299
-1.030378171e-06
-1.366340068e-06
-1.215202983e-06
-1.224952935e-06
-1.236709393e-06
-1.190475211e-06
-1.077426589e-06
-9.99696275e-07
-1.018623865e-06
-3.811033271e-07
6.083508967e-09
5.094510527e-09
4.251496458e-09
3.527217422e-09
2.92447348e-09
2.404557172e-09
1.947685853e-09
1.535959412e-09
1.15284677e-09
7.834685842e-10
4.144326163e-10
3.370002647e-11
-3.697028487e-10
-8.059269545e-10
-1.284430901e-09
-1.81426615e-09
-2.404178998e-09
-3.062916627e-09
-3.799333043e-09
-4.622534302e-09
-5.541775112e-09
-6.566348016e-09
-7.70537324e-09
-8.967812578e-09
-1.036249533e-08
-1.189829455e-08
-1.358407206e-08
-1.542850255e-08
-1.7439617e-08
-1.962448735e-08
-2.198875279e-08
-2.453655611e-08
-2.727053613e-08
-3.019212482e-08
-3.330181592e-08
-3.659912571e-08
-4.008212181e-08
-4.374688223e-08
-4.758736883e-08
-5.159614332e-08
-5.576537458e-08
-6.008756705e-08
-6.455525698e-08
-6.916032449e-08
-7.389345938e-08
-7.874639864e-08
-8.371869514e-08
-8.882989739e-08
-9.413288946e-08
-9.972187668e-08
-1.05733344e-07
-1.123470471e-07
-1.19802739e-07
-1.284483837e-07
-1.388252908e-07
-1.517777552e-07
-1.685605534e-07
-1.909467914e-07
-2.213964677e-07
-2.633841663e-07
-3.219915038e-07
-4.049462519e-07
-5.232597781e-07
-6.900691708e-07
-8.990093343e-07
-1.095136786e-06
-1.065832692e-06
-1.073529546e-06
-1.002849364e-06
-0.001691058962
1164.572683
0
0
0
0
0
0
0
0
0
0
0
0
0
0
0
0
0
0
0
0
0
0
0
0
0
0
0
0
0
0
0
0
0
0
0
0
0
0
812.887481
-0.001025189218
-8.381964317e-07
-1.114705913e-06
-1.258499592e-06
-1.262913958e-06
-1.106153647e-06
-8.897400248e-07
-8.124533296e-07
-7.479528068e-07
-1.979288052e-07
6.362192262e-09
5.398945723e-09
4.567458781e-09
3.842728555e-09
3.230532099e-09
2.693703559e-09
2.214601678e-09
1.777322433e-09
1.366947772e-09
9.698485977e-10
5.735367519e-10
1.66543555e-10
-2.61770093e-10
-7.213275262e-10
-1.221578356e-09
-1.771535087e-09
-2.380082559e-09
-3.056076508e-09
-3.808575494e-09
-4.646841338e-09
-5.580250617e-09
-6.61804665e-09