/*--------------------------------*- C++ -*----------------------------------*\
  =========                 |
  \\      /  F ield         | OpenFOAM: The Open Source CFD Toolbox
   \\    /   O peration     | Website:  https://openfoam.org
    \\  /    A nd           | Version:  6
     \\/     M anipulation  |
\*---------------------------------------------------------------------------*/
FoamFile
{
    version     2.0;
    format      ascii;
    class       volScalarField;
    location    "0.0035";
    object      Num_divU;
}
// * * * * * * * * * * * * * * * * * * * * * * * * * * * * * * * * * * * * * //

dimensions      [0 0 -1 0 0 0 0];

internalField   nonuniform List<scalar> 
9600
(
3.219114425e-08
6.825500763e-08
6.693184974e-08
6.797596925e-08
6.696735069e-08
6.59784751e-08
6.497422045e-08
6.395539138e-08
6.290081806e-08
6.183174017e-08
6.073986309e-08
5.965409514e-08
5.856852966e-08
5.751090516e-08
5.647036505e-08
5.546856715e-08
5.448754185e-08
5.354489624e-08
5.261989327e-08
5.173003322e-08
5.085301562e-08
5.000321775e-08
4.915199623e-08
4.830788691e-08
4.743803244e-08
4.655310068e-08
4.562599507e-08
4.46753056e-08
4.367749722e-08
4.264956603e-08
4.155990747e-08
4.041789614e-08
3.918733167e-08
3.788124446e-08
3.647098667e-08
3.497843179e-08
3.337767637e-08
3.168728955e-08
2.987148911e-08
2.794026625e-08
2.585262791e-08
2.362272067e-08
2.121987043e-08
1.867498989e-08
1.597372054e-08
1.316276136e-08
1.023647119e-08
7.245223816e-09
4.178156565e-09
1.076878404e-09
-2.081572282e-09
-5.261997537e-09
-8.487967407e-09
-1.17141746e-08
-1.495217503e-08
-1.814675379e-08
-2.13145026e-08
-2.441840385e-08
-2.750582117e-08
-3.056566857e-08
-3.365960805e-08
-3.676907299e-08
-3.993888853e-08
-4.313311197e-08
-4.639777221e-08
-4.971393758e-08
-5.315662665e-08
-5.672481934e-08
-6.04931011e-08
-6.44351999e-08
-6.859541887e-08
-7.292697732e-08
-7.748536927e-08
-8.226379792e-08
-8.738056713e-08
-9.289151775e-08
-9.896864999e-08
-1.057062918e-07
-1.133155264e-07
-1.219449699e-07
-1.318950343e-07
-1.434424801e-07
-1.570516439e-07
-1.731808605e-07
-1.924750058e-07
-2.155545238e-07
-2.432017679e-07
-2.761550826e-07
-3.153088056e-07
-3.615237481e-07
-4.15833669e-07
-4.792549322e-07
-5.529771626e-07
-6.381618157e-07
-7.36118548e-07
-8.481072731e-07
-9.755127174e-07
-1.119653483e-06
-1.281948548e-06
-1.463728653e-06
-1.666396771e-06
-1.891264381e-06
-2.139718111e-06
-2.41306726e-06
-2.712659302e-06
-3.039667445e-06
-3.39513776e-06
-3.779797143e-06
-4.194179378e-06
-4.638539012e-06
-5.112983696e-06
-5.617367392e-06
-6.151321775e-06
-6.714119501e-06
-7.304322432e-06
-7.919369576e-06
-8.558774708e-06
-9.249642768e-06
-1.038775287e-05
-5.558986669e-06
3.162243135e-08
6.715541399e-08
6.696227889e-08
6.786043243e-08
6.695669849e-08
6.598399666e-08
6.502333012e-08
6.400473981e-08
6.298944713e-08
6.191927275e-08
6.086821558e-08
5.978294004e-08
5.874098475e-08
5.768612054e-08
5.669258955e-08
5.569588912e-08
5.476609617e-08
5.383223896e-08
5.296399479e-08
5.208727511e-08
5.127213526e-08
5.043860858e-08
4.965284546e-08
4.882678162e-08
4.802593476e-08
4.716188032e-08
4.630779631e-08
4.537916024e-08
4.445395259e-08
4.344214365e-08
4.241701047e-08
4.127862282e-08
4.009995306e-08
3.878154981e-08
3.740562138e-08
3.587593401e-08
3.427832803e-08
3.250847192e-08
3.064668041e-08
2.8578085e-08
2.638426109e-08
2.395231837e-08
2.137846057e-08
1.856130132e-08
1.561579815e-08
1.245003355e-08
9.191641713e-09
5.749043565e-09
2.252444178e-09
-1.398472772e-09
-5.075058921e-09
-8.883868033e-09
-1.268745539e-08
-1.658528234e-08
-2.042169797e-08
-2.429186478e-08
-2.803897423e-08
-3.178007018e-08
-3.537906033e-08
-3.897996744e-08
-4.245108598e-08
-4.59343219e-08
-4.927868053e-08
-5.262154834e-08
-5.581537152e-08
-5.902760609e-08
-6.213921659e-08
-6.53453564e-08
-6.852650511e-08
-7.186562818e-08
-7.521922379e-08
-7.876618703e-08
-8.237961825e-08
-8.628633122e-08
-9.041642493e-08
-9.505501769e-08
-1.001743869e-07
-1.06093062e-07
-1.128173236e-07
-1.207195264e-07
-1.298928536e-07
-1.40831466e-07
-1.537813296e-07
-1.694004265e-07
-1.881009174e-07
-2.106887993e-07
-2.377137318e-07
-2.701018332e-07
-3.085323166e-07
-3.540641491e-07
-4.075367672e-07
-4.701695255e-07
-5.429736525e-07
-6.273128464e-07
-7.243344063e-07
-8.354995522e-07
-9.620472337e-07
-1.105491567e-06
-1.267115383e-06
-1.448425697e-06
-1.650691334e-06
-1.875374076e-06
-2.123730254e-06
-2.397199279e-06
-2.697007435e-06
-3.024439561e-06
-3.380425396e-06
-3.765781158e-06
-4.180942416e-06
-4.62625127e-06
-5.10175652e-06
-5.60740155e-06
-6.142857754e-06
-6.707530722e-06
-7.300337895e-06
-7.919146313e-06
-8.565841701e-06
-9.268188014e-06
-1.047012631e-05
-5.624071881e-06
3.150496747e-08
6.69034956e-08
6.670912641e-08
6.7729754e-08
6.686760201e-08
6.595938889e-08
6.500272843e-08
6.402856547e-08
6.300659796e-08
6.197730292e-08
6.091743781e-08
5.987336533e-08
5.88225043e-08
5.780978251e-08
5.680714022e-08
5.585409784e-08
5.491574027e-08
5.402839492e-08
5.315358121e-08
5.232675107e-08
5.150560256e-08
5.072221375e-08
4.992784946e-08
4.915077294e-08
4.833926363e-08
4.752482251e-08
4.665867436e-08
4.57772924e-08
4.483088717e-08
4.385318284e-08
4.278697637e-08
4.166206354e-08
4.041877623e-08
3.909097643e-08
3.762178548e-08
3.604836285e-08
3.431006844e-08
3.243952706e-08
3.036790831e-08
2.812608543e-08
2.564584353e-08
2.29675419e-08
2.003283911e-08
1.689634577e-08
1.350970418e-08
9.93951225e-09
6.143548079e-09
2.196207448e-09
-1.942879825e-09
-6.195200591e-09
-1.060112397e-08
-1.507565307e-08
-1.965290456e-08
-2.423362612e-08
-2.884216224e-08
-3.33706566e-08
-3.784979436e-08
-4.218371543e-08
-4.642457874e-08
-5.048898257e-08
-5.443556333e-08
-5.817229606e-08
-6.175187655e-08
-6.508108628e-08
-6.823278322e-08
-7.114384104e-08
-7.392489735e-08
-7.653583583e-08
-7.909652318e-08
-8.155830873e-08
-8.403562555e-08
-8.64854311e-08
-8.905284267e-08
-9.174025104e-08
-9.474571576e-08
-9.811483101e-08
-1.020784759e-07
-1.067087357e-07
-1.122732551e-07
-1.189039975e-07
-1.269593593e-07
-1.366914776e-07
-1.485972866e-07
-1.630771491e-07
-1.807727061e-07
-2.02225895e-07
-2.282121882e-07
-2.594115158e-07
-2.967403676e-07
-3.410363538e-07
-3.933797392e-07
-4.547826781e-07
-5.264887443e-07
-6.096661228e-07
-7.056879838e-07
-8.158395846e-07
-9.415819116e-07
-1.084271394e-06
-1.245397999e-06
-1.426318932e-06
-1.628482764e-06
-1.85320651e-06
-2.101901547e-06
-2.375874574e-06
-2.676488537e-06
-3.004907619e-06
-3.362173757e-06
-3.748993881e-06
-4.165899449e-06
-4.613164203e-06
-5.090945233e-06
-5.599191557e-06
-6.137728203e-06
-6.706156169e-06
-7.303733193e-06
-7.929189942e-06
-8.58526741e-06
-9.30232587e-06
-1.052967192e-05
-5.663340415e-06
3.142136087e-08
6.670009377e-08
6.65366458e-08
6.758471292e-08
6.677876622e-08
6.589137798e-08
6.49743024e-08
6.400670579e-08
6.301622039e-08
6.198845494e-08
6.095809939e-08
5.991407449e-08
5.889224134e-08
5.787834552e-08
5.690402318e-08
5.594875398e-08
5.503936854e-08
5.415047124e-08
5.330659275e-08
5.247848256e-08
5.168754006e-08
5.089915725e-08
5.013053484e-08
4.934307625e-08
4.855421746e-08
4.772595123e-08
4.687886871e-08
4.597478191e-08
4.503292155e-08
4.400999281e-08
4.292136126e-08
4.172051774e-08
4.042402706e-08
3.898596983e-08
3.742442721e-08
3.568997746e-08
3.379598446e-08
3.168602609e-08
2.937131317e-08
2.679615831e-08
2.39801774e-08
2.087673132e-08
1.751727052e-08
1.386311518e-08
9.954528912e-09
5.75860056e-09
1.324833544e-09
-3.371379709e-09
-8.268511858e-09
-1.338155824e-08
-1.863679667e-08
-2.403981778e-08
-2.950392631e-08
-3.502486923e-08
-4.050512153e-08
-4.593809256e-08
-5.122784334e-08
-5.637841013e-08
-6.130244069e-08
-6.60117977e-08
-7.041738574e-08
-7.452961754e-08
-7.825945238e-08
-8.163290078e-08
-8.458816667e-08
-8.719101303e-08
-8.941520851e-08
-9.135417164e-08
-9.299286519e-08
-9.443130567e-08
-9.56628892e-08
-9.681214997e-08
-9.790994383e-08
-9.912717589e-08
-1.005351178e-07
-1.023348947e-07
-1.046186712e-07
-1.076126172e-07
-1.114511321e-07
-1.164293121e-07
-1.227770411e-07
-1.309027457e-07
-1.411597153e-07
-1.540813361e-07
-1.701500474e-07
-1.900318756e-07
-2.143535772e-07
-2.439340762e-07
-2.795662186e-07
-3.222388725e-07
-3.729215184e-07
-4.327732698e-07
-5.029307398e-07
-5.8470478e-07
-6.793752083e-07
-7.883742899e-07
-9.130873761e-07
-1.055014944e-06
-1.215576308e-06
-1.396253272e-06
-1.59841923e-06
-1.823493788e-06
-2.072814452e-06
-2.347776985e-06
-2.649676216e-06
-2.979750501e-06
-3.338975317e-06
-3.728115531e-06
-4.147653194e-06
-4.59793141e-06
-5.079108318e-06
-5.591237554e-06
-6.134241536e-06
-6.707908946e-06
-7.311871819e-06
-7.94506145e-06
-8.611420032e-06
-9.340002736e-06
-1.058577695e-05
-5.69579707e-06
3.136580248e-08
6.657623795e-08
6.639140486e-08
6.746104779e-08
6.667130211e-08
6.581600045e-08
6.491120222e-08
6.396985474e-08
6.298629657e-08
6.198129549e-08
6.095527129e-08
5.993244696e-08
5.891300609e-08
5.791858656e-08
5.694433009e-08
5.600690167e-08
5.509648693e-08
5.422572039e-08
5.338046652e-08
5.256961135e-08
5.177342397e-08
5.099648139e-08
5.021498703e-08
4.943216275e-08
4.862399011e-08
4.779474765e-08
4.691977452e-08
4.600099171e-08
4.500904065e-08
4.394217461e-08
4.276826192e-08
4.14859085e-08
4.006357701e-08
3.849991915e-08
3.67588838e-08
3.483243939e-08
3.267625725e-08
3.027806839e-08
2.759446336e-08
2.462122458e-08
2.132586627e-08
1.771626517e-08
1.376782317e-08
9.494151198e-09
4.873512106e-09
-7.446998864e-11
-5.362104798e-09
-1.095387085e-08
-1.684357101e-08
-2.297462333e-08
-2.932251123e-08
-3.581348988e-08
-4.241033254e-08
-4.902815502e-08
-5.562339426e-08
-6.210682398e-08
-6.843512377e-08
-7.451898433e-08
-8.031560363e-08
-8.573278225e-08
-9.072682619e-08
-9.520852985e-08
-9.91497562e-08
-1.024888894e-07
-1.052377305e-07
-1.073765614e-07
-1.089556894e-07
-1.099828546e-07
-1.105298722e-07
-1.106246554e-07
-1.103687781e-07
-1.098298864e-07
-1.091561615e-07
-1.084565722e-07
-1.079085251e-07
-1.076368818e-07
-1.078330589e-07
-1.086483642e-07
-1.10324991e-07
-1.130911066e-07
-1.172833159e-07
-1.232314135e-07
-1.313732091e-07
-1.421426594e-07
-1.560920664e-07
-1.737911422e-07
-1.959500425e-07
-2.233156979e-07
-2.567824803e-07
-2.972823008e-07
-3.458857784e-07
-4.036959466e-07
-4.719470973e-07
-5.51903652e-07
-6.449521436e-07
-7.524980778e-07
-8.760398648e-07
-1.017057853e-06
-1.177071115e-06
-1.357531724e-06
-1.559890811e-06
-1.785530896e-06
-2.035852459e-06
-2.312214207e-06
-2.615962752e-06
-2.948296876e-06
-3.310228692e-06
-3.702484563e-06
-4.125582603e-06
-4.579857509e-06
-5.065532029e-06
-5.582707125e-06
-6.131409495e-06
-6.711580089e-06
-7.322940037e-06
-7.964887842e-06
-8.640695881e-06
-9.381363561e-06
-1.063982535e-05
-5.727061865e-06
3.132180361e-08
6.646450773e-08
6.626968922e-08
6.733675937e-08
6.656309173e-08
6.571893562e-08
6.483319418e-08
6.390177694e-08
6.293505915e-08
6.193769134e-08
6.092663128e-08
5.990923202e-08
5.89024427e-08
5.791040173e-08
5.694588674e-08
5.600829006e-08
5.510595312e-08
5.423369112e-08
5.33950038e-08
5.257899831e-08
5.178356351e-08
5.09931589e-08
5.02033689e-08
4.939789076e-08
4.857314053e-08
4.771173809e-08
4.680675228e-08
4.583521011e-08
4.478491557e-08
4.362920833e-08
4.235567467e-08
4.093915219e-08
3.936789113e-08
3.761277856e-08
3.565382153e-08
3.3451026e-08
3.097620247e-08
2.818711223e-08
2.506215585e-08
2.157151523e-08
1.770785333e-08
1.345184873e-08
8.801675393e-09
3.738838014e-09
-1.73688195e-09
-7.637977182e-09
-1.394972895e-08
-2.06619624e-08
-2.773169701e-08
-3.512017057e-08
-4.275838762e-08
-5.058753553e-08
-5.852324021e-08
-6.64963963e-08
-7.441439185e-08
-8.220136728e-08
-8.975641496e-08
-9.699424438e-08
-1.038030526e-07
-1.100901361e-07
-1.157438592e-07
-1.206858128e-07
-1.248333445e-07
-1.28150368e-07
-1.30601742e-07
-1.321978117e-07
-1.329425184e-07
-1.328801158e-07
-1.320473968e-07
-1.305290162e-07
-1.28411714e-07
-1.258368458e-07
-1.229431346e-07
-1.199090352e-07
-1.168910574e-07
-1.140741492e-07
-1.116258889e-07
-1.097626311e-07
-1.087099869e-07
-1.087625162e-07
-1.102310331e-07
-1.134909186e-07
-1.189301793e-07
-1.270092019e-07
-1.382262811e-07
-1.531877153e-07
-1.725717558e-07
-1.971837315e-07
-2.279031083e-07
-2.65724289e-07
-3.117034625e-07
-3.670037768e-07
-4.328523149e-07
-5.105869256e-07
-6.016091891e-07
-7.074137277e-07
-8.295251003e-07
-9.695067936e-07
-1.128891786e-06
-1.309193832e-06
-1.511862167e-06
-1.738323828e-06
-1.989970522e-06
-2.268193528e-06
-2.574322634e-06
-2.909574186e-06
-3.274934233e-06
-3.671139344e-06
-4.098692651e-06
-4.557956512e-06
-5.049175314e-06
-5.572506079e-06
-6.128044237e-06
-6.715777426e-06
-7.335619172e-06
-7.986662461e-06
-8.673046856e-06
-9.423232896e-06
-1.069629542e-05
-5.759444529e-06
3.127463398e-08
6.635583474e-08
6.61473658e-08
6.721235945e-08
6.644262112e-08
6.5609408e-08
6.473219364e-08
6.381297981e-08
6.285430514e-08
6.186794972e-08
6.086313041e-08
5.985455064e-08
5.885095597e-08
5.786431049e-08
5.689928202e-08
5.596397858e-08
5.505844767e-08
5.418598304e-08
5.334046333e-08
5.251868347e-08
5.170836966e-08
5.090228652e-08
5.008681148e-08
4.925514508e-08
4.839339737e-08
4.749190186e-08
4.653064291e-08
4.549243061e-08
4.435090014e-08
4.308663513e-08
4.167438168e-08
4.009663516e-08
3.832618472e-08
3.633829294e-08
3.409351371e-08
3.155441538e-08
2.867427314e-08
2.541781484e-08
2.174909779e-08
1.764856579e-08
1.309428243e-08
8.074834945e-09
2.569579476e-09
-3.434125462e-09
-9.955293397e-09
-1.69955793e-08
-2.455224761e-08
-3.259563397e-08
-4.108715522e-08
-4.996191484e-08
-5.915119257e-08
-6.856615415e-08
-7.812036512e-08
-8.771075079e-08
-9.723786931e-08
-1.065834389e-07
-1.15629701e-07
-1.242373056e-07
-1.322697336e-07
-1.395775786e-07
-1.460307555e-07
-1.515055476e-07
-1.55915354e-07
-1.591897134e-07
-1.612969761e-07
-1.622162564e-07
-1.619604443e-07
-1.60552256e-07
-1.580557601e-07
-1.545564389e-07
-1.501911288e-07
-1.451172015e-07
-1.395288409e-07
-1.336162103e-07
-1.275837768e-07
-1.216239798e-07
-1.159543532e-07
-1.108043201e-07
-1.064511363e-07
-1.031939741e-07
-1.013741797e-07
-1.013440414e-07
-1.034970627e-07
-1.082587706e-07
-1.161379421e-07
-1.277252584e-07
-1.437328007e-07
-1.649694607e-07
-1.923565755e-07
-2.26893199e-07
-2.696758241e-07
-3.218790394e-07
-3.84786814e-07
-4.597751142e-07
-5.483279168e-07
-6.519968984e-07
-7.723910472e-07
-9.111208208e-07
-1.069782298e-06
-1.249914916e-06
-1.453011071e-06
-1.680509677e-06
-1.933830066e-06
-2.214361277e-06
-2.523441359e-06
-2.862266893e-06
-3.231817328e-06
-3.632806789e-06
-4.065738726e-06
-4.530975169e-06
-5.028784305e-06
-5.559353208e-06
-6.122806214e-06
-6.719205676e-06
-7.348349303e-06
-8.009691332e-06
-8.706191468e-06
-9.469154838e-06
-1.075509758e-05
-5.794027646e-06
3.122416628e-08
6.623711977e-08
6.601927897e-08
6.707736801e-08
6.631066991e-08
6.548178179e-08
6.461212276e-08
6.369923772e-08
6.274853599e-08
6.176779041e-08
6.076939994e-08
5.976397198e-08
5.876335809e-08
5.777585614e-08
5.680984037e-08
5.586983726e-08
5.495983711e-08
5.40785515e-08
5.322303559e-08
5.238467401e-08
5.155456891e-08
5.072053759e-08
4.987342226e-08
4.900125912e-08
4.809331882e-08
4.713262033e-08
4.609973388e-08
4.496906348e-08
4.371528381e-08
4.231117738e-08
4.073314725e-08
3.895391958e-08
3.694505289e-08
3.466799614e-08
3.207942621e-08
2.912852717e-08
2.576768094e-08
2.195215476e-08
1.764858602e-08
1.282800127e-08
7.468494258e-09
1.54475118e-09
-4.966964117e-09
-1.20933508e-08
-1.985186395e-08
-2.82508667e-08
-3.727707134e-08
-4.689980468e-08
-5.706415275e-08
-6.770047493e-08
-7.8720325e-08
-9.002614668e-08
-1.015056729e-07
-1.130390807e-07
-1.244904642e-07
-1.357130262e-07
-1.465400458e-07
-1.567935493e-07
-1.662823762e-07
-1.748200313e-07
-1.822291959e-07
-1.883607667e-07
-1.930919794e-07
-1.963359764e-07
-1.980306426e-07
-1.981453148e-07
-1.966724778e-07
-1.936426588e-07
-1.891228584e-07
-1.83233e-07
-1.761361737e-07
-1.680396982e-07
-1.591696395e-07
-1.497648488e-07
-1.400598543e-07
-1.302971573e-07
-1.207296096e-07
-1.116392172e-07
-1.03331058e-07
-9.613486406e-08
-9.038716362e-08
-8.643740626e-08
-8.465168248e-08
-8.544875973e-08
-8.932410589e-08
-9.68851201e-08
-1.088523113e-07
-1.260629692e-07
-1.494490245e-07
-1.800368034e-07
-2.189398823e-07
-2.673792851e-07
-3.266887472e-07
-3.98326777e-07
-4.838571784e-07
-5.849276152e-07
-7.032225982e-07
-8.40429029e-07
-9.981950907e-07
-1.17811354e-06
-1.381710084e-06
-1.61045844e-06
-1.865791022e-06
-2.149104761e-06
-2.461722359e-06
-2.804822014e-06
-3.179352019e-06
-3.586004625e-06
-4.025262859e-06
-4.497485213e-06
-5.002943212e-06
-5.541835395e-06
-6.114315182e-06
-6.720410493e-06
-7.360067392e-06
-8.032249313e-06
-8.741061678e-06
-9.51484266e-06
-1.081839744e-05
-5.831165978e-06
3.116695775e-08
6.610593057e-08
6.587793877e-08
6.69290262e-08
6.61621772e-08
6.533632201e-08
6.447019325e-08
6.356231824e-08
6.261581003e-08
6.163953699e-08
6.064366071e-08
5.963974854e-08
5.863791311e-08
5.764762445e-08
5.667600347e-08
5.572897277e-08
5.48087153e-08
5.391471807e-08
5.304148903e-08
5.218080295e-08
5.132141978e-08
5.045284132e-08
4.956327088e-08
4.864184181e-08
4.767318522e-08
4.66388428e-08
4.55137634e-08
4.427025851e-08
4.287806132e-08
4.130848711e-08
3.953128407e-08
3.751499547e-08
3.522026405e-08
3.26010347e-08
2.960249809e-08
2.616836046e-08
2.224361354e-08
1.778183661e-08
1.274271114e-08
7.092963505e-09
7.982977553e-10
-6.175694566e-09
-1.386659249e-08
-2.230650848e-08
-3.151879305e-08
-4.150724073e-08
-5.225580114e-08
-6.372340975e-08
-7.584941924e-08
-8.855167006e-08
-1.017321576e-07
-1.152737859e-07
-1.29044045e-07
-1.428901694e-07
-1.566413097e-07
-1.70102902e-07
-1.830605963e-07
-1.95279865e-07
-2.065188855e-07
-2.16537297e-07
-2.251144985e-07
-2.320560932e-07
-2.372041739e-07
-2.404330588e-07
-2.416531218e-07
-2.40805978e-07
-2.378746252e-07
-2.328866954e-07
-2.259297093e-07
-2.171511628e-07
-2.067600176e-07
-1.950080257e-07
-1.821749428e-07
-1.685478976e-07
-1.544192967e-07
-1.400875119e-07
-1.258688427e-07
-1.120970274e-07
-9.911988569e-08
-8.728217092e-08
-7.691937003e-08
-6.835858886e-08
-6.194638306e-08
-5.808230346e-08
-5.726173914e-08
-6.009555223e-08
-6.731992306e-08
-7.978015963e-08
-9.842311815e-08
-1.242883824e-07
-1.585248314e-07
-2.024052439e-07
-2.573466613e-07
-3.249049768e-07
-4.067558519e-07
-5.046502729e-07
-6.203704869e-07
-7.556834727e-07
-9.123104727e-07
-1.091903867e-06
-1.296042702e-06
-1.526235708e-06
-1.783933982e-06
-2.07052789e-06
-2.38731581e-06
-2.735435984e-06
-3.115794131e-06
-3.529040752e-06
-3.975627756e-06
-4.455890852e-06
-4.97009015e-06
-5.518425789e-06
-6.101040614e-06
-6.718020862e-06
-7.369139251e-06
-8.053827885e-06
-8.774797164e-06
-9.564340933e-06
-1.088409191e-05
-5.870942597e-06
3.110248769e-08
6.59580353e-08
6.572075986e-08
6.676309433e-08
6.599552712e-08
6.51702768e-08
6.430628055e-08
6.340064531e-08
6.245681064e-08
6.148206021e-08
6.048677581e-08
5.948121124e-08
5.8475855e-08
5.747936612e-08
5.649947423e-08
5.554125701e-08
5.4607066e-08
5.369459672e-08
5.279794153e-08
5.190753611e-08
5.101226108e-08
5.010050514e-08
4.916047204e-08
4.817826755e-08
4.713655893e-08
4.60119208e-08
4.477628264e-08
4.339772174e-08
4.184356703e-08
4.008004965e-08
3.807200203e-08
3.577844337e-08
3.315088417e-08
3.01316587e-08
2.665785382e-08
2.266542346e-08
1.809537181e-08
1.289511501e-08
7.018372342e-09
4.197315795e-10
-6.947656694e-09
-1.513428383e-08
-2.418878486e-08
-3.415215246e-08
-4.504819129e-08
-5.687930563e-08
-6.962289018e-08
-8.32334743e-08
-9.764281641e-08
-1.127619238e-07
-1.284788328e-07
-1.446579808e-07
-1.611371711e-07
-1.777272842e-07
-1.942098371e-07
-2.103378184e-07
-2.258365085e-07
-2.404109641e-07
-2.537562112e-07
-2.655733728e-07
-2.755828727e-07
-2.835368811e-07
-2.89223274e-07
-2.92469709e-07
-2.931434632e-07
-2.911580803e-07
-2.864802135e-07
-2.791428435e-07
-2.692542426e-07
-2.570021208e-07
-2.426453236e-07
-2.264953427e-07
-2.088946708e-07
-1.902000695e-07
-1.70778403e-07
-1.510088278e-07
-1.312852046e-07
-1.120075997e-07
-9.356527823e-08
-7.631782076e-08
-6.058839065e-08
-4.667924248e-08
-3.49078764e-08
-2.565554424e-08
-1.940702755e-08
-1.677297032e-08
-1.848739103e-08
-2.539622462e-08
-3.844732765e-08
-5.869957251e-08
-8.734421177e-08
-1.257334233e-07
-1.753911005e-07
-2.38002324e-07
-3.153736847e-07
-4.093816691e-07
-5.219191908e-07
-6.548540077e-07
-8.09998092e-07
-9.890871286e-07
-1.193767713e-06
-1.425593824e-06
-1.686029583e-06
-1.976446673e-06
-2.298097702e-06
-2.652059428e-06
-3.039171254e-06
-3.460021633e-06
-3.915009182e-06
-4.40442787e-06
-4.928510189e-06
-5.487438166e-06
-6.081373505e-06
-6.710357346e-06
-7.374368165e-06
-8.072293369e-06
-8.808387997e-06
-9.611526599e-06
-1.095361264e-05
-5.91303537e-06
3.102946707e-08
6.579199232e-08
6.554477627e-08
6.657774901e-08
6.580819953e-08
6.498255976e-08
6.411888972e-08
6.321415214e-08
6.227063628e-08
6.129574782e-08
6.02984485e-08
5.928899759e-08
5.827710079e-08
5.727192889e-08
5.628057696e-08
5.530799763e-08
5.435529881e-08
5.341965396e-08
5.249357672e-08
5.156715941e-08
5.062887785e-08
4.966665609e-08
4.866706345e-08
4.761384444e-08
4.64853794e-08
4.52546751e-08
4.388950826e-08
4.235507892e-08
4.061448246e-08
3.862936861e-08
3.635623884e-08
3.37444669e-08
3.07339268e-08
2.725650863e-08
2.324034312e-08
1.861526374e-08
1.331628683e-08
7.284041601e-09
4.606811641e-10
-7.213823763e-09
-1.580456433e-08
-2.537819838e-08
-3.599674497e-08
-4.770715739e-08
-6.053526671e-08
-7.448105102e-08
-8.951990183e-08
-1.056034615e-07
-1.22660595e-07
-1.405945022e-07
-1.592791979e-07
-1.785546184e-07
-1.982244962e-07
-2.180542355e-07
-2.377714519e-07
-2.57066407e-07
-2.755968093e-07
-2.929956156e-07
-3.088853264e-07
-3.228930482e-07
-3.346667026e-07
-3.438851994e-07
-3.50267438e-07
-3.535766692e-07
-3.536285672e-07
-3.5029984e-07
-3.435418266e-07
-3.333941441e-07
-3.199942696e-07
-3.035788857e-07
-2.844693303e-07
-2.630508449e-07
-2.397467929e-07
-2.150057009e-07
-1.892941788e-07
-1.63096742e-07
-1.369046489e-07
-1.11195615e-07
-8.640446931e-08
-6.290208951e-08
-4.09950089e-08
-2.095241446e-08
-3.056565853e-09
1.234256059e-08
2.478382358e-08
3.367761831e-08
3.830913071e-08
3.78499618e-08
3.135654873e-08
1.774877592e-08
-4.226988467e-09
-3.602730471e-08
-7.931706704e-08
-1.359388464e-07
-2.078569666e-07
-2.970935857e-07
-4.056757475e-07
-5.355982223e-07
-6.88795757e-07
-8.671173436e-07
-1.072298801e-06
-1.305945926e-06
-1.569527784e-06
-1.864376306e-06
-2.19167023e-06
-2.552394659e-06
-2.947291608e-06
-3.376857471e-06
-3.841408408e-06
-4.341171507e-06
-4.876331291e-06
-5.447053924e-06
-6.053488174e-06
-6.695771655e-06
-7.37372571e-06
-8.086891277e-06
-8.837945644e-06
-9.660866494e-06
-1.102346575e-05
-5.957004865e-06
3.094721766e-08
6.560548224e-08
6.534814681e-08
6.637071523e-08
6.559864287e-08
6.477156953e-08
6.390719654e-08
6.300171643e-08
6.205720309e-08
6.10799788e-08
6.007867273e-08
5.906297347e-08
5.804242228e-08
5.702578247e-08
5.602022543e-08
5.502972705e-08
5.405474809e-08
5.309069844e-08
5.212989344e-08
5.11614926e-08
5.017384345e-08
4.915372205e-08
4.808592034e-08
4.69505006e-08
4.572216946e-08
4.436947056e-08
4.285686362e-08
4.114561989e-08
3.919482588e-08
3.695891336e-08
3.438562446e-08
3.141257718e-08
2.796800609e-08
2.397320914e-08
1.934822432e-08
1.401595188e-08
7.904165843e-09
9.423513422e-10
-6.942458986e-09
-1.582999997e-08
-2.580553504e-08
-3.695387041e-08
-4.934881744e-08
-6.30444926e-08
-7.806899756e-08
-9.442417778e-08
-1.120872208e-07
-1.310119952e-07
-1.511261931e-07
-1.723257266e-07
-1.944670582e-07
-2.173616846e-07
-2.407726375e-07
-2.644140502e-07
-2.879514875e-07
-3.110045125e-07
-3.331519175e-07
-3.539425727e-07
-3.72909836e-07
-3.895893578e-07
-4.035344581e-07
-4.143304361e-07
-4.216054041e-07
-4.250422463e-07
-4.243917686e-07
-4.194877083e-07
-4.102649819e-07
-3.967735975e-07
-3.791899972e-07
-3.578101175e-07
-3.330344317e-07
-3.05337962e-07
-2.752494225e-07
-2.433344592e-07
-2.101903911e-07
-1.764335788e-07
-1.426758269e-07
-1.094863906e-07
-7.735403445e-08
-4.666367035e-08
-1.770286438e-08
9.29902708e-09
3.411086538e-08
5.643630817e-08
7.586737696e-08
9.186378506e-08
1.037549527e-07
1.10746147e-07
1.119046989e-07
1.061221713e-07
9.206350793e-08
6.813646013e-08
3.250075427e-08
-1.687776993e-08
-8.215057087e-08
-1.655139674e-07
-2.691610703e-07
-3.952541219e-07
-5.458964627e-07
-7.230906801e-07
-9.286890375e-07
-1.164354e-06
-1.431545002e-06
-1.73152405e-06
-2.06535863e-06
-2.433899056e-06
-2.837748292e-06
-3.277267945e-06
-3.752653954e-06
-4.264034632e-06
-4.8115303e-06
-5.395275685e-06
-6.015460434e-06
-6.672212748e-06
-7.36567105e-06
-8.09482107e-06
-8.864328086e-06
-9.704267696e-06
-1.109459627e-05
-6.001997545e-06
3.085483673e-08
6.53972586e-08
6.51293264e-08
6.614032675e-08
6.536539849e-08
6.453623378e-08
6.367006205e-08
6.276283432e-08
6.181581283e-08
6.083464428e-08
5.98273823e-08
5.880329418e-08
5.777177878e-08
5.674150705e-08
5.571889925e-08
5.470744639e-08
5.370592459e-08
5.270924961e-08
5.170839701e-08
5.0692562e-08
4.964925155e-08
4.856416352e-08
4.741912398e-08
4.619077455e-08
4.484929771e-08
4.335933586e-08
4.168163559e-08
3.977346817e-08
3.758796151e-08
3.507191141e-08
3.216179356e-08
2.878355027e-08
2.485331666e-08
2.028269851e-08
1.498323818e-08
8.870044616e-09
1.859971097e-09
-6.132418622e-09
-1.520059242e-08
-2.544702369e-08
-3.697928432e-08
-4.989972496e-08
-6.429488117e-08
-8.022641353e-08
-9.772911799e-08
-1.168119239e-07
-1.374602636e-07
-1.596343582e-07
-1.832630185e-07
-2.082334959e-07
-2.343821578e-07
-2.614876865e-07
-2.892683806e-07
-3.173811156e-07
-3.454224688e-07
-3.729307688e-07
-3.993931804e-07
-4.242568849e-07
-4.469463437e-07
-4.668810736e-07
-4.834946947e-07
-4.962520617e-07
-5.046671625e-07
-5.083230068e-07
-5.068913053e-07
-5.001565682e-07
-4.880349529e-07
-4.705947199e-07
-4.48058857e-07
-4.207992285e-07
-3.893088627e-07
-3.541758729e-07
-3.160582383e-07
-2.756717981e-07
-2.337768109e-07
-1.91153748e-07
-1.485616741e-07
-1.066843704e-07
-6.608217456e-08
-2.716616522e-08
9.790834844e-09
4.460959238e-08
7.713695576e-08
1.071728671e-07
1.344097944e-07
1.583969999e-07
1.785353606e-07
1.940777805e-07
2.041095771e-07
2.074884908e-07
2.027812821e-07
1.882290117e-07
1.617774555e-07
1.2115878e-07
6.399566117e-08
-1.212063178e-08
-1.09594581e-07
-2.308134342e-07
-3.781131009e-07
-5.537058624e-07
-7.595920934e-07
-9.974936117e-07
-1.268836389e-06
-1.574770653e-06
-1.916199231e-06
-2.293781994e-06
-2.70792339e-06
-3.158794562e-06
-3.646419792e-06
-4.170792499e-06
-4.731944335e-06
-5.329991473e-06
-5.965137692e-06
-6.637682944e-06
-7.347662895e-06
-8.094946901e-06
-8.88245059e-06
-9.746626e-06
-1.116207398e-05
-6.047034712e-06
3.075168032e-08
6.516536738e-08
6.488654184e-08
6.588533115e-08
6.51069624e-08
6.427520936e-08
6.340673624e-08
6.249675491e-08
6.154590409e-08
6.055925808e-08
5.954434458e-08
5.851004793e-08
5.746569495e-08
5.641944686e-08
5.537737492e-08
5.434151364e-08
5.330997842e-08
5.227608895e-08
5.123073984e-08
5.01622057e-08
4.905756146e-08
4.790023152e-08
4.666914363e-08
4.533690269e-08
4.386943919e-08
4.222754817e-08
4.036777435e-08
3.824256052e-08
3.579815549e-08
3.297141748e-08
2.968749382e-08
2.585976484e-08
2.139331418e-08
1.618982489e-08
1.015223013e-08
3.184689426e-09
-4.81031921e-09
-1.393880413e-08
-2.431820327e-08
-3.607686529e-08
-4.934476834e-08
-6.424248479e-08
-8.086957622e-08
-9.929963859e-08
-1.195797936e-07
-1.417337213e-07
-1.657615124e-07
-1.916343356e-07
-2.192831956e-07
-2.485863374e-07
-2.793580147e-07
-3.113422239e-07
-3.442090865e-07
-3.775537352e-07
-4.108952446e-07
-4.43679193e-07
-4.752838982e-07
-5.050343002e-07
-5.32219362e-07
-5.561135402e-07
-5.759990237e-07
-5.911894737e-07
-6.010580861e-07
-6.050647862e-07
-6.027891138e-07
-5.939559608e-07
-5.784653357e-07
-5.564056625e-07
-5.280596172e-07
-4.938845062e-07
-4.544853703e-07
-4.105842617e-07
-3.629995365e-07
-3.126320286e-07
-2.604427229e-07
-2.074141781e-07
-1.544895439e-07
-1.025051334e-07
-5.212860419e-08
-3.826398261e-09
4.213143793e-08
8.563076237e-08
1.266437931e-07
1.651405287e-07
2.009884033e-07
2.338795528e-07
2.633080199e-07
2.88586462e-07
3.088247908e-07
3.228559763e-07
3.29138907e-07
3.257208126e-07
3.10283948e-07
2.802698701e-07
2.330185934e-07
1.658585156e-07
7.611565892e-08
-3.890006148e-08
-1.818474314e-07
-3.55225395e-07
-5.612226759e-07
-8.01620218e-07
-1.077773345e-06
-1.390660904e-06
-1.740948682e-06
-2.129026681e-06
-2.555022247e-06
-3.018840388e-06
-3.520272269e-06
-4.059128951e-06
-4.635335713e-06
-5.248975202e-06
-5.900336441e-06
-6.589774267e-06
-7.317788888e-06
-8.083717501e-06
-8.89297294e-06
-9.777660294e-06
-1.122625037e-05
-6.090612742e-06
3.063674038e-08
6.490882524e-08
6.461850969e-08
6.560423477e-08
6.482229635e-08
6.398760845e-08
6.311618835e-08
6.220257908e-08
6.124691329e-08
6.02534588e-08
5.922931767e-08
5.818331799e-08
5.712426978e-08
5.606008821e-08
5.499593177e-08
5.393290572e-08
5.286752071e-08
5.179274042e-08
5.069826273e-08
4.957249622e-08
4.840051994e-08
4.71640127e-08
4.583820202e-08
4.439144609e-08
4.278574093e-08
4.097778086e-08
3.891951921e-08
3.655752802e-08
3.382949091e-08
3.06616404e-08
2.696687975e-08
2.264664967e-08
1.759510844e-08
1.170451754e-08
4.866797533e-09
-3.027538976e-09
-1.209599682e-08
-2.246900554e-08
-3.429234282e-08
-4.772062445e-08
-6.290731294e-08
-7.999110615e-08
-9.908839329e-08
-1.202900297e-07
-1.436642588e-07
-1.692576368e-07
-1.970918562e-07
-2.271527385e-07
-2.593756675e-07
-2.936302221e-07
-3.297095011e-07
-3.673224624e-07
-4.060900192e-07
-4.455402491e-07
-4.851060909e-07
-5.241251771e-07
-5.618476062e-07
-5.974494728e-07
-6.300534263e-07
-6.587534798e-07
-6.826430319e-07
-7.008506048e-07
-7.125758582e-07
-7.171338415e-07
-7.139911897e-07
-7.028069025e-07
-6.83458041e-07
-6.560588534e-07
-6.209546946e-07
-5.78700222e-07
-5.300278971e-07
-4.758190579e-07
-4.170872397e-07
-3.549571508e-07
-2.906349418e-07
-2.253515486e-07
-1.602906998e-07
-9.65022836e-08
-3.482554447e-08
2.416424923e-08
8.017483778e-08
1.331783922e-07
1.833530932e-07
2.309600426e-07
2.76162569e-07
3.188590449e-07
3.586485773e-07
3.948962323e-07
4.267594791e-07
4.530756279e-07
4.722150011e-07
4.820050037e-07
4.797970948e-07
4.626478194e-07
4.275312975e-07
3.714508459e-07