/*--------------------------------*- C++ -*----------------------------------*\
  =========                 |
  \\      /  F ield         | OpenFOAM: The Open Source CFD Toolbox
   \\    /   O peration     | Website:  https://openfoam.org
    \\  /    A nd           | Version:  6
     \\/     M anipulation  |
\*---------------------------------------------------------------------------*/
FoamFile
{
    version     2.0;
    format      ascii;
    class       volScalarField;
    location    "0.0035";
    object      ViscousDissipation;
}
// * * * * * * * * * * * * * * * * * * * * * * * * * * * * * * * * * * * * * //

dimensions      [1 -1 -3 0 0 0 0];

internalField   nonuniform List<scalar> 
9600
(
3.394964929e-21
1.617168624e-20
2.51887099e-20
3.248316698e-20
4.130662157e-20
5.114737589e-20
6.190725113e-20
7.34636946e-20
8.568366348e-20
9.841691248e-20
1.115014507e-19
1.247549027e-19
1.379798505e-19
1.509544623e-19
1.634389969e-19
1.751678344e-19
1.858594218e-19
1.952113707e-19
2.02914135e-19
2.086483077e-19
2.12100928e-19
2.129657468e-19
2.109653311e-19
2.058594607e-19
1.974772843e-19
1.857349387e-19
1.70675048e-19
1.524900448e-19
1.315674694e-19
1.085220997e-19
8.425180171e-20
5.998145551e-20
3.732470848e-20
1.832845167e-20
5.52464012e-21
1.961085974e-21
1.123014058e-20
3.747267514e-20
8.536275195e-20
1.600557268e-19
2.670912619e-19
4.122484871e-19
6.013339458e-19
8.399205007e-19
1.133004346e-18
1.484624695e-18
1.897401269e-18
2.372071637e-18
2.90697329e-18
3.497594133e-18
4.136118964e-18
4.811138186e-18
5.507429392e-18
6.206029088e-18
6.884482996e-18
7.517518706e-18
8.077953198e-18
8.538043146e-18
8.87097788e-18
9.052694599e-18
9.063653303e-18
8.890760816e-18
8.529022216e-18
7.983063238e-18
7.268015756e-18
6.409897505e-18
5.44505075e-18
4.418936582e-18
3.384069525e-18
2.397540956e-18
1.518042127e-18
8.028366688e-19
3.046712052e-19
6.906806322e-20
1.320952046e-19
5.189639134e-19
1.243494379e-18
2.308485516e-18
3.706855291e-18
5.423276706e-18
7.436139328e-18
9.719420634e-18
1.224440936e-17
1.49808276e-17
1.789747486e-17
2.096197681e-17
2.4139997e-17
2.739359844e-17
3.067938018e-17
3.39462321e-17
3.71335768e-17
4.017004355e-17
4.29734761e-17
4.545209285e-17
4.750745368e-17
4.903880061e-17
4.994908315e-17
5.015203178e-17
4.958017993e-17
4.819300828e-17
4.59847319e-17
4.299114995e-17
3.929534223e-17
3.503253052e-17
3.039403663e-17
2.563060648e-17
2.105397251e-17
1.703693497e-17
1.401147575e-17
1.246702768e-17
1.29484631e-17
1.605499048e-17
2.243805102e-17
3.279687732e-17
4.787012922e-17
6.840612841e-17
9.524444541e-17
1.264333994e-16
1.941715635e-16
6.218624413e-17
6.957535079e-21
1.983304846e-20
2.886016319e-20
3.621865565e-20
4.503324177e-20
5.485760408e-20
6.559704377e-20
7.713639864e-20
8.933579051e-20
1.020524614e-19
1.151177983e-19
1.283578304e-19
1.415686652e-19
1.545378008e-19
1.670191865e-19
1.787575178e-19
1.894650821e-19
1.988505583e-19
2.065981101e-19
2.123997841e-19
2.159362043e-19
2.169132236e-19
2.150474892e-19
2.101117754e-19
2.019297654e-19
1.904307306e-19
1.756517062e-19
1.577978971e-19
1.372517449e-19
1.146410903e-19
9.086040372e-20
6.714814626e-20
4.51168675e-20
2.682763766e-20
1.481514623e-20
1.214324058e-20
2.241322446e-20
4.978473798e-20
9.894865582e-20
1.750827441e-19
2.837552204e-19
4.307759459e-19
6.219994537e-19
8.630432063e-19
1.158974996e-18
1.513890145e-18
1.930497702e-18
2.409591176e-18
2.949603102e-18
3.546063757e-18
4.191248292e-18
4.873765494e-18
5.578469012e-18
6.286376649e-18
6.975078588e-18
7.619224054e-18
8.191618366e-18
8.66436172e-18
9.010570683e-18
9.205966702e-18
9.230915284e-18
9.072106247e-18
8.724485215e-18
8.192510805e-18
7.491320027e-18
6.646832578e-18
5.695461361e-18
4.682635624e-18
3.660982662e-18
2.687592329e-18
1.821243884e-18
1.119147909e-18
6.340121049e-19
4.111575751e-19
4.863974252e-19
8.845368907e-19
1.618906592e-18
2.691738247e-18
4.09534472e-18
5.813881553e-18
7.825316858e-18
1.010351775e-17
1.261989832e-17
1.534476644e-17
1.824774477e-17
2.129769492e-17
2.446156115e-17
2.770287116e-17
3.097943051e-17
3.424122187e-17
3.742820941e-17
4.046919164e-17
4.328146412e-17
4.577223895e-17
4.784146691e-17
4.938653728e-17
5.030838881e-17
5.051892682e-17
4.994925483e-17
4.855794436e-17
4.633904566e-17
4.332872353e-17
3.961119675e-17
3.532306393e-17
3.065762276e-17
2.586741107e-17
2.126633206e-17
1.722876958e-17
1.418853005e-17
1.263613034e-17
1.311791389e-17
1.623415075e-17
2.263810896e-17
3.303198466e-17
4.815939143e-17
6.878317546e-17
9.577973863e-17
1.273001556e-16
1.974242601e-16
6.368052189e-17
1.072359508e-20
2.360479063e-20
3.269670454e-20
4.013811484e-20
4.89982774e-20
5.88485349e-20
6.961326827e-20
8.11757397e-20
9.340748101e-20
1.061608239e-19
1.192776818e-19
1.325788988e-19
1.458718786e-19
1.589393432e-19
1.715477077e-19
1.834375523e-19
1.943348278e-19
2.039445225e-19
2.119650886e-19
2.18084735e-19
2.219987763e-19
2.234094214e-19
2.220488748e-19
2.176869339e-19
2.101632712e-19
1.994038879e-19
1.854607856e-19
1.685349293e-19
1.490226426e-19
1.275477018e-19
1.050184244e-19
8.267069482e-20
6.213136219e-20
4.546174281e-20
3.521270161e-20
3.445423791e-20
4.680841324e-20
7.645078112e-20
1.281009792e-19
2.069686445e-19
3.186666352e-19
4.690646195e-19
6.640893577e-19
9.094570877e-19
1.210339479e-18
1.570967465e-18
1.994174173e-18
2.480909649e-18
3.029729651e-18
3.636320427e-18
4.293055227e-18
4.988672675e-18
5.708068168e-18
6.432326327e-18
7.138978577e-18
7.802630383e-18
8.39588417e-18
8.890657558e-18
9.25972283e-18
9.478521396e-18
9.527017147e-18
9.391632871e-18
9.06697786e-18
8.557364275e-18
7.877745365e-18
7.054068767e-18
6.122746687e-18
5.129405299e-18
4.126816928e-18
3.172346874e-18
2.324927059e-18
1.641929218e-18
1.176001404e-18
9.72281756e-19
1.066113797e-18
1.481637182e-18
2.23126399e-18
3.316165719e-18
4.727532571e-18
6.448478701e-18
8.456210454e-18
1.072423539e-17
1.322422485e-17
1.59273456e-17
1.880478243e-17
2.182743743e-17
2.496472336e-17
2.818267978e-17
3.144152504e-17
3.469313005e-17
3.787867321e-17
4.092716815e-17
4.375507962e-17
4.626769977e-17
4.836213946e-17
4.993238049e-17
5.08757115e-17
5.110076843e-17
5.053595891e-17
4.913836413e-17
4.690153262e-17
4.386262327e-17
4.010765653e-17
3.577629589e-17
3.106512502e-17
2.623075207e-17
2.159068746e-17
1.752324259e-17
1.446522744e-17
1.291038321e-17
1.340753702e-17
1.656018812e-17
2.30253537e-17
3.351159791e-17
4.877484808e-17
6.960213719e-17
9.693639708e-17
1.290411099e-16
2.006475287e-16
6.481135997e-17
1.56263039e-20
2.851066241e-20
3.765912117e-20
4.518605565e-20
5.411979586e-20
6.403504385e-20
7.485865473e-20
8.648422807e-20
9.878554685e-20
1.116231397e-19
1.248402249e-19
1.3826561e-19
1.517084967e-19
1.649603128e-19
1.777905205e-19
1.899496259e-19
2.011680346e-19
2.11161644e-19
2.196341407e-19
2.26284985e-19
2.308151567e-19
2.32938819e-19
2.323950381e-19
2.289667671e-19
2.225013306e-19
2.129377294e-19
2.003345857e-19
1.849043829e-19
1.670490266e-19
1.474036437e-19
1.268829127e-19
1.067354647e-19
8.859619599e-20
7.454122444e-20
6.713240327e-20
6.945915183e-20
8.516150675e-20
1.184445177e-19
1.740598547e-19
2.572658544e-19
3.737330825e-19
5.294126244e-19
7.303281723e-19
9.823206428e-19
1.29070274e-18
1.65987094e-18
2.092833983e-18
2.590732589e-18
3.152311895e-18
3.773447646e-18
4.446683649e-18
5.160906732e-18
5.901116183e-18
6.648448661e-18
7.380413711e-18
8.071513474e-18
8.694151494e-18
9.219955044e-18
9.621323146e-18
9.873268447e-18
9.955305248e-18
9.8534256e-18
9.561866122e-18
9.084649797e-18
8.436548685e-18
7.643437986e-18
6.741775533e-18
5.777325596e-18
4.803080066e-18
3.876639704e-18
3.057146524e-18
2.402049919e-18
1.963892853e-18
1.787416183e-18
1.90727052e-18
2.346550654e-18
3.116366313e-18
4.216361566e-18
5.636191396e-18
7.357551302e-18
9.356661418e-18
1.160662025e-17
1.407956288e-17
1.67479971e-17
1.95854397e-17
2.25658474e-17
2.56622869e-17
2.884452819e-17
3.20763371e-17
3.531231355e-17
3.849534068e-17
4.155456527e-17
4.440510285e-17
4.694917853e-17
4.907970114e-17
5.068546293e-17
5.165858091e-17
5.190280317e-17
5.134299187e-17
4.993399569e-17
4.766921405e-17
4.458719401e-17
4.077730211e-17
3.638352844e-17
3.160802392e-17
2.671303874e-17
2.202212065e-17
1.791887904e-17
1.484526351e-17
1.329923531e-17
1.383397092e-17
1.705727804e-17
2.363196008e-17
3.427531603e-17
4.975733322e-17
7.089347973e-17
9.866743243e-17
1.313993095e-16
2.04157159e-16
6.590875458e-17
2.180452083e-20
3.471112736e-20
4.392072352e-20
5.153313384e-20
6.055989657e-20
7.056711151e-20
8.148521955e-20
9.321091218e-20
1.056255556e-19
1.185939579e-19
1.31967161e-19
1.455788011e-19
1.592464863e-19
1.727677035e-19
1.859216489e-19
1.984667202e-19
2.101446528e-19
2.206808001e-19
2.297911139e-19
2.371853328e-19
2.42577359e-19
2.456928648e-19
2.462854234e-19
2.441513373e-19
2.391535742e-19
2.312444507e-19
2.204970748e-19
2.071356192e-19
1.915754183e-19
1.744634876e-19
1.567295225e-19
1.396360791e-19
1.24835206e-19
1.144186515e-19
1.109680677e-19
1.175928944e-19
1.379616745e-19
1.763128595e-19
2.374467197e-19
3.266810652e-19
4.497687487e-19
6.127597069e-19
8.218057917e-19
1.082895516e-18
1.401521351e-18
1.782277166e-18
2.228399003e-18
2.741263701e-18
3.319870824e-18
3.960337913e-18
4.655443066e-18
5.394260054e-18
6.161932747e-18
6.939656801e-18
7.70492516e-18
8.432105213e-18
9.093366984e-18
9.65997312e-18
1.010387013e-17
1.039952538e-17
1.05258902e-17
1.046839269e-17
1.022078526e-17
9.786692512e-18
9.180628713e-18
8.428334093e-18
7.566279327e-18
6.640352362e-18
5.703765738e-18
4.814366233e-18
4.031490851e-18
3.412625124e-18
3.010075749e-18
2.86799635e-18
3.020029503e-18
3.487873396e-18
4.280881598e-18
5.396758269e-18
6.823172945e-18
8.540108267e-18
1.052256468e-17
1.274330322e-17
1.517516931e-17
1.779269186e-17
2.057260528e-17
2.349322334e-17
2.65326033e-17
2.966576758e-17
3.286121857e-17
3.607731344e-17
3.925895222e-17
4.233533946e-17
4.521928691e-17
4.780870047e-17
4.999032837e-17
5.164593222e-17
5.26603167e-17
5.293086707e-17
5.237752181e-17
5.095259804e-17
4.864929473e-17
4.550867948e-17
4.162466368e-17
3.714774529e-17
3.228748446e-17
2.731427018e-17
2.255944737e-17
1.841409866e-17
1.532658019e-17
1.380071898e-17
1.439492382e-17
1.772267988e-17
2.445362074e-17
3.531452638e-17
5.109064919e-17
7.261639801e-17
1.00912884e-16
1.342804586e-16
2.081608635e-16
6.710021618e-17
2.932190026e-20
4.227794742e-20
5.156169764e-20
5.926832908e-20
6.840279563e-20
7.852727701e-20
8.95713969e-20
1.014362937e-19
1.140079743e-19
1.271587068e-19
1.407460178e-19
1.54612272e-19
1.685829676e-19
1.824658442e-19
1.960499296e-19
2.091059421e-19
2.213876289e-19
2.326345123e-19
2.425760341e-19
2.509371881e-19
2.574466504e-19
2.61847023e-19
2.639089535e-19
2.634479097e-19
2.603454705e-19
2.545732123e-19
2.462216531e-19
2.355326887e-19
2.229384088e-19
2.091045385e-19
1.949799018e-19
1.818484746e-19
1.713833999e-19
1.65699113e-19
1.674001618e-19
1.796237394e-19
2.060720792e-19
2.510299655e-19
3.193578843e-19
4.164541582e-19
5.481720053e-19
7.206872774e-19
9.403016857e-19
1.213183877e-18
1.545034542e-18
1.940690117e-18
2.403657721e-18
2.935614206e-18
3.535871396e-18
4.200860676e-18
4.923647122e-18
5.693548292e-18
6.495878433e-18
7.311918093e-18
8.119133391e-18
8.891746074e-18
9.601639708e-18
1.021965437e-17
1.071717778e-17
1.106802232e-17
1.125042711e-17
1.124912162e-17
1.105722245e-17
1.06778379e-17
1.01251061e-17
9.424553487e-18
8.612592291e-18
7.735198332e-18
6.845775431e-18
6.002395433e-18
5.264545737e-18
4.6896515e-18
4.329619454e-18
4.227752336e-18
4.416355493e-18
4.915311837e-18
5.731794177e-18
6.861103729e-18
8.288547692e-18
9.992066077e-18
1.194533781e-17
1.412087264e-17
1.649271678e-17
1.90382159e-17
2.173859146e-17
2.457800932e-17
2.754129666e-17
3.061037954e-17
3.376002086e-17
3.695325801e-17
4.013742046e-17
4.32412833e-17
4.617427837e-17
4.882809194e-17
5.108114384e-17
5.28056032e-17
5.387672423e-17
5.418345779e-17
5.363963984e-17
5.219442302e-17
4.984131686e-17
4.662493788e-17
4.26457394e-17
3.806283882e-17
3.309584294e-17
2.802552236e-17
2.319338272e-17
1.899963418e-17
1.590066378e-17
1.440709591e-17
1.508357702e-17
1.854986283e-17
2.548297198e-17
3.661970091e-17
5.27576321e-17
7.475127855e-17
1.036315268e-16
1.376968478e-16
2.127435608e-16
6.844391493e-17
3.826472959e-20
5.129286822e-20
6.067022799e-20
6.848579406e-20
7.774652221e-20
8.801278005e-20
9.921540005e-20
1.11258574e-19
1.240341542e-19
1.374212078e-19
1.512858278e-19
1.654794393e-19
1.798381003e-19
1.941808138e-19
2.083095391e-19
2.220089526e-19
2.35048278e-19
2.471833627e-19
2.581609968e-19
2.677242666e-19
2.756210238e-19
2.816144073e-19
2.854971161e-19
2.871079641e-19
2.863523401e-19
2.832254457e-19
2.778406727e-19
2.704625223e-19
2.615461248e-19
2.517817532e-19
2.421444522e-19
2.339456688e-19
2.288863601e-19
2.291088666e-19
2.372473568e-19
2.56473318e-19
2.905332294e-19
3.437703957e-19
4.21123442e-19
5.280899905e-19
6.706472315e-19
8.551192126e-19
1.087985133e-18
1.375621264e-18
1.723974758e-18
2.138167265e-18
2.622035093e-18
3.177616402e-18
3.804608063e-18
4.499820503e-18
5.256672458e-18
6.064772764e-18
6.909648865e-18
7.772683641e-18
8.631326249e-18
9.45962982e-18
1.022915338e-17
1.091023239e-17
1.147359346e-17
1.189224853e-17
1.214357149e-17
1.221141664e-17
1.208810332e-17
1.177605865e-17
1.128890858e-17
1.065183769e-17
9.901105836e-18
9.082695451e-18
8.25014285e-18
7.461677082e-18
6.776842052e-18
6.252850294e-18
5.94097622e-18
5.883360964e-18
6.110580564e-18
6.640270986e-18
7.47695288e-18
8.613081205e-18
1.003118827e-17
1.170690743e-17
1.361251433e-17
1.572054183e-17
1.800689124e-17
2.045289827e-17
2.304585982e-17
2.577779196e-17
2.86424014e-17
3.1630596e-17
3.472503901e-17
3.78945223e-17
4.108897921e-17
4.423608788e-17
4.724024965e-17
4.998461039e-17
5.233632813e-17
5.4154963e-17
5.530327978e-17
5.565953096e-17
5.512991925e-17
5.3660077e-17
5.12444102e-17
4.793278614e-17
4.383448341e-17
3.912010927e-17
3.40221211e-17
2.88344528e-17
2.391097549e-17
1.966288381e-17
1.65557496e-17
1.510785e-17
1.589043914e-17
1.952980323e-17
2.671050899e-17
3.817847575e-17
5.474432464e-17
7.727254202e-17
1.068183139e-16
1.416255036e-16
2.17972735e-16
6.996073025e-17
4.87357581e-20
6.185629169e-20
7.134864826e-20
7.929337487e-20
8.870247253e-20
9.913802916e-20
1.105331197e-19
1.227962478e-19
1.358251297e-19
1.495067908e-19
1.637164043e-19
1.783161808e-19
1.931540182e-19
2.080624897e-19
2.228584115e-19
2.373431445e-19
2.513039284e-19
2.645160844e-19
2.767469558e-19
2.87761541e-19
2.973309341e-19
3.052434338e-19
3.113185183e-19
3.154233875e-19
3.174923173e-19
3.175495013e-19
3.157369487e-19
3.123480939e-19
3.078681018e-19
3.030192153e-19
2.988101398e-19
2.965870028e-19
2.98085368e-19
3.05482484e-19
3.214498254e-19
3.492032247e-19
3.925459558e-19
4.558963295e-19
5.442897026e-19
6.633446458e-19
8.191841333e-19
1.01830526e-18
1.267391003e-18
1.573059563e-18
1.941545329e-18
2.378309228e-18
2.887577834e-18
3.471822519e-18
4.131195943e-18
4.862961069e-18
5.660953226e-18
6.515132729e-18
7.411283431e-18
8.33092602e-18
9.251501074e-18
1.014688244e-17
1.098825132e-17
1.174535534e-17
1.238812817e-17
1.288862563e-17
1.322316633e-17
1.337453632e-17
1.333405087e-17
1.310326436e-17
1.269510125e-17
1.213424343e-17
1.14566519e-17
1.070819911e-17
9.94244118e-18
9.217646535e-18
8.593255081e-18
8.126044249e-18
7.866354324e-18
7.854784474e-18
8.119742099e-18
8.676129559e-18
9.525318183e-18
1.065642174e-17
1.204878267e-17
1.367545478e-17
1.550733777e-17
1.751741706e-17
1.968444445e-17
2.199531608e-17
2.444556022e-17
2.703756914e-17
2.977662008e-17
3.266505654e-17
3.569538245e-17
3.884319684e-17
4.206107911e-17
4.527447455e-17
4.838057679e-17
5.125085404e-17
5.373751579e-17
5.568358909e-17
5.693579219e-17
5.735884799e-17
5.68497303e-17
5.535026252e-17
5.28568964e-17
4.942698549e-17
4.518175017e-17
4.030670097e-17
3.505059669e-17
2.972350709e-17
2.469408908e-17
2.038612133e-17
1.727532187e-17
1.588790987e-17
1.680169273e-17
2.064921422e-17
2.812207036e-17
3.9975498e-17
5.702998673e-17
8.016646826e-17
1.104403357e-16
1.460876495e-16
2.238485965e-16
7.166457062e-17
6.085020662e-20
7.408095445e-20
8.37106459e-20
9.180796819e-20
1.013916563e-19
1.120273586e-19
1.236523353e-19
1.36180316e-19
1.49516001e-19
1.635550592e-19
1.781830369e-19
1.932741428e-19
2.086899184e-19
2.24278355e-19
2.398734759e-19
2.552957955e-19
2.703533975e-19
2.848441793e-19
2.985595913e-19
3.112904994e-19
3.228358019e-19
3.33013784e-19
3.416759637e-19
3.487232166e-19
3.541243107e-19
3.579384391e-19
3.603429153e-19
3.616676703e-19
3.624360557e-19
3.634107642e-19
3.656424739e-19
3.705198975e-19
3.798210715e-19
3.95766775e-19
4.210763081e-19
4.590230601e-19
5.134835602e-19
5.889700236e-19
6.906352528e-19
8.24240031e-19
9.96075798e-19
1.212837632e-18
1.481443316e-18
1.808792515e-18
2.201457977e-18
2.665301044e-18
3.205008871e-18
3.823559759e-18
4.52163787e-18
5.297031793e-18
6.144065495e-18
7.053116959e-18
8.010286632e-18
8.997276246e-18
9.991539034e-18
1.09667535e-17
1.189366703e-17
1.2741334e-17
1.347874879e-17
1.407682386e-17
1.451061007e-17
1.476158981e-17
1.481983151e-17
1.468576904e-17
1.437138951e-17
1.390065194e-17
1.330902547e-17
1.264209871e-17
1.195328248e-17
1.130070001e-17
1.074345671e-17
1.03375944e-17
1.013214015e-17
1.016570155e-17
1.046400875e-17
1.103868272e-17
1.188736928e-17
1.299527882e-17
1.433808044e-17
1.588598229e-17
1.760861749e-17
1.948010881e-17
2.148344695e-17
2.361325599e-17
2.587614017e-17
2.82881749e-17
3.086958067e-17
3.363715591e-17
3.659545328e-17
3.972796622e-17
4.298965081e-17
4.630206389e-17
4.955218868e-17
5.259572361e-17
5.526509319e-17
5.738180415e-17
5.877200436e-17
5.928352199e-17
5.880232985e-17
5.726652995e-17
5.467641695e-17
5.110003264e-17
4.667455971e-17
4.160472984e-17
3.61596185e-17
3.06687976e-17
2.551811132e-17
2.114534159e-17
1.803680229e-17
1.672640046e-17
1.77977741e-17
2.188882888e-17
2.969764615e-17
4.198751631e-17
5.959116467e-17
8.339700526e-17
1.144870418e-16
1.510302339e-16
2.303821549e-16
7.355062404e-17
7.47347795e-20
8.809183572e-20
9.788136704e-20
1.061572468e-19
1.159450955e-19
1.26815699e-19
1.387118798e-19
1.515539334e-19
1.652546133e-19
1.797193629e-19
1.948453186e-19
2.105201335e-19
2.266207553e-19
2.430125718e-19
2.595491724e-19
2.760727545e-19
2.924151933e-19
3.08400193e-19
3.238470777e-19
3.385768684e-19
3.524211537e-19
3.652334326e-19
3.769028827e-19
3.873697599e-19
3.966435942e-19
4.048253214e-19
4.121354464e-19
4.189490912e-19
4.258372735e-19
4.336125883e-19
4.433769021e-19
4.565704127e-19
4.750231265e-19
5.010104664e-19
5.373135071e-19
5.872804115e-19
6.548808538e-19
7.447423088e-19
8.621566141e-19
1.013048382e-18
1.203900596e-18
1.441634537e-18
1.733440011e-18
2.086547269e-18
2.507928355e-18
3.003915696e-18
3.579732417e-18
4.23894144e-18
4.982836179e-18
5.809810829e-18
6.714759531e-18
7.688560619e-18
8.717705955e-18
9.784136471e-18
1.08653433e-17
1.193479306e-17
1.296272996e-17
1.391739507e-17
1.476667202e-17
1.548011735e-17
1.603126292e-17
1.640000859e-17
1.657487357e-17
1.655486186e-17
1.635071787e-17
1.598539442e-17
1.549361134e-17
1.492044067e-17
1.431891919e-17
1.374677524e-17
1.326247727e-17
1.292095713e-17
1.27694752e-17
1.284412168e-17
1.31673603e-17
1.374688029e-17
1.45759039e-17
1.563503406e-17
1.689566942e-17
1.83248566e-17
1.989117045e-17
2.15708384e-17
2.33530133e-17
2.524297495e-17
2.726221346e-17
2.944481622e-17
3.183027293e-17
3.445354002e-17
3.733377135e-17
4.046337146e-17
4.379899083e-17
4.72558793e-17
5.070677578e-17
5.398619665e-17
5.690048347e-17
5.924315309e-17
6.08140773e-17
6.144011696e-17
6.099445193e-17
5.941211862e-17
5.670012286e-17
5.294165445e-17
4.829516082e-17
4.298993823e-17
3.732013243e-17
3.163848955e-17
2.635040785e-17
2.190868253e-17
1.881005562e-17
1.759506963e-17
1.885167888e-17
2.322168576e-17
3.140832584e-17
4.418340328e-17
6.238942894e-17
8.693365519e-17
1.188987337e-16
1.564501959e-16
2.375160141e-16
7.561690563e-17
9.052585322e-20
1.0402386e-19
1.139959546e-19
1.224782067e-19
1.325029267e-19
1.436470189e-19
1.558601064e-19
1.69070265e-19
1.831995231e-19
1.981643386e-19
2.138748334e-19
2.302336277e-19
2.471348416e-19
2.644633909e-19
2.820948232e-19
2.99895667e-19
3.177246017e-19
3.354345922e-19
3.52876824e-19
3.699071285e-19
3.863949226e-19
4.022346375e-19
4.173589898e-19
4.317539918e-19
4.454767727e-19
4.586778936e-19
4.716300332e-19
4.847635106e-19
4.987075991e-19
5.143353081e-19
5.328099382e-19
5.556337002e-19
5.847003017e-19
6.223542377e-19
6.714562648e-19
7.354504799e-19
8.184227839e-19
9.251390653e-19
1.061052375e-18
1.232273486e-18
1.445502766e-18
1.707921818e-18
2.027038858e-18
2.410474656e-18
2.865671827e-18
3.399511721e-18
4.017833711e-18
4.724866691e-18
5.522598097e-18
6.410119023e-18
7.382992627e-18
8.432698925e-18
9.546214639e-18
1.070578931e-17
1.188898269e-17
1.30690285e-17
1.421558952e-17
1.52959558e-17
1.627670654e-17
1.71257948e-17
1.781493619e-17
1.832210546e-17
1.863389595e-17
1.874748778e-17
1.867199326e-17
1.842899344e-17
1.805212786e-17
1.758565112e-17
1.708193725e-17
1.659801152e-17
1.619134711e-17
1.591533327e-17
1.581494995e-17
1.592317146e-17
1.625850377e-17
1.68239059e-17
1.760727533e-17
1.858367146e-17
1.971940681e-17
2.097792974e-17
2.23270177e-17
2.374629649e-17
2.523366356e-17
2.680900941e-17
2.851383437e-17
3.040600388e-17
3.254988326e-17
3.500317299e-17
3.780250599e-17
4.095000833e-17
4.440268419e-17
4.806605603e-17
5.179323644e-17
5.539046943e-17
5.862976679e-17
6.126824515e-17
6.307222624e-17
6.384273947e-17
6.343851195e-17
6.179317627e-17
5.892487758e-17
5.493818931e-17
5.001975459e-17
4.443005581e-17
3.849383132e-17
3.259094096e-17
2.714848634e-17
2.263468792e-17
1.955566652e-17
1.845654007e-17
1.992710363e-17
2.461071722e-17
3.321453352e-17
4.651767283e-17
6.537683735e-17
9.070974952e-17
1.236355193e-16
1.622455905e-16
2.452135123e-16
7.784241744e-17
1.083675083e-19
1.220199317e-19
1.32197469e-19
1.40915703e-19
1.512128239e-19
1.626727504e-19
1.752529258e-19
1.888904062e-19
2.035176924e-19
2.190635933e-19
2.354526114e-19
2.526040249e-19
2.704310223e-19
2.888402336e-19
3.077315491e-19
3.269986668e-19
3.465302038e-19
3.662120559e-19
3.859315466e-19
4.055842364e-19
4.250829057e-19
4.443689128e-19
4.634248919e-19
4.822895956e-19
5.010754898e-19
5.199917172e-19
5.393733113e-19
5.597170433e-19
5.817220475e-19
6.063334125e-19
6.347876538e-19
6.68661538e-19
7.099273702e-19
7.610170132e-19
8.248930183e-19
9.051201174e-19
1.005925994e-18
1.1322393e-18
1.289697644e-18
1.484622803e-18
1.723963914e-18
2.015205988e-18
2.366233229e-18
2.785127915e-18
3.279882965e-18
3.858012164e-18
4.526056261e-18
5.28899899e-18
6.149619581e-18
7.107816337e-18
8.15994274e-18
9.29820416e-18
1.051017311e-17
1.177848921e-17
1.308081677e-17
1.439013591e-17
1.567544332e-17
1.69029265e-17
1.803763966e-17
1.904564136e-17
1.989646969e-17
2.056574754e-17
2.103766547e-17
2.130707613e-17
2.138096017e-17
2.127905861e-17
2.103351058e-17
2.068738361e-17
2.029204954e-17
1.990349007e-17
1.957780035e-17
1.936637589e-17
1.931137387e-17
1.94419978e-17
1.97719857e-17
2.029855915e-17
2.100308635e-17
2.185377738e-17
2.281067583e-17
2.383292177e-17
2.488770547e-17
2.595965663e-17
2.705881098e-17
2.822500026e-17
2.952671934e-17
3.105341869e-17
3.290171409e-17
3.515770787e-17
3.787859735e-17
4.10765065e-17
4.470644919e-17
4.865949338e-17
5.276210884e-17
5.67830803e-17
6.044930935e-17
6.347048101e-17
6.557002825e-17
6.651736581e-17
6.615559189e-17
6.442025371e-17
6.134739489e-17
5.707163458e-17
5.181682781e-17
4.588273378e-17
3.963098147e-17
3.347259105e-17
2.785805362e-17
2.327052903e-17
2.022327307e-17
1.926262152e-17
2.097649703e-17
2.600669609e-17
3.506213241e-17
4.893029332e-17
6.848078712e-17
9.465820983e-17
1.285892479e-16
1.683728106e-16
2.53354364e-16
8.021133816e-17
1.284093242e-19
1.422285647e-19
1.526347125e-19
1.616200973e-19
1.722278525e-19
1.840496546e-19
1.970516577e-19
2.11180968e-19
2.263818409e-19
2.425967787e-19
2.597661469e-19
2.778276088e-19
2.967154273e-19
3.163601238e-19
3.366885562e-19
3.576244445e-19
3.790897065e-19
4.010070249e-19
4.233044689e-19
4.459224632e-19
4.688230806e-19
4.920008921e-19
5.154954622e-19
5.394058302e-19
5.639086282e-19
5.89281622e-19
6.159336319e-19
6.444401386e-19
6.755829382e-19
7.103921706e-19
7.501912009e-19
7.966468162e-19
8.518285645e-19
9.182781742e-19
9.990859722e-19
1.097965051e-18
1.219311979e-18
1.368243961e-18
1.550608878e-18
1.772969764e-18
2.04256476e-18
2.367236846e-18
2.755315465e-18
3.215424709e-18
3.75619386e-18
4.385857856e-18
5.111751698e-18
5.939716733e-18
6.873442532e-18
7.913770865e-18
9.057993562e-18
1.029918859e-17
1.162565431e-17
1.302051666e-17
1.446159216e-17
1.592159402e-17
1.736876836e-17
1.876803569e-17
2.008267191e-17
2.127649268e-17
2.231641077e-17
2.317515804e-17
2.383391031e-17
2.428454282e-17
2.45312584e-17
2.459135666e-17
2.449495379e-17
2.428349338e-17
2.400698136e-17
2.372002059e-17
2.347697978e-17
2.33268539e-17
2.330847365e-17
2.344660285e-17
2.374928663e-17
2.420674171e-17
2.479218801e-17
2.546513858e-17
2.617758776e-17
2.688312336e-17
2.754826862e-17
2.816445549e-17
2.875818901e-17
2.939642744e-17
3.018431932e-17
3.125369144e-17
3.27432531e-17
3.477439433e-17
3.742777633e-17
4.072462615e-17
4.461409069e-17
4.896648542e-17
5.357282387e-17
5.815278148e-17
6.237406905e-17
6.588429034e-17
6.835180971e-17
6.950762232e-17
6.917912874e-17
6.730985314e-17
6.396395298e-17
5.931806042e-17
5.364483115e-17
4.729299005e-17
4.066797889e-17
3.421581723e-17
2.841122575e-17
2.375050314e-17
2.075021502e-17
1.995288366e-17
2.193938589e-17
2.734563593e-17
3.688033665e-17
5.133867758e-17
7.161044442e-17
9.866012583e-17
1.336684425e-16
1.746606388e-16
2.618410059e-16
8.268461847e-17
1.508038612e-19
1.648013111e-19
1.754594598e-19
1.847447396e-19
1.957038911e-19
2.079371763e-19
2.214202416e-19
2.361112595e-19
2.51967475e-19
2.689464264e-19
2.870059751e-19
3.061039043e-19
3.261975628e-19
3.472437235e-19
3.691988305e-19
3.920196914e-19
4.156650296e-19
4.400984616e-19
4.652935826e-19
4.912412525e-19
5.179589059e-19
5.455011241e-19
5.739718492e-19
6.035389003e-19
6.344528441e-19
6.670712936e-19
7.018893266e-19
7.3957455e-19
7.810053101e-19
8.273114238e-19
8.799192253e-19
9.406045099e-19
1.011556757e-18
1.095454309e-18
1.195544462e-18
1.315718562e-18
1.460570734e-18
1.635434546e-18
1.846398698e-18
2.100306111e-18
2.404735937e-18
2.767956212e-18
3.198821487e-18
3.706585086e-18
4.300603831e-18
4.989929351e-18
5.782796996e-18
6.6860301e-18
7.704375867e-18
8.839787001e-18
1.009067164e-17
1.145115407e-17
1.291041284e-17
1.445218e-17
1.6054495e-17
1.768980931e-17
1.932554163e-17
2.092516808e-17
2.244989289e-17
2.386086357e-17
2.512180567e-17
2.620186742e-17
2.707841411e-17
2.773949313e-17
2.818568401e-17
2.84310752e-17
2.850311308e-17
2.844112445e-17
2.829338708e-17
2.811285555e-17
2.795193669e-17
2.785697354e-17
2.786312097e-17
2.799012836e-17
2.823937465e-17
2.859255137e-17
2.901261441e-17
2.944779048e-17
2.983930294e-17
3.013295037e-17
3.029372991e-17
3.032151639e-17
3.026457161e-17
3.022663743e-17
3.036310346e-17
3.08634694e-17
3.192191104e-17
3.370323919e-17
3.631334349e-17
3.97792632e-17
4.403811228e-17
4.893153172e-17
5.420473062e-17
5.951400141e-17
6.444943696e-17
6.857665152e-17
7.149264968e-17
7.288211918e-17
7.255901209e-17
7.048545225e-17
6.676906018e-17
6.164485178e-17
5.544888714e-17
4.85900485e-17
4.152471914e-17
3.473699778e-17
2.872524856e-17
2.399525682e-17
2.10609757e-17
2.045401052e-17
2.274117503e-17
2.854713573e-17
3.857747271e-17
5.363749973e-17
7.463843273e-17
1.025880362e-16
1.386908824e-16
1.810024432e-16
2.704697173e-16
8.522910894e-17
1.757037832e-19
1.89889774e-19
2.00823615e-19
2.104430092e-19
2.217967637e-19
2.344944904e-19
2.485221499e-19
2.638500327e-19
2.804494663e-19
2.982944741e-19
3.173619588e-19
3.376316665e-19
3.590861031e-19
3.817106982e-19
4.054942596e-19
4.304298525e-19
4.565167112e-19
4.837637664e-19
5.121951889e-19
5.418580641e-19
5.728316005e-19
6.052375551e-19
6.392522874e-19
6.751217976e-19
7.131813443e-19
7.538807189e-19
7.978147754e-19
8.457576377e-19
8.986994382e-19
9.578863509e-19
1.02486682e-18
1.101548403e-18
1.19026748e-18
1.29386931e-18
1.415790225e-18
1.560131188e-18
1.731714268e-18
1.936121166e-18
2.179719538e-18
2.469682179e-18
2.813994365e-18
3.221428278e-18
3.701451757e-18
4.26404023e-18
4.919374897e-18
5.677431061e-18
6.547470963e-18
7.537453769e-18
8.653366231e-18
9.89847499e-18
1.127251614e-17
1.277086769e-17
1.438377837e-17
1.609574556e-17
1.788514121e-17
1.972419316e-17
2.157943123e-17
2.341269967e-17
2.51827873e-17
2.684765045e-17
2.836711054e-17
2.970582859e-17
3.083631028e-17
3.174164526e-17
3.241768118e-17
3.287429921e-17
3.313548406e-17
3.323788504e-17
3.322772115e-17
3.31561523e-17
3.307362029e-17
3.302388825e-17
3.303845596e-17
3.31318078e-17
3.329785713e-17
3.350815847e-17
3.371281172e-17
3.384520659e-17
3.38316236e-17
3.360605327e-17
3.312940278e-17
3.241066563e-17
3.152581511e-17
3.062822363e-17
2.994299174e-17
2.973966727e-17
3.028652666e-17
3.180086779e-17
3.441234968e-17
3.814583163e-17
4.291690551e-17
4.852961144e-17
5.467276174e-17
6.092272955e-17
6.676760839e-17
7.166289089e-17
7.511155963e-17
7.674318811e-17
7.636526101e-17
7.397681805e-17
6.975187969e-17
6.400586789e-17
5.715602007e-17
4.968350889e-17
4.210209981e-17
3.493536318e-17
2.870247926e-17
2.391252096e-17
2.10682505e-17
2.0680675e-17
2.329344927e-17
2.95131432e-17
4.003982574e-17
5.569007543e-17
7.740885136e-17
1.062443811e-16
1.434857811e-16
1.871306346e-16
2.790587383e-16
8.778296191e-17
2.032587383e-19
2.176425907e-19
2.288759333e-19
2.388650355e-19
2.506588298e-19
2.638771381e-19
2.785170594e-19
2.945618878e-19
3.119982885e-19
3.308181595e-19
3.510189891e-19
3.726043177e-19
3.955839942e-19
4.199745973e-19
4.458001198e-19
4.730932228e-19
5.018975591e-19
5.322719472e-19
5.642964481e-19
5.980803117e-19
6.33771228e-19
6.715657576e-19
7.11721391e-19
7.545724941e-19
8.005508299e-19
8.502116536e-19
9.042640123e-19
9.636040545e-19
1.029350563e-18
1.102885071e-18
1.185900603e-18
1.280463206e-18
1.389086978e-18
1.514817547e-18
1.661314145e-18
1.832920382e-18
2.034719717e-18
2.272579953e-18
2.553195934e-18
2.884133402e-18
3.273861808e-18
3.731746398e-18
4.267962758e-18