/*--------------------------------*- C++ -*----------------------------------*\
  =========                 |
  \\      /  F ield         | OpenFOAM: The Open Source CFD Toolbox
   \\    /   O peration     | Website:  https://openfoam.org
    \\  /    A nd           | Version:  6
     \\/     M anipulation  |
\*---------------------------------------------------------------------------*/
FoamFile
{
    version     2.0;
    format      ascii;
    class       volScalarField;
    location    "0.0037";
    object      TRHS;
}
// * * * * * * * * * * * * * * * * * * * * * * * * * * * * * * * * * * * * * //

dimensions      [1 -1 -3 0 0 0 0];

internalField   nonuniform List<scalar> 
600
(
7.793833702e-09
3.546318239e-09
7.620106065e-10
-1.270423868e-09
-2.824529245e-09
-3.982660759e-09
-4.567283281e-09
-4.111904491e-09
-1.729578577e-09
4.113943403e-09
1.610886169e-08
3.898188786e-08
8.060266835e-08
1.476343056e-07
2.026188184e-07
2.154355558e-07
-1.752110384e-07
21.92721345
18.22874913
0
0
0
0
0
0
0
-0.005972238653
20.34657071
-5.117094258e-05
-2.519401748e-10
9.829056788e-09
5.0645311e-09
1.841251278e-09
-5.225655898e-10
-2.270957411e-09
-3.46781215e-09
-3.902707983e-09
-3.051764297e-09
2.831114716e-11
6.785380425e-09
1.925457348e-08
3.986642609e-08
7.074897909e-08
1.115411776e-07
1.687419363e-07
2.648490021e-07
5.664317739e-07
-5.47097551e-05
-4.604625849e-05
441.0458492
132.9583696
126.7899674
66.44120738
117.6990121
105.8928943
360.0707085
-1.787956088e-07
-1.469395123e-07
-1.353052193e-08
7.123190784e-08
1.048870656e-08
5.627050067e-09
2.269828309e-09
-2.389643349e-10
-2.123340116e-09
-3.434485578e-09
-3.963263793e-09
-3.183525002e-09
-1.924410444e-10
6.306979286e-09
1.782428904e-08
3.546689023e-08
5.858508077e-08
8.318940105e-08
1.091414566e-07
1.467877838e-07
1.968713715e-07
2.533609228e-07
7.11612003e-07
-0.002211537153
-0.0006554113317
-0.0006224748264
-0.0003180323844
-0.0005775872143
-0.0005205318966
-0.001805470106
-1.804989153e-07
-2.048450921e-07
-3.125236104e-07
-1.942155607e-07
9.930361817e-09
5.354738011e-09
2.123726654e-09
-3.818886286e-10
-2.361878005e-09
-3.872574476e-09
-4.723225076e-09
-4.416913105e-09
-2.048554854e-09
3.796488133e-09
1.511637386e-08
3.434859042e-08
6.362886893e-08
1.027343224e-07
1.579197066e-07
2.498583709e-07
5.469144276e-07
-4.390870555e-05
-2.758757006e-05
436.8921333
127.0402084
120.1428564
59.72073683
111.4271103
100.5996502
356.5225472
-2.268780094e-07
-1.619177982e-07
-2.479261544e-08
6.374743628e-08
8.375137987e-09
4.41120223e-09
1.513914024e-09
-8.71004517e-10
-2.922188913e-09
-4.712314414e-09
-6.108548322e-09
-6.705639192e-09
-5.696076579e-09
-1.623215057e-09
8.134498512e-09
2.826414586e-08
6.662183615e-08
1.300498378e-07
1.810478736e-07
1.907480819e-07
-1.97627035e-07
17.63588928
10.89959331
0
0
0
0
0
0
0
-0.006186229415
17.08496159
-4.295211222e-05
-2.154444654e-10
6.125249711e-09
3.001539567e-09
5.831757998e-10
-1.599374669e-09
-3.700682714e-09
-5.823303758e-09
-7.931106483e-09
-9.816882098e-09
-1.104078728e-08
-1.078315264e-08
-7.369318638e-09
3.095338504e-09
3.075162819e-08
8.875455457e-08
2.562236166e-07
-0.0001045835947
41.55317049
0
0
0
0
0
0
0
0
0
0
0
391.8050893
-0.002065114083
3.540506423e-09
1.362034669e-09
-5.087497694e-10
-2.44420338e-09
-4.571392197e-09
-7.019526522e-09
-9.847002656e-09
-1.305389996e-08
-1.664466e-08
-2.084221414e-08
-2.654323357e-08
-3.589411481e-08
-4.57115037e-08
1.235569023e-08
9.878521008e-08
-0.0006627598404
106.5547472
0
0
0
0
0
0
0
0
0
0
0
-0.005417580673
-2.511078054e-05
1.00157072e-09
-2.643797229e-10
-1.601978952e-09
-3.289169458e-09
-5.424278399e-09
-8.14852583e-09
-1.156871747e-08
-1.574420291e-08
-2.067945112e-08
-2.636868456e-08
-3.294706691e-08
-4.158201463e-08
-7.954989314e-08
-1.235643361e-07
-2.642139321e-07
156.4892919
0
0
0
0
0
0
0
0
0
0
0
0
0
-0.002528705261
-1.143241656e-09
-1.657938458e-09
-2.554689489e-09
-4.037246239e-09
-6.184885909e-09
-9.160031294e-09
-1.313321037e-08
-1.827301368e-08
-2.470907011e-08
-3.246190362e-08
-4.130094614e-08
-5.269318641e-08
-1.267467691e-07
-2.187812999e-07
-1.843080155e-07
-0.006212997051
0
0
0
0
0
0
0
0
0
0
0
0
0
0
-2.623878889e-09
-2.647353643e-09
-3.253682861e-09
-4.602527039e-09
-6.767901036e-09
-9.940458771e-09
-1.438277181e-08
-2.048371755e-08
-2.888778463e-08
-4.073030158e-08
-5.785900659e-08
-8.14184164e-08
-8.275587662e-08
-9.91778076e-08
-0.0001753762038
69.5680886
0
0
0
0
0
0
0
0
0
0
0
0
0
0
-3.289230725e-09
-3.134389605e-09
-3.629123307e-09
-4.921433642e-09
-7.080197025e-09
-1.029412714e-08
-1.482687114e-08
-2.107717663e-08
-2.970745437e-08
-4.189179346e-08
-5.951579322e-08
-8.382090868e-08
-8.612178713e-08
-1.042292332e-07
-0.0001753080737
69.53973364
0
0
0
0
0
0
0
0
0
0
0
0
0
0
-3.124052142e-09
-3.106400712e-09
-3.670452679e-09
-4.984142665e-09
-7.112441253e-09
-1.02096302e-08
-1.445209504e-08
-2.003183147e-08
-2.71341381e-08
-3.587179501e-08
-4.616935304e-08
-5.96717575e-08
-1.366803404e-07
-2.340808993e-07
-1.952839361e-07
-0.006215769986
0
0
0
0
0
0
0
0
0
0
0
0
0
0
-2.249591092e-09
-2.636254228e-09
-3.425594798e-09
-4.835971015e-09
-6.940166725e-09
-9.866145105e-09
-1.372795974e-08
-1.862123388e-08
-2.462633082e-08
-3.186908489e-08
-4.066499177e-08
-5.248777902e-08
-9.556333731e-08
-1.495238711e-07
-2.718217121e-07
156.406716
0
0
0
0
0
0
0
0
0
0
0
0
0
-0.00247837817
-8.959910747e-10
-1.863302417e-09
-2.982503283e-09
-4.542674681e-09
-6.63391486e-09
-9.366298675e-09
-1.280731771e-08
-1.700108812e-08
-2.203954828e-08
-2.827730801e-08
-3.677357629e-08
-4.984080329e-08
-6.427248841e-08
-1.07677992e-08
7.888447448e-08
-0.0006619056046
106.2901468
0
0
0
0
0
0
0
0
0
0
0
-0.005430656131
-2.640565848e-05
6.372809418e-10
-9.678694946e-10
-2.452232055e-09
-4.17934078e-09
-6.254653413e-09
-8.756397797e-09
-1.165974594e-08
-1.480792381e-08
-1.785547099e-08
-2.011283907e-08
-2.006919457e-08
-1.401158563e-08
7.832715335e-09
5.705785379e-08
2.07904242e-07
-0.0001040967306
41.34922237
0
0
0
0
0
0
0
0
0
0
0
391.1475364
-0.002065608438
2.038747661e-09
-1.395441739e-10
-1.954697875e-09
-3.835275665e-09
-5.896369605e-09
-8.184726615e-09
-1.057923217e-08
-1.273390023e-08
-1.393147751e-08
-1.283218381e-08
-6.910674985e-09
8.446152361e-09
4.115624553e-08
9.776482574e-08
1.381852279e-07
1.462097463e-07
-2.283354737e-07
17.2768163
10.02012392
0
0
0
0
0
0
0
-0.006133422172
18.12055558
-4.555940331e-05
-8.500694533e-11
3.037658384e-09
4.572820041e-10
-1.598175237e-09
-3.595892301e-09
-5.663578962e-09
-7.824123428e-09
-9.910339384e-09
-1.148583198e-08
-1.174852178e-08
-9.384131052e-09
-2.476747745e-09
1.140092053e-08
3.448688346e-08
6.690256578e-08
1.156727338e-07
2.012090315e-07
4.936380909e-07
-4.303583953e-05
-2.536520767e-05
435.2302211
128.5608766
122.6369614
62.44464494
113.9959277
102.5664572
357.0164545
-1.90880069e-07
-1.536800428e-07
-2.281228388e-08
8.188798949e-08
3.458242475e-09
7.116962687e-10
-1.454469318e-09
-3.523084024e-09
-5.625317314e-09
-7.783199271e-09
-9.817650761e-09
-1.128278461e-08
-1.138706141e-08
-8.947393401e-09
-2.529028992e-09
8.994608821e-09
2.515433567e-08
4.249440892e-08
6.19345914e-08
9.329447315e-08
1.42104726e-07
2.249331619e-07
6.754250361e-07
-0.002192592404
-0.0006481286377
-0.0006184153561
-0.0003150798948
-0.000575085263
-0.0005175344094
-0.001799388233
-1.934538968e-07
-2.087778953e-07
-3.273073493e-07
-1.788068215e-07
3.24608799e-09
5.899335217e-10
-1.546338701e-09
-3.636373936e-09
-5.803711114e-09
-8.090919223e-09
-1.033164041e-08
-1.211231475e-08
-1.262288598e-08
-1.05642983e-08
-4.006320324e-09
9.444024685e-09
3.203062881e-08
6.396524135e-08
1.122701242e-07
1.951520372e-07
4.891965853e-07
-4.248297568e-05
-2.471098914e-05
435.1811727
128.5486931
122.6854901
62.54606192
114.1376788
102.736998
357.160159
-2.121009032e-07
-1.729201404e-07
8.741009116e-09
7.461342898e-08
2.480665415e-09
1.454777749e-10
-1.846477347e-09
-3.908169337e-09
-6.177661473e-09
-8.709473055e-09
-1.141894853e-08
-1.396992777e-08
-1.567385484e-08
-1.517346232e-08
-9.969150777e-09
4.571722399e-09
3.635686256e-08
9.179461826e-08
1.288500396e-07
1.348628217e-07
-2.368827207e-07
17.05672269
9.759568854
0
0
0
0
0
0
0
-0.006121988256
18.3328613
-4.610298403e-05
-8.18533442e-11
)
;

boundaryField
{
    lowerWall
    {
        type            calculated;
        value           nonuniform 0();
    }
    atmosphere
    {
        type            calculated;
        value           nonuniform List<scalar> 
20
(
7.793833702e-09
9.829056788e-09
1.048870656e-08
9.930361817e-09
8.375137987e-09
6.125249711e-09
3.540506423e-09
1.00157072e-09
-1.143241656e-09
-2.623878889e-09
-3.289230725e-09
-3.124052142e-09
-2.249591092e-09
-8.959910747e-10
6.372809418e-10
2.038747661e-09
3.037658384e-09
3.458242475e-09
3.24608799e-09
2.480665415e-09
)
;
    }
    rightWall
    {
        type            empty;
    }
    leftWall
    {
        type            empty;
    }
    frontAndBack
    {
        type            calculated;
        value           nonuniform 0();
    }
    procBoundary2to0
    {
        type            processor;
        value           nonuniform List<scalar> 
30
(
4.224910464e-09
9.627078054e-10
-1.009415534e-09
-2.475146417e-09
-3.750535863e-09
-4.918797181e-09
-5.869964597e-09
-6.281313786e-09
-5.597193912e-09
-2.871088292e-09
3.675141168e-09
1.804851547e-08
5.044146969e-08
1.13329051e-07
2.874054587e-07
-0.0001163626598
46.23581439
0
0
0
0
0
0
0
0
0
0
0
393.7128196
-0.002066295491
)
;
    }
    procBoundary2to3
    {
        type            processor;
        value           nonuniform List<scalar> 
20
(
-9.828763159e-05
-0.008773702983
-0.007212221876
-0.008774500233
-8.647299967e-05
427.410757
9.95338304
0
0
0
0
0
0
10.46709155
428.2645126
-3.379468263e-05
-0.008695011692
-0.007138562331
-0.008690896168
-2.985053753e-05
)
;
    }
    procBoundary2to4
    {
        type            processor;
        value           nonuniform List<scalar> 
30
(
1.367445619e-09
-5.073403721e-10
-2.270996751e-09
-4.285744867e-09
-6.670657775e-09
-9.539387289e-09
-1.289928072e-08
-1.66410159e-08
-2.043394157e-08
-2.36064875e-08
-2.464361461e-08
-1.988585464e-08
3.991311333e-10
4.788648838e-08
1.955562376e-07
-0.000103220996
40.9977723
0
0
0
0
0
0
0
0
0
0
0
391.0692514
-0.002065449672
)
;
    }
}


// ************************************************************************* //
