/*--------------------------------*- C++ -*----------------------------------*\
  =========                 |
  \\      /  F ield         | OpenFOAM: The Open Source CFD Toolbox
   \\    /   O peration     | Website:  https://openfoam.org
    \\  /    A nd           | Version:  10
     \\/     M anipulation  |
\*---------------------------------------------------------------------------*/
FoamFile
{
    format      ascii;
    class       volVectorField;
    location    "0.0001";
    object      gradT;
}
// * * * * * * * * * * * * * * * * * * * * * * * * * * * * * * * * * * * * * //

dimensions      [0 -1 0 1 0 0 0];

internalField   nonuniform List<vector> 
3600
(
(0 -0.1570872629 -286.7850099)
(0 -0.1314882199 -286.8044063)
(0 -0.1087932956 -286.8204267)
(0 -0.08900680443 -286.8335037)
(0 -0.07202429677 -286.8440569)
(0 -0.05766236345 -286.8524789)
(0 -0.04568567492 -286.8591276)
(0 -0.03583065834 -286.8643212)
(0 -0.02782427793 -286.8683364)
(0 -0.02139899039 -286.8714097)
(0 -0.01630289608 -286.8737391)
(0 -0.01230655493 -286.8754877)
(0 -0.009206731976 -286.8767882)
(0 -0.006827601716 -286.8777466)
(0 -0.00502012605 -286.8784468)
(0 -0.003660452882 -286.8789538)
(0 -0.002647414712 -286.8793178)
(0 -0.001899590498 -286.8795771)
(0 -0.001352513093 -286.8797602)
(0 -0.0009557310972 -286.8798886)
(0 -0.000670400108 -286.8799779)
(0 -0.0004669136773 -286.8800395)
(0 -0.0003228651367 -286.8800818)
(0 -0.0002217902833 -286.8801106)
(0 -0.0001513541998 -286.88013)
(0 -0.0001025968657 -286.8801431)
(0 -6.912582943e-05 -286.8801518)
(0 -4.626917474e-05 -286.8801576)
(0 -3.079758857e-05 -286.8801614)
(0 -2.039496518e-05 -286.8801639)
(0 -1.342017826e-05 -286.8801655)
(0 -8.774731938e-06 -286.8801665)
(0 -5.691002614e-06 -286.8801672)
(0 -3.719004034e-06 -286.8801677)
(0 -2.395515054e-06 -286.8801679)
(0 -1.522012327e-06 -286.8801681)
(0 -9.793818453e-07 -286.8801682)
(0 -6.352747104e-07 -286.8801683)
(0 -3.97046694e-07 -286.8801683)
(0 -2.514629062e-07 -286.8801683)
(0 -1.588186776e-07 -286.8801684)
(0 -7.940933881e-08 -286.8801684)
(0 -6.6174449e-08 -286.8801684)
(0 -3.97046694e-08 -286.8801684)
(0 -1.32348898e-08 -286.8801684)
(0 -1.32348898e-08 -286.8801684)
(0 -1.32348898e-08 -286.8801684)
(0 0 -286.8801684)
(0 -1.32348898e-08 -286.8801684)
(0 0 -286.8801684)
(0 0 -286.8801684)
(0 0 -286.8801684)
(0 0 -286.8801684)
(0 0 -286.8801684)
(0 -1.32348898e-08 -286.8801684)
(0 0 -286.8801684)
(0 0 -286.8801684)
(0 0 -286.8801684)
(0 0 -286.8801684)
(0 -1.32348898e-08 -286.8801684)
(0 -0.199685013 -260.4908338)
(0 -0.1669049968 -260.5538377)
(0 -0.1378907169 -260.6058429)
(0 -0.1126370252 -260.6482666)
(0 -0.09099944944 -260.6824799)
(0 -0.07273305158 -260.7097659)
(0 -0.05752793668 -260.731292)
(0 -0.04503949466 -260.7480954)
(0 -0.0349128452 -260.7610775)
(0 -0.02680161799 -260.7710068)
(0 -0.02038084356 -260.7785271)
(0 -0.01535570148 -260.7841685)
(0 -0.01146570267 -260.7883611)
(0 -0.008486158401 -260.7914486)
(0 -0.006227214175 -260.7937023)
(0 -0.004531507154 -260.795333)
(0 -0.003270725082 -260.7965031)
(0 -0.002342019629 -260.7973357)
(0 -0.00166403593 -260.7979235)
(0 -0.001173418565 -260.7983351)
(0 -0.0008213440262 -260.7986213)
(0 -0.0005708207971 -260.7988186)
(0 -0.0003939100251 -260.7989539)
(0 -0.0002700049868 -260.7990458)
(0 -0.0001838458542 -260.7991079)
(0 -0.0001243550246 -260.7991496)
(0 -8.361803376e-05 -260.7991773)
(0 -5.586446985e-05 -260.7991957)
(0 -3.708416122e-05 -260.7992078)
(0 -2.449778102e-05 -260.7992158)
(0 -1.6093626e-05 -260.7992209)
(0 -1.05085025e-05 -260.7992243)
(0 -6.829203137e-06 -260.7992264)
(0 -4.407218304e-06 -260.7992278)
(0 -2.845501307e-06 -260.7992286)
(0 -1.813179903e-06 -260.7992292)
(0 -1.164670302e-06 -260.7992296)
(0 -7.411538288e-07 -260.7992298)
(0 -4.63221143e-07 -260.7992299)
(0 -2.911675756e-07 -260.79923)
(0 -1.852884572e-07 -260.79923)
(0 -1.191140082e-07 -260.7992301)
(0 -5.29395592e-08 -260.7992301)
(0 -3.97046694e-08 -260.7992301)
(0 -3.97046694e-08 -260.7992301)
(0 -2.64697796e-08 -260.7992301)
(0 0 -260.7992301)
(0 1.32348898e-08 -260.7992301)
(0 0 -260.7992301)
(0 -2.64697796e-08 -260.7992301)
(0 0 -260.7992301)
(0 1.32348898e-08 -260.7992301)
(0 1.32348898e-08 -260.7992301)
(0 0 -260.7992301)
(0 -2.64697796e-08 -260.7992301)
(0 0 -260.7992301)
(0 0 -260.7992301)
(0 0 -260.7992301)
(0 0 -260.7992301)
(0 0 -260.7992301)
(0 -0.2955001227 -234.5932721)
(0 -0.2464973609 -234.7153944)
(0 -0.2032221299 -234.8160826)
(0 -0.1656438441 -234.8981243)
(0 -0.1335236268 -234.9642093)
(0 -0.1064744767 -235.0168497)
(0 -0.0840152128 -235.0583268)
(0 -0.06561608224 -235.0906631)
(0 -0.05073568535 -235.1156137)
(0 -0.0388486235 -235.1346724)
(0 -0.02946455723 -235.149088)
(0 -0.0221405148 -235.1598876)
(0 -0.01648687428 -235.1679027)
(0 -0.01216879296 -235.1737973)
(0 -0.008904486798 -235.1780939)
(0 -0.006461273201 -235.1811985)
(0 -0.004650131471 -235.1834231)
(0 -0.003319998576 -235.1850038)
(0 -0.002351919327 -235.186118)
(0 -0.001653514192 -235.1868973)
(0 -0.001153923572 -235.1874381)
(0 -0.0007994932231 -235.1878107)
(0 -0.0005500287852 -235.1880655)
(0 -0.0003758311657 -235.1882386)
(0 -0.0002551025009 -235.1883553)
(0 -0.0001720535674 -235.1884335)
(0 -0.0001153155948 -235.1884855)
(0 -7.678883062e-05 -235.1885199)
(0 -5.083521173e-05 -235.1885425)
(0 -3.344456653e-05 -235.1885573)
(0 -2.190374262e-05 -235.1885669)
(0 -1.425397632e-05 -235.1885731)
(0 -9.224718191e-06 -235.1885771)
(0 -5.9689353e-06 -235.1885796)
(0 -3.811648263e-06 -235.1885813)
(0 -2.435219723e-06 -235.1885823)
(0 -1.548482107e-06 -235.1885829)
(0 -9.793818453e-07 -235.1885833)
(0 -6.088049308e-07 -235.1885836)
(0 -3.838118042e-07 -235.1885837)
(0 -2.382280164e-07 -235.1885838)
(0 -1.455837878e-07 -235.1885839)
(0 -1.058791184e-07 -235.1885839)
(0 -5.29395592e-08 -235.1885839)
(0 -5.29395592e-08 -235.188584)
(0 -2.64697796e-08 -235.188584)
(0 -1.32348898e-08 -235.188584)
(0 1.32348898e-08 -235.188584)
(0 0 -235.188584)
(0 1.32348898e-08 -235.188584)
(0 0 -235.188584)
(0 -1.32348898e-08 -235.188584)
(0 0 -235.188584)
(0 0 -235.188584)
(0 1.32348898e-08 -235.188584)
(0 0 -235.188584)
(0 0 -235.188584)
(0 -2.64697796e-08 -235.188584)
(0 -1.32348898e-08 -235.188584)
(0 -1.32348898e-08 -235.188584)
(0 -0.4681370046 -209.3204484)
(0 -0.3897155842 -209.5312999)
(0 -0.3206205523 -209.7048839)
(0 -0.2607637118 -209.8461048)
(0 -0.2097248813 -209.9596809)
(0 -0.1668504822 -210.050006)
(0 -0.1313412861 -210.1210601)
(0 -0.1023264372 -210.1763634)
(0 -0.07892222869 -210.2189634)
(0 -0.06027591008 -210.2514481)
(0 -0.04559602178 -210.2759761)
(0 -0.03417039435 -210.294319)
(0 -0.02537542627 -210.3079084)
(0 -0.01867730148 -210.3178844)
(0 -0.01362848219 -210.3251426)
(0 -0.009860667881 -210.3303777)
(0 -0.007075927953 -210.3341217)
(0 -0.005036974065 -210.3367771)
(0 -0.003557564848 -210.3386453)
(0 -0.002493545883 -210.3399495)
(0 -0.00173478965 -210.3408528)
(0 -0.001198194278 -210.3414739)
(0 -0.0008217807775 -210.3418979)
(0 -0.0005597431943 -210.3421852)
(0 -0.0003787296065 -210.3423786)
(0 -0.0002545995751 -210.3425079)
(0 -0.0001700683339 -210.3425939)
(0 -0.00011289361 -210.3426505)
(0 -7.449919469e-05 -210.3426877)
(0 -4.886321314e-05 -210.342712)
(0 -3.186961464e-05 -210.3427277)
(0 -2.069936765e-05 -210.3427378)
(0 -1.335400381e-05 -210.3427443)
(0 -8.576208591e-06 -210.3427485)
(0 -5.479244378e-06 -210.3427511)
(0 -3.480776018e-06 -210.3427528)
(0 -2.196991707e-06 -210.3427538)
(0 -1.376428539e-06 -210.3427544)
(0 -8.867376167e-07 -210.3427549)
(0 -5.29395592e-07 -210.3427551)
(0 -3.441071348e-07 -210.3427552)
(0 -2.117582368e-07 -210.3427553)
(0 -1.32348898e-07 -210.3427554)
(0 -1.058791184e-07 -210.3427554)
(0 -2.64697796e-08 -210.3427554)
(0 -2.64697796e-08 -210.3427555)
(0 -2.64697796e-08 -210.3427555)
(0 -1.32348898e-08 -210.3427555)
(0 0 -210.3427555)
(0 0 -210.3427555)
(0 0 -210.3427555)
(0 0 -210.3427555)
(0 0 -210.3427555)
(0 0 -210.3427555)
(0 0 -210.3427555)
(0 0 -210.3427555)
(0 1.32348898e-08 -210.3427555)
(0 -1.32348898e-08 -210.3427555)
(0 0 -210.3427555)
(0 0 -210.3427555)
(0 -0.759367843 -184.8439945)
(0 -0.6309328593 -185.1936667)
(0 -0.518027007 -185.4810413)
(0 -0.420440897 -185.7144274)
(0 -0.3374248654 -185.9017902)
(0 -0.2678536423 -186.0505238)
(0 -0.21037261 -186.1673068)
(0 -0.1635194193 -186.2580295)
(0 -0.1258203651 -186.3277782)
(0 -0.0958612465 -186.3808608)
(0 -0.0723355152 -186.4208618)
(0 -0.05407287605 -186.4507156)
(0 -0.04005223084 -186.4727877)
(0 -0.02940301499 -186.4889571)
(0 -0.02139781249 -186.5006969)
(0 -0.01544032537 -186.5091465)
(0 -0.01104949186 -186.5151763)
(0 -0.00784365744 -186.5194438)
(0 -0.005524282708 -186.5224396)
(0 -0.003860987932 -186.5245262)
(0 -0.002678397589 -186.5259684)
(0 -0.001844546592 -186.5269578)
(0 -0.001261337938 -186.5276316)
(0 -0.0008565885377 -186.5280872)
(0 -0.0005778352887 -186.5283932)
(0 -0.0003872528756 -186.5285973)
(0 -0.0002578818278 -186.5287326)
(0 -0.000170663904 -186.5288216)
(0 -0.0001122848051 -186.5288799)
(0 -7.341393373e-05 -186.5289179)
(0 -4.77514824e-05 -186.5289424)
(0 -3.08902328e-05 -186.5289582)
(0 -1.987880448e-05 -186.5289683)
(0 -1.273196399e-05 -186.5289747)
(0 -8.112987448e-06 -186.5289788)
(0 -5.108667463e-06 -186.5289813)
(0 -3.229313111e-06 -186.5289829)
(0 -2.038173029e-06 -186.5289839)
(0 -1.257314531e-06 -186.5289845)
(0 -7.808584983e-07 -186.5289849)
(0 -4.896909226e-07 -186.5289851)
(0 -3.176373552e-07 -186.5289853)
(0 -1.98523347e-07 -186.5289854)
(0 -1.058791184e-07 -186.5289854)
(0 -5.29395592e-08 -186.5289854)
(0 -5.29395592e-08 -186.5289855)
(0 -3.97046694e-08 -186.5289855)
(0 -1.32348898e-08 -186.5289855)
(0 -1.32348898e-08 -186.5289855)
(0 0 -186.5289855)
(0 0 -186.5289855)
(0 -1.32348898e-08 -186.5289855)
(0 0 -186.5289855)
(0 0 -186.5289855)
(0 2.64697796e-08 -186.5289855)
(0 0 -186.5289855)
(0 0 -186.5289855)
(0 0 -186.5289855)
(0 -1.32348898e-08 -186.5289855)
(0 0 -186.5289855)
(0 -1.238108946 -161.2517415)
(0 -1.02676238 -161.8213362)
(0 -0.8413812655 -162.2885925)
(0 -0.6815125979 -162.6673535)
(0 -0.5458213608 -162.9708405)
(0 -0.4323670415 -163.2112852)
(0 -0.3388469808 -163.3997019)
(0 -0.2627978746 -163.5457765)
(0 -0.2017534675 -163.6578488)
(0 -0.1533594709 -163.7429632)
(0 -0.1154508819 -163.806966)
(0 -0.08609628011 -163.8546301)
(0 -0.0636169389 -163.8897928)
(0 -0.04658658711 -163.9154953)
(0 -0.03381777718 -163.9341147)
(0 -0.02434003437 -163.9474853)
(0 -0.01737322808 -163.957005)
(0 -0.01230028159 -163.9637268)
(0 -0.00864000076 -163.9684345)
(0 -0.00602236455 -163.9717058)
(0 -0.004166356544 -163.9739614)
(0 -0.002861383175 -163.975505)
(0 -0.001951206568 -163.9765537)
(0 -0.001321358163 -163.9772612)
(0 -0.0008888287292 -163.9777351)
(0 -0.0005939818543 -163.9780505)
(0 -0.0003943997161 -163.9782589)
(0 -0.0002602773428 -163.9783959)
(0 -0.0001707168435 -163.9784853)
(0 -0.0001113186581 -163.9785433)
(0 -7.218308897e-05 -163.9785807)
(0 -4.654710743e-05 -163.9786048)
(0 -2.987114628e-05 -163.9786201)
(0 -1.904500642e-05 -163.9786298)
(0 -1.209668928e-05 -163.9786359)
(0 -7.636531415e-06 -163.9786398)
(0 -4.791030108e-06 -163.9786422)
(0 -3.030789764e-06 -163.9786437)
(0 -1.852884572e-06 -163.9786446)
(0 -1.151435413e-06 -163.9786452)
(0 -7.27918939e-07 -163.9786455)
(0 -4.499862532e-07 -163.9786457)
(0 -2.64697796e-07 -163.9786459)
(0 -1.588186776e-07 -163.9786459)
(0 -9.264422861e-08 -163.978646)
(0 -7.940933881e-08 -163.978646)
(0 -3.97046694e-08 -163.978646)
(0 -2.64697796e-08 -163.978646)
(0 -1.32348898e-08 -163.978646)
(0 0 -163.978646)
(0 0 -163.9786461)
(0 0 -163.978646)
(0 -2.64697796e-08 -163.978646)
(0 1.32348898e-08 -163.978646)
(0 1.32348898e-08 -163.9786461)
(0 0 -163.978646)
(0 0 -163.978646)
(0 0 -163.978646)
(0 0 -163.9786461)
(0 0 -163.9786461)
(0 -2.014834042 -138.514295)
(0 -1.667783878 -139.4324783)
(0 -1.364044362 -140.1842604)
(0 -1.102688852 -140.7924755)
(0 -0.8813565487 -141.278849)
(0 -0.6967150791 -141.6634114)
(0 -0.5448638298 -141.9641413)
(0 -0.4216662625 -142.1968018)
(0 -0.3230071338 -142.3749257)
(0 -0.2449785249 -142.5099119)
(0 -0.1840023833 -142.6111941)
(0 -0.1368996884 -142.6864533)
(0 -0.1009173979 -142.7418486)
(0 -0.07372482129 -142.7822479)
(0 -0.05338781169 -142.8114465)
(0 -0.03833062314 -142.8323651)
(0 -0.02729099128 -142.8472237)
(0 -0.01927322886 -142.8576902)
(0 -0.01350329337 -142.865003)
(0 -0.009387824973 -142.870072)
(0 -0.006477644759 -142.8735586)
(0 -0.004436930631 -142.8759388)
(0 -0.003017528405 -142.8775518)
(0 -0.002037948036 -142.8786372)
(0 -0.001367111177 -142.8793625)
(0 -0.000911076579 -142.8798438)
(0 -0.0006032992167 -142.8801612)
(0 -0.0003970202242 -142.8803692)
(0 -0.0002596817728 -142.8805046)
(0 -0.0001688771939 -142.8805922)
(0 -0.0001091878409 -142.8806486)
(0 -7.022432528e-05 -142.8806847)
(0 -4.48927462e-05 -142.8807077)
(0 -2.857412708e-05 -142.8807222)
(0 -1.809209436e-05 -142.8807313)
(0 -1.139524012e-05 -142.8807371)
(0 -7.120370713e-06 -142.8807407)
(0 -4.446922973e-06 -142.8807429)
(0 -2.766091968e-06 -142.8807442)
(0 -1.707300784e-06 -142.8807451)
(0 -1.045556294e-06 -142.8807456)
(0 -6.485096002e-07 -142.8807459)
(0 -4.102815838e-07 -142.8807461)
(0 -2.382280164e-07 -142.8807462)
(0 -1.455837878e-07 -142.8807463)
(0 -9.264422861e-08 -142.8807463)
(0 -6.6174449e-08 -142.8807464)
(0 -2.64697796e-08 -142.8807464)
(0 -1.32348898e-08 -142.8807464)
(0 -1.32348898e-08 -142.8807464)
(0 1.32348898e-08 -142.8807464)
(0 -1.32348898e-08 -142.8807464)
(0 0 -142.8807464)
(0 0 -142.8807464)
(0 1.32348898e-08 -142.8807464)
(0 0 -142.8807464)
(0 0 -142.8807464)
(0 0 -142.8807464)
(0 0 -142.8807464)
(0 -1.32348898e-08 -142.8807464)
(0 -3.263970973 -116.4416662)
(0 -2.696727739 -117.91008)
(0 -2.201378438 -119.1100437)
(0 -1.776101247 -120.0789303)
(0 -1.416757273 -120.8521608)
(0 -1.117659325 -121.4622781)
(0 -0.8722373523 -121.9383974)
(0 -0.6735822784 -122.3059671)
(0 -0.5148635772 -122.5867712)
(0 -0.3896278501 -122.7991057)
(0 -0.2919922945 -122.9580706)
(0 -0.2167508475 -123.0759267)
(0 -0.159411561 -123.1624786)
(0 -0.1161844654 -123.2254548)
(0 -0.08393489026 -123.2708646)
(0 -0.06011725022 -123.3033207)
(0 -0.04269837501 -123.3263196)
(0 -0.03007956933 -123.342481)
(0 -0.02102179603 -123.3537453)
(0 -0.01457795318 -123.3615342)
(0 -0.01003317143 -123.3668783)
(0 -0.006854627361 -123.3705174)
(0 -0.004649602075 -123.3729774)
(0 -0.003131983732 -123.3746284)
(0 -0.002095466867 -123.3757289)
(0 -0.001392720689 -123.3764573)
(0 -0.0009197586667 -123.3769364)
(0 -0.0006036433238 -123.3772495)
(0 -0.0003937644414 -123.3774528)
(0 -0.0002553539638 -123.3775841)
(0 -0.0001646420291 -123.3776683)
(0 -0.0001056144206 -123.377722)
(0 -6.73523542e-05 -123.3777562)
(0 -4.272222428e-05 -123.3777777)
(0 -2.695947052e-05 -123.3777912)
(0 -1.694065895e-05 -123.3777996)
(0 -1.058791184e-05 -123.3778049)
(0 -6.604210011e-06 -123.3778081)
(0 -4.076346059e-06 -123.3778101)
(0 -2.501394172e-06 -123.3778114)
(0 -1.535247217e-06 -123.3778121)
(0 -9.661469555e-07 -123.3778126)
(0 -5.823351512e-07 -123.3778128)
(0 -3.441071348e-07 -123.377813)
(0 -2.249931266e-07 -123.3778131)
(0 -1.191140082e-07 -123.3778132)
(0 -6.6174449e-08 -123.3778132)
(0 -5.29395592e-08 -123.3778132)
(0 -1.32348898e-08 -123.3778132)
(0 -2.64697796e-08 -123.3778132)
(0 0 -123.3778133)
(0 0 -123.3778133)
(0 0 -123.3778132)
(0 0 -123.3778133)
(0 0 -123.3778133)
(0 0 -123.3778133)
(0 1.32348898e-08 -123.3778133)
(0 1.32348898e-08 -123.3778133)
(0 -1.32348898e-08 -123.3778133)
(0 0 -123.3778133)
(0 -5.258081203 -94.62442578)
(0 -4.336161371 -96.95612047)
(0 -3.532894603 -98.85780195)
(0 -2.844806025 -100.3902048)
(0 -2.264704434 -101.6106661)
(0 -1.782951666 -102.5716779)
(0 -1.388552757 -103.3200498)
(0 -1.07004002 -103.8965696)
(0 -0.8161457055 -104.336048)
(0 -0.6162779717 -104.6676381)
(0 -0.4608234045 -104.9153327)
(0 -0.3413076645 -105.0985595)
(0 -0.2504455005 -105.2328124)
(0 -0.1821108528 -105.3302713)
(0 -0.1312536976 -105.4003815)
(0 -0.09378559227 -105.4503736)
(0 -0.0664513626 -105.4857145)
(0 -0.04669895132 -105.5104889)
(0 -0.03255646572 -105.5277143)
(0 -0.02252079289 -105.5395958)
(0 -0.01546086592 -105.5477277)
(0 -0.01053604431 -105.5532514)
(0 -0.00712851017 -105.5569758)
(0 -0.004789402216 -105.5594692)
(0 -0.003196000894 -105.5611267)
(0 -0.002118667629 -105.5622212)
(0 -0.001395473546 -105.5629392)
(0 -0.0009134059196 -105.5634071)
(0 -0.0005942597869 -105.5637102)
(0 -0.0003843279649 -105.5639053)
(0 -0.000247161567 -105.5640302)
(0 -0.0001580775238 -105.5641097)
(0 -0.0001005586927 -105.56416)
(0 -6.362011527e-05 -105.5641917)
(0 -4.004877654e-05 -105.5642115)
(0 -2.506688128e-05 -105.5642239)
(0 -1.564363974e-05 -105.5642315)
(0 -9.687939334e-06 -105.5642362)
(0 -5.98217019e-06 -105.5642391)
(0 -3.692534254e-06 -105.5642409)
(0 -2.276401046e-06 -105.564242)
(0 -1.389663429e-06 -105.5642427)
(0 -8.337980575e-07 -105.564243)
(0 -5.029258124e-07 -105.5642433)
(0 -3.044024654e-07 -105.5642434)
(0 -1.720535674e-07 -105.5642435)
(0 -1.191140082e-07 -105.5642436)
(0 -6.6174449e-08 -105.5642436)
(0 -5.29395592e-08 -105.5642436)
(0 -2.64697796e-08 -105.5642436)
(0 0 -105.5642436)
(0 0 -105.5642436)
(0 1.32348898e-08 -105.5642436)
(0 0 -105.5642436)
(0 0 -105.5642436)
(0 0 -105.5642436)
(0 0 -105.5642436)
(0 0 -105.5642436)
(0 0 -105.5642436)
(0 -1.32348898e-08 -105.5642436)
(0 -8.419356261 -72.35161469)
(0 -6.930103912 -76.02849671)
(0 -5.635462796 -79.02134233)
(0 -4.528965393 -81.42816002)
(0 -3.598230397 -83.34111148)
(0 -2.827043056 -84.84427101)
(0 -2.197128992 -86.01236388)
(0 -1.689580432 -86.91029967)
(0 -1.285932082 -87.59331074)
(0 -0.968912518 -88.10751907)
(0 -0.722913742 -88.49077576)
(0 -0.5342306017 -88.77364568)
(0 -0.3911233 -88.9804379)
(0 -0.2837535624 -89.13021097)
(0 -0.2040373065 -89.23770514)
(0 -0.145450261 -89.31417407)
(0 -0.1028136135 -89.36810399)
(0 -0.0720793142 -89.40581898)
(0 -0.0501286936 -89.4319785)
(0 -0.03459135649 -89.44997834)
(0 -0.02368877191 -89.46226746)
(0 -0.01610277131 -89.4705942)
(0 -0.01086737977 -89.47619461)
(0 -0.00728289516 -89.47993434)
(0 -0.004847503383 -89.48241412)
(0 -0.003205159438 -89.48404736)
(0 -0.002105618028 -89.4851159)
(0 -0.001374641829 -89.48581058)
(0 -0.0008919653981 -89.48625933)
(0 -0.0005753868341 -89.48654751)
(0 -0.0003690549021 -89.48673147)
(0 -0.0002353692802 -89.48684823)
(0 -0.0001493160267 -89.48692192)
(0 -9.423241538e-05 -89.48696821)
(0 -5.914672252e-05 -89.48699709)
(0 -3.696504721e-05 -89.48701504)
(0 -2.29625338e-05 -89.48702616)
(0 -1.421427165e-05 -89.487033)
(0 -8.787966828e-06 -89.48703721)
(0 -5.386600149e-06 -89.48703977)
(0 -3.282252671e-06 -89.48704132)
(0 -1.99846836e-06 -89.48704224)
(0 -1.204374972e-06 -89.4870428)
(0 -7.411538288e-07 -89.48704313)
(0 -4.367513634e-07 -89.48704334)
(0 -2.514629062e-07 -89.48704346)
(0 -1.588186776e-07 -89.48704353)
(0 -9.264422861e-08 -89.48704357)
(0 -5.29395592e-08 -89.48704358)
(0 -2.64697796e-08 -89.48704361)
(0 -2.64697796e-08 -89.48704363)
(0 0 -89.48704362)
(0 1.32348898e-08 -89.48704362)
(0 -1.32348898e-08 -89.48704363)
(0 0 -89.48704362)
(0 1.32348898e-08 -89.48704365)
(0 -2.64697796e-08 -89.48704363)
(0 -1.32348898e-08 -89.48704366)
(0 0 -89.48704365)
(0 -1.32348898e-08 -89.48704365)
(0 -13.39635945 -48.49479364)
(0 -11.00588901 -54.25258452)
(0 -8.932557906 -58.92985153)
(0 -7.164575152 -62.68363668)
(0 -5.680815429 -65.66102872)
(0 -4.454204042 -67.99572861)
(0 -3.454581458 -69.80617582)
(0 -2.650986874 -71.19492929)
(0 -2.013365115 -72.24899609)
(0 -1.513742983 -73.04082136)
(0 -1.126950006 -73.62969124)
(0 -0.8309697747 -74.06334712)
(0 -0.6070108092 -74.37965589)
(0 -0.439378092 -74.60822582)
(0 -0.3152167998 -74.77189544)
(0 -0.2241844616 -74.88805531)
(0 -0.1580962644 -74.96978481)
(0 -0.1105734544 -75.02680523)
(0 -0.07671582697 -75.06626044)
(0 -0.05280973817 -75.09334309)
(0 -0.03607676112 -75.11178827)
(0 -0.02446317178 -75.12425539)
(0 -0.01646862337 -75.13261969)
(0 -0.01100892692 -75.1381911)
(0 -0.007309047302 -75.1418762)
(0 -0.004820451268 -75.14429707)
(0 -0.003158678505 -75.14587695)
(0 -0.002056834224 -75.14690132)
(0 -0.001331178451 -75.14756142)
(0 -0.0008564826586 -75.14798418)
(0 -0.000547897968 -75.14825337)
(0 -0.0003485143531 -75.14842372)
(0 -0.0002205197339 -75.14853102)
(0 -0.0001387942893 -75.14859817)
(0 -8.690028643e-05 -75.14864005)
(0 -5.415716907e-05 -75.14866598)
(0 -3.357691542e-05 -75.14868198)
(0 -2.072583743e-05 -75.1486918)
(0 -1.274519888e-05 -75.14869781)
(0 -7.808584983e-06 -75.14870143)
(0 -4.751325439e-06 -75.14870364)
(0 -2.871971087e-06 -75.14870498)
(0 -1.733770564e-06 -75.14870577)
(0 -1.045556294e-06 -75.14870625)
(0 -6.352747104e-07 -75.14870653)
(0 -3.573420246e-07 -75.14870671)
(0 -2.249931266e-07 -75.14870681)
(0 -1.191140082e-07 -75.14870686)
(0 -9.264422861e-08 -75.14870691)
(0 -5.29395592e-08 -75.14870692)
(0 -1.32348898e-08 -75.14870692)
(0 0 -75.14870694)
(0 -1.32348898e-08 -75.14870695)
(0 0 -75.14870696)
(0 -1.32348898e-08 -75.14870698)
(0 0 -75.14870698)
(0 -1.32348898e-08 -75.14870696)
(0 0 -75.14870698)
(0 0 -75.14870696)
(0 -1.32348898e-08 -75.14870698)
(0 -21.17719614 -21.34406864)
(0 -17.36516179 -30.29663103)
(0 -14.06651497 -37.55449751)
(0 -11.26014259 -43.36749226)
(0 -8.910322352 -47.96867315)
(0 -6.972190173 -51.56912264)
(0 -5.396329659 -54.35520448)
(0 -4.132400674 -56.48778664)
(0 -3.131824159 -58.10293274)
(0 -2.349607668 -59.31360516)
(0 -1.745439515 -60.21198674)
(0 -1.284195254 -60.87210472)
(0 -0.9360019925 -61.35251581)
(0 -0.675993093 -61.69888308)
(0 -0.4838668167 -61.94633599)
(0 -0.3433396171 -62.1215536)
(0 -0.2415635263 -62.24454879)
(0 -0.1685549772 -62.33015757)
(0 -0.1166665594 -62.38925398)
(0 -0.08011917888 -62.42972164)
(0 -0.05460106727 -62.45721645)
(0 -0.03693419669 -62.47575501)
(0 -0.02480310993 -62.48816224)
(0 -0.01653937709 -62.49640613)
(0 -0.01095348597 -62.50184536)
(0 -0.007205894571 -62.50540962)
(0 -0.004709860529 -62.50772977)
(0 -0.003059112429 -62.50923036)
(0 -0.001974830847 -62.51019481)
(0 -0.001267320108 -62.51081091)
(0 -0.0008085988273 -62.51120217)
(0 -0.0005130372682 -62.51144923)
(0 -0.0003237783441 -62.51160437)
(0 -0.0002032614376 -62.51170125)
(0 -0.0001269225932 -62.51176144)
(0 -7.890641299e-05 -62.51179867)
(0 -4.87970387e-05 -62.51182156)
(0 -3.002996496e-05 -62.51183558)
(0 -1.84229666e-05 -62.5118441)
(0 -1.122318655e-05 -62.51184929)
(0 -6.829203137e-06 -62.5118524)
(0 -4.129285618e-06 -62.51185429)
(0 -2.488159283e-06 -62.51185545)
(0 -1.495542547e-06 -62.51185611)
(0 -8.867376167e-07 -62.5118565)
(0 -5.29395592e-07 -62.51185674)
(0 -3.176373552e-07 -62.51185689)
(0 -1.720535674e-07 -62.51185695)
(0 -1.32348898e-07 -62.51185701)
(0 -7.940933881e-08 -62.51185705)
(0 -2.64697796e-08 -62.51185706)
(0 -1.32348898e-08 -62.51185709)
(0 0 -62.51185709)
(0 -1.32348898e-08 -62.51185709)
(0 -2.64697796e-08 -62.51185709)
(0 0 -62.51185709)
(0 -1.32348898e-08 -62.51185711)
(0 0 -62.51185706)
(0 0 -62.51185709)
(0 -1.32348898e-08 -62.5118571)
(0 -33.2546497 11.62236012)
(0 -27.21631786 -2.196965714)
(0 -22.00341914 -13.37763718)
(0 -17.57875081 -22.31415592)
(0 -13.88244579 -29.37307194)
(0 -10.84073536 -34.88516947)
(0 -8.373245455 -39.14151623)
(0 -6.398715159 -42.39256547)
(0 -4.83918364 -44.84951383)
(0 -3.622796973 -46.68719043)
(0 -2.685449575 -48.04786193)
(0 -1.971498857 -49.04546025)
(0 -1.433789134 -49.76986366)
(0 -1.033198295 -50.29097339)
(0 -0.7378872992 -50.66242408)
(0 -0.5223972602 -50.92484228)
(0 -0.3667002564 -51.10862443)
(0 -0.2552786441 -51.23624588)
(0 -0.176279878 -51.32413759)
(0 -0.1207721943 -51.38418135)
(0 -0.08211011659 -51.42487943)
(0 -0.05540897788 -51.45225458)
(0 -0.03711976308 -51.47053147)
(0 -0.02469204273 -51.48264579)
(0 -0.01631251784 -51.49061903)
(0 -0.0107048818 -51.49583091)
(0 -0.006979432371 -51.49921511)
(0 -0.004521872154 -51.50139841)
(0 -0.002911741931 -51.5027981)
(0 -0.001863829826 -51.50368999)
(0 -0.001186203468 -51.50425494)
(0 -0.0007507226542 -51.50461079)
(0 -0.0004725385054 -51.50483363)
(0 -0.0002958527266 -51.50497246)
(0 -0.0001843223103 -51.50505848)
(0 -0.0001142568037 -51.50511153)
(0 -7.048902308e-05 -51.50514407)
(0 -4.329132454e-05 -51.50516395)
(0 -2.645654471e-05 -51.50517603)
(0 -1.6093626e-05 -51.50518335)
(0 -9.767348673e-06 -51.50518776)
(0 -5.902760851e-06 -51.50519038)
(0 -3.546950467e-06 -51.50519197)
(0 -2.117582368e-06 -51.50519291)
(0 -1.257314531e-06 -51.50519349)
(0 -7.676236084e-07 -51.50519382)
(0 -4.102815838e-07 -51.50519399)
(0 -2.64697796e-07 -51.50519411)
(0 -1.720535674e-07 -51.50519419)
(0 -1.058791184e-07 -51.50519422)
(0 -3.97046694e-08 -51.50519425)
(0 -2.64697796e-08 -51.50519425)
(0 -2.64697796e-08 -51.50519427)
(0 0 -51.50519427)
(0 -1.32348898e-08 -51.50519425)
(0 0 -51.50519426)
(0 -1.32348898e-08 -51.50519426)
(0 -1.32348898e-08 -51.50519426)
(0 -1.32348898e-08 -51.50519429)
(0 -1.32348898e-08 -51.50519426)
(0 -51.86453891 54.05860221)
(0 -42.3651591 32.88471048)
(0 -34.18370517 15.78866851)
(0 -27.25557735 2.15220038)
(0 -21.48133591 -8.596845133)
(0 -16.74063446 -16.97290926)
(0 -12.90372565 -23.42713839)
(0 -9.84039829 -28.34649566)
(0 -7.426449099 -32.05630359)
(0 -5.54795577 -34.82508176)
(0 -4.103709339 -36.87072072)
(0 -3.006196997 -38.36723503)
(0 -2.181515131 -39.45153065)
(0 -1.568553519 -40.22980179)
(0 -1.117735691 -40.78331724)
(0 -0.7895399639 -41.17347612)
(0 -0.5529671425 -41.44609879)
(0 -0.3840681111 -41.63497841)
(0 -0.2646020416 -41.76475736)
(0 -0.1808610292 -41.85320999)
(0 -0.1226743127 -41.91302297)
(0 -0.08258621528 -41.95316022)
(0 -0.05519433444 -41.97989377)
(0 -0.03662694872 -41.9975708)
(0 -0.02413857288 -42.00917704)
(0 -0.01580198197 -42.01674517)
(0 -0.01027735515 -42.02164734)
(0 -0.0066421015 -42.02480208)
(0 -0.004266425546 -42.0268196)
(0 -0.002724163837 -42.02810194)
(0 -0.001729363346 -42.02891218)
(0 -0.001091732825 -42.02942121)
(0 -0.0006854614126 -42.0297392)
(0 -0.0004281089804 -42.02993681)
(0 -0.0002659948152 -42.03005897)
(0 -0.0001645096802 -42.03013408)
(0 -0.0001012336721 -42.03018004)
(0 -6.197898894e-05 -42.03020805)
(0 -3.781208016e-05 -42.03022501)
(0 -2.293606402e-05 -42.03023527)
(0 -1.387016451e-05 -42.03024143)
(0 -8.351215464e-06 -42.03024513)
(0 -5.016023235e-06 -42.03024729)
(0 -3.004319985e-06 -42.03024861)
(0 -1.786710123e-06 -42.03024937)
(0 -1.058791184e-06 -42.03024983)
(0 -5.95570041e-07 -42.03025009)
(0 -3.705769144e-07 -42.03025027)
(0 -2.382280164e-07 -42.03025036)
(0 -1.191140082e-07 -42.03025043)
(0 -6.6174449e-08 -42.03025044)
(0 -3.97046694e-08 -42.03025048)
(0 -3.97046694e-08 -42.03025048)
(0 0 -42.03025048)
(0 -1.32348898e-08 -42.0302505)
(0 0 -42.03025048)
(0 -1.32348898e-08 -42.03025049)
(0 0 -42.03025049)
(0 -1.32348898e-08 -42.03025048)
(0 1.32348898e-08 -42.03025046)
(0 -80.32588687 111.1905365)
(0 -65.48625154 78.99382307)
(0 -52.73592923 53.0511219)
(0 -41.96426447 32.40092241)
(0 -33.00755542 16.1570582)
(0 -25.67102864 3.52566842)
(0 -19.74683184 -6.187074686)
(0 -15.02788037 -13.57439485)
(0 -11.31776973 -19.13350879)
(0 -8.437214124 -23.2736225)
(0 -6.227602844 -26.32585237)
(0 -4.552308748 -28.55391372)
(0 -3.296355928 -30.16472879)
(0 -2.364984876 -31.31837863)
(0 -1.681561637 -32.1370528)
(0 -1.18517881 -32.71282941)
(0 -0.8282025313 -33.11424878)
(0 -0.5739372034 -33.39173282)
(0 -0.3945114582 -33.58195711)
(0 -0.2690378076 -33.7113093)
(0 -0.1820603617 -33.79857673)
(0 -0.1222798071 -33.85700063)
(0 -0.08153032254 -33.8958226)
(0 -0.05397529521 -33.9214321)
(0 -0.03548689531 -33.93820648)
(0 -0.02317517878 -33.9491184)
(0 -0.01503634359 -33.95616938)
(0 -0.009694133263 -33.96069601)
(0 -0.00621158377 -33.96358372)
(0 -0.003956437957 -33.96541467)
(0 -0.002505457284 -33.96656873)
(0 -0.001577744448 -33.96729192)
(0 -0.0009881433423 -33.96774261)
(0 -0.000615634134 -33.96802196)
(0 -0.000381561873 -33.96819421)
(0 -0.0002353428104 -33.96829985)
(0 -0.0001444588222 -33.96836437)
(0 -8.827671497e-05 -33.96840354)
(0 -5.368071303e-05 -33.96842723)
(0 -3.251812424e-05 -33.96844152)
(0 -1.96008718e-05 -33.96845008)
(0 -1.176581703e-05 -33.9684552)
(0 -7.027726484e-06 -33.96845823)
(0 -4.195460067e-06 -33.96846002)
(0 -2.488159283e-06 -33.96846106)
(0 -1.482307658e-06 -33.96846167)
(0 -8.735027269e-07 -33.96846207)
(0 -5.29395592e-07 -33.96846229)
(0 -3.044024654e-07 -33.9684624)
(0 -1.852884572e-07 -33.96846248)
(0 -9.264422861e-08 -33.96846253)
(0 -6.6174449e-08 -33.96846255)
(0 -1.32348898e-08 -33.96846257)
(0 -1.32348898e-08 -33.96846256)
(0 -1.32348898e-08 -33.96846257)
(0 0 -33.96846259)
(0 -2.64697796e-08 -33.96846257)
(0 0 -33.96846259)
(0 -1.32348898e-08 -33.96846255)
(0 0 -33.96846257)
(0 -123.5206721 190.4093568)
(0 -100.5045737 141.8313627)
(0 -80.77660584 102.7699938)
(0 -64.14964106 71.74177719)
(0 -50.35658988 47.3850727)
(0 -39.08476735 28.48457124)
(0 -30.00378893 13.98171796)
(0 -22.7868324 2.974336157)
(0 -17.12567675 -5.291450781)
(0 -12.74029934 -11.43427525)
(0 -9.38400054 -15.95330946)
(0 -6.845073451 -19.24503119)
(0 -4.945980029 -21.61970472)
(0 -3.540877532 -23.31673188)
(0 -2.512186471 -24.51837761)
(0 -1.766735948 -25.36164179)
(0 -1.231870548 -25.94824657)
(0 -0.8517764641 -26.35283758)
(0 -0.5841785199 -26.62957508)
(0 -0.3974806661 -26.81733057)
(0 -0.2683656075 -26.94371119)
(0 -0.179832096 -27.02812649)
(0 -0.1196257882 -27.08408976)
(0 -0.07901084951 -27.12092084)
(0 -0.05182486384 -27.14498892)
(0 -0.03376486409 -27.16060848)
(0 -0.02185497205 -27.17067745)
(0 -0.01405644559 -27.17712612)
(0 -0.008985087276 -27.18123013)
(0 -0.005709147648 -27.18382597)
(0 -0.00360663982 -27.18545815)
(0 -0.002265614611 -27.18647849)
(0 -0.001415497934 -27.1871128)
(0 -0.0008796966553 -27.18750498)
(0 -0.0005439142661 -27.18774618)
(0 -0.0003346706584 -27.18789382)
(0 -0.0002049025639 -27.18798369)
(0 -0.0001248711853 -27.18803817)
(0 -7.576974411e-05 -27.18807105)
(0 -4.579271871e-05 -27.18809078)
(0 -2.754180568e-05 -27.1881026)
(0 -1.649067269e-05 -27.18810961)
(0 -9.833523122e-06 -27.18811379)
(0 -5.836586402e-06 -27.18811627)
(0 -3.454306238e-06 -27.18811771)