/*--------------------------------*- C++ -*----------------------------------*\
  =========                 |
  \\      /  F ield         | OpenFOAM: The Open Source CFD Toolbox
   \\    /   O peration     | Website:  https://openfoam.org
    \\  /    A nd           | Version:  10
     \\/     M anipulation  |
\*---------------------------------------------------------------------------*/
FoamFile
{
    format      ascii;
    class       volScalarField;
    location    "0.0001";
    object      Num_divU;
}
// * * * * * * * * * * * * * * * * * * * * * * * * * * * * * * * * * * * * * //

dimensions      [0 0 -1 0 0 0 0];

internalField   nonuniform List<scalar> 
3600
(
1.45043009e-10
-4.498021522e-11
-1.396066951e-11
-6.867125934e-12
-6.251480551e-12
-6.576358754e-12
-6.912122184e-12
-7.193540878e-12
-7.450930472e-12
-7.699004251e-12
-7.941691905e-12
-8.182503945e-12
-8.421953063e-12
-8.653818972e-12
-8.874410143e-12
-9.092918686e-12
-9.321614865e-12
-9.556343013e-12
-9.779497332e-12
-9.986402236e-12
-1.019673142e-11
-1.042954166e-11
-1.067307927e-11
-1.089205686e-11
-1.106711905e-11
-1.121844621e-11
-1.138411358e-11
-1.15782781e-11
-1.177675548e-11
-1.194427313e-11
-1.20717346e-11
-1.21845376e-11
-1.231698988e-11
-1.248182665e-11
-1.266395929e-11
-1.283963122e-11
-1.299834283e-11
-1.314689605e-11
-1.329567348e-11
-1.344384646e-11
-1.357828049e-11
-1.368580096e-11
-1.376612109e-11
-1.383349289e-11
-1.390613148e-11
-1.399279895e-11
-1.408731173e-11
-1.417446832e-11
-1.42420111e-11
-1.428951399e-11
-1.432837138e-11
-1.437378257e-11
-1.443469412e-11
-1.45080993e-11
-1.458060276e-11
-1.463567077e-11
-1.466226545e-11
-1.466050935e-11
-1.46419448e-11
-1.462451633e-11
9.67456609e-11
-3.416914359e-11
-1.596776364e-11
-1.223276168e-11
-1.206239447e-11
-1.246584566e-11
-1.293046228e-11
-1.338716977e-11
-1.383322814e-11
-1.427109207e-11
-1.469972325e-11
-1.511811118e-11
-1.553009452e-11
-1.594076285e-11
-1.634892611e-11
-1.674860715e-11
-1.713940955e-11
-1.753109703e-11
-1.793386624e-11
-1.834403978e-11
-1.874207311e-11
-1.910774573e-11
-1.943914074e-11
-1.975625604e-11
-2.008353985e-11
-2.042649889e-11
-2.076507627e-11
-2.107155016e-11
-2.13368911e-11
-2.158078908e-11
-2.183601594e-11
-2.212199104e-11
-2.243146221e-11
-2.274048233e-11
-2.303003065e-11
-2.329884166e-11
-2.355769675e-11
-2.38134297e-11
-2.405906429e-11
-2.427889583e-11
-2.446285889e-11
-2.461666417e-11
-2.475881093e-11
-2.490725288e-11
-2.506671268e-11
-2.522635626e-11
-2.536890829e-11
-2.548384666e-11
-2.557509431e-11
-2.565839369e-11
-2.575084266e-11
-2.585982228e-11
-2.597804688e-11
-2.60871176e-11
-2.616702624e-11
-2.620636546e-11
-2.620831912e-11
-2.618974267e-11
-2.617314941e-11
-1.155853235e-11
6.67010569e-11
-2.771986494e-11
-1.370020989e-11
-1.073213998e-11
-1.05518518e-11
-1.086850064e-11
-1.125988414e-11
-1.165327913e-11
-1.203868098e-11
-1.241614174e-11
-1.278747584e-11
-1.315676787e-11
-1.352509364e-11
-1.388469852e-11
-1.422876112e-11
-1.456713602e-11
-1.491842502e-11
-1.528062567e-11
-1.562293346e-11
-1.591968298e-11
-1.618720973e-11
-1.647304166e-11
-1.680497767e-11
-1.715879454e-11
-1.748206955e-11
-1.774706362e-11
-1.797608096e-11
-1.821683826e-11
-1.849774548e-11
-1.880713389e-11
-1.911002055e-11
-1.937980831e-11
-1.961513747e-11
-1.983263131e-11
-2.004865183e-11
-2.026771728e-11
-2.048397747e-11
-2.068970543e-11
-2.088171489e-11
-2.106179785e-11
-2.123338358e-11
-2.139844187e-11
-2.155660429e-11
-2.170597398e-11
-2.18442952e-11
-2.196987094e-11
-2.208232242e-11
-2.21832003e-11
-2.227600474e-11
-2.236512498e-11
-2.245380324e-11
-2.254204745e-11
-2.262572019e-11
-2.269766506e-11
-2.275078912e-11
-2.278200941e-11
-2.27952111e-11
-2.280126639e-11
-2.281475206e-11
-1.127882836e-11
4.460603928e-11
-2.323032638e-11
-1.271231809e-11
-1.049821477e-11
-1.042163372e-11
-1.073905064e-11
-1.111665257e-11
-1.149488817e-11
-1.186927472e-11
-1.224097e-11
-1.260563907e-11
-1.296321239e-11
-1.332258728e-11
-1.368675144e-11
-1.404263809e-11
-1.437634418e-11
-1.469193843e-11
-1.500554444e-11
-1.532560059e-11
-1.564837933e-11
-1.59694713e-11
-1.628804784e-11
-1.659796646e-11
-1.688558888e-11
-1.714558844e-11
-1.739627913e-11
-1.767015309e-11
-1.798405311e-11
-1.831979292e-11
-1.863687873e-11
-1.890548046e-11
-1.912803696e-11
-1.93313636e-11
-1.954044625e-11
-1.97596575e-11
-1.997585433e-11
-2.017577225e-11
-2.035934918e-11
-2.053803677e-11
-2.072249459e-11
-2.09123313e-11
-2.10964625e-11
-2.126226396e-11
-2.14049245e-11
-2.152975225e-11
-2.164686743e-11
-2.17634127e-11
-2.187924481e-11
-2.198840414e-11
-2.208425401e-11
-2.21640742e-11
-2.223010316e-11
-2.22870179e-11
-2.233829576e-11
-2.238440638e-11
-2.242409303e-11
-2.245745439e-11
-2.248761922e-11
-2.251753477e-11
-1.126972197e-11
2.855019001e-11
-1.96836463e-11
-1.194799036e-11
-1.036454836e-11
-1.039346191e-11
-1.072209041e-11
-1.109358187e-11
-1.14623588e-11
-1.182873228e-11
-1.219734748e-11
-1.256373056e-11
-1.292420071e-11
-1.328434171e-11
-1.364580895e-11
-1.39965295e-11
-1.432860456e-11
-1.465683292e-11
-1.500233867e-11
-1.536021308e-11
-1.569877771e-11
-1.599481162e-11
-1.625981001e-11
-1.652642639e-11
-1.681570575e-11
-1.712373799e-11
-1.743546324e-11
-1.774156558e-11
-1.803927366e-11
-1.832383513e-11
-1.85874511e-11
-1.882815673e-11
-1.905551587e-11
-1.928349966e-11
-1.951703717e-11
-1.974694814e-11
-1.995911811e-11
-2.014877334e-11
-2.032573896e-11
-2.050585081e-11
-2.06968423e-11
-2.089150296e-11
-2.107360494e-11
-2.123091853e-11
-2.136435179e-11
-2.148642634e-11
-2.161114772e-11
-2.174351028e-11
-2.187613465e-11
-2.199465648e-11
-2.208733068e-11
-2.215215888e-11
-2.219735455e-11
-2.223579101e-11
-2.227772459e-11
-2.232652999e-11
-2.237947144e-11
-2.243168909e-11
-2.247920688e-11
-2.25177499e-11
-1.127953936e-11
1.670538157e-11
-1.693006995e-11
-1.132802528e-11
-1.024758976e-11
-1.036569797e-11
-1.070452826e-11
-1.107305961e-11
-1.143820784e-11
-1.180385168e-11
-1.217571701e-11
-1.254504255e-11
-1.290352572e-11
-1.326174159e-11
-1.363326481e-11
-1.400909541e-11
-1.436748531e-11
-1.470383972e-11
-1.503209419e-11
-1.535786595e-11
-1.566906383e-11
-1.595937147e-11
-1.624720942e-11
-1.655877787e-11
-1.68955472e-11
-1.722818783e-11
-1.752465714e-11
-1.77795415e-11
-1.801440608e-11
-1.825429623e-11
-1.850811815e-11
-1.87693038e-11
-1.902846723e-11
-1.928111954e-11
-1.952506497e-11
-1.975571291e-11
-1.996770076e-11
-2.016112721e-11
-2.034404012e-11
-2.05267923e-11
-2.071303107e-11
-2.089609002e-11
-2.106458965e-11
-2.121250088e-11
-2.13449285e-11
-2.147464233e-11
-2.161212556e-11
-2.175689788e-11
-2.189660274e-11
-2.201437335e-11
-2.20991992e-11
-2.215244468e-11
-2.218675505e-11
-2.221876314e-11
-2.226065281e-11
-2.231560496e-11
-2.237888644e-11
-2.24422953e-11
-2.249765671e-11
-2.253692579e-11
-1.12821154e-11
7.879262462e-12
-1.484805096e-11
-1.085788981e-11
-1.016385601e-11
-1.035096683e-11
-1.070097416e-11
-1.107400869e-11
-1.14417133e-11
-1.180814538e-11
-1.218363404e-11
-1.256064615e-11
-1.292548327e-11
-1.328477823e-11
-1.365377237e-11
-1.402397079e-11
-1.436898992e-11
-1.468298939e-11
-1.499115617e-11
-1.531696561e-11
-1.565600556e-11
-1.599038682e-11
-1.631573469e-11
-1.664023986e-11
-1.696165183e-11
-1.725964442e-11
-1.751689724e-11
-1.774203798e-11
-1.796551039e-11
-1.821296151e-11
-1.848535396e-11
-1.876404716e-11
-1.903097538e-11
-1.928169159e-11
-1.952158654e-11
-1.975439277e-11
-1.997694548e-11
-2.018384106e-11
-2.037440316e-11
-2.055363154e-11
-2.072684821e-11
-2.089459455e-11
-2.105331571e-11
-2.120079009e-11
-2.134040679e-11
-2.147961999e-11
-2.162350696e-11
-2.176888715e-11
-2.190416134e-11
-2.201550691e-11
-2.209525957e-11
-2.214681454e-11
-2.218297457e-11
-2.221914353e-11
-2.226589938e-11
-2.232524082e-11
-2.239178945e-11
-2.245667714e-11
-2.251058372e-11
-2.254443345e-11
-1.127594896e-11
1.26770901e-12
-1.330039139e-11
-1.052027078e-11
-1.01131962e-11
-1.035080766e-11
-1.071227369e-11
-1.109437391e-11
-1.146796217e-11
-1.183465462e-11
-1.220947542e-11
-1.258652165e-11
-1.294491086e-11
-1.328608067e-11
-1.363225122e-11
-1.398787943e-11
-1.433295851e-11
-1.465932395e-11
-1.498786117e-11
-1.533819384e-11
-1.56983364e-11
-1.603870295e-11
-1.634773144e-11
-1.663983755e-11
-1.693036098e-11
-1.721565103e-11
-1.748295737e-11
-1.773234646e-11
-1.798024843e-11
-1.824147275e-11
-1.851332465e-11
-1.878014977e-11
-1.903100893e-11
-1.926969342e-11
-1.950751723e-11
-1.974883569e-11
-1.998517469e-11
-2.020284824e-11
-2.039505053e-11
-2.056667688e-11
-2.072880956e-11
-2.088954971e-11
-2.104965183e-11
-2.120538011e-11
-2.135415623e-11
-2.149707154e-11
-2.163635831e-11
-2.177095134e-11
-2.189476798e-11
-2.199965956e-11
-2.208088284e-11
-2.214088653e-11
-2.218862698e-11
-2.223496298e-11
-2.22873331e-11
-2.234695753e-11
-2.240952948e-11
-2.2467752e-11
-2.25133839e-11
-2.253834146e-11
-1.126435629e-11
-3.67580997e-12
-1.215032662e-11
-1.026879288e-11
-1.007064308e-11
-1.034557134e-11
-1.071748283e-11
-1.110844377e-11
-1.148514018e-11
-1.184472886e-11
-1.220874489e-11
-1.257913475e-11
-1.293372981e-11
-1.326982621e-11
-1.361314451e-11
-1.397572589e-11
-1.43373541e-11
-1.467977843e-11
-1.501379085e-11
-1.535680986e-11
-1.570050094e-11
-1.601970368e-11
-1.630804632e-11
-1.658833867e-11
-1.688490203e-11
-1.719602993e-11
-1.749947305e-11
-1.777911706e-11
-1.803887392e-11
-1.829179934e-11
-1.854315079e-11
-1.878835053e-11
-1.902450888e-11
-1.925813426e-11
-1.949884629e-11
-1.974684262e-11
-1.998892462e-11
-2.020797097e-11
-2.039671821e-11
-2.056303901e-11
-2.072281715e-11
-2.088763681e-11
-2.105774802e-11
-2.12246786e-11
-2.137945136e-11
-2.151890675e-11
-2.164582806e-11
-2.17643793e-11
-2.187567469e-11
-2.197709118e-11
-2.206519585e-11
-2.213928151e-11
-2.220255196e-11
-2.22603145e-11
-2.231685571e-11
-2.237329506e-11
-2.24273542e-11
-2.247433964e-11
-2.250827934e-11
-2.252344336e-11
-1.125202526e-11
-7.352611175e-12
-1.128193486e-11
-1.006252359e-11
-1.002067909e-11
-1.032536254e-11
-1.070473146e-11
-1.110240665e-11
-1.148299973e-11
-1.183901661e-11
-1.219816716e-11
-1.257222201e-11
-1.293885249e-11
-1.328685492e-11
-1.363668374e-11
-1.400103251e-11
-1.435924638e-11
-1.468933769e-11
-1.500196988e-11
-1.532267112e-11
-1.565383417e-11
-1.597477385e-11
-1.627583162e-11
-1.657445907e-11
-1.689184138e-11
-1.722382031e-11
-1.754343291e-11
-1.782887705e-11
-1.808216726e-11
-1.832078283e-11
-1.855788042e-11
-1.87946699e-11
-1.902873281e-11
-1.926303915e-11
-1.950332739e-11
-1.974817307e-11
-1.998514431e-11
-2.019903733e-11
-2.038459986e-11
-2.05514184e-11
-2.071640865e-11
-2.089073502e-11
-2.107210404e-11
-2.124778619e-11
-2.140462523e-11
-2.153768597e-11
-2.16517455e-11
-2.175614171e-11
-2.185798286e-11
-2.195864816e-11
-2.205493187e-11
-2.214272389e-11
-2.221998105e-11
-2.228727783e-11
-2.234640566e-11
-2.239856355e-11
-2.244329816e-11
-2.247835152e-11
-2.250035464e-11
-2.250676864e-11
-1.124314303e-11
-1.009600707e-11
-1.06199116e-11
-9.89514511e-12
-9.97740374e-12
-1.030776872e-11
-1.069261251e-11
-1.109795937e-11
-1.148921484e-11
-1.185151788e-11
-1.221271199e-11
-1.259107425e-11
-1.296505243e-11
-1.331669751e-11
-1.366180612e-11
-1.401519989e-11
-1.435989681e-11
-1.467523577e-11
-1.49745621e-11
-1.529044925e-11
-1.56313915e-11
-1.59740095e-11
-1.62974252e-11
-1.660825251e-11
-1.692504472e-11
-1.724870605e-11
-1.755891887e-11
-1.783771455e-11
-1.808829243e-11
-1.832848491e-11
-1.857102397e-11
-1.881471654e-11
-1.905292793e-11
-1.928506744e-11
-1.951667178e-11
-1.9749806e-11
-1.997688028e-11
-2.018593558e-11
-2.037210361e-11
-2.054334739e-11
-2.071460958e-11
-2.089562872e-11
-2.108301765e-11
-2.126273246e-11
-2.142016469e-11
-2.154964077e-11
-2.165682652e-11
-2.175364836e-11
-2.185049718e-11
-2.195114397e-11
-2.205272201e-11
-2.214926408e-11
-2.223561351e-11
-2.23093533e-11
-2.2370441e-11
-2.241968534e-11
-2.245736132e-11
-2.248273025e-11
-2.24948415e-11
-2.249473736e-11
-1.124022448e-11
-1.216973415e-11
-1.012491644e-11
-9.778459026e-12
-9.959163027e-12
-1.030820414e-11
-1.069324689e-11
-1.110237868e-11
-1.150367141e-11
-1.187295292e-11
-1.223269593e-11
-1.260476624e-11
-1.297187081e-11
-1.331629228e-11
-1.365473274e-11
-1.400623125e-11
-1.435613496e-11
-1.468041632e-11
-1.498791727e-11
-1.531138401e-11
-1.566199645e-11
-1.601459623e-11
-1.634076006e-11
-1.664086477e-11
-1.693571094e-11
-1.723622411e-11
-1.753259497e-11
-1.781147018e-11
-1.80739261e-11
-1.833199463e-11
-1.859198838e-11
-1.884723098e-11
-1.908763893e-11
-1.93125566e-11
-1.953133361e-11
-1.975209374e-11
-1.997224687e-11
-2.01810787e-11
-2.037109514e-11
-2.054616584e-11
-2.071859678e-11
-2.089828368e-11
-2.108391197e-11
-2.126342221e-11
-2.142262504e-11
-2.155467871e-11
-2.166361487e-11
-2.176052142e-11
-2.185624192e-11
-2.195585756e-11
-2.205775175e-11
-2.215642426e-11
-2.224621101e-11
-2.232350782e-11
-2.238687282e-11
-2.243591563e-11
-2.247028308e-11
-2.248967207e-11
-2.24951639e-11
-2.249130953e-11
-1.124374607e-11
-1.374190051e-11
-9.762705947e-12
-9.701783956e-12
-9.951799848e-12
-1.030782985e-11
-1.068470072e-11
-1.108923192e-11
-1.149434498e-11
-1.186882348e-11
-1.222806013e-11
-1.259464178e-11
-1.295579668e-11
-1.329699959e-11
-1.3638178e-11
-1.400229512e-11
-1.437397343e-11
-1.4720499e-11
-1.504029638e-11
-1.536308809e-11
-1.570509215e-11
-1.604661451e-11
-1.635965461e-11
-1.664267694e-11
-1.691814401e-11
-1.720337345e-11
-1.749507929e-11
-1.778164637e-11
-1.806042991e-11
-1.833715237e-11
-1.861234035e-11
-1.887558537e-11
-1.911566961e-11
-1.933371641e-11
-1.954340869e-11
-1.975789925e-11
-1.997751056e-11
-2.019047684e-11
-2.038501556e-11
-2.056043664e-11
-2.072733994e-11
-2.089787544e-11
-2.107539549e-11
-2.125199095e-11
-2.14147582e-11
-2.155486115e-11
-2.167249918e-11
-2.177525084e-11
-2.187236349e-11
-2.196958525e-11
-2.206745135e-11
-2.216284801e-11
-2.225165054e-11
-2.233042625e-11
-2.239660825e-11
-2.244796873e-11
-2.248254341e-11
-2.24997083e-11
-2.250215074e-11
-2.249737245e-11
-1.125248731e-11
-1.49106994e-11
-9.491158135e-12
-9.636030839e-12
-9.929816444e-12
-1.028658652e-11
-1.065412153e-11
-1.10519189e-11
-1.145946608e-11
-1.184342267e-11
-1.221318774e-11
-1.25885061e-11
-1.295656893e-11
-1.330285754e-11
-1.364906246e-11
-1.402242561e-11
-1.440863134e-11
-1.476796156e-11
-1.508883981e-11
-1.53982442e-11
-1.571987512e-11
-1.604435122e-11
-1.634828639e-11
-1.662806229e-11
-1.690244695e-11
-1.718753351e-11
-1.748090819e-11
-1.777153339e-11
-1.80560372e-11
-1.833884364e-11
-1.861935884e-11
-1.888624487e-11
-1.912758566e-11
-1.934471557e-11
-1.955300437e-11
-1.976804327e-11
-1.999141778e-11
-2.020990104e-11
-2.040793805e-11
-2.058116709e-11
-2.073932365e-11
-2.089749318e-11
-2.106431462e-11
-2.12365931e-11
-2.140308066e-11
-2.155287693e-11
-2.168173274e-11
-2.17927208e-11
-2.18925306e-11
-2.198706487e-11
-2.207917536e-11
-2.216885349e-11
-2.225444181e-11
-2.233339425e-11
-2.240232424e-11
-2.245710339e-11
-2.249396152e-11
-2.251175119e-11
-2.251436831e-11
-2.251122693e-11
-1.126427808e-11
-1.576994196e-11
-9.284250369e-12
-9.576275721e-12
-9.901688077e-12
-1.026325678e-11
-1.062891566e-11
-1.102371966e-11
-1.143365523e-11
-1.182806332e-11
-1.221350682e-11
-1.260555013e-11
-1.298711268e-11
-1.333913307e-11
-1.36824795e-11
-1.404995049e-11
-1.443346671e-11
-1.479239782e-11
-1.510833653e-11
-1.540475814e-11
-1.57106664e-11
-1.602616631e-11
-1.633290219e-11
-1.662435432e-11
-1.691194735e-11
-1.720537836e-11
-1.749958109e-11
-1.77845136e-11
-1.806023278e-11
-1.833546273e-11
-1.861287724e-11
-1.888174754e-11
-1.912806766e-11
-1.935021866e-11
-1.956202307e-11
-1.977965893e-11
-2.000610632e-11
-2.022831118e-11
-2.042890489e-11
-2.060093744e-11
-2.075295306e-11
-2.090158942e-11
-2.105924529e-11
-2.12266664e-11
-2.139457282e-11
-2.155112542e-11
-2.168888442e-11
-2.180720293e-11
-2.191024054e-11
-2.200347401e-11
-2.209125626e-11
-2.217602531e-11
-2.225830535e-11
-2.233657889e-11
-2.240709718e-11
-2.246449292e-11
-2.250384821e-11
-2.252383279e-11
-2.252914284e-11
-2.252972055e-11
-1.127682715e-11
-1.642575415e-11
-9.139061644e-12
-9.542409524e-12
-9.895531817e-12
-1.026668661e-11
-1.063584076e-11
-1.102786411e-11
-1.143348552e-11
-1.182754642e-11
-1.221780738e-11
-1.261814579e-11
-1.300739125e-11
-1.33601933e-11
-1.369435576e-11
-1.404802474e-11
-1.442270103e-11
-1.478175018e-11
-1.510197928e-11
-1.54001495e-11
-1.570443049e-11
-1.602004466e-11
-1.633351403e-11
-1.663797121e-11
-1.693954945e-11
-1.724150021e-11
-1.753483149e-11
-1.780991176e-11
-1.8071272e-11
-1.833405527e-11
-1.86059744e-11
-1.887723209e-11
-1.91304288e-11
-1.935883644e-11
-1.957296475e-11
-1.978928586e-11
-2.001364391e-11
-2.023570721e-11
-2.043856809e-11
-2.061340447e-11
-2.076625035e-11
-2.091253679e-11
-2.106555724e-11
-2.122836059e-11
-2.139391413e-11
-2.155132622e-11
-2.169249717e-11
-2.181507941e-11
-2.192146428e-11
-2.201609362e-11
-2.210329878e-11
-2.218628544e-11
-2.226658843e-11
-2.234343354e-11
-2.24133461e-11
-2.247094623e-11
-2.251145325e-11
-2.253403343e-11
-2.254374149e-11
-2.254949966e-11
-1.128835841e-11
-1.694203349e-11
-9.044129557e-12
-9.536226516e-12
-9.912343514e-12
-1.029227183e-11
-1.0665155e-11
-1.1052424e-11
-1.144687147e-11
-1.182870012e-11
-1.220924339e-11
-1.260435315e-11
-1.299207106e-11
-1.334198936e-11
-1.366735372e-11
-1.40092493e-11
-1.437855453e-11
-1.474512818e-11
-1.508268455e-11
-1.539850085e-11
-1.571341385e-11
-1.603230974e-11
-1.634635137e-11
-1.665316913e-11
-1.695985026e-11
-1.726703377e-11
-1.756194693e-11
-1.783300146e-11
-1.808638845e-11
-1.834177244e-11
-1.861121693e-11
-1.888587591e-11
-1.914505207e-11
-1.937680625e-11
-1.958828911e-11
-1.979680253e-11
-2.001251179e-11
-2.022992314e-11
-2.043447482e-11
-2.061608438e-11
-2.07770553e-11
-2.092891815e-11
-2.108284557e-11
-2.124221203e-11
-2.140212834e-11
-2.155439074e-11
-2.169292947e-11
-2.181611192e-11
-2.192572605e-11
-2.202474947e-11
-2.211585541e-11
-2.220097701e-11
-2.228110154e-11
-2.235571327e-11
-2.242228775e-11
-2.247689988e-11
-2.251641377e-11
-2.254123453e-11
-2.2556268e-11
-2.256798695e-11
-1.129793083e-11
-1.731987099e-11
-8.971294247e-12
-9.536495362e-12
-9.93104213e-12
-1.03181568e-11
-1.06960163e-11
-1.108174376e-11
-1.146789799e-11
-1.183795815e-11
-1.220654053e-11
-1.25930405e-11
-1.29773368e-11
-1.332587995e-11
-1.364628825e-11
-1.397888842e-11
-1.434148343e-11
-1.471229556e-11
-1.506615439e-11
-1.540242572e-11
-1.573134698e-11
-1.605231994e-11
-1.635895265e-11
-1.665619128e-11
-1.695782866e-11
-1.726667858e-11
-1.756738571e-11
-1.784400415e-11
-1.81002652e-11
-1.835677442e-11
-1.862826268e-11
-1.890711676e-11
-1.917067979e-11
-1.940307994e-11
-1.960869061e-11
-1.980569748e-11
-2.00087472e-11
-2.021794099e-11
-2.042229544e-11
-2.061148323e-11
-2.078410257e-11
-2.094654123e-11
-2.110581173e-11
-2.126375923e-11
-2.141689428e-11
-2.156042261e-11
-2.169210585e-11
-2.181300918e-11
-2.192554299e-11
-2.203119459e-11
-2.212979462e-11
-2.222028901e-11
-2.230169277e-11
-2.237323283e-11
-2.243391067e-11
-2.248256377e-11
-2.251901036e-11
-2.25454429e-11
-2.256608333e-11
-2.258386184e-11
-1.130543968e-11
-1.75655757e-11
-8.907182402e-12
-9.530856734e-12
-9.938268488e-12
-1.032972365e-11
-1.071257409e-11
-1.110089665e-11
-1.148622426e-11
-1.185345281e-11
-1.221912801e-11
-1.26053542e-11
-1.299409625e-11
-1.33497358e-11
-1.367329602e-11
-1.399980485e-11
-1.434960802e-11
-1.471026481e-11
-1.506428208e-11
-1.540992039e-11
-1.574869104e-11
-1.607120419e-11
-1.636897665e-11
-1.665241487e-11
-1.694364961e-11
-1.725079022e-11
-1.755787081e-11
-1.784413308e-11
-1.810852892e-11
-1.837008542e-11
-1.864502491e-11
-1.892762543e-11
-1.919503175e-11
-1.94289221e-11
-1.96310646e-11
-1.981931489e-11
-2.001111148e-11
-2.021116749e-11
-2.041246881e-11
-2.060594491e-11
-2.078815704e-11
-2.096120901e-11
-2.112759142e-11
-2.128637102e-11
-2.143414514e-11
-2.156890067e-11
-2.169255791e-11
-2.18098605e-11
-2.192483861e-11
-2.203789945e-11
-2.214565653e-11
-2.22431489e-11
-2.232649679e-11
-2.239426458e-11
-2.244731581e-11
-2.248809528e-11
-2.252016876e-11
-2.254770014e-11
-2.257372828e-11
-2.259706037e-11
-1.13113909e-11
-1.772678162e-11
-8.852737741e-12
-9.512954868e-12
-9.921279923e-12
-1.030951488e-11
-1.069304078e-11
-1.108419439e-11
-1.147277013e-11
-1.184381168e-11
-1.221500241e-11
-1.260966832e-11
-1.30112636e-11
-1.338386825e-11
-1.372266423e-11
-1.40533307e-11
-1.439219062e-11
-1.473362354e-11
-1.507254143e-11
-1.541458174e-11
-1.575847729e-11
-1.608606603e-11
-1.638225566e-11
-1.665774452e-11
-1.694027386e-11
-1.724353767e-11
-1.755287972e-11
-1.784443649e-11
-1.811293041e-11
-1.837555403e-11
-1.864999094e-11
-1.893334476e-11
-1.920420938e-11
-1.94430705e-11
-1.964881341e-11
-1.98368619e-11
-2.002436595e-11
-2.0218111e-11
-2.041432621e-11
-2.060657452e-11
-2.079206475e-11
-2.097122255e-11
-2.114338705e-11
-2.130459841e-11
-2.145012109e-11
-2.157905567e-11
-2.169638738e-11
-2.18103675e-11
-2.192716795e-11
-2.204684501e-11
-2.2163246e-11
-2.226752381e-11
-2.235264293e-11
-2.241629289e-11
-2.246123318e-11
-2.249373768e-11
-2.252124614e-11
-2.254968748e-11
-2.258052008e-11
-2.26084192e-11
-1.131656439e-11
-1.783947909e-11
-8.801049685e-12
-9.48049812e-12
-9.883286524e-12
-1.026646578e-11
-1.065149761e-11
-1.104827952e-11
-1.144219296e-11
-1.181741582e-11
-1.219311912e-11
-1.259279389e-11
-1.300151281e-11
-1.338750519e-11
-1.374523297e-11
-1.40905256e-11
-1.442914626e-11
-1.475567942e-11
-1.507643869e-11
-1.540931507e-11
-1.575663955e-11
-1.609464049e-11
-1.639989876e-11
-1.667860043e-11
-1.695946537e-11
-1.725973095e-11
-1.75668875e-11
-1.785629198e-11
-1.812056964e-11
-1.83762324e-11
-1.864300955e-11
-1.892166359e-11
-1.919362786e-11
-1.943953622e-11
-1.965558231e-11
-1.985311429e-11
-2.004585425e-11
-2.023935139e-11
-2.043113652e-11
-2.061775176e-11
-2.07994182e-11
-2.097808163e-11
-2.115245279e-11
-2.131639264e-11
-2.146292321e-11
-2.15903063e-11
-2.170465783e-11
-2.181662037e-11
-2.193450061e-11
-2.205878111e-11
-2.218158119e-11
-2.229096625e-11
-2.237711654e-11
-2.243682742e-11
-2.247450701e-11
-2.24998715e-11
-2.252371971e-11
-2.255321552e-11
-2.258800886e-11
-2.261916132e-11
-1.132171213e-11
-1.7929624e-11
-8.765937414e-12
-9.470218145e-12
-9.877827802e-12
-1.026158927e-11
-1.065116843e-11
-1.105514817e-11
-1.145206832e-11
-1.182570992e-11
-1.219801157e-11
-1.259054191e-11
-1.298864718e-11
-1.336936047e-11
-1.373450689e-11
-1.409445661e-11
-1.444163843e-11
-1.476372432e-11
-1.507249152e-11
-1.53969856e-11
-1.574646849e-11
-1.609593525e-11
-1.641557522e-11
-1.670545798e-11
-1.69917922e-11
-1.729259958e-11
-1.759701318e-11
-1.78809548e-11
-1.813662886e-11
-1.838069629e-11
-1.863489822e-11
-1.890364946e-11
-1.917206149e-11
-1.942255212e-11
-1.965012339e-11
-1.986225036e-11
-2.006764594e-11
-2.026779877e-11
-2.045885783e-11
-2.06391141e-11
-2.081263191e-11
-2.098524602e-11
-2.11576991e-11
-2.132334014e-11
-2.147294914e-11
-2.160251643e-11
-2.17172928e-11
-2.182876501e-11
-2.194687476e-11
-2.207313819e-11
-2.219917882e-11
-2.231123866e-11
-2.23975091e-11
-2.245404359e-11
-2.248643708e-11
-2.250698437e-11
-2.252886642e-11
-2.255975593e-11
-2.259748761e-11
-2.263041581e-11
-1.132733526e-11
-1.804375921e-11
-8.773282316e-12
-9.507296533e-12
-9.926406232e-12
-1.030798477e-11
-1.069499958e-11
-1.109854874e-11
-1.149038219e-11
-1.185691691e-11
-1.222443858e-11
-1.260816301e-11
-1.29884238e-11
-1.335132754e-11
-1.371166809e-11
-1.408052781e-11
-1.443930742e-11
-1.47657224e-11
-1.507082729e-11
-1.538983165e-11
-1.573836495e-11
-1.609360768e-11
-1.642350571e-11
-1.672392454e-11
-1.701777625e-11
-1.732206321e-11
-1.762653906e-11
-1.790785236e-11
-1.815819167e-11
-1.839394708e-11
-1.86374635e-11
-1.88953119e-11
-1.915590998e-11
-1.940480629e-11
-1.963836568e-11
-1.986261754e-11
-2.008221444e-11
-2.029355782e-11
-2.048899408e-11
-2.066613569e-11
-2.083171619e-11
-2.09960196e-11
-2.116360944e-11
-2.132918505e-11
-2.148219457e-11
-2.161592293e-11
-2.173337518e-11
-2.184540772e-11
-2.196283583e-11
-2.208847521e-11
-2.22145547e-11
-2.232683277e-11
-2.241250562e-11
-2.246711957e-11
-2.249689842e-11
-2.251558819e-11
-2.253752097e-11
-2.257014061e-11
-2.260966786e-11
-2.264288144e-11
-1.133359963e-11
-1.814526499e-11
-8.782622854e-12
-9.53673861e-12
-9.964909923e-12
-1.034314398e-11
-1.072743959e-11
-1.11278248e-11
-1.150879459e-11
-1.186576869e-11
-1.223341247e-11
-1.261769949e-11
-1.298857642e-11
-1.333764119e-11
-1.369222337e-11
-1.406708713e-11
-1.443713869e-11
-1.477218123e-11
-1.507978975e-11
-1.539616549e-11
-1.574029218e-11
-1.60928599e-11
-1.642352401e-11
-1.672734898e-11
-1.702517854e-11
-1.733262574e-11
-1.763951749e-11
-1.792314906e-11
-1.817563211e-11
-1.841213798e-11
-1.865344866e-11
-1.890553744e-11
-1.915812309e-11
-1.939983429e-11
-1.963059309e-11
-1.985851379e-11
-2.008738299e-11
-2.030986795e-11
-2.051354634e-11
-2.06928248e-11
-2.085450314e-11
-2.101196143e-11
-2.117387775e-11
-2.133769821e-11
-2.149295387e-11
-2.163080136e-11
-2.175154936e-11
-2.186441768e-11
-2.198028218e-11
-2.210319553e-11
-2.222672031e-11
-2.233728289e-11
-2.242202797e-11
-2.247627005e-11
-2.250628771e-11
-2.252609869e-11
-2.254996026e-11
-2.258445482e-11
-2.262457338e-11
-2.265669574e-11
-1.13403627e-11
-1.815866968e-11
-8.754449588e-12
-9.538418884e-12
-9.981922511e-12
-1.036363849e-11
-1.075526594e-11
-1.115694244e-11
-1.15237272e-11
-1.186663996e-11
-1.223319581e-11
-1.262088588e-11
-1.298917671e-11
-1.333271347e-11
-1.368654205e-11
-1.40668321e-11
-1.44450097e-11
-1.478748119e-11
-1.509919684e-11
-1.54142346e-11
-1.575169112e-11
-1.609543695e-11
-1.641906166e-11
-1.671934763e-11
-1.701631318e-11
-1.732428562e-11
-1.763306117e-11
-1.792092788e-11
-1.818048691e-11
-1.842572172e-11
-1.867460592e-11
-1.892995025e-11
-1.917973629e-11
-1.941362995e-11
-1.963530339e-11
-1.985755988e-11
-2.008718917e-11
-2.031635807e-11
-2.052895793e-11
-2.071482202e-11
-2.087804954e-11
-2.103255362e-11
-2.118999403e-11
-2.135103795e-11
-2.150666264e-11
-2.164711293e-11
-2.177040185e-11
-2.188371473e-11
-2.1997321e-11
-2.211618193e-11
-2.223551866e-11
-2.234320098e-11
-2.242709583e-11
-2.248252633e-11
-2.251532865e-11
-2.253874608e-11
-2.256590686e-11
-2.260211172e-11
-2.264162101e-11
-2.267148857e-11
-1.134728121e-11
-1.817230395e-11
-8.722309372e-12
-9.526739649e-12
-9.974881936e-12
-1.035733318e-11
-1.076399293e-11
-1.11754232e-11
-1.153490984e-11
-1.187018738e-11
-1.223868174e-11
-1.26292794e-11
-1.299632446e-11
-1.33398973e-11
-1.369828706e-11
-1.408427681e-11
-1.44666045e-11
-1.48124644e-11
-1.512646408e-11
-1.543949229e-11
-1.57688443e-11
-1.610112197e-11
-1.641475919e-11
-1.67091525e-11
-1.70035328e-11
-1.731032178e-11
-1.761876972e-11
-1.790836868e-11
-1.817334422e-11
-1.842809146e-11
-1.868885639e-11
-1.89547806e-11
-1.92097309e-11
-1.944111341e-11
-1.965393212e-11
-1.9865657e-11
-2.008858584e-11
-2.031802752e-11
-2.053693693e-11
-2.073107146e-11
-2.090012897e-11
-2.105594276e-11
-2.121116968e-11
-2.136922667e-11
-2.152340474e-11
-2.166436877e-11
-2.17887518e-11
-2.190182901e-11
-2.201282338e-11
-2.212716023e-11
-2.224166784e-11
-2.234606773e-11
-2.242946181e-11
-2.248738085e-11
-2.252484373e-11
-2.255351644e-11
-2.258464522e-11
-2.262206122e-11
-2.265983768e-11
-2.268656519e-11
-1.135395049e-11
-1.816575507e-11
-8.670521414e-12
-9.474856722e-12
-9.909049605e-12
-1.029072817e-11
-1.072091769e-11
-1.115134923e-11
-1.151766286e-11
-1.186349991e-11
-1.224571707e-11
-1.264091918e-11
-1.30055412e-11
-1.335094631e-11
-1.371685717e-11
-1.410907256e-11
-1.449389469e-11
-1.484179837e-11
-1.515803556e-11
-1.546939041e-11
-1.579054609e-11
-1.611119629e-11
-1.641546396e-11
-1.670564658e-11
-1.699959629e-11
-1.730662442e-11
-1.761405017e-11
-1.790163338e-11
-1.816554817e-11
-1.842266245e-11
-1.869064465e-11
-1.896748866e-11
-1.923307465e-11
-1.946988045e-11
-1.968024144e-11
-1.988334133e-11
-2.009675351e-11
-2.032129088e-11
-2.05422115e-11
-2.074330968e-11
-2.091986826e-11
-2.10799497e-11
-2.123519527e-11
-2.139066477e-11
-2.154216056e-11
-2.168180051e-11
-2.180586566e-11
-2.191814667e-11
-2.202661802e-11
-2.213670162e-11
-2.224655705e-11
-2.234783599e-11
-2.243115807e-11
-2.249239838e-11
-2.253553531e-11
-2.257015464e-11
-2.260519766e-11
-2.264305337e-11
-2.267812901e-11
-2.270114533e-11
-1.136003553e-11
-1.815167155e-11
-8.654575871e-12
-9.468226865e-12
-9.881019865e-12
-1.025754577e-11
-1.070103617e-11
-1.113407241e-11
-1.150041038e-11
-1.186138056e-11
-1.226034314e-11
-1.265584917e-11
-1.301158102e-11
-1.335436189e-11
-1.372441863e-11
-1.411986086e-11
-1.450647469e-11
-1.485938904e-11
-1.518306594e-11
-1.549762713e-11
-1.581394764e-11
-1.612529989e-11
-1.642247373e-11
-1.671129172e-11
-1.700842432e-11
-1.731970506e-11
-1.76291744e-11
-1.791462786e-11
-1.8172371e-11
-1.842211424e-11
-1.86861916e-11
-1.896611714e-11
-1.924111808e-11
-1.948862361e-11
-1.970484731e-11
-1.990614451e-11
-2.01124478e-11
-2.033013791e-11
-2.054916014e-11
-2.075411889e-11
-2.093732915e-11
-2.110272314e-11
-2.125950647e-11
-2.141310631e-11
-2.15614746e-11
-2.16987121e-11
-2.182157313e-11
-2.193288437e-11
-2.20393384e-11
-2.214595995e-11
-2.22518574e-11
-2.235048188e-11
-2.24340552e-11
-2.24988917e-11
-2.254784717e-11
-2.258821519e-11
-2.262651965e-11
-2.266390359e-11
-2.269553465e-11
-2.27145882e-11
-1.136536483e-11
-1.825419816e-11
-8.715440017e-12
-9.52350834e-12
-9.906220953e-12
-1.027749669e-11
-1.072126197e-11
-1.113463716e-11
-1.14888928e-11
-1.186402494e-11
-1.227888296e-11
-1.267092664e-11
-1.301397939e-11
-1.334953907e-11
-1.371597638e-11
-1.41059532e-11
-1.448999983e-11
-1.48502207e-11
-1.51880508e-11
-1.55133653e-11
-1.583116188e-11
-1.613776035e-11
-1.643061129e-11
-1.671955399e-11
-1.702150711e-11
-1.734061194e-11
-1.765801531e-11
-1.794733272e-11
-1.820109108e-11
-1.843903612e-11
-1.868892686e-11
-1.896018492e-11
-1.923677952e-11
-1.949416174e-11
-1.972148152e-11
-1.992832335e-11
-2.013277835e-11
-2.034475107e-11
-2.055960272e-11
-2.076508326e-11
-2.095266295e-11
-2.112289078e-11
-2.12819502e-11
-2.143455613e-11
-2.158012682e-11
-2.171478437e-11
-2.183625844e-11
-2.194686096e-11
-2.20520818e-11
-2.215627174e-11
-2.225911018e-11
-2.235560432e-11
-2.243953569e-11
-2.250770961e-11
-2.256190299e-11
-2.260714701e-11
-2.264768237e-11
-2.26836942e-11