/*--------------------------------*- C++ -*----------------------------------*\
  =========                 |
  \\      /  F ield         | OpenFOAM: The Open Source CFD Toolbox
   \\    /   O peration     | Website:  https://openfoam.org
    \\  /    A nd           | Version:  10
     \\/     M anipulation  |
\*---------------------------------------------------------------------------*/
FoamFile
{
    format      ascii;
    class       surfaceScalarField;
    location    "0.0001";
    object      phi;
}
// * * * * * * * * * * * * * * * * * * * * * * * * * * * * * * * * * * * * * //

dimensions      [0 3 -1 0 0 0 0];

internalField   nonuniform List<scalar> 
7080
(
5.809967276e-22
1.599155151e-23
5.648588818e-22
1.612660078e-23
5.486432903e-22
1.621210129e-23
5.323927125e-22
1.624886107e-23
5.161511173e-22
1.624003235e-23
4.999603276e-22
1.618914557e-23
4.838589566e-22
1.609964303e-23
4.678823107e-22
1.597484743e-23
4.520624788e-22
1.581796921e-23
4.364284498e-22
1.563210423e-23
4.210062375e-22
1.542022695e-23
4.058190073e-22
1.518518449e-23
3.908872087e-22
1.492969315e-23
3.762287093e-22
1.465633598e-23
3.618589297e-22
1.4367561e-23
3.477909753e-22
1.406568118e-23
3.340357681e-22
1.375287679e-23
3.206021808e-22
1.34311982e-23
3.074971691e-22
1.31025668e-23
2.947258972e-22
1.276877531e-23
2.822918573e-22
1.243149074e-23
2.701969893e-22
1.209226055e-23
2.584418024e-22
1.175251869e-23
2.470254912e-22
1.141358815e-23
2.359460433e-22
1.107668113e-23
2.252003374e-22
1.074290128e-23
2.14784241e-22
1.041325039e-23
2.046927091e-22
1.008863729e-23
1.949198805e-22
9.769884449e-24
1.854591638e-22
9.457730594e-24
1.76303314e-22
9.152831951e-24
1.67444502e-22
8.855765797e-24
1.588743853e-22
8.567037494e-24
1.505841761e-22
8.287088746e-24
1.42564706e-22
8.016304043e-24
1.348064818e-22
7.755014315e-24
1.272997329e-22
7.503499351e-24
1.20034455e-22
7.261991191e-24
1.130004518e-22
7.030679228e-24
1.061873749e-22
6.809715994e-24
9.95847583e-23
6.599222001e-24
9.318204784e-23
6.399289005e-24
8.696862396e-23
6.209982347e-24
8.093382198e-23
6.03134361e-24
7.506695123e-23
5.863394222e-24
6.935731336e-23
5.706139664e-24
6.379421821e-23
5.559573321e-24
5.836699537e-23
5.423679225e-24
5.306500118e-23
5.298433689e-24
4.787762236e-23
5.183806436e-24
4.279427833e-23
5.079761938e-24
3.780442359e-23
4.986261296e-24
3.289755047e-23
4.903264452e-24
2.806319131e-23
4.830732129e-24
2.329091936e-23
4.768626807e-24
1.857034866e-23
4.716911778e-24
1.389113731e-23
4.675545785e-24
9.243007934e-24
4.644464247e-24
4.615835795e-24
4.623511653e-24
4.612179666e-24
5.811317769e-22
3.203549569e-23
5.649443823e-22
3.230545309e-23
5.486800501e-22
3.247244152e-23
5.323838838e-22
3.254196924e-23
5.161002305e-22
3.252067001e-23
4.998708251e-22
3.241543453e-23
4.83734161e-22
3.223307452e-23
4.677254325e-22
3.198022909e-23
4.518766138e-22
3.166332959e-23
4.362165725e-22
3.128857774e-23
4.20771195e-22
3.086192957e-23
4.05563516e-22
3.038908396e-23
3.906138515e-22
2.987547508e-23
3.759399343e-22
2.932626803e-23
3.615570498e-22
2.874635822e-23
3.474781709e-22
2.814037299e-23
3.337140895e-22
2.751267333e-23
3.202735494e-22
2.686735553e-23
3.071633776e-22
2.620825509e-23
2.943886126e-22
2.55389543e-23
2.819526271e-22
2.486279077e-23
2.698572475e-22
2.418286322e-23
2.581028718e-22
2.350203454e-23
2.466885842e-22
2.282293672e-23
2.356122635e-22
2.214798099e-23
2.248706865e-22
2.147937159e-23
2.144596279e-22
2.081911775e-23
2.043739563e-22
2.016904101e-23
1.946077266e-22
1.953077987e-23
1.851542652e-22
1.890579685e-23
1.760062478e-22
1.829539034e-23
1.671557737e-22
1.770070938e-23
1.585944365e-22
1.712276681e-23
1.503133914e-22
1.656244878e-23
1.423034163e-22
1.60205216e-23
1.345549669e-22
1.549763906e-23
1.270582247e-22
1.499435206e-23
1.19803143e-22
1.451111955e-23
1.127794886e-22
1.404831888e-23
1.059768809e-22
1.360625398e-23
9.93848253e-23
1.318516186e-23
9.299274118e-23
1.278521895e-23
8.678998523e-23
1.24065486e-23
8.076587259e-23
1.204922943e-23
7.490969667e-23
1.171330347e-23
6.921074702e-23
1.139878272e-23
6.365832412e-23
1.1105654e-23
5.824174983e-23
1.083388254e-23
5.295037393e-23
1.058341582e-23
4.777357787e-23
1.03541879e-23
4.270077769e-23
1.01461244e-23
3.772142675e-23
9.959147285e-24
3.282501814e-23
9.793178546e-24
2.800108599e-23
9.6481425e-24
2.323920433e-23
9.523966716e-24
1.852898267e-23
9.420581847e-24
1.386005577e-23
9.337920602e-24
9.22205534e-24
9.275917241e-24
4.604503808e-24
9.234519897e-24
9.21379384e-24
5.814017343e-22
4.819088217e-23
5.651113707e-22
4.858888667e-23
5.487495778e-22
4.883080937e-23
5.323625845e-22
4.89262795e-23
5.15994995e-22
4.888562157e-23
4.996884651e-22
4.871924737e-23
4.834813155e-22
4.843740907e-23
4.67408533e-22
4.805009828e-23
4.51501862e-22
4.756699094e-23
4.357899244e-22
4.699741133e-23
4.202983494e-22
4.635030768e-23
4.050499071e-22
4.563423706e-23
3.900646445e-22
4.485735642e-23
3.753600245e-22
4.402741685e-23
3.609510646e-22
4.315176091e-23
3.468504712e-22
4.22373246e-23
3.330687717e-22
4.129064327e-23
3.196144489e-22
4.031785811e-23
3.064940768e-22
3.932472146e-23
2.937124491e-22
3.831660211e-23
2.812726995e-22
3.729849355e-23
2.691764188e-22
3.627502569e-23
2.57423774e-22
3.525047807e-23
2.460136285e-22
3.422879256e-23
2.349436541e-22
3.32135849e-23
2.242104327e-22
3.220815618e-23
2.138095512e-22
3.121550526e-23
2.037356952e-22
3.023834281e-23
1.939827436e-22
2.927910698e-23
1.845438587e-22
2.833997999e-23
1.754115668e-22
2.742290469e-23
1.665778312e-22
2.652960011e-23
1.580341185e-22
2.566157568e-23
1.497714642e-22
2.482014494e-23
1.417805338e-22
2.400643984e-23
1.340516799e-22
2.322142606e-23
1.265749922e-22
2.246591871e-23
1.193403423e-22
2.1740597e-23
1.123374237e-22
2.10460171e-23
1.055557888e-22
2.038262348e-23
9.898488239e-23
1.975075987e-23
9.261407083e-23
1.91506809e-23
8.643266606e-23
1.858256423e-23
8.042994663e-23
1.804652237e-23
7.459517593e-23
1.75426131e-23
6.891761829e-23
1.707084789e-23
6.338655266e-23
1.663119904e-23
5.799128311e-23
1.622360629e-23
5.2721146e-23
1.584798394e-23
4.756551437e-23
1.550422825e-23
4.251380058e-23
1.519222474e-23
3.755545801e-23
1.491185434e-23
3.26799821e-23
1.466299803e-23
2.787691021e-23
1.444553997e-23
2.313581946e-23
1.425936977e-23
1.844632142e-23
1.410438438e-23
1.379805241e-23
1.398049081e-23
9.180657996e-24
1.388761134e-23
4.583777751e-24
1.382569645e-23
1.379475188e-23
5.817997388e-22
6.451408099e-23
5.653532934e-22
6.502952446e-23
5.48845048e-22
6.533587674e-23
5.323219266e-22
6.544677632e-23
5.158286208e-22
6.537632196e-23
4.994066268e-22
6.513855665e-23
4.830940047e-22
6.474725194e-23
4.669254257e-22
6.421580361e-23
4.509322824e-22
6.355716693e-23
4.351428207e-22
6.278381276e-23
4.195822788e-22
6.190769821e-23
4.042730265e-22
6.094024855e-23
3.892347049e-22
5.989234733e-23
3.744843685e-22
5.877433154e-23
3.600366283e-22
5.759599048e-23
3.459037899e-22
5.636656893e-23
3.320959865e-22
5.509477364e-23
3.186213123e-22
5.378878097e-23
3.054859575e-22
5.245624487e-23
2.926943405e-22
5.110430694e-23
2.802492317e-22
4.973961006e-23
2.681518712e-22
4.836831416e-23
2.564020885e-22
4.699611124e-23
2.449984208e-22
4.562823884e-23
2.339382253e-22
4.4269494e-23
2.232177818e-22
4.292425069e-23
2.128323887e-22
4.159648077e-23
2.027764593e-22
4.028977617e-23
1.930436166e-22
3.900736973e-23
1.836267834e-22
3.775215401e-23
1.745182623e-22
3.652669947e-23
1.657098067e-22
3.533327364e-23
1.571926878e-22
3.417386179e-23
1.489577591e-22
3.30501885e-23
1.4099552e-22
3.196373901e-23
1.332961725e-22
3.091577959e-23
1.258496705e-22
2.990737676e-23
1.186457624e-22
2.893941522e-23
1.116740301e-22
2.801261496e-23
1.049239251e-22
2.712754777e-23
9.838480342e-23
2.628465352e-23
9.204595415e-23
2.548425606e-23
8.58966242e-23
2.472657862e-23
7.992603736e-23
2.401175798e-23
7.412341072e-23
2.333985729e-23
6.847796944e-23
2.271087747e-23
6.297895992e-23
2.212476771e-23
5.761566076e-23
2.158143564e-23
5.237739031e-23
2.108075728e-23
4.725351086e-23
2.062258664e-23
4.223343018e-23
2.020676441e-23
3.730660169e-23
1.98331253e-23
3.246252405e-23
1.950150392e-23
2.769074e-23
1.921173944e-23
2.298083407e-23
1.89636796e-23
1.832242785e-23
1.875718458e-23
1.370517294e-23
1.859213136e-23
9.118743113e-24
1.846841925e-23
4.552833181e-24
1.8385977e-23
1.834476763e-23
5.823151823e-22
8.106158733e-23
5.656596457e-22
8.168014009e-23
5.489559476e-22
8.203658791e-23
5.322514723e-22
8.214866048e-23
5.155908555e-22
8.203434035e-23
4.99015322e-22
8.171140958e-23
4.825625564e-22
8.119724417e-23
4.66266789e-22
8.050870545e-23
4.501589282e-22
7.966207052e-23
4.342667062e-22
7.867298547e-23
4.186148291e-22
7.755643434e-23
4.032251253e-22
7.632672135e-23
3.881166891e-22
7.499746238e-23
3.733060275e-22
7.358158173e-23
3.588072068e-22
7.209131208e-23
3.446319946e-22
7.053819894e-23
3.307899939e-22
6.893311017e-23
3.172887762e-22
6.728624806e-23
3.041340195e-22
6.560716145e-23
2.913296437e-22
6.390475813e-23
2.788779358e-22
6.218731926e-23
2.667796683e-22
6.04625167e-23
2.550342161e-22
5.87374318e-23
2.43639676e-22
5.701857503e-23
2.32592982e-22
5.531190702e-23
2.218900118e-22
5.362286201e-23
2.115256841e-22
5.19563731e-23
2.014940529e-22
5.031689758e-23
1.917884009e-22
4.870844076e-23
1.824013289e-22
4.71345792e-23
1.733248364e-22
4.559848486e-23
1.645503949e-22
4.410295131e-23
1.560690145e-22
4.265042132e-23
1.478713096e-22
4.124301413e-23
1.399475606e-22
3.988255127e-23
1.322877697e-22
3.857058072e-23
1.24881709e-22
3.730840028e-23
1.177189622e-22
3.609708058e-23
1.107889629e-22
3.493748779e-23
1.040810309e-22
3.383030555e-23
9.758440596e-23
3.277605557e-23
9.128827671e-23
3.177511691e-23
8.518180356e-23
3.082774404e-23
7.925413667e-23
2.993408378e-23
7.34944309e-23
2.909419145e-23
6.789185968e-23
2.83080459e-23
6.243562785e-23
2.757556366e-23
5.71149824e-23
2.689661205e-23
5.191921967e-23
2.627102134e-23
4.683768863e-23
2.569859585e-23
4.185979107e-23
2.517912393e-23
3.697498031e-23
2.471238671e-23
3.217275957e-23
2.429816572e-23
2.744268016e-23
2.393624942e-23
2.277433905e-23
2.362643908e-23
1.815737463e-23
2.336855413e-23
1.358146083e-23
2.316243724e-23
9.036300861e-24
2.300795942e-23
4.511623812e-24
2.290502461e-23
2.285357156e-23
5.82933735e-22
9.789013935e-23
5.660160935e-22
9.859354907e-23
5.490680201e-22
9.898182931e-23
5.321371521e-22
9.907696657e-23
5.152679247e-22
9.890097634e-23
4.985011566e-22
9.847550153e-23
4.818740177e-22
9.782161486e-23
4.654201541e-22
9.695970951e-23
4.491698432e-22
9.590943048e-23
4.33150155e-22
9.468962965e-23
4.173851161e-22
9.331833702e-23
4.018958663e-22
9.181274529e-23
3.867008085e-22
9.018920474e-23
3.718157578e-22
8.846322407e-23
3.572540936e-22
8.664947403e-23
3.430269058e-22
8.476179485e-23
3.291431317e-22
8.281320829e-23
3.156096896e-22
8.08159322e-23
3.024316162e-22
7.878139535e-23
2.896122048e-22
7.672025228e-23
2.771531332e-22
7.464240102e-23
2.650545834e-22
7.255700474e-23
2.533153593e-22
7.047251613e-23
2.41933008e-22
6.83967025e-23
2.30903937e-22
6.633667095e-23
2.202235229e-22
6.429889492e-23
2.098862086e-22
6.228924257e-23
1.998855961e-22
6.031300649e-23
1.902145393e-22
5.837493391e-23
1.808652345e-22
5.6479257e-23
1.718293029e-22
5.462972417e-23
1.630978649e-22
5.282963219e-23
1.546616073e-22
5.108185863e-23
1.465108467e-22
4.938889343e-23
1.3863559e-22
4.775286903e-23
1.310255892e-22
4.61755896e-23
1.236703893e-22
4.465855997e-23
1.165593694e-22
4.320301444e-23
1.096817806e-22
4.180994485e-23
1.030267809e-22
4.048012702e-23
9.658346731e-23
3.921414515e-23
9.034090383e-23
3.801241425e-23
8.42881433e-23
3.687520144e-23
7.841424434e-23
3.580264651e-23
7.270828535e-23
3.479478177e-23
6.715937744e-23
3.385155078e-23
6.175667624e-23
3.297282564e-23
5.648939169e-23
3.215842245e-23
5.134679418e-23
3.140811525e-23
4.631821671e-23
3.072164852e-23
4.139305385e-23
3.009874867e-23
3.656075932e-23
2.953913456e-23
3.181084327e-23
2.904252708e-23
2.713286983e-23
2.86086577e-23
2.251645409e-23
2.823727592e-23
1.795125774e-23
2.792815576e-23
1.342698302e-23
2.768110139e-23
8.933366053e-24
2.749595197e-23
4.46017076e-24
2.737258568e-23
2.731092179e-23
5.836371447e-22
1.150567984e-22
5.664043738e-22
1.15822608e-22
5.491631574e-22
1.162203312e-22
5.319611619e-22
1.162764211e-22
5.148424499e-22
1.160171006e-22
4.9784727e-22
1.154680062e-22
4.810121123e-22
1.14654004e-22
4.64369875e-22
1.135990864e-22
4.479500423e-22
1.123263112e-22
4.317788624e-22
1.108577636e-22
4.158795244e-22
1.092145349e-22
4.002723257e-22
1.074167125e-22
3.849748278e-22
1.054833815e-22
3.700020078e-22
1.034326307e-22
3.553664144e-22
1.012815614e-22
3.410783193e-22
9.904629779e-23
3.271458557e-22
9.674200113e-23
3.135751527e-22
9.438288735e-23
3.003704732e-22
9.198224568e-23
2.875343535e-22
8.955245789e-23
2.750677369e-22
8.710502005e-23
2.629700948e-22
8.465056796e-23
2.512395457e-22
8.219890513e-23
2.398729764e-22
7.975903135e-23
2.28866161e-22
7.733917148e-23
2.182138706e-22
7.494680609e-23
2.079099725e-22
7.258870512e-23
1.979475235e-22
7.027096415e-23
1.883188624e-22
6.799904171e-23
1.790157017e-22
6.577779642e-23
1.700292109e-22
6.361152395e-23
1.613500913e-22
6.150399401e-23
1.529686421e-22
5.945848745e-23
1.448748223e-22
5.747783279e-23
1.370583106e-22
5.556444214e-23
1.295085596e-22
5.372034637e-23
1.222148437e-22
5.194722989e-23
1.151662998e-22
5.024646478e-23
1.083519628e-22
4.861914341e-23
1.01760799e-22
4.706610909e-23
9.538173641e-23
4.558798414e-23
8.920369102e-23
4.41851963e-23
8.321558838e-23
4.285800388e-23
7.740637959e-23
4.160652019e-23
7.176505437e-23
4.043073709e-23
6.62806523e-23
3.933054698e-23
6.094227305e-23
3.830576266e-23
5.573908449e-23
3.735613498e-23
5.066032745e-23
3.648136841e-23
4.569531686e-23
3.56811353e-23
4.083343974e-23
3.495508908e-23
3.606415184e-23
3.430287672e-23
3.137697388e-23
3.372415025e-23
2.676148804e-23
3.321857706e-23
2.220733394e-23
3.278584871e-23
1.770420336e-23
3.242568839e-23
1.32418336e-23
3.213785698e-23
8.809999758e-24
3.192215817e-23
4.398506876e-24
3.177844245e-23
3.170660968e-23
5.844029544e-22
1.326189104e-22
5.66802097e-22
1.334201404e-22
5.492192472e-22
1.33800551e-22
5.317018414e-22
1.337912986e-22
5.142933556e-22
1.334229987e-22
4.970332677e-22
1.327254161e-22
4.799571948e-22
1.317273033e-22
4.630970998e-22
1.304563144e-22
4.464814948e-22
1.289389575e-22
4.301356337e-22
1.272005724e-22
4.14081702e-22
1.2526532e-22
3.983389947e-22
1.231561836e-22
3.82924077e-22
1.208949776e-22
3.678509385e-22
1.185023611e-22
3.531311508e-22
1.159978521e-22
3.387740226e-22
1.133998428e-22
3.247867419e-22
1.10725617e-22
3.111745111e-22
1.079913712e-22
2.979406854e-22
1.052122368e-22
2.850869157e-22
1.02402303e-22
2.726132848e-22
9.957464126e-23
2.605184319e-22
9.674133391e-23
2.487996719e-22
9.391350518e-23
2.374531166e-22
9.110135412e-23
2.264737956e-22
8.831418854e-23
2.158557696e-22
8.556046133e-23
2.055922316e-22
8.28478101e-23
1.95675601e-22
8.01830996e-23
1.860976172e-22
7.757246523e-23
1.768494292e-22
7.502135603e-23
1.67921681e-22
7.253457716e-23
1.593045848e-22
7.011633246e-23
1.509879874e-22
6.777026736e-23
1.429614317e-22
6.549951167e-23
1.352142148e-22
6.330672176e-23
1.277354431e-22
6.119412178e-23
1.205140786e-22
5.91635437e-23
1.135389784e-22
5.721646619e-23
1.067989285e-22
5.535405169e-23
1.002826741e-22
5.357718128e-23
9.397894857e-23
5.188648727e-23
8.78764986e-23
5.028238386e-23
8.196410469e-23
4.876509645e-23
7.623059649e-23
4.733468985e-23
7.066486425e-23
4.599109507e-23
6.525586798e-23
4.473413416e-23
5.999264537e-23
4.356354253e-23
5.486431792e-23
4.247898874e-23
4.986009434e-23
4.148009208e-23
4.496927063e-23
4.056643879e-23
4.018122738e-23
3.97375971e-23
3.548542538e-23
3.899313157e-23
3.087140069e-23
3.83326162e-23
2.63287597e-23
3.775564622e-23
2.184717361e-23
3.726184806e-23
1.741637195e-23
3.685088766e-23
1.30261348e-23
3.652247719e-23
8.666284037e-24
3.627638059e-23
4.326674106e-24
3.61124178e-23
3.60304677e-23
5.852041844e-22
1.506339783e-22
5.671825076e-22
1.514387797e-22
5.492099948e-22
1.517704965e-22
5.313335416e-22
1.516652341e-22
5.135957729e-22
1.51158181e-22
4.960351549e-22
1.502833547e-22
4.786862058e-22
1.490734753e-22
4.61579743e-22
1.475599059e-22
4.447431096e-22
1.457726297e-22
4.282003813e-22
1.437402485e-22
4.119725657e-22
1.414899909e-22
3.960777887e-22
1.390477272e-22
3.805314604e-22
1.364379884e-22
3.653464295e-22
1.336839887e-22
3.505331415e-22
1.308076462e-22
3.360997968e-22
1.278296032e-22
3.220524961e-22
1.247692478e-22
3.083953767e-22
1.216447372e-22
2.951307515e-22
1.184730228e-22
2.82259254e-22
1.152698754e-22
2.697799775e-22
1.120499128e-22
2.576906032e-22
1.088266312e-22
2.459875209e-22
1.056124404e-22
2.34665951e-22
1.024187028e-22
2.237200684e-22
9.925577213e-23
2.131431184e-22
9.613303648e-23
2.029275211e-22
9.305896264e-23
1.930649667e-22
9.004114426e-23
1.835465079e-22
8.708635101e-23
1.743626503e-22
8.420057786e-23
1.655034363e-22
8.138909414e-23
1.569585197e-22
7.865649295e-23
1.487172317e-22
7.600674076e-23
1.407686418e-22
7.344322692e-23
1.331016149e-22
7.096881196e-23
1.257048651e-22
6.858587434e-23
1.185670011e-22
6.629635566e-23
1.116765639e-22
6.410180419e-23
1.050220581e-22
6.200341679e-23
9.859198008e-23
6.000207857e-23
9.237484516e-23
5.809840028e-23
8.63592112e-23
5.629275339e-23
8.053369808e-23
5.45853034e-23
7.488700171e-23
5.297604136e-23
6.940790334e-23
5.146481371e-23
6.408527636e-23
5.005134968e-23
5.890809158e-23
4.873528621e-23
5.386542127e-23
4.751619012e-23
4.894644104e-23
4.639357804e-23
4.414042894e-23
4.536693459e-23
3.943676185e-23
4.443572938e-23
3.482491001e-23
4.359943277e-23
3.029443071e-23
4.285753042e-23
2.583496154e-23
4.220953618e-23
2.14362132e-23
4.165500307e-23
1.708796149e-23
4.119353254e-23
1.27800382e-23
4.08247819e-23
8.502321245e-24
4.054847047e-23
4.244724007e-24
4.036438417e-23
4.02723787e-23
5.860089858e-22
1.691594281e-22
5.675142244e-22
1.699307205e-22
5.491047324e-22
1.701774729e-22
5.308264885e-22
1.699409728e-22
5.127209466e-22
1.692611417e-22
4.948252755e-22
1.681763495e-22
4.771726365e-22
1.667233387e-22
4.597924668e-22
1.649372048e-22
4.427107283e-22
1.628514085e-22
4.259501237e-22
1.604978035e-22
4.09530302e-22
1.579066696e-22
3.9346805e-22
1.551067444e-22
3.777774607e-22
1.52125256e-22
3.62470087e-22
1.489879533e-22
3.475550986e-22
1.457191343e-22
3.330394414e-22
1.423416705e-22
3.189279855e-22
1.388770313e-22
3.052236623e-22
1.3534531e-22
2.919276041e-22
1.317652502e-22
2.790392914e-22
1.281542747e-22
2.665566958e-22
1.245285147e-22
2.544764125e-22
1.209028456e-22
2.427937832e-22
1.172909261e-22
2.315030204e-22
1.137052426e-22
2.205973327e-22
1.101571538e-22
2.100690445e-22
1.066569388e-22
1.999097027e-22
1.032138473e-22
1.901101734e-22
9.983615296e-23
1.806607348e-22
9.653120945e-23
1.715511666e-22
9.330550656e-23
1.627708351e-22
9.016472703e-23
1.543087675e-22
8.711380336e-23
1.461537179e-22
8.415697458e-23
1.382942268e-22
8.129784217e-23
1.307186772e-22
7.853942447e-23
1.234153464e-22
7.588420893e-23
1.163724496e-22
7.333420263e-23
1.095781765e-22
7.089098115e-23
1.030207199e-22
6.85557356e-23
9.668830179e-23
6.632931754e-23
9.056919828e-23
6.42122811e-23
8.46517612e-23
6.220492244e-23
7.892443605e-23
6.03073166e-23
7.337577405e-23
5.851935221e-23
6.799443931e-23
5.684076403e-23
6.276921289e-23
5.527116317e-23
5.768899549e-23
5.381006458e-23
5.274280918e-23
5.245691193e-23
4.79197976e-23
5.121109997e-23
4.320922373e-23
5.007199473e-23
3.860046524e-23
4.903895218e-23
3.408300767e-23
4.811133534e-23
2.964643647e-23
4.728852981e-23
2.528042843e-23
4.656995761e-23
2.097474267e-23
4.59550892e-23
1.671921085e-23
4.544345352e-23
1.250372677e-23
4.50346464e-23
8.318234949e-24
4.47283372e-23
4.152718532e-24
4.45242739e-23
4.442228644e-23
5.867802782e-22
1.882522546e-22
5.677609768e-22
1.88947367e-22
5.488682322e-22
1.890677438e-22
5.301466574e-22
1.886600532e-22
5.116361544e-22
1.877690677e-22
4.933722647e-22
1.86437566e-22
4.753865026e-22
1.847063264e-22
4.577066705e-22
1.826141647e-22
4.403571234e-22
1.801979927e-22
4.233589898e-22
1.774928839e-22
4.067303768e-22
1.745321348e-22
3.904865616e-22
1.713473184e-22
3.74640158e-22
1.679683303e-22
3.592012679e-22
1.644234279e-22
3.441776348e-22
1.607392637e-22
3.295748023e-22
1.56940913e-22
3.153962641e-22
1.530519007e-22
3.016436025e-22
1.490942279e-22
2.883166286e-22
1.450884015e-22
2.754135315e-22
1.410534639e-22
2.629310267e-22
1.37007026e-22
2.50864493e-22
1.329653048e-22
2.392080996e-22
1.289431675e-22
2.279549316e-22
1.249541794e-22
2.170971177e-22
1.210106555e-22
2.06625953e-22
1.171237138e-22
1.965320084e-22
1.133033325e-22
1.868052299e-22
1.095584093e-22
1.774350319e-22
1.058968253e-22
1.684103871e-22
1.023255086e-22
1.597199114e-22
9.885049905e-23
1.513519387e-22
9.547701285e-23
1.432945855e-22
9.22095065e-23
1.355358091e-22
8.90517394e-23
1.280634617e-22
8.600683442e-23
1.208653401e-22
8.307733633e-23
1.139292282e-22
8.026526807e-23
1.07242931e-22
7.75721853e-23
1.007943018e-22
7.499922895e-23
9.457126535e-23
7.254717533e-23
8.856183961e-23
7.021648293e-23
8.275415536e-23
6.800733594e-23
7.713647166e-23
6.591968461e-23
7.169718588e-23
6.395328294e-23
6.642483845e-23
6.210772406e-23
6.130811429e-23
6.038247311e-23
5.633584284e-23
5.877689761e-23
5.149699722e-23
5.729029494e-23
4.678069236e-23
5.592191704e-23
4.217618119e-23
5.467099271e-23
3.76728484e-23
5.353674765e-23
3.326020213e-23
5.251842271e-23
2.892786427e-23
5.161529033e-23
2.466556002e-23
5.082666925e-23
2.046310699e-23
5.01519373e-23
1.631040373e-23
4.959054245e-23
1.219741756e-23
4.914201189e-23
8.114171649e-24
4.88059594e-23
4.050731077e-24
4.858209079e-23
4.847020747e-23
5.874753907e-22
2.079685354e-22
5.678813536e-22
2.085388728e-22
5.484605415e-22
2.084861113e-22
5.29255672e-22
2.078624329e-22
5.103046527e-22
2.0671751e-22
4.916410251e-22
2.050985204e-22
4.732943408e-22
2.030502351e-22
4.552904985e-22
2.006151311e-22
4.376520145e-22
1.978335084e-22
4.203982407e-22
1.947435996e-22
4.035455605e-22
1.913816638e-22
3.871075735e-22
1.877820624e-22
3.710952556e-22
1.839773191e-22
3.555171037e-22
1.799981662e-22
3.403792841e-22
1.758735817e-22
3.256857899e-22
1.716308182e-22
3.114385914e-22
1.672954291e-22
2.976377761e-22
1.628912962e-22
2.84281691e-22
1.584406588e-22
2.713670935e-22
1.539641459e-22
2.588893055e-22
1.494808104e-22
2.468423557e-22
1.450081695e-22
2.352191115e-22
1.405622514e-22
2.240114077e-22
1.361576493e-22
2.132101761e-22
1.318075779e-22
2.028055716e-22
1.275239352e-22
1.927870852e-22
1.23317366e-22
1.831436459e-22
1.191973301e-22
1.738637152e-22
1.151721731e-22
1.649353775e-22
1.112491983e-22
1.563464252e-22
1.074347396e-22
1.480844323e-22
1.037342338e-22
1.401368184e-22
1.001522923e-22
1.324909041e-22
9.669277082e-23
1.251339636e-22
9.335883691e-23
1.180532718e-22
9.015303507e-23
1.112361454e-22
8.707734925e-23
1.046699746e-22
8.413326326e-23
9.834224818e-23
8.132181887e-23
9.224057295e-23
7.864367091e-23
8.635269262e-23
7.609913869e-23
8.066650402e-23
7.368825356e-23
7.517007e-23
7.141080278e-23
6.9851627e-23
6.926637029e-23
6.46995875e-23
6.725437489e-23
5.97025388e-23
6.537410591e-23
5.484924017e-23
6.362475611e-23
5.012861932e-23
6.200545172e-23
4.552976803e-23
6.051527937e-23
4.104193613e-23
5.915331017e-23
3.665452346e-23
5.791862122e-23
3.235706975e-23
5.681031486e-23
2.813924318e-23
5.582753602e-23
2.399082808e-23
5.496948763e-23
1.990171214e-23
5.423544426e-23
1.586187317e-23
5.362476385e-23
1.186136508e-23
5.313689756e-23
7.890303035e-24
5.277139765e-23
3.938847756e-24
5.252792324e-23
5.240624428e-23
5.880457281e-22
2.283627974e-22
5.678285921e-22
2.287535681e-22
5.478368632e-22
2.284754147e-22
5.281107491e-22
2.275860591e-22
5.086856631e-22
2.261400189e-22
4.895927398e-22
2.241887725e-22
4.708592368e-22
2.217809657e-22
4.525088758e-22
2.189626185e-22
4.345621057e-22
2.157773113e-22
4.170363048e-22
2.122663435e-22
3.999459591e-22
2.084688608e-22
3.833028301e-22
2.044219525e-22
3.671161027e-22
2.001607222e-22
3.513925192e-22
1.957183402e-22
3.361365206e-22
1.911260798e-22
3.213504008e-22
1.864133445e-22
3.070344584e-22
1.816076914e-22
2.931871388e-22
1.767348557e-22
2.798051781e-22
1.718187787e-22
2.668837581e-22
1.668816397e-22
2.544166645e-22
1.619438923e-22
2.423964376e-22
1.570243064e-22
2.308145093e-22
1.521400191e-22
2.196613363e-22
1.473065928e-22
2.089265334e-22
1.4253808e-22
1.985990024e-22
1.378470925e-22
1.886670493e-22
1.332448736e-22
1.791184889e-22
1.287413755e-22
1.699407404e-22
1.243453374e-22
1.611209188e-22
1.200643668e-22
1.526459194e-22
1.1590502e-22
1.445024909e-22
1.118728835e-22
1.366772969e-22
1.079726529e-22
1.291569702e-22
1.042082116e-22
1.219281618e-22
1.005827059e-22
1.14977586e-22
9.709861648e-23
1.082920594e-22
9.375782824e-23
1.018585303e-22
9.056169614e-23
9.566410021e-23
8.75111088e-23
8.969604073e-23
8.460654856e-23
8.394180749e-23
8.184814746e-23
7.838905324e-23
7.923573897e-23
7.302563751e-23
7.676890551e-23
6.783963161e-23
7.44470225e-23
6.281931852e-23
7.226929927e-23
5.7953189e-23
7.023481731e-23
5.322993578e-23
6.834256552e-23
4.863844697e-23
6.659147243e-23
4.416779883e-23
6.498043512e-23
3.980724717e-23
6.350834497e-23
3.55462171e-23
6.217411059e-23
3.137429091e-23
6.097667814e-23
2.728119479e-23
5.991504953e-23
2.32567847e-23
5.898829857e-23
1.929103173e-23
5.819558525e-23
1.537400689e-23
5.753616805e-23
1.149586516e-23
5.700941436e-23
7.646828621e-24
5.661480865e-23
3.817168804e-24
5.635195871e-23
5.622059997e-23
5.884364987e-22
2.494872027e-22
5.675504388e-22
2.496372552e-22
5.469475075e-22
2.49075937e-22
5.266647089e-22
2.478663753e-22
5.067344167e-22
2.460677394e-22
4.87184933e-22
2.437355927e-22
4.680408896e-22
2.409222461e-22
4.493235686e-22
2.376770746e-22
4.310511379e-22
2.340467811e-22
4.132388222e-22
2.300756059e-22
3.958990508e-22
2.258054851e-22
3.790415999e-22
2.212761642e-22
3.626737207e-22
2.165252757e-22
3.468002587e-22
2.1158839e-22
3.314237853e-22
2.064990476e-22
3.165447477e-22
2.012887798e-22
3.021616227e-22
1.959871245e-22
2.882710618e-22
1.906216444e-22
2.748680392e-22
1.852179517e-22
2.619460107e-22
1.797997383e-22
2.494970786e-22
1.743888133e-22
2.375121503e-22
1.690051477e-22
2.25981083e-22
1.636669293e-22
2.148928236e-22
1.583906266e-22
2.042355458e-22
1.531910609e-22
1.939967835e-22
1.480814845e-22
1.841635512e-22
1.430736631e-22
1.747224508e-22
1.381779618e-22
1.656597697e-22
1.334034337e-22
1.569615721e-22
1.287579096e-22
1.486137829e-22
1.242480877e-22
1.406022603e-22
1.198796242e-22
1.329128557e-22
1.156572213e-22
1.255314645e-22
1.115847146e-22
1.184440724e-22
1.076651559e-22
1.116367978e-22
1.039008933e-22
1.050959273e-22
1.002936462e-22
9.880794291e-23
9.684457852e-23
9.275953997e-23
9.355436645e-23
8.693763963e-23
9.042326406e-23
8.1329399e-23
8.745116372e-23
7.592221979e-23
8.463765211e-23
7.070375449e-23
8.198206166e-23
6.566190838e-23
7.948351784e-23
6.078483655e-23
7.714098287e-23
5.606093721e-23
7.495329622e-23
5.147884269e-23
7.291921186e-23
4.702740966e-23
7.103743233e-23
4.269570868e-23
6.930663933e-23
3.847301279e-23
6.772552107e-23
3.434878465e-23
6.629279651e-23
3.03126623e-23
6.500723688e-23
2.635444384e-23
6.386768465e-23
2.246407138e-23
6.287307045e-23
1.863161453e-23
6.202242781e-23
1.484725319e-23
6.13149059e-23
1.110125946e-23
6.074978016e-23
7.383978679e-24
6.032646084e-23
3.685810059e-24
6.004449952e-23
5.990359396e-23
5.885865513e-22
2.713905326e-22
5.669891205e-22
2.712323649e-22
5.457379459e-22
2.703247175e-22
5.24866073e-22
2.687357728e-22
5.0440227e-22
2.665289766e-22
4.843715864e-22
2.637636191e-22
4.647957181e-22
2.604953584e-22
4.456932752e-22
2.567766592e-22
4.270799627e-22
2.526571365e-22
4.089687014e-22
2.481838139e-22
3.913697299e-22
2.434013052e-22
3.742907114e-22
2.383519359e-22
3.57736835e-22
2.330758173e-22
3.417109164e-22
2.27610888e-22
3.262135175e-22
2.21992934e-22
3.112430924e-22
2.162555966e-22
2.967961426e-22
2.104303762e-22
2.82867369e-22
2.045466409e-22
2.694498258e-22
1.986316437e-22
2.565350856e-22
1.927105508e-22
2.44113413e-22
1.868064794e-22
2.321739319e-22
1.809405456e-22
2.207047803e-22
1.751319247e-22
2.096932579e-22
1.69397921e-22
1.991259694e-22
1.637540481e-22
1.889889621e-22
1.58214117e-22
1.792678499e-22
1.527903292e-22
1.699479228e-22
1.474933739e-22
1.610142456e-22
1.42332527e-22
1.524517502e-22
1.373157517e-22
1.442453193e-22
1.324497982e-22
1.363798574e-22
1.27740304e-22
1.288403489e-22
1.231918922e-22
1.216119058e-22
1.188082672e-22
1.146798097e-22
1.145923071e-22
1.080295507e-22
1.105461507e-22
1.016468596e-22
1.066712803e-22
9.551773084e-23
1.029686e-22
8.962843758e-23
9.943850949e-23
8.396553929e-23
9.608097411e-23
7.851588739e-23
9.289559021e-23
7.326662934e-23
8.988164535e-23
6.820521067e-23
8.703817366e-23
6.331937341e-23
8.436400646e-23
5.85971499e-23
8.185781861e-23
5.402685285e-23
7.951817104e-23
4.959706316e-23
7.734354975e-23
4.529661666e-23
7.533240127e-23
4.111459042e-23
7.348316469e-23
3.704028824e-23
7.179430044e-23
3.306322501e-23
7.026431573e-23
2.917311007e-23
6.889178724e-23
2.535982964e-23
6.767538093e-23
2.161342874e-23
6.661386957e-23
1.792409262e-23
6.570614781e-23
1.428212745e-23
6.495124511e-23
1.067794014e-23
6.434833651e-23
7.102017362e-24
6.389675133e-23
3.544904491e-24
6.359597997e-23
6.344567924e-23
5.884283836e-22
2.941169766e-22
5.660814731e-22
2.935769907e-22
5.441490012e-22
2.922548038e-22
5.226592768e-22
2.902230233e-22
5.016369125e-22
2.875487743e-22
4.811033257e-22
2.842945468e-22
4.610770189e-22
2.805189083e-22
4.415737525e-22
2.762770672e-22
4.226066401e-22
2.716212921e-22
4.041861927e-22
2.666012069e-22
3.863203606e-22
2.612639827e-22
3.690145928e-22
2.556544519e-22
3.522719057e-22
2.498151644e-22
3.360929624e-22
2.437864077e-22
3.204761801e-22
2.376062042e-22
3.05417872e-22
2.313102989e-22
2.909124073e-22
2.249321455e-22
2.769523719e-22
2.185029007e-22
2.63528733e-22
2.120514326e-22
2.506310142e-22
2.056043435e-22
2.382474793e-22
1.991860092e-22
2.26365311e-22
1.928186306e-22
2.149707766e-22
1.865222997e-22
2.04049385e-22
1.803150776e-22
1.935860383e-22
1.742130844e-22
1.835651743e-22
1.682305973e-22
1.739708946e-22
1.623801565e-22
1.647870759e-22
1.566726747e-22
1.559974703e-22
1.511175492e-22
1.475857968e-22
1.457227737e-22