/*--------------------------------*- C++ -*----------------------------------*\
  =========                 |
  \\      /  F ield         | OpenFOAM: The Open Source CFD Toolbox
   \\    /   O peration     | Website:  https://openfoam.org
    \\  /    A nd           | Version:  10
     \\/     M anipulation  |
\*---------------------------------------------------------------------------*/
FoamFile
{
    format      ascii;
    class       volVectorField;
    location    "0.0001";
    object      U;
}
// * * * * * * * * * * * * * * * * * * * * * * * * * * * * * * * * * * * * * //

dimensions      [0 1 -1 0 0 0 0];

internalField   nonuniform List<vector> 
3600
(
(0 1.177948746e-11 1.599155151e-13)
(0 1.145855609e-11 1.612660078e-13)
(0 1.113502172e-11 1.621210129e-13)
(0 1.081036003e-11 1.624886107e-13)
(0 1.04854383e-11 1.624003235e-13)
(0 1.016111445e-11 1.618914557e-13)
(0 9.838192842e-12 1.609964303e-13)
(0 9.517412673e-12 1.597484744e-13)
(0 9.199447896e-12 1.581796921e-13)
(0 8.884909286e-12 1.563210424e-13)
(0 8.574346873e-12 1.542022695e-13)
(0 8.268252448e-12 1.518518449e-13)
(0 7.96706216e-12 1.492969315e-13)
(0 7.67115918e-12 1.465633598e-13)
(0 7.380876389e-12 1.436756101e-13)
(0 7.096499049e-12 1.406568118e-13)
(0 6.818267433e-12 1.375287679e-13)
(0 6.546379489e-12 1.343119821e-13)
(0 6.280993499e-12 1.31025668e-13)
(0 6.022230663e-12 1.276877532e-13)
(0 5.770177545e-12 1.243149075e-13)
(0 5.524888466e-12 1.209226055e-13)
(0 5.286387917e-12 1.175251869e-13)
(0 5.054672936e-12 1.141358815e-13)
(0 4.829715345e-12 1.107668113e-13)
(0 4.611463807e-12 1.074290128e-13)
(0 4.399845784e-12 1.041325039e-13)
(0 4.194769501e-12 1.00886373e-13)
(0 3.996125896e-12 9.769884452e-14)
(0 3.803790443e-12 9.457730597e-14)
(0 3.617624778e-12 9.152831954e-14)
(0 3.43747816e-12 8.8557658e-14)
(0 3.263188873e-12 8.567037496e-14)
(0 3.094585614e-12 8.287088749e-14)
(0 2.931488821e-12 8.016304046e-14)
(0 2.773711879e-12 7.755014317e-14)
(0 2.621062147e-12 7.503499353e-14)
(0 2.473341879e-12 7.261991193e-14)
(0 2.330349068e-12 7.03067923e-14)
(0 2.191878267e-12 6.809715996e-14)
(0 2.057721332e-12 6.599222003e-14)
(0 1.927668061e-12 6.399289007e-14)
(0 1.801506718e-12 6.209982349e-14)
(0 1.679024459e-12 6.031343612e-14)
(0 1.560007732e-12 5.863394223e-14)
(0 1.444242646e-12 5.706139666e-14)
(0 1.331515316e-12 5.559573323e-14)
(0 1.221612136e-12 5.423679226e-14)
(0 1.114319965e-12 5.29843369e-14)
(0 1.009426235e-12 5.183806438e-14)
(0 9.06719007e-13 5.079761939e-14)
(0 8.059870193e-13 4.986261298e-14)
(0 7.070197406e-13 4.903264454e-14)
(0 6.096074178e-13 4.83073213e-14)
(0 5.135411067e-13 4.768626809e-14)
(0 4.186126801e-13 4.71691178e-14)
(0 3.246148597e-13 4.675545786e-14)
(0 2.313414524e-13 4.644464248e-14)
(0 1.385884373e-13 4.623511654e-14)
(0 4.615835796e-14 4.612179667e-14)
(0 1.178283312e-11 4.80270472e-13)
(0 1.146076159e-11 4.843205387e-13)
(0 1.113624432e-11 4.868454281e-13)
(0 1.081063934e-11 4.879083031e-13)
(0 1.048484114e-11 4.876070236e-13)
(0 1.015971056e-11 4.860458011e-13)
(0 9.83604986e-12 4.833271755e-13)
(0 9.514595935e-12 4.795507652e-13)
(0 9.196020464e-12 4.74812988e-13)
(0 8.880931864e-12 4.692068198e-13)
(0 8.569877675e-12 4.628215652e-13)
(0 8.26334711e-12 4.557426846e-13)
(0 7.961773675e-12 4.480516823e-13)
(0 7.665537858e-12 4.398260401e-13)
(0 7.374969841e-12 4.311391923e-13)
(0 7.090352207e-12 4.220605417e-13)
(0 6.811922604e-12 4.126555013e-13)
(0 6.539876389e-12 4.029855374e-13)
(0 6.27436927e-12 3.931082189e-13)
(0 6.015519902e-12 3.830772961e-13)
(0 5.763412397e-12 3.729428152e-13)
(0 5.518098746e-12 3.627512377e-13)
(0 5.279601193e-12 3.525455323e-13)
(0 5.04791456e-12 3.423652487e-13)
(0 4.823008477e-12 3.322466213e-13)
(0 4.6048295e-12 3.222227287e-13)
(0 4.393303144e-12 3.123236814e-13)
(0 4.188335842e-12 3.025767831e-13)
(0 3.989816829e-12 2.930066433e-13)
(0 3.797619918e-12 2.836352744e-13)
(0 3.61160513e-12 2.74482223e-13)
(0 3.431620215e-12 2.655647518e-13)
(0 3.257502102e-12 2.568980431e-13)
(0 3.089078279e-12 2.484953753e-13)
(0 2.926168077e-12 2.403682564e-13)
(0 2.768583832e-12 2.325265338e-13)
(0 2.616131916e-12 2.249785141e-13)
(0 2.468613677e-12 2.177311074e-13)
(0 2.325826316e-12 2.107899811e-13)
(0 2.187563695e-12 2.041596998e-13)
(0 2.053617062e-12 1.978438386e-13)
(0 1.923775665e-12 1.918450796e-13)
(0 1.797827264e-12 1.861653095e-13)
(0 1.675558578e-12 1.808057304e-13)
(0 1.556755693e-12 1.757669769e-13)
(0 1.441204437e-12 1.710492239e-13)
(0 1.328690711e-12 1.666522732e-13)
(0 1.21900074e-12 1.625756177e-13)
(0 1.111921238e-12 1.588184951e-13)
(0 1.007239518e-12 1.553799434e-13)
(0 9.047435556e-13 1.522588634e-13)
(0 8.042220444e-13 1.494540858e-13)
(0 7.054644489e-13 1.4696443e-13)
(0 6.082610413e-13 1.447887463e-13)
(0 5.124029032e-13 1.429259352e-13)
(0 4.176818699e-13 1.413749363e-13)
(0 3.238903844e-13 1.401346639e-13)
(0 2.308211111e-13 1.392038149e-13)
(0 1.382655915e-13 1.385803155e-13)
(0 4.604503809e-14 1.382597351e-13)
(0 1.17894218e-11 8.022637786e-13)
(0 1.146513105e-11 8.089433976e-13)
(0 1.113860949e-11 8.130325089e-13)
(0 1.081112162e-11 8.146824874e-13)
(0 1.04835758e-11 8.140629159e-13)
(0 1.01568346e-11 8.11346819e-13)
(0 9.831697806e-12 8.067048359e-13)
(0 9.508898486e-12 8.003032736e-13)
(0 9.18910395e-12 7.923032053e-13)
(0 8.872917864e-12 7.828598908e-13)
(0 8.560882738e-12 7.721223725e-13)
(0 8.253482565e-12 7.602332102e-13)
(0 7.951145516e-12 7.47328315e-13)
(0 7.65424669e-12 7.335368488e-13)
(0 7.363110891e-12 7.189811913e-13)
(0 7.078015358e-12 7.037769759e-13)
(0 6.799192429e-12 6.88033166e-13)
(0 6.526832206e-12 6.718521364e-13)
(0 6.261085258e-12 6.553297655e-13)
(0 6.002065259e-12 6.38555564e-13)
(0 5.749851486e-12 6.216128432e-13)
(0 5.504491183e-12 6.04578889e-13)
(0 5.266001928e-12 5.87525126e-13)
(0 5.034374025e-12 5.705172927e-13)
(0 4.809572825e-12 5.53615659e-13)
(0 4.591540867e-12 5.368752777e-13)
(0 4.380199839e-12 5.203462301e-13)
(0 4.175452463e-12 5.040738382e-13)
(0 3.977184388e-12 4.880988685e-13)
(0 3.785266023e-12 4.724577684e-13)
(0 3.599554255e-12 4.571829504e-13)
(0 3.41989398e-12 4.423030949e-13)
(0 3.246119497e-12 4.278434249e-13)
(0 3.078055827e-12 4.138259372e-13)
(0 2.91551998e-12 4.002696143e-13)
(0 2.758322136e-12 3.871906512e-13)
(0 2.606266721e-12 3.746027077e-13)
(0 2.459153346e-12 3.625171655e-13)
(0 2.31677766e-12 3.509433598e-13)
(0 2.178932124e-12 3.398887746e-13)
(0 2.045406711e-12 3.293592174e-13)
(0 1.915989532e-12 3.193589986e-13)
(0 1.790467369e-12 3.098911283e-13)
(0 1.668626127e-12 3.00957518e-13)
(0 1.550251226e-12 2.925591656e-13)
(0 1.435127942e-12 2.846963062e-13)
(0 1.32304171e-12 2.773685304e-13)
(0 1.213778358e-12 2.705748884e-13)
(0 1.107124291e-12 2.643139976e-13)
(0 1.002866604e-12 2.585841615e-13)
(0 9.007931495e-13 2.533834914e-13)
(0 8.006925859e-13 2.487100163e-13)
(0 7.023544011e-13 2.445617657e-13)
(0 6.055689231e-13 2.409368247e-13)
(0 5.101272966e-13 2.378333649e-13)
(0 4.158214088e-13 2.352496623e-13)
(0 3.224437383e-13 2.331841141e-13)
(0 2.29787104e-13 2.316352858e-13)
(0 1.376443575e-13 2.306021635e-13)
(0 4.583777752e-14 2.300854572e-13)
(0 1.179911525e-11 1.127049632e-12)
(0 1.147153032e-11 1.136184111e-12)
(0 1.114198341e-11 1.141666861e-12)
(0 1.081166975e-11 1.143730558e-12)
(0 1.048150547e-11 1.142619435e-12)
(0 1.015235248e-11 1.13857804e-12)
(0 9.825006315e-12 1.13184661e-12)
(0 9.500194304e-12 1.122659019e-12)
(0 9.178577081e-12 1.111241579e-12)
(0 8.860751031e-12 1.097812241e-12)
(0 8.547250995e-12 1.082580059e-12)
(0 8.238553052e-12 1.065744856e-12)
(0 7.935077314e-12 1.047497038e-12)
(0 7.637190735e-12 1.028017484e-12)
(0 7.345209968e-12 1.007477514e-12)
(0 7.059404182e-12 9.860389353e-13)
(0 6.779997764e-12 9.638541691e-13)
(0 6.507172988e-12 9.410663908e-13)
(0 6.241072698e-12 9.178096633e-13)
(0 5.98180298e-12 8.942090905e-13)
(0 5.729435722e-12 8.703810361e-13)
(0 5.484011028e-12 8.464333984e-13)
(0 5.245539597e-12 8.224658931e-13)
(0 5.014005093e-12 7.98570314e-13)
(0 4.789366462e-12 7.74830789e-13)
(0 4.571560071e-12 7.513240687e-13)
(0 4.360501705e-12 7.281198602e-13)
(0 4.15608848e-12 7.052811898e-13)
(0 3.95820076e-12 6.828647671e-13)
(0 3.766704e-12 6.6092134e-13)
(0 3.581450456e-12 6.394960416e-13)
(0 3.40228069e-12 6.186287375e-13)
(0 3.229024945e-12 5.983543747e-13)
(0 3.061504468e-12 5.787033344e-13)
(0 2.899532791e-12 5.597017884e-13)
(0 2.742916925e-12 5.413720565e-13)
(0 2.59145843e-12 5.237329547e-13)
(0 2.444954329e-12 5.068001222e-13)
(0 2.303197925e-12 4.905863206e-13)
(0 2.165979552e-12 4.751017125e-13)
(0 2.033087286e-12 4.603541339e-13)
(0 1.904307576e-12 4.463493696e-13)
(0 1.779425783e-12 4.330914284e-13)
(0 1.658226616e-12 4.205828034e-13)
(0 1.540494481e-12 4.088247038e-13)
(0 1.426013802e-12 3.978172536e-13)
(0 1.314569294e-12 3.875596675e-13)
(0 1.205946207e-12 3.780504193e-13)
(0 1.099930511e-12 3.692874122e-13)
(0 9.963090117e-13 3.612681489e-13)
(0 8.948694104e-13 3.539898915e-13)
(0 7.954003187e-13 3.474497964e-13)
(0 6.976912574e-13 3.416450195e-13)
(0 6.015326405e-13 3.365727942e-13)
(0 5.067157407e-13 3.322304937e-13)
(0 4.130326192e-13 3.286156896e-13)
(0 3.202760078e-13 3.257262217e-13)
(0 2.282391605e-13 3.235603059e-13)
(0 1.36715763e-13 3.221167346e-13)
(0 4.552833182e-14 3.213951952e-13)
(0 1.181170733e-11 1.455756683e-12)
(0 1.147974828e-11 1.467096646e-12)
(0 1.114615593e-11 1.473724647e-12)
(0 1.08120742e-11 1.475954368e-12)
(0 1.047842328e-11 1.474106623e-12)
(0 1.014606178e-11 1.468499662e-12)
(0 9.815778785e-12 1.459444961e-12)
(0 9.488293454e-12 1.447245091e-12)
(0 9.164257172e-12 1.432192375e-12)
(0 8.844256344e-12 1.414567982e-12)
(0 8.528815353e-12 1.394641326e-12)
(0 8.218399544e-12 1.372669699e-12)
(0 7.913418144e-12 1.348898097e-12)
(0 7.614227166e-12 1.323559133e-12)
(0 7.321132342e-12 1.296873026e-12)
(0 7.034392013e-12 1.269047679e-12)
(0 6.754219884e-12 1.240278838e-12)
(0 6.4807877e-12 1.21075029e-12)
(0 6.214227957e-12 1.180634063e-12)
(0 5.954636632e-12 1.150090651e-12)
(0 5.702075794e-12 1.119269293e-12)
(0 5.45657604e-12 1.088308309e-12)
(0 5.218138844e-12 1.05733543e-12)
(0 4.986738921e-12 1.026468139e-12)
(0 4.76232658e-12 9.958140102e-13)
(0 4.544829939e-12 9.65471127e-13)
(0 4.33415696e-12 9.355285387e-13)
(0 4.13019737e-12 9.060667375e-13)
(0 3.932824538e-12 8.771581049e-13)
(0 3.741897298e-12 8.488673321e-13)
(0 3.557261653e-12 8.212518433e-13)
(0 3.378752313e-12 7.943622495e-13)
(0 3.206194093e-12 7.682428311e-13)
(0 3.039403241e-12 7.429320264e-13)
(0 2.878188702e-12 7.184629028e-13)
(0 2.722353303e-12 6.948636031e-13)
(0 2.571694786e-12 6.721577705e-13)
(0 2.426006711e-12 6.50364958e-13)
(0 2.285079251e-12 6.295010275e-13)
(0 2.148699938e-12 6.095785332e-13)
(0 2.016654369e-12 5.906070909e-13)
(0 1.888726827e-12 5.725937297e-13)
(0 1.764700803e-12 5.555432265e-13)
(0 1.644359402e-12 5.394584176e-13)
(0 1.527485676e-12 5.243404874e-13)
(0 1.413862906e-12 5.101892337e-13)
(0 1.303274875e-12 4.970033137e-13)
(0 1.195506102e-12 4.847804769e-13)
(0 1.090342021e-12 4.735177862e-13)
(0 9.87569083e-13 4.632118249e-13)
(0 8.86974797e-13 4.538588834e-13)
(0 7.883477138e-13 4.454551201e-13)
(0 6.914773988e-13 4.379966964e-13)
(0 5.961543973e-13 4.314798886e-13)
(0 5.021701921e-13 4.259011868e-13)
(0 4.093171368e-13 4.212573871e-13)
(0 3.173883546e-13 4.17545686e-13)
(0 2.261776169e-13 4.147637868e-13)
(0 1.354792467e-13 4.129100162e-13)
(0 4.511623814e-14 4.11983392e-13)
(0 1.182691846e-11 1.789517267e-12)
(0 1.148949829e-11 1.802736892e-12)
(0 1.115084114e-11 1.810184172e-12)
(0 1.081205172e-11 1.81225627e-12)
(0 1.047405077e-11 1.809353167e-12)
(0 1.013769081e-11 1.801869111e-12)
(0 9.803751743e-12 1.79018859e-12)
(0 9.472941718e-12 1.77468415e-12)
(0 9.145899972e-12 1.75571501e-12)
(0 8.823199982e-12 1.733626151e-12)
(0 8.505352712e-12 1.708747714e-12)
(0 8.192809824e-12 1.681394666e-12)
(0 7.885966748e-12 1.651866671e-12)
(0 7.585165663e-12 1.620448058e-12)
(0 7.290698514e-12 1.587407861e-12)
(0 7.002809994e-12 1.552999938e-12)
(0 6.721700376e-12 1.517463185e-12)
(0 6.447528213e-12 1.481021803e-12)
(0 6.180413058e-12 1.443885568e-12)
(0 5.92043821e-12 1.406250104e-12)
(0 5.66765338e-12 1.368297203e-12)
(0 5.422077166e-12 1.330195214e-12)
(0 5.183699427e-12 1.292099479e-12)
(0 4.952483673e-12 1.254152775e-12)
(0 4.72836945e-12 1.21648578e-12)
(0 4.511274599e-12 1.179217569e-12)
(0 4.301097315e-12 1.142456157e-12)
(0 4.097718047e-12 1.106299041e-12)
(0 3.901001354e-12 1.070833747e-12)
(0 3.710797739e-12 1.036138362e-12)
(0 3.526945374e-12 1.00228209e-12)
(0 3.349271678e-12 9.69325835e-13)
(0 3.177594722e-12 9.373227995e-13)
(0 3.01172454e-12 9.063190756e-13)
(0 2.851464368e-12 8.76354203e-13)
(0 2.696611793e-12 8.474617032e-13)
(0 2.546959785e-12 8.196696026e-13)
(0 2.402297587e-12 7.930009502e-13)
(0 2.2624115e-12 7.674743264e-13)
(0 2.127085616e-12 7.431043257e-13)
(0 1.996102482e-12 7.199020072e-13)
(0 1.869243711e-12 6.978753116e-13)
(0 1.746290471e-12 6.770294547e-13)
(0 1.627023876e-12 6.573673029e-13)
(0 1.511225297e-12 6.388897322e-13)
(0 1.398676628e-12 6.215959668e-13)
(0 1.289160537e-12 6.05483893e-13)
(0 1.182460679e-12 5.905503451e-13)
(0 1.078361859e-12 5.76791366e-13)
(0 9.766501089e-13 5.642024437e-13)
(0 8.771127056e-13 5.52778726e-13)
(0 7.795381317e-13 5.425152127e-13)
(0 6.837160259e-13 5.33406928e-13)
(0 5.894371309e-13 5.254490712e-13)
(0 4.964932392e-13 5.1863715e-13)
(0 4.046771183e-13 5.129670989e-13)
(0 3.137824076e-13 5.084353862e-13)
(0 2.236034907e-13 5.050391139e-13)
(0 1.339353681e-13 5.027761029e-13)
(0 4.460170761e-14 5.016449335e-13)
(0 1.184438979e-11 2.129469377e-12)
(0 1.150041519e-11 2.144161571e-12)
(0 1.115567531e-11 2.152021606e-12)
(0 1.081124319e-11 2.153533876e-12)
(0 1.046803612e-11 2.149180769e-12)
(0 1.01268972e-11 2.139435078e-12)
(0 9.788593823e-12 2.124756188e-12)
(0 9.453819874e-12 2.105587959e-12)
(0 9.123199174e-12 2.082357416e-12)
(0 8.797289047e-12 2.055473933e-12)
(0 8.476583868e-12 2.025328719e-12)
(0 8.161518501e-12 1.992294578e-12)
(0 7.852471536e-12 1.956725862e-12)
(0 7.549768356e-12 1.918958547e-12)
(0 7.253684222e-12 1.879310354e-12)
(0 6.964447337e-12 1.838080926e-12)
(0 6.682241749e-12 1.795552094e-12)
(0 6.407210084e-12 1.751988196e-12)
(0 6.139456259e-12 1.70763641e-12)
(0 5.879048267e-12 1.662727102e-12)
(0 5.626020905e-12 1.617474211e-12)
(0 5.380378317e-12 1.572075727e-12)
(0 5.142096405e-12 1.526714213e-12)
(0 4.911125221e-12 1.481557338e-12)
(0 4.687391374e-12 1.436758424e-12)
(0 4.470800316e-12 1.39245701e-12)
(0 4.261238431e-12 1.348779477e-12)
(0 4.05857496e-12 1.305839706e-12)
(0 3.862663859e-12 1.263739756e-12)
(0 3.673345641e-12 1.222570534e-12)
(0 3.490449126e-12 1.182412481e-12)
(0 3.313793022e-12 1.143336262e-12)
(0 3.143187334e-12 1.105403461e-12)
(0 2.978434644e-12 1.068667262e-12)
(0 2.819331329e-12 1.033173112e-12)
(0 2.665668702e-12 9.989593597e-13)
(0 2.517234033e-12 9.660578987e-13)
(0 2.373811435e-12 9.344947922e-13)
(0 2.235182626e-12 9.042908826e-13)
(0 2.101127619e-12 8.754623611e-13)
(0 1.971425354e-12 8.480212929e-13)
(0 1.845854274e-12 8.219761055e-13)
(0 1.724192794e-12 7.973320532e-13)
(0 1.60621968e-12 7.740916671e-13)
(0 1.49171434e-12 7.522551886e-13)
(0 1.380457067e-12 7.318209776e-13)
(0 1.272229253e-12 7.12785883e-13)
(0 1.166813575e-12 6.951455743e-13)
(0 1.063994119e-12 6.788948367e-13)
(0 9.63556443e-13 6.640278383e-13)
(0 8.65287566e-13 6.505383775e-13)
(0 7.689759159e-13 6.384201128e-13)
(0 6.744112573e-13 6.276667734e-13)
(0 5.813846193e-13 6.182723476e-13)
(0 4.896882198e-13 6.102312463e-13)
(0 3.99115373e-13 6.035384415e-13)
(0 3.094603697e-13 5.981895836e-13)
(0 2.205183336e-13 5.941811014e-13)
(0 1.320850663e-13 5.915102813e-13)
(0 4.398506877e-14 5.901753147e-13)
(0 1.186367704e-11 2.476757087e-12)
(0 1.151205051e-11 2.492427484e-12)
(0 1.116021344e-11 2.500208822e-12)
(0 1.080921089e-11 2.500677196e-12)
(0 1.045995197e-11 2.494400993e-12)
(0 1.011326623e-11 2.481934223e-12)
(0 9.769904625e-12 2.463813073e-12)
(0 9.430542946e-12 2.440554007e-12)
(0 9.095785946e-12 2.412652687e-12)
(0 8.766171285e-12 2.38058336e-12)
(0 8.442173357e-12 2.344798549e-12)
(0 8.124206967e-12 2.305728962e-12)
(0 7.812630717e-12 2.263783591e-12)
(0 7.507750155e-12 2.219349917e-12)
(0 7.209820893e-12 2.172794135e-12)
(0 6.919051734e-12 2.124461406e-12)
(0 6.635607645e-12 2.074676181e-12)
(0 6.359612529e-12 2.023742586e-12)
(0 6.091151964e-12 1.971944825e-12)
(0 5.830276011e-12 1.919547609e-12)
(0 5.577002005e-12 1.866796613e-12)
(0 5.331317167e-12 1.813919019e-12)
(0 5.093181038e-12 1.761124103e-12)
(0 4.862527885e-12 1.708603855e-12)
(0 4.639269122e-12 1.6565336e-12)
(0 4.423295652e-12 1.605072674e-12)
(0 4.214480012e-12 1.554365152e-12)
(0 4.012678326e-12 1.504540638e-12)
(0 3.817732182e-12 1.455715069e-12)
(0 3.629470464e-12 1.407991525e-12)
(0 3.447711102e-12 1.361461011e-12)
(0 3.272262657e-12 1.316203265e-12)
(0 3.102925722e-12 1.272287548e-12)
(0 2.939494191e-12 1.229773445e-12)
(0 2.781756465e-12 1.188711639e-12)
(0 2.62949658e-12 1.149144681e-12)
(0 2.482495217e-12 1.111107736e-12)
(0 2.34053057e-12 1.07462931e-12)
(0 2.203379069e-12 1.039731951e-12)
(0 2.070816026e-12 1.006432904e-12)
(0 1.942616227e-12 9.747447141e-13)
(0 1.818554472e-12 9.446758016e-13)
(0 1.698406033e-12 9.162310034e-13)
(0 1.581947012e-12 8.894121005e-13)
(0 1.468954607e-12 8.642183216e-13)
(0 1.359207322e-12 8.406468113e-13)
(0 1.252485134e-12 8.186930519e-13)
(0 1.148569633e-12 7.983512372e-13)
(0 1.047244123e-12 7.79614605e-13)
(0 9.482936497e-13 7.624757409e-13)
(0 8.515049801e-13 7.469268618e-13)
(0 7.566665276e-13 7.329600829e-13)
(0 6.635682607e-13 7.205676645e-13)
(0 5.720016039e-13 7.097422328e-13)
(0 4.817593331e-13 7.004769678e-13)
(0 3.926354556e-13 6.927657604e-13)
(0 3.044250675e-13 6.866033417e-13)
(0 2.169241884e-13 6.819853876e-13)
(0 1.299295814e-13 6.789086025e-13)
(0 4.326674107e-14 6.773707738e-13)
(0 1.188424356e-11 2.832528886e-12)
(0 1.152386692e-11 2.8485892e-12)
(0 1.116392502e-11 2.855710475e-12)
(0 1.080543536e-11 2.854565326e-12)
(0 1.044929315e-11 2.845811798e-12)
(0 1.009630928e-11 2.830087707e-12)
(0 9.747213608e-12 2.808007786e-12)
(0 9.402659488e-12 2.780162203e-12)
(0 9.063228526e-12 2.747115873e-12)
(0 8.729434909e-12 2.709408208e-12)
(0 8.40172947e-12 2.667553108e-12)
(0 8.080503544e-12 2.622039108e-12)
(0 7.766092491e-12 2.573329661e-12)
(0 7.4587789e-12 2.521863498e-12)
(0 7.158795711e-12 2.468054982e-12)
(0 6.866329383e-12 2.41229446e-12)
(0 6.581522929e-12 2.354948648e-12)
(0 6.304478728e-12 2.296361084e-12)
(0 6.035261282e-12 2.236852596e-12)
(0 5.773900055e-12 2.176721784e-12)
(0 5.520392314e-12 2.116245541e-12)
(0 5.274705807e-12 2.055679651e-12)
(0 5.03678124e-12 1.995259456e-12)
(0 4.806534718e-12 1.935200569e-12)
(0 4.583860194e-12 1.875699607e-12)
(0 4.368631868e-12 1.816934978e-12)
(0 4.160706394e-12 1.759067727e-12)
(0 3.959924877e-12 1.702242439e-12)
(0 3.766114746e-12 1.646588162e-12)
(0 3.579091583e-12 1.592219339e-12)
(0 3.398660866e-12 1.539236713e-12)
(0 3.224619559e-12 1.487728254e-12)
(0 3.056757514e-12 1.437770081e-12)
(0 2.894858735e-12 1.389427386e-12)
(0 2.738702566e-12 1.342755337e-12)
(0 2.588064799e-12 1.297799961e-12)
(0 2.442718662e-12 1.254598994e-12)
(0 2.30243565e-12 1.213182704e-12)
(0 2.16698622e-12 1.173574685e-12)
(0 2.036140382e-12 1.135792599e-12)
(0 1.909668252e-12 1.099848875e-12)
(0 1.787340564e-12 1.065751373e-12)
(0 1.668929093e-12 1.033503998e-12)
(0 1.554206998e-12 1.003107312e-12)
(0 1.44294905e-12 9.745590878e-13)
(0 1.334931797e-12 9.478548384e-13)
(0 1.229933679e-12 9.229882874e-13)
(0 1.127735128e-12 8.999517886e-13)
(0 1.028118623e-12 8.787367012e-13)
(0 9.308686999e-13 8.593337338e-13)
(0 8.357719079e-13 8.417332648e-13)
(0 7.426167186e-13 8.259256433e-13)
(0 6.511934072e-13 8.119014662e-13)
(0 5.612939225e-13 7.99651824e-13)
(0 4.727117474e-13 7.891685113e-13)
(0 3.852417469e-13 7.804442019e-13)
(0 2.986799968e-13 7.734725909e-13)
(0 2.128235944e-13 7.682485106e-13)
(0 1.274704525e-13 7.647680197e-13)
(0 4.244724008e-14 7.63028464e-13)
(0 1.19054526e-11 3.197934064e-12)
(0 1.15352321e-11 3.213695002e-12)
(0 1.116618957e-11 3.219479695e-12)
(0 1.079931221e-11 3.216062068e-12)
(0 1.043547435e-11 3.204193227e-12)
(0 1.007546222e-11 3.184597042e-12)
(0 9.71997912e-12 3.15796814e-12)
(0 9.369651033e-12 3.124971107e-12)
(0 9.025031951e-12 3.086240382e-12)
(0 8.68660852e-12 3.04238052e-12)
(0 8.354804257e-12 2.993966604e-12)
(0 8.029983519e-12 2.941544716e-12)
(0 7.712455107e-12 2.885632444e-12)
(0 7.402475477e-12 2.82671942e-12)
(0 7.100251855e-12 2.765267805e-12)
(0 6.8059454e-12 2.701712737e-12)
(0 6.519674269e-12 2.636462791e-12)
(0 6.241516478e-12 2.569900471e-12)
(0 5.971512664e-12 2.50238273e-12)
(0 5.709668956e-12 2.434241501e-12)
(0 5.455959872e-12 2.365784276e-12)
(0 5.210331083e-12 2.297294767e-12)
(0 4.972701956e-12 2.229033666e-12)
(0 4.742968035e-12 2.161239453e-12)
(0 4.521003531e-12 2.094129259e-12)
(0 4.306663773e-12 2.027899753e-12)
(0 4.099787472e-12 1.962728099e-12)
(0 3.900198761e-12 1.898772972e-12)
(0 3.707709082e-12 1.836175605e-12)
(0 3.522119014e-12 1.775060844e-12)
(0 3.343220017e-12 1.715538212e-12)
(0 3.170796025e-12 1.657702963e-12)
(0 3.004624854e-12 1.601637153e-12)
(0 2.844479447e-12 1.547410691e-12)
(0 2.69012904e-12 1.495082364e-12)
(0 2.541340236e-12 1.444700833e-12)
(0 2.39787796e-12 1.396305583e-12)
(0 2.259506262e-12 1.349927853e-12)
(0 2.125988964e-12 1.305591524e-12)
(0 1.997090216e-12 1.263313961e-12)
(0 1.872575001e-12 1.223106814e-12)
(0 1.752209595e-12 1.184976758e-12)
(0 1.635761973e-12 1.1489262e-12)
(0 1.523002101e-12 1.114953936e-12)
(0 1.413702134e-12 1.083055777e-12)
(0 1.307636522e-12 1.053225129e-12)
(0 1.204582084e-12 1.025453508e-12)
(0 1.104318047e-12 9.997310206e-13)
(0 1.006626068e-12 9.7604678e-13)
(0 9.112902132e-13 9.543892932e-13)
(0 8.180968897e-13 9.347468156e-13)
(0 7.268347291e-13 9.171076811e-13)
(0 6.372944413e-13 9.014606023e-13)
(0 5.49268649e-13 8.877949379e-13)
(0 4.62551711e-13 8.761009227e-13)
(0 3.769395352e-13 8.663698606e-13)
(0 2.922293762e-13 8.58594283e-13)
(0 2.082196171e-13 8.527680767e-13)
(0 1.247095348e-13 8.488865807e-13)
(0 4.152718533e-14 8.469466514e-13)
(0 1.192655907e-11 3.574116827e-12)
(0 1.154541255e-11 3.588780875e-12)
(0 1.116629209e-11 3.592452167e-12)
(0 1.07901489e-11 3.586010259e-12)
(0 1.041782812e-11 3.570302094e-12)
(0 1.005008419e-11 3.546139156e-12)
(0 9.687587673e-12 3.514296651e-12)
(0 9.33093173e-12 3.475513695e-12)
(0 8.980637938e-12 3.430494012e-12)
(0 8.637161131e-12 3.379906874e-12)
(0 8.300893666e-12 3.324388043e-12)
(0 7.972169384e-12 3.264540628e-12)
(0 7.651267196e-12 3.200935863e-12)
(0 7.33841426e-12 3.134113813e-12)
(0 7.033789027e-12 3.06458398e-12)
(0 6.73752437e-12 2.992825835e-12)
(0 6.449710664e-12 2.91928932e-12)
(0 6.170398666e-12 2.844395379e-12)
(0 5.899602311e-12 2.768536517e-12)
(0 5.637301601e-12 2.692077386e-12)
(0 5.383445581e-12 2.615355408e-12)
(0 5.137955197e-12 2.538681504e-12)
(0 4.900725926e-12 2.462340936e-12)
(0 4.671630312e-12 2.38659422e-12)
(0 4.450520493e-12 2.311678093e-12)
(0 4.237230707e-12 2.237806527e-12)
(0 4.031579613e-12 2.165171797e-12)
(0 3.833372383e-12 2.093945623e-12)
(0 3.642402618e-12 2.024280348e-12)
(0 3.45845419e-12 1.956310152e-12)
(0 3.281302985e-12 1.890152261e-12)
(0 3.110718501e-12 1.825908162e-12)
(0 2.946465242e-12 1.763664811e-12)
(0 2.788303946e-12 1.703495816e-12)
(0 2.635992708e-12 1.645462589e-12)
(0 2.489288018e-12 1.589615453e-12)
(0 2.347945682e-12 1.535994707e-12)
(0 2.211721591e-12 1.484631664e-12)
(0 2.080372328e-12 1.435549646e-12)
(0 1.953655671e-12 1.388764929e-12)
(0 1.83133105e-12 1.34428764e-12)
(0 1.71315995e-12 1.302122584e-12)
(0 1.59890627e-12 1.262270012e-12)
(0 1.488336575e-12 1.224726351e-12)
(0 1.381220243e-12 1.189484881e-12)
(0 1.277329527e-12 1.156536363e-12)
(0 1.176439571e-12 1.125869622e-12)
(0 1.078328401e-12 1.097472069e-12)
(0 9.827768957e-13 1.07133017e-12)
(0 8.895687354e-13 1.047429874e-12)
(0 7.984902959e-13 1.025756998e-12)
(0 7.093305053e-13 1.006297581e-12)
(0 6.21880664e-13 9.890382014e-13)
(0 5.359342429e-13 9.739662686e-13)
(0 4.512866702e-13 9.61070265e-13)
(0 3.677351073e-13 9.503399597e-13)
(0 2.850782129e-13 9.417665829e-13)
(0 2.031158921e-13 9.35342966e-13)
(0 1.216490273e-13 9.310636468e-13)
(0 4.050731078e-14 9.289249391e-13)
(0 1.194670105e-11 3.9622079e-12)
(0 1.155356744e-11 3.974862398e-12)
(0 1.116341895e-11 3.975538551e-12)
(0 1.077716214e-11 3.965224861e-12)
(0 1.039560325e-11 3.944865777e-12)
(0 1.001945678e-11 3.915360864e-12)
(0 9.649353659e-12 3.877565615e-12)
(0 9.285848393e-12 3.832292957e-12)
(0 8.92942513e-12 3.780315011e-12)
(0 8.580502552e-12 3.722364835e-12)
(0 8.239438011e-12 3.659137985e-12)
(0 7.906531339e-12 3.591293809e-12)
(0 7.582028291e-12 3.519456494e-12)
(0 7.266123593e-12 3.444215942e-12)
(0 6.958963878e-12 3.366128454e-12)
(0 6.66065074e-12 3.285717312e-12)
(0 6.371243812e-12 3.203473298e-12)
(0 6.090763675e-12 3.119855241e-12)
(0 5.819194672e-12 3.035290603e-12)
(0 5.556487846e-12 2.950176099e-12)
(0 5.30256399e-12 2.864878365e-12)
(0 5.057316612e-12 2.779734743e-12)
(0 4.820614672e-12 2.695054189e-12)
(0 4.592305192e-12 2.611118287e-12)
(0 4.372215838e-12 2.528182334e-12)
(0 4.160157477e-12 2.446476491e-12)
(0 3.955926568e-12 2.366206985e-12)
(0 3.759307312e-12 2.287557395e-12)
(0 3.570073611e-12 2.210689984e-12)
(0 3.387990927e-12 2.135747069e-12)
(0 3.212818027e-12 2.062852386e-12)
(0 3.044308575e-12 1.992112466e-12)
(0 2.882212507e-12 1.923617988e-12)
(0 2.726277225e-12 1.857445102e-12)
(0 2.576248677e-12 1.793656713e-12)
(0 2.431872354e-12 1.732303714e-12)
(0 2.292894172e-12 1.673426173e-12)
(0 2.1590612e-12 1.617054486e-12)
(0 2.030122228e-12 1.563210478e-12)
(0 1.905828211e-12 1.511908462e-12)
(0 1.785932656e-12 1.463156216e-12)
(0 1.670191966e-12 1.416955895e-12)
(0 1.55836574e-12 1.373304874e-12)
(0 1.45021697e-12 1.332196532e-12)
(0 1.345512145e-12 1.29362099e-12)
(0 1.244021263e-12 1.25756579e-12)
(0 1.14551779e-12 1.224016537e-12)
(0 1.049778595e-12 1.192957467e-12)
(0 9.565838735e-13 1.164371964e-12)
(0 8.657170416e-13 1.138243029e-12)
(0 7.769645958e-13 1.114553689e-12)
(0 6.901159321e-13 1.093287376e-12)
(0 6.049631293e-13 1.074428264e-12)
(0 5.213007126e-13 1.057961569e-12)
(0 4.389254022e-13 1.043873816e-12)
(0 3.576358531e-13 1.032153063e-12)
(0 2.772323825e-13 1.022789095e-12)
(0 1.975166811e-13 1.015773571e-12)
(0 1.182915079e-13 1.01110014e-12)
(0 3.938847757e-14 1.008764518e-12)
(0 1.196489154e-11 4.363313328e-12)
(0 1.15587432e-11 4.372924409e-12)
(0 1.115665455e-11 4.36961526e-12)
(0 1.075947612e-11 4.35448492e-12)
(0 1.036796412e-11 4.328575289e-12)
(0 9.982784029e-12 4.292872929e-12)
(0 9.604519766e-12 4.248312008e-12)
(0 9.233681127e-12 4.195777496e-12)
(0 8.870709816e-12 4.136108197e-12)
(0 8.515984106e-12 4.070099431e-12)
(0 8.16982264e-12 3.998505246e-12)
(0 7.832487893e-12 3.922040149e-12)
(0 7.504189329e-12 3.841380414e-12)
(0 7.185086219e-12 3.757165064e-12)
(0 6.875290398e-12 3.669996615e-12)
(0 6.574869214e-12 3.580441627e-12)
(0 6.283848592e-12 3.489031205e-12)
(0 6.002215972e-12 3.396261518e-12)
(0 5.729923169e-12 3.302594375e-12)
(0 5.466889362e-12 3.208457857e-12)
(0 5.213004226e-12 3.114247028e-12)
(0 4.968131022e-12 3.020324759e-12)
(0 4.73210947e-12 2.927022705e-12)
(0 4.504758457e-12 2.83464242e-12)
(0 4.285878697e-12 2.74345658e-12)
(0 4.075255358e-12 2.653710277e-12)
(0 3.872660517e-12 2.565622396e-12)
(0 3.677855383e-12 2.479387056e-12)
(0 3.490592293e-12 2.395175105e-12)
(0 3.310616592e-12 2.31313565e-12)
(0 3.137668382e-12 2.233397596e-12)
(0 2.971484103e-12 2.156071173e-12)
(0 2.811797877e-12 2.081249452e-12)
(0 2.658342671e-12 2.009009825e-12)
(0 2.51085132e-12 1.939415428e-12)
(0 2.369057478e-12 1.872516515e-12)
(0 2.232696454e-12 1.808351775e-12)
(0 2.101505896e-12 1.746949594e-12)
(0 1.975226305e-12 1.688329277e-12)
(0 1.853601409e-12 1.632502195e-12)
(0 1.736378482e-12 1.579472861e-12)
(0 1.623308607e-12 1.529239925e-12)
(0 1.514146907e-12 1.481797083e-12)
(0 1.408652691e-12 1.437133928e-12)
(0 1.306589501e-12 1.395236742e-12)
(0 1.207725075e-12 1.356089232e-12)
(0 1.111831248e-12 1.319673216e-12)
(0 1.018683827e-12 1.285969242e-12)
(0 9.28062458e-13 1.254957145e-12)
(0 8.397504601e-13 1.226616551e-12)
(0 7.535346427e-13 1.200927318e-12)
(0 6.692050801e-13 1.17786993e-12)
(0 5.86554857e-13 1.157425856e-12)
(0 5.05379795e-13 1.139577862e-12)
(0 4.254781643e-13 1.124310295e-12)
(0 3.466503861e-13 1.111609319e-12)
(0 2.686987205e-13 1.101463119e-12)
(0 1.914269378e-13 1.093862063e-12)
(0 1.146399743e-13 1.088798819e-12)
(0 3.817168805e-14 1.086268443e-12)
(0 1.19800113e-11 4.778500001e-12)
(0 1.155986937e-11 4.783908233e-12)
(0 1.114497946e-11 4.775513517e-12)
(0 1.073612216e-11 4.754524344e-12)
(0 1.033399126e-11 4.722077584e-12)
(0 9.939193497e-12 4.679243652e-12)
(0 9.552258226e-12 4.627032118e-12)
(0 9.173644583e-12 4.566396931e-12)
(0 8.803747066e-12 4.498240924e-12)
(0 8.442899601e-12 4.423419494e-12)
(0 8.09137873e-12 4.342743459e-12)
(0 7.749406507e-12 4.256981167e-12)
(0 7.417153206e-12 4.16685998e-12)
(0 7.094739795e-12 4.073067302e-12)
(0 6.78224044e-12 3.976251274e-12)
(0 6.47968533e-12 3.877021243e-12)
(0 6.187063704e-12 3.775948159e-12)
(0 5.904326844e-12 3.673565001e-12)
(0 5.63139101e-12 3.570367303e-12)
(0 5.368140499e-12 3.46681378e-12)
(0 5.114430893e-12 3.363327056e-12)
(0 4.870092289e-12 3.260294541e-12)
(0 4.634932333e-12 3.158069484e-12)
(0 4.408739066e-12 3.056972193e-12)
(0 4.191283694e-12 2.95729141e-12)
(0 3.982323294e-12 2.85928577e-12)
(0 3.781603347e-12 2.763185367e-12)
(0 3.58886002e-12 2.669193373e-12)
(0 3.403822206e-12 2.577487711e-12)
(0 3.226213418e-12 2.488222763e-12)
(0 3.055753549e-12 2.401531078e-12)
(0 2.892160431e-12 2.317525076e-12)
(0 2.735151159e-12 2.236298742e-12)
(0 2.584443201e-12 2.157929262e-12)
(0 2.439755368e-12 2.082478618e-12)
(0 2.300808701e-12 2.009995097e-12)
(0 2.16732725e-12 1.940514745e-12)
(0 2.039038702e-12 1.874062747e-12)
(0 1.915674829e-12 1.810654753e-12)
(0 1.796971796e-12 1.750298126e-12)