/*--------------------------------*- C++ -*----------------------------------*\
  =========                 |
  \\      /  F ield         | OpenFOAM: The Open Source CFD Toolbox
   \\    /   O peration     | Website:  https://openfoam.org
    \\  /    A nd           | Version:  6
     \\/     M anipulation  |
\*---------------------------------------------------------------------------*/
FoamFile
{
    version     2.0;
    format      ascii;
    class       volScalarField;
    location    "0.0006";
    object      TRHS;
}
// * * * * * * * * * * * * * * * * * * * * * * * * * * * * * * * * * * * * * //

dimensions      [1 -1 -3 0 0 0 0];

internalField   nonuniform List<scalar> 
600
(
2.852261293e-11
-1.303204039e-10
-1.067584879e-10
-1.133815029e-10
-1.351556885e-10
-2.06622783e-10
-3.678109109e-10
-7.470353876e-10
-1.620941827e-09
-3.58305816e-09
-7.484832234e-09
-1.361308137e-08
-1.788427121e-08
-1.41670467e-08
5.175616892e-08
-0.0001033150845
40.9977723
0
0
0
0
0
0
0
0
0
0
0
391.0692514
-0.002065449672
-6.740010278e-11
-1.30154228e-10
-5.854041121e-11
-1.947224105e-11
1.352991271e-11
2.091053745e-11
-3.335192127e-11
-3.039390837e-10
-1.258460205e-09
-4.215214571e-09
-1.227703967e-08
-3.150937199e-08
-6.363897588e-08
-4.323984663e-08
1.61014213e-08
-0.0006578572104
105.4936056
0
0
0
0
0
0
0
0
0
0
0
-0.005433004659
-2.643300587e-05
-1.446602734e-10
-1.231753628e-10
-9.263451215e-12
7.464581604e-11
1.66454583e-10
2.758123086e-10
4.102031805e-10
5.298397896e-10
4.104602264e-10
-7.192967645e-10
-4.998141932e-09
-1.778144227e-08
-7.376835831e-08
-1.675946651e-07
-2.882396431e-07
155.5736887
0
0
0
0
0
0
0
0
0
0
0
0
0
-0.002462870183
-1.779672275e-10
-1.078302063e-10
3.306226764e-11
1.461980586e-10
2.781842294e-10
4.461732973e-10
6.715923549e-10
9.389427933e-10
1.107161753e-09
6.569474507e-10
-1.803795767e-09
-1.149926833e-08
-9.488060546e-08
-2.16713403e-07
-2.077989368e-07
-0.006276739491
0
0
0
0
0
0
0
0
0
0
0
0
0
0
-1.525119597e-10
-8.19603297e-11
6.099212516e-11
1.84273918e-10
3.29622958e-10
5.023894691e-10
6.77254468e-10
6.962678798e-10
1.79175986e-11
-2.83243594e-09
-1.113899861e-08
-2.951014625e-08
-3.602784477e-08
-7.420801724e-08
-0.0001683535234
66.77977147
0
0
0
0
0
0
0
0
0
0
0
0
0
0
-5.976624166e-11
-4.521779305e-11
7.352933273e-11
1.903195696e-10
3.410822092e-10
5.310175032e-10
7.359769905e-10
7.97420017e-10
1.651011453e-10
-2.668150255e-09
-1.105590033e-08
-2.984716108e-08
-3.756522779e-08
-7.809035913e-08
-0.0001645374686
65.26519055
0
0
0
0
0
0
0
0
0
0
0
0
0
0
9.303854008e-11
-5.758267489e-13
6.788184602e-11
1.599658297e-10
3.034266298e-10
5.154711475e-10
8.224806165e-10
1.211329695e-09
1.518653699e-09
1.141865622e-09
-1.555514402e-09
-1.233822536e-08
-9.987406834e-08
-2.28350716e-07
-2.124445225e-07
-0.006438666525
0
0
0
0
0
0
0
0
0
0
0
0
0
0
2.858918583e-10
4.541602345e-11
4.040997005e-11
8.303576898e-11
1.79951409e-10
3.389746937e-10
5.810101597e-10
8.788158771e-10
9.937686963e-10
3.173019852e-11
-4.549963362e-09
-1.924725415e-08
-8.146735524e-08
-1.907915726e-07
-3.301160966e-07
149.7272741
0
0
0
0
0
0
0
0
0
0
0
0
0
-0.002961357906
4.797349205e-10
8.095205014e-11
-9.133503145e-12
-3.666519698e-11
-2.607762438e-11
4.974400025e-12
3.895972256e-11
-3.663006172e-11
-6.683791733e-10
-3.226804999e-09
-1.114705012e-08
-3.1368008e-08
-6.798452837e-08
-7.074019074e-08
-4.13782208e-08
-0.0005675417832
75.50276747
0
0
0
0
0
0
0
0
0
0
0
-0.005872336876
-1.698030901e-05
6.129348147e-10
8.505041702e-11
-7.903617966e-11
-1.800695001e-10
-2.714564835e-10
-3.873787423e-10
-5.486272912e-10
-8.21191517e-10
-1.433779266e-09
-3.015748042e-09
-6.825325294e-09
-1.422531878e-08
-2.295639779e-08
-2.98087739e-08
2.265787333e-08
-1.55733974e-06
0.5892347337
0
0
0
0
0
0
0
0
0
0
0
381.0144694
-0.00199176543
5.73708655e-10
1.325796136e-11
-1.723448193e-10
-3.244569105e-10
-5.126027362e-10
-7.805089482e-10
-1.147432329e-09
-1.618276059e-09
-2.191437577e-09
-2.936463748e-09
-4.166650238e-09
-6.180487108e-09
-7.031779568e-09
1.508061237e-09
-4.947117068e-08
-9.69417079e-08
-5.359158483e-07
697.495254
95.21606311
0
0
0
0
0
0
0
-0.0008339508787
369.2903067
-4.76332309e-07
-6.155990491e-09
1.514185526e-10
-2.173364703e-10
-2.984116926e-10
-4.435061794e-10
-6.984653977e-10
-1.117099546e-09
-1.760912688e-09
-2.670829229e-09
-3.784823507e-09
-4.992193098e-09
-6.997513814e-09
-1.334575875e-08
-3.4475541e-08
-6.863068592e-08
-6.042219232e-08
1.515192345e-07
4.864379049e-07
-0.001757190788
-0.0004547442866
85.17665405
281.8246233
158.0677184
0
157.0954245
279.6009393
-0.002697986191
-2.99902475e-09
-0.0009305575307
-3.71736669e-09
-3.114556588e-07
-1.49684304e-09
-8.317459459e-10
-4.632682136e-10
-5.012307898e-10
-7.619439101e-10
-1.291321002e-09
-2.266353884e-09
-3.907484599e-09
-6.182903343e-09
-8.199136843e-09
-8.669899121e-09
-7.880117411e-09
-2.733850074e-08
-5.269549903e-08
1.947074405e-08
1.633421633e-07
5.811735546e-07
6.915433747e-07
-7.489292384e-09
-0.000290531784
-0.001966397994
-0.0006774385405
-0.04744438141
-0.0006583180445
-0.001917430424
-0.0001896341459
-1.664187732e-08
-9.083170102e-08
3.405027902e-08
-1.630042573e-09
-1.662475127e-09
-8.339543601e-10
-4.271684112e-10
-4.249331047e-10
-6.436157714e-10
-1.186393261e-09
-2.449221768e-09
-5.158354726e-09
-9.926161885e-09
-1.521966176e-08
-1.567120663e-08
5.165426079e-09
-1.044601313e-08
8.711109633e-08
1.902045405e-07
-2.346585796e-05
-0.0001091100114
-0.003842296925
-0.002970354061
115.2503912
498.2361608
110.6456952
0
104.0320347
481.034642
75.22462674
-0.006601396974
-0.01150572174
-0.0002025065564
-0.0009502427948
-3.007881595e-10
-2.28203835e-10
-2.106276331e-10
-2.66971658e-10
-4.177724595e-10
-8.229030506e-10
-2.076239931e-09
-5.688325035e-09
-1.440257627e-08
-2.830325742e-08
-4.221743801e-08
-2.89860371e-08
5.29762474e-09
1.265102274e-07
-1.747202677e-07
9.403951857
43.32202135
0
0
0
0
0
0
0
0
0
0
0
80.45939334
160.7790504
-1.315065147e-11
3.147902933e-11
-9.878494815e-11
-2.455062155e-10
-4.552410689e-10
-7.984957281e-10
-1.652990744e-09
-4.636621771e-09
-1.568196246e-08
-4.155145388e-08
-1.088896667e-07
-1.532176988e-07
-0.0001379721636
-0.0008204868614
230.6622461
0
0
0
0
0
0
0
0
0
0
0
0
0
0
0
1.059527461e-10
1.914891147e-10
-1.050288485e-10
-5.563754135e-10
-1.414103439e-09
-2.818954079e-09
-4.359901448e-09
-4.005289287e-09
-3.361796493e-09
-4.716469023e-08
-1.801045907e-07
-4.287375362e-07
54.75643434
94.92021822
0
0
0
0
0
0
0
0
0
0
0
0
0
0
0
0
1.960196237e-10
3.645600149e-10
-8.963944273e-11
-1.064417453e-09
-3.567215984e-09
-9.279916974e-09
-1.999060065e-08
-3.306979768e-08
-3.983838263e-08
-8.956099254e-09
-0.0001872070974
74.2742702
0
0
0
0
0
0
0
0
0
0
0
0
0
0
0
0
0
0
3.116896235e-10
6.853462096e-10
3.279156454e-10
-7.261882668e-10
-4.354429047e-09
-1.48650777e-08
-4.056097062e-08
-8.466836289e-08
-7.160076768e-08
1.685794359e-09
-0.0006807562189
172.9872056
0
0
0
0
0
0
0
0
0
0
0
0
0
0
0
0
0
0
4.616260287e-10
1.221525658e-09
1.450574243e-09
1.63524663e-09
4.460011978e-10
-5.695195445e-09
-2.545618282e-08
-1.180814707e-07
-2.167115728e-07
-3.173571195e-07
97.15187189
0
0
0
0
0
0
0
0
0
0
0
0
0
0
0
0
0
0
0
)
;

boundaryField
{
    lowerWall
    {
        type            calculated;
        value           nonuniform 0();
    }
    atmosphere
    {
        type            calculated;
        value           nonuniform List<scalar> 
20
(
2.852261293e-11
-6.740010278e-11
-1.446602734e-10
-1.779672275e-10
-1.525119597e-10
-5.976624166e-11
9.303854008e-11
2.858918583e-10
4.797349205e-10
6.129348147e-10
5.73708655e-10
1.514185526e-10
-1.49684304e-09
-1.662475127e-09
-3.007881595e-10
-1.315065147e-11
1.059527461e-10
1.960196237e-10
3.116896235e-10
4.616260287e-10
)
;
    }
    rightWall
    {
        type            empty;
    }
    leftWall
    {
        type            empty;
    }
    frontAndBack
    {
        type            calculated;
        value           nonuniform List<scalar> 
30
(
4.616260287e-10
1.221525658e-09
1.450574243e-09
1.63524663e-09
4.460011978e-10
-5.695195445e-09
-2.545618282e-08
-1.180814707e-07
-2.167115728e-07
-3.173571195e-07
97.15187189
0
0
0
0
0
0
0
0
0
0
0
0
0
0
0
0
0
0
0
)
;
    }
    procBoundary4to2
    {
        type            processor;
        value           nonuniform List<scalar> 
30
(
1.180584529e-10
-1.244440191e-10
-1.459300741e-10
-1.838083544e-10
-2.482645509e-10
-3.61412056e-10
-5.647000734e-10
-9.040395197e-10
-1.481377431e-09
-2.36872424e-09
-3.432452246e-09
-3.562167878e-09
7.861652158e-10
1.274281413e-08
-8.097059937e-09
-5.277440595e-08
-3.526788471e-07
17.05672269
9.759568854
0
0
0
0
0
0
0
-0.006121988256
18.3328613
-4.610280737e-05
-8.18533442e-11
)
;
    }
    procBoundary4to5
    {
        type            processor;
        value           nonuniform List<scalar> 
20
(
428.2798371
10.47795229
0
0
0
0
0
0
6.727174156
409.0996093
-0.002441608337
-0.01412385648
-0.00546205929
216.1777766
0
0
0
0
0
0
)
;
    }
}


// ************************************************************************* //
