/*--------------------------------*- C++ -*----------------------------------*\
  =========                 |
  \\      /  F ield         | OpenFOAM: The Open Source CFD Toolbox
   \\    /   O peration     | Website:  https://openfoam.org
    \\  /    A nd           | Version:  10
     \\/     M anipulation  |
\*---------------------------------------------------------------------------*/
FoamFile
{
    format      ascii;
    class       volScalarField;
    location    "0.0001";
    object      T;
}
// * * * * * * * * * * * * * * * * * * * * * * * * * * * * * * * * * * * * * //

dimensions      [0 0 0 1 0 0 0];

internalField   nonuniform List<scalar> 
3600
(
300.4222362
300.4491901
300.5071715
300.6017849
300.7405421
300.9332963
301.192756
301.535097
301.9807006
302.5550447
303.2897852
304.2240687
305.406131
306.8952418
308.7640772
311.1016108
314.0166458
317.6421338
322.140473
327.710031
334.5932112
343.0864685
353.5527686
366.4370672
382.2854182
401.768294
425.7086077
455.114847
491.219835
535.5262957
589.8621795
656.4525219
738.0219254
837.9540181
960.5461072
1111.264234
1296.618384
1523.763439
1798.880395
2123.560621
2489.196051
2874.775244
3268.791324
3270.285315
3290.562829
2729.485597
2304.659682
1922.926747
1640.294162
1376.132227
1155.495622
973.8821796
826.3408121
707.8166234
613.5277627
539.1822298
481.0555287
435.9859054
401.3302751
374.9055564
300.4251414
300.4524987
300.5113436
300.6073796
300.748268
300.9440754
301.2078016
301.5560133
302.0096064
302.5947299
303.3439059
304.2973927
305.5048418
307.0273184
308.9397624
311.3339903
314.32236
318.0422537
322.6615774
328.3855364
335.4650231
344.2070455
354.9877216
368.2684401
384.6158086
404.7259384
429.4534305
459.845185
497.1789914
543.0070949
599.2061365
668.0382763
752.2369602
855.1516311
981.0301915
1135.293203
1324.232397
1554.806888
1833.171324
2160.999785
2528.266727
2904.227403
3236.781842
3237.576035
3216.254619
2679.820722
2272.33462
1906.574648
1618.96069
1359.755818
1142.872072
964.2920857
819.143156
702.4562978
609.5556871
536.2502913
478.8995481
434.407152
400.1796939
374.0714747
300.4308656
300.4590213
300.5195747
300.6184236
300.7635246
300.965364
301.2375172
301.597321
302.0666864
302.6730844
303.4507444
304.4421124
305.6996267
307.2878823
309.2862667
311.7921762
314.9249392
318.8306159
323.687889
329.7153296
337.1804097
346.4107406
357.8081219
371.8660644
389.1914459
410.5308118
436.8014936
469.1271882
508.8769937
557.7063385
617.5982458
690.9055653
780.4046605
889.4042142
1022.043021
1183.570107
1379.870542
1617.549057
1902.79951
2238.045572
2614.247681
3002.07213
3229.868206
3229.688071
3088.342146
2582.276156
2204.475141
1883.210672
1580.811692
1328.243607
1118.32007
945.6303873
805.1320177
692.0093019
601.8021784
530.5183038
474.6789083
431.3130851
397.9227283
372.4341437
300.4392382
300.4685724
300.5316449
300.6346378
300.7859409
300.9966573
301.2812076
301.6580608
302.150619
302.7882956
303.6078259
304.6548661
305.9859398
307.670811
309.7953746
312.4651786
315.8097205
319.9877017
325.1934793
331.6650369
339.6939015
349.6375636
361.9350852
377.1266713
395.8779526
419.0094946
447.5315178
482.6829121
525.9723392
579.2175086
644.5767804
724.5668933
822.0703149
940.3826904
1083.497591
1256.344666
1464.21487
1713.166224
2009.175127
2354.920291
2743.426782
3164.615949
3313.584361
3392.414277
2882.839959
2441.02966
2099.664228
1805.895926
1520.60793
1281.811126
1082.913578
918.8703389
785.0367975
676.9924992
590.6272104
522.2362326
468.5675471
426.8250963
394.6442688
370.0529577
300.4500069
300.4808778
300.5472298
300.6556114
300.8149727
301.0372162
301.3378593
301.7368392
302.2594926
302.9377509
303.811597
304.9308433
306.3572973
308.1674005
310.4554394
313.3374559
316.956011
321.4860092
327.1418519
334.1862934
342.9415012
353.8029871
367.257242
383.9040254
404.4842276
429.9139127
461.3244158
500.1070666
547.9590442
606.9236429
679.4133928
768.1996205
876.3590302
1007.228174
1164.626093
1352.997235
1576.935999
1841.974263
2153.366153
2508.467177
2870.152393
3128.095865
3137.215847
3123.248102
2670.961037
2286.972958
1978.463857
1705.303053
1444.000564
1223.639634
1038.766539
885.4689967
759.868428
658.1090398
576.5212682
511.7473243
460.8063512
421.1125439
390.4634456
367.0116479
300.4628415
300.4955777
300.5659027
300.6808029
300.8499025
301.0860672
301.4061378
301.8318236
302.3907957
303.1180222
304.0574001
305.2637452
306.8052172
308.7662698
311.2512378
314.3886949
318.3367572
323.2895577
329.4852028
337.2156401
346.8390369
358.7954769
373.6270098
392.0032559
414.7537618
442.9079452
477.7425595
520.834899
574.1170196
639.921022
720.9962991
820.4674572
941.7021569
1088.129359
1263.317814
1471.023428
1715.300548
2002.267217
2339.842324
2729.54883
3086.921993
3099.598153
3111.445402
2821.715587
2452.064468
2139.764528
1868.423574
1593.912556
1358.760498
1158.003032
988.4518571
847.1116202
730.7828143
636.1685886
560.056579
499.4574352
451.6834677
414.3799143
385.5251571
363.4126432
300.4773379
300.5122309
300.5871384
300.7095436
300.8898413
301.1420024
301.4843866
301.9407387
302.5414098
303.3248531
304.3394521
305.6457496
307.3191619
309.4532742
312.1638375
315.5936128
319.9182509
325.3534577
332.1637953
340.673616
351.2808391
364.4745503
380.8577101
401.1765088
426.3579666
457.5570299
496.2133909
544.1161851
603.4707431
676.953584
767.7261914
879.3545162
1015.570199
1179.886946
1375.433536
1604.842763
1871.71039
2183.751605
2555.700368
3001.853151
3036.024666
3083.895292
2832.081419
2532.502798
2244.630098
1952.373279
1718.11021
1478.426365
1268.701507
1087.864562
934.1768171
805.4024479
698.9405793
612.0106734
541.8398979
485.8042062
441.513683
406.8528931
379.9906248
359.3706578
300.4930247
300.5303204
300.6103179
300.7410417
300.9337335
301.2035837
301.5706309
302.0608697
302.7076127
303.5531606
304.6508427
306.0675038
307.886524
310.2114771
313.1705509
316.9218852
321.6600258
327.6237662
335.1057648
344.4645024
356.1394111
370.6703449
388.7229734
411.1220474
438.8946678
473.3254272
516.0242575
569.0054253
634.7708473
716.3787799
817.453333
942.0506375
1094.270903
1277.548396
1494.211131
1744.723592
2030.702608
2355.757407
2719.01829
2877.231317
2937.536575
2806.779903
2552.341796
2300.175602
2075.83291
1826.863159
1578.894195
1364.380498
1177.442668
1015.832149
877.9003667
761.8164097
665.4447726
586.4541021
522.4748712
471.2298663
430.6190838
398.7647697
374.0279165
355.0061257
300.5093712
300.549262
300.6347373
300.7743908
300.9803654
301.2691541
301.6625916
302.1890802
302.8851003
303.7970626
304.9835706
306.5181711
308.4926861
311.0212301
314.2450443
318.3383003
323.5150815
330.0378242
338.2276369
348.477127
361.266677
377.1855429
396.9596674
421.4886279
451.89449
489.5852679
536.3347648
594.3778879
666.5133825
756.187092
867.487509
1004.929659
1172.903049
1374.356872
1610.216836
1877.924034
2174.941332
2488.47969
2714.898785
2750.410983
2756.02605
2528.578691
2293.419686
2100.654997
1890.327185
1653.168432
1439.927303
1251.883883
1087.034634
943.9248626
821.2879382
717.6617115
631.3004651
560.2602577
502.5321408
456.1583022
419.3120788
390.3441452
367.8031798
350.4390146
300.5257989
300.5684149
300.659619
300.808584
301.0283824
301.3368581
301.7577119
302.321848
303.0690353
304.0499446
305.3286325
306.9855527
309.1211871
311.8604031
315.3576601
319.8032178
325.4305472
332.5252276
341.4357665
352.5870124
366.4972052
383.8002126
405.2751584
431.8863448
464.8369562
505.6402562
556.2113233
618.9793319
697.0102227
794.0988771
914.7186055
1063.635367
1245.439142
1462.434735
1712.172924
1992.520239
2300.133605
2603.463881
2620.603372
2692.289713
2507.317624
2268.653207
2090.262655
1893.151537
1689.294715
1489.440948
1306.856102
1143.647624
999.5358758
873.8533942
765.7403501
674.0574741
597.3838476
534.1044819
482.5257364
440.9766242
407.8814708
381.8046377
361.4731527
345.7834423
300.5416949
300.5870964
300.6841279
300.842532
301.0763122
301.4046738
301.8532014
302.4553247
303.254129
304.3045714
305.676178
307.4562995
309.7540168
312.7047934
316.475991
321.273382
327.3488448
335.0095107
344.628792
356.659983
371.6535383
390.2797196
413.3590821
441.9041751
477.1766528
520.7646758
574.6851925
641.51211
724.5167658
827.7564977
955.9139761
1113.291104
1301.726267
1521.569626
1770.428785
2043.898828
2329.77654
2373.810244
2417.378829
2436.380238
2245.279615
2068.255546
1890.888674
1695.420998
1511.56165
1339.880961
1182.950384
1041.807295
916.5727317
806.9574185
712.3683604
631.9093162
564.4190017
508.5558186
462.8963789
426.0218973
396.5821801
373.3370821
355.179339
341.1433861
300.5564285
300.6045996
300.7073919
300.8750891
301.1225991
301.4704581
301.9460972
302.5854215
303.4347599
304.5532512
306.0157347
307.9162243
310.3720455
313.5287238
317.5657162
322.703098
329.2093568
337.4105268
347.7010628
360.5571306
376.5534384
396.3853574
420.8990224
451.1332251
488.3778546
534.255149
590.8298707
660.750172
747.4018551
854.9787226
986.6155967
1144.910271
1330.428509
1541.175902
1771.492914
2010.204494
2196.843488
2199.682918
2239.804058
2183.692828
2035.375583
1869.676917
1682.364937
1511.061752
1351.741835
1204.158936
1069.205961
947.4877227
839.1909342
744.1703052
661.9818141
591.9007098
532.9685032
484.0675485
444.0027422
411.5735516
385.6289333
365.1044508
349.044025
336.6096267
300.569371
300.6202142
300.7285265
300.9050849
301.1656455
301.5320048
302.0333458
302.7079209
303.6051288
304.7880496
306.3365046
308.3507092
310.9555885
314.305822
318.5916819
324.0457388
330.9505375
339.6474248
350.5468583
364.1408329
381.0185301
401.8868526
427.5987077
459.1934392
497.9539619
545.4894162
603.8487021
675.6664667
764.3269949
872.4099074
1002.58015
1156.157678
1332.107909
1525.796419
1728.825534
1932.09372
2007.396525
2014.133501
2017.729231
1938.718835
1804.303985
1645.560717
1491.138252
1345.0561
1208.312414
1081.652944
965.7852724
861.1655225
767.9602707
686.0647853
615.1147989
554.5064085
503.4393475
460.9786009
426.1204135
397.8512046
375.1937275
357.23939
343.1680994
332.2579276
300.5799167
300.6332508
300.746664
300.9313617
301.2038638
301.5871153
302.1119003
302.8186138
303.7594477
305.0010507
306.6277224
308.7451991
311.4850824
315.0099508
319.5191829
325.2555107
332.512352
341.6420324
353.065102
367.2813337
384.8835618
406.5755102
433.1966917
465.7605934
505.5063562
553.9849978
613.1669706
685.4699615
773.1585059
878.6384505
1003.760151
1148.867051
1311.486567
1485.157223
1659.52513
1820.855132
1826.536294
1836.100605
1776.036728
1721.959055
1589.826235
1454.345502
1322.740067
1197.576141
1080.279735
971.728227
872.4995809
782.923402
703.1031863
632.9267258
572.0714603
520.0209807
476.1000596
439.5232136
409.4468749
385.0168386
365.406422
349.843988
337.6304531
328.1483261
300.5875063
300.6430657
300.7609854
300.9528168
301.235734
301.6336799
302.1788338
302.9134551
303.8921554
305.1846531
306.8790622
309.0857576
311.9418448
315.6162435
320.3153713
326.2893723
333.8388807
343.3223994
355.1641996
369.8632817
388.0053333
410.2765827
437.4829497
470.5901436
510.7532646
559.4446018
618.2374046
688.9883178
773.6455737
874.0728201
991.4677296
1125.402323
1272.416094
1424.357694
1567.016443
1675.228107
1674.65245
1675.254103
1593.621871
1524.091935
1403.189529
1287.905363
1174.770079
1067.114906
966.4820601
873.6246506
788.9323808
712.5847119
644.597292
584.8282213
532.9768509
488.5932325
451.1032608
419.8452288
394.1102346
373.1799141
356.3575763
342.9912315
332.4886325
324.3253441
300.5916497
300.6490884
300.7707536
300.968448
301.2598668
301.6697645
302.23146
302.9887315
303.9981482
305.3318865
307.0810692
309.359655
312.3088728
316.1021809
320.9507088
327.1089867
334.8808968
344.6262129
356.7666512
371.7915689
390.2702758
412.8596375
440.3093132
473.538486
513.5224723
561.4172768
618.5566169
686.3698544
766.3646946
859.85398
967.4621059
1088.278147
1218.502819
1349.60665
1466.417428
1544.280575
1543.529446
1528.442892
1427.648366
1366.133414
1246.959565
1143.650401
1044.92139
951.9440887
865.6614267
786.4746162
714.5195815
649.8067981
592.2563088
541.6908263
497.8238841
460.259842
428.5090261
402.0138682
380.1796175
362.4040556
348.1026574
336.7275947
327.7803941
320.8188964
300.5919488
300.650847
300.7753473
300.9773996
301.2750679
301.6937009
302.2674578
303.0412314
304.0730124
305.4367284
307.2255901
309.5559523
312.5716321
316.4486377
321.4003537
327.6825973
335.5982121
345.5037254
357.8133043
372.9957629
391.5997216
414.2476402
441.5786361
474.370663
513.4684495
559.7955051
614.3518639
678.1905556
752.3534476
837.6129898
934.0911929
1040.584147
1153.476407
1265.118776
1361.346624
1414.500248
1411.73972
1383.976821
1257.436676
1210.903716
1108.06938
1016.891846
930.5061917
850.2448911
776.5309217
709.3658386
648.6228247
594.1529765
545.7924206
503.335968
466.5123692
434.9745968
408.306172
386.0388591
367.6756917
352.7142533
340.6668951
331.0762725
323.5258346
317.6456795
300.5881181
300.6479925
300.7742932
300.9790075
301.2804004
301.7041727
302.2849881
303.0684047
304.1132415
305.4944011
307.3061713
309.6660364
312.7187922
316.6408188
321.6453382
327.9868213
335.961619
345.9194785
358.2679592
373.4315588
391.9146587
414.2677061
441.0739258
472.9715097
510.6358099
554.763944
606.0503039
665.2191301
732.8579626
809.26047
894.1264002
986.0813734
1081.958836
1175.78796
1256.331071
1307.718306
1305.20735
1294.781745
1185.59962
1090.038965
984.596146
904.1276624
829.0715088
760.324663
697.8792829
641.4125002
590.589955
545.1457586
504.8617981
469.5225795
438.8791918
412.6319444
390.4301816
371.8837826
356.5804265
344.103885
334.0502712
326.0406856
319.7298304
314.8108558
300.5800021
300.6403207
300.7672953
300.9728399
301.2752414
301.7002911
302.282795
303.068497
304.1164207
305.5016275
307.3183899
309.6840481
312.7429023
316.6690207
321.6731313
328.0087427
335.9545705
345.8443817
358.0534644
372.989591
391.1020683
412.8707867
438.7949355
469.387676
505.1602923
546.5990423
594.1520365
648.2324882
709.0483539
776.4974206
849.9437341
927.8947327
1007.576698
1084.481903
1149.895796
1194.420741
1213.752052
1213.370524
1089.355072
967.6341442
872.895677
803.1244258
738.8776217
680.8407143
628.6741445
581.8150672
539.7990153
502.3032887
469.0956792
439.9734606
414.7202888
393.0849232
374.7775152
359.4772565
346.8456641
336.5411778
328.2323178
321.6079988
316.3845858
312.3098795
300.5675898
300.6277897
300.7542608
300.9587321
301.2593259
301.6816532
302.260281
303.0406453
304.0813543
305.4568441
307.2600941
309.6070471
312.6411433
316.529437
321.4757623
327.7192024
335.5318472
345.2242714
357.1413245
371.6559103
389.1646063
410.077489
434.8049535
463.7429873
497.2526572
535.6309934
579.149818
627.9238012
681.8554914
740.5219749
803.0063246
867.669291
931.8613636
991.5050952
1040.533672
1071.656375
1079.456469
1058.518656
972.5009049
852.7418956
771.1105801
712.1940235
658.6164778
610.767741
568.0846523
529.8868874
495.6816073
465.1600127
438.1190579
414.3921713
393.8056726
376.1582067
361.2166387
348.7220187
338.4004247
329.974956
323.1765543
317.7524867
313.472149
310.1303508
300.5510252
300.6105369
300.735322
300.9368076
301.2327672
301.6483731
302.2175485
302.9849166
304.0080841
305.3604221
307.1316415
309.4342483
312.4050767
316.2070128
321.0334976
327.1094663
334.6908186
344.0639801
355.5418126
369.4567716
386.1521107
405.9695621
429.2336751
456.2329588
487.1968424
522.2756321
561.5651568
604.9462848
652.0642184
702.2239324
754.249108
806.3219073
855.780788
898.8482671
930.249702
943.1240862
927.8044732
861.0258918
857.8882901
737.2283489
674.9563249
629.5866566
587.3120955
549.3835288
515.4803691
485.0555825
457.7266448
433.2729469
411.55889
392.4723193
375.8889859
361.657281
349.5963824
339.5022215
331.1570496
324.3396636
318.8344912
314.438657
310.9668008
308.253813
300.5306136
300.5888914
300.7108376
300.9074635
301.1960255
301.6010817
302.1554189
302.9023086
303.8973262
305.2106656
306.9293203
309.1604951
312.0339991
315.7043773
320.3531288
326.1893938
333.4490729
342.3923457
353.2984992
366.4578846
382.1610171
400.6844042
422.2728932
447.1181545
475.3329789
506.9864248
541.9779318
580.0082852
620.5118821
662.56124
704.7264667
744.995722
780.6309677
808.1100871
823.0368585
819.7658972
790.9467647
734.7223121
667.5666328
629.3457781
587.5658479
555.8142217
524.8670927
496.360104
470.4189462
446.8397864
425.4653925
406.2156204
389.044217
373.9013735
360.7132283
349.3748945
339.7523501
331.6893435
325.0163796
319.559726
315.1491901
311.6240816
308.8372584
306.6574349
300.5067935
300.5632991
300.6813095
300.8712935
301.1497484
301.5401052
302.0738935
302.7924169
303.7485829
305.0089886
306.6561574
308.7910587
311.5353163
315.0330363
319.4520757
324.9840916
331.8429713
340.2612627
350.4840405
362.7598919
377.328875
394.4072908
414.1690373
436.7227322
462.1136639
490.2990017
521.0481156
553.9199963
588.1874314
622.7381022
655.9331585
685.5026504
708.5324588
721.6284685
721.5776982
704.7021602
658.6777384
589.934614
546.1842247
541.1875378
512.4906187
492.7367964
471.8963136
451.6492245
432.5570751
414.7929018
398.4411054
383.5641699
370.2018081
358.3615782
348.0144011
339.0959159
331.5120801
325.1471228
319.8721764
315.5533382
312.0583993
309.2619208
307.0486592
305.3155395
300.4798389
300.534046
300.6470059
300.8285368
301.0942082
301.4661511
301.9741707
302.6571864
303.5649051
304.7596995
306.3186197
308.3354536
310.922565
314.2122853
318.3575616
323.5314063
329.9247091
337.7419747
347.1945563
358.4910885
371.8249885
387.3590273
405.2070353
425.416826
447.9916026
472.781695
499.4753828
527.5449831
556.171706
584.139714
609.6796857
630.2518545
642.3968801
642.0204548
626.9926971
604.9117746
577.4429352
548.222587
516.9940074
458.16465
451.8231564
441.6670427
428.7537114
415.0594939
401.471371
388.4251988
376.1746955
364.8831499
354.6518789
345.5306813
337.524698
330.6015775
324.6995368
319.7358423
315.6149647
312.2357606
309.4972885
307.3031312
305.5643043
304.2009531
300.4500928
300.501501
300.6083938
300.7798571
301.0303936
301.3806401
301.8583696
302.4997594
303.3508792
304.4693437
305.926052
307.8068879
310.2141763
313.2676509
317.1046184
321.8789288
327.7583319
334.9198116
343.5425298
353.7981423
365.8384057
379.7801928
395.6883417
413.5974883
433.4298423
454.9884283
477.9221388
501.6794426
525.4435766
548.0344755
567.7395322
581.9598213
586.3370345
577.514801
570.5531366
560.9037416
548.3326637
529.7504741
493.8441519
408.1490874
407.9692511
402.848979
395.0505213
386.0103642
376.5500023
367.1582674
358.1465288
349.7196103
342.0079639
335.0845841
328.9763918
323.673754
319.1393034
315.3161752
312.1354016
309.5221735
307.4008
305.698358
304.3471497
303.2861597
300.4180555
300.4662293
300.5661873
300.7262301
300.9596895
301.2855533
301.7293458
302.3242381
303.1123442
304.1461464
305.4899614
307.2213205
309.4320757
312.2289946
315.7335459
320.0805215
325.4151194
331.8881225
339.6488728
348.8358688
359.5649933
371.91559
385.9412758
401.6228184
418.8501414
437.4054826
456.9368861
476.9270527
496.6553471
515.1491498
531.113331
542.7982132
547.1623544
545.1102934
542.7694292
537.3215392
527.0295496
504.17976
449.8785663
377.1852536
377.102093
374.2539224
369.4565679
363.5082231
356.99589
350.3313577
343.802636
337.6089814
331.8825397
326.7026818
322.1068113
318.0994895
314.6605974
311.752659
309.3272152
307.3301094
305.7056232
304.3995089
303.3610403
302.5442537
300.3843458
300.4289381
300.5212826
300.6688668
300.8837855
301.1832759
301.5904782
302.135393
302.8559911
303.7994179
305.0232034
306.596354
308.6001532
311.1284488
314.287156
318.1926604
322.9687946
328.742078
335.6349893
343.7571756
353.1947125
364.0143799
376.2348515
389.8085462
404.6107285
420.423474
436.9198029
453.6500252
470.0353021
485.3817176
498.9515222
510.2020255
518.9378288
523.2516925
521.5145761
515.6698858
500.6257295
461.9543153
412.6938125
355.1325114
355.0674346
353.3604502
350.3265791
346.3903653
341.9304094
337.2500168
332.5802806
328.090255
323.8971303
320.0752345
316.66406
313.6755896
311.1010116
308.9167514
307.0896881
305.5814533
304.3517883
303.3610082
302.5716853
301.9496886
300.3496544
300.3904208
300.4746868
300.6091217
300.8045551
301.076427
301.445434
301.938342
302.5889194
303.4389358
304.5391386
305.9500928
307.7427242
309.9983671
312.8080748
316.2709198
320.4910063
325.5729471
331.61564
338.7043291
346.9121474
356.2801389
366.8026192
378.4184182
390.9990038
404.3379072
418.1430615
432.0353739
445.5606738
458.2310214
469.6324083
479.6600799
489.0218398
498.0178323
497.5431212
485.9722776
460.1268343
425.6138336
384.927298
339.2588016
339.2075597
338.1334973
336.1700835
333.5476957
330.5019651
327.2418817
323.9386199
320.724127
317.6938638
314.9112361
312.4126727
310.2128509
308.3097599
306.6893569
305.3296349
304.2039921
303.2838753
302.5407356
301.9473804
301.4788283
300.3146971
300.3515015
300.4274466
300.5483989
300.7239294
300.9676855
301.2979319
301.7382276
302.3181981
303.0743472
304.0508281
305.3000681
306.8831049
308.8694584
311.3363287
314.3668912
318.047458
322.4633202
327.6931744
333.8098351
340.8650684
348.8793378
357.8338653
367.6608738
378.2347572
389.3653191
400.7947455
412.2010462
423.2126113
433.4414663
442.5418312
450.2986601
456.5897461
460.4141544
458.0995564
444.9291992
423.7393658
396.1712717
363.6897546
327.8053108
327.7652578
327.0698298
325.7798035
324.0248761
321.9506786
319.6964875
317.3832258
315.1084532
312.9455403
310.9452116
309.1383624
307.5394754
306.1501893
304.9627057
303.9628255
303.1324982
302.4518422
301.9006579
301.4594892
301.1103123
300.2801709
300.3129834
300.3805823
300.4880639
300.6437777
300.8596292
301.151524
301.5399229
302.0504699
302.714639
303.5703295
304.662313
306.0424094
307.769241
309.9073862
312.5257466
315.6949394
319.4835743
323.9589739
329.1752036
335.1667915
341.9416204
349.4727757
357.6907331
366.4766959
375.6580711
385.0073033
394.2455412
403.0526637
411.0838373
417.9870785
423.3883683
426.7570139
427.1128205
422.6369005
411.6770835
394.7863426
372.9873066
347.4844517
319.5588212
319.5277729
319.0706389
318.2162174
317.0401205
315.6326879
314.0851771
312.4805286
310.8882678
309.3624886
307.9419167
306.6512707
305.5033453
304.5013946
303.6415156
302.9148308
302.3093533
301.811489
301.407177
301.0827054
300.8252527
300.2467155
300.2756045
300.3350315
300.4293684
300.5658066
300.7545974
301.0094112
301.3477855
301.7916256
302.3677108
303.1081422
304.0506479
305.2386419
306.7209069
308.55076
310.784554
313.4793899
316.6937532
320.4784751
324.8732868
329.9008596
335.5602379
341.8201293
348.6126249
355.8280353
363.3115989
370.8628026
378.2378551
385.1551427
391.3015242
396.3322431
399.8475188
401.3301036
400.0524867
395.0863871
385.7538252
372.2002213
355.0612494
335.2233518
313.6521793
313.6282722
313.325759
312.7582739
311.9710913
311.0205811
309.9659809
308.8630736
307.7601185
306.6957797
305.6985929
304.7875005
303.9730448
303.2588916
302.6434352
302.121316
301.6847454
301.324593
301.0312263
300.795123
300.6072878
300.2148837
300.2400034
300.2916047
300.3733923
300.4914815
300.6545867
300.8743061
301.1654775
301.5465705
302.0400747
302.6728275
303.4762102
304.4861241
305.7426409
307.2892101
309.1716529
311.4379876
314.1328016
317.2950566
320.9536259
325.1222618
329.7941555
334.936449
340.4851787
346.3411996
352.3676432
358.3893468
364.1943742
369.5370615
374.1407162
377.696083
379.8505656
380.1884869
378.2233582
373.4622964
365.6097365
354.7644399
341.357543
326.0214038
309.4515811
309.4332687
309.232759
308.8561411
308.3310121
307.6927036
306.9794277
306.2281726
305.4717778
304.7372236
304.0449615
303.4090316
302.8377052
302.3344222
301.8988377
301.5278458
301.2164973
300.9587666
300.7481568
300.5781491
300.4425171
300.1851218
300.2066959
300.2509563
300.3210044
300.4219757
300.5611843
300.7483463
300.9958559
301.3190882
301.7366906
302.2708155
302.9472351
303.7952653
304.8474144
306.1391271
307.7080677
309.5913609
311.8237192
314.4345203
317.4441579
320.8598887
324.6713806
328.8462658
333.326091
338.0230978
342.8182528
347.5608201
352.0695123
356.1348189
359.5215249
361.9700325
363.1959728
362.8919557
360.7445076
356.4878168
350.0006818
341.3856157
330.9549614
319.1584621
306.4889233
306.4749581
306.3422512
306.0930683
305.7444081
305.318462
304.8397472
304.332515
303.8187626
303.3169582
302.8414349
302.4023256
302.0058855
301.6550479
301.3500884
301.0892984
300.8696044
300.6870982
300.5374632
300.4162983
300.3193492
300.1577589
300.1760629
300.2135697
300.2728442
300.3581462
300.4755386
300.6330595
300.8409331
301.1117997
301.4609291
301.9063812
302.4690635
303.1726237
304.0435659
305.1104485
306.4026921
307.9492731
309.7767855
311.9069771
314.3537673
317.1198693
320.1931965
323.5433055
327.1181927
330.8417938
334.6125184
338.3030623
341.7615737
344.8140259
347.2674609
348.9138808
349.5354928
348.9143094
346.8521685
343.2072541
337.9425873
331.1600807
323.0931204
314.0630923
304.4178914
304.4072865
304.3197368
304.1556013
303.9254028
303.6430753
303.3242658
302.9847221
302.6389866
302.2995014
301.9761269
301.676018
301.4037692
301.1617346
300.9504374
300.7690029
300.6155686
300.4876425
300.3823983
300.2969038
300.2282884
300.1330056
300.1483494
300.1797555
300.2293204
300.3005346
300.3983631
300.5293742
300.7019
300.9262058
301.2146447
301.5817649
302.044335
302.6215577
303.3344445
304.2053979
305.2573752
306.512685
307.9913829
309.7092498
311.675381
313.8894782
316.3389911
318.9963162
321.8163107
324.7344043
327.6655854
330.504484
333.1266784
335.3912519
337.1445816
338.2255119
338.4725974
337.7350118
335.8893077
332.8627094
328.6580843
323.3684037
317.1696097
310.292563
302.983316
302.9752989
302.9177801
302.8102278
302.6591634
302.4733168
302.2626188
302.0372067
301.8065868
301.5790283
301.3612088
301.1580882
300.9729621
300.8076393
300.6626889
300.5377128
300.4316118
300.3428237
300.2695236
300.2097828
300.1616874
300.1109608
300.1236717
300.149662
300.1906255
300.2493885
300.3299682
300.4376685
300.5791985
300.7627957
300.9983348
301.2974344
301.6735864
302.1418473
302.7186958
303.4215651
304.2681366
305.2753473
306.4580824
307.8275451
309.3893351
311.1413087
313.0713413
315.1551616
317.3544638
319.6155326
321.8686107
324.0282138
325.9945426
327.6560926
328.8935495
329.5851442
329.6138494
328.8770151
327.2988498
324.8448823
321.5349063
317.4484524
312.717939
307.5097821
301.9986276
301.9925968
301.95498
301.8848959
301.7863796
301.6648815
301.5266677
301.3782122
301.2256672
301.0744638
300.9290633
300.79285
300.6681408
300.5562804
300.4577864
300.372518
300.2998454
300.2388056
300.1882364
300.1468841
300.1134876
300.0916239
300.1020319
300.1232933
300.1567611
300.2046972
300.2703143
300.3578454
300.4726304
300.6212044
300.8114159
301.0524877
301.3549477
301.7305522
302.1920712
302.7529013
303.4264836
304.2254971
305.1608095
306.2401828
307.4667643
308.8374213
310.3410189
311.9567764
313.6528702
315.3854719
317.0984142
318.7236623
320.1827358
321.3891923
322.2522602
322.6817155
322.5941181
321.9204628
320.6149667
318.6639076
316.0922415
312.9649791
309.3811787
305.4609758
301.3287498
301.324238
301.2997508
301.2543381
301.1904885
301.1115901
301.0215732
300.9245414
300.8244404
300.7248005
300.6285668
300.5380164
300.4547507
300.3797428
300.3134218
300.2557746
300.2064531
300.1648735
300.130305
300.1019424
300.0789634
300.0749112
300.0833369
300.1005341
300.1275713
300.1662385
300.2190759
300.2894239
300.3814852
300.5004211
300.6523876
300.8445523
301.0850792
301.3830343
301.7481943
302.1907262
302.720715
303.3475183
304.0789361
304.9201994
305.8728011
306.9332209
308.0916219
309.3306283
310.6243176
311.9375784
313.2259899
314.4363702
315.5081143
316.3754155
316.9704211
317.2273389
317.0874461
316.5048198
315.4523283
313.9269654
311.9531149
309.5821859
306.8877084
303.9563711
300.8769528
300.8735975
300.8577288
300.8284639
300.7873311
300.7364261
300.6781998
300.6152348
300.5500412
300.4848921
300.4217111
300.3620119
300.3068843
300.2570172
300.2127458
300.1741124
300.1409326
300.1128587
300.0894368
300.0701555
300.0544841
300.0606742
300.0674196
300.081176
300.1027786
300.1336283
300.1757114
300.2316354
300.3046944
300.3988955
300.5189966
300.6705199
300.8597236
301.0935156
301.3792914
301.724672
302.1371263
302.623462
303.1891786
303.8376876
304.569421
305.3808693
306.2636124
307.2034284
308.179586
309.164439
310.1234445
311.0157205
311.7952374
312.4127041
312.8181704
312.9643042
312.810224
312.325636
311.4948333
310.3198794
308.8221126
307.0411696
305.0311777
302.8545662
300.5747513
300.5722721
300.562032
300.5432722
300.5169266
300.4842848
300.4468661
300.4062854
300.3641275
300.3218436
300.280678
300.2416259
300.2054189
300.1725357
300.1432271
300.1175525
300.09542
300.0766259
300.0608918
300.0478963
300.0373002
300.0487184
300.0540599
300.0649455
300.0820209
300.1063707
300.1395319
300.1835311
300.2409028
300.3147237
300.408635
300.5268433
300.6740912
300.8555811
301.076841
301.343514
301.66106
302.0343604
302.4672203
302.9617763
303.517826
304.1321141
304.797623
305.5029371
306.2317591
306.9626713
307.6692333
308.3205035
308.8820502
309.3174901
309.5905477
309.6675718
309.5203691
309.1291161
308.4849882
307.5920374
306.4677996
305.1422219
303.6548129
302.0503851
300.3742042
300.3723847
300.3658026
300.3538368
300.3370548
300.316246
300.2923471
300.2663614
300.2392825
300.21203
300.1854016
300.1600449
300.1364453
300.1149297
300.0956801
300.0787543
300.0641105
300.0516318
300.0411493
300.0324629
300.0253579
300.0388204
300.0430055
300.0515288
300.0648844
300.0839036
300.1097703
300.1440303
300.1886158
300.2458649
300.3185333
300.4097902
300.523189
300.6626034
300.8321172
301.0358585
301.2777674
301.5612929
301.8890156
302.2622035
302.6803156
303.1404793
303.6369811
304.1608208
304.6993911
305.2363508
305.7517588
306.2225332
306.6232767
306.9274896
307.1091481
307.14458
307.0145073
306.7060556
306.2144642
305.5441793
304.7090258
303.731252
302.6394541
301.4656621
300.2421189
300.2407929
300.2365772
300.2289807
300.2183461
300.2051542
300.1899792
300.173441
300.1561583
300.1387097
300.1216026
300.1052545
300.0899837
300.0760104
300.063463
300.0523906
300.0427773
300.0345572
300.0276291
300.0218695
300.0171438
300.030744
300.0339893
300.0405944
300.0509339
300.0656422
300.0856143