/*--------------------------------*- C++ -*----------------------------------*\
  =========                 |
  \\      /  F ield         | OpenFOAM: The Open Source CFD Toolbox
   \\    /   O peration     | Website:  https://openfoam.org
    \\  /    A nd           | Version:  6
     \\/     M anipulation  |
\*---------------------------------------------------------------------------*/
FoamFile
{
    version     2.0;
    format      ascii;
    class       volVectorField;
    location    "0.0026";
    object      U;
}
// * * * * * * * * * * * * * * * * * * * * * * * * * * * * * * * * * * * * * //

dimensions      [0 1 -1 0 0 0 0];

internalField   nonuniform List<vector> 
600
(
(0 1.42771431e-10 -1.203903686e-13)
(0 1.435349438e-10 -3.505208456e-13)
(0 1.446318494e-10 -5.459873144e-13)
(0 1.458667572e-10 -6.799456118e-13)
(0 1.470858715e-10 -7.229077242e-13)
(0 1.480599879e-10 -6.417175207e-13)
(0 1.484836319e-10 -3.987055015e-13)
(0 1.479660435e-10 4.66573778e-14)
(0 1.460248333e-10 7.340695876e-13)
(0 1.420886426e-10 1.693453153e-12)
(0 1.355210545e-10 2.931648132e-12)
(0 1.256792811e-10 4.413583374e-12)
(0 1.120133264e-10 6.045461615e-12)
(0 9.418971922e-11 7.671622848e-12)
(8.889856876e-53 7.219088199e-11 9.109320025e-12)
(5.918655689e-53 4.631466345e-11 1.023545714e-11)
(0 1.701992033e-11 1.109534346e-11)
(0 -1.529402172e-11 1.189681502e-11)
(0 -5.02241075e-11 1.268657704e-11)
(0 -8.654924046e-11 1.273364739e-11)
(0 -1.209702271e-10 1.052029811e-11)
(0 -1.483755718e-10 5.387677943e-12)
(0 -1.639624506e-10 -1.976302179e-12)
(0 -1.643759842e-10 -1.105243581e-11)
(0 -1.472431069e-10 -2.176091564e-11)
(0 -1.114275738e-10 -3.325337058e-11)
(0 -5.999798503e-11 -4.186025691e-11)
(0 -4.491434369e-12 -4.18995729e-11)
(0 3.774892294e-11 -2.856191263e-11)
(0 1.179204762e-12 6.234509169e-25)
(0 1.421185524e-10 -3.727807679e-13)
(0 1.429541514e-10 -1.086578262e-12)
(0 1.441863905e-10 -1.698284602e-12)
(0 1.456281156e-10 -2.128731496e-12)
(0 1.471341458e-10 -2.291013597e-12)
(0 1.484852421e-10 -2.086339885e-12)
(0 1.493844401e-10 -1.402461965e-12)
(0 1.494431502e-10 -1.165789063e-13)
(0 1.481671991e-10 1.89338471e-12)
(0 1.449496953e-10 4.724788789e-12)
(0 1.390849044e-10 8.409210088e-12)
(0 1.298230715e-10 1.285440756e-11)
(0 1.164844983e-10 1.778239021e-11)
(0 9.863393018e-11 2.27048869e-11)
(0 7.626958865e-11 2.701235623e-11)
(0 4.989868152e-11 3.025618528e-11)
(0 2.029738609e-11 3.256779192e-11)
(0 -1.212483608e-11 3.47933506e-11)
(0 -4.784763967e-11 3.750869513e-11)
(0 -8.71313251e-11 3.858229123e-11)
(0 -1.266761598e-10 3.25303188e-11)
(0 -1.59526812e-10 1.711932379e-11)
(0 -1.800873608e-10 -4.670854979e-12)
(0 -1.859086029e-10 -3.109630476e-11)
(0 -1.747021973e-10 -6.268903227e-11)
(0 -1.4239201e-10 -9.819646508e-11)
(0 -8.778578363e-11 -1.262430511e-10)
(0 -2.145269041e-11 -1.281735531e-10)
(0 3.486131071e-11 -8.805172754e-11)
(0 1.221492938e-12 6.751777468e-25)
(0 1.409796316e-10 -6.625169315e-13)
(0 1.419333378e-10 -1.93649837e-12)
(0 1.433838707e-10 -3.047222873e-12)
(0 1.451576546e-10 -3.86806241e-12)
(0 1.47123638e-10 -4.259102336e-12)
(0 1.490792462e-10 -4.05996518e-12)
(0 1.507430404e-10 -3.086411556e-12)
(0 1.517341736e-10 -1.132330616e-12)
(0 1.515478038e-10 2.015774145e-12)
(0 1.495323108e-10 6.545081204e-12)
(0 1.448831746e-10 1.255103417e-11)
(0 1.366799122e-10 1.993254697e-11)
(0 1.240059544e-10 2.825455607e-11)
(0 1.061932603e-10 3.663914098e-11)
(1.001492136e-52 8.318781289e-11 4.383955631e-11)
(6.889090819e-53 5.586372048e-11 4.874289469e-11)
(0 2.580488224e-11 5.142131453e-11)
(0 -6.06851612e-12 5.407152228e-11)
(0 -4.170079832e-11 5.966072826e-11)
(0 -8.495276055e-11 6.532122131e-11)
(0 -1.328108623e-10 5.751630138e-11)
(0 -1.738702737e-10 3.128214774e-11)
(0 -2.011579379e-10 -3.900689378e-12)
(0 -2.155201431e-10 -4.426621748e-11)
(0 -2.166183815e-10 -9.374877238e-11)
(0 -1.952648405e-10 -1.563247476e-10)
(0 -1.410640949e-10 -2.116112691e-10)
(0 -6.103934961e-11 -2.220448006e-10)
(0 1.792027683e-11 -1.557955641e-10)
(0 1.313564863e-12 7.741845608e-25)
(0 1.392412359e-10 -1.009750909e-12)
(0 1.40353001e-10 -2.962381692e-12)
(0 1.4209447e-10 -4.700737815e-12)
(0 1.443102476e-10 -6.058007724e-12)
(0 1.46888232e-10 -6.848749452e-12)
(0 1.496487817e-10 -6.859118059e-12)
(0 1.523338557e-10 -5.839932345e-12)
(0 1.54580409e-10 -3.505208223e-12)
(0 1.558850343e-10 4.57755362e-13)
(0 1.555618208e-10 6.355160585e-12)
(0 1.527027002e-10 1.440964926e-11)
(0 1.461668775e-10 2.460910724e-11)
(0 1.346626773e-10 3.645840481e-11)
(0 1.170414267e-10 4.86728838e-11)
(-1.130349851e-52 9.293729577e-11 5.903798829e-11)
(-7.570096888e-53 6.367724073e-11 6.499007593e-11)
(0 3.261531648e-11 6.572429275e-11)
(0 2.900031313e-12 6.559000266e-11)
(0 -2.913566422e-11 7.460236779e-11)
(0 -7.611807271e-11 9.275761348e-11)
(0 -1.364046534e-10 8.716060356e-11)
(0 -1.875362483e-10 4.67382194e-11)
(0 -2.198583483e-10 -4.167212507e-13)
(0 -2.43231797e-10 -4.698033152e-11)
(0 -2.645353939e-10 -1.05096369e-10)
(0 -2.664307272e-10 -1.989594132e-10)
(0 -2.197517806e-10 -2.960785331e-10)
(0 -1.232930105e-10 -3.275319138e-10)
(0 -1.060313093e-11 -2.382694876e-10)
(0 1.473550082e-12 9.227478444e-25)
(0 1.367553379e-10 -1.432132557e-12)
(0 1.380563581e-10 -4.218030995e-12)
(0 1.401453189e-10 -6.751919036e-12)
(0 1.428883298e-10 -8.836171808e-12)
(0 1.461947974e-10 -1.025062094e-11)
(0 1.49911327e-10 -1.074024774e-11)
(0 1.538087001e-10 -1.000491609e-11)
(0 1.575527914e-10 -7.691358913e-12)
(0 1.606640437e-10 -3.391781043e-12)
(0 1.624600737e-10 3.340113852e-12)
(0 1.619748695e-10 1.292689173e-11)
(0 1.578607435e-10 2.560177494e-11)
(0 1.48336021e-10 4.104774648e-11)
(0 1.313872027e-10 5.776556466e-11)
(0 1.056552815e-10 7.230726892e-11)
(0 7.246851564e-11 7.924993724e-11)
(0 3.824022305e-11 7.426728629e-11)
(0 1.28794104e-11 6.293312046e-11)
(0 -7.021397639e-12 7.241026749e-11)
(0 -5.502241394e-11 1.203028648e-10)
(0 -1.339615414e-10 1.24284587e-10)
(0 -1.952438466e-10 5.767395121e-11)
(0 -2.241483784e-10 -1.328011723e-13)
(0 -2.50725105e-10 -3.862689212e-11)
(0 -3.004623835e-10 -8.176786643e-11)
(0 -3.448778542e-10 -2.118427445e-10)
(0 -3.198424786e-10 -3.753955421e-10)
(0 -2.074023494e-10 -4.471162639e-10)
(0 -5.018079165e-11 -3.433406022e-10)
(0 1.739029228e-12 1.150716784e-24)
(0 1.33348678e-10 -1.943124138e-12)
(0 1.348589696e-10 -5.744494897e-12)
(0 1.373314368e-10 -9.271213103e-12)
(0 1.406548699e-10 -1.230587358e-11)
(0 1.447588475e-10 -1.460619136e-11)
(0 1.495132324e-10 -1.589172535e-11)
(0 1.54714409e-10 -1.58317026e-11)
(0 1.60059464e-10 -1.40315377e-11)
(0 1.651130965e-10 -1.00167272e-11)
(0 1.692550037e-10 -3.217553733e-12)
(0 1.715773133e-10 7.024220463e-12)
(0 1.70684222e-10 2.135820441e-11)
(0 1.643779092e-10 4.006787476e-11)
(0 1.494177242e-10 6.212412894e-11)
(0 1.221411008e-10 8.328313273e-11)
(0 8.180511977e-11 9.370378996e-11)
(0 3.797041557e-11 7.94306366e-11)
(0 1.732110794e-11 3.821128358e-11)
(0 2.651715394e-11 3.160093709e-11)
(0 -1.603001073e-11 1.453181071e-10)
(0 -1.220760835e-10 1.725514576e-10)
(0 -1.898794282e-10 5.019097951e-11)
(0 -1.979959137e-10 -1.53265258e-11)
(0 -2.118960234e-10 -2.645659902e-11)
(0 -2.929194336e-10 -4.927424186e-12)
(0 -4.02933417e-10 -1.754001335e-10)
(0 -4.259854132e-10 -4.421737512e-10)
(0 -3.062942213e-10 -5.754412666e-10)
(0 -1.007110854e-10 -4.788723922e-10)
(0 2.189459246e-12 1.542302315e-24)
(0 1.288310242e-10 -2.55139623e-12)
(0 1.305581227e-10 -7.567952596e-12)
(0 1.334272824e-10 -1.230299855e-11)
(0 1.373489805e-10 -1.653049184e-11)
(0 1.422672024e-10 -1.999832841e-11)
(0 1.480633556e-10 -2.24156176e-11)
(0 1.545403702e-10 -2.344243213e-11)
(0 1.614033545e-10 -2.267764149e-11)
(0 1.682484268e-10 -1.963785088e-11)
(0 1.74552629e-10 -1.371567751e-11)
(0 1.796219659e-10 -4.105813856e-12)
(0 1.823806572e-10 1.028325105e-11)
(0 1.80781558e-10 3.077739706e-11)
(0 1.706459672e-10 5.816953752e-11)
(0 1.445165297e-10 8.98073878e-11)
(0 9.438876484e-11 1.123717092e-10)
(0 2.636389176e-11 9.358696868e-11)
(0 2.403593972e-12 -9.778723375e-12)
(0 6.479720704e-11 -8.346794897e-11)
(0 3.121834789e-11 1.776987467e-10)
(0 -8.991342468e-11 2.582778266e-10)
(0 -1.484143182e-10 -6.898733258e-12)
(0 -1.254361219e-10 -6.249204347e-11)
(0 -1.124478974e-10 -3.906082924e-11)
(0 -2.008334326e-10 1.649977547e-10)
(0 -3.634457755e-10 -5.825460713e-11)
(0 -4.931881067e-10 -4.819051168e-10)
(0 -3.928718266e-10 -6.781346951e-10)
(0 -1.652238963e-10 -6.460651375e-10)
(0 3.007070296e-12 2.284461771e-24)
(0 1.230049368e-10 -3.260557552e-12)
(0 1.249434632e-10 -9.699158512e-12)
(0 1.281994564e-10 -1.58649713e-11)
(0 1.327034798e-10 -2.153365578e-11)
(0 1.384061108e-10 -2.645235954e-11)
(0 1.451818763e-10 -3.032755208e-11)
(0 1.528032952e-10 -3.282007156e-11)
(0 1.609196142e-10 -3.354552038e-11)
(0 1.690667635e-10 -3.207416917e-11)
(0 1.767305102e-10 -2.790916202e-11)
(0 1.834612948e-10 -2.038640144e-11)
(0 1.889331659e-10 -8.382281013e-12)
(0 1.925213326e-10 1.028698132e-11)
(0 1.913343665e-10 3.947234639e-11)
(0 1.751162133e-10 8.314667883e-11)
(0 1.214202736e-10 1.33797756e-10)
(0 6.190907392e-12 1.420801262e-10)
(0 -3.301348855e-11 -5.610210599e-11)
(0 9.54097659e-11 -3.589593319e-10)
(0 1.001899673e-24 1.44969933e-11)
(0 -3.114599609e-24 9.856881804e-12)
(0 -1.338741172e-24 -4.289457775e-12)
(0 -2.116989303e-25 -2.731153132e-12)
(0 9.608566416e-25 -3.677980115e-12)
(0 2.67627596e-24 1.102872886e-11)
(0 -2.064530976e-24 1.589582012e-11)
(0 -4.337474233e-10 -4.839378067e-10)
(0 -3.860928303e-10 -6.636549505e-10)
(0 -2.729105978e-10 -8.1771672e-10)
(0 4.657345893e-12 3.341520075e-24)
(0 1.156768448e-10 -4.069328024e-12)
(0 1.178080978e-10 -1.21339192e-11)
(0 1.214180525e-10 -1.994991867e-11)
(0 1.264583857e-10 -2.730485893e-11)
(0 1.328829243e-10 -3.39503424e-11)
(0 1.405448083e-10 -3.958565348e-11)
(0 1.491450295e-10 -4.385523052e-11)
(0 1.581815875e-10 -4.636631809e-11)
(0 1.66937837e-10 -4.673649996e-11)
(0 1.745760597e-10 -4.467172485e-11)
(0 1.804518134e-10 -4.002338485e-11)
(0 1.84781506e-10 -3.261002309e-11)
(0 1.895119662e-10 -2.121179207e-11)
(0 1.978663407e-10 -6.837712726e-13)
(0 2.061697269e-10 4.326837996e-11)
(0 1.805965547e-10 1.301769729e-10)
(0 -8.499171509e-12 2.611399394e-10)
(0 2.450162573e-24 -4.213845945e-12)
(0 -1.037839384e-11 -8.672419469e-12)
(0 -1.026772936e-11 1.850501793e-11)
(0 6.088936224e-12 1.384661649e-11)
(0 7.53657639e-12 -4.158267492e-12)
(0 6.114776588e-13 -2.95628744e-12)
(0 -6.364729333e-12 -2.883975774e-12)
(0 -5.301587064e-12 1.652315593e-11)
(0 9.095882305e-12 2.292807153e-11)
(0 8.979567017e-12 -1.480182803e-12)
(0 -7.142952243e-25 9.834756208e-12)
(0 -5.539072789e-10 -8.390921052e-10)
(0 8.481423204e-12 -2.272521122e-11)
(0 1.066698157e-10 -4.971863335e-12)
(0 1.089600114e-10 -1.485335494e-11)
(0 1.128644049e-10 -2.452631671e-11)
(0 1.183631674e-10 -3.380435851e-11)
(0 1.254235837e-10 -4.245001192e-11)
(0 1.338858174e-10 -5.014239539e-11)
(0 1.43370922e-10 -5.646208441e-11)
(0 1.531625234e-10 -6.090660567e-11)
(0 1.620850962e-10 -6.296989523e-11)
(0 1.684451314e-10 -6.234484561e-11)
(0 1.702366553e-10 -5.932133305e-11)
(0 1.661412626e-10 -5.536543933e-11)
(0 1.583955379e-10 -5.338197571e-11)
(0 1.589597311e-10 -5.569931318e-11)
(0 1.91942207e-10 -5.409966514e-11)
(0 2.877726674e-10 -2.323726962e-11)
(0 1.115998926e-11 1.113528854e-11)
(0 1.620296717e-11 -2.31129642e-12)
(0 2.594252349e-12 -9.853471773e-12)
(0 -2.356351033e-12 5.474959788e-12)
(0 2.212101859e-12 5.952366198e-12)
(0 3.321707374e-12 1.180523031e-12)
(0 1.27429172e-12 6.800230431e-13)
(0 -6.451679379e-13 2.378179461e-12)
(0 9.366600393e-13 8.61720536e-12)
(0 6.872048295e-12 1.049955606e-11)
(0 7.031296249e-12 4.432167091e-13)
(0 8.424600317e-12 1.487204069e-11)
(0 -1.611399863e-11 1.406729109e-12)
(0 -2.617158294e-11 -6.472928491e-11)
(0 9.584063999e-11 -5.958734075e-12)
(0 9.823687564e-11 -1.78230433e-11)
(0 1.02337603e-10 -2.953290405e-11)
(0 1.081668306e-10 -4.095524224e-11)
(0 1.15734565e-10 -5.188420846e-11)
(0 1.249153053e-10 -6.197696694e-11)
(0 1.353189962e-10 -7.070273775e-11)
(0 1.460971475e-10 -7.7309871e-11)
(0 1.556536632e-10 -8.084456888e-11)
(0 1.612155031e-10 -8.030794794e-11)
(0 1.582513853e-10 -7.513618707e-11)
(0 1.399872744e-10 -6.634372308e-11)
(0 9.823088433e-11 -5.861856124e-11)
(0 3.102708813e-11 -6.211158653e-11)
(1.90814701e-52 -4.070995572e-11 -7.209452867e-11)
(3.892490471e-52 -4.238546786e-12 2.781317659e-24)
(0 -2.311296268e-12 1.610456174e-11)
(0 3.886626612e-12 3.772665308e-12)
(0 2.158637986e-12 -6.022217041e-13)
(0 7.873327739e-13 2.545044437e-12)
(0 1.794499451e-12 3.307030397e-12)
(0 2.264233219e-12 2.247489515e-12)
(0 1.809134091e-12 2.117130365e-12)
(0 1.572453005e-12 3.098943378e-12)
(0 2.819789563e-12 5.067717427e-12)
(0 5.67266951e-12 5.258614047e-12)
(0 8.601276077e-12 2.593532125e-12)
(0 1.633734804e-11 3.591301715e-12)
(0 3.527405832e-11 -9.64099679e-12)
(0 -4.176210386e-12 -3.210488617e-11)
(0 8.310689853e-11 -7.021490394e-12)
(0 8.553162308e-11 -2.099313803e-11)
(0 8.966934443e-11 -3.486440935e-11)
(0 9.561019957e-11 -4.861073445e-11)
(0 1.034485676e-10 -6.21089598e-11)
(0 1.131691099e-10 -7.503161805e-11)
(0 1.24514971e-10 -8.675139697e-11)
(0 1.367854408e-10 -9.622907617e-11)
(0 1.485025156e-10 -1.018823608e-10)
(0 1.568109473e-10 -1.014539256e-10)
(0 1.562875368e-10 -9.192946118e-11)
(0 1.364479392e-10 -6.96836846e-11)
(0 7.620992309e-11 -3.143754245e-11)
(0 -5.75636433e-11 2.059411552e-11)
(0 -3.472177053e-10 8.540574284e-11)
(0 -8.770825274e-12 -1.055703028e-11)
(0 -9.94273217e-12 2.339498505e-12)
(0 -5.038159798e-13 1.899967531e-12)
(0 1.366631485e-12 1.127029218e-12)
(0 1.552901059e-12 2.000365422e-12)
(0 1.914546939e-12 2.483015842e-12)
(0 2.131807346e-12 2.384912681e-12)
(0 2.125745581e-12 2.44150458e-12)
(0 2.305419116e-12 2.83246282e-12)
(0 3.096330702e-12 3.296041112e-12)
(0 4.397862999e-12 2.874377026e-12)
(0 5.36398392e-12 1.081707664e-12)
(0 4.619489553e-12 -1.889478808e-12)
(0 -6.810187769e-12 -1.166935296e-11)
(0 -9.696210796e-12 1.225717554e-11)
(0 6.84961869e-11 -8.171295917e-12)
(0 7.08398701e-11 -2.430870352e-11)
(0 7.476094033e-11 -4.035356914e-11)
(0 8.04493102e-11 -5.64993401e-11)
(0 8.811729193e-11 -7.279297053e-11)
(0 9.791308725e-11 -8.900453099e-11)
(0 1.09828606e-10 -1.045174017e-10)
(0 1.235787014e-10 -1.18176756e-10)
(0 1.384497687e-10 -1.280869183e-10)
(0 1.531586461e-10 -1.313694021e-10)
(0 1.658409133e-10 -1.239034814e-10)
(0 1.744635375e-10 -1.001982839e-10)
(0 1.761685665e-10 -5.463997459e-11)
(0 1.825154578e-10 5.0893663e-12)
(0 1.431835699e-11 1.02465303e-24)
(0 1.822556311e-11 -1.070300907e-11)
(0 5.394925685e-12 -2.840322896e-12)
(0 2.674157352e-12 3.606625666e-13)
(0 2.259035885e-12 1.20998562e-12)
(0 2.143319399e-12 1.846252701e-12)
(0 2.179046711e-12 2.239532798e-12)
(0 2.222721958e-12 2.367317254e-12)
(0 2.256684231e-12 2.431064235e-12)
(0 2.426989536e-12 2.492941788e-12)
(0 2.861703767e-12 2.409822445e-12)
(0 3.45833606e-12 1.86162818e-12)
(0 3.837420245e-12 7.482259467e-13)
(0 3.586287441e-12 -5.614743884e-13)
(0 2.935713197e-12 -9.189666155e-13)
(0 5.119604562e-12 2.206805115e-12)
(0 5.225056829e-11 -9.503120978e-12)
(0 5.433688547e-11 -2.774724244e-11)
(0 5.764402301e-11 -4.576178102e-11)
(0 6.252999488e-11 -6.417493483e-11)
(0 6.932424118e-11 -8.330559369e-11)
(0 7.831278687e-11 -1.031029021e-10)
(0 8.96965204e-11 -1.230805993e-10)
(0 1.035191808e-10 -1.421760614e-10)
(0 1.19568133e-10 -1.585783992e-10)
(0 1.373201064e-10 -1.696514951e-10)
(0 1.561761663e-10 -1.721906617e-10)
(0 1.767042287e-10 -1.632745131e-10)
(0 2.014894734e-10 -1.412652988e-10)
(0 2.591689074e-10 -9.8530854e-11)
(0 9.421602367e-12 -2.787925901e-24)
(0 1.326423908e-11 5.286744355e-12)
(0 5.871715287e-12 1.392036463e-12)
(0 3.546492549e-12 1.17280569e-12)
(0 2.852221622e-12 1.505752918e-12)
(0 2.582448239e-12 1.93481477e-12)
(0 2.435611493e-12 2.261193761e-12)
(0 2.323338783e-12 2.413424485e-12)
(0 2.251370116e-12 2.42221371e-12)
(0 2.284177327e-12 2.2982929e-12)
(0 2.465017093e-12 1.988874892e-12)
(0 2.736266498e-12 1.41462907e-12)
(0 2.940881346e-12 6.11338967e-13)
(0 2.952296988e-12 -1.854217496e-13)
(0 2.902508638e-12 -5.958114825e-13)
(0 3.230742463e-12 -6.30069894e-13)
(0 3.511996369e-11 -1.142225986e-11)
(0 3.645830299e-11 -3.140020025e-11)
(0 3.85216686e-11 -5.078109628e-11)
(0 4.187998885e-11 -7.100696515e-11)
(0 4.689158967e-11 -9.270434857e-11)
(0 5.387314862e-11 -1.160146581e-10)
(0 6.310995497e-11 -1.406204305e-10)
(0 7.476854624e-11 -1.655770638e-10)
(0 8.864309307e-11 -1.890401339e-10)
(0 1.035511598e-10 -2.080137565e-10)
(0 1.159893221e-10 -2.183542074e-10)
(0 1.173400648e-10 -2.153166181e-10)
(0 8.99721493e-11 -1.941787395e-10)
(0 -2.776564401e-12 -1.404680026e-10)
(0 -5.270285989e-12 -1.299261903e-24)
(0 -5.257787752e-12 5.582271964e-12)
(0 1.280987029e-12 1.948573868e-12)
(0 2.787873807e-12 1.432406395e-12)
(0 3.021044963e-12 1.705036515e-12)
(0 2.898760241e-12 2.125660485e-12)
(0 2.657656424e-12 2.456603555e-12)
(0 2.383741906e-12 2.60269071e-12)
(0 2.141552646e-12 2.546012056e-12)
(0 1.993650719e-12 2.289300843e-12)
(0 1.978039939e-12 1.833179858e-12)
(0 2.080800138e-12 1.197291869e-12)
(0 2.237369429e-12 4.684058264e-13)
(0 2.379136994e-12 -1.952386277e-13)
(0 2.491065054e-12 -6.483984254e-13)
(0 2.517080207e-12 -9.327678922e-13)
(0 1.930262225e-11 -1.514313361e-11)
(0 1.775430267e-11 -3.543678669e-11)
(0 1.766671705e-11 -5.499044791e-11)
(0 1.873310436e-11 -7.62090102e-11)
(0 2.101831439e-11 -9.983967507e-11)
(0 2.470285431e-11 -1.261358809e-10)
(0 3.007315844e-11 -1.549509769e-10)
(0 3.746285589e-11 -1.854762742e-10)
(0 4.708251722e-11 -2.157315082e-10)
(0 5.854240118e-11 -2.417754171e-10)
(0 6.96555525e-11 -2.565506896e-10)
(0 7.373580412e-11 -2.484293721e-10)
(0 5.54499083e-11 -2.007419039e-10)
(0 -2.022101985e-11 -1.047702901e-10)
(0 -5.120737165e-12 1.861246067e-24)
(0 -4.911798543e-12 -5.031029937e-12)
(0 1.721849729e-12 -6.12636979e-13)
(0 3.302955199e-12 9.030243952e-13)
(0 3.545475713e-12 1.755993039e-12)
(0 3.33401528e-12 2.405787377e-12)
(0 2.912641718e-12 2.836547506e-12)
(0 2.412747284e-12 2.994614806e-12)
(0 1.937980248e-12 2.870045412e-12)
(0 1.571345129e-12 2.48011752e-12)
(0 1.373008119e-12 1.857717384e-12)
(0 1.371492466e-12 1.073318083e-12)
(0 1.54835085e-12 2.607085259e-13)
(0 1.835492736e-12 -4.150813575e-13)
(0 2.164979374e-12 -8.694455444e-13)
(0 2.4079638e-12 -9.811362813e-13)
(0 -3.546450023e-13 -2.836671576e-11)
(0 -3.196010462e-12 -4.054789881e-11)
(0 -5.060312727e-12 -5.789474304e-11)
(0 -6.514138872e-12 -7.892907392e-11)
(0 -7.669450221e-12 -1.035051212e-10)
(0 -8.493464536e-12 -1.317788691e-10)
(0 -8.768680916e-12 -1.637976313e-10)
(0 -8.016823772e-12 -1.990884412e-10)
(0 -5.336760471e-12 -2.360542898e-10)
(0 9.191475472e-13 -2.710318844e-10)
(0 1.384097844e-11 -2.968274298e-10)
(0 3.959464943e-11 -3.006161358e-10)
(0 8.809247814e-11 -2.61962883e-10)
(0 1.952485894e-10 -1.598762639e-10)
(0 9.823295558e-12 3.15762547e-24)
(0 1.425418675e-11 -4.96909303e-12)
(0 7.215041362e-12 -2.709754956e-13)
(0 5.156503826e-12 1.036179337e-12)
(0 4.523807947e-12 2.009948441e-12)
(0 3.979314709e-12 2.904715629e-12)
(0 3.246483853e-12 3.489004594e-12)
(0 2.417239812e-12 3.669279562e-12)
(0 1.627055359e-12 3.45977212e-12)
(0 9.8132269e-13 2.90378832e-12)
(0 5.712405008e-13 2.044469196e-12)
(0 4.837912784e-13 9.780060005e-13)
(0 7.489699872e-13 -8.36188805e-14)
(0 1.248982923e-12 -8.560058712e-13)
(0 1.925010129e-12 -1.432505279e-12)
(0 2.959090618e-12 -1.694814512e-12)
(0 -2.416080882e-11 -3.314085526e-11)
(0 -2.598250789e-11 -4.26115975e-11)
(0 -2.89040118e-11 -5.815088628e-11)
(0 -3.284870717e-11 -7.825401189e-11)
(0 -3.791910322e-11 -1.025870474e-10)
(0 -4.424936055e-11 -1.31325013e-10)
(0 -5.188350968e-11 -1.647517828e-10)
(0 -6.06159425e-11 -2.0287246e-10)
(0 -6.972573765e-11 -2.449156123e-10)
(0 -7.752407609e-11 -2.886414545e-10)
(0 -8.060779787e-11 -3.293870112e-10)
(0 -7.267199974e-11 -3.585652581e-10)
(0 -4.459195548e-11 -3.598255808e-10)
(0 2.831143207e-11 -2.895968828e-10)
(0 1.478555714e-11 -6.891960417e-25)
(0 1.96926133e-11 1.030131593e-11)
(0 7.727122096e-12 3.461923727e-12)
(0 5.583879134e-12 1.503116585e-12)
(0 5.414012004e-12 2.342478386e-12)
(0 4.813071433e-12 3.713715543e-12)
(0 3.677205651e-12 4.545378491e-12)
(0 2.38351481e-12 4.734018577e-12)
(0 1.172489006e-12 4.396433291e-12)
(0 1.560422048e-13 3.631047716e-12)
(0 -5.527741994e-13 2.438448341e-12)
(0 -7.565956109e-13 8.772821082e-13)
(0 -2.856610216e-13 -7.162952519e-13)
(0 4.866063389e-13 -1.491971665e-12)
(0 1.326170733e-12 -2.310841282e-12)
(0 4.893389575e-12 -5.417879205e-12)
(0 -4.566351074e-11 -3.377535224e-11)
(0 -4.777141936e-11 -4.16565994e-11)
(0 -5.20346485e-11 -5.533925209e-11)
(0 -5.860152111e-11 -7.367662008e-11)
(0 -6.781436572e-11 -9.635978536e-11)
(0 -8.014463529e-11 -1.235971846e-10)
(0 -9.611996175e-11 -1.558175736e-10)
(0 -1.162027615e-10 -1.933492818e-10)
(0 -1.406209136e-10 -2.359967663e-10)
(0 -1.692137412e-10 -2.824347446e-10)
(0 -2.015551288e-10 -3.293037939e-10)
(0 -2.380523469e-10 -3.69733199e-10)
(0 -2.838282394e-10 -3.906019593e-10)
(0 -3.495397381e-10 -3.660623309e-10)
(0 -4.774390967e-10 -2.677559184e-10)
(0 -7.159276845e-12 1.008983019e-11)
(0 -6.333933822e-12 -2.43589437e-12)
(0 4.037058483e-12 -8.293953616e-13)
(0 6.734406905e-12 2.141853757e-12)
(0 6.182214815e-12 5.061424296e-12)
(0 4.266786888e-12 6.244655519e-12)
(0 2.268294612e-12 6.325280993e-12)
(0 5.240844977e-13 5.761172233e-12)
(0 -9.766622599e-13 4.785255263e-12)
(0 -2.182525107e-12 3.199977266e-12)
(0 -2.670952316e-12 8.111611573e-13)
(0 -1.620283787e-12 -2.164550773e-12)
(0 -3.455631072e-13 -2.085399145e-12)
(0 -8.945314177e-12 6.044138005e-12)
(0 -9.357428305e-12 -1.692844308e-11)
(0 -6.463503372e-11 -3.140475359e-11)
(0 -6.731295619e-11 -3.793593511e-11)
(0 -7.297112866e-11 -4.948797445e-11)
(0 -8.202109356e-11 -6.518175215e-11)
(0 -9.511466725e-11 -8.474576192e-11)
(0 -1.131234134e-10 -1.083482565e-10)
(0 -1.371127475e-10 -1.363929104e-10)
(0 -1.682387317e-10 -1.692574886e-10)
(0 -2.075419836e-10 -2.069060638e-10)
(0 -2.555936967e-10 -2.482533649e-10)
(0 -3.118835899e-10 -2.900558137e-10)
(0 -3.735207086e-10 -3.248928084e-10)
(0 -4.317759387e-10 -3.376279272e-10)
(0 -4.602805288e-10 -3.005624618e-10)
(0 -3.974556499e-10 -1.838526261e-10)
(0 -2.867892531e-12 -2.485440472e-24)
(0 1.558672415e-12 -1.771611011e-11)
(0 1.016162726e-11 -4.52800661e-12)
(0 1.130483166e-11 1.99171635e-12)
(0 8.915873196e-12 8.144573743e-12)
(0 4.941062349e-12 9.0467829e-12)
(0 1.900031524e-12 8.561915836e-12)
(0 -3.675367248e-13 7.537962346e-12)
(0 -2.405152762e-12 6.548350575e-12)
(0 -4.526868306e-12 4.766764228e-12)
(0 -6.121123652e-12 1.335453671e-12)
(0 -3.182221325e-12 -6.665519282e-12)
(0 8.695295116e-12 -1.072875818e-11)
(0 3.296812602e-11 -9.835131549e-13)
(0 -2.000313388e-12 2.548212332e-11)
)
;

boundaryField
{
    lowerWall
    {
        type            slip;
    }
    atmosphere
    {
        type            pressureInletOutletVelocity;
        tangentialVelocity uniform (0 0 0);
        value           nonuniform List<vector> 
20
(
(0 1.42771431e-10 0)
(0 1.421185524e-10 0)
(0 1.409796316e-10 0)
(0 1.392412359e-10 0)
(0 1.367553379e-10 0)
(0 1.33348678e-10 0)
(0 1.288310242e-10 0)
(0 1.230049368e-10 0)
(0 1.156768448e-10 0)
(0 1.066698157e-10 0)
(0 9.584063999e-11 0)
(0 8.310689853e-11 0)
(0 6.84961869e-11 0)
(0 5.225056829e-11 0)
(0 3.511996369e-11 0)
(0 1.930262225e-11 0)
(0 -3.546450023e-13 -2.836671576e-11)
(0 -2.416080882e-11 -3.314085526e-11)
(0 -4.566351074e-11 -3.377535224e-11)
(0 -6.463503372e-11 -3.140475359e-11)
)
;
    }
    rightWall
    {
        type            empty;
    }
    leftWall
    {
        type            empty;
    }
    frontAndBack
    {
        type            slip;
    }
    procBoundary0to1
    {
        type            processor;
        value           nonuniform List<vector> 
20
(
(0 2.316669972e-12 4.228817567e-14)
(0 2.39376844e-12 1.343601009e-13)
(0 2.559790378e-12 2.520571442e-13)
(0 2.842183069e-12 4.254643662e-13)
(0 3.293692325e-12 7.159091683e-13)
(0 4.01251777e-12 1.268041069e-12)
(0 5.182309609e-12 2.467886653e-12)
(0 7.140876869e-12 5.474352936e-12)
(0 1.044035708e-11 1.417106982e-11)
(0 -6.769250141e-12 2.056890044e-11)
(0 -3.772056132e-11 2.083599904e-12)
(0 -4.364029174e-12 -1.406873158e-11)
(0 3.883410776e-12 -8.116625194e-12)
(0 2.383357679e-12 -3.198335852e-12)
(0 1.938082231e-12 -1.471177091e-12)
(0 1.990021341e-12 -4.274351308e-13)
(0 2.609210985e-12 1.052920504e-12)
(0 4.521233892e-12 5.4972516e-12)
(0 -2.823596344e-12 1.084562865e-11)
(0 -3.439050801e-11 -5.706955759e-12)
)
;
    }
    procBoundary0to2
    {
        type            processor;
        value           nonuniform List<vector> 
30
(
(0 -8.051736016e-11 -2.693912494e-11)
(0 -8.370504346e-11 -3.204392996e-11)
(0 -9.05025148e-11 -4.108149682e-11)
(0 -1.015149116e-10 -5.332015929e-11)
(0 -1.176604211e-10 -6.845201031e-11)
(0 -1.401611768e-10 -8.649635899e-11)
(0 -1.705417658e-10 -1.076692609e-10)
(0 -2.105198577e-10 -1.321982853e-10)
(0 -2.61721016e-10 -1.600447037e-10)
(0 -3.250774371e-10 -1.904626788e-10)
(0 -3.996126078e-10 -2.213299865e-10)
(0 -4.799252157e-10 -2.482505212e-10)
(0 -5.509561576e-10 -2.638302579e-10)
(0 -5.77632245e-10 -2.585361999e-10)
(0 -4.94620828e-10 -2.271426483e-10)
(0 -1.847154697e-10 -1.598707743e-10)
(0 1.401344648e-11 -1.25059427e-11)
(0 2.374488489e-11 -1.558672384e-12)
(0 1.940698725e-11 2.207816995e-12)
(0 1.323728136e-11 1.647851632e-11)
(0 4.684128981e-12 1.323690253e-11)
(0 7.594740574e-13 1.133884152e-11)
(0 -1.489480763e-12 9.281034122e-12)
(0 -3.747860377e-12 9.103408614e-12)
(0 -7.39542201e-12 7.984685201e-12)
(0 -1.410323583e-11 6.431316445e-12)
(0 -1.368449564e-11 -1.510404687e-11)
(0 -3.092975449e-12 -2.47501756e-11)
(0 -1.773443139e-11 -8.425506206e-12)
(0 -1.883164618e-11 5.715708208e-11)
)
;
    }
}


// ************************************************************************* //
