/*--------------------------------*- C++ -*----------------------------------*\
  =========                 |
  \\      /  F ield         | OpenFOAM: The Open Source CFD Toolbox
   \\    /   O peration     | Website:  https://openfoam.org
    \\  /    A nd           | Version:  6
     \\/     M anipulation  |
\*---------------------------------------------------------------------------*/
FoamFile
{
    version     2.0;
    format      ascii;
    class       volScalarField;
    location    "0.0026";
    object      ViscousDissipation;
}
// * * * * * * * * * * * * * * * * * * * * * * * * * * * * * * * * * * * * * //

dimensions      [1 -1 -3 0 0 0 0];

internalField   nonuniform List<scalar> 
600
(
2.352881619e-22
9.809040553e-22
1.769891766e-21
2.292106037e-21
2.246163717e-21
1.493799144e-21
5.464141965e-22
1.201407317e-21
7.400842568e-21
2.606613465e-20
6.720572413e-20
1.420483708e-19
2.581318981e-19
4.1241671e-19
5.878942035e-19
7.615563874e-19
9.231999848e-19
1.082919187e-18
1.229436952e-18
1.240857842e-18
9.322821386e-19
4.121930013e-19
1.090394514e-19
4.460524892e-19
1.795006645e-18
4.233023194e-18
6.484077446e-18
6.052410807e-18
1.783249458e-18
2.073782179e-19
1.024362183e-21
1.804561968e-21
2.630458212e-21
3.231675289e-21
3.370345725e-21
2.978809731e-21
2.650727e-21
4.270138067e-21
1.186796911e-20
3.248805107e-20
7.636249637e-20
1.550594676e-19
2.760882023e-19
4.344622315e-19
6.070537273e-19
7.618398876e-19
8.899295833e-19
1.037824646e-18
1.261556104e-18
1.446083744e-18
1.287891211e-18
8.674860901e-19
6.778179055e-19
1.134895395e-18
2.675212169e-18
5.497529253e-18
8.100222508e-18
7.693596959e-18
3.212316119e-18
7.646237986e-19
2.667694977e-21
3.548124063e-21
4.511302625e-21
5.353232612e-21
5.931565942e-21
6.276665772e-21
7.077448934e-21
1.028486377e-20
1.996471436e-20
4.323747356e-20
9.067680197e-20
1.746395821e-19
3.032201089e-19
4.686876236e-19
6.359685795e-19
7.50224501e-19
7.926669808e-19
8.782940978e-19
1.233272115e-18
1.787906591e-18
1.895457941e-18
1.50175137e-18
1.320676238e-18
1.82910835e-18
3.728614525e-18
7.465230924e-18
1.096341205e-17
1.085928138e-17
6.620534696e-18
2.055755118e-18
5.798175152e-21
6.86545383e-21
8.107912151e-21
9.420853376e-21
1.079831237e-20
1.241009405e-20
1.507054454e-20
2.079878544e-20
3.365605833e-20
6.080645185e-20
1.132938032e-19
2.049072557e-19
3.456708472e-19
5.258913555e-19
6.931171198e-19
7.482936099e-19
6.283362463e-19
5.539342879e-19
1.141419923e-18
2.398372707e-18
2.86337929e-18
2.08403765e-18
1.508854211e-18
1.885052e-18
4.736492066e-18
1.049858704e-17
1.57091478e-17
1.631698977e-17
1.386036081e-17
4.774659013e-18
1.133009567e-20
1.271763583e-20
1.446829767e-20
1.660564653e-20
1.928634757e-20
2.283592026e-20
2.81843351e-20
3.736228234e-20
5.43228858e-20
8.61753275e-20
1.44608998e-19
2.460537146e-19
4.0606103e-19
6.189165242e-19
8.162484422e-19
8.346493807e-19
5.057205638e-19
1.929236277e-19
1.514449495e-18
3.843141008e-18
4.465775983e-18
2.316025491e-18
7.601556526e-19
1.09983775e-18
6.539143771e-18
1.557479878e-17
2.293600202e-17
2.420030105e-17
2.747067302e-17
1.02129243e-17
2.054263983e-20
2.243470668e-20
2.501708891e-20
2.84582316e-20
3.307377109e-20
3.931250898e-20
4.813445952e-20
6.142941852e-20
8.281787669e-20
1.191012589e-19
1.826355151e-19
2.941931847e-19
4.82238503e-19
7.637662235e-19
1.080385834e-18
1.230190064e-18
9.951987259e-19
7.923566192e-19
5.359221528e-18
7.720160877e-18
7.855835424e-18
2.782252362e-18
5.028959843e-19
3.175645817e-18
1.669097955e-17
2.422631981e-17
3.085267825e-17
3.021429696e-17
4.867111756e-17
2.053702979e-17
3.507707249e-20
3.770571655e-20
4.15314342e-20
4.685823516e-20
5.410300214e-20
6.37109004e-20
7.644121651e-20
9.369600218e-20
1.183161572e-19
1.562726646e-19
2.201486147e-19
3.361401703e-19
5.559000236e-19
9.631101473e-19
1.607924077e-18
2.394590391e-18
3.939769034e-18
5.730859706e-18
2.935100356e-17
1.3323117e-17
4.221045022e-18
1.808838737e-18
2.561991463e-18
1.701789074e-17
1.415096671e-17
2.488995305e-17
3.351339689e-17
2.132064966e-17
6.598328915e-17
3.862127143e-17
5.686570514e-20
6.050644374e-20
6.60690253e-20
7.394436267e-20
8.450705693e-20
9.790789441e-20
1.141906925e-19
1.335021214e-19
1.569619426e-19
1.888353465e-19
2.41379719e-19
3.459074646e-19
5.806204242e-19
1.149857433e-18
2.519998366e-18
5.452698637e-18
1.292398248e-17
2.264401221e-17
7.79795644e-19
1.05882784e-17
6.962899509e-18
1.705638295e-18
1.714733977e-18
1.325260083e-18
6.16311147e-18
2.646823399e-17
6.509258374e-17
5.941188844e-17
3.264701147e-17
6.675174472e-17
8.797743126e-20
9.295512033e-20
1.00861187e-19
1.120910453e-19
1.267398324e-19
1.441534132e-19
1.626921434e-19
1.7966758e-19
1.924105414e-19
2.01913184e-19
2.218999853e-19
2.989650783e-19
5.541208695e-19
1.292562783e-18
3.888500193e-18
1.972520426e-17
4.587816542e-18
4.316310141e-18
1.384752074e-17
1.694605269e-16
1.65045749e-16
4.597349713e-17
6.345743597e-17
7.591576337e-17
1.83715874e-16
8.994653782e-17
4.153206908e-17
1.446722942e-16
8.916580429e-17
9.628371705e-17
1.303479929e-19
1.370528487e-19
1.48131659e-19
1.639311625e-19
1.840205133e-19
2.063150059e-19
2.261378732e-19
2.354401108e-19
2.239859626e-19
1.865348128e-19
1.457758601e-19
2.175301731e-19
8.094275519e-19
3.069883101e-18
8.904790446e-18
4.502669357e-18
6.841979144e-18
8.640072911e-17
1.878303465e-16
1.876874522e-16
5.494128407e-17
2.972699966e-17
1.351922764e-17
4.936053876e-17
9.745298013e-17
1.270059498e-16
8.228394796e-18
2.208389909e-16
1.003761317e-16
3.271011119e-20
1.853264166e-19
1.941782313e-19
2.09647384e-19
2.321510322e-19
2.607175386e-19
2.915648615e-19
3.161167288e-19
3.189139021e-19
2.787297871e-19
1.835884255e-19
9.365958163e-20
3.502068513e-19
2.142290453e-18
8.246908291e-18
2.26415072e-17
3.683051788e-18
8.949593242e-17
1.816908176e-16
4.060738698e-17
1.303944902e-17
4.388686898e-18
1.305525829e-18
1.533776998e-18
5.682555811e-18
1.660179623e-17
3.16492295e-17
3.649441165e-17
3.417731091e-16
2.865959917e-16
1.940183473e-18
2.529346051e-19
2.64093447e-19
2.856246542e-19
3.184216855e-19
3.61447901e-19
4.100730461e-19
4.533010189e-19
4.707932487e-19
4.35009892e-19
3.391489805e-19
3.364486799e-19
1.349863818e-18
7.035450153e-18
3.497162723e-17
7.618635651e-19
1.288810804e-17
1.92232214e-16
4.344055208e-17
2.297318614e-18
1.361545533e-18
5.397706651e-19
1.902270463e-20
1.61357305e-19
8.444098723e-19
3.489650741e-18
8.075416131e-18
1.489083474e-17
1.495801321e-16
1.36119454e-16
2.009778896e-19
3.306923974e-19
3.431881361e-19
3.727132671e-19
4.209791052e-19
4.875910071e-19
5.690572765e-19
6.562081427e-19
7.324965433e-19
7.809003243e-19
8.200788708e-19
1.026034888e-18
2.064154852e-18
5.531770496e-18
1.41216277e-17
1.141611661e-17
1.569718408e-16
1.841307273e-16
1.31617297e-17
1.475328447e-18
6.495677346e-19
1.824701016e-19
2.445907245e-20
2.246532612e-20
1.988674326e-19
1.088233921e-18
2.623321248e-18
3.652521938e-18
2.828124401e-18
6.184953924e-17
5.590866026e-17
4.112012009e-19
4.21986417e-19
4.617044974e-19
5.31942494e-19
6.327411174e-19
7.632711369e-19
9.184718914e-19
1.086601584e-18
1.254829792e-18
1.434854498e-18
1.716774091e-18
2.285571295e-18
3.831522997e-18
3.928843899e-18
7.133023157e-18
1.590928123e-16
4.610146518e-17
3.137344146e-18
7.120371578e-19
4.246760147e-19
1.745027365e-19
4.305473198e-20
1.258497765e-20
1.410595992e-19
6.398233504e-19
1.360664047e-18
1.599160727e-18
9.298874257e-19
1.665792809e-19
7.216771054e-18
4.75028589e-19
4.834780103e-19
5.376182356e-19
6.377199297e-19
7.827231325e-19
9.755530453e-19
1.214094737e-18
1.47998982e-18
1.723213094e-18
1.84221796e-18
1.676015372e-18
1.215938668e-18
2.457357332e-18
1.550022426e-18
1.434596719e-18
8.568175771e-17
3.146280311e-17
9.818656267e-19
3.15977664e-19
4.52327577e-19
3.205551556e-19
1.890738062e-19
1.674263106e-19
3.280616568e-19
7.346830952e-19
1.19175933e-18
1.247015164e-18
7.962128216e-19
3.60301414e-19
5.43427517e-19
6.353608635e-19
5.260831842e-19
5.902725892e-19
7.248455408e-19
9.20806401e-19
1.186989059e-18
1.527264893e-18
1.917799243e-18
2.267092093e-18
2.354804054e-18
1.826854998e-18
7.919748789e-19
3.189221627e-18
1.354051764e-17
1.111284183e-18
1.026643829e-16
4.35482594e-17
4.483092618e-18
1.405738962e-18
1.019119981e-18
7.951491715e-19
6.371494604e-19
6.318020313e-19
8.373025998e-19
1.232531865e-18
1.579170994e-18
1.509362196e-18
1.027844209e-18
4.827361515e-19
3.055033023e-19
2.844269715e-19
4.446686064e-19
5.934535835e-19
7.763276109e-19
1.027582286e-18
1.376530788e-18
1.846155208e-18
2.434332323e-18
3.074582022e-18
3.587315454e-18
3.738030395e-18
3.866638787e-18
8.344211794e-18
1.122611286e-17
6.047037918e-18
1.640067892e-16
5.228403918e-17
5.489495635e-18
2.656061317e-18
2.352866255e-18
1.990659861e-18
1.72249238e-18
1.696218284e-18
1.965067422e-18
2.439609473e-18
2.782764071e-18
2.520522081e-18
1.884642417e-18
1.953961459e-18
9.910207981e-18
2.484779066e-19
3.993048061e-19
5.680789529e-19
7.82269517e-19
1.082205633e-18
1.514393653e-18
2.130549214e-18
2.976519423e-18
4.069456128e-18
5.37927806e-18
6.884519793e-18
8.82199067e-18
1.194669937e-17
9.463732897e-18
1.016578311e-17
1.334508714e-16
1.382405004e-16
3.455960479e-18
3.165830234e-18
5.296919936e-18
4.749559169e-18
4.076892792e-18
3.869205952e-18
4.324265063e-18
5.284808838e-18
6.098724581e-18
5.214630587e-18
2.803002368e-18
5.634119445e-17
7.696424214e-17
1.929437028e-19
3.347090264e-19
5.065968178e-19
7.366968257e-19
1.070877375e-18
1.572033091e-18
2.32202968e-18
3.416496701e-18
4.945743594e-18
6.959141722e-18
9.414645796e-18
1.210127591e-17
1.41309637e-17
1.779620161e-17
2.384030133e-17
2.958388569e-17
2.194684615e-16
7.594053744e-17
2.260136139e-17
1.810710378e-17
1.182204761e-17
8.880439007e-18
7.665279917e-18
8.827888141e-18
1.215808249e-17
1.770657902e-17
1.755911156e-17
8.34551225e-17
6.83198497e-17
1.655918597e-19
1.483295885e-19
2.659355312e-19
4.233945411e-19
6.503029362e-19
9.974674126e-19
1.541120076e-18
2.388308129e-18
3.672146385e-18
5.516341833e-18
7.924179958e-18
1.04924462e-17
1.179716316e-17
8.742068743e-18
1.663856908e-18
3.232538593e-17
2.803388261e-17
1.20823716e-16
2.659533667e-16
9.839569195e-17
8.244103316e-17
3.00185676e-17
1.764320684e-17
1.190038348e-17
1.56417746e-17
2.77579789e-17
8.986399774e-17
2.067169158e-16
5.563406155e-16
2.133259355e-16
1.686080287e-18
)
;

boundaryField
{
    lowerWall
    {
        type            calculated;
        value           nonuniform 0();
    }
    atmosphere
    {
        type            calculated;
        value           nonuniform List<scalar> 
20
(
1.528603322e-22
9.401360377e-22
2.580915323e-21
5.706145817e-21
1.122687041e-20
2.041770461e-20
3.491494642e-20
5.664549114e-20
8.767356446e-20
1.299379056e-19
1.848351274e-19
2.526331159e-19
3.318828713e-19
4.191716248e-19
5.105604879e-19
7.852089511e-19
1.872931584e-19
1.708394784e-19
1.34754364e-19
1.056295253e-19
)
;
    }
    rightWall
    {
        type            empty;
    }
    leftWall
    {
        type            empty;
    }
    frontAndBack
    {
        type            calculated;
        value           nonuniform List<scalar> 
30
(
1.47957513e-22
8.955829932e-22
1.685643552e-21
2.201677088e-21
2.132669959e-21
1.327827107e-21
2.837615798e-22
7.863645206e-22
6.778176122e-21
2.520446162e-20
6.612735627e-20
1.408491662e-19
2.570129097e-19
4.117982347e-19
5.887488533e-19
7.657104462e-19
9.325516845e-19
1.096241318e-18
1.238465858e-18
1.233699563e-18
9.078612022e-19
3.70586181e-19
4.475315162e-20
3.63131592e-19
1.699888869e-18
4.114114825e-18
6.344619636e-18
5.937862994e-18
1.724674748e-18
2.071768832e-19
)
;
    }
    procBoundary0to1
    {
        type            processor;
        value           nonuniform List<scalar> 
20
(
3.296419074e-19
3.756722023e-19
4.927764539e-19
7.594206098e-19
1.42252167e-18
3.418714185e-18
1.145408027e-17
5.893872118e-17
1.266643919e-16
2.746338502e-16
5.982630057e-16
1.319702049e-16
4.667146792e-17
1.807740602e-17
3.270604592e-18
2.818011614e-18
1.581936396e-17
3.670231981e-17
1.062191981e-16
4.917676919e-16
)
;
    }
    procBoundary0to2
    {
        type            processor;
        value           nonuniform List<scalar> 
30
(
1.069050022e-19
1.969928023e-19
3.30808771e-19
5.400254894e-19
8.796541609e-19
1.436346178e-18
2.337790553e-18
3.75003927e-18
5.835618967e-18
8.615068976e-18
1.163674223e-17
1.34190496e-17
1.138316256e-17
6.951874933e-18
2.915824939e-17
8.369448262e-17
6.841814363e-17
2.261041983e-17
1.137739427e-16
4.012742193e-16
7.867314288e-17
3.1115964e-17
1.002791916e-17
2.281885123e-17
5.143572361e-17
5.013065155e-16
4.09153908e-16
1.167376957e-17
5.931610946e-18
5.772200898e-20
)
;
    }
}


// ************************************************************************* //
