/*--------------------------------*- C++ -*----------------------------------*\
  =========                 |
  \\      /  F ield         | OpenFOAM: The Open Source CFD Toolbox
   \\    /   O peration     | Website:  https://openfoam.org
    \\  /    A nd           | Version:  6
     \\/     M anipulation  |
\*---------------------------------------------------------------------------*/
FoamFile
{
    version     2.0;
    format      ascii;
    class       surfaceScalarField;
    location    "0.0032";
    object      phi;
}
// * * * * * * * * * * * * * * * * * * * * * * * * * * * * * * * * * * * * * //

dimensions      [0 3 -1 0 0 0 0];

internalField   nonuniform List<scalar> 
19000
(
2.218901546e-20
-5.427577708e-21
2.184110314e-20
-1.572732827e-20
2.108891979e-20
-2.53873953e-20
1.993906289e-20
-3.4576708e-20
1.840482896e-20
-4.347344438e-20
1.650018651e-20
-5.220493172e-20
1.42299477e-20
-6.085285465e-20
1.159361511e-20
-6.94663916e-20
8.583346486e-21
-7.807419286e-20
5.189025348e-21
-8.669126541e-20
1.39568901e-21
-9.532441135e-20
-2.812169924e-21
-1.039744759e-19
-7.453901913e-21
-1.12638821e-19
-1.254887368e-20
-1.213117359e-19
-1.81201474e-20
-1.29985776e-19
-2.419083808e-20
-1.386514241e-19
-3.078795263e-20
-1.472979547e-19
-3.793881293e-20
-1.559127693e-19
-4.567497348e-20
-1.644820163e-19
-5.402869124e-20
-1.729897698e-19
-6.303689407e-20
-1.814185372e-19
-7.273764162e-20
-1.897483136e-19
-8.317406686e-20
-1.979570037e-19
-9.439078695e-20
-2.060193977e-19
-1.064378115e-19
-2.139075136e-19
-1.193669312e-19
-2.21589541e-19
-1.332355518e-19
-2.290301694e-19
-1.481029004e-19
-2.361894679e-19
-1.640334938e-19
-2.430231511e-19
-1.810929001e-19
-2.494813942e-19
-1.993507141e-19
-2.555090324e-19
-2.188759489e-19
-2.610444653e-19
-2.397396352e-19
-2.66020093e-19
-2.620098228e-19
-2.703615636e-19
-2.85753374e-19
-2.739886323e-19
-3.110297989e-19
-2.768148345e-19
-3.378913275e-19
-2.787486982e-19
-3.663749198e-19
-2.796939852e-19
-3.965004292e-19
-2.795518648e-19
-4.28261034e-19
-2.78222759e-19
-4.616196637e-19
-2.756108456e-19
-4.964975121e-19
-2.716287916e-19
-5.327677027e-19
-2.66205339e-19
-5.702408234e-19
-2.592933866e-19
-6.086555915e-19
-2.508812524e-19
-6.476624879e-19
-2.410051029e-19
-6.868133689e-19
-2.297653275e-19
-7.255452683e-19
-2.173445019e-19
-7.631706767e-19
-2.040286524e-19
-7.988633915e-19
-1.902284517e-19
-8.316516265e-19
-1.765003589e-19
-8.604077751e-19
-1.635629274e-19
-8.838446327e-19
-1.523068646e-19
-9.005073836e-19
-1.437938909e-19
-9.087715898e-19
-1.392445691e-19
-9.068438777e-19
-1.400144037e-19
-8.927907923e-19
-1.475620588e-19
-8.646103889e-19
-1.63404432e-19
-8.20336281e-19
-1.890333363e-19
-7.579668862e-19
-2.257216503e-19
-6.744952289e-19
-2.74131288e-19
-5.628408392e-19
-3.339598868e-19
-4.069527397e-19
-4.049926618e-19
-1.878014183e-19
-4.933674553e-19
8.360533537e-20
-6.245360933e-19
1.395186765e-19
-8.172778943e-19
-1.275999099e-19
-8.382201952e-19
-6.937769886e-21
-3.320478792e-19
1.250725135e-21
6.937766047e-21
2.57256846e-21
3.538065328e-23
7.281071686e-21
-1.380450264e-20
2.303046942e-20
-3.196368065e-20
2.811186201e-20
-1.810716754e-20
2.655370843e-20
-6.487445658e-21
2.611623463e-20
-5.059523354e-21
2.751896723e-20
-5.397310297e-21
2.983257364e-20
-4.499425923e-21
3.215875608e-20
-1.822706981e-21
3.382467257e-20
2.499910993e-21
3.424581604e-20
8.216434078e-21
3.313700636e-20
1.462615694e-20
3.061155914e-20
2.082351055e-20
2.699912403e-20
2.617069117e-20
2.269951014e-20
3.033056668e-20
1.811233473e-20
3.318741464e-20
1.356985289e-20
3.483206163e-20
9.281902518e-21
3.551496559e-20
5.322021585e-21
3.555607852e-20
1.646698669e-21
3.525603205e-20
-1.866491546e-21
3.483734377e-20
-5.379867351e-21
3.441496001e-20
-9.055064373e-21
3.39861547e-20
-1.301332707e-20
3.34310927e-20
-1.72936648e-20
3.252452816e-20
-2.181833351e-20
3.096601792e-20
-2.637471426e-20
2.843946685e-20
-3.063146923e-20
2.470368199e-20
-3.419453915e-20
1.96828769e-20
-3.667773516e-20
1.351171171e-20
-3.777160768e-20
6.542477954e-21
-3.738595215e-20
-5.779301585e-22
-3.582898111e-20
-6.945029895e-21
-3.370492464e-20
-1.186273687e-20
-3.17038468e-20
-1.508594088e-20
-3.073738544e-20
-1.648501018e-20
-3.17473118e-20
-1.660015252e-20
-3.40270389e-20
-1.841268974e-20
-2.985562475e-20
-3.028938087e-20
-1.528603091e-20
-4.42223801e-20
-1.19604295e-20
-2.611183485e-20
-1.213181159e-20
-1.231899336e-20
-5.430470461e-21
-5.430474263e-21
-1.508300105e-19
-6.839380619e-20
-1.015386719e-18
2.880645348e-19
-1.255049125e-18
1.155590205e-18
-1.045439906e-18
2.074683314e-18
-6.646805787e-19
2.539237817e-18
-2.573477588e-19
2.40696954e-18
8.967241971e-21
1.579230031e-18
-1.269723739e-31
1.386891147e-20
-6.042442651e-21
1.35220899e-20
-1.648567772e-20
1.268621284e-20
-2.57699358e-20
1.143160693e-20
-3.442309324e-20
9.800423077e-21
-4.275795776e-20
7.815832687e-21
-5.094374282e-20
5.483806705e-21
-5.907064497e-20
2.801615132e-21
-6.718535405e-20
-2.406896556e-22
-7.531149229e-20
-3.655500991e-21
-8.345864418e-20
-7.458906696e-21
-9.162899259e-20
-1.166754815e-20
-9.981921368e-20
-1.630086196e-20
-1.080233578e-19
-2.137846941e-20
-1.162326727e-19
-2.692276532e-20
-1.244373255e-19
-3.295645813e-20
-1.326254912e-19
-3.950527609e-20
-1.407846428e-19
-4.659555196e-20
-1.489003419e-19
-5.425699427e-20
-1.569573265e-19
-6.25203043e-20
-1.649381637e-19
-7.141997949e-20
-1.728242502e-19
-8.099191045e-20
-1.805943614e-19
-9.127614772e-20
-1.882255836e-19
-1.023144645e-19
-1.956918119e-19
-1.141530953e-19
-2.029646169e-19
-1.268402862e-19
-2.10011736e-19
-1.404289384e-19
-2.1679793e-19
-1.549739445e-19
-2.232834246e-19
-1.705344641e-19
-2.294247272e-19
-1.871708523e-19
-2.351730505e-19
-2.049465508e-19
-2.40475138e-19
-2.239247816e-19
-2.452718746e-19
-2.441701964e-19
-2.494994322e-19
-2.657452147e-19
-2.530882937e-19
-2.887108731e-19
-2.559648578e-19
-3.131219855e-19
-2.580509388e-19
-3.39026444e-19
-2.592658122e-19
-3.664589402e-19
-2.595264731e-19
-3.954390111e-19
-2.587509122e-19
-4.259638451e-19
-2.568602906e-19
-4.580051609e-19
-2.537847616e-19
-4.915004082e-19
-2.494686478e-19
-5.263472072e-19
-2.438793238e-19
-5.623920418e-19
-2.370157438e-19
-5.994225644e-19
-2.289210996e-19
-6.371553384e-19
-2.196959846e-19
-6.752278374e-19
-2.095164789e-19
-7.131862205e-19
-1.986531368e-19
-7.504768658e-19
-1.874942745e-19
-7.864334935e-19
-1.765688631e-19
-8.202674061e-19
-1.665714742e-19
-8.510526809e-19
-1.583839894e-19
-8.77712664e-19
-1.530957691e-19
-8.989999558e-19
-1.520169649e-19
-9.134766046e-19
-1.566870817e-19
-9.194895261e-19
-1.688749982e-19
-9.151503197e-19
-1.905719295e-19
-8.983111773e-19
-2.239672719e-19
-8.665128495e-19
-2.713920775e-19
-8.168042629e-19
-3.352013882e-19
-7.453323601e-19
-4.17606103e-19
-6.469001571e-19
-5.206032159e-19
-5.168505819e-19
-6.464500712e-19
-3.615342862e-19
-7.984396853e-19
-2.236684931e-19
-9.77506247e-19
-2.094261662e-19
-1.154120349e-18
-2.78680651e-19
-1.209979772e-18
-1.356312081e-19
-8.45470906e-19
-5.651660258e-21
-3.005225357e-19
-1.126731495e-20
5.651664094e-21
-1.08781063e-20
-1.419195535e-20
3.688698253e-20
-7.972688465e-20
3.973158389e-20
-2.09512809e-20
2.798163078e-20
5.263239993e-21
2.577844768e-20
-2.855703949e-21
2.841685158e-20
-8.033475918e-21
3.250929262e-20
-8.588428491e-21
3.648137405e-20
-5.790194268e-21
3.954119572e-20
-5.553899517e-22
4.065553887e-20
7.106638373e-21
3.933435998e-20
1.595028856e-20
3.595873993e-20
2.420180663e-20
3.115899939e-20
3.097221292e-20
2.555635809e-20
3.593516775e-20
1.975698194e-20
3.898890487e-20
1.425275665e-20
4.033819127e-20
9.323015441e-21
4.044535305e-20
5.021975327e-21
3.985635376e-20
1.228010173e-21
3.904837228e-20
-2.288875305e-21
3.835313818e-20
-5.808672461e-21
3.793441751e-20
-9.610126573e-21
3.778773527e-20
-1.391989161e-20
3.774114495e-20
-1.885217486e-20
3.745813365e-20
-2.434488476e-20
3.645980759e-20
-3.011049912e-20
3.420433753e-20
-3.565227422e-20
3.024224434e-20
-4.036570448e-20
2.439401717e-20
-4.364696892e-20
1.678979097e-20
-4.489201582e-20
7.784683912e-21
-4.37530519e-20
-1.720312941e-21
-4.074668808e-20
-9.954051081e-21
-3.692812875e-20
-1.568482816e-20
-3.310291601e-20
-1.891393061e-20
-3.085252778e-20
-1.873868121e-20
-3.355984914e-20
-1.389473218e-20
-4.590372996e-20
-6.071962445e-21
-4.378862398e-20
-3.240951916e-20
2.824514243e-21
-9.083874769e-20
1.832412182e-21
-2.512125358e-20
-5.24329249e-21
-5.243288687e-21
-1.684573722e-19
-8.724336683e-20
-5.927380936e-19
-4.398282241e-20
-1.017589054e-18
2.774498219e-19
-1.156637412e-18
1.012126558e-18
-9.585680932e-19
1.693357844e-18
-5.926976511e-19
2.046585847e-18
-2.162497986e-19
1.925940446e-18
1.645930224e-20
1.252928052e-18
-1.052465857e-31
6.359293768e-21
-7.721780456e-21
5.830641856e-21
-1.807786497e-20
4.764855789e-21
-2.663948082e-20
3.324452226e-21
-3.454341031e-20
1.560001293e-21
-4.220069487e-20
-5.164538689e-22
-4.977923256e-20
-2.909461326e-21
-5.735182338e-20
-5.630745256e-21
-6.49500794e-20
-8.695037819e-21
-7.258540756e-20
-1.211888443e-20
-8.025899872e-20
-1.591971922e-20
-8.796603251e-20
-2.011601544e-20
-9.569851373e-20
-2.472694861e-20
-1.034461017e-19
-2.977283817e-20
-1.111972423e-19
-3.527494023e-20
-1.189390617e-19
-4.125595452e-20
-1.26657943e-19
-4.773983804e-20
-1.343390822e-19
-5.475234085e-20
-1.419668564e-19
-6.232084112e-20
-1.495242171e-19
-7.04749108e-20
-1.569929738e-19
-7.924615657e-20
-1.643531248e-19
-8.866875539e-20
-1.715830602e-19
-9.877925875e-20
-1.786588502e-19
-1.096170962e-19
-1.855544175e-19
-1.212243728e-19
-1.922407801e-19
-1.336463457e-19
-1.986862287e-19
-1.469311201e-19
-2.04855568e-19
-1.611298888e-19
-2.107102521e-19
-1.762962827e-19
-2.162076185e-19
-1.924862629e-19
-2.213010497e-19
-2.097572264e-19
-2.259392986e-19
-2.281677825e-19
-2.300668976e-19
-2.477767494e-19
-2.336238686e-19
-2.686425831e-19
-2.365465469e-19
-2.908216142e-19
-2.387677631e-19
-3.143663239e-19
-2.402181362e-19
-3.393223383e-19
-2.408268103e-19
-3.657257317e-19
-2.405236612e-19
-3.935995086e-19
-2.392415197e-19
-4.229505975e-19
-2.369204545e-19
-4.537657172e-19
-2.335126376e-19
-4.860069959e-19
-2.289895039e-19
-5.196058597e-19
-2.233495988e-19
-5.544567825e-19
-2.166290511e-19
-5.904102425e-19
-2.089134604e-19
-6.272666536e-19
-2.003533604e-19
-6.647700043e-19
-1.911820206e-19
-7.026019985e-19
-1.817370955e-19
-7.403749133e-19
-1.724842118e-19
-7.776240136e-19
-1.640436041e-19
-8.137977339e-19
-1.572176768e-19
-8.482460785e-19
-1.530203774e-19
-8.802050184e-19
-1.527058924e-19
-9.087776189e-19
-1.577969307e-19
-9.329107673e-19
-1.701096013e-19
-9.513694138e-19
-1.917742922e-19
-9.627081742e-19
-2.252468261e-19
-9.652425374e-19
-2.733016194e-19
-9.570212257e-19
-3.389871328e-19
-9.3582173e-19
-4.255168861e-19
-8.992953449e-19
-5.360609191e-19
-8.45725548e-19
-6.733861473e-19
-7.766354437e-19
-8.391128498e-19
-7.026982825e-19
-1.031494069e-18
-6.496657134e-19
-1.238343853e-18
-6.456230285e-19
-1.419168256e-18
-6.419166031e-19
-1.481577058e-18
-4.919643051e-19
-1.294526978e-18
-1.801320282e-19
-8.932167785e-19
-3.11109343e-20
-3.134273154e-19
-7.641303505e-20
3.11109343e-20
9.566258553e-20
-2.518027947e-19
6.594610442e-20
8.765906424e-21
1.986268669e-20
5.134684374e-20
2.060067561e-20
-3.591660654e-21
2.786189879e-20
-1.529137426e-20
3.530752668e-20
-1.602970579e-20
4.17161781e-20
-1.219477462e-20
4.72032238e-20
-6.037808198e-21
4.949918871e-20
4.814032388e-21
4.758587774e-20
1.786741656e-20
4.272914615e-20
2.906024532e-20
3.612195383e-20
3.758133591e-20
2.861009503e-20
4.344932566e-20
2.110626845e-20
4.649517098e-20
1.435991811e-20
4.708607004e-20
8.734016097e-21
4.607111272e-20
4.213994054e-21
4.437461338e-20
5.327758355e-22
4.272763483e-20
-2.707595957e-21
4.159247544e-20
-5.955354436e-21
4.118206078e-20
-9.656717059e-21
4.148938328e-20
-1.420290283e-20
4.228890951e-20
-1.985050059e-20
4.310836149e-20
-2.660035488e-20
4.321103481e-20
-3.407259209e-20
4.167475977e-20
-4.1500501e-20
3.76686696e-20
-4.796993053e-20
3.085972439e-20
-5.265207564e-20
2.146905466e-20
-5.439701235e-20
9.52572821e-21
-5.198678972e-20
-4.133893788e-21
-4.647746486e-20
-1.546784586e-20
-4.015723108e-20
-2.200793154e-20
-3.292766631e-20
-2.614661863e-20
-2.600857861e-20
-2.565820878e-20
-2.573707928e-20
-1.417380431e-20
-7.224128621e-20
4.042998359e-20
-1.022178517e-19
-2.434185695e-21
6.854200778e-20
-2.615997225e-19
2.17103771e-20
2.17103771e-20
-5.222958454e-20
-2.206189621e-19
-2.983392931e-19
-2.824645865e-19
-5.680654635e-19
-1.956296492e-19
-8.134112056e-19
1.637138969e-19
-8.597874208e-19
7.343099043e-19
-6.904401036e-19
1.261848698e-18
-3.959803803e-19
1.546609141e-18
-1.02328545e-19
1.462516626e-18
4.705121459e-20
9.465451165e-19
-8.7334009e-32
2.836584155e-22
-1.354415868e-20
-1.251368094e-21
-2.103781359e-20
-2.790876667e-21
-2.803712215e-20
-4.484142632e-21
-3.490064653e-20
-6.388459931e-21
-4.176583988e-20
-8.544595602e-21
-4.868669682e-20
-1.098236813e-20
-5.568175038e-20
-1.372578235e-20
-6.275275487e-20
-1.679631486e-20
-6.989348875e-20
-2.021377573e-20
-7.709333401e-20
-2.39976602e-20
-8.433967393e-20
-2.816707497e-20
-9.161850481e-20
-3.274165799e-20
-9.891534599e-20
-3.774129324e-20
-1.062150573e-19
-4.318691594e-20
-1.135023031e-19
-4.910015143e-20
-1.207610872e-19
-5.55040775e-20
-1.279750481e-19
-6.242284481e-20
-1.351268855e-19
-6.988245148e-20
-1.421985753e-19
-7.791037321e-20
-1.49170753e-19
-8.653632366e-20
-1.560228991e-19
-9.579185376e-20
-1.627326779e-19
-1.057110738e-19
-1.692760992e-19
-1.163302232e-19
-1.756268448e-19
-1.276884007e-19
-1.817564107e-19
-1.398270971e-19
-1.876334354e-19
-1.527908123e-19
-1.932238502e-19
-1.66626358e-19
-1.984901807e-19
-1.813831631e-19
-2.033917142e-19
-1.971123253e-19
-2.07883885e-19
-2.138667899e-19
-2.119185845e-19
-2.317004158e-19
-2.154438462e-19
-2.506681165e-19
-2.184045401e-19
-2.708246155e-19
-2.207424537e-19
-2.922238538e-19
-2.223974113e-19
-3.149167503e-19
-2.233078316e-19
-3.389497141e-19
-2.234124726e-19
-3.643620237e-19
-2.226520654e-19
-3.911844844e-19
-2.209726829e-19
-4.194370949e-19
-2.183295126e-19
-4.491274634e-19
-2.146927246e-19
-4.802474502e-19
-2.100538971e-19
-5.127701545e-19
-2.044346525e-19
-5.466457172e-19
-1.978964042e-19
-5.817987469e-19
-1.905532454e-19
-6.181257387e-19
-1.825870539e-19
-6.554942449e-19
-1.742665597e-19
-6.937412119e-19
-1.659688638e-19
-7.326719187e-19
-1.582046626e-19
-7.720573204e-19
-1.516457498e-19
-8.116313243e-19
-1.471562288e-19
-8.510853703e-19
-1.458259905e-19
-8.900614812e-19
-1.490074013e-19
-9.281419222e-19
-1.583526479e-19
-9.648382093e-19
-1.758509772e-19
-9.995793903e-19
-2.038606836e-19
-1.03170397e-18
-2.451296287e-19
-1.060460802e-18
-3.027888404e-19
-1.085039223e-18
-3.802942936e-19
-1.10467478e-18
-4.81270522e-19
-1.118943914e-18
-6.091772389e-19
-1.128453583e-18
-7.666405767e-19
-1.136121465e-18
-9.54098746e-19
-1.148382875e-18
-1.166967887e-18
-1.172415186e-18
-1.390063625e-18
-1.200721986e-18
-1.589102091e-18
-1.177018107e-18
-1.70658873e-18
-9.863047956e-19
-1.683971066e-18
-6.477441303e-19
-1.536294657e-18
6.45824081e-21
-1.270093186e-18
7.139858386e-19
-9.163624323e-19
3.562312864e-19
1.05952041e-19
1.085270424e-19
2.564701972e-19
-3.50758179e-20
1.94951707e-19
8.900962156e-21
-4.756572329e-20
2.712356733e-20
-3.351128276e-20
3.914245816e-20
-2.804690117e-20
4.787314475e-20
-2.092165562e-20
5.80550647e-20
-1.621722759e-20
6.255257315e-20
3.200875791e-22
5.877870676e-20
2.164326997e-20
5.125023721e-20
3.659217434e-20
4.198994357e-20
4.68448058e-20
3.165594051e-20
5.378649429e-20
2.169716792e-20
5.645689295e-20
1.33449606e-20
5.543974603e-20
7.03751681e-21
5.237770522e-20
2.567015793e-21
4.884272366e-20
-6.023838076e-22
4.589476609e-20
-3.118010635e-21
4.410718906e-20
-5.648031727e-21
4.37121931e-20
-8.857191133e-21
4.469957371e-20
-1.338345093e-20
4.681779026e-20
-1.974782714e-20
4.947619437e-20
-2.813663034e-20
5.160038859e-20
-3.807868245e-20
5.161565466e-20
-4.830944627e-20
4.789611424e-20
-5.736060074e-20
3.990937524e-20
-6.459540237e-20
2.869930152e-20
-6.80566347e-20
1.29818354e-20
-6.332074208e-20
-8.874340716e-21
-5.30175508e-20
-2.57706157e-20
-4.429591856e-20
-3.073302593e-20
-3.24392565e-20
-3.800422683e-20
-1.452417433e-20
-4.357800944e-20
2.886670871e-20
-5.756668053e-20
-1.151054562e-19
1.844014326e-19
-3.613833884e-19
2.438434385e-19
-7.214604953e-19
9.847738437e-20
-3.432846097e-19
-7.396127102e-19
-1.856420147e-19
-9.03654663e-19
-2.174642796e-19
-7.731432042e-19
-3.089378225e-19
-4.956698749e-19
-4.21659032e-19
-8.874764074e-20
-4.331376961e-19
4.042784642e-19
-3.158834856e-19
8.424119029e-19
-1.20716724e-19
1.088856084e-18
5.559070932e-20
1.049145161e-18
9.261357125e-20
6.824066465e-19
-7.252036377e-32
-6.888527736e-21
-2.061164385e-20
-8.716220912e-21
-2.446594864e-20
-1.040913685e-20
-2.963524557e-20
-1.21897126e-20
-3.535506822e-20
-1.41418887e-20
-4.138493338e-20
-1.632161365e-20
-4.762986371e-20
-1.876631474e-20
-5.404039499e-20
-2.15043427e-20
-6.058313979e-20
-2.455922006e-20
-6.723133231e-20
-2.795207019e-20
-7.396163991e-20
-3.170266377e-20
-8.075268337e-20
-3.583031148e-20
-8.758450149e-20
-4.03541637e-20
-9.443800436e-20
-4.529373155e-20
-1.012947969e-19
-5.066898187e-20
-1.081367816e-19
-5.650072988e-20
-1.149460234e-19
-6.281066296e-20
-1.217043825e-19
-6.962170927e-20
-1.283933912e-19
-7.695806186e-20
-1.34993885e-19
-8.484554929e-20
-1.41485892e-19
-9.331164218e-20
-1.47848271e-19
-1.023857846e-19
-1.540585832e-19
-1.120993659e-19
-1.600927309e-19
-1.224860361e-19
-1.659248401e-19
-1.335816767e-19
-1.715268851e-19
-1.454246842e-19
-1.768685838e-19
-1.580558227e-19
-1.819170328e-19
-1.715182954e-19
-1.866365894e-19
-1.858573518e-19
-1.909885557e-19
-2.011201958e-19
-1.949311827e-19
-2.17355588e-19
-1.984195419e-19
-2.346138531e-19
-2.014058347e-19
-2.529464994e-19
-2.038396222e-19
-2.724059352e-19
-2.056684671e-19
-2.930444404e-19
-2.068385319e-19
-3.149131078e-19
-2.072956806e-19
-3.380603609e-19
-2.069867719e-19
-3.6253109e-19
-2.058619287e-19
-3.883659166e-19
-2.038774983e-19
-4.156010478e-19
-2.010003367e-19
-4.442676285e-19
-1.972129856e-19
-4.743909653e-19
-1.925202336e-19
-5.059892473e-19
-1.869568098e-19
-5.390732035e-19
-1.805972215e-19
-5.736468492e-19
-1.735678266e-19
-6.097102121e-19
-1.66062106e-19
-6.472630093e-19
-1.583588298e-19
-6.863093515e-19
-1.50843528e-19
-7.26862644e-19
-1.440328118e-19
-7.689514609e-19
-1.386023599e-19
-8.126256587e-19
-1.354184996e-19
-8.579628773e-19
-1.355741816e-19
-9.050742573e-19
-1.404285205e-19
-9.541104549e-19
-1.516491346e-19
-1.00526872e-18
-1.712538783e-19
-1.058803625e-18
-2.016469716e-19
-1.115043272e-18
-2.456386584e-19
-1.174416984e-18
-3.064304212e-19
-1.237506952e-18
-3.875330392e-19
-1.30514873e-18
-4.9256344e-19
-1.378608993e-18
-6.248285013e-19
-1.459826959e-18
-7.865442867e-19
-1.551492975e-18
-9.774461063e-19
-1.656083451e-18
-1.192460393e-18
-1.77175402e-18
-1.418328792e-18
-1.882910373e-18
-1.630387952e-18
-1.948797872e-18
-1.793984603e-18
-1.912940869e-18
-1.877302355e-18
-1.730914211e-18
-1.871455955e-18
-1.358527279e-18
-1.756596057e-18
-8.219138597e-19
-1.269250811e-18
5.366790066e-31
-1.807480003e-19
-7.729293266e-19
1.287917839e-18
-2.775932501e-19
-3.003832748e-19
2.295540268e-20
-3.481139535e-19
3.258794877e-20
-4.314426424e-20
4.62677039e-20
-4.172227739e-20
5.257757278e-20
-2.722848762e-20
7.459237992e-20
-3.82268383e-20
8.38757556e-20
-8.958919737e-21
7.372761113e-20
3.179792469e-20
6.150286898e-20
4.881945864e-20
4.89316318e-20
5.94186347e-20
3.432633918e-20
6.839535886e-20
2.068002133e-20
7.01063504e-20
1.028291944e-20
6.583783935e-20
3.50253525e-21
5.915645422e-20
-3.809415127e-22
5.272321393e-20
-2.389961112e-21
4.790155297e-20
-3.513006601e-21
4.522954642e-20
-4.66065084e-21
4.486017557e-20
-6.738974845e-21
4.677984698e-20
-1.072504682e-20
5.080790933e-20
-1.76236326e-20
5.63775599e-20
-2.812136458e-20
6.209854311e-20
-4.179822288e-20
6.529021331e-20
-5.629618505e-20
6.239358e-20
-6.857067473e-20
5.217949355e-20
-8.031286849e-20
4.043716977e-20
-8.991281094e-20
2.257686372e-20
-8.021701706e-20
-1.856884036e-20
-5.797996103e-20
-4.801549872e-20
-5.156711972e-20
-3.715211019e-20
-3.80130389e-20
-5.156130741e-20
-2.851284541e-20
-5.30793585e-20
2.708348236e-19
-3.569151368e-19
7.642744288e-19
-3.090381726e-19
-7.534828696e-31
1.322173994e-18
3.921505868e-19
6.363087932e-20
5.803667007e-19
-9.604735564e-19
5.259880408e-19
-1.238785496e-18
4.125918463e-19
-1.073976334e-18
2.669886207e-19
-7.479478069e-19
1.413692792e-19
-3.327939582e-19
9.066183225e-20
1.081078997e-19
1.212803658e-19
4.83061612e-19
1.946487363e-19
7.025479402e-19
2.396284636e-19
7.050373137e-19
1.483036988e-19
4.635999978e-19
-5.881257362e-32
-1.577649523e-20
-2.465655237e-20
-1.683494571e-20
-2.709591447e-20
-1.82210802e-20
-3.099855853e-20
-1.985957259e-20
-3.573144624e-20
-2.173817382e-20
-4.097660366e-20
-2.387068803e-20
-4.65667421e-20
-2.62771348e-20
-5.240521951e-20
-2.897810428e-20
-5.842927994e-20
-3.199348793e-20
-6.459367915e-20
-3.534231577e-20
-7.08628711e-20
-3.904309963e-20
-7.720721768e-20
-4.311404084e-20
-8.360080606e-20
-4.757339562e-20
-9.002027808e-20
-5.243963648e-20
-9.644394258e-20
-5.773174421e-20
-1.028512699e-19
-6.346931338e-20
-1.092223556e-19
-6.967280074e-20
-1.155376245e-19
-7.636363337e-20
-1.217774371e-19
-8.356446675e-20
-1.279218636e-19
-9.129929619e-20
-1.339503557e-19
-9.959369875e-20
-1.398415642e-19
-1.08474907e-19
-1.455730188e-19
-1.179720246e-19
-1.511209739e-19
-1.28116083e-19
-1.564601072e-19
-1.38940261e-19
-1.615633662e-19
-1.504799068e-19
-1.664016854e-19
-1.627726454e-19
-1.709438441e-19
-1.758582287e-19
-1.751561903e-19
-1.897784666e-19
-1.7900257e-19
-2.045770069e-19
-1.824441985e-19
-2.202993487e-19
-1.854397929e-19
-2.369927779e-19
-1.879457303e-19
-2.547064199e-19
-1.89916482e-19
-2.734909167e-19
-1.913050189e-19
-2.933979557e-19
-1.920635449e-19
-3.144794689e-19
-1.921443441e-19
-3.367871719e-19
-1.915012357e-19
-3.603724893e-19
-1.900916053e-19
-3.85287289e-19
-1.878794384e-19
-4.115848241e-19
-1.848390961e-19
-4.393208109e-19
-1.809601337e-19
-4.685542543e-19
-1.762529088e-19
-4.99348896e-19
-1.707556082e-19
-5.317759171e-19
-1.645429881e-19
-5.659189823e-19
-1.577376746e-19
-6.018813602e-19
-1.505240388e-19
-6.397950327e-19
-1.431650073e-19
-6.798311496e-19
-1.360214304e-19
-7.222124744e-19
-1.295745258e-19
-7.672280972e-19
-1.244516509e-19
-8.152510255e-19
-1.214563597e-19
-8.667578909e-19
-1.216028086e-19
-9.223507603e-19
-1.261545827e-19
-9.827810187e-19
-1.366661436e-19
-1.048976785e-18
-1.550239139e-19
-1.122074112e-18
-1.834800845e-19
-1.203451654e-18
-2.246676955e-19
-1.2947668e-18
-2.815765241e-19
-1.397991749e-18
-3.574574877e-19
-1.515442171e-18
-4.556035883e-19
-1.649768228e-18
-5.789305764e-19
-1.8038056e-18
-7.292501396e-19
-1.98002322e-18
-9.061138533e-19
-2.17902247e-18
-1.105160332e-18
-2.396360602e-18
-1.316180299e-18
-2.617845409e-18
-1.521812666e-18
-2.816508931e-18
-1.698612972e-18
-2.958873066e-18
-1.821052004e-18
-3.014139859e-18
-1.861404721e-18
-2.946396535e-18
-1.759997162e-18
-2.57245059e-18
-1.387798339e-18
-1.952722573e-18
-4.61446628e-19
9.660872457e-20
-1.437160443e-20
7.479886719e-19
-7.795418801e-19
3.279250891e-19
7.194919656e-20
3.400993516e-20
2.507735567e-19
6.076149355e-20
-6.846946351e-20
4.157922189e-20
-8.03859079e-21
1.038602978e-19
-1.005015081e-19
1.246325993e-19
-2.972553535e-20
9.074914449e-20
6.567755299e-20
7.210204495e-20
6.747404721e-20
5.790835526e-20
7.361484354e-20
3.60373305e-20
9.026785309e-20
1.641151058e-20
8.973345641e-20
3.601533897e-21
7.864735228e-20
-2.930705008e-21
6.568589336e-20
-5.202602155e-21
5.499152909e-20
-5.061967913e-21
4.775859163e-20
-3.882377428e-21
4.404944739e-20
-2.740979135e-21
4.371971028e-20
-2.710912753e-21
4.67523315e-20
-5.155396238e-21
5.325595718e-20
-1.190264895e-20
6.312757345e-20
-2.492969461e-20
7.51249545e-20
-4.46948559e-20
8.505586929e-20
-6.651027079e-20
8.42091616e-20
-8.031299834e-20
6.598910515e-20
-9.81731739e-20
5.828565033e-20
-1.310585143e-19
5.546096448e-20
-1.096636746e-19
-3.996926e-20
-4.711657225e-20
-1.105717844e-19
-6.597631685e-20
-1.830192745e-20
-3.953108945e-20
-7.800904654e-20
-3.323486208e-19
2.397378839e-19
-7.546008129e-19
6.533705547e-20
-3.326816858e-19
-7.262035736e-19
1.308558898e-18
1.952083618e-19
1.723078516e-18
-1.122250465e-19
1.764942456e-18
-9.317929039e-19
1.536042622e-18
-1.209106884e-18
1.259666706e-18
-1.117404081e-18
1.001962581e-18
-8.373000265e-19
7.919054467e-19
-4.746091272e-19
6.520958445e-19
-9.952054033e-20
5.709380944e-19
2.159909733e-19
5.182577635e-19
4.096240264e-19
4.281733076e-19
4.393812609e-19
2.067347252e-19
2.951568094e-19
-4.631227356e-32
-2.405698321e-20
-2.720181333e-20
-2.47887262e-20
-2.89270708e-20
-2.59170802e-20
-3.197231923e-20
-2.737658861e-20
-3.591613125e-20
-2.913212697e-20
-4.047216158e-20
-3.117493244e-20
-4.545754175e-20
-3.350962836e-20
-5.075348752e-20
-3.614731966e-20
-5.627882813e-20
-3.910205453e-20
-6.197462789e-20
-4.238922759e-20
-6.779551862e-20
-4.602483907e-20
-7.370471772e-20
-5.0025302e-20
-7.967112487e-20
-5.440736119e-20
-8.56674726e-20
-5.918820394e-20
-9.166915996e-20
-6.438550971e-20
-9.76533905e-20
-7.001761559e-20
-1.03598574e-19
-7.610359963e-20
-1.094838249e-19
-8.266347806e-20
-1.152885945e-19
-8.971832869e-20
-1.209923127e-19
-9.729049862e-20
-1.265741307e-19
-1.054037177e-19
-1.320126345e-19
-1.14083281e-19
-1.372856259e-19
-1.233561329e-19
-1.423698741e-19
-1.332510434e-19
-1.472409349e-19
-1.437986948e-19
-1.518729166e-19
-1.550318198e-19
-1.562383119e-19
-1.669852026e-19
-1.603077886e-19
-1.796956853e-19
-1.640500373e-19
-1.932020653e-19
-1.674316507e-19
-2.075451149e-19
-1.704171331e-19
-2.227676151e-19
-1.729689702e-19
-2.389145535e-19
-1.750478831e-19
-2.560331937e-19
-1.76613115e-19
-2.741730636e-19
-1.776228489e-19
-2.933856697e-19
-1.780347213e-19
-3.137243383e-19
-1.77806646e-19
-3.352443876e-19
-1.768980355e-19
-3.580041225e-19
-1.752717324e-19
-3.820664768e-19
-1.728965838e-19
-4.075011733e-19
-1.69750716e-19
-4.343869459e-19
-1.658253741e-19
-4.628142026e-19
-1.611295455e-19
-4.92888749e-19
-1.556956525e-19
-5.247377814e-19
-1.495870247e-19
-5.585185651e-19
-1.429074287e-19
-5.94429909e-19
-1.358129243e-19
-6.327258955e-19
-1.285258249e-19
-6.737321742e-19
-1.213508715e-19
-7.178654752e-19
-1.146938042e-19
-7.656576437e-19
-1.090831714e-19
-8.177844567e-19
-1.051959105e-19
-8.750991127e-19
-1.03887273e-19
-9.386696243e-19
-1.062247121e-19
-1.009820242e-18
-1.13524503e-19
-1.090176482e-18
-1.273875654e-19
-1.181712225e-18
-1.497282403e-19
-1.286793172e-18
-1.827844206e-19
-1.408207139e-18
-2.290911884e-19
-1.549164639e-18
-2.913896235e-19
-1.713241647e-18
-3.724303421e-19
-1.904207815e-18
-4.7461621e-19
-2.12563125e-18
-5.994208411e-19
-2.380071486e-18
-7.465328209e-19
-2.667607249e-18
-9.127452758e-19
-2.983553562e-18
-1.090780572e-18
-3.315840467e-18
-1.268491309e-18
-3.643552771e-18
-1.428874884e-18
-3.938053308e-18
-1.550260339e-18
-4.161028631e-18
-1.603357091e-18
-4.246613445e-18
-1.540780186e-18
-4.043982852e-18
-1.299942094e-18
-3.342623436e-18
-8.563800308e-19
-2.090045013e-18
-5.715565686e-19
-1.009821161e-18
-8.265028147e-19
1.405986934e-30
-1.544376512e-19
-3.185835983e-20
3.397651322e-19
1.21192367e-19
-2.215163551e-19
-5.088369487e-20
1.640407168e-19
1.74636271e-19
-3.260202687e-19
2.200356886e-19
-7.513329582e-20
9.254563926e-20
1.931798553e-19
7.824284215e-20
8.177758664e-20
7.456136472e-20
7.730163924e-20
3.550293403e-20
1.293286016e-19
5.325407015e-21
1.199117897e-19
-9.359925472e-21
9.333113882e-20
-1.362506926e-20
6.994721721e-20
-1.243553936e-20
5.379793412e-20
-8.77111247e-21
4.409192316e-20
-4.212114561e-21
3.949006006e-20
2.91642349e-22
3.921692366e-20
3.792712627e-21
4.325400784e-20
4.716219971e-21
5.233636308e-20
9.473247349e-23
6.775208544e-20
-1.499878041e-20
9.022055228e-20
-4.554156386e-20
1.156030993e-19
-8.473032724e-20
1.234143761e-19
-8.801645404e-20
6.925169016e-20
-1.009978603e-19
7.126327458e-20
-2.264887398e-19
1.809550466e-19
-1.802661995e-19
-8.619384685e-20
4.515328416e-20
-3.359982639e-19
-1.256834368e-19
1.52532403e-19
2.484111577e-20
-2.285335991e-19
-1.572447448e-30
3.442033197e-19
7.25653568e-19
-8.535100147e-20
1.301198242e-18
-6.645101603e-19
2.235897782e-18
-3.033540817e-19
2.741097716e-18
-4.685304379e-19
2.73285225e-18
-8.588409643e-19
2.447875761e-18
-1.035481072e-18
2.082806048e-18
-9.792341185e-19
1.730631429e-18
-7.723441058e-19
1.426539034e-18
-4.903836917e-19
1.187211912e-18
-1.963808701e-19
9.927476373e-19
5.12211911e-20
8.185982106e-19
2.116250846e-19
6.031980026e-19
2.569385525e-19
2.616829415e-19
1.7918075e-19
-3.429176977e-32
-3.179215992e-20
-2.871719139e-20
-3.237096124e-20
-3.004413004e-20
-3.33282086e-20
-3.251327917e-20
-3.463471213e-20
-3.584954283e-20
-3.626342463e-20
-3.982500399e-20
-3.82015882e-20
-4.427095532e-20
-4.044693816e-20
-4.906574328e-20
-4.300427349e-20
-5.412054814e-20
-4.58827577e-20
-5.936861355e-20
-4.909413329e-20
-6.475789863e-20
-5.26516958e-20
-7.024630903e-20
-5.656974228e-20
-7.579858804e-20
-6.086331045e-20
-8.138426553e-20
-6.554807643e-20
-8.697625032e-20
-7.064034578e-20
-9.25498475e-20
-7.615709742e-20
-9.808201184e-20
-8.211606477e-20
-1.035508005e-19
-8.853585554e-20
-1.089349298e-19
-9.543609753e-20
-1.142134163e-19
-1.028375773e-19
-1.193652714e-19
-1.107623927e-19
-1.243692431e-19
-1.192340665e-19
-1.292035663e-19
-1.282776828e-19
-1.338457636e-19
-1.379200015e-19
-1.382724436e-19
-1.481895822e-19
-1.424591165e-19
-1.591168785e-19
-1.463800217e-19
-1.707342966e-19
-1.500079649e-19
-1.830762068e-19
-1.533141718e-19
-1.961789687e-19
-1.562682263e-19
-2.100810095e-19
-1.588380746e-19
-2.248230145e-19
-1.609901268e-19
-2.404481666e-19
-1.626894398e-19
-2.570023669e-19
-1.638999554e-19
-2.745343229e-19
-1.645847539e-19
-2.930956103e-19
-1.647064502e-19
-3.127409501e-19
-1.642278018e-19
-3.335291054e-19
-1.631127381e-19
-3.555245903e-19
-1.613279062e-19
-3.788001345e-19
-1.58844718e-19
-4.034395806e-19
-1.556417509e-19
-4.295411711e-19
-1.51707514e-19
-4.572216411e-19
-1.470436921e-19
-4.866221487e-19