/*--------------------------------*- C++ -*----------------------------------*\
  =========                 |
  \\      /  F ield         | OpenFOAM: The Open Source CFD Toolbox
   \\    /   O peration     | Website:  https://openfoam.org
    \\  /    A nd           | Version:  6
     \\/     M anipulation  |
\*---------------------------------------------------------------------------*/
FoamFile
{
    version     2.0;
    format      ascii;
    class       volScalarField;
    location    "0.0022";
    object      TRHS;
}
// * * * * * * * * * * * * * * * * * * * * * * * * * * * * * * * * * * * * * //

dimensions      [1 -1 -3 0 0 0 0];

internalField   nonuniform List<scalar> 
3600
(
2.075030768e-10
3.670452739e-10
1.027886053e-10
-1.42906019e-10
-4.162973551e-10
-6.99188283e-10
-9.927742493e-10
-1.300530395e-09
-1.627629562e-09
-1.988291454e-09
-2.401863343e-09
-2.899929429e-09
-3.532542972e-09
-4.393285843e-09
-5.614845028e-09
-7.28796396e-09
-9.23941482e-09
-1.079841004e-08
-1.098803177e-08
-9.797546376e-09
-9.376685092e-09
-1.074137447e-08
-1.272692092e-08
-1.55954132e-08
-2.131074025e-08
-3.219560663e-08
-4.660507207e-08
-6.446472539e-08
-8.009820729e-08
-3.423253821e-08
-0.0007016256525
0
0
0
0
0
0
0
0
0
0
0
0
0
0
0
0
0
0
0
0
0
0
0
0
0
0
0
0
0
2.21390781e-10
4.022068023e-10
1.612024936e-10
-6.478053341e-11
-3.171359601e-10
-5.785571349e-10
-8.610731552e-10
-1.175560644e-09
-1.549592697e-09
-2.012731136e-09
-2.606106877e-09
-3.358358587e-09
-4.303715744e-09
-5.487140725e-09
-7.02146292e-09
-9.068845035e-09
-1.170181989e-08
-1.444445602e-08
-1.583125376e-08
-1.475959202e-08
-1.433655191e-08
-1.594101377e-08
-1.702501828e-08
-1.779323464e-08
-1.989780331e-08
-2.712857128e-08
-3.807450273e-08
-5.357475737e-08
-7.542022169e-08
-3.207373395e-08
-0.0007267870745
0
0
0
0
0
0
0
0
0
0
0
0
0
0
0
0
0
0
0
0
0
0
0
0
0
0
0
0
0
2.362087568e-10
4.33196884e-10
1.987238085e-10
-2.167381427e-11
-2.686643195e-10
-5.356350753e-10
-8.413021236e-10
-1.220762388e-09
-1.721567507e-09
-2.405689892e-09
-3.327756855e-09
-4.521997099e-09
-5.980781229e-09
-7.693213206e-09
-9.732521468e-09
-1.245139918e-08
-1.643001966e-08
-2.171006384e-08
-2.535647783e-08
-2.283328737e-08
-2.14463448e-08
-2.420488222e-08
-2.381535703e-08
-2.107004023e-08
-1.703983154e-08
-2.075142125e-08
-2.929824644e-08
-4.166254844e-08
-6.184773049e-08
-1.976305784e-08
-0.0007815697776
0
0
0
0
0
0
0
0
0
0
0
0
0
0
0
0
0
0
0
0
0
0
0
0
0
0
0
0
0
2.516600509e-10
4.642840695e-10
2.277144203e-10
7.008560011e-12
-2.469429981e-10
-5.344165709e-10
-8.933759588e-10
-1.382256368e-09
-2.085986688e-09
-3.104116627e-09
-4.533394974e-09
-6.423262244e-09
-8.732196869e-09
-1.130329118e-08
-1.402209502e-08
-1.731730295e-08
-2.279271879e-08
-3.266509665e-08
-4.182278416e-08
-3.520981317e-08
-3.121206687e-08
-3.710365248e-08
-3.406600199e-08
-2.698427295e-08
-1.271046232e-08
-1.292687476e-08
-1.887737097e-08
-2.461251334e-08
-4.038735921e-08
9.707269682e-10
-0.0008767608228
0
0
0
0
0
0
0
0
0
0
0
0
0
0
0
0
0
0
0
0
0
0
0
0
0
0
0
0
0
2.678428263e-10
4.925801005e-10
2.484084796e-10
1.876347946e-11
-2.526330646e-10
-5.801612308e-10
-1.021026888e-09
-1.665727968e-09
-2.640110418e-09
-4.102873058e-09
-6.225348095e-09
-9.137468078e-09
-1.280830393e-08
-1.686088297e-08
-2.057453054e-08
-2.378791185e-08
-2.917703559e-08
-4.610836458e-08
-6.908040815e-08
-5.418538221e-08
-4.571159417e-08
-5.485752881e-08
-4.605807352e-08
-3.616397349e-08
-9.129912065e-09
-5.784568236e-09
-8.565069471e-09
2.106890212e-09
-1.094617724e-08
2.965255028e-08
-0.001034720649
0
0
0
0
0
0
0
0
0
0
0
0
0
0
0
0
0
0
0
0
0
0
0
0
0
0
0
0
0
2.829657714e-10
5.163848866e-10
2.579859153e-10
1.12708863e-11
-2.924200275e-10
-6.82918241e-10
-1.240856681e-09
-2.086856755e-09
-3.389776912e-09
-5.376465498e-09
-8.338030643e-09
-1.259968097e-08
-1.833231228e-08
-2.50732303e-08
-3.094896321e-08
-3.329581988e-08
-3.254263565e-08
-5.641116946e-08
-1.032662347e-07
-1.113235884e-07
-1.230630901e-07
-4.829269282e-08
-4.162821529e-08
-2.310764712e-08
-7.200537653e-08
-2.694719098e-08
2.69351755e-09
4.925333899e-08
3.166466369e-08
6.567678635e-08
-0.001302726059
0
0
0
0
0
0
0
0
0
0
0
0
0
0
0
0
0
0
0
0
0
0
0
0
0
0
0
0
0
2.958007294e-10
5.323634577e-10
2.536004717e-10
-2.133538798e-11
-3.76560262e-10
-8.625304447e-10
-1.583978764e-09
-2.68800581e-09
-4.372588703e-09
-6.912724198e-09
-1.072208581e-08
-1.643031895e-08
-2.482524306e-08
-3.616029049e-08
-4.778032404e-08
-5.231000606e-08
-3.32638397e-08
-6.643924348e-08
-5.581542682e-08
-1.913577374e-07
-2.286726007e-07
-4.765654094e-08
-1.18972037e-08
-1.580807559e-08
-1.535071149e-07
-5.754793899e-08
4.05033559e-08
1.54283663e-07
1.094905767e-07
1.096758981e-07
-0.001789203814
0
0
0
0
0
0
0
0
0
0
0
0
0
0
0
0
0
0
0
0
0
0
0
0
0
0
0
0
0
3.044991633e-10
5.372962385e-10
2.317029351e-10
-8.388248078e-11
-5.155705389e-10
-1.141153245e-09
-2.095559071e-09
-3.550155161e-09
-5.70892665e-09
-8.826418835e-09
-1.330221906e-08
-1.994894143e-08
-3.045789814e-08
-4.752578479e-08
-7.062532885e-08
-9.003977562e-08
-7.960836774e-08
-2.499315304e-08
4.653987233e-08
-2.352148333e-07
-2.060368374e-07
-0.000174346849
-0.0001109675493
-0.0001494702339
-1.427016162e-07
-3.009972638e-07
1.020092847e-07
3.764865166e-07
3.553184662e-07
1.775098779e-07
-0.002771116141
0
0
0
0
0
0
0
0
0
0
0
0
0
0
0
0
0
0
0
0
0
0
0
0
0
0
0
0
0
3.068997258e-10
5.270169738e-10
1.898592085e-10
-1.774035046e-10
-7.103348218e-10
-1.527025743e-09
-2.809195666e-09
-4.772346908e-09
-7.62996084e-09
-1.154243297e-08
-1.660042038e-08
-2.309306172e-08
-3.270600762e-08
-5.209658216e-08
-8.925716194e-08
-1.496628516e-07
-2.124604537e-07
-0.0001712208283
-0.0007740829319
167.3375045
-0.005864834831
69.16524582
44.03840478
59.30549084
-0.006562082662
144.7813271
-0.0004247968526
1.072461877e-07
4.347565632e-07
3.586047648e-07
-0.005046438311
0
0
0
0
0
0
0
0
0
0
0
0
0
0
0
0
0
0
0
0
0
0
0
0
0
0
0
0
0
2.989863042e-10
4.94975882e-10
1.255340525e-10
-2.954743581e-10
-9.423994052e-10
-1.988508374e-09
-3.692261042e-09
-6.369763558e-09
-1.034278996e-08
-1.578387767e-08
-2.236123815e-08
-2.865161652e-08
-3.185551373e-08
-3.33966142e-08
-7.719823229e-08
-2.064305254e-07
-4.343792883e-07
67.93940422
139.838192
0
0
0
0
0
0
0
23.86716737
106.5964686
-0.0002681168589
-0.0001400846667
55.57092529
0
0
0
0
0
0
0
0
0
0
0
0
0
0
0
0
0
0
0
0
0
0
0
0
0
0
0
0
0
2.712258265e-10
4.252643221e-10
3.008816731e-11
-4.296686237e-10
-1.17319691e-09
-2.438142001e-09
-4.579684017e-09
-8.082573012e-09
-1.357177819e-08
-2.175864164e-08
-3.309269291e-08
-4.660667901e-08
-5.658105086e-08
-6.281164105e-08
-2.45230718e-08
-0.0001722262067
68.33770731
0
0
0
0
0
0
0
0
0
0
0
384.7933079
-0.002109749049
452.1333347
0
0
0
0
0
0
0
0
0
0
0
0
0
0
0
0
0
0
0
0
0
0
0
0
0
0
0
0
0
1.96954141e-10
2.792493225e-10
-1.241852017e-10
-5.830302951e-10
-1.367374751e-09
-2.76599612e-09
-5.201950341e-09
-9.280348105e-09
-1.590449082e-08
-2.65164387e-08
-4.351830219e-08
-7.053035214e-08
-1.043861519e-07
-5.230059607e-08
6.686054228e-08
-0.0007853518468
141.4249345
0
0
0
0
0
0
0
0
0
0
0
-0.005128010861
-4.382135836e-05
17.37719386
0
0
0
0
0
0
0
0
0
0
0
0
0
0
0
0
0
0
0
0
0
0
0
0
0
0
0
0
0
-3.946197555e-12
-3.517102176e-11
-4.025468459e-10
-7.903509143e-10
-1.533151821e-09
-2.946348705e-09
-5.44632237e-09
-9.575667571e-09
-1.601317955e-08
-2.558659148e-08
-3.931345147e-08
-5.914537451e-08
-1.132343724e-07
-1.86833572e-07
-2.320673881e-07
170.2180285
0
0
0
0
0
0
0
0
0
0
0
0
0
-0.001403000509
0
0
0
0
0
0
0
0
0
0
0
0
0
0
0
0
0
0
0
0
0
0
0
0
0
0
0
0
0
0
-6.06385417e-10
-7.315472362e-10
-9.216632868e-10
-1.112828699e-09
-1.726862959e-09
-3.085583691e-09
-5.594753807e-09
-9.772332504e-09
-1.622168227e-08
-2.550833811e-08
-3.792597124e-08
-5.513028086e-08
-1.323015574e-07
-2.296521369e-07
-2.04200022e-07
-0.005605843987
0
0
0
0
0
0
0
0
0
0
0
0
0
0
0
0
0
0
0
0
0
0
0
0
0
0
0
0
0
0
0
0
0
0
0
0
0
0
0
0
0
0
0
0
-2.468969373e-09
-2.25453831e-09
-1.822549321e-09
-1.585022974e-09
-1.963034529e-09
-3.212745678e-09
-5.717541575e-09
-1.008074736e-08
-1.722529087e-08
-2.854749946e-08
-4.597643116e-08
-7.018968167e-08
-6.745232436e-08
-7.283979996e-08
-0.0002142162537
84.98058361
0
0
0
0
0
0
0
0
0
0
0
0
0
0
0
0
0
0
0
0
0
0
0
0
0
0
0
0
0
0
0
0
0
0
0
0
0
0
0
0
0
0
0
0
-1.098390772e-08
-6.130531542e-09
-3.194708897e-09
-2.128893008e-09
-2.165001886e-09
-3.215097878e-09
-5.500599991e-09
-9.509848304e-09
-1.604075847e-08
-2.632301823e-08
-4.20720431e-08
-6.371082261e-08
-5.805880882e-08
-5.819959812e-08
-0.0002081265311
82.56918763
0
0
0
0
0
0
0
0
0
0
0
0
0
0
0
0
0
0
0
0
0
0
0
0
0
0
0
0
0
0
0
0
0
0
0
0
0
0
0
0
0
0
0
0
-1.231846353e-08
-6.774734085e-09
-3.415645096e-09
-2.223465174e-09
-2.177717653e-09
-3.075331245e-09
-5.004753928e-09
-8.197125661e-09
-1.290713743e-08
-1.921839172e-08
-2.675808204e-08
-3.637842549e-08
-1.046001827e-07
-1.832388289e-07
-1.63517229e-07
-0.005844851033
0
0
0
0
0
0
0
0
0
0
0
0
0
0
0
0
0
0
0
0
0
0
0
0
0
0
0
0
0
0
0
0
0
0
0
0
0
0
0
0
0
0
0
0
-4.077953886e-09
-3.192437559e-09
-2.183605384e-09
-1.783123014e-09
-2.017355416e-09
-2.937090833e-09
-4.664642833e-09
-7.37050768e-09
-1.121649105e-08
-1.6299483e-08
-2.268211545e-08
-3.105353924e-08
-6.664950933e-08
-1.039399708e-07
-2.556552909e-07
162.6843961
0
0
0
0
0
0
0
0
0
0
0
0
0
-0.002528936189
0
0
0
0
0
0
0
0
0
0
0
0
0
0
0
0
0
0
0
0
0
0
0
0
0
0
0
0
0
0
-1.142758581e-11
-8.015319814e-10
-1.007288397e-09
-1.277780857e-09
-1.83504294e-09
-2.856902234e-09
-4.500591279e-09
-6.951132628e-09
-1.042858243e-08
-1.534473638e-08
-2.262937595e-08
-3.408491427e-08
-4.633594553e-08
1.428675819e-08
1.025964358e-07
-0.0007007722993
115.4395655
0
0
0
0
0
0
0
0
0
0
0
-0.00529066684
-1.894237256e-05
7.506527781
0
0
0
0
0
0
0
0
0
0
0
0
0
0
0
0
0
0
0
0
0
0
0
0
0
0
0
0
0
2.624598217e-09
8.636114442e-10
-1.004091553e-10
-8.551961148e-10
-1.67983032e-09
-2.773639794e-09
-4.275774936e-09
-6.215218323e-09
-8.430978202e-09
-1.031164974e-08
-1.021377347e-08
-3.921111918e-09
1.935564604e-08
7.298633865e-08
2.344275023e-07
-0.0001163929114
46.23581439
0
0
0
0
0
0
0
0
0
0
0
393.7128196
-0.002066295491
425.9718306
0
0
0
0
0
0
0
0
0
0
0
0
0
0
0
0
0
0
0
0
0
0
0
0
0
0
0
0
0
4.288068359e-09
1.927128771e-09
5.116901447e-10
-5.629054401e-10
-1.564551994e-09
-2.70129899e-09
-4.050298734e-09
-5.501451804e-09
-6.559515164e-09
-6.001090409e-09
-1.205118802e-09
1.29018601e-08
4.508023868e-08
1.034798278e-07
1.525161888e-07
1.669056008e-07
-1.998147188e-07
21.92721345
18.22874913
0
0
0
0
0
0
0
-0.005972238653
20.34657071
-5.117104714e-05
-2.519401748e-10
-9.828763159e-05
0
0
0
0
0
0
0
0
0
0
0
0
0
0
0
0
0
0
0
0
0
0
0
0
0
0
0
0
0
5.177007202e-09
2.501990665e-09
8.504758448e-10
-3.983538567e-10
-1.509369278e-09
-2.686382918e-09
-3.983019381e-09
-5.238629162e-09
-5.902487839e-09
-4.823395412e-09
8.469776246e-12
1.146442865e-08
3.273534293e-08
6.520391669e-08
1.176443833e-07
2.15837089e-07
5.252605665e-07
-5.472808191e-05
-4.604619419e-05
441.0458492
132.9583696
126.7899674
66.44120738
117.6990121
105.8928943
360.0707085
-1.788534894e-07
-1.455708974e-07
-1.361946654e-08
7.160016332e-08
-0.008773702983
0
0
0
0
0
0
0
0
0
0
0
0
0
0
0
0
0
0
0
0
0
0
0
0
0
0
0
0
0
5.390006595e-09
2.668455177e-09
9.660120539e-10
-3.363549838e-10
-1.501429901e-09
-2.731826017e-09
-4.091008617e-09
-5.424260379e-09
-6.229392363e-09
-5.511176118e-09
-1.781324596e-09
6.530807664e-09
1.988978523e-08
3.612842014e-08
5.749232092e-08
9.706744674e-08
1.566007913e-07
2.305938288e-07
7.034541066e-07
-0.002211539776
-0.0006554113317
-0.0006224748264
-0.0003180323844
-0.0005775872143
-0.0005205318966
-0.001805470981
-1.802824176e-07
-2.077036322e-07
-3.11091642e-07
-1.94981928e-07
-0.007212221876
0
0
0
0
0
0
0
0
0
0
0
0
0
0
0
0
0
0
0
0
0
0
0
0
0
0
0
0
0
5.010815944e-09
2.491547341e-09
9.023250082e-10
-3.5334689e-10
-1.525191041e-09
-2.827868467e-09
-4.348912817e-09
-5.97147523e-09
-7.207016715e-09
-6.969651393e-09
-3.323492263e-09
6.575195259e-09
2.590297389e-08
5.618147845e-08
1.059739388e-07
1.992833225e-07
5.038107349e-07
-4.39275317e-05
-2.758763435e-05
436.8921333
127.0402084
120.1428564
59.72073683
111.4271103
100.5996502
356.5225472
-2.264902501e-07
-1.624070968e-07
-2.281368778e-08
6.33273152e-08
-0.008774500233
0
0
0
0
0
0
0
0
0
0
0
0
0
0
0
0
0
0
0
0
0
0
0
0
0
0
0
0
0
4.148995785e-09
2.046920834e-09
7.038931276e-10
-4.217521272e-10
-1.565145064e-09
-2.959526231e-09
-4.752191273e-09
-6.925390878e-09
-9.108973754e-09
-1.021854228e-08
-7.771821764e-09
3.200656989e-09
3.140607253e-08
8.51725159e-08
1.289136016e-07
1.380627779e-07
-2.236753742e-07
17.63588928
10.89959331
0
0
0
0
0
0
0
-0.006186229415
17.08496159
-4.295220307e-05
-2.154444654e-10
-8.647299967e-05
0
0
0
0
0
0
0
0
0
0
0
0
0
0
0
0
0
0
0
0
0
0
0
0
0
0
0
0
0
2.955221664e-09
1.421682417e-09
4.190014929e-10
-5.178234359e-10
-1.60311294e-09
-3.098130768e-09
-5.244459621e-09
-8.226498591e-09
-1.206198555e-08
-1.635166317e-08
-1.965074315e-08
-1.793746105e-08
-5.099566602e-10
4.675804429e-08
2.000570184e-07
-0.0001046168064
41.55317049
0
0
0
0
0
0
0
0
0
0
0
391.8050893
-0.002065114083
427.410757
0
0
0
0
0
0
0
0
0
0
0
0
0
0
0
0
0
0
0
0
0
0
0
0
0
0
0
0
0
1.609483054e-09
7.137484039e-10
9.470201778e-11
-6.219881274e-10
-1.623954695e-09
-3.194077516e-09
-5.662154877e-09
-9.419253776e-09
-1.49415384e-08
-2.291050883e-08
-3.451733614e-08
-5.184510158e-08
-7.10067295e-08
-2.203337948e-08
6.251147373e-08
-0.0006627790182
106.5547472
0
0
0
0
0
0
0
0
0
0
0
-0.005417580673
-2.511078054e-05
9.95338304
0
0
0
0
0
0
0
0
0
0
0
0
0
0
0
0
0
0
0
0
0
0
0
0
0
0
0
0
0
3.046503045e-10
2.251858272e-11
-2.268670622e-10
-7.280861841e-10
-1.639134055e-09
-3.248083315e-09
-5.924447142e-09
-1.011421848e-08
-1.630261534e-08
-2.497862389e-08
-3.666229129e-08
-5.269601661e-08
-1.001787884e-07
-1.58790802e-07
-2.857414147e-07
156.4892919
0
0
0
0
0
0
0
0
0
0
0
0
0
-0.002528705261
0
0
0
0
0
0
0
0
0
0
0
0
0
0
0
0
0
0
0
0
0
0
0
0
0
0
0
0
0
0
-7.825713014e-10
-5.631382494e-10
-5.117697555e-10
-8.413961441e-10
-1.689014635e-09
-3.356958781e-09
-6.269152009e-09
-1.097281465e-08
-1.807543697e-08
-2.809502203e-08
-4.118154501e-08
-5.890046599e-08
-1.408917607e-07
-2.426769301e-07
-2.00119961e-07
-0.006212997051
0
0
0
0
0
0
0
0
0
0
0
0
0
0
0
0
0
0
0
0
0
0
0
0
0
0
0
0
0
0
0
0
0
0
0
0
0
0
0
0
0
0
0
0
-1.514589776e-09
-9.731043505e-10
-7.305407729e-10
-9.559836002e-10
-1.779043218e-09
-3.525132182e-09
-6.703330668e-09
-1.20742817e-08
-2.075489431e-08
-3.43728483e-08
-5.514342099e-08
-8.426303176e-08
-9.251811297e-08
-1.168721033e-07
-0.0001753880661
69.5680886
0
0
0
0
0
0
0
0
0
0
0
0
0
0
0
0
0
0
0
0
0
0
0
0
0
0
0
0
0
0
0
0
0
0
0
0
0
0
0
0
0
0
0
0
-1.815970054e-09
-1.167395226e-09
-8.61663541e-10
-1.054245351e-09
-1.86792456e-09
-3.624251647e-09
-6.831331625e-09
-1.225783637e-08
-2.103765551e-08
-3.483785392e-08
-5.591436035e-08
-8.556578857e-08
-9.456276107e-08
-1.203350352e-07
-0.0001753190919
69.53973364
0
0
0
0
0
0
0
0
0
0
0
0
0
0
0
0
0
0
0
0
0
0
0
0
0
0
0
0
0
0
0
0
0
0
0
0
0
0
0
0
0
0
0
0
-1.68140368e-09
-1.141962977e-09
-9.016441931e-10
-1.131908966e-09
-1.950636821e-09
-3.64656561e-09
-6.643697999e-09
-1.150779745e-08
-1.89000231e-08
-2.943345558e-08
-4.342181661e-08
-6.262057337e-08
-1.468978208e-07
-2.531691347e-07
-2.084562136e-07
-0.006215769986
0
0
0
0
0
0
0
0
0
0
0
0
0
0
0
0
0
0
0
0
0
0
0
0
0
0
0
0
0
0
0
0
0
0
0
0
0
0
0
0
0
0
0
0
-1.177741634e-09
-9.297036441e-10
-8.64995119e-10
-1.19994434e-09
-2.059764913e-09
-3.711123044e-09
-6.522494145e-09
-1.097000464e-08
-1.761437666e-08
-2.708489781e-08
-4.009990802e-08
-5.832182579e-08
-1.098066669e-07
-1.764049206e-07
-2.890711346e-07
156.406716
0
0
0
0
0
0
0
0
0
0
0
0
0
-0.00247837817
0
0
0
0
0
0
0
0
0
0
0
0
0
0
0
0
0
0
0
0
0
0
0
0
0
0
0
0
0
0
-4.281179911e-10
-5.903549468e-10
-7.733126762e-10
-1.257439354e-09
-2.184876239e-09
-3.809846173e-09
-6.462146592e-09
-1.057209488e-08
-1.670885975e-08
-2.570840478e-08
-3.89710447e-08
-5.882320327e-08
-8.149096946e-08
-3.629150133e-08
5.055672048e-08
-0.0006619207167
106.2901468
0
0
0
0
0
0
0
0
0
0
0
-0.005430656131
-2.640565848e-05
10.46709155
0
0
0
0
0
0
0
0
0
0
0
0
0
0
0
0
0
0
0
0
0
0
0
0
0
0
0
0
0
4.073451063e-10
-2.003750767e-10
-6.512955289e-10
-1.293491109e-09
-2.283949452e-09
-3.850313688e-09
-6.237434631e-09
-9.679009293e-09
-1.430115338e-08
-1.98728314e-08
-2.51816679e-08
-2.648546051e-08
-1.355693474e-08
2.60862325e-08
1.645826876e-07
-0.0001041225571
41.34922237
0
0
0
0
0
0
0
0
0
0
0
391.1475364
-0.002065608438
428.2645126
0
0
0
0
0
0
0
0
0
0
0
0
0
0
0
0
0
0
0
0
0
0
0
0
0
0
0
0
0
1.163269024e-09
1.595504366e-10
-5.285179879e-10
-1.308011869e-09
-2.344819307e-09
-3.839163751e-09
-5.945084948e-09
-8.708928622e-09
-1.187619217e-08
-1.453653741e-08
-1.440097027e-08
-6.711549664e-09
1.713314569e-08
6.498255478e-08
9.851031971e-08
1.053133997e-07
-2.487249639e-07
17.2768163
10.02012392
0
0
0
0
0
0
0
-0.006133422172
18.12055558
-4.55589104e-05
-8.500694533e-11
-3.379468263e-05
0
0
0
0
0
0
0
0
0
0
0
0
0
0
0
0
0
0
0
0
0
0
0
0
0
0
0
0
0
1.695203171e-09
4.191544661e-10
-4.352318597e-10
-1.309480704e-09
-2.381320396e-09
-3.829459138e-09
-5.765060446e-09
-8.144607206e-09
-1.062140212e-08
-1.228792459e-08
-1.141643832e-08
-5.347545776e-09
8.985450628e-09
3.321460549e-08
7.644215633e-08
1.620382401e-07
4.598386339e-07
-4.305074392e-05
-2.536522801e-05
435.2302211
128.5608766
122.6369614
62.44464494
113.9959277
102.5664572
357.0164545
-1.908395777e-07
-1.536826852e-07
-2.339695944e-08
8.196796884e-08
-0.008695011692
0
0
0
0
0
0
0
0
0
0
0
0
0
0
0
0
0
0
0
0
0
0
0
0
0
0
0
0
0
1.910893447e-09
5.299869203e-10
-3.912343537e-10
-1.308421158e-09
-2.402177763e-09
-3.850882882e-09
-5.754938893e-09
-8.062083678e-09
-1.043474339e-08
-1.209014538e-08
-1.176613025e-08
-8.073958775e-09
-6.044052468e-10
8.761108738e-09
2.309357285e-08
5.471772033e-08
1.102894169e-07
2.067756064e-07
6.688939237e-07
-0.002192594511
-0.0006481286377
-0.0006184153561
-0.0003150798948
-0.000575085263
-0.0005175344094
-0.001799388008
-1.945582213e-07
-2.080630353e-07
-3.271915687e-07
-1.788536967e-07
-0.007138562331
0
0
0
0
0
0
0
0
0
0
0
0
0
0
0
0
0
0
0
0
0
0
0
0
0
0
0
0
0
1.781534044e-09
4.780748771e-10
-4.02068014e-10
-1.306761278e-09
-2.408735098e-09
-3.905669271e-09
-5.909990658e-09
-8.403528633e-09
-1.10366519e-08
-1.292432194e-08
-1.233248044e-08
-6.642191656e-09
7.2179986e-09
3.097694783e-08
7.374782613e-08
1.567079242e-07
4.560961373e-07
-4.249768302e-05
-2.47109688e-05
435.1811727
128.5486931
122.6854901
62.54606192
114.1376788
102.736998
357.160159
-2.121413003e-07
-1.728870909e-07
9.097177829e-09
7.43808077e-08
-0.008690896168
0
0
0
0
0
0
0
0
0
0
0
0
0
0
0
0
0
0
0
0
0
0
0
0
0
0
0
0
0
1.349813901e-09
2.910082686e-10
-4.602728977e-10
-1.295239302e-09
-2.401139755e-09
-3.98467601e-09
-6.237486042e-09
-9.221124393e-09
-1.272031092e-08
-1.582211212e-08
-1.627949532e-08
-9.327172578e-09
1.36247817e-08
6.030593166e-08
9.048148687e-08
9.546336671e-08
-2.566922907e-07
17.05672269
9.759568854
0
0
0
0
0
0
0
-0.006121988256
18.3328613
-4.610303151e-05
-8.18533442e-11
-2.985053753e-05
0
0
0
0
0
0
0
0
0
0
0
0
0
0
0
0
0
0
0
0
0
0
0
0
0
0
0
0
0
7.295435854e-10
1.734016708e-11
-5.340956709e-10
-1.271043728e-09
-2.361704721e-09
-4.067519152e-09
-6.667839926e-09
-1.045271371e-08
-1.557979275e-08
-2.185919089e-08
-2.809924103e-08
-3.062987351e-08
-1.926693041e-08
1.857031018e-08
1.538270667e-07
-0.0001032457453
40.9977723
0
0
0
0
0
0
0
0
0
0
0
391.0692514
-0.002065449672
428.2798371
0
0
0
0
0
0
0
0
0
0
0
0
0
0
0
0
0
0
0
0
0
0
0
0
0
0
0
0
0
7.434417114e-11
-2.577607991e-10
-5.942588563e-10
-1.213327357e-09
-2.27957786e-09
-4.089494651e-09
-7.026326626e-09
-1.159304967e-08
-1.841915129e-08
-2.840053805e-08
-4.296362622e-08
-6.448930183e-08
-8.912681886e-08
-4.674508718e-08
3.820132445e-08
-0.0006578169396
105.4936056
0
0
0
0
0
0
0
0
0
0
0
-0.005433004659
-2.643300587e-05
10.47795229
0
0
0
0
0
0
0
0
0
0
0
0
0
0
0
0
0
0
0
0
0
0
0
0
0
0
0
0
0
-4.411110823e-10
-4.537596967e-10
-6.124648328e-10
-1.131478551e-09
-2.173119018e-09
-4.052871803e-09
-7.212887278e-09
-1.221927079e-08
-1.973106479e-08
-3.045463593e-08
-4.518917626e-08
-6.558026904e-08
-1.197321839e-07
-1.905691157e-07
-2.99903338e-07
155.5736887
0
0
0
0
0
0
0
0
0
0
0
0
0
-0.002462870183
0
0
0
0
0
0
0
0
0
0
0
0
0
0
0
0
0
0
0
0
0
0
0
0
0
0
0
0
0
0
-6.570961358e-10
-5.011178147e-10
-5.705284098e-10
-1.045447309e-09
-2.091338135e-09
-4.057251229e-09
-7.452840161e-09
-1.295764839e-08
-2.135684724e-08
-3.338713917e-08
-4.941961546e-08
-7.126120268e-08
-1.587845343e-07
-2.695420651e-07
-2.170367503e-07
-0.006276739491
0
0
0
0
0
0
0
0
0
0
0
0
0
0
0
0
0
0
0
0
0
0
0
0
0
0
0
0
0
0
0
0
0
0
0
0
0
0
0
0
0
0
0
0
-4.705531894e-10
-3.58755338e-10
-4.672712775e-10
-9.738178817e-10
-2.064120326e-09
-4.128157565e-09
-7.771130472e-09
-1.389125913e-08
-2.378248792e-08
-3.927020892e-08
-6.274706192e-08
-9.548976687e-08
-1.08858644e-07
-1.405530891e-07
-0.0001683721774
66.77977147
0
0
0
0
0
0
0
0
0
0
0
0
0
0
0
0
0
0
0
0
0
0
0
0
0
0
0
0
0
0
0
0
0
0
0
0
0
0
0
0
0
0
0
0
1.416500191e-10
-3.282715111e-11
-3.215965439e-10
-9.378368988e-10
-2.091200002e-09
-4.183183571e-09
-7.823078692e-09
-1.391048797e-08
-2.374461762e-08
-3.916828421e-08
-6.259020443e-08
-9.537790013e-08
-1.090414349e-07
-1.409708335e-07
-0.0001645526935
65.26519055
0
0
0
0
0
0
0
0
0
0
0
0
0
0
0
0
0
0
0
0
0
0
0
0
0
0
0
0
0
0
0
0
0
0
0
0
0
0
0
0
0
0
0
0
1.09256391e-09
4.081166581e-10
-1.904605813e-10
-9.903165485e-10
-2.230421845e-09
-4.291644289e-09
-7.689848785e-09
-1.309806345e-08
-2.130697153e-08
-3.309043949e-08
-4.89180057e-08
-7.071786479e-08
-1.597125722e-07
-2.704921374e-07
-2.101685784e-07
-0.006438666525
0
0
0
0
0
0
0
0
0
0
0
0
0
0
0
0
0
0
0
0
0
0
0
0
0
0
0
0
0
0
0
0
0
0
0
0
0
0
0
0
0
0
0
0
2.176225315e-09
8.253695508e-10
-1.714755259e-10
-1.216908833e-09
-2.596831634e-09
-4.674051131e-09
-7.880184736e-09
-1.273903285e-08
-1.987182071e-08
-3.00240345e-08
-4.420680443e-08
-6.466705601e-08
-1.210975187e-07
-1.959550496e-07
-3.381212128e-07
149.7272741
0
0
0
0
0
0
0
0
0
0
0
0
0
-0.002961357906
0
0
0
0
0
0
0
0
0
0
0
0
0
0
0
0
0
0
0
0
0
0
0
0
0
0
0
0
0
0
3.057737824e-09
1.007743073e-09
-3.941339242e-10
-1.706484032e-09
-3.276570356e-09
-5.445464363e-09
-8.547867625e-09
-1.295130779e-08
-1.912833841e-08
-2.786921359e-08
-4.074254509e-08
-6.070775072e-08
-8.593721733e-08
-6.141371419e-08
-8.705012907e-09
-0.0005674793802
75.50276747
0
0
0
0
0
0
0
0
0
0
0
-0.005872336876
-1.698030901e-05
6.727174156
0
0
0
0
0
0
0
0
0
0
0
0
0
0
0
0
0
0
0
0
0
0
0
0
0
0
0
0
0
3.268872681e-09
6.729178353e-10
-1.010626282e-09
-2.54058454e-09
-4.322180183e-09
-6.642065443e-09
-9.661430373e-09
-1.339411308e-08
-1.764108296e-08
-2.188878761e-08
-2.499654533e-08
-2.404656737e-08
-1.043088591e-08
2.52567698e-08
1.587384853e-07
-1.476830672e-06
0.5892347337
0
0
0
0
0
0
0
0
0
0
0
381.0144694
-0.00199176543
409.0996093
0
0
0
0
0
0
0
0
0
0
0
0
0
0
0
0
0
0
0
0
0
0
0
0
0
0
0
0
0
2.155322837e-09
-5.33683872e-10
-2.175719004e-09
-3.788925226e-09
-5.793232033e-09
-8.380055329e-09
-1.150485048e-08
-1.478601084e-08
-1.731184806e-08
-1.744366203e-08
-1.269474747e-08
6.347038485e-10
2.892360035e-08
8.215779599e-08
8.362463919e-08
5.469659078e-08
-4.465403688e-07
697.495254
95.21606311
0
0
0
0
0
0
0
-0.0008339508787
369.2903067
-4.777820221e-07
-6.155990491e-09
-0.002441608337
0
0
0
0
0
0
0
0
0
0
0
0
0
0
0
0
0
0
0
0
0
0
0
0
0
0
0
0
0
-1.194045118e-09
-2.980115585e-09
-3.968372343e-09
-5.464304967e-09
-7.726453562e-09
-1.07885077e-08
-1.44258127e-08
-1.795506185e-08
-1.990192012e-08
-1.780962401e-08
-9.024074472e-09
6.92423885e-09
2.282022412e-08
4.018774544e-08
1.021877823e-07
3.339705683e-07
6.399735624e-07
-0.001757109495
-0.0004547442866
85.17665405
281.8246233
158.0677184
0
157.0954245
279.6009393
-0.002697986191
-2.99902475e-09
-0.000930556475
-4.604898913e-09
-3.121134014e-07
-0.01412385648
0
0
0
0
0
0
0
0
0
0
0
0
0
0
0
0
0
0
0
0
0
0
0
0
0
0
0
0
0
-1.004526212e-08
-7.33619996e-09
-6.249499285e-09
-7.450793362e-09
-1.010169605e-08
-1.393538085e-08
-1.861383183e-08
-2.331586555e-08
-2.609016084e-08
-2.295931112e-08
-8.460013786e-09
2.158313917e-08
4.782490404e-08
8.450882334e-08
2.187942482e-07
3.788216229e-07
7.503485414e-07
7.657496715e-07
-7.489292384e-09
-0.000290531784
-0.001966397994
-0.0006774385405
-0.04744438141
-0.0006583180445
-0.001917430424
-0.0001896341459
-1.664187732e-08
-9.007435318e-08
3.589019009e-08
-2.425499977e-09
-0.00546205929
0
0
0
0
0
0
0
0
0
0
0
0
0
0
0
0
0
0
0
0
0
0
0
0
0
0
0
0
0
-1.047119231e-08
-8.026965292e-09
-7.455835169e-09
-9.311650062e-09
-1.285787174e-08
-1.787132317e-08
-2.412050325e-08
-3.104479777e-08
-3.690750798e-08
-3.641403596e-08
-1.918924847e-08
3.634482424e-08
7.185249776e-08
2.428229969e-07
4.400594616e-07
-2.330404294e-05
-0.0001090844939
-0.003842296925
-0.002970354061
115.2503912
498.2361608
110.6456952
0
104.0320347
481.034642
75.22462674
-0.006601396974
-0.01150572174
-0.0002025064189
-0.0009502427948
216.1777766
0
0
0
0
0
0
0
0
0
0
0
0
0
0
0
0
0
0
0
0
0
0
0
0
0
0
0
0
0
-3.266179546e-09
-5.380227731e-09
-7.720911566e-09
-1.121031625e-08
-1.623357098e-08
-2.282712989e-08
-3.089397647e-08
-4.042735366e-08
-5.152010174e-08
-6.016514457e-08
-5.598513011e-08
-6.172166482e-09
6.794535195e-08
2.686633391e-07
-6.675715096e-08
9.403951857
43.32202135
0
0
0
0
0
0
0
0
0
0
0
80.45939334
160.7790504
0
0
0
0
0
0
0
0
0
0
0
0
0
0
0
0
0
0
0
0
0
0
0
0
0
0
0
0
0
0
-1.795922636e-09
-4.747342054e-09
-8.635505198e-09
-1.383655294e-08
-2.084587441e-08
-2.958522779e-08
-3.94735183e-08
-5.014670874e-08
-6.451474535e-08
-8.519143753e-08
-1.337588257e-07
-1.290838227e-07
-0.0001379290421
-0.0008204772256
230.6622461
0
0
0
0
0
0
0
0
0
0
0
0
0
0
0
0
0
0
0
0
0
0
0
0
0
0
0
0
0
0
0
0
0
0
0
0
0
0
0
0
0
0
0
0
0
-1.374676335e-09
-4.822097869e-09
-1.011178365e-08
-1.735186348e-08
-2.729736327e-08
-3.978920071e-08
-5.288984918e-08
-6.163327758e-08
-6.399698166e-08
-1.019106709e-07
-2.224126668e-07
-4.386117147e-07
54.75643434
94.92021822
0
0
0
0
0
0
0
0
0
0
0
0
0
0
0
0
0
0
0
0
0
0
0
0
0
0
0
0
0
0
0
0
0
0
0
0
0
0
0
0
0
0
0
0
0
0
-1.241070311e-09
-5.082367736e-09
-1.167471823e-08
-2.119719796e-08
-3.529749712e-08
-5.518405996e-08
-8.027945231e-08
-1.032857735e-07
-1.097685105e-07
-6.335493734e-08
-0.0001872427638
74.2742702
0
0
0
0
0
0
0
0
0
0
0
0
0
0
0
0
0
0
0
0
0
0
0
0
0
0
0
0
0
0
0
0
0
0
0
0
0
0
0
0
0
0
0
0
0
0
0
0
-1.114592748e-09
-5.094332093e-09
-1.249247903e-08
-2.359812789e-08
-4.115904857e-08
-6.896843542e-08
-1.122510694e-07
-1.678333744e-07
-1.519403528e-07
-5.912526159e-08
-0.0006807618635
172.9872056
0
0
0
0
0
0
0
0
0
0
0
0
0
0
0
0
0
0
0
0
0
0
0
0
0
0
0
0
0
0
0
0
0
0
0
0
0
0
0
0
0
0
0
0
0
0
0
0
-8.948028876e-10
-4.546713583e-09
-1.176198171e-08
-2.247307791e-08
-3.913962575e-08
-6.498549375e-08
-1.053837086e-07
-2.121731302e-07
-3.084968102e-07
-3.619557342e-07
97.15187189
0
0
0
0
0
0
0
0
0
0
0
0
0
0
0
0
0
0
0
0
0
0
0
0
0
0
0
0
0
0
0
0
0
0
0
0
0
0
0
0
0
0
0
0
0
0
0
0
0
)
;

boundaryField
{
    lowerWall
    {
        type            calculated;
        value           uniform 0;
    }
    atmosphere
    {
        type            calculated;
        value           nonuniform List<scalar> 
60
(
2.075030768e-10
2.21390781e-10
2.362087568e-10
2.516600509e-10
2.678428263e-10
2.829657714e-10
2.958007294e-10
3.044991633e-10
3.068997258e-10
2.989863042e-10
2.712258265e-10
1.96954141e-10
-3.946197555e-12
-6.06385417e-10
-2.468969373e-09
-1.098390772e-08
-1.231846353e-08
-4.077953886e-09
-1.142758581e-11
2.624598217e-09
4.288068359e-09
5.177007202e-09
5.390006595e-09
5.010815944e-09
4.148995785e-09
2.955221664e-09
1.609483054e-09
3.046503045e-10
-7.825713014e-10
-1.514589776e-09
-1.815970054e-09
-1.68140368e-09
-1.177741634e-09
-4.281179911e-10
4.073451063e-10
1.163269024e-09
1.695203171e-09
1.910893447e-09
1.781534044e-09
1.349813901e-09
7.295435854e-10
7.434417114e-11
-4.411110823e-10
-6.570961358e-10
-4.705531894e-10
1.416500191e-10
1.09256391e-09
2.176225315e-09
3.057737824e-09
3.268872681e-09
2.155322837e-09
-1.194045118e-09
-1.004526212e-08
-1.047119231e-08
-3.266179546e-09
-1.795922636e-09
-1.374676335e-09
-1.241070311e-09
-1.114592748e-09
-8.948028876e-10
)
;
    }
    rightWall
    {
        type            empty;
    }
    leftWall
    {
        type            empty;
    }
    frontAndBack
    {
        type            calculated;
        value           nonuniform List<scalar> 
120
(
2.075030768e-10
3.670452739e-10
1.027886053e-10
-1.42906019e-10
-4.162973551e-10
-6.99188283e-10
-9.927742493e-10
-1.300530395e-09
-1.627629562e-09
-1.988291454e-09
-2.401863343e-09
-2.899929429e-09
-3.532542972e-09
-4.393285843e-09
-5.614845028e-09
-7.28796396e-09
-9.23941482e-09
-1.079841004e-08
-1.098803177e-08
-9.797546376e-09
-9.376685092e-09
-1.074137447e-08
-1.272692092e-08
-1.55954132e-08
-2.131074025e-08
-3.219560663e-08
-4.660507207e-08
-6.446472539e-08
-8.009820729e-08
-3.423253821e-08
-0.0007016256525
0
0
0
0
0
0
0
0
0
0
0
0
0
0
0
0
0
0
0
0
0
0
0
0
0
0
0
0
0
-8.948028876e-10
-4.546713583e-09
-1.176198171e-08
-2.247307791e-08
-3.913962575e-08
-6.498549375e-08
-1.053837086e-07
-2.121731302e-07
-3.084968102e-07
-3.619557342e-07
97.15187189
0
0
0
0
0
0
0
0
0
0
0
0
0
0
0
0
0
0
0
0
0
0
0
0
0
0
0
0
0
0
0
0
0
0
0
0
0
0
0
0
0
0
0
0
0
0
0
0
0
)
;
    }
}


// ************************************************************************* //
