/*--------------------------------*- C++ -*----------------------------------*\
  =========                 |
  \\      /  F ield         | OpenFOAM: The Open Source CFD Toolbox
   \\    /   O peration     | Website:  https://openfoam.org
    \\  /    A nd           | Version:  10
     \\/     M anipulation  |
\*---------------------------------------------------------------------------*/
FoamFile
{
    format      ascii;
    class       surfaceScalarField;
    location    "0.0005";
    object      alphaPhi.metal;
}
// * * * * * * * * * * * * * * * * * * * * * * * * * * * * * * * * * * * * * //

dimensions      [0 3 -1 0 0 0 0];

internalField   nonuniform List<scalar> 
7080
(
5.705165295e-21
-1.429593746e-21
3.093336986e-19
-2.880806724e-19
1.584538012e-18
-1.414646942e-18
1.642220357e-18
-1.941553602e-19
2.006046435e-18
0
3.80843109e-19
4.99891947e-18
2.337205744e-19
4.727021669e-19
3.149417867e-19
4.332544477e-19
2.100385286e-19
9.446439532e-19
3.762500344e-18
1.041292591e-18
3.143666568e-16
4.974900611e-17
4.411919042e-14
-1.440155859e-19
1.157632243e-11
-4.925382731e-12
-3.723811203e-12
-1.968520094e-11
-3.250111543e-12
-2.852401987e-11
1.498007817e-12
-2.289841335e-11
-4.043872777e-20
-2.68369723e-12
-3.091791857e-20
-3.796684793e-20
-2.209408066e-20
-2.457742437e-20
-1.591453231e-20
-1.655984751e-20
-1.179212856e-20
-1.16591949e-20
-9.007475361e-21
-8.649137235e-21
-7.071487574e-21
-6.726854279e-21
-5.682739503e-21
-5.440380276e-21
-4.656805805e-21
-4.540035459e-21
-3.878700836e-21
-3.884623954e-21
-3.274798207e-21
-3.391258858e-21
-2.796611665e-21
-3.009271543e-21
-2.411327541e-21
-2.706450987e-21
-2.096164005e-21
-2.461569986e-21
-1.834928855e-21
-2.26018202e-21
-1.615863271e-21
-2.092171093e-21
-1.430261017e-21
-1.950274421e-21
-1.271565012e-21
-1.829161045e-21
-1.13475745e-21
-1.724838564e-21
-1.015938577e-21
-1.63426385e-21
-9.120363136e-22
-1.555083671e-21
-8.206044471e-22
-1.485455333e-21
-7.396756172e-22
-1.423917418e-21
-6.676501062e-22
-1.369296448e-21
-6.032130126e-22
-1.320640868e-21
-5.452741426e-22
-1.277173585e-21
-4.929233816e-22
-1.238255747e-21
-4.453956696e-22
-1.203358171e-21
-4.02042855e-22
-1.17203929e-21
-3.623114325e-22
-1.1439286e-21
-3.257252126e-22
-1.118714065e-21
-2.918717306e-22
-1.096132158e-21
-2.603913698e-22
-1.075959786e-21
-2.309684712e-22
-1.058007746e-21
-2.033239199e-22
-1.042115462e-21
-1.772088841e-22
-1.028146757e-21
-1.523995464e-22
-1.015986487e-21
-1.286927315e-22
-1.005537855e-21
-1.059022676e-22
-9.967202715e-22
-8.385585663e-23
-9.894675832e-22
-6.23922675e-23
-9.837266323e-22
-4.135876829e-23
-9.794560987e-22
-2.060880229e-23
-9.766256274e-22
-9.75215174e-22
3.49811676e-19
-1.83655715e-19
2.659468064e-17
-2.475937605e-17
1.071873774e-16
-7.439114566e-17
1.940435439e-16
-1.104546581e-16
1.414329313e-16
5.560448621e-17
5.138495635e-20
3.364902444e-17
1.9254448e-18
2.214094595e-18
1.546633005e-17
7.240057803e-17
1.592268383e-18
5.161946828e-17
5.649129747e-19
8.917238199e-19
2.347035118e-18
4.661950151e-17
5.2471019e-19
3.309268919e-19
1.790923785e-11
-8.500517286e-12
6.860357057e-12
-6.784372309e-12
4.098500778e-12
-2.57621415e-11
2.683697068e-12
-2.148360962e-11
-3.30157427e-20
-1.287487337e-19
-1.939823373e-20
-5.15843569e-20
-1.409051555e-20
-2.988514078e-20
-1.101387969e-20
-1.96364831e-20
-8.782070903e-21
-1.38910049e-20
-7.085192404e-21
-1.034601641e-20
-5.78501357e-21
-8.027032044e-21
-4.782394686e-21
-6.442997034e-21
-4.0013943e-21
-5.321034009e-21
-3.38533574e-21
-4.50068193e-21
-2.892810892e-21
-3.88378388e-21
-2.493791109e-21
-3.408290855e-21
-2.16644654e-21
-3.03379362e-21
-1.894776039e-21
-2.73323758e-21
-1.666917928e-21
-2.488037933e-21
-1.473966598e-21
-2.285122047e-21
-1.309147642e-21
-2.115093627e-21
-1.16724253e-21
-1.971064979e-21
-1.044182736e-21
-1.847895711e-21
-9.367583989e-22
-1.741685894e-21
-8.424079752e-22
-1.649433164e-21
-7.590665326e-22
-1.568796283e-21
-6.850546469e-22
-1.497927965e-21
-6.189945259e-22
-1.435354316e-21
-5.597457302e-22
-1.379887363e-21
-5.063563047e-22
-1.330561232e-21
-4.580258047e-22
-1.286584781e-21
-4.140767892e-22
-1.24730555e-21
-3.739321652e-22
-1.212181958e-21
-3.370968976e-22
-1.180761816e-21
-3.031433056e-22
-1.152665769e-21
-2.716993583e-22
-1.127574428e-21
-2.4243933e-22
-1.105218223e-21
-2.150761868e-22
-1.085369262e-21
-1.893552152e-22
-1.067834739e-21
-1.650486134e-22
-1.05245163e-21
-1.419509154e-22
-1.039082451e-21
-1.198751476e-22
-1.027611889e-21
-9.86495793e-23
-1.017944095e-21
-7.811490573e-23
-1.010000503e-21
-5.812173389e-23
-1.003718052e-21
-3.852829697e-23
-9.990477906e-22
-1.919834891e-23
-9.959538345e-22
-9.944126261e-22
1.826810043e-17
0
9.567374799e-16
-7.729685741e-16
2.413019069e-15
-9.975277109e-16
1.996139649e-15
0
2.516828871e-16
4.966485564e-16
7.962847192e-18
8.764295245e-17
8.279323037e-19
7.379194204e-18
-4.519643455e-18
7.285773521e-17
-2.038848178e-15
2.087189432e-15
-1.442736782e-13
1.422345572e-13
3.554816511e-13
-4.997155776e-13
5.086543267e-12
4.752035693e-12
1.093425063e-11
-6.625880496e-12
1.142394244e-11
-7.312471823e-12
6.820324225e-12
-2.115852299e-11
1.255203245e-19
-1.466328553e-11
2.54917493e-20
-3.141704832e-20
2.342950809e-21
-2.843555851e-20
-3.84185786e-21
-2.370033153e-20
-5.268401493e-21
-1.82099386e-20
-5.237082414e-21
-1.392232378e-20
-4.766208034e-21
-1.081689096e-20
-4.20097856e-21
-8.592261335e-21
-3.66043166e-21
-6.983542997e-21
-3.181042222e-21
-5.800421845e-21
-2.76843769e-21
-4.913284967e-21
-2.417317866e-21
-4.234902795e-21
-2.119293873e-21
-3.706314195e-21
-1.865890501e-21
-3.287195979e-21
-1.649576391e-21
-2.949549923e-21
-1.464002042e-21
-2.673610126e-21
-1.303938178e-21
-2.445184329e-21
-1.165118994e-21
-2.253912093e-21
-1.044073262e-21
-2.09210998e-21
-9.379729191e-22
-1.953994532e-21
-8.445056684e-22
-1.835151145e-21
-7.61771095e-22
-1.732166017e-21
-6.881982138e-22
-1.642367861e-21
-6.224809985e-22
-1.563643824e-21
-5.635275724e-22
-1.494306e-21
-5.104195998e-22
-1.432993331e-21
-4.623798529e-22
-1.378598996e-21
-4.187465742e-22
-1.330216194e-21
-3.78953197e-22
-1.287097086e-21
-3.425120238e-22
-1.248621222e-21
-3.090008504e-22
-1.214271024e-21
-2.780519643e-22
-1.183612703e-21
-2.493431536e-22
-1.156281345e-21
-2.225903685e-22
-1.131969172e-21
-1.975416641e-22
-1.110416158e-21
-1.739721064e-22
-1.091402486e-21
-1.516794345e-22
-1.07474247e-21
-1.304803524e-22
-1.060279677e-21
-1.102073544e-22
-1.047883019e-21
-9.070598744e-23
-1.037443604e-21
-7.183245386e-23
-1.028872205e-21
-5.345147291e-23
-1.022097226e-21
-3.543434081e-23
-1.017063126e-21
-1.765714059e-23
-1.013729222e-21
-1.01206885e-21
-6.092845985e-14
6.06422802e-14
-1.146239705e-13
0
-1.061115885e-13
0
-7.5896242e-18
-1.058427424e-13
-3.947222746e-18
5.269631485e-16
-1.793487427e-18
9.704948135e-17
-2.915597569e-17
3.211069234e-17
-2.749886878e-14
2.75541308e-14
-2.939016405e-13
1.744970475e-11
-1.573627198e-12
1.774409473e-11
-1.164991643e-11
-1.422340695e-11
-1.326842903e-12
-4.079397084e-12
2.387190919e-12
-1.080415113e-11
9.811003285e-12
-1.473628389e-11
7.983172942e-12
-1.933069264e-11
3.92030614e-20
-6.680112622e-12
1.7007373e-20
-1.291033315e-20
7.083641006e-21
-1.85118266e-20
1.648535073e-21
-1.826522528e-20
-9.807866794e-22
-1.558061603e-20
-2.131649594e-21
-1.27714601e-20
-2.541578405e-21
-1.040696166e-20
-2.592260221e-21
-8.54157917e-21
-2.477310509e-21
-7.098492106e-21
-2.293905343e-21
-5.98382591e-21
-2.090055518e-21
-5.117133481e-21
-1.888729266e-21
-4.436227851e-21
-1.700175658e-21
-3.894866715e-21
-1.528244444e-21
-3.459126116e-21
-1.373636595e-21
-3.104156564e-21
-1.235576245e-21
-2.811668979e-21
-1.112665942e-21
-2.568093006e-21
-1.003316881e-21
-2.363259773e-21
-9.059578142e-22
-2.189467943e-21
-8.191295327e-22
-2.040821619e-21
-7.415205405e-22
-1.912758599e-21
-6.719729382e-22
-1.801711868e-21
-6.094741777e-22
-1.704864907e-21
-5.531431742e-22
-1.619973205e-21
-5.022149035e-22
-1.54523261e-21
-4.560252651e-22
-1.479181165e-21
-4.139970505e-22
-1.42062528e-21
-3.756274661e-22
-1.368583803e-21
-3.404773329e-22
-1.322245252e-21
-3.081618263e-22
-1.280934768e-21
-2.783425285e-22
-1.244088348e-21
-2.507206067e-22
-1.211232638e-21
-2.250309803e-22
-1.181968999e-21
-2.010373544e-22
-1.155960862e-21
-1.785279923e-22
-1.132923617e-21
-1.573120904e-22
-1.112616492e-21
-1.372166417e-22
-1.094836009e-21
-1.180836941e-22
-1.079410704e-21
-9.97679398e-23
-1.066196865e-21
-8.213458793e-23
-1.055075083e-21
-6.505747556e-23
-1.045947485e-21
-4.841737295e-23
-1.038735521e-21
-3.210043654e-23
-1.033378253e-21
-1.599676876e-23
-1.029831054e-21
-1.028064681e-21
-2.746138919e-12
4.322337838e-12
-1.019798975e-11
2.528986141e-12
-1.701915222e-11
-8.939065305e-12
-2.215244542e-11
-3.395465357e-12
-2.128069651e-11
1.409838632e-11
-1.311547256e-11
1.272664397e-11
-6.328882266e-12
1.796183941e-11
1.467688381e-11
5.253171441e-11
3.849578227e-11
5.89128752e-11
4.760776359e-11
3.193027735e-11
2.747136388e-11
2.012280128e-12
2.404238331e-11
-9.420982066e-13
1.778899589e-11
-4.542838156e-12
1.377365193e-11
-1.072096667e-11
6.680112497e-12
-1.223715321e-11
-1.31397852e-20
-1.149132903e-19
6.708944653e-21
-3.2759063e-20
7.307607934e-21
-1.911048989e-20
4.333144322e-21
-1.529076133e-20
1.828369254e-21
-1.307584043e-20
2.328488396e-22
-1.117593909e-20
-6.761959133e-22
-9.497916355e-21
-1.149173157e-21
-8.068601313e-21
-1.362644313e-21
-6.885020176e-21
-1.427212913e-21
-5.919256379e-21
-1.409149887e-21
-5.135195499e-21
-1.34736813e-21
-4.498008516e-21
-1.264435058e-21
-3.977798559e-21
-1.173274893e-21
-3.550285047e-21
-1.08114901e-21
-3.196281319e-21
-9.920002722e-22
-2.900816523e-21
-9.078327097e-22
-2.652259135e-21
-8.295250502e-22
-2.441565912e-21
-7.573114903e-22
-2.261680129e-21
-6.910665118e-22
-2.107065315e-21
-6.304738099e-22
-1.973349865e-21
-5.751259775e-22
-1.857058022e-21
-5.245824754e-22
-1.755406624e-21
-4.784025796e-22
-1.666151348e-21
-4.361634584e-22
-1.587470003e-21
-3.974693799e-22
-1.517873449e-21
-3.619555733e-22
-1.456137184e-21
-3.292889153e-22
-1.401248484e-21
-2.99166849e-22
-1.352365314e-21
-2.713154065e-22
-1.308784192e-21
-2.454868184e-22
-1.269914902e-21
-2.214569676e-22
-1.235260451e-21
-1.990228428e-22
-1.204401109e-21
-1.780001095e-22
-1.176981613e-21
-1.582208677e-22
-1.152700893e-21
-1.395316075e-22
-1.131303779e-21
-1.21791337e-22
-1.112574295e-21
-1.048698547e-22
-1.096330215e-21
-8.86461582e-23
-1.082418634e-21
-7.300698918e-23
-1.070712382e-21
-5.7845512e-23
-1.061107133e-21
-4.306010535e-23
-1.05351911e-21
-2.855323738e-23
-1.047883285e-21
-1.423039526e-23
-1.044152026e-21
-1.042294112e-21
-1.066078536e-11
6.40584081e-12
-1.751265436e-11
1.082353033e-11
-3.377501568e-11
5.231033099e-13
-4.530226855e-11
6.340937441e-12
-3.868022246e-11
1.264699889e-11
-3.144073965e-11
1.131662544e-11
-2.525389361e-11
2.037168075e-11
1.087440475e-12
3.604616296e-11
1.901649912e-11
4.186256435e-11
2.648719526e-11
2.450362631e-11
1.852635847e-11
9.977952719e-12
1.391965061e-11
3.664610427e-12
1.15080293e-11
-2.131247381e-12
7.6949911e-12
-6.907922365e-12
1.893885308e-19
-4.5421623e-12
4.939087567e-20
2.57608538e-20
2.040264166e-20
-3.770828854e-21
1.11273365e-20
-9.83518431e-21
6.548065229e-21
-1.07114896e-20
3.728270588e-21
-1.025604535e-20
1.910871576e-21
-9.35853962e-21
7.531191286e-22
-8.340163301e-21
3.440798075e-23
-7.349889328e-21
-3.968805155e-22
-6.453730729e-21
-6.431520332e-22
-5.672983952e-21
-7.719629048e-22
-5.00638374e-21
-8.271581736e-22
-4.442812241e-21
-8.369215457e-22
-3.968034012e-21
-8.192711651e-22
-3.567934201e-21
-7.856842132e-22
-3.229867095e-21
-7.434428844e-22
-2.943056645e-21
-6.971394865e-22
-2.698561178e-21
-6.496392673e-22
-2.489064668e-21
-6.026966768e-22
-2.308621265e-21
-5.573510613e-22
-2.152409486e-21
-5.141819671e-22
-2.016517424e-21
-4.734745789e-22
-1.897763738e-21
-4.353271994e-22
-1.793552247e-21
-3.997212349e-22
-1.701755534e-21
-3.665669046e-22
-1.620622534e-21
-3.357331152e-22
-1.548705389e-21
-3.070668733e-22
-1.484801514e-21
-2.804057447e-22
-1.427907645e-21
-2.555857275e-22
-1.377183313e-21
-2.324461161e-22
-1.331921742e-21
-2.108323682e-22
-1.291526567e-21
-1.905976254e-22
-1.255493126e-21
-1.71603347e-22
-1.223393356e-21
-1.537193893e-22
-1.194863563e-21
-1.368237536e-22
-1.169594514e-21
-1.208021236e-22
-1.147323372e-21
-1.055472564e-22
-1.127827123e-21
-9.09582736e-23
-1.110917197e-21
-7.693990634e-23
-1.096435069e-21
-6.340174083e-23
-1.084248681e-21
-5.02574885e-23
-1.074249553e-21
-3.742428086e-23
-1.066350477e-21
-2.482197836e-23
-1.060483713e-21
-1.237248132e-23
-1.056599608e-21
-1.054665604e-21
-2.861361017e-11
3.988598585e-12
-2.597006795e-11
8.182959508e-12
-3.193746337e-11
6.492141779e-12
-3.461843971e-11
9.025509583e-12
-3.191922611e-11
9.947116578e-12
-3.089237757e-11
1.029360383e-11
-2.765202963e-11
1.713055961e-11
-1.686621012e-11
2.526166958e-11
-2.850393082e-12
2.784698227e-11
4.660597625e-12
1.699268936e-11
5.971040805e-12
8.667512991e-12
7.623771131e-12
2.011880093e-12
8.682317302e-12
-3.189793552e-12
4.542162285e-12
-2.767767351e-12
-4.582593805e-21
-1.431286639e-20
1.640755853e-20
4.770701475e-21
1.431520238e-20
-1.678472327e-21
1.025103121e-20
-5.771012624e-21
7.00350947e-21
-7.463967386e-21
4.625776323e-21
-7.878311738e-21
2.929247894e-21
-7.662010634e-21
1.743393101e-21
-7.154307753e-21
9.305665802e-22
-6.537061848e-21
3.838662608e-22
-5.90702942e-21
2.344817895e-23
-5.312564977e-21
-2.083914061e-22
-4.774543267e-21
-3.523799446e-22
-4.298822698e-21
-4.368217346e-22
-3.883591101e-21
-4.812040583e-22
-3.523550697e-21
-4.988737635e-22
-3.212196167e-21
-4.989474175e-22
-2.942981711e-21
-4.876429767e-22
-2.709864263e-21
-4.691958641e-22
-2.507510348e-21
-4.464848983e-22
-2.331330725e-21
-4.21458999e-22
-2.177433808e-21
-3.954282812e-22
-2.042546499e-21
-3.692630877e-22
-1.923927237e-21
-3.435304861e-22
-1.819283107e-21
-3.185882357e-22
-1.726695989e-21
-2.946497594e-22
-1.644559162e-21
-2.718292398e-22
-1.571524016e-21
-2.501730042e-22
-1.506455818e-21
-2.296814131e-22
-1.448397256e-21
-2.103241561e-22
-1.396538529e-21
-1.92050941e-22
-1.350192867e-21
-1.747989275e-22
-1.308776483e-21
-1.58497855e-22
-1.271792133e-21
-1.430735547e-22
-1.238815624e-21
-1.284503404e-22
-1.209484748e-21
-1.145526114e-22
-1.183490186e-21
-1.013058744e-22
-1.160568029e-21
-8.863733011e-23
-1.140493603e-21
-7.647614565e-23
-1.123076379e-21
-6.475351848e-23
-1.108155773e-21
-5.34026126e-23
-1.095597724e-21
-4.235841289e-23
-1.085291907e-21
-3.155751688e-23
-1.077149502e-21
-2.093787357e-23
-1.071101438e-21
-1.043847646e-23
-1.067097042e-21
-1.065103066e-21
-2.93102809e-11
2.847662546e-12
-2.808708921e-11
6.959694355e-12
-2.980455811e-11
8.209598857e-12
-3.014183039e-11
9.362793744e-12
-2.966540003e-11
9.470693797e-12
-2.979123219e-11
1.041946423e-11
-2.700950142e-11
1.434885239e-11
-1.959147902e-11
1.784365664e-11
-9.100347547e-12
1.735585221e-11
-2.244220651e-12
1.013656275e-11
2.147635135e-12
4.275657207e-12
4.268453888e-12
-1.089386588e-13
2.767767368e-12
-1.689107034e-12
1.76150698e-20
-1.799386533e-21
5.265115951e-21
-1.962912543e-21
9.989508922e-21
4.630877001e-23
1.022266209e-20
-1.911625094e-21
8.558076448e-21
-4.106426507e-21
6.589165117e-21
-5.495055476e-21
4.842077426e-21
-6.131223392e-21
3.436950775e-21
-6.256883234e-21
2.360639005e-21
-6.077995082e-21
1.560599008e-21
-5.737020854e-21
9.783307042e-22
-5.324760174e-21
5.614698889e-22
-4.895703291e-21
2.673291633e-22
-4.480401609e-21
6.285165211e-23
-4.094344124e-21
-7.678133014e-23
-3.743956981e-21
-1.69849529e-22
-3.430481326e-21
-2.296593067e-22
-3.152385162e-21
-2.658299703e-22
-2.906809738e-21
-2.852890616e-22
-2.690403777e-21
-2.930162403e-22
-2.49978168e-21
-2.925879816e-22
-2.331757397e-21
-2.865716904e-22
-2.18344844e-21
-2.768090188e-22
-2.052307476e-21
-2.646189574e-22
-1.936115577e-21
-2.509433686e-22
-1.83295693e-21
-2.364514083e-22
-1.741186124e-21
-2.216146132e-22
-1.659394078e-21
-2.067610422e-22
-1.586375671e-21
-1.92114442e-22
-1.521100462e-21
-1.778226859e-22
-1.462686997e-21
-1.639784944e-22
-1.410380647e-21
-1.506345573e-22
-1.363534706e-21
-1.378145772e-22
-1.321594384e-21
-1.255213465e-22
-1.284083321e-21
-1.137426785e-22
-1.250592264e-21
-1.024557782e-22
-1.220769596e-21
-9.163045391e-23
-1.194313421e-21
-8.123144894e-23
-1.170964934e-21
-7.122010578e-23
-1.150502886e-21
-6.155554032e-23
-1.13273896e-21
-5.219546941e-23
-1.117513938e-21
-4.309679488e-23
-1.104694537e-21
-3.421600795e-23
-1.094170829e-21
-2.550945287e-23
-1.085854151e-21
-1.693347811e-23
-1.07967545e-21
-8.444499969e-24
-1.075584012e-21
-1.073546533e-21
-2.818191912e-11
3.511108682e-12
-2.788262227e-11
6.660396685e-12
-2.793910051e-11
8.266076604e-12
-2.751313299e-11
8.936826239e-12
-2.704533601e-11
9.002896893e-12
-2.629074184e-11
9.664870225e-12
-2.307680061e-11
1.113491145e-11
-1.657119511e-11
1.133805117e-11
-8.326543316e-12
9.111200417e-12
-1.717785152e-12
3.527804579e-12
1.798045727e-12
7.598263339e-13
1.689107053e-12
8.473545368e-21
1.283503242e-20
4.246361247e-21
9.068603245e-21
1.967042642e-21
7.272226936e-21
-1.665359317e-22
8.031575063e-21
-7.130389654e-22
8.027860674e-21
-1.907910215e-21
7.169447478e-21
-3.248012658e-21
5.952997202e-21
-4.278604424e-21
4.716417583e-21
-4.89464295e-21
3.615838926e-21
-5.156303678e-21
2.701613234e-21
-5.163768395e-21
1.972859688e-21
-5.008266328e-21
1.407387587e-21
-4.759287186e-21
9.767715713e-22
-4.465086387e-21
6.533866478e-22
-4.157015658e-21
4.13238795e-22
-3.854195118e-21
2.36694325e-22
-3.56741134e-21
1.082466352e-22
-3.302032483e-21
1.591611694e-23
-3.060053439e-21
-4.942400867e-23
-2.841468281e-21
-9.466696464e-23
-2.645159346e-21
-1.249919571e-22
-2.4694551e-21
-1.442790252e-22
-2.312468672e-21
-1.554307259e-22
-2.172295046e-21
-1.606171203e-22
-2.047119361e-21
-1.6146031e-22
-1.93527063e-21
-1.591725625e-22
-1.835242872e-21
-1.54659363e-22
-1.74569747e-21
-1.485962053e-22
-1.665455342e-21
-1.414858333e-22
-1.593484103e-21
-1.337009778e-22
-1.528883319e-21
-1.255163359e-22
-1.470869581e-21
-1.171325528e-22
-1.418762338e-21
-1.086942354e-22
-1.371970938e-21
-1.003035141e-22
-1.329983055e-21
-9.203028936e-23
-1.29235452e-21
-8.392001125e-23
-1.258700504e-21
-7.599960283e-23
-1.228687928e-21
-6.828196678e-23
-1.202028951e-21
-6.076940076e-23
-1.178475405e-21
-5.345618013e-23
-1.157814069e-21
-4.633051831e-23
-1.139862665e-21
-3.937606879e-23
-1.124466497e-21
-3.257308673e-23
-1.111495655e-21
-2.589932952e-23
-1.100842701e-21
-1.933075205e-23
-1.092420788e-21
-1.284204017e-23
-1.086162161e-21
-6.407021008e-24
-1.082016986e-21
-1.079952511e-21
-2.599433345e-11
4.449383242e-12
-2.588174881e-11
6.547812028e-12
-2.522223067e-11
7.606558477e-12
-2.41935124e-11
7.908107975e-12
-2.289611081e-11
7.705495298e-12
-2.082479801e-11
7.593557431e-12
-1.681012949e-11
7.120242927e-12
-1.048530091e-11
5.013222587e-12
-4.287630881e-12
2.913530396e-12
-7.598263367e-13
3.944053446e-20
-1.161185715e-21
-2.670258795e-21
4.472797012e-21
1.953011318e-21
6.249067318e-21
2.47009094e-21
6.933542335e-21
1.282567972e-21
6.725723898e-21
4.128296905e-23
6.836703815e-21
-8.240183386e-22
6.687758231e-21
-1.75896393e-21
6.138855712e-21
-2.699109291e-21
5.336958676e-21
-3.476706499e-21
4.454756855e-21
-4.012440223e-21
3.60837421e-21
-4.309920047e-21
2.8571153e-21
-4.41250847e-21
2.22183883e-21
-4.372988929e-21
1.701588386e-21
-4.239035864e-21
1.2848423e-21
-4.048339309e-21
9.562071883e-22
-3.828379385e-21
7.000225732e-22
-3.598009288e-21
5.020731821e-22
-3.369460798e-21
3.502256789e-22
-3.150183864e-21
2.345012752e-22
-2.944327821e-21
1.468849263e-22
-2.753850531e-21
8.103728051e-23
-2.579310135e-21
3.199447096e-23
-2.420410638e-21
-4.105398718e-24
-2.276367116e-21
-3.025504048e-23
-2.146143691e-21
-4.876839026e-23
-2.02860426e-21
-6.143255182e-23
-1.922604676e-21
-6.962716065e-23
-1.827046434e-21
-7.441723448e-23
-1.740905531e-21
-7.662496664e-23
-1.663245695e-21
-7.688504948e-23
-1.59322204e-21
-7.568723927e-23
-1.530079082e-21
-7.340909267e-23
-1.473145637e-21
-7.034115354e-23
-1.421828186e-21
-6.670635226e-23
-1.375603679e-21
-6.267497848e-23
-1.334012398e-21
-5.837627376e-23
-1.296651194e-21
-5.39074357e-23
-1.263167282e-21
-4.93406252e-23
-1.233252642e-21
-4.472842095e-23
-1.206639048e-21
-4.010806504e-23
-1.183093687e-21
-3.550477601e-23
-1.162415353e-21
-3.093435061e-23
-1.144431161e-21
-2.640522646e-23
-1.128993743e-21
-2.192013234e-23
-1.115978878e-21
-1.747741714e-23
-1.105283508e-21
-1.307212427e-23
-1.096824111e-21
-8.696865979e-24
-1.090535387e-21
-4.34254557e-24
-1.086369239e-21
-1.084294012e-21
-2.273432004e-11
4.892475676e-12
-2.218088687e-11
5.994378857e-12
-2.066911401e-11
6.094785614e-12
-1.869850929e-11
5.937503264e-12
-1.613690392e-11
5.143889932e-12
-1.24917001e-11
3.94835361e-12
-7.926752993e-12
2.555295822e-12
-2.91353043e-12
2.124470664e-20
-2.374866335e-20
-8.655791205e-21
7.060194958e-21
5.941294317e-21
3.184091737e-21
1.205844426e-21
3.844559188e-21
1.292543991e-21
5.061361526e-21
1.253288947e-21
5.692257333e-21
6.516726721e-22
5.86042259e-21
-1.268816496e-22
5.901758223e-21
-8.653532206e-22
5.74761287e-21
-1.604817687e-21
5.361258505e-21
-2.312753985e-21
4.801224952e-21
-2.916672019e-21
4.157277031e-21
-3.368491328e-21
3.505785787e-21
-3.658427772e-21
2.896634841e-21
-3.803356548e-21
2.355791895e-21
-3.832145087e-21
1.892284941e-21
-3.775527943e-21
1.504802223e-21
-3.660855438e-21
1.186577286e-21
-3.510153194e-21
9.285710623e-22
-3.340001877e-21
7.213501166e-22
-3.162238769e-21
5.560817216e-22
-2.984914356e-21
4.249785651e-22
-2.813223378e-21
3.214253227e-22
-2.650295802e-21
2.39936777e-22
-2.497819975e-21
1.760379934e-22
-2.356510188e-21
1.261180262e-22
-2.226445449e-21
8.728439077e-23
-2.107308314e-21
5.723119362e-23
-1.998549281e-21
3.412569037e-23
-1.899497365e-21
1.651374217e-23
-1.809432652e-21
3.242601054e-24
-1.72763251e-21
-6.601311316e-24
-1.653399829e-21
-1.374209099e-23
-1.586079228e-21
-1.875379493e-23
-1.525065293e-21
-2.209164137e-23
-1.469805695e-21
-2.411664672e-23
-1.419801107e-21
-2.511507108e-23
-1.374603208e-21
-2.531377475e-23
-1.333811655e-21
-2.489236148e-23
-1.29707055e-21
-2.399279599e-23
-1.264064758e-21
-2.272703077e-23
-1.234516297e-21
-2.118305987e-23
-1.20818092e-21
-1.942973105e-23
-1.184844966e-21
-1.75205842e-23
-1.164322522e-21
-1.549693303e-23
-1.146452902e-21
-1.339036113e-23
-1.131098441e-21
-1.122476219e-23
-1.118142593e-21
-9.018020075e-24
-1.107488318e-21
-6.783400915e-24
-1.099056733e-21
-4.530717166e-24
-1.09278602e-21
-2.267319091e-24
-1.08863056e-21
-1.086560294e-21
-1.766330476e-11
4.388139278e-12
-1.610751392e-11
4.438588019e-12
-1.320821529e-11
3.19548698e-12
-1.010610613e-11
2.83539411e-12
-6.503649447e-12
1.541433247e-12
-2.555295853e-12
1.993107988e-20
-1.951006996e-20
-9.507945815e-21
4.523696623e-21
1.335737513e-21
-1.856999693e-21
-2.27509489e-21
2.924779281e-21
1.159515372e-21
3.271602735e-21
8.590213154e-22
3.801039213e-21
7.631079295e-22
4.459745251e-21
5.945834712e-22
4.913703011e-21
1.977156152e-22
5.121951019e-21
-3.351288532e-22
5.162293757e-21
-9.056950719e-22
5.039676572e-21
-1.482199562e-21
4.757340471e-21
-2.030416951e-21
4.349405643e-21
-2.508736226e-21
3.867340587e-21
-2.886425236e-21
3.360857012e-21
-3.151943177e-21
2.867846302e-21
-3.310344903e-21
2.412409039e-21
-3.376706872e-21
2.006957446e-21
-3.370075229e-21
1.655504468e-21
-3.309401193e-21
1.356728603e-21
-3.211376092e-21
1.10633417e-21
-3.089606343e-21
8.986745291e-22
-2.954578071e-21
7.277726998e-22
-2.814011345e-21
5.879061415e-22
-2.673355436e-21
4.739011493e-22
-2.536289273e-21
3.812465646e-22
-2.405163775e-21
3.061027325e-22
-2.281364689e-21
2.452551606e-22
-2.165596154e-21
1.960434236e-22
-2.058094808e-21
1.5628311e-22
-1.958787179e-21
1.241904028e-22
-1.867402857e-21
9.831388487e-23
-1.783554296e-21
7.747528147e-23
-1.70679199e-21
6.071928997e-23
-1.636641832e-21
4.727184446e-23
-1.572629712e-21
3.650580258e-23
-1.51429716e-21
2.791294716e-23
-1.46121076e-21
2.108125187e-23
-1.412967349e-21
1.567648149e-23
-1.369196379e-21
1.142733082e-23
-1.329560432e-21
8.113430601e-24
-1.293754552e-21
5.555664525e-24
-1.261504874e-21
3.608346125e-24
-1.232566861e-21
2.152894122e-24
-1.206723381e-21
1.092712986e-24
-1.183782756e-21
3.490358995e-25
-1.163576887e-21
-1.424720057e-25
-1.145959494e-21
-4.345133999e-25
-1.130804521e-21
-5.704867098e-25
-1.118004718e-21
-5.864350543e-25
-1.107470412e-21
-5.126877763e-25
-1.099128461e-21
-3.752573467e-25
-1.09292139e-21
-1.970526885e-25
-1.088806693e-21
-1.08675632e-21
-1.017478749e-11
2.589910864e-12
-7.572314322e-12
1.83611485e-12
-4.376827371e-12
3.613412878e-20
-1.541433264e-12
-9.575433986e-22
-9.797172515e-21
-4.333156755e-21
7.409874985e-21
1.495746477e-21
8.288429516e-22
-2.926913783e-21
2.960945584e-21
-7.963650386e-22
1.568208264e-21
-8.823573152e-22
2.627496506e-21
1.002273402e-22
3.175689349e-21
3.10828969e-22
3.632514754e-21
3.06283139e-22
4.062877395e-21
1.642216e-22
4.380858543e-21
-1.20264663e-22
4.5513848e-21
-5.056541974e-22
4.585789267e-21
-9.400986275e-22
4.491459183e-21
-1.387868577e-21
4.279021196e-21
-1.817978023e-21
3.971716632e-21
-2.201430636e-21
3.601822646e-21
-2.5165302e-21
3.202455285e-21
-2.752574835e-21
2.801484333e-21
-2.909373e-21
2.419040681e-21
-2.994262146e-21
2.067631482e-21
-3.018664793e-21
1.753529568e-21
-2.995298014e-21
1.478498352e-21
-2.936343732e-21
1.241362442e-21
-2.852469384e-21
1.039241255e-21
-2.752455772e-21
8.684286083e-22
-2.643197412e-21
7.249723052e-22
-2.529897687e-21
6.050266469e-22
-2.416342073e-21
5.050456509e-22
-2.30518117e-21
4.218712675e-22
-2.198188622e-21
3.527565064e-22
-2.096479646e-21
2.953510529e-22
-2.000687583e-21
2.476674313e-22
-1.911101785e-21
2.080389646e-22
-1.827772592e-21
1.750761904e-22
-1.750589648e-21
1.476254398e-22
-1.679339269e-21
1.247314094e-22
-1.613745757e-21
1.056043971e-22
-1.553500627e-21
8.95922026e-23
-1.498282895e-21
7.615635829e-23
-1.447772851e-21
6.485222169e-23
-1.401661137e-21
5.531242863e-23
-1.359654489e-21
4.723321025e-23
-1.321479093e-21
4.036310838e-23
-1.286882315e-21
3.449367743e-23
-1.255633305e-21
2.945182682e-23
-1.227522888e-21
2.509351886e-23
-1.202362991e-21
2.129858183e-23
-1.179985801e-21
1.796642878e-23
-1.160242785e-21
1.501250126e-23
-1.143003666e-21
1.236528989e-23
-1.128155416e-21
9.963819505e-24
-1.115601318e-21
7.755515478e-24
-1.10526012e-21
5.694383532e-24
-1.097065291e-21
3.739438961e-24
-1.090964384e-21
1.85332028e-24
-1.086918518e-21
-1.084901986e-21
-1.836114874e-12
1.413795816e-20
-2.035177673e-20
-4.582824925e-21
7.660640939e-21
7.565899638e-21
6.418614741e-21
1.438278692e-21
3.105012872e-21
-1.019554886e-21
4.787756617e-21
-1.869969889e-22
2.946239926e-21
-1.085396925e-21
2.880554315e-21
-7.30679258e-22
2.550792917e-21
-5.525955275e-22
2.838098136e-21
-1.870773989e-22
3.171143519e-21
-2.221576565e-23
3.490453215e-21
-1.30257662e-23
3.778391132e-21
-1.237153868e-22
3.995469009e-21
-3.373415704e-22
4.11694037e-21
-6.271246438e-22
4.138019318e-21
-9.611767127e-22
4.061349736e-21
-1.311198096e-21
3.895568584e-21
-1.652195871e-21
3.656617068e-21
-1.962478061e-21
3.365778011e-21
-2.225690126e-21
3.045657121e-21
-2.43245298e-21
2.716595187e-21
-2.580310038e-21
2.394638034e-21
-2.67230382e-21
2.090998261e-21
-2.715023772e-21
1.812483849e-21
-2.716782425e-21
1.562372701e-21
-2.686231509e-21
1.341376054e-21
-2.631471651e-21
1.148499616e-21
-2.559578116e-21
9.817283331e-22
-2.476424763e-21
8.385279192e-22
-2.386695806e-21
7.161875498e-22
-2.294000163e-21
6.12038199e-22
-2.201030193e-21
5.235802432e-22
-2.109728959e-21
4.485485691e-22
-2.021446226e-21
3.849368516e-22
-1.937074117e-21
3.30996624e-22
-1.857159791e-21
2.852219085e-22
-1.781996043e-21
2.463265697e-22
-1.711692375e-21
2.132189521e-22
-1.646229636e-21
1.84976539e-22
-1.585501298e-21
1.608221287e-22
-1.529344173e-21
1.401022475e-22
-1.477560968e-21
1.222680717e-22
-1.429936602e-21
1.068588701e-22
-1.386249823e-21
9.348782416e-23
-1.346281297e-21
8.182998877e-23
-1.309819096e-21
7.161211821e-23
-1.276662281e-21
6.260409411e-23
-1.246623127e-21
5.461172402e-23
-1.219528388e-21
4.747070921e-23
-1.195219894e-21
4.104159752e-23
-1.173554674e-21
3.520554776e-23
-1.154404787e-21
2.986075156e-23
-1.137656958e-21
2.491938783e-23
-1.123212132e-21
2.030501694e-23
-1.110984982e-21
1.595034434e-23
-1.10090343e-21
1.179529086e-23
-1.092908186e-21
7.785305178e-24
-1.086952342e-21
3.869852235e-24
-1.083001024e-21
-1.081031126e-21
4.65939515e-21
3.338135339e-21
-1.562926858e-22
2.328629102e-22
4.832342426e-21
2.577264688e-21
5.036676663e-21
1.233944555e-21
3.929824642e-21
8.729779565e-23
3.894822123e-21
-1.51994253e-22
3.300957591e-21
-4.915323157e-22
3.058638046e-21
-4.883593358e-22
2.916311044e-21
-4.102678646e-22
3.002959769e-21
-2.737254223e-22
3.180333518e-21
-1.995887516e-22
3.379763595e-21
-2.12454886e-22
3.564764949e-21
-3.087156906e-22
3.705685935e-21
-4.782616106e-22
3.782888301e-21
-7.043261757e-22
3.787997934e-21
-9.662854946e-22
3.720351962e-21
-1.243551164e-21
3.585286394e-21
-1.51712926e-21
3.393405003e-21
-1.770595637e-21
3.159015157e-21
-1.991299301e-21
2.897800062e-21
-2.171236892e-21
2.624601405e-21
-2.30711028e-21
2.351918082e-21
-2.399619305e-21
2.089239609e-21
-2.452344126e-21
1.843034766e-21
-2.470576485e-21
1.617132558e-21
-2.460328215e-21
1.413269589e-21
-2.427607501e-21
1.231652969e-21
-2.377960184e-21
1.07145729e-21
-2.316227675e-21
9.31223563e-22
-2.246460599e-21
8.091575193e-22
-2.171932554e-21
7.033394331e-22
-2.095210452e-21
6.118629765e-22
-2.018250792e-21
5.329206776e-22
-1.942502203e-21
4.648511774e-22
-1.869002878e-21
4.061603724e-22
-1.798467184e-21
3.555255762e-22
-1.731359343e-21
3.117893085e-22
-1.667954118e-21
2.739472908e-22
-1.608385599e-21
2.411336638e-22
-1.552685659e-21
2.126053333e-22
-1.500813832e-21
1.877266133e-22
-1.452680201e-21
1.659548514e-22
-1.408162731e-21
1.468273961e-22
-1.367120204e-21
1.299500249e-22
-1.329401738e-21
1.149868039e-22
-1.294853686e-21
1.016512726e-22
-1.263324569e-21
8.969883253e-23
-1.234668518e-21
7.892021833e-23
-1.208747634e-21
6.913592898e-23
-1.185433518e-21
6.019148502e-23
-1.164608215e-21
5.195337625e-23
-1.146164723e-21
4.43055776e-23