/*--------------------------------*- C++ -*----------------------------------*\
  =========                 |
  \\      /  F ield         | OpenFOAM: The Open Source CFD Toolbox
   \\    /   O peration     | Website:  https://openfoam.org
    \\  /    A nd           | Version:  10
     \\/     M anipulation  |
\*---------------------------------------------------------------------------*/
FoamFile
{
    format      ascii;
    class       volVectorField;
    location    "0.0005";
    object      Marangoni;
}
// * * * * * * * * * * * * * * * * * * * * * * * * * * * * * * * * * * * * * //

dimensions      [1 -2 -2 0 0 0 0];

internalField   nonuniform List<vector> 
3600
(
(-0 -0.0569929994 -0.03297597076)
(-0 -0.3718542669 -0.1509987695)
(-0 -2.843928119 -0.2799991743)
(-0 -339.9663153 3.384242124)
(-0 -531.6683763 0.1852431265)
(-0 -249.8352948 -6.085685515)
(-0 -2.444316246 -0.3983510985)
(-0 -136.774556 -0.3800498225)
(-0 -28.01262847 3.386477615)
(-0 -31.11727813 1.292815214)
(-0 -536.7165267 -4.785763868)
(-0 -259.0470346 -6408421.146)
(-0 -27064579.32 91965256.17)
(-0 -49559276.96 533929910.8)
(-0 243.2318883 20534844.53)
(-0 33.06479857 1.262620664)
(-0 84.01843734 5.360299623)
(-0 0.1793946288 0.009886373708)
(-0 0.01046910214 0.0005470932798)
(-0 7.02069826e-05 3.355722951e-06)
(-0 3.067454868e-05 1.340281013e-06)
(-0 2.782884602e-05 1.120427193e-06)
(-0 4.380734802e-05 1.636063993e-06)
(-0 4.098064728e-05 1.425426993e-06)
(-0 9.314781579e-06 3.024349246e-07)
(-0 9.623631738e-06 2.920979861e-07)
(-0 9.637485197e-06 2.737949828e-07)
(-0 1.072316504e-05 2.854933018e-07)
(-0 6.257301027e-06 1.56320799e-07)
(-0 7.700454232e-06 1.807334682e-07)
(-0 6.909755435e-06 1.525423508e-07)
(-0 3.856472485e-06 8.017039191e-08)
(-0 6.596547609e-06 1.292755134e-07)
(-0 4.833919425e-06 8.940498033e-08)
(-0 2.773789333e-06 4.84742215e-08)
(-0 2.469625319e-06 4.083154618e-08)
(-0 2.126557722e-06 3.330968036e-08)
(-0 1.255116099e-06 1.865341246e-08)
(-0 1.397781948e-06 1.974222232e-08)
(-0 1.349842634e-06 1.814950342e-08)
(-0 1.117257278e-06 1.432633921e-08)
(-0 6.210583613e-07 7.608760164e-09)
(-0 5.769619439e-07 6.766181507e-09)
(-0 6.406807976e-07 7.205805178e-09)
(-0 4.650610857e-07 5.026230459e-09)
(-0 4.362615494e-07 4.539942942e-09)
(-0 3.653365667e-07 3.668668707e-09)
(-0 3.073756911e-07 2.985726349e-09)
(-0 1.928075236e-07 1.816850488e-09)
(-0 1.765460161e-07 1.619750786e-09)
(-0 1.723286112e-07 1.54691505e-09)
(-0 1.178782854e-07 1.042472269e-09)
(-0 8.565847504e-08 7.539378902e-10)
(-0 6.767143823e-08 6.019681823e-10)
(-0 7.787336574e-08 7.168834223e-10)
(-0 5.16508423e-08 5.10751057e-10)
(-0 3.291310186e-08 3.71282856e-10)
(-0 2.352297521e-08 3.354202044e-10)
(-0 9.780665477e-09 2.155271765e-10)
(-0 4.686879051e-09 2.97569164e-10)
(-0 -2.72777212 -4.025542811)
(-0 -24.05214913 -1.903925826)
(-0 -250.1744211 185.8598071)
(-0 -3273.975094 433.4644208)
(-0 -8653.852455 -213.1855219)
(-0 -167.9238641 -330.4856893)
(-0 -14.60246889 -21.1224659)
(-0 2.836279228 -27.00808855)
(-0 7.696008994 115.173602)
(-0 -3.625369881 82.47943709)
(-0 -7.380818313 -0.997135591)
(-0 45578845.16 -635565130.2)
(-0 793419494.2 -1509540538)
(-0 -65690725.93 1135319203)
(-0 180.6485587 21954390.71)
(-0 181.8074744 -71.2329514)
(-0 0.5349285128 0.07452459234)
(-0 0.01290625177 0.001813844181)
(-0 7.506500303e-05 9.652453383e-06)
(-0 2.904602479e-05 3.344808617e-06)
(-0 5.631558303e-05 5.836287059e-06)
(-0 4.193122521e-05 3.948262952e-06)
(-0 2.448396858e-05 2.1120923e-06)
(-0 3.406737439e-05 2.709191459e-06)
(-0 2.073005827e-05 1.526867415e-06)
(-0 1.079344338e-05 7.390658471e-07)
(-0 1.204442426e-05 7.691847229e-07)
(-0 1.315049691e-05 7.855574644e-07)
(-0 8.418786262e-06 4.716869691e-07)
(-0 6.111140057e-06 3.219530573e-07)
(-0 4.125325932e-06 2.048417246e-07)
(-0 4.648189002e-06 2.18018587e-07)
(-0 2.379531629e-06 1.056474936e-07)
(-0 5.785393051e-06 2.436295679e-07)
(-0 2.945655503e-06 1.178844216e-07)
(-0 3.016711307e-06 1.149530809e-07)
(-0 1.778989585e-06 6.466984786e-08)
(-0 1.770251921e-06 6.150800709e-08)
(-0 5.464752849e-07 1.818274883e-08)
(-0 9.191168472e-07 2.934083581e-08)
(-0 9.436304362e-07 2.895545205e-08)
(-0 7.697065213e-07 2.274500236e-08)
(-0 8.877232058e-07 2.530863965e-08)
(-0 3.859669975e-07 1.063570767e-08)
(-0 5.277714476e-07 1.408279355e-08)
(-0 3.794616891e-07 9.823501057e-09)
(-0 1.56221873e-07 3.931744926e-09)
(-0 3.113887758e-07 7.636552845e-09)
(-0 1.493938318e-07 3.580035864e-09)
(-0 7.635779473e-08 1.794398679e-09)
(-0 1.741736489e-07 4.033350601e-09)
(-0 1.114360892e-07 2.560521655e-09)
(-0 1.221602075e-07 2.81369374e-09)
(-0 5.280730423e-08 1.238153324e-09)
(-0 7.195799918e-08 1.758704402e-09)
(-0 4.044083115e-08 1.069336301e-09)
(-0 3.056717441e-08 9.283695431e-10)
(-0 2.774484078e-08 1.071620538e-09)
(-0 1.574297584e-08 9.440670546e-10)
(-0 5.59398661e-09 9.689886058e-10)
(-0 8.946903113 -11.20312838)
(-0 77791.75926 -180.5235772)
(-0 -7500.542299 758.4374837)
(-0 292.5653702 7604.59723)
(-0 -682.2221619 4930.892312)
(-0 -223.8745245 7863.457667)
(-0 -14.49851689 49.44549142)
(-0 55.7480241 -9.751384309)
(-0 3522704.619 17.96592853)
(-0 -106557189.2 11.72163298)
(-0 -887989740.9 79474692.07)
(-0 262663023.8 -273415770.1)
(-0 350637357.5 -609514542.2)
(-0 -42435466.31 554897661.7)
(-0 32.96810793 3872663.105)
(-0 7.163928042 2.544141482)
(-0 0.04633567445 0.0137983902)
(-0 0.164122902 0.03879935024)
(-0 2.700966251e-06 5.554815962e-07)
(-0 3.720622424e-05 6.753037347e-06)
(-0 1.925172162e-05 3.128317743e-06)
(-0 2.658888525e-05 3.913243694e-06)
(-0 1.925143089e-05 2.58878151e-06)
(-0 2.278244025e-05 2.817679039e-06)
(-0 1.610063898e-05 1.840931945e-06)
(-0 3.05323886e-06 3.241319272e-07)
(-0 1.476677342e-05 1.460973156e-06)
(-0 2.646491115e-06 2.448479418e-07)
(-0 4.984741811e-06 4.3260675e-07)
(-0 2.249161063e-06 1.836326291e-07)
(-0 2.490351994e-06 1.917932565e-07)
(-0 1.507951467e-06 1.098222611e-07)
(-0 3.962362563e-06 2.735334745e-07)
(-0 2.058021657e-06 1.3496819e-07)
(-0 1.188887579e-06 7.423019778e-08)
(-0 1.249199422e-06 7.441043043e-08)
(-0 6.055176694e-07 3.448040069e-08)
(-0 3.818654709e-07 2.082867852e-08)
(-0 2.670217549e-07 1.397812679e-08)
(-0 1.952495869e-07 9.828145308e-09)
(-0 1.604893324e-07 7.782472956e-09)
(-0 2.467854983e-07 1.154982389e-08)
(-0 3.902349554e-07 1.765820469e-08)
(-0 1.754613882e-07 7.690233752e-09)
(-0 7.060423829e-08 3.002647049e-09)
(-0 1.282366593e-07 5.301583716e-09)
(-0 8.354988701e-08 3.364536597e-09)
(-0 4.437869506e-08 1.744712115e-09)
(-0 6.962807833e-08 2.679746276e-09)
(-0 5.207723053e-08 1.969027969e-09)
(-0 3.70895036e-08 1.384347295e-09)
(-0 4.431111894e-08 1.643956917e-09)
(-0 2.525830846e-08 9.409957982e-10)
(-0 2.095427099e-08 7.960670442e-10)
(-0 3.628072536e-08 1.439275523e-09)
(-0 1.237442933e-08 5.320077226e-10)
(-0 9.621655117e-09 4.759045268e-10)
(-0 1.827370287e-09 1.15109816e-10)
(-0 4.872170283e-09 4.770247834e-10)
(-0 4.421776535e-09 1.251287103e-09)
(-0 71861855.86 -447188.0421)
(-0 131832489.1 -65094.12602)
(-0 80476566.39 171880.7537)
(-0 -34853811.94 -12623.06243)
(-0 -116171568.4 -122.6248818)
(-0 -196718859.3 -9.190123454)
(-0 -255281076.1 6.441856366)
(-0 -55897752.97 763517.0976)
(-0 565485580.6 -163160965.7)
(-0 -442689796 174624443.3)
(-0 -3160232602 1890791552)
(-0 -958907912.9 640669380.3)
(-0 49178337.49 -56193185.96)
(-0 8371103.671 -1625233.868)
(-0 10.29536252 4.863370852)
(-0 0.08529563251 0.0342099895)
(-0 0.1688022877 0.06691037479)
(-0 0.03534446723 0.01124456054)
(-0 1.860668307e-05 5.149224012e-06)
(-0 1.704429666e-05 4.168454051e-06)
(-0 2.353346162e-05 5.159445299e-06)
(-0 1.628253385e-05 3.234813904e-06)
(-0 1.370692336e-05 2.487755002e-06)
(-0 1.006347195e-05 1.679236523e-06)
(-0 7.144013676e-06 1.101691353e-06)
(-0 1.510741132e-05 2.162699868e-06)
(-0 1.083630208e-05 1.445750784e-06)
(-0 6.774190972e-06 8.453451633e-07)
(-0 5.675181865e-06 6.645844283e-07)
(-0 4.332359605e-06 4.775373123e-07)
(-0 3.737074391e-06 3.888201832e-07)
(-0 2.54945172e-06 2.510362528e-07)
(-0 1.519724311e-06 1.41969654e-07)
(-0 3.50491841e-06 3.113588494e-07)
(-0 1.174099367e-06 9.940462999e-08)
(-0 4.204101839e-07 3.399559046e-08)
(-0 6.063136586e-07 4.692379119e-08)
(-0 5.210416948e-07 3.867114439e-08)
(-0 7.260272659e-07 5.177672074e-08)
(-0 4.404605165e-07 3.023993581e-08)
(-0 3.106982668e-07 2.057349474e-08)
(-0 1.712071043e-07 1.095390906e-08)
(-0 1.508331582e-07 9.340896715e-09)
(-0 1.969268545e-07 1.18249261e-08)
(-0 6.026953365e-08 3.515238589e-09)
(-0 1.257149891e-07 7.135031477e-09)
(-0 1.230034066e-07 6.806575737e-09)
(-0 1.616941053e-07 8.74336261e-09)
(-0 8.792051821e-08 4.658277965e-09)
(-0 2.739397689e-08 1.427137869e-09)
(-0 7.012754014e-08 3.609632736e-09)
(-0 6.893467613e-08 3.529917981e-09)
(-0 4.746784974e-08 2.442860693e-09)
(-0 3.073094067e-08 1.614115876e-09)
(-0 3.11469998e-08 1.70974389e-09)
(-0 1.511441837e-08 8.998920844e-10)
(-0 6.734236106e-09 4.616429322e-10)
(-0 9.911929081e-09 8.659515253e-10)
(-0 9.388032508e-09 1.275479491e-09)
(-0 4.827715863e-09 1.896307816e-09)
(-0 1013838257 -284077677.2)
(-0 524222447.9 -126371072.3)
(-0 223061196.1 -19934295.32)
(-0 -95686207.36 -4474518.2)
(-0 -393608910.6 -18565936.05)
(-0 -707158286.7 -25568060.82)
(-0 -1166284914 150190131.8)
(-0 -883555570.7 322100301.1)
(-0 409068063 -209441103.9)
(-0 159418315.4 -73560101.39)
(-0 31490643.55 -5242320.372)
(-0 346595472.4 -37328556.26)
(-0 -1452944.726 15660567.7)
(-0 163.7682211 143951.6539)
(-0 95.80928445 418.0058204)
(-0 0.06189274698 0.02990820881)
(-0 0.03832993273 0.01689747813)
(-0 6.773056833e-05 2.615000824e-05)
(-0 1.055552288e-05 3.596287834e-06)
(-0 2.814730493e-05 8.546164311e-06)
(-0 1.352462479e-05 3.696456334e-06)
(-0 2.437814913e-05 6.049616109e-06)
(-0 1.351590262e-05 3.06702712e-06)
(-0 1.722691921e-05 3.595790539e-06)
(-0 5.17552506e-06 9.987574221e-07)
(-0 9.547892386e-06 1.711098812e-06)
(-0 6.683286158e-06 1.116776479e-06)
(-0 1.393190022e-05 2.178636805e-06)
(-0 9.031820302e-07 1.326188642e-07)
(-0 2.502252541e-06 3.460661141e-07)
(-0 4.142169309e-06 5.411232635e-07)
(-0 2.091170159e-06 2.587349193e-07)
(-0 7.079566401e-07 8.316768756e-08)
(-0 2.650848178e-06 2.963743928e-07)
(-0 1.877897167e-06 2.002683205e-07)
(-0 1.686536432e-06 1.719321706e-07)
(-0 1.271343419e-06 1.241501455e-07)
(-0 1.057246804e-06 9.909580422e-08)
(-0 8.294259663e-07 7.476438244e-08)
(-0 5.777768973e-07 5.018026683e-08)
(-0 1.984919399e-07 1.664041208e-08)
(-0 2.374963862e-07 1.925294351e-08)
(-0 2.514409588e-07 1.974458292e-08)
(-0 1.411875459e-07 1.0757802e-08)
(-0 3.964154894e-08 2.935897051e-09)
(-0 7.15728318e-08 5.161506079e-09)
(-0 1.020576496e-07 7.18042646e-09)
(-0 4.689941527e-08 3.226319721e-09)
(-0 6.592757789e-08 4.446424005e-09)
(-0 9.31374449e-08 6.180006001e-09)
(-0 8.604009431e-08 5.643758758e-09)
(-0 6.448701948e-08 4.210447314e-09)
(-0 5.293993554e-08 3.47573075e-09)
(-0 2.615646914e-08 1.753623119e-09)
(-0 1.033205947e-08 7.243276535e-10)
(-0 1.567920341e-08 1.19285826e-09)
(-0 9.338609827e-09 8.184423964e-10)
(-0 6.587247442e-09 7.360793841e-10)
(-0 1.657094392e-09 2.880599183e-10)
(-0 3.131006069e-09 1.573877515e-09)
(-0 860790802.3 -260689121.4)
(-0 570801462.2 -79057651.9)
(-0 356939112.7 -49196631.06)
(-0 36219910.87 -2678693.721)
(-0 -92763440.88 2002950.892)
(-0 -169390766.7 -926457.5339)
(-0 -161193891.9 5699802.368)
(-0 158801443.5 -13340665.67)
(-0 384675898.2 -14545649.21)
(-0 116424953.7 -648118.2461)
(-0 33199984.98 -275574.1583)
(-0 8533674.336 -38782.85085)
(-0 131719.0644 153.564947)
(-0 -201.114342 1046.715962)
(-0 37.97954531 40.58319598)
(-0 0.004135915104 0.002841331218)
(-0 0.02794045384 0.0148150842)
(-0 1.460531892e-05 6.674107872e-06)
(-0 5.597485169e-05 2.254350724e-05)
(-0 3.18304053e-05 1.145257469e-05)
(-0 2.226342445e-05 7.228282879e-06)
(-0 2.147778004e-05 6.342619343e-06)
(-0 1.829707318e-05 4.947157414e-06)
(-0 1.082838014e-05 2.69575399e-06)
(-0 1.910100704e-05 4.400141223e-06)
(-0 8.516648703e-06 1.823462452e-06)
(-0 8.808377007e-06 1.7598806e-06)
(-0 2.560180509e-06 4.790767887e-07)
(-0 6.77176257e-06 1.190801049e-06)
(-0 3.539042285e-07 5.866334688e-08)
(-0 5.483171814e-06 8.592067362e-07)
(-0 8.059776992e-07 1.197098077e-07)
(-0 1.846341151e-06 2.605818438e-07)
(-0 3.602010413e-07 4.842031253e-08)
(-0 1.55345462e-06 1.993456478e-07)
(-0 8.974970109e-07 1.101792632e-07)
(-0 4.985687726e-07 5.867421843e-08)
(-0 5.057793054e-07 5.717456879e-08)
(-0 7.958064216e-07 8.657712697e-08)
(-0 1.595549804e-07 1.67365616e-08)
(-0 1.857791328e-07 1.882318669e-08)
(-0 2.840214493e-07 2.784484365e-08)
(-0 1.409353253e-07 1.339213862e-08)
(-0 8.399314397e-08 7.748896852e-09)
(-0 6.185754193e-08 5.549949604e-09)
(-0 5.338733929e-08 4.666564521e-09)
(-0 9.47679179e-08 8.08555241e-09)
(-0 2.187099161e-08 1.825386e-09)
(-0 7.286384257e-08 5.964800049e-09)
(-0 2.995239257e-08 2.413364661e-09)
(-0 5.59466968e-08 4.458108288e-09)
(-0 6.699120496e-08 5.31570818e-09)
(-0 3.529600498e-08 2.817433095e-09)
(-0 1.972971872e-08 1.608874115e-09)
(-0 1.221039926e-08 1.041602341e-09)
(-0 8.703521223e-09 8.06051647e-10)
(-0 6.687440814e-09 7.137418203e-10)
(-0 1.247304632e-09 1.697940055e-10)
(-0 3.907711258e-09 8.277626121e-10)
(-0 2.791130636e-09 1.70993773e-09)
(-0 104533337.7 -12852.05184)
(-0 55941674.42 -266.3277909)
(-0 32763696.92 1890.470338)
(-0 15371797.42 783.1937809)
(-0 10476615.23 4152.727332)
(-0 7454454.234 272.4389549)
(-0 16649882.52 -7097.650673)
(-0 10558032.36 -1352.038962)
(-0 636437.2213 -5009.133703)
(-0 255195.2096 -3295.982149)
(-0 28679.5286 -147.0355063)
(-0 28.04804532 76.85077045)
(-0 1319.705172 90.8758879)
(-0 43.90805142 31.76890482)
(-0 0.0164071199 0.01237814674)
(-0 0.1199636879 0.08226056726)
(-0 2.564550296e-05 1.526040414e-05)
(-0 3.957801538e-05 2.055765888e-05)
(-0 1.704811306e-05 7.839746682e-06)
(-0 2.892629309e-05 1.191956886e-05)
(-0 3.367415473e-05 1.255133856e-05)
(-0 1.806545003e-05 6.136593306e-06)
(-0 3.825238025e-05 1.191629295e-05)
(-0 1.671403017e-05 4.800897322e-06)
(-0 6.376335758e-06 1.696916354e-06)
(-0 9.758286996e-06 2.416530528e-06)
(-0 7.927969874e-07 1.834081847e-07)
(-0 3.247841881e-06 7.044498257e-07)
(-0 4.293335163e-07 8.759519908e-08)
(-0 1.626468147e-06 3.130989452e-07)
(-0 1.224262538e-06 2.22989864e-07)
(-0 1.314848741e-06 2.271971095e-07)
(-0 1.324277489e-06 2.176181053e-07)
(-0 1.254100043e-06 1.964497339e-07)
(-0 1.677113549e-06 2.509862037e-07)
(-0 1.304031891e-07 1.868384759e-08)
(-0 7.068817109e-07 9.716303469e-08)
(-0 7.001157848e-07 9.250228438e-08)
(-0 4.766819899e-07 6.0654179e-08)
(-0 6.530657206e-07 8.017344248e-08)
(-0 4.209683171e-07 4.994940562e-08)
(-0 2.23428919e-07 2.566668503e-08)
(-0 1.553990449e-07 1.731220588e-08)
(-0 3.007668569e-07 3.254788699e-08)
(-0 4.149812541e-08 4.369489097e-09)
(-0 1.30688584e-07 1.341215748e-08)
(-0 9.512490982e-09 9.532990565e-10)
(-0 5.576270161e-08 5.468785816e-09)
(-0 6.75377426e-08 6.499155469e-09)
(-0 2.663279233e-08 2.523443564e-09)
(-0 2.843045697e-08 2.665014461e-09)
(-0 1.641601473e-08 1.532858573e-09)
(-0 1.948556789e-08 1.83097765e-09)
(-0 8.209755369e-09 7.883614868e-10)
(-0 9.99701168e-09 1.004593249e-09)
(-0 1.38042647e-08 1.50654955e-09)
(-0 1.458001958e-08 1.834386833e-09)
(-0 2.858953829e-09 4.589260485e-10)
(-0 1.054163649e-08 2.63378899e-09)
(-0 3.898373494e-09 2.817283474e-09)
(-0 3239.845862 2864.269591)
(-0 399.7704276 25.47649982)
(-0 -1729.433975 2667.395338)
(-0 3065.475628 -53.09259027)
(-0 2613.044325 304.831067)
(-0 12850.49205 74.85355471)
(-0 1877.594779 -39.08546648)
(-0 3926.192547 67.36867818)
(-0 2852.220941 45.07511335)
(-0 148.6121349 61.1176789)
(-0 34.2448275 42.18562413)
(-0 1.241703371 1.80100088)
(-0 0.0241382111 0.03064720294)
(-0 0.02300730152 0.02640384432)
(-0 0.1075041927 0.09559436913)
(-0 2.059304874e-05 1.550387262e-05)
(-0 6.59261987e-05 4.30259081e-05)
(-0 3.181219725e-05 1.825172705e-05)
(-0 3.447318884e-05 1.760754763e-05)
(-0 6.677542501e-06 3.068321785e-06)
(-0 6.255202211e-06 2.607777704e-06)
(-0 3.77147387e-05 1.436488567e-05)
(-0 1.721681168e-05 6.026516778e-06)
(-0 2.514911652e-05 8.132058371e-06)
(-0 8.0609415e-06 2.418971078e-06)
(-0 4.183323592e-06 1.169890423e-06)
(-0 5.555454511e-06 1.453357836e-06)
(-0 3.521118869e-06 8.647172155e-07)
(-0 1.832035468e-06 4.236995072e-07)
(-0 4.610662422e-06 1.007171209e-06)
(-0 1.540947019e-06 3.188147297e-07)
(-0 3.620184779e-06 7.112292249e-07)
(-0 6.312670416e-07 1.180516099e-07)
(-0 1.666341599e-06 2.973025722e-07)
(-0 0 0)
(-0 1.289184583e-06 2.107191662e-07)
(-0 6.480219828e-07 1.016900998e-07)
(-0 2.049761821e-07 3.094057228e-08)
(-0 4.890103047e-07 7.113507977e-08)
(-0 6.455363941e-07 9.065738892e-08)
(-0 2.220598883e-07 3.015909789e-08)
(-0 8.410408864e-09 1.106514101e-09)
(-0 3.593780046e-07 4.587659577e-08)
(-0 4.937978749e-08 6.126163081e-09)
(-0 3.405478484e-07 4.112664879e-08)
(-0 1.513481692e-08 1.782232505e-09)
(-0 4.378755437e-08 5.037128337e-09)
(-0 7.089346095e-08 7.983833567e-09)
(-0 3.696101638e-08 4.085681381e-09)
(-0 3.507567157e-08 3.818899814e-09)
(-0 1.746706122e-08 1.882050916e-09)
(-0 1.774156442e-08 1.904846401e-09)
(-0 6.772346586e-09 7.319483601e-10)
(-0 3.385801706e-08 3.740822898e-09)
(-0 1.942960467e-08 2.247170455e-09)
(-0 1.382341884e-08 1.736921786e-09)
(-0 1.218439548e-08 1.765510565e-09)
(-0 4.80133841e-09 8.878849409e-10)
(-0 1.258803768e-08 3.623991196e-09)
(-0 2.768263866e-09 2.305497404e-09)
(-0 281.1550228 72.16950812)
(-0 623.582864 60.00058438)
(-0 98.7895607 51.36114418)
(-0 5.739524819 36.03576793)
(-0 38.36398961 49.43864189)
(-0 236.2204548 67.32951493)
(-0 32.94529214 50.84936308)
(-0 37.47504917 50.72778179)
(-0 24.5675247 38.51980777)
(-0 1.10384038 2.542336365)
(-0 0.1478016277 0.2546853708)
(-0 0.02390354061 0.03405226)
(-0 0.01939870308 0.02296184782)
(-0 0.02500902357 0.02713292119)
(-0 3.640396453e-05 3.346932605e-05)
(-0 4.551125698e-06 3.620751635e-06)
(-0 1.143146117e-05 7.978897736e-06)
(-0 3.661926497e-05 2.267588462e-05)
(-0 4.805706049e-06 2.666841245e-06)
(-0 6.103361601e-06 3.06182505e-06)
(-0 1.589134895e-05 7.260072667e-06)
(-0 6.105264428e-06 2.556063399e-06)
(-0 2.798427217e-05 1.079514202e-05)
(-0 6.622673109e-06 2.36531464e-06)
(-0 7.044292829e-06 2.339488896e-06)
(-0 6.644369131e-06 2.060068744e-06)
(-0 3.221447095e-06 9.358245561e-07)
(-0 3.954330548e-06 1.079883266e-06)
(-0 3.18836347e-06 8.210450138e-07)
(-0 2.654757196e-06 6.46484966e-07)
(-0 2.490083753e-06 5.749610818e-07)
(-0 5.168771368e-07 1.134456543e-07)
(-0 1.995476474e-06 4.172989436e-07)
(-0 8.271691804e-07 1.651835177e-07)
(-0 1.321290778e-06 2.525041217e-07)
(-0 1.322841872e-06 2.424161738e-07)
(-0 6.661752291e-07 1.17293935e-07)
(-0 5.918673055e-07 1.003140063e-07)
(-0 3.619792793e-07 5.916392584e-08)
(-0 4.984279987e-08 7.869893734e-09)
(-0 1.553060043e-07 2.372895588e-08)
(-0 1.976452419e-07 2.926905797e-08)
(-0 1.324578663e-07 1.904246882e-08)
(-0 3.545850949e-07 4.956472013e-08)
(-0 2.730989524e-08 3.717662353e-09)
(-0 1.326257353e-07 1.761155532e-08)
(-0 4.902163395e-08 6.361629465e-09)
(-0 3.07589228e-08 3.909123561e-09)
(-0 2.484573261e-08 3.100423957e-09)
(-0 1.636251226e-08 2.011729782e-09)
(-0 4.643004953e-08 5.651086602e-09)
(-0 3.67894611e-08 4.463177975e-09)
(-0 1.889882667e-08 2.308660957e-09)
(-0 1.56742411e-08 1.957985146e-09)
(-0 2.665169609e-08 3.486183007e-09)
(-0 8.788991464e-09 1.249380834e-09)
(-0 2.164285456e-09 3.549004305e-10)
(-0 6.668093002e-09 1.395865611e-09)
(-0 3.495006687e-09 1.139251736e-09)
(-0 1.260060362e-09 1.188348351e-09)
(-0 4.743435211 20.06847505)
(-0 16.49268232 36.88486427)
(-0 5.31007406 17.46180082)
(-0 0.06410484455 0.2187775552)
(-0 0.2585506778 0.8038255062)
(-0 1.862234337 5.406874779)
(-0 0.400467496 1.105941924)
(-0 0.4677893412 1.239309021)
(-0 0.4280593794 0.8199697459)
(-0 0.2937166131 0.5691336995)
(-0 0.02898277892 0.05458787241)
(-0 0.01471184501 0.01998585502)
(-0 0.009835567209 0.01197632614)
(-0 4.859829307e-06 5.198929328e-06)
(-0 1.788638578e-05 1.675588032e-05)
(-0 4.416636585e-05 3.646859627e-05)
(-0 2.360171504e-05 1.731057641e-05)
(-0 1.018457248e-05 6.68856572e-06)
(-0 8.405807358e-06 4.981661527e-06)
(-0 1.832100454e-05 9.868057329e-06)
(-0 8.156689859e-06 4.017962672e-06)
(-0 1.8523517e-05 8.391113459e-06)
(-0 6.071946792e-06 2.54189455e-06)
(-0 1.053940891e-05 4.095413755e-06)
(-0 5.2099841e-06 1.886760867e-06)
(-0 2.510192401e-06 8.503321397e-07)
(-0 5.580970311e-06 1.774472073e-06)
(-0 6.048010756e-06 1.810575329e-06)
(-0 3.075831687e-06 8.695231624e-07)
(-0 5.194577897e-06 1.39049212e-06)
(-0 1.763205099e-06 4.480556072e-07)
(-0 1.288435262e-06 3.115654857e-07)
(-0 1.485906276e-06 3.427100631e-07)
(-0 1.581939123e-06 3.487517139e-07)
(-0 7.939472989e-07 1.676521425e-07)
(-0 9.540130308e-07 1.933410761e-07)
(-0 7.420306998e-07 1.446008757e-07)
(-0 3.237568578e-07 6.077737552e-08)
(-0 3.397271666e-07 6.154485593e-08)
(-0 7.494446052e-07 1.312429602e-07)
(-0 2.725993351e-07 4.622182661e-08)
(-0 4.197847845e-07 6.902775233e-08)
(-0 8.875376466e-08 1.417527297e-08)
(-0 8.755473436e-08 1.360311266e-08)
(-0 7.467402714e-08 1.130361518e-08)
(-0 1.155960383e-07 1.70760577e-08)
(-0 3.334202356e-08 4.815165361e-09)
(-0 1.193964469e-08 1.689238674e-09)
(-0 5.748490226e-08 7.988362468e-09)
(-0 2.81067912e-08 3.849477265e-09)
(-0 4.80229582e-08 6.513040832e-09)
(-0 5.569937819e-08 7.531856055e-09)
(-0 2.475655337e-08 3.37190415e-09)
(-0 2.129819889e-08 2.967265796e-09)
(-0 9.313222008e-09 1.359096175e-09)
(-0 1.201728679e-08 1.906441462e-09)
(-0 4.448729849e-09 8.143723467e-10)
(-0 3.009625871e-09 7.035110437e-10)
(-0 7.183777037e-09 2.615385966e-09)
(-0 1.468181297e-09 1.54666405e-09)
(-0 0.1932254754 0.8479831987)
(-0 0.1827399881 0.715561841)
(-0 0.09740291504 0.3352756522)
(-0 0.1098359286 0.3293574938)
(-0 0.05332890123 0.1454385099)
(-0 0.07459157964 0.1992643919)
(-0 0.2284774299 0.4731369524)
(-0 0.2878994151 0.6320843159)
(-0 0.2387956846 0.5079589892)
(-0 0.1126726911 0.1782662629)
(-0 0.02896339719 0.04614864935)
(-0 0.00397665812 0.005450235432)
(-0 5.478169711e-06 6.606249079e-06)
(-0 1.726330161e-05 1.844307757e-05)
(-0 2.122874225e-05 2.015858018e-05)
(-0 3.453308605e-05 2.927817158e-05)
(-0 3.561743639e-05 2.710845764e-05)
(-0 1.17734652e-05 8.092621668e-06)
(-0 2.927435136e-05 1.82832004e-05)
(-0 5.018391011e-06 2.864219343e-06)
(-0 1.694498712e-05 8.884760989e-06)
(-0 3.967846142e-06 1.920416062e-06)
(-0 5.209100369e-06 2.337361607e-06)
(-0 4.048927035e-06 1.691043634e-06)
(-0 5.811249394e-06 2.267413311e-06)
(-0 4.485761452e-06 1.640670123e-06)
(-0 5.497021152e-06 1.890646702e-06)
(-0 9.335998523e-07 3.028469011e-07)
(-0 4.742306998e-06 1.454890986e-06)
(-0 7.164134669e-07 2.084052922e-07)
(-0 1.667539313e-06 4.61090677e-07)
(-0 2.218765418e-06 5.845086557e-07)
(-0 1.071753824e-06 2.695862748e-07)
(-0 1.258601966e-06 3.029171507e-07)
(-0 1.357774556e-06 3.133039124e-07)
(-0 1.785661181e-06 3.957984102e-07)
(-0 2.971829823e-07 6.33923579e-08)
(-0 1.586064235e-07 3.261685151e-08)
(-0 5.071702288e-07 1.007220605e-07)
(-0 4.503990283e-07 8.652308831e-08)
(-0 1.337801254e-07 2.489885214e-08)
(-0 2.408270043e-07 4.349252133e-08)
(-0 2.600027425e-07 4.563127678e-08)
(-0 1.182441825e-07 2.019705942e-08)
(-0 1.159957569e-07 1.931223761e-08)
(-0 7.681578127e-08 1.248578011e-08)
(-0 8.041135266e-08 1.278267008e-08)
(-0 4.736054174e-08 7.378260499e-09)
(-0 9.089203055e-08 1.391267367e-08)
(-0 8.472378264e-09 1.278534211e-09)
(-0 2.643227236e-08 3.951087144e-09)
(-0 1.144158561e-08 1.705742048e-09)
(-0 2.856533824e-08 4.290701438e-09)
(-0 7.80751479e-09 1.199944221e-09)
(-0 7.928540105e-09 1.276769395e-09)
(-0 4.531396499e-09 7.935146582e-10)
(-0 4.036640965e-09 8.159198559e-10)
(-0 5.032151961e-09 1.299196892e-09)
(-0 4.463039335e-09 1.795031924e-09)
(-0 1.837509781e-09 2.138738305e-09)
(-0 0.07010904443 0.2601351625)
(-0 0.2206715421 0.7305020653)
(-0 0.2841347644 0.8689378601)
(-0 0.0844372173 0.2375393575)
(-0 0.2233862679 0.4864650005)
(-0 0.1843881277 0.4298339944)
(-0 0.2968677545 0.6754766091)
(-0 0.06878360237 0.1220202552)
(-0 0.1025112977 0.1845871547)
(-0 0.02408491904 0.03869557422)
(-0 2.288903621e-05 3.380343308e-05)
(-0 2.579833239e-05 3.414863167e-05)
(-0 1.103193994e-05 1.307579709e-05)
(-0 7.042914241e-06 7.490442677e-06)
(-0 2.532145185e-05 2.422603131e-05)
(-0 1.426387372e-05 1.231641301e-05)
(-0 2.745656654e-05 2.148294983e-05)
(-0 1.42857991e-05 1.017494225e-05)
(-0 4.607035183e-06 3.001120672e-06)
(-0 3.186397449e-05 1.907234877e-05)
(-0 8.496219366e-06 4.693212327e-06)
(-0 1.347283653e-05 6.896278379e-06)
(-0 4.863888409e-06 2.315793755e-06)
(-0 4.873354467e-06 2.165927669e-06)
(-0 5.735335224e-06 2.387341751e-06)
(-0 4.127147296e-06 1.61397206e-06)
(-0 3.334811152e-06 1.228785205e-06)
(-0 2.978986583e-06 1.037111386e-06)
(-0 8.180778473e-07 2.697918047e-07)
(-0 2.878719348e-06 9.015172784e-07)
(-0 3.138218703e-06 9.354193287e-07)
(-0 1.679131585e-06 4.774351252e-07)
(-0 1.055226119e-06 2.868106848e-07)
(-0 9.393939187e-07 2.44563383e-07)
(-0 7.190119479e-07 1.796433853e-07)
(-0 6.092061614e-07 1.463440664e-07)
(-0 1.014326283e-06 2.346915591e-07)
(-0 2.345001577e-07 5.23499028e-08)
(-0 5.559292351e-07 1.199392943e-07)
(-0 5.270326389e-07 1.10062418e-07)
(-0 5.538886112e-07 1.12137362e-07)
(-0 5.806145201e-07 1.141272169e-07)
(-0 2.197859605e-07 4.200569399e-08)
(-0 2.024799264e-07 3.768136799e-08)
(-0 6.228706215e-08 1.130368814e-08)
(-0 6.349962916e-08 1.125506641e-08)
(-0 9.948464547e-08 1.725193443e-08)
(-0 1.016349678e-07 1.727873242e-08)
(-0 8.806015392e-08 1.471429936e-08)
(-0 9.431134699e-08 1.5541132e-08)
(-0 3.736661938e-08 6.101109518e-09)
(-0 4.673045982e-08 7.612001815e-09)
(-0 2.119264248e-08 3.479162839e-09)
(-0 2.595822033e-08 4.361696865e-09)
(-0 6.069509957e-09 1.068908682e-09)
(-0 1.339788609e-08 2.566640959e-09)
(-0 1.601130806e-09 3.541573703e-10)
(-0 5.347484406e-09 1.511251971e-09)
(-0 1.138751628e-09 5.014569466e-10)
(-0 1.715643222e-09 2.18661383e-09)
(-0 0.07277131004 0.2539542469)
(-0 0.06910421766 0.2024390915)
(-0 0.1637548874 0.390921949)
(-0 0.3455307655 0.8738892123)
(-0 0.13318249 0.3150049141)
(-0 0.2928847067 0.569766687)
(-0 0.06201570274 0.1226038219)
(-0 0.0331673598 0.05959077079)
(-0 2.966985094e-05 4.957335928e-05)
(-0 1.796459267e-05 2.747464419e-05)
(-0 1.674071746e-05 2.350364864e-05)
(-0 2.159157197e-05 2.761717415e-05)
(-0 1.244666301e-05 1.446139333e-05)
(-0 2.254587618e-05 2.379042834e-05)
(-0 1.166939908e-05 1.119605081e-05)
(-0 1.441880891e-05 1.260503549e-05)
(-0 1.335382589e-05 1.066765769e-05)
(-0 9.734883062e-06 7.130504752e-06)
(-0 8.690922527e-06 5.858246884e-06)
(-0 8.510704358e-06 5.298843129e-06)
(-0 6.688898481e-06 3.860524356e-06)
(-0 6.135515412e-06 3.293958296e-06)
(-0 2.920938149e-06 1.463503879e-06)
(-0 5.667811024e-06 2.65858471e-06)
(-0 1.066830946e-06 4.698787513e-07)
(-0 4.393865169e-06 1.822293863e-06)
(-0 1.436139727e-06 5.623597389e-07)
(-0 3.117298153e-06 1.155439695e-06)
(-0 3.006420588e-06 1.057354518e-06)
(-0 1.29702014e-06 4.338295234e-07)
(-0 2.43033419e-06 7.748054282e-07)
(-0 5.464069435e-07 1.663823587e-07)
(-0 1.322141076e-06 3.853049392e-07)
(-0 8.069284303e-07 2.254931253e-07)
(-0 2.085446932e-07 5.598504027e-08)
(-0 4.517013037e-07 1.16700104e-07)
(-0 3.01097316e-07 7.499243136e-08)
(-0 5.103139832e-07 1.227311386e-07)
(-0 4.675180452e-07 1.087457557e-07)
(-0 6.753388856e-07 1.521590026e-07)
(-0 3.043353058e-07 6.651710123e-08)
(-0 4.375520769e-07 9.290531344e-08)
(-0 2.134690714e-07 4.409487504e-08)
(-0 1.706990481e-07 3.435079231e-08)
(-0 7.581565939e-08 1.488471056e-08)
(-0 3.339991084e-08 6.407127624e-09)
(-0 9.238359148e-08 1.734544699e-08)
(-0 1.090007738e-07 2.00707038e-08)
(-0 7.950144471e-08 1.439277965e-08)
(-0 5.116639155e-08 9.137984452e-09)
(-0 2.449810306e-08 4.336472525e-09)
(-0 6.08847847e-08 1.075515045e-08)
(-0 2.66058478e-08 4.738116279e-09)
(-0 1.696344249e-08 3.092903243e-09)
(-0 2.329572311e-08 4.453195799e-09)
(-0 4.197887211e-09 8.731886381e-10)
(-0 1.080759194e-08 2.596478939e-09)
(-0 4.853960208e-09 1.490375606e-09)
(-0 5.0087251e-09 2.39685893e-09)
(-0 2.06827982e-09 2.864968112e-09)
(-0 0.2768584684 0.8123390198)
(-0 0.3085552047 0.9379050937)
(-0 0.2662394057 0.6145367367)
(-0 0.1297113922 0.2750780648)
(-0 0.1214291029 0.2602485253)
(-0 0.01003008248 0.01964838928)
(-0 3.080153561e-05 5.666708575e-05)
(-0 2.649761833e-05 4.518444414e-05)
(-0 1.996479014e-05 3.162079919e-05)
(-0 3.345633047e-05 4.896967414e-05)
(-0 7.624877002e-06 1.029873328e-05)
(-0 2.232861028e-05 2.773927886e-05)
(-0 1.243766269e-05 1.418173794e-05)
(-0 1.980965535e-05 2.071656014e-05)
(-0 1.102848292e-05 1.058240736e-05)
(-0 1.485426411e-05 1.309522818e-05)
(-0 5.351053725e-06 4.342776028e-06)
(-0 1.822866919e-05 1.365336035e-05)
(-0 4.778798379e-06 3.312661504e-06)
(-0 4.994259816e-06 3.21348276e-06)
(-0 5.654264622e-06 3.386951669e-06)
(-0 9.989968259e-06 5.587134504e-06)
(-0 1.264509501e-06 6.62174394e-07)
(-0 1.962621499e-06 9.649552843e-07)
(-0 4.517576771e-06 2.090979252e-06)
(-0 2.432670353e-06 1.062698832e-06)
(-0 1.925383682e-06 7.957770816e-07)
(-0 2.002222151e-06 7.847902621e-07)
(-0 1.707392032e-06 6.360901371e-07)
(-0 3.5126988e-07 1.246539781e-07)
(-0 1.702292461e-06 5.766022551e-07)
(-0 1.673094088e-06 5.420015855e-07)
(-0 1.065421593e-06 3.307252459e-07)
(-0 3.091274778e-07 9.211822191e-08)
(-0 1.840180225e-07 5.273482105e-08)
(-0 1.871108671e-07 5.16540742e-08)
(-0 4.740926255e-07 1.26284441e-07)
(-0 8.78673354e-08 2.261945631e-08)
(-0 5.00809115e-07 1.247835734e-07)
(-0 3.369224821e-07 8.137388156e-08)
(-0 4.821615243e-07 1.130410199e-07)
(-0 4.596545541e-07 1.047527114e-07)
(-0 2.9694618e-07 6.587075543e-08)
(-0 1.486963395e-07 3.215041484e-08)
(-0 9.504070477e-08 2.005729605e-08)
(-0 1.329985889e-07 2.743661033e-08)
(-0 1.822718942e-08 3.681672723e-09)
(-0 3.991252816e-08 7.909225297e-09)
(-0 6.591648614e-08 1.284700477e-08)
(-0 2.809453222e-08 5.403363176e-09)
(-0 3.937123415e-08 7.507462122e-09)
(-0 3.483630633e-08 6.631023671e-09)