/*--------------------------------*- C++ -*----------------------------------*\
  =========                 |
  \\      /  F ield         | OpenFOAM: The Open Source CFD Toolbox
   \\    /   O peration     | Website:  https://openfoam.org
    \\  /    A nd           | Version:  6
     \\/     M anipulation  |
\*---------------------------------------------------------------------------*/
FoamFile
{
    version     2.0;
    format      ascii;
    class       surfaceScalarField;
    location    "0.0056";
    object      phi;
}
// * * * * * * * * * * * * * * * * * * * * * * * * * * * * * * * * * * * * * //

dimensions      [0 3 -1 0 0 0 0];

internalField   nonuniform List<scalar> 
19000
(
-1.803664248e-19
2.298323061e-20
-1.805733123e-19
2.308258561e-20
-1.809228229e-19
2.330418492e-20
-1.81420253e-19
2.363516416e-20
-1.820662258e-19
2.405863447e-20
-1.828669601e-19
2.455687049e-20
-1.838313108e-19
2.511099987e-20
-1.849669498e-19
2.570179755e-20
-1.862836962e-19
2.630934226e-20
-1.877899846e-19
2.691388402e-20
-1.894963067e-19
2.749546436e-20
-1.9141176e-19
2.80347681e-20
-1.935476657e-19
2.851268963e-20
-1.959141709e-19
2.891116505e-20
-1.98523969e-19
2.921270514e-20
-2.013888659e-19
2.940123227e-20
-2.045235442e-19
2.946160617e-20
-2.079421125e-19
2.938044863e-20
-2.116619655e-19
2.914562084e-20
-2.157003715e-19
2.874699862e-20
-2.200783999e-19
2.817589494e-20
-2.248174288e-19
2.742582983e-20
-2.299429973e-19
2.649197093e-20
-2.35481188e-19
2.537192217e-20
-2.41462506e-19
2.406509847e-20
-2.479183522e-19
2.257336746e-20
-2.548850649e-19
2.090021192e-20
-2.624003703e-19
1.905119408e-20
-2.70507192e-19
1.70330544e-20
-2.792496043e-19
1.48542518e-20
-2.886762015e-19
1.252410438e-20
-2.98835858e-19
1.005317933e-20
-3.097811939e-19
7.452009499e-21
-3.215643278e-19
4.730947975e-21
-3.34239803e-19
1.898547951e-21
-3.47859124e-19
-1.038519855e-21
-3.624721933e-19
-4.076759027e-21
-3.78120635e-19
-7.215644678e-21
-3.948383547e-19
-1.045886587e-20
-4.126436685e-19
-1.381404399e-20
-4.315376024e-19
-1.72933749e-20
-4.514927041e-19
-2.091190064e-20
-4.724479095e-19
-2.468600288e-20
-4.942950269e-19
-2.862915955e-20
-5.168726226e-19
-3.274764953e-20
-5.39952324e-19
-3.703289937e-20
-5.63232315e-19
-4.145269362e-20
-5.863232617e-19
-4.593799343e-20
-6.087430524e-19
-5.036863108e-20
-6.299081059e-19
-5.455693273e-20
-6.49138857e-19
-5.823574948e-20
-6.656645283e-19
-6.105354878e-20
-6.786395277e-19
-6.258795959e-20
-6.871502389e-19
-6.238694122e-20
-6.902176839e-19
-6.005370381e-20
-6.867677088e-19
-5.537734484e-20
-6.755846776e-19
-4.849481171e-20
-6.552845903e-19
-4.002114023e-20
-6.244601517e-19
-3.102555708e-20
-5.820874779e-19
-2.26872958e-20
-5.279043349e-19
-1.573596026e-20
-4.600216791e-19
-1.094594798e-20
-3.611840061e-19
-1.401305963e-20
-1.789742498e-19
-4.748480479e-20
1.526333362e-19
-9.724994016e-20
5.05755128e-19
-1.02905195e-19
-3.346285364e-20
7.097304534e-19
1.424621512e-20
-8.116922695e-20
1.648380949e-20
-1.59295223e-20
1.44672978e-20
2.145351505e-21
1.580327842e-20
9.307594953e-21
2.120006135e-20
1.243603808e-20
2.444207326e-20
1.147670365e-20
2.526655995e-20
8.98256696e-21
2.582267415e-20
6.764234096e-21
2.686175216e-20
4.836543827e-21
2.823050869e-20
2.751599576e-21
2.95139423e-20
1.960561282e-22
3.029403337e-20
-2.920712261e-21
3.022520706e-20
-6.507940965e-21
2.912836824e-20
-1.033205878e-20
2.703173885e-20
-1.409248917e-20
2.410986081e-20
-1.751414872e-20
2.060995122e-20
-2.040024821e-20
1.679268315e-20
-2.264848615e-20
1.288551333e-20
-2.424701863e-20
9.046033452e-21
-2.525538268e-20
5.35008324e-21
-2.577358337e-20
1.797070167e-21
-2.590907328e-20
-1.668078704e-21
-2.574849068e-20
-5.129917714e-21
-2.533906974e-20
-8.671945725e-21
-2.467932462e-20
-1.234918001e-20
-2.371965156e-20
-1.61602646e-20
-2.237180807e-20
-2.002920261e-20
-2.052848004e-20
-2.379810218e-20
-1.809132013e-20
-2.724326257e-20
-1.500438935e-20
-3.011050184e-20
-1.128418973e-20
-3.216526463e-20
-7.038144273e-21
-3.324891595e-20
-2.466887916e-21
-3.3353379e-20
2.152633384e-21
-3.267804752e-20
6.520577974e-21
-3.158969889e-20
1.040551791e-20
-3.052597909e-20
1.371891232e-20
-2.992223736e-20
1.65513106e-20
-2.995282958e-20
1.921148704e-20
-2.989252619e-20
2.213575772e-20
-2.762739868e-20
2.528952898e-20
-2.345250023e-20
2.683787926e-20
-2.356591931e-20
2.419677859e-20
-2.718354163e-20
1.735063338e-20
-2.653920468e-20
-7.115230914e-22
1.994099956e-20
-6.64222637e-20
-7.546503768e-19
7.234796361e-19
-8.80717207e-19
-7.081454562e-19
-7.921818484e-19
-1.902985048e-18
-5.2326759e-19
-2.685353242e-18
-1.927538658e-19
-2.813918677e-18
3.916335951e-20
-1.983235939e-18
2.041314531e-31
-1.782084387e-19
2.442598829e-20
-1.784344067e-19
2.453606655e-20
-1.788161131e-19
2.477976494e-20
-1.793593824e-19
2.514310366e-20
-1.800649049e-19
2.560753531e-20
-1.809393172e-19
2.615377728e-20
-1.819913134e-19
2.676105598e-20
-1.832288221e-19
2.740841671e-20
-1.846613223e-19
2.807391547e-20
-1.862973233e-19
2.873600518e-20
-1.881467887e-19
2.937267879e-20
-1.902187229e-19
2.996283942e-20
-1.925237434e-19
3.048538178e-20
-1.950717334e-19
3.092054185e-20
-1.978744787e-19
3.124895416e-20
-2.009433001e-19
3.145300378e-20
-2.042917403e-19
3.151586565e-20
-2.079332061e-19
3.142286201e-20
-2.11883757e-19
3.116043532e-20
-2.161597903e-19
3.071746702e-20
-2.207808498e-19
3.008420722e-20
-2.257672163e-19
2.925359977e-20
-2.311426445e-19
2.82202284e-20
-2.369319008e-19
2.698165294e-20
-2.431636045e-19
2.553727351e-20
-2.498679103e-19
2.388951692e-20
-2.570794774e-19
2.204248475e-20
-2.648350361e-19
2.000298481e-20
-2.731760095e-19
1.777913585e-20
-2.821456244e-19
1.538143875e-20
-2.91791279e-19
1.282134607e-20
-3.02161712e-19
1.011206648e-20
-3.133095753e-19
7.266587071e-21
-3.252884458e-19
4.297866529e-21
-3.381545372e-19
1.216456638e-21
-3.519622998e-19
-1.969370696e-21
-3.667647138e-19
-5.255910823e-21
-3.826079146e-19
-8.643986829e-21
-3.995306187e-19
-1.214157493e-20
-4.175571483e-19
-1.576406492e-20
-4.366939097e-19
-1.953665197e-20
-4.569185425e-19
-2.349361503e-20
-4.781726737e-19
-2.767908683e-20
-5.003485037e-19
-3.214431567e-20
-5.232800173e-19
-3.694577507e-20
-5.467284245e-19
-4.213855798e-20
-5.703721208e-19
-4.776871449e-20
-5.937919696e-19
-5.385890849e-20
-6.164650276e-19
-6.03918501e-20
-6.377611034e-19
-6.72878172e-20
-6.569571896e-19
-7.438341497e-20
-6.732630682e-19
-8.141197678e-20
-6.858697747e-19
-8.800016201e-20
-6.94007005e-19
-9.369302701e-20
-6.970049624e-19
-9.803487366e-20
-6.943231443e-19
-1.007225831e-19
-6.855387487e-19
-1.018377669e-19
-6.703447453e-19
-1.020844462e-19
-6.488548624e-19
-1.027763068e-19
-6.230397617e-19
-1.048874284e-19
-6.008424714e-19
-1.060627669e-19
-6.025622397e-19
-9.423411597e-20
-6.582199773e-19
-4.427100803e-20
-7.981543141e-19
2.551454649e-20
-3.825659088e-19
-2.323033169e-19
-1.102074279e-19
5.456213261e-31
2.489500689e-19
3.505764257e-19
7.948592034e-20
8.829833342e-20
3.455868334e-20
2.900103268e-20
2.162954139e-20
1.507794186e-20
1.893172158e-20
1.20088163e-20
2.024072705e-20
1.113045378e-20
2.194793677e-20
9.772788788e-21
2.304822718e-20
7.885729625e-21
2.389498405e-20
5.921075272e-21
2.477680809e-20
3.958790297e-21
2.567496539e-20
1.857718341e-21
2.63971741e-20
-5.215776271e-22
2.670680481e-20
-3.225910509e-21
2.640108947e-20
-6.197741791e-21
2.536793803e-20
-9.294702088e-21
2.361007936e-20
-1.233044873e-20
2.122376157e-20
-1.512416305e-20
1.836171341e-20
-1.753495267e-20
1.519415063e-20
-1.947866912e-20
1.18771495e-20
-2.09285629e-20
8.527832812e-21
-2.190572201e-20
5.214593205e-21
-2.246050258e-20
1.957652933e-21
-2.265266746e-20
-1.258657772e-21
-2.253240703e-20
-4.470172774e-21
-2.212779309e-20
-7.712272564e-21
-2.143746713e-20
-1.10013366e-20
-2.043143209e-20
-1.431693678e-20
-1.905754672e-20
-1.759204271e-20
-1.725553222e-20
-2.071117155e-20
-1.497490782e-20
-2.352306318e-20
-1.219589649e-20
-2.58644565e-20
-8.946559758e-21
-2.759400848e-20
-5.312759953e-21
-2.862939484e-20
-1.435700904e-21
-2.898543462e-20
2.504521626e-21
-2.879310779e-20
6.324329017e-21
-2.82763046e-20
9.884816073e-21
-2.769358107e-20
1.313236363e-20
-2.726206111e-20
1.611593678e-20
-2.702855896e-20
1.897430756e-20
-2.673875524e-20
2.184239552e-20
-2.607904857e-20
2.462655261e-20
-2.609360089e-20
2.684939008e-20
-3.041206481e-20
2.851226398e-20
-4.524569821e-20
3.218102885e-20
-9.224994586e-20
4.629043168e-20
-2.634697033e-19
1.047940748e-19
9.645824352e-20
3.635496453e-19
-1.185599288e-19
5.726867429e-31
-1.838628663e-19
-1.595755107e-18
-3.578683994e-19
-2.437700454e-18
-1.657518172e-19
-2.997846794e-18
5.385357997e-20
-2.292228605e-18
2.605018142e-31
-1.758774578e-19
2.594821374e-20
-1.761241358e-19
2.607066506e-20
-1.765405155e-19
2.634013808e-20
-1.771334411e-19
2.674088883e-20
-1.779033021e-19
2.725305085e-20
-1.788576099e-19
2.785512344e-20
-1.800044932e-19
2.852475646e-20
-1.813525839e-19
2.923857574e-20
-1.829105998e-19
2.997293204e-20
-1.846875685e-19
3.070378391e-20
-1.866924928e-19
3.140740242e-20
-1.889347238e-19
3.206020976e-20
-1.914237309e-19
3.263944568e-20
-1.941695529e-19
3.312296342e-20
-1.971825967e-19
3.348988542e-20
-2.00474101e-19
3.372038951e-20
-2.040559543e-19
3.379636623e-20
-2.079412396e-19
3.370117625e-20
-2.121441249e-19
3.342026907e-20
-2.166804619e-19
3.294089279e-20
-2.215676431e-19
3.225269857e-20
-2.268251102e-19
3.134744966e-20
-2.3247414e-19
3.021965787e-20
-2.385383872e-19
2.886628561e-20
-2.45043832e-19
2.728730149e-20
-2.520195304e-19
2.548522191e-20
-2.59497626e-19
2.346548842e-20
-2.67513898e-19
2.123587644e-20
-2.761073596e-19
1.880683957e-20
-2.853204324e-19
1.619092174e-20
-2.95198511e-19
1.340297329e-20
-3.057904622e-19
1.045917076e-20
-3.171484686e-19
7.376612585e-21
-3.293282212e-19
4.171684781e-21
-3.423876517e-19
8.592140839e-22
-3.563856269e-19
-2.549364761e-21
-3.713794823e-19
-6.047059276e-21
-3.87423029e-19
-9.633631913e-21
-4.045632754e-19
-1.33174203e-20
-4.228364723e-19
-1.711835056e-20
-4.422613602e-19
-2.106998337e-20
-4.628309045e-19
-2.522211517e-20
-4.845015935e-19
-2.96419126e-20
-5.071821323e-19
-3.441509793e-20
-5.307202237e-19
-3.964473941e-20
-5.548884968e-19
-4.544824394e-20
-5.793684001e-19
-5.19492251e-20
-6.037351004e-19
-5.926435001e-20
-6.274461751e-19
-6.748204648e-20
-6.49841648e-19
-7.663383539e-20
-6.701616918e-19
-8.665654359e-20
-6.875918529e-19
-9.734966422e-20
-7.013432103e-19
-1.083349842e-19
-7.107708602e-19
-1.190389049e-19
-7.155120595e-19
-1.287285169e-19
-7.155931298e-19
-1.366541373e-19
-7.114063748e-19
-1.42363036e-19
-7.034259744e-19
-1.462193388e-19
-6.916257336e-19
-1.499343243e-19
-6.756725908e-19
-1.563065261e-19
-6.589533032e-19
-1.649212517e-19
-6.657671923e-19
-1.56740263e-19
-7.827512371e-19
-5.296389531e-20
-9.541624464e-19
3.592087152e-19
-1.634721862e-18
7.729639768e-19
-2.663804473e-19
-7.848970613e-19
-1.332802367e-20
9.752773001e-20
2.01886189e-20
5.478477813e-20
2.063559252e-20
2.855704914e-20
1.85604159e-20
1.715611494e-20
1.805335899e-20
1.251895843e-20
1.888306206e-20
1.030386189e-20
2.006087765e-20
8.598188021e-21
2.108357277e-20
6.866347027e-21
2.193269907e-20
5.075559602e-21
2.267573614e-20
3.219654281e-21
2.329566941e-20
1.242040739e-21
2.369284122e-20
-9.143962381e-22
2.373497348e-20
-3.263649051e-21
2.33041292e-20
-5.762686852e-21
2.233219139e-20
-8.318642445e-21
2.081636494e-20
-1.081076042e-20
1.881297204e-20
-1.311714881e-20
1.641799695e-20
-1.513693838e-20
1.374425672e-20
-1.680254962e-20
1.089999051e-20
-1.808286207e-20
7.973052241e-21
-1.897812666e-20
5.022428185e-21
-1.950989622e-20
2.077913498e-21
-1.970833692e-20
-8.540438316e-22
-1.960066237e-20
-3.779846938e-21
-1.920211555e-20
-6.706237393e-21
-1.851150413e-20
-9.62745123e-21
-1.751111831e-20
-1.251492238e-20
-1.617170459e-20
-1.53114182e-20
-1.446126104e-20
-1.793216023e-20
-1.235699132e-20
-2.027372648e-20
-9.857582767e-21
-2.223065663e-20
-6.993317973e-21
-2.371694943e-20
-3.830387707e-21
-2.468917228e-20
-4.675012974e-22
-2.516562724e-20
2.977061993e-21
-2.523262073e-20
6.387469821e-21
-2.502875695e-20
9.677106623e-21
-2.4710008e-20
1.280968902e-20
-2.440369033e-20
1.580578987e-20
-2.416047086e-20
1.872751102e-20
-2.395459827e-20
2.16332837e-20
-2.38562111e-20
2.45251399e-20
-2.443072682e-20
2.742114641e-20
-2.674330009e-20
3.08221899e-20
-3.113629538e-20
3.657160813e-20
-3.374630189e-20
4.88974437e-20
-4.714132661e-21
7.575777349e-20
2.396580407e-19
1.191759169e-19
1.291801159e-18
-7.592877698e-19
1.528727585e-20
2.239231135e-19
-3.479937868e-19
-1.656720031e-18
-2.369588864e-19
-3.095426036e-18
5.173483262e-20
-2.666771218e-18
3.47396488e-31
-1.733561672e-19
2.754861606e-20
-1.73624897e-19
2.768563769e-20
-1.740788388e-19
2.798477045e-20
-1.747250357e-19
2.842894165e-20
-1.755645079e-19
2.8996226e-20
-1.766047996e-19
2.966328372e-20
-1.778543941e-19
3.040540827e-20
-1.793217555e-19
3.119717567e-20
-1.810157549e-19
3.201243598e-20
-1.829450482e-19
3.282502733e-20
-1.851185997e-19
3.360869947e-20
-1.875451925e-19
3.43377902e-20
-1.902340661e-19
3.498709005e-20
-1.931944733e-19
3.553249166e-20
-1.964363437e-19
3.595083216e-20
-1.999698484e-19
3.622053245e-20
-2.038061117e-19
3.632143069e-20
-2.079568604e-19
3.623539926e-20
-2.124352221e-19
3.594613603e-20
-2.172553981e-19
3.543975395e-20
-2.22433416e-19
3.470455849e-20
-2.279866878e-19
3.373166471e-20
-2.339347296e-19
3.251479352e-20
-2.402988138e-19
3.105088743e-20
-2.471029245e-19
2.933982006e-20
-2.5437363e-19
2.738487527e-20
-2.621410583e-19
2.519231051e-20
-2.704384909e-19
2.27717385e-20
-2.793029056e-19
2.013566557e-20
-2.887743244e-19
1.729982444e-20
-2.988965762e-19
1.428249126e-20
-3.097171858e-19
1.110434394e-20
-3.212884719e-19
7.787108277e-21
-3.3366699e-19
4.35276719e-21
-3.469133638e-19
8.217465947e-22
-3.610903058e-19
-2.78822414e-21
-3.762615756e-19
-6.464428251e-21
-3.924896697e-19
-1.020119456e-20
-4.098340449e-19
-1.400340833e-20
-4.283466068e-19
-1.788968067e-20
-4.480661007e-19
-2.189658906e-20
-4.690090647e-19
-2.608213772e-20
-4.911600288e-19
-3.052994338e-20
-5.144588059e-19
-3.535217666e-20
-5.387867298e-19
-4.069205756e-20
-5.639489204e-19
-4.672283953e-20
-5.896548612e-19
-5.364287081e-20
-6.154969537e-19
-6.16626912e-20
-6.409337156e-19
-7.098279777e-20
-6.652826173e-19
-8.175696964e-20
-6.877349659e-19
-9.403867141e-20
-7.074054725e-19
-1.077066196e-19
-7.23437526e-19
-1.22373811e-19
-7.351782342e-19
-1.372917898e-19
-7.424234578e-19
-1.512850013e-19
-7.45679051e-19
-1.627889469e-19
-7.462544639e-19
-1.701455188e-19
-7.456270976e-19
-1.724073391e-19
-7.429747605e-19
-1.710016807e-19
-7.28433312e-19
-1.719137121e-19
-6.695137734e-19
-1.862082316e-19
-5.005815646e-19
-2.196811983e-19
-2.219896906e-19
-2.414802725e-19
3.781813261e-19
-1.054615935e-19
2.884155393e-19
7.341155002e-19
-2.038935316e-19
-2.925848975e-19
-5.607097489e-20
-5.029199791e-20
-6.039110382e-21
4.75552844e-21
9.234658301e-21
1.328583472e-20
1.392325939e-20
1.247016246e-20
1.583826228e-20
1.060671219e-20
1.717738809e-20
8.967659222e-21
1.832903659e-20
7.449564089e-21
1.929278519e-20
5.905813349e-21
2.007679364e-20
4.294973494e-21
2.069812248e-20
2.602088532e-21
2.113923229e-20
8.049198017e-22
2.134358828e-20
-1.114590954e-21
2.123593552e-20
-3.151907455e-21
2.074817351e-20
-5.270915225e-21
1.984007331e-20
-7.40673839e-21
1.850997635e-20
-9.476988899e-21
1.679318245e-20
-1.13970035e-20
1.475238562e-20
-1.309318331e-20
1.246394409e-20
-1.451184278e-20
1.000472597e-20
-1.562209334e-20
7.441282642e-21
-1.641393462e-20
4.823987332e-21
-1.689236208e-20
2.185588153e-21
-1.707001621e-20
-4.554970052e-22
-1.695965987e-20
-3.089235614e-21
-1.65685918e-20
-5.705851425e-21
-1.589538736e-20
-8.288037469e-21
-1.493003661e-20
-1.080447885e-20
-1.365694552e-20
-1.320714831e-20
-1.206084412e-20
-1.543275159e-20
-1.013404387e-20
-1.740946163e-20
-7.883949923e-21
-1.90677262e-20
-5.33845751e-21
-2.035406291e-20
-2.547745291e-21
-2.124460884e-20
4.192683471e-22
-2.175521929e-20
3.483911791e-21
-2.194298381e-20
6.571524934e-21
-2.189617434e-20
9.626501112e-21
-2.171390709e-20
1.262357574e-20
-2.148196907e-20
1.557014159e-20
-2.125469792e-20
1.849689435e-20
-2.106274206e-20
2.143834924e-20
-2.096020448e-20
2.44198461e-20
-2.102968302e-20
2.748806141e-20
-2.099388192e-20
3.078401497e-20
-1.881045974e-20
3.438606624e-20
-6.885971604e-21
3.696992799e-20
3.870401006e-20
3.016491151e-20
1.81132233e-19
-2.325608935e-20
-3.140248316e-19
-2.64131921e-19
-8.108825682e-19
7.615496983e-19
-8.566031387e-19
-9.792820414e-19
-5.054679323e-19
-3.222189848e-18
1.893497214e-20
-3.1392956e-18
4.899730387e-31
-1.70625523e-19
2.922490152e-20
-1.709180156e-19
2.937873951e-20
-1.714121734e-19
2.971221616e-20
-1.721156801e-19
3.020642034e-20
-1.730298752e-19
3.083747872e-20
-1.741627589e-19
3.157967321e-20
-1.755228242e-19
3.240602633e-20
-1.771187795e-19
3.328850043e-20
-1.789592855e-19
3.419853001e-20
-1.810530366e-19
3.510726317e-20
-1.834085798e-19
3.59860311e-20
-1.860345385e-19
3.680652954e-20
-1.889395192e-19
3.754123258e-20
-1.92132378e-19
3.816353624e-20
-1.956221391e-19
3.864814978e-20
-1.994182734e-19
3.897122073e-20
-2.035306805e-19
3.911070773e-20
-2.079700645e-19
3.904648373e-20
-2.127479958e-19
3.876067442e-20
-2.178773001e-19
3.823774417e-20
-2.23372033e-19
3.746484827e-20
-2.292477713e-19
3.64319444e-20
-2.355215715e-19
3.513218155e-20
-2.42212425e-19
3.356199969e-20
-2.493414984e-19
3.172145003e-20
-2.569328134e-19
2.961418804e-20
-2.650134616e-19
2.724768929e-20
-2.736139537e-19
2.463318477e-20
-2.827680355e-19
2.178585257e-20
-2.925129546e-19
1.872465455e-20
-3.02889736e-19
1.547222815e-20
-3.139441815e-19
1.205419713e-20
-3.257274903e-19
8.498406243e-21
-3.382966992e-19
4.833626532e-21
-3.5171401e-19
1.08832305e-21
-3.660460262e-19
-2.711134477e-21
-3.813626565e-19
-6.542516201e-21
-3.977364205e-19
-1.039079051e-20
-4.152407531e-19
-1.425175465e-20
-4.339469881e-19
-1.813662546e-20
-4.539187208e-19
-2.207695375e-20
-4.752042553e-19
-2.613030021e-20
-4.978266859e-19
-3.038616409e-20
-5.217719845e-19
-3.497234175e-20
-5.469734605e-19
-4.006039848e-20
-5.732920175e-19
-4.586915848e-20
-6.004911088e-19
-5.266351799e-20
-6.282082799e-19
-6.074590474e-20
-6.559263464e-19
-7.043556104e-20
-6.829513092e-19
-8.202957485e-20
-7.08407865e-19
-9.573678953e-20
-7.31272586e-19
-1.115755331e-19
-7.504738828e-19
-1.292268155e-19
-7.650978586e-19
-1.47840024e-19
-7.747456853e-19
-1.658031443e-19
-7.800818122e-19
-1.805342929e-19
-7.834977965e-19
-1.8845815e-19
-7.894654628e-19
-1.855840266e-19
-8.029828369e-19
-1.694134913e-19
-8.224586599e-19
-1.432799432e-19
-8.219405056e-19
-1.221262629e-19
-7.331968813e-19
-1.385722923e-19
-3.167332385e-19
-2.494684989e-19
-8.582237714e-20
1.328308433e-30
3.350277451e-19
3.132666312e-19
3.839936675e-20
4.045566688e-21
-1.023448843e-21
-1.086696802e-20
2.491195833e-21
1.243049098e-21
8.418986102e-21
7.360253803e-21
1.205980926e-20
8.831678807e-21
1.419920934e-20
8.469862064e-21
1.565929307e-20
7.510311268e-21
1.6785286e-20
6.32648493e-21
1.768194541e-20
5.012221456e-21
1.83839088e-20
3.596302907e-21
1.890095388e-20
2.088568371e-21
1.921972166e-20
4.899093884e-22
1.930627192e-20
-1.197294701e-21
1.911692784e-20
-2.958727476e-21
1.86123505e-20
-4.762645938e-21
1.776982292e-20
-6.560659372e-21
1.658996179e-20
-8.293774111e-21
1.509700281e-20
-9.900912113e-21
1.333372625e-20
-1.132717194e-20
1.135369351e-20
-1.252959717e-20
9.212884848e-21
-1.347975083e-20
6.962855225e-21
-1.416300274e-20
4.646333123e-21
-1.457546457e-20
2.295944608e-21
-1.471952669e-20
-6.44289301e-23
-1.459936921e-20
-2.41603129e-21
-1.421727141e-20
-4.740500611e-21
-1.357161752e-20
-7.014946435e-21
-1.265680577e-20
-9.208377592e-21
-1.146526017e-20
-1.128034806e-20
-9.991005162e-21
-1.318265774e-20
-8.234203458e-21
-1.486396935e-20
-6.205427822e-21
-1.627701407e-20
-3.92857635e-21
-1.73870494e-20
-1.441162481e-21
-1.817996551e-20
1.208591207e-21
-1.86676063e-20
3.967983225e-21
-1.888800777e-20
6.788352853e-21
-1.889909977e-20
9.633937295e-21
-1.876734144e-20
1.248811287e-20
-1.855521645e-20
1.535451626e-20
-1.831324302e-20
1.825181023e-20
-1.808124547e-20
2.120358312e-20
-1.78919893e-20
2.422799515e-20
-1.773372939e-20
2.732735861e-20
-1.739183096e-20
3.04398501e-20
-1.622659811e-20
3.321879945e-20
-1.369098795e-20
3.44319586e-20
-1.471699074e-20
3.118754368e-20
-5.974359679e-20
2.176800036e-20
-3.61655813e-19
3.777964512e-20
5.838817006e-20
3.415056744e-19
-3.212440548e-19
1.524881093e-30
-2.720415385e-19
-2.853334868e-18
1.05318286e-19
-3.568556005e-18
7.601894881e-31
-1.676652877e-19
3.097304931e-20
-1.679831185e-19
3.11464351e-20
-1.685203629e-19
3.151945918e-20
-1.69285176e-19
3.207135359e-20
-1.702795099e-19
3.277588985e-20
-1.715116439e-19
3.360487811e-20
-1.729903517e-19
3.45286247e-20
-1.747243858e-19
3.551637009e-20
-1.767224652e-19
3.653668114e-20
-1.789931061e-19
3.755792718e-20
-1.815447035e-19
3.85485831e-20
-1.843854895e-19
3.947764672e-20
-1.875236889e-19
4.031486994e-20
-1.909675083e-19
4.103113007e-20
-1.947252958e-19
4.159862935e-20
-1.98805551e-19
4.199123408e-20
-2.032171536e-19
4.218465232e-20
-2.079694771e-19
4.215674764e-20
-2.130726899e-19
4.188769428e-20
-2.185378562e-19
4.136029275e-20
-2.243771349e-19
4.056015495e-20
-2.306037799e-19
3.947606623e-20
-2.372323657e-19
3.810020489e-20
-2.442789927e-19
3.642851042e-20
-2.517618291e-19
3.446085049e-20
-2.597015351e-19
3.220131986e-20
-2.681217353e-19
2.965835816e-20
-2.770490932e-19
2.684502034e-20
-2.865134613e-19
2.377907041e-20
-2.965480575e-19
2.048311944e-20
-3.071902875e-19
1.698437593e-20
-3.184827859e-19
1.331424856e-20
-3.304745682e-19
9.50749852e-21
-3.432214472e-19
5.601317779e-21
-3.567859906e-19
1.634021253e-21
-3.712371061e-19
-2.356505071e-21
-3.866500967e-19
-6.335187488e-21
-4.031067591e-19
-1.0272912e-20
-4.206950168e-19
-1.41507895e-20
-4.395067678e-19
-1.796518341e-20
-4.596337479e-19
-2.173376944e-20
-4.811611874e-19
-2.550250442e-20
-5.041595637e-19
-2.935391208e-20
-5.28673425e-19
-3.341628817e-20
-5.547059639e-19
-3.787336885e-20
-5.821971695e-19
-4.297284257e-20
-6.109944245e-19
-4.903178457e-20
-6.408151312e-19
-5.643551813e-20
-6.712028999e-19
-6.562475156e-20
-7.014810453e-19
-7.706231611e-20
-7.307129131e-19
-9.116712527e-20
-7.57688005e-19
-1.081989839e-19
-7.809663679e-19
-1.280740889e-19
-7.990341257e-19
-1.500868737e-19
-8.106638127e-19
-1.72512752e-19
-8.156373582e-19
-1.920763923e-19
-8.16030188e-19
-2.03323534e-19
-8.179849512e-19
-1.981183082e-19
-8.328551608e-19
-1.665296498e-19
-8.704976772e-19
-1.0079626e-19
-9.331247862e-19
-5.536935592e-21
-8.129094879e-19
1.325142918e-19
-6.643242452e-19
1.246556359e-19
-2.793051938e-19
-5.961946767e-20
2.580667921e-20
8.155617141e-21
2.348683202e-20
6.36691176e-21
1.108656832e-20
1.535009134e-21
8.608400549e-21
3.723019974e-21
9.890411105e-21
6.080163614e-21
1.169799257e-20
7.026228406e-21
1.323965849e-20
6.930577786e-21
1.447546673e-20
6.277123314e-21
1.547102255e-20
5.333726019e-21
1.626602683e-20
4.220170384e-21
1.687617426e-20
2.989271025e-21
1.73022949e-20
1.665760526e-21
1.753251756e-20
2.63163147e-22
1.754483914e-20
-1.206050562e-21
1.731300935e-20
-2.72336941e-21
1.681433709e-20
-4.26055662e-21
1.603670819e-20
-5.779771861e-21
1.498282372e-20
-7.236787555e-21
1.367074304e-20
-8.585944428e-21
1.213130102e-20
-9.785153822e-21
1.040353977e-20
-1.079972629e-20
8.529633014e-21
-1.160429227e-20
6.550393404e-21
-1.218279111e-20
4.502270914e-21
-1.252683867e-20
2.416102172e-21
-1.263319964e-20
3.176688704e-22
-1.250103363e-20
-1.77037748e-21
-1.212964529e-20
-3.825688776e-21
-1.151715169e-20
-5.82340084e-21
-1.066042157e-20
-7.734122635e-21
-9.556245391e-21
-9.523546291e-21
-8.20355234e-21
-1.11538821e-20
-6.606062402e-21
-1.258711789e-20
-4.774713947e-21
-1.378960017e-20
-2.729018656e-21
-1.473729571e-20
-4.967510233e-22
-1.542057346e-20
1.888427276e-21
-1.584723669e-20
4.391209252e-21
-1.604242333e-20
6.980120586e-21
-1.604492411e-20
9.632946924e-21
-1.590093811e-20
1.234062199e-20
-1.565792249e-20
1.51082029e-20
-1.536146998e-20
1.795242673e-20
-1.505683356e-20
2.089628635e-20
-1.479262584e-20
2.396124975e-20
-1.462123772e-20
2.715352797e-20
-1.461288178e-20
3.042921187e-20
-1.501343896e-20
3.361721075e-20
-1.69354027e-20
3.635169615e-20
-2.413653428e-20
3.838628237e-20
-4.373195204e-20
4.136166132e-20
-5.79297807e-20
5.197695725e-20
2.236319448e-19
5.994376479e-20
2.231936141e-19
2.602432632e-21
-3.935725552e-19
-1.145682318e-18
1.932581294e-19
-3.935789681e-18
1.333200446e-30
-1.644535829e-19
3.278731494e-20
-1.647984498e-19
3.298328786e-20
-1.653816316e-19
3.340187664e-20
-1.662119265e-19
3.402012933e-20
-1.672918847e-19
3.480925104e-20
-1.686302093e-19
3.5738201e-20
-1.702359107e-19
3.677431797e-20
-1.721179149e-19
3.788372431e-20
-1.742849394e-19
3.903187358e-20
-1.767454506e-19
4.018397907e-20
-1.795076183e-19
4.130545861e-20
-1.825794012e-19
4.236227704e-20
-1.859685561e-19
4.332130943e-20
-1.896827431e-19
4.415061933e-20
-1.937295373e-19
4.481977379e-20
-1.981165553e-19
4.530007647e-20
-2.028515425e-19
4.556485342e-20
-2.079425973e-19
4.558966737e-20
-2.13398318e-19
4.535259046e-20
-2.192279904e-19
4.483444412e-20
-2.254416137e-19
4.401912708e-20
-2.320500041e-19
4.289390737e-20
-2.390648693e-19
4.144980784e-20
-2.464991601e-19
3.968191248e-20
-2.543674751e-19
3.758972923e-20
-2.626866081e-19
3.517747388e-20
-2.714758618e-19
3.245442623e-20
-2.807572499e-19
2.943523035e-20
-2.905555894e-19
2.614022796e-20
-3.008989912e-19
2.25956051e-20
-3.118198021e-19
1.88333754e-20
-3.233560263e-19
1.489104296e-20
-3.355525605e-19
1.081108864e-20
-3.484619888e-19
6.640214641e-21
-3.621448429e-19
2.428388004e-21
-3.766700505e-19
-1.772656033e-21
-3.921158777e-19
-5.911652004e-21
-4.085713194e-19
-9.941092111e-21
-4.261368715e-19
-1.382151541e-20
-4.449239222e-19
-1.752689149e-20
-4.650522948e-19
-2.105116339e-20
-4.866462108e-19
-2.441638969e-20
-5.098283618e-19
-2.768278231e-20
-5.34711063e-19
-3.096081647e-20
-5.613822203e-19
-3.442497464e-20
-5.898836114e-19
-3.83282593e-20
-6.201788824e-19
-4.30158984e-20
-6.52109038e-19
-4.893545699e-20
-6.853333253e-19
-5.663816217e-20
-7.192548187e-19
-6.67621803e-20
-7.529346894e-19
-7.998354055e-20
-7.850068741e-19
-9.691390123e-20
-8.136150883e-19
-1.179169464e-19
-8.364117793e-19
-1.428062431e-19
-8.507024699e-19
-1.703770522e-19
-8.539110105e-19
-1.976929164e-19
-8.446175295e-19
-2.189216538e-19
-8.247948908e-19
-2.234435538e-19
-8.017002152e-19
-1.923670087e-19
-7.811777972e-19
-9.693440596e-20
-7.821274883e-19
7.49935783e-20
-3.027002217e-19
2.608519103e-20
1.937552478e-19
6.868171783e-31
4.184462223e-20
9.229109558e-20
2.401797368e-20
2.598291072e-20
1.865492928e-20
1.173112468e-20
1.327457911e-20
6.91679003e-21
1.09655441e-20
6.033625738e-21
1.083647583e-20
6.210972364e-21
1.160234192e-20
6.262345603e-21
1.25862039e-20
5.94898512e-21
1.353206936e-20
5.333778994e-21
1.435746685e-20
4.511036839e-21
1.503512736e-20
3.545350465e-21
1.555266367e-20
2.474702302e-21
1.589969742e-20
1.321827128e-21
1.606330376e-20
1.027796563e-22
1.60275202e-20
-1.166987356e-21
1.577582202e-20
-2.468418821e-21
1.529512178e-20
-3.776710478e-21
1.457969241e-20
-5.061334579e-21
1.363366672e-20
-6.287908877e-21
1.247153362e-20
-7.42114307e-21
1.111672849e-20
-8.427952664e-21
9.598973658e-21
-9.279961182e-21
7.951134202e-21
-9.954927662e-21
6.206345808e-21
-1.043697953e-20
4.395909834e-21
-1.071583068e-20
2.548268251e-21
-1.078535486e-20
6.89057205e-22
-1.064197131e-20
-1.157883941e-21
-1.028324757e-20
-2.968958579e-21
-9.707065763e-21
-4.719224631e-21
-8.911529748e-21
-6.381429594e-21
-7.895659673e-21
-7.926056256e-21
-6.660675525e-21
-9.322533599e-21
-5.211520459e-21
-1.054142256e-20
-3.558116512e-21
-1.155733245e-20
-1.715886044e-21
-1.235211734e-20
2.948588407e-22
-1.291779138e-20
2.450774807e-21
-1.32583253e-20
4.728474364e-21
-1.338959692e-20
7.108170977e-21
-1.333724889e-20
9.577315925e-21
-1.31333572e-20
1.213340879e-20
-1.281369859e-20
1.478539662e-20
-1.241761017e-20
1.755349619e-20
-1.199187021e-20
2.046791749e-20
-1.160034756e-20
2.356716769e-20
-1.134555356e-20
2.689627246e-20
-1.142488303e-20
3.050623164e-20
-1.227895349e-20
3.446909364e-20
-1.490081616e-20
3.897137468e-20
-2.116115543e-20
4.464446022e-20
-3.311665594e-20
5.331576931e-20
-4.99629725e-20
6.88225247e-20
-8.708411271e-20
9.706619499e-20
-2.559771472e-19
1.714961427e-19
-6.893051443e-19
1.159912004e-30
2.729722717e-19
-4.36013429e-18
1.093933814e-30
-1.609670665e-19
3.465974405e-20
-1.613406448e-19
3.488183856e-20
-1.619727057e-19
3.535283567e-20
-1.628727249e-19
3.604736526e-20
-1.640439752e-19
3.693369663e-20
-1.654956022e-19
3.797759842e-20
-1.672369445e-19
3.914302155e-20
-1.692771021e-19
4.039262446e-20
-1.71624871e-19
4.168834995e-20
-1.742886544e-19
4.299195561e-20
-1.772764744e-19
4.426546023e-20
-1.805959937e-19
4.54715636e-20
-1.842545722e-19
4.657398389e-20
-1.882592982e-19
4.753778415e-20
-1.926170443e-19
4.832964417e-20
-1.973345165e-19
4.89181283e-20
-2.024183829e-19
4.927392116e-20
-2.078754126e-19
4.937008467e-20
-2.137126385e-19
4.918229954e-20
-2.199374356e-19
4.868917396e-20
-2.26557561e-19
4.787256069e-20
-2.335811472e-19
4.671793901e-20
-2.410168268e-19
4.52147967e-20
-2.488739933e-19
4.335705241e-20
-2.571632542e-19
4.114344672e-20
-2.658968697e-19
3.857798779e-20
-2.750890844e-19
3.567039028e-20
-2.847562627e-19
3.24365683e-20
-2.949171114e-19
2.889907061e-20
-3.055932682e-19
2.508742869e-20
-3.168104925e-19
2.103827683e-20
-3.286002018e-19
1.679530139e-20
-3.410009063e-19
1.240900563e-20
-3.540591862e-19
7.936357062e-21
-3.678304732e-19
3.440148488e-21
-3.823802369e-19
-1.012162224e-21
-3.977860159e-19
-5.350473988e-21
-4.141399503e-19
-9.505055562e-21
-4.315509362e-19
-1.341061597e-20
-4.501456432e-19
-1.701147088e-20
-4.700683357e-19
-2.026815662e-20
-4.914797112e-19
-2.316604257e-20
-5.145544618e-19
-2.572657056e-20
-5.39476115e-19
-2.802151843e-20
-5.664266499e-19
-3.019035723e-20
-5.955678447e-19
-3.246055558e-20
-6.270107285e-19
-3.517025938e-20
-6.607687234e-19
-3.879193538e-20
-6.966884629e-19
-4.395303779e-20
-7.343524541e-19
-5.144577775e-20
-7.729502844e-19