/*--------------------------------*- C++ -*----------------------------------*\
  =========                 |
  \\      /  F ield         | OpenFOAM: The Open Source CFD Toolbox
   \\    /   O peration     | Website:  https://openfoam.org
    \\  /    A nd           | Version:  6
     \\/     M anipulation  |
\*---------------------------------------------------------------------------*/
FoamFile
{
    version     2.0;
    format      ascii;
    class       volVectorField;
    location    "0.0056";
    object      U;
}
// * * * * * * * * * * * * * * * * * * * * * * * * * * * * * * * * * * * * * //

dimensions      [0 1 -1 0 0 0 0];

internalField   nonuniform List<vector> 
9600
(
(0 -1.081867403e-10 1.336909113e-11)
(0 -1.082524924e-10 1.342567251e-11)
(0 -1.084260586e-10 1.355250607e-11)
(0 -1.086811705e-10 1.374201921e-11)
(0 -1.090232434e-10 1.398475812e-11)
(0 -1.094561045e-10 1.427033609e-11)
(0 -1.09984398e-10 1.458817358e-11)
(0 -1.10613087e-10 1.492702914e-11)
(0 -1.113474365e-10 1.52757299e-11)
(0 -1.121929313e-10 1.562273557e-11)
(0 -1.13155247e-10 1.59568611e-11)
(0 -1.142402507e-10 1.626681828e-11)
(0 -1.154540494e-10 1.654192443e-11)
(0 -1.168030625e-10 1.677161672e-11)
(0 -1.182941186e-10 1.694615435e-11)
(0 -1.199345443e-10 1.705612025e-11)
(0 -1.2173226e-10 1.709312941e-11)
(0 -1.236958736e-10 1.704931374e-11)
(0 -1.258348013e-10 1.691801305e-11)
(0 -1.28159406e-10 1.669322088e-11)
(0 -1.30681156e-10 1.637025178e-11)
(0 -1.334127601e-10 1.594517084e-11)
(0 -1.363682728e-10 1.541547562e-11)
(0 -1.395631598e-10 1.47795256e-11)
(0 -1.430143681e-10 1.403719954e-11)
(0 -1.467404332e-10 1.318923935e-11)
(0 -1.507616421e-10 1.2237792e-11)
(0 -1.551001993e-10 1.118564276e-11)
(0 -1.597803158e-10 1.003671944e-11)
(0 -1.648281358e-10 8.795356344e-12)
(0 -1.70271516e-10 7.46684073e-12)
(0 -1.761397509e-10 6.056618556e-12)
(0 -1.824633506e-10 4.570641763e-12)
(0 -1.892738425e-10 3.014299576e-12)
(0 -1.966034144e-10 1.392592251e-12)
(0 -2.044841693e-10 -2.908847382e-13)
(0 -2.129469023e-10 -2.033526282e-12)
(0 -2.220195192e-10 -3.834467898e-12)
(0 -2.317252288e-10 -5.693998731e-12)
(0 -2.420804194e-10 -7.614131336e-12)
(0 -2.530918488e-10 -9.597557962e-12)
(0 -2.647527803e-10 -1.164727615e-11)
(0 -2.770380231e-10 -1.376415379e-11)
(0 -2.898982554e-10 -1.594490431e-11)
(0 -3.032540931e-10 -1.817788776e-11)
(0 -3.169901455e-10 -2.043910779e-11)
(0 -3.309489304e-10 -2.268568173e-11)
(0 -3.449245507e-10 -2.484917226e-11)
(0 -3.58656587e-10 -2.682666529e-11)
(0 -3.718255519e-10 -2.847327237e-11)
(0 -3.840516944e-10 -2.959580457e-11)
(0 -3.948981506e-10 -2.995338922e-11)
(0 -4.038778273e-10 -2.926702008e-11)
(0 -4.104615748e-10 -2.724630915e-11)
(0 -4.14082843e-10 -2.363624657e-11)
(0 -4.141307019e-10 -1.828677436e-11)
(0 -4.099240918e-10 -1.123183267e-11)
(0 -4.006773775e-10 -2.754433968e-12)
(0 -3.855112548e-10 6.601821476e-12)
(0 -3.636221224e-10 1.607942683e-11)
(0 -3.34694478e-10 2.464910365e-11)
(0 -2.988866862e-10 3.032072144e-11)
(0 -2.531345165e-10 2.835066253e-11)
(0 -1.748392476e-10 1.00964015e-11)
(0 3.028741601e-12 -1.665277863e-11)
(0 3.815304053e-10 1.308192368e-11)
(0 -1.003885613e-11 2.129191356e-10)
(0 -5.764991578e-12 -3.438962443e-11)
(0 9.219007419e-12 -8.888172304e-12)
(0 9.285332224e-12 6.805594545e-13)
(0 9.081172903e-12 5.983647344e-12)
(0 1.110100198e-11 9.07903661e-12)
(0 1.369264044e-11 7.857148753e-12)
(0 1.491259002e-11 5.635339637e-12)
(0 1.532677029e-11 4.223790426e-12)
(0 1.580532796e-11 3.211843284e-12)
(0 1.652767832e-11 2.059701724e-12)
(0 1.732333537e-11 5.006147443e-13)
(0 1.794239277e-11 -1.520378921e-12)
(0 1.81557722e-11 -3.927471191e-12)
(0 1.780607266e-11 -6.530245408e-12)
(0 1.68480322e-11 -9.08649212e-12)
(0 1.534247996e-11 -1.138679638e-11)
(0 1.341594366e-11 -1.329165674e-11)
(0 1.122079036e-11 -1.473528443e-11)
(0 8.903458979e-12 -1.572100428e-11)
(0 6.57946406e-12 -1.630516349e-11)
(0 4.318835025e-12 -1.657281057e-11)
(0 2.144146031e-12 -1.661103261e-11)
(0 3.869743903e-14 -1.648850815e-11)
(0 -2.039398934e-12 -1.624184871e-11)
(0 -4.140559048e-12 -1.587010321e-11)
(0 -6.306337745e-12 -1.533463005e-11)
(0 -8.552833416e-12 -1.456597295e-11)
(0 -1.085684021e-11 -1.347700233e-11)
(0 -1.314819149e-11 -1.19844427e-11)
(0 -1.531240948e-11 -1.003478686e-11)
(0 -1.720612939e-11 -7.62907575e-12)
(0 -1.868273001e-11 -4.8374261e-12)
(0 -1.962425425e-11 -1.803244561e-12)
(0 -1.998068856e-11 1.262259607e-12)
(0 -1.980942804e-11 4.116829025e-12)
(0 -1.9280324e-11 6.571621793e-12)
(0 -1.863470347e-11 8.552151532e-12)
(0 -1.813446501e-11 1.01135634e-11)
(0 -1.796252016e-11 1.151937964e-11)
(0 -1.79536068e-11 1.330115382e-11)
(0 -1.725597753e-11 1.585486815e-11)
(0 -1.532396973e-11 1.735656459e-11)
(0 -1.410552592e-11 1.448608593e-11)
(0 -1.522483834e-11 9.326276775e-12)
(0 -1.611682396e-11 -2.323069314e-13)
(0 -1.979461544e-12 -2.590897908e-11)
(0 5.982299893e-12 2.170438904e-10)
(0 -6.873408995e-10 -6.67689393e-10)
(0 -5.6377665e-10 -1.256378257e-09)
(0 -4.159102224e-10 -1.609459034e-09)
(0 -2.146172894e-10 -1.608398204e-09)
(0 9.713659855e-12 -1.101628704e-09)
(0 1.663989642e-11 1.084921147e-22)
(0 -1.068881196e-10 1.421082404e-11)
(0 -1.069615752e-10 1.427339152e-11)
(0 -1.071503832e-10 1.441249753e-11)
(0 -1.074288401e-10 1.462005543e-11)
(0 -1.078024982e-10 1.488550707e-11)
(0 -1.082753082e-10 1.51977213e-11)
(0 -1.088519915e-10 1.554488204e-11)
(0 -1.095375408e-10 1.591490904e-11)
(0 -1.103371972e-10 1.629532201e-11)
(0 -1.112563651e-10 1.667370552e-11)
(0 -1.123005842e-10 1.703754999e-11)
(0 -1.134755343e-10 1.73747031e-11)
(0 -1.147870848e-10 1.767318104e-11)
(0 -1.162413656e-10 1.792160394e-11)
(0 -1.178448556e-10 1.810899215e-11)
(0 -1.196044641e-10 1.822520299e-11)
(0 -1.215276233e-10 1.826072148e-11)
(0 -1.236223869e-10 1.820709159e-11)
(0 -1.258975592e-10 1.805667642e-11)
(0 -1.283628424e-10 1.78030592e-11)
(0 -1.31028988e-10 1.744077521e-11)
(0 -1.33907919e-10 1.696571272e-11)
(0 -1.370128227e-10 1.637485677e-11)
(0 -1.403582264e-10 1.566669616e-11)
(0 -1.439601057e-10 1.484092549e-11)
(0 -1.478360475e-10 1.389875855e-11)
(0 -1.520054588e-10 1.284250044e-11)
(0 -1.564897434e-10 1.167576031e-11)
(0 -1.61312363e-10 1.040299228e-11)
(0 -1.664987446e-10 9.029743243e-12)
(0 -1.720761043e-10 7.562199676e-12)
(0 -1.780733037e-10 6.007307832e-12)
(0 -1.845207973e-10 4.372025824e-12)
(0 -1.914505529e-10 2.663096092e-12)
(0 -1.988957023e-10 8.860744296e-13)
(0 -2.068897348e-10 -9.548959166e-13)
(0 -2.154652447e-10 -2.857923508e-12)
(0 -2.246524078e-10 -4.823529629e-12)
(0 -2.344772488e-10 -6.855568827e-12)
(0 -2.449594619e-10 -8.961448922e-12)
(0 -2.56109322e-10 -1.115278896e-11)
(0 -2.679233641e-10 -1.344489137e-11)
(0 -2.803788914e-10 -1.585625128e-11)
(0 -2.934277123e-10 -1.840665227e-11)
(0 -3.069894588e-10 -2.111503414e-11)
(0 -3.209445726e-10 -2.399540623e-11)
(0 -3.351268316e-10 -2.705165896e-11)
(0 -3.49315628e-10 -3.026957022e-11)
(0 -3.632291453e-10 -3.360749172e-11)
(0 -3.765207684e-10 -3.698536671e-11)
(0 -3.887817018e-10 -4.02754402e-11)
(0 -3.99552494e-10 -4.329672589e-11)
(0 -4.083453419e-10 -4.582032414e-11)
(0 -4.146771291e-10 -4.759303809e-11)
(0 -4.181081184e-10 -4.839086396e-11)
(0 -4.182728538e-10 -4.810694229e-11)
(0 -4.148851002e-10 -4.686632325e-11)
(0 -4.077148188e-10 -4.512134197e-11)
(0 -3.966143031e-10 -4.361403651e-11)
(0 -3.819164379e-10 -4.300952128e-11)
(0 -3.660046427e-10 -4.308799683e-11)
(0 -3.570488082e-10 -4.197333559e-11)
(0 -3.740989095e-10 -3.838371512e-11)
(0 -4.324571522e-10 -4.521524016e-11)
(0 -4.795949621e-10 -6.71385827e-11)
(0 -3.30622283e-11 1.447426348e-21)
(0 4.162279222e-11 3.180920631e-10)
(0 9.853079657e-11 2.13873195e-12)
(0 3.421338104e-11 3.921453104e-12)
(0 1.685646739e-11 5.166988e-12)
(0 1.216837887e-11 6.394923402e-12)
(0 1.175173457e-11 7.069947544e-12)
(0 1.265659912e-11 6.374847718e-12)
(0 1.349884916e-11 5.060488996e-12)
(0 1.408296334e-11 3.805592803e-12)
(0 1.460153761e-11 2.638600232e-12)
(0 1.513553201e-11 1.382795381e-12)
(0 1.562164182e-11 -9.765644949e-14)
(0 1.593119364e-11 -1.843986828e-12)
(0 1.593236825e-11 -3.811704842e-12)
(0 1.553070822e-11 -5.888028248e-12)
(0 1.469340519e-11 -7.926881355e-12)
(0 1.345015225e-11 -9.791493572e-12)
(0 1.187564247e-11 -1.138056024e-11)
(0 1.006675919e-11 -1.263814656e-11)
(0 8.121390023e-12 -1.355267451e-11)
(0 6.121494682e-12 -1.414833138e-11)
(0 4.122727797e-12 -1.447022576e-11)
(0 2.151673837e-12 -1.456852228e-11)
(0 2.096985477e-13 -1.448426929e-11)
(0 -1.718649161e-12 -1.424005882e-11)
(0 -3.654733594e-12 -1.383503758e-11)
(0 -5.614082739e-12 -1.324532507e-11)
(0 -7.595482e-12 -1.242880641e-11)
(0 -9.572693827e-12 -1.133520372e-11)
(0 -1.149096425e-11 -9.919868365e-12)
(0 -1.327027039e-11 -8.160085737e-12)
(0 -1.481625587e-11 -6.06922487e-12)
(0 -1.603753946e-11 -3.70527126e-12)
(0 -1.686702096e-11 -1.170776644e-12)
(0 -1.72844488e-11 1.397146509e-12)
(0 -1.733356269e-11 3.853472089e-12)
(0 -1.712082368e-11 6.087100183e-12)
(0 -1.679096567e-11 8.055382817e-12)
(0 -1.648669262e-11 9.800174194e-12)
(0 -1.628718599e-11 1.145573836e-11)
(0 -1.613019423e-11 1.319344602e-11)
(0 -1.584534111e-11 1.497482445e-11)
(0 -1.565179481e-11 1.610618077e-11)
(0 -1.695169968e-11 1.581271283e-11)
(0 -2.269732886e-11 1.485949864e-11)
(0 -4.124869314e-11 1.367367255e-11)
(0 -1.067158945e-10 1.151154339e-11)
(0 -5.010343784e-11 3.261087838e-10)
(0 2.8937473e-11 1.642322322e-21)
(0 -7.352926546e-11 -1.01192771e-09)
(0 -2.262116168e-10 -1.595691203e-09)
(0 -1.815332809e-10 -1.768979743e-09)
(0 1.944149732e-11 -1.285589048e-09)
(0 1.943112781e-11 1.36181765e-22)
(0 -1.05485433e-10 1.51003933e-11)
(0 -1.055672036e-10 1.516987183e-11)
(0 -1.05772467e-10 1.532326176e-11)
(0 -1.060761489e-10 1.555167116e-11)
(0 -1.064839683e-10 1.584359414e-11)
(0 -1.070000248e-10 1.618682777e-11)
(0 -1.076291326e-10 1.656845786e-11)
(0 -1.083763263e-10 1.697522108e-11)
(0 -1.092468303e-10 1.73934633e-11)
(0 -1.102459754e-10 1.78095442e-11)
(0 -1.113791686e-10 1.820976657e-11)
(0 -1.126519051e-10 1.858076238e-11)
(0 -1.140698153e-10 1.890939361e-11)
(0 -1.156387329e-10 1.91831191e-11)
(0 -1.173647722e-10 1.938988357e-11)
(0 -1.192544041e-10 1.951848517e-11)
(0 -1.2131454e-10 1.955845873e-11)
(0 -1.235526388e-10 1.950043519e-11)
(0 -1.259768406e-10 1.933599496e-11)
(0 -1.285961177e-10 1.905800025e-11)
(0 -1.31420416e-10 1.866042918e-11)
(0 -1.344607623e-10 1.813871245e-11)
(0 -1.377293456e-10 1.748958058e-11)
(0 -1.412396075e-10 1.671140084e-11)
(0 -1.450063883e-10 1.58039763e-11)
(0 -1.490461454e-10 1.476878662e-11)
(0 -1.533771997e-10 1.360866574e-11)
(0 -1.580199163e-10 1.232795697e-11)
(0 -1.629967434e-10 1.093216718e-11)
(0 -1.68332123e-10 9.42813618e-12)
(0 -1.740523926e-10 7.823643676e-12)
(0 -1.801858104e-10 6.127377841e-12)
(0 -1.867626973e-10 4.348185854e-12)
(0 -1.938154969e-10 2.494657847e-12)
(0 -2.013784765e-10 5.741212308e-13)
(0 -2.094869391e-10 -1.407852593e-12)
(0 -2.181760665e-10 -3.448482702e-12)
(0 -2.274795984e-10 -5.548438957e-12)
(0 -2.374283257e-10 -7.713207441e-12)
(0 -2.480480196e-10 -9.954047663e-12)
(0 -2.593562733e-10 -1.228934458e-11)
(0 -2.713579848e-10 -1.474512667e-11)
(0 -2.840396152e-10 -1.735563223e-11)
(0 -2.973625618e-10 -2.016276656e-11)
(0 -3.112558149e-10 -2.321512915e-11)
(0 -3.256077716e-10 -2.6565009e-11)
(0 -3.402570363e-10 -3.026355441e-11)
(0 -3.549826549e-10 -3.435238371e-11)
(0 -3.694954768e-10 -3.885221627e-11)
(0 -3.83433768e-10 -4.374767222e-11)
(0 -3.963672791e-10 -4.897019311e-11)
(0 -4.078147856e-10 -5.438073117e-11)
(0 -4.172808387e-10 -5.975932294e-11)
(0 -4.243160999e-10 -6.481185387e-11)
(0 -4.285984635e-10 -6.921180637e-11)
(0 -4.300165987e-10 -7.26959139e-11)
(0 -4.287123225e-10 -7.522741347e-11)
(0 -4.250042842e-10 -7.719261893e-11)
(0 -4.191129963e-10 -7.944845047e-11)
(0 -4.108215633e-10 -8.267978638e-11)
(0 -4.000357348e-10 -8.468826351e-11)
(0 -3.923070294e-10 -7.3372271e-11)
(0 -4.234516626e-10 -1.479639406e-11)
(0 -5.9126422e-10 1.429078023e-10)
(0 -1.256794926e-09 4.106224831e-10)
(0 -7.991413402e-11 -2.354691184e-10)
(0 -8.391254111e-11 1.344312465e-10)
(0 2.058178566e-12 4.292493363e-11)
(0 1.22472634e-11 1.726742451e-11)
(0 1.17588025e-11 9.670217021e-12)
(0 1.098413244e-11 7.35833245e-12)
(0 1.108092629e-11 6.430294689e-12)
(0 1.168318189e-11 5.511293032e-12)
(0 1.23433351e-11 4.425623013e-12)
(0 1.290488153e-11 3.298990455e-12)
(0 1.338253054e-11 2.153533369e-12)
(0 1.379142164e-11 9.299277276e-13)
(0 1.409655316e-11 -4.307921587e-13)
(0 1.422834438e-11 -1.946867864e-12)
(0 1.411173078e-11 -3.588128607e-12)
(0 1.369089615e-11 -5.28400335e-12)
(0 1.294456687e-11 -6.942362731e-12)
(0 1.188880107e-11 -8.472393593e-12)
(0 1.056929068e-11 -9.801567294e-12)
(0 9.048676084e-12 -1.08843656e-11)
(0 7.393274156e-12 -1.170342754e-11)
(0 5.661912815e-12 -1.226515458e-11)
(0 3.89864412e-12 -1.259111961e-11)
(0 2.130102501e-12 -1.270830137e-11)
(0 3.671608993e-13 -1.26399208e-11)
(0 -1.390167228e-12 -1.239897257e-11)
(0 -3.145825293e-12 -1.198469143e-11)
(0 -4.900106577e-12 -1.13827651e-11)
(0 -6.642712069e-12 -1.056877537e-11)
(0 -8.347902155e-12 -9.515038016e-12)
(0 -9.973073506e-12 -8.199569725e-12)
(0 -1.146176599e-11 -6.616043765e-12)
(0 -1.275131491e-11 -4.781963338e-12)
(0 -1.378428179e-11 -2.742944292e-12)
(0 -1.452183648e-11 -5.709606592e-13)
(0 -1.495643982e-11 1.644475092e-12)
(0 -1.511947436e-11 3.813539644e-12)
(0 -1.507841327e-11 5.868576797e-12)
(0 -1.492162945e-11 7.782615827e-12)
(0 -1.473410947e-11 9.576517977e-12)
(0 -1.456924833e-11 1.131054555e-11)
(0 -1.443452071e-11 1.304270382e-11)
(0 -1.434324278e-11 1.474550772e-11)
(0 -1.448608135e-11 1.628116091e-11)
(0 -1.535220804e-11 1.780033623e-11)
(0 -1.736387861e-11 2.062579105e-11)
(0 -1.946477914e-11 2.855636256e-11)
(0 -1.153813034e-11 5.416555472e-11)
(0 7.048317227e-11 1.448176684e-10)
(0 7.189741207e-11 -2.277863305e-10)
(0 8.364077832e-10 -2.562912233e-10)
(0 -8.968997653e-11 -1.268695557e-09)
(0 -2.283234703e-10 -1.836852185e-09)
(0 -2.82055221e-12 -1.480701403e-09)
(0 2.343267139e-11 1.765824776e-22)
(0 -1.039681743e-10 1.603743958e-11)
(0 -1.040588919e-10 1.611496053e-11)
(0 -1.042818681e-10 1.628489897e-11)
(0 -1.046127165e-10 1.653744444e-11)
(0 -1.050573564e-10 1.686007644e-11)
(0 -1.056200627e-10 1.723938464e-11)
(0 -1.063057646e-10 1.766127368e-11)
(0 -1.071195537e-10 1.811114922e-11)
(0 -1.080666498e-10 1.857409379e-11)
(0 -1.091523179e-10 1.90350918e-11)
(0 -1.103818414e-10 1.947917076e-11)
(0 -1.117605346e-10 1.989160142e-11)
(0 -1.132937894e-10 2.025801137e-11)
(0 -1.149871373e-10 2.05645642e-11)
(0 -1.168463152e-10 2.079806207e-11)
(0 -1.18877332e-10 2.094612209e-11)
(0 -1.210865492e-10 2.099727497e-11)
(0 -1.234807893e-10 2.094112583e-11)
(0 -1.260674743e-10 2.076842982e-11)
(0 -1.288547726e-10 2.04712292e-11)
(0 -1.318517282e-10 2.004291887e-11)
(0 -1.350683508e-10 1.947839379e-11)
(0 -1.385156889e-10 1.877412792e-11)
(0 -1.422059339e-10 1.792831768e-11)
(0 -1.461526035e-10 1.694091102e-11)
(0 -1.503708044e-10 1.581365946e-11)
(0 -1.548775054e-10 1.4550047e-11)
(0 -1.596917162e-10 1.315527468e-11)
(0 -1.648345149e-10 1.163617129e-11)
(0 -1.703289862e-10 1.00011635e-11)
(0 -1.76200237e-10 8.260081362e-12)
(0 -1.824756087e-10 6.423863731e-12)
(0 -1.891850239e-10 4.503969612e-12)
(0 -1.963611976e-10 2.511688277e-12)
(0 -2.040394286e-10 4.572764188e-13)
(0 -2.122569247e-10 -1.650896175e-12)
(0 -2.210518695e-10 -3.807420257e-12)
(0 -2.304624506e-10 -6.011114695e-12)
(0 -2.405257289e-10 -8.266691155e-12)
(0 -2.51275857e-10 -1.058657243e-11)
(0 -2.627410948e-10 -1.299283611e-11)
(0 -2.749394005e-10 -1.551897888e-11)
(0 -2.87872757e-10 -1.821154123e-11)
(0 -3.015204451e-10 -2.113124467e-11)
(0 -3.158311782e-10 -2.435333314e-11)
(0 -3.307136898e-10 -2.796616291e-11)
(0 -3.460254527e-10 -3.206709817e-11)
(0 -3.615599914e-10 -3.675433529e-11)
(0 -3.770346109e-10 -4.211353621e-11)
(0 -3.920819482e-10 -4.819784415e-11)
(0 -4.062504467e-10 -5.50004028e-11)
(0 -4.190212731e-10 -6.241968148e-11)
(0 -4.298522009e-10 -7.02219952e-11)
(0 -4.382601482e-10 -7.801205937e-11)
(0 -4.439495506e-10 -8.523376134e-11)
(0 -4.469779972e-10 -9.124163714e-11)
(0 -4.479051847e-10 -9.550939655e-11)
(0 -4.477491726e-10 -9.805169975e-11)
(0 -4.473036178e-10 -1.000597606e-10)
(0 -4.446915006e-10 -1.043042755e-10)
(0 -4.290746786e-10 -1.134957164e-10)
(0 -3.680460829e-10 -1.224505561e-10)
(0 -1.979953335e-10 -9.748908607e-11)
(0 1.928978902e-10 3.317527445e-11)
(0 8.652466214e-11 2.202346501e-10)
(0 2.53566024e-11 -3.232445876e-10)
(0 -7.798935227e-11 1.41707196e-11)
(0 -1.863302566e-11 1.786209204e-11)
(0 9.586643795e-13 1.255286513e-11)
(0 6.947375334e-12 8.887883202e-12)
(0 8.928456534e-12 6.937701216e-12)
(0 9.90469515e-12 5.781456322e-12)
(0 1.065192745e-11 4.814325623e-12)
(0 1.128654658e-11 3.831648128e-12)
(0 1.181087369e-11 2.811159923e-12)
(0 1.223247488e-11 1.74652284e-12)
(0 1.255120648e-11 6.140881646e-13)
(0 1.274484622e-11 -6.086961565e-13)
(0 1.277385719e-11 -1.924666948e-12)
(0 1.259523276e-11 -3.310080636e-12)
(0 1.21764741e-11 -4.717614241e-12)
(0 1.150501494e-11 -6.086324783e-12)
(0 1.059094768e-11 -7.354245724e-12)
(0 9.46367046e-12 -8.469036489e-12)
(0 8.164898948e-12 -9.3943177e-12)
(0 6.740601046e-12 -1.011148666e-11)
(0 5.233802604e-12 -1.061761836e-11)
(0 3.679581007e-12 -1.092067747e-11)
(0 2.102872654e-12 -1.103350598e-11)
(0 5.190273464e-13 -1.096809665e-11)
(0 -1.06341979e-12 -1.073121218e-11)
(0 -2.638526122e-12 -1.032206749e-11)
(0 -4.198166685e-12 -9.732346454e-12)
(0 -5.727754918e-12 -8.948595015e-12)
(0 -7.203488176e-12 -7.956631581e-12)
(0 -8.591970003e-12 -6.747310543e-12)
(0 -9.852664003e-12 -5.322459796e-12)
(0 -1.094315639e-11 -3.69953266e-12)
(0 -1.182653678e-11 -1.913439896e-12)
(0 -1.247960158e-11 -1.446988508e-14)
(0 -1.289994849e-11 1.938292143e-12)
(0 -1.310946098e-11 3.887698419e-12)
(0 -1.31517475e-11 5.791082309e-12)
(0 -1.308302448e-11 7.629979459e-12)
(0 -1.29587629e-11 9.412779421e-12)
(0 -1.282100015e-11 1.116732159e-11)
(0 -1.269523205e-11 1.292148993e-11)
(0 -1.260688401e-11 1.468349577e-11)
(0 -1.25969663e-11 1.647276231e-11)
(0 -1.260706953e-11 1.848186154e-11)
(0 -1.194130255e-11 2.128730227e-11)
(0 -7.708929434e-12 2.576021146e-11)
(0 9.545411575e-12 3.177680562e-11)
(0 6.595087319e-11 2.87759482e-11)
(0 -3.986777971e-11 -3.070259066e-10)
(0 -9.420744984e-11 2.284649104e-10)
(0 -7.160200647e-10 -9.872909054e-10)
(0 -5.106783403e-10 -1.954941133e-09)
(0 -7.863580601e-11 -1.750202064e-09)
(0 2.948422228e-11 2.393474293e-22)
(0 -1.023250083e-10 1.702091644e-11)
(0 -1.02425325e-10 1.710780153e-11)
(0 -1.026673042e-10 1.729685475e-11)
(0 -1.030273161e-10 1.757730187e-11)
(0 -1.035115141e-10 1.793544263e-11)
(0 -1.041243799e-10 1.835658898e-11)
(0 -1.048709815e-10 1.882528055e-11)
(0 -1.057564869e-10 1.932551119e-11)
(0 -1.067861257e-10 1.98409112e-11)
(0 -1.079651111e-10 2.035500809e-11)
(0 -1.092986127e-10 2.085136904e-11)
(0 -1.107917723e-10 2.131383135e-11)
(0 -1.124497461e-10 2.17266137e-11)
(0 -1.142777591e-10 2.207452602e-11)
(0 -1.162811594e-10 2.234306722e-11)
(0 -1.184654756e-10 2.251862887e-11)
(0 -1.208364922e-10 2.2588584e-11)
(0 -1.234003585e-10 2.254147583e-11)
(0 -1.261637246e-10 2.236708596e-11)
(0 -1.291338826e-10 2.205660776e-11)
(0 -1.323188763e-10 2.160271326e-11)
(0 -1.357275745e-10 2.099974417e-11)
(0 -1.393697348e-10 2.024379406e-11)
(0 -1.432561204e-10 1.9332893e-11)
(0 -1.473987135e-10 1.826704439e-11)
(0 -1.518110085e-10 1.704833386e-11)
(0 -1.565082987e-10 1.568088929e-11)
(0 -1.615078482e-10 1.417094488e-11)
(0 -1.668289191e-10 1.252678495e-11)
(0 -1.724927635e-10 1.075876183e-11)
(0 -1.785227719e-10 8.87908135e-12)
(0 -1.849448833e-10 6.901513774e-12)
(0 -1.917881284e-10 4.840774307e-12)
(0 -1.99084991e-10 2.711853435e-12)
(0 -2.068713322e-10 5.291159652e-13)
(0 -2.151859151e-10 -1.694623869e-12)
(0 -2.240698236e-10 -3.949400772e-12)
(0 -2.335659747e-10 -6.22967889e-12)
(0 -2.437185109e-10 -8.536491989e-12)
(0 -2.545714934e-10 -1.087982984e-11)
(0 -2.661663511e-10 -1.328138045e-11)
(0 -2.785379226e-10 -1.577731591e-11)
(0 -2.917092339e-10 -1.842129529e-11)
(0 -3.056850443e-10 -2.12872453e-11)
(0 -3.204437638e-10 -2.447162571e-11)
(0 -3.359269864e-10 -2.809401549e-11)
(0 -3.520260118e-10 -3.229492748e-11)
(0 -3.685654862e-10 -3.722890986e-11)
(0 -3.852855243e-10 -4.305091874e-11)
(0 -4.018251498e-10 -4.989269032e-11)
(0 -4.177121349e-10 -5.782563102e-11)
(0 -4.323682422e-10 -6.680666507e-11)
(0 -4.4514444e-10 -7.660630525e-11)
(0 -4.554064981e-10 -8.672321593e-11)
(0 -4.626975079e-10 -9.630279583e-11)
(0 -4.670089617e-10 -1.041071413e-10)
(0 -4.691768663e-10 -1.086476044e-10)
(0 -4.71328625e-10 -1.087051018e-10)
(0 -4.769251628e-10 -1.04598854e-10)
(0 -4.888940504e-10 -1.003728206e-10)
(0 -5.026784876e-10 -1.055747805e-10)
(0 -4.889533629e-10 -1.30999935e-10)
(0 -3.802651119e-10 -1.490850768e-10)
(0 -2.574671309e-11 1.168598529e-21)
(0 7.476161024e-11 3.142146395e-10)
(0 1.120281333e-10 -8.656179923e-11)
(0 1.121277535e-11 -1.834768974e-11)
(0 4.403240962e-13 1.799573268e-12)
(0 3.273054574e-12 6.193826544e-12)
(0 6.143638597e-12 6.390552368e-12)
(0 7.877705564e-12 5.7229723e-12)
(0 8.957550703e-12 4.943391137e-12)
(0 9.7333737e-12 4.132814697e-12)
(0 1.03401694e-11 3.275410455e-12)
(0 1.081975624e-11 2.367382916e-12)
(0 1.118545878e-11 1.407197068e-12)
(0 1.143620264e-11 3.884487586e-13)
(0 1.155779805e-11 -6.935656953e-13)
(0 1.152695991e-11 -1.833190476e-12)
(0 1.131878348e-11 -3.010068361e-12)
(0 1.091465201e-11 -4.19021932e-12)
(0 1.030793539e-11 -5.331228892e-12)
(0 9.506089362e-12 -6.389374711e-12)
(0 8.529218702e-12 -7.32610656e-12)
(0 7.406225913e-12 -8.112431969e-12)
(0 6.169973495e-12 -8.730553287e-12)
(0 4.852722012e-12 -9.17308119e-12)
(0 3.482756497e-12 -9.440347975e-12)
(0 2.082683315e-12 -9.536862908e-12)
(0 6.694547021e-13 -9.467708707e-12)
(0 -7.441380646e-13 -9.235758943e-12)
(0 -2.146959566e-12 -8.840101499e-12)
(0 -3.526634107e-12 -8.276052696e-12)
(0 -4.866997198e-12 -7.536661692e-12)
(0 -6.146617683e-12 -6.615554812e-12)
(0 -7.338901725e-12 -5.510474187e-12)
(0 -8.41398811e-12 -4.226813315e-12)
(0 -9.342295006e-12 -2.780110169e-12)
(0 -1.009921902e-11 -1.196672329e-12)
(0 -1.067010445e-11 4.883578653e-13)
(0 -1.105427152e-11 2.235568514e-12)
(0 -1.12666842e-11 4.007963328e-12)
(0 -1.133613224e-11 5.778131511e-12)
(0 -1.129993234e-11 7.533506612e-12)
(0 -1.119676735e-11 9.277397338e-12)
(0 -1.106053782e-11 1.102461135e-11)
(0 -1.091834652e-11 1.279257976e-11)
(0 -1.079197041e-11 1.459435234e-11)
(0 -1.068771559e-11 1.644462597e-11)
(0 -1.053766809e-11 1.836715959e-11)
(0 -1.00855287e-11 2.028145967e-11)
(0 -8.9752758e-12 2.142056594e-11)
(0 -8.522393592e-12 1.840573663e-11)
(0 -2.233817622e-11 -4.464266944e-13)
(0 -1.264198227e-10 -6.790568262e-11)
(0 -9.098029269e-11 3.309166131e-10)
(0 1.751645098e-11 1.44909841e-21)
(0 -2.910465571e-10 -1.838550846e-09)
(0 3.312084182e-12 -2.034488875e-09)
(0 3.933080626e-11 3.485684447e-22)
(0 -1.005437382e-10 1.804896361e-11)
(0 -1.006543148e-10 1.81467066e-11)
(0 -1.009166132e-10 1.83578214e-11)
(0 -1.013078367e-10 1.867043961e-11)
(0 -1.018344082e-10 1.906956626e-11)
(0 -1.025010489e-10 1.953907425e-11)
(0 -1.033129936e-10 2.006200398e-11)
(0 -1.042755076e-10 2.062076456e-11)
(0 -1.053938507e-10 2.11973971e-11)
(0 -1.066731996e-10 2.177380296e-11)
(0 -1.081186251e-10 2.233196063e-11)
(0 -1.097351071e-10 2.285411811e-11)
(0 -1.115275719e-10 2.332297446e-11)
(0 -1.135009373e-10 2.372184699e-11)
(0 -1.156601563e-10 2.403483575e-11)
(0 -1.180102648e-10 2.424697838e-11)
(0 -1.205564512e-10 2.434440144e-11)
(0 -1.233041617e-10 2.431445944e-11)
(0 -1.262592304e-10 2.414587106e-11)
(0 -1.29428005e-10 2.382885202e-11)
(0 -1.328174362e-10 2.335526254e-11)
(0 -1.364351292e-10 2.271876426e-11)
(0 -1.40289399e-10 2.191498692e-11)
(0 -1.443893937e-10 2.09416816e-11)
(0 -1.48745326e-10 1.979885223e-11)
(0 -1.53368782e-10 1.848885406e-11)
(0 -1.582730066e-10 1.70164774e-11)
(0 -1.634730644e-10 1.538902214e-11)
(0 -1.689858775e-10 1.361636508e-11)
(0 -1.748302892e-10 1.171096165e-11)
(0 -1.810273546e-10 9.687717193e-12)
(0 -1.876009359e-10 7.563663089e-12)
(0 -1.945784193e-10 5.357444584e-12)
(0 -2.019912184e-10 3.088654794e-12)
(0 -2.09874863e-10 7.770404442e-13)
(0 -2.182688081e-10 -1.558505803e-12)
(0 -2.272163087e-10 -3.901313526e-12)
(0 -2.367645282e-10 -6.238814393e-12)
(0 -2.469645753e-10 -8.564964981e-12)
(0 -2.57870847e-10 -1.088316326e-11)
(0 -2.695391797e-10 -1.320960115e-11)
(0 -2.820237153e-10 -1.55770852e-11)
(0 -2.953725885e-10 -1.803934398e-11)
(0 -3.096222666e-10 -2.067568016e-11)
(0 -3.247898142e-10 -2.359546628e-11)
(0 -3.408619472e-10 -2.694157034e-11)
(0 -3.577797955e-10 -3.089131737e-11)
(0 -3.754188283e-10 -3.565299037e-11)
(0 -3.935641483e-10 -4.145481527e-11)
(0 -4.118824487e-10 -4.852178256e-11)
(0 -4.298942e-10 -5.703381463e-11)
(0 -4.469541117e-10 -6.705740984e-11)
(0 -4.622544562e-10 -7.844210543e-11)
(0 -4.748751191e-10 -9.067355603e-11)
(0 -4.839216846e-10 -1.026803983e-10)
(0 -4.88827035e-10 -1.126125982e-10)
(0 -4.899454043e-10 -1.17668809e-10)
(0 -4.895949056e-10 -1.142142047e-10)
(0 -4.934104945e-10 -9.879292686e-11)
(0 -5.104230958e-10 -7.073267154e-11)
(0 -5.478086685e-10 -3.62641103e-11)
(0 -5.841168136e-10 -4.743679976e-12)
(0 -5.95123519e-10 8.953071812e-12)
(0 -8.379155798e-11 -1.78858403e-11)
(0 -7.604955423e-11 9.642667454e-11)
(0 1.478805334e-11 3.123743534e-12)
(0 1.037202008e-11 -2.799587661e-12)
(0 5.90849065e-12 1.489820728e-12)
(0 5.549643485e-12 4.032125217e-12)
(0 6.47652109e-12 4.757372154e-12)
(0 7.481295302e-12 4.620131974e-12)
(0 8.314537548e-12 4.136230366e-12)
(0 8.983946766e-12 3.498063278e-12)
(0 9.521114795e-12 2.769717563e-12)
(0 9.942660308e-12 1.975672176e-12)
(0 1.025354073e-11 1.126298667e-12)
(0 1.045044372e-11 2.259217615e-13)
(0 1.052320699e-11 -7.210035775e-13)
(0 1.045735453e-11 -1.704629062e-12)
(0 1.023820391e-11 -2.706960778e-12)
(0 9.855313564e-12 -3.702129363e-12)
(0 9.305859554e-12 -4.65916849e-12)
(0 8.596070011e-12 -5.546056985e-12)
(0 7.740613201e-12 -6.333697716e-12)
(0 6.760452222e-12 -6.998797025e-12)
(0 5.679951824e-12 -7.525212962e-12)
(0 4.524007916e-12 -7.90373814e-12)
(0 3.315799289e-12 -8.130690954e-12)
(0 2.075511922e-12 -8.205817932e-12)
(0 8.201313111e-13 -8.130120835e-12)
(0 -4.358125819e-13 -7.904074993e-12)
(0 -1.678819873e-12 -7.526630792e-12)
(0 -2.894726879e-12 -6.995168189e-12)
(0 -4.067257034e-12 -6.306451657e-12)
(0 -5.177300667e-12 -5.458367272e-12)
(0 -6.203228506e-12 -4.452079749e-12)
(0 -7.122299986e-12 -3.294042524e-12)
(0 -7.913015403e-12 -1.99727851e-12)
(0 -8.558068746e-12 -5.813740502e-13)
(0 -9.047360732e-12 9.291055432e-13)
(0 -9.380343025e-12 2.507757753e-12)
(0 -9.566897987e-12 4.130542023e-12)
(0 -9.626204214e-12 5.780065254e-12)
(0 -9.583758649e-12 7.448620486e-12)
(0 -9.467658162e-12 9.13881573e-12)
(0 -9.305817724e-12 1.086127106e-11)
(0 -9.125491045e-12 1.262996089e-11)
(0 -8.9548378e-12 1.445677344e-11)
(0 -8.824159048e-12 1.634426594e-11)
(0 -8.770235833e-12 1.826071866e-11)
(0 -8.887896205e-12 2.005080302e-11)
(0 -9.584652477e-12 2.123509638e-11)
(0 -1.232158107e-11 2.08721479e-11)
(0 -2.036054585e-11 1.893889847e-11)
(0 -3.049851976e-11 2.692698066e-11)
(0 4.971064912e-11 1.204348323e-10)
(0 6.708958329e-11 7.807297871e-13)
(0 3.173225424e-11 -1.459333587e-09)
(0 1.579277663e-11 -2.322453838e-09)
(0 5.701791853e-11 5.625033813e-22)
(0 -9.861125973e-11 1.911870392e-11)
(0 -9.873276994e-11 1.922902402e-11)
(0 -9.901672982e-11 1.946555436e-11)
(0 -9.944125985e-11 1.981521539e-11)
(0 -1.000130938e-10 2.026154771e-11)
(0 -1.007372296e-10 2.078683065e-11)
(0 -1.016190985e-10 2.137241229e-11)
(0 -1.026640885e-10 2.199895251e-11)
(0 -1.038775102e-10 2.264670936e-11)
(0 -1.052645243e-10 2.329580387e-11)
(0 -1.068301194e-10 2.39264491e-11)
(0 -1.08579127e-10 2.451917128e-11)
(0 -1.105162531e-10 2.505499661e-11)
(0 -1.126461136e-10 2.551563889e-11)
(0 -1.149732678e-10 2.588366206e-11)
(0 -1.175022569e-10 2.614264747e-11)
(0 -1.202376666e-10 2.627733951e-11)
(0 -1.231842238e-10 2.627379779e-11)
(0 -1.263469142e-10 2.611953429e-11)
(0 -1.297310868e-10 2.580367197e-11)
(0 -1.333425164e-10 2.531710588e-11)
(0 -1.371874323e-10 2.465269374e-11)
(0 -1.412725591e-10 2.380544275e-11)
(0 -1.456052399e-10 2.277270412e-11)
(0 -1.501936726e-10 2.155433927e-11)
(0 -1.550472154e-10 2.015288487e-11)
(0 -1.60176658e-10 1.857370065e-11)
(0 -1.655943674e-10 1.682513279e-11)
(0 -1.713143423e-10 1.491864499e-11)
(0 -1.773523536e-10 1.286889158e-11)
(0 -1.837263719e-10 1.069363716e-11)
(0 -1.904573188e-10 8.413516707e-12)
(0 -1.975699193e-10 6.051620851e-12)
(0 -2.050933294e-10 3.632970705e-12)
(0 -2.130614133e-10 1.183828176e-12)
(0 -2.215128963e-10 -1.269247619e-12)
(0 -2.304917722e-10 -3.700809093e-12)
(0 -2.400480756e-10 -6.08849831e-12)
(0 -2.502386454e-10 -8.415656502e-12)
(0 -2.611272559e-10 -1.067451498e-11)
(0 -2.727837203e-10 -1.287003585e-11)
(0 -2.852819624e-10 -1.502452437e-11)
(0 -2.986971304e-10 -1.718319089e-11)
(0 -3.131013967e-10 -1.94206098e-11)
(0 -3.285574249e-10 -2.184775503e-11)
(0 -3.451080157e-10 -2.46188521e-11)
(0 -3.627603616e-10 -2.79368912e-11)
(0 -3.814634394e-10 -3.205583422e-11)
(0 -4.010771189e-10 -3.727620935e-11)
(0 -4.213318667e-10 -4.392849208e-11)
(0 -4.417796398e-10 -5.233592001e-11)
(0 -4.617402168e-10 -6.274517894e-11)
(0 -4.802521452e-10 -7.520962874e-11)
(0 -4.960446932e-10 -8.940485899e-11)
(0 -5.07563416e-10 -1.043506931e-10)
(0 -5.131208278e-10 -1.180054955e-10)
(0 -5.11335492e-10 -1.266926474e-10)
(0 -5.022038713e-10 -1.244139959e-10)
(0 -4.888065273e-10 -1.024985096e-10)
(0 -4.780088961e-10 -5.178829536e-11)
(0 -4.670957104e-10 2.467540213e-11)
(0 -4.048707755e-10 1.017394675e-10)
(0 5.812657458e-11 1.51705113e-22)
(0 7.06799613e-11 9.80148837e-12)
(0 1.975877885e-11 1.024155836e-11)
(0 1.280187094e-11 5.429410932e-12)
(0 9.578852554e-12 2.535539744e-12)
(0 7.272036991e-12 2.926993725e-12)
(0 6.540606005e-12 3.687340786e-12)
(0 6.731645353e-12 3.986572195e-12)
(0 7.256563775e-12 3.863868887e-12)
(0 7.835482007e-12 3.483270685e-12)