/*--------------------------------*- C++ -*----------------------------------*\
  =========                 |
  \\      /  F ield         | OpenFOAM: The Open Source CFD Toolbox
   \\    /   O peration     | Website:  https://openfoam.org
    \\  /    A nd           | Version:  10
     \\/     M anipulation  |
\*---------------------------------------------------------------------------*/
FoamFile
{
    format      ascii;
    class       surfaceScalarField;
    location    "0.0004";
    object      phi;
}
// * * * * * * * * * * * * * * * * * * * * * * * * * * * * * * * * * * * * * //

dimensions      [0 3 -1 0 0 0 0];

internalField   nonuniform List<scalar> 
7080
(
1.393221658e-10
-9.121303306e-12
1.231556795e-10
-1.746668066e-11
1.226712664e-10
-2.536036414e-11
1.670324021e-10
-3.958156968e-11
1.808122833e-10
9.474759114e-12
7.52552779e-11
4.39137002e-11
2.100335046e-11
3.26201322e-11
5.702462032e-12
1.136714685e-11
4.50751523e-19
1.172854839e-12
1.627906468e-19
5.423394741e-20
7.091283052e-20
-1.802826596e-20
3.625788465e-20
-2.628877856e-20
2.103797487e-20
-2.24091384e-20
1.344582487e-20
-1.743115055e-20
9.257445675e-21
-1.338225611e-20
6.756845589e-21
-1.036877749e-20
5.166675139e-21
-8.162904105e-21
4.101810647e-21
-6.539322309e-21
3.357062112e-21
-5.32884358e-21
2.816417002e-21
-4.412725244e-21
2.410966335e-21
-3.708850039e-21
2.098053717e-21
-3.160206237e-21
1.850337894e-21
-2.726771046e-21
1.649753864e-21
-2.380065022e-21
1.484038301e-21
-2.099533366e-21
1.344667837e-21
-1.870130243e-21
1.22559551e-21
-1.680693636e-21
1.122447734e-21
-1.522839929e-21
1.03200128e-21
-1.390199607e-21
9.518397788e-22
-1.277879959e-21
8.801249481e-22
-1.182083484e-21
8.154388758e-22
-1.099835038e-21
7.566717942e-22
-1.028784159e-21
7.029422291e-22
-9.670590277e-22
6.535410381e-22
-9.131570768e-22
6.078916238e-22
-8.65862993e-22
5.655201196e-22
-8.241873615e-22
5.260322212e-22
-7.873201935e-22
4.890954863e-22
-7.545948722e-22
4.544263224e-22
-7.254597174e-22
4.217804505e-22
-6.994556005e-22
3.909456064e-22
-6.761984608e-22
3.61735767e-22
-6.553656016e-22
3.339866301e-22
-6.366847909e-22
3.075520943e-22
-6.199255284e-22
2.82301333e-22
-6.048920973e-22
2.581161208e-22
-5.914180608e-22
2.34888389e-22
-5.793618017e-22
2.125182416e-22
-5.686027427e-22
1.909126252e-22
-5.59038068e-22
1.699845746e-22
-5.505799526e-22
1.496527166e-22
-5.431533688e-22
1.298407048e-22
-5.366944539e-22
1.104764436e-22
-5.311493029e-22
9.149118535e-23
-5.264730034e-22
7.281868651e-23
-5.226287803e-22
5.439458972e-23
-5.195872228e-22
3.615616688e-23
-5.173256674e-22
1.804286668e-23
-5.158279793e-22
-5.150856699e-22
9.655408149e-11
6.04048997e-12
7.003335256e-11
9.054047463e-12
3.313055097e-11
1.154243561e-11
8.199299091e-12
-1.465031701e-11
-9.520669599e-12
2.719472771e-11
-6.712443778e-12
4.110547442e-11
-2.368920416e-12
2.827660884e-11
-1.276172568e-13
9.125843681e-12
7.208296801e-20
1.045237503e-12
9.001534944e-20
3.406991311e-20
6.262503265e-20
9.362047092e-21
4.01375248e-20
-3.801277095e-21
2.601596272e-20
-8.287583635e-21
1.749471931e-20
-8.909917775e-21
1.227092429e-20
-8.158474736e-21
8.962718978e-21
-7.060586387e-21
6.790256936e-21
-5.99045565e-21
5.312289376e-21
-5.061370838e-21
4.273180448e-21
-4.289754195e-21
3.520292208e-21
-3.659856982e-21
2.959610137e-21
-3.148188159e-21
2.531488907e-21
-2.732107729e-21
2.197043919e-21
-2.39235114e-21
1.93028552e-21
-2.11333219e-21
1.713441423e-21
-1.88271501e-21
1.534104443e-21
-1.69081999e-21
1.383449217e-21
-1.530066051e-21
1.255088056e-21
-1.394506411e-21
1.144320929e-21
-1.279459631e-21
1.047636253e-21
-1.181222245e-21
9.623733944e-22
-1.096847976e-21
8.864897552e-22
-1.023979575e-21
8.183969252e-22
-9.607205606e-22
7.5684418e-22
-9.055365898e-22
7.008351219e-22
-8.571791889e-22
6.495672553e-22
-8.14626821e-22
6.023872876e-22
-7.770393612e-22
5.587575425e-22
-7.437226485e-22
5.182306411e-22
-7.141005235e-22
4.804304393e-22
-6.87692591e-22
4.450375901e-22
-6.640965286e-22
4.117784656e-22
-6.429740098e-22
3.804165777e-22
-6.240394415e-22
3.507458926e-22
-6.07050888e-22
3.225855254e-22
-5.918027588e-22
2.957753695e-22
-5.781199495e-22
2.701723799e-22
-5.658531288e-22
2.456474479e-22
-5.548748623e-22
2.220829163e-22
-5.450763256e-22
1.993707407e-22
-5.363644909e-22
1.774111584e-22
-5.286597775e-22
1.561116315e-22
-5.21894177e-22
1.353858558e-22
-5.160098103e-22
1.151527432e-22
-5.109578128e-22
9.533540838e-23
-5.066974262e-22
7.586024408e-23
-5.031952173e-22
5.665614515e-23
-5.004244021e-22
3.765385493e-23
-4.983643005e-22
1.878517614e-23
-4.969999495e-22
-4.96321728e-22
3.119488507e-11
2.010352184e-11
1.173112828e-11
2.851780314e-11
-3.001748762e-11
5.329105255e-11
-3.552911607e-11
-9.138688675e-12
-4.061962508e-11
3.228523652e-11
-2.294171267e-11
2.342756201e-11
-7.831857507e-12
1.316675368e-11
-1.333680357e-12
2.627666528e-12
9.0129556e-20
-2.884429471e-13
6.579706234e-20
5.387475706e-20
4.944833023e-20
2.571077657e-20
3.565121826e-20
9.995828702e-21
2.539362857e-20
1.969998242e-21
1.824616235e-20
-1.762461006e-21
1.336881264e-20
-3.281135969e-21
1.003284972e-20
-3.7246363e-21
7.719341747e-21
-3.676961244e-21
6.083906019e-21
-3.425949355e-21
4.903077661e-21
-3.108942215e-21
4.031961031e-21
-2.788758774e-21
3.375690567e-21
-2.491937267e-21
2.871245497e-21
-2.227683569e-21
2.476062869e-21
-1.99719124e-21
2.1609027e-21
-1.798196298e-21
1.905336443e-21
-1.627174022e-21
1.694858382e-21
-1.480367963e-21
1.519008857e-21
-1.354243303e-21
1.370134836e-21
-1.245659778e-21
1.242558315e-21
-1.151910876e-21
1.132010522e-21
-1.070702489e-21
1.035241795e-21
-1.000107748e-21
9.4974877e-22
-9.385159178e-22
8.73580896e-22
-8.845832887e-22
8.052015808e-22
-8.371891956e-22
7.433874898e-22
-7.953981186e-22
6.871547151e-22
-7.584278114e-22
6.357040003e-22
-7.256228526e-22
5.883796676e-22
-6.964327954e-22
5.446385735e-22
-6.703941516e-22
5.040265018e-22
-6.471155813e-22
4.661601089e-22
-6.2626575e-22
4.307130339e-22
-6.075633621e-22
3.974051313e-22
-5.907689578e-22
3.659940217e-22
-5.75678167e-22
3.362683348e-22
-5.621161952e-22
3.080421902e-22
-5.499333348e-22
2.811506464e-22
-5.390012763e-22
2.554459846e-22
-5.292100104e-22
2.30794751e-22
-5.204651774e-22
2.070754541e-22
-5.126858031e-22
1.841767589e-22
-5.058024149e-22
1.619959982e-22
-4.997555266e-22
1.404378533e-22
-4.944944419e-22
1.194131298e-22
-4.899763003e-22
9.883761724e-23
-4.861652865e-22
7.863105934e-23
-4.830319569e-22
5.871624671e-23
-4.805526632e-22
3.901820595e-23
-4.787090726e-22
1.946339762e-23
-4.774877627e-22
-4.768797934e-22
-4.000875153e-11
1.708762752e-11
-3.161722287e-11
2.012627422e-11
-5.861520956e-11
8.028903872e-11
-4.540210487e-11
-2.235179322e-11
-1.764400845e-11
4.527140111e-12
-7.097752611e-12
1.288130617e-11
-7.014790813e-13
6.770480156e-12
2.884430591e-13
1.637744387e-12
3.359872491e-20
8.300808828e-20
3.741689879e-20
5.005658318e-20
3.372955517e-20
2.939811699e-20
2.762538779e-20
1.609998979e-20
2.166116932e-20
7.93420865e-21
1.672748738e-20
3.171211633e-21
1.292531231e-20
5.210282526e-22
1.008052477e-20
-8.798615958e-22
7.970353636e-21
-1.566804186e-21
6.400913159e-21
-1.856523642e-21
5.223261102e-21
-1.931306344e-21
4.328782538e-21
-1.894298249e-21
3.639944264e-21
-1.803118383e-21
3.101737826e-21
-1.689497623e-21
2.675057811e-21
-1.570533137e-21
2.331924975e-21
-1.455086921e-21
2.052142502e-21
-1.347416248e-21
1.820983043e-21
-1.249234114e-21
1.627592381e-21
-1.160879022e-21
1.463883737e-21
-1.081978181e-21
1.323766703e-21
-1.01182141e-21
1.202605262e-21
-9.495690954e-22
1.096833625e-21
-8.943648098e-22
1.003681399e-21
-8.453933191e-22
9.20974989e-22
-8.019076189e-22
8.469926579e-22
-7.632387237e-22
7.80357797e-22
-7.287961171e-22
7.199596739e-22
-6.980633806e-22
6.648940575e-22
-6.705915737e-22
6.144183114e-22
-6.459918483e-22
5.679171438e-22
-6.239281328e-22
5.248763331e-22
-6.041103069e-22
4.848624968e-22
-5.862880226e-22
4.475074382e-22
-5.702452083e-22
4.124959221e-22
-5.557952566e-22
3.795559934e-22
-5.42776891e-22
3.484511952e-22
-5.310506711e-22
3.189742488e-22
-5.204960462e-22
2.909419123e-22
-5.110088381e-22
2.641908176e-22
-5.02499054e-22
2.385741254e-22
-4.94888975e-22
2.139588423e-22
-4.881115115e-22
1.902236472e-22
-4.82108826e-22
1.672570828e-22
-4.768312075e-22
1.44955995e-22
-4.722361591e-22
1.232241435e-22
-4.682876479e-22
1.019709468e-22
-4.649554758e-22
8.111035304e-23
-4.622147429e-22
6.05598373e-23
-4.600453914e-22
4.023951588e-23
-4.584318212e-22
2.007136693e-23
-4.573625622e-22
-4.568299857e-22
-5.231901141e-11
1.034676063e-11
-3.483927793e-11
2.64654082e-12
4.36566677e-12
4.108409395e-11
-1.550059231e-11
-2.485534138e-12
-1.199558284e-11
1.022130638e-12
-3.915422945e-12
4.801146279e-12
-1.015065843e-12
3.870123055e-12
-5.171960247e-20
6.22678595e-13
8.612929555e-22
3.135939931e-20
1.675149669e-20
3.41663778e-20
2.043142797e-20
2.571818161e-20
1.945960665e-20
1.707180483e-20
1.68981723e-20
1.049563502e-20
1.4077304e-20
5.992070101e-21
1.152442246e-20
3.07389835e-21
9.39358218e-21
1.250965807e-21
7.680634181e-21
1.461295399e-22
6.326130456e-21
-5.020353125e-22
5.260269197e-21
-8.654615794e-22
4.419962404e-21
-1.054009262e-21
3.753565025e-21
-1.136740134e-21
3.220702312e-21
-1.15665528e-21
2.790504027e-21
-1.140356484e-21
2.439595648e-21
-1.104201483e-21
2.150324636e-21
-1.05816945e-21
1.909338136e-21
-1.008272963e-21
1.706493222e-21
-9.58060348e-22
1.534040508e-21
-9.095523289e-22
1.386019018e-21
-8.63827282e-22
1.257809548e-21
-8.213876052e-22
1.145805116e-21
-7.823892012e-22
1.047167099e-21
-7.467851093e-22
9.596438842e-22
-7.144151929e-22
8.814352645e-22
-6.850618242e-22
8.110905335e-22
-6.584840114e-22
7.474314808e-22
-6.344378154e-22
6.894937829e-22
-6.126880985e-22
6.364820268e-22
-5.930148699e-22
5.877349697e-22
-5.752162993e-22
5.426986174e-22
-5.591096755e-22
5.009053111e-22
-5.445311079e-22
4.6195739e-22
-5.313345068e-22
4.255142877e-22
-5.19390227e-22
3.912822133e-22
-5.085836205e-22
3.590058201e-22
-4.988136239e-22
3.284614568e-22
-4.899914114e-22
2.994516964e-22
-4.820391136e-22
2.718008966e-22
-4.748886066e-22
2.453515889e-22
-4.684803988e-22
2.199615277e-22
-4.627626417e-22
1.955012657e-22
-4.576902796e-22
1.718521312e-22
-4.532243314e-22
1.489045062e-22
-4.493312839e-22
1.265563156e-22
-4.459825771e-22
1.047116797e-22
-4.431541639e-22
8.327970454e-23
-4.408261338e-22
6.217340756e-23
-4.389823915e-22
4.130877487e-23
-4.37610383e-22
2.060394343e-23
-4.367008622e-22
-4.362477044e-22
-1.553291322e-11
2.317819071e-12
-1.192513712e-11
-9.612352965e-13
9.508465929e-12
1.965049093e-11
3.090958732e-13
6.71383594e-12
-3.87768463e-12
5.208911141e-12
-2.195319473e-12
3.118781134e-12
-6.226784712e-13
2.297482062e-12
1.772291949e-20
1.019891898e-19
4.350411586e-21
4.473190722e-20
8.311257976e-21
3.020552872e-20
1.178505119e-20
2.22443837e-20
1.288343684e-20
1.597341283e-20
1.239460739e-20
1.098445612e-20
1.115913225e-20
7.227534708e-21
9.701489915e-21
4.531528684e-21
8.288745912e-21
2.663696631e-21
7.032469328e-21
1.402391569e-21
5.962704189e-21
5.677140914e-22
5.071721515e-21
2.550446442e-23
4.337231532e-21
-3.195369564e-22
3.733649878e-21
-5.331774637e-22
3.237001108e-21
-6.60026779e-22
2.826659028e-21
-7.300358157e-22
2.485627681e-21
-7.631927287e-22
2.200221122e-21
-7.727867933e-22
1.959550751e-21
-7.676277364e-22
1.755001241e-21
-7.535368893e-22
1.579765555e-21
-7.343432831e-22
1.428458694e-21
-7.125476229e-22
1.296807952e-21
-6.897648307e-22
1.181409208e-21
-6.670193673e-22
1.079537016e-21
-6.449427693e-22
9.889972529e-22
-6.239061472e-22
9.080130772e-22
-6.041092182e-22
8.351367295e-22
-5.856401326e-22
7.691811977e-22
-5.685156347e-22
7.091670115e-22
-5.527080078e-22
6.542805974e-22
-5.381631295e-22
6.038415934e-22
-5.248124942e-22
5.57277185e-22
-5.125810908e-22
5.141019122e-22
-5.01392439e-22
4.739016698e-22
-4.911717264e-22
4.363208942e-22
-4.818477146e-22
4.010522099e-22
-4.733538549e-22
3.678280326e-22
-4.656288716e-22
3.364137547e-22
-4.586169677e-22
3.066022034e-22
-4.522677634e-22
2.782091044e-22
-4.465360701e-22
2.51069346e-22
-4.413815817e-22
2.250338898e-22
-4.36768543e-22
1.999672139e-22
-4.326654218e-22
1.757451787e-22
-4.290445979e-22
1.522532129e-22
-4.258820718e-22
1.293847289e-22
-4.231572012e-22
1.070397099e-22
-4.208524672e-22
8.51234468e-23
-4.189532692e-22
6.354541608e-23
-4.174477446e-22
4.221829572e-23
-4.163266064e-22
2.105710127e-23
-4.155830008e-22
-4.152123933e-22
-1.086371071e-11
1.789876929e-12
-1.400696913e-11
2.182023109e-12
-4.078765248e-12
9.722287054e-12
-4.243610959e-12
6.878681648e-12
-2.684991119e-12
3.650291309e-12
-1.618559806e-12
2.052349819e-12
-1.400320619e-19
6.789223994e-13
-3.708023296e-20
-3.88627654e-21
-1.020662267e-20
1.785829568e-20
3.50112946e-22
1.964878945e-20
5.514080323e-21
1.708041101e-20
7.894480126e-21
1.359300591e-20
8.637685975e-21
1.0241241e-20
8.463126224e-21
7.402083318e-21
7.833657862e-21
5.160984554e-21
7.027440849e-21
3.469899982e-21
6.197791851e-21
2.232025755e-21
5.420494562e-21
1.344995602e-21
4.726680094e-21
7.19302269e-22
4.123591025e-21
2.835343513e-22
3.606800563e-21
-1.640600905e-23
3.166992072e-21
-2.202384299e-22
2.793502114e-21
-3.565670552e-22
2.476033617e-21
-4.457466387e-22
2.205380179e-21
-5.021571183e-22
1.973641598e-21
-5.359141093e-22
1.774194848e-21
-5.541159204e-22
1.601561215e-21
-5.617360569e-22
1.451241487e-21
-5.622550125e-22
1.319553415e-21
-5.581047666e-22
1.203485806e-21
-5.509806914e-22
1.100573638e-21
-5.420603743e-22
1.008794182e-21
-5.321572617e-22
9.264821629e-22
-5.218286325e-22
8.522612274e-22
-5.114515572e-22
7.849888247e-22
-5.01276458e-22
7.237118898e-22
-4.914650045e-22
6.676312327e-22
-4.821169938e-22
6.160729969e-22
-4.732894008e-22
5.684658368e-22
-4.650098307e-22
5.243226248e-22
-4.572859964e-22
4.832256816e-22
-4.501124158e-22
4.448147539e-22
-4.434751713e-22
4.087771932e-22
-4.373552921e-22
3.748399365e-22
-4.317311249e-22
3.42762959e-22
-4.265799542e-22
3.123338967e-22
-4.218790803e-22
2.833635928e-22
-4.176065272e-22
2.556823847e-22
-4.13741501e-22
2.29137011e-22
-4.102646811e-22
2.035880378e-22
-4.071583871e-22
1.789077048e-22
-4.044066582e-22
1.549780835e-22
-4.019952744e-22
1.316894629e-22
-3.999117475e-22
1.089389079e-22
-3.981452979e-22
8.662897143e-23
-3.966868224e-22
6.466655426e-23
-3.955288516e-22
4.296190137e-23
-3.946654963e-22
2.142770877e-23
-3.940923883e-22
-3.938066298e-22
-1.04721378e-11
2.522913973e-12
-1.136205629e-11
3.07194161e-12
-6.698584464e-12
5.058815234e-12
-4.192016301e-12
4.372113488e-12
-2.037003584e-12
1.495278598e-12
-6.789223921e-13
6.942686204e-13
-3.860750129e-21
1.527687942e-20
-1.461071061e-20
6.863683933e-21
-8.407030271e-21
1.165461248e-20
-2.218265489e-21
1.346002019e-20
2.026675226e-21
1.283546418e-20
4.542715216e-21
1.10769578e-20
5.79852829e-21
8.985417905e-21
6.22202746e-21
6.978572571e-21
6.14257329e-21
5.240425823e-21
5.789566621e-21
3.822892664e-21
5.310761699e-21
2.710815801e-21
4.794801229e-21
1.860940307e-21
4.290912176e-21
1.223174491e-21
3.823650664e-21
7.507778611e-22
3.402968142e-21
4.042574479e-22
3.030663446e-21
1.520462546e-22
2.704322531e-21
-3.024721647e-23
2.419623137e-21
-1.610696237e-22
2.171623188e-21
-2.54180866e-22
1.955439787e-21
-3.197554518e-22
1.766574711e-21
-3.652763577e-22
1.60104226e-21
-3.962298548e-22
1.455391733e-21
-4.166315979e-22
1.326677491e-21
-4.294185572e-22
1.212406123e-21
-4.367381967e-22
1.11047675e-21
-4.401606356e-22
1.019122811e-21
-4.408337612e-22
9.368592382e-22
-4.395964056e-22
8.624363266e-22
-4.370609114e-22
7.948002782e-22
-4.336734733e-22
7.330599005e-22
-4.297583453e-22
6.764588256e-22
-4.255502663e-22
6.24352567e-22
-4.212182287e-22
5.761896711e-22
-4.168828968e-22
5.314962054e-22
-4.126294118e-22
4.898629261e-22
-4.085168612e-22
4.509346331e-22
-4.045853178e-22
4.144013603e-22
-4.008610678e-22
3.799911073e-22
-3.973604683e-22
3.474638328e-22
-3.940927789e-22
3.166064499e-22
-3.910622427e-22
2.872286189e-22
-3.882696275e-22
2.591592046e-22
-3.857133737e-22
2.32243305e-22
-3.833904426e-22
2.063397668e-22
-3.812969307e-22
1.813190886e-22
-3.7942851e-22
1.570616103e-22
-3.777807454e-22
1.334559125e-22
-3.763493315e-22
1.103973834e-22
-3.751302732e-22
8.778694223e-23
-3.741200169e-22
6.55299096e-23
-3.733155387e-22
4.35350093e-23
-3.727143907e-22
2.171346735e-23
-3.723147218e-22
-3.721152837e-22
-8.693590847e-12
2.689823326e-12
-8.025451845e-12
2.403802589e-12
-5.047678204e-12
2.081041601e-12
-2.189547228e-12
1.513982506e-12
-6.942686384e-13
1.275381152e-20
-2.102907709e-20
-3.204782634e-21
-1.055102543e-20
4.798827766e-21
-9.835568867e-21
6.148224851e-21
-6.601622564e-21
8.420662071e-21
-2.842821494e-21
9.701213595e-21
2.681688395e-22
9.724466567e-21
2.451175325e-21
8.893942216e-21
3.791682957e-21
7.644899641e-21
4.483880712e-21
6.286362842e-21
4.725040131e-21
4.999253257e-21
4.677489759e-21
3.870428964e-21
4.460886204e-21
2.927404436e-21
4.157035413e-21
2.164775134e-21
3.818515546e-21
1.561677196e-21
3.477130251e-21
1.092144928e-21
3.150756949e-21
7.306116742e-22
2.848369975e-21
4.544132685e-22
2.573500124e-21
2.446015203e-22
2.326511895e-21
8.589616663e-23
2.106048602e-21
-3.374119812e-23
1.909918881e-21
-1.236502747e-22
1.735621214e-21
-1.910040337e-22
1.580640516e-21
-2.412753659e-22
1.442604773e-21
-2.786229913e-22
1.319357851e-21
-3.061996359e-22
1.208983684e-21
-3.263927914e-22
1.109803625e-21
-3.41010098e-22
1.020360167e-21
-3.514206864e-22
9.393947323e-22
-3.586622772e-22
8.658237647e-22
-3.635220982e-22
7.987154062e-22
-3.665979706e-22
7.372679795e-22
-3.683444048e-22
6.807908633e-22
-3.691073427e-22
6.286878989e-22
-3.691503146e-22
5.804431561e-22
-3.686741575e-22
5.356087561e-22
-3.678319405e-22
4.937944694e-22
-3.667403168e-22
4.546588831e-22
-3.654881763e-22
4.179019598e-22
-3.641432259e-22
3.832587966e-22
-3.627569832e-22
3.50494369e-22
-3.613685701e-22
3.193990651e-22
-3.600076163e-22
2.897848727e-22
-3.586964966e-22
2.614821358e-22
-3.574520567e-22
2.343368168e-22
-3.562869316e-22
2.082081875e-22
-3.552105461e-22
1.829668532e-22
-3.542298745e-22
1.584930242e-22
-3.533500269e-22
1.346749709e-22
-3.525747127e-22
1.114076396e-22
-3.519066058e-22
8.859142051e-23
-3.513476249e-22
6.613105753e-23
-3.508991382e-22
4.393467823e-23
-3.505621027e-22
2.191290554e-23
-3.503371574e-22
-3.502246847e-22
-5.20242897e-12
1.87297921e-12
-3.603038659e-12
8.044122648e-13
-1.513982536e-12
-8.014530532e-15
-2.432128867e-20
-1.225611051e-20
-9.123167512e-21
-1.313303457e-21
-1.15059363e-20
-8.220138396e-22
-9.198566886e-21
2.491455799e-21
-7.563131649e-21
4.512785631e-21
-5.32107104e-21
6.1785963e-21
-2.819568521e-21
7.199704428e-21
-5.623555107e-22
7.467245284e-21
1.20213275e-21
7.129444216e-21
2.433146158e-21
6.4138752e-21
3.196771128e-21
5.522725662e-21
3.596215838e-21
4.599795319e-21
3.734465231e-21
3.732165429e-21
3.698256902e-21
2.963597593e-21
3.553937475e-21
2.309078194e-21
3.348983278e-21
1.766613905e-21
3.115596997e-21
1.325512867e-21
2.874558543e-21
9.716310331e-22
2.638558227e-21
6.903935303e-22
2.41479477e-21
4.683437041e-22
2.20687453e-21
2.937938972e-22
2.016139526e-21
1.569702585e-22
1.842565122e-21
4.989970177e-23
1.685349882e-21
-3.381410252e-23
1.543292891e-21
-9.924461986e-23
1.415028129e-21
-1.503853699e-22
1.299164696e-21
-1.903641334e-22
1.194366378e-21
-2.216231548e-22
1.099393036e-21
-2.460662628e-22
1.013118576e-21
-2.651766371e-22
9.345349113e-22
-2.801098938e-22
8.627478924e-22
-2.917670905e-22
7.969689719e-22
-3.008516828e-22
7.365050416e-22
-3.079137613e-22
6.807478914e-22
-3.133842836e-22
6.291640559e-22
-3.176015169e-22
5.812853732e-22
-3.208314907e-22
5.367003797e-22
-3.232838631e-22
4.9504661e-22
-3.251242541e-22
4.560038335e-22
-3.264838245e-22
4.192882025e-22
-3.274667018e-22
3.846472097e-22
-3.281557363e-22
3.518553229e-22
-3.286169871e-22
3.207101848e-22
-3.289032394e-22
2.910293126e-22
-3.29056773e-22
2.626472608e-22
-3.291115338e-22
2.354132023e-22
-3.290948249e-22
2.091888592e-22
-3.290286208e-22
1.838467008e-22
-3.289305974e-22
1.592683383e-22
-3.288149512e-22
1.353430778e-22
-3.286930576e-22
1.119666205e-22
-3.285739967e-22
8.903990724e-23
-3.284649609e-22
6.646809297e-23
-3.283715608e-22
4.415962354e-23
-3.282980472e-22
2.20253783e-23
-3.282474704e-22
-3.282217927e-22
-7.963977587e-13
3.565245437e-13
8.014522541e-15
-2.332989882e-20
-4.508181088e-21
-7.009073995e-21
-9.744398274e-21
-7.019893327e-21
-8.129201062e-21
-2.928501231e-21
-8.191841192e-21
-7.593761634e-22
-7.177237052e-21
1.476847887e-21
-5.897320981e-21
3.232864672e-21
-4.299962913e-21
4.581232037e-21
-2.552027665e-21
5.451761554e-21
-9.001565777e-22
5.815365277e-21
4.865637347e-22
5.742713809e-21
1.541996619e-21
5.35843106e-21
2.273840785e-21
4.790869146e-21
2.728585948e-21
4.145036802e-21
2.965897395e-21
3.49483957e-21
3.043737504e-21
2.88574188e-21
3.011473186e-21
2.341325745e-21
2.90788224e-21
1.870187167e-21
2.761715162e-21
1.471661541e-21
2.59332104e-21
1.140005943e-21
2.416508401e-21
8.671858957e-22
2.240244963e-21
6.445856758e-22
2.070050892e-21
4.639654011e-22
1.909068969e-21
3.179286599e-22
1.758851318e-21
2.000929207e-22
1.619919364e-21
1.050924784e-22
1.492152141e-21
2.849631115e-23
1.375049365e-21
-3.330971518e-23
1.267905674e-21
-8.324833428e-23
1.16992327e-21
-1.236694571e-22
1.080282662e-21
-1.564552569e-22
9.981853191e-22
-1.831097806e-22
9.228777145e-22
-2.048335307e-22
8.536633001e-22
-2.225845306e-22
7.899068934e-22
-2.37127723e-22
7.310345194e-22
-2.490745531e-22
6.765306581e-22
-2.589144792e-22
6.259340821e-22
-2.67039982e-22
5.788330007e-22
-2.737664077e-22
5.348599888e-22
-2.793477149e-22
4.936870395e-22
-2.839889568e-22
4.550209563e-22
-2.87856146e-22
4.18599168e-22
-2.910840429e-22
3.841859589e-22
-2.93782316e-22
3.515690706e-22
-2.960404412e-22
3.205566511e-22
-2.97931614e-22
2.909745518e-22
-2.995158714e-22
2.626639698e-22
-3.008425711e-22
2.354794064e-22
-3.019523513e-22
2.092868826e-22
-3.02878684e-22
1.839623471e-22
-3.036491194e-22
1.593902319e-22
-3.042862926e-22
1.354621387e-22
-3.048087402e-22
1.120756563e-22
-3.052315546e-22
8.913330736e-23
-3.055668956e-22
6.654160653e-23
-3.058243806e-22
4.421020038e-23
-3.060113778e-22
2.205105609e-23
-3.061332234e-22
-3.0619338e-22
1.239751152e-20
-1.240470584e-21
-2.989973787e-21
-9.714991698e-21
-3.514556966e-21
-6.484490817e-21
-5.661753659e-21
-4.872698292e-21
-5.95707472e-21
-2.633182805e-21
-5.955617143e-21
-7.608374811e-22
-5.421220266e-21
9.424463612e-22
-4.548953616e-21
2.360592126e-21
-3.429433395e-21
3.461704604e-21
-2.188423942e-21
4.210743784e-21
-9.728080454e-22
4.599740089e-21
1.022809859e-22
4.667614425e-21
9.744347054e-22
4.486265843e-21
1.628008441e-21
4.137282819e-21
2.078388716e-21
3.69464286e-21
2.356799704e-21
3.216413747e-21
2.499321369e-21
2.743204194e-21
2.540334608e-21
2.300295486e-21
2.509356614e-21
1.901147374e-21
2.430059565e-21
1.550940067e-21
2.320500992e-21
1.249545073e-21
2.193908181e-21
9.937581683e-22
2.059624688e-21
7.788475275e-22
1.92401415e-21
5.995532962e-22
1.79123323e-21
4.506859971e-22
1.663850876e-21
3.274507458e-22
1.543323197e-21
2.255946952e-22
1.430346115e-21
1.414470696e-22
1.325110746e-21
7.189852611e-23
1.227484551e-21
1.434990419e-23
1.13713747e-21
-3.335123484e-23
1.053628138e-21
-7.297569467e-23
9.764615691e-22
-1.059737729e-22
9.051267146e-22
-1.335298608e-22
8.391201077e-22
-1.56609651e-22
7.779600634e-22
-1.76000027e-22
7.211945933e-22
-1.923422263e-22
6.684051552e-22
-2.061591222e-22
6.192076565e-22
-2.178775345e-22
5.732516934e-22
-2.278464088e-22
5.302187469e-22
-2.363515744e-22
4.898198503e-22
-2.436276719e-22
4.517930594e-22
-2.498677567e-22
4.159008949e-22
-2.552310261e-22
3.819278337e-22
-2.598490539e-22
3.496778978e-22
-2.638308392e-22
3.189723937e-22
-2.672668952e-22
2.896478521e-22
-2.702325515e-22
2.615541896e-22
-2.727906055e-22
2.345530736e-22
-2.749934511e-22
2.085164471e-22
-2.768847951e-22
1.833251739e-22
-2.785010554e-22
1.588677843e-22
-2.798725061e-22
1.350393243e-22
-2.8102421e-22
1.117403153e-22
-2.819767686e-22
8.887582235e-23
-2.827469116e-22
6.635460938e-23
-2.833479551e-22
4.408835478e-23
-2.837901529e-22
2.199089953e-23
-2.840809628e-22
-2.842252426e-22
5.012269043e-21
-2.714616272e-21
2.082593193e-22
-4.910983309e-21
-1.899851438e-21
-4.376381499e-21
-3.422238173e-21
-3.350314276e-21
-4.084729396e-21
-1.970695115e-21
-4.252333301e-21
-5.932379621e-22
-4.003074501e-21
6.931819772e-22
-3.447841138e-21
1.805351852e-21
-2.680394215e-21
2.694249764e-21
-1.799427637e-21
3.329768511e-21
-9.049337094e-22
3.705236554e-21
-7.906759594e-23
3.841737577e-21
6.254516814e-22
3.781734677e-21
1.185368483e-21
3.577353043e-21
1.600159602e-21
3.279837658e-21
1.883590152e-21
2.932967952e-21
2.056412661e-21
2.570365373e-21
2.141186496e-21
2.215504483e-21
2.159149307e-21
1.883166653e-21
2.128664571e-21
1.581406062e-21
2.064714088e-21
1.313475826e-21
1.97899754e-21
1.07945393e-21
1.880330457e-21
8.774928078e-22
1.775146851e-21
7.047141368e-22
1.667997978e-21
5.57811156e-22
1.561994825e-21
4.334292486e-22
1.459175572e-21
3.283884142e-22
1.360797571e-21
2.397987009e-22
1.267562124e-21
1.651067508e-22
1.179783412e-21
1.021004687e-22
1.09751301e-21
4.889007057e-23
1.02063006e-21
3.877309505e-24
9.489054811e-22
-3.427980389e-23
8.820469245e-22
-6.670244095e-23
8.197297317e-22
-9.432413345e-23
7.616178641e-22
-1.179205175e-22
7.073776973e-22
-1.381352674e-22
6.566867429e-22
-1.555023113e-22
6.092387823e-22
-1.704646414e-22
5.647465279e-22
-1.833900936e-22
5.229426494e-22
-1.945844741e-22
4.835797655e-22
-2.043023983e-22
4.464297901e-22
-2.127562015e-22
4.11282867e-22
-2.201232595e-22
3.779460484e-22
-2.265520122e-22
3.462418418e-22
-2.321669224e-22
3.160067374e-22
-2.370725445e-22
2.870897981e-22
-2.413568474e-22
2.59351344e-22
-2.450939171e-22
2.326617296e-22
-2.483461599e-22
2.069001868e-22
-2.511661088e-22
1.819537233e-22
-2.535979149e-22
1.577160804e-22
-2.556785775e-22
1.340867657e-22
-2.574389508e-22
1.109701723e-22
-2.589045549e-22
8.827477879e-23
-2.600962209e-22
6.591241162e-23
-2.610305978e-22
4.379754491e-23
-2.617205491e-22
2.184661977e-23
-2.62175458e-22
-2.62401452e-22
2.819948131e-21
-2.004712263e-21
7.417747143e-22
-2.832812417e-21
-8.737842147e-22
-2.760825285e-21
-2.042619013e-21
-2.181483034e-21
-2.707272243e-21
-1.306046074e-21
-2.965913362e-21
-3.346022405e-22
-2.890904627e-21
6.181665126e-22
-2.558943226e-21
1.473382767e-21
-2.044875468e-21
2.180173684e-21
-1.423959594e-21
2.708843565e-21
-7.684326861e-22
3.049699522e-21
-1.390704958e-22
3.212364104e-21
4.210700474e-22
3.221581777e-21
8.87853098e-22
3.110556601e-21
1.253289896e-21
2.914386376e-21
1.520987573e-21
2.665254705e-21
1.70155177e-21
2.38978466e-21
1.808848666e-21
2.108190269e-21
1.857388717e-21
1.834608488e-21
1.860734335e-21
1.578041428e-21
1.830692191e-21
1.343497964e-21
1.777036418e-21
1.133088698e-21
1.707551786e-21
9.469554657e-22
1.628243871e-21
7.839991276e-22
1.543616071e-21
6.424150978e-22
1.456953991e-21
5.200665778e-22
1.370585858e-21
4.147309391e-22
1.286105621e-21
3.242524559e-22
1.204555842e-21
2.466290981e-22
1.126573014e-21
1.80054871e-22
1.052500249e-21
1.229334899e-22
9.824729468e-22
7.387452876e-23
9.164828441e-22
3.167966017e-23
8.54425232e-22
-4.675963397e-24
7.961333477e-22
-3.606396874e-23
7.414031142e-22
-6.322274753e-23
6.900106533e-22
-8.677613473e-23
6.417244128e-22
-1.072502971e-22
5.963133301e-22
-1.250886594e-22
5.535521474e-22
-1.40664863e-22
5.132247251e-22
-1.542938564e-22
4.751259623e-22
-1.662412896e-22
4.390627321e-22
-1.76731426e-22
4.048541143e-22
-1.859537938e-22
3.723311382e-22
-1.940687672e-22
3.413362196e-22
-2.012122348e-22
3.117224346e-22
-2.074994805e-22
2.833527284e-22
-2.130283934e-22
2.560991013e-22
-2.178821173e-22
2.298417807e-22
-2.221312448e-22
2.044683807e-22
-2.258356451e-22
1.798730607e-22
-2.29045988e-22
1.559557071e-22
-2.318050091e-22
1.326211616e-22
-2.341485491e-22
1.097785063e-22
-2.361063961e-22
8.73404019e-23
-2.377029613e-22
6.522246031e-23
-2.389578192e-22
4.334263606e-23
-2.398861353e-22
2.162062586e-23
-2.404989976e-22
-2.408036621e-22
1.991847978e-21
-1.243280758e-21
8.137618461e-22
-1.654729441e-21
-2.944419647e-22
-1.652624983e-21
-1.167182053e-21
-1.308747158e-21
-1.73582841e-21
-7.374050343e-22
-2.013144609e-21
-5.729270463e-23
-2.035688373e-21
6.40702702e-22
-1.852152309e-21
1.289838592e-21
-1.516205587e-21
1.844218228e-21
-1.083103637e-21
2.275731932e-21
-6.057681039e-22
2.57235319e-21
-1.298528231e-22
2.736436984e-21
3.100448711e-22
2.781671287e-21
6.916828735e-22
2.728904801e-21
1.004158225e-21
2.601896167e-21
1.245517528e-21
2.423879544e-21
1.419957378e-21
2.215328083e-21
1.535266886e-21
1.99286323e-21
1.600821656e-21
1.769035342e-21
1.626190871e-21
1.552652917e-21
1.620282925e-21
1.349385654e-21
1.590903186e-21
1.162447224e-21
1.544595448e-21
9.932410467e-22
1.486659841e-21
8.419116507e-22
1.421267551e-21
7.077834108e-22
1.351618352e-21
5.89690935e-22
1.280107375e-21
4.862161868e-22
1.208482263e-21
3.958508745e-22
1.137981615e-21
3.171020237e-22
1.069451633e-21
2.485561388e-22
1.003441288e-21
1.889142915e-22
9.402780783e-22
1.370075689e-22
8.801272205e-22
9.17998438e-23
8.230372266e-22
5.238283098e-23
7.689745689e-22
1.796684097e-23
7.17849727e-22
-1.21305314e-23
6.695364909e-22
-3.849636925e-23
6.238860505e-22
-6.163417908e-23
5.807371265e-22
-8.197490222e-23
5.399231539e-22
-9.988691142e-23
5.01277292e-22
-1.15684883e-22
4.646358258e-22
-1.296375556e-22
4.298403643e-22
-1.41974458e-22
3.967391409e-22
-1.528917068e-22
3.651876707e-22
-1.625569758e-22
3.350489739e-22
-1.71113719e-22
3.061935216e-22
-1.786847345e-22
2.784990045e-22
-1.853751567e-22
2.518499737e-22
-1.912749674e-22
2.261373804e-22
-1.964611106e-22
2.012580378e-22
-2.009992778e-22
1.771140396e-22
-2.049454099e-22
1.536121671e-22
-2.083469519e-22
1.306633146e-22
-2.112438872e-22
1.081819411e-22
-2.136695842e-22
8.608554394e-23
-2.156514822e-22
6.429414424e-23
-2.172116476e-22
4.272977372e-23
-2.183672188e-22
2.131596149e-23
-2.191307527e-22
-2.195104808e-22
1.580399295e-21
-6.638504473e-22
8.158663041e-22
-8.90200233e-22
4.943586069e-23
-8.861987264e-22
-5.958399302e-22
-6.634766689e-22
-1.05571608e-21
-2.775354921e-22
-1.315149202e-21
2.021329273e-22