/*--------------------------------*- C++ -*----------------------------------*\
  =========                 |
  \\      /  F ield         | OpenFOAM: The Open Source CFD Toolbox
   \\    /   O peration     | Website:  https://openfoam.org
    \\  /    A nd           | Version:  10
     \\/     M anipulation  |
\*---------------------------------------------------------------------------*/
FoamFile
{
    format      ascii;
    class       volVectorField;
    location    "0.0004";
    object      U;
}
// * * * * * * * * * * * * * * * * * * * * * * * * * * * * * * * * * * * * * //

dimensions      [0 1 -1 0 0 0 0];

internalField   nonuniform List<vector> 
3600
(
(0 2.966881994 -0.2928950436)
(0 2.603161351 -0.4921630308)
(0 2.46613952 -0.4900909759)
(0 4.204708313 -0.2580059132)
(0 3.23075428 0.1087195437)
(0 1.639483294 -0.1227260602)
(0 0.7194400126 0.1232874593)
(0 0.1957427853 0.05341059912)
(0 0.03486687473 -0.04515806226)
(0 8.294183347e-10 -1.811743474e-09)
(0 2.330989062e-09 -1.27934342e-09)
(0 1.071262245e-09 -8.723249372e-10)
(0 5.729585951e-10 -6.00381753e-10)
(0 3.448379973e-10 -4.245443258e-10)
(0 2.270327054e-10 -3.095286996e-10)
(0 1.601429126e-10 -2.323813638e-10)
(0 1.192352073e-10 -1.791596367e-10)
(0 9.268485786e-11 -1.414348644e-10)
(0 7.458872759e-11 -1.140240714e-10)
(0 6.173479114e-11 -9.366072442e-11)
(0 5.227383337e-11 -7.823126606e-11)
(0 4.509020051e-11 -6.633288985e-11)
(0 3.948391611e-11 -5.701214196e-11)
(0 3.500091758e-11 -4.960670524e-11)
(0 3.133792164e-11 -4.36473668e-11)
(0 2.828706137e-11 -3.87957869e-11)
(0 2.570263346e-11 -3.4804032e-11)
(0 2.348043244e-11 -3.14877256e-11)
(0 2.154449014e-11 -2.870792573e-11)
(0 1.983841059e-11 -2.635866564e-11)
(0 1.831964727e-11 -2.435822694e-11)
(0 1.695563824e-11 -2.264293736e-11)
(0 1.57211067e-11 -2.116271258e-11)
(0 1.459614023e-11 -1.987781193e-11)
(0 1.356483267e-11 -1.875644611e-11)
(0 1.261432662e-11 -1.777299422e-11)
(0 1.173411743e-11 -1.690666354e-11)
(0 1.091552341e-11 -1.614047142e-11)
(0 1.015127707e-11 -1.546046229e-11)
(0 9.435218087e-12 -1.485510043e-11)
(0 8.762067729e-12 -1.431479763e-11)
(0 8.127260569e-12 -1.383154526e-11)
(0 7.526813735e-12 -1.339862482e-11)
(0 6.957223971e-12 -1.301037751e-11)
(0 6.415387244e-12 -1.266201923e-11)
(0 5.898534273e-12 -1.23494925e-11)
(0 5.404174538e-12 -1.206934828e-11)
(0 4.930045097e-12 -1.181865044e-11)
(0 4.474066305e-12 -1.159489684e-11)
(0 4.034308668e-12 -1.139595321e-11)
(0 3.608971998e-12 -1.12199981e-11)
(0 3.196372912e-12 -1.106547857e-11)
(0 2.794934214e-12 -1.093107554e-11)
(0 2.403171484e-12 -1.081567664e-11)
(0 2.01967629e-12 -1.071835426e-11)
(0 1.643098719e-12 -1.063834687e-11)
(0 1.272132762e-12 -1.05750431e-11)
(0 9.05507566e-13 -1.052796825e-11)
(0 5.419903356e-13 -1.049677378e-11)
(0 1.804286668e-13 -1.048122879e-11)
(0 2.141945227 -0.04118156661)
(0 1.737968459 -0.1067607446)
(0 1.136809437 -0.2356069219)
(0 0.2670899221 -0.7666026477)
(0 -0.1053002088 0.5517543298)
(0 -0.212735145 1.153616925)
(0 -0.1055197625 0.7613688984)
(0 -0.0319710174 0.2527128772)
(0 0.01321603801 0.04616448473)
(0 6.219707808e-10 9.103142547e-10)
(0 1.525184275e-09 -8.666218821e-11)
(0 1.02745352e-09 -3.009005564e-10)
(0 6.615348751e-10 -3.069672203e-10)
(0 4.351068202e-10 -2.634106833e-10)
(0 2.97656436e-10 -2.154073085e-10)
(0 2.123364327e-10 -1.742936388e-10)
(0 1.575297591e-10 -1.415335976e-10)
(0 1.210254631e-10 -1.160069315e-10)
(0 9.585469824e-11 -9.618597776e-11)
(0 7.793472656e-11 -8.072582227e-11)
(0 6.479902344e-11 -6.857038198e-11)
(0 5.491099044e-11 -5.892313966e-11)
(0 4.728532826e-11 -5.119122186e-11)
(0 4.127329439e-11 -4.493397212e-11)
(0 3.643726943e-11 -3.982248376e-11)
(0 3.247545867e-11 -3.560950233e-11)
(0 2.91755366e-11 -3.210759687e-11)
(0 2.638537272e-11 -2.91734634e-11)
(0 2.399408985e-11 -2.669659238e-11)
(0 2.191957182e-11 -2.459102203e-11)
(0 2.010009648e-11 -2.278931461e-11)
(0 1.84886315e-11 -2.123814613e-11)
(0 1.70488668e-11 -1.989504719e-11)
(0 1.575241105e-11 -1.872595617e-11)
(0 1.457679302e-11 -1.770336266e-11)
(0 1.350402377e-11 -1.680489814e-11)
(0 1.251954543e-11 -1.601226723e-11)
(0 1.16114483e-11 -1.531042842e-11)
(0 1.076988184e-11 -1.468695396e-11)
(0 9.986610804e-12 -1.413152308e-11)
(0 9.254680295e-12 -1.363552129e-11)
(0 8.568160558e-12 -1.319172471e-11)
(0 7.921950434e-12 -1.279405043e-11)
(0 7.311624703e-12 -1.243735679e-11)
(0 6.73331418e-12 -1.211728287e-11)
(0 6.183608949e-12 -1.183012047e-11)
(0 5.659477494e-12 -1.15727119e-11)
(0 5.158198278e-12 -1.134236664e-11)
(0 4.677303642e-12 -1.113679068e-11)
(0 4.21453657e-12 -1.095402559e-11)
(0 3.76781899e-12 -1.07923973e-11)
(0 3.335227899e-12 -1.065047546e-11)
(0 2.914974873e-12 -1.052704264e-11)
(0 2.50538599e-12 -1.042107116e-11)
(0 2.104881516e-12 -1.03317043e-11)
(0 1.711956525e-12 -1.025823998e-11)
(0 1.325163892e-12 -1.020011625e-11)
(0 9.431000008e-13 -1.015689968e-11)
(0 5.643903108e-13 -1.012827929e-11)
(0 1.878517614e-13 -1.011407398e-11)
(0 0.7791702443 0.4322058435)
(0 0.6051884911 0.7146212584)
(0 -0.2249611676 0.7854565895)
(0 -0.9646764006 -0.0171121037)
(0 -0.5890329243 0.6453852077)
(0 -0.7355015936 0.7205941484)
(0 -0.2871317177 0.3917339903)
(0 -0.05987412699 0.08821659712)
(0 0.002356363123 -0.01272403092)
(0 6.13458291e-10 8.666739394e-10)
(0 1.15242337e-09 3.507282368e-10)
(0 8.50957213e-10 6.194551617e-11)
(0 6.104484683e-10 -6.317585387e-11)
(0 4.363979092e-10 -1.067237878e-10)
(0 3.161497498e-10 -1.14396107e-10)
(0 2.340166235e-10 -1.078522269e-10)
(0 1.775219146e-10 -9.667416894e-11)
(0 1.380324776e-10 -8.487320193e-11)
(0 1.098698368e-10 -7.39869641e-11)
(0 8.935038692e-11 -6.448615756e-11)
(0 7.407651598e-11 -5.640125426e-11)
(0 6.246936064e-11 -4.959791298e-11)
(0 5.347308365e-11 -4.38954238e-11)
(0 4.636965568e-11 -3.911528488e-11)
(0 4.066239143e-11 -3.509889032e-11)
(0 3.600194826e-11 -3.171187954e-11)
(0 3.213867239e-11 -2.884309354e-11)
(0 2.889143692e-11 -2.640166189e-11)
(0 2.612693151e-11 -2.431370507e-11)
(0 2.374568837e-11 -2.251924733e-11)
(0 2.167252317e-11 -2.096955724e-11)
(0 1.984990565e-11 -1.962495493e-11)
(0 1.823329666e-11 -1.845303849e-11)
(0 1.678782477e-11 -1.742725785e-11)
(0 1.548589071e-11 -1.652577307e-11)
(0 1.430542205e-11 -1.573054632e-11)
(0 1.322858715e-11 -1.502662214e-11)
(0 1.224083668e-11 -1.440155444e-11)
(0 1.133018241e-11 -1.384494675e-11)
(0 1.048665075e-11 -1.334808172e-11)
(0 9.701866107e-12 -1.290362279e-11)
(0 8.968731428e-12 -1.250537372e-11)
(0 8.281181652e-12 -1.214808399e-11)
(0 7.63399153e-12 -1.182729055e-11)
(0 7.022623565e-12 -1.153918954e-11)
(0 6.44310525e-12 -1.128053284e-11)
(0 5.891928366e-12 -1.104854405e-11)
(0 5.36596631e-12 -1.084084873e-11)
(0 4.862407356e-12 -1.065541503e-11)
(0 4.378702051e-12 -1.049050294e-11)
(0 3.91252213e-12 -1.034462192e-11)
(0 3.461727571e-12 -1.021649704e-11)
(0 3.024338515e-12 -1.010504252e-11)
(0 2.598509831e-12 -1.000934113e-11)
(0 2.18250747e-12 -9.928627127e-12)
(0 1.774686766e-12 -9.862271742e-12)
(0 1.37347306e-12 -9.809770653e-12)
(0 9.773445266e-13 -9.770733731e-12)
(0 5.848160358e-13 -9.744877122e-12)
(0 1.946339762e-13 -9.732015214e-12)
(0 -1.061257216 0.3232611125)
(0 -0.5009080684 0.2341316901)
(0 -0.9787270647 1.469304346)
(0 -1.176577637 -0.3388992188)
(0 -0.3949383092 0.34098326)
(0 -0.2830385409 0.3056202563)
(0 -0.04484413062 0.1560341956)
(0 0.01476272207 0.02469592272)
(0 1.524744747e-10 9.938236364e-10)
(0 7.068842129e-10 1.041472734e-09)
(0 7.114364832e-10 5.510889357e-10)
(0 6.135494297e-10 2.60958185e-10)
(0 4.928655712e-10 9.904206897e-11)
(0 3.83886567e-10 1.40875063e-11)
(0 2.965279969e-10 -2.760107714e-11)
(0 2.300583708e-10 -4.604497895e-11)
(0 1.805087841e-10 -5.24376543e-11)
(0 1.437126679e-10 -5.282472996e-11)
(0 1.162417426e-10 -5.040248558e-11)
(0 9.55204364e-11 -4.683057023e-11)
(0 7.968726802e-11 -4.29505565e-11)
(0 6.74168209e-11 -3.917181192e-11)
(0 5.776795637e-11 -3.567724377e-11)
(0 5.006982786e-11 -3.253283219e-11)
(0 4.384067477e-11 -2.97459027e-11)
(0 3.873125545e-11 -2.729602078e-11)
(0 3.448575424e-11 -2.515122324e-11)
(0 3.091476119e-11 -2.327637959e-11)
(0 2.78765044e-11 -2.163732286e-11)
(0 2.526371965e-11 -2.020271584e-11)
(0 2.299438888e-11 -1.894472558e-11)
(0 2.100515025e-11 -1.783909237e-11)
(0 1.924656388e-11 -1.686490908e-11)
(0 1.767967647e-11 -1.600427919e-11)
(0 1.627350455e-11 -1.524194236e-11)
(0 1.500317471e-11 -1.456491192e-11)
(0 1.384853731e-11 -1.396214426e-11)
(0 1.279312369e-11 -1.342424644e-11)
(0 1.182335455e-11 -1.294322284e-11)
(0 1.092793477e-11 -1.251225888e-11)
(0 1.00973883e-11 -1.212553773e-11)
(0 9.323699351e-12 -1.17780857e-11)
(0 8.600033603e-12 -1.146564214e-11)
(0 7.920519155e-12 -1.118455058e-11)
(0 7.280071886e-12 -1.093166866e-11)
(0 6.67425444e-12 -1.070429381e-11)
(0 6.099161611e-12 -1.050010114e-11)
(0 5.551327298e-12 -1.031709064e-11)
(0 5.027649429e-12 -1.015354152e-11)
(0 4.525329676e-12 -1.000797315e-11)
(0 4.041824895e-12 -9.879112409e-12)
(0 3.5748073e-12 -9.765867341e-12)
(0 3.122130778e-12 -9.667306011e-12)
(0 2.681801385e-12 -9.582639482e-12)
(0 2.251950904e-12 -9.511207623e-12)
(0 1.830812999e-12 -9.452466998e-12)
(0 1.416701903e-12 -9.405980546e-12)
(0 1.007993532e-12 -9.371408938e-12)
(0 6.031088282e-13 -9.348503248e-12)
(0 2.007136693e-13 -9.337097791e-12)
(0 -1.284058796 0.2829343697)
(0 -1.007107304 0.3344893229)
(0 -0.1327575329 1.231598051)
(0 0.1329100315 -0.2416779074)
(0 -0.5086251068 -0.1033534497)
(0 -0.1083770929 0.1557891368)
(0 -0.02902416564 0.1035128719)
(0 -0.007449370343 0.02940062064)
(0 1.401787385e-10 1.152324816e-09)
(0 1.774365163e-10 8.421913379e-10)
(0 3.719088213e-10 5.51162986e-10)
(0 3.989103463e-10 3.317179462e-10)
(0 3.635777896e-10 1.842984367e-10)
(0 3.09754763e-10 9.163281737e-11)
(0 2.560172646e-10 3.594926604e-11)
(0 2.091800464e-10 3.711042126e-12)
(0 1.707421636e-10 -1.420674646e-11)
(0 1.400676464e-10 -2.358558954e-11)
(0 1.158639965e-10 -2.796767923e-11)
(0 9.680231601e-11 -2.94830751e-11)
(0 8.173527429e-11 -2.939858517e-11)
(0 6.974267336e-11 -2.846152903e-11)
(0 6.011206339e-11 -2.710889621e-11)
(0 5.230099675e-11 -2.559288404e-11)
(0 4.589920284e-11 -2.405585698e-11)
(0 4.059662771e-11 -2.257507078e-11)
(0 3.615831358e-11 -2.11893937e-11)
(0 3.24053373e-11 -1.99153051e-11)
(0 2.920059526e-11 -1.875648692e-11)
(0 2.643828565e-11 -1.770956701e-11)
(0 2.403614664e-11 -1.676754011e-11)
(0 2.192972216e-11 -1.592178428e-11)
(0 2.006810984e-11 -1.516322812e-11)
(0 1.841079149e-11 -1.448300548e-11)
(0 1.692525798e-11 -1.387280129e-11)
(0 1.558522014e-11 -1.332501196e-11)
(0 1.436925264e-11 -1.283279672e-11)
(0 1.32597581e-11 -1.239006718e-11)
(0 1.224216997e-11 -1.199144432e-11)
(0 1.130433587e-11 -1.163219982e-11)
(0 1.043603929e-11 -1.130819131e-11)
(0 9.628627011e-12 -1.101579715e-11)
(0 8.874716777e-12 -1.075185484e-11)
(0 8.16796501e-12 -1.051360511e-11)
(0 7.502880334e-12 -1.029864295e-11)
(0 6.874672769e-12 -1.010487458e-11)
(0 6.279131532e-12 -9.930479517e-12)
(0 5.71252593e-12 -9.773876606e-12)
(0 5.171524855e-12 -9.633693738e-12)
(0 4.653131166e-12 -9.508741531e-12)
(0 4.154627934e-12 -9.397991056e-12)
(0 3.673533969e-12 -9.300555389e-12)
(0 3.207566374e-12 -9.21567443e-12)
(0 2.754608218e-12 -9.142702251e-12)
(0 2.312679954e-12 -9.081096398e-12)
(0 1.879913843e-12 -9.030408767e-12)
(0 1.454531121e-12 -8.99027783e-12)
(0 1.034821824e-12 -8.960422042e-12)
(0 6.19127183e-13 -8.940634243e-12)
(0 2.060394343e-13 -8.930776901e-12)
(0 -0.4443811247 0.03599383618)
(0 -0.3509784314 -0.1044260687)
(0 0.0292636783 0.5248956556)
(0 0.2020050271 0.1270872261)
(0 -0.1246736025 0.1355153597)
(0 -0.07388154434 0.06876908511)
(0 -0.02183351639 0.05580612302)
(0 -3.129161655e-10 1.321111733e-09)
(0 2.261897161e-10 7.555362805e-10)
(0 1.264806989e-10 6.437190652e-10)
(0 2.009630917e-10 4.796256531e-10)
(0 2.466848803e-10 3.304521766e-10)
(0 2.527804423e-10 2.148009114e-10)
(0 2.355373964e-10 1.321960481e-10)
(0 2.086062216e-10 7.605427035e-11)
(0 1.799023583e-10 3.91466244e-11)
(0 1.532121524e-10 1.548521109e-11)
(0 1.299517352e-10 6.56787793e-13)
(0 1.10344257e-10 -8.399571148e-12)
(0 9.408953046e-11 -1.373546218e-11)
(0 8.07088141e-11 -1.669917597e-11)
(0 6.970650986e-11 -1.816682059e-11)
(0 6.063660136e-11 -1.870392299e-11)
(0 5.312286709e-11 -1.867394212e-11)
(0 4.685848804e-11 -1.830956243e-11)
(0 4.159771873e-11 -1.7759007e-11)
(0 3.714551992e-11 -1.711597237e-11)
(0 3.334766796e-11 -1.643895612e-11)
(0 3.008224249e-11 -1.576374905e-11)
(0 2.725266646e-11 -1.511152436e-11)
(0 2.47821716e-11 -1.449408568e-11)
(0 2.260946224e-11 -1.391727879e-11)
(0 2.068534269e-11 -1.33832134e-11)
(0 1.89701033e-11 -1.289171042e-11)
(0 1.743149807e-11 -1.244124144e-11)
(0 1.604317927e-11 -1.20295345e-11)
(0 1.478348209e-11 -1.165396106e-11)
(0 1.363447609e-11 -1.131177999e-11)
(0 1.258122191e-11 -1.100028793e-11)
(0 1.161118778e-11 -1.071690766e-11)
(0 1.071379097e-11 -1.045923547e-11)
(0 9.88003582e-12 -1.022506233e-11)
(0 9.10222564e-12 -1.001237942e-11)
(0 8.373731041e-12 -9.819374754e-12)
(0 7.688802425e-12 -9.644424955e-12)
(0 7.042417873e-12 -9.486083791e-12)
(0 6.430159581e-12 -9.34306877e-12)
(0 5.848113078e-12 -9.214246767e-12)
(0 5.292784504e-12 -9.098619805e-12)
(0 4.761032358e-12 -8.995311846e-12)
(0 4.250011037e-12 -8.903557014e-12)
(0 3.757123926e-12 -8.822689292e-12)
(0 3.279983916e-12 -8.752133557e-12)
(0 2.816379418e-12 -8.691397784e-12)
(0 2.364244388e-12 -8.640066312e-12)
(0 1.921631567e-12 -8.59779403e-12)
(0 1.486688629e-12 -8.564301361e-12)
(0 1.057637118e-12 -8.539369894e-12)
(0 6.3275397e-13 -8.522838629e-12)
(0 2.105710127e-13 -8.514600977e-12)
(0 -0.2291391176 0.04451556773)
(0 -0.2900258408 0.03975100404)
(0 -0.1789765695 0.2635484803)
(0 -0.04146560884 0.1407740528)
(0 -0.07760703221 0.09678659052)
(0 -0.04444173911 0.05519747158)
(0 -0.008044529673 0.03231520505)
(0 -2.002819238e-10 9.778096475e-10)
(0 -4.717120209e-10 6.259816036e-10)
(0 -9.84741111e-11 4.985431818e-10)
(0 5.864193274e-11 3.932479471e-10)
(0 1.340856045e-10 2.956641875e-10)
(0 1.65321661e-10 2.122569712e-10)
(0 1.71008122e-10 1.462961803e-10)
(0 1.629678409e-10 9.692513239e-11)
(0 1.486109871e-10 6.133596614e-11)
(0 1.32252327e-10 3.634417324e-11)
(0 1.161828641e-10 1.912709694e-11)
(0 1.014717466e-10 7.448067337e-12)
(0 8.850271118e-11 -3.60026049e-13)
(0 7.730391587e-11 -5.495834727e-12)
(0 6.773792634e-11 -8.802652088e-12)
(0 5.960494186e-11 -1.086602871e-11)
(0 5.269535731e-11 -1.208939367e-11)
(0 4.681413796e-11 -1.274943912e-11)
(0 4.179021777e-11 -1.303541846e-11)
(0 3.747836446e-11 -1.30765281e-11)
(0 3.375756063e-11 -1.29607934e-11)
(0 3.052802702e-11 -1.274802635e-11)
(0 2.770794902e-11 -1.247869597e-11)
(0 2.523039222e-11 -1.218000059e-11)
(0 2.304059444e-11 -1.187003144e-11)
(0 2.10936782e-11 -1.156063409e-11)
(0 1.935276345e-11 -1.125937851e-11)
(0 1.77874339e-11 -1.09709169e-11)
(0 1.637250052e-11 -1.069792093e-11)
(0 1.508700714e-11 -1.044173012e-11)
(0 1.391343122e-11 -1.020280123e-11)
(0 1.28370423e-11 -9.981018951e-12)
(0 1.184538834e-11 -9.775909215e-12)
(0 1.092788462e-11 -9.586784354e-12)
(0 1.007548306e-11 -9.412841422e-12)
(0 9.280404355e-12 -9.253228859e-12)
(0 8.53591947e-12 -9.107091469e-12)
(0 7.836171297e-12 -8.973599966e-12)
(0 7.176028955e-12 -8.851969219e-12)
(0 6.550968556e-12 -8.741468438e-12)
(0 5.956974895e-12 -8.641425973e-12)
(0 5.390459775e-12 -8.551230828e-12)
(0 4.848193957e-12 -8.470332241e-12)
(0 4.327250488e-12 -8.39823809e-12)
(0 3.824957426e-12 -8.334512561e-12)
(0 3.338857882e-12 -8.278773462e-12)
(0 2.866675463e-12 -8.230689488e-12)
(0 2.406283708e-12 -8.189977651e-12)
(0 1.955678793e-12 -8.156400916e-12)
(0 1.512955257e-12 -8.129765962e-12)
(0 1.076284556e-12 -8.109921027e-12)
(0 6.438961014e-13 -8.096753891e-12)
(0 2.142770877e-13 -8.090190231e-12)
(0 -0.1990398196 0.04605784008)
(0 -0.2402911 0.05410060221)
(0 -0.1934151797 0.1372175081)
(0 -0.09350196215 0.1083361947)
(0 -0.05650939199 0.05116388402)
(0 -0.02649553207 0.02928879531)
(0 -2.907014682e-10 3.480956888e-10)
(0 -1.784769674e-10 2.374798998e-11)
(0 -2.302442908e-10 2.951290814e-10)
(0 -1.062529576e-10 3.310880964e-10)
(0 -1.915902603e-12 2.991587519e-10)
(0 6.569390444e-11 2.466996371e-10)
(0 1.034124351e-10 1.922665891e-10)
(0 1.202055575e-10 1.438065589e-10)
(0 1.236460075e-10 1.040141038e-10)
(0 1.193213991e-10 7.292792647e-11)
(0 1.110032832e-10 4.942841556e-11)
(0 1.010556293e-10 3.20593591e-11)
(0 9.085713405e-11 1.94247676e-11)
(0 8.11456284e-11 1.034312213e-11)
(0 7.226618806e-11 3.87851439e-12)
(0 6.433631588e-11 -6.819217516e-13)
(0 5.734985977e-11 -3.868142716e-12)
(0 5.123945668e-11 -6.068162624e-12)
(0 4.591246325e-11 -7.563379842e-12)
(0 4.127062975e-11 -8.55669561e-12)
(0 3.722014498e-11 -9.193922781e-12)
(0 3.367616971e-11 -9.579659116e-12)
(0 3.056433992e-11 -9.788866104e-12)
(0 2.782069223e-11 -9.875233238e-12)
(0 2.539083614e-11 -9.877188881e-12)
(0 2.322882874e-11 -9.822210099e-12)
(0 2.129599562e-11 -9.729910229e-12)
(0 1.955982049e-11 -9.61425038e-12)
(0 1.799295565e-11 -9.485124686e-12)
(0 1.657236605e-11 -9.349499313e-12)
(0 1.527860179e-11 -9.212233498e-12)
(0 1.409518726e-11 -9.076672601e-12)
(0 1.300811393e-11 -8.945076295e-12)
(0 1.200542238e-11 -8.818927275e-12)
(0 1.107685877e-11 -8.699154082e-12)
(0 1.021359132e-11 -8.58629277e-12)
(0 9.407975592e-12 -8.480604891e-12)
(0 8.653359934e-12 -8.382163599e-12)
(0 7.943924676e-12 -8.290915932e-12)
(0 7.274549401e-12 -8.206727331e-12)
(0 6.640702827e-12 -8.129413231e-12)
(0 6.038350688e-12 -8.058761546e-12)
(0 5.463878236e-12 -7.994548747e-12)
(0 4.914025096e-12 -7.936551237e-12)
(0 4.385830717e-12 -7.884553179e-12)
(0 3.876588553e-12 -7.838351682e-12)
(0 3.383806989e-12 -7.797760198e-12)
(0 2.905175228e-12 -7.762610791e-12)
(0 2.438532959e-12 -7.732755711e-12)
(0 1.981843257e-12 -7.708068393e-12)
(0 1.533168518e-12 -7.688443903e-12)
(0 1.090649189e-12 -7.67379887e-12)
(0 6.524847665e-13 -7.664071101e-12)
(0 2.171346735e-13 -7.659219135e-12)
(0 -0.1698472077 0.0563265169)
(0 -0.1777631278 0.05820163874)
(0 -0.1396671203 0.07233231619)
(0 -0.06068203091 0.05643334968)
(0 -0.02676962644 0.002444943421)
(0 -3.760825491e-10 9.360521574e-11)
(0 -3.061478324e-10 1.898927635e-10)
(0 -2.039022104e-10 1.302100739e-10)
(0 -1.643719143e-10 2.007527455e-10)
(0 -9.444444058e-11 2.316123378e-10)
(0 -2.574652653e-11 2.255993075e-10)
(0 2.719344166e-11 1.997090001e-10)
(0 6.242858283e-11 1.663031755e-10)
(0 8.27556367e-11 1.326493541e-10)
(0 9.208920844e-11 1.023967908e-10)
(0 9.40252989e-11 7.693321628e-11)
(0 9.138375963e-11 5.638220238e-11)
(0 8.617921617e-11 4.025715442e-11)
(0 7.975550959e-11 2.784851688e-11)
(0 7.295645797e-11 1.84292279e-11)
(0 6.627887199e-11 1.134869122e-11)
(0 5.999126924e-11 6.064595232e-12)
(0 5.421870099e-11 2.143543039e-12)
(0 4.900012019e-11 -7.517345706e-13)
(0 4.432560497e-11 -2.87922064e-12)
(0 4.015967483e-11 -4.434057264e-12)
(0 3.645540095e-11 -5.562803914e-12)
(0 3.31626173e-11 -6.375052206e-12)
(0 3.02324529e-11 -6.952545892e-12)
(0 2.761962624e-11 -7.356181931e-12)
(0 2.528341535e-11 -7.631309881e-12)
(0 2.318787309e-11 -7.811707336e-12)
(0 2.130163792e-11 -7.922544475e-12)
(0 1.959754899e-11 -7.982586828e-12)
(0 1.805218497e-11 -8.005830097e-12)
(0 1.664539171e-11 -8.002714439e-12)
(0 1.535983386e-11 -7.981027501e-12)
(0 1.418058843e-11 -7.94657609e-12)
(0 1.309478762e-11 -7.903685432e-12)
(0 1.209131055e-11 -7.855570543e-12)
(0 1.116051912e-11 -7.804613523e-12)
(0 1.029403225e-11 -7.75257178e-12)
(0 9.484533525e-12 -7.700734941e-12)
(0 8.72560843e-12 -7.650042937e-12)
(0 8.011607564e-12 -7.601174515e-12)
(0 7.337531656e-12 -7.554613491e-12)
(0 6.698934341e-12 -7.51069859e-12)
(0 6.091839378e-12 -7.469661241e-12)
(0 5.512670084e-12 -7.431654304e-12)
(0 4.958189526e-12 -7.396773742e-12)
(0 4.425450043e-12 -7.365074769e-12)
(0 3.911750407e-12 -7.336583845e-12)
(0 3.414598774e-12 -7.311307723e-12)
(0 2.93167995e-12 -7.289240443e-12)
(0 2.460826105e-12 -7.270368789e-12)
(0 1.999990602e-12 -7.254676418e-12)
(0 1.54722478e-12 -7.242146768e-12)
(0 1.100657358e-12 -7.232764935e-12)
(0 6.584758377e-13 -7.226518792e-12)
(0 2.191290554e-13 -7.223399684e-12)
(0 -0.1132895544 0.05253713842)
(0 -0.0906501189 0.0341987583)
(0 -0.05950449709 0.0003575945118)
(0 -2.691076843e-10 -7.415678581e-11)
(0 -3.223019988e-10 -1.005391246e-10)
(0 -2.014615812e-10 -4.584694513e-11)
(0 -2.070750447e-10 7.283595363e-11)
(0 -1.676169853e-10 1.066101048e-10)
(0 -1.288420269e-10 1.459925837e-10)
(0 -8.140639561e-11 1.690091802e-10)
(0 -3.381924031e-11 1.719171185e-10)
(0 6.397772404e-12 1.602338643e-10)
(0 3.635278909e-11 1.405877484e-10)
(0 5.629917286e-11 1.18090885e-10)
(0 6.792986966e-11 9.599048577e-11)
(0 7.330681069e-11 7.602594393e-11)
(0 7.432722133e-11 5.891002029e-11)
(0 7.252194377e-11 4.473853328e-11)
(0 6.902920753e-11 3.328291101e-11)
(0 6.464580275e-11 2.417657796e-11)
(0 5.990155539e-11 1.702242707e-11)
(0 5.51311677e-11 1.144806799e-11)
(0 5.053352997e-11 7.129452244e-12)
(0 4.6216693e-11 3.796900639e-12)
(0 4.223014056e-11 1.232290605e-12)
(0 3.858704648e-11 -7.375057285e-13)
(0 3.527915004e-11 -2.248181362e-12)
(0 3.228642773e-11 -3.405199857e-12)
(0 2.95832102e-11 -4.290083612e-12)
(0 2.714192824e-11 -4.965637693e-12)
(0 2.493531073e-11 -5.480159462e-12)
(0 2.293759414e-11 -5.870763608e-12)
(0 2.112511612e-11 -6.165973234e-12)
(0 1.947653487e-11 -6.38772171e-12)
(0 1.797282804e-11 -6.552891887e-12)
(0 1.659716864e-11 -6.674496533e-12)
(0 1.533474014e-11 -6.762581661e-12)
(0 1.417252933e-11 -6.824916263e-12)
(0 1.309911947e-11 -6.867518314e-12)
(0 1.210449429e-11 -6.895056482e-12)
(0 1.117985753e-11 -6.911158036e-12)
(0 1.03174699e-11 -6.918645709e-12)
(0 9.510504435e-12 -6.919720008e-12)
(0 8.75292036e-12 -6.916099277e-12)
(0 8.039354122e-12 -6.909127195e-12)
(0 7.365025326e-12 -6.899855572e-12)
(0 6.725655076e-12 -6.889108556e-12)
(0 6.117394974e-12 -6.877532696e-12)
(0 5.536765735e-12 -6.865635905e-12)
(0 4.980604631e-12 -6.853817565e-12)
(0 4.446020614e-12 -6.84239167e-12)
(0 3.9303556e-12 -6.831604719e-12)
(0 3.431150392e-12 -6.821649781e-12)
(0 2.946114162e-12 -6.812677703e-12)
(0 2.473096983e-12 -6.804806025e-12)
(0 2.010065278e-12 -6.798125858e-12)
(0 1.555080002e-12 -6.79270699e-12)
(0 1.106277165e-12 -6.7886015e-12)
(0 6.618500185e-13 -6.785846278e-12)
(0 2.20253783e-13 -6.784464774e-12)
(0 -0.03368460547 0.01551844591)
(0 0.0008898298967 -0.0007516191942)
(0 -3.645920682e-11 -1.346481375e-10)
(0 -1.321314661e-10 -2.030429412e-10)
(0 -1.787542593e-10 -4.265162576e-11)
(0 -1.632104225e-10 -1.585016753e-11)
(0 -1.536907824e-10 3.968303684e-11)
(0 -1.307455803e-10 7.745650303e-11)
(0 -1.019728389e-10 1.075982834e-10)
(0 -6.851990578e-11 1.265146598e-10)
(0 -3.452184242e-11 1.328261056e-10)
(0 -4.135928426e-12 1.287215803e-10)
(0 2.028560354e-11 1.177230626e-10)
(0 3.815837405e-11 1.031359481e-10)
(0 5.002426733e-11 8.744832121e-11)
(0 5.694483342e-11 7.227004999e-11)
(0 6.009634898e-11 5.849339473e-11)
(0 6.055210689e-11 4.650403939e-11)
(0 5.919355426e-11 3.636801072e-11)
(0 5.669597403e-11 2.797174408e-11)
(0 5.355036202e-11 2.111636977e-11)
(0 5.009829441e-11 1.557579426e-11)
(0 4.656753364e-11 1.11292938e-11)
(0 4.310295855e-11 7.577592983e-12)
(0 3.97911986e-11 4.748989185e-12)
(0 3.667920287e-11 2.499926225e-12)
(0 3.378770682e-11 7.127837588e-13)
(0 3.112071505e-11 -7.07483087e-13)
(0 2.867201506e-11 -1.83695085e-12)
(0 2.642955039e-11 -2.736124677e-12)
(0 2.437828944e-11 -3.45292612e-12)
(0 2.250205932e-11 -4.025215197e-12)
(0 2.078467981e-11 -4.482864177e-12)
(0 1.921063034e-11 -4.849434245e-12)
(0 1.776541015e-11 -5.143516211e-12)
(0 1.643570194e-11 -5.379794058e-12)
(0 1.520941413e-11 -5.569883144e-12)
(0 1.407565177e-11 -5.722987627e-12)
(0 1.30246474e-11 -5.846414989e-12)
(0 1.204767083e-11 -5.945978984e-12)
(0 1.113692989e-11 -6.026315781e-12)
(0 1.028547028e-11 -6.091132109e-12)
(0 9.487079958e-12 -6.143399706e-12)
(0 8.736201243e-12 -6.185507447e-12)
(0 8.027851269e-12 -6.219380523e-12)
(0 7.357550295e-12 -6.246574283e-12)
(0 6.721257217e-12 -6.268348534e-12)
(0 6.115312029e-12 -6.285726444e-12)
(0 5.536385216e-12 -6.29954105e-12)
(0 4.981433761e-12 -6.310471762e-12)
(0 4.447662889e-12 -6.319073048e-12)
(0 3.932492296e-12 -6.325797169e-12)
(0 3.43352579e-12 -6.331012438e-12)
(0 2.948523706e-12 -6.335017978e-12)
(0 2.47537795e-12 -6.338055513e-12)
(0 2.012089637e-12 -6.340318566e-12)
(0 1.556749139e-12 -6.341959414e-12)
(0 1.107518069e-12 -6.34309425e-12)
(0 6.626125648e-13 -6.343806938e-12)
(0 2.205105609e-13 -6.344151727e-12)
(0 1.449829087e-10 -6.720232196e-11)
(0 1.028937394e-10 -9.749962436e-11)
(0 -6.524624707e-11 -1.34557423e-10)
(0 -9.175224218e-11 -1.1888672e-10)
(0 -1.161882838e-10 -5.564685309e-11)
(0 -1.191269186e-10 -1.520213645e-11)
(0 -1.137683741e-10 2.419294247e-11)
(0 -9.970173882e-11 5.593456797e-11)
(0 -7.978387012e-11 8.04293664e-11)
(0 -5.617857337e-11 9.662505338e-11)
(0 -3.161231988e-11 1.041510537e-10)
(0 -8.705270593e-12 1.041032823e-10)
(0 1.076715692e-11 9.844696903e-11)
(0 2.602443147e-11 8.928151965e-11)
(0 3.706397157e-11 7.839679662e-11)
(0 4.43518842e-11 6.711253317e-11)
(0 4.856121073e-11 5.628946074e-11)
(0 5.039655977e-11 4.641621231e-11)
(0 5.049691222e-11 3.771334541e-11)
(0 4.939416179e-11 3.022601607e-11)
(0 4.750560557e-11 2.389551016e-11)
(0 4.514409173e-11 1.860944064e-11)
(0 4.253532869e-11 1.423433203e-11)
(0 3.983638839e-11 1.063518697e-11)
(0 3.71524738e-11 7.686146571e-12)
(0 3.455084105e-11 5.275436665e-12)
(0 3.207174073e-11 3.306871736e-12)
(0 2.973669312e-11 1.699433808e-12)
(0 2.755456861e-11 3.858881095e-13)
(0 2.552595297e-11 -6.889843008e-13)
(0 2.364622021e-11 -1.57020692e-12)
(0 2.190765608e-11 -2.294309516e-12)
(0 2.030089708e-11 -2.890835535e-12)
(0 1.881588284e-11 -3.383633915e-12)
(0 1.744246822e-11 -3.791941816e-12)
(0 1.617080171e-11 -4.1312775e-12)
(0 1.499154657e-11 -4.414167793e-12)
(0 1.389599748e-11 -4.650736014e-12)
(0 1.287612812e-11 -4.849175166e-12)
(0 1.19245935e-11 -5.016128164e-12)
(0 1.10347044e-11 -5.156992893e-12)
(0 1.020038597e-11 -5.276166287e-12)
(0 9.416129097e-12 -5.377239027e-12)
(0 8.676939543e-12 -5.46315069e-12)
(0 7.978287286e-12 -5.536313699e-12)
(0 7.316057315e-12 -5.598712804e-12)
(0 6.686502915e-12 -5.651985092e-12)
(0 6.086202458e-12 -5.697484229e-12)
(0 5.512020417e-12 -5.736331766e-12)
(0 4.961072633e-12 -5.769458024e-12)
(0 4.430695207e-12 -5.797634791e-12)
(0 3.91841621e-12 -5.821501748e-12)
(0 3.421929582e-12 -5.841587987e-12)
(0 2.939071086e-12 -5.858329502e-12)
(0 2.467796396e-12 -5.872083232e-12)
(0 2.006161376e-12 -5.883138072e-12)
(0 1.552304317e-12 -5.891723358e-12)
(0 1.104429642e-12 -5.898015307e-12)
(0 6.607925432e-13 -5.902141862e-12)
(0 2.199089954e-13 -5.904186227e-12)
(0 8.795052756e-11 -4.197536968e-11)
(0 5.221189229e-11 -1.461562779e-10)
(0 -1.691592121e-11 -1.086269891e-10)
(0 -5.322089612e-11 -8.223012568e-11)
(0 -7.50696757e-11 -4.60387792e-11)
(0 -8.337062698e-11 -1.354075443e-11)
(0 -8.255407803e-11 1.635628338e-11)
(0 -7.45091564e-11 4.165943977e-11)
(0 -6.128235353e-11 6.155954367e-11)
(0 -4.479821852e-11 7.540512294e-11)
(0 -2.704361347e-11 8.304976642e-11)
(0 -9.840013052e-12 8.509352001e-11)
(0 5.463840856e-12 8.26800052e-11)
(0 1.810820164e-11 7.714635862e-11)
(0 2.785528085e-11 6.974480518e-11)
(0 3.483749754e-11 6.149381699e-11)
(0 3.940002812e-11 5.313569567e-11)
(0 4.197599157e-11 4.515799968e-11)
(0 4.300335803e-11 3.784314027e-11)
(0 4.287813878e-11 3.132346129e-11)
(0 4.193378659e-11 2.563020899e-11)
(0 4.043711628e-11 2.073212098e-11)
(0 3.859327997e-11 1.656340335e-11)
(0 3.655477308e-11 1.304267433e-11)
(0 3.44314483e-11 1.008497153e-11)
(0 3.229992803e-11 7.608799944e-12)
(0 3.021170397e-11 5.539831094e-12)
(0 2.819973143e-11 3.812457706e-12)
(0 2.628359695e-11 2.370052769e-12)
(0 2.447345536e-11 1.164503729e-12)
(0 2.277296422e-11 1.553883573e-13)
(0 2.11814307e-11 -6.909838516e-13)
(0 1.969535541e-11 -1.402535768e-12)
(0 1.830952406e-11 -2.002323018e-12)
(0 1.701776656e-11 -2.509337845e-12)
(0 1.581347596e-11 -2.939205445e-12)
(0 1.468995561e-11 -3.304774936e-12)
(0 1.36406444e-11 -3.616614335e-12)
(0 1.265925525e-11 -3.88342176e-12)
(0 1.17398531e-11 -4.112365024e-12)
(0 1.087689177e-11 -4.309360484e-12)
(0 1.006522415e-11 -4.479300702e-12)
(0 9.300095556e-12 -4.626239582e-12)
(0 8.577126571e-12 -4.753542855e-12)
(0 7.892289154e-12 -4.864010662e-12)
(0 7.241878902e-12 -4.959977616e-12)
(0 6.622485792e-12 -5.043394398e-12)
(0 6.030965355e-12 -5.115893989e-12)
(0 5.464411421e-12 -5.178845226e-12)
(0 4.920130737e-12 -5.23339611e-12)
(0 4.395619164e-12 -5.280509039e-12)
(0 3.8885391e-12 -5.320989703e-12)
(0 3.396698036e-12 -5.355510836e-12)
(0 2.918028461e-12 -5.384631608e-12)
(0 2.45056938e-12 -5.408813235e-12)
(0 1.992449511e-12 -5.428431325e-12)
(0 1.541871904e-12 -5.44378553e-12)
(0 1.097099565e-12 -5.45510702e-12)
(0 6.564416468e-13 -5.462564207e-12)
(0 2.184661977e-13 -5.466266946e-12)
(0 6.349799053e-11 -4.721627378e-11)
(0 3.561722846e-11 -7.742709311e-11)
(0 -1.320095012e-12 -7.137206783e-11)
(0 -2.916403228e-11 -5.531797309e-11)
(0 -4.749891257e-11 -3.27674119e-11)
(0 -5.673185606e-11 -9.278402026e-12)
(0 -5.856817989e-11 1.31134849e-11)
(0 -5.449847853e-11 3.278734618e-11)
(0 -4.603818695e-11 4.874423448e-11)
(0 -3.468835063e-11 6.038612075e-11)
(0 -2.19239228e-11 6.754936076e-11)
(0 -9.075031819e-12 7.054101681e-11)
(0 2.819995517e-12 7.003316454e-11)
(0 1.308923146e-11 6.687909643e-11)
(0 2.141142994e-11 6.194224034e-11)
(0 2.774277469e-11 5.598222657e-11)
(0 3.222539343e-11 4.960150034e-11)
(0 3.510400436e-11 4.323694751e-11)
(0 3.666237383e-11 3.717775141e-11)
(0 3.718123052e-11 3.159447491e-11)
(0 3.691426527e-11 2.65697379e-11)
(0 3.607728609e-11 2.212542627e-11)
(0 3.484588204e-11 1.824448274e-11)
(0 3.335795657e-11 1.488713264e-11)
(0 3.171859941e-11 1.200226254e-11)
(0 3.000570061e-11 9.534958265e-12)
(0 2.827539849e-11 7.431193533e-12)
(0 2.656691479e-11 5.640511569e-12)
(0 2.490661463e-11 4.11735849e-12)
(0 2.331128856e-11 2.821553397e-12)
(0 2.179073263e-11 1.718235604e-12)