/*--------------------------------*- C++ -*----------------------------------*\
  =========                 |
  \\      /  F ield         | OpenFOAM: The Open Source CFD Toolbox
   \\    /   O peration     | Website:  https://openfoam.org
    \\  /    A nd           | Version:  6
     \\/     M anipulation  |
\*---------------------------------------------------------------------------*/
FoamFile
{
    version     2.0;
    format      ascii;
    class       volVectorField;
    location    "0.0059";
    object      gradT;
}
// * * * * * * * * * * * * * * * * * * * * * * * * * * * * * * * * * * * * * //

dimensions      [0 -1 0 1 0 0 0];

internalField   nonuniform List<vector> 
600
(
(0 8.576208505e-08 -1.907920519e-05)
(0 2.477571383e-07 -1.872853383e-05)
(0 3.89741031e-07 -1.80605422e-05)
(0 4.974200933e-07 -1.713812333e-05)
(0 5.717472423e-07 -1.60336985e-05)
(0 6.127224521e-07 -1.481682956e-05)
(0 6.260632209e-07 -1.355136235e-05)
(0 6.174870216e-07 -1.228780115e-05)
(0 5.965229471e-07 -1.105854441e-05)
(0 5.631710252e-07 -9.889321319e-06)
(0 5.221958146e-07 -8.797284234e-06)
(0 4.812205883e-07 -7.790056059e-06)
(0 4.392924579e-07 -6.868590101e-06)
(0 3.964114213e-07 -6.03383923e-06)
(0 3.57342021e-07 -5.280085703e-06)
(0 3.211313629e-07 -4.605423967e-06)
(0 2.849207091e-07 -4.001277784e-06)
(0 2.534746069e-07 -3.460976588e-06)
(0 2.258401573e-07 -2.98452056e-06)
(0 2.010644469e-07 -2.560474733e-06)
(0 1.781945545e-07 -2.183121521e-06)
(0 1.581834013e-07 -1.848649389e-06)
(0 1.410309864e-07 -1.550387939e-06)
(0 1.276902155e-07 -1.282619628e-06)
(0 1.153023588e-07 -1.041532877e-06)
(0 1.038674157e-07 -8.242689409e-07)
(0 9.719702973e-08 -6.222515727e-07)
(0 9.243246944e-08 -4.345278976e-07)
(0 8.671499841e-08 -2.582391711e-07)
(0 8.576208505e-08 -8.576208505e-08)
(0 2.668153797e-07 -1.957757849e-05)
(0 7.690000524e-07 -1.918879065e-05)
(0 1.201622121e-06 -1.845885972e-05)
(0 1.531329697e-06 -1.745925495e-05)
(0 1.748593675e-06 -1.627669132e-05)
(0 1.869613482e-06 -1.499311852e-05)
(0 1.903918317e-06 -1.367142947e-05)
(0 1.874378071e-06 -1.236117556e-05)
(0 1.801956725e-06 -1.110047271e-05)
(0 1.697136397e-06 -9.911238444e-06)
(0 1.5770695e-06 -8.803001839e-06)
(0 1.447473435e-06 -7.785291615e-06)
(0 1.317877393e-06 -6.859061083e-06)
(0 1.191140106e-06 -6.020498551e-06)
(0 1.071073167e-06 -5.265792101e-06)
(0 9.60535367e-07 -4.590177443e-06)
(0 8.557150521e-07 -3.987937075e-06)
(0 7.623296563e-07 -3.452400431e-06)
(0 6.775204821e-07 -2.97308566e-06)
(0 6.003346134e-07 -2.550945651e-06)
(0 5.345836715e-07 -2.174545345e-06)
(0 4.745502111e-07 -1.839120296e-06)
(0 4.230929656e-07 -1.542764665e-06)
(0 3.811648282e-07 -1.276902174e-06)
(0 3.440012574e-07 -1.036768333e-06)
(0 3.14460988e-07 -8.195043929e-07)
(0 2.915910936e-07 -6.203457578e-07)
(0 2.744386763e-07 -4.3262208e-07)
(0 2.610979112e-07 -2.553804387e-07)
(0 2.57286259e-07 -8.38562622e-08)
(0 4.774089401e-07 -2.06133936e-05)
(0 1.367428821e-06 -2.013979661e-05)
(0 2.120229325e-06 -1.926692886e-05)
(0 2.677682878e-06 -1.810151742e-05)
(0 3.036930768e-06 -1.675791167e-05)
(0 3.218936926e-06 -1.533140207e-05)
(0 3.257053408e-06 -1.389726943e-05)
(0 3.1893967e-06 -1.250220636e-05)
(0 3.047412756e-06 -1.117956424e-05)
(0 2.860641993e-06 -9.94554313e-06)
(0 2.647189732e-06 -8.810625003e-06)
(0 2.425161183e-06 -7.77671529e-06)
(0 2.205038498e-06 -6.839049827e-06)
(0 1.988727491e-06 -5.994769835e-06)
(0 1.787663017e-06 -5.239110485e-06)
(0 1.597080606e-06 -4.563495837e-06)
(0 1.426509369e-06 -3.962208389e-06)
(0 1.268325947e-06 -3.427624666e-06)
(0 1.125389138e-06 -2.95212155e-06)
(0 9.996047619e-07 -2.530934459e-06)
(0 8.881140363e-07 -2.158345807e-06)
(0 7.909170066e-07 -1.826732412e-06)
(0 7.0420202e-07 -1.531329697e-06)
(0 6.327336053e-07 -1.267373035e-06)
(0 5.736530578e-07 -1.029145021e-06)
(0 5.212429025e-07 -8.128339961e-07)
(0 4.840793245e-07 -6.155811883e-07)
(0 4.564448749e-07 -4.297633373e-07)
(0 4.354808162e-07 -2.534746107e-07)
(0 4.259516891e-07 -8.385626094e-08)
(0 7.413655797e-07 -2.226955475e-05)
(0 2.115464796e-06 -2.164063312e-05)
(0 3.238948079e-06 -2.051143201e-05)
(0 4.04130003e-06 -1.906109986e-05)
(0 4.518709038e-06 -1.745258457e-05)
(0 4.728349623e-06 -1.580690519e-05)
(0 4.734067095e-06 -1.420124837e-05)
(0 4.593036179e-06 -1.268230675e-05)
(0 4.356713921e-06 -1.127294962e-05)
(0 4.067028656e-06 -9.981753788e-06)
(0 3.747803173e-06 -8.809672091e-06)
(0 3.419048457e-06 -7.74908084e-06)
(0 3.097917094e-06 -6.800933345e-06)
(0 2.791079454e-06 -5.953794616e-06)
(0 2.503299971e-06 -5.19527653e-06)
(0 2.237437508e-06 -4.519661882e-06)
(0 1.991586227e-06 -3.92123317e-06)
(0 1.772416424e-06 -3.389508184e-06)
(0 1.572304893e-06 -2.91972254e-06)
(0 1.394110359e-06 -2.502347097e-06)
(0 1.239738585e-06 -2.132617182e-06)
(0 1.102519249e-06 -1.804815434e-06)
(0 9.824523446e-07 -1.512271456e-06)
(0 8.82396564e-07 -1.250220618e-06)
(0 7.98540303e-07 -1.017710076e-06)
(0 7.280248218e-07 -8.033048754e-07)
(0 6.765675599e-07 -6.060520677e-07)
(0 6.336865173e-07 -4.24045865e-07)
(0 6.079579009e-07 -2.525216987e-07)
(0 5.94617123e-07 -8.385626094e-08)
(0 1.10918965e-06 -2.470900999e-05)
(0 3.125551638e-06 -2.379230893e-05)
(0 4.697856507e-06 -2.222572113e-05)
(0 5.737483576e-06 -2.032180281e-05)
(0 6.292078495e-06 -1.832164065e-05)
(0 6.469320046e-06 -1.637007646e-05)
(0 6.382605048e-06 -1.454143819e-05)
(0 6.116742672e-06 -1.286621897e-05)
(0 5.748918521e-06 -1.135204149e-05)
(0 5.32487265e-06 -9.994141795e-06)
(0 4.878909874e-06 -8.781084861e-06)
(0 4.432946952e-06 -7.700482441e-06)
(0 4.002230696e-06 -6.738994162e-06)
(0 3.595337296e-06 -5.884232123e-06)
(0 3.218936974e-06 -5.127619851e-06)
(0 2.871124068e-06 -4.457722665e-06)
(0 2.555710211e-06 -3.864058504e-06)
(0 2.270789464e-06 -3.338050983e-06)
(0 2.014456117e-06 -2.873982804e-06)
(0 1.786710159e-06 -2.460419003e-06)
(0 1.584692773e-06 -2.097359467e-06)
(0 1.410309864e-06 -1.774322275e-06)
(0 1.257843952e-06 -1.487495764e-06)
(0 1.130153716e-06 -1.229256571e-06)
(0 1.020568827e-06 -9.967460257e-07)
(0 9.319480189e-07 -7.890112061e-07)
(0 8.623854237e-07 -5.95570044e-07)
(0 8.099752599e-07 -4.164225748e-07)
(0 7.76623349e-07 -2.47757142e-07)
(0 7.613767443e-07 -8.195043806e-08)
(0 1.661878626e-06 -2.822811384e-05)
(0 4.599706564e-06 -2.675300638e-05)
(0 6.709453787e-06 -2.442885347e-05)
(0 7.942521988e-06 -2.182930938e-05)
(0 8.472341218e-06 -1.928122283e-05)
(0 8.510457573e-06 -1.693991762e-05)
(0 8.236018901e-06 -1.484827566e-05)
(0 7.781479967e-06 -1.300343811e-05)
(0 7.230696682e-06 -1.138253451e-05)
(0 6.637032471e-06 -9.960789723e-06)
(0 6.040509614e-06 -8.71247506e-06)
(0 5.461138994e-06 -7.614720241e-06)
(0 4.913214561e-06 -6.646561592e-06)
(0 4.402453765e-06 -5.792752476e-06)
(0 3.931715144e-06 -5.040904777e-06)
(0 3.500998894e-06 -4.375772162e-06)
(0 3.11125791e-06 -3.789731304e-06)
(0 2.761539139e-06 -3.272300001e-06)
(0 2.450889808e-06 -2.814902214e-06)
(0 2.170733696e-06 -2.41182045e-06)
(0 1.925835265e-06 -2.054478393e-06)
(0 1.712382965e-06 -1.737158678e-06)
(0 1.528470961e-06 -1.455096732e-06)
(0 1.371240449e-06 -1.202575015e-06)
(0 1.238785673e-06 -9.776877696e-07)
(0 1.13205954e-06 -7.71858777e-07)
(0 1.04725035e-06 -5.831821784e-07)
(0 9.824523299e-07 -4.0784636e-07)
(0 9.414771256e-07 -2.401338417e-07)
(0 9.252776065e-07 -8.004461272e-08)
(0 2.587156232e-06 -3.338813262e-05)
(0 6.923859104e-06 -3.072950845e-05)
(0 9.624411767e-06 -2.707223151e-05)
(0 1.088511442e-05 -2.34273429e-05)
(0 1.117956441e-05 -2.017600727e-05)
(0 1.090417266e-05 -1.738969211e-05)
(0 1.031717883e-05 -1.502932895e-05)
(0 9.58248378e-06 -1.302726091e-05)
(0 8.790613718e-06 -1.131964231e-05)
(0 7.995885063e-06 -9.851204836e-06)
(0 7.224979318e-06 -8.580020282e-06)
(0 6.498860223e-06 -7.47559508e-06)
(0 5.823245575e-06 -6.51124808e-06)
(0 5.201946992e-06 -5.665062259e-06)
(0 4.635917153e-06 -4.923696594e-06)
(0 4.122297555e-06 -4.270951836e-06)
(0 3.658229438e-06 -3.696345921e-06)
(0 3.245618463e-06 -3.191302476e-06)
(0 2.874935673e-06 -2.744386722e-06)
(0 2.549039788e-06 -2.35178699e-06)
(0 2.260307397e-06 -2.001115318e-06)
(0 2.007785702e-06 -1.693324724e-06)
(0 1.791474692e-06 -1.418886073e-06)
(0 1.606609727e-06 -1.173987653e-06)
(0 1.453190886e-06 -9.538649682e-07)
(0 1.326453602e-06 -7.528005356e-07)
(0 1.226397816e-06 -5.688884975e-07)
(0 1.153023588e-06 -3.973643274e-07)
(0 1.10442509e-06 -2.344163693e-07)
(0 1.081555184e-06 -7.718587655e-08)
(0 4.325267888e-06 -4.139068869e-05)
(0 1.091560793e-05 -3.588190455e-05)
(0 1.401066617e-05 -2.987379341e-05)
(0 1.484065258e-05 -2.479000751e-05)
(0 1.45090394e-05 -2.074680191e-05)
(0 1.365618288e-05 -1.754692286e-05)
(0 1.260035631e-05 -1.497406027e-05)
(0 1.149116683e-05 -1.287003062e-05)
(0 1.040675272e-05 -1.111667221e-05)
(0 9.376654773e-06 -9.633941032e-06)
(0 8.41516662e-06 -8.366568104e-06)
(0 7.531817005e-06 -7.274530746e-06)
(0 6.723747569e-06 -6.325430323e-06)
(0 5.98809954e-06 -5.499255641e-06)
(0 5.325825562e-06 -4.774089473e-06)
(0 4.729302606e-06 -4.140402946e-06)
(0 4.191860261e-06 -3.581996526e-06)
(0 3.713498338e-06 -3.092199669e-06)
(0 3.289452467e-06 -2.658624676e-06)
(0 2.913052243e-06 -2.27650697e-06)
(0 2.583344623e-06 -1.941081887e-06)
(0 2.297471002e-06 -1.641867497e-06)
(0 2.046855158e-06 -1.374099226e-06)
(0 1.83626156e-06 -1.138729924e-06)
(0 1.660925739e-06 -9.233717962e-07)
(0 1.515130215e-06 -7.299306569e-07)
(0 1.401733656e-06 -5.517360888e-07)
(0 1.318830305e-06 -3.859293885e-07)
(0 1.2616556e-06 -2.277459882e-07)
(0 1.235926955e-06 -7.623296563e-08)
(0 8.101658301e-06 -5.510690421e-05)
(0 1.84417073e-05 -4.172897248e-05)
(0 2.071535519e-05 -3.192541262e-05)
(0 2.001210609e-05 -2.527408646e-05)
(0 1.842264906e-05 -2.062578176e-05)
(0 1.667691389e-05 -1.7206733e-05)
(0 1.49940712e-05 -1.457383699e-05)
(0 1.343987184e-05 -1.247266609e-05)
(0 1.202670306e-05 -1.074408343e-05)
(0 1.074503634e-05 -9.297562932e-06)
(0 9.585342516e-06 -8.0683065e-06)
(0 8.539044935e-06 -7.009621085e-06)
(0 7.60042656e-06 -6.093872599e-06)
(0 6.752334931e-06 -5.295332375e-06)
(0 5.995722657e-06 -4.598753583e-06)
(0 5.314390537e-06 -3.987936955e-06)
(0 4.705479804e-06 -3.451447519e-06)
(0 4.168990246e-06 -2.978803087e-06)
(0 3.689675481e-06 -2.564286343e-06)
(0 3.265629665e-06 -2.196462322e-06)
(0 2.895899739e-06 -1.871519278e-06)
(0 2.574768376e-06 -1.583739837e-06)
(0 2.295565178e-06 -1.328359426e-06)
(0 2.059242953e-06 -1.097754689e-06)
(0 1.859131422e-06 -8.919256845e-07)
(0 1.698089309e-06 -7.051549321e-07)
(0 1.571351981e-06 -5.345836635e-07)
(0 1.477966599e-06 -3.725886139e-07)
(0 1.4131686e-06 -2.210756003e-07)
(0 1.386487042e-06 -7.337422832e-08)
(0 1.77203526e-05 -7.4613014e-05)
(0 3.409519388e-05 -4.420654386e-05)
(0 3.046459843e-05 -3.101252287e-05)
(0 2.614218935e-05 -2.391999843e-05)
(0 2.257639277e-05 -1.941748926e-05)
(0 1.970717423e-05 -1.621189281e-05)
(0 1.733442321e-05 -1.376386174e-05)
(0 1.532092027e-05 -1.180562764e-05)
(0 1.358090262e-05 -1.019139444e-05)
(0 1.205529042e-05 -8.83349476e-06)
(0 1.070310838e-05 -7.674753815e-06)
(0 9.50529776e-06 -6.676101865e-06)
(0 8.437083345e-06 -5.808951894e-06)
(0 7.484171401e-06 -5.055198534e-06)
(0 6.633220823e-06 -4.392924579e-06)
(0 5.87660865e-06 -3.811648225e-06)
(0 5.200041168e-06 -3.300887412e-06)
(0 4.601612319e-06 -2.851112872e-06)
(0 4.072746128e-06 -2.454701457e-06)
(0 3.605819274e-06 -2.104029851e-06)
(0 3.196067036e-06 -1.794333402e-06)
(0 2.838725015e-06 -1.51989473e-06)
(0 2.533793195e-06 -1.274043438e-06)
(0 2.271742342e-06 -1.054873646e-06)
(0 2.053525481e-06 -8.585737626e-07)
(0 1.87342513e-06 -6.784733941e-07)
(0 1.734299942e-06 -5.126666862e-07)
(0 1.630432528e-06 -3.592478452e-07)
(0 1.562775795e-06 -2.115464796e-07)
(0 1.52942385e-06 -6.95625801e-08)
(0 8.576018051e-05 -3.760095739e-05)
(0 6.204410584e-05 -2.970608133e-05)
(0 4.100190057e-05 -2.417919087e-05)
(0 3.160618755e-05 -2.014360826e-05)
(0 2.613266101e-05 -1.705045593e-05)
(0 2.232863563e-05 -1.459098962e-05)
(0 1.940128975e-05 -1.258034515e-05)
(0 1.701233945e-05 -1.089940843e-05)
(0 1.499883599e-05 -9.47671054e-06)
(0 1.326167728e-05 -8.25698309e-06)
(0 1.174178271e-05 -7.201156624e-06)
(0 1.04048469e-05 -6.284455104e-06)
(0 9.222283018e-06 -5.482103141e-06)
(0 8.170268214e-06 -4.776948281e-06)
(0 7.237367175e-06 -4.160414099e-06)
(0 6.405474937e-06 -3.615348395e-06)
(0 5.66792108e-06 -3.134127847e-06)
(0 5.014223315e-06 -2.71103484e-06)
(0 4.4367586e-06 -2.335587485e-06)
(0 3.926950701e-06 -2.004927026e-06)
(0 3.480034881e-06 -1.711430078e-06)
(0 3.094105493e-06 -1.449379259e-06)
(0 2.760586309e-06 -1.216868732e-06)
(0 2.475665559e-06 -1.008180971e-06)
(0 2.236484629e-06 -8.204572926e-07)
(0 2.042090598e-06 -6.479802176e-07)
(0 1.890577548e-06 -4.907497163e-07)
(0 1.779086835e-06 -3.430483454e-07)
(0 1.703806807e-06 -2.02017362e-07)
(0 1.666643211e-06 -6.670384493e-08)
(0 5.864220793e-05 2.378468492e-06)
(0 4.751600748e-05 -1.305680119e-05)
(0 4.002802383e-05 -1.604132155e-05)
(0 3.327092444e-05 -1.557439465e-05)
(0 2.812805849e-05 -1.418790782e-05)
(0 2.41782376e-05 -1.264514298e-05)
(0 2.102600452e-05 -1.117384677e-05)
(0 1.842455488e-05 -9.838817127e-06)
(0 1.622523358e-05 -8.648629821e-06)
(0 1.432798568e-05 -7.595661999e-06)
(0 1.267658927e-05 -6.666572845e-06)
(0 1.122435111e-05 -5.845162552e-06)
(0 9.943637306e-06 -5.119043566e-06)
(0 8.805860443e-06 -4.475827995e-06)
(0 7.796726443e-06 -3.905986518e-06)
(0 6.900989111e-06 -3.403801865e-06)
(0 6.105307635e-06 -2.955933242e-06)
(0 5.400152622e-06 -2.559521783e-06)
(0 4.778853962e-06 -2.208850146e-06)
(0 4.229976681e-06 -1.899153756e-06)
(0 3.750661853e-06 -1.62185632e-06)
(0 3.334239284e-06 -1.376005009e-06)
(0 2.974038572e-06 -1.156835253e-06)
(0 2.669106669e-06 -9.595824405e-07)
(0 2.411820414e-06 -7.80434974e-07)
(0 2.205038531e-06 -6.174870216e-07)
(0 2.0392318e-06 -4.669269075e-07)
(0 1.920117793e-06 -3.258959232e-07)
(0 1.838167384e-06 -1.924882382e-07)
(0 1.79814505e-06 -6.28921957e-08)
(0 4.825546652e-05 -4.44914639e-06)
(0 4.362336167e-05 -9.035512252e-06)
(0 3.84843063e-05 -1.151308346e-05)
(0 3.345960103e-05 -1.205910207e-05)
(0 2.906095941e-05 -1.160932775e-05)
(0 2.534364904e-05 -1.073741305e-05)
(0 2.220761547e-05 -9.730185005e-06)
(0 1.953755618e-05 -8.721051269e-06)
(0 1.724008492e-05 -7.768139082e-06)
(0 1.524373416e-05 -6.890507078e-06)
(0 1.349323492e-05 -6.09387269e-06)
(0 1.195332883e-05 -5.375376909e-06)
(0 1.05916175e-05 -4.730255447e-06)
(0 9.382372245e-06 -4.152790803e-06)
(0 8.308440217e-06 -3.63821823e-06)
(0 7.357433985e-06 -3.177961707e-06)
(0 6.510295265e-06 -2.769162477e-06)
(0 5.760353379e-06 -2.402291294e-06)
(0 5.099032412e-06 -2.077348282e-06)
(0 4.513944478e-06 -1.78575722e-06)
(0 4.003183548e-06 -1.527518026e-06)
(0 3.560079442e-06 -1.295960396e-06)
(0 3.176055931e-06 -1.090131409e-06)
(0 2.851112872e-06 -9.062193654e-07)
(0 2.579532936e-06 -7.366010194e-07)
(0 2.355598638e-06 -5.831821871e-07)
(0 2.182168609e-06 -4.402453699e-07)
(0 2.052572569e-06 -3.087435062e-07)
(0 1.966810513e-06 -1.829591175e-07)
(0 1.922976529e-06 -6.003345954e-08)
(0 4.274763548e-05 -4.069887453e-06)
(0 4.045397673e-05 -7.266907558e-06)
(0 3.700348152e-05 -9.040276812e-06)
(0 3.3172775e-05 -9.667292954e-06)
(0 2.945260671e-05 -9.561519858e-06)
(0 2.605642765e-05 -9.061240878e-06)
(0 2.304236677e-05 -8.378955835e-06)
(0 2.038660114e-05 -7.633778711e-06)
(0 1.8054825e-05 -6.889554269e-06)
(0 1.600415822e-05 -6.17677604e-06)
(0 1.419076677e-05 -5.509737674e-06)
(0 1.258796845e-05 -4.894156394e-06)
(0 1.116527073e-05 -4.331938272e-06)
(0 9.898850736e-06 -3.822130372e-06)
(0 8.77250852e-06 -3.358062136e-06)
(0 7.770045022e-06 -2.944498298e-06)
(0 6.880978164e-06 -2.570956805e-06)
(0 6.09387269e-06 -2.236484629e-06)
(0 5.392529407e-06 -1.936317327e-06)
(0 4.778854105e-06 -1.669501972e-06)
(0 4.240458713e-06 -1.429368106e-06)
(0 3.772578887e-06 -1.214009978e-06)
(0 3.364732571e-06 -1.021521755e-06)
(0 3.022637087e-06 -8.480917427e-07)
(0 2.73390473e-06 -6.908612511e-07)
(0 2.499488398e-06 -5.479244487e-07)
(0 2.314623419e-06 -4.154696627e-07)
(0 2.178356993e-06 -2.896852694e-07)
(0 2.086877466e-06 -1.715241752e-07)
(0 2.041137655e-06 -5.717472423e-08)
(0 3.999276608e-05 -5.653627229e-06)
(0 3.865106649e-05 -7.024867783e-06)
(0 3.608487374e-05 -7.823407981e-06)
(0 3.293931104e-05 -8.101658301e-06)
(0 2.966510566e-05 -8.000649743e-06)
(0 2.652716582e-05 -7.656648371e-06)
(0 2.363507773e-05 -7.175427783e-06)
(0 2.102695775e-05 -6.625597626e-06)
(0 1.869804037e-05 -6.052897381e-06)
(0 1.662355082e-05 -5.484008883e-06)
(0 1.477490165e-05 -4.936084525e-06)
(0 1.313017522e-05 -4.418653204e-06)
(0 1.166554939e-05 -3.935526792e-06)
(0 1.035434256e-05 -3.489564002e-06)
(0 9.187025133e-06 -3.082670502e-06)
(0 8.145492256e-06 -2.709128976e-06)
(0 7.217356021e-06 -2.372751055e-06)
(0 6.394992809e-06 -2.070677898e-06)
(0 5.666015086e-06 -1.797192138e-06)
(0 5.020893699e-06 -1.552293763e-06)
(0 4.459628423e-06 -1.331218142e-06)
(0 3.96697289e-06 -1.134918259e-06)
(0 3.541974166e-06 -9.548178946e-07)
(0 3.181773355e-06 -7.928228307e-07)
(0 2.879700234e-06 -6.479801982e-07)
(0 2.631943139e-06 -5.13619606e-07)
(0 2.439454864e-06 -3.887881189e-07)
(0 2.296518055e-06 -2.734857601e-07)
(0 2.199321059e-06 -1.61995052e-07)
(0 2.152628335e-06 -5.43159872e-08)
(0 3.952202771e-05 -7.780526973e-06)
(0 3.828514843e-05 -7.432714183e-06)
(0 3.59266905e-05 -7.198297704e-06)
(0 3.2995533e-05 -6.992468699e-06)
(0 2.989666343e-05 -6.758052434e-06)
(0 2.688260214e-05 -6.464555418e-06)
(0 2.407341738e-05 -6.110072131e-06)
(0 2.150913135e-05 -5.706990415e-06)
(0 1.919641346e-05 -5.274368254e-06)
(0 1.711906517e-05 -4.830311234e-06)
(0 1.525802814e-05 -4.388160104e-06)
(0 1.358852598e-05 -3.957443787e-06)
(0 1.209435987e-05 -3.546738689e-06)
(0 1.075265985e-05 -3.164621e-06)
(0 9.551037582e-06 -2.80727893e-06)
(0 8.479964426e-06 -2.478524269e-06)
(0 7.519429182e-06 -2.178357003e-06)
(0 6.668478599e-06 -1.905824121e-06)
(0 5.912819335e-06 -1.659972809e-06)
(0 5.244828059e-06 -1.434132672e-06)
(0 4.657834151e-06 -1.234021118e-06)
(0 4.148026199e-06 -1.052014915e-06)
(0 3.707780883e-06 -8.871611416e-07)
(0 3.329474739e-06 -7.375539348e-07)
(0 3.014060847e-06 -6.012875101e-07)
(0 2.757727544e-06 -4.774089494e-07)
(0 2.555710146e-06 -3.62106583e-07)
(0 2.406102953e-06 -2.534746081e-07)
(0 2.304141397e-06 -1.505601078e-07)
(0 2.256495759e-06 -4.955142714e-08)
(0 4.103715794e-05 -9.593918639e-06)
(0 3.9233296e-05 -7.775762541e-06)
(0 3.652416642e-05 -6.603680589e-06)
(0 3.337955661e-05 -5.974758628e-06)
(0 3.019397204e-05 -5.634569106e-06)
(0 2.717419327e-05 -5.394435182e-06)
(0 2.439264296e-05 -5.152395518e-06)
(0 2.186266176e-05 -4.877956918e-06)
(0 1.957567249e-05 -4.564448776e-06)
(0 1.750975914e-05 -4.227117906e-06)
(0 1.564872211e-05 -3.875493414e-06)
(0 1.397064374e-05 -3.522915893e-06)
(0 1.245741938e-05 -3.180820462e-06)
(0 1.10947553e-05 -2.853018756e-06)
(0 9.873121873e-06 -2.542369381e-06)
(0 8.774414266e-06 -2.251731202e-06)
(0 7.791009135e-06 -1.985868767e-06)
(0 6.912424097e-06 -1.741923249e-06)
(0 6.13770659e-06 -1.519894739e-06)
(0 5.446845427e-06 -1.317877401e-06)
(0 4.841746186e-06 -1.134918266e-06)
(0 4.313832904e-06 -9.681586548e-07)
(0 3.856435172e-06 -8.185514734e-07)
(0 3.467646993e-06 -6.813321242e-07)
(0 3.138892332e-06 -5.565006441e-07)
(0 2.87302991e-06 -4.402453792e-07)
(0 2.663389213e-06 -3.335192216e-07)
(0 2.507111635e-06 -2.344163672e-07)
(0 2.403244256e-06 -1.38172251e-07)
(0 2.352739881e-06 -4.478686691e-08)
(0 4.40883823e-05 -1.050204382e-05)
(0 4.12744336e-05 -7.498465116e-06)
(0 3.772960012e-05 -5.502114237e-06)
(0 3.396464457e-05 -4.709291403e-06)
(0 3.047698689e-05 -4.46439307e-06)
(0 2.736382273e-05 -4.375772181e-06)
(0 2.458989572e-05 -4.284292624e-06)
(0 2.20970781e-05 -4.136591316e-06)
(0 1.984820531e-05 -3.932668073e-06)
(0 1.780802059e-05 -3.683958026e-06)
(0 1.596032434e-05 -3.411425227e-06)
(0 1.428415179e-05 -3.12650447e-06)
(0 1.276520996e-05 -2.840630852e-06)
(0 1.139015803e-05 -2.558568921e-06)
(0 1.0153278e-05 -2.290800593e-06)
(0 9.034559245e-06 -2.038278897e-06)
(0 8.030190054e-06 -1.801956733e-06)
(0 7.133499684e-06 -1.585645669e-06)
(0 6.337818114e-06 -1.386487048e-06)
(0 5.629804537e-06 -1.205433775e-06)
(0 5.007552878e-06 -1.038674146e-06)
(0 4.465345915e-06 -8.871611283e-07)
(0 3.992701593e-06 -7.518476269e-07)
(0 3.592478468e-06 -6.270161358e-07)
(0 3.254194686e-06 -5.126666885e-07)
(0 2.979756058e-06 -4.068934559e-07)
(0 2.762492063e-06 -3.096964196e-07)
(0 2.601449925e-06 -2.163110377e-07)
(0 2.4937709e-06 -1.286431301e-07)
(0 2.441360699e-06 -4.288104272e-08)
(0 5.098460688e-05 -2.028178029e-05)
(0 4.423417851e-05 -6.2187042e-06)
(0 3.931333996e-05 -3.213219468e-06)
(0 3.44172778e-05 -2.921628377e-06)
(0 3.052749123e-05 -3.171291385e-06)
(0 2.735429361e-05 -3.405707704e-06)
(0 2.463277676e-05 -3.512433855e-06)
(0 2.221333337e-05 -3.496234402e-06)
(0 2.002735277e-05 -3.389508199e-06)
(0 1.80300491e-05 -3.215125292e-06)
(0 1.620712857e-05 -3.001673035e-06)
(0 1.454239095e-05 -2.77011536e-06)
(0 1.302535495e-05 -2.528075696e-06)
(0 1.164363264e-05 -2.287941891e-06)
(0 1.039341184e-05 -2.057337138e-06)
(0 9.263258139e-06 -1.83626154e-06)
(0 8.243642358e-06 -1.63043256e-06)
(0 7.329799569e-06 -1.436038475e-06)
(0 6.517918493e-06 -1.25784392e-06)
(0 5.793705414e-06 -1.093943062e-06)
(0 5.158112983e-06 -9.46241676e-07)
(0 4.60161234e-06 -8.109281634e-07)
(0 4.117533075e-06 -6.860966938e-07)
(0 3.706827915e-06 -5.736530604e-07)
(0 3.359015013e-06 -4.688327337e-07)
(0 3.076000177e-06 -3.725886212e-07)
(0 2.853971621e-06 -2.820619699e-07)
(0 2.688164922e-06 -1.972527965e-07)
(0 2.577627162e-06 -1.162552731e-07)
(0 2.522358224e-06 -3.906939448e-08)
(0 7.732881382e-05 1.410119269e-05)
(0 5.834299477e-05 6.134847946e-06)
(0 4.102477009e-05 1.780039732e-06)
(0 3.400657275e-05 -6.15581192e-07)
(0 2.999386051e-05 -1.918212009e-06)
(0 2.702268025e-05 -2.593826632e-06)
(0 2.44984162e-05 -2.90257014e-06)
(0 2.222190962e-05 -2.990238095e-06)
(0 2.013026731e-05 -2.943545359e-06)
(0 1.819490291e-05 -2.820619703e-06)
(0 1.64053343e-05 -2.651001396e-06)
(0 1.47577491e-05 -2.455654383e-06)
(0 1.324643057e-05 -2.25077829e-06)
(0 1.186184952e-05 -2.043043491e-06)
(0 1.060305251e-05 -1.841979016e-06)
(0 9.462416774e-06 -1.650443691e-06)
(0 8.43136605e-06 -1.465578773e-06)
(0 7.506088311e-06 -1.295007492e-06)
(0 6.678007729e-06 -1.135871178e-06)
(0 5.942359707e-06 -9.919814713e-07)
(0 5.292473592e-06 -8.557150315e-07)
(0 4.724538003e-06 -7.356481117e-07)
(0 4.229976706e-06 -6.232044978e-07)
(0 3.808789511e-06 -5.221958099e-07)
(0 3.456212048e-06 -4.269046037e-07)
(0 3.164621005e-06 -3.38283787e-07)
(0 2.936874975e-06 -2.582391688e-07)
(0 2.767256628e-06 -1.820062038e-07)
(0 2.65290722e-06 -1.086319767e-07)
(0 2.597638281e-06 -3.621065835e-08)
)
;

boundaryField
{
    lowerWall
    {
        type            calculated;
        value           nonuniform List<vector> 
20
(
(0 8.697043042e-08 -8.576208505e-08)
(0 2.557953836e-07 -8.38562622e-08)
(0 4.246203368e-07 -8.385626094e-08)
(0 5.900346848e-07 -8.385626094e-08)
(0 7.571543354e-07 -8.195043806e-08)
(0 9.225686835e-07 -8.004461272e-08)
(0 1.076045914e-06 -7.718587655e-08)
(0 1.229523144e-06 -7.623296563e-08)
(0 1.381295071e-06 -7.337422832e-08)
(0 1.522835184e-06 -6.95625801e-08)
(0 1.659259388e-06 -6.670384493e-08)
(0 1.788862383e-06 -6.28921957e-08)
(0 1.909938864e-06 -6.003345954e-08)
(0 2.029310043e-06 -5.717472423e-08)
(0 2.140154709e-06 -5.43159872e-08)
(0 2.244178165e-06 -4.955142714e-08)
(0 2.339675109e-06 -4.478686691e-08)
(0 2.426645539e-06 -4.288104272e-08)
(0 2.508500062e-06 -3.906939448e-08)
(0 2.581828072e-06 -3.621065835e-08)
)
;
    }
    atmosphere
    {
        type            calculated;
        value           nonuniform 0();
    }
    rightWall
    {
        type            empty;
    }
    leftWall
    {
        type            empty;
    }
    frontAndBack
    {
        type            calculated;
        value           nonuniform List<vector> 
30
(
(0 8.576208505e-08 -1.895443792e-05)
(0 2.477571383e-07 -1.861337741e-05)
(0 3.89741031e-07 -1.796195184e-05)
(0 4.974200933e-07 -1.705814148e-05)
(0 5.717472423e-07 -1.597186375e-05)
(0 6.127224521e-07 -1.477133075e-05)
(0 6.260632209e-07 -1.351963867e-05)
(0 6.174870216e-07 -1.22696519e-05)
(0 5.965229471e-07 -1.104865527e-05)
(0 5.631710252e-07 -9.88222832e-06)
(0 5.221958146e-07 -8.795950591e-06)
(0 4.812205883e-07 -7.791527384e-06)
(0 4.392924579e-07 -6.872369306e-06)
(0 3.964114213e-07 -6.03506575e-06)
(0 3.57342021e-07 -5.283027323e-06)
(0 3.211313629e-07 -4.60772751e-06)
(0 2.849207091e-07 -4.002345102e-06)
(0 2.534746069e-07 -3.463469494e-06)
(0 2.258401573e-07 -2.98769008e-06)
(0 2.010644469e-07 -2.563069744e-06)
(0 1.781945545e-07 -2.184492576e-06)
(0 1.581834013e-07 -1.850253275e-06)
(0 1.410309864e-07 -1.551825327e-06)
(0 1.276902155e-07 -1.284092826e-06)
(0 1.153023588e-07 -1.041939863e-06)
(0 1.038674157e-07 -8.236611352e-07)
(0 9.719702973e-08 -6.24140736e-07)
(0 9.243246944e-08 -4.365574547e-07)
(0 8.671499841e-08 -2.575006862e-07)
(0 8.576208505e-08 -8.697043042e-08)
)
;
    }
    procBoundary1to0
    {
        type            processor;
        value           nonuniform List<vector> 
20
(
(0 2.95974486e-06 -1.90811111e-05)
(0 9.00216037e-06 -1.95794844e-05)
(0 1.544193994e-05 -2.061529952e-05)
(0 2.260593281e-05 -2.227146068e-05)
(0 3.094200798e-05 -2.471282175e-05)
(0 4.112768453e-05 -2.82309727e-05)
(0 5.429788211e-05 -3.339289733e-05)
(0 7.259093603e-05 -4.139640635e-05)
(0 0.0001001615396 -5.512405687e-05)
(0 0.0001416275079 -0.0001218660176)
(0 9.45517477e-05 -7.062889007e-05)
(0 7.128353959e-05 2.444981765e-05)
(0 5.087216326e-05 6.858108099e-06)
(0 4.253418337e-05 9.967460302e-07)
(0 3.926569436e-05 -3.798307473e-06)
(0 3.898077383e-05 -8.47805864e-06)
(0 4.151361416e-05 -1.234116417e-05)
(0 4.850131827e-05 -1.744686699e-05)
(0 6.600821872e-05 -3.945818278e-05)
(0 8.364662117e-05 4.184903921e-05)
)
;
    }
    procBoundary1to3
    {
        type            processor;
        value           nonuniform List<vector> 
30
(
(0 1.527041577e-05 4.158984688e-05)
(0 3.191207247e-05 1.490545067e-05)
(0 3.256291093e-05 4.817923377e-06)
(0 3.071902609e-05 5.784176207e-07)
(0 2.854829285e-05 -1.319783223e-06)
(0 2.637184127e-05 -2.180262794e-06)
(0 2.423541243e-05 -2.542369377e-06)
(0 2.217140524e-05 -2.649095568e-06)
(0 2.01950653e-05 -2.616696518e-06)
(0 1.832545183e-05 -2.508064543e-06)
(0 1.657114098e-05 -2.358457385e-06)
(0 1.494261402e-05 -2.186933179e-06)
(0 1.343701296e-05 -2.006832799e-06)
(0 1.205338483e-05 -1.824826623e-06)
(0 1.078791744e-05 -1.644726216e-06)
(0 9.637752579e-06 -1.47510787e-06)
(0 8.59812565e-06 -1.314065751e-06)
(0 7.661412966e-06 -1.16064689e-06)
(0 6.819991616e-06 -1.019615905e-06)
(0 6.074814476e-06 -8.909727899e-07)
(0 5.415399239e-06 -7.709058569e-07)
(0 4.83316997e-06 -6.603680579e-07)
(0 4.331938292e-06 -5.622181241e-07)
(0 3.902174887e-06 -4.707385578e-07)
(0 3.541974129e-06 -3.859293845e-07)
(0 3.245618526e-06 -3.087435122e-07)
(0 3.011202111e-06 -2.353692789e-07)
(0 2.837772116e-06 -1.648537865e-07)
(0 2.722469797e-06 -9.81499437e-08)
(0 2.667200857e-06 -3.239901005e-08)
)
;
    }
}


// ************************************************************************* //
