/*--------------------------------*- C++ -*----------------------------------*\
  =========                 |
  \\      /  F ield         | OpenFOAM: The Open Source CFD Toolbox
   \\    /   O peration     | Website:  https://openfoam.org
    \\  /    A nd           | Version:  6
     \\/     M anipulation  |
\*---------------------------------------------------------------------------*/
FoamFile
{
    version     2.0;
    format      ascii;
    class       volScalarField;
    location    "0.0006";
    object      TRHS;
}
// * * * * * * * * * * * * * * * * * * * * * * * * * * * * * * * * * * * * * //

dimensions      [1 -1 -3 0 0 0 0];

internalField   nonuniform List<scalar> 
600
(
5.993374261e-10
7.788026116e-11
-6.028631898e-11
-1.469159428e-10
-2.175169643e-10
-3.209617565e-10
-4.891591736e-10
-7.778882263e-10
-1.255310544e-09
-1.955196689e-09
-2.576002961e-09
-1.666369879e-09
5.002689066e-09
2.218557194e-08
1.589515625e-08
-1.820168757e-08
-3.149894663e-07
21.92721345
18.22874913
0
0
0
0
0
0
0
-0.005972238653
20.34657071
-5.117019958e-05
-2.519401748e-10
6.653494183e-10
7.720226131e-11
-8.302164261e-11
-1.855347975e-10
-2.716258073e-10
-3.947445764e-10
-5.84837046e-10
-8.868579513e-10
-1.362055577e-09
-2.137992835e-09
-3.449641856e-09
-5.801699647e-09
-1.012555104e-08
-1.816279716e-08
-1.95463152e-08
2.73883096e-08
3.010009461e-07
-5.484857519e-05
-4.60463491e-05
441.0458492
132.9583696
126.7899674
66.44120738
117.6990121
105.8928943
360.0707085
-1.792402337e-07
-1.478554082e-07
-1.190277425e-08
7.368587414e-08
6.598402046e-10
6.227682644e-11
-9.519602002e-11
-1.951776822e-10
-2.830388654e-10
-4.107180976e-10
-6.149531549e-10
-9.421210699e-10
-1.491903592e-09
-2.520026467e-09
-4.718828208e-09
-9.783657965e-09
-2.124803767e-08
-4.437909899e-08
-7.52903576e-08
-8.690503821e-08
-5.054175006e-08
8.290935386e-08
6.331049171e-07
-0.002211568946
-0.0006554113317
-0.0006224748264
-0.0003180323844
-0.0005775872143
-0.0005205318966
-0.001805474023
-1.851324067e-07
-2.061199716e-07
-3.111319445e-07
-1.896106181e-07
5.895293799e-10
3.612038073e-11
-9.314683085e-11
-1.757608317e-10
-2.49337573e-10
-3.672057261e-10
-5.633741684e-10
-8.818352286e-10
-1.392549613e-09
-2.240230163e-09
-3.720352824e-09
-6.436179141e-09
-1.154588376e-08
-2.101726853e-08
-2.508916653e-08
1.592256351e-08
2.834355711e-07
-4.404657801e-05
-2.758747944e-05
436.8921333
127.0402084
120.1428564
59.72073683
111.4271103
100.5996502
356.5225472
-2.265665017e-07
-1.645357754e-07
-2.330393449e-08
6.532994129e-08
4.632959954e-10
3.572687756e-12
-7.748226878e-11
-1.269161605e-10
-1.729154749e-10
-2.650839176e-10
-4.428249144e-10
-7.628305549e-10
-1.31110404e-09
-2.166912454e-09
-3.151427243e-09
-3.087918585e-09
1.714927414e-09
1.53731398e-08
3.015418508e-09
-3.956534425e-08
-3.35128982e-07
17.63588928
10.89959331
0
0
0
0
0
0
0
-0.006186229415
17.08496159
-4.295251238e-05
-2.154444654e-10
2.989008171e-10
-3.246203994e-11
-4.983599761e-11
-5.426281674e-11
-5.817005242e-11
-1.060057207e-10
-2.487407669e-10
-6.02794768e-10
-1.444571096e-09
-3.334081883e-09
-7.051916249e-09
-1.266143555e-08
-1.55597633e-08
-7.84375021e-09
6.804285345e-08
-0.0001047038312
41.55317049
0
0
0
0
0
0
0
0
0
0
0
391.8050893
-0.002065114083
1.176008724e-10
-6.872706811e-11
-1.560694379e-11
3.268257466e-11
8.473961932e-11
1.122993103e-10
7.417393249e-11
-1.728299013e-10
-1.083819073e-09
-3.927928768e-09
-1.171677423e-08
-3.024190299e-08
-6.087628772e-08
-3.745270049e-08
2.308039928e-08
-0.0006628300108
106.5547472
0
0
0
0
0
0
0
0
0
0
0
-0.005417580673
-2.511078054e-05
-5.543881024e-11
-1.022954759e-10
1.726788361e-11
1.161257192e-10
2.259721274e-10
3.472783771e-10
4.899799988e-10
6.26391313e-10
5.641270564e-10
-4.062786337e-10
-4.265883825e-09
-1.609067001e-08
-6.93599846e-08
-1.569371952e-07
-2.837227362e-07
156.4892919
0
0
0
0
0
0
0
0
0
0
0
0
0
-0.002528705261
-1.979607715e-10
-1.314929427e-10
3.947423554e-11
1.735798207e-10
3.17714574e-10
4.840795338e-10
6.987841798e-10
9.658949927e-10
1.186086138e-09
9.314601344e-10
-1.015554111e-09
-9.489592739e-09
-9.017919559e-08
-2.056865668e-07
-1.987695986e-07
-0.006212997051
0
0
0
0
0
0
0
0
0
0
0
0
0
0
-2.913601618e-10
-1.535558084e-10
4.637200759e-11
1.954889376e-10
3.438641608e-10
4.951024368e-10
6.308777106e-10
6.180885742e-10
-3.126588139e-11
-2.684412593e-09
-1.040632943e-08
-2.739167782e-08
-3.033802205e-08
-6.124230439e-08
-0.0001753730774
69.5680886
0
0
0
0
0
0
0
0
0
0
0
0
0
0
-3.264295704e-10
-1.669133394e-10
3.83316659e-11
1.863151114e-10
3.302891614e-10
4.763450834e-10
6.097826591e-10
5.977620366e-10
-4.903209797e-11
-2.712937595e-09
-1.046711348e-08
-2.757149919e-08
-3.06936247e-08
-6.21971896e-08
-0.0001753024928
69.53973364
0
0
0
0
0
0
0
0
0
0
0
0
0
0
-3.021968801e-10
-1.711703122e-10
1.572083933e-11
1.47489178e-10
2.791364636e-10
4.322246212e-10
6.401687439e-10
9.122740029e-10
1.140314443e-09
8.706760098e-10
-1.184121086e-09
-9.935904148e-09
-9.123151076e-08
-2.086211687e-07
-2.019387992e-07
-0.006215769986
0
0
0
0
0
0
0
0
0
0
0
0
0
0
-2.287853256e-10
-1.686209412e-10
-2.124907428e-11
7.571025948e-11
1.682789063e-10
2.709159156e-10
4.056022689e-10
5.507969584e-10
5.064242499e-10
-4.736666125e-10
-4.429914347e-09
-1.6581899e-08
-7.122145503e-08
-1.617830381e-07
-2.822460744e-07
156.406716
0
0
0
0
0
0
0
0
0
0
0
0
0
-0.00247837817
-1.224554685e-10
-1.611026788e-10
-6.716980647e-11
-1.77319392e-11
1.553600409e-11
2.243162759e-11
-2.453604533e-11
-2.620734301e-10
-1.154848659e-09
-4.005080663e-09
-1.188890015e-08
-3.072447721e-08
-6.207410392e-08
-3.956803303e-08
2.202686575e-08
-0.0006619623446
106.2901468
0
0
0
0
0
0
0
0
0
0
0
-0.005430656131
-2.640565848e-05
-5.682392253e-12
-1.50492504e-10
-1.123267566e-10
-1.100961883e-10
-1.314504495e-10
-2.001699791e-10
-3.535969277e-10
-7.027011689e-10
-1.534434578e-09
-3.436440347e-09
-7.2502186e-09
-1.314805564e-08
-1.687358598e-08
-1.215708918e-08
5.659020986e-08
-0.0001041958318
41.34922237
0
0
0
0
0
0
0
0
0
0
0
391.1475364
-0.002065608438
9.968837594e-11
-1.389996448e-10
-1.484958733e-10
-1.844341219e-10
-2.441499986e-10
-3.577166579e-10
-5.491344368e-10
-8.739713829e-10
-1.422287161e-09
-2.293742368e-09
-3.326764999e-09
-3.406895017e-09
1.07562863e-09
1.347293044e-08
-4.592098365e-09
-4.814864513e-08
-3.468186445e-07
17.2768163
10.02012392
0
0
0
0
0
0
0
-0.006133422172
18.12055558
-4.555864918e-05
-8.500694533e-11
1.72622492e-10
-1.287062394e-10
-1.716095779e-10
-2.309430641e-10
-3.15347648e-10
-4.532713341e-10
-6.707774376e-10
-1.004660591e-09
-1.536705307e-09
-2.420503018e-09
-3.981227459e-09
-6.886768798e-09
-1.247120094e-08
-2.305103133e-08
-2.940098954e-08
5.274191967e-09
2.641868151e-07
-4.315781104e-05
-2.536528975e-05
435.2302211
128.5608766
122.6369614
62.44464494
113.9959277
102.5664572
357.0164545
-1.90876976e-07
-1.554298639e-07
-2.353895807e-08
8.363630201e-08
2.018206363e-10
-1.231801079e-10
-1.785180225e-10
-2.47463016e-10
-3.399281348e-10
-4.882828969e-10
-7.188983529e-10
-1.076727832e-09
-1.668306523e-09
-2.767114466e-09
-5.104303804e-09
-1.046792262e-08
-2.261134594e-08
-4.715354642e-08
-8.069706847e-08
-9.905256736e-08
-7.025497157e-08
7.50765119e-08
6.047766663e-07
-0.002192621526
-0.0006481286377
-0.0006184153561
-0.0003150798948
-0.000575085263
-0.0005175344094
-0.001799391678
-1.972735311e-07
-2.096909762e-07
-3.23006166e-07
-1.752309244e-07
1.822016878e-10
-1.23595836e-10
-1.684885688e-10
-2.326356432e-10
-3.157044464e-10
-4.581676547e-10
-6.776565274e-10
-1.024228542e-09
-1.563296168e-09
-2.457882621e-09
-4.01774512e-09
-6.951934215e-09
-1.260854647e-08
-2.325155963e-08
-2.971416434e-08
2.527442921e-09
2.629040156e-07
-4.260403745e-05
-2.471090706e-05
435.1811727
128.5486931
122.6854901
62.54606192
114.1376788
102.736998
357.160159
-2.12094963e-07
-1.743953149e-07
9.137096033e-09
7.578131409e-08
1.180584529e-10
-1.244440191e-10
-1.459300741e-10
-1.838083544e-10
-2.482645509e-10
-3.61412056e-10
-5.647000734e-10
-9.040395197e-10
-1.481377431e-09
-2.36872424e-09
-3.432452246e-09
-3.562167878e-09
7.861652158e-10
1.274281413e-08
-8.097059937e-09
-5.277440595e-08
-3.526788471e-07
17.05672269
9.759568854
0
0
0
0
0
0
0
-0.006121988256
18.3328613
-4.610280737e-05
-8.18533442e-11
)
;

boundaryField
{
    lowerWall
    {
        type            calculated;
        value           nonuniform 0();
    }
    atmosphere
    {
        type            calculated;
        value           nonuniform List<scalar> 
20
(
5.993374261e-10
6.653494183e-10
6.598402046e-10
5.895293799e-10
4.632959954e-10
2.989008171e-10
1.176008724e-10
-5.543881024e-11
-1.979607715e-10
-2.913601618e-10
-3.264295704e-10
-3.021968801e-10
-2.287853256e-10
-1.224554685e-10
-5.682392253e-12
9.968837594e-11
1.72622492e-10
2.018206363e-10
1.822016878e-10
1.180584529e-10
)
;
    }
    rightWall
    {
        type            empty;
    }
    leftWall
    {
        type            empty;
    }
    frontAndBack
    {
        type            calculated;
        value           nonuniform 0();
    }
    procBoundary2to0
    {
        type            processor;
        value           nonuniform List<scalar> 
30
(
4.463911796e-10
4.876917119e-11
-4.292598115e-11
-9.046476273e-11
-1.320513003e-10
-1.972612239e-10
-3.375271392e-10
-6.558020411e-10
-1.411399701e-09
-3.08738779e-09
-6.270531934e-09
-1.052212229e-08
-1.032007439e-08
2.809399026e-09
8.852955809e-08
-0.0001164866956
46.23581439
0
0
0
0
0
0
0
0
0
0
0
393.7128196
-0.002066295491
)
;
    }
    procBoundary2to3
    {
        type            processor;
        value           nonuniform List<scalar> 
20
(
-9.828763159e-05
-0.008773702983
-0.007212221876
-0.008774500233
-8.647299967e-05
427.410757
9.95338304
0
0
0
0
0
0
10.46709155
428.2645126
-3.379468263e-05
-0.008695011692
-0.007138562331
-0.008690896168
-2.985053753e-05
)
;
    }
    procBoundary2to4
    {
        type            processor;
        value           nonuniform List<scalar> 
30
(
2.852261293e-11
-1.303204039e-10
-1.067584879e-10
-1.133815029e-10
-1.351556885e-10
-2.06622783e-10
-3.678109109e-10
-7.470353876e-10
-1.620941827e-09
-3.58305816e-09
-7.484832234e-09
-1.361308137e-08
-1.788427121e-08
-1.41670467e-08
5.175616892e-08
-0.0001033150845
40.9977723
0
0
0
0
0
0
0
0
0
0
0
391.0692514
-0.002065449672
)
;
    }
}


// ************************************************************************* //
