/*--------------------------------*- C++ -*----------------------------------*\
  =========                 |
  \\      /  F ield         | OpenFOAM: The Open Source CFD Toolbox
   \\    /   O peration     | Website:  https://openfoam.org
    \\  /    A nd           | Version:  6
     \\/     M anipulation  |
\*---------------------------------------------------------------------------*/
FoamFile
{
    version     2.0;
    format      ascii;
    class       volVectorField;
    location    "0.0025";
    object      gradT;
}
// * * * * * * * * * * * * * * * * * * * * * * * * * * * * * * * * * * * * * //

dimensions      [0 -1 0 1 0 0 0];

internalField   nonuniform List<vector> 
3600
(
(0 -4.002230654e-08 -1.15359534e-05)
(0 -1.200669198e-07 -1.169508974e-05)
(0 -2.020173568e-07 -1.201717399e-05)
(0 -2.83967794e-07 -1.250125332e-05)
(0 -3.687769679e-07 -1.31539981e-05)
(0 -4.545390528e-07 -1.397636119e-05)
(0 -5.422069624e-07 -1.497215429e-05)
(0 -6.298748729e-07 -1.614518906e-05)
(0 -7.184956936e-07 -1.749641834e-05)
(0 -8.004461308e-07 -1.902012473e-05)
(0 -8.78584921e-07 -2.071059075e-05)
(0 -9.452887639e-07 -2.255066391e-05)
(0 -9.910285428e-07 -2.450794528e-05)
(0 -1.012945521e-06 -2.654622421e-05)
(-1.239779192e-25 -1.0034164e-06 -2.860356133e-05)
(1.239779192e-25 -9.471945885e-07 -3.060277083e-05)
(0 -8.395155261e-07 -3.244570278e-05)
(0 -6.832379473e-07 -3.402372512e-05)
(0 -4.716914699e-07 -3.522630014e-05)
(0 -2.201226863e-07 -3.595146627e-05)
(0 5.05043392e-08 -3.613442533e-05)
(0 3.392366935e-07 -3.575421342e-05)
(0 6.374981694e-07 -3.479653685e-05)
(0 9.643470051e-07 -3.322518481e-05)
(0 1.324547764e-06 -3.097345361e-05)
(0 1.724770832e-06 -2.794891077e-05)
(0 2.134523015e-06 -2.408104068e-05)
(0 2.5204524e-06 -1.937556092e-05)
(0 2.838725032e-06 -1.392299814e-05)
(0 1.488448638e-06 -7.903452629e-06)
(0 5.145725103e-08 -7.902499682e-06)
(0 1.477013709e-07 -7.691906232e-06)
(0 2.277459814e-07 -7.292635966e-06)
(0 2.868265289e-07 -6.75233483e-06)
(0 3.211313677e-07 -6.12150714e-06)
(0 3.335192196e-07 -5.443986577e-06)
(0 3.287546594e-07 -4.764560281e-06)
(0 3.10649335e-07 -4.110862672e-06)
(0 2.896852651e-07 -3.502904718e-06)
(0 2.591920793e-07 -2.949262814e-06)
(0 2.277459848e-07 -2.460418966e-06)
(0 1.962998836e-07 -2.033514328e-06)
(0 1.69618346e-07 -1.667596098e-06)
(0 1.429368106e-07 -1.355993876e-06)
(0 1.210198311e-07 -1.095848865e-06)
(0 9.910285384e-08 -8.766790916e-07)
(0 8.099752599e-08 -6.975316356e-07)
(0 6.575093187e-08 -5.498302564e-07)
(0 5.336307514e-08 -4.326220735e-07)
(0 4.383395524e-08 -3.38283785e-07)
(0 3.335192196e-08 -2.610979034e-07)
(0 2.763444963e-08 -2.010644438e-07)
(0 2.096406555e-08 -1.524659313e-07)
(0 1.619950495e-08 -1.143494467e-07)
(0 1.429368084e-08 -8.4809173e-08)
(0 1.048203277e-08 -6.289219665e-08)
(0 7.623296449e-09 -4.288104253e-08)
(0 6.670384393e-09 -2.858736168e-08)
(0 5.717472423e-09 -1.810532934e-08)
(0 5.717472337e-09 -6.670384393e-09)
(0 -1.200669214e-07 -1.146829682e-05)
(0 -3.602007648e-07 -1.162933898e-05)
(0 -6.041462554e-07 -1.194951742e-05)
(0 -8.538092189e-07 -1.243359675e-05)
(0 -1.10633092e-06 -1.308443572e-05)
(0 -1.364570091e-06 -1.390679882e-05)
(0 -1.626620912e-06 -1.490354485e-05)
(0 -1.893436295e-06 -1.607943837e-05)
(0 -2.158345849e-06 -1.743733806e-05)
(0 -2.413726285e-06 -1.897629106e-05)
(0 -2.650048484e-06 -2.0689627e-05)
(0 -2.853971664e-06 -2.256209919e-05)
(0 -3.004531772e-06 -2.457179076e-05)
(0 -3.081717653e-06 -2.667772647e-05)
(0 -3.055036113e-06 -2.882368445e-05)
(0 -2.893993972e-06 -3.092580849e-05)
(0 -2.580485901e-06 -3.288690156e-05)
(0 -2.098312389e-06 -3.458403793e-05)
(0 -1.455096738e-06 -3.588666873e-05)
(0 -6.870496069e-07 -3.668044455e-05)
(0 1.448426354e-07 -3.688913224e-05)
(0 1.001510591e-06 -3.651749653e-05)
(0 1.890577559e-06 -3.55874544e-05)
(0 2.858736224e-06 -3.408090035e-05)
(0 3.950773462e-06 -3.1906355e-05)
(0 5.168595101e-06 -2.893231646e-05)
(0 6.439779801e-06 -2.504252932e-05)
(0 7.637590279e-06 -2.022270005e-05)
(0 8.632430498e-06 -1.456240235e-05)
(0 4.532049827e-06 -8.265559336e-06)
(0 1.61995052e-07 -8.264606387e-06)
(0 4.602565369e-07 -8.025425578e-06)
(0 7.108724045e-07 -7.582321344e-06)
(0 8.862082255e-07 -6.983892564e-06)
(0 9.862640077e-07 -6.294937232e-06)
(0 1.023427564e-06 -5.571676876e-06)
(0 1.005322234e-06 -4.850322438e-06)
(0 9.500533485e-07 -4.167084546e-06)
(0 8.728674565e-07 -3.534350869e-06)
(0 7.832937219e-07 -2.970226924e-06)
(0 6.880025252e-07 -2.470901036e-06)
(0 5.95570044e-07 -2.039231831e-06)
(0 5.079021335e-07 -1.668549035e-06)
(0 4.297633502e-07 -1.355993897e-06)
(0 3.582949385e-07 -1.092990145e-06)
(0 2.992143901e-07 -8.757261927e-07)
(0 2.448984058e-07 -6.956258218e-07)
(0 1.991586227e-07 -5.498302646e-07)
(0 1.591363158e-07 -4.297633438e-07)
(0 1.286431314e-07 -3.354250538e-07)
(0 1.019615915e-07 -2.601449952e-07)
(0 8.195043806e-08 -1.982057106e-07)
(0 6.384510968e-08 -1.515130215e-07)
(0 5.050433973e-08 -1.143494485e-07)
(0 4.002230696e-08 -8.480917427e-08)
(0 3.049318671e-08 -6.098637342e-08)
(0 2.477571383e-08 -4.288104317e-08)
(0 2.096406555e-08 -2.858736211e-08)
(0 1.715241752e-08 -1.619950544e-08)
(0 1.715241727e-08 -4.764560352e-09)
(0 -2.010644447e-07 -1.134155934e-05)
(0 -6.00334599e-07 -1.150069567e-05)
(0 -1.006275136e-06 -1.181896829e-05)
(0 -1.418886058e-06 -1.229923596e-05)
(0 -1.841026103e-06 -1.294626327e-05)
(0 -2.274601088e-06 -1.376576762e-05)
(0 -2.71484646e-06 -1.476346655e-05)
(0 -3.162715133e-06 -1.594603044e-05)
(0 -3.615348357e-06 -1.731727087e-05)
(0 -4.052734993e-06 -1.888195248e-05)
(0 -4.46439301e-06 -2.063721652e-05)
(0 -4.826499586e-06 -2.257829836e-05)
(0 -5.107608644e-06 -2.468423401e-05)
(0 -5.264839139e-06 -2.692357738e-05)
(-1.239779192e-25 -5.251498367e-06 -2.92410595e-05)
(1.239779192e-25 -5.009458704e-06 -3.156044746e-05)
(0 -4.49774493e-06 -3.376548598e-05)
(0 -3.682052201e-06 -3.571514402e-05)
(0 -2.570003827e-06 -3.724552079e-05)
(0 -1.222586175e-06 -3.818890379e-05)
(0 2.144052136e-07 -3.841474389e-05)
(0 1.639008744e-06 -3.803262616e-05)
(0 3.076000136e-06 -3.714832382e-05)
(0 4.645446295e-06 -3.577898913e-05)
(0 6.473131626e-06 -3.380455534e-05)
(0 8.586690589e-06 -3.098774734e-05)
(0 1.084604507e-05 -2.706365543e-05)
(0 1.299962633e-05 -2.201512733e-05)
(0 1.479491267e-05 -1.592125473e-05)
(0 7.787197358e-06 -9.022171388e-06)
(0 2.915910892e-07 -9.021218435e-06)
(0 8.309393254e-07 -8.71723962e-06)
(0 1.270231771e-06 -8.166456321e-06)
(0 1.572304893e-06 -7.446054807e-06)
(0 1.733347056e-06 -6.639891307e-06)
(0 1.778133897e-06 -5.813716454e-06)
(0 1.73334703e-06 -5.016129063e-06)
(0 1.626620904e-06 -4.272857724e-06)
(0 1.485589896e-06 -3.602960484e-06)
(0 1.323594846e-06 -3.007390449e-06)
(0 1.158741078e-06 -2.48995924e-06)
(0 9.996047469e-07 -2.047808009e-06)
(0 8.528562902e-07 -1.671407746e-06)
(0 7.17542789e-07 -1.355040964e-06)
(0 6.012875074e-07 -1.08917848e-06)
(0 4.964671812e-07 -8.719145314e-07)
(0 4.05940542e-07 -6.937199873e-07)
(0 3.325663076e-07 -5.469715202e-07)
(0 2.668153757e-07 -4.297633373e-07)
(0 2.134523038e-07 -3.335192246e-07)
(0 1.715241701e-07 -2.572862552e-07)
(0 1.35313512e-07 -1.972527956e-07)
(0 1.048203277e-07 -1.505601071e-07)
(0 8.385626094e-08 -1.133965347e-07)
(0 6.670384393e-08 -8.385626094e-08)
(0 5.14572518e-08 -6.193928458e-08)
(0 4.192813047e-08 -4.383395458e-08)
(0 3.335192196e-08 -2.763444963e-08)
(0 2.954027418e-08 -1.61995052e-08)
(0 2.763444963e-08 -3.811648225e-09)
(0 -2.792032337e-07 -1.114811819e-05)
(0 -8.366567903e-07 -1.130248997e-05)
(0 -1.403639465e-06 -1.161695093e-05)
(0 -1.981104174e-06 -1.209150113e-05)
(0 -2.572862567e-06 -1.273376388e-05)
(0 -3.18177337e-06 -1.354850368e-05)
(0 -3.806883681e-06 -1.45462026e-05)
(0 -4.446287681e-06 -1.573257814e-05)
(0 -5.095220787e-06 -1.712001808e-05)
(0 -5.733671868e-06 -1.871709869e-05)
(0 -6.34544142e-06 -2.053049037e-05)
(0 -6.900989142e-06 -2.256209885e-05)
(0 -7.350763634e-06 -2.480620676e-05)
(0 -7.639495996e-06 -2.723803836e-05)
(1.239779192e-25 -7.690953243e-06 -2.982043003e-05)
(-1.239779192e-25 -7.419373306e-06 -3.24723843e-05)
(0 -6.736135362e-06 -3.507764589e-05)
(0 -5.57739429e-06 -3.745611436e-05)
(0 -3.927903513e-06 -3.938385546e-05)
(0 -1.858178521e-06 -4.06073946e-05)
(0 3.011202111e-07 -4.075128426e-05)
(0 2.268883616e-06 -4.024338214e-05)
(0 4.145167469e-06 -3.938099678e-05)
(0 6.201551689e-06 -3.82651367e-05)
(0 8.743921066e-06 -3.671856042e-05)
(0 1.190854204e-05 -3.429816384e-05)
(0 1.541049384e-05 -3.034643748e-05)
(0 1.878284962e-05 -2.496057851e-05)
(0 2.162538633e-05 -1.815964516e-05)
(0 1.143113308e-05 -1.0239993e-05)
(0 4.650210834e-07 -1.023808713e-05)
(0 1.315971569e-06 -9.814041413e-06)
(0 1.982057077e-06 -9.067911126e-06)
(0 2.412773326e-06 -8.135963135e-06)
(0 2.61860237e-06 -7.137311407e-06)
(0 2.647189692e-06 -6.154858971e-06)
(0 2.546181014e-06 -5.238157573e-06)
(0 2.364174847e-06 -4.411029974e-06)
(0 2.137381742e-06 -3.683005097e-06)
(0 1.894389168e-06 -3.053130228e-06)
(0 1.64758497e-06 -2.513782042e-06)
(0 1.415074403e-06 -2.053525481e-06)
(0 1.201622103e-06 -1.669501922e-06)
(0 1.010086795e-06 -1.34837058e-06)
(0 8.423742576e-07 -1.082508096e-06)
(0 6.95625801e-07 -8.65244147e-07)
(0 5.698414181e-07 -6.851437786e-07)
(0 4.631152593e-07 -5.403011358e-07)
(0 3.73541526e-07 -4.211871288e-07)
(0 2.992143901e-07 -3.287546643e-07)
(0 2.38228014e-07 -2.54427519e-07)
(0 1.886765871e-07 -1.962998836e-07)
(0 1.48654283e-07 -1.477013709e-07)
(0 1.172081829e-07 -1.105377985e-07)
(0 9.147955739e-08 -8.385626094e-08)
(0 7.242131735e-08 -6.003346044e-08)
(0 5.812763542e-08 -4.288104253e-08)
(0 4.669269075e-08 -2.858736168e-08)
(0 4.097521903e-08 -1.61995052e-08)
(0 3.716357019e-08 -5.717472337e-09)
(0 -3.544832918e-07 -1.088892628e-05)
(0 -1.069167349e-06 -1.104043931e-05)
(0 -1.796239261e-06 -1.134727699e-05)
(0 -2.535699031e-06 -1.181515681e-05)
(0 -3.297075783e-06 -1.24440788e-05)
(0 -4.086086976e-06 -1.32502424e-05)
(0 -4.898920976e-06 -1.423841222e-05)
(0 -5.73748361e-06 -1.542478778e-05)
(0 -6.600821942e-06 -1.682366268e-05)
(0 -7.463207369e-06 -1.845409524e-05)
(0 -8.309393304e-06 -2.033037914e-05)
(0 -9.102216138e-06 -2.246680799e-05)
(0 -9.783548271e-06 -2.487672262e-05)
(0 -1.027810965e-05 -2.755821723e-05)
(0 -1.048584447e-05 -3.048651602e-05)
(0 -1.026762761e-05 -3.360635015e-05)
(0 -9.480522241e-06 -3.679288816e-05)
(0 -7.98730901e-06 -3.983458346e-05)
(0 -5.721284097e-06 -4.242078683e-05)
(0 -2.590015023e-06 -4.431041154e-05)
(0 5.784176294e-07 -4.393877577e-05)
(0 3.006437596e-06 -4.301349814e-05)
(0 5.054245652e-06 -4.207202107e-05)
(0 7.309788525e-06 -4.137258355e-05)
(0 1.043915178e-05 -4.068553394e-05)
(0 1.495881377e-05 -3.930857605e-05)
(0 2.018363065e-05 -3.520914825e-05)
(0 2.518641905e-05 -2.943926564e-05)
(0 2.951645156e-05 -2.160251677e-05)
(0 1.570780264e-05 -1.204480862e-05)
(0 7.17542789e-07 -1.204385566e-05)
(0 2.001115378e-06 -1.13939698e-05)
(0 2.948309946e-06 -1.031146151e-05)
(0 3.502904771e-06 -9.041229724e-06)
(0 3.714451306e-06 -7.75670437e-06)
(0 3.678240592e-06 -6.556035045e-06)
(0 3.477176145e-06 -5.485914789e-06)
(0 3.180820539e-06 -4.555872677e-06)
(0 2.843489618e-06 -3.76019103e-06)
(0 2.4947238e-06 -3.089340932e-06)
(0 2.15739296e-06 -2.525217025e-06)
(0 1.843884856e-06 -2.0525726e-06)
(0 1.557058323e-06 -1.659972827e-06)
(0 1.305489556e-06 -1.335982743e-06)
(0 1.084413936e-06 -1.068214431e-06)
(0 8.938315221e-07 -8.509504789e-07)
(0 7.30883569e-07 -6.737088439e-07)
(0 5.946171319e-07 -5.298191112e-07)
(0 4.793147714e-07 -4.145167506e-07)
(0 3.82117746e-07 -3.211313726e-07)
(0 3.039789505e-07 -2.477571383e-07)
(0 2.420396659e-07 -1.89629502e-07)
(0 1.896295049e-07 -1.448426369e-07)
(0 1.48654283e-07 -1.08631976e-07)
(0 1.162552726e-07 -8.004461392e-08)
(0 9.243247222e-08 -5.908054925e-08)
(0 7.337422942e-08 -4.097521903e-08)
(0 6.098637251e-08 -2.763445004e-08)
(0 5.145725257e-08 -1.524659336e-08)
(0 4.859851559e-08 -4.764560352e-09)
(0 -4.307162513e-07 -1.056779475e-05)
(0 -1.296913316e-06 -1.071644905e-05)
(0 -2.176451146e-06 -1.101280468e-05)
(0 -3.077905955e-06 -1.146543791e-05)
(0 -4.008901044e-06 -1.20791133e-05)
(0 -4.97610678e-06 -1.286526573e-05)
(0 -5.982381915e-06 -1.383723603e-05)
(0 -7.032491016e-06 -1.501312953e-05)
(0 -8.122622403e-06 -1.64110515e-05)
(0 -9.239435338e-06 -1.805958937e-05)
(0 -1.035815411e-05 -1.998637759e-05)
(0 -1.144733258e-05 -2.222857963e-05)
(0 -1.244121986e-05 -2.481478297e-05)
(0 -1.32492893e-05 -2.777548077e-05)
(0 -1.374003901e-05 -3.112306082e-05)
(0 -1.372479241e-05 -3.483941786e-05)
(0 -1.296532151e-05 -3.883688398e-05)
(0 -1.120624583e-05 -4.286198448e-05)
(0 -8.403731461e-06 -4.636203048e-05)
(0 -3.376167435e-06 -5.048909269e-05)
(0 1.598033525e-06 -4.790193637e-05)
(0 4.137544166e-06 -4.601707631e-05)
(0 5.785129127e-06 -4.472873927e-05)
(0 7.587085825e-06 -4.467728195e-05)
(0 1.080697568e-05 -4.554729066e-05)
(0 1.738588057e-05 -4.723489799e-05)
(0 2.528075696e-05 -4.190144912e-05)
(0 3.238757511e-05 -3.612203747e-05)
(0 3.901984311e-05 -2.686544976e-05)
(0 2.099074687e-05 -1.467484573e-05)
(0 1.115860018e-06 -1.467293984e-05)
(0 3.047412801e-06 -1.358090283e-05)
(0 4.335749855e-06 -1.191044779e-05)
(0 4.967530549e-06 -1.011325565e-05)
(0 5.104749961e-06 -8.428507263e-06)
(0 4.916073298e-06 -6.957210922e-06)
(0 4.547296332e-06 -5.711754864e-06)
(0 4.088945694e-06 -4.673080793e-06)
(0 3.60581922e-06 -3.814506961e-06)
(0 3.129363192e-06 -3.102681655e-06)
(0 2.684353302e-06 -2.515687866e-06)
(0 2.279365638e-06 -2.036373064e-06)
(0 1.918211969e-06 -1.640914561e-06)
(0 1.60184519e-06 -1.315971569e-06)
(0 1.327406494e-06 -1.050109086e-06)
(0 1.091084304e-06 -8.337980491e-07)
(0 8.900198738e-07 -6.594151527e-07)
(0 7.223073385e-07 -5.183841585e-07)
(0 5.822292663e-07 -4.049876239e-07)
(0 4.650210904e-07 -3.135080712e-07)
(0 3.697298778e-07 -2.420396623e-07)
(0 2.925440012e-07 -1.858178509e-07)
(0 2.30604721e-07 -1.419838985e-07)
(0 1.801003786e-07 -1.067261503e-07)
(0 1.419838964e-07 -7.81387886e-08)
(0 1.114907122e-07 -5.622181216e-08)
(0 8.957373328e-08 -3.90693943e-08)
(0 7.242131627e-08 -2.572862552e-08)
(0 6.289219665e-08 -1.429368106e-08)
(0 5.908054748e-08 -6.670384393e-09)
(0 -5.031375679e-07 -1.01847241e-05)
(0 -1.515130178e-06 -1.03257551e-05)
(0 -2.546181025e-06 -1.06116287e-05)
(0 -3.602007588e-06 -1.104425078e-05)
(0 -4.697856465e-06 -1.163410336e-05)
(0 -5.843256754e-06 -1.238976261e-05)
(0 -7.044878863e-06 -1.333219264e-05)
(0 -8.313204828e-06 -1.447664004e-05)
(0 -9.645375876e-06 -1.585359795e-05)
(0 -1.104043913e-05 -1.749641834e-05)
(0 -1.247838345e-05 -1.945084101e-05)
(0 -1.39296685e-05 -2.176832311e-05)
(0 -1.533140214e-05 -2.451270984e-05)
(0 -1.658638734e-05 -2.774784632e-05)
(0 -1.754882851e-05 -3.154329504e-05)
(0 -1.79824035e-05 -3.596099535e-05)
(0 -1.750308874e-05 -4.104001666e-05)
(0 -1.551245543e-05 -4.6616458e-05)
(0 -1.334934505e-05 -4.988971092e-05)
(0 -4.128967964e-06 -6.36202209e-05)
(0 5.051386832e-06 -5.139054742e-05)
(0 6.1786818e-06 -4.865378398e-05)
(0 6.394039935e-06 -4.637823005e-05)
(0 6.49314278e-06 -4.728254353e-05)
(0 7.882488564e-06 -4.980966631e-05)
(0 1.860274927e-05 -6.239382307e-05)
(0 3.129553789e-05 -4.922934287e-05)
(0 4.022337098e-05 -4.643254597e-05)
(0 5.096268998e-05 -3.517007838e-05)
(0 2.790031222e-05 -1.858559683e-05)
(0 1.810532907e-06 -1.858369092e-05)
(0 4.764560352e-06 -1.652825986e-05)
(0 6.416909786e-06 -1.381150734e-05)
(0 6.983892459e-06 -1.122625693e-05)
(0 6.869543116e-06 -9.038370988e-06)
(0 6.395945721e-06 -7.26690734e-06)
(0 5.761306291e-06 -5.848974201e-06)
(0 5.079974247e-06 -4.716914749e-06)
(0 4.412935732e-06 -3.807836576e-06)
(0 3.791637071e-06 -3.074094293e-06)
(0 3.223701534e-06 -2.479477207e-06)
(0 2.72056392e-06 -1.995397846e-06)
(0 2.278412726e-06 -1.599939342e-06)
(0 1.895342108e-06 -1.279760911e-06)
(0 1.56658742e-06 -1.020568812e-06)
(0 1.28357254e-06 -8.080694236e-07)
(0 1.046297453e-06 -6.384510872e-07)
(0 8.49044642e-07 -5.012317415e-07)
(0 6.832379442e-07 -3.90693943e-07)
(0 5.460186164e-07 -3.039789505e-07)
(0 4.316691614e-07 -2.334634538e-07)
(0 3.430483402e-07 -1.791474666e-07)
(0 2.696741159e-07 -1.343606019e-07)
(0 2.115464765e-07 -1.010086779e-07)
(0 1.667596098e-07 -7.528005243e-08)
(0 1.305489536e-07 -5.431598801e-08)
(0 1.038674141e-07 -3.90693943e-08)
(0 8.4809173e-08 -2.477571346e-08)
(0 7.242131735e-08 -1.429368106e-08)
(0 6.860966804e-08 -4.764560281e-09)
(0 -5.727001569e-07 -9.747337612e-06)
(0 -1.721912122e-06 -9.879792405e-06)
(0 -2.894946883e-06 -1.014756068e-05)
(0 -4.100380657e-06 -1.055350123e-05)
(0 -5.354412956e-06 -1.110809607e-05)
(0 -6.675149083e-06 -1.182373302e-05)
(0 -8.068306537e-06 -1.27137529e-05)
(0 -9.553896475e-06 -1.380674307e-05)
(0 -1.114144798e-05 -1.513129083e-05)
(0 -1.283572565e-05 -1.672932438e-05)
(0 -1.463196493e-05 -1.866278301e-05)
(0 -1.650920169e-05 -2.100408795e-05)
(0 -1.842169623e-05 -2.384567176e-05)
(0 -2.028082771e-05 -2.730188388e-05)
(0 -2.195128256e-05 -3.149374408e-05)
(0 -2.322151436e-05 -3.658896495e-05)
(0 -2.361983162e-05 -4.292964192e-05)
(0 -2.005594044e-05 -5.287613811e-05)
(0 -2.540749465e-05 -4.317549319e-05)
(0 -4.877956918e-06 -3.641362917e-05)
(0 1.656447059e-05 -2.636993584e-05)
(0 9.150814653e-06 -2.489673378e-05)
(0 7.156369692e-06 -2.339780312e-05)
(0 4.153743734e-06 -2.413440412e-05)
(0 -4.305256754e-06 -2.573624931e-05)
(0 1.796811011e-05 -3.632786708e-05)
(0 4.124108168e-05 -4.640300639e-05)
(0 4.644779326e-05 -6.539073239e-05)
(0 6.68667933e-05 -4.893394093e-05)
(0 3.757808767e-05 -2.476046735e-05)
(0 3.174150107e-06 -2.47576085e-05)
(0 7.818643655e-06 -2.033800262e-05)
(0 9.636799768e-06 -1.576593021e-05)
(0 9.742573008e-06 -1.211437115e-05)
(0 9.06409975e-06 -9.385231122e-06)
(0 8.106422983e-06 -7.353622447e-06)
(0 7.095383276e-06 -5.82229275e-06)
(0 6.131036353e-06 -4.642587677e-06)
(0 5.24673386e-06 -3.719215811e-06)
(0 4.458675578e-06 -2.988332253e-06)
(0 3.764002735e-06 -2.401338453e-06)
(0 3.157950601e-06 -1.926788206e-06)
(0 2.632896051e-06 -1.54181173e-06)
(0 2.182168674e-06 -1.230209501e-06)
(0 1.798145077e-06 -9.795936084e-07)
(0 1.473202061e-06 -7.756704253e-07)
(0 1.19781049e-06 -6.117695584e-07)
(0 9.710173998e-07 -4.802676835e-07)
(0 7.794820736e-07 -3.735415316e-07)
(0 6.222515913e-07 -2.896852738e-07)
(0 4.936084525e-07 -2.239343366e-07)
(0 3.906939489e-07 -1.696183485e-07)
(0 3.077906034e-07 -1.286431314e-07)
(0 2.410867538e-07 -9.624411911e-08)
(0 1.886765899e-07 -7.146840528e-08)
(0 1.477013731e-07 -5.241016466e-08)
(0 1.191140088e-07 -3.716357075e-08)
(0 9.719703118e-08 -2.382280176e-08)
(0 8.385626346e-08 -1.334076919e-08)
(0 7.71858777e-08 -2.858736211e-09)
(0 -6.355923443e-07 -9.260399403e-06)
(0 -1.914400332e-06 -9.382372161e-06)
(0 -3.21893694e-06 -9.627270546e-06)
(0 -4.563495857e-06 -9.999859162e-06)
(0 -5.966182419e-06 -1.050966713e-05)
(0 -7.449866488e-06 -1.116622352e-05)
(0 -9.029794685e-06 -1.198763372e-05)
(0 -1.07288369e-05 -1.299867344e-05)
(0 -1.256986299e-05 -1.423078871e-05)
(0 -1.457193123e-05 -1.573448394e-05)
(0 -1.675219405e-05 -1.757646298e-05)
(0 -1.911351011e-05 -1.985392278e-05)
(0 -2.162729212e-05 -2.269169489e-05)
(0 -2.423445955e-05 -2.624415108e-05)
(0 -2.683686237e-05 -3.06866271e-05)
(0 -2.941925405e-05 -3.613537826e-05)
(0 -3.378930879e-05 -4.140212324e-05)
(0 -1.575925966e-05 -2.853590456e-05)
(0 3.113163701e-06 -1.799955591e-05)
(0 1.267754207e-05 8.815389484e-06)
(0 1.656828199e-05 5.251498365e-06)
(0 9.149861604e-06 6.623691732e-06)
(0 7.157322497e-06 6.118648349e-06)
(0 4.154696583e-06 6.369264212e-06)
(0 -4.310974161e-06 5.518313742e-06)
(0 -2.064007526e-06 9.82547627e-06)
(0 2.232672958e-06 -1.597271196e-05)
(0 3.769243655e-05 -3.903032508e-05)
(0 9.159200156e-05 -7.059172554e-05)
(0 5.20766441e-05 -3.560174749e-05)
(0 6.235856495e-06 -3.559221821e-05)
(0 1.375528574e-05 -2.451938048e-05)
(0 1.463958792e-05 -1.700090399e-05)
(0 1.336459159e-05 -1.226588399e-05)
(0 1.163029182e-05 -9.189884007e-06)
(0 9.958883899e-06 -7.082995313e-06)
(0 8.472341091e-06 -5.56119476e-06)
(0 7.183051187e-06 -4.419606183e-06)
(0 6.068143973e-06 -3.535303728e-06)
(0 5.109514445e-06 -2.836819191e-06)
(0 4.285245581e-06 -2.280318585e-06)
(0 3.579137683e-06 -1.829591148e-06)
(0 2.974038527e-06 -1.465578742e-06)
(0 2.45756023e-06 -1.171128935e-06)
(0 2.021126471e-06 -9.319479909e-07)
(0 1.652349505e-06 -7.375539314e-07)
(0 1.342653107e-06 -5.831821871e-07)
(0 1.087272656e-06 -4.564448749e-07)
(0 8.728674434e-07 -3.57342021e-07)
(0 6.956258114e-07 -2.763445004e-07)
(0 5.517360805e-07 -2.124993885e-07)
(0 4.383395458e-07 -1.629479616e-07)
(0 3.430483454e-07 -1.248314812e-07)
(0 2.687211998e-07 -9.33853815e-08)
(0 2.096406523e-07 -6.95625801e-08)
(0 1.658067003e-07 -4.955142766e-08)
(0 1.324547758e-07 -3.621065813e-08)
(0 1.086319744e-07 -2.38228014e-08)
(0 9.243247083e-08 -1.429368106e-08)
(0 8.671499711e-08 -5.717472337e-09)
(0 -6.927670679e-07 -8.730580298e-06)
(0 -2.08878324e-06 -8.838259374e-06)
(0 -3.512433855e-06 -9.05552331e-06)
(0 -4.982777164e-06 -9.390948355e-06)
(0 -6.520777239e-06 -9.844534511e-06)
(0 -8.152162677e-06 -1.042866959e-05)
(0 -9.90170922e-06 -1.115955314e-05)
(0 -1.179705133e-05 -1.205433758e-05)
(0 -1.387725834e-05 -1.315018643e-05)
(0 -1.61813997e-05 -1.44909337e-05)
(0 -1.875045064e-05 -1.615281236e-05)
(0 -2.16253863e-05 -1.824540722e-05)
(0 -2.481287714e-05 -2.093261923e-05)
(0 -2.82757596e-05 -2.442313613e-05)
(0 -3.184155651e-05 -2.901045478e-05)
(0 -3.393701014e-05 -3.60124526e-05)
(0 -1.60222634e-05 -2.066199223e-05)
(0 3.34853298e-06 5.099985347e-06)
(0 1.194475268e-05 8.808719087e-06)
(0 1.837119164e-05 1.598700566e-05)
(0 1.437277261e-05 1.080983441e-05)
(0 1.00189174e-05 1.203909097e-05)
(0 6.899083328e-06 1.141969815e-05)
(0 3.554361985e-06 1.18751901e-05)
(0 -8.490446458e-07 1.141207484e-05)
(0 -3.521010069e-06 1.723150881e-05)
(0 -7.613767363e-06 1.141874522e-05)
(0 -8.17217383e-06 8.076882624e-06)
(0 7.02963228e-05 -4.408361781e-05)
(0 7.257664126e-05 -7.305119146e-05)
(0 1.425461145e-05 -4.99688024e-05)
(0 2.640995803e-05 -2.539796541e-05)
(0 2.189124867e-05 -1.566873294e-05)
(0 1.755359299e-05 -1.093657167e-05)
(0 1.424698836e-05 -8.184561773e-06)
(0 1.173415906e-05 -6.359735063e-06)
(0 9.758772367e-06 -5.042810601e-06)
(0 8.155974411e-06 -4.042253003e-06)
(0 6.829520706e-06 -3.256100496e-06)
(0 5.715566513e-06 -2.626225627e-06)
(0 4.771230737e-06 -2.116417708e-06)
(0 3.97173745e-06 -1.70571258e-06)
(0 3.293264066e-06 -1.368381713e-06)
(0 2.715799401e-06 -1.095848881e-06)
(0 2.230767123e-06 -8.728674434e-07)
(0 1.821967851e-06 -6.927670648e-07)
(0 1.479872445e-06 -5.450657043e-07)
(0 1.194951718e-06 -4.288104253e-07)
(0 9.614882646e-07 -3.354250438e-07)
(0 7.651883926e-07 -2.601449952e-07)
(0 6.079578918e-07 -2.001115318e-07)
(0 4.793147642e-07 -1.53418841e-07)
(0 3.764002678e-07 -1.162552726e-07)
(0 2.963556495e-07 -8.766790916e-08)
(0 2.315576296e-07 -6.575093187e-08)
(0 1.820062055e-07 -4.764560352e-08)
(0 1.457955446e-07 -3.335192196e-08)
(0 1.18161095e-07 -2.286988935e-08)
(0 1.019615915e-07 -1.238785692e-08)
(0 9.624411767e-08 -4.764560281e-09)
(0 -7.442243304e-07 -8.163597744e-06)
(0 -2.241249203e-06 -8.257936052e-06)
(0 -3.771625992e-06 -8.447565542e-06)
(0 -5.3506013e-06 -8.733439165e-06)
(0 -7.004856672e-06 -9.124133129e-06)
(0 -8.763932351e-06 -9.62250613e-06)
(0 -1.065641573e-05 -1.024189898e-05)
(0 -1.27204233e-05 -1.099469953e-05)
(0 -1.500550644e-05 -1.190568346e-05)
(0 -1.757455739e-05 -1.301487312e-05)
(0 -2.050762079e-05 -1.438611361e-05)
(0 -2.389331736e-05 -1.61385189e-05)
(0 -2.780406852e-05 -1.847029474e-05)
(0 -3.231038975e-05 -2.16139517e-05)
(6.198896052e-26 -3.842808525e-05 -2.503490604e-05)
(-6.198896052e-26 -2.106983889e-05 -2.202846844e-05)
(0 7.32217639e-06 -2.173592445e-06)
(0 1.371049893e-05 8.384673345e-06)
(0 1.40001842e-05 1.451952128e-05)
(0 1.467865762e-05 1.217059304e-05)
(0 1.262132043e-05 9.946496236e-06)
(0 9.758772557e-06 9.564378494e-06)
(0 6.994374639e-06 9.452887795e-06)
(0 4.148026261e-06 9.966507389e-06)
(0 1.045344546e-06 1.104901551e-05)
(0 -2.058290084e-06 1.392966873e-05)
(0 -6.922906223e-06 1.594221901e-05)
(0 -1.780992668e-05 2.156344734e-05)
(0 1.046488042e-05 2.45956136e-05)
(0 4.619145991e-05 -2.731046006e-05)
(0 5.388813049e-05 -1.415360298e-05)
(0 4.805726226e-05 -1.171605408e-05)
(0 2.910002881e-05 -9.555802242e-06)
(0 2.084781028e-05 -7.812926065e-06)
(0 1.620712874e-05 -6.40833377e-06)
(0 1.309968223e-05 -5.266745013e-06)
(0 1.07917292e-05 -4.327173712e-06)
(0 8.968808541e-06 -3.548644603e-06)
(0 7.485124313e-06 -2.903523079e-06)
(0 6.248244446e-06 -2.369892319e-06)
(0 5.205758719e-06 -1.926788235e-06)
(0 4.328126624e-06 -1.558964147e-06)
(0 3.582949385e-06 -1.258796845e-06)
(0 2.953074551e-06 -1.01008681e-06)
(0 2.426114131e-06 -8.061636116e-07)
(0 1.97919837e-06 -6.413098234e-07)
(0 1.605656863e-06 -5.05996317e-07)
(0 1.298819152e-06 -3.973643334e-07)
(0 1.040579981e-06 -3.096964229e-07)
(0 8.309393379e-07 -2.410867574e-07)
(0 6.594151527e-07 -1.867707658e-07)
(0 5.193370784e-07 -1.438897226e-07)
(0 4.097521964e-07 -1.095848897e-07)
(0 3.201784557e-07 -8.099752599e-08)
(0 2.506158745e-07 -6.003346044e-08)
(0 1.982057136e-07 -4.38339559e-08)
(0 1.572304916e-07 -3.049318625e-08)
(0 1.286431295e-07 -2.001115348e-08)
(0 1.105378018e-07 -1.143494502e-08)
(0 1.038674157e-07 -2.858736211e-09)
(0 -7.871053619e-07 -7.572792144e-06)
(0 -2.372751034e-06 -7.651883857e-06)
(0 -3.987936973e-06 -7.809114335e-06)
(0 -5.660297639e-06 -8.046389438e-06)
(0 -7.409844193e-06 -8.365614991e-06)
(0 -9.270881436e-06 -8.770602604e-06)
(0 -1.127294967e-05 -9.263258139e-06)
(0 -1.346083579e-05 -9.852157807e-06)
(0 -1.58974319e-05 -1.054301904e-05)
(0 -1.866087688e-05 -1.13539472e-05)
(0 -2.187409638e-05 -1.232020005e-05)
(0 -2.570956739e-05 -1.353230417e-05)
(0 -3.028830984e-05 -1.528470945e-05)
(0 -3.48413237e-05 -1.861990168e-05)
(0 -3.225607326e-05 -2.757918087e-05)
(0 -1.107569688e-05 -6.522683057e-06)
(0 1.439278378e-05 4.666410365e-06)
(0 2.004164645e-05 7.06679584e-06)
(0 1.573162521e-05 8.80586035e-06)
(0 1.379816666e-05 8.210290325e-06)
(0 1.176560521e-05 7.227837978e-06)
(0 9.525308956e-06 6.81236832e-06)
(0 7.30216513e-06 6.858108109e-06)
(0 5.148583862e-06 7.500370828e-06)
(0 3.115069526e-06 8.906869029e-06)
(0 1.371240457e-06 1.153595342e-05)
(0 2.096406533e-08 1.559250004e-05)
(0 4.802676785e-07 2.386282382e-05)
(0 2.142241606e-05 4.22978606e-05)
(0 3.382837814e-05 3.19206482e-05)
(0 2.984806433e-05 2.008166867e-05)
(0 3.100585295e-05 1.977292546e-06)
(0 2.579437645e-05 -3.244665551e-06)
(0 2.070296733e-05 -4.526332267e-06)
(0 1.679316942e-05 -4.521567774e-06)
(0 1.38162719e-05 -4.093710193e-06)
(0 1.147591989e-05 -3.556267793e-06)
(0 9.57771922e-06 -3.018825439e-06)
(0 8.009225832e-06 -2.527122773e-06)
(0 6.69230137e-06 -2.095453611e-06)
(0 5.582158909e-06 -1.721912111e-06)
(0 4.639728801e-06 -1.405545283e-06)
(0 3.843094322e-06 -1.140635731e-06)
(0 3.168432634e-06 -9.176543238e-07)
(0 2.599544089e-06 -7.366010194e-07)
(0 2.123088061e-06 -5.869938266e-07)
(0 1.721912111e-06 -4.640681783e-07)
(0 1.391251602e-06 -3.659182296e-07)
(0 1.11681293e-06 -2.868265289e-07)
(0 8.890669617e-07 -2.229814245e-07)
(0 7.061078336e-07 -1.724770822e-07)
(0 5.574535528e-07 -1.315018637e-07)
(0 4.392924645e-07 -1.010086795e-07)
(0 3.440012523e-07 -7.623296449e-08)
(0 2.696741119e-07 -5.622181131e-08)
(0 2.105935676e-07 -4.19281311e-08)
(0 1.686654339e-07 -2.954027374e-08)
(0 1.391251602e-07 -2.001115318e-08)
(0 1.191140088e-07 -1.143494485e-08)
(0 1.105377985e-07 -2.858736168e-09)
(0 -8.233160202e-07 -6.970551722e-06)
(0 -2.477571361e-06 -7.033443929e-06)
(0 -4.166131528e-06 -7.157322486e-06)
(0 -5.908054775e-06 -7.34409325e-06)
(0 -7.728116822e-06 -7.591850397e-06)
(0 -9.661575381e-06 -7.896782245e-06)
(0 -1.173701785e-05 -8.258888828e-06)
(0 -1.39992311e-05 -8.672452675e-06)
(0 -1.650920145e-05 -9.128897539e-06)
(0 -1.935269104e-05 -9.610118129e-06)
(0 -2.268597746e-05 -1.007990379e-05)
(0 -2.685687351e-05 -1.04610686e-05)
(0 -3.289071268e-05 -1.058875882e-05)
(0 -4.46058136e-05 -1.007513923e-05)
(0 -2.632800733e-05 -7.964439005e-06)
(0 1.117384683e-05 5.836586373e-06)
(0 2.090879645e-05 1.008943291e-05)
(0 1.785090163e-05 6.384510805e-06)
(0 1.514558429e-05 5.400152646e-06)
(0 1.309968211e-05 4.615906028e-06)
(0 1.122244534e-05 3.925044777e-06)
(0 9.389995443e-06 3.581996435e-06)
(0 7.682377043e-06 3.662041054e-06)
(0 6.196787129e-06 4.270951855e-06)
(0 5.080927106e-06 5.553571488e-06)
(0 4.627340972e-06 7.738598854e-06)
(0 5.403964295e-06 1.106330902e-05)
(0 8.895434084e-06 1.605752113e-05)
(0 1.852270466e-05 2.20656317e-05)
(0 2.397431453e-05 1.105663864e-05)
(0 2.394572706e-05 8.268417911e-06)
(0 2.473187988e-05 2.565239294e-06)
(0 2.259640359e-05 -1.05677947e-06)
(0 1.957090781e-05 -2.680541614e-06)
(0 1.663784475e-05 -3.186537964e-06)
(0 1.406593486e-05 -3.15128017e-06)
(0 1.186756675e-05 -2.879700234e-06)
(0 9.998906355e-06 -2.526169899e-06)
(0 8.408495983e-06 -2.164063279e-06)
(0 7.053455039e-06 -1.821014939e-06)
(0 5.89566698e-06 -1.513224368e-06)
(0 4.908450001e-06 -1.247361881e-06)
(0 4.070840304e-06 -1.017710076e-06)
(0 3.357109224e-06 -8.261747651e-07)
(0 2.755821666e-06 -6.641797031e-07)
(0 2.251731189e-06 -5.317249273e-07)
(0 1.826732439e-06 -4.221400472e-07)
(0 1.476060775e-06 -3.325663076e-07)
(0 1.184469686e-06 -2.620508154e-07)
(0 9.433829497e-07 -2.02970271e-07)
(0 7.499417882e-07 -1.581834013e-07)
(0 5.927112989e-07 -1.200669191e-07)
(0 4.650210904e-07 -9.052664669e-08)
(0 3.649653175e-07 -7.051549215e-08)
(0 2.858736168e-07 -5.241016309e-08)
(0 2.239343366e-07 -3.716357075e-08)
(0 1.791474666e-07 -2.668153757e-08)
(0 1.477013687e-07 -1.810532907e-08)
(0 1.267373054e-07 -9.529120704e-09)
(0 1.18161095e-07 -3.811648225e-09)
(0 -8.499975706e-07 -6.365452659e-06)
(0 -2.559521837e-06 -6.411192448e-06)
(0 -4.298586369e-06 -6.504577822e-06)
(0 -6.093872718e-06 -6.640844249e-06)
(0 -7.96348622e-06 -6.816180081e-06)
(0 -9.937920027e-06 -7.026773639e-06)
(0 -1.204957318e-05 -7.264048746e-06)
(0 -1.43298918e-05 -7.512758808e-06)