/*--------------------------------*- C++ -*----------------------------------*\
  =========                 |
  \\      /  F ield         | OpenFOAM: The Open Source CFD Toolbox
   \\    /   O peration     | Website:  https://openfoam.org
    \\  /    A nd           | Version:  6
     \\/     M anipulation  |
\*---------------------------------------------------------------------------*/
FoamFile
{
    version     2.0;
    format      ascii;
    class       volScalarField;
    location    "0.0025";
    object      TRHS;
}
// * * * * * * * * * * * * * * * * * * * * * * * * * * * * * * * * * * * * * //

dimensions      [1 -1 -3 0 0 0 0];

internalField   nonuniform List<scalar> 
3600
(
2.087325362e-10
3.55910145e-10
6.166400492e-11
-2.221851706e-10
-5.460611352e-10
-8.955464767e-10
-1.276334571e-09
-1.697077094e-09
-2.168569704e-09
-2.710694885e-09
-3.347687176e-09
-4.113978226e-09
-5.058574551e-09
-6.267943542e-09
-7.859892701e-09
-9.902550537e-09
-1.219506277e-08
-1.403905619e-08
-1.443533017e-08
-1.335850237e-08
-1.294852159e-08
-1.420982297e-08
-1.595135158e-08
-1.838198928e-08
-2.338375276e-08
-3.31869827e-08
-4.60841e-08
-6.204687812e-08
-7.526162171e-08
-3.063716783e-08
-0.0007016256525
0
0
0
0
0
0
0
0
0
0
0
0
0
0
0
0
0
0
0
0
0
0
0
0
0
0
0
0
0
2.245544257e-10
3.956281139e-10
1.258033564e-10
-1.37901961e-10
-4.418146307e-10
-7.732982188e-10
-1.150025745e-09
-1.589303021e-09
-2.125489975e-09
-2.794462924e-09
-3.641949234e-09
-4.697850303e-09
-5.992481641e-09
-7.560034606e-09
-9.494856922e-09
-1.193365003e-08
-1.491921714e-08
-1.794572835e-08
-1.952144048e-08
-1.852241026e-08
-1.803630537e-08
-1.942426175e-08
-2.011340103e-08
-2.027000161e-08
-2.149519475e-08
-2.752981849e-08
-3.694579526e-08
-5.066414881e-08
-7.040532504e-08
-2.855070409e-08
-0.0007267870745
0
0
0
0
0
0
0
0
0
0
0
0
0
0
0
0
0
0
0
0
0
0
0
0
0
0
0
0
0
2.411579786e-10
4.293731218e-10
1.639264096e-10
-9.807984369e-11
-4.036818388e-10
-7.52446679e-10
-1.170437535e-09
-1.700828422e-09
-2.399158869e-09
-3.333975976e-09
-4.563296479e-09
-6.119593748e-09
-7.986530485e-09
-1.013636799e-08
-1.261736345e-08
-1.575071478e-08
-2.008177297e-08
-2.561794123e-08
-2.939364788e-08
-2.684643522e-08
-2.525222941e-08
-2.760206995e-08
-2.65874852e-08
-2.298898624e-08
-1.787045441e-08
-2.026245961e-08
-2.728489572e-08
-3.801488792e-08
-5.637076996e-08
-1.618573682e-08
-0.0007815697776
0
0
0
0
0
0
0
0
0
0
0
0
0
0
0
0
0
0
0
0
0
0
0
0
0
0
0
0
0
2.582840736e-10
4.61732435e-10
1.892324117e-10
-8.074895727e-11
-4.057067763e-10
-7.941492606e-10
-1.293548405e-09
-1.972308284e-09
-2.924423738e-09
-4.255642756e-09
-6.063674844e-09
-8.391373586e-09
-1.118137632e-08
-1.425114993e-08
-1.745194294e-08
-2.117238155e-08
-2.697486451e-08
-3.703785734e-08
-4.621857735e-08
-3.943762784e-08
-3.503390676e-08
-4.027157171e-08
-3.633275741e-08
-2.812547504e-08
-1.254935063e-08
-1.135323802e-08
-1.584924937e-08
-2.016075057e-08
-3.444353674e-08
4.549167104e-09
-0.0008767608228
0
0
0
0
0
0
0
0
0
0
0
0
0
0
0
0
0
0
0
0
0
0
0
0
0
0
0
0
0
2.757573979e-10
4.892077741e-10
2.011531984e-10
-8.938320477e-11
-4.496247907e-10
-9.046514565e-10
-1.523620073e-09
-2.408821291e-09
-3.695739901e-09
-5.547798236e-09
-8.133175415e-09
-1.156820071e-08
-1.579647264e-08
-2.040400391e-08
-2.462405811e-08
-2.824478899e-08
-3.389396757e-08
-5.089755721e-08
-7.373061682e-08
-5.849310455e-08
-4.937717857e-08
-5.760458545e-08
-4.762644669e-08
-3.635342505e-08
-7.850185915e-09
-3.088160116e-09
-4.622240636e-09
7.175036689e-09
-4.817136503e-09
3.30281319e-08
-0.001034720649
0
0
0
0
0
0
0
0
0
0
0
0
0
0
0
0
0
0
0
0
0
0
0
0
0
0
0
0
0
2.915199039e-10
5.095208069e-10
1.962221821e-10
-1.269534904e-10
-5.426233627e-10
-1.094099221e-09
-1.876412684e-09
-3.023439122e-09
-4.713251547e-09
-7.17437287e-09
-1.0688548e-08
-1.555800395e-08
-2.191620075e-08
-2.925003751e-08
-3.562664757e-08
-3.832013692e-08
-3.770499437e-08
-6.145963188e-08
-1.079379227e-07
-1.154861087e-07
-1.263288917e-07
-5.040593503e-08
-4.234327165e-08
-2.226624338e-08
-6.962241417e-08
-2.328879239e-08
7.154842187e-09
5.449013905e-08
3.746007743e-08
6.855593454e-08
-0.001302726059
0
0
0
0
0
0
0
0
0
0
0
0
0
0
0
0
0
0
0
0
0
0
0
0
0
0
0
0
0
3.040572945e-10
5.187528531e-10
1.710504707e-10
-1.996699921e-10
-6.948341854e-10
-1.381330367e-09
-2.38055594e-09
-3.853539183e-09
-6.005668031e-09
-9.108552758e-09
-1.355794728e-08
-1.994890509e-08
-2.901825528e-08
-4.09549572e-08
-5.30312176e-08
-5.779667052e-08
-3.870958716e-08
-7.149913995e-08
-6.013752072e-08
-1.952854638e-07
-2.313285891e-07
-4.896523415e-08
-1.164726572e-08
-1.387400425e-08
-1.499845737e-07
-5.28954393e-08
4.475919125e-08
1.590560316e-07
1.143230896e-07
1.117760979e-07
-0.001789203814
0
0
0
0
0
0
0
0
0
0
0
0
0
0
0
0
0
0
0
0
0
0
0
0
0
0
0
0
0
3.112032098e-10
5.130554693e-10
1.216626828e-10
-3.122100085e-10
-9.156527712e-10
-1.785870514e-09
-3.076296905e-09
-4.971880158e-09
-7.680449231e-09
-1.144585477e-08
-1.663888623e-08
-2.402425613e-08
-3.52284927e-08
-5.287137253e-08
-7.634288613e-08
-9.583561572e-08
-8.514742212e-08
-2.989389255e-08
4.337519279e-08
-2.368355628e-07
-2.067596945e-07
-0.0001743469498
-0.0001109669145
-0.0001494687877
-1.404457945e-07
-2.995272061e-07
1.040519258e-07
3.80227248e-07
3.586260795e-07
1.786832514e-07
-0.002771116141
0
0
0
0
0
0
0
0
0
0
0
0
0
0
0
0
0
0
0
0
0
0
0
0
0
0
0
0
0
3.103400865e-10
4.874567059e-10
4.521095657e-11
-4.649687024e-10
-1.203600148e-09
-2.311166145e-09
-3.989197762e-09
-6.465148055e-09
-9.950910895e-09
-1.458661078e-08
-2.042122004e-08
-2.76818882e-08
-3.797734187e-08
-5.788060657e-08
-9.530286703e-08
-1.555773709e-07
-2.181160699e-07
-0.000171224015
-0.0007740838597
167.3375045
-0.005864834831
69.16524582
44.03840478
59.30549084
-0.006562082662
144.7813271
-0.0004247952602
1.087184949e-07
4.360458277e-07
3.589519259e-07
-0.005046438311
0
0
0
0
0
0
0
0
0
0
0
0
0
0
0
0
0
0
0
0
0
0
0
0
0
0
0
0
0
2.966355705e-10
4.338930993e-10
-6.166979618e-11
-6.50565677e-10
-1.536566371e-09
-2.918383981e-09
-5.074923367e-09
-8.331315888e-09
-1.300043462e-08
-1.922302131e-08
-2.661132087e-08
-3.366614632e-08
-3.750206951e-08
-3.945921875e-08
-8.339683612e-08
-2.122817784e-07
-4.374841062e-07
67.93940422
139.838192
0
0
0
0
0
0
0
23.86716737
106.5964686
-0.0002681164313
-0.0001400846667
55.57092529
0
0
0
0
0
0
0
0
0
0
0
0
0
0
0
0
0
0
0
0
0
0
0
0
0
0
0
0
0
2.58650698e-10
3.332454929e-10
-2.097251956e-10
-8.598030437e-10
-1.871279114e-09
-3.510481094e-09
-6.152956974e-09
-1.02881394e-08
-1.652316389e-08
-2.55246968e-08
-3.7671662e-08
-5.190850019e-08
-6.242789002e-08
-6.896569667e-08
-3.112180182e-08
-0.0001722298972
68.33770731
0
0
0
0
0
0
0
0
0
0
0
384.7933079
-0.002109749049
452.1333347
0
0
0
0
0
0
0
0
0
0
0
0
0
0
0
0
0
0
0
0
0
0
0
0
0
0
0
0
0
1.646723989e-10
1.396223662e-10
-4.315757021e-10
-1.095922458e-09
-2.167075543e-09
-3.966080633e-09
-6.935184543e-09
-1.167820479e-08
-1.907022523e-08
-3.049512753e-08
-4.826991381e-08
-7.591066198e-08
-1.101206711e-07
-5.794819063e-08
6.280282597e-08
-0.0007853540704
141.4249345
0
0
0
0
0
0
0
0
0
0
0
-0.005128010861
-4.382135836e-05
17.37719386
0
0
0
0
0
0
0
0
0
0
0
0
0
0
0
0
0
0
0
0
0
0
0
0
0
0
0
0
0
-8.034110328e-11
-2.555689266e-10
-8.024594661e-10
-1.395428893e-09
-2.426647593e-09
-4.247031824e-09
-7.288762557e-09
-1.208482364e-08
-1.927411659e-08
-2.961446011e-08
-4.403398918e-08
-6.440259681e-08
-1.188182248e-07
-1.930022805e-07
-2.345641024e-07
170.2180285
0
0
0
0
0
0
0
0
0
0
0
0
0
-0.001403000509
0
0
0
0
0
0
0
0
0
0
0
0
0
0
0
0
0
0
0
0
0
0
0
0
0
0
0
0
0
0
-8.015291132e-10
-1.103916299e-09
-1.456257615e-09
-1.821898153e-09
-2.700098594e-09
-4.447305485e-09
-7.476653103e-09
-1.228400863e-08
-1.941792747e-08
-2.935917892e-08
-4.230128703e-08
-5.981393585e-08
-1.37026117e-07
-2.343734134e-07
-2.064106798e-07
-0.005605843987
0
0
0
0
0
0
0
0
0
0
0
0
0
0
0
0
0
0
0
0
0
0
0
0
0
0
0
0
0
0
0
0
0
0
0
0
0
0
0
0
0
0
0
0
-3.011377103e-09
-2.927850431e-09
-2.553508351e-09
-2.406720417e-09
-2.992292851e-09
-4.584357578e-09
-7.555504983e-09
-1.246884595e-08
-2.017422112e-08
-3.196633767e-08
-4.966260683e-08
-7.385312885e-08
-7.077304628e-08
-7.566297831e-08
-0.0002142173217
84.98058361
0
0
0
0
0
0
0
0
0
0
0
0
0
0
0
0
0
0
0
0
0
0
0
0
0
0
0
0
0
0
0
0
0
0
0
0
0
0
0
0
0
0
0
0
-1.303963345e-08
-7.515038303e-09
-4.189032881e-09
-3.048342042e-09
-3.208307482e-09
-4.53506264e-09
-7.20639621e-09
-1.164731944e-08
-1.856235006e-08
-2.906199888e-08
-4.473885756e-08
-6.592841354e-08
-5.944991406e-08
-5.849444748e-08
-0.0002081261458
82.56918763
0
0
0
0
0
0
0
0
0
0
0
0
0
0
0
0
0
0
0
0
0
0
0
0
0
0
0
0
0
0
0
0
0
0
0
0
0
0
0
0
0
0
0
0
-1.467259747e-08
-8.287300186e-09
-4.433005918e-09
-3.119695877e-09
-3.157569654e-09
-4.274569471e-09
-6.497438984e-09
-9.976277833e-09
-1.485446768e-08
-2.108064713e-08
-2.814903182e-08
-3.682086008e-08
-1.03631202e-07
-1.803409345e-07
-1.611432547e-07
-0.005844851033
0
0
0
0
0
0
0
0
0
0
0
0
0
0
0
0
0
0
0
0
0
0
0
0
0
0
0
0
0
0
0
0
0
0
0
0
0
0
0
0
0
0
0
0
-5.024385668e-09
-4.038031917e-09
-2.916250907e-09
-2.514695264e-09
-2.85588733e-09
-3.958607004e-09
-5.88771541e-09
-8.723936557e-09
-1.250499503e-08
-1.718191219e-08
-2.267993497e-08
-2.959418606e-08
-6.316509944e-08
-9.715012324e-08
-2.524767665e-07
162.6843961
0
0
0
0
0
0
0
0
0
0
0
0
0
-0.002528936189
0
0
0
0
0
0
0
0
0
0
0
0
0
0
0
0
0
0
0
0
0
0
0
0
0
0
0
0
0
0
-1.844566013e-10
-1.132685796e-09
-1.427874604e-09
-1.802577974e-09
-2.499428345e-09
-3.677190557e-09
-5.436682229e-09
-7.866563221e-09
-1.10543371e-08
-1.526337564e-08
-2.130243633e-08
-3.094692278e-08
-4.099207994e-08
2.176196887e-08
1.098977097e-07
-0.0007007671588
115.4395655
0
0
0
0
0
0
0
0
0
0
0
-0.00529066684
-1.894237256e-05
7.506527781
0
0
0
0
0
0
0
0
0
0
0
0
0
0
0
0
0
0
0
0
0
0
0
0
0
0
0
0
0
2.996898155e-09
9.326684531e-10
-2.475246542e-10
-1.184525593e-09
-2.176714518e-09
-3.405383519e-09
-4.950589674e-09
-6.738521741e-09
-8.468378528e-09
-9.376748288e-09
-7.70304608e-09
7.895494694e-10
2.677185024e-08
8.335245889e-08
2.48840812e-07
-0.0001163844949
46.23581439
0
0
0
0
0
0
0
0
0
0
0
393.7128196
-0.002066295491
425.9718306
0
0
0
0
0
0
0
0
0
0
0
0
0
0
0
0
0
0
0
0
0
0
0
0
0
0
0
0
0
5.029282023e-09
2.279109784e-09
5.699971397e-10
-7.392742454e-10
-1.92982346e-09
-3.188465618e-09
-4.52921779e-09
-5.733674432e-09
-6.16164582e-09
-4.437125717e-09
2.167265913e-09
1.871237848e-08
5.375723145e-08
1.150162428e-07
1.66286323e-07
1.807977674e-07
-1.926247897e-07
21.92721345
18.22874913
0
0
0
0
0
0
0
-0.005972238653
20.34657071
-5.117034811e-05
-2.519401748e-10
-9.828763159e-05
0
0
0
0
0
0
0
0
0
0
0
0
0
0
0
0
0
0
0
0
0
0
0
0
0
0
0
0
0
6.134545475e-09
3.024989268e-09
1.036740262e-09
-4.794819224e-10
-1.796934053e-09
-3.094981834e-09
-4.360841036e-09
-5.321635419e-09
-5.278025159e-09
-2.925534525e-09
3.84470597e-09
1.786861567e-08
4.208682751e-08
7.736690932e-08
1.317344809e-07
2.298760791e-07
5.374260497e-07
-5.472260352e-05
-4.604620521e-05
441.0458492
132.9583696
126.7899674
66.44120738
117.6990121
105.8928943
360.0707085
-1.786462442e-07
-1.462874113e-07
-1.238965606e-08
7.108192839e-08
-0.008773702983
0
0
0
0
0
0
0
0
0
0
0
0
0
0
0
0
0
0
0
0
0
0
0
0
0
0
0
0
0
6.423663722e-09
3.257903765e-09
1.202966055e-09
-3.845772245e-10
-1.773110551e-09
-3.139147997e-09
-4.478352605e-09
-5.521753316e-09
-5.615641571e-09
-3.608326056e-09
2.089137936e-09
1.300870383e-08
2.935218389e-08
4.841434132e-08
7.165633767e-08
1.112152657e-07
1.683814638e-07
2.373653228e-07
7.059131865e-07
-0.002211538977
-0.0006554113317
-0.0006224748264
-0.0003180323844
-0.0005775872143
-0.0005205318966
-0.001805470916
-1.814843387e-07
-2.047053785e-07
-3.117544354e-07
-1.957096959e-07
-0.007212221876
0
0
0
0
0
0
0
0
0
0
0
0
0
0
0
0
0
0
0
0
0
0
0
0
0
0
0
0
0
5.995534035e-09
3.054609988e-09
1.119691118e-09
-4.277403013e-10
-1.841877536e-09
-3.311621077e-09
-4.857532113e-09
-6.248560495e-09
-6.842223341e-09
-5.389578435e-09
1.581888186e-10
1.262517863e-08
3.495131237e-08
6.814945834e-08
1.200283977e-07
2.134829986e-07
5.162619152e-07
-4.392198452e-05
-2.758762333e-05
436.8921333
127.0402084
120.1428564
59.72073683
111.4271103
100.5996502
356.5225472
-2.262347666e-07
-1.622123481e-07
-2.448581214e-08
6.306844462e-08
-0.008774500233
0
0
0
0
0
0
0
0
0
0
0
0
0
0
0
0
0
0
0
0
0
0
0
0
0
0
0
0
0
4.982456253e-09
2.508154783e-09
8.440148874e-10
-5.718493669e-10
-1.979155819e-09
-3.587538177e-09
-5.480468256e-09
-7.528193809e-09
-9.205142958e-09
-9.25508646e-09
-5.062292665e-09
8.360674164e-09
3.954590744e-08
9.639932577e-08
1.42709821e-07
1.52522258e-07
-2.163023623e-07
17.63588928
10.89959331
0
0
0
0
0
0
0
-0.006186229415
17.08496159
-4.295209459e-05
-2.154444654e-10
-8.647299967e-05
0
0
0
0
0
0
0
0
0
0
0
0
0
0
0
0
0
0
0
0
0
0
0
0
0
0
0
0
0
3.566031475e-09
1.728456129e-09
4.414317952e-10
-7.786969128e-10
-2.151816583e-09
-3.919232573e-09
-6.263819675e-09
-9.262398711e-09
-1.277767581e-08
-1.62304088e-08
-1.801986292e-08
-1.406102232e-08
6.263631874e-09
5.682227549e-08
2.145840359e-07
-0.0001046080497
41.55317049
0
0
0
0
0
0
0
0
0
0
0
391.8050893
-0.002065114083
427.410757
0
0
0
0
0
0
0
0
0
0
0
0
0
0
0
0
0
0
0
0
0
0
0
0
0
0
0
0
0
1.963031191e-09
8.39980307e-10
-2.079821153e-11
-1.01093023e-09
-2.325121464e-09
-4.230866966e-09
-7.005710229e-09
-1.093937038e-08
-1.635585789e-08
-2.375250508e-08
-3.415108173e-08
-4.955488104e-08
-6.619654806e-08
-1.453757667e-08
7.09836388e-08
-0.0006627740451
106.5547472
0
0
0
0
0
0
0
0
0
0
0
-0.005417580673
-2.511078054e-05
9.95338304
0
0
0
0
0
0
0
0
0
0
0
0
0
0
0
0
0
0
0
0
0
0
0
0
0
0
0
0
0
4.048280076e-10
-3.040681834e-11
-4.795390956e-10
-1.243396084e-09
-2.488746879e-09
-4.492990152e-09
-7.580094738e-09
-1.210154237e-08
-1.839429633e-08
-2.675928681e-08
-3.752695319e-08
-5.189834649e-08
-9.695120973e-08
-1.51668604e-07
-2.812991253e-07
156.4892919
0
0
0
0
0
0
0
0
0
0
0
0
0
-0.002528705261
0
0
0
0
0
0
0
0
0
0
0
0
0
0
0
0
0
0
0
0
0
0
0
0
0
0
0
0
0
0
-8.966638036e-10
-7.688224862e-10
-8.816577889e-10
-1.463679689e-09
-2.662215853e-09
-4.772953044e-09
-8.180143424e-09
-1.334306085e-08
-2.072655658e-08
-3.066396196e-08
-4.311813139e-08
-5.952902501e-08
-1.395734494e-07
-2.387763435e-07
-1.97002953e-07
-0.006212997051
0
0
0
0
0
0
0
0
0
0
0
0
0
0
0
0
0
0
0
0
0
0
0
0
0
0
0
0
0
0
0
0
0
0
0
0
0
0
0
0
0
0
0
0
-1.776737761e-09
-1.285893669e-09
-1.182826602e-09
-1.651997805e-09
-2.834380434e-09
-5.051297788e-09
-8.775960178e-09
-1.468552617e-08
-2.37586943e-08
-3.74424027e-08
-5.77693146e-08
-8.582080248e-08
-9.243811401e-08
-1.14730621e-07
-0.0001753860787
69.5680886
0
0
0
0
0
0
0
0
0
0
0
0
0
0
0
0
0
0
0
0
0
0
0
0
0
0
0
0
0
0
0
0
0
0
0
0
0
0
0
0
0
0
0
0
-2.144710045e-09
-1.530714092e-09
-1.353067761e-09
-1.782851552e-09
-2.954522321e-09
-5.1861116e-09
-8.950705743e-09
-1.493460448e-08
-2.413461528e-08
-3.803793467e-08
-5.871812654e-08
-8.735809198e-08
-9.477934343e-08
-1.185667471e-07
-0.0001753173115
69.53973364
0
0
0
0
0
0
0
0
0
0
0
0
0
0
0
0
0
0
0
0
0
0
0
0
0
0
0
0
0
0
0
0
0
0
0
0
0
0
0
0
0
0
0
0
-1.993785353e-09
-1.497973146e-09
-1.38788498e-09
-1.851241065e-09
-3.017138079e-09
-5.169325208e-09
-8.69465472e-09
-1.407409852e-08
-2.182936349e-08
-3.239117289e-08
-4.588669352e-08
-6.394454444e-08
-1.464614512e-07
-2.503989581e-07
-2.059908564e-07
-0.006215769986
0
0
0
0
0
0
0
0
0
0
0
0
0
0
0
0
0
0
0
0
0
0
0
0
0
0
0
0
0
0
0
0
0
0
0
0
0
0
0
0
0
0
0
0
-1.402837728e-09
-1.228772754e-09
-1.308138329e-09
-1.874513781e-09
-3.063288175e-09
-5.13308065e-09
-8.410786153e-09
-1.328285354e-08
-2.016629377e-08
-2.950505178e-08
-4.182743122e-08
-5.865283209e-08
-1.080120686e-07
-1.712403246e-07
-2.855780562e-07
156.406716
0
0
0
0
0
0
0
0
0
0
0
0
0
-0.00247837817
0
0
0
0
0
0
0
0
0
0
0
0
0
0
0
0
0
0
0
0
0
0
0
0
0
0
0
0
0
0
-5.180610241e-10
-7.987903699e-10
-1.147744855e-09
-1.863894587e-09
-3.098214697e-09
-5.092994883e-09
-8.130907968e-09
-1.254686499e-08
-1.876273493e-08
-2.743122194e-08
-3.977679536e-08
-5.802838292e-08
-7.849344591e-08
-3.084952225e-08
5.720148988e-08
-0.0006619167833
106.2901468
0
0
0
0
0
0
0
0
0
0
0
-0.005430656131
-2.640565848e-05
10.46709155
0
0
0
0
0
0
0
0
0
0
0
0
0
0
0
0
0
0
0
0
0
0
0
0
0
0
0
0
0
4.706114661e-10
-3.051102904e-10
-9.47331972e-10
-1.824006256e-09
-3.099660724e-09
-4.986092917e-09
-7.675488648e-09
-1.130055714e-08
-1.583686537e-08
-2.087203608e-08
-2.502673511e-08
-2.447273834e-08
-9.036271339e-09
3.353698209e-08
1.759572851e-07
-0.0001041156038
41.34922237
0
0
0
0
0
0
0
0
0
0
0
391.1475364
-0.002065608438
428.2645126
0
0
0
0
0
0
0
0
0
0
0
0
0
0
0
0
0
0
0
0
0
0
0
0
0
0
0
0
0
1.366659805e-09
1.500271968e-10
-7.530532833e-10
-1.770803504e-09
-3.07567115e-09
-4.848853036e-09
-7.187244809e-09
-1.003196161e-08
-1.297631951e-08
-1.493312882e-08
-1.346192349e-08
-3.752801496e-09
2.266979782e-08
7.329365751e-08
1.092262849e-07
1.168427704e-07
-2.427915633e-07
17.2768163
10.02012392
0
0
0
0
0
0
0
-0.006133422172
18.12055558
-4.555887264e-05
-8.500694533e-11
-3.379468263e-05
0
0
0
0
0
0
0
0
0
0
0
0
0
0
0
0
0
0
0
0
0
0
0
0
0
0
0
0
0
1.998799207e-09
4.778203888e-10
-6.093993752e-10
-1.726475885e-09
-3.057187239e-09
-4.759307523e-09
-6.884112642e-09
-9.280335034e-09
-1.144854866e-08
-1.230842532e-08
-9.993235746e-09
-1.817730904e-09
1.511207319e-08
4.199687119e-08
8.726514853e-08
1.732951803e-07
4.698710087e-07
-4.30462384e-05
-2.536522238e-05
435.2302211
128.5608766
122.6369614
62.44464494
113.9959277
102.5664572
357.0164545
-1.908456498e-07
-1.540886135e-07
-2.266302301e-08
8.194621933e-08
-0.008695011692
0
0
0
0
0
0
0
0
0
0
0
0
0
0
0
0
0
0
0
0
0
0
0
0
0
0
0
0
0
2.257110517e-09
6.176039515e-10
-5.455726195e-10
-1.710603919e-09
-3.064224928e-09
-4.763484967e-09
-6.848192892e-09
-9.15755665e-09
-1.120093338e-08
-1.202378109e-08
-1.022879158e-08
-4.410061909e-09
5.653224727e-09
1.762655482e-08
3.38798542e-08
6.586858122e-08
1.197663252e-07
2.122818917e-07
6.709043903e-07
-0.002192593856
-0.0006481286377
-0.0006184153561
-0.0003150798948
-0.000575085263
-0.0005175344094
-0.001799388307
-1.937920834e-07
-2.087817854e-07
-3.267266537e-07
-1.790062158e-07
-0.007138562331
0
0
0
0
0
0
0
0
0
0
0
0
0
0
0
0
0
0
0
0
0
0
0
0
0
0
0
0
0
2.107531811e-09
5.517274245e-10
-5.700632181e-10
-1.728139228e-09
-3.101999176e-09
-4.869228056e-09
-7.083035451e-09
-9.617563248e-09
-1.19695494e-08
-1.30790911e-08
-1.107014339e-08
-3.294744202e-09
1.31480578e-08
3.955573657e-08
8.436500982e-08
1.677578497e-07
4.659332219e-07
-4.249323292e-05
-2.471097442e-05
435.1811727
128.5486931
122.6854901
62.54606192
114.1376788
102.736998
357.160159
-2.121263238e-07
-1.730488072e-07
9.036133356e-09
7.434149297e-08
-0.008690896168
0
0
0
0
0
0
0
0
0
0
0
0
0
0
0
0
0
0
0
0
0
0
0
0
0
0
0
0
0
1.600929902e-09
3.132448726e-10
-6.71500447e-10
-1.766399551e-09
-3.166677943e-09
-5.061685153e-09
-7.587146958e-09
-1.069935671e-08
-1.402882674e-08
-1.648141266e-08
-1.565243644e-08
-6.718203012e-09
1.878953893e-08
6.823757046e-08
1.008161872e-07
1.065708279e-07
-2.509230268e-07
17.05672269
9.759568854
0
0
0
0
0
0
0
-0.006121988256
18.3328613
-4.610318287e-05
-8.18533442e-11
-2.985053753e-05
0
0
0
0
0
0
0
0
0
0
0
0
0
0
0
0
0
0
0
0
0
0
0
0
0
0
0
0
0
8.712314218e-10
-3.57177072e-11
-8.08166655e-10
-1.813447899e-09
-3.229455294e-09
-5.304224048e-09
-8.266040122e-09
-1.230354519e-08
-1.74202714e-08
-2.323790701e-08
-2.838809504e-08
-2.910481042e-08
-1.525092392e-08
2.552643695e-08
1.647273789e-07
-0.0001032391033
40.9977723
0
0
0
0
0
0
0
0
0
0
0
391.0692514
-0.002065449672
428.2798371
0
0
0
0
0
0
0
0
0
0
0
0
0
0
0
0
0
0
0
0
0
0
0
0
0
0
0
0
0
1.003377684e-10
-3.910703944e-10
-9.36830187e-10
-1.835391228e-09
-3.263137409e-09
-5.507698498e-09
-8.906925567e-09
-1.386711871e-08
-2.086484129e-08
-3.060242547e-08
-4.431687985e-08
-6.427840823e-08
-8.6710063e-08
-4.184370367e-08
4.435446966e-08
-0.0006578130921
105.4936056
0
0
0
0
0
0
0
0
0
0
0
-0.005433004659
-2.643300587e-05
10.47795229
0
0
0
0
0
0
0
0
0
0
0
0
0
0
0
0
0
0
0
0
0
0
0
0
0
0
0
0
0
-5.063279354e-10
-6.51961618e-10
-1.014333096e-09
-1.827467468e-09
-3.267644333e-09
-5.645890959e-09
-9.364248727e-09
-1.489651172e-08
-2.274976353e-08
-3.343102817e-08
-4.753189911e-08
-6.653899897e-08
-1.185239934e-07
-1.859225105e-07
-2.967019891e-07
155.5736887
0
0
0
0
0
0
0
0
0
0
0
0
0
-0.002462870183
0
0
0
0
0
0
0
0
0
0
0
0
0
0
0
0
0
0
0
0
0
0
0
0
0
0
0
0
0
0
-7.624487146e-10
-7.319501265e-10
-1.010405384e-09
-1.797790999e-09
-3.2755433e-09
-5.791608594e-09
-9.819247724e-09
-1.594865662e-08
-2.481421036e-08
-3.69523041e-08
-5.252571146e-08
-7.319442304e-08
-1.588477281e-07
-2.670897874e-07
-2.14578653e-07
-0.006276739491
0
0
0
0
0
0
0
0
0
0
0
0
0
0
0
0
0
0
0
0
0
0
0
0
0
0
0
0
0
0
0
0
0
0
0
0
0
0
0
0
0
0
0
0
-5.492495531e-10
-5.812036458e-10
-9.182928822e-10
-1.75899321e-09
-3.30654684e-09
-5.951301789e-09
-1.026295018e-08
-1.705034934e-08
-2.745585463e-08
-4.310384301e-08
-6.618032695e-08
-9.782484197e-08
-1.094377918e-07
-1.388725361e-07
-0.0001683702509
66.77977147
0
0
0
0
0
0
0
0
0
0
0
0
0
0
0
0
0
0
0
0
0
0
0
0
0
0
0
0
0
0
0
0
0
0
0
0
0
0
0
0
0
0
0
0
1.556570687e-10
-2.093084124e-10
-7.609439576e-10
-1.735219006e-09
-3.360202434e-09
-6.036774855e-09
-1.033588438e-08
-1.706382607e-08
-2.736442031e-08
-4.287736694e-08
-6.58054351e-08
-9.738182753e-08
-1.091620987e-07
-1.386598807e-07
-0.0001645503572
65.26519055
0
0
0
0
0
0
0
0
0
0
0
0
0
0
0
0
0
0
0
0
0
0
0
0
0
0
0
0
0
0
0
0
0
0
0
0
0
0
0
0
0
0
0
0
1.244542534e-09
2.97119167e-10
-6.108370237e-10
-1.792747644e-09
-3.506351848e-09
-6.128203108e-09
-1.01290579e-08
-1.608084229e-08
-2.461293529e-08
-3.629459769e-08
-5.139235059e-08
-7.169979398e-08
-1.584723382e-07
-2.662429665e-07
-2.064840806e-07
-0.006438666525
0
0
0
0
0
0
0
0
0
0
0
0
0
0
0
0
0
0
0
0
0
0
0
0
0
0
0
0
0
0
0
0
0
0
0
0
0
0
0
0
0
0
0
0
2.46988829e-09
7.662982304e-10
-5.924385408e-10
-2.04101271e-09
-3.884059696e-09
-6.473660837e-09
-1.018580588e-08
-1.543255191e-08
-2.266813678e-08
-3.243780158e-08
-4.556523393e-08
-6.41753816e-08
-1.179733129e-07
-1.886798166e-07
-3.339262813e-07
149.7272741
0
0
0
0
0
0
0
0
0
0
0
0
0
-0.002961357906
0
0
0
0
0
0
0
0
0
0
0
0
0
0
0
0
0
0
0
0
0
0
0
0
0
0
0
0
0
0
3.436448294e-09
9.411498903e-10
-8.709141071e-10
-2.60025689e-09
-4.61257321e-09
-7.228814366e-09
-1.071390192e-08
-1.531085601e-08
-2.132207209e-08
-2.935384861e-08
-4.083569476e-08
-5.871251711e-08
-8.137218096e-08
-5.431864948e-08
-1.318833319e-09
-0.0005674743457
75.50276747
0
0
0
0
0
0
0
0
0
0
0
-0.005872336876
-1.698030901e-05
6.727174156
0
0
0
0
0
0
0
0
0
0
0
0
0
0
0
0
0
0
0
0
0
0
0
0
0
0
0
0
0
3.600631468e-09
4.854280612e-10
-1.637188802e-09
-3.585250049e-09
-5.780849496e-09
-8.476766499e-09
-1.174585144e-08
-1.546196115e-08
-1.925268194e-08
-2.24388517e-08
-2.378592959e-08
-2.042610119e-08
-3.987885851e-09
3.452542993e-08
1.713031908e-07
-1.46995477e-06
0.5892347337
0
0
0
0
0
0
0
0
0
0
0
381.0144694
-0.00199176543
409.0996093
0
0
0
0
0
0
0
0
0
0
0
0
0
0
0
0
0
0
0
0
0
0
0
0
0
0
0
0
0
2.217825543e-09
-1.010161252e-09
-3.077767962e-09
-5.091595032e-09
-7.479789753e-09
-1.03781747e-08
-1.362956361e-08
-1.669399651e-08
-1.848337556e-08
-1.7215391e-08
-1.036391077e-08
5.631081723e-09
3.677872865e-08
9.246425628e-08
9.520252345e-08
6.461250083e-08
-4.418714197e-07
697.495254
95.21606311
0
0
0
0
0
0
0
-0.0008339508787
369.2903067
-4.774016141e-07
-6.155990491e-09
-0.002441608337
0
0
0
0
0
0
0
0
0
0
0
0
0
0
0
0
0
0
0
0
0
0
0
0
0
0
0
0
0
-1.727516298e-09
-3.951567636e-09
-5.27748571e-09
-7.137139775e-09
-9.762061387e-09
-1.309381342e-08
-1.676369271e-08
-1.990903893e-08
-2.087575613e-08
-1.708571218e-08
-5.897674932e-09
1.294033215e-08
3.175309138e-08
5.142808939e-08
1.142899063e-07
3.442963197e-07
6.467283094e-07
-0.001757106585
-0.0004547442866
85.17665405
281.8246233
158.0677184
0
157.0954245
279.6009393
-0.002697986191
-2.99902475e-09
-0.0009305566202
-4.467728166e-09
-3.118692164e-07
-0.01412385648
0
0
0
0
0
0
0
0
0
0
0
0
0
0
0
0
0
0
0
0
0
0
0
0
0
0
0
0
0
-1.188849368e-08
-9.059946088e-09
-8.052357461e-09
-9.575629979e-09
-1.259923004e-08
-1.670199101e-08
-2.136480247e-08
-2.556592239e-08
-2.717174039e-08
-2.210532875e-08
-4.964840765e-09
2.81430032e-08
5.733621736e-08
9.635342784e-08
2.315613238e-07
3.896251607e-07
7.570162274e-07
7.683275264e-07
-7.489292384e-09
-0.000290531784
-0.001966397994
-0.0006774385405
-0.04744438141
-0.0006583180445
-0.001917430424
-0.0001896341459
-1.664187732e-08
-9.016519195e-08
3.508980517e-08
-2.324043711e-09
-0.00546205929
0
0
0
0
0
0
0
0
0
0
0
0
0
0
0
0
0
0
0
0
0
0
0
0
0
0
0
0
0
-1.231802036e-08
-9.920560902e-09
-9.578935192e-09
-1.187719286e-08
-1.589441657e-08
-2.123934809e-08
-2.748111953e-08
-3.384524296e-08
-3.841367742e-08
-3.58142596e-08
-1.578097843e-08
4.292673193e-08
8.124163599e-08
2.5467523e-07
4.543898281e-07
-2.329620995e-05
-0.000109083696
-0.003842296925
-0.002970354061
115.2503912
498.2361608
110.6456952
0
104.0320347
481.034642
75.22462674
-0.006601396974
-0.01150572174
-0.0002025062457
-0.0009502427948
216.1777766
0
0
0
0
0
0
0
0
0
0
0
0
0
0
0
0
0
0
0
0
0
0
0
0
0
0
0
0
0
-4.034743993e-09
-6.944054776e-09
-1.000248422e-08
-1.419471709e-08
-1.986579734e-08
-2.691001849e-08
-3.502874624e-08
-4.399490288e-08
-5.372330731e-08
-6.014861456e-08
-5.305096645e-08
1.123851239e-11
7.614794321e-08
2.793712403e-07
-5.989026494e-08
9.403951857
43.32202135
0
0
0
0
0
0
0
0
0
0
0
80.45939334
160.7790504
0
0
0
0
0
0
0
0
0
0
0
0
0
0
0
0
0
0
0
0
0
0
0
0
0
0
0
0
0
0
-2.360119176e-09
-6.286499314e-09
-1.114293709e-08
-1.727375034e-08
-2.51211155e-08
-3.445749972e-08
-4.448992324e-08
-5.462589558e-08
-6.759754709e-08
-8.59574576e-08
-1.314478056e-07
-1.223812638e-07
-0.0001379234589
-0.0008204761811
230.6622461
0
0
0
0
0
0
0
0
0
0
0
0
0
0
0
0
0
0
0
0
0
0
0
0
0
0
0
0
0
0
0
0
0
0
0
0
0
0
0
0
0
0
0
0
0
-1.901528623e-09
-6.440514906e-09
-1.288823203e-08
-2.125599399e-08
-3.222361357e-08
-4.546622643e-08
-5.882010956e-08
-6.708327598e-08
-6.806846653e-08
-1.037059118e-07
-2.214428344e-07
-4.366797928e-07
54.75643434
94.92021822
0
0
0
0
0
0
0
0
0
0
0
0
0
0
0
0
0
0
0
0
0
0
0
0
0
0
0
0
0
0
0
0
0
0
0
0
0
0
0
0
0
0
0
0
0
0
-1.780783919e-09
-6.813735324e-09
-1.471933781e-08
-2.553738143e-08
-4.082512392e-08
-6.160840289e-08
-8.706623962e-08
-1.096446989e-07
-1.147205139e-07
-6.562822337e-08
-0.0001872436745
74.2742702
0
0
0
0
0
0
0
0
0
0
0
0
0
0
0
0
0
0
0
0
0
0
0
0
0
0
0
0
0
0
0
0
0
0
0
0
0
0
0
0
0
0
0
0
0
0
0
0
-1.676041066e-09
-6.928475918e-09
-1.575895788e-08
-2.829155951e-08
-4.717631604e-08
-7.60128132e-08
-1.197723984e-07
-1.750253548e-07
-1.578320724e-07
-6.288791526e-08
-0.0006807620784
172.9872056
0
0
0
0
0
0
0
0
0
0
0
0
0
0
0
0
0
0
0
0
0
0
0
0
0
0
0
0
0
0
0
0
0
0
0
0
0
0
0
0
0
0
0
0
0
0
0
0
-1.470938985e-09
-6.443020005e-09
-1.516091764e-08
-2.738285263e-08
-4.547035136e-08
-7.244963329e-08
-1.134354067e-07
-2.199955136e-07
-3.151014187e-07
-3.648860053e-07
97.15187189
0
0
0
0
0
0
0
0
0
0
0
0
0
0
0
0
0
0
0
0
0
0
0
0
0
0
0
0
0
0
0
0
0
0
0
0
0
0
0
0
0
0
0
0
0
0
0
0
0
)
;

boundaryField
{
    lowerWall
    {
        type            calculated;
        value           uniform 0;
    }
    atmosphere
    {
        type            calculated;
        value           nonuniform List<scalar> 
60
(
2.087325362e-10
2.245544257e-10
2.411579786e-10
2.582840736e-10
2.757573979e-10
2.915199039e-10
3.040572945e-10
3.112032098e-10
3.103400865e-10
2.966355705e-10
2.58650698e-10
1.646723989e-10
-8.034110328e-11
-8.015291132e-10
-3.011377103e-09
-1.303963345e-08
-1.467259747e-08
-5.024385668e-09
-1.844566013e-10
2.996898155e-09
5.029282023e-09
6.134545475e-09
6.423663722e-09
5.995534035e-09
4.982456253e-09
3.566031475e-09
1.963031191e-09
4.048280076e-10
-8.966638036e-10
-1.776737761e-09
-2.144710045e-09
-1.993785353e-09
-1.402837728e-09
-5.180610241e-10
4.706114661e-10
1.366659805e-09
1.998799207e-09
2.257110517e-09
2.107531811e-09
1.600929902e-09
8.712314218e-10
1.003377684e-10
-5.063279354e-10
-7.624487146e-10
-5.492495531e-10
1.556570687e-10
1.244542534e-09
2.46988829e-09
3.436448294e-09
3.600631468e-09
2.217825543e-09
-1.727516298e-09
-1.188849368e-08
-1.231802036e-08
-4.034743993e-09
-2.360119176e-09
-1.901528623e-09
-1.780783919e-09
-1.676041066e-09
-1.470938985e-09
)
;
    }
    rightWall
    {
        type            empty;
    }
    leftWall
    {
        type            empty;
    }
    frontAndBack
    {
        type            calculated;
        value           nonuniform List<scalar> 
120
(
2.087325362e-10
3.55910145e-10
6.166400492e-11
-2.221851706e-10
-5.460611352e-10
-8.955464767e-10
-1.276334571e-09
-1.697077094e-09
-2.168569704e-09
-2.710694885e-09
-3.347687176e-09
-4.113978226e-09
-5.058574551e-09
-6.267943542e-09
-7.859892701e-09
-9.902550537e-09
-1.219506277e-08
-1.403905619e-08
-1.443533017e-08
-1.335850237e-08
-1.294852159e-08
-1.420982297e-08
-1.595135158e-08
-1.838198928e-08
-2.338375276e-08
-3.31869827e-08
-4.60841e-08
-6.204687812e-08
-7.526162171e-08
-3.063716783e-08
-0.0007016256525
0
0
0
0
0
0
0
0
0
0
0
0
0
0
0
0
0
0
0
0
0
0
0
0
0
0
0
0
0
-1.470938985e-09
-6.443020005e-09
-1.516091764e-08
-2.738285263e-08
-4.547035136e-08
-7.244963329e-08
-1.134354067e-07
-2.199955136e-07
-3.151014187e-07
-3.648860053e-07
97.15187189
0
0
0
0
0
0
0
0
0
0
0
0
0
0
0
0
0
0
0
0
0
0
0
0
0
0
0
0
0
0
0
0
0
0
0
0
0
0
0
0
0
0
0
0
0
0
0
0
0
)
;
    }
}


// ************************************************************************* //
