/*--------------------------------*- C++ -*----------------------------------*\
  =========                 |
  \\      /  F ield         | OpenFOAM: The Open Source CFD Toolbox
   \\    /   O peration     | Website:  https://openfoam.org
    \\  /    A nd           | Version:  6
     \\/     M anipulation  |
\*---------------------------------------------------------------------------*/
FoamFile
{
    version     2.0;
    format      ascii;
    class       surfaceScalarField;
    location    "0.0019";
    object      phi;
}
// * * * * * * * * * * * * * * * * * * * * * * * * * * * * * * * * * * * * * //

dimensions      [0 3 -1 0 0 0 0];

internalField   nonuniform List<scalar> 
19000
(
4.985687965e-19
-7.38280788e-23
5.005641827e-19
-2.280842379e-22
5.026293563e-19
-3.924148534e-22
5.048286054e-19
-5.546477326e-22
5.071056451e-19
-7.149774422e-22
5.094615801e-19
-8.727842517e-22
5.118968489e-19
-1.027893205e-21
5.144114927e-19
-1.179485895e-21
5.17004967e-19
-1.327257557e-21
5.196765821e-19
-1.470262368e-21
5.224251276e-19
-1.608083874e-21
5.252491544e-19
-1.739649359e-21
5.281464678e-19
-1.864425645e-21
5.311143157e-19
-1.98120222e-21
5.341487941e-19
-2.089318261e-21
5.372450095e-19
-2.187410066e-21
5.403964926e-19
-2.274668418e-21
5.43595428e-19
-2.349543955e-21
5.468321304e-19
-2.411036345e-21
5.500953287e-19
-2.457370027e-21
5.533716446e-19
-2.487320573e-21
5.566458334e-19
-2.498871407e-21
5.599002121e-19
-2.490583458e-21
5.631149171e-19
-2.460205724e-21
5.662673982e-19
-2.406076058e-21
5.693328234e-19
-2.325678654e-21
5.722836763e-19
-2.217085044e-21
5.750902025e-19
-2.07749066e-21
5.777199301e-19
-1.904724635e-21
5.80138006e-19
-1.695775469e-21
5.823066251e-19
-1.448358321e-21
5.84185413e-19
-1.159391092e-21
5.857310034e-19
-8.265907259e-22
5.868976538e-19
-4.468944507e-22
5.876369959e-19
-1.811963865e-23
5.878987507e-19
4.626232804e-22
5.87630462e-19
9.971628467e-22
5.867782084e-19
1.587853152e-21
5.852863938e-19
2.235728289e-21
5.83098668e-19
2.942142459e-21
5.801580301e-19
3.706889682e-21
5.764081474e-19
4.52991835e-21
5.717938218e-19
5.409390867e-21
5.662626523e-19
6.343434553e-21
5.597657544e-19
7.328096361e-21
5.522596532e-19
8.359110771e-21
5.437071563e-19
9.429761031e-21
5.340793883e-19
1.053271435e-20
5.233567306e-19
1.165785345e-20
5.115309347e-19
1.279425665e-20
4.986061165e-19
1.392806718e-20
4.846009855e-19
1.50446693e-20
4.695499089e-19
1.612661429e-20
4.535051563e-19
1.715599907e-20
4.36537711e-19
1.811242405e-20
4.187389728e-19
1.897555922e-20
4.002206491e-19
1.972313368e-20
3.811153758e-19
2.033372081e-20
3.615754653e-19
2.078481264e-20
3.41772597e-19
2.105588336e-20
3.218957375e-19
2.112655409e-20
3.021500799e-19
2.097986468e-20
2.82753935e-19
2.060037294e-20
2.639363933e-19
1.997742891e-20
2.459326649e-19
1.910301671e-20
2.289803927e-19
1.797489959e-20
2.133140614e-19
1.659414754e-20
1.99161169e-19
1.496812985e-20
1.86737045e-19
1.310769005e-20
1.762418729e-19
1.102987565e-20
1.678563089e-19
8.754612189e-21
1.617393105e-19
6.307015505e-21
1.58024511e-19
3.713511288e-21
1.568192331e-19
1.00380352e-21
1.582025332e-19
-1.793322145e-21
1.622265775e-19
-4.648072197e-21
1.689172876e-19
-7.53383297e-21
1.782783037e-19
-1.042505347e-20
1.902935998e-19
-1.330124288e-20
2.04932699e-19
-1.614454999e-20
2.22153617e-19
-1.894339252e-20
2.419077449e-19
-2.168949811e-20
2.641418207e-19
-2.438083246e-20
2.888014911e-19
-2.701782229e-20
3.158315393e-19
-2.960540108e-20
3.451773997e-19
-3.214850857e-20
3.7678289e-19
-3.46535891e-20
4.105888502e-19
-3.712395325e-20
4.46527613e-19
-3.956137956e-20
4.845183279e-19
-4.196199277e-20
5.244583818e-19
-4.431844341e-20
5.66216426e-19
-4.661664724e-20
6.096225441e-19
-4.883870279e-20
6.544611637e-19
-5.09605715e-20
7.004620794e-19
-5.295569425e-20
7.472948956e-19
-5.479351235e-20
7.945619963e-19
-5.644350407e-20
8.417951646e-19
-5.787415165e-20
8.884508528e-19
-5.905683356e-20
9.339089633e-19
-5.99646282e-20
9.774698184e-19
-6.057543675e-20
1.018353572e-18
-6.087020399e-20
1.055696866e-18
-6.08349912e-20
1.08855134e-18
-6.045861023e-20
1.115880323e-18
-5.973382556e-20
1.136559102e-18
-5.865465696e-20
1.14937512e-18
-5.7216982e-20
1.153031511e-18
-5.541571522e-20
1.146148365e-18
-5.324500283e-20
1.12726511e-18
-5.069570951e-20
1.094840898e-18
-4.775577698e-20
1.047257634e-18
-4.440845412e-20
9.828238887e-19
-4.063267487e-20
8.99783206e-19
-3.640246246e-20
7.963331022e-19
-3.16870808e-20
6.706558709e-19
-2.645282502e-20
5.208706251e-19
-2.066109992e-20
3.440668188e-19
-1.427814408e-20
1.287143733e-19
-7.279692361e-21
1.607320546e-32
4.97856195e-19
-1.555025165e-22
4.998355768e-19
-4.708943012e-22
5.01908396e-19
-7.919416087e-22
5.041085382e-19
-1.113865856e-21
5.063879425e-19
-1.433263641e-21
5.087464318e-19
-1.748802357e-21
5.111851061e-19
-2.058855051e-21
5.137034678e-19
-2.362548007e-21
5.163017153e-19
-2.658273604e-21
5.189786148e-19
-2.94504421e-21
5.217337162e-19
-3.221067452e-21
5.245650142e-19
-3.485153259e-21
5.274710979e-19
-3.735263321e-21
5.304486493e-19
-3.969966097e-21
5.334945793e-19
-4.186947235e-21
5.366034268e-19
-4.38449921e-21
5.397695826e-19
-4.559981013e-21
5.42984674e-19
-4.711340952e-21
5.462399184e-19
-4.835529567e-21
5.495234891e-19
-4.930065233e-21
5.528229327e-19
-4.991427905e-21
5.561224234e-19
-5.016688221e-21
5.594052282e-19
-5.001861793e-21
5.626508927e-19
-4.943579308e-21
5.658378652e-19
-4.837367803e-21
5.689407257e-19
-4.679349189e-21
5.719329794e-19
-4.464478052e-21
5.74784229e-19
-4.188328075e-21
5.774629769e-19
-3.845338476e-21
5.799336135e-19
-3.430703262e-21
5.821592457e-19
-2.938589087e-21
5.840986447e-19
-2.3640635e-21
5.857093153e-19
-1.701231293e-21
5.869445452e-19
-9.452093268e-22
5.877567242e-19
-9.024312754e-23
5.880943631e-19
8.681707965e-22
5.879055153e-19
1.935120837e-21
5.871347076e-19
3.114005663e-21
5.857265654e-19
4.408388874e-21
5.836228577e-19
5.819662886e-21
5.807665565e-19
7.349003562e-21
5.77099133e-19
8.994989974e-21
5.725650843e-19
1.075561456e-20
5.671094163e-19
1.262576971e-20
5.606825582e-19
1.459924987e-20
5.532379564e-19
1.666607273e-20
5.447373227e-19
1.881451084e-20
5.35148272e-19
2.102834349e-20
5.244498352e-19
2.328904885e-20
5.126300653e-19
2.557312409e-20
4.996917855e-19
2.785457204e-20
4.856501583e-19
3.010237086e-20
4.705386633e-19
3.228330355e-20
4.544064957e-19
3.435957854e-20
4.373244575e-19
3.629197804e-20
4.193816427e-19
3.803760438e-20
4.006906154e-19
3.955337213e-20
3.813828624e-19
4.07939504e-20
3.616130406e-19
4.171572069e-20
3.415532853e-19
4.227501131e-20
3.21396751e-19
4.243251516e-20
3.013508528e-19
4.215164967e-20
2.816398391e-19
4.140310821e-20
2.624964536e-19
4.016294553e-20
2.441630868e-19
3.841689863e-20
2.268818749e-19
3.615796374e-20
2.108950947e-19
3.339037218e-20
1.964348936e-19
3.012659859e-20
1.837241956e-19
2.639086201e-20
1.729670152e-19
2.221532924e-20
1.643502613e-19
1.764280451e-20
1.580347146e-19
1.27218628e-20
1.54157835e-19
7.508624204e-21
1.528259719e-19
2.061024407e-21
1.541191708e-19
-3.559878322e-21
1.580858201e-19
-9.295882365e-21
1.647502852e-19
-1.509023009e-20
1.741101495e-19
-2.089335849e-20
1.861459563e-19
-2.66610648e-20
2.008197742e-19
-3.235970381e-20
2.18085457e-19
-3.796354729e-20
2.378870547e-19
-4.345882985e-20
2.601682348e-19
-4.883964546e-20
2.848694288e-19
-5.411022351e-20
3.119353308e-19
-5.927908914e-20
3.413097792e-19
-6.43597656e-20
3.729402787e-19
-6.936397674e-20
4.067697071e-19
-7.430190338e-20
4.427370969e-19
-7.917578761e-20
4.80765925e-19
-8.398098427e-20
5.2076153e-19
-8.870097503e-20
5.625972347e-19
-9.330988163e-20
6.061102868e-19
-9.776934259e-20
6.510881385e-19
-1.020326522e-19
6.97265095e-19
-1.060435188e-19
7.443105781e-19
-1.097415852e-19
7.918277097e-19
-1.130625096e-19
8.393444091e-19
-1.159439239e-19
8.863143042e-19
-1.183256798e-19
9.321106799e-19
-1.20154887e-19
9.760288987e-19
-1.213851374e-19
1.017281489e-18
-1.21979716e-19
1.054999761e-18
-1.21909325e-19
1.088228314e-18
-1.211534266e-19
1.115926091e-18
-1.196968083e-19
1.136962954e-18
-1.175295466e-19
1.150123696e-18
-1.146429613e-19
1.154108142e-18
-1.110287272e-19
1.147535447e-18
-1.066748079e-19
1.128943207e-18
-1.015645038e-19
1.096790156e-18
-9.567344489e-20
1.049456634e-18
-8.896933619e-20
9.852492525e-19
-8.141040412e-20
9.024079823e-19
-7.294592396e-20
7.991214158e-19
-6.351695323e-20
6.735580153e-19
-5.305833754e-20
5.237833157e-19
-4.15063539e-20
3.468578641e-19
-2.880669204e-20
1.301274517e-19
-1.49819376e-20
1.614415547e-32
4.970123991e-19
-2.376048088e-22
4.989863836e-19
-7.155791336e-22
5.010576954e-19
-1.19729914e-21
5.032597711e-19
-1.679037695e-21
5.055425511e-19
-2.157875894e-21
5.079061503e-19
-2.631193809e-21
5.103508364e-19
-3.097095463e-21
5.128768822e-19
-3.553449333e-21
5.154838466e-19
-3.998475738e-21
5.181713799e-19
-4.429943966e-21
5.209384213e-19
-4.845867824e-21
5.237838983e-19
-5.243730463e-21
5.267057869e-19
-5.621221657e-21
5.297017413e-19
-5.975456537e-21
5.32768061e-19
-6.303736753e-21
5.359003126e-19
-6.602746883e-21
5.390922956e-19
-6.869319482e-21
5.423367333e-19
-7.09959881e-21
5.456242753e-19
-7.289821523e-21
5.489442378e-19
-7.435470219e-21
5.522835795e-19
-7.532105265e-21
5.556276404e-19
-7.574516447e-21
5.589590777e-19
-7.557586829e-21
5.62258654e-19
-7.475405947e-21
5.65504225e-19
-7.322124069e-21
5.686716506e-19
-7.091019905e-21
5.717338136e-19
-6.775399656e-21
5.746615604e-19
-6.367693651e-21
5.774226269e-19
-5.860460827e-21
5.799825292e-19
-5.245527678e-21
5.823034421e-19
-4.515034922e-21
5.843451754e-19
-3.660536679e-21
5.86064159e-19
-2.674043738e-21
5.874145954e-19
-1.547097061e-21
5.883475201e-19
-2.719146194e-22
5.888120316e-19
1.159440179e-21
5.887543372e-19
2.753736119e-21
5.881190746e-19
4.517317214e-21
5.868484741e-19
6.454697761e-21
5.848839653e-19
8.569346096e-21
5.821656246e-19
1.086227377e-20
5.786341453e-19
1.333286204e-20
5.742305539e-19
1.597736807e-20
5.688985015e-19
1.87896877e-20
5.625842011e-19
2.175969217e-20
5.552390356e-19
2.487391921e-20
5.468197233e-19
2.811381094e-20
5.372912183e-19
3.145647866e-20
5.266270437e-19
3.487302404e-20
5.148124019e-19
3.832956369e-20
5.018445961e-19
4.178579933e-20
4.877363056e-19
4.519641862e-20
4.725160314e-19
4.850997509e-20
4.562313852e-19
5.167069373e-20
4.389492338e-19
5.461764733e-20
4.207585039e-19
5.728698031e-20
4.017694503e-19
5.961145181e-20
3.821155002e-19
6.152320798e-20
3.619513989e-19
6.295385921e-20
3.414540838e-19
6.383791552e-20
3.208197691e-19
6.411333647e-20
3.002637671e-19
6.372534163e-20
2.800161757e-19
6.262694528e-20
2.603201641e-19
6.078257125e-20
2.414259374e-19
5.816807947e-20
2.235876259e-19
5.477385525e-20
2.070562552e-19
5.060414201e-20
1.92076376e-19
4.567944059e-20
1.788792194e-19
4.0034885e-20
1.67679926e-19
3.372152376e-20
1.586713442e-19
2.680325047e-20
1.52022102e-19
1.935658945e-20
1.478714606e-19
1.146610898e-20
1.463290338e-19
3.22302986e-21
1.474718679e-19
-5.280194534e-21
1.513469704e-19
-1.395162035e-20
1.579713491e-19
-2.270525509e-20
1.673373304e-19
-3.146249999e-20
1.794148269e-19
-4.015706252e-20
1.941582105e-19
-4.873552531e-20
2.115094117e-19
-5.716094155e-20
2.314049211e-19
-6.541152166e-20
2.537783414e-19
-7.348179365e-20
2.785660697e-19
-8.137853427e-20
3.057077784e-19
-8.911913214e-20
3.35149218e-19
-9.672519362e-20
3.66839221e-19
-1.04219306e-19
4.007284904e-19
-1.116180869e-19
4.367624946e-19
-1.189293306e-19
4.74876211e-19
-1.26146418e-19
5.149836455e-19
-1.332473826e-19
5.569700065e-19
-1.401918623e-19
6.00679996e-19
-1.469228885e-19
6.459098755e-19
-1.533668236e-19
6.923969638e-19
-1.594379388e-19
7.398136666e-19
-1.650409594e-19
7.877597838e-19
-1.700773964e-19
8.357595699e-19
-1.744491295e-19
8.83257423e-19
-1.780645105e-19
9.29617862e-19
-1.808408479e-19
9.741235532e-19
-1.827083923e-19
1.015976059e-18
-1.836104031e-19
1.05429349e-18
-1.835042774e-19
1.088109965e-18
-1.823591681e-19
1.116372959e-18
-1.801547389e-19
1.137944082e-18
-1.7687707e-19
1.151599692e-18
-1.725159445e-19
1.156034325e-18
-1.670600246e-19
1.14986171e-18
-1.604937066e-19
1.131616055e-18
-1.527929148e-19
1.099751767e-18
-1.439229997e-19
1.052645114e-18
-1.338363219e-19
9.885962586e-19
-1.224717575e-19
9.058351478e-19
-1.097545835e-19
8.025333659e-19
-9.559794031e-20
6.768248436e-19
-7.990753703e-20
5.267146499e-19
-6.258468957e-20
3.491337818e-19
-4.354684897e-20
1.310351458e-19
-2.271817146e-20
1.639285607e-32
4.96061603e-19
-3.203678981e-22
4.980323534e-19
-9.630162669e-22
5.001033037e-19
-1.607421876e-21
5.02307684e-19
-2.250899157e-21
5.045953945e-19
-2.890294075e-21
5.069659029e-19
-3.522848455e-21
5.094196809e-19
-4.145751985e-21
5.119566584e-19
-4.75650654e-21
5.145768532e-19
-5.35234786e-21
5.172797037e-19
-5.930657892e-21
5.200647011e-19
-6.488410583e-21
5.229306066e-19
-7.022640817e-21
5.258759964e-19
-7.529904018e-21
5.288983834e-19
-8.006767834e-21
5.319947127e-19
-8.449269457e-21
5.351604511e-19
-8.853412971e-21
5.383901164e-19
-9.214597953e-21
5.41676389e-19
-9.528114676e-21
5.45010704e-19
-9.788556334e-21
5.483823532e-19
-9.990350787e-21
5.517791024e-19
-1.0127184e-20
5.551862569e-19
-1.019257239e-20
5.585873068e-19
-1.017927397e-20
5.619630116e-19
-1.0079853e-20
5.652921332e-19
-9.886039692e-21
5.685505563e-19
-9.589299103e-21
5.717120685e-19
-9.180207557e-21
5.747474366e-19
-8.649109604e-21
5.776251532e-19
-7.985566953e-21
5.803104608e-19
-7.179097827e-21
5.827661285e-19
-6.218626402e-21
5.84951526e-19
-5.093221876e-21
5.868235293e-19
-3.791512472e-21
5.883356481e-19
-2.302478701e-21
5.894390155e-19
-6.1494954e-22
5.900815128e-19
1.281421059e-21
5.902088286e-19
3.396509793e-21
5.897636786e-19
5.738607539e-21
5.886871014e-19
8.314741024e-21
5.869179218e-19
1.112953094e-20
5.843943823e-19
1.418554504e-20
5.810538518e-19
1.748209585e-20
5.768347458e-19
2.101551811e-20
5.716764518e-19
2.477778953e-20
5.655215693e-19
2.875667078e-20
5.583161239e-19
3.293417019e-20
5.500122079e-19
3.728666773e-20
5.405685058e-19
4.178341186e-20
5.299532777e-19
4.638683716e-20
5.181450899e-19
5.105130043e-20
5.051360172e-19
5.572377454e-20
4.909324682e-19
6.034295514e-20
4.75558502e-19
6.484043067e-20
4.590565638e-19
6.91402317e-20
4.414906086e-19
7.316052667e-20
4.22946298e-19
7.681369207e-20
4.035334204e-19
8.000868195e-20
3.83385099e-19
8.265180606e-20
3.626592064e-19
8.46499705e-20
3.415364087e-19
8.591225226e-20
3.202204178e-19
8.635386653e-20
2.989345982e-19
8.58981193e-20
2.77920642e-19
8.448046755e-20
2.574333285e-19
8.205015362e-20
2.377374516e-19
7.857375797e-20
2.191010173e-19
7.40360895e-20
2.017911849e-19
6.844291721e-20
1.860669588e-19
6.18207825e-20
1.721751834e-19
5.421843308e-20
1.603435383e-19
4.570492464e-20
1.507771475e-19
3.636910657e-20
1.436524194e-19
2.631558914e-20
1.391150472e-19
1.566224635e-20
1.372758408e-19
4.534516865e-21
1.3821143e-19
-6.938229054e-21
1.419632273e-19
-1.862904157e-20
1.485414e-19
-3.041719474e-20
1.579268271e-19
-4.21943362e-20
1.700775989e-19
-5.386764095e-20
1.849329104e-19
-6.536475228e-20
2.024208742e-19
-7.663498094e-20
2.224630293e-19
-8.765143636e-20
2.449818802e-19
-9.840868828e-20
2.699041036e-19
-1.089209112e-19
2.971655766e-19
-1.192156439e-19
3.267110356e-19
-1.293286176e-19
3.584946488e-19
-1.392953094e-19
3.924748223e-19
-1.491448171e-19
4.286097753e-19
-1.588919049e-19
4.668478031e-19
-1.685325471e-19
5.071189403e-19
-1.780387449e-19
5.493225177e-19
-1.873575924e-19
5.933173323e-19
-1.964102796e-19
6.389092879e-19
-2.050954909e-19
6.858428894e-19
-2.132927659e-19
7.337915658e-19
-2.208695784e-19
7.823525799e-19
-2.276874124e-19
8.310415031e-19
-2.336100415e-19
8.792912284e-19
-2.385093607e-19
9.264503133e-19
-2.422717637e-19
9.717845875e-19
-2.448011008e-19
1.014476665e-18
-2.460213305e-19
1.053626838e-18
-2.458756367e-19
1.088251275e-18
-2.443252819e-19
1.117282012e-18
-2.413455522e-19
1.139566333e-18
-2.369218618e-19
1.153869367e-18
-2.310438943e-19
1.158875882e-18
-2.237005513e-19
1.153192347e-18
-2.148739846e-19
1.135346198e-18
-2.045352639e-19
1.103785799e-18
-1.926402479e-19
1.056880104e-18
-1.791274364e-19
9.92919885e-19
-1.639165673e-19
9.101213956e-19
-1.469089747e-19
8.066333709e-19
-1.27989652e-19
6.805580681e-19
-1.070296323e-19
5.298383923e-19
-8.38951661e-20
3.513466451e-19
-5.84413278e-20
1.318746671e-19
-3.054601042e-20
1.66600877e-32
4.949984753e-19
-4.038649075e-22
4.96967871e-19
-1.212932816e-21
4.990394895e-19
-2.02259344e-21
5.012473928e-19
-2.830050607e-21
5.035413464e-19
-3.6322683e-21
5.059209206e-19
-4.426007625e-21
5.083863103e-19
-5.208138347e-21
5.109377142e-19
-5.97541568e-21
5.135750317e-19
-6.724625319e-21
5.162981173e-19
-7.452308299e-21
5.191064376e-19
-8.154922485e-21
5.219992473e-19
-8.828580946e-21
5.249751519e-19
-9.469233644e-21
5.280322128e-19
-1.007241901e-20
5.311674532e-19
-1.063345148e-20
5.34376964e-19
-1.114715737e-20
5.37655418e-19
-1.160805286e-20
5.409962114e-19
-1.201006207e-20
5.44390992e-19
-1.234670503e-20
5.478298153e-19
-1.261082842e-20
5.513006691e-19
-1.279483309e-20
5.547896437e-19
-1.289041687e-20
5.582804778e-19
-1.288879895e-20
5.617547876e-19
-1.278043396e-20
5.651916492e-19
-1.255521387e-20
5.68567851e-19
-1.220217451e-20
5.718574564e-19
-1.17097526e-20
5.750320269e-19
-1.106556765e-20
5.780601408e-19
-1.025677214e-20
5.80907638e-19
-9.269881032e-21
5.83537169e-19
-8.091145161e-21
5.85908524e-19
-6.706362735e-21
5.879782236e-19
-5.10127253e-21
5.896998778e-19
-3.26142784e-21
5.910237651e-19
-1.172740431e-21
5.918972203e-19
1.178475871e-21
5.922642904e-19
3.80478392e-21
5.920663158e-19
6.717470876e-21
5.912418349e-19
9.925762622e-21
5.897274649e-19
1.343665345e-20
5.87458057e-19
1.725406818e-20
5.843678142e-19
2.137859854e-20
5.803906382e-19
2.580648561e-20
5.754615001e-19
3.052916314e-20
5.695170944e-19
3.553203969e-20
5.624976321e-19
4.079392777e-20
5.543479464e-19
4.628579289e-20
5.45019765e-19
5.19702845e-20
5.344732043e-19
5.780066045e-20
5.2267938e-19
6.372061818e-20
5.096221242e-19
6.966358145e-20
4.953007817e-19
7.555298889e-20
4.797320036e-19
8.130209928e-20
4.629525385e-19
8.681489929e-20
4.450208139e-19
9.198657353e-20
4.260193292e-19
9.670521732e-20
4.060555623e-19
1.00853203e-19
3.852635095e-19
1.043099368e-19
3.638035043e-19
1.069543205e-19
3.418625157e-19
1.086685844e-19
3.196524622e-19
1.093415969e-19
2.974087943e-19
1.088732403e-19
2.753868362e-19
1.071778294e-19
2.538583342e-19
1.0418824e-19
2.331058246e-19
9.985874215e-20
2.134175511e-19
9.416831695e-20
1.95080615e-19
8.71223856e-20
1.783751966e-19
7.875471896e-20
1.635674015e-19
6.91273146e-20
1.509035867e-19
5.833003692e-20
1.406036723e-19
4.647786401e-20
1.328564886e-19
3.370780739e-20
1.278147878e-19
2.017357267e-20
1.255931007e-19
6.040334857e-21
1.262659181e-19
-8.522210015e-21
1.298691298e-19
-2.334609823e-20
1.364018163e-19
-3.827254981e-20
1.458310669e-19
-5.315817816e-20
1.580967705e-19
-6.78817265e-20
1.731190021e-19
-8.234866331e-20
1.908048423e-19
-9.649519435e-20
2.110569987e-19
-1.102889516e-19
2.337807214e-19
-1.237281217e-19
2.588910025e-19
-1.36836754e-19
2.863164492e-19
-1.496585987e-19
3.160019336e-19
-1.622479497e-19
3.479068861e-19
-1.746603469e-19
3.820018429e-19
-1.869419644e-19
4.182607446e-19
-1.99120667e-19
4.566519849e-19
-2.111975319e-19
4.971262e-19
-2.231415414e-19
5.396040419e-19
-2.34886109e-19
5.839623219e-19
-2.463296571e-19
6.300218279e-19
-2.573384707e-19
6.775353441e-19
-2.677533926e-19
7.261788937e-19
-2.773979323e-19
7.755444767e-19
-2.860885514e-19
8.251366714e-19
-2.93644404e-19
8.743708678e-19
-2.998970025e-19
9.225745909e-19
-3.046973464e-19
9.689890807e-19
-3.079214336e-19
1.012771848e-18
-3.094723752e-19
1.052997577e-18
-3.092804715e-19
1.08865885e-18
-3.073002257e-19
1.118665808e-18
-3.035058768e-19
1.14184732e-18
-2.978848011e-19
1.156952758e-18
-2.904305341e-19
1.162654654e-18
-2.811349656e-19
1.157549302e-18
-2.699813302e-19
1.140155885e-18
-2.569377752e-19
1.108914619e-18
-2.419527079e-19
1.062185694e-18
-2.249514839e-19
9.982487397e-19
-2.058350566e-19
9.153044654e-19
-1.84480259e-19
8.114814428e-19
-1.607411572e-19
6.848494077e-19
-1.34454042e-19
5.33324182e-19
-1.054367027e-19
3.537190349e-19
-7.350579034e-20
1.327688394e-19
-3.844442535e-20
1.699546265e-32
4.938180998e-19
-4.882658445e-22
4.957870638e-19
-1.465959293e-21
4.978606181e-19
-2.443424959e-21
5.000732391e-19
-3.4176609e-21
5.023750618e-19
-4.385358382e-21
5.047656229e-19
-5.343057598e-21
5.07245268e-19
-6.287134183e-21
5.09814193e-19
-7.213917848e-21
5.12472557e-19
-8.11954964e-21
5.152203215e-19
-9.000040569e-21
5.180573146e-19
-9.851108382e-21
5.209829806e-19
-1.066824847e-20
5.239963569e-19
-1.144657582e-20
5.270957593e-19
-1.218090383e-20
5.302787214e-19
-1.286558509e-20
5.335416754e-19
-1.349457499e-20
5.368799084e-19
-1.406125997e-20
5.402872505e-19
-1.455851298e-20
5.437560457e-19
-1.497852527e-20
5.472768297e-19
-1.531289485e-20
5.508383197e-19
-1.55524712e-20
5.544271232e-19
-1.568745922e-20
5.580277707e-19
-1.570725247e-20
5.616224744e-19
-1.560050695e-20
5.651911861e-19
-1.535495838e-20
5.687113202e-19
-1.495752136e-20
5.721577717e-19
-1.439415721e-20
5.755025942e-19
-1.365006009e-20
5.787150156e-19
-1.27095946e-20
5.817611566e-19
-1.155652963e-20
5.846041161e-19
-1.017398241e-20
5.872037366e-19
-8.544668532e-21
5.895166926e-19
-6.650895233e-21
5.914962034e-19
-4.474926611e-21
5.930920924e-19
-1.999140461e-21
5.942505198e-19
7.93418397e-22
5.949141828e-19
3.918730388e-21
5.950222842e-19
7.39113681e-21
5.945110263e-19
1.122297058e-20
5.933138494e-19
1.542381688e-20
5.913621416e-19
2.000002817e-20
5.885856366e-19
2.495378992e-20
5.849133015e-19
3.028239454e-20
5.802739819e-19
3.597704872e-20
5.745976845e-19
4.202195378e-20
5.678167227e-19
4.839299616e-20
5.598675857e-19
5.505683346e-20
5.506926471e-19
6.196967925e-20
5.40242542e-19
6.907657716e-20
5.284782739e-19
7.631045318e-20
5.153739118e-19
8.359176868e-20
5.009189282e-19
9.08280455e-20
4.851210619e-19
9.791414892e-20
4.680086998e-19
1.047325764e-19
4.496336432e-19
1.111546478e-19
4.300731704e-19
1.170418613e-19
4.094322618e-19
1.222483167e-19
3.878448313e-19
1.2662341e-19
3.654748325e-19
1.300156726e-19
3.425160162e-19
1.322767749e-19
3.191912306e-19
1.332664443e-19
2.957500466e-19
1.328571608e-19
2.724657477e-19
1.309393465e-19
2.496306006e-19
1.27425891e-19
2.27550663e-19
1.222567953e-19
2.065391618e-19
1.154027512e-19
1.869098187e-19
1.068684234e-19
1.689691412e-19
9.669413833e-20
1.530090992e-19
8.495673496e-20
1.392992157e-19
7.176826498e-20
1.280796612e-19
5.727351463e-20
1.195545345e-19
4.164526974e-20
1.138870848e-19
2.507860655e-20
1.111960215e-19
7.783389479e-21
1.115544587e-19
-1.002362533e-20
1.149902863e-19
-2.812788198e-20
1.214892094e-19
-4.632588276e-20
1.309990659e-19
-6.443451602e-20
1.4343662e-19
-8.229916002e-20
1.586953803e-19
-9.98009478e-20
1.766553971e-19
-1.168612617e-19
1.971931231e-19
-1.334438089e-19
2.201916875e-19
-1.495526859e-19
2.455491878e-19
-1.652273582e-19
2.731851724e-19
-1.805337289e-19
3.030432122e-19
-1.955530568e-19
3.350903356e-19
-2.103685982e-19
3.693120007e-19
-2.250521922e-19
4.057040635e-19
-2.396510253e-19
4.442610008e-19
-2.541768161e-19
4.849622597e-19
-2.685974825e-19
5.277564709e-19
-2.828331982e-19
5.725457144e-19
-2.967563371e-19
6.191699424e-19
-3.101963166e-19
6.673937912e-19
-3.229480236e-19
7.1689575e-19
-3.347837402e-19
7.672613285e-19
-3.454663657e-19
8.179794565e-19
-3.547633219e-19
8.684427578e-19
-3.624588148e-19
9.179500054e-19
-3.683640442e-19
9.657104589e-19
-3.723238361e-19
1.010847888e-18
-3.742199752e-19
1.052404017e-18
-3.739705321e-19
1.089340307e-18
-3.715262151e-19
1.120539396e-18
-3.668636322e-19
1.144806523e-18
-3.599768267e-19
1.16087203e-18
-3.508674496e-19
1.167393311e-18
-3.395349428e-19
1.162955017e-18
-3.259671092e-19
1.146066684e-18
-3.10132302e-19
1.115159789e-18
-2.919732888e-19
1.068585094e-18
-2.714033833e-19
1.004610698e-18
-2.483046882e-19
9.214231032e-19
-2.225281969e-19
8.171305504e-19
-1.938963255e-19
6.897843169e-19
-1.622042701e-19
5.372646704e-19
-1.272293372e-19
3.563848205e-19
-8.871696551e-20
1.337696665e-19
-4.64257255e-20
1.744449073e-32
4.925151635e-19
-5.738771424e-22
4.944843912e-19
-1.72273198e-21
4.965608642e-19
-2.870900819e-21
4.987794792e-19
-4.014945302e-21
5.010906752e-19
-5.151309962e-21
5.034942064e-19
-6.276180646e-21
5.059905092e-19
-7.385593098e-21
5.085799914e-19
-8.475388078e-21
5.112629692e-19
-9.541237081e-21
5.140397115e-19
-1.057855146e-20
5.169102932e-19
-1.158248351e-20
5.198745531e-19
-1.254783223e-20
5.229318564e-19
-1.346904894e-20
5.260809962e-19
-1.434013882e-20
5.293199308e-19
-1.515466117e-20
5.326456771e-19
-1.590561455e-20
5.360540627e-19
-1.65854232e-20
5.395396137e-19
-1.718582234e-20
5.430952955e-19
-1.769785202e-20
5.467124105e-19
-1.811176595e-20
5.503803525e-19
-1.841704316e-20
5.540865604e-19
-1.860228761e-20
5.578163337e-19
-1.865522558e-20
5.615528186e-19
-1.856258687e-20
5.652768119e-19
-1.831010002e-20
5.689666896e-19
-1.788241005e-20
5.725981337e-19
-1.726314239e-20
5.76144034e-19
-1.643488606e-20
5.795742308e-19
-1.537931737e-20
5.828554919e-19
-1.407720756e-20
5.859513179e-19
-1.250856949e-20
5.888219329e-19
-1.065270451e-20
5.914240305e-19
-8.48844767e-21
5.937106692e-19
-5.994363491e-21
5.956309654e-19
-3.149173259e-21
5.971300419e-19
6.787482969e-23
5.981489007e-19
3.676442798e-21
5.986246523e-19
7.694638625e-21
5.984906722e-19
1.21383563e-20
5.976770654e-19
1.702067615e-20
5.961109665e-19
2.235098607e-20
5.937171238e-19
2.813409522e-20
5.904183626e-19
3.436903006e-20
5.861364777e-19
4.104786302e-20
5.807931734e-19
4.815430591e-20
5.743115754e-19
5.566243904e-20
5.666178487e-19
6.353530671e-20
5.576433755e-19
7.172372812e-20
5.473269561e-19
8.016502445e-20
5.356174872e-19
8.878205863e-20
5.224765797e-19
9.748231316e-20
5.078816011e-19
1.061574479e-19
4.918285777e-19
1.146831128e-19
4.743354242e-19
1.229194662e-19
4.554448771e-19
1.307121474e-19
4.352275527e-19
1.378941865e-19
4.137844271e-19
1.442885453e-19
3.912491012e-19
1.497117279e-19
3.677890437e-19
1.539780609e-19
3.436061456e-19
1.5690493e-19
3.189357781e-19
1.583184121e-19
2.940448137e-19
1.580594814e-19
2.692279595e-19
1.559901445e-19
2.44803075e-19
1.519996696e-19
2.211049628e-19
1.460102233e-19
1.98478427e-19
1.379820435e-19
1.772701203e-19
1.279173589e-19
1.578200479e-19
1.15863136e-19
1.404523055e-19
1.019118461e-19
1.254661126e-19
8.620043914e-20
1.131269184e-19
6.890694996e-20
1.0365887e-19
5.024523968e-20
9.723849793e-20
3.045758753e-20
9.39907751e-20
9.805904916e-21
9.398708944e-20
-1.143861666e-20
9.724592618e-20
-3.300661285e-20
1.037355675e-19
-5.464248544e-20
1.133795528e-19
-7.611613999e-20
1.260642273e-19
-9.723418572e-20
1.416489877e-19
-1.178491631e-19
1.599781189e-19
-1.37866184e-19
1.808940766e-19
-1.572455556e-19
2.042502851e-19
-1.760011742e-19
2.299226581e-19
-1.941939565e-19
2.578177588e-19
-2.119209661e-19
2.878771893e-19
-2.293005525e-19
3.200769312e-19
-2.464551101e-19
3.544221557e-19
-2.634925618e-19
3.909371014e-19
-2.804888194e-19
4.296512451e-19
-2.974725382e-19
4.705819781e-19
-3.144141856e-19
5.137155856e-19
-3.312202688e-19
5.589873408e-19
-3.477337622e-19
6.062629222e-19
-3.637403546e-19
6.55322164e-19
-3.789802974e-19
7.058470211e-19
-3.931640936e-19
7.574140047e-19
-4.059906035e-19
8.094917705e-19
-4.171652437e-19
8.614428445e-19
-4.264166335e-19
9.125288859e-19
-4.335097415e-19
9.619175053e-19
-4.382548471e-19
1.008689422e-18
-4.405114105e-19
1.051844222e-18
-4.401871351e-19
1.090304594e-18
-4.372324931e-19
1.122919087e-18
-4.31631749e-19
1.148464697e-18
-4.233913341e-19
1.165649328e-18
-4.125271198e-19
1.173113461e-18
-3.99051516e-19
1.169429097e-18
-3.829616986e-19
1.153096087e-18
-3.64229688e-19
1.122537431e-18
-3.427949626e-19
1.076095067e-18
-3.185597175e-19
1.01202674e-18
-2.913868595e-19
9.285052121e-19
-2.611006285e-19
8.236242602e-19
-2.2748833e-19
6.95412202e-19
-1.903063491e-19
5.417444064e-19
-1.492781502e-19
3.593868914e-19
-1.041163064e-19
1.349041633e-19
-5.448338237e-20
1.786517209e-32
4.91083832e-19
-6.60924782e-22
4.930537124e-19
-1.983936882e-21
4.951339314e-19
-3.305983868e-21
4.973596367e-19
-4.623230451e-21
4.996816687e-19
-5.931786075e-21
5.020999771e-19
-7.227534137e-21
5.046152285e-19
-8.506133173e-21
5.072280296e-19
-9.763037652e-21
5.099389775e-19
-1.099344397e-20
5.127486207e-19
-1.21922745e-20
5.156574038e-19
-1.335411255e-20
5.186655315e-19
-1.447317332e-20
5.21772832e-19
-1.554323625e-20
5.24978564e-19
-1.655761104e-20
5.282812622e-19
-1.750905224e-20
5.316785365e-19
-1.838971211e-20
5.351669186e-19
-1.919104326e-20
5.387416469e-19
-1.990375523e-20
5.4239649e-19
-2.051773129e-20
5.461235468e-19
-2.102199597e-20
5.499131046e-19
-2.140463853e-20
5.537535022e-19
-2.165276512e-20
5.57631052e-19
-2.175240243e-20
5.615299166e-19
-2.168844092e-20
5.654319863e-19
-2.144455543e-20
5.693166686e-19
-2.100320027e-20
5.731606886e-19
-2.034559133e-20
5.769378579e-19
-1.945175618e-20
5.806189233e-19
-1.830054855e-20
5.841714068e-19
-1.686972072e-20
5.875595037e-19
-1.513596712e-20
5.907438806e-19
-1.307508112e-20
5.936814647e-19
-1.066213416e-20
5.963251185e-19
-7.87180927e-21
5.986233826e-19
-4.678764393e-21
6.005202376e-19
-1.058118432e-21
6.01955067e-19
3.014073353e-21
6.028626965e-19
7.560227957e-21
6.03173608e-19
1.260062131e-20
6.02814138e-19
1.815256785e-20
6.017067735e-19
2.422948308e-20
5.99770439e-19
3.083967695e-20
5.969209943e-19
3.798503064e-20
5.930719104e-19
4.565947458e-20
5.881353528e-19
5.384746478e-20
5.82023577e-19
6.252235583e-20
5.746507726e-19
7.164484315e-20
5.659351885e-19
8.116134542e-20
5.558016458e-19
9.100249334e-20
5.441842762e-19
1.010816626e-19
5.310296165e-19
1.112937952e-19
5.162998975e-19
1.215144972e-19
4.99976629e-19
1.315997275e-19
4.820642709e-19
1.413860679e-19
4.625940366e-19
1.50691851e-19
4.416275453e-19
1.593191515e-19
4.192602766e-19
1.670568593e-19
3.956244242e-19
1.736847582e-19
3.708909843e-19
1.789787394e-19
3.452706173e-19
1.827169006e-19
3.190131759e-19
1.84686516e-19
2.924055898e-19
1.846914965e-19
2.657682248e-19
1.825602346e-19
2.394495877e-19
1.781533467e-19
2.138196437e-19
1.71371121e-19
1.892616827e-19
1.621600502e-19
1.661630803e-19
1.505181635e-19
1.449049861e-19