/*--------------------------------*- C++ -*----------------------------------*\
  =========                 |
  \\      /  F ield         | OpenFOAM: The Open Source CFD Toolbox
   \\    /   O peration     | Website:  https://openfoam.org
    \\  /    A nd           | Version:  10
     \\/     M anipulation  |
\*---------------------------------------------------------------------------*/
FoamFile
{
    format      ascii;
    class       volScalarField;
    location    "0.0003";
    object      Num_divU;
}
// * * * * * * * * * * * * * * * * * * * * * * * * * * * * * * * * * * * * * //

dimensions      [0 0 -1 0 0 0 0];

internalField   nonuniform List<scalar> 
3600
(
1.910842791e-05
2.97213935e-06
-5.982288108e-12
-1.185572602e-11
-1.706348049e-11
-2.33339879e-11
-2.63198722e-11
-3.028711325e-11
-3.762582373e-11
-3.971202894e-11
-4.11099314e-11
-4.631598011e-11
-5.115725661e-11
-5.419859572e-11
-5.6122643e-11
-5.784584064e-11
-6.084067787e-11
-6.385619333e-11
-6.450725367e-11
-6.40496704e-11
-6.53372345e-11
-6.809797753e-11
-7.016584102e-11
-7.141106821e-11
-7.355844887e-11
-7.724711876e-11
-8.126185446e-11
-8.427069714e-11
-8.608787508e-11
-8.727875591e-11
-8.832543805e-11
-8.940035289e-11
-9.057165156e-11
-9.196008107e-11
-9.376170285e-11
-9.621624785e-11
-9.949458685e-11
-1.035121833e-10
-1.078387975e-10
-1.118558218e-10
-1.150748202e-10
-1.173630984e-10
-1.189192977e-10
-1.200734262e-10
-1.210998466e-10
-1.221520524e-10
-1.232871947e-10
-1.244967906e-10
-1.257117972e-10
-1.268120439e-10
-1.276690468e-10
-1.282049084e-10
-1.284230931e-10
-1.28390935e-10
-1.281980513e-10
-1.279289982e-10
-1.27660575e-10
-1.2746152e-10
-1.2737593e-10
-1.274060734e-10
-2.048788891e-05
-4.426646495e-07
-1.997663637e-12
-4.509889147e-12
-7.492204365e-12
-8.988491062e-12
-1.029272229e-11
-1.230405813e-11
-1.398554288e-11
-1.558117838e-11
-1.753505973e-11
-1.895318241e-11
-2.04345545e-11
-2.263303706e-11
-2.436199349e-11
-2.51423088e-11
-2.604633111e-11
-2.742797874e-11
-2.852695424e-11
-2.906303427e-11
-2.961412513e-11
-3.067347356e-11
-3.216243947e-11
-3.375772779e-11
-3.528855556e-11
-3.679726179e-11
-3.836354673e-11
-3.992256633e-11
-4.125730101e-11
-4.217699771e-11
-4.269426507e-11
-4.301681247e-11
-4.338407513e-11
-4.392965355e-11
-4.467395388e-11
-4.558932905e-11
-4.663597793e-11
-4.774954346e-11
-4.88336497e-11
-4.979261976e-11
-5.058009776e-11
-5.121854968e-11
-5.177625767e-11
-5.232590435e-11
-5.291452999e-11
-5.355450778e-11
-5.422781063e-11
-5.489494015e-11
-5.550676657e-11
-5.601909457e-11
-5.64052669e-11
-5.666034016e-11
-5.67960318e-11
-5.683316298e-11
-5.679857323e-11
-5.672563489e-11
-5.665081755e-11
-5.660238865e-11
-5.658786475e-11
-2.962368539e-11
-5.808284547e-06
-2.008674064e-06
-2.347988849e-12
-5.477942005e-12
-8.34539789e-12
-1.022089051e-11
-1.209085948e-11
-1.366235261e-11
-1.521034572e-11
-1.706289574e-11
-1.908880197e-11
-2.069211263e-11
-2.193603046e-11
-2.343027863e-11
-2.50682964e-11
-2.636212269e-11
-2.736010741e-11
-2.836333631e-11
-2.935891508e-11
-3.020267782e-11
-3.100271881e-11
-3.203327838e-11
-3.338996931e-11
-3.489262454e-11
-3.631621834e-11
-3.761866807e-11
-3.889981989e-11
-4.019375734e-11
-4.137989845e-11
-4.230831267e-11
-4.296541356e-11
-4.349253406e-11
-4.406941495e-11
-4.480728925e-11
-4.573565527e-11
-4.684132447e-11
-4.808675122e-11
-4.93978772e-11
-5.066440775e-11
-5.177832698e-11
-5.268643044e-11
-5.34136879e-11
-5.404059994e-11
-5.465493064e-11
-5.531120955e-11
-5.601705414e-11
-5.674357257e-11
-5.744582114e-11
-5.808063065e-11
-5.861618524e-11
-5.903388746e-11
-5.932645637e-11
-5.949684849e-11
-5.956010929e-11
-5.954563886e-11
-5.949413325e-11
-5.94460274e-11
-5.942605215e-11
-5.943484171e-11
-3.001410566e-11
2.05770774e-05
2.527205273e-15
-3.72407233e-12
-6.033345113e-12
-8.557853313e-12
-1.046679556e-11
-1.238000221e-11
-1.416243577e-11
-1.58182009e-11
-1.755949958e-11
-1.922645757e-11
-2.061625231e-11
-2.190481416e-11
-2.336634304e-11
-2.493578385e-11
-2.632094203e-11
-2.74059986e-11
-2.832375901e-11
-2.922622084e-11
-3.018009847e-11
-3.124243739e-11
-3.246694522e-11
-3.3812551e-11
-3.515164805e-11
-3.640865171e-11
-3.762949612e-11
-3.887804163e-11
-4.010863086e-11
-4.119046261e-11
-4.204695039e-11
-4.273526781e-11
-4.338869401e-11
-4.411187579e-11
-4.494407466e-11
-4.589572351e-11
-4.698036711e-11
-4.819488786e-11
-4.94811246e-11
-5.072786686e-11
-5.182512103e-11
-5.272643003e-11
-5.346851863e-11
-5.413778475e-11
-5.481481109e-11
-5.553643312e-11
-5.629244837e-11
-5.704664803e-11
-5.776046053e-11
-5.84044989e-11
-5.89574377e-11
-5.940108384e-11
-5.972053446e-11
-5.991151764e-11
-5.998940445e-11
-5.999119419e-11
-5.99653844e-11
-5.995314747e-11
-5.997156676e-11
-6.000976517e-11
-3.02031897e-11
-1.771029458e-05
-1.693782556e-12
-4.503925409e-12
-6.789315751e-12
-8.640060032e-12
-1.07364595e-11
-1.279125034e-11
-1.443872359e-11
-1.597074583e-11
-1.754627652e-11
-1.90150106e-11
-2.04444039e-11
-2.1918151e-11
-2.336779534e-11
-2.475784836e-11
-2.606572965e-11
-2.720333713e-11
-2.814698141e-11
-2.904183243e-11
-3.008776131e-11
-3.135189919e-11
-3.271760038e-11
-3.401215696e-11
-3.517942303e-11
-3.631678456e-11
-3.753810825e-11
-3.882275933e-11
-4.002514261e-11
-4.102485851e-11
-4.183981156e-11
-4.258925336e-11
-4.337533849e-11
-4.422312386e-11
-4.512152107e-11
-4.608612401e-11
-4.71586069e-11
-4.834805826e-11
-4.958840813e-11
-5.076392631e-11
-5.178161042e-11
-5.262666183e-11
-5.335928722e-11
-5.406451119e-11
-5.47993323e-11
-5.557225741e-11
-5.635765198e-11
-5.712259635e-11
-5.784298778e-11
-5.850187292e-11
-5.907954336e-11
-5.954964508e-11
-5.988790183e-11
-6.008816076e-11
-6.017342482e-11
-6.019199556e-11
-6.019855271e-11
-6.023039955e-11
-6.029290915e-11
-6.036231405e-11
-3.0369597e-11
2.244407005e-06
-2.008528573e-12
-5.262656009e-12
-7.196251399e-12
-9.303501135e-12
-1.142197606e-11
-1.309231044e-11
-1.456777125e-11
-1.613578533e-11
-1.761931516e-11
-1.891988746e-11
-2.027511479e-11
-2.176638504e-11
-2.324043152e-11
-2.460587125e-11
-2.585084587e-11
-2.694584104e-11
-2.792371513e-11
-2.894390866e-11
-3.015411257e-11
-3.151977078e-11
-3.285798192e-11
-3.404200702e-11
-3.513088399e-11
-3.627777724e-11
-3.753760707e-11
-3.880149454e-11
-3.99191983e-11
-4.085274989e-11
-4.169312988e-11
-4.254937534e-11
-4.345398072e-11
-4.437877914e-11
-4.531396939e-11
-4.630293512e-11
-4.739501995e-11
-4.857651644e-11
-4.975826718e-11
-5.083327455e-11
-5.174931984e-11
-5.253507863e-11
-5.326666871e-11
-5.401094418e-11
-5.479096021e-11
-5.559066377e-11
-5.63821762e-11
-5.714727401e-11
-5.787781008e-11
-5.856129977e-11
-5.916951459e-11
-5.966326082e-11
-6.001205857e-11
-6.021513776e-11
-6.030845618e-11
-6.035144607e-11
-6.040030359e-11
-6.048316694e-11
-6.05911819e-11
-6.0689116e-11
-3.053177099e-11
-1.56847713e-12
-3.984379577e-12
-6.020694134e-12
-7.899027099e-12
-1.008135841e-11
-1.188347717e-11
-1.329768768e-11
-1.472798672e-11
-1.618201008e-11
-1.749991468e-11
-1.877706739e-11
-2.020350271e-11
-2.174561647e-11
-2.321418832e-11
-2.450311452e-11
-2.56440481e-11
-2.672257667e-11
-2.782735817e-11
-2.903040328e-11
-3.033796068e-11
-3.166320756e-11
-3.289922738e-11
-3.403397021e-11
-3.516207309e-11
-3.636631001e-11
-3.761177868e-11
-3.878189991e-11
-3.980709194e-11
-4.073092761e-11
-4.164878587e-11
-4.260775525e-11
-4.358447639e-11
-4.454871252e-11
-4.552187533e-11
-4.655971076e-11
-4.768353004e-11
-4.883950142e-11
-4.992962449e-11
-5.088313327e-11
-5.170282824e-11
-5.245160514e-11
-5.319974386e-11
-5.398060145e-11
-5.478489197e-11
-5.558650631e-11
-5.637017797e-11
-5.713724861e-11
-5.788909171e-11
-5.860674058e-11
-5.924657558e-11
-5.975786711e-11
-6.011096673e-11
-6.031715993e-11
-6.042679049e-11
-6.050616297e-11
-6.06065663e-11
-6.074279148e-11
-6.089204404e-11
-6.101153967e-11
-3.069134734e-11
-6.86335581e-12
-3.731028633e-12
-6.927824851e-12
-8.971540704e-12
-1.06457276e-11
-1.201946917e-11
-1.335875487e-11
-1.478108626e-11
-1.617437114e-11
-1.750397364e-11
-1.887038362e-11
-2.033674745e-11
-2.182484623e-11
-2.31960497e-11
-2.44106222e-11
-2.555759009e-11
-2.673681761e-11
-2.797379602e-11
-2.924503127e-11
-3.052078151e-11
-3.177001354e-11
-3.297199965e-11
-3.41434878e-11
-3.5325119e-11
-3.652335003e-11
-3.768668042e-11
-3.875905694e-11
-3.974595852e-11
-4.070903684e-11
-4.169911728e-11
-4.271285145e-11
-4.372079672e-11
-4.472282919e-11
-4.575806884e-11
-4.685674682e-11
-4.799068896e-11
-4.907935966e-11
-5.004787429e-11
-5.088219709e-11
-5.163372759e-11
-5.237508809e-11
-5.314945527e-11
-5.395343379e-11
-5.475890493e-11
-5.554712192e-11
-5.632392688e-11
-5.710588209e-11
-5.789247092e-11
-5.864918638e-11
-5.931624288e-11
-5.983798422e-11
-6.01936855e-11
-6.04102591e-11
-6.054937448e-11
-6.067715615e-11
-6.083382665e-11
-6.101921966e-11
-6.119985643e-11
-6.13309634e-11
-3.084671563e-11
-5.086997708e-12
-5.309066151e-12
-7.67842765e-12
-9.261924159e-12
-1.061232002e-11
-1.200232497e-11
-1.3478089e-11
-1.49482419e-11
-1.631320905e-11
-1.761145086e-11
-1.897191685e-11
-2.043544147e-11
-2.189159822e-11
-2.322709915e-11
-2.447029903e-11
-2.572137318e-11
-2.700375799e-11
-2.826674039e-11
-2.949148543e-11
-3.071391332e-11
-3.195558999e-11
-3.31920832e-11
-3.439323179e-11
-3.55542639e-11
-3.667768335e-11
-3.77542611e-11
-3.877979664e-11
-3.977577135e-11
-4.077522025e-11
-4.179199706e-11
-4.281798514e-11
-4.385134075e-11
-4.491317965e-11
-4.602370699e-11
-4.716224048e-11
-4.826021026e-11
-4.924301816e-11
-5.008512004e-11
-5.082850943e-11
-5.15495535e-11
-5.230493206e-11
-5.310153699e-11
-5.390957888e-11
-5.47006558e-11
-5.547550737e-11
-5.625971825e-11
-5.707397339e-11
-5.790464945e-11
-5.869822245e-11
-5.93841565e-11
-5.99110446e-11
-6.027319793e-11
-6.051229884e-11
-6.069474199e-11
-6.087878301e-11
-6.108954878e-11
-6.131342252e-11
-6.151169571e-11
-6.164348737e-11
-3.099477563e-11
-1.219610335e-11
-5.529916522e-12
-7.813526667e-12
-9.25947946e-12
-1.06401703e-11
-1.217919599e-11
-1.373432358e-11
-1.513789457e-11
-1.637209788e-11
-1.761528771e-11
-1.903652671e-11
-2.057842814e-11
-2.205535187e-11
-2.341123642e-11
-2.474237831e-11
-2.609805695e-11
-2.740605375e-11
-2.861297887e-11
-2.97838061e-11
-3.10118115e-11
-3.229375246e-11
-3.3544251e-11
-3.470222418e-11
-3.57806107e-11
-3.682391583e-11
-3.785552429e-11
-3.887433276e-11
-3.987873105e-11
-4.087715815e-11
-4.188336432e-11
-4.291476327e-11
-4.399248561e-11
-4.512717747e-11
-4.629397978e-11
-4.742543746e-11
-4.844250856e-11
-4.930599263e-11
-5.004548067e-11
-5.073931639e-11
-5.146130984e-11
-5.223725485e-11
-5.304313358e-11
-5.384047221e-11
-5.46157111e-11
-5.53915346e-11
-5.620377356e-11
-5.706449851e-11
-5.794036769e-11
-5.876195165e-11
-5.945727151e-11
-5.998764885e-11
-6.036451682e-11
-6.063940237e-11
-6.087525057e-11
-6.11163038e-11
-6.137174989e-11
-6.161873244e-11
-6.181961846e-11
-6.194230006e-11
-3.113178465e-11
-1.266995686e-11
-5.483808619e-12
-8.050792416e-12
-9.411280984e-12
-1.089804634e-11
-1.251910518e-11
-1.398883571e-11
-1.520507188e-11
-1.635996492e-11
-1.77176204e-11
-1.930428823e-11
-2.09077424e-11
-2.237953746e-11
-2.378637999e-11
-2.522166003e-11
-2.662323659e-11
-2.787833267e-11
-2.901598573e-11
-3.01828611e-11
-3.145349153e-11
-3.274740912e-11
-3.39401834e-11
-3.499988552e-11
-3.599276928e-11
-3.69912858e-11
-3.801006326e-11
-3.902172066e-11
-4.00060659e-11
-4.097561903e-11
-4.196780191e-11
-4.302253213e-11
-4.415793049e-11
-4.534991723e-11
-4.652858238e-11
-4.760471934e-11
-4.851864716e-11
-4.927831893e-11
-4.995506219e-11
-5.063731442e-11
-5.137701186e-11
-5.216835561e-11
-5.297102985e-11
-5.375451962e-11
-5.452663549e-11
-5.532553172e-11
-5.618433204e-11
-5.709695439e-11
-5.801021853e-11
-5.884690542e-11
-5.954358705e-11
-6.007949256e-11
-6.048089009e-11
-6.080171178e-11
-6.109399263e-11
-6.138483012e-11
-6.166985734e-11
-6.192278937e-11
-6.211275505e-11
-6.221932942e-11
-3.125418164e-11
-1.163201411e-11
-6.185135734e-12
-8.175561122e-12
-9.669973099e-12
-1.131719117e-11
-1.285000002e-11
-1.407303196e-11
-1.517560169e-11
-1.648752252e-11
-1.809714836e-11
-1.979602994e-11
-2.137496395e-11
-2.285546203e-11
-2.43621191e-11
-2.587390654e-11
-2.723836097e-11
-2.840296599e-11
-2.950594905e-11
-3.070532582e-11
-3.199369486e-11
-3.322903807e-11
-3.43090689e-11
-3.526663584e-11
-3.620562394e-11
-3.718743728e-11
-3.819431527e-11
-3.917881391e-11
-4.012549559e-11
-4.106844909e-11
-4.206557686e-11
-4.315850054e-11
-4.434147718e-11
-4.555275327e-11
-4.669617158e-11
-4.76880136e-11
-4.850389705e-11
-4.919301397e-11
-4.98466481e-11
-5.054218135e-11
-5.130298492e-11
-5.210123291e-11
-5.28963421e-11
-5.367568242e-11
-5.446599462e-11
-5.530938007e-11
-5.622474352e-11
-5.718415037e-11
-5.812022251e-11
-5.895819917e-11
-5.965098308e-11
-6.019653451e-11
-6.063029357e-11
-6.100076848e-11
-6.134411869e-11
-6.167070442e-11
-6.196741216e-11
-6.22104932e-11
-6.237977356e-11
-6.246702386e-11
-3.135940652e-11
-1.582192956e-11
-5.963054616e-12
-8.276762995e-12
-1.009174051e-11
-1.168962093e-11
-1.292338318e-11
-1.398694356e-11
-1.527403827e-11
-1.691867581e-11
-1.870431539e-11
-2.037727259e-11
-2.192306118e-11
-2.348736913e-11
-2.510357075e-11
-2.661596458e-11
-2.788585085e-11
-2.897926825e-11
-3.008833123e-11
-3.130727655e-11
-3.254738745e-11
-3.366510433e-11
-3.462266509e-11
-3.550611528e-11
-3.641877916e-11
-3.738843713e-11
-3.837146942e-11
-3.932054609e-11
-4.023788675e-11
-4.117522627e-11
-4.21944699e-11
-4.3322294e-11
-4.452464614e-11
-4.571438049e-11
-4.679107715e-11
-4.769382059e-11
-4.843475996e-11
-4.908947967e-11
-4.974940995e-11
-5.046966308e-11
-5.124851474e-11
-5.204927383e-11
-5.284290662e-11
-5.363650811e-11
-5.446717869e-11
-5.536893711e-11
-5.633953233e-11
-5.733148308e-11
-5.827236648e-11
-5.909931856e-11
-5.978549978e-11
-6.034439441e-11
-6.081333179e-11
-6.122915963e-11
-6.161061503e-11
-6.195483727e-11
-6.224589788e-11
-6.246740159e-11
-6.261137484e-11
-6.2680066e-11
-3.144662142e-11
-1.462122622e-11
-5.783392499e-12
-8.665486734e-12
-1.049688589e-11
-1.180058472e-11
-1.287130665e-11
-1.415723619e-11
-1.584309366e-11
-1.770367284e-11
-1.944277745e-11
-2.101941054e-11
-2.260121181e-11
-2.428277086e-11
-2.594019355e-11
-2.737609181e-11
-2.85496609e-11
-2.961187262e-11
-3.072706753e-11
-3.190761953e-11
-3.30367159e-11
-3.401889089e-11
-3.487757125e-11
-3.571572562e-11
-3.661189604e-11
-3.756503549e-11
-3.852364962e-11
-3.945061687e-11
-4.036128489e-11
-4.131204506e-11
-4.235670383e-11
-4.350272257e-11
-4.469427348e-11
-4.583379759e-11
-4.683213131e-11
-4.765766711e-11
-4.835222183e-11
-4.900232999e-11
-4.968628424e-11
-5.043444637e-11
-5.122850155e-11
-5.203460818e-11
-5.284081173e-11
-5.366934439e-11
-5.455673801e-11
-5.551967744e-11
-5.653340665e-11
-5.753776256e-11
-5.84652592e-11
-5.927154432e-11
-5.994969629e-11
-6.052279008e-11
-6.102308937e-11
-6.147237603e-11
-6.187388323e-11
-6.221707394e-11
-6.248884748e-11
-6.268289521e-11
-6.280243835e-11
-6.28568391e-11
-3.151721847e-11
-1.330602855e-11
-6.732497655e-12
-9.353496709e-12
-1.08372483e-11
-1.194176359e-11
-1.323131528e-11
-1.494354951e-11
-1.685753018e-11
-1.863590834e-11
-2.020778912e-11
-2.175815684e-11
-2.344160785e-11
-2.519177041e-11
-2.679992092e-11
-2.813016104e-11
-2.92343737e-11
-3.027188494e-11
-3.134533359e-11
-3.242557025e-11
-3.341925818e-11
-3.428432929e-11
-3.507358356e-11
-3.588152258e-11
-3.676393947e-11
-3.770655065e-11
-3.865794107e-11
-3.958609569e-11
-4.050929472e-11
-4.148123591e-11
-4.254529884e-11
-4.369222716e-11
-4.48519228e-11
-4.592730801e-11
-4.684936333e-11
-4.761640154e-11
-4.829096263e-11
-4.895799025e-11
-4.967547177e-11
-5.045187559e-11
-5.126188812e-11
-5.20824908e-11
-5.29185897e-11
-5.379919343e-11
-5.475000292e-11
-5.576554703e-11
-5.680225663e-11
-5.779661034e-11
-5.869467495e-11
-5.947334481e-11
-6.014173982e-11
-6.072552223e-11
-6.124679514e-11
-6.171222942e-11
-6.211418509e-11
-6.24406282e-11
-6.268543546e-11
-6.285262106e-11
-6.295350629e-11
-6.300035615e-11
-3.157497053e-11
-1.533382133e-11
-7.556525225e-12
-9.854204511e-12
-1.119739796e-11
-1.251617263e-11
-1.421108132e-11
-1.612821988e-11
-1.792175874e-11
-1.948190472e-11
-2.098512277e-11
-2.262462253e-11
-2.439613563e-11
-2.612507912e-11
-2.763274637e-11
-2.886638963e-11
-2.990793709e-11
-3.088374103e-11
-3.186123881e-11
-3.281649329e-11
-3.368954087e-11
-3.446559376e-11
-3.520330215e-11
-3.598958959e-11
-3.687069693e-11
-3.782422495e-11
-3.879204978e-11
-3.973877141e-11
-4.068309122e-11
-4.167752964e-11
-4.275601735e-11
-4.389337722e-11
-4.500955053e-11
-4.601605758e-11
-4.687032518e-11
-4.759906172e-11
-4.827631555e-11
-4.897553082e-11
-4.973149833e-11
-5.053655926e-11
-5.136717139e-11
-5.221501532e-11
-5.309720981e-11
-5.403977266e-11
-5.504992159e-11
-5.610001339e-11
-5.713510937e-11
-5.809801535e-11
-5.895407737e-11
-5.97002785e-11
-6.035558557e-11
-6.09418577e-11
-6.146877298e-11
-6.193093125e-11
-6.23159405e-11
-6.261570544e-11
-6.283292676e-11
-6.297978643e-11
-6.307126865e-11
-6.311841144e-11
-3.162571194e-11
-1.74187661e-11
-8.350391532e-12
-1.047173697e-11
-1.202811759e-11
-1.37178532e-11
-1.556937777e-11
-1.732214079e-11
-1.885875953e-11
-2.031931274e-11
-2.189395994e-11
-2.361942582e-11
-2.537815193e-11
-2.701125638e-11
-2.840841647e-11
-2.954787923e-11
-3.049801163e-11
-3.136902662e-11
-3.22322756e-11
-3.307767315e-11
-3.385571845e-11
-3.455952357e-11
-3.525709364e-11
-3.604053227e-11
-3.694808349e-11
-3.793834209e-11
-3.89373718e-11
-3.990819009e-11
-4.087720441e-11
-4.189828445e-11
-4.299185465e-11
-4.411368155e-11
-4.517817745e-11
-4.611494504e-11
-4.691358677e-11
-4.762530489e-11
-4.832526811e-11
-4.906742436e-11
-4.986406217e-11
-5.069912784e-11
-5.155796421e-11
-5.244675094e-11
-5.338706748e-11
-5.439254676e-11
-5.544807789e-11
-5.650829669e-11
-5.751645407e-11
-5.842993736e-11
-5.923541844e-11
-5.994554903e-11
-6.05821758e-11
-6.115892035e-11
-6.16738955e-11
-6.211491972e-11
-6.247105723e-11
-6.274166583e-11
-6.293755598e-11
-6.307503507e-11
-6.316794744e-11
-6.32228248e-11
-3.167656761e-11
-1.957474645e-11
-9.818504631e-12
-1.179375403e-11
-1.352197769e-11
-1.52582858e-11
-1.690104661e-11
-1.838489511e-11
-1.981025802e-11
-2.131953811e-11
-2.295114965e-11
-2.463995471e-11
-2.629101462e-11
-2.780652596e-11
-2.90927995e-11
-3.011300969e-11
-3.093615986e-11
-3.16921097e-11
-3.246070587e-11
-3.322069007e-11
-3.391620609e-11
-3.455752568e-11
-3.523841139e-11
-3.605526921e-11
-3.702089813e-11
-3.806148667e-11
-3.909153628e-11
-4.008683654e-11
-4.108894834e-11
-4.214699041e-11
-4.325742083e-11
-4.435526557e-11
-4.535927628e-11
-4.622914216e-11
-4.698946965e-11
-4.770740923e-11
-4.844736238e-11
-4.923867768e-11
-5.007595732e-11
-5.094374804e-11
-5.184069216e-11
-5.278313732e-11
-5.378747122e-11
-5.484765762e-11
-5.59268804e-11
-5.697012947e-11
-5.792874085e-11
-5.87800401e-11
-5.953025701e-11
-6.020115002e-11
-6.081128569e-11
-6.136442413e-11
-6.185081575e-11
-6.225777295e-11
-6.258074857e-11
-6.282747711e-11
-6.301373763e-11
-6.315495625e-11
-6.325958718e-11
-6.332784842e-11
-3.173486708e-11
-2.217015802e-11
-1.149438238e-11
-1.35025674e-11
-1.516162382e-11
-1.665787324e-11
-1.805897069e-11
-1.94539235e-11
-2.09137694e-11
-2.243811921e-11
-2.398908485e-11
-2.554634312e-11
-2.707930352e-11
-2.848750078e-11
-2.964099668e-11
-3.050623192e-11
-3.119546999e-11
-3.186222598e-11
-3.256305764e-11
-3.324554046e-11
-3.386213009e-11
-3.446482165e-11
-3.51738091e-11
-3.60652853e-11
-3.710484736e-11
-3.818934176e-11
-3.92430154e-11
-4.026997422e-11
-4.132232459e-11
-4.242776516e-11
-4.354913393e-11
-4.460797595e-11
-4.554404072e-11
-4.635753967e-11
-4.710371992e-11
-4.785168923e-11
-4.864401677e-11
-4.948557987e-11
-5.036234834e-11
-5.126801419e-11
-5.221472673e-11
-5.322076714e-11
-5.428755611e-11
-5.538583091e-11
-5.646237714e-11
-5.746283922e-11
-5.835493859e-11
-5.913741842e-11
-5.983095622e-11
-6.045926225e-11
-6.103355878e-11
-6.15492872e-11
-6.199446554e-11
-6.236179822e-11
-6.265570508e-11
-6.289040884e-11
-6.308181665e-11
-6.323946798e-11
-6.336358922e-11
-6.344801691e-11
-3.180699192e-11
-2.52054051e-11
-1.339873859e-11
-1.524743104e-11
-1.661628373e-11
-1.790121254e-11
-1.925144192e-11
-2.066807394e-11
-2.208642619e-11
-2.346964691e-11
-2.485735793e-11
-2.630198631e-11
-2.775063223e-11
-2.903362101e-11
-3.000944573e-11
-3.07070034e-11
-3.129312142e-11
-3.190510602e-11
-3.254539645e-11
-3.314552745e-11
-3.370138785e-11
-3.43149417e-11
-3.510415924e-11
-3.609226944e-11
-3.719467414e-11
-3.830493846e-11
-3.93827963e-11
-4.046157261e-11
-4.158330933e-11
-4.273552169e-11
-4.384892068e-11
-4.485055413e-11
-4.571944801e-11
-4.649847051e-11
-4.725975897e-11
-4.805788781e-11
-4.89075747e-11
-4.979619405e-11
-5.071261764e-11
-5.166498481e-11
-5.267377449e-11
-5.374837232e-11
-5.486771769e-11
-5.598087193e-11
-5.702755863e-11
-5.79645461e-11
-5.878088125e-11
-5.949398303e-11
-6.013171032e-11
-6.071354857e-11
-6.124240191e-11
-6.170970341e-11
-6.21075577e-11
-6.243820746e-11
-6.271468486e-11
-6.295340186e-11
-6.316482608e-11
-6.334864995e-11
-6.349597894e-11
-6.359593267e-11
-3.189741503e-11
-2.8921895e-11
-1.539297989e-11
-1.682246419e-11
-1.795315278e-11
-1.91917405e-11
-2.053924556e-11
-2.185502017e-11
-2.307359875e-11
-2.426841818e-11
-2.555923085e-11
-2.695798616e-11
-2.830881325e-11
-2.940520579e-11
-3.017574566e-11
-3.07383835e-11
-3.126887987e-11
-3.184040871e-11
-3.240876523e-11
-3.293359364e-11
-3.3475817e-11
-3.416078761e-11
-3.50609607e-11
-3.61328922e-11
-3.726827064e-11
-3.839346448e-11
-3.951397812e-11
-4.067129978e-11
-4.186960522e-11
-4.304895326e-11
-4.412606815e-11
-4.505886628e-11
-4.587628186e-11
-4.665315156e-11
-4.745798734e-11
-4.831779207e-11
-4.922209654e-11
-5.015353563e-11
-5.111414777e-11
-5.212578227e-11
-5.320704693e-11
-5.434770874e-11
-5.550147274e-11
-5.660280797e-11
-5.759596806e-11
-5.845711897e-11
-5.919696149e-11
-5.984517551e-11
-6.042905103e-11
-6.096018454e-11
-6.143549345e-11
-6.184851569e-11
-6.220094026e-11
-6.250596208e-11
-6.278191757e-11
-6.304158684e-11
-6.328489769e-11
-6.349963224e-11
-6.36689898e-11
-6.378044541e-11
-3.200816388e-11
-3.290037939e-11
-1.682368621e-11
-1.801501101e-11
-1.91822667e-11
-2.044019204e-11
-2.165023917e-11
-2.272569444e-11
-2.375164411e-11
-2.488508639e-11
-2.618432636e-11
-2.752887297e-11
-2.870162563e-11
-2.956472422e-11
-3.016318197e-11
-3.065676321e-11
-3.116280492e-11
-3.168230287e-11
-3.217246346e-11
-3.265901284e-11
-3.325087673e-11
-3.404697597e-11
-3.504709008e-11
-3.616244688e-11
-3.730511958e-11
-3.845664507e-11
-3.965124887e-11
-4.090356739e-11
-4.216170865e-11
-4.33317976e-11
-4.434701112e-11
-4.521642181e-11
-4.601420274e-11
-4.682490366e-11
-4.769331929e-11
-4.861528192e-11
-4.956694191e-11
-5.054061266e-11
-5.155610401e-11
-5.264109085e-11
-5.379954182e-11
-5.499444306e-11
-5.61579939e-11
-5.722159866e-11
-5.814521283e-11
-5.892831335e-11
-5.959871248e-11
-6.018977111e-11
-6.072189473e-11
-6.119855042e-11
-6.16158123e-11
-6.197572304e-11
-6.229283847e-11
-6.25894896e-11
-6.288372761e-11
-6.317860945e-11
-6.3460023e-11
-6.370415774e-11
-6.388946951e-11
-6.400563609e-11
-3.213879737e-11
-3.577942932e-11
-1.769430776e-11
-1.890657254e-11
-2.018427098e-11
-2.135354286e-11
-2.233271834e-11
-2.323411427e-11
-2.424620642e-11
-2.544986183e-11
-2.674655782e-11
-2.793614945e-11
-2.886584962e-11
-2.953043069e-11
-3.004499814e-11
-3.052588355e-11
-3.100409475e-11
-3.145403743e-11
-3.188780247e-11
-3.23956509e-11
-3.308442591e-11
-3.398619297e-11
-3.503904124e-11
-3.61563776e-11
-3.730565195e-11
-3.851504716e-11
-3.980894091e-11
-4.114555238e-11
-4.242221317e-11
-4.354340583e-11
-4.448849684e-11
-4.532164363e-11
-4.614118061e-11
-4.701517689e-11
-4.795346455e-11
-4.892922131e-11
-4.992238091e-11
-5.094522022e-11
-5.203131143e-11
-5.320076819e-11
-5.443163922e-11
-5.565960687e-11
-5.680552252e-11
-5.781106158e-11
-5.865969063e-11
-5.93725437e-11
-5.998614462e-11
-6.052894504e-11
-6.10112352e-11
-6.143166972e-11
-6.179208729e-11
-6.210803634e-11
-6.240698638e-11
-6.271560553e-11
-6.304494137e-11
-6.338335282e-11
-6.370168235e-11
-6.396727838e-11
-6.415838546e-11
-6.427078829e-11
-3.228687696e-11
-3.641899866e-11
-1.838506537e-11
-1.958040056e-11
-2.077217944e-11
-2.175414301e-11
-2.261387808e-11
-2.35648381e-11
-2.471150114e-11
-2.596401112e-11
-2.713559951e-11
-2.808987485e-11
-2.881497682e-11
-2.939253184e-11
-2.99081059e-11
-3.038725659e-11
-3.081314308e-11
-3.119873571e-11
-3.162733628e-11
-3.220952623e-11
-3.299923816e-11
-3.39588749e-11
-3.500997988e-11
-3.611370035e-11
-3.729610486e-11
-3.859473909e-11
-3.998497551e-11
-4.136321793e-11
-4.260631237e-11
-4.365458356e-11
-4.454772259e-11
-4.538814347e-11
-4.626795247e-11
-4.721929031e-11
-4.822008354e-11
-4.923889365e-11
-5.027517711e-11
-5.136234177e-11
-5.253533634e-11
-5.379200071e-11
-5.507901677e-11
-5.631215848e-11
-5.741535544e-11
-5.835220294e-11
-5.913183083e-11
-5.979005885e-11
-6.036202844e-11
-6.086497311e-11
-6.129981717e-11
-6.166637871e-11
-6.197853515e-11
-6.22673867e-11
-6.256982119e-11
-6.290997373e-11
-6.32855434e-11
-6.366756884e-11
-6.401372091e-11
-6.428732216e-11
-6.44714692e-11
-6.457126889e-11
-3.244878398e-11
-3.520175346e-11
-1.880912929e-11
-1.98972633e-11
-2.090530136e-11
-2.178804072e-11
-2.274249513e-11
-2.388493287e-11
-2.512997457e-11
-2.629038469e-11
-2.724582018e-11
-2.800789466e-11
-2.865947617e-11
-2.925936578e-11
-2.980114895e-11
-3.024980534e-11
-3.061292032e-11
-3.097488328e-11
-3.145574992e-11
-3.212942678e-11
-3.29794632e-11
-3.393601708e-11
-3.495591682e-11
-3.60639687e-11
-3.73135554e-11
-3.870645524e-11
-4.015239143e-11
-4.15106789e-11
-4.268001284e-11
-4.366112269e-11
-4.45441529e-11
-4.543780486e-11
-4.640070528e-11
-4.742495023e-11
-4.84733334e-11
-4.953018845e-11
-5.062178892e-11
-5.179304806e-11
-5.30632572e-11
-5.439731765e-11
-5.57137874e-11
-5.692259173e-11
-5.796566853e-11
-5.883511915e-11
-5.956148183e-11
-6.018478364e-11
-6.072975015e-11
-6.120012295e-11
-6.159197599e-11
-6.191322152e-11
-6.219375517e-11
-6.247843283e-11
-6.280701136e-11
-6.319358883e-11
-6.361807469e-11
-6.403469847e-11
-6.439258498e-11
-6.465706363e-11
-6.482077675e-11
-6.490008427e-11
-3.262065633e-11
-3.363158454e-11
-1.877145446e-11
-1.978290893e-11
-2.076235734e-11
-2.175038611e-11
-2.290966447e-11
-2.417930101e-11
-2.536249515e-11
-2.633089002e-11
-2.711547318e-11
-2.782742892e-11
-2.852838797e-11
-2.918264595e-11
-2.971572817e-11
-3.010812763e-11
-3.043759306e-11
-3.083618465e-11
-3.140159553e-11
-3.214042479e-11
-3.299197217e-11
-3.39070368e-11
-3.49046543e-11
-3.605109062e-11
-3.738033646e-11
-3.883190839e-11
-4.026657476e-11
-4.155026182e-11
-4.263730445e-11
-4.358777596e-11
-4.451161404e-11
-4.549013499e-11
-4.653621081e-11
-4.761522295e-11
-4.869849227e-11
-4.980000048e-11
-5.096772136e-11
-5.224029848e-11
-5.360573927e-11
-5.499391682e-11
-5.630726341e-11
-5.746696802e-11
-5.844412341e-11
-5.925887938e-11
-5.995361386e-11
-6.056151993e-11
-6.109148928e-11
-6.153615785e-11
-6.189369513e-11
-6.218583885e-11
-6.245872125e-11
-6.27652545e-11
-6.313972676e-11
-6.357977766e-11
-6.404613213e-11
-6.448003423e-11
-6.482871924e-11
-6.506574326e-11
-6.51967591e-11
-6.524967897e-11
-3.2799267e-11
-3.246531117e-11
-1.849406782e-11
-1.946429563e-11
-2.060339659e-11
-2.180738429e-11
-2.310292366e-11
-2.433116771e-11
-2.534381037e-11
-2.615957474e-11
-2.691307704e-11
-2.769663807e-11
-2.847434375e-11
-2.913624011e-11
-2.96178336e-11
-2.996973028e-11
-3.032561824e-11
-3.080694941e-11
-3.14484e-11
-3.220311497e-11
-3.301550435e-11
-3.389140817e-11
-3.4899855e-11
-3.610418112e-11
-3.748536089e-11
-3.892831177e-11
-4.028655295e-11
-4.147324453e-11
-4.250673229e-11
-4.347975591e-11
-4.448415804e-11
-4.555336442e-11
-4.666250122e-11
-4.777532118e-11
-4.889191478e-11
-5.005678393e-11
-5.132302318e-11
-5.270334052e-11
-5.414636687e-11
-5.555520098e-11
-5.683392737e-11
-5.793026154e-11
-5.884849319e-11
-5.962940235e-11
-6.031507274e-11
-6.092345656e-11
-6.144735052e-11
-6.187459912e-11
-6.221268989e-11
-6.249974451e-11
-6.279395528e-11
-6.314764587e-11
-6.358127088e-11
-6.407219177e-11
-6.456417725e-11
-6.499208607e-11
-6.530882321e-11
-6.550147558e-11
-6.559035872e-11
-6.561361553e-11
-3.298262464e-11
-3.151838505e-11
-1.84233985e-11
-1.930666415e-11
-2.061077185e-11
-2.195346681e-11
-2.323147578e-11
-2.43126724e-11
-2.518301028e-11
-2.596967907e-11
-2.679834871e-11
-2.766596085e-11
-2.845674294e-11
-2.906460051e-11
-2.949485111e-11
-2.986150412e-11
-3.029866734e-11
-3.087036707e-11
-3.155122373e-11
-3.228400449e-11
-3.305613686e-11
-3.392516077e-11
-3.497058809e-11
-3.621524703e-11
-3.758615114e-11
-3.895062021e-11
-4.019922413e-11
-4.130939318e-11
-4.234273281e-11
-4.338515718e-11
-4.448261457e-11
-4.562208387e-11
-4.676539291e-11
-4.790032121e-11
-4.906349567e-11
-5.03165539e-11
-5.169552831e-11
-5.317312235e-11
-5.46617457e-11
-5.605449469e-11
-5.727555202e-11
-5.830798239e-11
-5.918505207e-11
-5.995596015e-11
-6.06514191e-11
-6.127078713e-11
-6.179571532e-11
-6.221753969e-11
-6.255821503e-11
-6.287038835e-11
-6.321623492e-11
-6.363762089e-11
-6.413464761e-11
-6.466419667e-11
-6.515867882e-11
-6.55548678e-11
-6.581844667e-11
-6.59535342e-11
-6.599473473e-11
-6.598778474e-11
-3.317025096e-11
-3.069074187e-11
-1.873894022e-11
-1.948549062e-11
-2.082156372e-11
-2.21425119e-11
-2.329833259e-11
-2.424598424e-11
-2.507237841e-11
-2.591242821e-11
-2.681025545e-11
-2.768210128e-11
-2.840748066e-11
-2.894571105e-11
-2.937079775e-11
-2.980873639e-11
-3.034493385e-11
-3.098100209e-11
-3.166765324e-11
-3.237545298e-11
-3.313821942e-11
-3.403170442e-11
-3.510740959e-11
-3.633966441e-11
-3.763215569e-11
-3.887925394e-11
-4.003221894e-11
-4.111870048e-11
-4.220493306e-11
-4.333669717e-11
-4.450855459e-11
-4.568294845e-11
-4.683789743e-11
-4.799998804e-11
-4.923386233e-11
-5.059546547e-11
-5.208444807e-11
-5.36307636e-11
-5.512477267e-11
-5.646997272e-11
-5.762414436e-11
-5.860553034e-11
-5.946517454e-11
-6.024744132e-11
-6.09648703e-11
-6.160089782e-11
-6.213461874e-11
-6.256854475e-11
-6.294028823e-11
-6.331064934e-11
-6.373534107e-11
-6.423679503e-11
-6.479159293e-11
-6.533975102e-11
-6.581038266e-11
-6.615063011e-11
-6.634443322e-11