/*--------------------------------*- C++ -*----------------------------------*\
  =========                 |
  \\      /  F ield         | OpenFOAM: The Open Source CFD Toolbox
   \\    /   O peration     | Website:  https://openfoam.org
    \\  /    A nd           | Version:  10
     \\/     M anipulation  |
\*---------------------------------------------------------------------------*/
FoamFile
{
    format      ascii;
    class       volScalarField;
    location    "0.001";
    object      Num_divU;
}
// * * * * * * * * * * * * * * * * * * * * * * * * * * * * * * * * * * * * * //

dimensions      [0 0 -1 0 0 0 0];

internalField   nonuniform List<scalar> 
19200
(
2.913639781e-06
-1.004081583e-06
1.768491513e-06
8.132403786e-06
9.224499265e-06
1.05141398e-05
9.011426105e-06
1.354366897e-05
2.05693263e-05
2.079899117e-05
1.832485932e-05
2.061532803e-05
2.622995309e-05
2.96550644e-05
2.96341114e-05
2.913067194e-05
3.05563014e-05
3.342197977e-05
3.582400857e-05
3.675499632e-05
3.671095112e-05
3.672107043e-05
3.730043233e-05
3.822798765e-05
3.89560222e-05
3.90721742e-05
3.849857526e-05
3.744016714e-05
3.621291779e-05
3.506918457e-05
3.409960252e-05
3.324300342e-05
3.237470129e-05
3.140247046e-05
3.031625933e-05
2.919410038e-05
2.816476545e-05
2.728564689e-05
2.65362123e-05
2.604469528e-05
2.577774166e-05
2.55287053e-05
2.556679914e-05
2.625529913e-05
2.684789763e-05
2.691911811e-05
2.68123606e-05
2.716060236e-05
2.774148203e-05
1.713708132e-05
7.682937037e-21
1.256247714e-17
2.465451416e-17
3.568840336e-17
4.635076465e-17
5.674198336e-17
6.691749414e-17
7.689285393e-17
8.663203039e-17
9.61011918e-17
1.052776897e-16
1.141343081e-16
1.226423717e-16
1.307770926e-16
1.385129619e-16
1.458220317e-16
1.526790916e-16
1.59067493e-16
1.649791857e-16
1.704092058e-16
1.753510746e-16
1.797948024e-16
1.837320498e-16
1.871588844e-16
1.900780793e-16
1.924950032e-16
1.944113775e-16
1.958200653e-16
1.967056531e-16
1.970444678e-16
-2.44357798e-07
4.219893905e-06
1.327844542e-05
1.757594532e-05
1.433909234e-05
2.079722511e-05
2.931834686e-05
3.355817989e-05
3.498810563e-05
3.664244929e-05
4.129261268e-05
4.782851365e-05
5.249541014e-05
5.412675451e-05
5.513271902e-05
5.784195607e-05
6.195293581e-05
6.55646882e-05
6.747679192e-05
6.807230275e-05
6.849213437e-05
6.944758885e-05
7.07768745e-05
7.180202329e-05
7.192509743e-05
7.098313965e-05
6.924131525e-05
6.715750298e-05
6.511593494e-05
6.327477253e-05
6.157397184e-05
5.985610388e-05
5.800663449e-05
5.602949035e-05
5.401787795e-05
5.20872656e-05
5.041279452e-05
4.91458944e-05
4.814972635e-05
4.753068291e-05
4.750298165e-05
4.770327816e-05
4.782741803e-05
4.819966504e-05
4.91260894e-05
5.009326489e-05
5.074272107e-05
5.094172856e-05
4.042749848e-05
1.414898651e-05
2.190748911e-17
4.535190502e-17
6.576721293e-17
8.478086179e-17
1.032821292e-16
1.213951055e-16
1.391105849e-16
1.563978548e-16
1.73206961e-16
1.894830922e-16
2.051750483e-16
2.202400839e-16
2.346372164e-16
2.483204525e-16
2.612410385e-16
2.733573446e-16
2.846414658e-16
2.950783121e-16
3.046579387e-16
3.133678485e-16
3.211918452e-16
3.281162303e-16
3.341327575e-16
3.39243519e-16
3.434537983e-16
3.467672406e-16
3.49182367e-16
3.507091472e-16
3.514235939e-16
1.537436828e-16
4.271282987e-06
8.239693553e-06
7.106837133e-06
1.216555828e-05
1.89787763e-05
2.438656063e-05
2.43635457e-05
2.717607075e-05
3.367214882e-05
3.78982823e-05
4.018252265e-05
4.360611949e-05
4.777347272e-05
5.087437557e-05
5.298724278e-05
5.53827105e-05
5.843579836e-05
6.130437467e-05
6.314527788e-05
6.402905737e-05
6.467679695e-05
6.562339809e-05
6.676591377e-05
6.757660084e-05
6.758846729e-05
6.669435036e-05
6.51249993e-05
6.324333149e-05
6.134130631e-05
5.954200978e-05
5.781496695e-05
5.605844254e-05
5.419313735e-05
5.222509576e-05
5.023101162e-05
4.828971298e-05
4.658408586e-05
4.533419776e-05
4.430812579e-05
4.358765414e-05
4.338590046e-05
4.294548123e-05
4.345720836e-05
4.385483467e-05
4.518038741e-05
4.56618414e-05
4.573288469e-05
4.569692591e-05
3.706655404e-05
1.379816457e-05
1.793662065e-17
3.786687492e-17
5.524834959e-17
7.15772808e-17
8.7519114e-17
1.031267933e-16
1.184043787e-16
1.333199057e-16
1.478151454e-16
1.618463429e-16
1.753849403e-16
1.8839834e-16
2.008448641e-16
2.126787226e-16
2.238583835e-16
2.343536242e-16
2.441464692e-16
2.532234504e-16
2.615724515e-16
2.69177701e-16
2.760213843e-16
2.820876021e-16
2.873675051e-16
2.918593955e-16
2.955637023e-16
2.984734798e-16
3.005721688e-16
3.018329563e-16
3.021962193e-16
1.470235691e-16
1.656433646e-06
2.680187531e-06
9.959891095e-06
1.65873492e-05
1.879858014e-05
2.226363663e-05
2.416160624e-05
2.948031446e-05
3.655168801e-05
3.962100041e-05
4.089390952e-05
4.458200785e-05
4.977841772e-05
5.362890695e-05
5.58196119e-05
5.793961706e-05
6.080453852e-05
6.373877257e-05
6.58069391e-05
6.691362079e-05
6.767203736e-05
6.860220638e-05
6.965560597e-05
7.037888554e-05
7.034863698e-05
6.944580355e-05
6.785014567e-05
6.587640786e-05
6.380378995e-05
6.177808673e-05
5.980092825e-05
5.778543543e-05
5.564767922e-05
5.340071399e-05
5.113986554e-05
4.888091074e-05
4.683872008e-05
4.542915507e-05
4.415934682e-05
4.309536112e-05
4.373434492e-05
4.213914462e-05
4.346979736e-05
4.292110242e-05
4.365260659e-05
4.423078695e-05
4.510621526e-05
4.551384747e-05
3.646651547e-05
1.395583045e-05
1.745218574e-17
3.678158979e-17
5.354124704e-17
6.929130483e-17
8.469050897e-17
9.978037791e-17
1.145422027e-16
1.28939795e-16
1.429307255e-16
1.564826372e-16
1.695669176e-16
1.821474123e-16
1.941805391e-16
2.056234085e-16
2.164417641e-16
2.266106975e-16
2.361130246e-16
2.449338268e-16
2.530569169e-16
2.604626386e-16
2.671305387e-16
2.730427669e-16
2.781875713e-16
2.825583249e-16
2.861476052e-16
2.889389217e-16
2.909122149e-16
2.920470766e-16
2.923188728e-16
1.429182798e-16
2.842035696e-06
4.915803546e-06
1.144288189e-05
1.720687261e-05
1.936810872e-05
2.413032753e-05
2.738082736e-05
3.314996866e-05
3.995970337e-05
4.276568966e-05
4.431076578e-05
4.873582669e-05
5.465667737e-05
5.887590246e-05
6.111997026e-05
6.322817449e-05
6.619985136e-05
6.936594086e-05
7.168492177e-05
7.295770991e-05
7.376437021e-05
7.466034907e-05
7.565519267e-05
7.632735802e-05
7.623983632e-05
7.52330765e-05
7.345568582e-05
7.122323634e-05
6.883996038e-05
6.647441359e-05
6.41307867e-05
6.170595215e-05
5.909648445e-05
5.63553586e-05
5.36949402e-05
5.099331288e-05
4.836131775e-05
4.67332383e-05
4.548936857e-05
4.289533471e-05
4.619888999e-05
4.273831481e-05
4.425179029e-05
4.435039645e-05
4.445206472e-05
4.452160785e-05
4.51742328e-05
4.5720114e-05
3.68159361e-05
1.378669482e-05
1.720245159e-17
3.600317527e-17
5.228117785e-17
6.758926782e-17
8.255081209e-17
9.720499223e-17
1.115368059e-16
1.255090305e-16
1.390854862e-16
1.522397726e-16
1.649434553e-16
1.771609255e-16
1.888515631e-16
1.999779043e-16
2.105093826e-16
2.204223847e-16
2.296984334e-16
2.383194212e-16
2.46266818e-16
2.535175234e-16
2.600503279e-16
2.658460807e-16
2.708895141e-16
2.751655607e-16
2.78654532e-16
2.813351924e-16
2.831898213e-16
2.842105902e-16
2.843930054e-16
1.380639594e-16
3.380095587e-06
5.799879536e-06
1.21363591e-05
1.840447038e-05
2.164458777e-05
2.742772153e-05
3.109815694e-05
3.701506626e-05
4.406387281e-05
4.726172158e-05
4.93893954e-05
5.451234472e-05
6.102131714e-05
6.557866937e-05
6.799195511e-05
7.027832139e-05
7.352522855e-05
7.701178394e-05
7.958931037e-05
8.099792987e-05
8.183489669e-05
8.271151424e-05
8.367372009e-05
8.428977645e-05
8.408396358e-05
8.286954752e-05
8.080366108e-05
7.823302388e-05
7.54788243e-05
7.269191977e-05
6.985001823e-05
6.685254888e-05
6.359834713e-05
6.017871931e-05
5.704994773e-05
5.38768974e-05
5.022500266e-05
4.779814635e-05
4.844209813e-05
4.267318289e-05
4.764333843e-05
4.480826514e-05
4.355974869e-05
4.447585893e-05
4.490136124e-05
4.55382309e-05
4.558229981e-05
4.559643413e-05
3.750759114e-05
1.397847229e-05
1.684833157e-17
3.506584679e-17
5.07132164e-17
6.543970882e-17
7.984428318e-17
9.395967275e-17
1.077656162e-16
1.212232766e-16
1.342980287e-16
1.46965512e-16
1.592015043e-16
1.709758978e-16
1.822552091e-16
1.930047321e-16
2.031945886e-16
2.128001649e-16
2.217998773e-16
2.301730483e-16
2.378969697e-16
2.4494948e-16
2.513094218e-16
2.569582717e-16
2.61873897e-16
2.660294851e-16
2.693946302e-16
2.719441131e-16
2.736669543e-16
2.745637743e-16
2.746385085e-16
1.320434048e-16
3.415638452e-06
6.106046919e-06
1.326673708e-05
2.054806053e-05
2.46327348e-05
3.106430313e-05
3.509172963e-05
4.146269411e-05
4.917822473e-05
5.305606042e-05
5.584759051e-05
6.164304243e-05
6.873987059e-05
7.372525003e-05
7.646941142e-05
7.910319586e-05
8.274399798e-05
8.660193377e-05
8.94468908e-05
9.099887262e-05
9.189325824e-05
9.278354539e-05
9.37189497e-05
9.423679665e-05
9.383613374e-05
9.234239707e-05
8.995131311e-05
8.702852366e-05
8.386053551e-05
8.0534834e-05
7.702129621e-05
7.331065323e-05
6.929121873e-05
6.48639691e-05
6.089686476e-05
5.743133632e-05
5.329777447e-05
4.908882088e-05
5.108489388e-05
4.280583806e-05
4.294231385e-05
4.485534113e-05
4.489143917e-05
4.534648878e-05
4.520851007e-05
4.621852934e-05
4.686312766e-05
4.666982422e-05
3.721321637e-05
1.41114441e-05
1.632131062e-17
3.383170054e-17
4.869757123e-17
6.268127497e-17
7.63673853e-17
8.98034708e-17
1.029596404e-16
1.157869583e-16
1.282473192e-16
1.403182999e-16
1.519830342e-16
1.632213358e-16
1.74005215e-16
1.843030697e-16
1.940829313e-16
2.033166117e-16
2.119780646e-16
2.20042148e-16
2.274845607e-16
2.342841328e-16
2.404231822e-16
2.458812379e-16
2.506283131e-16
2.54624329e-16
2.57830925e-16
2.602231529e-16
2.617940754e-16
2.625460204e-16
2.624855303e-16
1.246716527e-16
3.874780693e-06
7.107362547e-06
1.524209972e-05
2.353399869e-05
2.833796689e-05
3.545114432e-05
4.007470726e-05
4.722167972e-05
5.585642757e-05
6.0536398e-05
6.402616564e-05
7.052352376e-05
7.829073298e-05
8.384334287e-05
8.707432912e-05
9.018068012e-05
9.42876298e-05
9.854899514e-05
0.0001016834884
0.0001034105752
0.000104396181
0.0001053097087
0.0001061855331
0.0001065431927
0.0001058972557
0.0001041184871
0.0001014256653
9.813700531e-05
9.444364996e-05
9.037778669e-05
8.597605779e-05
8.141529519e-05
7.646511014e-05
7.034582892e-05
6.465332507e-05
6.207132347e-05
5.759325574e-05
4.994181054e-05
5.014308313e-05
4.766435787e-05
4.67160661e-05
4.493396717e-05
4.484106802e-05
4.50007332e-05
4.575803294e-05
4.587010167e-05
4.623123987e-05
4.722220796e-05
3.759577294e-05
1.424199516e-05
1.564961095e-17
3.221139536e-17
4.608571983e-17
5.91576526e-17
7.196542678e-17
8.457064428e-17
9.69365018e-17
1.090030642e-16
1.207255095e-16
1.320826999e-16
1.430664751e-16
1.536675447e-16
1.638659613e-16
1.736314148e-16
1.829284767e-16
1.917216405e-16
1.999786427e-16
2.076697024e-16
2.14769714e-16
2.212595191e-16
2.271223982e-16
2.323357006e-16
2.368598019e-16
2.406455418e-16
2.43650741e-16
2.458517369e-16
2.472405244e-16
2.478147976e-16
2.475831274e-16
1.157401266e-16
4.416760185e-06
8.364268196e-06
1.7550529e-05
2.686745111e-05
3.247718103e-05
4.048167522e-05
4.596232218e-05
5.411374987e-05
6.381391501e-05
6.937548525e-05
7.363112876e-05
8.093216647e-05
8.951528204e-05
9.579872356e-05
9.966019522e-05
0.0001033404589
0.0001079785119
0.0001126961835
0.0001161807626
0.0001181486496
0.000119273819
0.0001202216168
0.0001210196051
0.0001212089207
0.0001203580532
0.0001183700634
0.0001154042545
0.0001116399123
0.0001071794925
0.0001021034561
9.65230391e-05
9.075953691e-05
8.466975408e-05
7.734082725e-05
6.918095643e-05
6.468732305e-05
6.156435274e-05
5.037823317e-05
4.323962882e-05
3.644908955e-05
3.676490965e-05
3.663123684e-05
3.650663299e-05
3.671642145e-05
4.662211431e-05
4.683626202e-05
4.702765012e-05
4.754961244e-05
3.794115112e-05
1.431889168e-05
1.481339211e-17
3.017111596e-17
4.279821609e-17
5.473289852e-17
6.64724075e-17
7.807622946e-17
8.949588662e-17
1.006569862e-16
1.115055227e-16
1.220195775e-16
1.321994967e-16
1.420499347e-16
1.515608858e-16
1.607026902e-16
1.694344394e-16
1.777107919e-16
1.854911943e-16
1.92741153e-16
1.994346255e-16
2.055513432e-16
2.110745849e-16
2.159758099e-16
2.202096109e-16
2.237221868e-16
2.26472562e-16
2.284373041e-16
2.296004857e-16
2.299526416e-16
2.295042418e-16
1.049772935e-16
4.854295646e-06
9.608605815e-06
1.99965005e-05
3.044426483e-05
3.702988677e-05
4.613764141e-05
5.266656847e-05
6.196538372e-05
7.282988985e-05
7.936258941e-05
8.449891833e-05
9.275294635e-05
0.000102319011
0.0001094893207
0.0001141051295
0.0001184514285
0.0001237004835
0.0001289631607
0.0001328991639
0.0001352040511
0.0001365368025
0.0001375572921
0.0001383190886
0.0001384276385
0.0001375023647
0.0001353924083
0.0001320742341
0.0001275621991
0.000122037514
0.0001157996769
0.000108713415
0.0001008909715
9.414128114e-05
8.730303057e-05
7.288188539e-05
6.211634767e-05
5.699237571e-05
1.993697325e-05
1.424927637e-05
1.364757369e-05
1.349316485e-05
1.351650895e-05
1.373474104e-05
2.346894486e-05
3.945107945e-05
3.803354154e-05
4.794567794e-05
4.766650742e-05
3.825907624e-05
1.450508143e-05
1.373390123e-17
2.760278757e-17
3.872061389e-17
4.927285177e-17
5.972545662e-17
7.013239286e-17
8.042675172e-17
9.051610437e-17
1.003343403e-16
1.09857014e-16
1.190909945e-16
1.280555033e-16
1.367546892e-16
1.451624574e-16
1.532284024e-16
1.608964329e-16
1.68115763e-16
1.748460561e-16
1.810578894e-16
1.867277998e-16
1.918334406e-16
1.963417743e-16
2.002035329e-16
2.033678635e-16
2.05797081e-16
2.074641864e-16
2.083415754e-16
2.084135188e-16
2.076899571e-16
9.202941897e-17
5.398376055e-06
1.105087602e-05
2.275386214e-05
3.446892842e-05
4.219155371e-05
5.255523804e-05
6.025390384e-05
7.079719711e-05
8.291890075e-05
9.053767245e-05
9.67002648e-05
0.0001060690108
0.0001167735746
0.0001249634457
0.0001304408058
0.0001355483643
0.0001415118588
0.0001474414913
0.0001519593046
0.0001547169211
0.0001563464635
0.0001575233087
0.0001583706295
0.0001585713374
0.0001577210169
0.0001554726572
0.0001515513453
0.0001459624574
0.0001392937569
0.0001321948959
0.0001236456463
0.0001129979024
0.0001028167611
9.787941026e-05
6.442126498e-05
2.494675043e-05
1.246169393e-05
1.625605244e-20
4.136094047e-18
4.459774033e-18
4.404727702e-18
3.956082791e-18
8.786953056e-18
1.628230131e-05
1.442718105e-05
2.434826496e-05
4.077205087e-05
3.888316062e-05
3.889138585e-05
1.461620882e-05
1.239370375e-17
2.4393934e-17
3.372115855e-17
4.264752336e-17
5.157647764e-17
6.055858909e-17
6.951258045e-17
7.832964272e-17
8.69323407e-17
9.528748296e-17
1.034049388e-16
1.113187256e-16
1.190498635e-16
1.26578839e-16
1.338500233e-16
1.407927512e-16
1.47342886e-16
1.534534345e-16
1.590891906e-16
1.642189109e-16
1.688111761e-16
1.728273809e-16
1.762207423e-16
1.789465268e-16
1.809710678e-16
1.822583126e-16
1.82769067e-16
1.82485739e-16
1.814121431e-16
7.643286532e-17
6.123329168e-06
1.274282425e-05
2.58161202e-05
3.890858985e-05
4.787277332e-05
5.95769962e-05
6.851848947e-05
8.038450081e-05
9.386109422e-05
0.0001026939071
0.0001100316559
0.0001206626666
0.000132637316
0.0001419614601
0.0001484081949
0.0001543944019
0.0001612126276
0.0001679708875
0.0001732351905
0.0001765939716
0.0001786578278
0.0001801546716
0.0001813079336
0.0001818332641
0.0001811625694
0.0001786404421
0.0001738644541
0.000167162572
0.0001596229633
0.0001519441501
0.0001422540779
0.0001282247596
0.0001106360217
4.439952787e-05
1.80467526e-05
1.052490622e-20
6.304951465e-18
9.334822949e-18
9.557437881e-18
9.36747649e-18
8.753252291e-18
7.909571596e-18
6.90048662e-18
3.828498396e-18
8.744910607e-18
1.682009671e-05
1.471981942e-05
2.460370023e-05
3.162715643e-05
1.523811199e-05
1.075921064e-17
2.039821918e-17
2.764832227e-17
3.467875199e-17
4.182695232e-17
4.913044429e-17
5.649294044e-17
6.379679353e-17
7.09608557e-17
7.794092611e-17
8.473995233e-17
9.140215553e-17
9.7969006e-17
1.044329689e-16
1.107363199e-16
1.16795684e-16
1.225328659e-16
1.278906693e-16
1.3282512e-16
1.372925941e-16
1.41248857e-16
1.446518188e-16
1.474601145e-16
1.496372819e-16
1.511483423e-16
1.519473633e-16
1.519876498e-16
1.512507178e-16
1.497274914e-16
5.759330491e-17
6.898833881e-06
1.450489628e-05
2.897127542e-05
4.34850767e-05
5.371769273e-05
6.678339447e-05
7.700180241e-05
9.024808561e-05
0.0001051634718
0.0001153216228
0.0001239578389
0.000135967073
0.000149317797
0.0001598840758
0.0001674252465
0.0001744448322
0.0001823055875
0.0001901021094
0.0001963239806
0.0002004877093
0.0002032047561
0.0002052943523
0.0002070735016
0.0002081835506
0.0002077522464
0.000204876906
0.0001994474138
0.0001923889005
0.0001843034352
0.0001739523494
0.0001640706544
0.000153544709
4.651563097e-05
7.241797517e-20
8.304202165e-18
1.288214479e-17
1.304895064e-17
1.261459588e-17
1.219287289e-17
1.151491019e-17
1.053838472e-17
9.191443484e-18
8.142816759e-18
7.077885081e-18
6.306933067e-18
2.886312967e-18
7.604365867e-18
1.710873565e-05
1.521427645e-05
1.125530258e-05
8.77432016e-18
1.520722108e-17
2.012185726e-17
2.503070662e-17
3.015744035e-17
3.551684523e-17
4.100557705e-17
4.651347639e-17
5.197399785e-17
5.733650754e-17
6.258518724e-17
6.776266471e-17
7.292646206e-17
7.808898216e-17
8.319858038e-17
8.816505567e-17
9.289509918e-17
9.732014215e-17
1.013838579e-16
1.050260929e-16
1.081893952e-16
1.108275771e-16
1.129064785e-16
1.143953006e-16
1.152525721e-16
1.15422835e-16
1.148596099e-16
1.135405161e-16
1.11435439e-16
3.476500431e-17
7.622387452e-06
1.61954497e-05
3.202954157e-05
4.791917005e-05
5.936682079e-05
7.375370184e-05
8.523791863e-05
9.988187044e-05
0.000116277508
0.0001278269254
0.0001378387717
0.0001513017064
0.0001661102428
0.00017802642
0.0001868108069
0.0001950580628
0.0002041939798
0.0002132821104
0.0002207192073
0.0002259559441
0.0002296394586
0.0002327038938
0.0002355015043
0.0002374576778
0.0002373488011
0.0002343319816
0.00022914278
0.0002230558187
0.0002134733517
0.0001992322537
0.000183684852
8.656182046e-05
-3.449822013e-20
1.703468485e-17
1.854148955e-17
1.848581208e-17
1.727723833e-17
1.616809499e-17
1.496037705e-17
1.351115614e-17
1.204480725e-17
1.05080122e-17
9.12133512e-18
7.707023951e-18
6.477268029e-18
5.206751605e-18
4.330098387e-18
6.181895074e-18
1.128346157e-05
8.305572885e-22
5.370389446e-18
8.053643193e-18
1.058979802e-17
1.323707299e-17
1.611889463e-17
1.925613069e-17
2.255419544e-17
2.593274676e-17
2.93728417e-17
3.283212559e-17
3.626617492e-17
3.969410828e-17
4.317962132e-17
4.675590414e-17
5.038912434e-17
5.399151574e-17
5.746012986e-17
6.071266818e-17
6.367826721e-17
6.627967392e-17
6.844493865e-17
7.012554001e-17
7.129174222e-17
7.191153045e-17
7.193384397e-17
7.129781783e-17
6.99615388e-17
6.78919057e-17
6.503250592e-17
7.033354815e-18
8.292291282e-06
1.777274183e-05
3.485198519e-05
5.197065114e-05
6.449931066e-05
8.00987553e-05
9.277473224e-05
0.0001087688235
0.0001266182529
0.0001395599404
0.0001509675907
0.0001659157145
0.0001822400938
0.0001956145506
0.0002058118844
0.0002155122175
0.0002261872204
0.0002368492891
0.0002457954552
0.0002524334384
0.0002574858816
0.0002619977709
0.0002662559858
0.0002693600679
0.0002698630894
0.000267376862
0.000263453033
0.0002582536976
0.0002473849869
0.0002360571039
0.0001820414944
3.425880874e-05
8.464899954e-18
2.264350781e-17
2.337956757e-17
2.222067346e-17
2.098021715e-17
1.963396955e-17
1.782641057e-17
1.583483726e-17
1.387179856e-17
1.194868228e-17
1.005597764e-17
8.174464452e-18
6.320336336e-18
4.485045469e-18
2.895452106e-18
2.145690588e-18
-2.437420826e-18
-1.536025427e-18
-1.59993019e-18
-1.505782308e-18
-1.356358733e-18
-1.159646054e-18
-7.969580865e-19
-2.05915013e-19
5.3214949e-19
1.378796945e-18
2.403382648e-18
3.602883414e-18
4.902884998e-18
6.276531962e-18
7.769486524e-18
9.429130886e-18
1.124833177e-17
1.315341033e-17
1.50373614e-17
1.680694476e-17
1.837738979e-17
1.965557665e-17
2.055797027e-17
2.103268285e-17
2.104803124e-17
2.056394019e-17
1.95196232e-17
1.785405877e-17
1.552934058e-17
1.249325289e-17
8.665917105e-18
-2.671569436e-17
8.917309875e-06
1.917153523e-05
3.723854665e-05
5.533069967e-05
6.871513679e-05
8.533034433e-05
9.903608551e-05
0.0001162428077
0.0001354306228
0.0001496863046
0.0001624446113
0.0001788601042
0.0001967295001
0.0002116641018
0.0002234538955
0.000234847595
0.0002473373288
0.0002598664806
0.0002706395306
0.0002790586943
0.0002859545805
0.0002924426251
0.0002986338683
0.0003033223011
0.0003052213922
0.000304627446
0.0003023430168
0.0002945362751
0.0002832171315
0.0002705303877
0.0001425512338
-2.21685069e-20
2.808162228e-17
3.0016989e-17
2.880765353e-17
2.663547477e-17
2.500582169e-17
2.321739656e-17
2.086373714e-17
1.835435951e-17
1.591765075e-17
1.35261468e-17
1.103646406e-17
8.513042936e-18
5.967922753e-18
3.269487262e-18
4.36918837e-19
-2.34468429e-18
-5.497001284e-18
-8.395622147e-18
-1.10114202e-17
-1.345730308e-17
-1.594241512e-17
-1.852916962e-17
-2.107156341e-17
-2.343343813e-17
-2.570141662e-17
-2.788313564e-17
-2.978271119e-17
-3.132060913e-17
-3.257972834e-17
-3.364603563e-17
-3.452152539e-17
-3.51635488e-17
-3.555465195e-17
-3.574689944e-17
-3.584339568e-17
-3.594479721e-17
-3.614655022e-17
-3.655157526e-17
-3.725108693e-17
-3.830254538e-17
-3.974652433e-17
-4.163630557e-17
-4.404118956e-17
-4.701644155e-17
-5.060288084e-17
-5.487502754e-17
-5.992391411e-17
-6.783231369e-17
9.447060727e-06
2.023244219e-05
3.888584821e-05
5.757790937e-05
7.14819066e-05
8.880261105e-05
0.0001032629922
0.0001214325541
0.0001417360469
0.0001571339231
0.0001711203952
0.0001889237823
0.0002083239797
0.0002248964432
0.0002384466181
0.0002517641268
0.0002663313396
0.0002810130948
0.000293945977
0.0003045714309
0.0003138336906
0.0003228272922
0.0003313791266
0.0003381247197
0.0003424273039
0.0003451523324
0.0003433333203
0.0003364180036
0.0003293629653
0.0002398425621
5.384393726e-05
1.271170337e-17
3.486629995e-17
3.602756047e-17
3.418913245e-17
3.143033579e-17
2.926713194e-17
2.692001606e-17
2.405961137e-17
2.107275583e-17
1.813144628e-17
1.514348333e-17
1.197199845e-17
8.685148098e-18
5.309805784e-18
1.635911038e-18
-2.368531967e-18
-6.774317144e-18
-1.170368481e-17
-1.70037827e-17
-2.237004945e-17
-2.773307824e-17
-3.328359178e-17
-3.914477495e-17
-4.512685441e-17
-5.096076799e-17
-5.67752261e-17
-6.258449925e-17
-6.805509046e-17
-7.297498571e-17
-7.738692427e-17
-8.142610774e-17
-8.51622089e-17
-8.858431181e-17
-9.166324467e-17
-9.443203096e-17
-9.698723688e-17
-9.943370939e-17
-1.01872119e-16
-1.044089093e-16
-1.071376731e-16
-1.101238013e-16
-1.134224099e-16
-1.171023754e-16
-1.212358196e-16
-1.258715703e-16
-1.31061024e-16
-1.368968688e-16
-1.434614534e-16
-1.179349127e-16
9.786792239e-06
2.074093354e-05
3.944228739e-05
5.82313186e-05
7.218792702e-05
8.977008216e-05
0.0001045785056
0.0001233320558
0.000144405253
0.0001606647023
0.0001756627987
0.000194693219
0.0002155431646
0.0002337794053
0.0002492148831
0.0002646439972
0.0002815097048
0.000298603754
0.0003140390133
0.0003273405097
0.0003395360832
0.0003515753983
0.0003629499482
0.0003723726028
0.0003799831379
0.0003865194888
0.0003857364133
0.0003827543237
0.0003816661056
0.0002013871514
-1.256736997e-19
3.94334916e-17
4.298944213e-17
4.167765664e-17
3.982330207e-17
3.687942592e-17
3.409785945e-17
3.112231913e-17
2.762607628e-17
2.403160658e-17
2.045640484e-17
1.673634589e-17
1.275057067e-17
8.540500603e-18
4.156309916e-18
-6.539892913e-19
-6.005151223e-18
-1.205746008e-17
-1.907734543e-17
-2.703939814e-17
-3.554535727e-17
-4.432133854e-17
-5.35024452e-17
-6.329541641e-17
-7.343768507e-17
-8.340392514e-17
-9.34141294e-17
-1.035406138e-16
-1.133448178e-16
-1.224569115e-16
-1.308147214e-16
-1.385618817e-16
-1.458318664e-16
-1.526622189e-16
-1.590330885e-16
-1.649696572e-16
-1.705671071e-16
-1.759350732e-16
-1.811764744e-16
-1.863957326e-16
-1.916850051e-16
-1.971189122e-16
-2.027708459e-16
-2.087218777e-16
-2.15040176e-16
-2.217714914e-16
-2.28981335e-16
-2.367676387e-16
-2.451881783e-16
-1.789246534e-16
9.842126061e-06
2.049115842e-05
3.856984689e-05
5.681482727e-05
7.021586851e-05
8.747126019e-05
0.0001020806624
0.000120900297
0.0001422613006
0.0001589786704
0.0001746604758
0.0001946530464
0.0002167773826
0.0002366198363
0.0002539874673
0.0002716382014
0.0002909521797
0.0003106721167
0.0003289451486
0.0003454081418
0.0003611018004
0.0003767177907
0.0003915079556
0.0004046039252
0.0004161621326
0.0004211076914
0.0004206556125
0.0004235105079
0.0003301696898
0.0001432453608
1.90614944e-17
4.836687852e-17
4.93498521e-17
4.763939525e-17
4.578927219e-17
4.275409864e-17
3.887941251e-17
3.514213891e-17
3.114785547e-17
2.707717938e-17
2.289086398e-17
1.841879879e-17
1.355009359e-17
8.283405319e-18
2.707206842e-18
-3.490955617e-18
-1.043969245e-17
-1.828180799e-17
-2.751731507e-17
-3.840264182e-17
-5.050815753e-17
-6.333585003e-17
-7.687844736e-17
-9.146039713e-17
-1.067228934e-16
-1.21683805e-16
-1.366871352e-16
-1.519009853e-16
-1.668688789e-16
-1.810852213e-16
-1.943403664e-16
-2.067265154e-16
-2.18409618e-16
-2.294720142e-16
-2.39913385e-16
-2.497659619e-16
-2.591324515e-16
-2.681309786e-16
-2.76869222e-16
-2.854466084e-16
-2.939529156e-16
-3.024730045e-16
-3.110964997e-16
-3.199092791e-16
-3.289709456e-16
-3.383263335e-16
-3.480523112e-16
-3.582335626e-16
-3.689020501e-16
-2.529848316e-16
9.540431511e-06
1.930908384e-05
3.596365212e-05
5.288514118e-05
6.498310012e-05
8.118135317e-05
9.49059411e-05
0.0001131337159
0.0001341591584
0.0001507991114
0.0001667147639
0.0001872847798
0.0002103903265
0.0002316683273
0.0002509045414
0.0002707789398
0.0002925967058
0.0003150933561
0.0003365071023
0.0003565697475
0.0003762002043
0.0003957355789
0.0004144204405
0.0004323431599
0.0004515006745
0.0004673657294
0.0004809650282
0.0004772540816
0.0004012841743
0.0001583717873
2.357867494e-17
5.485448261e-17
5.569968548e-17
5.403882259e-17
5.048566457e-17
4.791811918e-17
4.408643457e-17
3.98742416e-17
3.5298591e-17
3.059171637e-17
2.561632875e-17
2.034128016e-17
1.459394925e-17
8.277209879e-18
1.499349157e-18
-6.245921278e-18
-1.506064138e-17
-2.495507387e-17
-3.665102881e-17
-5.085266619e-17
-6.719330584e-17
-8.495425454e-17
-1.038115262e-16
-1.242903221e-16
-1.459130873e-16
-1.670232759e-16
-1.880625784e-16
-2.092787512e-16
-2.30308381e-16
-2.505942125e-16
-2.697839298e-16
-2.878806669e-16
-3.050388698e-16
-3.213581978e-16
-3.36852351e-16
-3.515654272e-16
-3.656132698e-16
-3.791269515e-16
-3.922201644e-16
-4.04989229e-16
-4.175220333e-16
-4.299127033e-16
-4.422621982e-16
-4.546513536e-16
-4.671268913e-16
-4.797324682e-16
-4.925449673e-16
-5.05619792e-16
-5.189711591e-16
-3.425768208e-16
8.824417454e-06
1.704185357e-05
3.135009991e-05
4.604565245e-05
5.597135587e-05
7.025632957e-05
8.228658088e-05
9.913700609e-05
0.0001190723343
0.0001349728812
0.0001505483548
0.0001711835592
0.0001948455161
0.0002172550766
0.0002381617172
0.0002601304332
0.0002843952845
0.000309745566
0.0003345638611
0.0003586195996
0.0003825395587
0.0004062572794
0.0004291610453
0.0004505612035
0.0004654174002
0.0004801218902
0.0005116600094
0.0005125108465
0.0004265232115
0.0001698486429
2.646113993e-17
6.091611015e-17
6.060379174e-17
6.004201998e-17
5.715968333e-17
5.383505842e-17
4.961268573e-17
4.463805222e-17
3.937827157e-17
3.414169551e-17
2.844890822e-17
2.251774985e-17
1.599852664e-17
8.754689592e-18
9.772274803e-19
-8.274650942e-18
-1.911787003e-17
-3.137219471e-17
-4.586967252e-17
-6.392232156e-17
-8.530804975e-17
-1.091258027e-16
-1.344415041e-16
-1.62187951e-16
-1.91610152e-16
-2.203782514e-16
-2.48884395e-16
-2.773423524e-16
-3.055585607e-16
-3.330227064e-16
-3.593000354e-16
-3.84309979e-16
-4.081709956e-16
-4.309680647e-16
-4.527129323e-16
-4.734548005e-16
-4.933188849e-16
-5.124471253e-16
-5.309593209e-16
-5.489489198e-16
-5.665020145e-16
-5.83718849e-16
-6.007012439e-16
-6.175166363e-16
-6.341943566e-16
-6.507727377e-16
-6.673095181e-16
-6.838226716e-16
-7.00313462e-16
-4.504184738e-16
7.641061795e-06
1.355339165e-05
2.450409615e-05
3.598424618e-05
4.278382545e-05
5.420996035e-05
6.364631678e-05
7.823346899e-05
9.621519354e-05
0.0001106099179
0.0001251648949
0.00014523306
0.0001688919185
0.0001919835508
0.0002142085543
0.0002379845155
0.0002644901893
0.0002926407593
0.0003210098893
0.0003493316723
0.0003777966807
0.0004060142907
0.0004345772034
0.0004663507051
0.0004947796055
0.0005137193162
0.0005320165887
0.0005478585845
0.0004556525649
0.0001801417474
2.916979376e-17
6.59067521e-17
6.969823484e-17
6.641663641e-17
6.337410024e-17
5.868234473e-17
5.458634818e-17
4.97699498e-17
4.422768042e-17
3.848922281e-17
3.187880983e-17
2.524382394e-17
1.783332248e-17
9.646221747e-18
1.095360807e-18
-9.4616823e-18
-2.225518287e-17
-3.701124687e-17
-5.451296823e-17
-7.684447952e-17
-1.041053367e-16
-1.352187409e-16
-1.681718168e-16
-2.04879914e-16
-2.436397898e-16
-2.818856945e-16
-3.19758605e-16
-3.572265487e-16
-3.942181986e-16
-4.303259236e-16
-4.651136833e-16
-4.984657944e-16
-5.304721917e-16
-5.611917681e-16
-5.906230322e-16
-6.188115635e-16
-6.458813746e-16
-6.719766076e-16
-6.972169728e-16
-7.216896572e-16
-7.454749619e-16
-7.686691714e-16
-7.913631124e-16
-8.136011788e-16
-8.353910088e-16
-8.567540767e-16
-8.777114711e-16
-8.982403832e-16
-9.183200098e-16
-5.79421955e-16
5.944530726e-06
8.74523486e-06
1.529822957e-05
2.25459774e-05
2.523604498e-05
3.282391102e-05
3.8733964e-05
5.012330975e-05
6.522303854e-05
7.727438703e-05
9.004649071e-05
0.0001088101477
0.000131775914
0.0001549498086
0.0001779749677
0.0002030899724
0.000231432853
0.0002621083413
0.0002939140656
0.0003265123838
0.0003596980094
0.0003927685619
0.0004254873829
0.0004581723077
0.0004915648738
0.0005275978439
0.0005469276514
0.0005676571377
0.0004769384172
0.0001827024953
1.059598266e-16
7.124570375e-17
7.284010592e-17
7.033003728e-17
6.869521804e-17
6.498034866e-17
6.049417059e-17
5.521327867e-17
4.932462618e-17
4.319324614e-17
3.566686351e-17
2.847923428e-17
1.998656332e-17
1.072908451e-17
1.56183665e-18
-9.985002793e-18
-2.433382768e-17
-4.13347245e-17
-6.16480271e-17
-8.818978864e-17
-1.222162041e-16
-1.622182264e-16
-2.042088204e-16
-2.520779182e-16
-3.020845336e-16
-3.51834612e-16
-4.011699263e-16
-4.497579669e-16
-4.975411537e-16
-5.441786207e-16
-5.892742274e-16
-6.327228498e-16
-6.746109772e-16
-7.149789132e-16
-7.538134111e-16
-7.91153811e-16
-8.271123203e-16
-8.618206569e-16