/*--------------------------------*- C++ -*----------------------------------*\
  =========                 |
  \\      /  F ield         | OpenFOAM: The Open Source CFD Toolbox
   \\    /   O peration     | Website:  https://openfoam.org
    \\  /    A nd           | Version:  10
     \\/     M anipulation  |
\*---------------------------------------------------------------------------*/
FoamFile
{
    format      ascii;
    class       volScalarField;
    location    "0.001";
    object      p;
}
// * * * * * * * * * * * * * * * * * * * * * * * * * * * * * * * * * * * * * //

dimensions      [1 -1 -2 0 0 0 0];

internalField   nonuniform List<scalar> 
19200
(
-0.01429736046
-0.01381415388
-0.01333097038
-0.01284778474
-0.01236459954
-0.01188141618
-0.01139822753
-0.0109150235
-0.01043179737
-0.009948546049
-0.009465267095
-0.008981958797
-0.008498621129
-0.008015254698
-0.007531859275
-0.007048433819
-0.006564977506
-0.006081490341
-0.005597972915
-0.005114425907
-0.004630849929
-0.004147245769
-0.003663614646
-0.003179958223
-0.00269627839
-0.002212576989
-0.001728855642
-0.001245115707
-0.0007613582929
-0.0002775842837
0.0002062057135
0.0006900114843
0.00117383337
0.001657672422
0.002141530516
0.002625410388
0.003109315602
0.00359325041
0.004077219569
0.004561228157
0.005045281311
0.00552938402
0.006013541019
0.006497756545
0.006982034115
0.007466376564
0.007950786066
0.008435263291
0.008919806087
-4.59603816e-05
-12.99994264
-25.77916576
-38.15214861
-49.95360655
-61.05810489
-71.38208825
-80.88130908
-89.54513737
-97.38939965
-104.449074
-110.7716969
-116.4119055
-121.4272248
-125.8750135
-129.8103902
-133.2849347
-136.3459672
-139.036239
-141.3939014
-143.4526519
-145.241983
-146.7874832
-148.1111537
-149.2317183
-150.1649115
-150.9237368
-151.51869
-151.9579457
-152.2475058
-152.3913101
-0.01429736294
-0.01381415296
-0.01333096895
-0.01284778651
-0.01236460529
-0.01188142416
-0.01139823597
-0.01091503216
-0.0104318062
-0.00994855437
-0.009465274463
-0.008981965463
-0.008498627432
-0.008015260474
-0.007531863961
-0.007048436911
-0.006564978773
-0.006081489688
-0.005597970172
-0.005114420775
-0.004630842086
-0.004147234994
-0.003663600862
-0.00317994147
-0.002696258766
-0.002212554627
-0.001728830713
-0.001245088456
-0.0007613290866
-0.0002775536392
0.0002062371193
0.0006900428315
0.001173863728
0.001657700792
0.002141555875
0.00262543175
0.003109332103
0.003593261412
0.004077224709
0.004561227385
0.005045274914
0.005529372522
0.006013525128
0.006497737065
0.006982012001
0.00746635279
0.007950761681
0.008435239767
0.008919786666
-4.59794229e-05
-13.20793377
-26.18540605
-38.72367359
-50.65056625
-61.83861998
-72.20685092
-81.7167018
-90.36470356
-98.17398778
-105.1861258
-111.4541113
-117.0367951
-121.9947559
-126.3874258
-130.2712227
-133.6984471
-136.7167283
-139.3688488
-141.6928138
-143.7220717
-145.4858143
-147.0093133
-148.3142602
-149.4190902
-150.3392799
-151.0876093
-151.674388
-152.1076419
-152.3932621
-152.5351148
-0.01429736629
-0.01381415582
-0.01333097396
-0.01284779306
-0.01236461258
-0.01188143232
-0.01139824492
-0.01091504099
-0.01043181406
-0.009948561021
-0.009465279919
-0.008981969472
-0.008498629368
-0.008015259584
-0.007531859614
-0.007048428625
-0.006564966105
-0.006081472147
-0.005597947234
-0.005114391957
-0.004630807019
-0.004147193444
-0.003663552733
-0.003179886781
-0.002696197656
-0.00221248737
-0.001728757766
-0.001245010502
-0.0007612470778
-0.000277468813
0.0002063232457
0.0006901284899
0.001173946948
0.00165777947
0.002141627868
0.002625495012
0.003109384879
0.00359330246
0.004077253448
0.004561243917
0.005045280035
0.005529367488
0.006013511685
0.006497717009
0.006981987175
0.007466324852
0.007950732181
0.008435210166
0.008919758218
-4.601036288e-05
-13.64855695
-27.03085122
-39.9065736
-52.0863651
-63.4389581
-73.88999395
-83.41394399
-92.02298769
-99.75572253
-106.6673305
-112.8218282
-118.2864081
-123.1275784
-127.4087116
-131.1886284
-134.5209033
-137.453651
-140.0296146
-142.2864342
-144.2570075
-145.9698899
-147.4496964
-148.7174842
-149.7911034
-150.6855094
-151.4130334
-151.9836115
-152.4049727
-152.6827866
-152.8207728
-0.01429737087
-0.01381416171
-0.01333098113
-0.0128478018
-0.01236462297
-0.01188144389
-0.01139825692
-0.01091505275
-0.01043182512
-0.009948571061
-0.009465288411
-0.008981975608
-0.008498632216
-0.008015258261
-0.007531853322
-0.007048416587
-0.006564947516
-0.006081446194
-0.00559791315
-0.005114349082
-0.004630754827
-0.004147131551
-0.003663480894
-0.003179804901
-0.002696105816
-0.002212385876
-0.001728647211
-0.001244891826
-0.0007611216189
-0.0002773383438
0.0002064565098
0.0006902619149
0.001174077543
0.001657903987
0.002141742925
0.002625597287
0.003109471416
0.003593371114
0.004077303214
0.004561274909
0.005045293652
0.005529365701
0.006013497281
0.00649769276
0.006981955895
0.007466289087
0.007950694028
0.008435171072
0.008919719027
-4.60526695e-05
-14.3574511
-28.38286836
-41.78540464
-54.34936261
-65.94085361
-76.50022304
-86.02609282
-94.55758103
-102.1585845
-108.9056459
-114.8794632
-120.1594312
-124.8204385
-128.9312144
-132.5536764
-135.7428874
-138.5473581
-141.0095253
-143.1663016
-145.0496349
-146.6870422
-148.1020989
-149.3148774
-150.3423306
-151.1986217
-151.8954041
-152.4420528
-152.8458517
-153.1121396
-153.2444172
-0.01429737554
-0.01381416902
-0.01333099103
-0.0128478143
-0.01236463776
-0.01188146038
-0.0113982745
-0.01091507085
-0.01043184317
-0.009948588339
-0.009465303991
-0.008981988403
-0.008498641105
-0.008015262154
-0.007531851145
-0.007048407241
-0.006564929887
-0.006081419198
-0.005597875794
-0.005114300494
-0.004630694266
-0.004147058407
-0.003663394692
-0.003179705332
-0.002695992784
-0.002212259564
-0.001728508155
-0.001244741007
-0.0007609605487
-0.0002771691463
0.0002066310534
0.000690438377
0.001174251928
0.001658071858
0.002141899536
0.002625737763
0.003109591124
0.003593466453
0.00407737263
0.00456131836
0.005045313365
0.005529364577
0.006013479274
0.006497661999
0.006981916326
0.007466244098
0.007950646118
0.008435121842
0.008919669281
-4.610572776e-05
-15.40016649
-30.35776658
-44.50281413
-57.58482724
-69.47487092
-80.14395203
-89.63262352
-98.02265941
-105.4153889
-111.917206
-117.6309479
-122.6514154
-127.0635306
-130.9420317
-134.351976
-137.3496124
-139.9833694
-142.2948273
-144.3196125
-146.0881891
-147.6265456
-148.9567802
-150.0975968
-151.0647205
-151.8712434
-152.5279092
-153.0433445
-153.4242423
-153.6755035
-153.8003397
-0.01429738053
-0.01381417848
-0.01333100456
-0.01284783174
-0.0123646587
-0.01188148431
-0.01139830084
-0.0109150989
-0.01043187208
-0.00994861709
-0.009465331398
-0.00898201317
-0.008498661894
-0.008015277629
-0.007531859948
-0.007048407987
-0.006564921194
-0.006081399744
-0.005597844355
-0.005114255958
-0.004630635625
-0.004146984753
-0.003663305229
-0.003179599412
-0.002695869961
-0.002212119672
-0.001728351409
-0.001244568138
-0.0007607729645
-0.0002769690818
0.0002068404258
0.0006906529305
0.001174466682
0.001658281168
0.002142097177
0.002625917009
0.003109744946
0.003593588331
0.004077460573
0.004561372089
0.005045336145
0.005529360923
0.006013454408
0.006497621525
0.006981866097
0.007466188642
0.007950588173
0.008435062898
0.008919610019
-4.616756103e-05
-16.88697829
-33.14521745
-48.28325819
-62.01226149
-74.22985098
-84.96809087
-94.33779011
-102.4850446
-109.5631059
-115.7168415
-121.0757075
-125.7517521
-129.8402374
-133.4214061
-136.5625839
-139.3202175
-141.7416805
-143.8668028
-145.7291324
-147.3569641
-148.7741716
-150.0008802
-151.0540098
-151.9477119
-152.6937228
-153.3016456
-153.7791745
-154.1322703
-154.3652933
-154.4810987
-0.01429738603
-0.01381419058
-0.01333102262
-0.01284785554
-0.01236468786
-0.01188151831
-0.01139833901
-0.01091514034
-0.01043191569
-0.009948661633
-0.009465375501
-0.00898205534
-0.008498700581
-0.008015311255
-0.007531886909
-0.007048426665
-0.006564929988
-0.006081397117
-0.005597828856
-0.005114226214
-0.004630590319
-0.004146922614
-0.003663225037
-0.003179500024
-0.002695750364
-0.002211979068
-0.00172818936
-0.001244384764
-0.000760569199
-0.0002767469393
0.0002070776271
0.0006909004725
0.001174718573
0.001658530554
0.002142336408
0.002626137349
0.003109936848
0.003593738243
0.004077565053
0.004561432729
0.005045358128
0.0055293505
0.006013417943
0.006497566623
0.006981802122
0.007466121296
0.007950520296
0.008434995381
0.008919542753
-4.623656732e-05
-19.00378869
-37.05286682
-53.4727398
-67.9511097
-80.46418086
-91.1607706
-100.2654018
-108.0166231
-114.635149
-120.3113471
-125.2032888
-129.4396487
-133.1242613
-136.340772
-139.1567367
-141.6269936
-143.7963327
-145.7015714
-147.373151
-148.8363639
-150.112297
-151.21856
-152.1698508
-152.9783952
-153.6542911
-154.2057765
-154.6394382
-154.9603719
-155.1723012
-155.2776634
-0.01429739225
-0.01381420583
-0.01333104617
-0.01284788718
-0.01236472721
-0.01188156475
-0.01139839172
-0.01091519823
-0.01043197751
-0.009948725986
-0.009465440837
-0.008982119989
-0.008498762802
-0.008015369276
-0.007531938942
-0.007048470918
-0.006564964697
-0.006081420569
-0.00559783939
-0.005114222195
-0.004630570101
-0.004146884508
-0.003663167295
-0.003179420842
-0.002695647919
-0.00221185162
-0.001728035431
-0.00124420342
-0.0007603604163
-0.0002765120399
0.0002073355362
0.0006911761788
0.001175004801
0.001658819087
0.002142619051
0.002626403352
0.003110177214
0.003593925626
0.004077680267
0.004561492784
0.005045374228
0.005529328028
0.006013358309
0.00649748829
0.006981720509
0.007466041125
0.007950443177
0.008434920962
0.008919469792
-4.63102212e-05
-22.0763061
-42.58972143
-60.60372463
-75.85525682
-88.51499234
-98.94540914
-107.5464235
-114.6808974
-120.6495201
-125.6901095
-129.9864524
-133.6792929
-136.8763877
-139.6606841
-142.0965979
-144.2346878
-146.115086
-147.7699996
-149.2255368
-150.5030441
-151.620093
-152.5912127
-153.4284388
-154.1417277
-154.7392705
-155.2277317
-155.6124307
-155.8974783
-156.0858769
-156.1795907
-0.01429739946
-0.01381422484
-0.01333107619
-0.01284792802
-0.01236477838
-0.01188162556
-0.01139846121
-0.0109152752
-0.01043206056
-0.00994881357
-0.00946553128
-0.008982211476
-0.008498853451
-0.008015457189
-0.007532022223
-0.00704854768
-0.006565033073
-0.006081478721
-0.005597885489
-0.00511425437
-0.004630586378
-0.004146882746
-0.003663145126
-0.003179375643
-0.002695576829
-0.002211751637
-0.001727903624
-0.001244037266
-0.000760158287
-0.0002762738621
0.0002076074621
0.0006914763227
0.001175323809
0.001659146219
0.00214294809
0.002626723006
0.003110484322
0.003594179704
0.004077796799
0.004561538969
0.005045377787
0.005529288106
0.006013247828
0.006497371918
0.006981615939
0.00746594801
0.007950358991
0.008434842509
0.008919394202
-4.638552148e-05
-26.71247118
-50.62598823
-70.49718057
-86.35120075
-98.79512273
-108.5594503
-116.293986
-122.5110231
-127.5919249
-131.8131187
-135.3731187
-138.4146832
-141.0413127
-143.3289794
-145.3342833
-147.1000744
-148.6593244
-150.0378049
-151.255953
-152.3301833
-153.2738189
-154.0977594
-154.8109646
-155.420807
-155.9333321
-156.3534496
-156.6850752
-156.9312346
-157.094138
-157.1752321
-0.01429740789
-0.01381424809
-0.01333111341
-0.01284797896
-0.01236484251
-0.01188170209
-0.01139854908
-0.01091537311
-0.010432167
-0.009948926902
-0.009465649716
-0.008982333111
-0.008498976331
-0.00801557937
-0.007532141784
-0.007048662715
-0.006565141691
-0.006081579028
-0.005597975548
-0.005114332125
-0.004630649557
-0.004146928742
-0.003663170899
-0.003179377633
-0.002695550947
-0.002211693337
-0.001727808095
-0.001243899772
-0.0007599747416
-0.0002760417425
0.0002078877915
0.000691799885
0.001175678618
0.00165951594
0.002143319262
0.002627069982
0.003110857134
-4.007394168e-05
-4.151916252e-05
-4.247995317e-05
-4.329134034e-05
-4.404933669e-05
-4.495860428e-05
0.006497203671
0.006981498047
0.007465846559
0.007950271563
0.008434764201
0.008919320162
-4.645880923e-05
-34.14814114
-62.70457982
-84.4078088
-100.257243
-111.7548476
-120.2032836
-126.5590473
-131.4772842
-135.3940382
-138.597322
-141.2782207
-143.5650089
-145.5452011
-147.2796378
-148.8114819
-150.1720024
-151.3843327
-152.4659429
-153.4302876
-154.2879177
-155.0472403
-155.7150422
-156.2968536
-156.7972042
-157.2198019
-157.56766
-157.8431865
-158.0482473
-158.1842089
-158.2519678
-0.01429741767
-0.01381427583
-0.0133311582
-0.01284804051
-0.01236492022
-0.0118817951
-0.01139865627
-0.01091549309
-0.01043229818
-0.009949067582
-0.009465798049
-0.008982487161
-0.008499134147
-0.008015739041
-0.007532301443
-0.007048820522
-0.006565295808
-0.006081727588
-0.005598116586
-0.005114463472
-0.00463076869
-0.00414703262
-0.003663255796
-0.003179439012
-0.002695583385
-0.002211690535
-0.001727762969
-0.001243804713
-0.000759822196
-0.0002758252818
0.0002081718179
0.0006921499232
0.001176082723
0.001659907567
0.002143734655
-3.786967509e-05
-3.89993286e-05
159.2451901
163.4604234
81.0920978
79.73735235
159.7952717
154.9198444
-4.547558119e-05
-4.589368607e-05
0.007465727544
0.007950188713
0.008434691283
0.008919252719
-4.652484784e-05
-47.17589582
-81.63638118
-104.1722319
-118.515115
-127.7637413
-133.9397895
-138.2616356
-141.4450284
-143.9096219
-145.9039105
-147.5774336
-149.0219309
-150.2948452
-151.4328893
-152.4600045
-153.392121
-154.2400616
-155.0113471
-155.711337
-156.34396
-156.9121831
-157.4183157
-157.8642041
-158.2513548
-158.5810117
-158.8542023
-159.0717642
-159.2343598
-159.342483
-159.3964626
-0.01429742886
-0.01381430818
-0.01333121074
-0.0128481129
-0.01236501181
-0.01188190498
-0.01139878327
-0.01091563576
-0.01043245491
-0.009949236615
-0.009465977542
-0.008982675207
-0.008499328865
-0.00801593862
-0.007532504141
-0.007049024634
-0.006565499628
-0.006081929355
-0.005598314393
-0.005114655116
-0.004630951477
-0.00414720314
-0.003663409702
-0.003179570832
-0.002695686377
-0.00221175656
-0.001727782403
-0.001243766529
-0.0007597144293
-0.0002756361471
0.0002084526428
0.0006925314376
0.001176571739
-3.570383515e-05
-3.683100222e-05
34.85125149
22.99462292
86.56994549
100.4549356
81.17065783
78.06208312
91.47442242
72.93372583
7.213811704
20.12764293
-4.617711774e-05
-4.638785515e-05
0.008434616908
0.008919196555
-4.657171149e-05
-72.91931191
-112.4928173
-132.1296226
-141.8672439
-146.8452134
-149.5304974
-151.1026774
-152.1315722
-152.8955106
-153.531265
-154.1056725
-154.650436
-155.17936
-155.6970698
-156.203526
-156.6964159
-157.172446
-157.628047
-158.059754
-158.4644025
-158.8392167
-159.181834
-159.4902926
-159.7629996
-159.9986884
-160.1963738
-160.3553087
-160.474945
-160.5549012
-160.5949373
-0.01429744148
-0.01381434518
-0.01333127114
-0.0128481963
-0.0123651175
-0.01188203202
-0.01139893047
-0.01091580167
-0.01043263788
-0.009949434907
-0.009466189349
-0.008982898704
-0.008499562284
-0.008016180299
-0.00753275251
-0.007049278175
-0.006565756823
-0.006082188618
-0.005598573946
-0.005114912806
-0.00463120453
-0.004147447888
-0.003663641311
-0.003179783057
-0.002695871303
-0.002211904298
-0.001727880783
-0.0012438009
-0.0007596677594
-0.0002754904381
0.000208714377
0.0006929279506
-3.450336001e-05
130.7540479
40.03865153
42.50949929
44.45829257
63.58503239
70.61871564
65.07351479
59.86589987
55.10660903
38.12682382
9.694882408
-0.604106364
-8.513658835
81.08017356
-4.654180951e-05
0.00891915509
-4.659262691e-05
-132.0086874
-163.2859536
-169.9861972
-169.9790248
-168.219371
-166.2343095
-164.4870046
-163.0830725
-162.0095834
-161.2199666
-160.6635556
-160.294781
-160.0750892
-159.9725044
-159.9606141
-160.0175708
-160.1252599
-160.2686413
-160.4352297
-160.6146797
-160.7984477
-160.9795112
-161.1521331
-161.311663
-161.4543689
-161.5772963
-161.6781521
-161.7552106
-161.8072399
-161.8334482
-0.01429745557
-0.01381438695
-0.0133313396
-0.01284829098
-0.01236523769
-0.01188217677
-0.01139909859
-0.01091599171
-0.01043284822
-0.009949663843
-0.009466435147
-0.008983159643
-0.008499836733
-0.008016466759
-0.007533049598
-0.007049584577
-0.006566071238
-0.006082509666
-0.00559890003
-0.005115241889
-0.004631533857
-0.004147773677
-0.003663958455
-0.003180084801
-0.002696148862
-0.002212146368
-0.001728073032
-0.001243925596
-0.0007597032133
-0.0002754153953
0.0002089517098
-3.365819998e-05
130.9534401
96.02714478
60.79205447
50.68980103
48.74401563
52.69317585
53.36137977
48.6387858
41.22139251
30.95928999
14.77207798
-5.956999542
-23.72529257
-40.62969777
-54.11601924
-139.849548
-4.659972864e-05
220.9488932
-291.8295669
-238.6561123
-214.550188
-199.8432872
-189.8189362
-182.7003652
-177.5279592
-173.7041298
-170.839784
-168.6754624
-167.0338027
-165.7900432
-164.8537116
-164.1572445
-163.6488555
-163.2879935
-163.0423818
-162.8860289
-162.7978441
-162.7606392
-162.7603835
-162.7856302
-162.8270659
-162.8771508
-162.9298281
-162.9802906
-163.0247932
-163.0605058
-163.0853999
-163.0981675
-0.0142974712
-0.0138144337
-0.01333141654
-0.0128483976
-0.01236537325
-0.01188234036
-0.01139928906
-0.01091620764
-0.01043308803
-0.009949925904
-0.009466717796
-0.00898346126
-0.008500155811
-0.008016801939
-0.007533399657
-0.007049948382
-0.006566447682
-0.006082897571
-0.005599297984
-0.00511564801
-0.004631945498
-0.004148187117
-0.003664368579
-0.003180484726
-0.00269652941
-0.002212495387
-0.001728374671
-0.001244159732
-0.0007598457251
-0.000275423579
0.0002090854382
-3.338820864e-05
40.83621848
61.60903646
56.41262049
50.71363468
47.13479304
45.08227555
41.49484175
34.89885607
25.42159437
12.73708041
-4.040802379
-24.569666
-47.71036664
-76.16382043
-117.0650052
-192.2318778
278.4311302
475.6259449
-317.6031535
-284.9587407
-249.7151555
-225.0249997
-208.5127217
-197.2202558
-189.2203373
-183.3657037
-178.9699605
-175.6082963
-173.0061498
-170.9778776
-169.3924695
-168.1539067
-167.1895701
-166.443166
-165.8702451
-165.4352485
-165.1094786
-164.8696498
-164.696817
-164.5755602
-164.4933498
-164.4400464
-164.4075024
-164.3892449
-164.3802246
-164.3766195
-164.3756865
-164.3756544
-0.0142974886
-0.01381448591
-0.01333150277
-0.01284851734
-0.0123655258
-0.01188252487
-0.01139950442
-0.0109164525
-0.01043336089
-0.009950225173
-0.009467041885
-0.008983808619
-0.008500525005
-0.00801719169
-0.007533808829
-0.007050375946
-0.006566892653
-0.006083358905
-0.005599774411
-0.005116137797
-0.004632446175
-0.004148695198
-0.003664879264
-0.003180991495
-0.002697023421
-0.002212964666
-0.001728803054
-0.001244524621
-0.000760120344
-0.0002755610226
-3.318799242e-05
36.03517367
44.68338921
53.16016201
52.5357563
48.61732411
43.99924625
39.00629153
32.63685554
24.04020235
12.82904844
-1.391760367
-19.10270193
-40.57049545
-66.38268757
-99.25021212
-145.7483034
-221.5683938
-364.6442245
1020.726932
-469.2503231
-333.8605415
-274.3266934
-242.0288346
-221.9866949
-208.447599
-198.7674304
-191.568387
-186.0660583
-181.7816124
-178.4046226
-175.7228478
-173.584382
-171.8763428
-170.5123523
-169.4248552
-168.560184
-167.8752415
-167.335172
-166.9116643
-166.5816747
-166.3264439
-166.1307267
-165.9821825
-165.8708901
-165.7889621
-165.7302408
-165.6900612
-165.6650723
-165.653109
-0.014297508
-0.01381454434
-0.01333159963
-0.01284865214
-0.01236569788
-0.01188273346
-0.01139974852
-0.01091673084
-0.01043367202
-0.009950567575
-0.009467413987
-0.008984208885
-0.008500951997
-0.008017644102
-0.007534285501
-0.007050875829
-0.006567414753
-0.006083902189
-0.005600337642
-0.005116719332
-0.004633043743
-0.004149305698
-0.003665498538
-0.00318161398
-0.002697641614
-0.002213568408
-0.001729378242
-0.001245050922
-0.0007605443342
-0.0002758276356
-3.361110469e-05
25.55641357
48.70200252
53.81246601
51.95291851
47.22065914
41.23857624
34.30678871
26.0060865
15.79604929
3.246157373
-12.03046842
-30.40774955
-52.22692634
-77.99967607
-108.7060371
-145.1096022
-183.649175
-197.0180777
833.152182
-351.2898695
-306.9064087
-271.7022421
-246.7769502
-228.9576244
-215.8160147
-205.8333984
-198.0743557
-191.944273
-187.0474722
-183.1078805
-179.9245089
-177.345868
-175.25473
-173.558641
-172.1837185
-171.0703943
-170.1703613
-169.4443036
-168.8601607
-168.3917736
-168.0178139
-167.7209306
-167.4870668
-167.3049132
-167.1654726
-167.0617152
-166.988312
-166.9414324
-166.9186002
-0.01429752975
-0.01381461003
-0.01333170891
-0.01284880456
-0.01236589289
-0.01188297036
-0.0114000264
-0.01091704855
-0.01043402819
-0.009950960686
-0.009467842465
-0.008984671132
-0.008501446464
-0.008018169337
-0.007534840164
-0.007051458683
-0.006568024622
-0.006084537867
-0.005600997765
-0.005117402222
-0.004633747282
-0.004150027241
-0.00366623481
-0.003182360914
-0.002698394183
-0.002214320493
-0.001730121239
-0.001245779107
-0.0007612250642
-3.387808182e-05
161.3665495
91.3894702
70.75574119
61.4347809
54.24279252
47.07381761
39.42761081
30.97620051
21.28465239
9.891750895
-3.609999862
-19.56852119
-38.27090152
-59.92978432
-84.68305323
-112.4646581
-142.3348934
-170.9006263
-191.0058753
-206.6596648
-267.1802286
-270.7729816
-258.7989159
-244.4190996
-231.2508375
-220.0254371
-210.6757925
-202.9513641
-196.5892058
-191.3561228
-187.0549181
-183.5214391
-180.619851
-178.2380679
-176.2837628
-174.6809833
-173.3673131
-172.2915055
-171.41152
-170.692901
-170.1074447
-169.6321073
-169.2481146
-168.9402405
-168.6962232
-168.5062994
-168.3628351
-168.2600387
-168.1937447
-168.161259
-0.0142975543
-0.01381468421
-0.01333183273
-0.01284897766
-0.01236611477
-0.01188324044
-0.01140034388
-0.01091741236
-0.01043443704
-0.009951413078
-0.009468336757
-0.008985205588
-0.008502019319
-0.008018778849
-0.007535484652
-0.007052136537
-0.006568734273
-0.006085277723
-0.005601766121
-0.005118197187
-0.004634566769
-0.004150869003
-0.003667096491
-0.003183240131
-0.002699288903
-0.002215229918
-0.001731047281
-0.001246721638
-0.0007622491432
-3.539845157e-05
167.1263245
107.8791764
81.49671103
66.92812379
56.50965297
47.40420787
38.42184878
28.88575004
18.26457159
6.096301701
-8.009386574
-24.36271501
-43.17755105
-64.53825622
-88.33809442
-114.1346487
-140.8646871
-166.6125612
-189.4451362
-211.6552657
-239.9984084
-250.206373
-248.3013402
-240.8496948
-231.6011887
-222.3591035
-213.8929701
-206.4661023
-200.1050629
-194.7328948
-190.2342296
-186.4864781
-183.3740285
-180.7939275
-178.6573587
-176.8891384
-175.4263689
-174.2168272
-173.2173694
-172.3924782
-171.7129966
-171.1550553
-170.6991797
-170.3295568
-170.033439
-169.8006662
-169.6232866
-169.4952625
-169.4122482
-169.3714315
-0.01429758208
-0.01381476819
-0.01333197327
-0.01284917454
-0.01236636756
-0.01188354861
-0.01140070673
-0.01091782895
-0.01043490613
-0.009951933206
-0.009468906178
-0.008985822371
-0.00850268139
-0.008019484053
-0.007536230812
-0.007052921484
-0.006569555841
-0.006086133708
-0.005602654248
-0.005119115139
-0.004635512296
-0.004151840087
-0.00366809152
-0.003184258172
-0.002700330112
-0.002216295862
-0.001732141125
-0.001247848425
-0.0007633962971
-3.648658798e-05
86.21009523
91.50419957
80.42380265
68.27135014
57.46348758
47.61151201
37.96982631
27.88037922
16.79158213
4.23827083
-10.16113318
-26.69540129
-45.53833147
-66.70759511
-89.99641952
-114.8711552
-140.376645
-165.2397952
-188.5068426
-210.5178534
-230.951766
-241.7527617
-243.350377
-239.0771505
-231.9451186
-223.916818
-216.0708816
-208.9150118
-202.6320481
-197.2361635
-192.6626269
-188.8162146
-185.5958569
-182.9062544
-180.6626055
-178.7918421
-177.2321964
-175.9320642
-174.8486517
-173.9466452
-173.1970074
-172.5759367
-172.0639914
-171.6453672
-171.3073091
-171.039639
-170.8343818
-170.6854756
-170.5885533
-170.5407867
-0.01429761344
-0.01381486304
-0.0133321324
-0.01284939784
-0.01236665467
-0.01188389898
-0.01140111972
-0.01091830375
-0.01043544164
-0.009952527954
-0.009469558352
-0.008986529821
-0.008503441683
-0.008020294538
-0.0075370887
-0.007053823905
-0.006570499857
-0.006087116304
-0.005603672367
-0.005120165812
-0.00463659287
-0.004152948506
-0.003669226685
-0.003185420625
-0.002701523063
-0.002217524627
-0.001733412576
-0.001249169774
-0.0007647578234
-3.784112028e-05
86.20989321
91.50372392
80.42294971
68.2699864
57.46143507
47.60852616
37.96556512
27.87435828
16.7831068
4.226332586
-10.17801574
-26.71942554
-45.57277848
-66.75737324
-90.06883339
-114.9769074
-140.5309425
-165.4631319
-188.8245855
-210.9575391
-231.5380404
-242.5025305
-244.2702554
-240.1634113
-233.1853169
-225.292168
-217.5587258
-210.4910149
-204.2719536
-198.9170837
-194.3638994
-190.5198956
-187.2869296
-184.5726266
-182.2949661
-180.383427
-178.7785094
-177.4305805
-176.2985269
-175.3484424
-174.5524502
-173.8876916
-173.3354808
-172.8806104
-172.5107901
-172.2161976
-171.9891247
-171.8237034
-171.7157013
-171.6623744
-0.01429764853
-0.01381496935
-0.01333231113
-0.01284964905
-0.01236697798
-0.01188429378
-0.01140158541
-0.01091883962
-0.01043604678
-0.009953200998
-0.009470297446
-0.008987332634
-0.008504305431
-0.008021216058
-0.007538064547
-0.007054850436
-0.006571573259
-0.006088232623
-0.005604827603
-0.005121356137
-0.004637814955
-0.004154199882
-0.003670506196
-0.00318672926
-0.002702865692
-0.002218912303
-0.001734863726
-0.001250707245
-0.0007663961319
-3.946557814e-05
167.1257914
107.877853
81.4942857
66.92421055
56.50374
47.39559231
38.40954962
28.86838186
18.24015412
6.061968365
-8.057836892
-24.4315067
-43.27598372
-64.68028602
-88.54463334
-114.4366987
-141.3070856
-167.2572043
-190.3708284
-212.9496768
-241.7403259
-252.4490641
-251.0647026
-244.120922
-235.3405692
-226.5078105
-218.3808383
-211.2183675
-205.047667
-199.7963174
-195.3559903
-191.612538
-188.4593381
-185.8023554
-183.561204
-181.6683894
-180.0678326
-178.7132203
-177.5664317
-176.5961458
-175.7766578
-175.0868974
-174.5096283
-174.0308019
-173.6390417
-173.3252351
-173.0822141
-172.9045105
-172.7881723
-172.730634
-0.01429768724
-0.0138150869
-0.01333250909
-0.01284992764
-0.01236733689
-0.01188473228
-0.01140210285
-0.0109194355
-0.0104367204
-0.009953951209
-0.009471122466
-0.008988230055
-0.008505272212
-0.008022248591
-0.00753915878
-0.007056001975
-0.00657277742
-0.006089484483
-0.00560612215
-0.005122688549
-0.004639180974
-0.004155596266
-0.003671931442
-0.003188184763
-0.002704356921
-0.002220451932
-0.001736480844
-0.001252454225
-0.000768449229
-4.287430751e-05
161.3659465
91.38761091
70.75212935
61.42882992
54.23372191
47.0605533
39.40865906
30.94946529
21.24715934
9.839223553
-3.683793577
-19.67278071
-38.41936373
-60.14315378
-84.99271526
-112.9181684
-143.003497
-171.8877711
-192.451847
-208.7300136
-270.024522
-274.488697
-263.4185684
-249.9150043
-237.5482267
-227.017666
-218.2384485
-210.953949
-204.9040284
-199.8645275
-195.6512053
-192.1149268
-189.135528
-186.6162515
-184.4791038
-182.6610922
-181.1112095
-179.7880348
-178.6578322
-177.6930497
-176.8711359
-176.1736101
-175.5853311
-175.0939252
-174.6893376
-174.3634847
-174.1099841
-173.92395
-173.8018412
-173.7413539
-0.0142977291
-0.01381521432
-0.01333272393
-0.01285023034
-0.01236772733
-0.01188520963
-0.01140266649
-0.01092008514
-0.0104374557
-0.009954771327
-0.009472025867
-0.008989214425
-0.008506334426
-0.008023384766
-0.007540364409
-0.007057272053
-0.006574106508
-0.006090866783
-0.005607551683
-0.005124159463
-0.004640687895
-0.004157134664
-0.003673498304
-0.003189780025
-0.002705984867
-0.00222212239
-0.001738212522
-0.001254288637
-0.0007704232479
-0.0002867181524
-4.453609393e-05
25.55451451
48.6977907
53.80525768
51.94176425
47.20423977
41.21506788
34.27366076
25.95979426
15.73155998
3.156219653
-12.15645891
-30.58553674
-52.48025014
-78.36490559
-109.2397624
-145.9009628
-184.838536
-198.8187747
830.455463
-355.1390514
-312.0626331
-278.2058692
-254.5722995
-237.9196666
-225.7761775
-216.6013397
-209.4549506
-203.7499691
-199.1065573
-195.2693752
-192.0604342
-189.351594
-187.0480169
-185.0778657
-183.3856642
-181.9278765
-180.6698749
-179.5838103
-178.6470824
-177.8412237
-177.1510734
-176.5641584
-176.0702273
-175.6608963
-175.3293794
-175.0702847
-174.8794612
-174.7538857
-174.6915846
-0.01429777307
-0.01381534891
-0.01333295107
-0.0128505506
-0.01236814106
-0.01188571614
-0.01140326533
-0.01092077634
-0.01043823939
-0.009955647153
-0.009472992722
-0.008990270322
-0.008507476411
-0.008024608944
-0.007541666081
-0.00705864585
-0.006575546471
-0.006092366441
-0.005609104239
-0.005125758097
-0.004642326096
-0.004158806549
-0.003675199104
-0.003191506936
-0.002707738015
-0.002223904811
-0.001740028886
-0.00125614354
-0.0007722847681
-0.0002884861704
-4.753587904e-05
36.03365939
44.67926106
53.15264568
52.52383744
48.59957349
43.97371176
38.97031546
32.58679683
23.97100233
12.73357102
-1.523737917
-19.28607425
-40.82740449
-66.74689451
-99.77501297
-146.5220558
-222.7466352
-366.5149665
1017.660284
-473.9497891
-340.4169142
-282.7699751
-252.2486573
-233.7819616
-221.5660366
-212.9357808
-206.5145432
-201.5343384
-197.5423559
-194.2593023
-191.5058387
-189.1623949
-187.1463543
-185.3986754
-183.8758201
-182.5447546
-181.3797753
-180.3604488
-179.4702429
-178.6956003
-178.0252981
-177.4499984
-176.9619262
-176.5546374
-176.2228482
-175.9623106
-175.7697206
-175.6426522
-175.579512
-0.01429781746
-0.01381548661
-0.01333318396
-0.01285087906
-0.01236856595
-0.01188623734
-0.01140388287
-0.01092149085
-0.01043905162
-0.009956557422
-0.009474000598
-0.008991374434
-0.008508674305
-0.008025897066
-0.007543039898
-0.007060099992
-0.006577074802
-0.00609396213
-0.005610759921
-0.005127466141
-0.004644078878
-0.004160596727
-0.003677020004
-0.003193352913
-0.002709604743
-0.002225790223
-0.001741931049
-0.001258057894
-0.0007742124759
-0.0002904373186
0.0001932320768
-4.926047325e-05
40.83294818
61.60222634
56.40136615
50.6965048
47.10989003
45.04709235
41.44607512
34.83208137
25.33079991
12.61401038
-4.20761792
-24.79639911
-48.02025499
-76.59133915
-117.665612
-193.1109828
276.9937479
472.6262737
-322.9287842
-292.8852591
-260.2084591
-237.870392
-223.3934849
-213.770225
-207.0612025
-202.1331012
-198.3304835
-195.2692233
-192.7196373
-190.5412209
-188.64579
-186.9763272
-185.4946585
-184.1741833
-182.9955431
-181.9440197
-181.0079632
-180.1778365
-179.4456325
-178.8045166
-178.2486069
-177.7728377
-177.3728746
-177.0450611