/*--------------------------------*- C++ -*----------------------------------*\
  =========                 |
  \\      /  F ield         | OpenFOAM: The Open Source CFD Toolbox
   \\    /   O peration     | Website:  https://openfoam.org
    \\  /    A nd           | Version:  10
     \\/     M anipulation  |
\*---------------------------------------------------------------------------*/
FoamFile
{
    format      ascii;
    class       volScalarField;
    location    "0.001";
    object      TRHS;
}
// * * * * * * * * * * * * * * * * * * * * * * * * * * * * * * * * * * * * * //

dimensions      [1 -1 -3 0 0 0 0];

internalField   nonuniform List<scalar> 
19200
(
-1.267659824e-05
-6.024850759e-06
-2.880528452e-06
-1.104421741e-05
-2.995113582e-05
-1.386824548e-05
1.613591128e-05
4.199731469e-05
5.80619797e-05
6.632580492e-05
7.057778575e-05
7.37648878e-05
7.743620798e-05
8.209322669e-05
8.770236134e-05
9.401434377e-05
0.000100703126
0.000107445372
0.0001139776184
0.0001201146266
0.0001257410025
0.0001308025325
0.0001353008761
0.0001392748803
0.0001427646143
0.0001457768205
0.0001482719462
0.0001501755399
0.000151401876
0.0001518756984
0.0001515454773
0.0001503884445
0.0001484130484
0.0001456634416
0.0001422243401
0.000138230802
0.0001338755539
0.0001294061999
0.0001251105251
0.0001213235174
0.0001183953482
0.0001165603052
0.0001159021328
0.000116433797
0.0001178934335
0.0001201652793
0.0001225837162
0.0001254042828
0.0001280472419
7.887538604e-05
-0.000701987038
0
0
0
0
0
0
0
0
0
0
0
0
0
0
0
0
0
0
0
0
0
0
0
0
0
0
0
0
0
-2.078300831e-05
-2.533544623e-05
-3.190143899e-05
-2.099809034e-05
-6.160044148e-06
3.239692707e-05
7.25099861e-05
0.0001019204095
0.0001197686197
0.0001304843415
0.0001386060501
0.0001469987845
0.0001568672776
0.0001683304408
0.0001809775893
0.0001942218693
0.0002074849549
0.0002202878838
0.0002322868487
0.0002432722013
0.000253146003
0.000261891016
0.0002695302837
0.0002760807835
0.0002815152369
0.0002857481422
0.0002886505735
0.0002900836106
0.0002899341028
0.0002881417518
0.0002847148179
0.0002797366445
0.0002733676775
0.0002658493283
0.0002575093446
0.000248758879
0.0002400861529
0.0002320437302
0.0002251751777
0.0002199685841
0.0002168455625
0.0002160167939
0.000217241839
0.0002202898868
0.0002244587975
0.0002291432004
0.0002329405452
0.0002359215688
0.0001890012604
6.662886147e-05
-0.0007132185795
0
0
0
0
0
0
0
0
0
0
0
0
0
0
0
0
0
0
0
0
0
0
0
0
0
0
0
0
0
-2.645886899e-05
-2.758294738e-05
-2.279169168e-05
-1.565092488e-05
-8.191147297e-06
2.347965498e-05
5.871675279e-05
8.507022439e-05
0.0001009613287
0.0001100892801
0.0001165267082
0.0001229358905
0.0001304620831
0.0001392433071
0.0001489500888
0.0001591060989
0.0001692297265
0.0001789110964
0.0001878629336
0.0001959333693
0.0002030834618
0.0002093500779
0.0002148078471
0.0002195309587
0.0002235603558
0.0002268879117
0.0002294632919
0.0002312166072
0.0002320830112
0.0002320200479
0.0002310162823
0.0002290944232
0.0002263131429
0.0002227718447
0.0002186226858
0.0002140830683
0.0002094412271
0.0002050624206
0.0002013096118
0.0001985257608
0.0001970325699
0.0001972940255
0.0001990838216
0.0002020099752
0.0002057233676
0.0002099614183
0.0002134465146
0.000216619211
0.0001764370836
6.514866061e-05
-0.0007370123008
0
0
0
0
0
0
0
0
0
0
0
0
0
0
0
0
0
0
0
0
0
0
0
0
0
0
0
0
0
-2.621367829e-05
-2.845118937e-05
-2.29868623e-05
-1.677733687e-05
-1.159329436e-05
1.772483279e-05
5.11226251e-05
7.6158623e-05
9.105765474e-05
9.931366303e-05
0.000104845893
0.0001102249602
0.0001165531521
0.0001239558462
0.0001321047002
0.0001405310161
0.0001487711669
0.000156450281
0.0001633338638
0.0001693338622
0.000174478283
0.0001788706317
0.0001826527892
0.0001859702824
0.0001889412995
0.0001916378395
0.0001940847937
0.0001962729096
0.0001981751511
0.0001997587303
0.0002009908865
0.0002018397867
0.0002022742443
0.0002022699068
0.0002018270815
0.0002009908841
0.0001998677435
0.0001987013408
0.0001976552784
0.0001971052663
0.0001970892629
0.0001983097016
0.000200932768
0.0002040855332
0.0002077508378
0.0002119517734
0.0002150566368
0.00021824121
0.0001776324063
6.695157129e-05
-0.0007752926716
0
0
0
0
0
0
0
0
0
0
0
0
0
0
0
0
0
0
0
0
0
0
0
0
0
0
0
0
0
-2.592791105e-05
-2.937899782e-05
-2.45897539e-05
-1.906313741e-05
-1.511646979e-05
1.292630605e-05
4.523561955e-05
6.937295705e-05
8.347017106e-05
9.090866965e-05
9.551923565e-05
9.981728355e-05
0.0001048674016
0.0001107665898
0.0001171709194
0.0001236137016
0.0001296539083
0.0001349609401
0.0001393635706
0.0001428501459
0.0001455318327
0.000147599165
0.0001492858581
0.0001508349879
0.0001524654621
0.0001543463618
0.000156586517
0.0001592391986
0.0001623139491
0.0001657869822
0.0001696056879
0.0001736852825
0.0001778989951
0.0001820787707
0.0001860464291
0.0001896586876
0.0001927709675
0.0001955030629
0.0001978254709
0.0001998365947
0.0002017406251
0.0002037671428
0.0002075711453
0.0002110555382
0.0002145998432
0.0002188966244
0.0002219207816
0.000225009207
0.0001831025815
6.950686122e-05
-0.0008315993889
0
0
0
0
0
0
0
0
0
0
0
0
0
0
0
0
0
0
0
0
0
0
0
0
0
0
0
0
0
-2.594180697e-05
-3.007826993e-05
-2.642161233e-05
-2.158375627e-05
-1.836262852e-05
9.045482432e-06
4.07859839e-05
6.436768793e-05
7.786303512e-05
8.458760075e-05
8.831085594e-05
9.149715028e-05
9.516626346e-05
9.93805397e-05
0.0001037806468
0.0001079087452
0.0001113574428
0.0001138524906
0.0001152974195
0.0001157684135
0.0001154735912
0.0001147084004
0.0001138188792
0.0001131652153
0.0001130813833
0.0001138397366
0.0001156325457
0.0001185730687
0.0001227078945
0.0001280289318
0.0001344775862
0.0001419373244
0.0001502053154
0.0001589714473
0.0001678199816
0.0001764633452
0.0001844450911
0.0001919594871
0.0001978097127
0.000202267034
0.0002072598941
0.0002098842002
0.0002139869426
0.0002178798881
0.0002216771936
0.0002259319221
0.0002292114998
0.0002327121065
0.0001893748038
7.237820462e-05
-0.0009118872972
0
0
0
0
0
0
0
0
0
0
0
0
0
0
0
0
0
0
0
0
0
0
0
0
0
0
0
0
0
-2.634568473e-05
-3.093794308e-05
-2.797599457e-05
-2.321095933e-05
-2.009691149e-05
7.288310383e-06
3.899928043e-05
6.247700552e-05
7.574418529e-05
8.206196594e-05
8.514212872e-05
8.739388735e-05
8.978548216e-05
9.234052991e-05
9.468556202e-05
9.637791749e-05
9.705278065e-05
9.650155299e-05
9.471177615e-05
9.185754366e-05
8.825596498e-05
8.432033668e-05
8.051958008e-05
7.733462341e-05
7.520850937e-05
7.450319541e-05
7.547874584e-05
7.829783203e-05
8.304452082e-05
8.974049266e-05
9.834967366e-05
0.0001087727654
0.0001208004578
0.0001340326818
0.0001478088434
0.0001615790957
0.0001735130415
0.0001828119626
0.0001967182918
0.0002004668176
0.0002091549058
0.0002149006417
0.0002213606278
0.0002249145024
0.0002303387767
0.0002344909585
0.0002370525893
0.0002405574729
0.0001954827588
7.501354442e-05
-0.001026195099
0
0
0
0
0
0
0
0
0
0
0
0
0
0
0
0
0
0
0
0
0
0
0
0
0
0
0
0
0
-2.662409591e-05
-3.124610806e-05
-2.839866033e-05
-2.290674622e-05
-1.917681905e-05
8.887031375e-06
4.121466896e-05
6.51683347e-05
7.87213253e-05
8.508265742e-05
8.790547877e-05
8.954010055e-05
9.090044246e-05
9.197252968e-05
9.237406109e-05
9.16856831e-05
8.959411196e-05
8.596517118e-05
8.087899601e-05
7.461645988e-05
6.76116437e-05
6.039936767e-05
5.356638205e-05
4.769718811e-05
4.331536241e-05
4.083791663e-05
4.056059222e-05
4.267562153e-05
4.730424645e-05
5.451942443e-05
6.434466311e-05
7.675621681e-05
9.164473588e-05
0.0001089627572
0.0001262615867
0.0001423296501
0.0001630017049
0.0001736594341
0.0001903173005
0.000199795758
0.0002109595839
0.0002209508754
0.0002314321493
0.0002315593204
0.0002353819873
0.0002408336751
0.0002436327388
0.0002479649202
0.0002014917878
7.723932577e-05
-0.001192111036
0
0
0
0
0
0
0
0
0
0
0
0
0
0
0
0
0
0
0
0
0
0
0
0
0
0
0
0
0
-2.65641128e-05
-3.061796601e-05
-2.720724974e-05
-2.015687532e-05
-1.505700717e-05
1.442021833e-05
4.805248784e-05
7.311034032e-05
8.751476947e-05
9.442391606e-05
9.743353821e-05
9.883648186e-05
9.949629612e-05
9.936887278e-05
9.807345736e-05
9.522525725e-05
9.057359622e-05
8.406896202e-05
7.589291469e-05
6.643934558e-05
5.625973751e-05
4.600032917e-05
3.634043524e-05
2.792681849e-05
2.130983826e-05
1.69037401e-05
1.498867092e-05
1.575443496e-05
1.936265756e-05
2.597892798e-05
3.572613569e-05
4.862380915e-05
6.452294768e-05
8.198465436e-05
0.0001068921736
0.0001354788134
0.0001539514545
0.0001871150907
0.0001622621629
0.0001478583788
0.0001678472436
0.0001759011976
0.0001789622532
0.0001831543804
0.0002396163521
0.0002486321138
0.0002517453425
0.0002558609313
0.0002071531856
7.916578749e-05
-0.001442463887
0
0
0
0
0
0
0
0
0
0
0
0
0
0
0
0
0
0
0
0
0
0
0
0
0
0
0
0
0
-2.609076861e-05
-2.893271341e-05
-2.430557234e-05
-1.494089762e-05
-7.790411239e-06
2.376598922e-05
5.932828645e-05
8.606058258e-05
0.0001018287732
0.0001097447684
0.0001133544541
0.0001149024453
0.0001152138813
0.000114229434
0.0001115859986
0.0001069493726
0.0001001464079
9.122477966e-05
8.047625243e-05
6.840943073e-05
5.568281123e-05
4.302636001e-05
3.116412447e-05
2.073883844e-05
1.224944698e-05
6.025046539e-06
2.256565241e-06
1.087119887e-06
2.738054075e-06
7.561792433e-06
1.587911342e-05
2.757775061e-05
4.160725852e-05
7.023437362e-05
8.366087314e-05
0.0001232817166
0.0001002076334
4.85907765e-05
7.43853991e-05
5.164495214e-05
5.316304536e-05
6.685160763e-05
7.872205245e-05
0.00013432022
0.0002082016331
0.0002031518499
0.000259123705
0.0002638056679
0.0002125462634
8.089475028e-05
-0.00184398992
0
0
0
0
0
0
0
0
0
0
0
0
0
0
0
0
0
0
0
0
0
0
0
0
0
0
0
0
0
-2.516793666e-05
-2.620024586e-05
-1.986509146e-05
-7.626833497e-06
2.061880055e-06
3.617913064e-05
7.412057915e-05
0.0001029281575
0.0001204123892
0.000129649697
0.0001341518306
0.000136133279
0.0001364014151
0.0001349043244
0.0001313194698
0.0001253850264
0.0001170244957
0.0001063978405
9.391474338e-05
8.019373629e-05
6.597711113e-05
5.203244829e-05
3.905948064e-05
2.760893691e-05
1.802768215e-05
1.045522004e-05
4.900926729e-06
1.41019147e-06
3.029792412e-07
2.230760513e-06
8.444363204e-06
1.682038352e-05
3.020397864e-05
6.232678202e-05
4.775420556e-05
2.836993789e-05
9.294410396e-06
8.586946612
-0.00807780831
4.378975899
4.305819734
-0.008275726241
8.353144714
3.541389789e-05
7.929546128e-05
0.0001352041758
0.0002225898221
0.0002151008441
0.0002190966968
8.178717575e-05
-0.002547488397
0
0
0
0
0
0
0
0
0
0
0
0
0
0
0
0
0
0
0
0
0
0
0
0
0
0
0
0
0
-2.389405834e-05
-2.269748182e-05
-1.441710237e-05
9.338487756e-07
1.334380949e-05
5.021421855e-05
9.070859367e-05
0.0001217293923
0.0001410344978
0.0001516825916
0.0001571757359
0.0001597253537
0.0001601502712
0.0001584361584
0.0001543306479
0.0001476714696
0.0001385021418
0.0001271116262
0.0001140325833
9.998061414e-05
8.574535455e-05
7.206965076e-05
5.954291292e-05
4.851937375e-05
3.907677473e-05
3.104861876e-05
2.416937104e-05
1.833366548e-05
1.386165222e-05
1.222452395e-05
1.431501382e-05
1.125854639e-05
8.445126929e-06
4.151319712e-06
1.664448246e-05
1.879861182
5.232363796
0
0
0
0
0
0
4.380200751
1.083992001
7.410850588e-05
8.044936118e-05
0.0001381295861
0.0001779986612
8.660653114e-05
-0.003937632333
0
0
0
0
0
0
0
0
0
0
0
0
0
0
0
0
0
0
0
0
0
0
0
0
0
0
0
0
0
-2.246642545e-05
-1.892494688e-05
-8.78389101e-06
9.50752914e-06
2.444008069e-05
6.389399145e-05
0.0001067750085
0.0001398263403
0.0001607578261
0.0001726339049
0.0001789788693
0.0001820359974
0.0001826719625
0.0001809467003
0.00017671284
0.000169939123
0.0001608151737
0.0001497753833
0.0001374761403
0.0001247085307
0.0001122614824
0.0001007789007
9.064301785e-05
8.18974891e-05
7.423006889e-05
6.70626634e-05
5.980053948e-05
5.20872641e-05
4.490688537e-05
3.79406581e-05
3.514761997e-05
2.367665022e-05
7.305179005e-06
3.060224932
6.152741177
0
0
0
0
0
0
0
0
0
0
3.530917919
0.3751547093
9.761295394e-05
8.43098545e-05
6.49887493e-05
-0.007128457469
0
0
0
0
0
0
0
0
0
0
0
0
0
0
0
0
0
0
0
0
0
0
0
0
0
0
0
0
0
-2.109536065e-05
-1.543767111e-05
-3.872403395e-06
1.673601182e-05
3.358388035e-05
7.506730522e-05
0.0001198142583
0.0001543859377
0.0001764476708
0.0001890954463
0.0001959121802
0.0001992127835
0.0001999527094
0.000198306568
0.0001942697129
0.0001879751285
0.0001797845333
0.0001702916582
0.0001602715383
0.0001505609562
0.000141892066
0.0001347299444
0.0001291494248
0.0001247685596
0.0001207750984
0.0001161160739
0.0001098006773
0.0001017471801
9.037676158e-05
8.537142534e-05
5.898367115e-05
1.910688361e-05
3.071002863
0
0
0
0
0
0
0
0
0
0
0
0
0
0
26.23305658
-3.339372823e-05
-3.736930127e-05
10.1099312
0
0
0
0
0
0
0
0
0
0
0
0
0
0
0
0
0
0
0
0
0
0
0
0
0
0
0
0
0
-2.006810354e-05
-1.287082988e-05
-6.072852072e-07
2.130569307e-05
3.911224935e-05
8.174595135e-05
0.0001275420759
0.0001628558956
0.0001853094445
0.0001980547403
0.0002047698596
0.0002078819697
0.0002084769608
0.0002068842716
0.0002032786677
0.0001979887066
0.000191570869
0.0001847866339
0.0001785175761
0.0001736100282
0.0001706802957
0.0001699362183
0.0001710506202
0.0001731131213
0.0001747256426
0.0001743282444
0.0001706366352
0.0001636711532
0.0001527615847
0.0001395526776
9.222454147e-05
5.793827679e-06
6.195809722
0
0
0
0
0
0
0
0
0
0
0
0
0
0
5.303483955
-1.960664335e-05
-1.86458055e-08
-0.005034367553
0
0
0
0
0
0
0
0
0
0
0
0
0
0
0
0
0
0
0
0
0
0
0
0
0
0
0
0
0
-1.965542054e-05
-1.170630757e-05
1.864584956e-07
2.214559483e-05
3.972270626e-05
8.242573227e-05
0.0001282821515
0.0001634157657
0.0001854004312
0.000197462539
0.0002034071193
0.0002058103039
0.0002059258118
0.0002042734065
0.0002012385386
0.0001973702569
0.0001934349843
0.0001903620522
0.0001891198059
0.0001905239441
0.0001950180075
0.0002024832782
0.0002121137298
0.0002223993611
0.0002313133593
0.0002366823558
0.0002376312621
0.00022949354
0.0002372939202
0.0002122445291
9.504758429e-05
1.943856662
0
0
0
0
0
0
0
0
0
0
0
0
0
0
0
0
17.69370824
-0.0001462420805
21.86986576
0
0
0
0
0
0
0
0
0
0
0
0
0
0
0
0
0
0
0
0
0
0
0
0
0
0
0
0
0
-2.006006533e-05
-1.236885479e-05
-1.942211817e-06
1.869098958e-05
3.477938505e-05
7.641982822e-05
0.0001213335347
0.0001553844865
0.0001760799471
0.0001867243083
0.0001912694361
0.0001924674622
0.0001917683437
0.0001899082067
0.0001875043931
0.0001853407535
0.0001843977281
0.0001857619499
0.0001904612445
0.000199238851
0.000212314534
0.000229188563
0.0002485293492
0.0002682102675
0.000285560814
0.0002978373788
0.0003028491922
0.0003018713934
0.0002924325956
0.0002064424025
3.728916325e-05
5.370700245
0
0
0
0
0
0
0
0
0
0
0
0
0
0
0
0
-0.008005235685
-2.141957103e-06
0.5687681519
0
0
0
0
0
0
0
0
0
0
0
0
0
0
0
0
0
0
0
0
0
0
0
0
0
0
0
0
0
-2.1330032e-05
-1.498718891e-05
-7.02221368e-06
1.103819592e-05
2.451271693e-05
6.408877507e-05
0.0001072174719
0.0001394823897
0.0001582881511
0.0001669967849
0.0001697064346
0.0001693561271
0.0001676066242
0.0001654231313
0.0001636624718
0.0001633435989
0.0001656513144
0.0001718076352
0.000182866444
0.0001994583964
0.0002215376601
0.0002481853833
0.0002775293157
0.000306890327
0.0003329813505
0.0003533182423
0.0003587167193
0.0003740448832
0.0003929602482
0.0001472840982
8.701614198
0
0
0
0
0
0
0
0
0
0
0
0
0
0
0
0
0
0
-0.002692566789
0
0
0
0
0
0
0
0
0
0
0
0
0
0
0
0
0
0
0
0
0
0
0
0
0
0
0
0
0
0
-2.341697995e-05
-1.934333508e-05
-1.458361199e-05
4.489422334e-08
1.011082082e-05
4.691302681e-05
8.772361728e-05
0.0001178526818
0.0001345482144
0.000141175911
0.0001419495514
0.0001399830528
0.0001371443184
0.0001346241248
0.0001335106362
0.0001350426505
0.0001405854471
0.0001514643245
0.0001687230855
0.0001928459374
0.0002234936317
0.0002593100063
0.0002978896841
0.0003360219933
0.0003702242928
0.0003968441395
0.0004140344105
0.0004162047711
0.0003591848169
0.0001578335061
-0.007879850002
0
0
0
0
0
0
0
0
0
0
0
0
0
0
0
0
0
0
0
0
0
0
0
0
0
0
0
0
0
0
0
0
0
0
0
0
0
0
0
0
0
0
0
0
0
0
0
0
0
-2.614130042e-05
-2.492104896e-05
-2.358601728e-05
-1.263654134e-05
-6.276103395e-06
2.742537597e-05
6.575932705e-05
9.383260336e-05
0.0001086712338
0.0001135479721
0.000112720048
0.0001094333764
0.0001057370245
0.0001030259742
0.0001025955829
0.0001058744321
0.0001143720966
0.0001294781198
0.0001521913258
0.000182825637
0.0002207391205
0.0002641504492
0.0003101612417
0.0003550967372
0.0003949415982
0.0004262319889
0.0004474601142
0.0004640665258
0.0003814562811
0.0001354104763
4.655347375
0
0
0
0
0
0
0
0
0
0
0
0
0
0
0
0
0
0
0
0
0
0
0
0
0
0
0
0
0
0
0
0
0
0
0
0
0
0
0
0
0
0
0
0
0
0
0
0
0
-2.90880267e-05
-3.079796613e-05
-3.244721303e-05
-2.459815454e-05
-2.159564254e-05
9.056703923e-06
4.506856106e-05
7.154341589e-05
8.523102053e-05
8.916794005e-05
8.752938243e-05
8.360969887e-05
7.958559446e-05
7.701571467e-05
7.736379929e-05
8.220661392e-05
9.315453213e-05
0.0001116216031
0.0001385336899
0.0001740235319
0.0002171563404
0.0002657697569
0.0003165672669
0.0003655028256
0.0004078928575
0.0004408780777
0.0004635542808
0.0004842740217
0.0003987464356
0.0001313844094
4.655336547
0
0
0
0
0
0
0
0
0
0
0
0
0
0
0
0
0
0
0
0
0
0
0
0
0
0
0
0
0
0
0
0
0
0
0
0
0
0
0
0
0
0
0
0
0
0
0
0
0
-3.170410338e-05
-3.582633439e-05
-3.918631913e-05
-3.287143584e-05
-3.205900584e-05
-4.094405686e-06
2.98814262e-05
5.539547308e-05
6.892612714e-05
7.309463731e-05
7.180913833e-05
6.827851349e-05
6.471923817e-05
6.279160807e-05
6.407586843e-05
7.02484352e-05
8.297665756e-05
0.0001036670195
0.000133159469
0.0001714135233
0.0002172305661
0.0002681247808
0.000320508381
0.0003701780837
0.000412447793
0.0004447394886
0.0004651811947
0.0004880845613
0.0003945818235
0.000119393935
-0.007879878539
0
0
0
0
0
0
0
0
0
0
0
0
0
0
0
0
0
0
0
0
0
0
0
0
0
0
0
0
0
0
0
0
0
0
0
0
0
0
0
0
0
0
0
0
0
0
0
0
0
-3.334869553e-05
-3.864993221e-05
-4.188128085e-05
-3.457299904e-05
-3.369879175e-05
-7.759886318e-06
2.441761133e-05
4.953275036e-05
6.392666152e-05
6.962785691e-05
7.004531272e-05
6.811737721e-05
6.597405651e-05
6.529161235e-05
6.770305224e-05
7.493328895e-05
8.866888004e-05
0.0001102912264
0.0001405626533
0.0001793054967
0.0002251312766
0.0002753591461
0.0003262129737
0.0003730542243
0.0004117323945
0.0004403358457
0.0004607918847
0.0004844711312
0.0003611010926
0.0001670520213
8.701581961
0
0
0
0
0
0
0
0
0
0
0
0
0
0
0
0
0
0
-0.002658742656
0
0
0
0
0
0
0
0
0
0
0
0
0
0
0
0
0
0
0
0
0
0
0
0
0
0
0
0
0
0
-3.347427523e-05
-3.811079136e-05
-3.950019238e-05
-2.844237895e-05
-2.388699188e-05
1.27132064e-06
3.195410238e-05
5.708987235e-05
7.321048207e-05
8.164602644e-05
8.507729027e-05
8.59622139e-05
8.619059515e-05
8.735010277e-05
9.105500505e-05
9.903006622e-05
0.0001129543602
0.0001341835683
0.0001634283238
0.000200420176
0.0002436482637
0.0002903609589
0.0003368508706
0.0003784508739
0.0004106365187
0.0004311427214
0.0004411377184
0.000449397081
0.0003055302573
0.0002602928739
4.5329042e-05
5.370598238
0
0
0
0
0
0
0
0
0
0
0
0
0
0
0
0
-0.007956850149
-1.911619401e-06
0.5065347151
0
0
0
0
0
0
0
0
0
0
0
0
0
0
0
0
0
0
0
0
0
0
0
0
0
0
0
0
0
-3.134557855e-05
-3.334531221e-05
-3.253958356e-05
-1.656526837e-05
-3.839175887e-06
2.299190563e-05
5.327612683e-05
7.91572274e-05
9.786841695e-05
0.0001101027688
0.0001176840415
0.0001224237468
0.000125830647
0.0001293022816
0.0001343677167
0.0001427145529
0.0001560058609
0.0001755927032
0.0002021840777
0.0002355032901
0.000274040507
0.0003150942678
0.0003550331955
0.0003895125985
0.0004146668463
0.0004272552637
0.0004280955591
0.0004107688917
0.0003873041231
0.0003250961493
0.0001454892207
1.943775459
0
0
0
0
0
0
0
0
0
0
0
0
0
0
0
0
17.75826452
-0.0001461548735
21.78169299
0
0
0
0
0
0
0
0
0
0
0
0
0
0
0
0
0
0
0
0
0
0
0
0
0
0
0
0
0
-2.922776295e-05
-2.768851904e-05
-2.30489529e-05
-4.174509651e-06
1.989571616e-05
5.262198573e-05
8.562898176e-05
0.0001141987151
0.0001368351525
0.0001539568533
0.0001666390935
0.0001760184234
0.0001831511064
0.0001891784459
0.0001955014699
0.0002037564038
0.0002156070072
0.0002324444697
0.0002550389014
0.0002831840657
0.0003154964027
0.0003495244157
0.0003819116911
0.0004087299369
0.0004268849449
0.0004331179406
0.0004306234955
0.0004140716428
0.0004168220071
0.0002931328754
0.0002465302825
5.754545055e-05
6.195633921
0
0
0
0
0
0
0
0
0
0
0
0
0
0
5.333631126
-1.97181629e-05
-1.911100064e-08
-0.005159970184
0
0
0
0
0
0
0
0
0
0
0
0
0
0
0
0
0
0
0
0
0
0
0
0
0
0
0
0
0
-1.516872678e-05
-9.802915357e-06
-3.219299089e-06
2.358303257e-05
5.407960912e-05
9.099872948e-05
0.0001274701744
0.0001601292022
0.0001879317483
0.0002108947732
0.0002293829964
0.0002438772883
0.0002549666219
0.0002635126963
0.0002707772926
0.0002783574905
0.0002879591768
0.0003010840367
0.000318654243
0.0003406319433
0.0003658494092
0.0003921679513
0.0004165892259
0.000435596586
0.0004465172067
0.0004465209665
0.0004354698628
0.0004116452581
0.0004006819024
0.0003711879152
0.0003110645877
0.0001269454913
3.070888815
0
0
0
0
0
0
0
0
0
0
0
0
0
0
26.21680819
-9.211919136e-05
-3.666922239e-05
9.920531108
0
0
0
0
0
0
0
0
0
0
0
0
0
0
0
0
0
0
0
0
0
0
0
0
0
0
0
0
0
-3.399912243e-06
4.194879322e-06
2.50679693e-05
5.610694216e-05
9.537070935e-05
0.0001362793063
0.0001769869306
0.0002148550301
0.0002488349198
0.0002783633168
0.0003030908317
0.0003228729688
0.0003378501955
0.0003486162438
0.0003563117993
0.0003625293546
0.0003690712363
0.000377622707
0.0003893505372
0.0004044991501
0.0004222259454
0.0004407704069
0.0004576200788
0.0004699087021
0.0004750833639
0.0004711267651
0.0004574210477
0.000437111219
0.0004247033398
0.0004397881195
0.0003160047626
0.000232271912
0.0001435864756
3.060079814
6.15244135
0
0
0
0
0
0
0
0
0
0
3.523981775
0.3690669339
5.645876487e-06
-0.0001080287787
-0.0001500634958
-0.007446053311
0
0
0
0
0
0
0
0
0
0
0
0
0
0
0
0
0
0
0
0
0
0
0
0
0
0
0
0
0
1.372332649e-05
2.10516721e-05
4.757660035e-05
9.298960429e-05
0.0001397202107
0.0001861971847
0.0002324958502
0.0002768186533
0.0003179084841
0.0003545771936
0.0003857933139
0.0004108370912
0.0004294436584
0.0004419767754
0.0004494973365
0.0004536440833
0.0004563771201
0.0004596335443
0.0004649012617
0.0004728015232
0.0004829061802
0.0004938358686
0.0005034705661
0.0005096237626
0.0005102197084
0.0005031507602
0.0004876543119
0.0004649801863
0.0004434384705
0.000440881274
0.0004270098398
0.0003697801313
0.0002488488149
0.0001491077485
-5.780552879e-06
1.879595269
5.231861554
0
0
0
0
0
0
4.377380976
1.081578411
-1.885438698e-06
-9.435501974e-07
-0.0002113341063
-0.000311580335
-8.242788885e-05
-0.004309524404
0
0
0
0
0
0
0
0
0
0
0
0
0
0
0
0
0
0
0
0
0
0
0
0
0
0
0
0
0
1.78092038e-05
3.671487867e-05
7.696288699e-05
0.0001319097071
0.0001864655057
0.000239911596
0.0002934810234
0.0003456605513
0.0003948512765
0.0004392487642
0.0004771993499
0.0005074735732
0.0005294602091
0.0005433474669
0.0005501709581
0.0005516717583
0.0005500217494
0.0005474582601
0.0005458370581
0.0005462079748
0.0005486111477
0.0005521055739
0.0005549891875
0.000555557858
0.0005523683261
0.0005436093385
0.0005288318852
0.0005087301733
0.0004884609412
0.0004769368668
0.0004718531419
0.000474929917
0.0004202055412
0.000284926652
0.0002943149425
0.0002012348622
-5.076625878e-05
8.586580825
-0.008078414767
4.378154802
4.304801169
-0.008276868047
8.352144623
-2.823839745e-05
-2.13781993e-05
-6.389117351e-06
-0.000152658816
-0.000289058559
-0.0002064263996
-6.469672942e-05
-0.003003874044
0
0
0
0
0
0
0
0
0
0
0
0
0
0
0
0
0
0
0
0
0
0
0
0
0
0
0
0
0
2.464271153e-05
5.598349672e-05
0.0001082051245
0.0001726373956
0.0002358596971
0.0002980555031
0.0003607659343
0.0004223729393
0.0004808316777
0.0005337427207
0.0005788942403
0.0006146136895
0.0006400037176
0.0006551317907
0.00066106015
0.0006596803604
0.0006534124855
0.0006448135836
0.0006361187801
0.0006288185432
0.0006234196251
0.0006194042879
0.0006154960136
0.0006103815937
0.0006030397837
0.000592323878
0.0005779162281
0.0005602849741
0.0005423051833
0.0005271327272
0.0005193003275
0.0005163979433
0.000519752371
0.0005722154141
0.0004819937131
0.0002835405458
0.0003346488371
0.0002349921689
8.182652289e-06
-1.237717193e-05
-1.192864804e-05
7.750751145e-06
-5.929677903e-05
7.093565504e-05
9.141620478e-05
-0.0001031987285
-0.0001600191079
-0.0002105610702
-0.0001819505457
-5.863984074e-05
-0.002419473888
0
0
0
0
0
0
0
0
0
0
0
0
0
0
0
0
0
0
0
0
0
0
0
0
0
0
0
0
0
3.155339795e-05
7.516615086e-05
0.0001405838866
0.0002154054017
0.0002890204214
0.0003620642797
0.00043595257
0.000508748856
0.0005779066776
0.0006404651665
0.0006937154905
0.0007356018018
0.000764990883
0.0007818664245
0.0007873427776
0.0007834752048
0.000772927817
0.0007585508622
0.0007429163176
0.000727911056
0.0007144732702
0.0007024908921
0.0006911001737
0.0006793830336
0.0006665609618
0.0006520417849
0.0006357013309
0.0006179544789
0.0006005289512
0.000584794771
0.0005733632397
0.0005656865957
0.0005566777711
0.0005582797616
0.0005817766758
0.0006202093125
0.0005050564278
0.0002617764557
0.0003274546719
0.0003016543775
0.0003194021514
0.000286991136
0.0003193600927
0.0001889279142
6.362019894e-05
-4.508643609e-05
-0.000127756155
-0.0001895864366
-0.0001738618795
-5.754243602e-05
-0.002187473969
0
0
0
0
0
0
0
0
0
0
0
0
0
0
0
0
0
0
0
0
0
0
0
0
0
0
0
0
0
3.846975271e-05
9.444568994e-05
0.0001742239479
0.000261036352
0.0003470645009
0.0004331587757
0.0005203195767
0.0006062074843
0.0006877601366
0.000761510531
0.0008243179976
0.0008737992829
0.000908621645
0.0009286946098
0.0009351647066
0.0009302039378
0.000916647682
0.0008975450577
0.0008756980125
0.0008532844991
0.0008315984296
0.0008109153205
0.0007907754576
0.0007706710355
0.0007501456338
0.0007289884081
0.0007073542831
0.0006856921843
0.0006648388019
0.0006461364236
0.000631101826
0.0006196054431
0.000607276482
0.0005963997309
0.0005783598076
0.000568538511
0.0005999239167
0.0005644890083
0.0005396948366
0.000445484783
0.0003930208021
0.0003190565592
0.0002067456163
9.523018037e-05
5.575785087e-05
-5.032347505e-05
-0.0001256213338
-0.0001878384303
-0.0001731667466
-6.017049451e-05
-0.002189416305
0
0
0
0
0
0
0
0
0
0
0
0
0
0
0
0
0
0
0
0
0
0
0
0
0
0
0
0
0
4.528234752e-05
0.00011410941
0.0002095117943
0.0003097893208
0.0004099861031
0.000511047453
0.0006133590674
0.0007141741803
0.0008099351617
0.0008967467956
0.0009711152917
0.00103039063
0.001073068062
0.001098962917
0.001109182941
0.001105896153
0.001091947889
0.001070400415
0.001044093528
0.001015315682
0.0009855860214
0.0009555335309
0.0009251351103
0.0008943228886
0.0008631156703
0.0008316985783
0.0008005486964
0.0007704244005
0.000741753645
0.0007150568257
0.0006916633773
0.0006722781767
0.0006554482808
0.000640767497
0.0006227838876
0.000580559484
0.0005027945085
0.0002513360268
0.0001584524601
0.0001239878562
9.449270836e-05
9.354883493e-05
-8.183122444e-08
-1.769723334e-05
2.017153454e-05
-6.74754254e-05
-0.0001311926239
-0.000201731459
-0.0001821499639
-6.582325268e-05
-0.002425416962
0
0
0
0
0
0
0
0
0
0
0
0
0
0
0
0
0
0
0
0
0
0
0
0
0
0
0
0
0
5.211465427e-05
0.0001342461047
0.0002457769043
0.0003601644619
0.0004754204827
0.0005925357971
0.000711206477
0.0008283192615
0.0009398994567
0.00104171998
0.001130024226
0.001201965829
0.001255891752
0.001291479488
0.001309677364
0.001312454439
0.001302413712
0.001282345593
0.001254840825
0.001222035333
0.001185479423
0.001146076408
0.001104287261
0.001060586187
0.001015631538
0.0009702134602
0.0009252257803
0.0008816386552
0.000839977715
0.0008002183605
0.000762668346
0.0007278066053
0.0006937412434
0.0006657664991
0.0005267699557
0.0002836317118
5.158342789e-05
8.585579301
-0.008079685372
4.376561407
4.30299533
-0.008278708927
8.350641927
-1.552327284e-05
-3.669158459e-05
-9.250292447e-05
-0.0001359308431
-0.00017809278
-0.0002000113445
-7.255810278e-05
-0.003014232115
0
0
0
0
0
0
0
0
0
0
0
0
0
0
0
0
0
0
0
0
0
0
0
0
0
0
0
0
0
5.885456065e-05
0.0001540531624
0.0002804732517
0.0004079603198
0.0005375848326
0.0006702972357
0.0008052053752
0.0009389124836
0.001067170296
0.001185551844
0.001290145009
0.001377983064
0.001447283495
0.001497523689
0.001529334667
0.001544234212
0.001544257328
0.001531551856
0.001508087253
0.001475505222
0.001435126195
0.001387994664
0.00133508126
0.001277570591
0.001216909549
0.001154613819
0.001092077939
0.001030386576
0.0009701673133
0.0009108772641
0.000854204056
0.0007997246067
0.0007396832155
0.0003041917225
6.826810591e-05
1.878412538
5.230665459
0
0
0
0
0
0
4.373848241
1.078831875
-6.458822277e-05
-7.248996932e-05
-0.0001362886699
-0.0001769840047
-8.398789274e-05
-0.004325287932
0
0
0
0
0
0
0
0
0
0
0
0
0
0
0
0
0
0
0
0
0
0
0
0
0
0
0
0
0
6.488598609e-05
0.000171409773
0.0003085942775
0.0004454786729
0.0005863153752
0.0007318609119
0.000880675755
0.001029313382
0.001173491308
0.001308772189
0.001431230143
0.001537869464
0.001626795925
0.001697212223
0.00174926529
0.001783755729
0.001801801515
0.001804473638
0.001792657274
0.00176707373
0.001728465732
0.00167780852
0.001616560032
0.00154681887
0.00147108642
0.001391679262
0.001310127453
0.001227416858
0.001143452208
0.001059718114
0.0009737784802
0.0009088668248
0.0002774356123
3.060387092
6.151744299
0
0
0
0
0
0
0
0
0
0
3.517921614
0.3646529773
-0.0001007587983
-8.882924629e-05
-6.976396703e-05
-0.007469661649
0
0
0
0
0
0
0
0
0
0
0
0
0
0
0
0
0
0
0
0
0
0
0
0
0
0
0
0
0
6.874825737e-05
0.0001819553382
0.0003217474535
0.0004600655085
0.0006043165642
0.0007554361932
0.0009113147718
0.0010687438
0.001223755645
0.001372211443
0.001510427292
0.001635554814
0.001745660011
0.001839633586
0.001917000221
0.001977654211
0.002021500221
0.002048214201
0.002057164501
0.002047779599
0.002019925092
0.00197428293
0.001912631457
0.001837851702
0.001753443327
0.001662449077
0.001566296777
0.001464514623
0.001359319037
0.001247293588
0.001113038059
0.0004901301565
3.069941984
0
0
0
0
0
0
0
0
0
0
0
0
0
0
26.20771016
-0.0001678542245
-3.659995329e-05
9.901790972
0
0
0
0
0
0
0
0
0
0
0
0
0
0
0
0
0
0
0
0
0
0
0
0
0
0
0
0
0
6.776239549e-05
0.0001789479794
0.0003081077106
0.0004348299265
0.000569006017
0.0007121227249
0.0008615754199
0.001014606321
0.001167929742
0.00131818522
0.001462404092
0.001598244394
0.001723942889
0.001838160043
0.001939684112
0.002027396214
0.002099770535
0.002155172664
0.002191560179
0.002207036513
0.002200573461
0.00217249338
0.002124676678
0.002060287759
0.001983213542
0.001896906862
0.001802139561
0.001696301837
0.001581653822
0.001454160556
0.00107060112
0.0002371852151
6.195031832
0
0
0
0
0
0
0
0
0
0
0
0
0
0
5.336755432
-1.972977607e-05
-1.916799405e-08
-0.005175358448
0
0
0
0
0
0
0
0
0
0
0
0
0
0
0
0
0
0
0