/*--------------------------------*- C++ -*----------------------------------*\
  =========                 |
  \\      /  F ield         | OpenFOAM: The Open Source CFD Toolbox
   \\    /   O peration     | Website:  https://openfoam.org
    \\  /    A nd           | Version:  6
     \\/     M anipulation  |
\*---------------------------------------------------------------------------*/
FoamFile
{
    version     2.0;
    format      ascii;
    class       surfaceScalarField;
    location    "0.0036";
    object      phi;
}
// * * * * * * * * * * * * * * * * * * * * * * * * * * * * * * * * * * * * * //

dimensions      [0 3 -1 0 0 0 0];

internalField   nonuniform List<scalar> 
19000
(
-1.158818664e-19
1.172040096e-20
-1.159594593e-19
1.181622924e-20
-1.160866515e-19
1.202365703e-20
-1.162665029e-19
1.232946667e-20
-1.164966551e-19
1.271764476e-20
-1.167796308e-19
1.317207444e-20
-1.171199134e-19
1.367614619e-20
-1.175201595e-19
1.42134735e-20
-1.179845558e-19
1.476744799e-20
-1.185153188e-19
1.532199509e-20
-1.191161706e-19
1.586107679e-20
-1.197889331e-19
1.636942289e-20
-1.205371886e-19
1.683197588e-20
-1.213629568e-19
1.723458961e-20
-1.222704824e-19
1.756344898e-20
-1.232629126e-19
1.780577355e-20
-1.243461678e-19
1.794923429e-20
-1.255256406e-19
1.798265709e-20
-1.268102259e-19
1.789539726e-20
-1.282091012e-19
1.767801463e-20
-1.297358849e-19
1.732161092e-20
-1.314053966e-19
1.681852824e-20
-1.33237801e-19
1.616173097e-20
-1.352553046e-19
1.534556425e-20
-1.374863826e-19
1.436511504e-20
-1.399626203e-19
1.321687278e-20
-1.427231517e-19
1.189793706e-20
-1.458115171e-19
1.040656625e-20
-1.492798964e-19
8.741393253e-21
-1.531854826e-19
6.902121214e-21
-1.575942747e-19
4.88885739e-21
-1.625772364e-19
2.702737402e-21
-1.682141343e-19
3.449066511e-22
-1.745896273e-19
-2.18332534e-21
-1.817964666e-19
-4.881782573e-21
-1.899302421e-19
-7.751165223e-21
-1.990909403e-19
-1.079399001e-20
-2.093762901e-19
-1.401404804e-20
-2.208822269e-19
-1.741732024e-20
-2.336947981e-19
-2.101140144e-20
-2.478880937e-19
-2.480590102e-20
-2.63512535e-19
-2.881053113e-20
-2.80589057e-19
-3.303349798e-20
-2.990947375e-19
-3.747724889e-20
-3.189556632e-19
-4.213426948e-20
-3.400320429e-19
-4.697963286e-20
-3.621103581e-19
-5.196253054e-20
-3.848877991e-19
-5.699352256e-20
-4.079653891e-19
-6.193077207e-20
-4.308375771e-19
-6.656430222e-20
-4.528959349e-19
-7.060473775e-20
-4.734321041e-19
-7.367915448e-20
-4.916523692e-19
-7.534540242e-20
-5.066826684e-19
-7.513403208e-20
-5.17569565e-19
-7.263390945e-20
-5.232488833e-19
-6.762344452e-20
-5.224980551e-19
-6.023299468e-20
-5.139081892e-19
-5.107535287e-20
-4.96028586e-19
-4.122186294e-20
-4.677738899e-19
-3.185795132e-20
-4.288051371e-19
-2.372285361e-20
-3.771496014e-19
-1.760319274e-20
-2.954826015e-19
-1.921056045e-20
-1.313511618e-19
-5.111990783e-20
1.812011806e-19
-9.932497523e-20
5.151433638e-19
-1.034096255e-19
-3.346285364e-20
7.097304534e-19
1.424621512e-20
-8.116922695e-20
1.648380949e-20
-1.59295223e-20
1.44672978e-20
2.145351505e-21
1.580327842e-20
9.307594953e-21
2.120006135e-20
1.243603808e-20
2.444207326e-20
1.147670365e-20
2.526655995e-20
8.98256696e-21
2.582267415e-20
6.764234096e-21
2.686175216e-20
4.836543827e-21
2.823050869e-20
2.751599576e-21
2.95139423e-20
1.960561282e-22
3.029403337e-20
-2.920712261e-21
3.022520706e-20
-6.507940965e-21
2.912836824e-20
-1.033205878e-20
2.703173885e-20
-1.409248917e-20
2.410986081e-20
-1.751414872e-20
2.060995122e-20
-2.040024821e-20
1.679268315e-20
-2.264848615e-20
1.288551333e-20
-2.424701863e-20
9.046033452e-21
-2.525538268e-20
5.35008324e-21
-2.577358337e-20
1.797070167e-21
-2.590907328e-20
-1.668078704e-21
-2.574849068e-20
-5.129917714e-21
-2.533906974e-20
-8.671945725e-21
-2.467932462e-20
-1.234918001e-20
-2.371965156e-20
-1.61602646e-20
-2.237180807e-20
-2.002920261e-20
-2.052848004e-20
-2.379810218e-20
-1.809132013e-20
-2.724326257e-20
-1.500438935e-20
-3.011050184e-20
-1.128418973e-20
-3.216526463e-20
-7.038144273e-21
-3.324891595e-20
-2.466887916e-21
-3.3353379e-20
2.152633384e-21
-3.267804752e-20
6.520577974e-21
-3.158969889e-20
1.040551791e-20
-3.052597909e-20
1.371891232e-20
-2.992223736e-20
1.65513106e-20
-2.995282958e-20
1.921148704e-20
-2.989252619e-20
2.213575772e-20
-2.762739868e-20
2.528952898e-20
-2.345250023e-20
2.683787926e-20
-2.356591931e-20
2.419677859e-20
-2.718354163e-20
1.735063338e-20
-2.653920468e-20
-7.115230914e-22
1.994099956e-20
-6.64222637e-20
-7.541764215e-19
7.234796361e-19
-8.797259205e-19
-7.077584947e-19
-7.919902587e-19
-1.90301471e-18
-5.231315089e-19
-2.685143841e-18
-1.915374093e-19
-2.813463136e-18
3.933924978e-20
-1.982014314e-18
1.92148554e-31
-1.144836536e-19
1.252994357e-20
-1.145730595e-19
1.263421089e-20
-1.147201915e-19
1.285910107e-20
-1.149285463e-19
1.31903709e-20
-1.151957668e-19
1.361054316e-20
-1.155247587e-19
1.410222939e-20
-1.159198506e-19
1.464727686e-20
-1.163840031e-19
1.522799042e-20
-1.169211593e-19
1.582620779e-20
-1.175337597e-19
1.642456449e-20
-1.182252026e-19
1.700550172e-20
-1.189974814e-19
1.7552504e-20
-1.198538134e-19
1.804904735e-20
-1.207963554e-19
1.847981517e-20
-1.218289371e-19
1.882961211e-20
-1.229547885e-19
1.908459756e-20
-1.2417936e-19
1.923119029e-20
-1.255081098e-19
1.92573066e-20
-1.269494764e-19
1.915121942e-20
-1.28512759e-19
1.890277312e-20
-1.302111659e-19
1.850221837e-20
-1.32059665e-19
1.794146034e-20
-1.34078009e-19
1.721294293e-20
-1.362885968e-19
1.631094637e-20
-1.387196545e-19
1.523043591e-20
-1.414032881e-19
1.396826181e-20
-1.443788355e-19
1.252185509e-20
-1.476908316e-19
1.089033949e-20
-1.513920372e-19
9.073253186e-21
-1.555409503e-19
7.071785417e-21
-1.602045664e-19
4.88754274e-21
-1.654559202e-19
2.523594517e-21
-1.713769923e-19
-1.722235997e-23
-1.780560174e-19
-2.731801817e-21
-1.855894254e-19
-5.618802103e-21
-1.940775981e-19
-8.678158786e-21
-2.036252392e-19
-1.191300416e-20
-2.143359637e-19
-1.532925654e-20
-2.263115757e-19
-1.893789576e-20
-2.396448216e-19
-2.275490716e-20
-2.544154481e-19
-2.680339847e-20
-2.70678789e-19
-3.11126755e-20
-2.884578015e-19
-3.571888724e-20
-3.077287733e-19
-4.066225496e-20
-3.284115023e-19
-4.598526383e-20
-3.503535554e-19
-5.172624835e-20
-3.733189024e-19
-5.791204791e-20
-3.969717524e-19
-6.454409963e-20
-4.208687241e-19
-7.158242406e-20
-4.444537739e-19
-7.892380307e-20
-4.670709448e-19
-8.638127975e-20
-4.879882755e-19
-9.366535673e-20
-5.064445862e-19
-1.00381418e-19
-5.217052668e-19
-1.060556069e-19
-5.331225997e-19
-1.102164213e-19
-5.401631502e-19
-1.125486832e-19
-5.423949252e-19
-1.131261662e-19
-5.39484346e-19
-1.126495507e-19
-5.315002528e-19
-1.124337099e-19
-5.203492733e-19
-1.134581505e-19
-5.138916174e-19
-1.133766044e-19
-5.323315258e-19
-1.001305719e-19
-6.056313666e-19
-4.859634943e-20
-7.641859366e-19
2.29170142e-20
-3.703672485e-19
-2.332061481e-19
-1.102074279e-19
5.549256984e-31
2.489500689e-19
3.505764257e-19
7.948592034e-20
8.829833342e-20
3.455868334e-20
2.900103268e-20
2.162954139e-20
1.507794186e-20
1.893172158e-20
1.20088163e-20
2.024072705e-20
1.113045378e-20
2.194793677e-20
9.772788788e-21
2.304822718e-20
7.885729625e-21
2.389498405e-20
5.921075272e-21
2.477680809e-20
3.958790297e-21
2.567496539e-20
1.857718341e-21
2.63971741e-20
-5.215776271e-22
2.670680481e-20
-3.225910509e-21
2.640108947e-20
-6.197741791e-21
2.536793803e-20
-9.294702088e-21
2.361007936e-20
-1.233044873e-20
2.122376157e-20
-1.512416305e-20
1.836171341e-20
-1.753495267e-20
1.519415063e-20
-1.947866912e-20
1.18771495e-20
-2.09285629e-20
8.527832812e-21
-2.190572201e-20
5.214593205e-21
-2.246050258e-20
1.957652933e-21
-2.265266746e-20
-1.258657772e-21
-2.253240703e-20
-4.470172774e-21
-2.212779309e-20
-7.712272564e-21
-2.143746713e-20
-1.10013366e-20
-2.043143209e-20
-1.431693678e-20
-1.905754672e-20
-1.759204271e-20
-1.725553222e-20
-2.071117155e-20
-1.497490782e-20
-2.352306318e-20
-1.219589649e-20
-2.58644565e-20
-8.946559758e-21
-2.759400848e-20
-5.312759953e-21
-2.862939484e-20
-1.435700904e-21
-2.898543462e-20
2.504521626e-21
-2.879310779e-20
6.324329017e-21
-2.82763046e-20
9.884816073e-21
-2.769358107e-20
1.313236363e-20
-2.726206111e-20
1.611593678e-20
-2.702855896e-20
1.897430756e-20
-2.673875524e-20
2.184239552e-20
-2.607904857e-20
2.462655261e-20
-2.609360089e-20
2.684939008e-20
-3.041206481e-20
2.851226398e-20
-4.524569821e-20
3.218102885e-20
-9.224994586e-20
4.629043168e-20
-2.634697033e-19
1.047940748e-19
9.645824352e-20
3.635496453e-19
-1.185026101e-19
6.031066273e-31
-1.846666851e-19
-1.595697922e-18
-3.58751095e-19
-2.437535576e-18
-1.655453437e-19
-2.996352691e-18
5.435335411e-20
-2.291863258e-18
2.459746826e-31
-1.129761875e-19
1.339374945e-20
-1.130784767e-19
1.350743391e-20
-1.132470756e-19
1.375214887e-20
-1.134863859e-19
1.411201233e-20
-1.137936626e-19
1.456846806e-20
-1.141726395e-19
1.510224442e-20
-1.146270744e-19
1.569403332e-20
-1.151606704e-19
1.632421011e-20
-1.157766987e-19
1.697344934e-20
-1.16478266e-19
1.76224684e-20
-1.172680166e-19
1.825258647e-20
-1.181485596e-19
1.88454159e-20
-1.191223012e-19
1.938338269e-20
-1.201919756e-19
1.984937324e-20
-1.213605259e-19
2.02272525e-20
-1.226316891e-19
2.050150569e-20
-1.240099468e-19
2.065776422e-20
-1.255012245e-19
2.068243272e-20
-1.271129722e-19
2.056319138e-20
-1.288549712e-19
2.02885901e-20
-1.307394325e-19
1.984855454e-20
-1.327817746e-19
1.923401372e-20
-1.350006989e-19
1.843746713e-20
-1.374190608e-19
1.74526391e-20
-1.400641543e-19
1.627502088e-20
-1.42968827e-19
1.490141717e-20
-1.461718697e-19
1.333036828e-20
-1.497189518e-19
1.156163684e-20
-1.536626017e-19
9.596677448e-21
-1.580627691e-19
7.438202563e-21
-1.629867508e-19
5.090610596e-21
-1.685100261e-19
2.559251911e-21
-1.747164053e-19
-1.496896613e-22
-1.816984653e-19
-3.030501162e-21
-1.895564694e-19
-6.078431577e-21
-1.983971687e-19
-9.291148133e-21
-2.083313505e-19
-1.266939057e-20
-2.194717582e-19
-1.621889578e-20
-2.319296098e-19
-1.995184139e-20
-2.458103097e-19
-2.388951166e-20
-2.612062308e-19
-2.806404807e-20
-2.781878392e-19
-3.25208157e-20
-2.96792233e-19
-3.73193875e-20
-3.170109369e-19
-4.253467755e-20
-3.387756312e-19
-4.82557873e-20
-3.619429034e-19
-5.4583179e-20
-3.862768313e-19
-6.16208468e-20
-4.114324783e-19
-6.946360236e-20
-4.369430886e-19
-7.817633645e-20
-4.622185798e-19
-8.776602395e-20
-4.865616703e-19
-9.81447008e-20
-5.092115416e-19
-1.090876575e-19
-5.29422476e-19
-1.201939341e-19
-5.465809005e-19
-1.308695018e-19
-5.603421958e-19
-1.403641387e-19
-5.707364017e-19
-1.479146591e-19
-5.78144056e-19
-1.530591616e-19
-5.830110321e-19
-1.56157256e-19
-5.85264817e-19
-1.589205155e-19
-5.845045403e-19
-1.641527339e-19
-5.840172067e-19
-1.714499144e-19
-6.07935379e-19
-1.617902361e-19
-7.425793014e-19
-5.639601281e-20
-9.313608462e-19
3.576286463e-19
-1.627548038e-18
7.727758777e-19
-2.663804473e-19
-7.848970613e-19
-1.332802367e-20
9.752773001e-20
2.01886189e-20
5.478477813e-20
2.063559252e-20
2.855704914e-20
1.85604159e-20
1.715611494e-20
1.805335899e-20
1.251895843e-20
1.888306206e-20
1.030386189e-20
2.006087765e-20
8.598188021e-21
2.108357277e-20
6.866347027e-21
2.193269907e-20
5.075559602e-21
2.267573614e-20
3.219654281e-21
2.329566941e-20
1.242040739e-21
2.369284122e-20
-9.143962381e-22
2.373497348e-20
-3.263649051e-21
2.33041292e-20
-5.762686852e-21
2.233219139e-20
-8.318642445e-21
2.081636494e-20
-1.081076042e-20
1.881297204e-20
-1.311714881e-20
1.641799695e-20
-1.513693838e-20
1.374425672e-20
-1.680254962e-20
1.089999051e-20
-1.808286207e-20
7.973052241e-21
-1.897812666e-20
5.022428185e-21
-1.950989622e-20
2.077913498e-21
-1.970833692e-20
-8.540438316e-22
-1.960066237e-20
-3.779846938e-21
-1.920211555e-20
-6.706237393e-21
-1.851150413e-20
-9.62745123e-21
-1.751111831e-20
-1.251492238e-20
-1.617170459e-20
-1.53114182e-20
-1.446126104e-20
-1.793216023e-20
-1.235699132e-20
-2.027372648e-20
-9.857582767e-21
-2.223065663e-20
-6.993317973e-21
-2.371694943e-20
-3.830387707e-21
-2.468917228e-20
-4.675012974e-22
-2.516562724e-20
2.977061993e-21
-2.523262073e-20
6.387469821e-21
-2.502875695e-20
9.677106623e-21
-2.4710008e-20
1.280968902e-20
-2.440369033e-20
1.580578987e-20
-2.416047086e-20
1.872751102e-20
-2.395459827e-20
2.16332837e-20
-2.38562111e-20
2.45251399e-20
-2.443072682e-20
2.742114641e-20
-2.674330009e-20
3.08221899e-20
-3.113629538e-20
3.657160813e-20
-3.374630189e-20
4.88974437e-20
-4.714132661e-21
7.575777349e-20
2.396580407e-19
1.191759169e-19
1.292225921e-18
-7.592877698e-19
1.510324429e-20
2.244073687e-19
-3.491111942e-19
-1.656297376e-18
-2.370903968e-19
-3.094215975e-18
5.131453458e-20
-2.666451469e-18
3.30015214e-31
-1.113490472e-19
1.431250673e-20
-1.114649911e-19
1.443702136e-20
-1.116569647e-19
1.4703926e-20
-1.119294297e-19
1.509617032e-20
-1.122801678e-19
1.559342704e-20
-1.127128798e-19
1.617498926e-20
-1.132316587e-19
1.68196854e-20
-1.138400698e-19
1.750641208e-20
-1.145416226e-19
1.821396656e-20
-1.153391946e-19
1.892160511e-20
-1.162355965e-19
1.960880575e-20
-1.172331396e-19
2.025578184e-20
-1.183343441e-19
2.084318709e-20
-1.195415746e-19
2.135260993e-20
-1.208578031e-19
2.176626162e-20
-1.222862933e-19
2.206747167e-20
-1.238314595e-19
2.224037645e-20
-1.254986729e-19
2.22704098e-20
-1.27295267e-19
2.21439569e-20
-1.292304214e-19
2.184883546e-20
-1.313161625e-19
2.137396625e-20
-1.335672013e-19
2.070989548e-20
-1.360019486e-19
1.984852369e-20
-1.386424888e-19
1.878366616e-20
-1.415158826e-19
1.751073947e-20
-1.446543923e-19
1.602724504e-20
-1.480968338e-19
1.433236837e-20
-1.518885346e-19
1.242744277e-20
-1.560822565e-19
1.031559953e-20
-1.607378943e-19
8.002268996e-21
-1.65923578e-19
5.494699835e-21
-1.717158666e-19
2.80207303e-21
-1.782011039e-19
-6.555563015e-23
-1.854750638e-19
-3.097710558e-21
-1.936429214e-19
-6.284942196e-21
-2.028173192e-19
-9.61956757e-21
-2.1311729e-19
-1.309757713e-20
-2.246657966e-19
-1.672025364e-20
-2.375876908e-19
-2.049728117e-20
-2.520048131e-19
-2.444954232e-20
-2.68029859e-19
-2.861303191e-20
-2.857566747e-19
-3.304205577e-20
-3.052496539e-19
-3.78132361e-20
-3.265300957e-19
-4.302837041e-20
-3.495613756e-19
-4.881696111e-20
-3.742300241e-19
-5.533535408e-20
-4.003250177e-19
-6.276209085e-20
-4.275149556e-19
-7.128542753e-20
-4.553298256e-19
-8.108165618e-20
-4.831523762e-19
-9.227910719e-20
-5.102315372e-19
-1.04905335e-19
-5.357305605e-19
-1.188135466e-19
-5.588309393e-19
-1.33592542e-19
-5.789062008e-19
-1.48471896e-19
-5.957658343e-19
-1.622571781e-19
-6.099156008e-19
-1.733688562e-19
-6.226504383e-19
-1.801381819e-19
-6.354184715e-19
-1.816117969e-19
-6.47353717e-19
-1.792155864e-19
-6.485347864e-19
-1.789376042e-19
-6.064036083e-19
-1.918496322e-19
-4.552268171e-19
-2.237599109e-19
-1.952090738e-19
-2.438341396e-19
3.868366192e-19
-1.059938231e-19
2.884155393e-19
7.341155002e-19
-2.038935316e-19
-2.925848975e-19
-5.607097489e-20
-5.029199791e-20
-6.039110382e-21
4.75552844e-21
9.234658301e-21
1.328583472e-20
1.392325939e-20
1.247016246e-20
1.583826228e-20
1.060671219e-20
1.717738809e-20
8.967659222e-21
1.832903659e-20
7.449564089e-21
1.929278519e-20
5.905813349e-21
2.007679364e-20
4.294973494e-21
2.069812248e-20
2.602088532e-21
2.113923229e-20
8.049198017e-22
2.134358828e-20
-1.114590954e-21
2.123593552e-20
-3.151907455e-21
2.074817351e-20
-5.270915225e-21
1.984007331e-20
-7.40673839e-21
1.850997635e-20
-9.476988899e-21
1.679318245e-20
-1.13970035e-20
1.475238562e-20
-1.309318331e-20
1.246394409e-20
-1.451184278e-20
1.000472597e-20
-1.562209334e-20
7.441282642e-21
-1.641393462e-20
4.823987332e-21
-1.689236208e-20
2.185588153e-21
-1.707001621e-20
-4.554970052e-22
-1.695965987e-20
-3.089235614e-21
-1.65685918e-20
-5.705851425e-21
-1.589538736e-20
-8.288037469e-21
-1.493003661e-20
-1.080447885e-20
-1.365694552e-20
-1.320714831e-20
-1.206084412e-20
-1.543275159e-20
-1.013404387e-20
-1.740946163e-20
-7.883949923e-21
-1.90677262e-20
-5.33845751e-21
-2.035406291e-20
-2.547745291e-21
-2.124460884e-20
4.192683471e-22
-2.175521929e-20
3.483911791e-21
-2.194298381e-20
6.571524934e-21
-2.189617434e-20
9.626501112e-21
-2.171390709e-20
1.262357574e-20
-2.148196907e-20
1.557014159e-20
-2.125469792e-20
1.849689435e-20
-2.106274206e-20
2.143834924e-20
-2.096020448e-20
2.44198461e-20
-2.102968302e-20
2.748806141e-20
-2.099388192e-20
3.078401497e-20
-1.881045974e-20
3.438606624e-20
-6.885971604e-21
3.696992799e-20
3.870401006e-20
3.016491151e-20
1.81132233e-19
-2.325608935e-20
-3.140248316e-19
-2.64131921e-19
-8.109937764e-19
7.615496983e-19
-8.56943188e-19
-9.791889792e-19
-5.065344569e-19
-3.222031559e-18
1.928558435e-20
-3.140227363e-18
4.69323207e-31
-1.095906061e-19
1.528658959e-20
-1.097213273e-19
1.542327903e-20
-1.099383183e-19
1.571529501e-20
-1.102465164e-19
1.614395745e-20
-1.106438904e-19
1.668734725e-20
-1.111345173e-19
1.732285495e-20
-1.117224613e-19
1.802762488e-20
-1.124115542e-19
1.877860062e-20
-1.132051728e-19
1.955288295e-20
-1.1410637e-19
2.032779374e-20
-1.15117741e-19
2.108116021e-20
-1.162417071e-19
2.179132381e-20
-1.174804954e-19
2.243737899e-20
-1.188364939e-19
2.299914899e-20
-1.203122718e-19
2.345742177e-20
-1.219109919e-19
2.379391675e-20
-1.236365361e-19
2.399151712e-20
-1.254940682e-19
2.403422723e-20
-1.274902905e-19
2.390738666e-20
-1.29634065e-19
2.359762791e-20
-1.319366468e-19
2.309312149e-20
-1.344122519e-19
2.238359169e-20
-1.370783262e-19
2.146062244e-20
-1.399563207e-19
2.031770389e-20
-1.43072278e-19
1.895051848e-20
-1.464578673e-19
1.735693237e-20
-1.501509583e-19
1.553724499e-20
-1.541963337e-19
1.349419653e-20
-1.586458549e-19
1.123327299e-20
-1.635590684e-19
8.762702556e-21
-1.690037832e-19
6.093557545e-21
-1.750573432e-19
3.239317936e-21
-1.818074647e-19
2.154074547e-22
-1.893528344e-19
-2.961755888e-21
-1.978025193e-19
-6.275612531e-21
-2.072751979e-19
-9.710837196e-21
-2.178979654e-19
-1.325495726e-20
-2.298054272e-19
-1.690097428e-20
-2.431376775e-19
-2.065056932e-20
-2.58036829e-19
-2.451829292e-20
-2.746407941e-19
-2.853612297e-20
-2.93075019e-19
-3.275884833e-20
-3.134417148e-19
-3.72697819e-20
-3.358069782e-19
-4.218700831e-20
-3.601841565e-19
-4.766885378e-20
-3.865129114e-19
-5.391750575e-20
-4.146328936e-19
-6.117808854e-20
-4.442539381e-19
-6.973052867e-20
-4.74925861e-19
-7.986937955e-20
-5.060149869e-19
-9.186552995e-20
-5.366983002e-19
-1.059009032e-19
-5.659953357e-19
-1.219670762e-19
-5.928669524e-19
-1.397194269e-19
-6.16420143e-19
-1.582838064e-19
-6.362645325e-19
-1.760277036e-19
-6.530599137e-19
-1.903526156e-19
-6.691796765e-19
-1.976711022e-19
-6.890641089e-19
-1.939851056e-19
-7.176681427e-19
-1.767932567e-19
-7.533535071e-19
-1.494294364e-19
-7.701515852e-19
-1.26839322e-19
-6.999010826e-19
-1.416532448e-19
-3.048636591e-19
-2.506760722e-19
-8.582237714e-20
1.337220133e-30
3.350277451e-19
3.132666312e-19
3.839936675e-20
4.045566688e-21
-1.023448843e-21
-1.086696802e-20
2.491195833e-21
1.243049098e-21
8.418986102e-21
7.360253803e-21
1.205980926e-20
8.831678807e-21
1.419920934e-20
8.469862064e-21
1.565929307e-20
7.510311268e-21
1.6785286e-20
6.32648493e-21
1.768194541e-20
5.012221456e-21
1.83839088e-20
3.596302907e-21
1.890095388e-20
2.088568371e-21
1.921972166e-20
4.899093884e-22
1.930627192e-20
-1.197294701e-21
1.911692784e-20
-2.958727476e-21
1.86123505e-20
-4.762645938e-21
1.776982292e-20
-6.560659372e-21
1.658996179e-20
-8.293774111e-21
1.509700281e-20
-9.900912113e-21
1.333372625e-20
-1.132717194e-20
1.135369351e-20
-1.252959717e-20
9.212884848e-21
-1.347975083e-20
6.962855225e-21
-1.416300274e-20
4.646333123e-21
-1.457546457e-20
2.295944608e-21
-1.471952669e-20
-6.44289301e-23
-1.459936921e-20
-2.41603129e-21
-1.421727141e-20
-4.740500611e-21
-1.357161752e-20
-7.014946435e-21
-1.265680577e-20
-9.208377592e-21
-1.146526017e-20
-1.128034806e-20
-9.991005162e-21
-1.318265774e-20
-8.234203458e-21
-1.486396935e-20
-6.205427822e-21
-1.627701407e-20
-3.92857635e-21
-1.73870494e-20
-1.441162481e-21
-1.817996551e-20
1.208591207e-21
-1.86676063e-20
3.967983225e-21
-1.888800777e-20
6.788352853e-21
-1.889909977e-20
9.633937295e-21
-1.876734144e-20
1.248811287e-20
-1.855521645e-20
1.535451626e-20
-1.831324302e-20
1.825181023e-20
-1.808124547e-20
2.120358312e-20
-1.78919893e-20
2.422799515e-20
-1.773372939e-20
2.732735861e-20
-1.739183096e-20
3.04398501e-20
-1.622659811e-20
3.321879945e-20
-1.369098795e-20
3.44319586e-20
-1.471699074e-20
3.118754368e-20
-5.974359679e-20
2.176800036e-20
-3.61655813e-19
3.777964512e-20
5.838817006e-20
3.415056744e-19
-3.209394872e-19
1.565114904e-30
-2.722093571e-19
-2.852384848e-18
1.048200518e-19
-3.568485044e-18
7.357028622e-31
-1.076885628e-19
1.631542955e-20
-1.078350385e-19
1.646598033e-20
-1.080788796e-19
1.678627415e-20
-1.084252966e-19
1.725604034e-20
-1.088727201e-19
1.785143332e-20
-1.094253976e-19
1.854795058e-20
-1.100876264e-19
1.932070844e-20
-1.108632908e-19
2.014470334e-20
-1.117558942e-19
2.09949991e-20
-1.127684467e-19
2.184699669e-20
-1.139035863e-19
2.267653857e-20
-1.151636087e-19
2.346012788e-20
-1.165506973e-19
2.41749758e-20
-1.180670013e-19
2.479919873e-20
-1.197149149e-19
2.531184708e-20
-1.214972162e-19
2.569309146e-20
-1.234174621e-19
2.592424706e-20
-1.254802866e-19
2.598794615e-20
-1.276919185e-19
2.586815717e-20
-1.300605152e-19
2.555037682e-20
-1.325966347e-19
2.502169605e-20
-1.353135222e-19
2.427106206e-20
-1.382276458e-19
2.32894133e-20
-1.413592322e-19
2.206998219e-20
-1.447331526e-19
2.060842462e-20
-1.483796977e-19
1.890310785e-20
-1.523354036e-19
1.695525445e-20
-1.566434776e-19
1.476928046e-20
-1.613542802e-19
1.235299613e-20
-1.665258155e-19
9.717899228e-21
-1.722248299e-19
6.879131818e-21
-1.785280884e-19
3.855337052e-21
-1.855237027e-19
6.68115791e-22
-1.933116584e-19
-2.658545481e-21
-2.020037979e-19
-6.099192633e-21
-2.11723349e-19
-9.628033126e-21
-2.226048134e-19
-1.322087247e-20
-2.347937921e-19
-1.685780731e-20
-2.484462246e-19
-2.052704075e-20
-2.637257182e-19
-2.422947952e-20
-2.807987681e-19
-2.798441054e-20
-2.998276384e-19
-3.183613683e-20
-3.20961218e-19
-3.586201817e-20
-3.443228304e-19
-4.018152448e-20
-3.699936859e-19
-4.496586651e-20
-3.979898212e-19
-5.044660151e-20
-4.282314177e-19
-5.692129811e-20
-4.605040989e-19
-6.475277414e-20
-4.944137807e-19
-7.435675741e-20
-5.293388418e-19
-8.616928448e-20
-5.643891925e-19
-1.005814551e-19
-5.983912289e-19
-1.178251429e-19
-6.299312032e-19
-1.37789487e-19
-6.575099082e-19
-1.597437753e-19
-6.799023668e-19
-1.819412281e-19
-6.968803443e-19
-2.010882464e-19
-7.104960028e-19
-2.117170293e-19
-7.268546717e-19
-2.056833365e-19
-7.572552875e-19
-1.730525944e-19
-8.114719402e-19
-1.060628677e-19
-8.915559679e-19
-9.331990254e-21
-7.893140897e-19
1.30412418e-19
-6.570524792e-19
1.243116209e-19
-2.793051938e-19
-5.961946767e-20
2.580667921e-20
8.155617141e-21
2.348683202e-20
6.36691176e-21
1.108656832e-20
1.535009134e-21
8.608400549e-21
3.723019974e-21
9.890411105e-21
6.080163614e-21
1.169799257e-20
7.026228406e-21
1.323965849e-20
6.930577786e-21
1.447546673e-20
6.277123314e-21
1.547102255e-20
5.333726019e-21
1.626602683e-20
4.220170384e-21
1.687617426e-20
2.989271025e-21
1.73022949e-20
1.665760526e-21
1.753251756e-20
2.63163147e-22
1.754483914e-20
-1.206050562e-21
1.731300935e-20
-2.72336941e-21
1.681433709e-20
-4.26055662e-21
1.603670819e-20
-5.779771861e-21
1.498282372e-20
-7.236787555e-21
1.367074304e-20
-8.585944428e-21
1.213130102e-20
-9.785153822e-21
1.040353977e-20
-1.079972629e-20
8.529633014e-21
-1.160429227e-20
6.550393404e-21
-1.218279111e-20
4.502270914e-21
-1.252683867e-20
2.416102172e-21
-1.263319964e-20
3.176688704e-22
-1.250103363e-20
-1.77037748e-21
-1.212964529e-20
-3.825688776e-21
-1.151715169e-20
-5.82340084e-21
-1.066042157e-20
-7.734122635e-21
-9.556245391e-21
-9.523546291e-21
-8.20355234e-21
-1.11538821e-20
-6.606062402e-21
-1.258711789e-20
-4.774713947e-21
-1.378960017e-20
-2.729018656e-21
-1.473729571e-20
-4.967510233e-22
-1.542057346e-20
1.888427276e-21
-1.584723669e-20
4.391209252e-21
-1.604242333e-20
6.980120586e-21
-1.604492411e-20
9.632946924e-21
-1.590093811e-20
1.234062199e-20
-1.565792249e-20
1.51082029e-20
-1.536146998e-20
1.795242673e-20
-1.505683356e-20
2.089628635e-20
-1.479262584e-20
2.396124975e-20
-1.462123772e-20
2.715352797e-20
-1.461288178e-20
3.042921187e-20
-1.501343896e-20
3.361721075e-20
-1.69354027e-20
3.635169615e-20
-2.413653428e-20
3.838628237e-20
-4.373195204e-20
4.136166132e-20
-5.79297807e-20
5.197695725e-20
2.236319448e-19
5.994376479e-20
2.230934928e-19
2.602432632e-21
-3.936983445e-19
-1.145613713e-18
1.926812669e-19
-3.935567989e-18
1.304069094e-30
-1.056294939e-19
1.739761494e-20
-1.057928111e-19
1.756386072e-20
-1.060652859e-19
1.791609344e-20
-1.064525439e-19
1.843219288e-20
-1.069534274e-19
1.908628103e-20
-1.07572483e-19
1.985169481e-20
-1.083141789e-19
2.070140133e-20
-1.091825706e-19
2.160818718e-20
-1.101812245e-19
2.254496119e-20
-1.113132258e-19
2.348495087e-20
-1.125811807e-19
2.440192045e-20
-1.139873707e-19
2.527029859e-20
-1.155338378e-19
2.606534877e-20
-1.172225902e-19
2.676325776e-20
-1.190557327e-19
2.734128213e-20
-1.210357364e-19
2.77778248e-20
-1.231657e-19
2.805256266e-20
-1.254497712e-19
2.814651894e-20
-1.278935179e-19
2.804220208e-20
-1.30504366e-19
2.772371174e-20
-1.332919037e-19
2.717695064e-20
-1.362682816e-19
2.638981043e-20
-1.39448606e-19
2.535246287e-20
-1.428516236e-19
2.405759613e-20
-1.465004738e-19
2.250073133e-20
-1.504235836e-19
2.06804879e-20
-1.546553258e-19
1.859895753e-20
-1.592365649e-19
1.626206175e-20
-1.642150622e-19
1.367998579e-20
-1.696462566e-19
1.086747557e-20
-1.755944549e-19
7.84402126e-21
-1.821344528e-19
4.633770034e-21
-1.893529037e-19
1.265318926e-21
-1.973491768e-19
-2.22869005e-21
-2.062355891e-19
-5.812128493e-21
-2.16137736e-19
-9.446445944e-21
-2.271952061e-19
-1.309244658e-20
-2.395626312e-19
-1.6713104e-20
-2.534099939e-19
-2.027737602e-20
-2.689214388e-19
-2.376513177e-20
-2.862920961e-19
-2.717327412e-20
-3.057232156e-19
-3.052352082e-20
-3.274152814e-19
-3.387215187e-20
-3.515581019e-19
-3.732192681e-20
-3.783156226e-19
-4.103575211e-20
-4.078029664e-19
-4.525124178e-20
-4.400531435e-19
-5.029461521e-20
-4.749712221e-19
-5.659114863e-20
-5.122738972e-19
-6.466699148e-20
-5.514138045e-19
-7.513308532e-20
-5.914926025e-19
-8.863687082e-20
-6.311745835e-19
-1.057609631e-19
-6.686228136e-19
-1.26840567e-19
-7.014974489e-19
-1.516624323e-19
-7.27099733e-19
-1.789978054e-19
-7.428372335e-19
-2.058901519e-19
-7.472621093e-19
-2.264922183e-19
-7.423081861e-19
-2.301751842e-19
-7.351838732e-19
-1.980450791e-19
-7.316864954e-19
-1.013479228e-19
-7.506812343e-19
7.204742232e-20
-2.916140803e-19
2.493793881e-20
1.937552478e-19
6.96167546e-31
4.184462223e-20
9.229109558e-20
2.401797368e-20
2.598291072e-20
1.865492928e-20
1.173112468e-20
1.327457911e-20
6.91679003e-21
1.09655441e-20
6.033625738e-21
1.083647583e-20
6.210972364e-21
1.160234192e-20
6.262345603e-21
1.25862039e-20
5.94898512e-21
1.353206936e-20
5.333778994e-21
1.435746685e-20
4.511036839e-21
1.503512736e-20
3.545350465e-21
1.555266367e-20
2.474702302e-21
1.589969742e-20
1.321827128e-21
1.606330376e-20
1.027796563e-22
1.60275202e-20
-1.166987356e-21
1.577582202e-20
-2.468418821e-21
1.529512178e-20
-3.776710478e-21
1.457969241e-20
-5.061334579e-21
1.363366672e-20
-6.287908877e-21
1.247153362e-20
-7.42114307e-21
1.111672849e-20
-8.427952664e-21
9.598973658e-21
-9.279961182e-21
7.951134202e-21
-9.954927662e-21
6.206345808e-21
-1.043697953e-20
4.395909834e-21
-1.071583068e-20
2.548268251e-21
-1.078535486e-20
6.89057205e-22
-1.064197131e-20
-1.157883941e-21
-1.028324757e-20
-2.968958579e-21
-9.707065763e-21
-4.719224631e-21
-8.911529748e-21
-6.381429594e-21
-7.895659673e-21
-7.926056256e-21
-6.660675525e-21
-9.322533599e-21
-5.211520459e-21
-1.054142256e-20
-3.558116512e-21
-1.155733245e-20
-1.715886044e-21
-1.235211734e-20
2.948588407e-22
-1.291779138e-20
2.450774807e-21
-1.32583253e-20
4.728474364e-21
-1.338959692e-20
7.108170977e-21
-1.333724889e-20
9.577315925e-21
-1.31333572e-20
1.213340879e-20
-1.281369859e-20
1.478539662e-20
-1.241761017e-20
1.755349619e-20
-1.199187021e-20
2.046791749e-20
-1.160034756e-20
2.356716769e-20
-1.134555356e-20
2.689627246e-20
-1.142488303e-20
3.050623164e-20
-1.227895349e-20
3.446909364e-20
-1.490081616e-20
3.897137468e-20
-2.116115543e-20
4.464446022e-20
-3.311665594e-20
5.331576931e-20
-4.99629725e-20
6.88225247e-20
-8.708411271e-20
9.706619499e-20
-2.559771472e-19
1.714961427e-19
-6.893887828e-19
1.224691115e-30
2.728920899e-19
-4.359878723e-18
1.058916355e-30
-1.033990146e-19
1.853050617e-20
-1.035802267e-19
1.87145895e-20
-1.038831857e-19
1.910287726e-20
-1.043139214e-19
1.967126118e-20
-1.04871789e-19
2.03915764e-20
-1.05561628e-19
2.123481019e-20
-1.063881524e-19
2.217152111e-20
-1.073555831e-19
2.317209437e-20
-1.084676221e-19
2.420703919e-20
-1.097274139e-19
2.524724658e-20
-1.11137605e-19
2.626418383e-20
-1.12700429e-19
2.723008058e-20
-1.144178499e-19
2.811805631e-20
-1.162916915e-19
2.890226395e-20
-1.183238184e-19
2.955798157e-20
-1.205163466e-19
3.006172266e-20
-1.228719481e-19
3.039132248e-20
-1.25394201e-19
3.052605029e-20
-1.280879937e-19
3.044671495e-20
-1.3095986e-19
3.013584484e-20
-1.340183112e-19
2.957787851e-20
-1.372741386e-19
2.875943992e-20
-1.407408616e-19
2.766962003e-20
-1.444353295e-19
2.630032117e-20
-1.483785246e-19
2.464659283e-20
-1.525963457e-19
2.270704856e-20
-1.571202812e-19
2.048431495e-20
-1.619878745e-19
1.79855669e-20
-1.672432445e-19
1.522306157e-20
-1.729379423e-19
1.221461927e-20
-1.791323631e-19
8.983941071e-21
-1.858974419e-19
5.560805126e-21
-1.933161864e-19
1.981127855e-21
-2.014846645e-19
-1.713031882e-21
-2.105127069e-19
-5.473712263e-21
-2.205249131e-19
-9.247768206e-21
-2.316623936e-19
-1.297841909e-20
-2.440848911e-19
-1.660777101e-20
-2.579724032e-19
-2.008038893e-20
-2.73525546e-19
-2.334798068e-20
-2.909645923e-19
-2.637555672e-20
-3.105274097e-19
-2.914964111e-20
-3.324660044e-19
-3.168918032e-20
-3.570402497e-19
-3.405957086e-20
-3.845062979e-19
-3.63898877e-20
-4.150966577e-19
-3.889319116e-20
-4.489883375e-19
-4.188935061e-20
-4.862546625e-19
-4.58289832e-20
-5.267947876e-19
-5.131457157e-20
-5.702351171e-19
-5.911084469e-20