/*--------------------------------*- C++ -*----------------------------------*\
  =========                 |
  \\      /  F ield         | OpenFOAM: The Open Source CFD Toolbox
   \\    /   O peration     | Website:  https://openfoam.org
    \\  /    A nd           | Version:  6
     \\/     M anipulation  |
\*---------------------------------------------------------------------------*/
FoamFile
{
    version     2.0;
    format      ascii;
    class       volScalarField;
    location    "0.0025";
    object      Num_divU;
}
// * * * * * * * * * * * * * * * * * * * * * * * * * * * * * * * * * * * * * //

dimensions      [0 0 -1 0 0 0 0];

internalField   nonuniform List<scalar> 
600
(
2.087087017e-09
3.548357695e-09
5.832291629e-10
-2.284066852e-09
-5.560876775e-09
-9.105914068e-09
-1.297936525e-08
-1.727130188e-08
-2.209326622e-08
-2.764732359e-08
-3.417810105e-08
-4.20303925e-08
-5.169183537e-08
-6.402070082e-08
-8.018402804e-08
-1.008478057e-07
-1.239856683e-07
-1.42596236e-07
-1.466725265e-07
-1.359492598e-07
-1.318163018e-07
-1.44307212e-07
-1.614936059e-07
-1.854352476e-07
-2.34913482e-07
-3.321945043e-07
-4.601872033e-07
-6.186562899e-07
-7.493779689e-07
-2.863916112e-07
2.246468622e-09
3.948204e-09
1.227726004e-09
-1.438235666e-09
-4.516607784e-09
-7.884425528e-09
-1.172239264e-08
-1.620777034e-08
-2.168831665e-08
-2.852621394e-08
-3.718063558e-08
-4.794994643e-08
-6.113305338e-08
-7.706327941e-08
-9.667087348e-08
-1.213057776e-07
-1.513767995e-07
-1.818065832e-07
-1.976607155e-07
-1.876852926e-07
-1.827432348e-07
-1.964332799e-07
-2.030114281e-07
-2.041208845e-07
-2.157513958e-07
-2.752965451e-07
-3.684824827e-07
-5.045829058e-07
-7.007523252e-07
-2.649542102e-07
2.413488328e-09
4.286777736e-09
1.608125555e-09
-1.044061051e-09
-4.144749969e-09
-7.693924179e-09
-1.195711399e-08
-1.737111103e-08
-2.449591685e-08
-3.402026796e-08
-4.652511973e-08
-6.233244192e-08
-8.127154716e-08
-1.030527108e-07
-1.28141421e-07
-1.597290306e-07
-2.032469384e-07
-2.587478934e-07
-2.965575339e-07
-2.71035314e-07
-2.549226973e-07
-2.781196559e-07
-2.675340589e-07
-2.309676853e-07
-1.790619312e-07
-2.021347051e-07
-2.714119548e-07
-3.777312306e-07
-5.602179882e-07
-1.399332001e-07
2.585539983e-09
4.610262186e-09
1.856997196e-09
-8.809297445e-10
-4.184337914e-09
-8.143895145e-09
-1.324036373e-08
-2.016375952e-08
-2.985889582e-08
-4.338581475e-08
-6.172049969e-08
-8.528542427e-08
-1.13495151e-07
-1.445067251e-07
-1.768101054e-07
-2.142660666e-07
-2.724729695e-07
-3.731924707e-07
-4.649790001e-07
-3.970263106e-07
-3.526982482e-07
-4.046335311e-07
-3.646572039e-07
-2.818665228e-07
-1.252898227e-07
-1.124591696e-07
-1.56540252e-07
-1.988158082e-07
-3.407788173e-07
6.976429115e-08
2.760738103e-09
4.883223788e-09
1.968191004e-09
-9.840375782e-10
-4.653191403e-09
-9.297064943e-09
-1.561455016e-08
-2.463530901e-08
-3.771889324e-08
-5.650070764e-08
-8.26584214e-08
-1.173447098e-07
-1.599778365e-07
-2.063936182e-07
-2.488954664e-07
-2.85333698e-07
-3.419569635e-07
-5.120014187e-07
-7.402059723e-07
-5.875783467e-07
-4.959889151e-07
-5.77674505e-07
-4.771606057e-07
-3.635922374e-07
-7.768102495e-08
-2.922251667e-08
-4.382981304e-08
7.479471212e-08
-4.451765819e-08
3.583677369e-07
2.918306303e-09
5.08254732e-09
1.906679337e-09
-1.383427347e-09
-5.623231133e-09
-1.125446348e-08
-1.923600043e-08
-3.091374585e-08
-4.807242927e-08
-7.299599033e-08
-1.084936538e-07
-1.57571151e-07
-2.215382765e-07
-2.952320344e-07
-3.592871301e-07
-3.86407075e-07
-3.803048626e-07
-6.177400985e-07
-1.082249272e-06
-1.157376917e-06
-1.265228279e-06
-5.052852991e-07
-4.238193418e-07
-2.221371666e-07
-6.948123196e-07
-2.307517373e-07
7.414631269e-08
5.479425495e-07
3.779647929e-07
7.200755833e-07
3.042949503e-09
5.168693213e-09
1.638286733e-09
-2.14117137e-09
-7.195350928e-09
-1.420327933e-08
-2.438853561e-08
-3.936853962e-08
-6.119947436e-08
-9.259269702e-08
-1.374920172e-07
-2.018245333e-07
-2.929259204e-07
-4.126459536e-07
-5.336628347e-07
-5.814282832e-07
-3.904928858e-07
-7.181084789e-07
-6.040008645e-07
-1.955191732e-06
-2.314831984e-06
-4.903862528e-07
-1.162966181e-07
-1.376080484e-07
-1.497834653e-06
-5.26340572e-07
4.499870989e-07
1.593252918e-06
1.14597223e-06
1.164069309e-06
3.112744791e-09
5.102842588e-09
1.123142847e-09
-3.30376427e-09
-9.462366998e-09
-1.833642201e-08
-3.147061129e-08
-5.072079027e-08
-7.816496153e-08
-1.162321633e-07
-1.686100196e-07
-2.429146243e-07
-3.553710492e-07
-5.321306317e-07
-7.670440475e-07
-9.619830543e-07
-8.54904185e-07
-3.019310248e-07
4.318397718e-07
-2.151857051e-06
-1.920144009e-06
6.639839548e-08
4.630702974e-07
3.015564464e-07
-1.23776362e-06
-2.756061349e-06
1.041589236e-06
3.80431825e-06
3.588095636e-06
1.857355406e-06
3.101326065e-09
4.834731417e-09
3.325863736e-10
-4.874506889e-09
-1.240757743e-08
-2.368466831e-08
-4.073175484e-08
-6.582828227e-08
-1.010892522e-07
-1.479005989e-07
-2.067244625e-07
-2.797936803e-07
-3.831492519e-07
-5.824716931e-07
-9.568252971e-07
-1.559455577e-06
-2.184652542e-06
5.598509321e-07
2.744918677e-06
2.691152292e-12
1.380567007e-11
2.042777192e-11
2.661568241e-11
2.727189296e-11
-2.524148336e-12
-9.507720865e-12
3.622761672e-06
1.235492753e-06
4.361152014e-06
3.716934317e-06
2.959716481e-09
4.282847604e-09
-7.674741162e-10
-6.778761762e-09
-1.580713982e-08
-2.985446466e-08
-5.17203563e-08
-8.46587658e-08
-1.317898684e-07
-1.944990581e-07
-2.688735201e-07
-3.39875827e-07
-3.786017998e-07
-3.984050106e-07
-8.378416365e-07
-2.126446985e-06
-4.042331358e-06
-1.847707317e-11
-1.009046253e-11
3.192027655e-13
7.488783103e-12
1.185542056e-11
1.869836769e-11
1.138477084e-11
-8.84652718e-13
-3.533243946e-11
-2.816222994e-11
1.06021605e-11
6.116653437e-06
-6.78898655e-13
2.572371223e-09
3.253841001e-09
-2.28575687e-09
-8.923846682e-09
-1.92249821e-08
-3.586878862e-08
-6.262078058e-08
-1.043748368e-07
-1.671882462e-07
-2.576985258e-07
-3.796521658e-07
-5.22442672e-07
-6.279484115e-07
-6.934975795e-07
-3.153323503e-07
5.408486442e-07
-6.54261175e-12
-9.245001758e-12
-6.938320903e-12
-5.068515713e-13
3.751789036e-12
6.003019776e-12
1.021371355e-11
1.161773982e-11
-8.902463854e-12
-1.973274985e-11
6.43153037e-14
-1.393247649e-11
-1.643219555e-11
-2.7430289e-11
1.618774805e-09
1.284051741e-09
-4.551705781e-09
-1.134215717e-08
-2.225077276e-08
-4.050622849e-08
-7.053971223e-08
-1.183849734e-07
-1.92772543e-07
-3.075047646e-07
-4.857018838e-07
-7.624664594e-07
-1.104759031e-06
-5.829664362e-07
6.255260761e-07
2.651329839e-06
-3.884455943e-12
-7.986457766e-12
-5.469901474e-12
-9.963835215e-13
1.320787646e-12
1.007890229e-12
1.870124337e-12
2.881648664e-12
-2.859045144e-12
-1.3539072e-11
-6.813016049e-12
-1.014306187e-11
-2.261146561e-11
-1.109974086e-11
-8.615773048e-10
-2.723486499e-09
-8.324193189e-09
-1.439974737e-08
-2.490772095e-08
-4.337712823e-08
-7.413596118e-08
-1.22504145e-07
-1.948435264e-07
-2.98689756e-07
-4.432739236e-07
-6.47253294e-07
-1.191584619e-06
-1.933780942e-06
-2.132378794e-06
-2.982549746e-12
-7.802018245e-12
-9.681233933e-12
-7.539156065e-12
-4.091432027e-12
-2.910127907e-12
-3.703023344e-12
-3.232892431e-12
-9.949442242e-13
-2.443972804e-12
-5.245260215e-12
-5.166150208e-12
-1.101197617e-11
-1.20597945e-11
-1.770198869e-11
-8.153745997e-09
-1.131011974e-08
-1.495352451e-08
-1.873382811e-08
-2.769258637e-08
-4.541319421e-08
-7.602736589e-08
-1.244758985e-07
-1.962083272e-07
-2.959820376e-07
-4.256775481e-07
-6.009497644e-07
-1.373069438e-06
-2.346535639e-06
-1.924106633e-06
-7.910346114e-12
-1.275769736e-11
-1.441652597e-11
-1.282208447e-11
-1.036225709e-11
-9.228204046e-12
-9.036683265e-12
-6.518021498e-12
-8.610042372e-13
3.026588576e-12
2.713681243e-12
2.086023679e-12
-2.453030414e-12
-9.119923019e-12
-8.958703609e-12
-3.048615324e-08
-2.975239656e-08
-2.605797012e-08
-2.46559851e-08
-3.064754197e-08
-4.678161564e-08
-7.677235544e-08
-1.262215229e-07
-2.035808672e-07
-3.217381773e-07
-4.988079447e-07
-7.406504314e-07
-7.096121052e-07
-7.582025142e-07
3.933879362e-08
-1.170188206e-11
-1.814667807e-11
-2.061369172e-11
-1.861147469e-11
-1.606793319e-11
-1.489325126e-11
-1.217809075e-11
-5.06790096e-12
3.794048904e-12
1.02971878e-11
1.328355427e-11
9.330634629e-12
4.03203342e-12
-3.823844371e-13
-1.261799221e-11
-1.317862873e-07
-7.610248017e-08
-4.25891433e-08
-3.11346812e-08
-3.281111099e-08
-4.624448616e-08
-7.317930149e-08
-1.178218994e-07
-1.871590273e-07
-2.92227429e-07
-4.488887445e-07
-6.604590454e-07
-5.951446365e-07
-5.849207344e-07
1.648983163e-07
-1.355392913e-11
-1.928726367e-11
-1.997008902e-11
-2.281882727e-11
-2.23539493e-11
-1.888100492e-11
-1.227484948e-11
-4.44528546e-13
1.110790754e-11
1.699328737e-11
1.367454031e-11
1.640892592e-11
1.131107964e-11
7.847398079e-13
-2.622121501e-13
-1.48318833e-07
-8.391100945e-08
-4.504188908e-08
-3.18277981e-08
-3.225376429e-08
-4.354857185e-08
-6.59348421e-08
-1.008592779e-07
-1.496875046e-07
-2.11829851e-07
-2.821603075e-07
-3.682521785e-07
-1.035478973e-06
-1.801411817e-06
-1.462541259e-06
-1.019590102e-11
-1.392447261e-11
-2.5287365e-11
-2.387432011e-11
-2.305341479e-11
-2.028398754e-11
-9.059081894e-12
4.977785076e-12
1.525045296e-11
1.675080122e-11
2.682699004e-11
1.501765671e-11
1.434938762e-11
1.944265581e-11
-1.015667264e-11
-5.089288002e-08
-4.096859268e-08
-2.967883063e-08
-2.566080586e-08
-2.913364967e-08
-4.025969007e-08
-5.964644052e-08
-8.80426984e-08
-1.257513019e-07
-1.722020833e-07
-2.265791556e-07
-2.947946318e-07
-6.292691615e-07
-9.671364995e-07
-2.300928021e-06
-4.695752179e-12
-1.103627663e-11
-8.072760575e-12
-3.564002336e-11
-3.455076545e-11
-2.179663984e-11
-3.519401715e-12
1.329854191e-11
1.87060834e-11
1.949109928e-11
-3.530322748e-12
4.30767018e-11
3.670015073e-11
-3.17981065e-11
1.947114607e-11
-1.973236473e-09
-1.156601164e-08
-1.457984253e-08
-1.839344757e-08
-2.544338447e-08
-3.730096171e-08
-5.493500481e-08
-7.917084961e-08
-1.10805907e-07
-1.523943439e-07
-2.119681837e-07
-3.072856029e-07
-4.064173973e-07
2.22351393e-07
1.103507059e-06
3.576062445e-06
5.383111979e-12
-6.369491209e-11
-6.225078258e-11
-4.901457782e-11
-2.387591932e-11
-1.182233228e-13
1.330224376e-11
7.281010063e-12
-1.376156047e-11
9.258140143e-11
8.467160265e-11
-5.297292671e-12
4.134882186e-11
-4.341859004e-11
3.020862345e-08
9.36067795e-09
-2.586661146e-09
-1.207437763e-08
-2.209560195e-08
-3.444798043e-08
-4.989184212e-08
-6.762508257e-08
-8.455936681e-08
-9.298119062e-08
-7.523425549e-08
1.103897778e-08
2.724578764e-07
8.399492939e-07
2.497127353e-06
1.872374518e-06
-3.953467009e-11
-4.854855367e-11
-7.138070021e-11
-6.150942311e-11
-1.445840227e-11
1.562639855e-11
2.058736656e-11
4.508269189e-12
7.108886814e-11
1.019989643e-10
1.075936983e-10
5.03187665e-11
-2.428171202e-11
9.72044786e-11
)
;

boundaryField
{
    lowerWall
    {
        type            calculated;
        value           nonuniform 0();
    }
    atmosphere
    {
        type            calculated;
        value           nonuniform List<scalar> 
20
(
2.087087017e-09
2.246468622e-09
2.413488328e-09
2.585539983e-09
2.760738103e-09
2.918306303e-09
3.042949503e-09
3.112744791e-09
3.101326065e-09
2.959716481e-09
2.572371223e-09
1.618774805e-09
-8.615773048e-10
-8.153745997e-09
-3.048615324e-08
-1.317862873e-07
-1.48318833e-07
-5.089288002e-08
-1.973236473e-09
3.020862345e-08
)
;
    }
    rightWall
    {
        type            empty;
    }
    leftWall
    {
        type            empty;
    }
    frontAndBack
    {
        type            calculated;
        value           nonuniform List<scalar> 
30
(
2.087087017e-09
3.548357695e-09
5.832291629e-10
-2.284066852e-09
-5.560876775e-09
-9.105914068e-09
-1.297936525e-08
-1.727130188e-08
-2.209326622e-08
-2.764732359e-08
-3.417810105e-08
-4.20303925e-08
-5.169183537e-08
-6.402070082e-08
-8.018402804e-08
-1.008478057e-07
-1.239856683e-07
-1.42596236e-07
-1.466725265e-07
-1.359492598e-07
-1.318163018e-07
-1.44307212e-07
-1.614936059e-07
-1.854352476e-07
-2.34913482e-07
-3.321945043e-07
-4.601872033e-07
-6.186562899e-07
-7.493779689e-07
-2.863916112e-07
)
;
    }
    procBoundary0to1
    {
        type            processor;
        value           nonuniform List<scalar> 
20
(
1.645868025e-11
1.698943098e-11
1.721838543e-11
1.730500087e-11
1.754237386e-11
2.340911737e-11
2.500726449e-11
-3.947732688e-13
1.277488762e-11
-4.774429139e-11
-1.173370754e-11
-2.289970961e-11
-1.658344469e-11
-2.168220534e-11
-1.440062372e-11
-1.972500737e-11
-4.19652449e-12
-2.818476933e-11
3.681636364e-11
-4.202293239e-11
)
;
    }
    procBoundary0to2
    {
        type            processor;
        value           nonuniform List<scalar> 
30
(
5.078277933e-08
2.301937404e-08
5.731927275e-09
-7.512951387e-09
-1.953166371e-08
-3.217514112e-08
-4.554129072e-08
-5.737952752e-08
-6.120577579e-08
-4.318208441e-08
2.400725593e-08
1.909383584e-07
5.430627011e-07
1.157262968e-06
1.671159809e-06
1.816205535e-06
-1.524238483e-06
-7.674564424e-11
-8.107608531e-11
-4.466798752e-11
3.604978552e-12
3.601422359e-11
3.200379521e-11
6.925535963e-12
2.853248469e-11
1.498170835e-10
8.992091795e-11
2.491469952e-11
1.547484771e-06
-4.155813155e-11
)
;
    }
}


// ************************************************************************* //
