/*--------------------------------*- C++ -*----------------------------------*\
  =========                 |
  \\      /  F ield         | OpenFOAM: The Open Source CFD Toolbox
   \\    /   O peration     | Website:  https://openfoam.org
    \\  /    A nd           | Version:  6
     \\/     M anipulation  |
\*---------------------------------------------------------------------------*/
FoamFile
{
    version     2.0;
    format      ascii;
    class       volScalarField;
    location    "0.0025";
    object      Num_divU;
}
// * * * * * * * * * * * * * * * * * * * * * * * * * * * * * * * * * * * * * //

dimensions      [0 0 -1 0 0 0 0];

internalField   nonuniform List<scalar> 
9600
(
3.115167392e-08
6.561656082e-08
6.315275856e-08
6.306004322e-08
6.096001762e-08
5.89323246e-08
5.695043167e-08
5.502267897e-08
5.313404556e-08
5.131067692e-08
4.954800167e-08
4.787705925e-08
4.629310317e-08
4.482377975e-08
4.345725637e-08
4.221324275e-08
4.107133314e-08
4.004627787e-08
3.911431996e-08
3.828973205e-08
3.754762182e-08
3.689984671e-08
3.631618816e-08
3.580407356e-08
3.533079356e-08
3.490800744e-08
3.451085802e-08
3.416128936e-08
3.384041984e-08
3.357088836e-08
3.332803136e-08
3.312898163e-08
3.294624618e-08
3.280213148e-08
3.267779044e-08
3.260490658e-08
3.256726817e-08
3.259264954e-08
3.26534676e-08
3.276664075e-08
3.289632391e-08
3.305972717e-08
3.322645309e-08
3.342485384e-08
3.363445526e-08
3.389210995e-08
3.417838057e-08
3.452551755e-08
3.490022853e-08
3.531732528e-08
3.572281821e-08
3.611682321e-08
3.64371244e-08
3.668714483e-08
3.681096207e-08
3.681767458e-08
3.664362902e-08
3.627887309e-08
3.56301829e-08
3.46650097e-08
3.328145279e-08
3.146241858e-08
2.913317877e-08
2.630671619e-08
2.292213583e-08
1.899264598e-08
1.444777924e-08
9.304273036e-09
3.515428117e-09
-2.851572636e-09
-9.786290595e-09
-1.717262901e-08
-2.498137826e-08
-3.310510241e-08
-4.154480576e-08
-5.022184088e-08
-5.915617954e-08
-6.827212046e-08
-7.759264882e-08
-8.706036988e-08
-9.675203705e-08
-1.067042045e-07
-1.171255696e-07
-1.282053574e-07
-1.403086746e-07
-1.537687699e-07
-1.690778366e-07
-1.866862818e-07
-2.07208844e-07
-2.312422805e-07
-2.595798624e-07
-2.930300012e-07
-3.326160016e-07
-3.793848739e-07
-4.345937195e-07
-4.995215357e-07
-5.756533073e-07
-6.644977288e-07
-7.677607428e-07
-8.871626505e-07
-1.02460202e-06
-1.18199276e-06
-1.361429356e-06
-1.565029442e-06
-1.795041015e-06
-2.053619634e-06
-2.342860974e-06
-2.664591467e-06
-3.020475719e-06
-3.411908337e-06
-3.840124424e-06
-4.306070782e-06
-4.810416605e-06
-5.353402104e-06
-5.934479657e-06
-6.551940389e-06
-7.205878612e-06
-7.928112204e-06
-9.066219271e-06
-4.905231924e-06
3.058243196e-08
6.451317979e-08
6.317662284e-08
6.293443391e-08
6.093538892e-08
5.891989426e-08
5.69772487e-08
5.504523485e-08
5.319106359e-08
5.136174062e-08
4.963442062e-08
4.795837568e-08
4.64120234e-08
4.493906356e-08
4.361284781e-08
4.236683944e-08
4.126884577e-08
4.024483491e-08
3.936148394e-08
3.854189706e-08
3.785324977e-08
3.721348976e-08
3.668697388e-08
3.618516355e-08
3.577371757e-08
3.536547861e-08
3.503637075e-08
3.470556209e-08
3.445601563e-08
3.420412688e-08
3.403047682e-08
3.384375785e-08
3.372624543e-08
3.35886805e-08
3.352377536e-08
3.344605918e-08
3.345199131e-08
3.344721247e-08
3.352115776e-08
3.356679688e-08
3.367151802e-08
3.372607711e-08
3.382748228e-08
3.387196484e-08
3.396835514e-08
3.401477097e-08
3.412424861e-08
3.418622587e-08
3.430707614e-08
3.435800215e-08
3.443440491e-08
3.4392192e-08
3.432712483e-08
3.409464916e-08
3.380248167e-08
3.330556076e-08
3.270972472e-08
3.184701062e-08
3.080374461e-08
2.938857005e-08
2.768952084e-08
2.552599424e-08
2.30165539e-08
1.999890832e-08
1.660442314e-08
1.265937406e-08
8.287468307e-09
3.310156582e-09
-2.123554468e-09
-8.153525579e-09
-1.457866377e-08
-2.150525076e-08
-2.871809117e-08
-3.633943111e-08
-4.417805652e-08
-5.238069526e-08
-6.076369583e-08
-6.947195636e-08
-7.832037954e-08
-8.747231658e-08
-9.679494586e-08
-1.065399274e-07
-1.166959389e-07
-1.276505157e-07
-1.395349002e-07
-1.528669953e-07
-1.679055508e-07
-1.852878593e-07
-2.054128384e-07
-2.290743187e-07
-2.568701792e-07
-2.898102918e-07
-3.287378739e-07
-3.749003566e-07
-4.293899901e-07
-4.936848777e-07
-5.69121579e-07
-6.574015325e-07
-7.600919821e-07
-8.790868784e-07
-1.016148053e-06
-1.173337762e-06
-1.352618115e-06
-1.556235209e-06
-1.786315137e-06
-2.045123899e-06
-2.334640519e-06
-2.656780821e-06
-3.013110829e-06
-3.405112615e-06
-3.833961351e-06
-4.300689814e-06
-4.80599965e-06
-5.350246396e-06
-5.93319838e-06
-6.553479898e-06
-7.213305846e-06
-7.944558547e-06
-9.139593155e-06
-4.962588443e-06
3.046208032e-08
6.425524393e-08
6.291678095e-08
6.27954159e-08
6.083606649e-08
5.888259188e-08
5.694156978e-08
5.505125248e-08
5.318762408e-08
5.139586748e-08
4.965658385e-08
4.80182881e-08
4.645945923e-08
4.50250929e-08
4.368586238e-08
4.247985856e-08
4.136946632e-08
4.038850603e-08
3.949550297e-08
3.872303003e-08
3.802642965e-08
3.743577765e-08
3.6900861e-08
3.644997384e-08
3.603175771e-08
3.567966854e-08
3.534805333e-08
3.50778196e-08
3.482504325e-08
3.463034537e-08
3.444496441e-08
3.430812419e-08
3.41706797e-08
3.40774311e-08
3.398338033e-08
3.393750451e-08
3.389086621e-08
3.388720967e-08
3.386787302e-08
3.38723236e-08
3.383901667e-08
3.381246082e-08
3.373531011e-08
3.36599012e-08
3.353127715e-08
3.340510889e-08
3.322351471e-08
3.30400029e-08
3.27881345e-08
3.251501996e-08
3.214378134e-08
3.17178438e-08
3.11571353e-08
3.051097403e-08
2.970189239e-08
2.878243933e-08
2.766536743e-08
2.638999727e-08
2.484892324e-08
2.307292984e-08
2.095484463e-08
1.854366378e-08
1.575057271e-08
1.264098202e-08
9.123824792e-09
5.254841674e-09
9.279485268e-10
-3.799241104e-09
-9.015321283e-09
-1.462568908e-08
-2.068370306e-08
-2.706939405e-08
-3.383459284e-08
-4.087185665e-08
-4.825221046e-08
-5.587702879e-08
-6.381536001e-08
-7.195999627e-08
-8.038155705e-08
-8.899792585e-08
-9.793630638e-08
-1.072021059e-07
-1.170305616e-07
-1.275479603e-07
-1.391114387e-07
-1.519716571e-07
-1.666100175e-07
-1.834147552e-07
-2.030190463e-07
-2.259925401e-07
-2.531708555e-07
-2.853535645e-07
-3.236131529e-07
-3.68998141e-07
-4.2282372e-07
-4.863884296e-07
-5.61247925e-07
-6.489431275e-07
-7.512455427e-07
-8.698969583e-07
-1.006837273e-06
-1.163982261e-06
-1.343448236e-06
-1.547348207e-06
-1.777944626e-06
-2.037383812e-06
-2.327757147e-06
-2.650872322e-06
-3.008391665e-06
-3.401728638e-06
-3.832164492e-06
-4.300732692e-06
-4.808276942e-06
-5.35532563e-06
-5.941943278e-06
-6.567535267e-06
-7.235019507e-06
-7.9786582e-06
-9.195609729e-06
-4.99850713e-06
3.037466894e-08
6.404440762e-08
6.27370284e-08
6.264244671e-08
6.073819434e-08
5.880429205e-08
5.690122086e-08
5.50158548e-08
5.318168887e-08
5.138949472e-08
4.967751685e-08
4.803687989e-08
4.650482128e-08
4.506692995e-08
4.375399651e-08
4.254373699e-08
4.146085546e-08
4.04773062e-08
3.961497814e-08
3.884217218e-08
3.817794773e-08
3.758616682e-08
3.708336982e-08
3.663090952e-08
3.624750675e-08
3.589801769e-08
3.560662128e-08
3.534061556e-08
3.512594807e-08
3.492746915e-08
3.477014527e-08
3.461815661e-08
3.449971639e-08
3.43817249e-08
3.42952376e-08
3.420411697e-08
3.413507904e-08
3.404390801e-08
3.395341991e-08
3.381752423e-08
3.366331086e-08
3.344884988e-08
3.320686571e-08
3.289593959e-08
3.254915222e-08
3.212132932e-08
3.164435328e-08
3.107018072e-08
3.043104109e-08
2.967654478e-08
2.883920536e-08
2.786660024e-08
2.679348407e-08
2.556767572e-08
2.422667144e-08
2.271442876e-08
2.10629083e-08
1.920403139e-08
1.71625609e-08
1.486701302e-08
1.235145288e-08
9.556616162e-09
6.530474139e-09
3.215242856e-09
-3.483203944e-10
-4.234991671e-09
-8.414334465e-09
-1.296133857e-08
-1.782744252e-08
-2.306336442e-08
-2.859684785e-08
-3.446988991e-08
-4.061382071e-08
-4.70825026e-08
-5.381272014e-08
-6.085344919e-08
-6.812709491e-08
-7.567241402e-08
-8.341901836e-08
-9.144024643e-08
-9.972767385e-08
-1.084360249e-07
-1.176505561e-07
-1.276244988e-07
-1.385499926e-07
-1.507966452e-07
-1.646919102e-07
-1.807581802e-07
-1.995001052e-07
-2.216339933e-07
-2.478800079e-07
-2.791800017e-07
-3.164951845e-07
-3.610121036e-07
-4.139482282e-07
-4.767452426e-07
-5.508792947e-07
-6.380319849e-07
-7.399012244e-07
-8.583514622e-07
-9.952451943e-07
-1.152600331e-06
-1.332458743e-06
-1.537022944e-06
-1.768488446e-06
-2.029076891e-06
-2.320815542e-06
-2.645571208e-06
-3.004958797e-06
-3.400461288e-06
-3.833360146e-06
-4.304788546e-06
-4.815678235e-06
-5.366727283e-06
-5.95834511e-06
-6.590091664e-06
-7.266027745e-06
-8.019077993e-06
-9.252091852e-06
-5.03018252e-06
3.031424205e-08
6.391184014e-08
6.258396879e-08
6.251124938e-08
6.062317543e-08
5.872109055e-08
5.682990055e-08
5.496982289e-08
5.31418336e-08
5.137136205e-08
4.966273617e-08
4.804236617e-08
4.651165899e-08
4.509246834e-08
4.377911811e-08
4.258681305e-08
4.15036065e-08
4.053999722e-08
3.967922882e-08
3.892813997e-08
3.826542524e-08
3.769428736e-08
3.719091806e-08
3.675925982e-08
3.637751733e-08
3.605340142e-08
3.576709025e-08
3.552709616e-08
3.531202415e-08
3.5129684e-08
3.495892493e-08
3.481079785e-08
3.466714957e-08
3.454090895e-08
3.441108942e-08
3.428460013e-08
3.413212712e-08
3.3955441e-08
3.372397833e-08
3.344457711e-08
3.309301547e-08
3.268254215e-08
3.218981121e-08
3.162536637e-08
3.095910151e-08
3.019670374e-08
2.930555066e-08
2.829449453e-08
2.713609538e-08
2.584652531e-08
2.440313222e-08
2.282607839e-08
2.109306811e-08
1.922437251e-08
1.71947718e-08
1.502173171e-08
1.26752126e-08
1.017111149e-08
7.480423125e-09
4.626935404e-09
1.591141806e-09
-1.593918638e-09
-4.947450612e-09
-8.444634111e-09
-1.212200371e-08
-1.597096158e-08
-2.003823031e-08
-2.431210658e-08
-2.882828481e-08
-3.356126986e-08
-3.854143079e-08
-4.374714905e-08
-4.921910531e-08
-5.494053637e-08
-6.094482927e-08
-6.719483202e-08
-7.370184475e-08
-8.04196845e-08
-8.737554464e-08
-9.456581313e-08
-1.020793975e-07
-1.099830513e-07
-1.184380225e-07
-1.275896731e-07
-1.376924852e-07
-1.490120698e-07
-1.619522236e-07
-1.769566156e-07
-1.94624812e-07
-2.156096718e-07
-2.407262647e-07
-2.7085442e-07
-3.070466691e-07
-3.504378506e-07
-4.023466969e-07
-4.641830569e-07
-5.375317891e-07
-6.240504302e-07
-7.25533733e-07
-8.438137618e-07
-9.808299024e-07
-1.138561739e-06
-1.319115182e-06
-1.524656471e-06
-1.757435184e-06
-2.019636011e-06
-2.313325518e-06
-2.64033579e-06
-3.00232021e-06
-3.400755755e-06
-3.836988907e-06
-4.312198931e-06
-4.827416954e-06
-5.383484557e-06
-5.980887016e-06
-6.619637996e-06
-7.303125046e-06
-8.066248196e-06
-9.310052612e-06
-5.062557939e-06
3.026474122e-08
6.379029996e-08
6.24543496e-08
6.23802308e-08
6.05092483e-08
5.8618984e-08
5.674725342e-08
5.489754582e-08
5.308653095e-08
5.132380546e-08
4.963019216e-08
4.801551713e-08
4.649787923e-08
4.508188548e-08
4.377965238e-08
4.258922891e-08
4.15172207e-08
4.055643208e-08
3.970846856e-08
3.896060261e-08
3.830965161e-08
3.773954825e-08
3.724639091e-08
3.681570261e-08
3.644686568e-08
3.612705686e-08
3.585568781e-08
3.56175402e-08
3.540996581e-08
3.521753183e-08
3.504077424e-08
3.486863957e-08
3.470493237e-08
3.453700574e-08
3.436186528e-08
3.415682496e-08
3.391046931e-08
3.359684544e-08
3.320878072e-08
3.272882923e-08
3.215917825e-08
3.148634022e-08
3.070989826e-08
2.980751971e-08
2.876924428e-08
2.756640496e-08
2.619028674e-08
2.462012075e-08
2.286019711e-08
2.09025408e-08
1.876176246e-08
1.643484348e-08
1.39374963e-08
1.126430365e-08
8.428459628e-09
5.423033424e-09
2.264236149e-09
-1.047405711e-09
-4.483012417e-09
-8.028923683e-09
-1.164659935e-08
-1.532266448e-08
-1.902943082e-08
-2.277377934e-08
-2.654974934e-08
-3.038159102e-08
-3.427043979e-08
-3.824002005e-08
-4.228802641e-08
-4.64408825e-08
-5.070755616e-08
-5.513209154e-08
-5.973625508e-08
-6.456218503e-08
-6.961099739e-08
-7.48935645e-08
-8.038500204e-08
-8.609156641e-08
-9.201137328e-08
-9.819509664e-08
-1.046938146e-07
-1.116085464e-07
-1.190398046e-07
-1.271489804e-07
-1.361266825e-07
-1.462656037e-07
-1.579287923e-07
-1.71609493e-07
-1.878840097e-07
-2.07459657e-07
-2.311291255e-07
-2.598246917e-07
-2.945846804e-07
-3.366099942e-07
-3.872280879e-07
-4.47932193e-07
-5.203278365e-07
-6.061515349e-07
-7.072084944e-07
-8.253899778e-07
-9.626322208e-07
-1.120959438e-06
-1.302469298e-06
-1.509363172e-06
-1.74387639e-06
-2.008215156e-06
-2.304424881e-06
-2.634351749e-06
-2.999639319e-06
-3.401796406e-06
-3.842194455e-06
-4.322070997e-06
-4.842526553e-06
-5.404449513e-06
-6.008517829e-06
-6.65444527e-06
-7.346507616e-06
-8.11710239e-06
-9.373743405e-06
-5.097678913e-06
3.021140387e-08
6.367108246e-08
6.232437556e-08
6.225027368e-08
6.03849987e-08
5.850738738e-08
5.664566149e-08
5.480952368e-08
5.300771251e-08
5.125738065e-08
4.957121871e-08
4.796692493e-08
4.645428839e-08
4.504620871e-08
4.374642994e-08
4.256246929e-08
4.149269499e-08
4.053893195e-08
3.969353885e-08
3.895206139e-08
3.830185091e-08
3.773576956e-08
3.724182494e-08
3.681581399e-08
3.644822236e-08
3.613518881e-08
3.586441507e-08
3.56281137e-08
3.541149852e-08
3.520824926e-08
3.500803149e-08
3.480986258e-08
3.460459987e-08
3.438618089e-08
3.413474694e-08
3.383270138e-08
3.345257647e-08
3.297734194e-08
3.238768949e-08
3.16780667e-08
3.083719052e-08
2.986020962e-08
2.872774048e-08
2.742259205e-08
2.591435822e-08
2.418233524e-08
2.220215374e-08
1.996755759e-08
1.747224135e-08
1.472708478e-08
1.173782091e-08
8.521701475e-09
5.085758749e-09
1.446755206e-09
-2.387665406e-09
-6.395091121e-09
-1.055576817e-08
-1.482846802e-08
-1.917269171e-08
-2.353062834e-08
-2.785693147e-08
-3.210340292e-08
-3.62474242e-08
-4.026879135e-08
-4.417045328e-08
-4.794865044e-08
-5.161457955e-08
-5.51692768e-08
-5.863429406e-08
-6.203127504e-08
-6.541177363e-08
-6.88263707e-08
-7.234127068e-08
-7.599798596e-08
-7.983220049e-08
-8.384805894e-08
-8.805606379e-08
-9.246062955e-08
-9.709685764e-08
-1.020053522e-07
-1.072536205e-07
-1.129060396e-07
-1.190554211e-07
-1.258159654e-07
-1.333767285e-07
-1.420035237e-07
-1.520824157e-07
-1.64099573e-07
-1.786633298e-07
-1.964756556e-07
-2.183602785e-07
-2.452517173e-07
-2.782364147e-07
-3.185452903e-07
-3.675804588e-07
-4.268852289e-07
-4.981437775e-07
-5.831342896e-07
-6.837213276e-07
-8.01819449e-07
-9.39406592e-07
-1.098519023e-06
-1.281283783e-06
-1.489902547e-06
-1.726623117e-06
-1.993637005e-06
-2.292988451e-06
-2.626507885e-06
-2.995845609e-06
-3.402516567e-06
-3.847922432e-06
-4.333336749e-06
-4.859894654e-06
-5.428565589e-06
-6.039921309e-06
-6.694051524e-06
-7.394081584e-06
-8.175275945e-06
-9.443007009e-06
-5.136536703e-06
3.015432372e-08
6.354131716e-08
6.218903459e-08
6.211104042e-08
6.025166743e-08
5.838111278e-08
5.652930087e-08
5.470185105e-08
5.291038104e-08
5.116797432e-08
4.94908269e-08
4.789244912e-08
4.638614629e-08
4.498096564e-08
4.368534798e-08
4.250280886e-08
4.143646307e-08
4.048387129e-08
3.964113929e-08
3.889911946e-08
3.824913827e-08
3.768034506e-08
3.718584548e-08
3.675785889e-08
3.63910148e-08
3.607589789e-08
3.580249913e-08
3.555644762e-08
3.532615595e-08
3.509976182e-08
3.487098893e-08
3.463192978e-08
3.437458266e-08
3.408222384e-08
3.373393465e-08
3.330135339e-08
3.275907894e-08
3.208316804e-08
3.125906116e-08
3.027376264e-08
2.911736087e-08
2.777174279e-08
2.621446962e-08
2.441330052e-08
2.233732354e-08
1.995610994e-08
1.7251284e-08
1.421203384e-08
1.084116579e-08
7.14582526e-09
3.141566327e-09
-1.156868713e-09
-5.729034604e-09
-1.055492474e-08
-1.560488311e-08
-2.084295038e-08
-2.62158054e-08
-3.165902461e-08
-3.709260497e-08
-4.243610888e-08
-4.761045294e-08
-5.255418335e-08
-5.721898135e-08
-6.1576738e-08
-6.560619615e-08
-6.929774733e-08
-7.264348346e-08
-7.565099724e-08
-7.834095993e-08
-8.076313864e-08
-8.298666379e-08
-8.510128779e-08
-8.719247985e-08
-8.933623917e-08
-9.158282409e-08
-9.397019231e-08
-9.652728325e-08
-9.929398754e-08
-1.023160823e-07
-1.056479841e-07
-1.093361178e-07
-1.134259429e-07
-1.179680006e-07
-1.230551407e-07
-1.288493687e-07
-1.356200288e-07
-1.437489301e-07
-1.537386175e-07
-1.661961367e-07
-1.81839499e-07
-2.01498482e-07
-2.261434048e-07
-2.569002871e-07
-2.950731187e-07
-3.421349025e-07
-3.997169194e-07
-4.695717896e-07
-5.535486492e-07
-6.535596855e-07
-7.715697455e-07
-9.09588974e-07
-1.069688763e-06
-1.254011136e-06
-1.464769169e-06
-1.704200227e-06
-1.974483479e-06
-2.277639316e-06
-2.61548426e-06
-2.989656629e-06
-3.401676481e-06
-3.852957994e-06
-4.344795265e-06
-4.878362298e-06
-5.454605633e-06
-6.074258611e-06
-6.736940031e-06
-7.446950077e-06
-8.236591356e-06
-9.520040883e-06
-5.179478291e-06
3.009006337e-08
6.339885539e-08
6.20412819e-08
6.196010589e-08
6.010447615e-08
5.824032364e-08
5.639567327e-08
5.457655244e-08
5.279265587e-08
5.105820111e-08
4.938724845e-08
4.779458171e-08
4.629178324e-08
4.488950385e-08
4.359488176e-08
4.241368162e-08
4.134737613e-08
4.039487307e-08
3.955036314e-08
3.880597425e-08
3.815144234e-08
3.757858763e-08
3.707933676e-08
3.664793054e-08
3.627623845e-08
3.595507051e-08
3.567047754e-08
3.540861233e-08
3.515492287e-08
3.489883686e-08
3.463038263e-08
3.434009943e-08
3.40123977e-08
3.362620776e-08
3.315225937e-08
3.25602191e-08
3.182011888e-08
3.090934617e-08
2.980898314e-08
2.850377465e-08
2.697299689e-08
2.519030664e-08
2.311929191e-08
2.072118157e-08
1.79569657e-08
1.479713401e-08
1.122120803e-08
7.222092153e-09
2.800439924e-09
-2.03384767e-09
-7.266850699e-09
-1.287700273e-08
-1.8837779e-08
-2.511154887e-08
-3.165000334e-08
-3.838654853e-08
-4.523765924e-08
-5.209990467e-08
-5.88598037e-08
-6.539955909e-08
-7.161214499e-08
-7.740465627e-08
-8.270556517e-08
-8.745767247e-08
-9.161942393e-08
-9.515795272e-08
-9.805751324e-08
-1.003214613e-07
-1.019867429e-07
-1.03123617e-07
-1.038373135e-07
-1.042498645e-07
-1.044861308e-07
-1.046543321e-07
-1.048451482e-07
-1.051339612e-07
-1.05594041e-07
-1.06297618e-07
-1.073138931e-07
-1.086933268e-07
-1.104625947e-07
-1.126273371e-07
-1.152010939e-07
-1.182414108e-07
-1.218944872e-07
-1.26418399e-07
-1.321961916e-07
-1.397247893e-07
-1.496128617e-07
-1.625787909e-07
-1.794750216e-07
-2.013117156e-07
-2.29286488e-07
-2.647896993e-07
-3.093960144e-07
-3.648307703e-07
-4.329364893e-07
-5.156355604e-07
-6.149081891e-07
-7.327757825e-07
-8.712998808e-07
-1.032587813e-06
-1.21880203e-06
-1.43215333e-06
-1.674860507e-06
-1.949069865e-06
-2.256767637e-06
-2.599738112e-06
-2.979598772e-06
-3.397857766e-06
-3.855929115e-06
-4.355120262e-06
-4.89660759e-06
-5.481409709e-06
-6.110103607e-06
-6.782796235e-06
-7.50242078e-06
-8.305223641e-06
-9.602834973e-06
-5.226623863e-06
3.001832083e-08
6.323968591e-08
6.187858954e-08
6.179359433e-08
5.994181944e-08
5.808293388e-08
5.624473494e-08
5.443233997e-08
5.26555038e-08
5.092725445e-08
4.926187451e-08
4.767289475e-08
4.617282029e-08
4.477150232e-08
4.347730792e-08
4.229527372e-08
4.122774222e-08
4.027246197e-08
3.942396244e-08
3.867353129e-08
3.801255949e-08
3.743250842e-08
3.69266441e-08
3.648802704e-08
3.610800829e-08
3.577436673e-08
3.547259506e-08
3.518679242e-08
3.490274574e-08
3.460773476e-08
3.428990102e-08
3.393366101e-08
3.351776525e-08
3.301305799e-08
3.238598208e-08
3.160179896e-08
3.063021628e-08
2.94456242e-08
2.802609728e-08
2.634662141e-08
2.437566497e-08
2.207162595e-08
1.938708075e-08
1.627312753e-08
1.268778358e-08
8.598974667e-09
3.987228907e-09
-1.157368164e-09
-6.835653492e-09
-1.304159268e-08
-1.97598829e-08
-2.696473255e-08
-3.461572966e-08
-4.265601202e-08
-5.100801169e-08
-5.95717266e-08
-6.822289936e-08
-7.681731968e-08
-8.519768749e-08
-9.320618458e-08
-1.006940893e-07
-1.0753063e-07
-1.136035316e-07
-1.188199149e-07
-1.231032929e-07
-1.263978831e-07
-1.286734715e-07
-1.299374101e-07
-1.302426582e-07
-1.29691896e-07
-1.284293513e-07
-1.266232577e-07
-1.244452545e-07
-1.220552279e-07
-1.195989249e-07
-1.172117911e-07
-1.150233946e-07
-1.131507334e-07
-1.116829106e-07
-1.10663995e-07
-1.100879314e-07
-1.099155728e-07
-1.101126943e-07
-1.107002726e-07
-1.117968362e-07
-1.136437879e-07
-1.166061919e-07
-1.211664965e-07
-1.27919447e-07
-1.375885169e-07
-1.510545182e-07
-1.693932243e-07
-1.938961077e-07
-2.260702098e-07
-2.676094661e-07
-3.20354237e-07
-3.862483963e-07
-4.673074136e-07
-5.655964594e-07
-6.832160913e-07
-8.222940883e-07
-9.849824019e-07
-1.173459685e-06
-1.389922146e-06
-1.636549258e-06
-1.915433801e-06
-2.228505458e-06
-2.577497287e-06
-2.963985177e-06
-3.389448273e-06
-3.855286095e-06
-4.362802184e-06
-4.913206185e-06
-5.50748772e-06
-6.146447003e-06
-6.829665768e-06
-7.561647952e-06
-8.375193316e-06
-9.692948939e-06
-5.277713156e-06
2.993785802e-08
6.306258115e-08
6.169825029e-08
6.16096299e-08
5.976161374e-08
5.790779744e-08
5.607542203e-08
5.426919936e-08
5.249838468e-08
5.077552955e-08
4.911437498e-08
4.752823322e-08
4.602937949e-08
4.462820388e-08
4.333289201e-08
4.214916205e-08
4.107836082e-08
4.011834536e-08
3.926304542e-08
3.850453213e-08
3.783438238e-08
3.724531352e-08
3.673035332e-08
3.628166299e-08
3.588849299e-08
3.553713422e-08
3.521128321e-08
3.489481657e-08
3.457246767e-08
3.422984435e-08
3.385039037e-08
3.341267401e-08
3.288734659e-08
3.223905251e-08
3.142907358e-08
3.042077272e-08
2.918162559e-08
2.768296628e-08
2.589434071e-08
2.377890001e-08
2.128878805e-08
1.836735463e-08
1.49537127e-08
1.099173936e-08
6.434650808e-09
1.248530958e-09
-4.590304761e-09
-1.109673289e-08
-1.827862903e-08
-2.613404566e-08
-3.464754041e-08
-4.378448715e-08
-5.348787334e-08
-6.367438558e-08
-7.423274316e-08
-8.502144896e-08
-9.587033936e-08
-1.065849258e-07
-1.169568333e-07
-1.267747934e-07
-1.358367775e-07
-1.439560963e-07
-1.509665089e-07
-1.567229984e-07
-1.611066429e-07
-1.640306082e-07
-1.654516177e-07
-1.653821354e-07
-1.638993697e-07
-1.611461975e-07
-1.573175148e-07
-1.526402741e-07
-1.473494203e-07
-1.416768642e-07
-1.358465131e-07
-1.300764503e-07
-1.245703125e-07
-1.194988113e-07
-1.149731354e-07
-1.110254832e-07
-1.076107269e-07
-1.046351266e-07
-1.020085902e-07
-9.970131754e-08
-9.778957785e-08
-9.647583313e-08
-9.608907126e-08
-9.707732636e-08
-1.000153088e-07
-1.056317388e-07
-1.148544833e-07
-1.288485256e-07
-1.490317496e-07
-1.770543499e-07
-2.147550212e-07
-2.641075939e-07
-3.271794452e-07
-4.061042584e-07
-5.030631151e-07
-6.202650477e-07
-7.599245269e-07
-9.242457142e-07
-1.115413966e-06
-1.335590939e-06
-1.586888729e-06
-1.871317625e-06
-2.190720314e-06
-2.546749751e-06
-2.94091259e-06
-3.374635399e-06
-3.849284397e-06
-4.36616248e-06
-4.926483143e-06
-5.531348765e-06
-6.181420739e-06
-6.876952922e-06
-7.6208957e-06
-8.451111423e-06
-9.787031457e-06
-5.332380705e-06
2.984816608e-08
6.286557395e-08
6.149877513e-08
6.140642973e-08
5.956245353e-08
5.771364103e-08
5.588692046e-08
5.408644302e-08
5.23210777e-08
5.060286374e-08
4.894501544e-08
4.736071882e-08
4.586219886e-08
4.446016279e-08
4.316309416e-08
4.197602399e-08
4.090055295e-08
3.993371327e-08
3.906958886e-08
3.830082993e-08
3.761980923e-08
3.701977349e-08
3.649323519e-08
3.603092983e-08
3.562017829e-08
3.524539415e-08
3.488955663e-08
3.453560556e-08
3.416723479e-08
3.376678859e-08
3.331241713e-08
3.277487018e-08
3.211776098e-08
3.129913517e-08
3.027689462e-08
2.901170082e-08
2.746809783e-08
2.561017017e-08
2.339609246e-08
2.077211427e-08
1.767250954e-08
1.402362144e-08
9.752808796e-09
4.795473462e-09
-9.003050528e-10
-7.375100817e-09
-1.466089065e-08
-2.278342377e-08
-3.176025837e-08
-4.15950253e-08
-5.226986241e-08
-6.373883976e-08
-7.592335651e-08
-8.870960474e-08
-1.019464128e-07
-1.154447767e-07
-1.289794635e-07
-1.422958462e-07
-1.55119936e-07
-1.671716569e-07
-1.781755169e-07
-1.878703304e-07
-1.960156503e-07
-2.023996695e-07
-2.068487832e-07
-2.092396415e-07
-2.095150857e-07
-2.076965522e-07
-2.038946564e-07
-1.983022534e-07
-1.911802696e-07
-1.828291267e-07
-1.735699809e-07
-1.637300931e-07
-1.536407953e-07
-1.436271441e-07
-1.339876437e-07
-1.249590772e-07
-1.166807662e-07
-1.091740813e-07
-1.023506737e-07
-9.605395834e-08
-9.012079685e-08
-8.444682778e-08
-7.9035404e-08
-7.402060344e-08
-6.9669018e-08
-6.637756908e-08
-6.469258247e-08
-6.535411503e-08
-6.935458405e-08
-7.797808285e-08
-9.280125925e-08
-1.156504988e-07
-1.485362096e-07
-1.935927797e-07
-2.530415306e-07
-3.29173255e-07
-4.24329382e-07
-5.408670804e-07
-6.811138878e-07
-8.473300149e-07
-1.041693672e-06
-1.266301038e-06
-1.523160213e-06
-1.814156071e-06
-2.141003721e-06
-2.505234307e-06
-2.908248753e-06
-3.351389818e-06
-3.835975786e-06
-4.36329503e-06
-4.93461852e-06
-5.551057111e-06
-6.213607119e-06
-6.921984995e-06
-7.681152899e-06
-8.525016806e-06
-9.886167467e-06
-5.389849686e-06
2.974849613e-08
6.264762502e-08
6.127872466e-08
6.118244224e-08
5.934298386e-08
5.749944915e-08
5.567832294e-08
5.388359643e-08
5.212329841e-08
5.040909747e-08
4.875389386e-08
4.717064045e-08
4.567175449e-08
4.426819347e-08
4.296821989e-08
4.177698348e-08
4.069517083e-08
3.971988178e-08
3.884518257e-08
3.806443843e-08
3.737100409e-08
3.675811549e-08
3.621742319e-08
3.573800648e-08
3.530508108e-08
3.490174944e-08
3.450988713e-08
3.411194745e-08
3.368910156e-08
3.321964936e-08
3.267485686e-08
3.201801145e-08
3.120519298e-08
3.01896267e-08
2.892539603e-08
2.737023625e-08
2.54824272e-08
2.321553219e-08
2.051101938e-08
1.729584877e-08
1.34842249e-08
8.986487487e-09
3.717439408e-09
-2.396551371e-09
-9.417101629e-09
-1.739680826e-08
-2.638291619e-08
-3.641691108e-08
-4.752889665e-08
-5.97278494e-08
-7.299211147e-08
-8.726150629e-08
-1.024332856e-07
-1.183589353e-07
-1.348423137e-07
-1.516383862e-07
-1.684561463e-07
-1.849653253e-07
-2.008087006e-07
-2.156147118e-07
-2.290112412e-07
-2.40637547e-07
-2.501572011e-07
-2.572734019e-07
-2.617446692e-07
-2.634055894e-07
-2.621831691e-07
-2.581156254e-07
-2.513542283e-07
-2.421577249e-07
-2.308655317e-07
-2.178734958e-07
-2.036112037e-07
-1.885328272e-07
-1.731071029e-07
-1.577966093e-07
-1.430196267e-07
-1.290995976e-07
-1.162202497e-07
-1.044023719e-07
-9.351743434e-08
-8.333426087e-08
-7.358860211e-08
-6.405815437e-08
-5.46248324e-08
-4.531364455e-08
-3.630053367e-08
-2.791615163e-08
-2.067068643e-08
-1.531985957e-08
-1.293601793e-08
-1.495165131e-08
-2.313931478e-08
-3.954108121e-08
-6.637641613e-08
-1.059763393e-07
-1.607595377e-07
-2.332298341e-07
-3.259517663e-07
-4.414850952e-07
-5.82301317e-07
-7.507191544e-07
-9.488846449e-07
-1.178786851e-06
-1.442276703e-06
-1.741058579e-06
-2.076660813e-06
-2.450438208e-06
-2.863634924e-06
-3.317475626e-06
-3.813206775e-06
-4.352115638e-06
-4.935505188e-06
-5.564675968e-06
-6.240539144e-06
-6.963712508e-06
-7.737431044e-06
-8.601912e-06
-9.985548624e-06
-5.449212923e-06
2.963829149e-08
6.240683862e-08
6.103661512e-08
6.093654476e-08
5.910212109e-08
5.726432355e-08
5.544912999e-08
5.365992393e-08
5.190453048e-08
5.019399321e-08
4.854084649e-08
4.695819453e-08
4.545844431e-08
4.405267105e-08
4.274931427e-08
4.155270511e-08
4.046331241e-08
3.947790694e-08
3.859134347e-08
3.779735731e-08
3.70901285e-08
3.646244324e-08
3.590495052e-08
3.540452254e-08
3.494502929e-08
3.450802707e-08
3.407483944e-08
3.362589324e-08
3.313953239e-08
3.258830397e-08
3.193632913e-08
3.113921349e-08
3.01468614e-08
2.890764943e-08
2.737227309e-08
2.549272846e-08
2.321793607e-08
2.048561122e-08
1.721757672e-08
1.331843336e-08
8.682800619e-09
3.204310214e-09
-3.21507997e-09
-1.066206059e-08
-1.921386372e-08
-2.894300847e-08
-3.991883747e-08
-5.220353183e-08
-6.584178611e-08
-8.08484253e-08
-9.719696296e-08
-1.14812489e-07
-1.335661321e-07
-1.532717895e-07
-1.736816184e-07
-1.944849312e-07
-2.153097278e-07
-2.357315578e-07
-2.55285379e-07
-2.734812007e-07
-2.898204372e-07
-3.038137791e-07
-3.150036947e-07
-3.229865099e-07
-3.27440806e-07
-3.281494492e-07
-3.250265791e-07
-3.181291331e-07
-3.076619629e-07
-2.939584298e-07
-2.77454997e-07
-2.586624391e-07
-2.381484375e-07
-2.165271214e-07
-1.944407393e-07
-1.725253695e-07
-1.513540292e-07
-1.313734189e-07
-1.128455349e-07
-9.581862963e-08
-8.013455855e-08
-6.547193614e-08
-5.141712985e-08
-3.755532661e-08
-2.357229924e-08
-9.329736146e-09
5.109126708e-09
1.949257568e-08
3.335394486e-08
4.593199803e-08
5.606602547e-08
6.214959654e-08
6.216675796e-08
5.380479842e-08
3.458089557e-08
1.919094932e-09
-4.685259928e-08
-1.145270042e-07
-2.039804107e-07
-3.180507191e-07
-4.593929298e-07
-6.303821865e-07
-8.330952943e-07
-1.069354232e-06
-1.340780199e-06
-1.648817849e-06
-1.994730943e-06
-2.379622711e-06
-2.804520373e-06
-3.270483223e-06
-3.77866918e-06
-4.3303504e-06
-4.926933402e-06
-5.569791329e-06
-6.260318284e-06
-6.998615957e-06
-7.790440042e-06
-8.671582918e-06
-1.008561683e-05
-5.509026067e-06
2.951684207e-08
6.214265451e-08
6.07714177e-08
6.06676023e-08
5.883884334e-08
5.700732532e-08
5.519834552e-08
5.341497247e-08
5.166447254e-08
4.995726292e-08
4.830593839e-08
4.672341623e-08
4.522253892e-08
4.381427235e-08
4.250665252e-08
4.130384779e-08
4.020569595e-08
3.920919215e-08
3.830940886e-08
3.750127734e-08
3.677874778e-08
3.613437137e-08
3.555704442e-08
3.503220701e-08
3.45417146e-08
3.406640877e-08
3.358593939e-08
3.307890078e-08
3.251885363e-08
3.187200448e-08
3.109503403e-08
3.013653881e-08
2.894086836e-08
2.745225991e-08
2.561618635e-08
2.337633941e-08
2.066723489e-08
1.740714215e-08
1.349426683e-08
8.810754629e-09
3.230874204e-09
-3.368134569e-09
-1.11006421e-08
-2.007200014e-08
-3.038368592e-08
-4.213641053e-08
-5.542893966e-08
-7.034834802e-08
-8.695660601e-08
-1.052755712e-07
-1.252759705e-07
-1.468688664e-07
-1.698996721e-07
-1.941407648e-07
-2.192857519e-07
-2.449447559e-07
-2.706473188e-07
-2.958501008e-07
-3.199513424e-07
-3.423091535e-07
-3.622629147e-07
-3.791624951e-07
-3.923980336e-07
-4.01438469e-07
-4.058627395e-07
-4.0539646e-07
-3.999345561e-07
-3.895584142e-07
-3.745291086e-07
-3.552660542e-07
-3.323171307e-07
-3.063323458e-07
-2.78050789e-07
-2.482837678e-07
-2.178899066e-07
-1.877233428e-07
-1.585666746e-07
-1.310492741e-07
-1.055745632e-07
-8.227052329e-08
-6.097382004e-08
-4.125071482e-08
-2.245774186e-08
-3.866070354e-09
1.515567031e-08
3.497263161e-08
5.564639099e-08
7.699701687e-08
9.862513688e-08
1.197935718e-07
1.392737163e-07
1.552609219e-07
1.654308255e-07
1.671085047e-07
1.574668961e-07
1.336259272e-07
9.259881999e-08
3.120256074e-08
-5.387941704e-08
-1.658732104e-07
-3.076704149e-07
-4.816927661e-07