/*--------------------------------*- C++ -*----------------------------------*\
  =========                 |
  \\      /  F ield         | OpenFOAM: The Open Source CFD Toolbox
   \\    /   O peration     | Website:  https://openfoam.org
    \\  /    A nd           | Version:  6
     \\/     M anipulation  |
\*---------------------------------------------------------------------------*/
FoamFile
{
    version     2.0;
    format      ascii;
    class       volVectorField;
    location    "0.0011";
    object      gradT;
}
// * * * * * * * * * * * * * * * * * * * * * * * * * * * * * * * * * * * * * //

dimensions      [0 -1 0 1 0 0 0];

internalField   nonuniform List<vector> 
600
(
(0 -5.47924438e-07 -2.506158734e-07)
(0 -1.648537877e-06 -2.706270272e-07)
(0 -2.766303728e-06 -3.096964215e-07)
(0 -3.910751119e-06 -3.725886179e-07)
(0 -5.089503353e-06 -4.612094407e-07)
(0 -6.314948262e-06 -5.822292724e-07)
(0 -7.588991695e-06 -7.470830599e-07)
(0 -8.914492392e-06 -9.652999244e-07)
(0 -1.029716779e-05 -1.257843927e-06)
(0 -1.173987665e-05 -1.659019907e-06)
(0 -1.323404279e-05 -2.218379293e-06)
(0 -1.476537246e-05 -3.035024931e-06)
(0 -1.624619782e-05 -4.291915946e-06)
(0 -1.74278088e-05 -6.263491017e-06)
(0 -1.806816569e-05 -8.893528317e-06)
(0 -9.119368477e-06 -8.406590251e-06)
(0 2.843489608e-06 3.249430149e-07)
(0 2.4718539e-06 8.279852943e-06)
(0 -1.783851388e-06 1.760695625e-05)
(0 6.860966886e-08 2.770973001e-05)
(0 3.890739966e-06 2.659958741e-05)
(0 4.340514461e-06 2.435071494e-05)
(0 2.588109176e-06 2.292229979e-05)
(0 4.402453746e-07 2.38104138e-05)
(0 -4.945613623e-07 2.57534015e-05)
(0 4.08799277e-07 2.752962963e-05)
(0 -2.79489109e-06 2.100408776e-05)
(0 -1.885527105e-05 1.786710124e-05)
(0 -1.132059536e-06 2.162919811e-05)
(0 2.847491836e-05 -8.021613773e-06)
(0 -5.584064699e-07 -1.972527974e-07)
(0 -1.679983973e-06 -2.182168631e-07)
(0 -2.819666799e-06 -2.601449937e-07)
(0 -3.989842815e-06 -3.258959261e-07)
(0 -5.201946969e-06 -4.221400453e-07)
(0 -6.464555447e-06 -5.517360855e-07)
(0 -7.791009041e-06 -7.289777295e-07)
(0 -9.186072318e-06 -9.662528351e-07)
(0 -1.066499183e-05 -1.279760903e-06)
(0 -1.224396712e-05 -1.697136387e-06)
(0 -1.396111468e-05 -2.262213245e-06)
(0 -1.588504412e-05 -3.066471024e-06)
(0 -1.806816566e-05 -4.368148905e-06)
(0 -2.006261063e-05 -7.033443957e-06)
(0 -1.74945126e-05 -1.433179746e-05)
(0 -4.664504559e-06 -5.218146469e-06)
(0 9.557708019e-06 4.164225727e-06)
(0 1.039627063e-05 7.960627389e-06)
(0 4.916073342e-06 1.273852848e-05)
(0 3.623924588e-06 1.724866131e-05)
(0 3.957443805e-06 1.833402812e-05)
(0 3.671570185e-06 1.812248165e-05)
(0 2.595732468e-06 1.793285217e-05)
(0 1.349323484e-06 1.848839988e-05)
(0 5.574535579e-07 1.950420414e-05)
(0 2.16311039e-07 2.038183618e-05)
(0 -1.046297447e-06 2.032942599e-05)
(0 -2.816808063e-06 2.472425643e-05)
(0 1.282619641e-05 4.264090914e-05)
(0 2.005117567e-05 3.644412191e-05)
(0 -5.688885026e-07 -1.133965357e-07)
(0 -1.711430071e-06 -1.334076893e-07)
(0 -2.874935699e-06 -1.734299958e-07)
(0 -4.07084034e-06 -2.410867524e-07)
(0 -5.317249329e-06 -3.344721352e-07)
(0 -6.623691762e-06 -4.688327358e-07)
(0 -8.001602607e-06 -6.460743799e-07)
(0 -9.463369729e-06 -8.833494853e-07)
(0 -1.102995715e-05 -1.193998817e-06)
(0 -1.272137606e-05 -1.590410236e-06)
(0 -1.460337741e-05 -2.072583744e-06)
(0 -1.687130811e-05 -2.61669653e-06)
(0 -2.021412363e-05 -3.109352067e-06)
(0 -2.739145733e-05 -3.220842782e-06)
(0 -1.625191527e-05 -1.948705173e-06)
(0 9.376654721e-06 5.097126636e-06)
(0 1.602226347e-05 8.163597667e-06)
(0 1.104615665e-05 6.620833026e-06)
(0 7.503229598e-06 8.094035078e-06)
(0 5.665062233e-06 1.017424213e-05)
(0 4.764560324e-06 1.134441813e-05)
(0 3.937432651e-06 1.18475557e-05)
(0 2.954027405e-06 1.219250989e-05)
(0 2.013503193e-06 1.271470568e-05)
(0 1.397921999e-06 1.341700187e-05)
(0 1.234021126e-06 1.421077764e-05)
(0 1.546576281e-06 1.529042699e-05)
(0 3.457164971e-06 1.815583357e-05)
(0 1.058780597e-05 2.303379046e-05)
(0 1.360949011e-05 1.379721378e-05)
(0 -5.784176241e-07 3.811648265e-09)
(0 -1.740970347e-06 -1.238785688e-08)
(0 -2.927345867e-06 -5.050433951e-08)
(0 -4.15088496e-06 -1.095848876e-07)
(0 -5.428740049e-06 -1.991586221e-07)
(0 -6.776157702e-06 -3.211313663e-07)
(0 -8.206478714e-06 -4.907497141e-07)
(0 -9.73399677e-06 -7.165898748e-07)
(0 -1.137109969e-05 -1.01485135e-06)
(0 -1.312445789e-05 -1.390298704e-06)
(0 -1.4987401e-05 -1.826732434e-06)
(0 -1.692085956e-05 -2.225049674e-06)
(0 -1.867326485e-05 -2.251731212e-06)
(0 -1.890196376e-05 -8.271276743e-07)
(0 -9.176543201e-06 5.656486027e-06)
(0 5.447798285e-06 5.660297675e-06)
(0 1.108236734e-05 3.073141417e-06)
(0 1.032575515e-05 2.214567642e-06)
(0 8.468529532e-06 2.800608562e-06)
(0 6.875260567e-06 3.966020025e-06)
(0 5.632663223e-06 4.987541754e-06)
(0 4.518709018e-06 5.716519485e-06)
(0 3.461929541e-06 6.264443932e-06)
(0 2.574768403e-06 6.761864021e-06)
(0 2.05257259e-06 7.258331208e-06)
(0 2.088783252e-06 7.792914889e-06)
(0 2.901617241e-06 8.514269311e-06)
(0 4.926555382e-06 9.654905054e-06)
(0 8.465670808e-06 1.037054203e-05)
(0 1.091084316e-05 6.985798357e-06)
(0 -5.860409198e-07 1.581834027e-07)
(0 -1.764793146e-06 1.448426341e-07)
(0 -2.97213273e-06 1.153023598e-07)
(0 -4.220447535e-06 6.575093246e-08)
(0 -5.528795808e-06 -7.623296529e-09)
(0 -6.915282854e-06 -1.124436236e-07)
(0 -8.396108202e-06 -2.591920816e-07)
(0 -9.989377189e-06 -4.631152641e-07)
(0 -1.170366598e-05 -7.442243225e-07)
(0 -1.353230423e-05 -1.120624588e-06)
(0 -1.543812838e-05 -1.610421392e-06)
(0 -1.729630689e-05 -2.20599143e-06)
(0 -1.881524872e-05 -2.854924546e-06)
(0 -1.948228718e-05 -3.504810578e-06)
(0 -9.765442844e-06 -4.906544223e-06)
(0 6.793310112e-06 -4.90940296e-06)
(0 1.257558053e-05 -3.793542934e-06)
(0 1.077457672e-05 -3.689675515e-06)
(0 9.255634885e-06 -3.113163715e-06)
(0 7.851042513e-06 -2.131664292e-06)
(0 6.515059786e-06 -1.109189643e-06)
(0 5.21528773e-06 -2.544275213e-07)
(0 4.001277766e-06 3.811648265e-07)
(0 3.00453174e-06 8.109281671e-07)
(0 2.428972853e-06 1.067261512e-06)
(0 2.490912141e-06 1.2082925e-06)
(0 3.406660631e-06 1.343606011e-06)
(0 5.314390585e-06 1.611374301e-06)
(0 7.919652182e-06 1.842931936e-06)
(0 1.005703393e-05 1.462720019e-06)
(0 -5.917583895e-07 3.544832865e-07)
(0 -1.784804292e-06 3.449541664e-07)
(0 -3.006437551e-06 3.239901005e-07)
(0 -4.272857679e-06 2.925440025e-07)
(0 -5.606934572e-06 2.439454878e-07)
(0 -7.027726446e-06 1.677125226e-07)
(0 -8.558103215e-06 5.622181156e-08)
(0 -1.021902895e-05 -1.086319751e-07)
(0 -1.202860894e-05 -3.516245503e-07)
(0 -1.399065487e-05 -7.165898694e-07)
(0 -1.607276775e-05 -1.268325954e-06)
(0 -1.816536261e-05 -2.119276422e-06)
(0 -1.997208387e-05 -3.448588747e-06)
(0 -2.095548914e-05 -5.437316222e-06)
(0 -1.05792297e-05 -7.460348524e-06)
(0 6.560799539e-06 -7.460348524e-06)
(0 1.230209471e-05 -9.699691873e-06)
(0 1.10061343e-05 -1.011134987e-05)
(0 1.002558779e-05 -9.476710441e-06)
(0 8.879234592e-06 -8.306534443e-06)
(0 7.509899948e-06 -7.067748752e-06)
(0 6.009063453e-06 -6.028121694e-06)
(0 4.527285206e-06 -5.316296393e-06)
(0 3.260865071e-06 -4.979918428e-06)
(0 2.451842731e-06 -5.009458702e-06)
(0 2.365127738e-06 -5.371565293e-06)
(0 3.302793201e-06 -5.951888729e-06)
(0 5.426834184e-06 -6.392134101e-06)
(0 8.317016476e-06 -6.062426537e-06)
(0 1.057637096e-05 -4.491074541e-06)
(0 -5.946171346e-07 5.860409259e-07)
(0 -1.795286351e-06 5.831821906e-07)
(0 -3.023590013e-06 5.793705414e-07)
(0 -4.302398017e-06 5.688885086e-07)
(0 -5.653627348e-06 5.498302679e-07)
(0 -7.101100781e-06 5.174312566e-07)
(0 -8.672452792e-06 4.5930362e-07)
(0 -1.039627075e-05 3.640124131e-07)
(0 -1.231067109e-05 2.001115357e-07)
(0 -1.444900579e-05 -8.195043843e-08)
(0 -1.684176803e-05 -5.869938389e-07)
(0 -1.947847572e-05 -1.521800583e-06)
(0 -2.213233585e-05 -3.358062151e-06)
(0 -2.349309431e-05 -7.323129302e-06)
(0 -1.178752237e-05 -1.720578043e-05)
(0 4.552060983e-06 -1.720768625e-05)
(0 9.925532181e-06 -1.747545456e-05)
(0 1.099660534e-05 -1.761362679e-05)
(0 1.106045045e-05 -1.641009884e-05)
(0 1.026095724e-05 -1.457193147e-05)
(0 8.792519713e-06 -1.284239603e-05)
(0 6.968646002e-06 -1.148449632e-05)
(0 5.048528179e-06 -1.064212207e-05)
(0 3.31136946e-06 -1.040579986e-05)
(0 2.037326016e-06 -1.076028315e-05)
(0 1.548482124e-06 -1.17417826e-05)
(0 2.386091835e-06 -1.339699086e-05)
(0 5.201947016e-06 -1.517798353e-05)
(0 9.821664769e-06 -1.522372333e-05)
(0 1.266896603e-05 -9.899803544e-06)
(0 -5.946171257e-07 8.566679423e-07)
(0 -1.791474676e-06 8.62385416e-07)
(0 -3.021684144e-06 8.757261835e-07)
(0 -4.302397953e-06 8.919256886e-07)
(0 -5.658391823e-06 9.128897553e-07)
(0 -7.117300179e-06 9.319479951e-07)
(0 -8.712474968e-06 9.481475001e-07)
(0 -1.047822103e-05 9.519591498e-07)
(0 -1.24755247e-05 9.233717865e-07)
(0 -1.477680732e-05 8.242689323e-07)
(0 -1.751166496e-05 5.774647095e-07)
(0 -2.093738379e-05 3.335192211e-08)
(0 -2.57734125e-05 -1.091084309e-06)
(0 -3.480320722e-05 -3.256100514e-06)
(0 -2.046569233e-05 -7.047737602e-06)
(0 6.292078338e-06 -1.684653232e-05)
(0 1.189710709e-05 -2.540368265e-05)
(0 1.207244289e-05 -2.647570869e-05)
(0 1.306633017e-05 -2.398860821e-05)
(0 1.244598444e-05 -2.073155482e-05)
(0 1.059828794e-05 -1.823492519e-05)
(0 8.208384488e-06 -1.641486315e-05)
(0 5.604075836e-06 -1.535427205e-05)
(0 3.144609799e-06 -1.523134637e-05)
(0 1.114907111e-06 -1.588409114e-05)
(0 -2.696741135e-07 -1.745449024e-05)
(0 -1.343606005e-07 -2.074394264e-05)
(0 3.601054676e-06 -2.573053146e-05)
(0 1.359424347e-05 -2.978136067e-05)
(0 1.738397472e-05 -1.674171199e-05)
(0 -5.888996533e-07 1.164458538e-06)
(0 -1.775275171e-06 1.180658045e-06)
(0 -2.995955518e-06 1.211151229e-06)
(0 -4.265234382e-06 1.258796832e-06)
(0 -5.611699132e-06 1.322641942e-06)
(0 -7.065842928e-06 1.405545289e-06)
(0 -8.652441509e-06 1.50750688e-06)
(0 -1.042199922e-05 1.632338362e-06)
(0 -1.243836112e-05 1.781945553e-06)
(0 -1.479491265e-05 1.950610988e-06)
(0 -1.76336377e-05 2.118323513e-06)
(0 -2.114607153e-05 2.244107902e-06)
(0 -2.542178795e-05 2.302235538e-06)
(0 -2.944974726e-05 2.524264051e-06)
(0 -2.537700109e-05 4.696903548e-06)
(0 -1.380483703e-05 -2.189029586e-05)
(0 2.95402739e-07 -2.819571499e-05)
(0 1.241167959e-05 -3.889310575e-05)
(0 1.680651001e-05 -3.231515379e-05)
(0 1.60136872e-05 -2.608787352e-05)
(0 1.31082583e-05 -2.290419428e-05)
(0 9.850251969e-06 -2.053334908e-05)
(0 6.232044884e-06 -1.907253492e-05)
(0 2.781550304e-06 -1.923548285e-05)
(0 -1.877236759e-07 -2.006832799e-05)
(0 -3.309463591e-06 -2.144719178e-05)
(0 -5.889949445e-06 -2.642329852e-05)
(0 -3.836423955e-06 -3.728077854e-05)
(0 1.881143701e-05 -5.189082633e-05)
(0 2.797654518e-05 -4.113626074e-05)
(0 -5.774647173e-07 1.500836518e-06)
(0 -1.744782011e-06 1.52847097e-06)
(0 -2.941639575e-06 1.580881132e-06)
(0 -4.190907305e-06 1.660925746e-06)
(0 -5.51259636e-06 1.770510637e-06)
(0 -6.93529408e-06 1.91535327e-06)
(0 -8.483776201e-06 2.105935685e-06)
(0 -1.020378251e-05 2.357504476e-06)
(0 -1.215725225e-05 2.696741171e-06)
(0 -1.444138249e-05 3.161762264e-06)
(0 -1.721626248e-05 3.795448799e-06)
(0 -2.075156625e-05 4.634964331e-06)
(0 -2.549516256e-05 5.656486076e-06)
(0 -3.24085397e-05 6.490284148e-06)
(0 -4.488025292e-05 5.09236213e-06)
(0 -2.660054058e-05 -8.838259497e-06)
(0 -5.10474999e-06 -3.906272472e-05)
(0 7.952051263e-06 -6.854773009e-05)
(0 2.587251574e-05 -4.022146576e-05)
(0 2.185885011e-05 -2.829862993e-05)
(0 1.615185967e-05 -2.664151578e-05)
(0 1.203813824e-05 -2.361887868e-05)
(0 6.901942168e-06 -2.10526865e-05)
(0 2.150722553e-06 -2.248014875e-05)
(0 -1.096801798e-06 -2.363317236e-05)
(0 -6.626550577e-06 -2.181215742e-05)
(0 -1.59650889e-05 -2.624701019e-05)
(0 -2.186742629e-05 -4.515183284e-05)
(0 9.737808506e-06 -3.84833542e-05)
(0 4.198911766e-05 1.214677022e-05)
(0 -5.622181156e-07 1.869613463e-06)
(0 -1.695230558e-06 1.906777036e-06)
(0 -2.86254783e-06 1.982057086e-06)
(0 -4.076557794e-06 2.094500709e-06)
(0 -5.357271612e-06 2.248872466e-06)
(0 -6.729464971e-06 2.451842731e-06)
(0 -8.211243225e-06 2.720563932e-06)
(0 -9.831193742e-06 3.078858872e-06)
(0 -1.163505626e-05 3.581043523e-06)
(0 -1.369620504e-05 4.308115425e-06)
(0 -1.615948274e-05 5.383000237e-06)
(0 -1.92869401e-05 6.982939579e-06)
(0 -2.356551525e-05 9.349973137e-06)
(0 -3.001291829e-05 1.286717157e-05)
(0 -4.07055445e-05 1.82196786e-05)
(0 -5.79608761e-05 2.757251048e-05)
(0 -5.941501994e-05 7.413655838e-07)
(0 1.125293852e-05 -4.52337826e-05)
(0 5.705370379e-05 -1.455192007e-05)
(0 2.959363699e-05 -2.005212852e-05)
(0 1.778991526e-05 -3.153471882e-05)
(0 1.544098703e-05 -2.603165167e-05)
(0 7.370774798e-06 -1.882573069e-05)
(0 1.982057086e-07 -2.582486975e-05)
(0 4.821735026e-07 -3.003674106e-05)
(0 -5.924254289e-06 -1.583549264e-05)
(0 -2.922962454e-05 -1.122911572e-05)
(0 -1.607372064e-05 -2.364270113e-05)
(0 7.611003929e-05 2.817475093e-05)
(0 6.991801661e-05 5.235775316e-05)
(0 -5.403011383e-07 2.260307407e-06)
(0 -1.632338362e-06 2.308905926e-06)
(0 -2.754868767e-06 2.407055865e-06)
(0 -3.923138953e-06 2.55285141e-06)
(0 -5.154301343e-06 2.749151298e-06)
(0 -6.463602506e-06 3.002625902e-06)
(0 -7.85771285e-06 3.324710179e-06)
(0 -9.342349854e-06 3.751614788e-06)
(0 -1.09270426e-05 4.34718482e-06)
(0 -1.263942557e-05 5.228628476e-06)
(0 -1.454239098e-05 6.588433996e-06)
(0 -1.678649886e-05 8.716286617e-06)
(0 -1.960902438e-05 1.207911328e-05)
(0 -2.353883374e-05 1.763173187e-05)
(0 -3.017681914e-05 2.761634444e-05)
(0 -4.407694737e-05 4.58169648e-05)
(0 -7.791009014e-05 7.512282236e-05)
(0 -7.340281601e-06 0.0001197638936)
(0 5.105512237e-05 7.268050867e-05)
(0 4.874145196e-06 1.168079605e-05)
(0 1.016947751e-05 -9.473851705e-06)
(0 2.474712621e-05 -1.595174789e-06)
(0 7.111582718e-06 -2.057337142e-06)
(0 -9.06028787e-06 -5.297238144e-06)
(0 8.892575348e-06 -1.32187961e-05)
(0 1.218012197e-05 4.532049766e-06)
(0 -2.377325008e-05 4.143166348e-05)
(0 1.753834647e-05 7.3077873e-05)
(0 8.573826276e-05 6.346966079e-05)
(0 4.518994864e-05 1.17408295e-05)
(0 -5.136196083e-07 2.667200897e-06)
(0 -1.549435036e-06 2.729140186e-06)
(0 -2.617649469e-06 2.85206584e-06)
(0 -3.734462421e-06 3.033119134e-06)
(0 -4.908450104e-06 3.271347157e-06)
(0 -6.154859091e-06 3.562938247e-06)
(0 -7.461301545e-06 3.916468627e-06)
(0 -8.808719232e-06 4.3557611e-06)
(0 -1.01570898e-05 4.940849107e-06)
(0 -1.145495605e-05 5.802281623e-06)
(0 -1.267182479e-05 7.175427933e-06)
(0 -1.379435519e-05 9.391901408e-06)
(0 -1.465102315e-05 1.282905526e-05)
(0 -1.447664025e-05 1.821777306e-05)
(0 -1.252031176e-05 2.911718137e-05)
(0 -1.045439838e-05 5.337641698e-05)
(0 1.453190915e-05 7.340567593e-05)
(0 8.809672131e-06 0.0001197534133)
(0 -5.10284416e-05 6.53678625e-05)
(0 -5.255977138e-05 3.52958633e-05)
(0 4.51489741e-06 1.583739868e-05)
(0 2.285654902e-05 1.782517327e-05)
(0 3.667758581e-06 1.37219339e-05)
(0 -1.096325342e-05 1.460337754e-05)
(0 1.031146156e-05 8.251265655e-06)
(0 4.87262061e-05 1.993873228e-05)
(0 3.931524638e-05 4.068172229e-05)
(0 5.965229588e-06 7.306834498e-05)
(0 1.477394883e-05 3.617063659e-05)
(0 1.817679783e-05 -3.80307209e-06)
(0 -4.783618543e-07 3.086482164e-06)
(0 -1.447473422e-06 3.163668045e-06)
(0 -2.449936907e-06 3.31613397e-06)
(0 -3.504810558e-06 3.537209568e-06)
(0 -4.624482236e-06 3.820224456e-06)
(0 -5.817528129e-06 4.152790759e-06)
(0 -7.064890016e-06 4.525379375e-06)
(0 -8.317969388e-06 4.925602448e-06)
(0 -9.482427913e-06 5.383000229e-06)
(0 -1.040484679e-05 6.004298893e-06)
(0 -1.095372415e-05 7.078230795e-06)
(0 -1.113001287e-05 9.043135453e-06)
(0 -1.078315288e-05 1.185422603e-05)
(0 -7.251660787e-06 1.356184446e-05)
(0 4.982777166e-06 1.759266247e-05)
(0 2.105935654e-07 2.609168514e-05)
(0 -1.153309468e-05 2.892755145e-05)
(0 -1.537904774e-05 6.68753684e-06)
(0 -3.340337937e-05 1.032289635e-05)
(0 -4.465441213e-05 3.97936077e-05)
(0 -7.301212207e-06 4.327935996e-05)
(0 2.263166143e-05 2.866740643e-05)
(0 3.889787036e-06 2.527694535e-05)
(0 -1.453095601e-05 2.780978557e-05)
(0 1.422697706e-05 3.678335844e-05)
(0 4.460962526e-05 2.827957126e-05)
(0 2.935922058e-05 8.993584026e-06)
(0 1.302630787e-05 6.080531858e-06)
(0 8.865893823e-06 1.072693108e-05)
(0 5.21242897e-06 -5.900431478e-06)
(0 -4.364337237e-07 3.501951822e-06)
(0 -1.320736118e-06 3.597243033e-06)
(0 -2.244107902e-06 3.784013792e-06)
(0 -3.227513149e-06 4.059405377e-06)
(0 -4.292868839e-06 4.406265374e-06)
(0 -5.450656986e-06 4.80077096e-06)
(0 -6.691348488e-06 5.200041114e-06)
(0 -7.950145332e-06 5.549759848e-06)
(0 -9.077440288e-06 5.779411646e-06)
(0 -9.758772411e-06 5.902337302e-06)
(0 -9.632988033e-06 6.256820598e-06)
(0 -9.020265564e-06 8.050201086e-06)
(0 -1.013326685e-05 1.221728553e-05)
(0 -8.737250691e-06 6.821897448e-06)
(0 9.529120608e-09 1.087272661e-06)
(0 8.804907442e-07 3.736368191e-06)
(0 -4.871286458e-06 1.256033388e-05)
(0 -9.794983069e-06 1.607276772e-05)
(0 -1.792332294e-05 2.288608896e-05)
(0 -1.960235402e-05 4.028435741e-05)
(0 -6.611303875e-06 5.806950805e-05)
(0 4.855086948e-06 4.304208486e-05)
(0 2.807278934e-06 3.596290121e-05)
(0 5.441127865e-07 4.114483694e-05)
(0 1.078315288e-05 5.37594868e-05)
(0 2.093643091e-05 3.457450834e-05)
(0 1.711525352e-05 2.068390918e-05)
(0 7.698576536e-06 1.600701679e-05)
(0 2.792032341e-06 1.533235508e-05)
(0 1.128152588e-05 1.340175522e-05)
(0 -3.840235661e-07 3.898363298e-06)
(0 -1.163505645e-06 4.015571489e-06)
(0 -1.9887275e-06 4.248082029e-06)
(0 -2.883511938e-06 4.592083288e-06)
(0 -3.88311671e-06 5.031375762e-06)
(0 -5.022799546e-06 5.533560418e-06)
(0 -6.314948319e-06 6.034792169e-06)
(0 -7.73859897e-06 6.404522064e-06)
(0 -9.1308035e-06 6.411192439e-06)
(0 -9.927437994e-06 5.705084591e-06)
(0 -8.803954671e-06 4.163272861e-06)
(0 -5.171453829e-06 4.881768559e-06)
(0 -1.201050379e-05 6.676101995e-06)
(0 -1.838072103e-05 9.614882844e-06)
(0 1.89629503e-06 1.353992768e-05)
(0 1.168365495e-05 1.408404047e-05)
(0 8.033048798e-07 1.773464664e-05)
(0 -5.05233982e-06 2.014837291e-05)
(0 -9.191789873e-06 2.524931124e-05)
(0 -9.472898949e-06 3.352439975e-05)
(0 -4.544437684e-06 4.011569252e-05)
(0 5.260074652e-07 3.740656349e-05)
(0 1.994444975e-06 3.502333045e-05)
(0 3.26562968e-06 3.602007642e-05)
(0 7.654742696e-06 3.746183239e-05)
(0 1.153500068e-05 3.044458792e-05)
(0 1.079077633e-05 2.351024671e-05)
(0 7.67475385e-06 2.041328246e-05)
(0 6.261585252e-06 2.201703352e-05)
(0 8.965949711e-06 2.348642391e-05)
(0 -3.182726282e-07 4.261422734e-06)
(0 -9.71017391e-07 4.403406638e-06)
(0 -1.667596106e-06 4.691186073e-06)
(0 -2.446125259e-06 5.120949413e-06)
(0 -3.351391722e-06 5.685073361e-06)
(0 -4.447240586e-06 6.3683113e-06)
(0 -5.819433953e-06 7.102053586e-06)
(0 -7.572792156e-06 7.734787206e-06)
(0 -9.777830652e-06 7.882488564e-06)
(0 -1.200764487e-05 6.478849099e-06)
(0 -1.045725697e-05 -4.478686691e-08)
(0 -6.506483549e-06 3.720168684e-06)
(0 -5.399199734e-06 8.792519581e-06)
(0 -1.875330937e-06 2.061720536e-05)
(0 4.479639598e-06 2.974133833e-05)
(0 5.078068372e-06 2.181596872e-05)
(0 1.190187165e-06 2.078491788e-05)
(0 -2.280318561e-06 2.19655759e-05)
(0 -4.547296352e-06 2.493199115e-05)
(0 -4.734067123e-06 2.901426646e-05)
(0 -2.729140141e-06 3.207787869e-05)
(0 -2.382280151e-07 3.208454907e-05)
(0 1.419838972e-06 3.135175975e-05)
(0 2.981661837e-06 3.106207443e-05)
(0 5.208617322e-06 3.020445358e-05)
(0 6.985798325e-06 2.675395905e-05)
(0 7.084901169e-06 2.294707533e-05)
(0 6.205363337e-06 2.051047919e-05)
(0 5.865173741e-06 1.966715204e-05)
(0 6.80760376e-06 1.862371331e-05)
(0 -2.410867513e-07 4.563495857e-06)
(0 -7.346951997e-07 4.732161299e-06)
(0 -1.272137601e-06 5.074256722e-06)
(0 -1.887718792e-06 5.598358355e-06)
(0 -2.636707675e-06 6.31780697e-06)
(0 -3.605819237e-06 7.243084571e-06)
(0 -4.946566506e-06 8.370379539e-06)
(0 -6.9600697e-06 9.658716659e-06)
(0 -1.038769437e-05 1.101185177e-05)
(0 -1.785280745e-05 1.248791255e-05)
(0 -1.156358787e-05 1.636817049e-05)
(0 3.666805608e-06 1.030097937e-05)
(0 4.886533046e-06 1.966238745e-05)
(0 2.567145093e-06 2.510256243e-05)
(0 3.095058374e-06 2.553327867e-05)
(0 2.726281406e-06 2.304998984e-05)
(0 9.548178855e-07 2.207230208e-05)
(0 -9.043135453e-07 2.251540616e-05)
(0 -2.145005048e-06 2.406865282e-05)
(0 -2.327011255e-06 2.614790698e-05)
(0 -1.473202045e-06 2.776023414e-05)
(0 -2.001115327e-07 2.818428001e-05)
(0 9.719703031e-07 2.791841759e-05)
(0 2.119276422e-06 2.733904701e-05)
(0 3.344721332e-06 2.6168871e-05)
(0 4.277622246e-06 2.399813737e-05)
(0 4.547296352e-06 2.153009509e-05)
(0 4.394830423e-06 1.947180504e-05)
(0 4.375772188e-06 1.791569967e-05)
(0 4.740737501e-06 1.624333898e-05)
(0 -1.515130199e-07 4.782665703e-06)
(0 -4.593036207e-07 4.973248125e-06)
(0 -8.013990548e-07 5.361083332e-06)
(0 -1.20352795e-06 5.969994148e-06)
(0 -1.706665528e-06 6.83428541e-06)
(0 -2.394668044e-06 8.008273076e-06)
(0 -3.403801931e-06 9.574860527e-06)
(0 -4.931319994e-06 1.161980986e-05)
(0 -6.946729025e-06 1.412025112e-05)
(0 -6.652279194e-06 1.620522274e-05)
(0 -1.264419034e-05 2.776309334e-05)
(0 -3.211313692e-06 2.781455055e-05)
(0 9.401430529e-06 2.570480322e-05)
(0 3.995560333e-06 2.543417621e-05)
(0 2.42897288e-06 2.462515385e-05)
(0 1.615185967e-06 2.324152551e-05)
(0 6.54650596e-07 2.245537306e-05)
(0 -2.839677983e-07 2.252398271e-05)
(0 -9.147955917e-07 2.330727644e-05)
(0 -1.043438723e-06 2.442027778e-05)
(0 -6.908612542e-07 2.53407908e-05)
(0 -8.195043843e-08 2.569527409e-05)
(0 5.75558894e-07 2.552374996e-05)
(0 1.233068225e-06 2.491483911e-05)
(0 1.868660579e-06 2.380850819e-05)
(0 2.346069531e-06 2.216949945e-05)
(0 2.558568921e-06 2.02817806e-05)
(0 2.590015019e-06 1.844837777e-05)
(0 2.636707715e-06 1.673790062e-05)
(0 2.785361994e-06 1.495023754e-05)
(0 -5.05043392e-08 4.899873815e-06)
(0 -1.572304902e-07 5.100938267e-06)
(0 -2.734857613e-07 5.516407918e-06)
(0 -4.164225704e-07 6.176775976e-06)
(0 -5.965229507e-07 7.134452607e-06)
(0 -8.661970629e-07 8.48187025e-06)
(0 -1.336935621e-06 1.039341184e-05)
(0 -2.414679165e-06 1.322165486e-05)
(0 -5.801328624e-06 1.774036383e-05)
(0 -4.210918395e-06 2.596875947e-05)
(0 4.478686691e-08 2.860356136e-05)
(0 1.60946847e-06 3.856816273e-05)
(0 2.507111631e-06 3.02063594e-05)
(0 1.487495728e-06 2.666057365e-05)
(0 9.014548096e-07 2.472139759e-05)
(0 5.565006435e-07 2.33310989e-05)
(0 2.382280154e-07 2.254875811e-05)
(0 -5.336307538e-08 2.24391732e-05)
(0 -2.468042236e-07 2.288608896e-05)
(0 -2.954027392e-07 2.360077304e-05)
(0 -1.982057086e-07 2.422397749e-05)
(0 -1.619950503e-08 2.449079286e-05)
(0 1.915353244e-07 2.432308038e-05)
(0 4.030818016e-07 2.372274574e-05)
(0 6.003345981e-07 2.268788325e-05)
(0 7.499417927e-07 2.125470354e-05)
(0 8.271276684e-07 1.958996614e-05)
(0 8.51903382e-07 1.786995987e-05)
(0 8.766790969e-07 1.61480478e-05)
(0 9.176543142e-07 1.43565731e-05)
)
;

boundaryField
{
    lowerWall
    {
        type            calculated;
        value           nonuniform 0();
    }
    atmosphere
    {
        type            calculated;
        value           nonuniform List<vector> 
20
(
(0 0 -2.506158734e-07)
(0 0 -1.972527974e-07)
(0 0 -1.133965357e-07)
(0 0 3.811648265e-09)
(0 0 1.581834027e-07)
(0 0 3.544832865e-07)
(0 0 5.860409259e-07)
(0 0 8.566679423e-07)
(0 0 1.164458538e-06)
(0 0 1.500836518e-06)
(0 0 1.869613463e-06)
(0 0 2.260307407e-06)
(0 0 2.667200897e-06)
(0 0 3.086482164e-06)
(0 0 3.501951822e-06)
(0 0 3.898363298e-06)
(0 0 4.261422734e-06)
(0 0 4.563495857e-06)
(0 0 4.782665703e-06)
(0 0 4.899873815e-06)
)
;
    }
    rightWall
    {
        type            empty;
    }
    leftWall
    {
        type            empty;
    }
    frontAndBack
    {
        type            calculated;
        value           nonuniform List<vector> 
30
(
(0 -5.05043392e-08 4.928324391e-06)
(0 -1.572304902e-07 5.132960697e-06)
(0 -2.734857613e-07 5.555875732e-06)
(0 -4.164225704e-07 6.229470242e-06)
(0 -5.965229507e-07 7.216840422e-06)
(0 -8.661970629e-07 8.620304427e-06)
(0 -1.336935621e-06 1.067689931e-05)
(0 -2.414679165e-06 1.396813325e-05)
(0 -5.801328624e-06 2.03374383e-05)
(0 -4.210918395e-06 3.717218514e-05)
(0 4.478686691e-08 3.718071166e-05)
(0 1.60946847e-06 3.699142307e-05)
(0 2.507111631e-06 3.074489981e-05)
(0 1.487495728e-06 2.696594934e-05)
(0 9.014548096e-07 2.479168858e-05)
(0 5.565006435e-07 2.336264503e-05)
(0 2.382280154e-07 2.256456344e-05)
(0 -5.336307538e-08 2.240938091e-05)
(0 -2.468042236e-07 2.277602096e-05)
(0 -2.954027392e-07 2.340016169e-05)
(0 -1.982057086e-07 2.395609032e-05)
(0 -1.619950503e-08 2.419312738e-05)
(0 1.915353244e-07 2.402089182e-05)
(0 4.030818016e-07 2.342574123e-05)
(0 6.003345981e-07 2.241108621e-05)
(0 7.499417927e-07 2.102296993e-05)
(0 8.271276684e-07 1.94080484e-05)
(0 8.51903382e-07 1.771809357e-05)
(0 8.766790969e-07 1.599914859e-05)
(0 9.176543142e-07 1.421199151e-05)
)
;
    }
    procBoundary4to2
    {
        type            processor;
        value           nonuniform List<vector> 
30
(
(0 -5.374424045e-07 -2.772974108e-07)
(0 -1.620903424e-06 -2.944498284e-07)
(0 -2.718658121e-06 -3.297075744e-07)
(0 -3.839282709e-06 -3.8307065e-07)
(0 -4.99040049e-06 -4.602565279e-07)
(0 -6.180587652e-06 -5.669826785e-07)
(0 -7.406985479e-06 -7.061078399e-07)
(0 -8.673405626e-06 -8.909727818e-07)
(0 -9.972224757e-06 -1.135871181e-06)
(0 -1.128438467e-05 -1.468437492e-06)
(0 -1.258606257e-05 -1.928694022e-06)
(0 -1.381150747e-05 -2.583344607e-06)
(0 -1.483969958e-05 -3.533397936e-06)
(0 -1.545909244e-05 -4.878909776e-06)
(0 -1.535331919e-05 -6.633220885e-06)
(0 -1.388297588e-05 -8.850647261e-06)
(0 -7.125876427e-06 -2.767256639e-06)
(0 -6.888601316e-06 4.403406651e-06)
(0 -1.451475657e-05 3.044268173e-05)
(0 -5.365847844e-06 4.934083387e-05)
(0 7.315505921e-06 3.596861879e-05)
(0 7.348857843e-06 2.973562098e-05)
(0 3.13603361e-06 2.558473606e-05)
(0 -1.483684085e-06 2.808994184e-05)
(0 -3.160809319e-06 3.220366323e-05)
(0 4.966577689e-06 4.304208512e-05)
(0 8.616230889e-06 2.682447462e-05)
(0 -3.44287129e-06 4.413888684e-06)
(0 3.871491142e-05 -2.726757877e-05)
(0 4.420082612e-05 -4.499079022e-05)
)
;
    }
    procBoundary4to5
    {
        type            processor;
        value           nonuniform List<vector> 
20
(
(0 3.996608479e-05 -2.519499492e-06)
(0 1.751833532e-05 2.777357491e-05)
(0 1.347036489e-05 1.389441075e-05)
(0 1.203718517e-05 6.819038715e-06)
(0 1.131964237e-05 1.508459792e-06)
(0 1.176369933e-05 -3.452400379e-06)
(0 1.342462525e-05 -8.414213582e-06)
(0 1.590696095e-05 -1.447473413e-05)
(0 2.149769599e-05 -2.728663673e-05)
(0 4.737974105e-05 3.456212079e-06)
(0 1.072502519e-05 3.137748818e-05)
(0 6.333053525e-06 1.173034741e-05)
(0 6.887648445e-06 -3.805930809e-06)
(0 1.378577872e-05 3.829753554e-06)
(0 1.890101063e-05 1.908492266e-05)
(0 1.172653594e-05 1.754406413e-05)
(0 7.829125453e-06 1.544289278e-05)
(0 5.121902302e-06 1.389250487e-05)
(0 2.923534232e-06 1.29157702e-05)
(0 9.51006232e-07 1.244407854e-05)
)
;
    }
}


// ************************************************************************* //
