/*--------------------------------*- C++ -*----------------------------------*\
  =========                 |
  \\      /  F ield         | OpenFOAM: The Open Source CFD Toolbox
   \\    /   O peration     | Website:  https://openfoam.org
    \\  /    A nd           | Version:  10
     \\/     M anipulation  |
\*---------------------------------------------------------------------------*/
FoamFile
{
    format      ascii;
    class       volScalarField;
    location    "0.008";
    object      p_rgh;
}
// * * * * * * * * * * * * * * * * * * * * * * * * * * * * * * * * * * * * * //

dimensions      [1 -1 -2 0 0 0 0];

internalField   nonuniform List<scalar> 
19200
(
1.614129088e-05
4.678777334e-05
7.742097822e-05
0.0001079130155
0.0001380878537
0.0001678521841
0.0001971222963
0.0002258130598
0.0002538413533
0.0002811272736
0.0003075945739
0.0003331704943
0.0003577858505
0.0003813757138
0.0004038800218
0.0004252439583
0.0004454185142
0.0004643613399
0.0004820375996
0.0004984206291
0.0005134924996
0.000527244687
0.0005396789089
0.0005508080212
0.0005606567949
0.0005692624373
0.000576674786
0.0005829561332
0.0005881806149
0.0005924330558
0.0005958071532
0.0005984029382
0.0006003235827
0.0006016718172
0.0006025463864
0.0006030390235
0.0006032324238
0.0006031996102
0.0006030036693
0.000602698039
0.0006023266191
0.0006019249496
0.0006015215167
0.0006011388728
0.0006007945127
0.000600501618
0.0006002695945
0.0006001046684
0.0006000087885
0.0005999250668
-12.94274482
-25.66500411
-37.9829173
-49.73189065
-60.78697345
-71.06488597
-80.52147414
-89.14606
-96.95432466
-103.9810428
-110.2735208
-115.8861622
-120.8762694
-125.3009975
-129.2152853
-132.670557
-135.7140001
-138.3882549
-140.73138
-142.7769968
-144.5545353
-146.0895332
-147.4039506
-148.5164782
-149.4428242
-150.1959713
-150.7863995
-151.2222713
-151.50958
-151.6522598
1.615991425e-05
4.696140547e-05
7.765243019e-05
0.0001082137267
0.0001384661052
0.0001683063146
0.0001976501747
0.0002264128529
0.0002545109997
0.000281864314
0.000308395987
0.0003340327743
0.0003587051619
0.0003823478223
0.0004049001088
0.0004263065599
0.0004465175933
0.0004654903382
0.0004831893863
0.0004995873952
0.0005146656917
0.0005284150308
0.0005408365126
0.0005519425275
0.0005617575659
0.0005703187841
0.0005776762711
0.0005838929623
0.00058904411
0.0005932161704
0.0005965049682
0.000599013057
0.0006008463378
0.0006021102252
0.0006029057939
0.0006033264959
0.0006034559642
0.0006033676919
0.000603124806
0.0006027805667
0.000602378123
0.000601952035
0.0006015298044
0.0006011330983
0.0006007786479
0.0006004790216
0.0006002433569
0.0006000784292
0.0005999895668
0.0005999278905
-13.14970091
-26.06935019
-38.55185709
-50.42578116
-61.5641437
-71.88621029
-81.35347644
-89.96238122
-97.73587124
-104.7152829
-110.9533573
-116.5086966
-121.4416486
-125.8114378
-129.6743016
-133.0823856
-136.0831887
-138.7193846
-141.0288887
-143.0450753
-144.7970761
-146.3101139
-147.6058407
-148.7026601
-149.6160232
-150.3586905
-150.9409562
-151.3708348
-151.654209
-151.79494
1.624676829e-05
4.722590228e-05
7.807569516e-05
0.0001087954228
0.000139205278
0.0001691994977
0.0001986936802
0.0002276027804
0.0002558427128
0.0002833324132
0.0003099944562
0.000335754926
0.0003605434424
0.0003842936818
0.0004069439826
0.000428437871
0.0004487246925
0.0004677603744
0.0004855081561
0.0005019392286
0.0005170334056
0.0005307799544
0.0005431785876
0.000554240495
0.0005639892783
0.0005724616855
0.000579708082
0.0005857925807
0.0005907927037
0.0005947983934
0.000597910182
0.0006002363648
0.000601889158
0.0006029802064
0.0006036159134
0.0006038933141
0.0006038974744
0.0006037023848
0.0006033707521
0.0006029553294
0.0006024971188
0.0006020281599
0.0006015736675
0.0006011533626
0.0006007823472
0.0006004718212
0.0006002298959
0.0006000625452
0.0005999743181
0.0005999202798
-13.58816224
-26.91083862
-39.72937964
-51.85523316
-63.15760985
-73.56233507
-83.04384011
-91.61411724
-99.31149623
-106.1908604
-112.3159291
-117.7536186
-122.5701905
-126.8288039
-130.5880979
-133.9014953
-136.8169849
-139.3772064
-141.6197151
-143.5773399
-145.2785803
-146.7480062
-148.0066386
-149.0722986
-149.9599187
-150.6818119
-151.2479005
-151.6659031
-151.9414818
-152.0783514
1.638462797e-05
4.761350288e-05
7.870853168e-05
0.0001096720805
0.0001403220528
0.000170551686
0.0002002758916
0.0002294087737
0.0002578653454
0.0002855636191
0.0003124251591
0.0003383748983
0.0003633411792
0.0003872563284
0.0004100572745
0.0004316860239
0.0004520902265
0.0004712239058
0.0004890482007
0.0005055320479
0.0005206529087
0.000534397672
0.0005467637455
0.0005577602398
0.0005674091191
0.0005757462182
0.0005828220505
0.0005887023013
0.000593467836
0.0005972139779
0.000600048773
0.0006020899483
0.0006034603298
0.0006042820334
0.0006046705751
0.0006047287409
0.0006045428974
0.0006041872243
0.0006037234051
0.0006032039843
0.0006026657105
0.0006021360369
0.0006016363856
0.0006011835017
0.0006007899706
0.0006004647811
0.0006002142002
0.0006000426158
0.0005999534953
0.000599905726
-14.2935596
-28.25646237
-41.59958963
-54.10816194
-65.64872744
-76.16168002
-85.6454317
-94.13875146
-101.7051362
-108.4207333
-114.3658803
-119.6196583
-124.2566913
-128.3454894
-131.9477909
-135.1185132
-137.9060494
-140.3527414
-142.4954258
-144.3659892
-145.9918993
-147.3966923
-148.6004092
-149.6199777
-150.4695414
-151.1607383
-151.7029314
-152.1033958
-152.367464
-152.4986328
1.65686915e-05
4.813132171e-05
7.955589491e-05
0.0001108475409
0.0001418210173
0.0001723680376
0.0002024024789
0.000231837322
0.0002605863738
0.0002885663573
0.0003156974424
0.0003419030559
0.0003671099341
0.0003912486971
0.0004142544287
0.0004360670861
0.0004566320143
0.0004759006581
0.0004938313151
0.0005103898428
0.0005255504275
0.0005392965614
0.0005516222658
0.0005625334847
0.0005720495382
0.0005802045386
0.0005870486859
0.0005926493145
0.000597091471
0.0006004776981
0.0006029266203
0.0006045697862
0.0006055461215
0.000605993739
0.0006060420439
0.0006058034019
0.0006053628003
0.0006047933335
0.0006041546569
0.0006035019299
0.0006028634812
0.0006022589837
0.0006017042457
0.0006012123526
0.0006007925707
0.000600450748
0.0006001904848
0.0006000140287
0.0005999234942
0.000599881219
-15.33105888
-30.2218616
-44.30435452
-57.32909749
-69.16745794
-79.79022587
-89.23745526
-97.5903208
-104.9495637
-111.4210566
-117.1072005
-122.1024431
-126.4914272
-130.3486718
-133.7390634
-136.7187175
-139.3359583
-141.6322844
-143.6432578
-145.3992922
-146.9263358
-148.246455
-149.3783286
-150.337662
-151.1375315
-151.7886689
-152.2996914
-152.6772852
-152.9263463
-153.0500831
1.679921267e-05
4.878157523e-05
8.06213404e-05
0.0001123264939
0.0001437079491
0.0001746554707
0.0002050815823
0.0002348978261
0.000264016464
0.0002923525893
0.0003198246623
0.0003463543076
0.000371866344
0.0003962893224
0.0004195560485
0.0004416039267
0.0004623754243
0.0004818187575
0.0004998886325
0.0005165469515
0.0005317636035
0.0005455175134
0.0005577980161
0.0005686065047
0.0005779582625
0.0005858843989
0.0005924338087
0.0005976750167
0.0006016976382
0.0006046130634
0.0006065539149
0.00060767105
0.0006081255507
0.0006080820074
0.0006076883011
0.0006070747567
0.0006063145368
0.000605482494
0.0006046245621
0.0006038150186
0.0006030637254
0.0006023763167
0.0006017606813
0.0006012269529
0.000600780562
0.0006004229357
0.0006001540433
0.0005999734696
0.0005998817417
0.0005998434518
-16.81025285
-32.99557061
-48.0668693
-61.73641555
-73.90178097
-84.5943103
-93.92384274
-102.0355129
-109.0817413
-115.2067292
-120.5394221
-125.1914865
-129.257903
-132.8187075
-135.9410738
-138.6813355
-141.0867823
-143.1971804
-145.0460293
-146.6615866
-148.0676971
-149.2844638
-150.3287889
-151.2148105
-151.9542542
-152.5567149
-153.0298808
-153.3797079
-153.6105535
-153.7252706
1.70771582e-05
4.956697592e-05
8.190922038e-05
0.0001141149351
0.0001459904373
0.0001774231672
0.0002083239899
0.0002386026859
0.0002681696559
0.0002969380735
0.0003248244218
0.0003517482565
0.0003776321831
0.0004024023425
0.0004259888681
0.000448326159
0.0004693532804
0.0004890145984
0.0005072604752
0.0005240479368
0.0005393414553
0.0005531140503
0.0005653488093
0.0005760408122
0.0005851994001
0.0005928507447
0.0005990406674
0.0006038375818
0.0006073352581
0.0006096549623
0.000610946813
0.0006113884644
0.0006111672754
0.0006104948923
0.000609553239
0.0006084865527
0.0006073397095
0.0006061989356
0.0006050752115
0.0006040980188
0.0006032341003
0.0006024643362
0.0006017861486
0.0006012120381
0.0006007433026
0.0006003744646
0.0006001006589
0.0005999183653
0.0005998264396
0.0005997900047
-18.91581248
-36.88329871
-53.23113648
-67.64791444
-80.10894011
-90.76139167
-99.82809263
-107.5461467
-114.1351595
-119.7846972
-124.6522723
-128.866178
-132.5299909
-135.7271819
-138.5251889
-140.9787688
-143.1326554
-145.0236259
-146.682093
-148.1333282
-149.3984027
-150.4949147
-151.4375533
-152.2385376
-152.9079605
-153.4540564
-153.8834094
-154.2011129
-154.4108896
-154.5151757
1.740359592e-05
5.049073773e-05
8.342471032e-05
0.000116219966
0.0001486774951
0.0001806820298
0.00021214248
0.000242966568
0.000273062557
0.0003023414514
0.000330717523
0.0003581080183
0.0003844330689
0.0004096161141
0.0004335842863
0.0004562685986
0.0004776042562
0.0004975312036
0.0005159947281
0.0005329460422
0.0005483430057
0.0005621512318
0.0005743457162
0.0005849130201
0.0005938539994
0.0006011870955
0.000606952205
0.0006112150644
0.0006140718314
0.0006156531696
0.0006161277485
0.0006157054851
0.0006146419868
0.0006131659462
0.0006115363542
0.0006099498115
0.000608351998
0.0006068559161
0.0006054352344
0.0006043048636
0.0006033472355
0.0006025049299
0.000601762027
0.0006011506701
0.0006006701216
0.0006002995615
0.0006000276543
0.0005998477668
0.0005997574387
0.0005997206498
-21.9711195
-42.39067527
-60.32646346
-75.51516563
-88.12467341
-98.51422375
-107.0809895
-114.1858221
-120.128053
-125.1446278
-129.4187923
-133.0909627
-136.268701
-139.0348406
-141.4537316
-143.5758959
-145.441445
-147.0825752
-148.5253892
-149.791231
-150.8976714
-151.8592398
-152.6879725
-153.3938267
-153.9849946
-154.4681415
-154.848588
-155.1304456
-155.316717
-155.4093672
1.77798167e-05
5.155650815e-05
8.517372289e-05
0.0001186497288
0.0001517794587
0.0001844445525
0.0002165516891
0.000248006269
0.0002787141761
0.0003085840282
0.0003375276826
0.0003654598763
0.0003922980613
0.0004179627576
0.0004423778554
0.0004654706961
0.0004871722614
0.0005074175885
0.0005261462282
0.000543302674
0.0005588369497
0.0005727056342
0.0005848735133
0.0005953159479
0.0006040220262
0.0006109986063
0.0006162753931
0.000619911086
0.0006220001187
0.0006226786445
0.0006221362247
0.0006206244619
0.0006184818741
0.0006159562682
0.0006134724191
0.0006113220443
0.0006093182627
0.0006074292742
0.0006056187786
0.0006044135869
0.0006034001564
0.0006025017868
0.0006016669996
0.0006010208805
0.0006005523691
0.0006001954745
0.0005999353779
0.000599763369
0.0005996769603
0.0005996381091
-26.57939984
-50.38181948
-70.16887645
-85.96161124
-98.36036424
-108.0898406
-115.7958196
-121.9880995
-127.0466028
-131.2469691
-134.7873066
-137.81018
-140.4190102
-142.6897483
-144.6790015
-146.4296387
-147.9746541
-149.3398414
-150.5456581
-151.6085359
-152.5418129
-153.3564012
-154.0612708
-154.663803
-155.1700502
-155.5849279
-155.9123565
-156.1553651
-156.3161666
-156.3962093
1.820737145e-05
5.276842769e-05
8.716293198e-05
0.0001214134115
0.0001553079834
0.0001887248154
0.0002215681025
0.0002537406859
0.0002851458546
0.0003156896515
0.0003452813538
0.0003738330433
0.0004012593598
0.000427477779
0.0004524088181
0.0004759759837
0.0004981058041
0.0005187280625
0.0005377760444
0.000555186729
0.0005709011343
0.0005848651304
0.0005970309667
0.0006073596708
0.0006158244898
0.0006224156201
0.0006271465539
0.0006300621347
0.000631247299
0.0006308374165
0.0006290388356
0.0006261310847
0.0006225676059
0.0006185487877
0.0006152464616
0.0006126334474
0.0006106267755
0.0006096982894
0.0006040294426
0.0006039857225
0.0006031421474
0.0006023421797
0.0006011139711
0.0006007422719
0.0006003857105
0.0006000643144
0.0005998288547
0.0005996703242
0.0005995899846
0.0005995482739
-33.96605499
-62.38832644
-84.00561165
-99.80203871
-111.2653319
-119.6889548
-126.0243489
-130.9241539
-134.8232898
-138.0093394
-140.6732853
-142.9434409
-144.907412
-146.6261415
-148.142888
-149.4890038
-150.6876918
-151.7564791
-152.7088665
-153.5554423
-154.3046438
-154.9632821
-155.5369074
-156.0300651
-156.4464762
-156.7891644
-157.0605458
-157.2624926
-157.3963757
-157.4630948
1.868805594e-05
5.413114903e-05
8.939978763e-05
0.0001245212531
0.0001592760443
0.0001935384773
0.0002272100254
0.00026019075
0.0002923811513
0.0003236845385
0.0003540074903
0.0003832593518
0.0004113519055
0.000438199567
0.0004637194805
0.0004878313125
0.0005104570895
0.0005315211985
0.000550950351
0.0005686734341
0.0005846214725
0.0005987280502
0.0006109304863
0.000621172006
0.0006294052012
0.000635597204
0.0006397372019
0.0006418465598
0.0006419887093
0.0006402835085
0.0006369278304
0.0006321854604
0.0006268237359
0.00062075176
0.0006172621763
0.0006162562388
0.0006065179064
159.2326402
163.440031
81.06532268
79.70494863
159.7594194
154.8885094
0.0006007169035
0.0006001215392
0.000599908204
0.0005997229207
0.0005995781742
0.0005995039958
0.0005994600144
-46.89786664
-81.19981976
-103.6632051
-117.9756002
-127.2099699
-133.3762983
-137.6884676
-140.8608777
-143.3130634
-145.2938141
-146.9530548
-148.3828868
-149.641056
-150.7645183
-151.7774058
-152.6957973
-153.530631
-154.2895175
-154.9778872
-155.5997238
-156.1580389
-156.6551769
-157.0930124
-157.4730748
-157.7966261
-158.0647085
-158.2781709
-158.4376846
-158.54375
-158.5966998
1.922390536e-05
5.564984691e-05
9.189253545e-05
0.0001279845665
0.0001636979585
0.0001989027849
0.0002334975659
0.0002673793732
0.0003004457418
0.0003325971219
0.0003637373242
0.0003937729476
0.0004226129663
0.0004501688419
0.0004763545008
0.0005010859548
0.0005242809155
0.0005458585135
0.0005657389035
0.0005838426609
0.0006000901955
0.0006144015461
0.0006266968901
0.0006368980986
0.0006449317697
0.0006507343281
0.0006542601974
0.0006554946221
0.0006544709779
0.0006512623544
0.0006459698455
0.0006386265545
0.0006321290701
0.0006276885062
0.0006079261296
34.84057947
22.97519015
86.53867588
100.4119184
81.11560994
77.99439522
91.3940876
72.84322953
7.120787695
20.04177232
0.0005998516391
0.0005995737901
0.0005994798412
0.0005994274047
0.0005993788123
-72.42692934
-111.8498811
-131.4717888
-141.2271872
-146.2226494
-148.917801
-150.4923458
-151.5178262
-152.2742724
-152.8997991
-153.4622337
-153.9939959
-154.5094077
-155.0134704
-155.5064204
-155.9861495
-156.4495181
-156.8930738
-157.3134417
-157.707528
-158.072612
-158.4063753
-158.7068917
-158.9725966
-159.2022461
-159.3948735
-159.5497459
-159.6663262
-159.744241
-159.7832552
1.981721362e-05
5.733025764e-05
9.465027156e-05
0.0001318158046
0.0001685894519
0.0002048366304
0.0002404526737
0.0002753314579
0.0003093673922
0.0003424579717
0.0003745042193
0.0004054100482
0.0004350817709
0.0004634281313
0.0004903601648
0.0005157906384
0.0005396334227
0.0005618028936
0.0005822131117
0.0006007766536
0.0006174032961
0.0006319989056
0.0006444648774
0.0006546985324
0.0006625950336
0.0006680515691
0.0006709759131
0.0006713058682
0.0006690513357
0.000664252439
0.0006567584545
0.0006448396468
0.0006392078843
130.7469844
40.0244793
42.48481748
44.42193287
63.53498398
70.553356
64.99080356
59.76293482
54.97930552
37.96931674
9.497996192
-0.8553542149
-8.831201892
80.69955387
0.0005993916884
0.0005993709733
0.0005993346254
-130.9612416
-162.3009869
-169.1468818
-169.2387105
-167.5356398
-165.5799109
-163.8452889
-162.4438092
-161.3664016
-160.5688767
-160.0020856
-159.6214561
-159.3891091
-159.2735362
-159.2486566
-159.2928632
-159.3882192
-159.5198186
-159.6752791
-159.8443353
-160.0185069
-160.1908218
-160.3555837
-160.5081748
-160.6448896
-160.7627948
-160.8596142
-160.9336347
-160.9836337
-161.0088256
2.0470565e-05
5.917873884e-05
9.768302369e-05
0.0001360286583
0.0001739677669
0.0002113606597
0.0002480992407
0.0002840739825
0.0003191760154
0.0003532998074
0.000386343614
0.000418208788
0.0004487992193
0.0004780213017
0.0005057836867
0.0005319965522
0.0005565707306
0.0005794167799
0.0006004436963
0.0006195570929
0.000636656987
0.0006516354848
0.0006643746576
0.0006747450107
0.0006826050457
0.0006878029128
0.0006901876282
0.0006896531616
0.0006862433477
0.0006800367634
0.0006713531579
0.0006535402055
130.9470078
96.01164646
60.76650365
50.65228231
48.69273993
52.62597127
53.27571816
48.53131358
41.08723505
30.79088303
14.55673581
-6.242765358
-24.13020628
-41.26934017
-55.32151351
-142.7296176
0.0005993180193
219.2794556
-289.1181888
-237.2459436
-213.5760413
-199.0451336
-189.1012887
-182.0209143
-176.8650902
-173.0457207
-170.1786487
-168.0072211
-166.3557766
-165.1006345
-164.1520374
-163.4429096
-162.9218077
-162.5484283
-162.2906779
-162.1227036
-162.0235219
-161.9760285
-161.9662597
-161.9828225
-162.0164477
-162.0596307
-162.1063439
-162.1518034
-162.1922827
-162.2249659
-162.247835
-162.2595887
2.118686959e-05
6.120233907e-05
0.0001010018505
0.0001406381825
0.0001798518083
0.0002184974328
0.0002564632691
0.0002936361659
0.0003299038194
0.0003651576084
0.0003992930708
0.0004322091738
0.0004638077041
0.000493993193
0.0005226725907
0.0005497543891
0.0005751475343
0.0005987601869
0.0006204979769
0.0006402614994
0.0006579430979
0.0006734230764
0.0006865654431
0.0006972132443
0.0007051828466
0.0007102567546
0.0007121950059
0.000710825854
0.0007061471943
0.0006966412651
0.0006810684227
0.0007161450121
40.82462658
61.58606661
56.37760664
50.66506827
47.07077337
45.00044311
41.39223187
34.77149764
25.26380889
12.54025583
-4.290491095
-24.89558707
-48.15336529
-76.79443892
-117.9869204
-193.4575658
277.9688698
475.3273733
-316.6378131
-283.9885577
-248.8662063
-224.264494
-207.8034677
-196.5373676
-188.5484375
-182.6953353
-178.2952521
-174.9255833
-172.3131659
-170.273269
-168.6754971
-167.4242581
-166.4472375
-165.6883655
-165.1033617
-164.6567974
-164.3200775
-164.0699985
-163.8876821
-163.7577625
-163.6677552
-163.6075579
-163.5690534
-163.5457936
-163.532749
-163.5261129
-163.5231533
-163.5221064
2.196940531e-05
6.340888388e-05
0.0001046189689
0.0001456609626
0.0001862623456
0.0002262716554
0.0002655731238
0.0003040497307
0.0003415855652
0.0003780688492
0.0004133924617
0.000447453189
0.0004801510915
0.0005113894206
0.0005410742561
0.0005691135312
0.0005954157877
0.0006198886978
0.0006424369408
0.0006629590979
0.0006813434834
0.0006974628404
0.0007111676574
0.0007222774241
0.0007305664489
0.0007357375384
0.0007374176596
0.0007352972801
0.0007293231498
0.000713572899
0.0006891696379
36.02836049
44.66565339
53.13038684
52.49278813
48.55961088
43.92484229
38.91279603
32.52126866
23.89863634
12.6562471
-1.603177402
-19.36336888
-40.89572646
-66.79322884
-99.7681298
-146.3741632
-222.2059535
-364.9734457
1020.699008
-468.7725883
-333.2042683
-273.6357325
-241.343169
-221.3107207
-207.7766517
-198.0959575
-190.8919317
-185.3814416
-181.086695
-177.6980356
-175.0037793
-172.8524251
-171.1313893
-169.7545198
-168.6544357
-167.7776072
-167.0810481
-166.5299936
-166.0962075
-165.7567091
-165.4927917
-165.2892544
-165.1337938
-165.0165198
-164.9295704
-164.8668084
-164.8235849
-164.7965606
-164.7835781
2.282186934e-05
6.580708485e-05
0.0001085479167
0.0001511153307
0.0001932222787
0.0002347104882
0.0002754598776
0.0003153492728
0.0003542589473
0.0003920738725
0.0004286843131
0.0004639850809
0.0004978749104
0.0005302564107
0.0005610357201
0.0005901215038
0.0006174236434
0.0006428516447
0.0006663123072
0.0006877062494
0.0007069231136
0.0007238351948
0.0007382889442
0.0007500931222
0.0007589974144
0.0007646417037
0.0007665147795
0.0007642055966
0.0007587050008
0.0007229437039
0.0007802771732
25.54539815
48.67924003
53.77703935
51.90354831
47.15574493
41.15618899
34.20463017
25.88141053
15.64553205
3.065720683
-12.24584359
-30.66408048
-52.530721
-78.35569379
-109.1106882
-145.5356492
-184.0209726
-197.2086308
833.1943324
-350.9743518
-306.4201952
-271.1292867
-246.1617292
-228.3195949
-215.1625614
-205.1668098
-197.3949932
-191.2518884
-186.3417205
-182.3885032
-179.1913887
-176.5990358
-174.4943554
-172.785018
-171.3972516
-170.2715849
-169.3597957
-168.6226427
-168.0281306
-167.5501568
-167.1674424
-166.8626786
-166.6218451
-166.4336633
-166.2891616
-166.1813313
-166.1048595
-166.0559279
-166.0320683
2.374843746e-05
6.840666952e-05
0.0001128037489
0.0001570216283
0.0002007569628
0.0002438439285
0.0002861577412
0.0003275727309
0.0003679650923
0.0004072164036
0.0004452143179
0.0004818518479
0.000517026783
0.0005506417255
0.0005826038271
0.0006128238424
0.0006412148683
0.0006676908042
0.0006921640514
0.0007145420267
0.0007347223103
0.0007525861895
0.0007679901099
0.000780754397
0.0007906447939
0.0007973193205
0.0008002229104
0.0007985101993
0.0007986583698
0.0007268899205
161.3611938
91.3741696
70.72886931
61.39498239
54.18862095
47.00363171
39.3395387
30.86812526
21.15421135
9.736360741
-3.793052737
-19.78183709
-38.51638838
-60.20738325
-84.98813712
-112.7832799
-142.6367728
-171.1336576
-191.1054317
-206.5881055
-266.9258069
-270.3728742
-258.2994903
-243.8548669
-230.6433687
-219.3871901
-210.0137278
-202.2693436
-195.8893994
-190.6397964
-186.322869
-182.7742376
-179.8579755
-177.4619796
-175.4939467
-173.8779695
-172.5516864
-171.4639087
-170.5726527
-169.8435169
-169.248347
-168.7641442
-168.3721745
-168.0572464
-167.8071287
-167.6120834
-167.4644975
-167.3585959
-167.2902253
-167.2566999
2.475382953e-05
7.121852906e-05
0.0001174032642
0.0001634025111
0.0002088945876
0.0002537052577
0.0002977045738
0.0003407619535
0.0003827491744
0.0004235442056
0.0004630320223
0.0005011039429
0.0005376571244
0.0005725947311
0.0006058258186
0.0006372645313
0.0006668290142
0.0006944400953
0.0007200192599
0.0007434854983
0.0007647509354
0.0007837152751
0.0008002593981
0.0008142399992
0.0008254882073
0.0008338052672
0.0008389717265
0.0008411012085
0.0008441192562
0.0008550926912
167.1185734
107.8612172
81.46708538
66.88540011
56.45232156
47.33062241
38.33020901
28.77412096
18.130949
5.938752413
-8.192455192
-24.57206357
-43.41225264
-64.79428649
-88.60619148
-114.3975217
-141.0945047
-166.7714532
-189.4931554
-211.5660434
-239.7651578
-249.8460049
-247.8409338
-240.3148798
-231.0118236
-221.7291033
-213.2315686
-205.779255
-199.3965703
-194.0051979
-189.4889398
-185.7247187
-182.5966503
-180.0016424
-177.8508213
-176.0689948
-174.5932844
-173.3715017
-172.3605445
-171.5249392
-170.8355721
-170.2686149
-169.8046306
-169.4278396
-169.1255237
-168.8875481
-168.7059816
-168.5748033
-168.4896798
-168.4478072
2.584338157e-05
7.425488437e-05
0.0001223652611
0.0001702832955
0.0002176666102
0.0002643315558
0.0003101424742
0.0003549633628
0.0003986611491
0.0004411098823
0.0004821916928
0.0005217962045
0.0005598201359
0.0005961676472
0.0006307504322
0.0006634871415
0.0006943025773
0.0007231267461
0.0007498932857
0.0007745368147
0.0007969890498
0.0008171736004
0.0008349994544
0.0008503536627
0.0008630910563
0.0008730096356
0.0008798640567
0.0008837551817
0.0008861914362
0.0008759855591
86.20145918
91.48503987
80.39285509
68.2272113
57.40464297
47.53632754
37.87655412
27.76720071
16.65671142
4.08015522
-10.34345678
-26.90170928
-45.76627209
-66.95131856
-90.24482065
-115.1061106
-140.5722712
-165.3644954
-188.5296935
-210.4177555
-230.7227762
-241.4050544
-242.9033606
-238.5518957
-231.3599434
-223.2858317
-215.4041891
-208.2195386
-201.9124298
-196.4954864
-191.9029749
-188.0390485
-184.8022661
-182.0971199
-179.8387031
-177.9539056
-176.3809567
-175.0682711
-173.9730862
-173.0601252
-172.3003894
-171.6701149
-171.1498957
-170.7239598
-170.3795809
-170.1066057
-169.8970799
-169.7449582
-169.6458859
-169.597043
2.70231265e-05
7.752947379e-05
0.000127710829
0.0001776923514
0.0002271082461
0.0002757642868
0.0003235184574
0.0003702287215
0.0004157566114
0.000459971829
0.0005027533693
0.0005439890212
0.0005835750961
0.0006214169877
0.0006574295228
0.000691536682
0.0007236711782
0.0007537740241
0.0007817936123
0.000807683827
0.000831400926
0.0008528988015
0.0008721217186
0.0008889923303
0.0009033854659
0.0009150617017
0.0009236003792
0.0009286778707
0.0009308295489
0.0009148007358
86.20129863
91.48462822
80.392084
68.22594727
57.40271167
47.53349086
37.87247941
27.76141652
16.64854088
4.068613956
-10.35981776
-26.92504459
-45.79980784
-66.999895
-90.31566193
-115.209829
-140.7239743
-165.5845639
-188.8433681
-210.8525091
-231.3031377
-242.1480763
-243.8155592
-239.6293996
-232.5902232
-224.6500918
-216.8798185
-209.7822816
-203.5381251
-198.1613442
-193.5884265
-189.7262355
-186.4762475
-183.7458697
-181.4529672
-179.5269698
-177.9083676
-176.5475418
-175.4034062
-174.4420883
-173.6357477
-172.961562
-172.4008797
-171.9385253
-171.5622367
-171.2622163
-171.0307766
-170.8620661
-170.7518649
-170.6974373
2.829988531e-05
8.105776592e-05
0.0001334636775
0.0001856615474
0.0002372590253
0.0002880499619
0.0003378852237
0.0003866160071
0.0004340977786
0.0004801953336
0.0005247840971
0.0005677497177
0.0006089879331
0.0006484053617
0.0006859201451
0.0007214620207
0.0007549723674
0.0007864044245
0.0008157232691
0.0008429051403
0.0008679359442
0.0008908085771
0.0009115177379
0.0009300489386
0.0009463522074
0.0009602688913
0.0009713749071
0.000978829135
0.0009806343081
0.0009191006477
167.1181553
107.8600906
81.46490567
66.88178234
56.4467658
47.32244505
38.31845633
28.75744526
18.10742178
5.905577622
-8.239383518
-24.6388434
-43.50801964
-64.93279165
-88.80810305
-114.6935694
-141.5292332
-167.4064178
-190.406706
-212.8457756
-241.4891895
-252.0685543
-250.581401
-243.559921
-234.7214591
-225.8444946
-217.6827125
-210.4916452
-204.2964461
-199.0233403
-194.5631529
-190.8012213
-187.6306203
-184.957146
-182.7003283
-180.7926406
-179.1780041
-177.8101245
-176.6509106
-175.6690762
-174.8389534
-174.1395081
-173.5535384
-173.0670274
-172.6686269
-172.349249
-172.1017464
-171.9206675
-171.8020729
-171.7434053
2.968137098e-05
8.485720172e-05
0.0001396505106
0.0001942267555
0.0002481634235
0.0003012408922
0.0003533020297
0.0004041904026
0.0004537546061
0.0005018538287
0.0005483593367
0.0005931541544
0.000636133062
0.0006772036143
0.0007162870799
0.0007533188867
0.0007882491711
0.0008210437197
0.0008516850121
0.0008801731642
0.0009065270293
0.0009307858966
0.000953012001
0.0009732964072
0.0009917864247
0.001008762411
0.001024534586
0.001038371103
0.001048921395
0.001158293472
161.3608412
91.37267272
70.72566598
61.38951087
54.18012438
46.99106744
39.3214558
30.84248659
21.11812355
9.685658414
-3.86445041
-19.88292577
-38.66063559
-60.41514889
-85.29038927
-113.2271122
-143.2929716
-172.1051683
-192.5312628
-208.6346983
-269.7392909
-274.0555508
-262.8815703
-249.307425
-236.8911983
-226.323716
-217.514893
-210.2051419
-204.1326753
-199.0724192
-194.839625
-191.2848782
-188.2878681
-185.7517677
-183.5985615
-181.7652623
-180.2008859
-178.8640438
-177.7210378
-176.7443552
-175.911484
-175.2039812
-174.6067409
-174.1074216
-173.6959972
-173.364409
-173.1062953
-172.9167873
-172.7923565
-172.7307073
3.117630815e-05
8.894747252e-05
0.0001463014565
0.0002034284312
0.0002598715857
0.0003153960507
0.0003698356844
0.0004230254272
0.000474806057
0.0005250303136
0.0005735645617
0.0006202885417
0.0006650954765
0.0007078932872
0.0007486057948
0.0007871735077
0.0008235546323
0.00085772666
0.0008896883554
0.0009194621162
0.000947097225
0.0009726748554
0.0009963157209
0.001018194073
0.001038574851
0.001057880849
0.001076580346
0.001094744712
0.001114588648
0.001172384622
0.001043344736
25.54394958
48.67557492
53.77047103
51.89315368
47.14024479
41.13381307
34.17292197
25.83692761
15.58338305
2.978849367
-12.36777357
-30.83644801
-52.77677902
-78.71119294
-109.6315187
-146.3103728
-185.190021
-198.9872164
830.5270085
-354.782996
-311.5327884
-277.5819049
-253.8970112
-237.2121938
-225.0442793
-215.8480026
-208.6813552
-202.9566953
-198.294038
-194.4380512
-191.2108003
-188.4842079
-186.1634974
-184.1768896
-182.4689635
-180.9962357
-179.7241295
-178.624844
-177.6758253
-176.8586489
-176.1581943
-175.5620252
-175.0599235
-174.6435343
-174.3060972
-174.0422414
-173.8478329
-173.7198613
-173.6563615
3.279457315e-05
9.335084403e-05
0.0001534505689
0.0002133122907
0.0002724401728
0.0003305820795
0.0003875617126
0.0004432042508
0.0004973415719
0.0005498189889
0.0006004970818
0.0006492514895
0.0006959730921
0.0007405693635
0.0007829657619
0.0008231067802
0.0008609573085
0.0008965046819
0.0009297613137
0.0009607679829
0.0009895983694
0.001016365785
0.00104123302
0.001064427547
0.001086271814
0.001107237981
0.001127939529
0.001148861596
0.001170624237
0.001203134551
0.001270005949
36.02733361
44.66221348
53.12364495
52.48177477
48.54294522
43.90062996
38.87846084
32.47328205
23.83209699
12.56423855
-1.730569775
-19.54060376
-41.1443262
-67.14608477
-100.2773969
-147.1269799
-223.3573276
-366.8181376
1017.663535
-473.4312034
-339.7107022
-282.0162505
-251.4865219
-233.0162875
-220.7932056
-212.1514843
-205.7155823
-200.7187143
-196.7089876
-193.4077433
-190.6360657
-188.2746678
-186.2411264
-184.4765381
-182.9374686
-181.5909663
-180.4113968
-179.3783862
-178.4754555
-177.6890949
-177.0081246
-176.4232451
-175.9267157
-175.5121223
-175.174207
-174.9087433
-174.7124445
-174.5828974
-174.5185174
3.454735995e-05
9.809253952e-05
0.000161136422
0.0002239301172
0.0002859333703
0.0003468744913
0.0004065657377
0.0004648212527
0.0005214627978
0.0005763271611
0.0006292681371
0.0006801563229
0.0007288793349
0.000775343219
0.0008194739171
0.0008612184654
0.0009005465574
0.0009374528196
0.0009719597339
0.001004121321
0.001034028149
0.001061814462
0.001087668
0.00111184317
0.001134681274
0.001156642236
0.001178301996
0.001200148161
0.001222483376
0.001249042082
0.001290653885
0.001175576855
40.82208668
61.58012078
56.36735553
50.64913164
47.04730097
44.96700961
41.34564299
34.70748451
25.17657777
12.42185981
-4.451070956
-25.11383721
-48.45142299
-77.2050044
-118.5628224
-194.302876
276.5575313
472.3635397
-321.9295186