/*--------------------------------*- C++ -*----------------------------------*\
  =========                 |
  \\      /  F ield         | OpenFOAM: The Open Source CFD Toolbox
   \\    /   O peration     | Website:  https://openfoam.org
    \\  /    A nd           | Version:  10
     \\/     M anipulation  |
\*---------------------------------------------------------------------------*/
FoamFile
{
    format      ascii;
    class       surfaceScalarField;
    location    "0.008";
    object      phi;
}
// * * * * * * * * * * * * * * * * * * * * * * * * * * * * * * * * * * * * * //

dimensions      [0 3 -1 0 0 0 0];

internalField   nonuniform List<scalar> 
38080
(
-1.04901931e-12
-6.607883425e-15
-1.040899237e-12
-8.119955856e-15
-1.030898692e-12
-9.999867542e-15
-1.018575668e-12
-1.232183675e-14
-1.003644223e-12
-1.49298605e-14
-9.85972275e-13
-1.766986107e-14
-9.655196584e-13
-2.045007471e-14
-9.423056777e-13
-2.321098978e-14
-9.163922553e-13
-2.591003205e-14
-8.878728719e-13
-2.851566545e-14
-8.568657446e-13
-3.100302396e-14
-8.235105102e-13
-3.335073592e-14
-7.879669497e-13
-3.553881261e-14
-7.504147926e-13
-3.754727683e-14
-7.110544142e-13
-3.93553502e-14
-6.701082258e-13
-4.094099159e-14
-6.278223599e-13
-4.228059708e-14
-5.844683698e-13
-4.334882342e-14
-5.403448202e-13
-4.4118625e-14
-4.957785816e-13
-4.456161952e-14
-4.511254321e-13
-4.464887375e-14
-4.067693896e-13
-4.435219111e-14
-3.631201192e-13
-4.364599154e-14
-3.206077265e-13
-4.250987124e-14
-2.796742575e-13
-4.093187928e-14
-2.407613031e-13
-3.891243298e-14
-2.042933515e-13
-3.646860613e-14
-1.70657024e-13
-3.363826435e-14
-1.401771637e-13
-3.048320815e-14
-1.130919039e-13
-2.709017422e-14
-8.953018097e-14
-2.356837189e-14
-6.949628982e-14
-2.004243463e-14
-5.286623434e-14
-1.664063149e-14
-3.939896019e-14
-1.347999526e-14
-2.87620335e-14
-1.065188406e-14
-2.056785032e-14
-8.211450836e-15
-1.441166355e-14
-6.175821339e-15
-9.900391414e-15
-4.533308855e-15
-6.673435231e-15
-3.251401411e-15
-4.415036081e-15
-2.285219031e-15
-2.864751355e-15
-1.579403775e-15
-1.818802448e-15
-1.077255866e-15
-1.124174003e-15
-7.279709183e-16
-6.694735214e-16
-4.898848653e-16
-3.757128804e-16
-3.305894648e-16
-1.883514234e-16
-2.25604182e-16
-7.114811179e-17
-1.566021348e-16
-2.156249349e-18
-1.092717139e-16
2.540049866e-17
-6.844096312e-17
1.294334474e-21
1.412196796e-27
1.272225934e-21
2.210854018e-23
1.23179132e-21
4.043460844e-23
1.174897335e-21
5.689397906e-23
1.10550828e-21
6.938905101e-23
1.027791252e-21
7.77170246e-23
9.456588171e-22
8.213243258e-23
8.624585866e-22
8.320022971e-23
7.808264656e-22
8.163212153e-23
7.0267181e-22
7.815465754e-23
6.292477997e-22
7.342401367e-23
5.612641484e-22
6.798365618e-23
4.990107151e-22
6.225343981e-23
4.424728074e-22
5.653791573e-23
3.914287828e-22
5.104403434e-23
3.455271662e-22
4.590162806e-23
3.043443174e-22
4.118286188e-23
2.674254734e-22
3.69188588e-23
2.343125181e-22
3.311297169e-23
2.045616752e-22
2.975086096e-23
1.777538491e-22
2.680784548e-23
1.534997913e-22
2.425407879e-23
1.314417416e-22
2.205807203e-23
1.112527588e-22
2.018900635e-23
9.263459673e-23
1.861818696e-23
7.531471534e-23
1.731990735e-23
5.904282048e-23
1.627192176e-23
4.35871796e-23
1.545566857e-23
2.873086279e-23
1.485634515e-23
1.426798777e-23
1.446290388e-23
1.426801709e-23
-1.064617937e-12
-1.353047549e-14
-1.056639447e-12
-1.609714546e-14
-1.046628093e-12
-2.000910553e-14
-1.034173237e-12
-2.477371004e-14
-1.019042013e-12
-3.005730882e-14
-1.001106588e-12
-3.560063888e-14
-9.803276673e-13
-4.122362024e-14
-9.567283481e-13
-4.680430835e-14
-9.303739258e-13
-5.225775951e-14
-9.013602773e-13
-5.752193153e-14
-8.698073881e-13
-6.254797484e-14
-8.358561176e-13
-6.729367138e-14
-7.996669741e-13
-7.171932154e-14
-7.614201108e-13
-7.578523657e-14
-7.213162225e-13
-7.945012667e-14
-6.795780808e-13
-8.266998673e-14
-6.364524014e-13
-8.539734182e-14
-5.922118567e-13
-8.758086037e-14
-5.471571201e-13
-8.916541797e-14
-5.016187248e-13
-9.009274704e-14
-4.559583137e-13
-9.030286009e-14
-4.105686939e-13
-8.973648319e-14
-3.658720006e-13
-8.833875905e-14
-3.22315194e-13
-8.606444875e-14
-2.803620411e-13
-8.288474779e-14
-2.404807388e-13
-7.879560495e-14
-2.031265106e-13
-7.382706426e-14
-1.68718995e-13
-6.80526053e-14
-1.376151587e-13
-6.159673572e-14
-1.100798916e-13
-5.463828562e-14
-8.625827962e-14
-4.740625707e-14
-6.61553946e-14
-4.016526422e-14
-4.963017064e-14
-3.318967364e-14
-3.640792402e-14
-2.673009845e-14
-2.611143208e-14
-2.098040336e-14
-1.830620421e-14
-1.605297676e-14
-1.254826212e-14
-1.197438982e-14
-8.414933298e-15
-8.711594563e-15
-5.526036148e-15
-6.189526083e-15
-3.55285238e-15
-4.31176808e-15
-2.231436606e-15
-2.958110694e-15
-1.362218054e-15
-2.007418711e-15
-8.005343658e-16
-1.353932821e-15
-4.444321696e-16
-9.132083677e-16
-2.237126426e-16
-6.21040841e-16
-9.129793346e-17
-4.298012232e-16
-1.715344742e-17
-3.040966007e-16
1.489092395e-17
-2.157496114e-16
2.073055436e-17
-1.335634389e-16
1.315030083e-21
1.327489689e-27
1.291964934e-21
4.517368483e-23
1.24825069e-21
8.414884263e-23
1.187392407e-21
1.177522547e-22
1.113836253e-21
1.429451994e-22
1.03220666e-21
1.593466149e-22
9.467266142e-22
1.676124772e-22
8.608904784e-22
1.690363671e-22
7.773490016e-22
1.651736024e-22
6.979411662e-22
1.575624998e-22
6.238074422e-22
1.47557747e-22
5.555339321e-22
1.362571786e-22
4.93295191e-22
1.244921961e-22
4.36978926e-22
1.128541989e-22
3.862863765e-22
1.017366051e-22
3.408084e-22
9.137962889e-23
3.000803144e-22
8.191097479e-23
2.636195863e-22
7.337961701e-23
2.309504074e-22
6.578218359e-23
2.016186597e-22
5.908264439e-23
1.752000824e-22
5.322646098e-23
1.513037845e-22
4.815041747e-23
1.295726759e-22
4.378922377e-23
1.096819394e-22
4.007978804e-23
9.133631712e-23
3.696385648e-23
7.426672975e-23
3.438954358e-23
5.82265673e-23
3.231213449e-23
4.298785618e-23
3.06944311e-23
2.833742151e-23
2.950683215e-23
1.407310098e-23
2.872727742e-23
2.834114256e-23
-1.077491554e-12
-2.048073635e-14
-1.069326911e-12
-2.426080199e-14
-1.05917215e-12
-3.016220302e-14
-1.046556859e-12
-3.738656243e-14
-1.031219386e-12
-4.539174269e-14
-1.013029218e-12
-5.378723339e-14
-9.91946622e-13
-6.230207981e-14
-9.679943942e-13
-7.075176111e-14
-9.412379965e-13
-7.900881317e-14
-9.117733465e-13
-8.69808338e-14
-8.797199386e-13
-9.459527545e-14
-8.452175684e-13
-1.017895669e-13
-8.084251652e-13
-1.085049509e-13
-7.695208206e-13
-1.146826193e-13
-7.287027459e-13
-1.202611575e-13
-6.861909791e-13
-1.251747539e-13
-6.422295755e-13
-1.293519472e-13
-5.970891108e-13
-1.3271488e-13
-5.510693992e-13
-1.351791591e-13
-5.045022306e-13
-1.366545372e-13
-4.57753725e-13
-1.370467384e-13
-4.112257045e-13
-1.36260843e-13
-3.653553187e-13
-1.342066959e-13
-3.206119839e-13
-1.30806781e-13
-2.774905087e-13
-1.260068684e-13
-2.364991421e-13
-1.197894427e-13
-1.981413097e-13
-1.121893731e-13
-1.628902043e-13
-1.03310396e-13
-1.311563955e-13
-9.333966964e-14
-1.032504809e-13
-8.255600971e-14
-7.934558448e-14
-7.132588468e-14
-5.944787979e-14
-6.008083642e-14
-4.338546931e-14
-4.927327455e-14
-3.082311886e-14
-3.931712273e-14
-2.130326509e-14
-3.052855121e-14
-1.43093363e-14
-2.30789317e-14
-9.33434173e-15
-1.698521918e-14
-5.911989734e-15
-1.217361652e-14
-3.637707959e-15
-8.507283315e-15
-2.166486948e-15
-5.830174791e-15
-1.235444531e-15
-3.939879182e-15
-6.590461083e-16
-2.637854464e-15
-3.12003545e-16
-1.75801983e-15
-1.114859404e-16
-1.173450635e-15
-3.700019368e-18
-7.908334226e-16
4.547897118e-17
-5.428659869e-16
5.695254513e-17
-3.808907997e-16
4.251208749e-17
-2.676103269e-16
1.981843164e-17
-1.644251964e-16
1.358876217e-21
1.242952416e-27
1.332267643e-21
7.17822545e-23
1.281854102e-21
1.345623749e-22
1.212585352e-21
1.870209988e-22
1.130237669e-21
2.25292878e-22
1.040472522e-21
2.491117593e-22
9.48150504e-22
2.599344951e-22
8.570277137e-22
2.601591596e-22
7.69737899e-22
2.524634215e-22
6.879364134e-22
2.393639922e-22
6.125068739e-22
2.22987296e-22
5.437689495e-22
2.049951149e-22
4.816571938e-22
1.866039665e-22
4.258613322e-22
1.68650078e-22
3.759294003e-22
1.51668557e-22
3.313397459e-22
1.359693062e-22
2.915489566e-22
1.217017897e-22
2.560221529e-22
1.089064489e-22
2.242508682e-22
9.7553499e-23
1.957624763e-22
8.757106952e-23
1.701240389e-22
7.886493383e-23
1.469425908e-22
7.133190339e-23
1.258632401e-22
6.486861435e-23
1.065660079e-22
5.937706217e-23
8.876200422e-23
5.47679037e-23
7.218932066e-23
5.096227221e-23
5.660886391e-23
4.789263756e-23
4.180025724e-23
4.550308511e-23
2.755786678e-23
4.374927083e-23
1.368696613e-23
4.259822705e-23
4.202813456e-23
-1.09153855e-12
-2.755273656e-14
-1.083210395e-12
-3.258809601e-14
-1.07286471e-12
-4.050644203e-14
-1.060029324e-12
-5.022004286e-14
-1.044430738e-12
-6.09880241e-14
-1.025932042e-12
-7.228310931e-14
-1.004490463e-12
-8.37403566e-14
-9.801268354e-13
-9.511165419e-14
-9.529050378e-13
-1.06226517e-13
-9.229193327e-13
-1.169621647e-13
-8.902871552e-13
-1.272227808e-13
-8.551456385e-13
-1.369261131e-13
-8.176503266e-13
-1.459951034e-13
-7.779751466e-13
-1.54352581e-13
-7.363134147e-13
-1.619176931e-13
-6.928797476e-13
-1.686033253e-13
-6.479126509e-13
-1.743141694e-13
-6.016776483e-13
-1.789453692e-13
-5.544709123e-13
-1.823818674e-13
-5.066232621e-13
-1.844987619e-13
-4.585041736e-13
-1.85163146e-13
-4.105252051e-13
-1.842380604e-13
-3.631419915e-13
-1.815892997e-13
-3.168536615e-13
-1.77095848e-13
-2.721981549e-13
-1.706646389e-13
-2.297415235e-13
-1.62250025e-13
-1.900590273e-13
-1.518776679e-13
-1.53705985e-13
-1.396712667e-13
-1.211773531e-13
-1.258783681e-13
-9.285747018e-14
-1.108884215e-13
-6.896579737e-14
-9.52327721e-14
-4.951091418e-14
-7.955382939e-14
-3.42699484e-14
-6.453543626e-14
-2.280745659e-14
-5.080407056e-14
-1.453239585e-14
-3.883148628e-14
-8.793627692e-15
-2.88491331e-14
-4.992863855e-15
-2.082108534e-14
-2.607033825e-15
-1.459827828e-14
-1.208235928e-15
-9.948647074e-15
-4.30264977e-16
-6.654381146e-15
-1.978115199e-17
-4.40010358e-15
1.793131698e-16
-2.890017301e-15
2.581206269e-16
-1.892881246e-15
2.695250391e-16
-1.243597471e-15
2.436124062e-16
-8.259415976e-16
1.968973059e-16
-5.590267939e-16
1.383773569e-16
-3.866575753e-16
7.35527528e-17
-2.680409686e-16
1.975097997e-17
-1.632541232e-16
1.429415951e-21
1.159417476e-27
1.396290282e-21
1.049079199e-22
1.334312726e-21
1.965399229e-22
1.250857231e-21
2.704764886e-22
1.15405655e-21
3.220935553e-22
1.051295258e-21
3.518730503e-22
9.483751685e-22
3.628545856e-22
8.493319757e-22
3.592023561e-22
7.566384697e-22
3.451569338e-22
6.715597172e-22
3.244427536e-22
5.945146928e-22
3.000323317e-22
5.253778011e-22
2.741320208e-22
4.637033053e-22
2.482784791e-22
4.088798112e-22
2.234735918e-22
3.602301495e-22
2.003182415e-22
3.170722294e-22
1.791272518e-22
2.787536158e-22
1.600204316e-22
2.446692031e-22
1.429908926e-22
2.142684387e-22
1.27954297e-22
1.870563406e-22
1.147832039e-22
1.625910085e-22
1.033303046e-22
1.404793018e-22
9.344365107e-23
1.20371688e-22
8.49762713e-23
1.019568494e-22
7.779194582e-23
8.495637273e-23
7.176842722e-23
6.911968601e-23
6.679900727e-23
5.421931146e-23
6.27930617e-23
4.004644296e-23
5.967600425e-23
2.640682299e-23
5.738894232e-23
1.311687364e-23
5.58882287e-23
5.514503668e-23
-1.10777243e-12
-3.478199998e-14
-1.099252327e-12
-4.110755499e-14
-1.088677748e-12
-5.108004729e-14
-1.075571829e-12
-6.332466557e-14
-1.059654275e-12
-7.690401839e-14
-1.040783098e-12
-9.115239326e-14
-1.01891204e-12
-1.056092549e-13
-9.940592277e-13
-1.199620813e-13
-9.662860777e-13
-1.339970826e-13
-9.356842236e-13
-1.475612813e-13
-9.023679291e-13
-1.605361651e-13
-8.664703222e-13
-1.728206556e-13
-8.281418968e-13
-1.843204312e-13
-7.875503663e-13
-1.949410954e-13
-7.448816865e-13
-2.045834842e-13
-7.003421643e-13
-2.131401314e-13
-6.541614747e-13
-2.20492419e-13
-6.065965276e-13
-2.265082877e-13
-5.579362429e-13
-2.310406543e-13
-5.085072136e-13
-2.339269258e-13
-4.586799943e-13
-2.349902481e-13
-4.088754702e-13
-2.340433689e-13
-3.595704129e-13
-2.308962238e-13
-3.113008573e-13
-2.253685317e-13
-2.646612691e-13
-2.173087725e-13
-2.202966329e-13
-2.066207585e-13
-1.788837457e-13
-1.932983385e-13
-1.41097583e-13
-1.774670521e-13
-1.075594403e-13
-1.594281541e-13
-7.876674185e-14
-1.396949857e-13
-5.501113946e-14
-1.190046715e-13
-3.630456653e-14
-9.8279335e-14
-2.234279734e-14
-7.851897198e-14
-1.252894641e-14
-6.064271538e-14
-6.063586177e-15
-4.532485614e-14
-2.0783311e-15
-3.286579596e-14
1.396580056e-16
-2.307404206e-14
1.184640278e-15
-1.568189891e-14
1.47527412e-15
-1.028164297e-14
1.413135687e-15
-6.638325736e-15
1.224404865e-15
-4.260979394e-15
1.009977081e-15
-2.728601125e-15
8.065720248e-16
-1.745518847e-15
6.26340891e-16
-1.122114723e-15
4.698866675e-16
-7.305585306e-16
3.329230131e-16
-4.850187793e-16
2.10780364e-16
-3.288987171e-16
1.012095735e-16
-2.238153178e-16
1.981066543e-17
-1.34523047e-16
1.533165876e-21
1.077034188e-27
1.489080278e-21
1.489935148e-22
1.408249292e-21
2.773709015e-22
1.302474298e-21
3.762514782e-22
1.183836045e-21
4.407318058e-22
1.062276793e-21
4.734323027e-22
9.447229391e-22
4.804084428e-22
8.352865534e-22
4.686387477e-22
7.359242895e-22
4.445192063e-22
6.471492954e-22
4.132177592e-22
5.686143818e-22
3.785672597e-22
4.995242595e-22
3.432221605e-22
4.38898418e-22
3.089043409e-22
3.857244609e-22
2.766475724e-22
3.390391598e-22
2.470035691e-22
2.979654092e-22
2.202010318e-22
2.617240768e-22
1.962617965e-22
2.296326075e-22
1.750823974e-22
2.010973456e-22
1.564895971e-22
1.756034412e-22
1.402771492e-22
1.52704355e-22
1.262294343e-22
1.32011922e-22
1.1413613e-22
1.131873625e-22
1.038008789e-22
9.593333081e-23
9.504602764e-23
7.998695279e-23
8.771485716e-23
6.511374043e-23
8.167227309e-23
5.110225401e-23
7.680460288e-23
3.775938103e-23
7.301893306e-23
2.490610938e-23
7.024227071e-23
1.237368162e-23
6.842071402e-23
6.751875007e-23
-1.126530717e-12
-4.219841912e-14
-1.117789036e-12
-4.984887404e-14
-1.10694879e-12
-6.191983171e-14
-1.093525556e-12
-7.674732689e-14
-1.077232795e-12
-9.31961748e-14
-1.057924032e-12
-1.104604644e-13
-1.035549666e-12
-1.279829003e-13
-1.010125007e-12
-1.453860002e-13
-9.817087134e-13
-1.624126223e-13
-9.503892665e-13
-1.788800031e-13
-9.162769717e-13
-1.946477526e-13
-8.794998323e-13
-2.095971269e-13
-8.402017645e-13
-2.236179806e-13
-7.985422537e-13
-2.366003264e-13
-7.546973167e-13
-2.484283958e-13
-7.088617442e-13
-2.589759565e-13
-6.612525249e-13
-2.681022608e-13
-6.121135085e-13
-2.756484233e-13
-5.617215198e-13
-2.814343629e-13
-5.103940808e-13
-2.852567608e-13
-4.584986636e-13
-2.868888204e-13
-4.064630802e-13
-2.860829859e-13
-3.547861737e-13
-2.825781904e-13
-3.040472747e-13
-2.761136649e-13
-2.549117839e-13
-2.664517945e-13
-2.081286651e-13
-2.534128048e-13
-1.645137513e-13
-2.369236713e-13
-1.249112526e-13
-2.170815758e-13
-9.012613148e-14
-1.942270505e-13
-6.082406759e-14
-1.690127451e-13
-3.740491228e-14
-1.424416275e-13
-1.987725496e-14
-1.158270915e-13
-7.820211565e-15
-9.059861553e-14
-3.847148311e-16
-6.810352884e-14
3.603156756e-15
-4.934098665e-14
5.301745902e-15
-3.459582417e-14
5.546125083e-15
-2.335327943e-14
5.010745567e-15
-1.518498644e-14
4.016051796e-15
-9.329129451e-15
3.050765179e-15
-5.719013674e-15
2.270234147e-15
-3.529998138e-15
1.67732777e-15
-2.188702012e-15
1.228666146e-15
-1.353028139e-15
8.899266267e-16
-8.423258736e-16
6.310549274e-16
-5.329966332e-16
4.270972132e-16
-3.442648856e-16
2.601582174e-16
-2.265994255e-16
1.201750186e-16
-1.494357293e-16
1.989479647e-17
-8.709735205e-17
1.681085269e-21
9.958019243e-28
1.618531783e-21
2.115469976e-22
1.507129869e-21
3.887728095e-22
1.366954625e-21
5.164267182e-22
1.216536542e-21
5.911498887e-22
1.069252933e-21
6.207159141e-22
9.329532441e-22
6.167081375e-22
8.111670119e-22
5.904249886e-22
7.046228424e-22
5.510633877e-22
6.124987958e-22
5.053418207e-22
5.332692826e-22
4.577967911e-22
4.652064399e-22
4.112850246e-22
4.066416496e-22
3.674691559e-22
3.560804575e-22
3.272087926e-22
3.122366226e-22
2.908474354e-22
2.740261739e-22
2.584115152e-22
2.405446777e-22
2.297433305e-22
2.110398072e-22
2.045873088e-22
1.848848976e-22
1.826445507e-22
1.615557264e-22
1.636063672e-22
1.406110507e-22
1.471741594e-22
1.21676671e-22
1.330705617e-22
1.044325112e-22
1.210450931e-22
8.860216033e-23
1.108764349e-22
7.394436872e-23
1.023727071e-22
6.024607022e-23
9.537063149e-23
4.731658419e-23
8.973415015e-23
3.498271868e-23
8.535286096e-23
2.308455268e-23
8.214050004e-23
1.147171767e-23
8.003361317e-23
7.899050346e-23
-1.148094974e-12
-4.983176427e-14
-1.139101315e-12
-5.88424968e-14
-1.127958014e-12
-7.306327056e-14
-1.114170677e-12
-9.05349677e-14
-1.097446047e-12
-1.099213566e-13
-1.07763321e-12
-1.30274035e-13
-1.054679423e-12
-1.509376433e-13
-1.028597376e-12
-1.714692196e-13
-9.994430263e-13
-1.915683626e-13
-9.673015425e-13
-2.110231441e-13
-9.322788132e-13
-2.296723941e-13
-8.944968818e-13
-2.473812363e-13
-8.540917743e-13
-2.640256233e-13
-8.11212842e-13
-2.794822174e-13
-7.660235316e-13
-2.936210828e-13
-7.187036313e-13
-3.062996588e-13
-6.694530045e-13
-3.173571954e-13
-6.184970219e-13
-3.266093313e-13
-5.660941262e-13
-3.33842882e-13
-5.125459624e-13
-3.388112899e-13
-4.58210322e-13
-3.412316155e-13
-4.035168492e-13
-3.407844851e-13
-3.489849416e-13
-3.371191074e-13
-2.952422898e-13
-3.298664175e-13
-2.430407404e-13
-3.18664617e-13
-1.932633814e-13
-3.032026619e-13
-1.469130692e-13
-2.832877518e-13
-1.050691336e-13
-2.589406126e-13
-6.879815151e-14
-2.305145593e-13
-3.900994373e-14
-1.988190286e-13
-1.626740405e-14
-1.652039403e-13
-5.868616477e-16
-1.315292748e-13
8.776925576e-15
-9.998610969e-14
1.294502942e-14
-7.229764277e-14
1.359820869e-14
-5.002275156e-14
1.248682677e-14
-3.351591339e-14
1.042796231e-14
-2.132911362e-14
8.239416737e-15
-1.3034654e-14
5.909635235e-15
-7.041268695e-15
4.127727605e-15
-3.982932885e-15
2.89178286e-15
-2.343637674e-15
2.046070304e-15
-1.396110508e-15
1.442290597e-15
-8.056074095e-16
1.010517722e-15
-4.69806071e-16
6.974429034e-16
-2.815862993e-16
4.62543445e-16
-1.72927102e-16
2.778694323e-16
-1.068919374e-16
1.271506527e-16
-6.463192939e-17
1.999776227e-17
-3.305552258e-17
1.891641227e-21
9.155864766e-28
1.79674863e-21
3.064395922e-22
1.634783777e-21
5.507376568e-22
1.441677796e-21
7.095326978e-22
1.246102567e-21
7.867251189e-22
1.065245156e-21
8.015733301e-22
9.066700952e-22
7.752832075e-22
7.718054111e-22
7.252896849e-22
6.589012754e-22
6.639675391e-22
5.649537662e-22
5.992893492e-22
4.86757516e-22
5.359930642e-22
4.213905712e-22
4.766519957e-22
3.663812862e-22
4.224784709e-22
3.197191003e-22
3.738710121e-22
2.798007023e-22
3.307658706e-22
2.453579892e-22
2.928542691e-22
2.153886559e-22
2.597127081e-22
1.890970491e-22
2.308789632e-22
1.658467142e-22
2.058949364e-22
1.451235185e-22
1.843296167e-22
1.265074529e-22
1.657902817e-22
1.096512024e-22
1.499268714e-22
9.426385299e-23
1.364325043e-22
8.009843249e-23
1.250419193e-22
6.694229313e-23
1.155289123e-22
5.460958888e-23
1.077034033e-22
4.2935295e-23
1.01408513e-22
3.177035776e-23
9.651786836e-23
2.097766581e-23
9.293326313e-23
1.042860797e-23
9.058274299e-23
8.941915169e-23
-1.172751466e-12
-5.771234613e-14
-1.163473016e-12
-6.812128003e-14
-1.151987049e-12
-8.455006321e-14
-1.137786868e-12
-1.047364495e-13
-1.120571652e-12
-1.271384206e-13
-1.100185921e-12
-1.506620804e-13
-1.076574042e-12
-1.745523364e-13
-1.049746477e-12
-1.983000896e-13
-1.019756838e-12
-2.215618024e-13
-9.866871684e-13
-2.440971584e-13
-9.506388595e-13
-2.657255728e-13
-9.117275283e-13
-2.86297957e-13
-8.700803274e-13
-3.056788089e-13
-8.258348083e-13
-3.237343669e-13
-7.791393067e-13
-3.403238399e-13
-7.301549855e-13
-3.552918546e-13
-6.790596736e-13
-3.684610672e-13
-6.260539166e-13
-3.796244263e-13
-5.71369972e-13
-3.885369967e-13
-5.152845952e-13
-3.94907679e-13
-4.581364116e-13
-3.983916635e-13
-4.003484758e-13
-3.985851804e-13
-3.424560918e-13
-3.950252148e-13
-2.851386484e-13
-3.871986109e-13
-2.292514571e-13
-3.74567614e-13
-1.75848811e-13
-3.566221645e-13
-1.261827118e-13
-3.329717402e-13
-8.165493445e-14
-3.034873061e-13
-4.369785387e-14
-2.684916065e-13
-1.356823935e-14
-2.289697186e-13
7.962158294e-15
-1.867566157e-13
2.093085391e-14
-1.44521579e-13
2.643415279e-14
-1.055145262e-13
2.615191725e-14
-7.204229208e-14
2.248715356e-14
-4.638697432e-14
1.817900828e-14
-2.923924075e-14
1.36872586e-14
-1.687177683e-14
9.98651492e-15
-9.37169785e-15
6.566720799e-15
-3.663030206e-15
4.307703826e-15
-1.769639455e-15
2.922924352e-15
-1.008455152e-15
2.042702053e-15
-5.691489238e-16
1.416134707e-15
-2.356640473e-16
9.729144915e-16
-8.630497757e-17
6.629511278e-16
-3.380540581e-17
4.374561428e-16
-1.146425771e-17
2.635295826e-16
1.642424206e-18
1.219033511e-16
1.070411776e-17
2.011237466e-17
1.533652805e-17
2.197171922e-21
8.362350435e-28
2.041955586e-21
4.616559257e-22
1.793578818e-21
7.991144208e-22
1.518870217e-21
9.842412994e-22
1.260950778e-21
1.044644561e-21
1.038955034e-21
1.023569083e-21
8.566765727e-22
9.57561681e-22
7.104832653e-22
8.714830087e-22
5.942230855e-22
7.802277393e-22
5.016574812e-22
6.918549776e-22
4.274164476e-22
6.10234126e-22
3.672170464e-22
5.368514291e-22
3.177738275e-22
4.71921726e-22
2.766139588e-22
4.150309209e-22
2.418891008e-22
3.654907727e-22
2.122164282e-22
3.225269897e-22
1.86554911e-22
2.85374277e-22
1.641130223e-22
2.53320907e-22
1.442813945e-22
2.257266228e-22
1.265841836e-22
2.020268894e-22
1.106440426e-22
1.817304874e-22
9.615683531e-23
1.644141463e-22
8.287326803e-23
1.497161417e-22
7.058542546e-23
1.373298344e-22
5.91167841e-23
1.269976282e-22
4.831469859e-23
1.185055651e-22
3.804465038e-23
1.116786391e-22
2.818575252e-23
1.063768453e-22
1.862714568e-23
1.024919501e-22
9.265016668e-24
9.994495301e-23
9.868421371e-23
-1.200768205e-12
-6.587207951e-14
-1.191169327e-12
-7.772090758e-14
-1.179298059e-12
-9.642291082e-14
-1.16463334e-12
-1.194035449e-13
-1.146865902e-12
-1.44909094e-13
-1.125835596e-12
-1.716963923e-13
-1.101484272e-12
-1.989084718e-13
-1.073820779e-12
-2.259691917e-13
-1.042897057e-12
-2.524919361e-13
-1.008792618e-12
-2.782088597e-13
-9.716047276e-13
-3.029215443e-13
-9.314425999e-13
-3.264689675e-13
-8.884240145e-13
-3.487071446e-13
-8.426734936e-13
-3.694955476e-13
-7.943220483e-13
-3.886868232e-13
-7.435087166e-13
-4.061175839e-13
-6.903841792e-13
-4.215989137e-13
-6.351171112e-13
-4.349057879e-13
-5.779043967e-13
-4.457650168e-13
-5.189866491e-13
-4.538417212e-13
-4.586706924e-13
-4.587248753e-13
-3.973607457e-13
-4.599133434e-13
-3.355996621e-13
-4.56805498e-13
-2.741198794e-13
-4.486985859e-13
-2.138994947e-13
-4.348091528e-13
-1.562107333e-13
-4.143329673e-13
-1.026359991e-13
-3.865693056e-13
-5.501476148e-14
-3.511320722e-13
-1.528161711e-14
-3.082489104e-13
1.483782542e-14
-2.591139235e-13
3.427586349e-14
-2.062200331e-13
4.312491257e-14
-1.53396685e-13
4.336560063e-14
-1.05782082e-13
3.71344669e-14
-6.583910381e-14
2.806420585e-14
-3.734612378e-14
2.020115967e-14
-2.140757008e-14
1.347788225e-14
-1.018245668e-14
8.847030434e-15
-4.777960011e-15
5.137285736e-15
1.367496603e-17
3.315393321e-15
1.489374362e-17
2.250386872e-15
1.605543869e-17
1.620580696e-15
1.721914799e-17
1.150534112e-15
1.883043407e-16
7.805625135e-16
2.34660665e-16
5.407951197e-16
1.424644956e-16
3.641319565e-16
1.005593557e-16
2.251182734e-16
7.477220049e-17
1.075289426e-16
6.158088285e-17
2.023303565e-17
4.891818824e-17
2.657999949e-21
7.577388757e-28
2.380241975e-21
7.39413898e-22
1.978705697e-21
1.200650696e-21
1.579273479e-21
1.38367352e-21
1.2398753e-21
1.384042747e-21
9.729476317e-22
1.290496764e-21
7.705979003e-22
1.159911429e-21
6.192279958e-22
1.022852934e-21
5.058503238e-22
8.936054368e-22
4.200366296e-22
7.776687018e-22
3.540337507e-22
6.762370393e-22
3.022873432e-22
5.885978754e-22
2.608830224e-22
5.1332609e-22
2.270738107e-22
4.488401801e-22
1.989253178e-22
3.936393173e-22
1.750637155e-22
3.46388648e-22
1.545015411e-22
3.059365113e-22
1.365187381e-22
2.713037738e-22
1.205816611e-22
2.416637672e-22
1.062877816e-22
2.163208398e-22
9.332770149e-23
1.946906415e-22
8.145883073e-23
1.76283094e-22
7.048696069e-23
1.606880914e-22
6.02532193e-23
1.475636579e-22
5.062472102e-23
1.366262108e-22
4.148777253e-23
1.276425999e-22
3.274285664e-23
1.204236428e-22
2.430085731e-23
1.148189339e-22
1.608014857e-23
1.107127491e-22
8.004277365e-24
1.080209153e-22
1.06688542e-22
-1.232382886e-12
-7.434542673e-14
-1.222424752e-12
-8.768023378e-14
-1.210122054e-12
-1.087279719e-13
-1.194937554e-12
-1.34591529e-13
-1.176552782e-12
-1.632985305e-13
-1.154802957e-12
-1.934519705e-13
-1.129627989e-12
-2.24090321e-13
-1.101036021e-12
-2.545691629e-13
-1.069078385e-12
-2.844587028e-13
-1.03383313e-12
-3.134644167e-13
-9.953943445e-13
-3.413717669e-13
-9.538654987e-13
-3.680103606e-13
-9.093551903e-13
-3.93231175e-13
-8.619743888e-13
-4.168912851e-13
-8.11835231e-13
-4.388420928e-13
-7.590516634e-13
-4.589184104e-13
-7.037423634e-13
-4.769266591e-13
-6.460368769e-13
-4.926309632e-13
-5.860865875e-13
-5.057362422e-13
-5.240827834e-13
-5.158676547e-13
-4.602847617e-13
-5.225461535e-13
-3.950615726e-13
-5.251608726e-13
-3.289510471e-13
-5.229414187e-13
-2.627377543e-13
-5.149382804e-13
-1.975451145e-13
-5.000291003e-13
-1.349231989e-13
-4.769829396e-13
-7.689192877e-14
-4.446291875e-13
-2.587800523e-14
-4.021749642e-13
1.55131162e-14
-3.496691815e-13
4.491077617e-14
-2.885407755e-13
6.08298371e-14
-2.221682334e-13
6.344906985e-14
-1.560449634e-13
5.655330583e-14
-9.891531084e-14
4.16757494e-14
-5.099070259e-14
2.639867551e-14
-2.209880961e-14
1.501177711e-14
-1.005175231e-14
4.796040336e-15
6.19964324e-18
8.519417841e-28
2.277185381e-20
-4.137726974e-30
1.496100846e-20
5.329868676e-29
-8.10647182e-21
3.658517442e-29
-7.970434499e-21
-1.952876814e-28
1.532906946e-20
1.701712674e-16
2.32062276e-20
3.504878754e-16
2.235296853e-17
3.355809437e-16
1.031714365e-16
2.571678328e-16
1.261312227e-16
1.745885097e-16
9.025314464e-17
8.926138309e-17
7.970025945e-17
2.035005586e-17
6.378451825e-17
3.396665457e-21
6.804749552e-28
2.842227158e-21
1.293852196e-21
2.161728521e-21
1.881149332e-21
1.579642705e-21
1.965759341e-21
1.146329317e-21
1.817356146e-21
8.423622971e-22
1.5944638e-21
6.335394057e-22
1.368734342e-21
4.899804983e-22
1.166411868e-21
3.899135889e-22
9.936723776e-22
3.186049671e-22
8.489773599e-22
2.663945867e-22
7.28447461e-22
2.270155578e-22
6.279769503e-22
1.963971125e-22
5.439445862e-22
1.718729479e-22
4.733644002e-22
1.516746485e-22
4.138376771e-22
1.346115788e-22
3.634517824e-22
1.198688035e-22
3.206793557e-22
1.068787316e-22
2.842939189e-22
9.523873366e-23
2.533038423e-22
8.465758328e-23
2.269020709e-22
7.4920154e-23
2.044281549e-22
6.586382815e-23
1.853395071e-22
5.736252716e-23
1.691894826e-22
4.931577222e-23
1.556105057e-22
4.164111006e-23
1.443009682e-22
3.426881547e-23
1.350149917e-22
2.713814769e-23
1.275544096e-22
2.019467259e-23
1.217625093e-22
1.338831477e-23
1.175192084e-22
6.671904041e-24
1.147374284e-22
1.133605031e-22
-1.267806471e-12
-8.317019548e-14
-1.257446518e-12
-9.804182146e-14
-1.244662227e-12
-1.215154015e-13
-1.228898535e-12
-1.503598002e-13
-1.20982718e-12
-1.823759631e-13
-1.187278997e-12
-2.160076394e-13
-1.161192807e-12
-2.501854482e-13
-1.13157732e-12
-2.841950378e-13
-1.098484785e-12
-3.1756308e-13
-1.061993444e-12
-3.49969102e-13
-1.022195848e-12
-3.811841728e-13
-9.791912074e-13
-4.110312549e-13
-9.330800643e-13
-4.393600838e-13
-8.839603543e-13
-4.660303157e-13
-8.319249008e-13
-4.908983811e-13
-7.770606954e-13
-5.138049309e-13
-7.194505215e-13
-5.345606613e-13
-6.591781446e-13
-5.529287279e-13
-5.963392638e-13
-5.686020562e-13
-5.310615465e-13
-5.811737695e-13
-4.635385023e-13
-5.900989574e-13
-3.940836349e-13
-5.946467747e-13
-3.232123538e-13
-5.938449292e-13
-2.517571885e-13
-5.864267583e-13
-1.810125707e-13
-5.708079352e-13
-1.128829124e-13
-5.45147466e-13
-4.996874004e-14
-5.075785736e-13
4.51462675e-15
-4.566935717e-13
4.708427405e-14
-3.922737945e-13
7.449297279e-14
-3.159838864e-13
8.449156784e-14
-2.32200443e-13
7.651952015e-14
-1.481055489e-13
5.855948813e-14
-8.098678613e-14
3.219441878e-14
-2.465619317e-14
1.006638959e-14
5.226544188e-18
1.137769552e-27
3.906107272e-21
-1.59232134e-20
-9.687553995e-21
-4.207659977e-22
7.269406414e-21
8.237431118e-21
6.302811344e-21
1.359880212e-22
-5.028726186e-24
-8.005501822e-21
1.710553405e-22
4.870343704e-22
6.836533262e-21
1.548876243e-20
8.204499519e-21
-1.344983168e-28
-8.102114371e-21
8.322324375e-17
5.385927786e-21
1.519118098e-16
2.355154595e-17
1.298916238e-16
5.523976377e-17
7.399110762e-17
8.106197029e-17
2.04943925e-17
6.223302226e-17
4.689846616e-21
6.062159409e-28
3.430195331e-21
2.553503481e-21
2.24633853e-21
3.065006134e-21
1.43123951e-21
2.780858369e-21
9.234369711e-22
2.3251587e-21
6.166328391e-22
1.901267953e-21
4.312169321e-22
1.554150276e-21
3.172410077e-22
1.280387825e-21
2.452185713e-22
1.065694852e-21
1.980750682e-22
8.961209063e-22
1.65924076e-22
7.605985019e-22
1.429831937e-22
6.509178866e-22
1.258169265e-22
5.611109126e-22
1.123462248e-22
4.868351664e-22
1.012887538e-22
4.248952176e-22
9.183915209e-23
3.729014586e-22
8.348336671e-23
3.290352201e-22
7.588865496e-23
2.918887141e-22
6.883696226e-23
2.603556226e-22
6.218366732e-23
2.335554573e-22
5.583150622e-23
2.107804111e-22
4.971380364e-23
1.914573082e-22
4.378355024e-23
1.751198376e-22
3.800623472e-23
1.613879257e-22
3.235513359e-23
1.499521763e-22
2.680823331e-23
1.405620012e-22
2.134624746e-23
1.330165064e-22
1.595137168e-23
1.271574975e-22
1.060653473e-23
1.228641589e-22
5.294978757e-24
1.200490987e-22
1.186555453e-22
-1.307233884e-12
-9.238834633e-14
-1.296425087e-12
-1.0885268e-13
-1.283104243e-12
-1.348401225e-13
-1.266696903e-12
-1.667727566e-13
-1.246864594e-12
-2.022156889e-13
-1.22343425e-12
-2.394471117e-13
-1.196344782e-12
-2.772858069e-13
-1.165607156e-12
-3.14945321e-13
-1.131276611e-12
-3.519080593e-13
-1.093433906e-12
-3.878280744e-13
-1.052172529e-12
-4.224636235e-13
-1.007589916e-12
-4.556337336e-13
-9.597808908e-13
-4.871908475e-13
-9.088322985e-13
-5.170025719e-13
-8.548188532e-13
-5.44937379e-13
-7.978005585e-13
-5.70850635e-13
-7.378223356e-13
-5.945681849e-13
-6.74917343e-13
-6.158649565e-13