/*--------------------------------*- C++ -*----------------------------------*\
  =========                 |
  \\      /  F ield         | OpenFOAM: The Open Source CFD Toolbox
   \\    /   O peration     | Website:  https://openfoam.org
    \\  /    A nd           | Version:  10
     \\/     M anipulation  |
\*---------------------------------------------------------------------------*/
FoamFile
{
    format      ascii;
    class       volScalarField;
    location    "0.008";
    object      rhok;
}
// * * * * * * * * * * * * * * * * * * * * * * * * * * * * * * * * * * * * * //

dimensions      [0 0 0 0 0 0 0];

internalField   nonuniform List<scalar> 
19200
(
0.9880335596
0.9880335594
0.9880335591
0.9880335587
0.9880335582
0.9880335577
0.9880335573
0.9880335571
0.9880335571
0.9880335575
0.9880335585
0.9880335602
0.9880335629
0.9880335669
0.9880335723
0.9880335795
0.9880335887
0.9880336004
0.9880336148
0.9880336322
0.9880336529
0.9880336773
0.9880337055
0.9880337377
0.9880337739
0.9880338141
0.988033858
0.9880339052
0.9880339553
0.9880340073
0.9880340602
0.9880341127
0.9880341632
0.9880342099
0.9880342506
0.9880342832
0.9880343053
0.9880343146
0.988034309
0.9880342865
0.9880342457
0.9880341855
0.9880341054
0.9880340052
0.9880338856
0.9880337472
0.9880335911
0.9880334189
0.9880332319
0.9880330317
1
1
1
1
1
1
1
1
1
1
1
1
1
1
1
1
1
1
1
1
1
1
1
1
1
1
1
1
1
1
0.9880341233
0.9880341231
0.9880341227
0.9880341222
0.9880341217
0.9880341211
0.9880341205
0.9880341201
0.9880341199
0.9880341201
0.9880341209
0.9880341225
0.988034125
0.9880341288
0.9880341341
0.9880341412
0.9880341504
0.9880341621
0.9880341766
0.9880341942
0.9880342153
0.9880342402
0.988034269
0.988034302
0.9880343392
0.9880343805
0.9880344259
0.9880344748
0.9880345267
0.9880345808
0.988034636
0.9880346909
0.9880347441
0.9880347935
0.9880348369
0.9880348722
0.9880348967
0.988034908
0.9880349038
0.9880348822
0.9880348414
0.9880347805
0.9880346988
0.9880345964
0.9880344736
0.9880343315
0.9880341713
0.9880339945
0.9880338026
0.9880335975
1
1
1
1
1
1
1
1
1
1
1
1
1
1
1
1
1
1
1
1
1
1
1
1
1
1
1
1
1
1
0.9880346507
0.9880346504
0.98803465
0.9880346493
0.9880346485
0.9880346477
0.9880346468
0.988034646
0.9880346455
0.9880346453
0.9880346457
0.9880346469
0.988034649
0.9880346525
0.9880346575
0.9880346644
0.9880346735
0.9880346853
0.9880347
0.9880347181
0.9880347399
0.9880347657
0.9880347958
0.9880348304
0.9880348696
0.9880349133
0.9880349615
0.9880350137
0.9880350693
0.9880351276
0.9880351875
0.9880352475
0.9880353059
0.9880353609
0.98803541
0.9880354507
0.9880354802
0.9880354957
0.9880354946
0.9880354746
0.988035434
0.9880353717
0.9880352868
0.9880351796
0.9880350506
0.988034901
0.9880347323
0.9880345461
0.9880343444
0.988034129
1
1
1
1
1
1
1
1
1
1
1
1
1
1
1
1
1
1
1
1
1
1
1
1
1
1
1
1
1
1
0.9880351417
0.9880351414
0.9880351408
0.9880351399
0.9880351388
0.9880351375
0.9880351361
0.9880351348
0.9880351337
0.9880351329
0.9880351327
0.9880351332
0.9880351347
0.9880351376
0.9880351422
0.9880351487
0.9880351577
0.9880351695
0.9880351845
0.9880352033
0.9880352261
0.9880352533
0.9880352853
0.9880353224
0.9880353646
0.988035412
0.9880354645
0.9880355217
0.9880355831
0.9880356478
0.9880357147
0.9880357824
0.9880358491
0.9880359126
0.9880359705
0.9880360197
0.9880360572
0.9880360795
0.9880360833
0.9880360661
0.9880360259
0.9880359614
0.9880358718
0.9880357572
0.9880356185
0.9880354573
0.9880352754
0.9880350748
0.9880348577
0.9880346265
1
1
1
1
1
1
1
1
1
1
1
1
1
1
1
1
1
1
1
1
1
1
1
1
1
1
1
1
1
1
0.9880355964
0.988035596
0.9880355951
0.9880355938
0.9880355922
0.9880355904
0.9880355883
0.9880355862
0.9880355843
0.9880355826
0.9880355814
0.988035581
0.9880355816
0.9880355837
0.9880355875
0.9880355936
0.9880356023
0.9880356141
0.9880356295
0.988035649
0.9880356731
0.9880357023
0.9880357369
0.9880357772
0.9880358236
0.9880358759
0.9880359343
0.9880359983
0.9880360675
0.9880361409
0.9880362175
0.9880362958
0.9880363738
0.9880364493
0.9880365195
0.988036581
0.98803663
0.9880366622
0.9880366732
0.9880366601
0.9880366207
0.9880365535
0.9880364574
0.9880363323
0.98803618
0.9880360026
0.9880358024
0.9880355818
0.9880353434
0.9880350901
1
1
1
1
1
1
1
1
1
1
1
1
1
1
1
1
1
1
1
1
1
1
1
1
1
1
1
1
1
1
0.9880360146
0.988036014
0.9880360128
0.988036011
0.9880360087
0.988036006
0.9880360031
0.9880359999
0.9880359968
0.9880359938
0.9880359914
0.9880359897
0.988035989
0.9880359899
0.9880359928
0.988035998
0.9880360062
0.9880360179
0.9880360336
0.9880360541
0.9880360798
0.9880361113
0.9880361492
0.9880361938
0.9880362454
0.9880363041
0.98803637
0.9880364428
0.988036522
0.9880366067
0.9880366959
0.9880367879
0.9880368806
0.9880369717
0.9880370582
0.9880371364
0.9880372016
0.9880372479
0.9880372689
0.9880372613
0.9880372234
0.9880371533
0.9880370489
0.9880369096
0.9880367389
0.9880365401
0.988036316
0.9880360693
0.9880358027
0.9880355202
1
1
1
1
1
1
1
1
1
1
1
1
1
1
1
1
1
1
1
1
1
1
1
1
1
1
1
1
1
1
0.9880363959
0.9880363951
0.9880363934
0.988036391
0.9880363878
0.9880363841
0.9880363798
0.9880363752
0.9880363705
0.9880363659
0.9880363617
0.9880363582
0.9880363559
0.9880363552
0.9880363565
0.9880363606
0.988036368
0.9880363793
0.9880363954
0.9880364169
0.9880364445
0.9880364789
0.9880365207
0.9880365704
0.9880366285
0.9880366952
0.9880367704
0.9880368541
0.9880369458
0.9880370446
0.9880371494
0.9880372585
0.9880373697
0.9880374804
0.9880375877
0.9880376881
0.9880377757
0.9880378427
0.9880378764
0.9880378755
0.9880378401
0.9880377679
0.9880376539
0.9880374949
0.9880372998
0.9880370737
0.9880368197
0.9880365399
0.9880362374
0.9880359169
1
1
1
1
1
1
1
1
1
1
1
1
1
1
1
1
1
1
1
1
1
1
1
1
1
1
1
1
1
1
0.9880367398
0.9880367387
0.9880367364
0.9880367331
0.9880367288
0.9880367236
0.9880367177
0.9880367113
0.9880367045
0.9880366977
0.9880366911
0.9880366853
0.9880366806
0.9880366777
0.9880366771
0.9880366795
0.9880366856
0.9880366964
0.9880367126
0.9880367351
0.9880367648
0.9880368025
0.9880368491
0.988036905
0.988036971
0.9880370472
0.9880371339
0.9880372308
0.9880373376
0.9880374536
0.9880375775
0.9880377074
0.9880378412
0.9880379758
0.9880381085
0.9880382374
0.9880383558
0.9880384562
0.9880385042
0.9880385091
0.9880384774
0.9880384068
0.9880382849
0.9880380946
0.9880378676
0.9880376076
0.9880373179
0.9880369977
0.9880366499
0.9880362808
1
1
1
1
1
1
1
1
1
1
1
1
1
1
1
1
1
1
1
1
1
1
1
1
1
1
1
1
1
1
0.9880370454
0.9880370439
0.9880370409
0.9880370364
0.9880370306
0.9880370236
0.9880370156
0.9880370067
0.9880369972
0.9880369875
0.9880369779
0.988036969
0.9880369612
0.9880369553
0.9880369519
0.988036952
0.9880369564
0.9880369661
0.9880369821
0.9880370056
0.9880370376
0.9880370792
0.9880371312
0.9880371946
0.98803727
0.9880373578
0.9880374581
0.988037571
0.988037696
0.9880378325
0.9880379793
0.9880381346
0.9880382953
0.9880384579
0.9880386195
0.9880387841
0.9880389417
0.9880391101
0.9880391627
0.9880391665
0.9880391402
0.988039082
0.9880389677
0.9880387121
0.9880384461
0.9880381458
0.9880378168
0.9880374488
0.9880370442
0.9880366123
1
1
1
1
1
1
1
1
1
1
1
1
1
1
1
1
1
1
1
1
1
1
1
1
1
1
1
1
1
1
0.9880373113
0.9880373093
0.9880373053
0.9880372994
0.9880372917
0.9880372823
0.9880372715
0.9880372594
0.9880372465
0.988037233
0.9880372195
0.9880372065
0.9880371947
0.9880371848
0.9880371778
0.9880371746
0.9880371764
0.9880371844
0.9880371999
0.9880372242
0.9880372587
0.9880373046
0.9880373631
0.9880374353
0.988037522
0.9880376235
0.9880377402
0.9880378721
0.9880380187
0.9880381796
0.9880383538
0.9880385395
0.988038733
0.9880389281
0.9880391156
0.9880393272
0.9880395066
0.9880398706
0.9880398602
0.988039844
0.9880398239
0.9880398012
0.9880397781
0.9880393238
0.9880390394
0.9880386894
0.9880383269
0.9880379038
0.988037427
0.9880369119
1
1
1
1
1
1
1
1
1
1
1
1
1
1
1
1
1
1
1
1
1
1
1
1
1
1
1
1
1
1
0.9880375353
0.9880375327
0.9880375274
0.9880375197
0.9880375096
0.9880374972
0.9880374828
0.9880374668
0.9880374493
0.9880374311
0.9880374124
0.9880373942
0.988037377
0.988037362
0.9880373501
0.9880373426
0.9880373408
0.9880373463
0.9880373606
0.9880373854
0.9880374224
0.9880374732
0.9880375393
0.9880376219
0.988037722
0.9880378402
0.9880379765
0.9880381309
0.988038303
0.9880384925
0.988038699
0.9880389214
0.9880391565
0.9880393952
0.9880395781
0.9880398943
0.9880398793
1
1
1
1
1
1
0.9880397521
0.9880396818
0.9880392248
0.9880388724
0.9880383814
0.9880378107
0.9880371804
1
1
1
1
1
1
1
1
1
1
1
1
1
1
1
1
1
1
1
1
1
1
1
1
1
1
1
1
1
1
0.9880377145
0.9880377111
0.9880377043
0.9880376942
0.988037681
0.9880376648
0.988037646
0.9880376248
0.9880376017
0.9880375773
0.9880375521
0.9880375271
0.9880375031
0.9880374813
0.988037463
0.9880374496
0.9880374429
0.9880374447
0.988037457
0.9880374818
0.9880375214
0.9880375776
0.9880376525
0.9880377476
0.988037864
0.9880380022
0.9880381623
0.9880383436
0.9880385457
0.9880387682
0.9880390117
0.9880392775
0.988039566
0.9880399098
0.9880399006
1
1
1
1
1
1
1
1
1
1
0.9880396383
0.9880395342
0.9880389101
0.9880382178
0.9880374192
1
1
1
1
1
1
1
1
1
1
1
1
1
1
1
1
1
1
1
1
1
1
1
1
1
1
1
1
1
1
0.9880378447
0.9880378403
0.9880378315
0.9880378185
0.9880378014
0.9880377804
0.9880377559
0.9880377283
0.988037698
0.9880376658
0.9880376323
0.9880375987
0.9880375659
0.9880375354
0.9880375087
0.9880374876
0.9880374743
0.9880374709
0.9880374799
0.9880375041
0.988037546
0.9880376083
0.9880376935
0.9880378035
0.9880379396
0.9880381025
0.9880382917
0.9880385059
0.9880387432
0.988039003
0.9880392871
0.9880395998
0.9880399125
1
1
1
1
1
1
1
1
1
1
1
1
1
1
0.9880394823
0.9880386969
0.9880376307
1
1
1
1
1
1
1
1
1
1
1
1
1
1
1
1
1
1
1
1
1
1
1
1
1
1
1
1
1
1
0.9880379203
0.9880379146
0.9880379034
0.9880378866
0.9880378646
0.9880378376
0.988037806
0.9880377703
0.988037731
0.9880376889
0.988037645
0.9880376004
0.9880375565
0.9880375148
0.9880374772
0.9880374461
0.9880374238
0.9880374133
0.9880374175
0.9880374399
0.9880374839
0.9880375528
0.9880376499
0.9880377778
0.9880379383
0.988038132
0.9880383578
0.9880386129
0.9880388929
0.9880391941
0.9880395205
0.9880399138
1
1
1
1
1
1
1
1
1
1
1
1
1
1
1
1
0.9880394266
0.9880378197
1
1
1
1
1
1
1
1
1
1
1
1
1
1
1
1
1
1
1
1
1
1
1
1
1
1
1
1
1
1
0.9880379335
0.9880379262
0.9880379119
0.9880378905
0.9880378625
0.9880378279
0.9880377875
0.9880377416
0.988037691
0.9880376367
0.9880375796
0.9880375212
0.9880374631
0.9880374073
0.9880373559
0.9880373116
0.9880372777
0.9880372574
0.9880372547
0.9880372737
0.988037319
0.9880373949
0.9880375058
0.9880376553
0.9880378459
0.9880380786
0.9880383517
0.9880386601
0.9880389947
0.9880393411
0.9880396755
0.9880399156
1
1
1
1
1
1
1
1
1
1
1
1
1
1
1
1
0.9880391663
0.9880379947
1
1
1
1
1
1
1
1
1
1
1
1
1
1
1
1
1
1
1
1
1
1
1
1
1
1
1
1
1
1
0.9880378742
0.988037865
0.9880378468
0.9880378198
0.9880377841
0.9880377403
0.9880376888
0.9880376303
0.9880375657
0.988037496
0.9880374226
0.988037347
0.9880372711
0.9880371973
0.9880371283
0.9880370673
0.988037018
0.9880369847
0.9880369721
0.9880369857
0.988037031
0.988037114
0.9880372404
0.9880374156
0.9880376433
0.9880379256
0.9880382608
0.9880386424
0.9880390566
0.9880394822
0.9880399151
1
1
1
1
1
1
1
1
1
1
1
1
1
1
1
1
1
1
0.988038592
1
1
1
1
1
1
1
1
1
1
1
1
1
1
1
1
1
1
1
1
1
1
1
1
1
1
1
1
1
1
0.9880377292
0.9880377177
0.9880376947
0.9880376605
0.9880376155
0.9880375601
0.988037495
0.9880374209
0.9880373389
0.9880372503
0.9880371565
0.9880370595
0.9880369616
0.9880368653
0.9880367741
0.9880366917
0.9880366226
0.988036572
0.9880365459
0.9880365508
0.9880365941
0.9880366836
0.9880368271
0.9880370321
0.9880373049
0.9880376496
0.9880380663
0.9880385484
0.9880390773
0.9880395993
0.9880399132
1
1
1
1
1
1
1
1
1
1
1
1
1
1
1
1
1
1
0.9880385541
1
1
1
1
1
1
1
1
1
1
1
1
1
1
1
1
1
1
1
1
1
1
1
1
1
1
1
1
1
1
0.9880374814
0.9880374669
0.988037438
0.9880373951
0.9880373386
0.9880372689
0.988037187
0.9880370938
0.9880369904
0.9880368784
0.9880367596
0.9880366362
0.9880365108
0.9880363867
0.9880362677
0.9880361583
0.9880360639
0.9880359907
0.988035946
0.9880359381
0.9880359762
0.9880360705
0.9880362315
0.9880364702
0.9880367962
0.9880372175
0.9880377381
0.9880383572
0.988039073
0.9880399103
1
1
1
1
1
1
1
1
1
1
1
1
1
1
1
1
1
1
1
1
1
1
1
1
1
1
1
1
1
1
1
1
1
1
1
1
1
1
1
1
1
1
1
1
1
1
1
1
1
1
0.9880371087
0.9880370906
0.9880370545
0.9880370009
0.9880369302
0.9880368431
0.9880367406
0.9880366238
0.9880364942
0.9880363536
0.9880362041
0.9880360482
0.9880358892
0.9880357307
0.9880355772
0.988035434
0.9880353076
0.9880352052
0.9880351357
0.9880351092
0.9880351374
0.9880352331
0.9880354107
0.9880356853
0.9880360717
0.9880365832
0.9880372289
0.9880380099
0.9880389138
0.9880399071
1
1
1
1
1
1
1
1
1
1
1
1
1
1
1
1
1
1
1
1
1
1
1
1
1
1
1
1
1
1
1
1
1
1
1
1
1
1
1
1
1
1
1
1
1
1
1
1
1
1
0.9880365832
0.9880365607
0.9880365158
0.9880364489
0.9880363609
0.9880362524
0.9880361248
0.9880359793
0.9880358178
0.9880356423
0.9880354553
0.98803526
0.9880350598
0.9880348592
0.9880346633
0.9880344784
0.9880343117
0.9880341721
0.9880340699
0.9880340174
0.9880340288
0.9880341205
0.9880343112
0.9880346215
0.9880350731
0.9880356875
0.9880364829
0.988037467
0.9880386256
0.9880399009
1
1
1
1
1
1
1
1
1
1
1
1
1
1
1
1
1
1
1
1
1
1
1
1
1
1
1
1
1
1
1
1
1
1
1
1
1
1
1
1
1
1
1
1
1
1
1
1
1
1
0.9880358695
0.9880358415
0.9880357858
0.9880357029
0.9880355937
0.9880354592
0.9880353009
0.9880351206
0.9880349202
0.9880347024
0.9880344701
0.9880342269
0.9880339769
0.9880337252
0.9880334777
0.9880332415
0.988033025
0.9880328385
0.988032694
0.988032606
0.9880325915
0.9880326708
0.9880328676
0.9880332091
0.9880337261
0.988034452
0.9880354205
0.988036659
0.9880381712
0.9880398925
1
1
1
1
1
1
1
1
1
1
1
1
1
1
1
1
1
1
1
1
1
1
1
1
1
1
1
1
1
1
1
1
1
1
1
1
1
1
1
1
1
1
1
1
1
1
1
1
1
1
0.9880349229
0.9880348883
0.9880348194
0.988034717
0.988034582
0.988034416
0.9880342206
0.988033998
0.9880337507
0.9880334818
0.9880331949
0.988032894
0.988032584
0.9880322707
0.9880319609
0.9880316625
0.9880313852
0.9880311405
0.9880309422
0.988030807
0.9880307549
0.9880308101
0.9880310016
0.988031364
0.9880319385
0.9880327736
0.9880339261
0.9880354609
0.9880374441
0.9880398821
1
1
1
1
1
1
1
1
1
1
1
1
1
1
1
1
1
1
1
1
1
1
1
1
1
1
1
1
1
1
1
1
1
1
1
1
1
1
1
1
1
1
1
1
1
1
1
1
1
1
0.9880336879
0.9880336452
0.9880335603
0.9880334342
0.988033268
0.9880330637
0.9880328234
0.9880325497
0.988032246
0.9880319157
0.9880315632
0.9880311934
0.9880308117
0.9880304249
0.9880300405
0.9880296676
0.9880293169
0.9880290012
0.9880287358
0.9880285397
0.9880284355
0.9880284513
0.9880286211
0.9880289869
0.9880296002
0.9880305248
0.9880318417
0.9880336624
0.9880361772
0.9880398654
1
1
1
1
1
1
1
1
1
1
1
1
1
1
1
1
1
1
1
1
1
1
1
1
1
1
1
1
1
1
1
1
1
1
1
1
1
1
1
1
1
1
1
1
1
1
1
1
1
1
0.9880320952
0.9880320427
0.9880319384
0.9880317834
0.9880315795
0.9880313289
0.9880310345
0.9880306995
0.988030328
0.9880299243
0.9880294936
0.9880290416
0.9880285749
0.988028101
0.9880276284
0.9880271672
0.9880267291
0.9880263281
0.9880259812
0.9880257086
0.9880255357
0.9880254934
0.9880256205
0.988025965
0.9880265872
0.9880275626
0.988028985
0.9880309664
0.9880336166
0.9880369039
0.9880398641
1
1
1
1
1
1
1
1
1
1
1
1
1
1
1
1
1
1
0.9880371636
1
1
1
1
1
1
1
1
1
1
1
1
1
1
1
1
1
1
1
1
1
1
1
1
1
1
1
1
1
1
0.9880300591
0.9880299948
0.988029867
0.9880296772
0.9880294277
0.9880291213
0.9880287617
0.9880283532
0.9880279006
0.9880274094
0.9880268858
0.9880263367
0.9880257697
0.9880251934
0.9880246175
0.9880240529
0.9880235124
0.9880230111
0.9880225669
0.9880222015
0.9880219416
0.9880218206
0.9880218802
0.9880221733
0.9880227671
0.9880237469
0.9880252209
0.9880273248
0.9880302288
0.9880341796
0.9880398215
1
1
1
1
1
1
1
1
1
1
1
1
1
1
1
1
1
1
0.9880363299
1
1
1
1
1
1
1
1
1
1
1
1
1
1
1
1
1
1
1
1
1
1
1
1
1
1
1
1
1
1
0.9880274742
0.9880273956
0.9880272393
0.9880270075
0.9880267029
0.9880263295
0.9880258917
0.9880253951
0.9880248457
0.9880242505
0.9880236171
0.9880229536
0.9880222692
0.9880215737
0.9880208778
0.9880201939
0.9880195354
0.9880189183
0.9880183611
0.9880178863
0.9880175213
0.9880173001
0.9880172661
0.9880174744
0.9880179964
0.9880189244
0.9880203781
0.9880225118
0.9880255175
0.9880296042
0.9880348139
0.9880398192
1
1
1
1
1
1
1
1
1
1
1
1
1
1
1
1
0.9880383983
0.9880328423
1
1
1
1
1
1
1
1
1
1
1
1
1
1
1
1
1
1
1
1
1
1
1
1
1
1
1
1
1
1
0.9880242113
0.9880241153
0.9880239247
0.9880236421
0.9880232713
0.9880228172
0.9880222857
0.9880216839
0.9880210194
0.9880203011
0.9880195381
0.9880187407
0.9880179195
0.988017086
0.9880162526
0.9880154324
0.9880146402
0.9880138923
0.9880132077
0.9880126085
0.9880121217
0.9880117807
0.9880116279
0.9880117179
0.988012122
0.9880129348
0.9880142826
0.9880163366
0.9880193356
0.9880236364
0.9880298808
0.988039746
1
1
1
1
1
1
1
1
1
1
1
1
1
1
1
1
0.9880389461
0.9880309717
1
1
1
1
1
1
1
1
1
1
1
1
1
1
1
1
1
1
1
1
1
1
1
1
1
1
1
1
1
1
0.9880201127
0.9880199958
0.9880197637
0.98801942
0.9880189694
0.9880184184
0.9880177748
0.9880170474
0.9880162462
0.9880153823
0.9880144672
0.9880135134
0.9880125338
0.988011542
0.988010552
0.9880095787
0.9880086375
0.9880077455
0.9880069212
0.988006186
0.9880055651
0.9880050894
0.9880047976
0.98800474
0.9880049828
0.9880056151
0.9880067586
0.9880085815
0.9880113217
0.9880153231
0.9880210881
0.9880292604
0.9880397427
1
1
1
1
1
1
1
1
1
1
1
1
1
1
0.9880390501
0.988034054
0.988028891
1
1
1
1
1
1
1
1
1
1
1
1
1
1
1
1
1
1
1
1
1
1
1
1
1
1
1
1
1
1
0.9880149869
0.9880148447
0.9880145627
0.9880141452
0.9880135988
0.9880129316
0.9880121537
0.9880112767
0.9880103134
0.9880092776
0.9880081841
0.9880070484
0.9880058862
0.9880047139
0.9880035477
0.9880024043
0.9880013004
0.9880002535
0.9879992816
0.9879984045
0.9879976445
0.9879970277
0.9879965866
0.9879963628
0.9879964116
0.9879968081
0.9879976561
0.9879991005
0.9880013446
0.988004672
0.9880094697
0.9880162392
0.98802565
0.9880396843
0.9880397002
1
1
1
1
1
1
1
1
1
1
0.9880393038
0.9880391191
0.9880327547
0.9880291872
0.9880265114
1
1
1
1
1
1
1
1
1
1
1
1
1
1
1
1
1
1
1
1
1
1
1
1
1
1
1
1
1
1
0.9880086025
0.9880084299
0.9880080875
0.9880075813
0.9880069195
0.988006113
0.9880051747
0.9880041194
0.9880029638
0.9880017254
0.9880004231
0.9879990763
0.9879977045
0.9879963274
0.9879949646
0.9879936349
0.9879923569
0.9879911484
0.9879900272
0.9879890107
0.987988117
0.987987366
0.987986781
0.9879863908
0.9879862339
0.987986363
0.9879868526
0.9879878086
0.9879893794
0.9879917684
0.9879952402
0.9880001064
0.9880066642
0.9880149454
0.988022711
0.988039604
0.9880396113
1
1
1
1
1
1
0.988039432
0.9880393129
0.9880285951
0.9880254279
0.9880235109
0.9880231954
0.988023748
1
1
1
1
1
1
1
1
1
1
1
1
1
1
1
1
1
1
1
1
1
1
1
1
1
1
1
1
1
1
0.9880006809
0.9880004715
0.9880000564
0.9879994433
0.9879986429
0.9879976692
0.9879965391
0.9879952716
0.9879938879
0.9879924109
0.9879908644
0.9879892728
0.9879876609
0.9879860528
0.9879844721
0.9879829412
0.9879814808
0.98798011
0.9879788459
0.9879777037
0.9879766965
0.9879758364
0.987975135
0.9879746047
0.9879742619
0.9879741297
0.9879742439
0.9879746596
0.9879754595
0.9879767618
0.9879787241
0.9879815326
0.9879853632
0.9879902995
0.9879963116
0.9880052763
0.9880147887
0.9880394579
0.9880394902
0.9880394716
0.9880394455
0.9880394139
0.9880393473
0.9880193048
0.988013556
0.9880101354
0.9880102257
0.9880123572
0.9880159998
0.9880205156
1
1
1
1
1
1
1
1
1
1
1
1
1
1
1
1
1
1
1
1
1
1
1
1
1
1
1
1
1
1
0.9879908883
0.9879906344
0.9879901317
0.9879893898
0.9879884228
0.9879872486
0.987985889
0.9879843685
0.9879827146
0.9879809562
0.987979124
0.9879772491
0.9879753625
0.9879734946
0.9879716744
0.9879699287
0.987968282
0.9879667551
0.9879653653
0.9879641255
0.9879630438
0.9879621232
0.9879613619
0.9879607531
0.9879602864
0.9879599495
0.9879597314
0.9879596271
0.9879596448
0.9879598138
0.9879601948
0.9879608869
0.9879620273
0.9879637707
0.9879662736
0.987969868
0.9879744253
0.9879812287
0.9879834671
0.9879847682
0.9879858342
0.98798674
0.9879871255
0.9879845502
0.9879850416
0.9879876723
0.9879924786
0.9879992049
0.988007481
0.9880167188
1
1
1
1
1
1
1
1
1
1
1
1
1
1
1
1
1
1
1
1
1
1
1
1
1
1
1
1
1
1
0.9879788265
0.987978519
0.9879779105
0.9879770135
0.9879758461
0.9879744313
0.9879727971
0.9879709751
0.9879690003
0.9879669101
0.9879647435
0.9879625401
0.9879603395
0.9879581799
0.9879560975
0.9879541257
0.9879522937
0.9879506257
0.9879491403
0.9879478488
0.9879467544
0.9879458513
0.9879451229
0.9879445412
0.9879440659
0.987943644
0.9879432108
0.9879426924
0.9879420111
0.9879410954
0.9879398991
0.9879384339
0.9879368168
0.9879352889
0.9879340222
0.987932447
0.9879308396
0.9879266901
0.987927534
0.9879294645
0.9879315566
0.9879337679
0.9879370466
0.987945863
0.9879535214
0.9879621972
0.9879720364
0.9879838161
0.9879974226
0.9880122455
1
1
1
1
1
1
1
1
1
1
1
1
1
1
1
1
1
1
1
1
1
1
1
1
1
1
1
1
1
1
0.9879640226
0.9879636504
0.9879629144
0.9879618305
0.9879604219
0.9879587182
0.9879567551
0.9879545732
0.9879522172
0.987949735
0.9879471764
0.9879445919
0.9879420318
0.9879395447
0.9879371766
0.9879349691
0.9879329587
0.9879311748
0.9879296389
0.9879283624
0.9879273449
0.987926572
0.9879260128
0.9879256171
0.9879253128
0.9879250025
0.9879245618
0.9879238385
0.9879226544
0.9879208139
0.9879181266
0.9879144659
0.9879099074
0.987904972
0.98790052
0.9878934909
0.9878882024
0.9878654989
0.9878688523
0.987872349
0.9878755271
0.9878781189
0.9878798633
0.9879068905
0.9879196502
0.9879343478
0.9879485813
0.9879656925
0.9879854282
0.9880069592
1
1
1
1
1
1
1
1
1
1
1
1
1
1
1
1
1
1
1
1
1
1
1
1
1
1
1
1
1
1
0.9879459179
0.9879454676
0.9879445776
0.9879432683
0.9879415693
0.9879395185
0.9879371612
0.9879345494
0.9879317399
0.9879287938
0.9879257745
0.9879227466
0.987919774
0.9879169188
0.9879142392
0.9879117885
0.9879096128
0.9879077496
0.9879062258
0.987905055
0.9879042354
0.987903746
0.987903543
0.9879035551
0.9879036776
0.9879037672
0.9879036356
0.987903044
0.9879016989
0.9878992507
0.9878952992
0.9878894352
0.9878814455
0.9878722366
0.9878676216
0.987850731
0.9878608101
1
1
1
1
1
1
0.9878801811
0.9878820302
0.9879053627
0.9879208548
0.9879437909
0.9879707601
0.9880006863
1
1
1
1
1
1
1
1
1
1
1
1
1
1
1
1
1
1
1
1
1
1
1
1
1
1
1
1
1
1
0.9879238548
0.98792331
0.9879222342
0.9879206532
0.9879186044
0.9879161361
0.987913306
0.9879101797
0.9879068297
0.9879033335
0.9878997716
0.9878962262
0.9878927785
0.9878895077
0.9878864881
0.9878837879
0.9878814666
0.9878795729
0.9878781426
0.987877195
0.98787673
0.9878767234
0.9878771217
0.9878778348
0.9878787283
0.9878796134
0.9878802364
0.9878802682
0.9878792923
0.9878767886
0.9878720958
0.9878643062
0.9878519873
0.9878326449
0.9878446663
1
1
1
1
1
1
1
1
1
1
0.9878822378
0.9878839368
0.9879164244
0.9879520727
0.987993196
1
1
1
1
1
1
1
1
1
1
1
1
1
1
1
1
1
1
1
1
1
1
1
1
1
1
1
1
1
1
0.9878970631
0.9878964044
0.9878951042
0.9878931952
0.987890725
0.9878877543
0.9878843561
0.9878806136
0.9878766183
0.9878724682
0.9878682653
0.9878641135
0.9878601161
0.9878563734
0.9878529806
0.987850025
0.9878475838
0.9878457214
0.9878444864
0.9878439085
0.9878439938
0.98784472
0.9878460287
0.9878478168
0.987849925
0.9878521233
0.9878540951
0.9878554213
0.9878555662
0.9878538632
0.9878494793
0.987841271
0.9878271059
1
1
1
1
1
1
1
1
1
1
1
1
1
1
0.9878841352
0.987926624
0.98798416
1
1
1
1
1
1
1
1
1
1
1
1
1
1
1
1
1
1
1
1
1
1
1
1
1
1
1
1
1
1
0.9878646455
0.987863849
0.9878622777
0.987859973
0.9878569945
0.9878534189
0.987849338
0.9878448563
0.9878400892
0.9878351599
0.9878301971
0.9878253318
0.9878206945
0.9878164123
0.9878126062
0.9878093882
0.9878068581
0.9878051012
0.9878041845
0.9878041533
0.9878050263
0.9878067894
0.9878093874
0.9878127126
0.9878165895
0.9878207554
0.9878248366
0.9878283249
0.9878305623
0.9878307524
0.9878280155
0.9878216307
1
1
1
1
1
1
1
1
1
1
1
1
1
1
1
1
0.9878845388
0.9879730598
1
1
1
1
1
1
1
1
1
1
1
1
1
1
1
1
1
1
1
1
1
1
1
1
1
1
1
1
1
1
0.9878255607
0.9878245977
0.9878226991
0.9878199166
0.9878163251
0.9878120207
0.9878071182
0.9878017487
0.9877960568
0.987790197
0.9877843305
0.9877786218
0.9877732351
0.9877683306
0.9877640615
0.9877605703
0.9877579861
0.9877564208
0.9877559664
0.9877566903
0.9877586313
0.9877617923
0.9877661313
0.9877715485
0.9877778669
0.9877848061
0.987791947
0.9877986902
0.9878042236
0.9878075393
0.987807445
0.9878010045
1
1
1
1
1
1
1
1
1
1
1
1
1
1
1
1
0.9878871229
0.9879590679
1
1
1
1
1
1
1
1
1
1
1
1
1
1
1
1
1
1
1
1
1
1
1
1
1
1
1
1
1
1
0.9877786071
0.987777443
0.987775149
0.9877717897
0.9877674586
0.9877622755
0.9877563838
0.987749947
0.9877431453
0.9877361715
0.9877292268
0.9877225168
0.9877162467
0.9877106175
0.987705822
0.9877020406
0.9876994383
0.9876981612
0.9876983328
0.9877000511
0.9877033834
0.98770836
0.9877149653
0.987723124
0.9877326792
0.9877433599
0.98775473
0.9877661118
0.9877764943
0.98778461
0.9877904698
1
1
1
1
1
1
1
1
1
1
1
1
1
1
1
1
1
1
0.9879154274
1
1
1
1
1
1
1
1
1
1
1
1
1
1
1
1
1
1
1
1
1
1
1
1
1
1
1
1
1
1
0.9877224045
0.9877209974
0.9877182257
0.9877141701
0.9877089465
0.9877027041
0.9876956206
0.9876878993
0.9876797639
0.9876714538
0.987663219
0.9876553149
0.987647997
0.9876415157
0.987636112
0.9876320127
0.9876294267
0.9876285419
0.9876295219
0.9876325032
0.9876375913
0.9876448559
0.9876543228
0.9876659618
0.9876796655
0.987695216
0.9877122242
0.9877300051
0.9877472377
0.9877608118
0.987761214
1
1
1
1
1
1
1
1
1
1
1
1
1
1
1
1
1
1
0.987900574
1
1
1
1
1
1
1
1
1
1
1
1
1
1
1
1
1
1
1
1
1
1
1
1
1
1
1
1
1
1
0.9876553759
0.9876536752
0.9876503268
0.9876454305
0.9876391302
0.9876316101
0.9876230903
0.9876138221
0.987604082
0.987594166
0.9875843834
0.9875750499
0.9875664817
0.9875589892
0.9875528714
0.9875484109
0.9875458697
0.9875454861
0.9875474721
0.9875520117
0.9875592585
0.9875693336
0.9875823201
0.9875982549
0.987617113
0.9876387849
0.9876630448
0.9876895213
0.9877177021
0.9877471567
1
1
1
1
1
1
1
1
1
1
1
1
1
1
1
1
1
1
1
1
1
1
1
1
1
1
1
1
1
1
1
1
1
1
1
1
1
1
1
1
1
1
1
1
1
1
1
1
1
1
0.9875757285
0.9875736734
0.9875696289
0.9875637182
0.9875561188
0.9875470578
0.9875368066
0.9875256745
0.987514002
0.9875021536
0.9874905097
0.9874794593
0.9874693916
0.9874606888
0.9874537195
0.9874488329
0.9874463541
0.9874465811
0.9874497829
0.9874561996
0.9874660423
0.9874794945
0.9874967115
0.9875178169
0.987542894
0.9875719724
0.9876050171
0.9876419594
0.9876828725
0.9877284913
1
1
1
1
1
1
1
1
1
1
1
1
1
1
1
1
1
1
1
1
1
1
1
1
1
1
1
1
1
1
1
1
1
1
1
1
1
1
1
1
1
1
1
1
1
1
1
1
1
1
0.9874814356
0.9874789529
0.9874740684
0.987466934
0.987457768
0.9874468493
0.9874345109
0.9874211324
0.9874071315
0.9873929548
0.9873790691
0.9873659506
0.9873540763
0.9873439144
0.9873359163
0.98733051
0.9873280946
0.9873290374
0.9873336731
0.9873423055
0.9873552112
0.9873726454
0.9873948475
0.9874220449
0.9874544508
0.9874922492
0.9875355675
0.9875844627
0.987639062
0.9877002835
1
1
1
1
1
1
1
1
1
1
1
1
1
1
1
1
1
1
1
1
1
1
1
1
1
1
1
1
1
1
1
1
1
1
1
1
1
1
1
1
1
1
1
1
1
1
1
1
1
1
0.9873702185
0.9873672201
0.9873613228
0.9873527132
0.9873416587
0.9873285009
0.987313647
0.9872975611
0.9872807535
0.98726377
0.98724718
0.9872315651
0.9872175068
0.9872055756
0.9871963214
0.9871902644
0.9871878898
0.9871896444
0.9871959365
0.9872071401
0.9872236024
0.9872456557
0.9872736321
0.9873078785
0.9873487652
0.9873966718
0.9874519129
0.9875145344
0.9875839846
0.9876599085
1
1
1
1
1
1
1
1
1
1
1
1
1
1
1
1
1
1
1
1
1
1
1
1
1
1
1
1
1
1
1
1
1
1
1
1
1
1
1
1
1
1
1
1
1
1
1
1
1
1
0.9872395299
0.9872359099
0.9872287925
0.9872184056
0.9872050763
0.9871892211
0.9871713367
0.9871519884
0.9871317976
0.9871114285
0.9870915739
0.9870729407
0.9870562352
0.9870421495
0.9870313493
0.9870244633
0.9870220759
0.9870247238
0.9870328962
0.9870470413
0.9870675781
0.9870949156
0.9871294793
0.9871717445
0.9872222733
0.9872817375
0.9873508679
0.9874300532
0.9875172797
0.987597815
1
1
1
1
1
1
1
1
1
1
1
1
1
1
1
1
1
1
1
1
1
1
1
1
1
1
1
1
1
1
1
1
1
1
1
1
1
1
1
1
1
1
1
1
1
1
1
1
1
1
0.9870865392
0.9870821709
0.9870735845
0.9870610584
0.9870449908
0.9870258886
0.9870043555
0.9869810777
0.9869568094
0.9869323565
0.9869085588
0.9868862726
0.9868663528
0.9868496355
0.986836923
0.9868289706
0.9868264769
0.9868300795
0.9868403552
0.9868578277
0.9868829836
0.9869162988
0.9869582777
0.9870095103
0.9870707529
0.9871430548
0.9872280084
0.9873284664
0.9874513506
0.9876206117
1
1
1
1
1
1
1
1
1
1
1
1
1
1
1
1
1
1
1
1
1
1
1
1
1
1
1
1
1
1
1
1
1
1
1
1
1
1
1
1
1
1
1
1
1
1
1
1
1
1
0.9869081209
0.9869028525
0.9868924993
0.9868774006
0.9868580401
0.9868350326
0.9868091095
0.9867811016
0.9867519216
0.9867225436
0.9866939828
0.9866672733
0.9866434463
0.9866235088
0.986608424
0.9865990948
0.9865963515
0.9866009447
0.986613545
0.9866347506
0.9866651062
0.9867051335
0.9867553811
0.986816498
0.9868893404
0.9869751261
0.9870756499
0.9871935158
0.9873318267
0.9874893472
0.9876263295
1
1
1
1
1
1
1
1
1
1
1
1
1
1
1
1
1
1
0.9877969373
1
1
1
1
1
1
1
1
1
1
1
1
1
1
1
1
1
1
1
1
1
1
1
1
1
1
1
1
1
1
0.9867008462
0.9866944961
0.9866820205
0.9866638314
0.986640515
0.9866128153
0.9865816155
0.9865479187
0.9865128256
0.9864775108
0.9864431978
0.9864111318
0.9863825534
0.9863586717
0.98634064
0.9863295342
0.9863263362
0.986331924
0.9863470688
0.9863724417
0.9864086314
0.986456177
0.9865156203
0.9865875902
0.9866729228
0.9867728311
0.9868891351
0.987024571
0.9871833258
0.9873730638
0.9876181771
1
1
1
1
1
1
1
1
1
1
1
1
1
1
1
1
1
1
0.9877502515
1
1
1
1
1
1
1
1
1
1
1
1
1
1
1
1
1
1
1
1
1
1
1
1
1
1
1
1
1
1
0.9864609799
0.9864533317
0.9864383092
0.9864164122
0.9863883494
0.9863550182
0.986317483
0.986276951
0.986234746
0.9861922802
0.9861510239
0.986112473
0.9860781165
0.9860494032
0.9860277109
0.9860143185
0.9860103842
0.9860169305
0.9860348387
0.9860648519
0.9861075888
0.9861635733
0.9862332835
0.9863172343
0.9864161044
0.986530916
0.9866632592
0.9868155406
0.9869911162
0.9871935106
0.9874197262
0.9876153854
1
1
1
1
1
1
1
1
1
1
1
1
1
1
1
1
0.9876838666
0.9877709008
1
1
1
1
1
1
1
1
1
1
1
1
1
1
1
1
1
1
1
1
1
1
1
1
1
1
1
1
1
1
0.9861844831
0.9861752788
0.9861572042
0.9861308643
0.9860971139
0.9860570334
0.9860119015
0.985963167
0.9859124177
0.9858613466
0.985811716
0.9857653188
0.9857239383
0.985689308
0.9856630717
0.9856467479
0.9856417002
0.9856491175
0.9856700037
0.9857051767
0.9857552779
0.9858207883
0.9859020633
0.9859994042
0.9861131859
0.9862440516
0.9863931704
0.9865625688
0.9867556831
0.9869787858
0.987246336
0.9876067941
1
1
1
1
1
1
1
1
1
1
1
1
1
1
1
1
0.9876267327
0.9877351247
1
1
1
1
1
1
1
1
1
1
1
1
1
1
1
1
1
1