/*--------------------------------*- C++ -*----------------------------------*\
  =========                 |
  \\      /  F ield         | OpenFOAM: The Open Source CFD Toolbox
   \\    /   O peration     | Website:  https://openfoam.org
    \\  /    A nd           | Version:  10
     \\/     M anipulation  |
\*---------------------------------------------------------------------------*/
FoamFile
{
    format      ascii;
    class       volScalarField;
    location    "0.008";
    object      TRHS;
}
// * * * * * * * * * * * * * * * * * * * * * * * * * * * * * * * * * * * * * //

dimensions      [1 -1 -3 0 0 0 0];

internalField   nonuniform List<scalar> 
19200
(
-1.295810273e-07
-2.126107624e-06
-9.548182666e-06
-1.726278217e-05
-2.377427323e-05
-3.045115793e-05
-3.694386735e-05
-4.317917281e-05
-4.923085049e-05
-5.46607215e-05
-5.978337753e-05
-6.503535131e-05
-6.998973275e-05
-7.412512101e-05
-7.763682648e-05
-8.101365315e-05
-8.433919705e-05
-8.72851157e-05
-8.956315297e-05
-9.120015395e-05
-9.243738666e-05
-9.347757529e-05
-9.433936835e-05
-9.489501718e-05
-9.50063844e-05
-9.463509438e-05
-9.385933056e-05
-9.281165001e-05
-9.159948162e-05
-9.026334504e-05
-8.878793984e-05
-8.714394732e-05
-8.532656897e-05
-8.336947991e-05
-8.133390385e-05
-7.928669803e-05
-7.728299422e-05
-7.53594058e-05
-7.353489704e-05
-7.181981032e-05
-7.022711682e-05
-6.876574275e-05
-6.743916035e-05
-6.626073546e-05
-6.523448964e-05
-6.436221872e-05
-6.364037505e-05
-6.307919893e-05
-6.269223069e-05
-3.851316045e-05
-0.0006989403218
0
0
0
0
0
0
0
0
0
0
0
0
0
0
0
0
0
0
0
0
0
0
0
0
0
0
0
0
0
-6.65353285e-06
-1.838101171e-05
-3.179548188e-05
-4.471232812e-05
-5.659300415e-05
-6.857037666e-05
-8.020858564e-05
-9.076016587e-05
-0.0001007741556
-0.0001106311301
-0.0001200886718
-0.0001287044977
-0.0001362624545
-0.0001429953254
-0.0001492851361
-0.0001551748155
-0.000160331603
-0.0001644459335
-0.0001675417021
-0.0001699049815
-0.0001717963545
-0.0001732547199
-0.0001741263323
-0.0001742352539
-0.0001735333586
-0.0001721309442
-0.000170218747
-0.0001679605699
-0.0001654320811
-0.000162630664
-0.0001595302543
-0.0001561358244
-0.0001525062875
-0.0001487425388
-0.0001449573981
-0.0001412474969
-0.0001376808014
-0.0001343019225
-0.0001311389426
-0.000128205653
-0.0001255189924
-0.0001230989676
-0.0001209507302
-0.0001190860926
-0.0001175027907
-0.0001162130074
-0.0001152218926
-0.0001145283144
-9.012376416e-05
-3.135428837e-05
-0.0007101159852
0
0
0
0
0
0
0
0
0
0
0
0
0
0
0
0
0
0
0
0
0
0
0
0
0
0
0
0
0
-6.066574987e-06
-1.595567233e-05
-2.785126326e-05
-3.984563617e-05
-5.126695143e-05
-6.20553406e-05
-7.216265313e-05
-8.208224943e-05
-9.195275503e-05
-0.0001011133348
-0.0001094107591
-0.0001171498415
-0.0001243538184
-0.0001308979264
-0.0001368166239
-0.0001421514777
-0.0001467814285
-0.0001505610227
-0.0001535154827
-0.0001558213395
-0.0001576308499
-0.0001589490352
-0.0001596620495
-0.0001596572985
-0.0001589219574
-0.0001575553062
-0.000155707715
-0.0001535038647
-0.0001510023127
-0.000148206877
-0.0001451095581
-0.0001417315128
-0.0001381390833
-0.0001344327009
-0.0001307220449
-0.0001271020884
-0.0001236404001
-0.0001203813063
-0.0001173531016
-0.0001145668081
-0.0001120343933
-0.0001097658559
-0.0001077586015
-0.0001060276249
-0.0001045687228
-0.0001033772917
-0.0001024678812
-0.0001018408711
-8.129896505e-05
-2.98785197e-05
-0.0007337929746
0
0
0
0
0
0
0
0
0
0
0
0
0
0
0
0
0
0
0
0
0
0
0
0
0
0
0
0
0
-5.931687422e-06
-1.571471102e-05
-2.865832309e-05
-4.094051943e-05
-5.208208486e-05
-6.315093431e-05
-7.400570705e-05
-8.445775847e-05
-9.447524082e-05
-0.0001036857591
-0.0001122061883
-0.0001203514016
-0.0001279696057
-0.0001347850521
-0.0001408256373
-0.0001462301793
-0.0001509678008
-0.0001549078703
-0.00015802469
-0.0001604309719
-0.0001622473771
-0.0001634894989
-0.00016407575
-0.0001639193929
-0.0001630117053
-0.0001614373559
-0.0001593271083
-0.000156793857
-0.0001538972532
-0.0001506526742
-0.0001470687283
-0.0001431840821
-0.0001390820904
-0.0001348801566
-0.0001307048973
-0.0001266659591
-0.0001228394569
-0.0001192748866
-0.0001160021481
-0.0001130246941
-0.0001103513332
-0.000107983583
-0.0001059171162
-0.0001041396983
-0.0001026592368
-0.0001014600279
-0.0001005583893
-9.992885151e-05
-7.960536306e-05
-2.96493289e-05
-0.0007718845602
0
0
0
0
0
0
0
0
0
0
0
0
0
0
0
0
0
0
0
0
0
0
0
0
0
0
0
0
0
-6.379267363e-06
-1.671033601e-05
-3.006099164e-05
-4.292305708e-05
-5.487252834e-05
-6.679220094e-05
-7.836589077e-05
-8.936489201e-05
-9.98735527e-05
-0.0001096405408
-0.0001188007964
-0.000127586615
-0.0001357442999
-0.0001429669625
-0.0001493341073
-0.0001550537644
-0.0001601183527
-0.0001643665216
-0.0001677228826
-0.0001702685963
-0.0001721237588
-0.0001733231158
-0.0001738039452
-0.0001734845818
-0.0001723466479
-0.000170458638
-0.0001679384227
-0.0001648949806
-0.0001613934953
-0.0001574619629
-0.000153126501
-0.0001484475299
-0.0001435346911
-0.0001385353114
-0.0001336080771
-0.0001288914656
-0.0001244730679
-0.0001204067034
-0.000116725925
-0.0001134288976
-0.0001105250396
-0.0001079774944
-0.0001057990628
-0.000103942992
-0.0001024110642
-0.000101178804
-0.000100259223
-9.962136322e-05
-7.928659148e-05
-2.956715507e-05
-0.000827909717
0
0
0
0
0
0
0
0
0
0
0
0
0
0
0
0
0
0
0
0
0
0
0
0
0
0
0
0
0
-6.770769986e-06
-1.770738247e-05
-3.195490854e-05
-4.578189959e-05
-5.870611438e-05
-7.151864844e-05
-8.387838448e-05
-9.562408217e-05
-0.0001069176487
-0.0001175065641
-0.0001274741284
-0.0001369971284
-0.0001457900182
-0.0001535600373
-0.0001604327284
-0.0001666470041
-0.0001721826318
-0.0001768372381
-0.000180500231
-0.000183243185
-0.0001851977604
-0.0001864141153
-0.0001868342507
-0.0001863668079
-0.0001849751328
-0.0001827099747
-0.0001796785167
-0.0001759878819
-0.0001717088516
-0.0001668809724
-0.0001615482559
-0.000155797909
-0.0001497766365
-0.0001436766761
-0.00013770687
-0.0001320572595
-0.0001268348444
-0.0001220958367
-0.0001178578511
-0.0001141246952
-0.0001109273302
-0.0001081601634
-0.0001058214875
-0.0001038676376
-0.0001022713639
-0.0001010112826
-0.0001000600849
-9.941644598e-05
-7.911644553e-05
-2.950192753e-05
-0.0009077864851
0
0
0
0
0
0
0
0
0
0
0
0
0
0
0
0
0
0
0
0
0
0
0
0
0
0
0
0
0
-7.217602272e-06
-1.894484724e-05
-3.436249768e-05
-4.932014819e-05
-6.329260453e-05
-7.709832318e-05
-9.042875391e-05
-0.0001031597238
-0.0001154636814
-0.0001270428783
-0.0001379387203
-0.0001483156906
-0.0001578905441
-0.0001663868114
-0.0001739530204
-0.0001808321325
-0.0001869783717
-0.0001921534478
-0.0001962261797
-0.000199270227
-0.0002014299066
-0.0002027617634
-0.00020319926
-0.0002026301131
-0.0002009932242
-0.0001983196712
-0.0001947052827
-0.0001902532283
-0.0001850357029
-0.0001790991578
-0.0001725036106
-0.0001653668541
-0.0001578850803
-0.0001503150138
-0.000142942115
-0.0001360572992
-0.0001297828163
-0.0001241893302
-0.0001192288582
-0.0001148898974
-0.0001113162131
-0.0001083300431
-0.0001058295359
-0.0001037349931
-0.0001020602405
-0.0001007878347
-9.984362466e-05
-9.92017127e-05
-7.89111865e-05
-2.942488674e-05
-0.001021487151
0
0
0
0
0
0
0
0
0
0
0
0
0
0
0
0
0
0
0
0
0
0
0
0
0
0
0
0
0
-7.775078918e-06
-2.045803792e-05
-3.717908303e-05
-5.336931938e-05
-6.850905928e-05
-8.347572441e-05
-9.797761549e-05
-0.000111887811
-0.0001253628708
-0.0001380632143
-0.0001500157057
-0.0001613989571
-0.0001719371455
-0.0001813552124
-0.0001898047558
-0.0001975210161
-0.0002044332283
-0.000210276046
-0.0002149070388
-0.0002184051754
-0.0002209224616
-0.000222511223
-0.0002230848429
-0.0002225014033
-0.0002206704423
-0.0002176004169
-0.0002133718364
-0.0002080769279
-0.0002017796307
-0.0001945237512
-0.0001863786418
-0.0001774925211
-0.00016812392
-0.000158620898
-0.000149377169
-0.0001408828133
-0.0001332723791
-0.0001266696714
-0.0001207798023
-0.0001155917027
-0.0001116216699
-0.0001084117357
-0.000105756459
-0.0001034744099
-0.0001017459831
-0.0001004658976
-9.953656414e-05
-9.893198264e-05
-7.869663488e-05
-2.933751137e-05
-0.001186474431
0
0
0
0
0
0
0
0
0
0
0
0
0
0
0
0
0
0
0
0
0
0
0
0
0
0
0
0
0
-8.428961113e-06
-2.217764315e-05
-4.029893665e-05
-5.783133256e-05
-7.427675761e-05
-9.056322076e-05
-0.0001063919536
-0.0001216177189
-0.0001363854504
-0.0001503304975
-0.0001634838891
-0.0001760458177
-0.0001877392493
-0.0001982750601
-0.000207797587
-0.0002165335508
-0.0002243930127
-0.0002310905108
-0.000236475731
-0.0002406303843
-0.0002437061991
-0.0002457407571
-0.0002466177241
-0.0002461588172
-0.0002442397777
-0.0002408415419
-0.000236020994
-0.0002298467236
-0.0002223592101
-0.000213584784
-0.000203588934
-0.0001925405762
-0.0001807724987
-0.0001687607977
-0.0001569566789
-0.0001464657477
-0.0001371325794
-0.0001295840055
-9.638918606e-05
-9.132604282e-05
-8.835493443e-05
-8.586994457e-05
-8.384038782e-05
-8.173949035e-05
-0.0001020807178
-0.0001001662547
-9.920617715e-05
-9.861738377e-05
-7.846436594e-05
-2.924649493e-05
-0.001435322732
0
0
0
0
0
0
0
0
0
0
0
0
0
0
0
0
0
0
0
0
0
0
0
0
0
0
0
0
0
-9.144273951e-06
-2.40355105e-05
-4.363732811e-05
-6.260747144e-05
-8.046461411e-05
-9.817644409e-05
-0.0001154282495
-0.0001320601108
-0.0001482191462
-0.0001635277838
-0.0001780276109
-0.000191937802
-0.0002049697418
-0.0002168107702
-0.0002275961628
-0.0002375489147
-0.0002465660637
-0.0002543452739
-0.0002607268539
-0.0002657891173
-0.0002696743244
-0.0002723956941
-0.0002737995024
-0.0002736658303
-0.0002718316346
-0.0002682422792
-0.000262917939
-0.0002558864998
-0.0002471465508
-0.0002366887985
-0.0002245530429
-0.0002108979802
-0.0001961154677
-0.0001809330411
-0.0001653847285
-0.0001527197366
-0.000110202441
-6.043959143e-05
-3.439675525e-05
-1.703269092e-05
-1.632345605e-05
-3.141294987e-05
-3.077181425e-05
-5.14769394e-05
-8.588215768e-05
-8.005215652e-05
-9.97514889e-05
-9.837113904e-05
-7.822166406e-05
-2.916058575e-05
-0.0018342042
0
0
0
0
0
0
0
0
0
0
0
0
0
0
0
0
0
0
0
0
0
0
0
0
0
0
0
0
0
-9.897991919e-06
-2.598072678e-05
-4.710286357e-05
-6.755639453e-05
-8.686888655e-05
-0.0001060469444
-0.0001247633848
-0.0001428535133
-0.0001604779238
-0.0001772502511
-0.0001932220241
-0.0002086271883
-0.0002231590721
-0.0002364784136
-0.0002487148296
-0.0002600941184
-0.0002705047596
-0.0002796273325
-0.0002872879756
-0.0002935536049
-0.0002985478291
-0.0003022513812
-0.0003044672773
-0.0003049291474
-0.0003034281943
-0.0002998624669
-0.0002941995799
-0.0002864098115
-0.0002764331299
-0.0002642056101
-0.0002497105513
-0.0002330156373
-0.0002144027049
-0.0001959061073
-0.0001353497977
-7.155429608e-05
2.158066868e-05
7.067738346
-0.008078943609
4.377496056
4.304036182
-0.008277695775
6.874331952
6.302616631e-06
-3.042777104e-05
-5.033331621e-05
-8.394434737e-05
-7.884670594e-05
-7.889777996e-05
-2.914237911e-05
-0.002532526191
0
0
0
0
0
0
0
0
0
0
0
0
0
0
0
0
0
0
0
0
0
0
0
0
0
0
0
0
0
-1.066983208e-05
-2.795317601e-05
-5.056876627e-05
-7.248019931e-05
-9.322063066e-05
-0.0001138424613
-0.0001340133549
-0.0001535720235
-0.000172698678
-0.0001909974736
-0.0002085280523
-0.0002255376996
-0.0002417000079
-0.0002566504167
-0.0002705185719
-0.0002835394046
-0.000295595337
-0.0003063471856
-0.0003156003361
-0.0003234019283
-0.0003298488734
-0.0003348831987
-0.0003382599249
-0.0003396603503
-0.0003388199551
-0.0003355755988
-0.0003298288888
-0.0003214825643
-0.0003104050309
-0.000296454755
-0.0002795465486
-0.0002596160003
-0.0002351582076
-8.630412766e-05
-1.676524073e-07
1.547005348
5.23128007
0
0
0
0
0
0
4.375146178
0.8881752
-1.829427206e-05
-2.883679008e-05
-4.973725849e-05
-6.335516422e-05
-3.030337968e-05
-0.003911104975
0
0
0
0
0
0
0
0
0
0
0
0
0
0
0
0
0
0
0
0
0
0
0
0
0
0
0
0
0
-1.142814077e-05
-2.986641529e-05
-5.386969109e-05
-7.713682098e-05
-9.920774897e-05
-0.0001211892152
-0.0001427494673
-0.00016373526
-0.0001843494953
-0.0002041853144
-0.0002233106233
-0.0002419882288
-0.0002598737231
-0.0002765806389
-0.0002922448266
-0.0003071158325
-0.0003210709707
-0.0003337472289
-0.0003449223087
-0.000354616384
-0.0003628939818
-0.0003696543122
-0.000374599735
-0.0003773509232
-0.0003775752182
-0.0003750364247
-0.0003695655389
-0.0003609979577
-0.0003491106643
-0.0003336470155
-0.0003144947717
-0.0002930240254
-9.312917216e-05
2.37409732
6.148016265
0
0
0
0
0
0
0
0
0
0
3.513749287
0.2725853057
-3.436541833e-05
-3.028700513e-05
-2.233017716e-05
-0.007071988567
0
0
0
0
0
0
0
0
0
0
0
0
0
0
0
0
0
0
0
0
0
0
0
0
0
0
0
0
0
-1.213353928e-05
-3.161843203e-05
-5.682374783e-05
-8.127051036e-05
-0.0001045074513
-0.0001277022061
-0.0001505265743
-0.0001728378937
-0.000194864464
-0.0002161882027
-0.0002368879372
-0.0002572466864
-0.0002769053163
-0.0002954592735
-0.0003130563913
-0.0003299653674
-0.0003460582672
-0.0003609437167
-0.0003743658699
-0.0003863136384
-0.0003968171154
-0.0004057307658
-0.0004126987539
-0.0004172701662
-0.0004190317289
-0.0004176687304
-0.000412947555
-0.0004046409912
-0.0003924267063
-0.0003757863345
-0.0003531738927
-0.0001535226134
2.382497592
0
0
0
0
0
0
0
0
0
0
0
0
0
0
20.62763189
5.420241416e-05
3.650785036e-05
9.855746617
0
0
0
0
0
0
0
0
0
0
0
0
0
0
0
0
0
0
0
0
0
0
0
0
0
0
0
0
0
-1.274624055e-05
-3.310686333e-05
-5.925379039e-05
-8.463642737e-05
-0.0001088115847
-0.0001330116265
-0.0001569131548
-0.0001803863632
-0.0002036886775
-0.0002263921155
-0.0002485906249
-0.0002705930851
-0.0002920290015
-0.0003124790502
-0.0003321080253
-0.0003512073142
-0.0003696427113
-0.000386990099
-0.0004029564825
-0.0004174996118
-0.0004306177957
-0.0004421211227
-0.0004515890605
-0.0004584868646
-0.0004623112523
-0.0004626696001
-0.0004592661131
-0.000451820423
-0.0004400746632
-0.0004240611972
-0.0003309234075
-5.038754359e-05
6.195143486
0
0
0
0
0
0
0
0
0
0
0
0
0
0
5.262293595
1.932302987e-05
-1.839368145e-08
-0.00496617609
0
0
0
0
0
0
0
0
0
0
0
0
0
0
0
0
0
0
0
0
0
0
0
0
0
0
0
0
0
-1.322804817e-05
-3.423597451e-05
-6.099901518e-05
-8.701491788e-05
-0.0001118438857
-0.0001367849369
-0.0001615202671
-0.0001859357776
-0.0002103227363
-0.0002342452676
-0.0002578169418
-0.0002813779742
-0.0003045492099
-0.0003268989523
-0.0003486129011
-0.0003700075199
-0.0003909403982
-0.0004109506662
-0.0004297073774
-0.0004471422462
-0.0004632294759
-0.0004777376466
-0.0004901752602
-0.0004999132911
-0.0005063544397
-0.0005090257491
-0.0005075307846
-0.0005014841281
-0.0004903319615
-0.0004728767556
-0.0002257820325
1.599874362
0
0
0
0
0
0
0
0
0
0
0
0
0
0
0
0
16.76663575
0.0001434451369
21.89714637
0
0
0
0
0
0
0
0
0
0
0
0
0
0
0
0
0
0
0
0
0
0
0
0
0
0
0
0
0
-1.35437137e-05
-3.492189909e-05
-6.192484903e-05
-8.822518178e-05
-0.000113378381
-0.0001387512023
-0.0001640323116
-0.0001891265791
-0.0002143640627
-0.0002393027085
-0.0002640796924
-0.0002890713974
-0.0003138918471
-0.0003380983323
-0.0003619002522
-0.0003856403511
-0.0004091652166
-0.0004319734875
-0.0004536977157
-0.0004742526736
-0.0004936000265
-0.0005114720841
-0.0005273025402
-0.0005403637597
-0.0005499691158
-0.0005555587005
-0.0005566253304
-0.0005526521282
-0.00054347687
-0.0004308203294
-5.605068794e-05
5.370061587
0
0
0
0
0
0
0
0
0
0
0
0
0
0
0
0
-0.008017790276
2.12151949e-06
0.5835162477
0
0
0
0
0
0
0
0
0
0
0
0
0
0
0
0
0
0
0
0
0
0
0
0
0
0
0
0
0
-1.366459578e-05
-3.510016689e-05
-6.193399247e-05
-8.813978251e-05
-0.0001132578628
-0.00013872363
-0.0001642330121
-0.0001897128601
-0.0002155364122
-0.0002412562393
-0.0002670362913
-0.0002932933057
-0.0003196355631
-0.0003456097018
-0.0003714505707
-0.000397527698
-0.0004236736915
-0.000449343191
-0.0004741343028
-0.0004979547923
-0.0005207660906
-0.0005422708007
-0.0005618286346
-0.0005786185096
-0.0005918740987
-0.0006009436175
-0.0006051871295
-0.0006036890401
-0.000594853859
-0.0002903150294
7.162485483
0
0
0
0
0
0
0
0
0
0
0
0
0
0
0
0
0
0
-0.002690980893
0
0
0
0
0
0
0
0
0
0
0
0
0
0
0
0
0
0
0
0
0
0
0
0
0
0
0
0
0
0
-1.357220029e-05
-3.473182799e-05
-6.097351856e-05
-8.669295382e-05
-0.0001114034135
-0.0001366097996
-0.0001620154966
-0.0001875714476
-0.0002136974078
-0.0002399402201
-0.0002664929473
-0.000293816363
-0.0003215134766
-0.0003491197294
-0.0003768964748
-0.0004052410193
-0.000433970608
-0.0004624933228
-0.0004903734366
-0.0005175177772
-0.0005438955702
-0.0005691852583
-0.000592679319
-0.0006134800174
-0.0006307504435
-0.000643818167
-0.0006520415679
-0.0006547792162
-0.0005232149534
-0.0002141226759
-0.007880316441
0
0
0
0
0
0
0
0
0
0
0
0
0
0
0
0
0
0
0
0
0
0
0
0
0
0
0
0
0
0
0
0
0
0
0
0
0
0
0
0
0
0
0
0
0
0
0
0
0
-1.325921809e-05
-3.380448729e-05
-5.903405612e-05
-8.38781257e-05
-0.000107810052
-0.0001324048594
-0.0001573724858
-0.0001826887877
-0.0002088221524
-0.0002353121517
-0.0002623824591
-0.0002905410848
-0.0003193857235
-0.0003484392189
-0.0003779900697
-0.0004084663183
-0.0004396728348
-0.000470971651
-0.0005018913342
-0.0005323354695
-0.0005622795727
-0.0005913799261
-0.0006188757648
-0.0006438146529
-0.0006653118522
-0.000682781067
-0.0006959209515
-0.000704751923
-0.0005783732874
-0.0002103946149
4.654831869
0
0
0
0
0
0
0
0
0
0
0
0
0
0
0
0
0
0
0
0
0
0
0
0
0
0
0
0
0
0
0
0
0
0
0
0
0
0
0
0
0
0
0
0
0
0
0
0
0
-1.272812417e-05
-3.23284641e-05
-5.614204278e-05
-7.973626782e-05
-0.0001025307958
-0.0001261708377
-0.0001503706143
-0.0001751303703
-0.000200968147
-0.0002274136174
-0.0002547216417
-0.000283450069
-0.0003131908444
-0.0003434519688
-0.0003745489464
-0.0004069460238
-0.0004404457258
-0.000474371143
-0.0005082123718
-0.0005418574673
-0.0005752740004
-0.0006080913026
-0.0006395117598
-0.0006685274526
-0.0006941822305
-0.0007157567476
-0.0007332486732
-0.0007461915258
-0.0006117030187
-0.0002216508951
4.654821085
0
0
0
0
0
0
0
0
0
0
0
0
0
0
0
0
0
0
0
0
0
0
0
0
0
0
0
0
0
0
0
0
0
0
0
0
0
0
0
0
0
0
0
0
0
0
0
0
0
-1.198855882e-05
-3.033039664e-05
-5.234841764e-05
-7.433925678e-05
-9.565407498e-05
-0.0001180076057
-0.0001411147701
-0.0001649986149
-0.0001902272257
-0.0002163170676
-0.0002435538752
-0.0002725472469
-0.0003028830723
-0.0003340517994
-0.0003663936721
-0.0004004151972
-0.0004359339835
-0.000472251425
-0.000508820332
-0.0005454950576
-0.0005822118591
-0.0006185661449
-0.0006537380416
-0.0006867269733
-0.0007165873964
-0.0007424315444
-0.0007635781343
-0.0007797912808
-0.0006390301579
-0.0002490119085
-0.007880342574
0
0
0
0
0
0
0
0
0
0
0
0
0
0
0
0
0
0
0
0
0
0
0
0
0
0
0
0
0
0
0
0
0
0
0
0
0
0
0
0
0
0
0
0
0
0
0
0
0
-1.105449021e-05
-2.784630436e-05
-4.771659364e-05
-6.777185918e-05
-8.727887461e-05
-0.0001080206242
-0.0001297082193
-0.0001523854301
-0.0001766709462
-0.000202064946
-0.0002288832364
-0.0002577884129
-0.0002883614696
-0.0003200738999
-0.0003532847745
-0.000388544521
-0.0004257064168
-0.0004640782077
-0.0005030869329
-0.0005425390148
-0.0005823179558
-0.0006219910089
-0.0006607240288
-0.0006974628241
-0.0007311958129
-0.0007612072732
-0.000786290947
-0.0008060611618
-0.0006603144835
-0.000256322759
7.162453465
0
0
0
0
0
0
0
0
0
0
0
0
0
0
0
0
0
0
-0.002657460431
0
0
0
0
0
0
0
0
0
0
0
0
0
0
0
0
0
0
0
0
0
0
0
0
0
0
0
0
0
0
-9.941657264e-06
-2.491527282e-05
-4.231200588e-05
-6.01162898e-05
-7.74937849e-05
-9.629432539e-05
-0.0001162203553
-0.0001373343589
-0.0001603071608
-0.0001846211521
-0.000210621699
-0.0002390246912
-0.0002694108779
-0.000301237075
-0.0003348722977
-0.0003709020816
-0.0004092298988
-0.0004492031534
-0.0004902471182
-0.0005321166422
-0.0005746208566
-0.0006172941384
-0.0006593560144
-0.0006997697097
-0.000737304497
-0.0007712867538
-0.0008009180316
-0.0008257905468
-0.0006802323394
-0.0004437410753
-0.0002668636869
5.369968338
0
0
0
0
0
0
0
0
0
0
0
0
0
0
0
0
-0.007969798947
1.89356768e-06
0.5218854341
0
0
0
0
0
0
0
0
0
0
0
0
0
0
0
0
0
0
0
0
0
0
0
0
0
0
0
0
0
-8.665668114e-06
-2.157520933e-05
-3.61973722e-05
-5.144743599e-05
-6.637307128e-05
-8.289012703e-05
-0.0001006875981
-0.0001198446833
-0.0001410867532
-0.0001638797493
-0.0001885992726
-0.0002160120407
-0.0002457078966
-0.0002771457625
-0.0003106983775
-0.0003469648981
-0.0003858977748
-0.0004269128236
-0.0004694695215
-0.000513295018
-0.0005581397438
-0.0006035005741
-0.000648599579
-0.0006923942748
-0.0007336370837
-0.0007715547449
-0.0008058888075
-0.0008355223472
-0.0008693233077
-0.0007515303319
-0.0002749397468
1.59980287
0
0
0
0
0
0
0
0
0
0
0
0
0
0
0
0
16.806962
0.0001432775162
21.80949716
0
0
0
0
0
0
0
0
0
0
0
0
0
0
0
0
0
0
0
0
0
0
0
0
0
0
0
0
0
-7.241644486e-06
-1.786402189e-05
-2.944162505e-05
-4.185251992e-05
-5.401007086e-05
-6.789630154e-05
-8.318183743e-05
-9.995931844e-05
-0.000119009846
-0.0001397875623
-0.000162701321
-0.000188558801
-0.0002169704626
-0.0002474325229
-0.0002803282171
-0.0003162423516
-0.0003551561141
-0.0003965669846
-0.0004400013556
-0.0004851874042
-0.0005318446226
-0.000579476823
-0.0006273136849
-0.0006742662313
-0.0007191935842
-0.0007611496482
-0.0007994807913
-0.0008343573952
-0.0008641626923
-0.0007134003805
-0.0004592500246
-0.0002953376783
6.194980012
0
0
0
0
0
0
0
0
0
0
0
0
0
0
5.292857694
1.942841924e-05
-1.885924915e-08
-0.005091879502
0
0
0
0
0
0
0
0
0
0
0
0
0
0
0
0
0
0
0
0
0
0
0
0
0
0
0
0
0
-5.687218106e-06
-1.383161915e-05
-2.21519288e-05
-3.148808552e-05
-4.060313681e-05
-5.154584452e-05
-6.39623765e-05
-7.795203906e-05
-9.434699053e-05
-0.0001125968845
-0.0001331520757
-0.0001568369825
-0.0001832882167
-0.0002120916354
-0.0002436695871
-0.0002785713099
-0.0003167758379
-0.0003578610676
-0.0004014503586
-0.0004473120414
-0.000495158418
-0.0005444983035
-0.000594533299
-0.0006440905565
-0.0006923315591
-0.0007388293247
-0.0007813482411
-0.0008214244599
-0.0008559626602
-0.0008943953057
-0.0007741161496
-0.0002719641574
2.382415075
0
0
0
0
0
0
0
0
0
0
0
0
0
0
20.61028172
7.644968879e-05
3.582995588e-05
9.672758978
0
0
0
0
0
0
0
0
0
0
0
0
0
0
0
0
0
0
0
0
0
0
0
0
0
0
0
0
0
-4.030914341e-06
-9.56676902e-06
-1.453069375e-05
-2.067053669e-05
-2.658111083e-05
-3.437677932e-05
-4.367081697e-05
-5.455767426e-05
-6.79037543e-05
-8.316226618e-05
-0.0001008455454
-0.0001217511067
-0.0001455305262
-0.0001719167481
-0.0002014201478
-0.000234551845
-0.0002712629314
-0.0003112039419
-0.0003541181101
-0.000399855983
-0.0004481633211
-0.000498576406
-0.0005503432852
-0.0006022893533
-0.0006534652432
-0.0007036574752
-0.000751142311
-0.0007960848006
-0.0008371344909
-0.0008727417199
-0.0007202276901
-0.0004625995061
-0.0003305818288
2.373970354
6.151638911
0
0
0
0
0
0
0
0
0
0
3.507208323
0.2682173254
-1.346394293e-07
-0.0002869165949
-0.0003247770468
-0.007387892737
0
0
0
0
0
0
0
0
0
0
0
0
0
0
0
0
0
0
0
0
0
0
0
0
0
0
0
0
0
-2.325966454e-06
-5.2348402e-06
-6.94065014e-06
-9.965486174e-06
-1.27125908e-05
-1.735620359e-05
-2.346605471e-05
-3.111817467e-05
-4.117847612e-05
-5.310856841e-05
-6.752544642e-05
-8.514025934e-05
-0.0001055874834
-0.0001287916232
-0.0001554037937
-0.000185912026
-0.0002202302825
-0.0002580802832
-0.0002993464426
-0.0003439976214
-0.0003918363429
-0.0004423847809
-0.000494875175
-0.0005483471054
-0.0006020094534
-0.000655172952
-0.0007078256077
-0.0007576454677
-0.000805192783
-0.0008476217748
-0.0008940238303
-0.0007788981798
-0.0004793512794
-0.0003314243497
2.845350579e-05
1.546820964
5.226856714
0
0
0
0
0
0
4.368515061
0.8862827441
1.629173078e-05
1.04019379e-06
-0.0005797988953
-0.0007842965806
-0.0002270175575
-0.004280385204
0
0
0
0
0
0
0
0
0
0
0
0
0
0
0
0
0
0
0
0
0
0
0
0
0
0
0
0
0
-6.650275505e-07
-1.109676071e-06
5.896146678e-08
-2.187624476e-07
-1.250065868e-07
-1.882161342e-06
-5.005798671e-06
-9.545912749e-06
-1.631131395e-05
-2.476852878e-05
-3.570439046e-05
-4.968405571e-05
-6.628302159e-05
-8.563760216e-05
-0.0001085738319
-0.0001355755152
-0.000166527221
-0.000201232085
-0.0002397355854
-0.0002821533969
-0.0003283812513
-0.0003779805581
-0.0004301951236
-0.0004842707227
-0.0005397209439
-0.0005952859404
-0.0006514501131
-0.000706241204
-0.000759751871
-0.0008108419593
-0.0008582167895
-0.0009172790331
-0.0007973912593
-0.0004897553907
-0.0005805179057
-0.0004078072404
4.557033515e-05
7.067486912
-0.0080795437
4.376698261
4.303048869
-0.008278808497
6.873566571
4.169965679e-05
-2.281095195e-08
-0.000322950456
-0.0008378173663
-0.0008824211282
-0.0005846841333
-0.000207028932
-0.002985495901
0
0
0
0
0
0
0
0
0
0
0
0
0
0
0
0
0
0
0
0
0
0
0
0
0
0
0
0
0
8.132599545e-07
2.424317167e-06
5.740469518e-06
7.507203336e-06
9.791422106e-06
1.033914085e-05
9.698357359e-06
7.835766889e-06
4.086074156e-06
-1.015815309e-06
-8.480805123e-06
-1.868740307e-05
-3.112501731e-05
-4.614144775e-05
-6.47399625e-05
-8.740718871e-05
-0.0001140165149
-0.0001444796613
-0.0001790336607
-0.0002179663123
-0.0002612690343
-0.0003085330106
-0.0003590298189
-0.0004121215124
-0.0004675626962
-0.000524422455
-0.0005826675164
-0.0006421220573
-0.0007009195138
-0.0007592911959
-0.0008155866225
-0.0008702859815
-0.0009383286394
-0.001056723657
-0.0009079227094
-0.0005356221778
-0.0006190035081
-0.0004261250288
-2.603904901e-08
1.621521086e-05
1.594129897e-05
-2.206351207e-08
-8.773361545e-08
-0.0003659374461
-0.0009158973136
-0.000993150012
-0.0008042179124
-0.0007162868306
-0.0005517236429
-0.0002043150693
-0.002405347314
0
0
0
0
0
0
0
0
0
0
0
0
0
0
0
0
0
0
0
0
0
0
0
0
0
0
0
0
0
1.934005409e-06
4.912056543e-06
9.298121269e-06
1.206190728e-05
1.553129238e-05
1.744397505e-05
1.843255414e-05
1.843646051e-05
1.708061133e-05
1.486931483e-05
1.059154974e-05
4.075890218e-06
-4.094489685e-06
-1.447361378e-05
-2.821750764e-05
-4.580599436e-05
-6.711681613e-05
-9.219615951e-05
-0.0001214948252
-0.0001554908726
-0.0001942890517
-0.0002375388143
-0.0002846432883
-0.0003351866499
-0.0003890248174
-0.0004457871465
-0.000504748824
-0.0005664947323
-0.0006295829434
-0.0006937079821
-0.0007581372616
-0.0008218729497
-0.0008852273716
-0.0009487703272
-0.001020618943
-0.00112941992
-0.000958681108
-0.0005638979352
-0.0006331743195
-0.0006843349949
-0.0006706822336
-0.0006402978522
-0.0009391186934
-0.001084279431
-0.0008694515293
-0.0007663680531
-0.0007206435561
-0.0006960184932
-0.0005480031745
-0.0002038790891
-0.00217476224
0
0
0
0
0
0
0
0
0
0
0
0
0
0
0
0
0
0
0
0
0
0
0
0
0
0
0
0
0
2.511096841e-06
5.893375407e-06
9.956607742e-06
1.234125988e-05
1.562969086e-05
1.759034849e-05
1.902445225e-05
1.971235926e-05
1.981639024e-05
1.968499633e-05
1.802719844e-05
1.490285479e-05
1.091310206e-05
5.297278275e-06
-3.217392704e-06
-1.508836415e-05
-3.02116942e-05
-4.879000411e-05
-7.150435414e-05
-9.904023614e-05
-0.0001316468715
-0.0001690723025
-0.0002108805347
-0.0002569093084
-0.0003071083921
-0.0003615605855
-0.0004198310164
-0.0004819612318
-0.000547611156
-0.0006160883977
-0.0006867370169
-0.0007588837943
-0.0008310138253
-0.0009007019882
-0.0009660732527
-0.00102236585
-0.001077470817
-0.001155669449
-0.0009829497932
-0.0009687629802
-0.0009226832277
-0.0008649182516
-0.0007656783952
-0.0006586136881
-0.0007789032955
-0.0007357180248
-0.0007094032153
-0.0006929630181
-0.000546783037
-0.0002031076924
-0.002176394547
0
0
0
0
0
0
0
0
0
0
0
0
0
0
0
0
0
0
0
0
0
0
0
0
0
0
0
0
0
2.37641431e-06
4.967879535e-06
7.086896124e-06
7.488981144e-06
9.014370773e-06
9.483339048e-06
1.008669274e-05
1.01723906e-05
1.065042972e-05
1.159554102e-05
1.176195051e-05
1.146951734e-05
1.12997796e-05
1.031216815e-05
7.166208763e-06
1.44238895e-06
-6.782880638e-06
-1.78724571e-05
-3.272783546e-05
-5.22354543e-05
-7.681393162e-05
-0.0001063876371
-0.0001407752524
-0.0001801642351
-0.0002247991436
-0.00027491047
-0.0003305982319
-0.0003914493917
-0.0004574245566
-0.0005283771028
-0.0006037900991
-0.0006831343448
-0.0007650254234
-0.0008463536673
-0.0009267430719
-0.0009891520187
-0.0008269625908
-0.0005105063193
-0.0003171518179
-0.0002877640291
-0.00027006536
-0.0002655542202
-0.0002460027033
-0.0003915135692
-0.0006446401872
-0.0005783969628
-0.0007097485601
-0.0006902186785
-0.0005443091096
-0.0002018004226
-0.002410344821
0
0
0
0
0
0
0
0
0
0
0
0
0
0
0
0
0
0
0
0
0
0
0
0
0
0
0
0
0
1.409200059e-06
1.884404579e-06
4.441627183e-07
-2.62539474e-06
-4.218096467e-06
-6.594852243e-06
-8.006518018e-06
-9.566529417e-06
-9.899665822e-06
-9.058645348e-06
-8.092785205e-06
-6.42402007e-06
-3.480498376e-06
-3.139033246e-07
1.720549064e-06
2.251972822e-06
1.330767043e-06
-1.547728051e-06
-7.479446952e-06
-1.754838239e-05
-3.238938732e-05
-5.220812254e-05
-7.718317955e-05
-0.0001078795027
-0.0001449566269
-0.0001887933275
-0.0002397145874
-0.000297421752
-0.0003618426354
-0.0004331353934
-0.0005112988523
-0.0005965870514
-0.0006884480229
-0.0007790415679
-0.0007176390176
-0.0004761437451
-0.0001494942558
7.064196116
-0.008080555188
4.375527629
4.301877985
-0.008279803882
6.873071892
-0.0002242610071
-0.0002217448756
-0.0003586502666
-0.0005948760702
-0.0005490481414
-0.0005464369868
-0.0002006796554
-0.002994221391
0
0
0
0
0
0
0
0
0
0
0
0
0
0
0
0
0
0
0
0
0
0
0
0
0
0
0
0
0
-4.09763213e-07
-3.254450059e-06
-9.393566537e-06
-1.680338365e-05
-2.244700417e-05
-2.851969495e-05
-3.345885345e-05
-3.780698621e-05
-4.006834377e-05
-4.029993042e-05
-3.944737923e-05
-3.68031148e-05
-3.17109766e-05
-2.517989857e-05
-1.851199204e-05
-1.202118194e-05
-5.662469598e-06
-3.153124122e-08
3.631919202e-06
4.057835773e-06
3.429328001e-07
-8.112154446e-06
-2.196885398e-05
-4.221444926e-05
-6.988913372e-05
-0.0001056019745
-0.0001496508707
-0.0002019527048
-0.0002627073967
-0.0003322984325
-0.0004107601548
-0.0004993524019
-0.0006051798359
-0.0003457508119
-0.0001469905313
1.542465029
5.230703368
0
0
0
0
0
0
4.369007052
0.884423002
-0.0002289607713
-0.0002075631045
-0.0003442875496
-0.0004362493999
-0.0002077750156
-0.004293723665
0
0
0
0
0
0
0
0
0
0
0
0
0
0
0
0
0
0
0
0
0
0
0
0
0
0
0
0
0
-2.897300068e-06
-9.733714489e-06
-2.097252396e-05
-3.281446569e-05
-4.399320308e-05
-5.424400523e-05
-6.269898798e-05
-7.028374792e-05
-7.536544785e-05
-7.752055466e-05
-7.768664085e-05
-7.517321625e-05
-6.912243819e-05
-6.035330977e-05
-5.006551877e-05
-3.848751895e-05
-2.550386669e-05
-1.170010063e-05
1.611486874e-06
1.298278127e-05
2.118221328e-05
2.511366484e-05
2.353995752e-05
1.501237654e-05
-1.80536793e-06
-2.775131748e-05
-6.312584046e-05
-0.0001078689303
-0.0001622871391
-0.0002270583055
-0.0003022459449
-0.0003846542835
-0.0001753829689
2.376362584
6.151864131
0
0
0
0
0
0
0
0
0
0
3.493285163
0.2647362947
-0.000235919162
-0.0002077410385
-0.0001524847959
-0.007408082571
0
0
0
0
0
0
0
0
0
0
0
0
0
0
0
0
0
0
0
0
0
0
0