/*--------------------------------*- C++ -*----------------------------------*\
  =========                 |
  \\      /  F ield         | OpenFOAM: The Open Source CFD Toolbox
   \\    /   O peration     | Website:  https://openfoam.org
    \\  /    A nd           | Version:  6
     \\/     M anipulation  |
\*---------------------------------------------------------------------------*/
FoamFile
{
    version     2.0;
    format      ascii;
    class       volScalarField;
    location    "0.0051";
    object      Num_divU;
}
// * * * * * * * * * * * * * * * * * * * * * * * * * * * * * * * * * * * * * //

dimensions      [0 0 -1 0 0 0 0];

internalField   nonuniform List<scalar> 
3600
(
6.731401847e-11
-4.002072131e-09
-1.442170764e-08
-2.592001749e-08
-3.949361166e-08
-5.534429621e-08
-7.379674766e-08
-9.508293952e-08
-1.192936866e-07
-1.46406263e-07
-1.761992148e-07
-2.08281576e-07
-2.421238364e-07
-2.773012367e-07
-3.134859438e-07
-3.497362748e-07
-3.824409089e-07
-4.031789169e-07
-4.007964354e-07
-3.741886913e-07
-3.441944073e-07
-3.206041553e-07
-2.915074194e-07
-2.592734991e-07
-2.434523724e-07
-2.678797002e-07
-3.18197358e-07
-3.996733882e-07
-4.450910333e-07
-9.815616652e-08
1.645868026e-11
2.085643528e-11
2.081465655e-11
1.82474562e-11
1.51351386e-11
1.206067354e-11
9.667338253e-12
7.778715067e-12
6.515764488e-12
5.519533286e-12
4.823834853e-12
4.171440642e-12
3.659794657e-12
3.141530877e-12
2.732063114e-12
2.326265959e-12
2.022965365e-12
1.747518929e-12
1.596959597e-12
1.505862096e-12
1.489351418e-12
1.408312409e-12
1.262991048e-12
1.100208458e-12
1.08437906e-12
1.075138093e-12
1.328852076e-12
6.027957402e-13
1.945374776e-12
2.947121817e-13
2.660857605e-10
-3.582832454e-09
-1.3894549e-08
-2.538089059e-08
-3.903482693e-08
-5.510414828e-08
-7.405742601e-08
-9.622671127e-08
-1.219335997e-07
-1.512840184e-07
-1.842075138e-07
-2.201706817e-07
-2.58334506e-07
-2.976195466e-07
-3.373440341e-07
-3.771666328e-07
-4.158757309e-07
-4.469895427e-07
-4.544846456e-07
-4.263401809e-07
-3.929154338e-07
-3.677125261e-07
-3.252598074e-07
-2.679249566e-07
-2.130276079e-07
-2.001379739e-07
-2.182304499e-07
-2.824179377e-07
-4.0285812e-07
-8.455071338e-08
1.698943098e-11
2.181506972e-11
2.153615628e-11
1.91688296e-11
1.576756107e-11
1.277582824e-11
1.007668699e-11
8.219470265e-12
6.716457877e-12
5.78134272e-12
4.935474339e-12
4.366897218e-12
3.754472777e-12
3.309995978e-12
2.819308287e-12
2.467808447e-12
2.096595471e-12
1.861403233e-12
1.663105502e-12
1.607471822e-12
1.559055272e-12
1.490901292e-12
1.314285885e-12
1.154385566e-12
1.131807726e-12
1.238285337e-12
1.098719845e-12
1.606987431e-12
3.799893903e-13
1.190976356e-12
3.747351651e-10
-3.620596603e-09
-1.44392318e-08
-2.655723447e-08
-4.103365668e-08
-5.827338494e-08
-7.884820836e-08
-1.033423552e-07
-1.32247517e-07
-1.659116065e-07
-2.042559613e-07
-2.46599374e-07
-2.914333918e-07
-3.368498348e-07
-3.815208357e-07
-4.268252697e-07
-4.765501697e-07
-5.294422667e-07
-5.549737633e-07
-5.070370083e-07
-4.580234123e-07
-4.381323038e-07
-3.750148753e-07
-2.778209879e-07
-1.592429561e-07
-1.123898616e-07
-1.119339805e-07
-1.54104401e-07
-2.712144473e-07
3.046820443e-08
1.721838544e-11
2.155426162e-11
2.145838878e-11
1.894645386e-11
1.584892752e-11
1.27095483e-11
1.015213179e-11
8.08809093e-12
6.668220009e-12
5.584779009e-12
4.845200918e-12
4.195035235e-12
3.690369924e-12
3.189518219e-12
2.782999758e-12
2.383182734e-12
2.07212445e-12
1.797527656e-12
1.641861258e-12
1.560881643e-12
1.541981463e-12
1.455916374e-12
1.287644081e-12
1.12289986e-12
1.11935786e-12
1.154335036e-12
1.37061561e-12
4.797740591e-13
2.421426122e-12
7.165237536e-15
4.046520245e-10
-4.006681566e-09
-1.57908717e-08
-2.90170893e-08
-4.492469149e-08
-6.404734753e-08
-8.718437086e-08
-1.151463247e-07
-1.487328079e-07
-1.885290185e-07
-2.346592882e-07
-2.863008533e-07
-3.412564683e-07
-3.957871302e-07
-4.46348188e-07
-4.948353051e-07
-5.552088386e-07
-6.481433446e-07
-7.218698529e-07
-6.25823723e-07
-5.430454948e-07
-5.47185476e-07
-4.513488163e-07
-3.066735358e-07
-8.504025356e-08
-7.387801319e-09
9.85591301e-09
2.147793776e-08
-6.771334677e-08
2.251619892e-07
1.730500087e-11
2.18251137e-11
2.128039257e-11
1.872437531e-11
1.552299166e-11
1.253941184e-11
9.919790942e-12
7.91976908e-12
6.400879842e-12
5.363266259e-12
4.572115232e-12
3.994624801e-12
3.476244661e-12
3.046337896e-12
2.631439846e-12
2.283844064e-12
1.961732587e-12
1.722123906e-12
1.556067439e-12
1.49926166e-12
1.473102054e-12
1.3994332e-12
1.227625241e-12
1.068090754e-12
1.059116758e-12
1.215629953e-12
9.304370157e-13
1.963005313e-12
-2.41346568e-13
1.360242347e-12
3.497056796e-10
-4.769708157e-09
-1.79135556e-08
-3.270405891e-08
-5.056420464e-08
-7.223249297e-08
-9.872822156e-08
-1.311519987e-07
-1.706057029e-07
-2.180689154e-07
-2.741210333e-07
-3.383693092e-07
-4.082877318e-07
-4.774815685e-07
-5.359247577e-07
-5.793092711e-07
-6.322773076e-07
-7.872917133e-07
-9.897955924e-07
-8.027655784e-07
-6.667245016e-07
-6.964749951e-07
-5.380972974e-07
-3.633393445e-07
-1.660089562e-08
8.81199368e-08
1.22493682e-07
2.827869968e-07
2.016788966e-07
4.920229735e-07
1.754237386e-11
2.129598725e-11
2.05467858e-11
1.783638497e-11
1.482353198e-11
1.195420759e-11
9.516840563e-12
7.538458341e-12
6.08595947e-12
5.028434692e-12
4.291503823e-12
3.717744834e-12
3.26113006e-12
2.84449142e-12
2.480221152e-12
2.140737734e-12
1.853184636e-12
1.615219421e-12
1.470658307e-12
1.413250214e-12
1.399999786e-12
1.326018794e-12
1.162133778e-12
1.011909056e-12
1.022185767e-12
1.044954955e-12
1.360244202e-12
2.776549513e-14
2.818631323e-12
-2.685174308e-13
1.881782384e-10
-5.91209969e-09
-2.076856998e-08
-3.750142438e-08
-5.777790739e-08
-8.255281602e-08
-1.1309397e-07
-1.507440323e-07
-1.968836077e-07
-2.529203153e-07
-3.202785752e-07
-4.000835184e-07
-4.913390599e-07
-5.862858045e-07
-6.628854417e-07
-6.914004215e-07
-6.739497772e-07
-8.866403094e-07
-1.315415069e-06
-1.350532515e-06
-1.407990823e-06
-5.94077737e-07
-4.555434436e-07
-1.963900601e-07
-6.157223566e-07
-1.085205451e-07
2.275383945e-07
7.309374068e-07
5.84109192e-07
8.250427257e-07
2.340911737e-11
2.644624946e-11
2.271075047e-11
1.810751307e-11
1.427255763e-11
1.128216628e-11
8.89588263e-12
7.04106578e-12
5.64221012e-12
4.649714457e-12
3.937680454e-12
3.417555523e-12
2.990745257e-12
2.624428471e-12
2.286659762e-12
1.984921796e-12
1.713823433e-12
1.49943623e-12
1.363150874e-12
1.31934497e-12
1.311255811e-12
1.247310284e-12
1.090257373e-12
9.437305791e-13
9.426599524e-13
1.129228823e-12
7.382425553e-13
2.199294744e-12
-8.45801227e-13
1.499914083e-12
-9.593561012e-11
-7.447234064e-09
-2.429731907e-08
-4.328428416e-08
-6.635096043e-08
-9.471499273e-08
-1.298815247e-07
-1.733672655e-07
-2.266492446e-07
-2.913156582e-07
-3.696240858e-07
-4.652892801e-07
-5.830006354e-07
-7.216645444e-07
-8.509136161e-07
-8.932586806e-07
-6.817190215e-07
-9.713048188e-07
-8.072278676e-07
-2.122649358e-06
-2.422043611e-06
-5.439938225e-07
-1.161114593e-07
-8.539752849e-08
-1.400644443e-06
-4.010352687e-07
5.71045018e-07
1.737026502e-06
1.299700061e-06
1.235394172e-06
2.500726449e-11
3.007622547e-11
2.536468971e-11
1.902307578e-11
1.415130597e-11
1.075387991e-11
8.316630235e-12
6.501824456e-12
5.174604882e-12
4.228057825e-12
3.569849216e-12
3.088456601e-12
2.710955795e-12
2.381038014e-12
2.084227323e-12
1.809681735e-12
1.566457475e-12
1.368619147e-12
1.248798875e-12
1.214425265e-12
1.21659438e-12
1.159172352e-12
1.011143388e-12
8.789446109e-13
9.01736099e-13
9.009283927e-13
1.318748949e-12
-4.235714916e-13
3.150208238e-12
-5.340726305e-13
-5.283723465e-10
-9.390945669e-09
-2.843885104e-08
-4.988010079e-08
-7.599700371e-08
-1.083302399e-07
-1.486658508e-07
-1.986412264e-07
-2.5956148e-07
-3.324791057e-07
-4.191140196e-07
-5.245976842e-07
-6.62271652e-07
-8.551155875e-07
-1.093623251e-06
-1.275676236e-06
-1.13836998e-06
-5.320964908e-07
2.862848499e-07
-2.220939475e-06
-1.942561279e-06
6.347503283e-08
4.808204408e-07
3.39819038e-07
-1.180825747e-06
-2.735854012e-06
1.07440305e-06
3.898983092e-06
3.681743393e-06
1.894746383e-06
-3.947732667e-13
1.803114545e-11
2.078866934e-11
1.69849234e-11
1.281217496e-11
9.661906522e-12
7.399179229e-12
5.747469243e-12
4.545923101e-12
3.700462371e-12
3.11429669e-12
2.698576743e-12
2.373991373e-12
2.096255675e-12
1.841003049e-12
1.604825473e-12
1.38979871e-12
1.216197216e-12
1.113621094e-12
1.094379739e-12
1.107393384e-12
1.061119442e-12
9.232648382e-13
7.92084541e-13
7.955163928e-13
1.00700749e-12
5.24822041e-13
2.378921741e-12
-1.425622475e-12
1.599117802e-12
-1.151607361e-09
-1.179551658e-08
-3.313789762e-08
-5.706347711e-08
-8.62730169e-08
-1.227619393e-07
-1.687485104e-07
-2.261628372e-07
-2.961460894e-07
-3.784711438e-07
-4.71411539e-07
-5.745712696e-07
-7.010943932e-07
-9.135827948e-07
-1.287997359e-06
-1.870158282e-06
-2.470830872e-06
4.058947147e-07
2.713618855e-06
2.691152296e-12
1.380567007e-11
2.042777192e-11
2.661568241e-11
2.727189296e-11
-2.524148335e-12
-9.507720861e-12
3.660011576e-06
1.267475868e-06
4.391528149e-06
3.727351941e-06
1.277488763e-11
1.969692405e-11
1.943924748e-11
1.543714989e-11
1.145878698e-11
8.511311098e-12
6.429719145e-12
4.936200267e-12
3.866686944e-12
3.122720274e-12
2.620819469e-12
2.273258464e-12
2.011260189e-12
1.786348688e-12
1.578988744e-12
1.381053061e-12
1.198704323e-12
1.050618742e-12
9.696912513e-13
9.659160047e-13
9.897178606e-13
9.513091601e-13
8.223032398e-13
7.077941328e-13
7.425574855e-13
7.212733823e-13
1.238495134e-12
-8.652835824e-13
3.398807324e-12
-7.822133868e-13
-2.065393426e-09
-1.481353976e-08
-3.840858446e-08
-6.455873023e-08
-9.651329447e-08
-1.368919733e-07
-1.886382691e-07
-2.545174156e-07
-3.364783525e-07
-4.340935353e-07
-5.411341487e-07
-6.399680043e-07
-6.990953593e-07
-7.293948693e-07
-1.167423675e-06
-2.427950257e-06
-4.19978954e-06
-1.847707317e-11
-1.009046253e-11
3.192027658e-13
7.488783103e-12
1.185542056e-11
1.869836769e-11
1.138477084e-11
-8.84652718e-13
-3.533243946e-11
-2.816222995e-11
1.060216049e-11
6.126799658e-06
-6.788986476e-13
-4.774429139e-11
1.320096029e-11
1.492706238e-11
1.218618319e-11
9.125973533e-12
6.766815206e-12
5.075352305e-12
3.857757586e-12
2.990087407e-12
2.398850166e-12
2.012297789e-12
1.759913656e-12
1.575960621e-12
1.420016194e-12
1.26958261e-12
1.120573082e-12
9.771731898e-13
8.621205488e-13
8.066794577e-13
8.213697344e-13
8.575663248e-13
8.299212979e-13
7.125775991e-13
6.01537432e-13
6.144982414e-13
8.545923182e-13
2.998562812e-13
2.504605505e-12
-1.95789019e-12
1.660532691e-12
-3.53082356e-09
-1.887121181e-08
-4.44852921e-08
-7.215627073e-08
-1.058663028e-07
-1.490066083e-07
-2.054438697e-07
-2.794343364e-07
-3.756727311e-07
-4.988325576e-07
-6.503301505e-07
-8.172105747e-07
-9.396153886e-07
-1.014637317e-06
-6.630913239e-07
3.509517776e-07
-6.542611751e-12
-9.245001758e-12
-6.938320903e-12
-5.068515713e-13
3.751789036e-12
6.003019776e-12
1.021371355e-11
1.161773982e-11
-8.902463854e-12
-1.973274985e-11
6.43153037e-14
-1.39324765e-11
-1.643219554e-11
-2.743028901e-11
-1.173370754e-11
6.597026062e-12
8.645039283e-12
7.728812621e-12
6.099458388e-12
4.644840563e-12
3.509531269e-12
2.649856772e-12
2.027805167e-12
1.609989833e-12
1.356018262e-12
1.206922218e-12
1.111412049e-12
1.02868122e-12
9.419433925e-13
8.444069096e-13
7.453536366e-13
6.663564283e-13
6.392862913e-13
6.721141407e-13
7.187274256e-13
6.991884693e-13
5.953800233e-13
5.100401438e-13
5.671995884e-13
5.349437934e-13
1.146738588e-12
-1.2675039e-12
3.567895477e-12
-1.003232883e-12
-6.28684859e-09
-2.502715034e-08
-5.210037334e-08
-7.992075533e-08
-1.135757721e-07
-1.571887065e-07
-2.152414559e-07
-2.929501508e-07
-3.974847293e-07
-5.405727379e-07
-7.430354361e-07
-1.037627617e-06
-1.387989135e-06
-8.587998934e-07
4.254907825e-07
2.530360976e-06
-3.884455945e-12
-7.986457766e-12
-5.469901474e-12
-9.963835215e-13
1.320787646e-12
1.007890229e-12
1.870124337e-12
2.881648664e-12
-2.859045144e-12
-1.3539072e-11
-6.813016049e-12
-1.014306187e-11
-2.261146562e-11
-1.109974086e-11
-2.289970961e-11
-3.55399454e-13
2.826177465e-12
3.288339977e-12
2.824594173e-12
2.214208382e-12
1.66507141e-12
1.221924649e-12
8.952031379e-13
6.946129697e-13
5.997549369e-13
5.780014792e-13
5.842622738e-13
5.897733391e-13
5.753068022e-13
5.403904832e-13
4.922246865e-13
4.554780178e-13
4.590174874e-13
5.122061987e-13
5.714387637e-13
5.66631738e-13
4.836043475e-13
4.100000833e-13
4.428664193e-13
7.106428191e-13
9.108200898e-14
2.575560758e-12
-2.42356287e-12
1.673793254e-12
-1.256281613e-08
-3.577886614e-08
-6.287880349e-08
-8.843592203e-08
-1.193980501e-07
-1.604391037e-07
-2.158057317e-07
-2.897325331e-07
-3.867994224e-07
-5.124790093e-07
-6.742468118e-07
-8.902913072e-07
-1.442693726e-06
-2.215783227e-06
-2.243949113e-06
-2.982549744e-12
-7.802018246e-12
-9.681233933e-12
-7.539156065e-12
-4.091432027e-12
-2.910127907e-12
-3.703023344e-12
-3.232892431e-12
-9.949442242e-13
-2.443972804e-12
-5.245260215e-12
-5.166150208e-12
-1.101197617e-11
-1.205979451e-11
-1.770198869e-11
-1.658344468e-11
-5.563650669e-12
-2.502759195e-12
-1.053916785e-12
-4.863803213e-13
-2.864625291e-13
-2.32582093e-13
-2.431914052e-13
-2.564097203e-13
-2.357869042e-13
-1.64648695e-13
-6.105867458e-14
5.066631001e-14
1.424341404e-13
2.037018373e-13
2.309140751e-13
2.368433632e-13
2.427452484e-13
2.783774812e-13
3.50569272e-13
4.225358375e-13
4.337457937e-13
3.741697958e-13
3.322707096e-13
4.112471683e-13
3.595964132e-13
1.029902687e-12
-1.631394048e-12
3.625982708e-12
-1.200834078e-12
-2.992981639e-08
-5.692292615e-08
-7.967186453e-08
-9.863552174e-08
-1.235514678e-07
-1.591721902e-07
-2.091196063e-07
-2.767647605e-07
-3.654080333e-07
-4.775986954e-07
-6.136058048e-07
-7.888988604e-07
-1.55609598e-06
-2.531638737e-06
-2.01740071e-06
-7.910346114e-12
-1.275769736e-11
-1.441652597e-11
-1.282208447e-11
-1.036225709e-11
-9.228204046e-12
-9.036683265e-12
-6.518021498e-12
-8.610042372e-13
3.026588576e-12
2.713681243e-12
2.086023679e-12
-2.453030414e-12
-9.119923019e-12
-8.958703609e-12
-2.168220534e-11
-9.686360316e-12
-6.701267445e-12
-4.868343494e-12
-3.688104715e-12
-2.857653048e-12
-2.247655531e-12
-1.814495039e-12
-1.491616141e-12
-1.226674103e-12
-9.780649982e-13
-7.384328715e-13
-5.186324103e-13
-3.338070764e-13
-1.945515517e-13
-9.835125572e-14
-3.615911424e-14
1.637741644e-14
8.451879178e-14
1.788644012e-13
2.69033743e-13
3.037090926e-13
2.70818996e-13
2.368493056e-13
2.739552162e-13
5.400661925e-13
-1.531657892e-13
2.557337385e-12
-2.837289851e-12
1.635515067e-12
-8.171845413e-08
-1.003752529e-07
-1.057810077e-07
-1.106375539e-07
-1.254924276e-07
-1.530809877e-07
-1.954932084e-07
-2.559456795e-07
-3.402149273e-07
-4.587358929e-07
-6.280487089e-07
-8.540628758e-07
-8.012236508e-07
-8.288463279e-07
1.371225644e-08
-1.170188206e-11
-1.814667807e-11
-2.061369172e-11
-1.861147469e-11
-1.606793319e-11
-1.489325126e-11
-1.217809075e-11
-5.06790096e-12
3.794048904e-12
1.02971878e-11
1.328355427e-11
9.330634629e-12
4.03203342e-12
-3.823844371e-13
-1.261799221e-11
-1.440062372e-11
-1.204411132e-11
-1.001598298e-11
-8.177349087e-12
-6.627252043e-12
-5.290284923e-12
-4.204323538e-12
-3.353712598e-12
-2.716634788e-12
-2.214227197e-12
-1.795851872e-12
-1.425070014e-12
-1.099573543e-12
-8.251298367e-13
-6.068464919e-13
-4.435472772e-13
-3.223125703e-13
-2.234695144e-13
-1.206061524e-13
-3.382656346e-15
1.076097309e-13
1.642778089e-13
1.550697048e-13
1.414697176e-13
2.199398982e-13
1.033426806e-13
8.54588628e-13
-1.972490291e-12
3.598707284e-12
-1.372586925e-12
-3.11022545e-07
-2.062804042e-07
-1.425619642e-07
-1.214286152e-07
-1.22870827e-07
-1.404219707e-07
-1.719647539e-07
-2.182193923e-07
-2.829175796e-07
-3.743999893e-07
-5.069835269e-07
-6.842449566e-07
-5.774512251e-07
-5.206975034e-07
2.155735999e-07
-1.355392913e-11
-1.928726367e-11
-1.997008902e-11
-2.281882727e-11
-2.23539493e-11
-1.888100492e-11
-1.227484948e-11
-4.44528546e-13
1.110790754e-11
1.699328737e-11
1.367454031e-11
1.640892592e-11
1.131107964e-11
7.847398079e-13
-2.622121501e-13
-1.972500737e-11
-1.63259372e-11
-1.457554491e-11
-1.230466549e-11
-1.006778433e-11
-8.026157931e-12
-6.344866501e-12
-5.012346789e-12
-4.021563998e-12
-3.259351667e-12
-2.660125584e-12
-2.151187485e-12
-1.718582655e-12
-1.350742766e-12
-1.052247811e-12
-8.174004895e-13
-6.352616398e-13
-4.878601338e-13
-3.47991162e-13
-2.032916577e-13
-6.756307403e-14
1.445974231e-14
2.551240907e-14
1.368410479e-14
2.037040269e-14
2.729345895e-13
-3.9353801e-13
2.525855703e-12
-3.194892738e-12
1.647731002e-12
-3.55003362e-07
-2.245478478e-07
-1.443531194e-07
-1.156122227e-07
-1.108257072e-07
-1.204914652e-07
-1.400698561e-07
-1.669828828e-07
-1.990499304e-07
-2.329205524e-07
-2.62036361e-07
-2.942608317e-07
-8.981566082e-07
-1.584403836e-06
-1.318467983e-06
-1.019590102e-11
-1.392447261e-11
-2.5287365e-11
-2.387432011e-11
-2.305341479e-11
-2.028398754e-11
-9.059081894e-12
4.977785076e-12
1.525045296e-11
1.675080122e-11
2.682699004e-11
1.501765671e-11
1.434938762e-11
1.944265581e-11
-1.015667264e-11
-4.19652449e-12
-1.68371878e-11
-1.749743966e-11
-1.573916202e-11
-1.313975108e-11
-1.063783402e-11
-8.404804444e-12
-6.671588644e-12
-5.315843146e-12
-4.32172953e-12
-3.524486151e-12
-2.887073279e-12
-2.336199872e-12
-1.87817502e-12
-1.494652383e-12
-1.188214269e-12
-9.44608073e-13
-7.459679141e-13
-5.695280844e-13
-3.943328563e-13
-2.372563279e-13
-1.318208836e-13
-1.03970323e-13
-9.771329458e-14
-7.668484776e-14
-1.213358098e-13
7.386013587e-13
-2.244704707e-12
3.721378919e-12
-1.437984642e-12
-1.414587073e-07
-1.242943994e-07
-1.014590229e-07
-9.03792717e-08
-8.957553791e-08
-9.591854621e-08
-1.062917831e-07
-1.176906413e-07
-1.270154966e-07
-1.312090879e-07
-1.284677327e-07
-1.251034126e-07
-3.756895163e-07
-5.798991367e-07
-2.117800231e-06
-4.695752179e-12
-1.103627663e-11
-8.072760575e-12
-3.564002336e-11
-3.455076545e-11
-2.179663984e-11
-3.519401715e-12
1.329854191e-11
1.87060834e-11
1.949109928e-11
-3.530322748e-12
4.30767018e-11
3.670015073e-11
-3.179810651e-11
1.947114607e-11
-2.818476932e-11
-3.076193716e-11
-2.715282186e-11
-2.194777532e-11
-1.730510934e-11
-1.350803802e-11
-1.056335426e-11
-8.283308247e-12
-6.60591884e-12
-5.330920342e-12
-4.375045703e-12
-3.58282074e-12
-2.939795142e-12
-2.377050629e-12
-1.923668075e-12
-1.537421694e-12
-1.240294674e-12
-9.859382226e-13
-7.748990521e-13
-5.666164016e-13
-3.862339187e-13
-2.560061822e-13
-2.056707921e-13
-2.274122122e-13
-1.996163539e-13
1.386322654e-13
-5.103060377e-13
2.722740245e-12
-3.329789585e-12
1.550367422e-12
-2.785010815e-08
-4.919344357e-08
-5.577602299e-08
-6.014885097e-08
-6.512392985e-08
-7.041643524e-08
-7.403513652e-08
-7.346239382e-08
-6.648987811e-08
-5.38900062e-08
-4.417638653e-08
-5.900013415e-08
-7.607246426e-08
6.185627136e-07
1.455302025e-06
3.803240214e-06
5.383111978e-12
-6.369491209e-11
-6.225078258e-11
-4.901457782e-11
-2.387591932e-11
-1.182233228e-13
1.330224376e-11
7.281010063e-12
-1.376156047e-11
9.258140143e-11
8.467160265e-11
-5.297292671e-12
4.134882186e-11
-4.341859004e-11
3.681636365e-11
-1.847552126e-11
-2.621158238e-11
-2.339806336e-11
-1.878916724e-11
-1.467638955e-11
-1.145983001e-11
-9.012658142e-12
-7.182261541e-12
-5.833827603e-12
-4.777098747e-12
-3.953488727e-12
-3.233276083e-12
-2.653865875e-12
-2.133736759e-12
-1.735414266e-12
-1.38159832e-12
-1.120342915e-12
-8.697663302e-13
-6.634589601e-13
-4.58569637e-13
-3.296099871e-13
-2.669724758e-13
-2.848019499e-13
-1.635611736e-13
-1.696470758e-13
8.754846822e-13
-2.401118252e-12
3.608743925e-12
-2.438537e-12
5.077137207e-08
8.388479887e-09
-1.622810868e-08
-3.193008968e-08
-4.198966626e-08
-4.673193077e-08
-4.432222383e-08
-3.092551016e-08
-8.294443857e-10
5.485500597e-08
1.524157144e-07
3.295101022e-07
6.851523778e-07
1.341469537e-06
3.121975226e-06
2.220794207e-06
-3.953467009e-11
-4.854855367e-11
-7.138070021e-11
-6.150942311e-11
-1.445840227e-11
1.562639855e-11
2.058736656e-11
4.508269189e-12
7.108886814e-11
1.019989643e-10
1.075936983e-10
5.031876649e-11
-2.428171201e-11
9.72044786e-11
-4.202293239e-11
-3.472091532e-11
-3.432687951e-11
-2.756786574e-11
-2.095453021e-11
-1.603827192e-11
-1.245527123e-11
-9.83923211e-12
-7.906221154e-12
-6.445126415e-12
-5.341711133e-12
-4.421777754e-12
-3.680068752e-12
-3.009483331e-12
-2.473750366e-12
-1.99020944e-12
-1.625359514e-12
-1.295778453e-12
-1.045298099e-12
-7.944134562e-13
-5.960787403e-13
-4.274443767e-13
-3.731622251e-13
-3.200885625e-13
-2.758863e-13
1.645790931e-13
-7.892545571e-13
2.996373111e-12
-6.085149664e-12
3.642750659e-12
1.036572527e-07
4.897094583e-08
1.36343996e-08
-9.617819397e-09
-2.334777856e-08
-2.78635457e-08
-2.07585727e-08
3.07786944e-09
5.244527368e-08
1.417885262e-07
2.96053682e-07
5.594106542e-07
1.006432687e-06
1.698742639e-06
2.256529829e-06
2.359999024e-06
-1.253787928e-06
-7.674564424e-11
-8.107608531e-11
-4.466798751e-11
3.604978552e-12
3.601422359e-11
3.200379521e-11
6.925535963e-12
2.853248469e-11
1.498170835e-10
8.992091796e-11
2.491469952e-11
1.550086e-06
-4.155813154e-11
5.707936867e-11
-4.922950572e-11
-5.427572503e-11
-4.464706713e-11
-3.425689536e-11
-2.62199337e-11
-2.040772015e-11
-1.614460129e-11
-1.298437188e-11
-1.062169018e-11
-8.783038424e-12
-7.316423725e-12
-6.061282863e-12
-5.008323816e-12
-4.085404349e-12
-3.331505708e-12
-2.687266313e-12
-2.180587642e-12
-1.739169106e-12
-1.365191745e-12
-1.012544171e-12
-7.498986462e-13
-5.934820477e-13
-5.622201368e-13
-3.900469354e-13
-5.08760388e-13
1.287449241e-12
-4.60163944e-12
6.847505114e-12
-3.576345107e-12
1.349933745e-07
7.390623918e-08
3.274423891e-08
5.004811351e-09
-1.132113285e-08
-1.626320518e-08
-7.090709766e-09
2.181033022e-08
7.966860964e-08
1.798500374e-07
3.404239048e-07
5.821195159e-07
9.214010523e-07
1.34877438e-06
1.922747927e-06
2.858305771e-06
5.829786363e-06
5.931964028e-06
-7.056001482e-07
1.23975985e-11
-6.636864568e-13
2.665350795e-11
4.509852857e-12
-2.461745682e-11
4.68335116e-11
7.789616257e-18
-1.320001257e-06
-1.233162635e-06
-1.44809707e-07
9.361331579e-07
-4.721979718e-11
-4.977252757e-11
-4.155388126e-11
-3.160611232e-11
-2.373023177e-11
-1.821078743e-11
-1.440214548e-11
-1.165525253e-11
-9.589918967e-12
-7.991202868e-12
-6.69633656e-12
-5.62796908e-12
-4.700059172e-12
-3.910413003e-12
-3.216477276e-12
-2.639607833e-12
-2.144187122e-12
-1.744785539e-12
-1.397045458e-12
-1.103554525e-12
-8.406258645e-13
-6.517162815e-13
-5.316710261e-13
-4.781215463e-13
-3.741671918e-13
2.060481997e-14
-6.415164837e-13
1.626439432e-12
-3.276177959e-12
1.197084824e-12
1.469217566e-07
8.451486766e-08
4.137741386e-08
1.152567221e-08
-6.652501892e-09
-1.294334699e-08
-4.573830386e-09
2.410367234e-08
8.188485008e-08
1.805539891e-07
3.327956041e-07
5.459085545e-07
8.083007121e-07
1.073883485e-06
1.334473161e-06
1.686186424e-06
2.136244651e-06
2.625231024e-06
7.14807937e-06
1.64213506e-05
-2.49546079e-11
2.050390245e-11
-5.687254614e-12
8.02517475e-11
6.645840632e-12
1.000410926e-05
-1.80733338e-06
-2.032367748e-06
-3.126309456e-06
-1.774715398e-06
-4.098817237e-11
-4.405264605e-11
-3.754962095e-11
-2.939556211e-11
-2.264797558e-11
-1.783564246e-11
-1.442219746e-11
-1.192194885e-11
-9.984002943e-12
-8.434065343e-12
-7.146139158e-12
-6.048407309e-12
-5.093740016e-12
-4.258239336e-12
-3.533251376e-12
-2.908792983e-12
-2.382332417e-12
-1.938778985e-12
-1.56611125e-12
-1.243155226e-12
-9.727586785e-13
-7.698001588e-13
-6.467671589e-13
-5.431791681e-13
-3.744031102e-13
-4.150919338e-13
5.177303938e-13
-2.634800019e-12
2.686470908e-12
-1.518714182e-12
1.416428194e-07
8.245980044e-08
4.053770618e-08
1.041982194e-08
-9.113038983e-09
-1.77793446e-08
-1.289579928e-08
1.097227041e-08
6.271666587e-08
1.553724919e-07
3.065909752e-07
5.370672408e-07
8.631833679e-07
1.276627131e-06
1.833235586e-06
2.729567554e-06
5.655618179e-06
5.77526401e-06
-8.689657509e-07
-7.170829391e-11
-9.34087164e-12
1.871562702e-11
5.060125751e-11
2.005398422e-11
1.11897531e-10
3.393656814e-11
-1.780081564e-06
-1.390713138e-06
-2.417793616e-07
8.522030515e-07
-2.631415274e-11
-3.250055204e-11
-2.967664969e-11
-2.459535174e-11
-1.996747309e-11
-1.638149627e-11
-1.372356144e-11
-1.166186777e-11
-1.000656241e-11
-8.607235759e-12
-7.399820168e-12
-6.327998637e-12
-5.374869149e-12
-4.525639334e-12
-3.778968435e-12
-3.129927282e-12
-2.574627695e-12
-2.105538396e-12
-1.708927206e-12
-1.372863271e-12
-1.093089443e-12
-8.803246422e-13
-7.341403677e-13
-6.316793047e-13
-5.213923247e-13
-1.535397778e-13
-7.711078777e-13
1.822035139e-12
-3.361150882e-12
9.828273269e-13
1.222360994e-07
7.009418374e-08
3.189580442e-08
2.941747811e-09
-1.765538836e-08
-2.966082261e-08
-3.08531809e-08
-1.658560683e-08
2.121177002e-08
9.618875532e-08
2.324874784e-07
4.736528577e-07
8.93784585e-07
1.555920753e-06
2.079544808e-06
2.162024804e-06
-1.452041891e-06
-4.887426984e-11
-5.658235024e-11
-4.8256662e-11
-8.095329875e-12
1.531476803e-11
2.750577867e-11
7.9747352e-11
6.447009831e-11
4.563734298e-11
6.079186128e-11
3.217049192e-11
1.516635636e-06
2.555059803e-11
1.715055749e-11
-1.48347442e-11
-1.925907359e-11
-1.868846636e-11
-1.667773274e-11
-1.461466207e-11
-1.279404625e-11
-1.125338859e-11
-9.895887963e-12
-8.68489272e-12
-7.567311361e-12
-6.542131188e-12
-5.59673837e-12
-4.743969677e-12
-3.980363969e-12
-3.312330898e-12
-2.733803602e-12
-2.242984033e-12
-1.827972493e-12
-1.480971655e-12
-1.196419391e-12
-9.766641824e-13
-8.187256891e-13
-6.870125361e-13
-5.204995136e-13
-5.712288805e-13
2.808143613e-13
-2.417438607e-12
2.344950418e-12
-1.460293461e-12
9.285478339e-08
5.042324701e-08
1.768975029e-08
-9.118327977e-09
-3.054833522e-08
-4.655551656e-08
-5.576013346e-08
-5.534220035e-08
-4.071077268e-08
-4.324256975e-09
6.884509519e-08
2.149265099e-07
5.317800837e-07
1.147214889e-06
2.867479961e-06
2.013497017e-06
-2.94475371e-11
-3.449701982e-11
-5.523276986e-11
-3.590963597e-11
-2.480405583e-12
1.9841256e-11
3.142249635e-11
4.719547173e-11
6.438205917e-11
6.713303308e-11
6.149369158e-11
9.883418812e-11
7.725150196e-11
4.641459285e-11
4.672616861e-11
-3.400000578e-12
-1.12807558e-11
-1.383082693e-11
-1.39705918e-11
-1.311800666e-11
-1.20010028e-11
-1.084841338e-11
-9.753530429e-12
-8.691497269e-12
-7.672869587e-12
-6.687091382e-12
-5.762047509e-12
-4.903709996e-12
-4.132286072e-12
-3.446063315e-12
-2.852419395e-12
-2.343900323e-12
-1.9181578e-12
-1.564017657e-12
-1.276105664e-12
-1.046828792e-12
-8.698258627e-13
-7.352875523e-13
-6.359358206e-13
-2.979002665e-13
-9.209433905e-13
1.599407172e-12
-3.206648116e-12
7.852649572e-13
5.84104602e-08
2.69207486e-08
4.843776507e-10
-2.364086655e-08
-4.564705574e-08
-6.566101258e-08
-8.313051708e-08
-9.715669908e-08
-1.073923003e-07
-1.164643434e-07
-1.347578815e-07
-1.863414238e-07
-2.438056975e-07
3.69394199e-07
1.222723263e-06
3.617474925e-06
-4.067278867e-11
-4.193038191e-11
-3.925885959e-11
-2.589405464e-11
-2.670538863e-12
1.648678614e-11
2.838633503e-11
4.532901472e-11
5.007563568e-11
5.53878019e-11
7.794926754e-11
8.55869556e-11
7.266047106e-11
4.866457082e-11
5.180571924e-11
5.207308807e-12
-4.300926925e-12
-9.399988615e-12
-1.140263899e-11
-1.170554157e-11
-1.121029686e-11
-1.044230555e-11
-9.569021226e-12
-8.664970571e-12
-7.728618512e-12
-6.796421986e-12
-5.884875752e-12
-5.032406448e-12
-4.24942337e-12
-3.554263952e-12
-2.944675532e-12
-2.425332206e-12
-1.988145408e-12
-1.630105004e-12
-1.339398082e-12
-1.105986582e-12
-9.174847529e-13
-7.602368521e-13
-6.015028549e-13
-6.790388522e-13
1.280497881e-13
-2.347900727e-12
1.930948787e-12
-1.377542758e-12
2.406825848e-08
3.164392875e-09
-1.711080625e-08
-3.851575837e-08
-6.089523619e-08
-8.44212705e-08
-1.089282654e-07
-1.339806359e-07
-1.590540538e-07
-1.842258919e-07
-2.117982928e-07
-2.54834987e-07
-5.878009686e-07
-9.569134605e-07
-2.248984991e-06
-3.972197309e-11
-3.679444657e-11
-3.598882827e-11
-3.617672892e-11
-2.541252686e-11
-6.260569691e-12
1.154837876e-11
2.351830776e-11
3.525660209e-11
4.736421395e-11
5.743202101e-11
7.150694724e-11
8.333184973e-11
7.156637739e-11
4.938104886e-11
5.813739001e-11
1.201063239e-11
7.872084849e-13
-6.348487668e-12
-9.831818817e-12
-1.092279865e-11
-1.082783601e-11
-1.023539703e-11
-9.482041431e-12
-8.646656125e-12
-7.771502207e-12
-6.865754914e-12
-5.973821668e-12
-5.118545777e-12
-4.33365715e-12
-3.626498173e-12
-3.009997533e-12
-2.480080444e-12
-2.038734079e-12
-1.677034667e-12
-1.38629993e-12
-1.146651595e-12
-9.460361442e-13
-7.877456581e-13
-6.906504108e-13
-3.818858558e-13
-9.806087381e-13
1.313352407e-12
-2.991931322e-12
5.879590861e-13
-5.446603123e-09
-1.759695114e-08
-3.274702566e-08
-5.189260593e-08
-7.4650089e-08
-1.013530146e-07
-1.324067429e-07
-1.683849673e-07
-2.099235678e-07
-2.57298066e-07
-3.092304724e-07
-3.824151061e-07
-1.081874375e-06
-1.955239655e-06
-1.555832347e-06
-2.770784082e-11
-3.266228792e-11
-3.604166618e-11
-3.569296335e-11
-2.660735248e-11
-1.179528376e-11
3.531467075e-12
1.839629876e-11
3.479932678e-11
5.124097831e-11
6.555614728e-11
7.71177596e-11
8.22002999e-11
7.024058238e-11
4.932388359e-11
6.313183243e-11
1.707871536e-11
4.887915283e-12
-3.899326659e-12
-8.534564976e-12
-1.027096082e-11
-1.045608387e-11
-1.000952795e-11
-9.331319297e-12
-8.57024866e-12
-7.743045539e-12
-6.881767584e-12
-6.007823213e-12
-5.166698392e-12
-4.380116784e-12
-3.673916877e-12
-3.050811112e-12
-2.517930071e-12
-2.070825387e-12
-1.709967923e-12
-1.420577419e-12
-1.182112259e-12
-9.757607228e-13
-7.998440144e-13
-6.412933646e-13
-7.280448846e-13
2.934554578e-14
-2.204350779e-12
1.521584834e-12
-1.255661764e-12
-2.645971123e-08
-3.282332783e-08
-4.455659683e-08
-6.221219333e-08
-8.533792144e-08
-1.145233433e-07
-1.510567494e-07
-1.976686634e-07
-2.600990163e-07
-3.497583612e-07
-4.862430219e-07
-6.833809392e-07
-6.593338416e-07
-7.843588799e-07
4.350186923e-08
-3.011229691e-11
-3.332499072e-11
-3.582827143e-11
-3.615629278e-11
-3.175963154e-11
-1.904793092e-11
-3.521386079e-12
1.626865174e-11
3.984379154e-11
6.059928292e-11
7.714296666e-11
8.497174514e-11
7.793863693e-11
7.132467603e-11
5.074117154e-11
6.577643268e-11
2.014293677e-11
6.998088478e-12
-2.822171191e-12
-8.164424623e-12
-1.020483263e-11
-1.046240159e-11