ITEM: TIMESTEP
1500000
ITEM: NUMBER OF ATOMS
515
ITEM: BOX BOUNDS mm mm mm
-2e-06 0.020002
-8e-06 0.080008
-5e-06 0.050005
ITEM: ATOMS v_x1 v_y1 v_z1 v_rad1 
5.96446e-06 5.9642e-06 0.000105964 5.965e-06 
4.65074e-05 8.75436e-06 0.000108754 8.755e-06 
2.68225e-05 6.79905e-06 0.00010678 6.78e-06 
1.45873e-05 2.25084e-05 0.000114586 1.45885e-05 
7.01282e-05 1.88308e-05 0.000118829 1.88315e-05 
9.60139e-05 9.94319e-06 0.000109943 9.945e-06 
0.000118443 1.2897e-05 0.000112838 1.284e-05 
0.000109537 3.40058e-05 0.000108754 8.755e-06 
0.000126383 4.16588e-05 0.000107704 7.705e-06 
0.000100825 2.46052e-05 0.000124543 1.1301e-05 
0.000192929 1.51137e-05 0.00010678 6.78e-06 
0.000176571 8.75462e-06 0.000108754 8.755e-06 
0.000184381 3.08529e-05 0.000111299 1.1301e-05 
0.000151884 2.43086e-05 0.000124305 2.4309e-05 
8.75461e-06 4.55351e-05 0.000108753 8.755e-06 
4.09342e-05 4.26236e-05 0.000118829 1.88315e-05 
3.51529e-05 7.12194e-05 0.000111298 1.1301e-05 
1.2838e-05 8.02958e-05 0.000112838 1.284e-05 
1.88092e-05 5.98749e-05 0.000108754 8.755e-06 
5.23035e-05 7.89002e-05 0.000107704 7.705e-06 
6.60657e-05 4.79045e-05 0.000108754 8.755e-06 
7.10312e-05 7.11372e-05 0.000112838 1.284e-05 
9.01295e-05 4.90813e-05 0.000116572 1.6575e-05 
8.9648e-05 8.11051e-05 0.000124534 1.1301e-05 
0.000138044 5.93739e-05 0.000114586 1.45885e-05 
0.000111783 7.20873e-05 0.000114586 1.45885e-05 
0.000152854 7.37724e-05 0.000120058 6.78e-06 
0.000167215 5.89268e-05 0.000114587 1.45885e-05 
0.00018716 7.76727e-05 0.000112838 1.284e-05 
0.000190057 5.12801e-05 0.000109943 9.945e-06 
3.754e-05 9.01329e-05 0.000117525 8.755e-06 
2.45646e-05 9.79619e-05 0.000108754 8.755e-06 
6.80598e-06 0.000100431 0.00010678 6.78e-06 
1.88308e-05 0.000122994 0.000118829 1.88315e-05 
4.09561e-05 0.000106881 0.000109944 9.945e-06 
6.30724e-05 9.7326e-05 0.000114587 1.45885e-05 
7.86061e-05 0.000111758 0.000107703 7.705e-06 
8.7142e-05 9.63432e-05 0.000109944 9.945e-06 
9.51621e-05 0.000113193 0.000108754 8.755e-06 
0.000136882 9.04507e-05 0.000116573 1.6575e-05 
0.00012717 0.000119994 0.000114586 1.45885e-05 
0.000108968 9.86115e-05 0.0001113 1.1301e-05 
0.000104828 0.000117061 0.000124286 9.945e-06 
0.000148202 0.000111717 0.000108753 8.755e-06 
0.000164181 0.000104759 0.000107704 7.705e-06 
0.000169907 0.000123935 0.000108754 8.755e-06 
0.000185412 0.000104989 0.000114586 1.45885e-05 
0.000164418 8.60326e-05 0.0001113 1.1301e-05 
4.00826e-05 0.000158941 0.0001113 1.1301e-05 
3.47782e-05 0.00014105 0.000107704 7.705e-06 
1.45876e-05 0.00015587 0.000114586 1.45885e-05 
8.42488e-05 0.000128331 0.000109944 9.945e-06 
6.41585e-05 0.000159807 0.000112839 1.284e-05 
7.57145e-05 0.000143616 0.000107703 7.705e-06 
8.79999e-05 0.000156085 0.000109944 9.945e-06 
5.60382e-05 0.000129719 0.000118829 1.88315e-05 
8.36434e-05 0.000142548 0.000122087 8.755e-06 
0.000122798 0.000160559 0.000107704 7.705e-06 
0.000105549 0.000139584 0.000114587 1.45885e-05 
0.000105835 0.000164886 0.000109943 9.945e-06 
0.00013618 0.00014584 0.000112838 1.284e-05 
0.000151378 0.000158675 0.000107704 7.705e-06 
0.000152237 0.000129937 0.000109944 9.945e-06 
0.0001887 0.000130456 0.000111299 1.1301e-05 
0.000169143 0.000147098 0.000114587 1.45885e-05 
0.000192295 0.000148769 0.000107704 7.705e-06 
0.000185954 0.000165086 0.000109944 9.945e-06 
9.94383e-06 0.000179507 0.000109943 9.945e-06 
3.24034e-05 0.000201913 0.000112838 1.284e-05 
9.94432e-06 0.000199397 0.000109944 9.945e-06 
2.84285e-05 0.000176948 0.000108754 8.755e-06 
4.91933e-05 0.000181243 0.000112838 1.284e-05 
3.40929e-05 0.000172248 0.000123476 7.705e-06 
6.77976e-06 0.000172845 0.000124954 6.78e-06 
8.05893e-05 0.000173211 0.000108754 8.755e-06 
5.10482e-05 0.000208847 0.000107704 7.705e-06 
8.08457e-05 0.000189633 0.000107703 7.705e-06 
9.37027e-05 0.000210005 0.000118829 1.88315e-05 
6.56675e-05 0.000198806 0.000114532 1.1301e-05 
9.69317e-05 0.000182727 0.000109944 9.945e-06 
8.42826e-05 0.000184385 0.000120759 6.78e-06 
6.93883e-05 0.000179987 0.000120381 8.755e-06 
9.15977e-05 0.000169697 0.000123992 9.945e-06 
0.000125915 0.000186049 0.000121392 2.1395e-05 
0.000150557 0.00019796 0.000108753 8.755e-06 
0.000163586 0.000177696 0.000116573 1.6575e-05 
0.00019322 0.000206336 0.000106779 6.78e-06 
0.00018843 0.000189236 0.0001113 1.1301e-05 
0.00019322 0.000204241 0.000120176 6.78e-06 
0.000170834 0.000207939 0.000114587 1.45885e-05 
0.000153639 0.000198213 0.000124919 7.705e-06 
0.000192295 0.000174904 0.000123169 7.705e-06 
1.88298e-05 0.00022992 0.000118829 1.88315e-05 
4.37042e-05 0.000223539 0.000108754 8.755e-06 
4.79618e-05 0.000245736 0.000114587 1.45885e-05 
8.1585e-05 0.000240711 0.000111299 1.1301e-05 
6.53816e-05 0.000222885 0.000112838 1.284e-05 
0.000105595 0.00023874 0.000112839 1.284e-05 
0.000138409 0.00021057 0.000108754 8.755e-06 
0.000121025 0.000220239 0.0001113 1.1301e-05 
0.000126668 0.000241097 0.000108754 8.755e-06 
0.0001471 0.000231434 0.000114587 1.45885e-05 
0.000134481 0.00021621 0.000122685 6.78e-06 
0.000152874 0.000213669 0.000105965 5.965e-06 
0.000172598 0.000234478 0.000111299 1.1301e-05 
0.000190462 0.000239953 0.000107703 7.705e-06 
0.000190058 0.000222452 0.000109943 9.945e-06 
0.000180278 0.000250211 0.000106779 6.78e-06 
0.000194751 0.000252109 0.000108982 5.25e-06 
0.000163028 0.000249903 0.000124763 1.1301e-05 
0.000194035 0.000232964 0.000121203 5.965e-06 
2.13946e-05 0.000269982 0.000121392 2.1395e-05 
4.51467e-05 0.000265446 0.00010678 6.78e-06 
5.07951e-05 0.000285293 0.000112838 1.284e-05 
6.17185e-05 0.00026551 0.000109944 9.945e-06 
8.28019e-05 0.000263279 0.0001113 1.1301e-05 
9.29309e-05 0.000284489 0.000109943 9.945e-06 
7.31774e-05 0.000282171 0.000109944 9.945e-06 
8.36947e-05 0.000277868 0.000123448 7.705e-06 
6.72076e-05 0.000293853 0.000121751 7.705e-06 
0.000139143 0.000261708 0.000116573 1.6575e-05 
0.000124559 0.000279628 0.000107704 7.705e-06 
0.000108339 0.000265973 0.000114587 1.45885e-05 
0.000110243 0.000287092 0.000107704 7.705e-06 
0.000103828 0.000286512 0.000123679 7.705e-06 
0.00011764 0.000288891 0.000120026 6.78e-06 
0.000170317 0.000263268 0.000109944 9.945e-06 
0.000190055 0.000266527 0.000109944 9.945e-06 
0.000180218 0.000288516 0.000114586 1.45885e-05 
0.000158059 0.00027907 0.000109943 9.945e-06 
1.28387e-05 0.000306832 0.000112838 1.284e-05 
3.22285e-05 0.000320906 0.000109943 9.945e-06 
1.28381e-05 0.000332511 0.000112838 1.284e-05 
3.47176e-05 0.000301174 0.000109943 9.945e-06 
8.08735e-05 0.000301927 0.000111299 1.1301e-05 
7.68709e-05 0.000324605 0.00010678 6.78e-06 
5.74467e-05 0.000316082 0.000116573 1.6575e-05 
9.25521e-05 0.000334729 0.000112838 1.284e-05 
8.13474e-05 0.000318951 0.000119733 7.705e-06 
0.000139381 0.00029669 0.000116573 1.6575e-05 
0.000107181 0.000309485 0.000116573 1.6575e-05 
0.000128568 0.000316797 0.000107704 7.705e-06 
0.000142154 0.000329593 0.000111299 1.1301e-05 
0.000160549 0.000295459 0.00010678 6.78e-06 
0.000153215 0.000314562 0.000107703 7.705e-06 
0.000170978 0.000320377 0.000107704 7.705e-06 
0.00018626 0.000311835 0.000109944 9.945e-06 
0.000185412 0.000335909 0.000114587 1.45885e-05 
0.000169166 0.00030596 0.00010678 6.78e-06 
0.000194037 0.000302609 0.000120311 5.965e-06 
3.88566e-05 0.000345713 0.000116573 1.6575e-05 
8.75454e-06 0.00037628 0.000108754 8.755e-06 
1.13049e-05 0.000356552 0.000111299 1.1301e-05 
6.6528e-05 0.000341903 0.000111299 1.1301e-05 
8.28186e-05 0.000352077 0.000107704 7.705e-06 
6.29056e-05 0.000373615 0.000106779 6.78e-06 
9.01339e-05 0.000370576 0.000112838 1.284e-05 
5.50442e-05 0.000361485 0.000107704 7.705e-06 
8.01897e-05 0.00034969 0.000123775 8.755e-06 
7.04743e-05 0.0003613 0.000107704 7.705e-06 
6.27362e-05 0.000359497 0.000124969 1.1301e-05 
0.000101385 0.000352597 0.000107704 7.705e-06 
0.00011918 0.000341066 0.000114586 1.45885e-05 
0.000112666 0.000368837 0.000109944 9.945e-06 
0.000145495 0.000358494 0.000116572 1.6575e-05 
0.000121767 0.000361923 0.000124743 8.755e-06 
0.000161451 0.000338376 0.000109943 9.945e-06 
0.000170546 0.000364132 0.000109944 9.945e-06 
0.000190056 0.000359546 0.000109944 9.945e-06 
0.00016875 0.000350282 0.000122378 8.755e-06 
4.1017e-05 0.000383673 0.000121392 2.1395e-05 
8.75432e-06 0.000393789 0.000108753 8.755e-06 
1.90861e-05 0.000417297 0.00011883 1.88315e-05 
6.97835e-05 0.000388527 0.000109943 9.945e-06 
8.51926e-05 0.000399052 0.000108754 8.755e-06 
6.54319e-05 0.000415548 0.000118829 1.88315e-05 
8.65031e-05 0.000417844 0.000105964 5.965e-06 
9.99957e-05 0.000410415 0.000109944 9.945e-06 
0.00010474 0.000389751 0.000111299 1.1301e-05 
0.000145735 0.000401787 0.000108753 8.755e-06 
0.000130064 0.000385499 0.000114587 1.45885e-05 
0.000126168 0.000418418 0.000118829 1.88315e-05 
0.000153994 0.000382725 0.000109944 9.945e-06 
0.000185315 0.000383163 0.000114587 1.45885e-05 
0.000192296 0.000403183 0.000107704 7.705e-06 
0.000167738 0.000406956 0.000114586 1.45885e-05 
0.00018886 0.000420348 0.000109944 9.945e-06 
0.000190056 0.00040714 0.000124768 9.945e-06 
0.000165026 0.000386564 0.000123175 7.705e-06 
4.2675e-05 0.000427444 0.000108753 8.755e-06 
5.96288e-06 0.000433939 0.000105963 5.965e-06 
3.22598e-05 0.000441519 0.000108754 8.755e-06 
3.20413e-05 0.000459027 0.000108754 8.755e-06 
1.28394e-05 0.000450032 0.000112839 1.284e-05 
4.01064e-05 0.000432584 0.000124177 7.705e-06 
5.43582e-05 0.000446793 0.000114586 1.45885e-05 
9.10408e-05 0.000462697 0.0001113 1.1301e-05 
7.3719e-05 0.000436583 0.00010678 6.78e-06 
7.64313e-05 0.00045301 0.000123302 9.945e-06 
9.53291e-05 0.000435664 0.000116573 1.6575e-05 
0.000118851 0.000440157 0.00010678 6.78e-06 
0.000112833 0.000456708 0.000111299 1.1301e-05 
0.000137601 0.000449927 0.000114586 1.45885e-05 
0.000151493 0.000422671 0.000108753 8.755e-06 
0.00016389 0.000450469 0.000111299 1.1301e-05 
0.000171984 0.000430873 0.000109944 9.945e-06 
0.000192296 0.000437514 0.000107704 7.705e-06 
0.00018716 0.000456731 0.000112838 1.284e-05 
0.000157074 0.000434143 0.000120745 8.755e-06 
1.4588e-05 0.000477347 0.000114587 1.45885e-05 
3.84521e-05 0.000494132 0.000114587 1.45885e-05 
4.61058e-05 0.000471291 0.000109944 9.945e-06 
1.3195e-05 0.000504683 0.000112838 1.284e-05 
6.87014e-05 0.000471715 0.000112838 1.284e-05 
8.26624e-05 0.000500654 0.000108753 8.755e-06 
9.08767e-05 0.000483898 0.000109944 9.945e-06 
6.40083e-05 0.000501181 0.000109944 9.945e-06 
0.000105327 0.000472037 0.000113899 5.965e-06 
0.000124686 0.000474287 0.000109944 9.945e-06 
0.000103791 0.000502444 0.000112839 1.284e-05 
0.000133503 0.000493569 0.000111299 1.1301e-05 
0.000144701 0.000472947 0.000109944 9.945e-06 
0.000109644 0.000483432 0.000107704 7.705e-06 
0.000117193 0.000487037 0.000123244 9.945e-06 
0.000151346 0.000488734 0.00010678 6.78e-06 
0.000182612 0.000475164 0.00010678 6.78e-06 
0.000166027 0.000503726 0.000114587 1.45885e-05 
0.0001887 0.000491671 0.000111299 1.1301e-05 
0.000165279 0.000478057 0.000111299 1.1301e-05 
3.07315e-05 0.00051408 0.000107704 7.705e-06 
3.03424e-05 0.000532825 0.0001113 1.1301e-05 
9.94376e-06 0.000527046 0.000109943 9.945e-06 
5.0026e-05 0.000518936 0.000112838 1.284e-05 
5.59496e-05 0.000543718 0.000109944 9.945e-06 
8.19064e-05 0.000528015 0.000121392 2.1395e-05 
0.000146224 0.000505597 0.00010678 6.78e-06 
0.000133888 0.000538998 0.000108754 8.755e-06 
0.000133379 0.000512231 0.000107704 7.705e-06 
0.000117472 0.000524176 0.000112838 1.284e-05 
0.000144036 0.000524729 0.000108754 8.755e-06 
0.000122318 0.000505953 0.000118259 6.78e-06 
0.000190056 0.000522702 0.000109943 9.945e-06 
0.000161508 0.00052587 0.000108753 8.755e-06 
0.000187078 0.000545104 0.000112838 1.284e-05 
0.000174677 0.00052751 0.000123789 1.1301e-05 
1.29062e-05 0.000549449 0.000112839 1.284e-05 
3.85508e-05 0.000550946 0.000108754 8.755e-06 
7.70413e-06 0.000568647 0.000107703 7.705e-06 
7.70463e-06 0.000566549 0.000122969 7.705e-06 
2.92049e-05 0.000571541 0.000114587 1.45885e-05 
9.94398e-06 0.000586009 0.000109944 9.945e-06 
3.75763e-05 0.000588215 0.000105965 5.965e-06 
5.2527e-05 0.000563311 0.000109943 9.945e-06 
8.41508e-05 0.000557102 0.000109943 9.945e-06 
9.36706e-05 0.000576116 0.000108754 8.755e-06 
7.24839e-05 0.000576988 0.000112838 1.284e-05 
6.74792e-05 0.000555828 0.000120714 9.945e-06 
9.38806e-05 0.000587243 0.00012088 7.705e-06 
0.000136866 0.000562155 0.000106778 6.78e-06 
0.000136452 0.00058081 0.000112838 1.284e-05 
0.000113324 0.000557063 0.000121392 2.1395e-05 
0.000192296 0.0005643 0.000107704 7.705e-06 
0.000156556 0.000551067 0.000118829 1.88315e-05 
0.000176465 0.000578406 0.000114587 1.45885e-05 
0.000155516 0.000575135 0.000107704 7.705e-06 
0.00019475 0.000559993 0.000119672 5.25e-06 
0.000193221 0.000589124 0.000106779 6.78e-06 
3.31397e-05 0.000610833 0.000107704 7.705e-06 
5.96336e-06 0.00062765 0.000105963 5.965e-06 
4.75271e-05 0.000612214 0.000106779 6.78e-06 
2.5523e-05 0.000596281 0.000108753 8.755e-06 
8.75384e-06 0.000604631 0.000108753 8.755e-06 
1.87233e-05 0.000620153 0.000111799 9.945e-06 
7.70482e-06 0.000600391 0.000124623 7.705e-06 
4.06158e-05 0.000630865 0.000114587 1.45885e-05 
5.38509e-05 0.000594659 0.000112838 1.284e-05 
7.33676e-05 0.000598504 0.000107704 7.705e-06 
8.77363e-05 0.000610412 0.0001113 1.1301e-05 
6.50701e-05 0.00061857 0.000112839 1.284e-05 
8.68898e-05 0.000591114 0.000107704 7.705e-06 
7.89611e-05 0.000596045 0.000124261 9.945e-06 
0.000103243 0.00060502 0.000105962 5.965e-06 
0.000112553 0.000590202 0.000112839 1.284e-05 
0.000116533 0.000623289 0.000121392 2.1395e-05 
0.000156259 0.00060739 0.000121392 2.1395e-05 
0.000185162 0.000603433 0.000109944 9.945e-06 
0.000178854 0.000619817 0.000107704 7.705e-06 
0.000192295 0.000617278 0.000118246 7.705e-06 
0.000191246 0.000630683 0.000108754 8.755e-06 
1.46144e-05 0.000644178 0.000114587 1.45885e-05 
3.54759e-05 0.000652874 0.000108753 8.755e-06 
7.70322e-06 0.000664223 0.000107704 7.705e-06 
3.87008e-05 0.000670083 0.000108753 8.755e-06 
2.23035e-05 0.000669146 0.000107704 7.705e-06 
5.1992e-05 0.000658685 0.000108754 8.755e-06 
8.52984e-05 0.000634389 0.000112838 1.284e-05 
6.16038e-05 0.00064269 0.000109944 9.945e-06 
7.81467e-05 0.000666757 0.000121392 2.1395e-05 
9.97829e-05 0.000649989 0.000108754 8.755e-06 
9.80258e-05 0.000645529 0.0001245 7.705e-06 
0.00011921 0.00065427 0.000111299 1.1301e-05 
0.000143658 0.000652564 0.000111299 1.1301e-05 
0.000131842 0.000671298 0.000109943 9.945e-06 
0.000150502 0.000671242 0.000108753 8.755e-06 
0.000192295 0.000647075 0.000107704 7.705e-06 
0.000170186 0.000642382 0.000116573 1.6575e-05 
0.000170498 0.000668058 0.000109944 9.945e-06 
0.000190055 0.000664438 0.000109944 9.945e-06 
0.000157222 0.000664059 0.000124655 9.945e-06 
1.13399e-05 0.000703724 0.0001113 1.1301e-05 
3.1035e-05 0.000691378 0.000111299 1.1301e-05 
2.97624e-05 0.000711231 0.000108754 8.755e-06 
4.73315e-05 0.00070494 0.000109944 9.945e-06 
1.1299e-05 0.000681773 0.000116682 1.1301e-05 
9.34195e-05 0.000696204 0.000112838 1.284e-05 
5.25261e-05 0.000684384 0.0001113 1.1301e-05 
7.08509e-05 0.000695044 0.000109943 9.945e-06 
7.66216e-05 0.000714077 0.000109944 9.945e-06 
6.12273e-05 0.000705068 0.000122456 8.755e-06 
0.000109841 0.000676464 0.000112838 1.284e-05 
0.000123352 0.000704546 0.000112838 1.284e-05 
0.000138222 0.000689428 0.000108754 8.755e-06 
0.000146868 0.000712979 0.000109943 9.945e-06 
0.000126806 0.000685593 0.000119974 7.705e-06 
0.000162137 0.000692336 0.000116574 1.6575e-05 
0.0001887 0.000685736 0.000111299 1.1301e-05 
0.000185412 0.000713139 0.000114587 1.45885e-05 
0.000164276 0.000714833 0.000107703 7.705e-06 
0.000165499 0.000714902 0.000122135 6.78e-06 
6.77915e-06 0.00071742 0.000122186 6.78e-06 
1.45873e-05 0.000735801 0.000114587 1.45885e-05 
3.56722e-05 0.000755966 0.000114586 1.45885e-05 
4.11333e-05 0.000729129 0.000112839 1.284e-05 
5.94652e-05 0.000717557 0.000107704 7.705e-06 
6.18129e-05 0.000733814 0.000108753 8.755e-06 
7.44498e-05 0.000749175 0.000111299 1.1301e-05 
9.24325e-05 0.000735484 0.000111299 1.1301e-05 
9.11777e-05 0.000719112 0.000105964 5.965e-06 
6.55439e-05 0.000723219 0.000123702 9.945e-06 
0.000114429 0.000746558 0.00010678 6.78e-06 
0.00012214 0.000732057 0.000109942 9.945e-06 
0.00010657 0.000719682 0.000109944 9.945e-06 
0.000133937 0.000754863 0.000116573 1.6575e-05 
0.000190055 0.000737861 0.000109943 9.945e-06 
0.000162065 0.000737323 0.000116573 1.6575e-05 
1.3215e-05 0.000768451 0.0001113 1.1301e-05 
9.94275e-06 0.000790056 0.000109944 9.945e-06 
3.35068e-05 0.000785062 0.000114586 1.45885e-05 
5.7941e-05 0.000760629 0.000108754 8.755e-06 
5.88294e-05 0.000780804 0.000111299 1.1301e-05 
8.08352e-05 0.000785957 0.000111299 1.1301e-05 
6.77449e-05 0.000792296 0.000123531 7.705e-06 
7.03645e-05 0.000766829 0.000124805 1.1301e-05 
9.97345e-05 0.00076373 0.000118829 1.88315e-05 
9.75119e-05 0.000791246 0.000121102 8.755e-06 
0.00011482 0.000788701 0.000111299 1.1301e-05 
0.000140273 0.00078531 0.000114587 1.45885e-05 
0.000122065 0.000776953 0.000124365 7.705e-06 
0.000151295 0.000767664 0.00010678 6.78e-06 
0.00016758 0.000787163 0.000112838 1.284e-05 
0.000183428 0.000762668 0.000116573 1.6575e-05 
0.000190017 0.00079005 0.000109944 9.945e-06 
4.05785e-05 1.46305e-05 0.000125486 9.945e-06 
2.45348e-05 7.70417e-06 0.000127959 7.705e-06 
8.75463e-06 8.75434e-06 0.000132522 8.755e-06 
5.06013e-05 2.4678e-05 0.000134335 6.78e-06 
8.64749e-05 3.33049e-05 0.000137573 9.945e-06 
9.16964e-05 8.75397e-06 0.000132766 8.755e-06 
0.00011244 9.94453e-06 0.000134618 9.945e-06 
0.00018716 1.28388e-05 0.000127125 1.284e-05 
0.000190055 3.88488e-05 0.000130145 9.945e-06 
1.24167e-05 4.42765e-05 0.000128431 1.1301e-05 
2.37336e-05 6.68555e-05 0.000134119 1.45885e-05 
5.11479e-05 7.63544e-05 0.000130995 1.45885e-05 
6.62606e-05 5.46764e-05 0.000129838 1.1301e-05 
9.85049e-05 4.76592e-05 0.000140434 8.755e-06 
0.000118231 4.33021e-05 0.000128738 1.45885e-05 
0.000104616 6.05934e-05 0.000132292 7.705e-06 
0.000127751 7.15916e-05 0.000134957 1.1301e-05 
0.000152611 5.79561e-05 0.00013594 1.1301e-05 
0.000188526 6.002e-05 0.000129247 1.1301e-05 
1.13006e-05 9.63764e-05 0.000130776 1.1301e-05 
3.95129e-05 0.000114857 0.00013517 8.755e-06 
4.47663e-05 0.000101925 0.000126449 7.705e-06 
8.2488e-05 0.000114197 0.000127728 1.284e-05 
0.000137798 0.000110099 0.00013436 9.945e-06 
0.000190055 8.88561e-05 0.000132476 9.945e-06 
0.000192295 0.000106051 0.000135763 7.705e-06 
0.000161162 0.000114079 0.000128022 1.45885e-05 
0.000185285 0.00012533 0.000134639 1.284e-05 
3.38386e-05 0.000147078 0.000129496 1.1301e-05 
9.94457e-06 0.000144463 0.000135804 9.945e-06 
3.63364e-05 0.000163604 0.000133825 5.965e-06 
4.95689e-05 0.000165564 0.000127682 8.755e-06 
0.000124079 0.000138309 0.000130614 9.945e-06 
0.000111303 0.00015917 0.000128192 9.945e-06 
0.000129837 0.000157403 0.000129937 8.755e-06 
0.000150311 0.000157102 0.000126716 9.945e-06 
7.70454e-06 0.000206855 0.000125782 7.705e-06 
1.7388e-05 0.000189068 0.000129237 1.284e-05 
4.14987e-05 0.000192147 0.000131305 9.945e-06 
6.89445e-05 0.000209786 0.000130992 8.755e-06 
4.64978e-05 0.000216165 0.000131559 1.45885e-05 
6.86493e-05 0.000240036 0.000131669 1.284e-05 
9.18591e-05 0.000251473 0.000128311 1.1301e-05 
0.000117772 0.000212377 0.000127253 6.78e-06 
0.000188015 0.000216822 0.000127657 8.755e-06 
0.000187161 0.000249974 0.00012533 1.284e-05 
9.6952e-05 0.000274463 0.00013459 9.945e-06 
0.000123182 0.000277225 0.000128657 8.755e-06 
0.000166141 0.000272684 0.000126958 9.945e-06 
0.000190056 0.000272099 0.000129934 9.945e-06 
3.41936e-05 0.000297425 0.000129469 9.945e-06 
9.94462e-06 0.000296724 0.000133051 9.945e-06 
2.49427e-05 0.000319671 0.000131495 1.284e-05 
5.36864e-05 0.000295576 0.000132964 9.945e-06 
9.21146e-05 0.000323542 0.000131304 8.755e-06 
7.59604e-05 0.000332928 0.000126553 8.755e-06 
0.000108459 0.000331971 0.00013469 9.945e-06 
0.000130651 0.000321636 0.000133083 1.45885e-05 
0.000120643 0.00029645 0.000132011 7.705e-06 
0.000162559 0.000295854 0.000132036 1.1301e-05 
0.000187123 0.000315181 0.000132465 1.284e-05 
0.000160843 0.000321292 0.000127538 1.45885e-05 
9.9448e-06 0.000346967 0.00013021 9.945e-06 
1.62398e-05 0.000367553 0.000127326 8.755e-06 
5.89761e-05 0.000370607 0.000138729 6.78e-06 
9.97292e-05 0.000353198 0.000126626 1.1301e-05 
0.000146996 0.00033755 0.000126796 6.78e-06 
0.000106545 0.000377115 0.00013382 1.45885e-05 
0.000132775 0.000372253 0.000133615 8.755e-06 
0.000116569 0.000350008 0.00013484 7.705e-06 
0.000132375 0.000344912 0.000133454 8.755e-06 
0.000153878 0.000377241 0.000135422 1.1301e-05 
9.94421e-06 0.000385036 0.000125234 9.945e-06 
7.41696e-05 0.000379997 0.000130609 1.284e-05 
9.28068e-05 0.000400418 0.000127257 1.1301e-05 
0.000149201 0.000395755 0.000126109 9.945e-06 
0.000152396 0.000417408 0.000130624 9.945e-06 
9.94468e-06 0.000461215 0.000132477 9.945e-06 
3.21942e-05 0.000451199 0.000127218 1.1301e-05 
6.07141e-05 0.00046289 0.00013384 1.1301e-05 
7.4856e-05 0.000437384 0.000125843 5.965e-06 
0.000143787 0.000436174 0.000135629 1.1301e-05 
0.00011804 0.000443846 0.00012578 8.755e-06 
0.000123027 0.000461893 0.000126478 7.705e-06 
0.00019475 0.000461627 0.000128512 5.25e-06 
0.000172387 0.000456703 0.000127115 7.705e-06 
0.000160848 0.000447001 0.000130302 7.705e-06 
2.11204e-05 0.000494165 0.000128607 7.705e-06 
6.77923e-06 0.000492819 0.000127087 6.78e-06 
7.53864e-05 0.000491454 0.00012502 1.1301e-05 
9.88123e-05 0.000486613 0.000126656 8.755e-06 
5.288e-05 0.000479318 0.000125415 8.755e-06 
5.66684e-05 0.000501584 0.000127137 8.755e-06 
0.000149804 0.000486661 0.000125347 1.1301e-05 
0.000134685 0.000473488 0.000125725 8.755e-06 
0.000181862 0.000476482 0.000131116 1.45885e-05 
0.000155173 0.000464737 0.000126507 1.1301e-05 
9.94488e-06 0.000520641 0.000128773 9.945e-06 
6.98342e-05 0.000505936 0.000136005 7.705e-06 
5.62175e-05 0.000517891 0.000133499 8.755e-06 
5.14668e-05 0.000536095 0.000127758 9.945e-06 
0.000170928 0.000511559 0.000137313 9.945e-06 
0.000188699 0.000508846 0.00012599 1.1301e-05 
1.26902e-05 0.000583127 0.000130812 1.1301e-05 
3.25416e-05 0.00054868 0.00012937 1.284e-05 
8.37193e-05 0.00056464 0.000128344 9.945e-06 
5.26531e-05 0.000574737 0.000131652 1.45885e-05 
0.000139361 0.000569063 0.000130723 8.755e-06 
0.000192295 0.000552494 0.000131284 7.705e-06 
0.000192296 0.000588604 0.000126518 7.705e-06 
0.000191246 0.000568864 0.000129927 8.755e-06 
0.000175549 0.000564287 0.000131815 7.705e-06 
0.000157711 0.0005774 0.000130371 9.945e-06 
0.000151305 0.000565286 0.000138453 5.965e-06 
3.36625e-05 0.000594895 0.000128706 1.284e-05 
8.75449e-06 0.000625169 0.000126803 8.755e-06 
8.75e-05 0.000620086 0.000128866 8.755e-06 
0.000139554 0.000623231 0.000137635 6.78e-06 
0.000127918 0.000594193 0.000131025 1.1301e-05 
0.000192295 0.000604007 0.000126077 7.705e-06 
8.75392e-06 0.000663951 0.000125519 8.755e-06 
3.16765e-05 0.000662492 0.000129679 1.45885e-05 
6.76505e-05 0.000636114 0.000129219 1.1301e-05 
0.000124626 0.000672187 0.000125005 6.78e-06 
0.00010882 0.000660058 0.000130517 1.1301e-05 
0.000149284 0.000653878 0.00013669 7.705e-06 
0.000118432 0.000646183 0.000139252 7.705e-06 
0.000131636 0.000656308 0.000130067 1.1301e-05 
0.000145245 0.00063745 0.000128027 1.1301e-05 
0.000161275 0.00063175 0.000136499 7.705e-06 
0.000174765 0.00066402 0.000126588 7.705e-06 
0.000190056 0.000672713 0.00012803 9.945e-06 
2.30401e-05 0.000715599 0.000125647 9.945e-06 
7.74e-05 0.000696289 0.000127414 8.755e-06 
6.09725e-05 0.000689423 0.000127562 7.705e-06 
0.000138534 0.000696635 0.000127872 9.945e-06 
0.000110291 0.00069354 0.000132012 1.284e-05 
0.000142361 0.000677234 0.000125744 9.945e-06 
0.000180012 0.000687383 0.000133823 8.755e-06 
0.000192296 0.00069591 0.000126945 7.705e-06 
8.75483e-06 0.000726026 0.000134966 8.755e-06 
8.11813e-05 0.000744168 0.000132284 1.1301e-05 
5.69593e-05 0.00074406 0.000127131 1.284e-05 
8.99044e-05 0.000717695 0.000132609 1.6575e-05 
0.000117919 0.000752085 0.000135996 8.755e-06 
0.000135573 0.000723906 0.000131304 1.6575e-05 
0.000109701 0.000736381 0.000126612 1.1301e-05 
0.000186792 0.000734135 0.000132181 1.284e-05 
3.6598e-05 0.000790055 0.000138406 9.945e-06 
4.89817e-05 0.000771584 0.00013037 1.1301e-05 
8.27011e-05 0.000784682 0.000135379 1.284e-05 
5.18423e-05 0.000791246 0.000127641 8.755e-06 
0.000109335 0.000784988 0.000127243 5.965e-06 
