/*--------------------------------*- C++ -*----------------------------------*\
  =========                 |
  \\      /  F ield         | OpenFOAM: The Open Source CFD Toolbox
   \\    /   O peration     | Website:  https://openfoam.org
    \\  /    A nd           | Version:  10
     \\/     M anipulation  |
\*---------------------------------------------------------------------------*/
FoamFile
{
    format      ascii;
    class       surfaceScalarField;
    location    "0.0002";
    object      phi;
}
// * * * * * * * * * * * * * * * * * * * * * * * * * * * * * * * * * * * * * //

dimensions      [0 3 -1 0 0 0 0];

internalField   nonuniform List<scalar> 
7080
(
-3.405604549e-11
-1.415761253e-13
-3.389989811e-11
-1.561473923e-13
-3.372842216e-11
-1.714759864e-13
-3.3535962e-11
-1.924602379e-13
-3.331633653e-11
-2.19625575e-13
-3.306401044e-11
-2.52326212e-13
-3.277367172e-11
-2.903388484e-13
-3.244008489e-11
-3.335869373e-13
-3.2058107e-11
-3.819779512e-13
-3.162271345e-11
-4.353935729e-13
-3.11290332e-11
-4.936802346e-13
-3.057240336e-11
-5.566298032e-13
-2.994844362e-11
-6.239596958e-13
-2.925314978e-11
-6.952938068e-13
-2.848300568e-11
-7.701440773e-13
-2.763511256e-11
-8.478930995e-13
-2.670733409e-11
-9.27778443e-13
-2.569845452e-11
-1.008879521e-12
-2.460834656e-11
-1.090107894e-12
-2.343814449e-11
-1.170201976e-12
-2.219041727e-11
-1.247727116e-12
-2.086933525e-11
-1.321081918e-12
-1.948082353e-11
-1.388511624e-12
-1.803269427e-11
-1.448129203e-12
-1.65347495e-11
-1.497944751e-12
-1.499884583e-11
-1.535903692e-12
-1.343891169e-11
-1.559934179e-12
-1.187090794e-11
-1.568003811e-12
-1.031272281e-11
-1.558185163e-12
-8.783994138e-12
-1.528728675e-12
-7.305853781e-12
-1.478140317e-12
-5.900592692e-12
-1.405261009e-12
-4.59124823e-12
-1.309344366e-12
-3.401123106e-12
-1.190125051e-12
-2.35324789e-12
-1.047875192e-12
-1.469716421e-12
-8.835314973e-13
-7.70825284e-13
-6.988911912e-13
-2.753916553e-13
-4.95433683e-13
-5.904007389e-15
-2.694876977e-13
2.921393093e-21
-5.904054534e-15
-6.425924984e-22
-1.192016691e-23
-6.423735513e-22
-2.189470861e-25
-6.42660073e-22
2.863986574e-25
-6.431670344e-22
5.066853587e-25
-6.43709488e-22
5.420184047e-25
-6.441116208e-22
4.015278733e-25
-6.441935521e-22
8.116957573e-26
-6.437756196e-22
-4.188060096e-25
-6.426870884e-22
-1.089475157e-24
-6.407750198e-22
-1.913098495e-24
-6.379116112e-22
-2.864589622e-24
-6.339993194e-22
-3.913643242e-24
-6.289735053e-22
-5.02724261e-24
-6.22802234e-22
-6.172866795e-24
-6.154820616e-22
-7.323511307e-24
-6.070276914e-22
-8.466005819e-24
-5.97455346e-22
-9.610244079e-24
-5.867741594e-22
-1.077750043e-23
-5.750449958e-22
-1.189258307e-23
-1.242456179e-23
-3.412447763e-11
-2.859863475e-13
-3.397595799e-11
-3.046671106e-13
-3.381119523e-11
-3.362388825e-13
-3.362458044e-11
-3.7907521e-13
-3.34110203e-11
-4.331859418e-13
-3.31650854e-11
-4.982613241e-13
-3.288140209e-11
-5.740223336e-13
-3.25547088e-11
-6.602803347e-13
-3.217982907e-11
-7.568577006e-13
-3.17516812e-11
-8.635414052e-13
-3.126531423e-11
-9.800471308e-13
-3.07159629e-11
-1.105981056e-12
-3.009912174e-11
-1.240800786e-12
-2.94106388e-11
-1.383776691e-12
-2.864682857e-11
-1.533954257e-12
-2.780460322e-11
-1.690118378e-12
-2.688162062e-11
-1.850760948e-12
-2.587644663e-11
-2.014053388e-12
-2.47887284e-11
-2.177825965e-12
-2.361937431e-11
-2.339555896e-12
-2.237073508e-11
-2.496366181e-12
-2.104677985e-11
-2.645037003e-12
-1.965326013e-11
-2.782031254e-12
-1.819785376e-11
-2.90353553e-12
-1.669028077e-11
-3.005517748e-12
-1.514238207e-11
-3.083802436e-12
-1.356815164e-11
-3.13416466e-12
-1.198371247e-11
-3.152443018e-12
-1.040722671e-11
-3.134670897e-12
-8.858732412e-12
-3.077222898e-12
-7.359902155e-12
-2.976970447e-12
-5.933725125e-12
-2.8314379e-12
-4.604120856e-12
-2.638948534e-12
-3.395496424e-12
-2.398749456e-12
-2.332257227e-12
-2.111114435e-12
-1.438355526e-12
-1.777433284e-12
-7.371544088e-13
-1.400092397e-12
-2.513177352e-13
-9.812704425e-13
-1.291449066e-15
-5.195140718e-13
2.896260672e-21
-7.195578538e-15
-6.413827908e-22
-2.335363009e-23
-6.418809302e-22
2.789419577e-25
-6.424397863e-22
8.447308984e-25
-6.431317014e-22
1.197795475e-24
-6.438499785e-22
1.259204655e-24
-6.444319791e-22
9.821719702e-25
-6.446935277e-22
3.411568928e-25
-6.444462888e-22
-6.67759624e-25
-6.435107118e-22
-2.026952633e-24
-6.417265109e-22
-3.699512489e-24
-6.389606649e-22
-5.633098553e-24
-6.351129188e-22
-7.764557486e-24
-6.301191295e-22
-1.002449705e-23
-6.239528785e-22
-1.234105887e-23
-6.166245561e-22
-1.464277986e-23
-6.081719296e-22
-1.686309664e-23
-5.986226024e-22
-1.895453306e-23
-5.878892421e-22
-2.092122288e-23
-5.755769746e-22
-2.283502499e-23
-2.460712782e-23
-3.420367782e-11
-4.213867617e-13
-3.406134156e-11
-4.470034478e-13
-3.390445722e-11
-4.931233466e-13
-3.372678259e-11
-5.567500019e-13
-3.352279302e-11
-6.371756959e-13
-3.328706294e-11
-7.339915675e-13
-3.30142297e-11
-8.468556769e-13
-3.269900196e-11
-9.755081123e-13
-3.23361473e-11
-1.119712332e-12
-3.192049994e-11
-1.279188699e-12
-3.14469926e-11
-1.45355439e-12
-3.091070914e-11
-1.642264434e-12
-3.030695745e-11
-1.84455241e-12
-2.963136277e-11
-2.05937131e-12
-2.887998144e-11
-2.285335526e-12
-2.804943432e-11
-2.520665423e-12
-2.713705868e-11
-2.763136503e-12
-2.61410763e-11
-3.01003568e-12
-2.506077463e-11
-3.258127543e-12
-2.389669671e-11
-3.503633707e-12
-2.265083448e-11
-3.742228288e-12
-2.132681905e-11
-3.969052313e-12
-1.993010081e-11
-4.178749394e-12
-1.846811166e-11
-4.365524597e-12
-1.69504012e-11
-4.523228161e-12
-1.538873787e-11
-4.645465741e-12
-1.379716555e-11
-4.725736968e-12
-1.219200489e-11
-4.757603661e-12
-1.05917886e-11
-4.734887152e-12
-9.017121095e-12
-4.651890333e-12
-7.490456682e-12
-4.503634774e-12
-6.035796452e-12
-4.286098051e-12
-4.67831137e-12
-3.996433572e-12
-3.443902876e-12
-3.633157953e-12
-2.3587121e-12
-3.196305246e-12
-1.448582126e-12
-2.687563306e-12
-7.383618934e-13
-2.11031269e-12
-2.505605566e-13
-1.469071879e-12
-2.434288234e-15
-7.676404892e-13
4.350511838e-22
-9.629920638e-15
-6.408604187e-22
-3.757476661e-23
-6.413193745e-22
7.376969955e-25
-6.420867218e-22
1.611654959e-24
-6.430702922e-22
2.180699164e-24
-6.441270112e-22
2.315011192e-24
-6.450729942e-22
1.927031233e-24
-6.457024443e-22
9.693271116e-25
-6.458054818e-22
-5.661473537e-25
-6.451832716e-22
-2.650795751e-24
-6.43660097e-22
-5.224586436e-24
-6.410921238e-22
-8.203205881e-24
-6.373728584e-22
-1.148630836e-23
-6.324356913e-22
-1.496588238e-23
-6.262545995e-22
-1.853351218e-23
-6.188448729e-22
-2.208502799e-23
-6.102633661e-22
-2.552181113e-23
-6.005892922e-22
-2.875328256e-23
-5.898030442e-22
-3.171844719e-23
-5.773490774e-22
-3.444458317e-23
-3.700953959e-23
-3.428365961e-11
-5.462950577e-13
-3.415181042e-11
-5.788527094e-13
-3.400606478e-11
-6.388690906e-13
-3.384050926e-11
-7.223056567e-13
-3.364962646e-11
-8.280586132e-13
-3.342800728e-11
-9.556108251e-13
-3.317030243e-11
-1.10456056e-12
-3.287119853e-11
-1.274611983e-12
-3.25254019e-11
-1.465508901e-12
-3.212764412e-11
-1.67694641e-12
-3.16727104e-11
-1.908488037e-12
-3.115548919e-11
-2.159485572e-12
-3.05710429e-11
-2.428998629e-12
-2.99147002e-11
-2.715713938e-12
-2.918217012e-11
-3.01786554e-12
-2.836967774e-11
-3.333157755e-12
-2.747412057e-11
-3.65869363e-12
-2.649324394e-11
-3.990912283e-12
-2.542583226e-11
-4.32553918e-12
-2.42719122e-11
-4.657553703e-12
-2.303296209e-11
-4.981178299e-12
-2.171212125e-11
-5.289893033e-12
-2.031439184e-11
-5.576478663e-12
-1.884682576e-11
-5.833090546e-12
-1.731868847e-11
-6.051365346e-12
-1.574159131e-11
-6.222562816e-12
-1.412958245e-11
-6.337745778e-12
-1.24991844e-11
-6.388001673e-12
-1.086936465e-11
-6.364706861e-12
-9.261425707e-12
-6.259829249e-12
-7.698803664e-12
-6.06625679e-12
-6.206769981e-12
-5.778131717e-12
-4.81203612e-12
-5.391167432e-12
-3.542260899e-12
-4.902933188e-12
-2.425445897e-12
-4.313120272e-12
-1.489157112e-12
-3.623852125e-12
-7.593813489e-13
-2.840088517e-12
-2.586312543e-13
-1.969822085e-12
-2.939770147e-15
-1.023332083e-12
-2.317457952e-21
-1.256968401e-14
-6.398383581e-22
-5.570622751e-23
-6.404433908e-22
1.342542933e-24
-6.415176775e-22
2.685544488e-24
-6.429359802e-22
3.598368184e-24
-6.445149912e-22
3.893162356e-24
-6.460306983e-22
3.44169206e-24
-6.472379187e-22
2.175339335e-24
-6.478901302e-22
8.465242633e-26
-6.477570623e-22
-2.785551638e-24
-6.466387164e-22
-6.344859807e-24
-6.443752263e-22
-1.046853325e-23
-6.408524324e-22
-1.501001172e-23
-6.360033211e-22
-1.981334422e-23
-6.298061153e-22
-2.472438857e-23
-6.222816561e-22
-2.95995194e-23
-6.134948375e-22
-3.430991396e-23
-6.035544568e-22
-3.874045863e-23
-5.925291801e-22
-4.279400247e-23
-5.799140339e-22
-4.643858378e-23
-4.977403885e-23
-3.43596374e-11
-6.577545487e-13
-3.424145022e-11
-6.970399487e-13
-3.411012078e-11
-7.701986054e-13
-3.396006182e-11
-8.723646896e-13
-3.378591602e-11
-1.002204472e-12
-3.358237253e-11
-1.159154326e-12
-3.33441324e-11
-1.342800659e-12
-3.306588021e-11
-1.552864125e-12
-3.274226642e-11
-1.789122636e-12
-3.236791096e-11
-2.051301816e-12
-3.193742834e-11
-2.338970618e-12
-3.144547372e-11
-2.651440137e-12
-3.088681077e-11
-2.987661514e-12
-3.025640199e-11
-3.34612266e-12
-2.954952244e-11
-3.724745033e-12
-2.876189742e-11
-4.120782754e-12
-2.788986365e-11
-4.530727408e-12
-2.693055297e-11
-4.950222979e-12
-2.588209587e-11
-5.373996283e-12
-2.474384077e-11
-5.795808751e-12
-2.35165836e-11
-6.20843537e-12
-2.220280068e-11
-6.603675815e-12
-2.080687766e-11
-6.97240154e-12
-1.933532684e-11
-7.30464122e-12
-1.779698577e-11
-7.589706283e-12
-1.620318935e-11
-7.816359139e-12
-1.456790583e-11
-7.973029227e-12
-1.290782323e-11
-8.048084229e-12
-1.124236802e-11
-8.030162056e-12
-9.593635708e-12
-7.908561575e-12
-7.986214147e-12
-7.673678382e-12
-6.446884557e-12
-7.317461344e-12
-5.004189359e-12
-6.833862666e-12
-3.687854192e-12
-6.219268383e-12
-2.528034054e-12
-5.472940432e-12
-1.554306614e-12
-4.597579589e-12
-7.94251764e-13
-3.600143402e-12
-2.714504065e-13
-2.492623476e-12
-3.206386398e-15
-1.29157608e-12
-1.661052784e-21
-1.577603177e-14
-6.382887136e-22
-7.912354999e-23
-6.390963078e-22
2.149962668e-24
-6.406048539e-22
4.193710178e-24
-6.42641186e-22
5.634097388e-24
-6.449664615e-22
6.217632963e-24
-6.47297051e-22
5.771298079e-24
-6.493286056e-22
4.205714245e-24
-6.507603342e-22
1.514942944e-24
-6.513163705e-22
-2.23126215e-24
-6.507623899e-22
-6.900912485e-24
-6.489167048e-22
-1.231670005e-23
-6.456557649e-22
-1.827404541e-23
-6.409143655e-22
-2.455828134e-23
-6.346812461e-22
-3.095968502e-23
-6.269920506e-22
-3.728570646e-23
-6.179253822e-22
-4.33692069e-23
-6.076080007e-22
-4.906981859e-23
-5.961737614e-22
-5.427023339e-23
-5.832494889e-22
-5.889994921e-23
-6.30341266e-23
-3.442575071e-11
-7.528760372e-13
-3.432426502e-11
-7.985256726e-13
-3.421053975e-11
-8.839239159e-13
-3.407935123e-11
-1.003553236e-12
-3.392558466e-11
-1.155971041e-12
-3.374409528e-11
-1.340643679e-12
-3.352968011e-11
-1.557215784e-12
-3.327705079e-11
-1.805493415e-12
-3.298081642e-11
-2.085356997e-12
-3.263548542e-11
-2.396632823e-12
-3.223548717e-11
-2.738968864e-12
-3.177521406e-11
-3.111713219e-12
-3.124908523e-11
-3.513790304e-12
-3.065163368e-11
-3.943574155e-12
-2.997761856e-11
-4.398760131e-12
-2.922216376e-11
-4.876237559e-12
-2.838092384e-11
-5.371967357e-12
-2.745027667e-11
-5.880870187e-12
-2.642754085e-11
-6.396732101e-12
-2.531121411e-11
-6.912135438e-12
-2.410122664e-11
-7.418422757e-12
-2.279920201e-11
-7.905700332e-12
-2.140871785e-11
-8.362885576e-12
-1.993555876e-11
-8.777800201e-12
-1.838795549e-11
-9.137309449e-12
-1.677680517e-11
-9.427509369e-12
-1.511586444e-11
-9.63396988e-12
-1.342190053e-11
-9.742048114e-12
-1.171477597e-11
-9.737286628e-12
-1.001743686e-11
-9.605900745e-12
-8.35577343e-12
-9.335341886e-12
-6.758325842e-12
-8.91490901e-12
-5.255812448e-12
-8.336376122e-12
-3.880458988e-12
-7.594621877e-12
-2.665095721e-12
-6.688303706e-12
-1.641957636e-12
-5.620717656e-12
-8.410840112e-13
-4.401016984e-12
-2.883172118e-13
-3.045390202e-12
-3.451812828e-15
-1.576441387e-12
9.425405131e-22
-1.922784052e-14
-6.35935932e-22
-1.098143553e-22
-6.370471604e-22
3.261025751e-24
-6.391644666e-22
6.310654752e-24
-6.420576504e-22
8.526719906e-24
-6.454127963e-22
9.5720293e-24
-6.488626348e-22
9.22018402e-24
-6.520193769e-22
7.361258642e-24
-6.545065393e-22
4.00065137e-24
-6.559860208e-22
-7.534109523e-25
-6.561781774e-22
-6.710448299e-24
-6.548740501e-22
-1.362262778e-23
-6.519400008e-22
-2.121037268e-23
-6.473157691e-22
-2.918581467e-23
-6.410072676e-22
-3.727240765e-23
-6.330755511e-22
-4.522018838e-23
-6.236259939e-22
-5.281646827e-23
-6.128084155e-22
-5.98900755e-23
-6.008034773e-22
-6.630670494e-23
-5.873836663e-22
-7.197499044e-23
-7.693952685e-23
-3.447640294e-11
-8.289433951e-13
-3.43945021e-11
-8.804265277e-13
-3.430143928e-11
-9.769867451e-13
-3.41924063e-11
-1.112586214e-12
-3.406259933e-11
-1.285777987e-12
-3.39070993e-11
-1.496143684e-12
-3.372084655e-11
-1.743468528e-12
-3.349861481e-11
-2.027725181e-12
-3.323499418e-11
-2.348977684e-12
-3.292439074e-11
-2.707236319e-12
-3.256104412e-11
-3.102315514e-12
-3.213906426e-11
-3.533693078e-12
-3.165248954e-11
-4.000365006e-12
-3.109536886e-11
-4.500694812e-12
-3.046187047e-11
-5.032258512e-12
-2.974642011e-11
-5.591687935e-12
-2.894387052e-11
-6.174516972e-12
-2.804970315e-11
-6.775037562e-12
-2.706026093e-11
-7.386174308e-12
-2.597300826e-11
-7.999388066e-12
-2.478681197e-11
-8.604618993e-12
-2.350223449e-11
-9.190277761e-12
-2.212183015e-11
-9.743289877e-12
-2.065043708e-11
-1.024919322e-11
-1.909546107e-11
-1.06922854e-11
-1.746715072e-11
-1.105581965e-11
-1.57788609e-11
-1.132225965e-11
-1.404728889e-11
-1.147362012e-11
-1.229265119e-11
-1.149192436e-11
-1.053875644e-11
-1.135979557e-11
-8.812927514e-12
-1.10611709e-11
-7.145730152e-12
-1.058210645e-11
-5.570472247e-12
-9.911634079e-12
-4.122444241e-12
-9.042649899e-12
-2.837869552e-12
-7.972878367e-12
-1.752517777e-12
-6.706069369e-12
-8.999222706e-13
-5.253612409e-12
-3.092906516e-13
-3.63602175e-12
-3.731675131e-15
-1.882000358e-12
7.298349907e-22
-2.295955182e-14
-6.324472558e-22
-1.50416882e-22
-6.339908387e-22
4.804451702e-24
-6.369484015e-22
9.267883038e-24
-6.41012341e-22
1.259014112e-23
-6.457646416e-22
1.432360687e-23
-6.507215602e-22
1.417612296e-23
-6.553799842e-22
1.201841124e-23
-6.592606017e-22
7.879749817e-24
-6.619430582e-22
1.927387666e-24
-6.630903569e-22
-5.564877372e-24
-6.62461795e-22
-1.425302825e-23
-6.599154428e-22
-2.37587939e-23
-6.554023621e-22
-3.370142184e-23
-6.489550483e-22
-4.372308284e-23
-6.406718309e-22
-5.35071949e-23
-6.306996011e-22
-6.279008952e-23
-6.192250449e-22
-7.136612336e-23
-6.064717628e-22
-7.908378152e-23
-5.923482027e-22
-8.584173251e-23
-9.16624333e-23
-3.450598691e-11
-8.834208761e-13
-3.444634941e-11
-9.400640281e-13
-3.437682588e-11
-1.046510273e-12
-3.429308145e-11
-1.196330632e-12
-3.419068657e-11
-1.388172859e-12
-3.406500579e-11
-1.62182448e-12
-3.391117246e-11
-1.897301911e-12
-3.372406282e-11
-2.214834912e-12
-3.349827802e-11
-2.574762584e-12
-3.322814059e-11
-2.977373834e-12
-3.290770666e-11
-3.422749503e-12
-3.253079578e-11
-3.910603968e-12
-3.209104138e-11
-4.440119402e-12
-3.158196518e-11
-5.009771002e-12
-3.099707987e-11
-5.617143816e-12
-3.033002412e-11
-6.258743672e-12
-2.957473387e-11
-6.929807213e-12
-2.872565228e-11
-7.624119127e-12
-2.77779787e-11
-8.333847866e-12
-2.672795304e-11
-9.049413711e-12
-2.557316828e-11
-9.759403757e-12
-2.431290013e-11
-1.045054594e-11
-2.294844203e-11
-1.1107748e-11
-2.148343701e-11
-1.171419826e-11
-1.992420585e-11
-1.225151654e-11
-1.828008075e-11
-1.269994471e-11
-1.656375232e-11
-1.303858806e-11
-1.479161747e-11
-1.324575497e-11
-1.298408503e-11
-1.329945684e-11
-1.116577346e-11
-1.317810718e-11
-9.365532788e-12
-1.286141162e-11
-7.616227802e-12
-1.233141148e-11
-5.954229782e-12
-1.157363212e-11
-4.418576333e-12
-1.057830334e-11
-3.049767841e-12
-9.341686824e-12
-1.888165471e-12
-7.867671698e-12
-9.719591316e-13
-6.169818734e-12
-3.348414959e-13
-4.273139429e-12
-4.063633602e-15
-2.212778317e-12
-2.483221896e-21
-2.70231955e-14
-6.273769122e-22
-2.04379285e-22
-6.29519267e-22
6.94666141e-24
-6.336261434e-22
1.337445105e-23
-6.392788753e-22
1.824236982e-23
-6.459121255e-22
2.095610693e-23
-6.528792719e-22
2.114222401e-23
-6.595186456e-22
1.865646723e-23
-6.652129638e-22
1.357257049e-23
-6.694353232e-22
6.148123642e-24
-6.717785078e-22
-3.223508347e-24
-6.719675607e-22
-1.406605891e-23
-6.698580707e-22
-2.587053833e-23
-6.654240231e-22
-3.813774651e-23
-6.587391604e-22
-5.041050863e-23
-6.499547256e-22
-6.229494764e-23
-6.392756349e-22
-7.347195976e-23
-6.269427031e-22
-8.370090884e-23
-6.132297138e-22
-9.281495307e-23
-5.981689035e-22
-1.007112293e-22
-1.074028547e-22
-3.450852416e-11
-9.140010615e-13
-3.447358554e-11
-9.750026518e-13
-3.443024621e-11
-1.089849596e-12
-3.437471065e-11
-1.251866206e-12
-3.430298729e-11
-1.459896241e-12
-3.421078375e-11
-1.71402809e-12
-3.40934797e-11
-2.014606058e-12
-3.39461002e-11
-2.362214528e-12
-3.376329581e-11
-2.75756709e-12
-3.353933471e-11
-3.201335019e-12
-3.326810817e-11
-3.693976099e-12
-3.294315142e-11
-4.235560737e-12
-3.255768361e-11
-4.825587216e-12
-3.210467128e-11
-5.462783325e-12
-3.157692102e-11
-6.144894042e-12
-3.096720759e-11
-6.868457067e-12
-3.026844356e-11
-7.628571195e-12
-2.947389587e-11
-8.418666775e-12
-2.857745123e-11
-9.230292491e-12
-2.757392776e-11
-1.00529372e-11
-2.645942392e-11
-1.087390765e-11
-2.523168964e-11
-1.167828029e-11
-2.389050251e-11
-1.244893522e-11
-2.243803639e-11
-1.316666443e-11
-2.087922633e-11
-1.381032662e-11
-1.922215597e-11
-1.435701509e-11
-1.747849976e-11
-1.478224427e-11
-1.566401676e-11
-1.506023796e-11
-1.379903657e-11
-1.5164437e-11
-1.190883918e-11
-1.506830455e-11
-1.002383155e-11
-1.474641922e-11
-8.179433214e-12
-1.417580979e-11
-6.415593736e-12
-1.333747158e-11
-4.775884291e-12
-1.221801278e-11
-3.306124418e-12
-1.081144671e-11
-2.052511868e-12
-9.121284293e-12
-1.059236618e-12
-7.163094074e-12
-3.657519055e-13
-4.966624246e-12
-4.461833972e-15
-2.574068431e-12
-3.112093404e-21
-3.148498884e-14
-6.201157459e-22
-2.762123892e-22
-6.230816353e-22
9.912416353e-24
-6.287582246e-22
1.905073352e-23
-6.365651382e-22
2.604874618e-23
-6.457260085e-22
3.011615576e-23
-6.553650287e-22
3.078013891e-23
-6.646025424e-22
2.789267613e-23
-6.726374107e-22
2.160601666e-23
-6.788069552e-22
1.231608641e-23
-6.826210583e-22
5.887271653e-25
-6.837720401e-22
-1.291723112e-23
-6.821252789e-22
-2.751953357e-23
-6.776967852e-22
-4.256837884e-23
-6.706235994e-22
-5.7485937e-23
-6.611317377e-22
-7.178969148e-23
-6.49504584e-22
-8.510216975e-23
-6.360567473e-22
-9.715082863e-23
-6.2112599e-22
-1.077597326e-22
-6.04860529e-22
-1.168344267e-22
-1.24393623e-22
-3.447745313e-11
-9.186582332e-13
-3.446936116e-11
-9.830946287e-13
-3.445456767e-11
-1.104643097e-12
-3.44298886e-11
-1.276545317e-12
-3.439183701e-11
-1.497947889e-12
-3.433652604e-11
-1.769339143e-12
-3.425963959e-11
-2.091492618e-12
-3.415640433e-11
-2.465449879e-12
-3.402156746e-11
-2.892404051e-12
-3.384938347e-11
-3.373519066e-12
-3.363361139e-11
-3.909748226e-12
-3.336752441e-11
-4.501647738e-12
-3.30439362e-11
-5.149175436e-12
-3.265524918e-11
-5.851470317e-12
-3.219353224e-11
-6.606610938e-12
-3.16506363e-11
-7.411352937e-12
-3.101835761e-11
-8.260849827e-12
-3.028865727e-11
-9.148367074e-12
-2.945394282e-11
-1.006500695e-11
-2.850741048e-11
-1.099946956e-11
-2.744343728e-11
-1.193788092e-11
-2.625800104e-11
-1.286371661e-11
-2.494910039e-11
-1.375783596e-11
-2.351715205e-11
-1.459861287e-11
-2.19653712e-11
-1.536210756e-11
-2.030019201e-11
-1.602219433e-11
-1.853181042e-11
-1.655062586e-11
-1.66748684e-11
-1.691717991e-11
-1.474919352e-11
-1.709011176e-11
-1.278043934e-11
-1.703705862e-11
-1.080049252e-11
-1.672636594e-11
-8.847528361e-12
-1.61287739e-11
-6.965604025e-12
-1.521939591e-11
-5.203703271e-12
-1.397991357e-11
-3.61417626e-12
-1.24009738e-11
-2.250533906e-12
-1.048492676e-11
-1.164579244e-12
-8.249048838e-12
-4.030896149e-13
-5.728113906e-12
-4.942901583e-15
-2.972215067e-12
1.940133696e-22
-3.642786775e-14
-6.098298729e-22
-3.718215219e-22
-6.139314295e-22
1.401383685e-23
-6.21760212e-22
2.68791793e-23
-6.324977286e-22
3.678566663e-23
-6.450620253e-22
4.267958245e-23
-6.582524915e-22
4.396952329e-23
-6.708892018e-22
4.052818533e-23
-6.819273409e-22
3.264283589e-23
-6.905343144e-22
2.092150828e-23
-6.961270166e-22
6.179592452e-24
-6.983743426e-22
-1.0671885e-23
-6.971741242e-22
-2.872171243e-23
-6.926143434e-22
-4.713015797e-23
-6.849273538e-22
-6.517516436e-23
-6.74444216e-22
-8.227553916e-23
-6.615532429e-22
-9.799610393e-23
-6.466656513e-22
-1.120405516e-22
-6.302006841e-22
-1.242358365e-22
-6.124197253e-22
-1.345099565e-22
-1.429052027e-22
-3.440555945e-11
-8.956997644e-13
-3.442612545e-11
-9.625286428e-13
-3.444190275e-11
-1.088865831e-12
-3.445039442e-11
-1.268053696e-12
-3.444868774e-11
-1.499654625e-12
-3.443336731e-11
-1.784659645e-12
-3.440048377e-11
-2.124376213e-12
-3.434552498e-11
-2.520408715e-12
-3.426339111e-11
-2.974537961e-12
-3.414837573e-11
-3.488534483e-12
-3.399415342e-11
-4.06397057e-12
-3.379377606e-11
-4.702025127e-12
-3.353968191e-11
-5.403269582e-12
-3.322372389e-11
-6.167428305e-12
-3.283722577e-11
-6.993108998e-12
-3.237107806e-11
-7.877500586e-12
-3.181588732e-11
-8.816040523e-12
-3.116219329e-11
-9.802061089e-12
-3.040076488e-11
-1.082643535e-11
-2.952297747e-11
-1.187725699e-11
-2.852125829e-11
-1.293960014e-11
-2.738956794e-11
-1.399540703e-11
-2.612387037e-11
-1.502353364e-11
-2.472254465e-11
-1.599993873e-11
-2.318673747e-11
-1.689791485e-11
-2.152076463e-11
-1.76881672e-11
-1.973274552e-11
-1.833864492e-11
-1.783553838e-11
-1.881438691e-11
-1.584784046e-11
-1.907780952e-11
-1.379519432e-11
-1.908970461e-11
-1.171072491e-11
-1.881083526e-11
-9.635458732e-12
-1.820404004e-11
-7.618067452e-12
-1.723678721e-11
-5.713905237e-12
-1.588407585e-11
-3.983253227e-12
-1.413162592e-11
-2.488706382e-12
-1.19794737e-11
-1.291671718e-12
-9.446083538e-12
-4.482411464e-13
-6.571544439e-12
-5.527422519e-15
-3.414928749e-12
1.416264769e-21
-4.195532888e-14
-5.953718685e-22
-4.98932112e-22
-6.01051704e-22
1.969351981e-23
-6.118537246e-22
3.768082495e-23
-6.266038128e-22
5.153512844e-23
-6.437720845e-22
5.984702253e-23
-6.616938295e-22
6.189032296e-23
-6.787745513e-22
5.760787834e-23
-6.936486685e-22
4.751574587e-23
-7.052762303e-22
3.254758853e-23
-7.129784941e-22
1.38801862e-23
-7.1642417e-22
-7.227881887e-24
-7.155825697e-22
-2.956502392e-23
-7.106593498e-22
-5.205540529e-23
-7.020277286e-22
-7.380921279e-23
-6.901647807e-22
-9.414116712e-23
-6.755976905e-22
-1.125660227e-22
-6.588609362e-22
-1.287795603e-22
-6.404748041e-22
-1.426312024e-22
-6.208149715e-22
-1.540918307e-22
-1.632500517e-22
-3.428499951e-11
-8.438165015e-13
-3.433564838e-11
-9.118797963e-13
-3.438362983e-11
-1.040884415e-12
-3.44272113e-11
-1.224472254e-12
-3.446412584e-11
-1.462740109e-12
-3.44914981e-11
-1.757287391e-12
-3.450581219e-11
-2.110062116e-12
-3.45028827e-11
-2.523338204e-12
-3.447782789e-11
-2.999592783e-12
-3.442504506e-11
-3.541317336e-12
-3.433818796e-11
-4.150827711e-12
-3.421014776e-11
-4.830065342e-12
-3.403304168e-11
-5.580375659e-12
-3.379821557e-11
-6.402254379e-12
-3.349627112e-11
-7.295053414e-12
-3.31171322e-11
-8.256639482e-12
-3.265016989e-11
-9.28300282e-12
-3.208440821e-11
-1.036782275e-11
-3.140883094e-11
-1.150201261e-11
-3.061279896e-11
-1.267328896e-11
-2.968656494e-11
-1.386583418e-11
-2.862183857e-11
-1.506013349e-11
-2.741232254e-11
-1.623304981e-11
-2.605412177e-11
-1.735813966e-11
-2.454598902e-11
-1.840604771e-11
-2.288959579e-11
-1.934456043e-11
-2.109022046e-11
-2.013802017e-11
-1.91580232e-11
-2.074658404e-11
-1.710967055e-11
-2.112616204e-11
-1.496984299e-11
-2.122953207e-11
-1.277242463e-11
-2.100825356e-11
-1.056121354e-11
-2.041525111e-11
-8.389926279e-12
-1.940807448e-11
-6.321298248e-12
-1.795270394e-11
-4.425148032e-12
-1.60277762e-11
-2.775293239e-12
-1.362932854e-11
-1.445243711e-12
-1.077613309e-11
-5.029890089e-13
-7.513799177e-12
-6.241341752e-15
-3.911676519e-12
-1.564203728e-21
-4.819670666e-14
-5.751489241e-22
-6.676346413e-22
-5.830469449e-22
2.759136965e-23
-5.979994212e-22
5.263291178e-23
-6.182919187e-22
7.182703646e-23
-6.41728784e-22
8.328319082e-23
-6.659762741e-22
8.613707097e-23
-6.888666838e-22
8.049743219e-23
-7.086168258e-22
6.726478438e-23
-7.239436326e-22
4.787304447e-23
-7.340865622e-22
2.402167618e-23
-7.38761312e-22
-2.554609408e-24
-7.380729511e-22
-3.025513265e-23
-7.324131573e-22
-5.77174775e-23
-7.22359683e-22
-8.386532266e-23
-7.085896363e-22
-1.079138332e-22
-6.918112281e-22
-1.293472047e-22
-6.727125782e-22
-1.478807105e-22
-6.519354324e-22
-1.634161671e-22
-6.299731925e-22
-1.759965372e-22
-1.857853896e-22
-3.410737849e-11
-7.621305165e-13
-3.418909686e-11
-8.301614475e-13
-3.427046851e-11
-9.595127668e-13
-3.435060134e-11
-1.14433941e-12
-3.442794575e-11
-1.385395654e-12
-3.450023631e-11
-1.684996774e-12
-3.456445983e-11
-2.045838538e-12
-3.461682776e-11
-2.470970242e-12
-3.465274875e-11
-2.963671795e-12
-3.466679923e-11
-3.527266889e-12
-3.465269077e-11
-4.164936208e-12
-3.460323489e-11
-4.879521244e-12
-3.451030813e-11
-5.673302411e-12
-3.436482371e-11
-6.547738789e-12
-3.415672077e-11
-7.503156353e-12
-3.387498923e-11
-8.538371035e-12
-3.350775601e-11
-9.650236047e-12
-3.304246578e-11
-1.083311298e-11
-3.246619105e-11
-1.207828732e-11
-3.176609539e-11
-1.337338462e-11
-3.093004014e-11
-1.470188948e-11
-2.994727124e-11
-1.604290249e-11
-2.880905938e-11
-1.737126182e-11
-2.750909779e-11
-1.865810136e-11
-2.60435099e-11
-1.987163565e-11
-2.441076742e-11
-2.097730288e-11
-2.261233846e-11
-2.193644906e-11
-2.065444366e-11
-2.270447879e-11
-1.855047178e-11
-2.323013387e-11
-1.632314542e-11
-2.345685839e-11
-1.400629894e-11
-2.332510001e-11
-1.164615183e-11
-2.277539818e-11
-9.3017375e-12
-2.17524888e-11
-7.044184196e-12
-2.021025727e-11
-4.954661221e-12
-1.811729923e-11
-3.120792373e-12
-1.546319745e-11
-1.631355913e-12
-1.226556964e-11
-5.69629754e-13
-8.575525463e-12
-7.117767142e-15
-4.474188605e-12
-1.729031004e-21
-5.531446255e-14
-5.469242337e-22
-8.910829592e-22
-5.579841338e-22
3.86510935e-23
-5.788052965e-22
7.345370776e-23
-6.068357643e-22
9.985701356e-23
-6.388749039e-22
1.153218102e-22
-6.716159129e-22
1.188775118e-22
-7.020993316e-22
1.109800875e-22
-7.280085658e-22
9.317297049e-23
-7.477950009e-22
6.765824665e-23
-7.606628477e-22
3.688819705e-23
-7.664618353e-22
3.242809891e-24
-7.655352959e-22
-3.11837061e-23
-7.585610025e-22
-6.469429904e-23
-7.464081935e-22
-9.602078005e-23
-7.300230078e-22
-1.243014937e-22
-7.10344734e-22
-1.490283144e-22
-6.882480348e-22
-1.699801095e-22
-6.645158025e-22
-1.871550077e-22
-6.397620448e-22
-2.007080952e-22
-2.109132868e-22
-3.386385336e-11
-6.502428157e-13
-3.397714001e-11
-7.16874791e-13
-3.409258616e-11
-8.440665838e-13
-3.421021314e-11
-1.026712347e-12
-3.432925845e-11
-1.266350242e-12
-3.444813542e-11
-1.566119691e-12
-3.456440312e-11
-1.92957076e-12
-3.467474192e-11
-2.360631416e-12
-3.477492758e-11
-2.863486158e-12
-3.485979898e-11
-3.442395533e-12
-3.492321696e-11
-4.101518257e-12
-3.495801325e-11
-4.844724962e-12
-3.495593053e-11
-5.67538514e-12
-3.490755824e-11
-6.596111091e-12
-3.480227496e-11
-7.608439672e-12
-3.462821725e-11
-8.712428785e-12
-3.437230821e-11
-9.906145106e-12
-3.402039315e-11
-1.118502803e-11
-3.355753969e-11
-1.254114078e-11
-3.29685506e-11
-1.396237373e-11
-3.223869268e-11
-1.543174749e-11
-3.135456252e-11
-1.692703277e-11
-3.030490885e-11
-1.842091558e-11
-2.908104571e-11
-1.988196454e-11
-2.76764215e-11
-2.127625987e-11
-2.608577346e-11
-2.256795091e-11
-2.430554154e-11
-2.371668101e-11
-2.233633993e-11
-2.467368043e-11
-2.018661995e-11
-2.537985386e-11
-1.7875631e-11
-2.57678473e-11
-1.543590541e-11
-2.576482553e-11
-1.291533134e-11
-2.52959722e-11
-1.037824608e-11
-2.428957404e-11
-7.905082806e-12
-2.268342056e-11
-5.590344227e-12
-2.043203786e-11
-3.538559934e-12
-1.751498183e-11
-1.857806742e-12
-1.394632294e-11
-6.51141792e-13
-9.782190478e-12
-8.199633672e-15
-5.117130734e-12
2.481063667e-21
-6.351411261e-14
-5.075114673e-22
-1.186390994e-21
-5.231554685e-22
5.429492815e-23
-5.524019907e-22
1.02699914e-22
-5.913709677e-22
1.388256143e-22
-6.353192022e-22
1.592696472e-22
-6.795133372e-22
1.630711181e-22
-7.199064485e-22
1.51372388e-22
-7.535232896e-22
1.267887332e-22
-7.785650505e-22
9.269878774e-23
-7.943082349e-22
5.262995573e-23
-8.008883513e-22
9.821063518e-24
-7.990458888e-22
-3.302845163e-23
-7.898874835e-22
-7.38552488e-23
-7.746889072e-22
-1.112218016e-22
-7.547498285e-22
-1.442429625e-22
-7.312965291e-22
-1.724845836e-22
-7.05422933e-22
-1.958564351e-22
-6.7806889e-22
-2.145147635e-22
-6.499672364e-22
-2.287791077e-22
-2.390767617e-22
-3.354525617e-11
-5.082786814e-13
-3.369007449e-11
-5.720564347e-13
-3.383972579e-11
-6.944151863e-13
-3.399521289e-11
-8.712251152e-13
-3.415662588e-11
-1.10493711e-12
-3.432312222e-11
-1.399623229e-12
-3.449289988e-11
-1.759793041e-12
-3.466317853e-11
-2.190352772e-12
-3.483017801e-11
-2.696486711e-12
-3.498908642e-11
-3.283487143e-12
-3.513401348e-11
-3.956591207e-12
-3.525792586e-11
-4.720812587e-12
-3.535256281e-11
-5.58074821e-12
-3.540833346e-11
-6.540340479e-12
-3.541420405e-11
-7.602569143e-12
-3.535759533e-11
-8.769037548e-12
-3.522433017e-11
-1.00394103e-11
-3.499869668e-11
-1.141066154e-11
-3.466371665e-11
-1.287612087e-11
-3.420170776e-11
-1.442438272e-11
-3.359516798e-11
-1.603828737e-11
-3.282789313e-11
-1.769430769e-11
-3.188611226e-11
-1.936269648e-11
-3.075901716e-11
-2.100905964e-11
-2.943763282e-11
-2.259764422e-11
-2.791252653e-11
-2.409305726e-11
-2.61736216e-11
-2.545558602e-11
-2.421373662e-11
-2.663356547e-11
-2.20342975e-11
-2.755929298e-11
-1.964909465e-11
-2.815305009e-11
-1.708752027e-11
-2.832639985e-11
-1.439778722e-11
-2.79857052e-11
-1.164904241e-11
-2.703831883e-11
-8.931653e-12
-2.540080997e-11
-6.355497321e-12
-2.300819357e-11
-4.045674163e-12
-1.982480503e-11
-2.13470319e-12
-1.585729392e-11
-7.514218308e-13
-1.11654718e-11
-9.543477913e-15