/*--------------------------------*- C++ -*----------------------------------*\
  =========                 |
  \\      /  F ield         | OpenFOAM: The Open Source CFD Toolbox
   \\    /   O peration     | Website:  https://openfoam.org
    \\  /    A nd           | Version:  10
     \\/     M anipulation  |
\*---------------------------------------------------------------------------*/
FoamFile
{
    format      ascii;
    class       volScalarField;
    location    "0.0002";
    object      pVap;
}
// * * * * * * * * * * * * * * * * * * * * * * * * * * * * * * * * * * * * * //

dimensions      [1 -1 -2 0 0 0 0];

internalField   nonuniform List<scalar> 
3600
(
2.654351278e-63
2.7470196e-63
2.927454383e-63
3.200526667e-63
3.579573345e-63
4.086650067e-63
4.753909353e-63
5.625952408e-63
6.763113365e-63
8.245620919e-63
1.017843271e-62
1.269619928e-62
1.59672087e-62
2.0194217e-62
2.560878244e-62
3.24542898e-62
4.095184922e-62
5.124380796e-62
6.331337641e-62
7.6887486e-62
9.134374201e-62
1.056580856e-61
1.184394714e-61
1.280898229e-61
1.330927683e-61
1.323770537e-61
1.256435561e-61
1.13525034e-61
9.749178589e-62
7.95151888e-62
6.160561262e-62
4.539122923e-62
3.187165517e-62
2.138971631e-62
1.377256937e-62
8.546520234e-63
5.137479049e-63
3.008468267e-63
1.726744737e-63
9.778550598e-64
9.772581139e-64
9.766999003e-64
9.758827255e-64
9.748151851e-64
9.735131394e-64
9.719987449e-64
9.702992664e-64
9.684457518e-64
9.664716559e-64
9.644114873e-64
9.622995477e-64
9.601688142e-64
9.580500029e-64
9.559708338e-64
9.539555056e-64
9.520243713e-64
9.501938031e-64
9.484762197e-64
9.468802523e-64
9.454110182e-64
2.771466147e-63
2.873735717e-63
3.073470494e-63
3.377227729e-63
3.801642397e-63
4.374054423e-63
5.134603589e-63
6.139705814e-63
7.466986943e-63
9.221769675e-63
1.15450567e-62
1.462253492e-62
1.869329004e-62
2.405548765e-62
3.106412171e-62
4.011318744e-62
5.159202823e-62
6.580488445e-62
8.284682953e-62
1.024419626e-61
1.237730236e-61
1.453619502e-61
1.650849582e-61
1.804007693e-61
1.888153276e-61
1.885016966e-61
1.788809242e-61
1.609212125e-61
1.369873818e-61
1.102579655e-61
8.39263058e-62
6.049292939e-62
4.138528805e-62
2.69632085e-62
1.680051771e-62
1.006184376e-62
5.824908183e-63
3.279631526e-63
1.807704962e-63
9.822200718e-64
9.815766287e-64
9.80958039e-64
9.800438972e-64
9.788445135e-64
9.773785032e-64
9.756716385e-64
9.737554542e-64
9.716657021e-64
9.694407554e-64
9.671200506e-64
9.647426446e-64
9.623459481e-64
9.599646742e-64
9.576300242e-64
9.553691172e-64
9.532046511e-64
9.51154777e-64
9.492331573e-64
9.474491761e-64
9.45808268e-64
3.025712173e-63
3.149544408e-63
3.392867588e-63
3.766527111e-63
4.295466083e-63
5.020486528e-63
6.002463159e-63
7.329208986e-63
9.125557067e-63
1.156743392e-62
1.490068819e-62
1.94649836e-62
2.572175251e-62
3.42823979e-62
4.592784031e-62
6.160257393e-62
8.235619731e-62
1.091962533e-61
1.428161668e-61
1.831843172e-61
2.290388224e-61
2.774292238e-61
3.235506753e-61
3.611543875e-61
3.836962379e-61
3.860668028e-61
3.663416727e-61
3.267635311e-61
2.733680003e-61
2.142846119e-61
1.574266874e-61
1.085653578e-61
7.048062101e-62
4.324936751e-62
2.521483438e-62
1.405149598e-62
7.535232712e-63
3.916435327e-63
1.987589457e-63
9.923781674e-64
9.916374528e-64
9.908900073e-64
9.897680757e-64
9.882858095e-64
9.864679237e-64
9.843481514e-64
9.819673866e-64
9.793716501e-64
9.766100075e-64
9.737325606e-64
9.70788611e-64
9.678250725e-64
9.648851785e-64
9.620075072e-64
9.59225324e-64
9.565662214e-64
9.540520253e-64
9.516989269e-64
9.495177972e-64
9.475146381e-64
3.457941775e-63
3.620796862e-63
3.943740181e-63
4.446941023e-63
5.173287582e-63
6.193253834e-63
7.61486156e-63
9.600073153e-63
1.239013326e-62
1.63436332e-62
2.199233608e-62
3.012060719e-62
4.187344575e-62
5.889316552e-62
8.347149543e-62
1.186763539e-61
1.683654164e-61
2.369338167e-61
3.285835854e-61
4.459075766e-61
5.877498552e-61
7.467294381e-61
9.074539829e-61
1.046974083e-60
1.138817772e-60
1.16049116e-60
1.101971934e-60
9.709955283e-61
7.916744166e-61
5.964542641e-61
4.153619942e-61
2.678760947e-61
1.605646091e-61
8.990752237e-62
4.733539316e-62
2.361074824e-62
1.12509412e-62
5.166707297e-63
2.306654443e-63
1.009622966e-63
1.008725684e-63
1.007763855e-63
1.006293925e-63
1.004336941e-63
1.001928396e-63
9.991159635e-64
9.959568106e-64
9.925146919e-64
9.888570086e-64
9.850520152e-64
9.811663104e-64
9.772627138e-64
9.733985851e-64
9.696246039e-64
9.659839971e-64
9.625121739e-64
9.592367164e-64
9.561776608e-64
9.533480061e-64
9.507543857e-64
4.143853894e-63
4.37412782e-63
4.836417013e-63
5.570933876e-63
6.659219298e-63
8.237641465e-63
1.052353562e-62
1.38598282e-62
1.878878423e-62
2.617245476e-62
3.738747187e-62
5.463538704e-62
8.142489861e-62
1.2329135e-61
1.888015512e-61
2.908060726e-61
4.476765849e-61
6.838220792e-61
1.028104764e-60
1.508118587e-60
2.138390986e-60
2.902659826e-60
3.735372321e-60
4.514068197e-60
5.076934194e-60
5.271236511e-60
5.017530191e-60
4.354682164e-60
3.433000325e-60
2.453744772e-60
1.590369038e-60
9.368616445e-61
5.038216558e-61
2.489361362e-61
1.139369865e-61
4.877245159e-62
1.973258481e-62
7.627896808e-63
2.847219241e-63
1.036154317e-63
1.035026254e-63
1.033734206e-63
1.031723772e-63
1.029027722e-63
1.025699519e-63
1.021809823e-63
1.017442381e-63
1.01268964e-63
1.007648375e-63
1.002415615e-63
9.970850576e-64
9.917441302e-64
9.864717419e-64
9.813367441e-64
9.763970478e-64
9.716993246e-64
9.672791934e-64
9.631617901e-64
9.593626219e-64
9.558886111e-64
5.217669752e-63
5.564953205e-63
6.2731204e-63
7.426446603e-63
9.192626727e-63
1.186112326e-62
1.591754047e-62
2.217820349e-62
3.203117442e-62
4.786869199e-62
7.38644476e-62
1.173664364e-61
1.913655766e-61
3.187737094e-61
5.395529736e-61
9.218528724e-61
1.577603688e-60
2.680211359e-60
4.475314483e-60
7.264248929e-60
1.132842124e-59
1.676669488e-59
2.326209327e-59
2.988831776e-59
3.515749833e-59
3.746931721e-59
3.585812319e-59
3.059514065e-59
2.315715057e-59
1.550678408e-59
9.185493882e-60
4.825314388e-60
2.259755739e-60
9.508476592e-61
3.631523608e-61
1.274149589e-61
4.161462396e-62
1.282465969e-62
3.777548514e-63
1.075465976e-63
1.07400836e-63
1.072219086e-63
1.069387211e-63
1.065565324e-63
1.060836661e-63
1.055309461e-63
1.049110427e-63
1.042377814e-63
1.035254699e-63
1.02788282e-63
1.020397341e-63
1.012922692e-63
1.005569568e-63
9.984330291e-64
9.915916062e-64
9.851072477e-64
9.790259374e-64
9.733788122e-64
9.681836213e-64
9.634463907e-64
6.91852887e-63
7.474197598e-63
8.629209636e-63
1.056802351e-62
1.365947879e-62
1.856976791e-62
2.648984573e-62
3.957920471e-62
6.183802027e-62
1.008451881e-61
1.712657917e-61
3.019858986e-61
5.506390061e-61
1.032920884e-60
1.980446573e-60
3.85035058e-60
7.519070916e-60
1.458751505e-59
2.776850618e-59
5.115927965e-59
8.988798761e-59
1.483200866e-58
2.262748846e-58
3.143019549e-58
3.917591983e-58
4.324317337e-58
4.179175008e-58
3.503842813e-58
2.531554672e-58
1.570171093e-58
8.353640841e-59
3.821504594e-59
1.511965496e-59
5.221111292e-60
1.592930449e-60
4.357496917e-61
1.086388444e-61
2.510270616e-62
5.460813547e-63
1.133042706e-63
1.131116389e-63
1.128576135e-63
1.12449172e-63
1.118949818e-63
1.112083808e-63
1.104064307e-63
1.095088319e-63
1.08536798e-63
1.075119825e-63
1.064555264e-63
1.053872773e-63
1.043252006e-63
1.032849862e-63
1.022798328e-63
1.013203879e-63
1.004148083e-63
9.956891298e-64
9.878639827e-64
9.806908959e-64
9.741721058e-64
9.682723289e-63
1.06231754e-62
1.262337771e-62
1.610462081e-62
2.193017473e-62
3.175309665e-62
4.876115951e-62
7.926787114e-62
1.361862853e-61
2.468105755e-61
4.706651311e-61
9.412410597e-61
1.964828096e-60
4.255377688e-60
9.487804252e-60
2.156914015e-59
4.942280859e-59
1.126151357e-58
2.512966119e-58
5.399196194e-58
1.096689343e-57
2.066009388e-57
3.54017511e-57
5.413266467e-57
7.254018916e-57
8.380091609e-57
8.228038777e-57
6.787172437e-57
4.663028759e-57
2.653764912e-57
1.248545567e-57
4.864719364e-58
1.578823195e-58
4.310677966e-59
1.004027493e-59
2.029896157e-60
3.633153698e-61
5.875265797e-62
8.748387706e-63
1.217633487e-63
1.215031202e-63
1.211334691e-63
1.205303943e-63
1.197086076e-63
1.186901568e-63
1.175027636e-63
1.161779473e-63
1.14749122e-63
1.132498291e-63
1.117122302e-63
1.101659289e-63
1.086371478e-63
1.071482418e-63
1.057175066e-63
1.043592235e-63
1.030838809e-63
1.018985132e-63
1.008071097e-63
9.981105243e-64
9.8909556e-64
1.433207391e-62
1.601321684e-62
1.968661726e-62
2.635759818e-62
3.817248513e-62
5.954335605e-62
9.976027497e-62
1.791798181e-61
3.444253726e-61
7.071646782e-61
1.546640627e-60
3.589450618e-60
8.792388775e-60
2.256853044e-59
6.014320563e-59
1.644874629e-58
4.552759046e-58
1.254570769e-57
3.378109215e-57
8.705490023e-57
2.099500073e-56
4.628390803e-56
9.106764724e-56
1.56224894e-55
2.285608687e-55
2.795478435e-55
2.809508592e-55
2.287557832e-55
1.492558842e-55
7.745017105e-56
3.183715882e-56
1.036850723e-56
2.687827488e-57
5.60009514e-58
9.517502009e-59
1.345316177e-59
1.618134666e-60
1.696524817e-61
1.585565345e-62
1.343669199e-63
1.34006384e-63
1.334528772e-63
1.325377054e-63
1.312867592e-63
1.29737864e-63
1.279377093e-63
1.259384466e-63
1.237943295e-63
1.21558706e-63
1.192815757e-63
1.170078111e-63
1.147760467e-63
1.126181687e-63
1.105592937e-63
1.086181089e-63
1.06807455e-63
1.051350441e-63
1.036042312e-63
1.022147813e-63
1.0096359e-63
2.247070755e-62
2.564241112e-62
3.279297764e-62
4.643326457e-62
7.222968476e-62
1.228369815e-61
2.277030622e-61
4.591631145e-61
1.005477106e-60
2.386037279e-60
6.117561289e-60
1.687174846e-59
4.973977793e-59
1.55424933e-58
5.091117885e-58
1.724135802e-57
5.93625394e-57
2.037372947e-56
6.814773661e-56
2.16651017e-55
6.37115188e-55
1.684475438e-54
3.890142124e-54
7.6292459e-54
1.237557912e-53
1.621762578e-53
1.68265422e-53
1.359460503e-53
8.439639043e-54
3.985250968e-54
1.421630376e-54
3.819743285e-55
7.744678243e-56
1.193983473e-56
1.419319135e-57
1.327380401e-58
1.001435729e-59
6.263751547e-61
3.332281537e-62
1.536102175e-63
1.530944225e-63
1.52235189e-63
1.507972696e-63
1.488283613e-63
1.463964311e-63
1.435836842e-63
1.404800401e-63
1.371769071e-63
1.337618683e-63
1.303146439e-63
1.269044425e-63
1.235886174e-63
1.20412408e-63
1.17409493e-63
1.146030779e-63
1.120072745e-63
1.096285853e-63
1.074673571e-63
1.055191235e-63
1.03775789e-63
3.7347264e-62
4.365808486e-62
5.840315078e-62
8.815398893e-62
1.48789792e-61
2.792809943e-61
5.810587544e-61
1.337182986e-60
3.397538116e-60
9.509393695e-60
2.922012082e-59
9.806957335e-59
3.568793234e-58
1.394079748e-57
5.769630822e-57
2.48867298e-56
1.096709188e-55
4.823157662e-55
2.06076886e-54
8.302397391e-54
3.053528865e-53
9.910059982e-53
2.742135132e-52
6.2566331e-52
1.14142415e-51
1.620706935e-51
1.751222367e-51
1.413681047e-51
8.395836983e-52
3.620596318e-52
1.121341306e-52
2.474395401e-53
3.876624636e-54
4.323888324e-55
3.469106993e-56
2.039166334e-57
9.006362119e-59
3.077118403e-60
8.360671266e-62
1.840736842e-63
1.833036553e-63
1.819055308e-63
1.795408166e-63
1.76302647e-63
1.723204512e-63
1.677472089e-63
1.627460899e-63
1.574782617e-63
1.520931193e-63
1.467215422e-63
1.41472184e-63
1.36430385e-63
1.316590706e-63
1.272009573e-63
1.230814585e-63
1.193118156e-63
1.158921274e-63
1.128140812e-63
1.100632922e-63
1.076212305e-63
6.5784895e-62
7.901112588e-62
1.111824973e-61
1.803246858e-61
3.336161135e-61
6.996837463e-61
1.657427649e-60
4.42432648e-60
1.328241586e-59
4.473110865e-59
1.683208664e-58
7.034970022e-58
3.237627926e-57
1.621421512e-56
8.701029094e-56
4.907453397e-55
2.84173544e-54
1.643603455e-53
9.200642716e-53
4.812890985e-52
2.26483188e-51
9.211553934e-51
3.109561836e-50
8.378332006e-50
1.739141017e-49
2.69967029e-49
3.061058782e-49
2.488325246e-49
1.426549469e-49
5.674906387e-50
1.54079584e-50
2.811021742e-51
3.403857318e-52
2.719024607e-53
1.436551894e-54
5.083600552e-56
1.231625021e-57
2.100489801e-59
2.590733712e-61
2.348035071e-63
2.335861494e-63
2.311653163e-63
2.270344037e-63
2.213892031e-63
2.144948086e-63
2.06656254e-63
1.981889547e-63
1.893932775e-63
1.805358845e-63
1.71838666e-63
1.634746069e-63
1.555690555e-63
1.482045717e-63
1.414276672e-63
1.352561138e-63
1.296859232e-63
1.246974853e-63
1.20260652e-63
1.163387478e-63
1.128916056e-63
1.226178772e-61
1.517496339e-61
2.258484009e-61
3.966607302e-61
8.124107905e-61
1.926643834e-60
5.268757558e-60
1.657186485e-59
5.981362458e-59
2.469923369e-58
1.161436982e-57
6.175213472e-57
3.674624614e-56
2.4134448e-55
1.718251869e-54
1.2965411e-53
1.009123051e-52
7.847621264e-52
5.879983089e-51
4.076143682e-50
2.501544139e-49
1.297229162e-48
5.421113221e-48
1.744281669e-47
4.150516233e-47
7.076743385e-47
8.457652891e-47
6.973952654e-47
3.90686676e-47
1.458656386e-47
3.543881516e-48
5.455765445e-49
5.187721102e-50
2.986245471e-51
1.029684236e-52
2.129383322e-54
2.675538547e-56
2.08624636e-58
1.031069833e-60
3.25320634e-63
3.232420803e-63
3.18692035e-63
3.108757337e-63
3.002450732e-63
2.873948486e-63
2.729877308e-63
2.576826773e-63
2.420780914e-63
2.266752744e-63
2.118621926e-63
1.97913815e-63
1.850036391e-63
1.732211183e-63
1.625907899e-63
1.53090307e-63
1.446658706e-63
1.37244516e-63
1.30743331e-63
1.250760015e-63
1.201572067e-63
2.411165301e-61
3.083095727e-61
4.877968087e-61
9.345365165e-61
2.13877346e-60
5.799919224e-60
1.854879277e-59
6.974739654e-59
3.075106115e-58
1.583828988e-57
9.475764248e-57
6.529510538e-56
5.119754129e-55
4.494082158e-54
4.324748081e-53
4.445923079e-52
4.733399264e-51
5.03366195e-50
5.130876782e-49
4.787583734e-48
3.888814693e-47
2.606028897e-46
1.36319423e-45
5.275007105e-45
1.441581194e-44
2.694192971e-44
3.388791255e-44
2.848092129e-44
1.582238438e-44
5.684185484e-45
1.27674879e-45
1.719436908e-46
1.328152715e-47
5.652451647e-49
1.285771566e-50
1.536396256e-52
9.606358914e-55
3.161663698e-57
5.51078935e-60
5.025425039e-63
4.986092632e-63
4.890822996e-63
4.726517575e-63
4.504912227e-63
4.240963787e-63
3.950680858e-63
3.649196744e-63
3.349405381e-63
3.061260753e-63
2.79166058e-63
2.544739286e-63
2.322379496e-63
2.124786131e-63
1.95102089e-63
1.799445199e-63
1.668056627e-63
1.554725819e-63
1.457351268e-63
1.373951721e-63
1.302714361e-63
4.978655754e-61
6.593293473e-61
1.114054151e-60
2.343517987e-60
6.043429888e-60
1.892865077e-59
7.161162601e-59
3.260426304e-58
1.780239353e-57
1.160307669e-56
8.964478135e-56
8.125891585e-55
8.518887029e-54
1.013469348e-52
1.335681094e-51
1.893626525e-50
2.789019072e-49
4.09883091e-48
5.741769003e-47
7.284836435e-46
7.913183411e-45
6.923354895e-44
4.572642786e-43
2.136272535e-42
6.674517925e-42
1.350697198e-41
1.767349208e-41
1.513573508e-41
8.47892295e-42
3.029738164e-42
6.585939846e-43
8.178642865e-44
5.411209818e-45
1.783669851e-46
2.76665361e-48
1.932189974e-50
5.889255365e-53
7.664406395e-56
4.158755623e-59
8.951906213e-63
8.866619311e-63
8.636859406e-63
8.240436207e-63
7.712721518e-63
7.097084585e-63
6.437614937e-63
5.773264864e-63
5.134381586e-63
4.541648998e-63
4.006832919e-63
3.534522171e-63
3.12416659e-63
2.771954789e-63
2.472313137e-63
2.218978875e-63
2.005695559e-63
1.826615926e-63
1.676499265e-63
1.550776159e-63
1.445534878e-63
1.072552333e-60
1.474014972e-60
2.670073596e-60
6.201412535e-60
1.814747766e-59
6.620307131e-59
2.991216705e-58
1.666208122e-57
1.139092313e-56
9.500355518e-56
9.582774166e-55
1.15453815e-53
1.633536297e-52
2.655230689e-51
4.824480589e-50
9.482026479e-49
1.939843716e-47
3.953146625e-46
7.636571473e-45
1.323212069e-43
1.934303125e-42
2.2286913e-41
1.876342064e-40
1.063098215e-39
3.756699826e-39
8.005072857e-39
1.058841887e-38
9.164998338e-39
5.277659258e-39
1.957782906e-39
4.372835336e-40
5.368006178e-41
3.266713345e-42
8.90992558e-44
9.960368741e-46
4.217752536e-48
6.30250752e-51
3.107240372e-54
4.682938113e-58
1.919551221e-62
1.897437191e-62
1.830840924e-62
1.716406344e-62
1.566998083e-62
1.397641278e-62
1.222602294e-62
1.053351933e-62
8.976976265e-63
7.599011687e-63
6.413780805e-63
5.415866313e-63
4.588445287e-63
3.909538853e-63
3.356166658e-63
2.906748749e-63
2.542253957e-63
2.246554254e-63
2.006332871e-63
1.810778467e-63
1.651205459e-63
2.391107764e-60
3.415124816e-60
6.65116072e-60
1.7127762e-59
5.718473412e-59
2.445343027e-58
1.328947639e-57
9.125548085e-57
7.870820505e-56
8.461273174e-55
1.121450527e-53
1.805134936e-52
3.459038675e-51
7.693885767e-50
1.926367126e-48
5.236379702e-47
1.482483681e-45
4.171303408e-44
1.107099094e-42
2.615681877e-41
5.159034067e-40
7.900242136e-39
8.619097392e-38
6.011989334e-37
2.370436037e-36
5.033780047e-36
6.345027773e-36
5.451420739e-36
3.310872736e-36
1.347938896e-36
3.336024286e-37
4.411952936e-38
2.692553574e-39
6.588493503e-41
5.716652588e-43
1.561795782e-45
1.186567455e-48
2.189398974e-52
8.349091802e-57
5.230764132e-62
5.158411711e-62
4.91363315e-62
4.497192863e-62
3.968378941e-62
3.392181173e-62
2.824782991e-62
2.305485865e-62
1.85545415e-62
1.480995961e-62
1.17854103e-62
9.392866266e-63
7.526015917e-63
6.080921333e-63
4.966184671e-63
4.106323323e-63
3.441416167e-63
2.925079619e-63
2.521964312e-63
2.205366061e-63
1.95518945e-63
5.462545853e-60
8.114789116e-60
1.702134536e-59
4.872880263e-59
1.862565638e-58
9.373923786e-58
6.154319222e-57
5.232196162e-56
5.715707607e-55
7.943613762e-54
1.385599238e-52
2.978738821e-51
7.709856615e-50
2.334394992e-48
7.991098783e-47
2.974027823e-45
1.151645254e-43
4.41999259e-42
1.593847879e-40
5.092833858e-39
1.352494084e-37
2.780337273e-36
4.056854168e-35
3.662373534e-34
1.607818953e-33
3.04403434e-33
3.247898232e-33
2.705706963e-33
1.811261172e-33
8.708456165e-34
2.620163212e-34
4.135223072e-35
2.786931709e-36
6.665528618e-38
4.888346523e-40
9.379564337e-43
3.887204919e-46
2.758476032e-50
2.506535715e-55
1.937793289e-61
1.905857981e-61
1.783895871e-61
1.580030303e-61
1.331050152e-61
1.073979804e-61
8.36798694e-62
6.350763934e-62
4.73495209e-62
3.495801418e-62
2.57394481e-62
1.901536259e-62
1.416517711e-62
1.068188518e-62
8.178030489e-63
6.369520657e-63
5.053266465e-63
4.08616935e-63
3.368080105e-63
2.828993321e-63
2.419836931e-63
1.264016776e-59
1.953562461e-59
4.416038296e-59
1.406730412e-58
6.163392642e-58
3.656037037e-57
2.903663879e-56
3.059111721e-55
4.232633344e-54
7.594284099e-53
1.737538047e-51
4.959940975e-50
1.719015033e-48
7.001527854e-47
3.228120503e-45
1.61601687e-43
8.393982761e-42
4.307744089e-40
2.071530801e-38
8.812208952e-37
3.11762091e-35
8.622119474e-34
1.759612425e-32
2.312926494e-31
1.075588708e-30
1.573881049e-30
1.149119821e-30
9.336734421e-31
7.549466084e-31
4.704807909e-31
1.922564557e-31
4.08685317e-32
3.357712719e-33
8.43925754e-35
5.693907005e-37
8.511252353e-40
2.14095875e-43
6.300025364e-48
1.347042222e-53
1.059949427e-60
1.039313106e-60
9.499235611e-61
8.045906368e-61
6.364125378e-61
4.749750213e-61
3.384679949e-61
2.331408388e-61
1.570848405e-61
1.046618165e-61
6.961577772e-62
4.659636126e-62
3.158665932e-62
2.179223759e-62
1.535683943e-62
1.108022931e-62
8.19699229e-63
6.221194854e-63
4.843663467e-63
3.866319479e-63
3.160949801e-63
2.922365319e-59
4.696037523e-59
1.143268856e-58
4.05065387e-58
2.033205302e-57
1.419814248e-56
1.361686875e-55
1.773196459e-54
3.095542299e-53
7.130202868e-52
2.122887853e-50
7.96003764e-49
3.642061228e-47
1.960159049e-45
1.191295648e-43
7.825656327e-42
5.307980874e-40
3.545113591e-38
2.216971234e-36
1.22739085e-34
5.643122651e-33
2.023830966e-31
4.775476871e-30
2.56725597e-29
6.416182012e-29
1.218333786e-28
1.544343878e-28
1.834235124e-28
2.176132534e-28
1.922524458e-28
1.211790915e-28
4.002406487e-29
4.413399162e-30
1.204763081e-31
8.028198295e-34
1.054569842e-36
1.863874177e-40
2.594083104e-45
1.372220608e-51
9.451638372e-60
9.236309695e-60
8.173250087e-60
6.51446114e-60
4.731544981e-60
3.179957423e-60
2.011759067e-60
1.219000642e-60
7.191561347e-61
4.191833191e-61
2.444535204e-61
1.441034526e-61
8.656881626e-62
5.332166855e-62
3.381978274e-62
2.214965837e-62
1.500176644e-62
1.051228403e-62
7.618607453e-63
5.704913393e-63
4.407429581e-63
6.656849246e-59
1.110552407e-58
2.904840358e-58
1.14133941e-57
6.542913909e-57
5.362600083e-56
6.18565842e-55
9.898223497e-54
2.164142276e-52
6.339385026e-51
2.426976622e-49
1.177521767e-47
6.981031825e-46
4.853008232e-44
3.784069094e-42
3.162007595e-40
2.707280502e-38
2.274654667e-36
1.796022844e-34
1.265680676e-32
7.365403941e-31
2.677159149e-29
1.667153928e-28
4.572789134e-28
1.066401687e-27
2.451202894e-27
6.431135809e-27
2.139833857e-26
4.423394721e-26
5.309752548e-26
4.364172572e-26
1.672215331e-26
2.810716262e-27
1.469308635e-28
1.170705195e-30
1.561140547e-33
2.346864168e-37
1.874865163e-42
2.784045823e-49
1.542791013e-58
1.502102237e-58
1.271962417e-58
9.334181417e-59
6.043099349e-59
3.531153875e-59
1.908831672e-59
9.780226538e-60
4.856691409e-60
2.383364811e-60
1.174792317e-60
5.892830638e-61
3.038418059e-61
1.622308869e-61
9.015189283e-62
5.230176336e-62
3.172547132e-62
2.01254135e-62
1.334100638e-62
9.227290605e-63
6.645040679e-63
1.472492805e-58
2.544340354e-58
7.122347701e-58
3.087846023e-57
2.009811219e-56
1.920497763e-55
2.646065107e-54
5.165963864e-53
1.400798124e-51
5.1529875e-50
2.49895945e-48
1.540729976e-46
1.15813483e-44
1.013175857e-42
9.825636855e-41
1.006912916e-38
1.04394589e-36
1.056688418e-34
1.016712123e-32
9.027685835e-31
5.736816932e-29
5.443075195e-28
1.85645636e-27
5.080735881e-27
1.337388327e-26
4.675594258e-26
3.794023415e-25
2.760518266e-24
7.701407234e-24
9.866819742e-24
6.652740555e-24
2.533832369e-24
5.136074707e-25
5.031086726e-26
1.211880612e-27
2.361268809e-30
3.841763398e-34
2.271838997e-39
1.167889701e-46
5.259306253e-57
5.100686373e-57
4.066480543e-57
2.666800423e-57
1.479327715e-57
7.181435427e-58
3.16059878e-58
1.303930119e-58
5.194869527e-59
2.049670011e-59
8.175520907e-60
3.350294368e-60
1.42780653e-60
6.383391606e-61
3.011147097e-61
1.503697874e-61
7.960428355e-62
4.466702126e-62
2.652911544e-62
1.664057597e-62
1.099186455e-62
3.117192504e-58
5.561032362e-58
1.656998862e-57
7.871425013e-57
5.769187099e-56
6.367625248e-55
1.037075236e-53
2.442167799e-52
8.121844724e-51
3.705951021e-49
2.238788308e-47
1.71985345e-45
1.601978958e-43
1.71662885e-41
2.004145048e-39
2.419497701e-37
2.888449388e-35
3.312964574e-33
3.651448943e-31
3.831806754e-29
9.163541988e-28
4.82535772e-27
1.714359816e-26
5.450185319e-26
2.82490748e-25
3.852204126e-24
6.405093059e-23
4.476462688e-22
1.340724729e-21
1.727015354e-21
8.710875424e-22
2.954411141e-22
6.445910688e-23
7.144803723e-24
3.367389749e-25
2.636145102e-27
7.380255283e-31
4.355811386e-36
1.032874413e-43
4.330201478e-55
4.182933163e-55
3.066924778e-55
1.724341799e-55
7.774903695e-56
2.95841803e-56
9.986063294e-57
3.127909508e-57
9.448810856e-58
2.841436467e-58
8.723490935e-59
2.787706676e-59
9.40614769e-60
3.384659745e-60
1.307167703e-60
5.437088798e-61
2.438433826e-61
1.178312209e-61
6.122130883e-62
3.409384808e-62
2.027216379e-62
6.226808313e-58
1.142373833e-57
3.598656837e-57
1.856585426e-56
1.516346757e-55
1.910625926e-54
3.631467504e-53
1.017275439e-51
4.087291817e-50
2.277880903e-48
1.68994494e-46
1.589220887e-44
1.794682305e-42
2.297779741e-40
3.134854543e-38
4.290209206e-36
5.581767008e-34
6.64672265e-32
7.230803164e-30
5.854724753e-28
7.317310168e-27
4.009332738e-26
1.715478204e-25
1.338103299e-24
3.971704407e-23
8.641809612e-22
1.087040882e-20
7.074207153e-20
2.292734103e-19
3.520211193e-19
2.230519187e-19
6.665015667e-20
1.077742181e-20
9.282023265e-22
4.31329129e-23
6.133140605e-25
8.758730886e-28
1.238183979e-32
1.902500899e-40
1.0066911e-52
9.687200053e-53
6.300858875e-53
2.860931381e-53
9.768329165e-54
2.707116743e-54
6.523962235e-55
1.449644743e-55
3.115951237e-56
6.731447381e-57
1.505613229e-57
3.565531708e-58
9.086198593e-59
2.519438348e-59
7.653848778e-60
2.556366934e-60
9.39435848e-61
3.793348145e-61
1.678018544e-61
8.097961338e-62
4.242075352e-62
1.158301353e-57
2.175176437e-57
7.186004793e-57
3.983899088e-56
3.581003066e-55
5.080103367e-54
1.110084825e-52
3.641130891e-51
1.738526129e-49
1.163397177e-47
1.041694711e-45
1.181335927e-43
1.594222697e-41
2.392751562e-39
3.736461735e-37
5.653904991e-35
7.726248619e-33
8.890201567e-31
7.992204365e-29
4.675368125e-27
5.69978216e-26
3.950556448e-25
4.04486286e-24
1.817746543e-22
5.86928753e-21
1.14528531e-19
1.319649355e-18
8.752514738e-18
3.260757368e-17
6.558796513e-17
6.593656984e-17
2.964709618e-17
4.999976568e-18
2.90827136e-19
6.798974257e-21
7.93615151e-23
1.807720373e-25
1.517700444e-29
6.723673799e-37
7.809002648e-50
7.489322918e-50
4.065179783e-50
1.36170147e-50
3.19808633e-51
5.894343064e-52
9.339222888e-53
1.366890027e-53
1.954768793e-54
2.852875846e-55
4.392384295e-56
7.312599608e-57
1.339954505e-57
2.734978208e-58
6.263527983e-59
1.61503169e-59
4.690322866e-60
1.531071818e-60
5.595788645e-61
2.277709058e-61
1.026066114e-61
1.982842327e-57
3.791522058e-57
1.301619036e-56
7.661278243e-56
7.47189239e-55
1.17473873e-53
2.902007339e-52
1.095285174e-50
6.105831536e-49
4.821102035e-47
5.122733311e-45
6.895838765e-43
1.098259504e-40
1.921037646e-38
3.411867842e-36
5.703163024e-34
8.278395711e-32
9.545629777e-30
7.817867874e-28
3.606103119e-26
6.556482807e-25
1.094627605e-23
4.607863413e-22
1.842402129e-20
5.110341692e-19
9.216059535e-18
1.051151614e-16
7.481494823e-16
3.281113165e-15
8.680863209e-15
1.268936695e-14
8.734971732e-15
2.404396035e-15
2.179150229e-16
3.899566479e-18
1.983222365e-20
2.882793623e-23
3.930580664e-27
1.52024699e-33
2.430366963e-46
2.329336516e-46
9.385830279e-47
2.008447887e-47
2.847943467e-48
3.132835806e-49
2.986296283e-50
2.6723587e-51
2.383470056e-52
2.217337677e-53
2.227238823e-54
2.478659145e-55
3.113556181e-56
4.470561062e-57
7.39340853e-58
1.413267689e-58
3.12285845e-59
7.956027541e-60
2.32591507e-60
7.753082872e-61
2.924508157e-61
3.09238703e-57
5.986742125e-57
2.114272031e-56
1.30368807e-55
1.35797901e-54
2.325298329e-53
6.375204945e-52
2.716864036e-50
1.735505022e-48
1.588171865e-46
1.970008399e-44
3.103846688e-42
5.772604067e-40
1.170790951e-37
2.384409542e-35
4.486165355e-33
7.202614843e-31
9.110975521e-29
8.333290207e-27
5.058604623e-25
2.047252058e-23
7.409206807e-22
2.906151482e-20
1.000552844e-18
2.560471254e-17
4.514256252e-16
5.333155356e-15
4.169277653e-14
2.136216318e-13
6.955553815e-13
1.303881542e-12
1.330589619e-12
6.442889468e-13
1.068257727e-13
4.747824358e-15
2.720284988e-17
1.468607796e-20
5.124987922e-25
5.182996136e-31
3.881562311e-42
3.667437778e-42
8.53049947e-43
9.245384369e-44
6.681967595e-45
3.898392455e-46
2.05463058e-47
1.054215791e-48
5.561790728e-50
3.146846002e-51
1.973294805e-52
1.406571971e-53
1.161338797e-54
1.12535813e-55
1.290372762e-56
1.757645262e-57
2.844812434e-58
5.455989685e-59
1.233402093e-59
3.262969417e-60
1.001443707e-60
4.359083424e-57
8.492567603e-57
3.052352799e-56
1.943583649e-55
2.125780895e-54
3.890355957e-53
1.160398955e-51
5.471735589e-50
3.926491701e-48
4.087494048e-46
5.821869949e-44
1.059260232e-41
2.279612511e-39
5.343879421e-37
1.254066027e-34
2.711568353e-32
4.995299749e-30
7.328547983e-28
8.125453278e-26
6.601244405e-24
4.016659511e-22
2.003873917e-20
8.576571753e-19
2.946611312e-17
7.528670719e-16
1.364843233e-14
1.719437669e-13
1.488825601e-12
8.724701271e-12
3.288913121e-11
7.838237908e-11
1.139180093e-10
9.086624454e-11
3.053132239e-11
3.367158102e-12
6.971123378e-14
6.687406056e-17
2.381086448e-22
2.988334698e-29
1.779646409e-36
3.924648535e-37
2.98004057e-38
1.16564267e-39
3.56173775e-41
9.940943865e-43
2.728586695e-44
7.722727635e-46
2.340085468e-47
7.840671849e-49
2.987181912e-50
1.324684928e-51
6.966352424e-53
4.405323498e-54
3.381264902e-55
3.16594319e-56
3.620428914e-57
5.045199438e-58
8.523591201e-59
1.732680149e-59
4.198305338e-60
5.523409129e-57
1.076211183e-56
3.892723702e-56
2.521289531e-55
2.843857518e-54
5.451910725e-53
1.731929779e-51
8.842898275e-50
6.979355475e-48
8.103531757e-46
1.302414577e-43
2.698087592e-41
6.652888349e-39
1.794244773e-36
4.859118141e-34
1.217357887e-31
2.619304736e-29
4.547242161e-27
6.099596029e-25
6.21101212e-23
4.821979821e-21
2.920922441e-19
1.388695228e-17
5.039805288e-16
1.348446434e-14
2.595955023e-13
3.550098004e-12
3.41863556e-11
2.283710003e-10
1.022101506e-09
3.040610893e-09
6.067518811e-09
7.46630817e-09
5.040988426e-09
1.360939154e-09
9.9960868e-11
5.695368114e-13
3.962034347e-18
5.443025894e-28
1.617974623e-28
2.242677899e-31
2.627578525e-33
2.758991142e-35
3.182602189e-37
4.096588876e-39
5.822741937e-41
9.135371934e-43
1.599293885e-44
3.180506758e-46
7.336440293e-48
2.004080296e-49
6.605289871e-51
2.667417501e-52
1.335031068e-53
8.342184424e-55
6.529380894e-56
6.397607765e-57
7.815644174e-58
1.182129027e-58
2.192799175e-59
6.273444124e-57
1.214891495e-56
4.372357241e-56
2.836290677e-55
3.238001191e-54
6.367209167e-53
2.106338731e-51
1.137993662e-49
9.657757762e-48
1.22434622e-45
2.178730275e-43
5.058206687e-41
1.412010181e-38
4.34745723e-36
1.353959102e-33
3.929441345e-31
9.87894534e-29
2.026047579e-26
3.243030957e-24
3.953973909e-22
3.654181439e-20
2.557603899e-18
1.349264959e-16
5.291319915e-15
1.51907993e-13
3.160096438e-12
4.739906118e-11
5.108353973e-10
3.92872537e-09
2.125627541e-08
8.013417335e-08
2.138335934e-07
3.994725526e-07
4.788572097e-07
2.867427809e-07
7.05704705e-08
2.333628073e-09
1.049883276e-13
3.261612535e-19
2.006760731e-22
7.703587013e-26
1.913632344e-28
6.280748723e-31
3.048184602e-33
1.978805328e-35
1.569900573e-37
1.452176428e-39
1.542357071e-41
1.888070261e-43
2.70205596e-45
4.606686271e-47
9.541753699e-49
2.444853307e-50
7.86652161e-52
3.214097943e-53
1.67909434e-54
1.124474259e-55
9.638493266e-57
1.051845711e-57
1.448991892e-58
6.38709342e-57
1.221920212e-56
4.326720582e-56
2.767539305e-55
3.137413009e-54
6.191925295e-53
2.083419008e-51
1.162364335e-49
1.035291554e-47
1.400300478e-45
2.701522564e-43
6.902441696e-41
2.149497925e-38
7.471847461e-36
2.654869058e-33
8.87233003e-31
2.589948476e-28
6.211622347e-26
1.168291216e-23
1.668918742e-21
1.781162662e-19
1.412079296e-17
8.259523354e-16
3.538181548e-14
1.103768432e-12
2.503364961e-11
4.133547656e-10
4.98027544e-09
4.382941881e-08
2.816051626e-07
1.323132617e-06
4.580214336e-06
1.192063203e-05
2.235245465e-05
2.606558734e-05
1.908171101e-05
3.022152672e-06
4.021331341e-11
1.440892684e-12
2.24740897e-17
3.806988324e-21
4.137013972e-24
6.995357464e-27
1.972233755e-29
8.013277224e-32