/*--------------------------------*- C++ -*----------------------------------*\
  =========                 |
  \\      /  F ield         | OpenFOAM: The Open Source CFD Toolbox
   \\    /   O peration     | Website:  https://openfoam.org
    \\  /    A nd           | Version:  10
     \\/     M anipulation  |
\*---------------------------------------------------------------------------*/
FoamFile
{
    format      ascii;
    class       volScalarField;
    location    "0.0002";
    object      rhok;
}
// * * * * * * * * * * * * * * * * * * * * * * * * * * * * * * * * * * * * * //

dimensions      [0 0 0 0 0 0 0];

internalField   nonuniform List<scalar> 
3600
(
0.9849568527
0.9849537935
0.9849481191
0.984940157
0.9849301524
0.9849182934
0.9849047325
0.9848896023
0.9848730298
0.984855147
0.9848361
0.984816057
0.9847952144
0.9847738011
0.9847520822
0.9847303605
0.9847089759
0.9846883041
0.9846687517
0.9846507506
0.9846347493
0.9846212026
0.9846105596
0.9846032508
0.9845996732
0.9846001767
0.9846050507
0.9846145111
0.9846286908
0.9846476321
0.9846712823
0.984699493
0.9847320237
0.9847685481
0.9848086646
0.9848519086
0.9848977655
0.9849456828
0.9849950773
0.9850453336
1
1
1
1
1
1
1
1
1
1
1
1
1
1
1
1
1
1
1
1
0.9849530035
0.9849497715
0.9849437746
0.9849353552
0.9849247669
0.9849122024
0.9848978158
0.9848817401
0.9848641019
0.9848450333
0.9848246821
0.9848032199
0.9847808493
0.9847578094
0.9847343793
0.984710881
0.9846876787
0.9846651782
0.9846438214
0.984624081
0.9846064505
0.984591433
0.9845795281
0.9845712158
0.9845669411
0.984567097
0.9845720089
0.9845819198
0.9845969789
0.9846172326
0.9846426192
0.9846729686
0.9847080064
0.9847473618
0.9847905812
0.9848371432
0.9848864766
0.9849379758
0.984991013
0.9850449413
1
1
1
1
1
1
1
1
1
1
1
1
1
1
1
1
1
1
1
1
0.9849451727
0.9849415912
0.9849349422
0.9849255975
0.9849138278
0.9848998345
0.9848837748
0.9848657821
0.984845982
0.9848245065
0.9848015059
0.9847771584
0.9847516792
0.984725327
0.9846984095
0.9846712868
0.984644373
0.9846181342
0.9845930848
0.9845697803
0.9845488065
0.9845307658
0.9845162604
0.9845058734
0.9845001477
0.984499565
0.9845045252
0.9845153275
0.9845321553
0.9845550639
0.9845839747
0.984618674
0.9846588187
0.984703948
0.9847535016
0.9848068421
0.984863281
0.9849221037
0.9849825914
0.9850440349
1
1
1
1
1
1
1
1
1
1
1
1
1
1
1
1
1
1
1
1
0.9849332438
0.9849291282
0.9849214816
0.9849107206
0.9848971416
0.9848809584
0.9848623323
0.9848413959
0.9848182724
0.9847930926
0.9847660092
0.9847372095
0.9847069264
0.9846754477
0.9846431238
0.9846103733
0.9845776854
0.9845456199
0.9845148031
0.9844859195
0.9844596991
0.9844368996
0.9844182851
0.9844046005
0.9843965434
0.9843947358
0.9843996958
0.9844118122
0.9844313233
0.984458301
0.9844926421
0.9845340671
0.9845821274
0.9846362226
0.9846956255
0.9847595166
0.9848270222
0.9848972559
0.9849693561
0.9850425169
1
1
1
1
1
1
1
1
1
1
1
1
1
1
1
1
1
1
1
1
0.9849170481
0.9849122009
0.9849031881
0.984890486
0.9848744249
0.9848552344
0.9848330798
0.9848080906
0.9847803845
0.9847500885
0.9847173562
0.9846823848
0.984645429
0.9846068143
0.984566948
0.9845263271
0.9844855443
0.9844452886
0.9844063421
0.9843695703
0.9843359064
0.9843063286
0.9842818311
0.9842633898
0.9842519236
0.9842482554
0.9842530728
0.9842668941
0.9842900384
0.984322605
0.9843644601
0.9844152355
0.9844743377
0.9845409709
0.9846141734
0.9846928664
0.9847759122
0.984862178
0.9849505984
0.9850402308
1
1
1
1
1
1
1
1
1
1
1
1
1
1
1
1
1
1
1
1
0.9848963741
0.9848905826
0.9848798047
0.9848645931
0.9848453196
0.9848222321
0.984795498
0.98476524
0.9847315654
0.9846945921
0.9846544712
0.9846114084
0.9845656827
0.9845176646
0.9844678313
0.98441678
0.9843652359
0.9843140569
0.9842642304
0.9842168629
0.98417316
0.9841343971
0.9841018804
0.9840768995
0.9840606747
0.984054302
0.9840587007
0.984074566
0.9841023304
0.9841421352
0.9841938135
0.9842568857
0.9843305713
0.9844138182
0.9845053519
0.9846037439
0.9847074975
0.9848151429
0.984925336
0.9850369477
1
1
1
1
1
1
1
1
1
1
1
1
1
1
1
1
1
1
1
1
0.984870982
0.9848640148
0.9848510384
0.9848326976
0.9848094139
0.9847814541
0.9847489844
0.9847121145
0.9846709339
0.9846255435
0.9845760854
0.9845227695
0.984465899
0.9844058946
0.9843433161
0.9842788814
0.9842134805
0.9841481836
0.9840842397
0.984023066
0.9839662226
0.9839153747
0.9838722394
0.983838521
0.9838158376
0.983805646
0.98380917
0.9838273386
0.9838607368
0.9839095689
0.9839736362
0.984052329
0.984144638
0.9842491887
0.9843643052
0.9844881032
0.984618611
0.9847539096
0.9848922809
0.9850323473
1
1
1
1
1
1
1
1
1
1
1
1
1
1
1
1
1
1
1
1
0.9848406201
0.984832226
0.9848165793
0.9847944341
0.9847662679
0.9847323658
0.9846928878
0.9846479213
0.9845975269
0.9845417778
0.9844807966
0.9844147895
0.9843440803
0.984269142
0.9841906275
0.9841093961
0.9840265356
0.9839433759
0.9838614925
0.9837826942
0.9837089939
0.9836425586
0.9835856376
0.9835404737
0.9835092004
0.983493739
0.9834957026
0.9835163182
0.9835563678
0.9836161466
0.983695434
0.9837934796
0.9839090088
0.9840402591
0.984185056
0.9843409353
0.9845053094
0.9846756686
0.9848497985
0.9850259912
1
1
1
1
1
1
1
1
1
1
1
1
1
1
1
1
1
1
1
1
0.9848050445
0.9847949524
0.9847761251
0.9847494428
0.9847154447
0.9846744322
0.9846265503
0.9845718524
0.9845103557
0.98444209
0.9843671435
0.9842857065
0.9841981148
0.9841048919
0.9840067905
0.98390483
0.9838003294
0.9836949302
0.983590606
0.9834896525
0.9833946526
0.9833084119
0.9832338627
0.9831739389
0.9831314329
0.9831088512
0.983108289
0.9831313375
0.9831790224
0.9832517636
0.983349342
0.9834708734
0.9836147989
0.9837789108
0.983960436
0.9841561885
0.9843627939
0.984576972
0.9847958527
0.9850172877
1
1
1
1
1
1
1
1
1
1
1
1
1
1
1
1
1
1
1
1
0.9847640422
0.9847519621
0.9847294071
0.9846974002
0.9846565464
0.9846071588
0.9845493564
0.9844831427
0.9844084726
0.9843253124
0.9842336956
0.9841337781
0.9840258934
0.9839106076
0.9837887748
0.9836615892
0.9835306328
0.9833979121
0.9832658785
0.9831374239
0.9830158416
0.982904745
0.9828079376
0.9827292373
0.9826722704
0.9826402664
0.9826358943
0.9826611632
0.9827173798
0.9828051276
0.9829242345
0.9830737239
0.9832517684
0.9834556846
0.9836820073
0.983926672
0.9841853105
0.9844536441
0.9847279351
0.9850054445
1
1
1
1
1
1
1
1
1
1
1
1
1
1
1
1
1
1
1
1
0.9847174552
0.9847030813
0.9846762204
0.9846380532
0.9845892536
0.9845301389
0.9844607878
0.9843811343
0.9842910474
0.9841904038
0.9840791562
0.983957401
0.9838254472
0.9836838878
0.9835336719
0.983376176
0.9832132719
0.9830473833
0.9828815243
0.9827193067
0.9825649013
0.9824229394
0.9822983378
0.9821960481
0.98212075
0.982076548
0.9820667534
0.9820938047
0.9821592943
0.9822640086
0.9824079058
0.9825900207
0.9828083424
0.9830597338
0.9833399686
0.9836439359
0.9839660251
0.9843006664
0.9846429735
0.9849894063
1
1
1
1
1
1
1
1
1
1
1
1
1
1
1
1
1
1
1
1
0.9846652063
0.9846482224
0.9846164544
0.9845712554
0.9845133677
0.9844431036
0.9843604835
0.9842653475
0.9841574508
0.9840365489
0.9839024802
0.9837552482
0.9835951069
0.9834226499
0.9832389037
0.9830454233
0.9828443866
0.9826386799
0.9824319644
0.9822287068
0.9820341528
0.9818542142
0.9816952407
0.9815636574
0.9814654884
0.9814058753
0.9813887738
0.9814169554
0.9814922239
0.9816156028
0.9817873317
0.9820066755
0.9822716455
0.9825787688
0.9829230363
0.9832981184
0.9836968618
0.9841120311
0.9845372137
0.9849677738
1
1
1
1
1
1
1
1
1
1
1
1
1
1
1
1
1
1
1
1
0.9846073254
0.9845874112
0.9845501252
0.9844970034
0.9844288551
0.9843459741
0.9842483013
0.9841355554
0.9840073438
0.9838632637
0.9837029988
0.9835264181
0.9833336787
0.9831253359
0.9829024613
0.9826667675
0.9824207367
0.9821677466
0.981912179
0.981659494
0.9814162356
0.9811899256
0.9809887822
0.980821198
0.9806949674
0.9806164437
0.9805900684
0.9806186054
0.9807038304
0.980847033
0.9810490173
0.9813096999
0.9816275293
0.9819989699
0.9824182837
0.9828777463
0.983368297
0.9838805513
0.9844060663
0.9849386987
1
1
1
1
1
1
1
1
1
1
1
1
1
1
1
1
1
1
1
1
0.9845439738
0.9845208144
0.9844774052
0.9844154732
0.9843358891
0.9842389124
0.9841243801
0.9839918575
0.9838407668
0.9836705038
0.9834805504
0.9832705902
0.9830406307
0.9827911352
0.9825231688
0.9822385565
0.9819400554
0.9816315314
0.9813181324
0.9810064319
0.9807045085
0.9804218947
0.9801692823
0.979957807
0.9797977516
0.9796968991
0.9796596552
0.9796878917
0.9797828006
0.9799460003
0.9801794081
0.980484375
0.9808605459
0.9813048322
0.9818109124
0.9823694739
0.9829690948
0.9835976217
0.9842439124
0.9848997462
1
1
1
1
1
1
1
1
1
1
1
1
1
1
1
1
1
1
1
1
0.9844754664
0.9844487628
0.9843986508
0.9843270517
0.9842348887
0.9841223682
0.9839891959
0.9838347491
0.9836582236
0.9834587664
0.9832356049
0.9829881787
0.9827162812
0.9824202141
0.9821009615
0.9817603853
0.981401446
0.9810284453
0.9806472835
0.9802657121
0.9798935471
0.9795427742
0.9792273849
0.9789625513
0.9787624652
0.9786367478
0.9785884058
0.9786163033
0.9787199554
0.9789015841
0.9791653084
0.9795153211
0.9799537798
0.9804788802
0.9810839258
0.9817577464
0.9824859789
0.9832529186
0.9840438563
0.9848477194
1
1
1
1
1
1
1
1
1
1
1
1
1
1
1
1
1
1
1
1
0.9844022886
0.9843717703
0.984314424
0.9842323631
0.9841265503
0.9839971175
0.9838436096
0.9836651797
0.9834607536
0.9832291801
0.9829693754
0.9826804709
0.9823619725
0.9820139351
0.9816371633
0.9812334428
0.9808058131
0.9803588846
0.9798992015
0.979435638
0.9789798162
0.9785465275
0.978154057
0.9778238057
0.9775771113
0.9774266241
0.9773704785
0.9773994947
0.9775097397
0.9777051547
0.9779941909
0.9783863118
0.9788883978
0.9795011826
0.98021769
0.9810243957
0.9819032427
0.9828340351
0.9837974163
0.9847784306
1
1
1
1
1
1
1
1
1
1
1
1
1
1
1
1
1
1
1
1
0.9843251071
0.9842905457
0.9842255064
0.9841322853
0.9840118684
0.9838642889
0.9836889005
0.9834845946
0.9832499845
0.9829835711
0.9826839026
0.9823497368
0.9819802135
0.9815750453
0.9811347366
0.9806608451
0.9801563014
0.9796258039
0.9790762957
0.9785175223
0.9779626777
0.9774292635
0.9769405101
0.9765274058
0.9762266136
0.9760582021
0.9760059533
0.9760402386
0.9761521847
0.9763513072
0.976654222
0.9770795917
0.9776427277
0.9783486286
0.9791894369
0.9801482282
0.9812023265
0.9823260485
0.9834941365
0.9846864068
1
1
1
1
1
1
1
1
1
1
1
1
1
1
1
1
1
1
1
1
0.9842447718
0.9842059955
0.9841329031
0.984027956
0.9838921442
0.9837253747
0.9835267801
0.9832949544
0.9830281574
0.9827244964
0.9823820998
0.9819992908
0.9815747684
0.981107805
0.980598472
0.9800479142
0.9794587011
0.9788352904
0.9781846219
0.9775168236
0.9768459831
0.9761911435
0.9755788482
0.9750522386
0.974685244
0.9745235462
0.9745070092
0.9745535478
0.9746552174
0.9748386566
0.9751338423
0.9755743638
0.9761906158
0.9769940913
0.97797296
0.9791047918
0.9803614361
0.9817110185
0.9831210933
0.9845645069
1
1
1
1
1
1
1
1
1
1
1
1
1
1
1
1
1
1
1
1
0.9841623469
0.9841192348
0.9840378371
0.9839207644
0.983768977
0.9835822215
0.9833593836
0.9830987254
0.9827981175
0.9824552356
0.982067746
0.9816334895
0.9811506652
0.9806180224
0.980035073
0.9794023481
0.9787217475
0.9779970449
0.9772346124
0.976444334
0.975640391
0.9748411345
0.9740683204
0.9733700753
0.972936599
0.9728251146
0.9729155693
0.9729752414
0.9730360445
0.9731703913
0.9734210131
0.9738437942
0.9744985183
0.9754060174
0.9765391677
0.9778667048
0.9793553222
0.9809673994
0.9826622487
0.9844034209
1
1
1
1
1
1
1
1
1
1
1
1
1
1
1
1
1
1
1
1
0.9840791442
0.9840316679
0.9839418446
0.9838123928
0.9836442442
0.9834369998
0.9831892356
0.9828988394
0.9825632666
0.9821797331
0.981745416
0.981257649
0.9807141026
0.9801129591
0.9794530842
0.9787342177
0.9779572438
0.9771246611
0.9762414669
0.9753166881
0.9743652083
0.9734067654
0.9725021501
0.9720229726
0.9717566246
0.9715343886
0.9714300478
0.9713710695
0.9713159628
0.9713559478
0.9715038696
0.9718529363
0.9725224581
0.9735500523
0.9748588668
0.9764051178
0.9781553075
0.9800692868
0.982097559
0.9841910034
1
1
1
1
1
1
1
1
1
1
1
1
1
1
1
1
1
1
1
1
0.9839965625
0.9839447915
0.9838466201
0.9837048236
0.9835202373
0.9832922501
0.9830191953
0.9826986219
0.9823274745
0.9819024909
0.9814203458
0.9808778732
0.9802722336
0.9796010689
0.9788626083
0.9780557236
0.9771799704
0.9762357689
0.9752252376
0.974155011
0.9730430915
0.9719810322
0.9714469437
0.9711340295
0.9708531053
0.970571605
0.9701911901
0.9697531568
0.9694901014
0.969423329
0.9695002872
0.9698532741
0.9704756275
0.9714441068
0.972910201
0.9746926578
0.9767292987
0.9789852359
0.9814016889
0.9839113618
1
1
1
1
1
1
1
1
1
1
1
1
1
1
1
1
1
1
1
1
0.9839161127
0.9838602202
0.9837539657
0.9836001233
0.9833993896
0.9831509022
0.9828526456
0.9825017807
0.9820949595
0.9816284213
0.981098237
0.9805007977
0.979832823
0.9790915427
0.978274735
0.9773805939
0.9764073324
0.9753524779
0.9742123488
0.9729849044
0.971744128
0.9710636203
0.9706661803
0.9703206129
0.969980626
0.9694967843
0.9686846549
0.9679011572
0.96748085
0.9673781984
0.9675551447
0.9679523175
0.9685837146
0.9694579815
0.9707526258
0.9727064967
0.97504054
0.9776760535
0.980542137
0.9835435501
1
1
1
1
1
1
1
1
1
1
1
1
1
1
1
1
1
1
1
1
0.9838393694
0.9837796358
0.9836657618
0.983500452
0.9832842165
0.9830159045
0.9826931269
0.9823126097
0.9818705085
0.9813626893
0.9807850232
0.9801332778
0.9794038032
0.9785936519
0.9777005816
0.9767228113
0.9756581767
0.9745019449
0.9732418523
0.9718675055
0.9708832453
0.9703384414
0.9698921555
0.9694685711
0.9688046004
0.9677658415
0.9665773391
0.9657027471
0.9651888459
0.965068063
0.965399654
0.9659096246
0.9665909852
0.9675284027
0.9687456321
0.9704890571
0.973042516
0.9760907363
0.9794767418
0.9830595691
1
1
1
1
1
1
1
1
1
1
1
1
1
1
1
1
1
1
1
1
0.9837679153
0.9837047289
0.9835838997
0.9834079871
0.9831772614
0.9828902439
0.9825441425
0.9821352206
0.9816591326
0.9811112447
0.9804869659
0.9797820929
0.9789928213
0.978115984
0.9771499231
0.9760941441
0.9749487849
0.9737124589
0.9723751511
0.970998795
0.9701925248
0.9695854358
0.9690384547
0.9681921523
0.9667855301
0.96539643
0.9641645072
0.9631953283
0.9625596553
0.9623223757
0.9625747797
0.9632273786
0.9641762849
0.9653772788
0.9667676435
0.9685162816
0.9708661007
0.9741608048
0.9781514596
0.9824210302
1
1
1
1
1
1
1
1
1
1
1
1
1
1
1
1
1
1
1
1
0.9837032815
0.9836371334
0.9835102088
0.9833248391
0.9830809981
0.982776839
0.9824091343
0.9819736571
0.9814655362
0.9808796085
0.9802107904
0.9794544776
0.9786069684
0.9776658928
0.9766299202
0.9755008279
0.9742838566
0.9729892894
0.9716359316
0.9702915959
0.9694357788
0.9687234241
0.9677500539
0.9661137534
0.964472355
0.9629375776
0.9615719727
0.9604438491
0.9596197771
0.9591678188
0.9591643544
0.9596805442
0.9607844341
0.9624284365
0.964412162
0.9665011399
0.9689851673
0.972160757
0.9765031609
0.9815730619
1
1
1
1
1
1
1
1
1
1
1
1
1
1
1
1
1
1
1
1
0.983646885
0.9835783597
0.98344638
0.9832529637
0.98299773
0.9826784232
0.9822913486
0.9818317582
0.9812942191
0.9806729909
0.9799624325
0.9791574587
0.9782540643
0.9772499628
0.9761454687
0.9749434799
0.9736527453
0.972291674
0.9708968435
0.969565657
0.9684734779
0.9673342743
0.965689388
0.9638966763
0.9621136919
0.9604121724
0.9588571771
0.957511691
0.95643863
0.9557024547
0.9554088711
0.9556980272
0.9566686691
0.9583672889
0.9609338017
0.9638705003
0.966941763
0.9703681341
0.9746993797
0.9804324082
1
1
1
1
1
1
1
1
1
1
1
1
1
1
1
1
1
1
1
1
0.9835999677
0.9835297285
0.9833938916
0.9831940756
0.9829294893
0.9825974301
0.9821937064
0.9817130184
0.9811493309
0.9804962619
0.9797475122
0.9788973545
0.9779412079
0.9768763354
0.9757027347
0.9744242929
0.9730494662
0.9715944935
0.9700881116
0.9685730088
0.9670699758
0.9654685803
0.9636620939
0.9617315167
0.9597738061
0.9578663647
0.9560741692
0.954461088
0.9530926114
0.9520528851
0.9514809305
0.9514622073
0.952121139
0.9536829185
0.9561618386
0.9597353355
0.964019127
0.9685862275
0.9731616412
0.9788581399
1
1
1
1
1
1
1
1
1
1
1
1
1
1
1
1
1
1
1
1
0.9835635388
0.9834923091
0.9833539388
0.983149567
0.9828779416
0.9825358818
0.9821186762
0.9816204489
0.9810345242
0.9803538133
0.9795712457
0.9786802621
0.9776753845
0.9765528807
0.9753115411
0.9739535648
0.9724855372
0.9709182989
0.969266283
0.9675446974
0.9657527004
0.9638536624
0.9618198412
0.9596844325
0.9575071026
0.9553513674
0.9532790784
0.951355624
0.9496581291
0.9483060441
0.9473807022
0.9469717148
0.9472196611
0.9483821177
0.9505865954
0.954039195
0.9591551288
0.9659969162
0.9719838148
0.9763259291
1
1
1
1
1
1
1
1
1
1
1
1
1
1
1
1
1
1
1
1
0.9835383254
0.9834668656
0.9833273726
0.9831204352
0.9828443001
0.9824952875
0.982068155
0.9815564389
0.9809527987
0.9802493883
0.9794382716
0.978511894
0.9774636144
0.9762882936
0.9749829174
0.9735471942
0.9719839962
0.9702993439
0.968500298
0.9665908216
0.9645694215
0.9624260125
0.9601583831
0.957789422
0.9553608006
0.9529237931
0.9505358819
0.9482637278
0.9461912824
0.9444353058
0.9430856074
0.9421951251
0.941921334
0.9424344414
0.9440863345
0.9471129197
0.9522310717
0.9609243642
0.9710300201
0.9755643949
1
1
1
1
1
1
1
1
1
1
1
1
1
1
1
1
1
1
1
1
0.983524732
0.9834538141
0.98331465
0.9831072235
0.9828292536
0.9824765555
0.982043361
0.9815226248
0.9809063395
0.9801858803
0.9793523914
0.9783972215
0.9773124045
0.9760911674
0.974728427
0.9732212027
0.9715688258
0.9697727673
0.9678358841
0.9657599381
0.9635430512
0.9611846673
0.9586906109
0.9560799905
0.9533848478
0.9506472563
0.9479185694
0.9452618151
0.9427563835
0.9405027598
0.9386029759
0.9371184207
0.9361346307
0.9358435023
0.9366601137
0.9387902181
0.9434177662
0.9536980757
0.9623696473
0.9900760479
1
1
1
1
1
1
1
1
1
1
1
1
1
1
1
1
1
1
1
1
0.9835228136
0.9834531924
0.9833157997
0.983109979
0.9828329144
0.9824799278
0.9820447489
0.9815197786
0.9808963681
0.9801651284
0.9793162805
0.9783400478
0.9772270854
0.9759689212
0.9745583712
0.9729898659
0.9712596152
0.9693655398
0.9673069785
0.9650844191
0.9626979809
0.9601479845
0.9574413945
0.954594108
0.9516316714
0.9485886323
0.9455093673
0.9424501576
0.9394816028
0.9366885083
0.9341612362
0.9319823299
0.9302031997
0.9289832182
0.9286771669
0.9292939247
0.9327299183
0.9480972827
0.9583557795
1
1
1
1
1
1
1
1
1
1
1
1
1
1
1
1
1
1
1
1
1
0.9835322601
0.9834646445
0.9833304032
0.9831282306
0.98285479
0.9825049417
0.982071956
0.9815477301
0.9809230267
0.9801877451
0.9793312307
0.9783426215
0.9772112302
0.9759269369
0.9744805565
0.9728641352
0.9710711398
0.969096525
0.9669367352
0.9645902649
0.9620582054
0.9593404721
0.9564410227
0.9533725931
0.9501554839
0.9468174414
0.9433958172
0.9399398104
0.9365126563
0.9331916236
0.9300621845
0.9272052576
0.9247079786
0.9227404381
0.920969034
0.9191010456
0.9217055098
0.9372973445
0.9898111429
1
1
1
1
1
1
1
1
1
1
1
1
1
1
1
1
1
1
1
1
1
0.9835523965
0.9834874196
0.9833575943
0.9831609886
0.9828937829
0.9825504261
0.9821237893
0.9816053357
0.9809853163
0.9802530049
0.9793969691
0.9784053592
0.9772662491
0.9759679989
0.9744995942
0.9728509356
0.9710130562
0.9689782898
0.9667404666
0.9642963066
0.9616444548
0.9587851796
0.9557192525
0.9524550974
0.9490082678
0.9453999516
0.9416601504
0.9378304609
0.9339671788
0.9301432518
0.9264449862
0.922962916
0.9199459061
0.9174637039
0.9148361536
0.9158979063
0.9363868723
0.9736006258
1
1
1
1
1
1
1
1
1
1
1
1
1
1
1
1
1
1
1
1
1
1
0.983582195
0.9835203833
0.9833960749
0.983206768
0.9829482196
0.9826145325
0.9821982543
0.9816904984
0.9810810981
0.9803588089
0.9795115723
0.9785266994
0.9773911729
0.9760920056
0.9746165698
0.972952888
0.9710898423
0.9690174222
0.9667270428
0.9642131436
0.9614719221
0.9585012714
0.9553011242
0.9518754715
0.948234417
0.9443920371
0.940369442
0.9361980194
0.9319241423
0.9276148137
0.9233560525
0.9193629099
0.9160048486
0.9135156145
0.9122545012
0.9499886608
0.9989859629
1
1
1
1
1
1
1
1
1
1
1
1
1
1
1
1
1
1
1
1
1
1
1
0.9836202966
0.9835620417
0.9834441526
0.9832636406
0.9830159112
0.9826947995
0.9822926201
0.9818002366
0.9812071624
0.9805017228
0.9796714653
0.9787030764
0.9775826042
0.9762959006
0.9748289543
0.9731682432
0.971300791
0.9692145017
0.9668985705
0.9643445419
0.9615467188
0.9585004214
0.9552035494
0.9516572485
0.947865247
0.9438327841
0.9395690664
0.9350901948
0.9304264122
0.9256364557
0.9208272784
0.9163483335
0.9127010279
0.9103347832
0.9260060051
0.9944584786
0.9999732356
1
0.9999870207
0.9973147262
1
1
1
1
1
1
1
1
1
1
1
1
1
1
1
1
1
1
1
1
0.983665056
0.983610602
0.9834998242
0.9833293284
0.9830942468
0.9827882397
0.9824035012
0.9819307752
0.9813593699
0.9806770889
0.9798714645
0.9789289737
0.9778347955
0.9765737824
0.9751306829
0.9734909422
0.9716400786
0.9695640872
0.967250174
0.9646873505
0.9618671847
0.9587831384
0.9554313587
0.9518095859
0.947914039
0.9437395645
0.9392796491
0.9345286188
0.9294919628
0.9242147026
0.9188396005
0.9137906574
0.9098202733
0.9081699127
0.9380399596
0.992432709
0.9984677197
0.9999954574
0.9899546699
0.9997033518
1
1
1
1
1
1
1
1
1
1
1
1
1
1
1
1
1
1
1
1
0.9837155929
0.9836650951
0.9835618247
0.9834020842
0.9831808213
0.9828916114
0.9825266361
0.9820766766
0.9815311346
0.9808781103
0.9801047407
0.9791969981
0.9781397851
0.9769171954
0.9755123861
0.973910709
0.9720969153
0.9700549668
0.9677702075
0.965229573
0.9624220572
0.9593390914
0.9559750359
0.9523232756
0.948372072
0.944104856
0.9394968715
0.9345156397
0.9291324238
0.9233611033
0.9173468794
0.9115457025
0.9068561716
0.9050275065
0.934999608
0.9851616978
0.9682762589
0.9740610153
0.9830926853
0.9903865645
1
1
1
1
1
1
1
1
1
1
1
1
1
1
1
1
1
1
1
1
0.9837710063
0.9837245848
0.9836290846
0.983480614
0.9832740357
0.9830029354
0.9826595829
0.9822349091
0.9817185093
0.9810986881
0.9803625629
0.9794960613
0.9784840465
0.9773105264
0.9759589243
0.9744129054
0.9726556547
0.9706702756
0.9684405779
0.9659515649
0.9631899728
0.9601450204
0.9568089598
0.9531691067
0.9492066375
0.9448941792
0.9401894235
0.9350343173
0.9293661059
0.9231566177
0.916490359
0.9098063865
0.904053825
0.9003043576
0.9239457938
0.989543746
0.9797505326
0.9780448407
0.9767304117
0.9862140127
1
1
1
1
1
1
1
1
1
1
1
1
1
1
1
1
1
1
1
1
0.9838303421
0.9837880281
0.9837004324
0.9835635412
0.9833722194
0.9831201511
0.9827997861
0.9824022997
0.9819175742
0.9813342078
0.9806395518
0.979819752
0.9788598554
0.9777439756
0.9764555067
0.9749774065
0.9732921694
0.9713821726
0.969230147
0.966819624
0.9641353915
0.9611639869
0.9578937662
0.9543083935
0.9503817518
0.9460738649
0.9413230928
0.9360425192
0.9301297726
0.923509719
0.9162373012
0.9086839729
0.9016824082
0.8961580264
0.9294462351
0.9882416535
0.9892846211
0.9968226968
1
0.9999963501
1
1
1
1
1
1
1
1
1
1
1
1
1
1
1
1
1
1
1
1
0.9838926244
0.9838543646
0.9837746647
0.9836494568
0.9834736773
0.9832411839
0.9829446858
0.9825756885
0.9821244569
0.981580001
0.9809300849
0.980161263
0.9792589578
0.9782075779
0.976990667
0.9755910693
0.9739910684
0.972172653
0.9701178374
0.9678089756
0.9652290412
0.9623618284
0.9591917526
0.9556972271
0.9518440822
0.947578484
0.9428166279
0.9374373922
0.9312886866
0.9242297212
0.9162461025
0.9076754465
0.8994802645
0.8929668598
0.934764985
0.9855387394
0.9881235316
0.9921846033
0.9993590275
1
1
1
1
1
1
1
1
1
1
1
1
1
1
1
1
1
1
1
1
1
0.9839568841
0.9839225556
0.983850607
0.9837369854
0.9835767594
0.9833640216
0.9830918069
0.9827520249
0.9823354099
0.9818314893
0.9812285757
0.9805137852
0.9796730874
0.9786913868
0.9775526293
0.9762399289
0.9747357125
0.9730219092
0.9710801448
0.968891886
0.9664384613
0.9637008102
0.9606585399
0.9572840502
0.9535334088
0.949336738
0.9445840326
0.9391122908
0.932705491
0.9251331616
0.9162756573
0.906410738
0.8967942625
0.8901756866
0.9368888735
0.9812387892
0.9849989509
0.9861500303
0.9907646373
0.9997064696
1
1
1
1
1
1
1
1
1
1
1
1
1
1
1
1
1
1
1
1
0.9840221845
0.9839916098
0.9839271503
0.9838248352
0.9836799192
0.9834867808
0.9832388335
0.9829284509
0.9825469062
0.9820843302
0.9815296881
0.9808707813
0.9800942742
0.9791857468
0.9781297709
0.9769100047
0.9755093027
0.9739098272
0.9720931179
0.9700400332
0.9677304125
0.9651421638
0.9622491957
0.9590177229
0.9553927338
0.9512864551
0.9465593115
0.9409998258
0.9343162814
0.9261717619
0.9163155635
0.9048312442
0.8929118345
0.8873000803
0.9340295263
0.9761266492
0.9793661433
0.9789129752
0.988336607
0.99676472
1
1
1
1
1
1
1
1
1
1
1
1
1
1
1
1
1
1
1
1
0.9840876417
0.9840606025
0.9840032745
0.9839118293
0.9837817549
0.9836077567
0.9833836677
0.9831023697
0.9827557274
0.9823345378
0.9818284967
0.9812261858
0.980515081
0.9796815823
0.9787110631
0.9775879331
0.976295702
0.9748170157
0.973133599
0.9712259758
0.9690727158
0.9666487462
0.9639219507
0.9608526879
0.9573749284
0.9533831917
0.9487081825
0.943088144
0.936150701
0.9274499642
0.916641858
0.9034292646
0.8868252577
0.8849634283
0.9163040395
0.9704437383
0.9734789734
0.9715736458
0.9803207057
0.9894040099
0.9999371999
1
1
1
1
1
1
1
1
1
1
1
1
1
1
1
1
1
1
1
0.9841524411
0.9841286904
0.9840780636
0.9839969248
0.9838810341
0.9837254556
0.9835244706
0.9832714991
0.9829590318
0.9825785739
0.9821206048
0.9815745532
0.9809287909
0.9801706439
0.9792864171
0.9782614258
0.9770800141
0.9757255191
0.9741800959
0.9724242298
0.9704355965
0.9681866341
0.9656398008
0.9627502528
0.9594430934
0.955598519
0.9510227331
0.9454101116
0.9383110135
0.929163693
0.9177829872
0.9045363188
0.8907057553
0.8812734872
0.8959467231
0.9637601083
0.9662875232
0.9694487218
0.9724223887
0.9810284794
0.9896716667
0.9997667634
1
1
1
1
1
1
1
1
1
1
1
1
1
1
1
1
1
1
0.9842158479
0.9841951209
0.9841507142
0.9840792224
0.9839767067
0.9838386121
0.9836596861
0.9834339033
0.9831543983
0.9828134073
0.9824022228
0.9819111606
0.981329542
0.9806456882
0.9798469243
0.9789195813
0.977848973
0.9766192979
0.975213367
0.9736119567
0.9717923974
0.9697256391
0.9673704069
0.9646768179
0.9615658636
0.9579099356
0.9535022267
0.9480119199
0.9409343353
0.9316400862
0.920162788
0.9067676071
0.8922403558
0.8781048255
0.8806303237
0.9247595277
0.9595708867
0.9615537871
0.9653833709
0.9728489398
0.9804422023
0.9886620485
0.9989016945
1
1
1
1
1
1
1
1
1
1
1
1
1
1
1
1
1
0.9842772141
0.9842592379
0.9842205384
0.9841579674
0.9840679065
0.9839461932
0.9837880484
0.9835880057
0.9833398467
0.9830365436
0.9826702109
0.9822320671
0.9817124077
0.9811005867
0.9803850018
0.9795530713
0.978591176
0.9774845122
0.9762167506
0.9747692984
0.9731197836
0.9712390958
0.9690859333
0.966601078
0.9637114649
0.9602888591
0.9561295131
0.9509104222
0.9441397905
0.935203389
0.9241600169
0.9112718355
0.8973524681
0.8837206892
0.8746615292
0.8841605545
0.9421473729
0.95426935
0.95802239
0.9637718642
0.9707418386
0.9785009881
0.9865392117
0.9941477857
1
1
1
1
1
1
1
1
1
1
1
1
1
1
1
1
0.984335981
0.9843204816
0.9842869622
0.9842325466
0.984153945
0.9840473909
0.9839085755
0.983732584
0.9835138357
0.983246028
0.9829220879
0.982534131
0.9820734271
0.9815303717
0.9808944564
0.9801542251
0.9792971888
0.9783096452
0.9771762989
0.9758794908
0.9743976836
0.9727026029
0.9707540799
0.9684913563
0.9658442885
0.9626933613
0.9588523859
0.9540348793
0.9478202346
0.939660787
0.9294446405
0.91741853
0.9041359918
0.8904395405
0.8774087097
0.8708844968
0.8873597085
0.9480291988
0.9500358958
0.9547412316
0.9607263104
0.9676963251
0.975214342
0.9828283767
0.9902076954
0.9999412687
1
1
1
1
1
1
1
1
1
1
1
1
1
1
0.9843916772
0.9843783868
0.9843495202
0.9843024783
0.9842342999
0.9841416075
0.984020551
0.9838667507
0.9836752419
0.9834404238
0.9831560109
0.9828149915
0.9824095887
0.9819312241
0.9813704774
0.9807170269
0.9799595459
0.9790855037
0.9780807748
0.9769288869
0.9756096041
0.9740963448
0.9723516589
0.9703197342
0.9679265331
0.9650715768
0.9615923628
0.9572491599
0.9517067871
0.944555333
0.9354379972
0.9245282574
0.9121141291
0.8986724979
0.8846976444
0.8712025127
0.8665270104
0.891998104
0.9424149926
0.9458607515
0.9504302857
0.9562846369
0.963064596
0.9703863966
0.9782088856
0.9868658356
0.9985606224
1
1
1
1
1
1
1
1
1
1
1
1
1
0.9844439155
0.9844325763
0.984407847
0.984367401
0.9843085972
0.9842284333
0.9841234981
0.9839899212
0.9838233241
0.9836187721
0.9833707301
0.983073019
0.9827187765
0.9823004148
0.9818095724
0.9812370448
0.9805726705
0.9798051256
0.9789215439
0.9779068176
0.9767423334
0.9754037538
0.9738572853
0.9720537965
0.9699205498
0.9673710083
0.9642692294
0.9604189733
0.9555551028
0.9493597455
0.9415353202
0.9319280262
0.9206407189
0.9079826693
0.8941639749
0.8795743248
0.865700393
0.8616087259
0.8928823098
0.9380476339
0.9403661948
0.9443338221
0.9499065823
0.9564862297
0.9642720837
0.9729493213
0.982645907
0.9923296205
1
1
1
1
1
1
1
1
1
1
1
1
0.9844923852
0.9844827538
0.9844616662
0.9844270581
0.9843765924
0.9843076217
0.9842171472
0.9841017756
0.9839576759
0.9837805366
0.9835655238
0.9833072403
0.9829996845
0.9826362066
0.9822094552
0.981711303
0.9811327291
0.9804636172
0.9796924006
0.9788054349
0.977785905
0.9766119743
0.975253782
0.9736688773
0.9717959184
0.9695469428
0.9668172296
0.9634463177
0.9592215286
0.953887219
0.9471854166
0.938926405
0.9290432353
0.9175287097
0.9045238313
0.8903615897
0.8758244364
0.8626723916
0.8574139902
0.884171473
0.9246159364
0.9320937064
0.9358862419
0.940836012
0.9482875945
0.9566118379
0.9665626086
0.9773804861
0.9887073877
1
1
1
1
1
1
1
1
1
1
1
0.9845368453
0.9845286939
0.9845107793
0.9844812821
0.9844381488
0.984379061
0.9843014006
0.9842022135
0.9840781722
0.9839255378
0.9837401215
0.9835172467
0.983251708
0.9829377273
0.9825688985
0.9821381117
0.9816374369
0.9810579335
0.9803893281
0.9796194656
0.9787333845
0.9777117957
0.9765286807
0.9751477041
0.9735172566
0.9715642036
0.9691879695
0.9662664656
0.9626268217
0.95805865
0.952335994
0.945258854
0.9366938792
0.9265758892
0.914880902
0.9015837804
0.8875134131
0.8736495603
0.860826643
0.8541815373
0.8624467094
0.8941009026
0.915473416
0.9239988004
0.9309327456
0.9378621776
0.9479433415
0.9595335577
0.9731253664
0.9879050615
1
1
1
1
1
1
1
1
1
1
0.9845771143
0.9845702326
0.9845550523
0.9845299785
0.9844932163
0.9844427464
0.984376296
0.9842913085
0.9841849114
0.9840538827
0.9838946171
0.9837030902
0.9834748201
0.9832048236
0.9828875619
0.9825168658
0.9820858254
0.9815866144
0.9810102044
0.9803458944
0.97958054
0.9786973183
0.9776738169
0.9764792235
0.9750704649
0.9733873649
0.9713472761
0.9688384381
0.9657257828
0.96183717
0.9569758807
0.9509478211
0.9435914572
0.934794123
0.9244871467
0.9126545516
0.8994691951
0.8859335926
0.8730368363
0.8616648881
0.8517620661
0.8471885028
0.8524919842
0.8664114924
0.9009399653