/*--------------------------------*- C++ -*----------------------------------*\
  =========                 |
  \\      /  F ield         | OpenFOAM: The Open Source CFD Toolbox
   \\    /   O peration     | Website:  https://openfoam.org
    \\  /    A nd           | Version:  10
     \\/     M anipulation  |
\*---------------------------------------------------------------------------*/
FoamFile
{
    format      ascii;
    class       volScalarField;
    location    "0.0003";
    object      p_rgh;
}
// * * * * * * * * * * * * * * * * * * * * * * * * * * * * * * * * * * * * * //

dimensions      [1 -1 -2 0 0 0 0];

internalField   nonuniform List<scalar> 
16000
(
-372.7053145
-389.9453253
-424.76544
-477.6822383
-549.4334689
-640.8699586
-752.7955517
-885.7340873
-1039.632421
-1213.530645
-1405.246572
-1611.127805
-1825.923125
-2042.818018
-2253.665239
-2449.414314
-2620.709299
-2758.607545
-2855.374599
-2905.284963
-2905.288007
-2855.384307
-2758.626087
-2620.740923
-2449.465412
-2253.744751
-2042.938649
-1826.102901
-1611.392115
-1405.631457
-1214.087898
-1040.437131
-886.8957908
-754.4746239
-643.3017069
-552.9631026
-482.8127138
-432.2059703
-400.5629185
-386.8576791
-389.246217
-404.562636
-435.4219972
-482.1180754
-545.050735
-624.6272548
-721.1329202
-834.5579816
-964.3901454
-1109.394487
-1267.412187
-1435.213786
-1608.441441
-1781.66849
-1948.59314
-2102.365778
-2236.029562
-2343.039873
-2417.81915
-2456.287502
-2456.287008
-2417.817989
-2343.0391
-2236.030976
-2102.371788
-1948.606715
-1781.693275
-1608.481835
-1435.275048
-1267.500781
-1109.518681
-964.560923
-834.7904059
-721.4482302
-625.0565207
-545.6433673
-482.9688848
-436.7683216
-407.1028907
-394.8801158
-394.101941
-407.5572406
-434.6063385
-475.3805899
-530.0408322
-598.6942077
-681.293797
-777.5123967
-886.5986906
-1007.23158
-1137.394009
-1274.290072
-1414.327968
-1553.186376
-1685.973369
-1807.475385
-1912.481145
-1996.154583
-2054.422245
-2084.331678
-2084.33028
-2054.418354
-1996.149109
-1912.47554
-1807.471526
-1685.973468
-1553.192907
-1414.343562
-1274.317438
-1137.43592
-1007.290907
-886.6784606
-777.6158545
-681.4243313
-598.8547556
-530.2321076
-475.600148
-434.8741755
-408.1084933
-396.2051934
-388.9424877
-400.641985
-424.1153786
-459.3817797
-506.441376
-565.2084429
-635.4358247
-716.6244097
-807.9245335
-908.0407699
-1015.154745
-1126.881812
-1240.276172
-1351.895234
-1457.927863
-1554.383348
-1637.329406
-1703.159907
-1748.866773
-1772.285736
-1772.283923
-1748.861617
-1703.152242
-1637.320545
-1554.375
-1457.922039
-1351.894156
-1240.282173
-1126.897259
-1015.181994
-908.0821282
-807.9822342
-716.7006027
-635.53255
-565.3273685
-506.582357
-459.5380088
-424.2685606
-400.8260437
-389.7504114
-375.2812788
-385.3553363
-405.5331902
-435.761311
-475.9388119
-525.8651449
-585.1846688
-653.3228145
-729.4194327
-812.2676639
-900.2684185
-991.411009
-1083.289297
-1173.159857
-1258.044285
-1334.872399
-1400.657334
-1452.688315
-1488.722798
-1507.157159
-1507.155166
-1488.717063
-1452.679551
-1400.646673
-1334.861333
-1258.034593
-1173.153535
-1083.288487
-991.4179364
-900.2853407
-812.2968094
-729.4629444
-653.3827056
-585.2628184
-525.9633319
-476.058452
-435.9011435
-405.6816886
-385.4991131
-375.6474442
-354.4702249
-363.0596381
-380.2385447
-405.9107201
-439.918008
-482.0004313
-531.7563874
-588.5984253
-651.7089653
-720.0020123
-792.0978362
-866.3176308
-940.7041229
-1013.071963
-1081.088629
-1142.382849
-1194.67368
-1235.909896
-1264.406713
-1278.965623
-1278.963635
-1264.400936
-1235.90089
-1194.662346
-1142.370401
-1081.076554
-1013.06198
-940.6981391
-866.3176995
-792.1060995
-720.0206349
-651.7400603
-588.6439815
-531.8182238
-482.0802249
-440.0173821
-406.0306959
-380.3753959
-363.1995571
-354.685814
-327.7018742
-334.9471604
-349.4193633
-371.0014536
-399.5093174
-434.6619336
-476.0533817
-523.1227919
-575.1255586
-631.1101926
-689.9056295
-750.1236522
-810.1802141
-868.3378541
-922.7691975
-971.6389711
-1013.199346
-1045.891118
-1068.441612
-1079.949541
-1079.947678
-1068.436157
-1045.882473
-1013.188174
-971.6261951
-922.7559917
-868.3256344
-810.1706187
-750.1185104
-689.9069131
-631.1199499
-575.1458364
-523.1555541
-476.1004372
-434.7249048
-399.5897019
-371.1006232
-349.5369587
-335.0756385
-327.8580069
-296.0186128
-302.052633
-314.0920686
-332.0146187
-355.6320098
-384.6681162
-418.7396853
-457.3363558
-499.8024516
-545.3236932
-592.9221473
-641.4625063
-689.6720759
-736.1756749
-779.5450961
-818.3610088
-851.2834228
-877.1253243
-894.9230824
-903.9969152
-903.9952383
-894.9181394
-877.1173821
-851.2729392
-818.3486487
-779.5317484
-736.1624639
-689.6603605
-641.4538617
-592.9183255
-545.3265641
-499.8139305
-457.3583235
-418.7739108
-384.716193
-355.6953433
-332.0944714
-314.1890453
-302.1633673
-296.1424026
-260.3266517
-265.2698416
-275.1233439
-289.7702897
-309.0330196
-332.6573492
-360.2995894
-391.5135876
-425.7396114
-462.2973119
-500.3850468
-539.0876055
-577.3938166
-614.2246594
-648.4714049
-679.0420964
-704.9134984
-725.1846544
-739.127569
-746.2303934
-746.228922
-739.1232093
-725.1775759
-704.9040053
-679.0306546
-648.4586713
-614.2115053
-577.3813377
-539.0771139
-500.3780421
-462.2954329
-425.7445729
-391.5271096
-360.323324
-332.6928104
-309.0815315
-289.8329787
-275.2009676
-265.3610392
-260.4264918
-221.4128889
-225.3704038
-233.2525877
-244.9551549
-260.3207876
-279.1280841
-301.0830351
-325.8108614
-352.8495303
-381.6465183
-411.5603777
-441.868442
-471.7815831
-500.4663082
-527.0737208
-550.7740396
-570.7945783
-586.4584483
-597.2208606
-602.6998521
-602.6985905
-597.2171094
-586.4523157
-570.7862675
-550.7638779
-527.062191
-500.4540749
-471.7695079
-441.8575816
-411.5519646
-381.6419237
-352.8502136
-325.8183113
-301.0987064
-279.1533342
-260.3568162
-245.0029625
-233.3128875
-225.4427084
-221.4921943
-179.9631203
-183.023292
-189.1139006
-198.1478632
-209.9944021
-224.4715299
-241.3406193
-260.3014439
-280.9886139
-302.9704892
-325.7516103
-348.7795124
-371.4564721
-393.1562986
-413.2457524
-431.1096193
-446.1779425
-457.9535041
-466.0374124
-470.1506391
-470.1495931
-466.0342969
-457.9483919
-446.1709749
-431.1010308
-413.2358979
-393.1456768
-371.4457401
-348.7694876
-325.743258
-302.9648961
-280.9869508
-260.3049202
-241.3504332
-224.4888166
-210.0201824
-198.1829967
-189.1590214
-183.0783121
-180.0241233
-136.5804844
-138.814105
-143.2568895
-149.8418308
-158.4684925
-168.9981666
-181.2505645
-195.0009451
-209.9783037
-225.8653392
-242.3008739
-258.8852677
-275.1891496
-290.76549
-305.1646911
-317.9520058
-328.7262644
-337.1386275
-342.9099428
-345.8452916
-345.8444749
-342.9075085
-337.1346275
-328.7207997
-317.9452444
-305.1568885
-290.7570066
-275.180462
-258.8769719
-242.2936773
-225.860044
-209.9757807
-195.0021021
-181.2563104
-169.0093742
-158.4859614
-149.8662527
-143.2888064
-138.8536425
-136.6250586
-91.80345571
-93.26351899
-96.16597269
-100.4655903
-106.0944886
-112.9593549
-120.9395988
-129.8858187
-139.6189768
-149.930719
-160.5852421
-171.3230236
-181.8665913
-191.9283239
-201.2200633
-209.4641006
-216.4048999
-221.8207721
-225.5346342
-227.4229968
-227.422429
-225.5329419
-221.8179906
-216.4010973
-209.4593889
-201.2146112
-191.9223681
-181.8604437
-171.3170739
-160.5799537
-149.9266187
-139.6166392
-129.8858466
-120.9426004
-112.9659209
-106.1051701
-100.4808814
-96.18629536
-93.28911284
-91.8330497
-46.12312906
-46.84472557
-48.27820907
-50.40101409
-53.17897322
-56.56522202
-60.49939005
-64.9069463
-69.69889624
-74.77203828
-80.0099679
-85.28497448
-90.46090791
-95.39700469
-99.95256323
-103.9922551
-107.391768
-110.0434049
-111.8612317
-112.7853686
-112.7850726
-111.8603493
-110.0419544
-107.3897845
-103.9897954
-99.94971216
-95.39388047
-90.45766581
-85.28180803
-80.00710717
-74.76974524
-69.69745739
-64.9066632
-60.50056866
-56.56816185
-53.18395797
-50.40830642
-48.28805513
-46.85734971
-46.13837178
-7.10320956e-06
-5.103195926e-07
-1.055032401e-06
-1.475713888e-06
-1.607166428e-06
-1.675391148e-06
-1.736339644e-06
-1.791692916e-06
-1.837449775e-06
-1.879041968e-06
-1.915096876e-06
-1.949643451e-06
-1.980909178e-06
-2.010061867e-06
-2.037677406e-06
-2.062212782e-06
-2.08290099e-06
-2.099811729e-06
-2.111966106e-06
-2.117862952e-06
-2.118266364e-06
-2.111779664e-06
-2.09981246e-06
-2.082921693e-06
-2.062115763e-06
-2.037383986e-06
-2.009916291e-06
-1.981324531e-06
-1.949891869e-06
-1.915207827e-06
-1.878730183e-06
-1.837915202e-06
-1.791519254e-06
-1.737022001e-06
-1.675877203e-06
-1.606610322e-06
-1.474872916e-06
-1.055047706e-06
-5.107004751e-07
-7.103732566e-06
-8.054833408e-06
-6.585440834e-07
-9.16672097e-07
-1.318069044e-06
-1.481018683e-06
-1.577735604e-06
-1.657192258e-06
-1.722580711e-06
-1.772556612e-06
-1.807936974e-06
-1.83124107e-06
-1.845575152e-06
-1.853830744e-06
-1.858290984e-06
-1.860553776e-06
-1.8616321e-06
-1.862114668e-06
-1.862317213e-06
-1.862396248e-06
-1.862422626e-06
-1.862422797e-06
-1.86239676e-06
-1.862318069e-06
-1.862115872e-06
-1.861633653e-06
-1.86055568e-06
-1.85829323e-06
-1.853833311e-06
-1.845578007e-06
-1.831244167e-06
-1.807940267e-06
-1.772560073e-06
-1.722584354e-06
-1.657196136e-06
-1.577739775e-06
-1.48102313e-06
-1.318073691e-06
-9.166771507e-07
-6.585503548e-07
-8.054832927e-06
-3.011255202e-06
-2.04091295e-06
-1.925215041e-06
-1.922191282e-06
-1.899830454e-06
-1.88014268e-06
-1.869291859e-06
-1.864236615e-06
-1.862263159e-06
-1.861759417e-06
-1.861824863e-06
-1.862020948e-06
-1.862181531e-06
-1.862272969e-06
-1.862310391e-06
-1.862317454e-06
-1.862311994e-06
-1.862303983e-06
-1.862297733e-06
-1.862294577e-06
-1.862294739e-06
-1.862298219e-06
-1.862304796e-06
-1.862313141e-06
-1.86231894e-06
-1.862312225e-06
-1.862275157e-06
-1.862184071e-06
-1.862023825e-06
-1.861828052e-06
-1.861762885e-06
-1.862266879e-06
-1.864240589e-06
-1.869296121e-06
-1.880147269e-06
-1.899835331e-06
-1.922196299e-06
-1.92522016e-06
-2.04091817e-06
-3.011256892e-06
-2.669852857e-06
-2.230244991e-06
-2.033468531e-06
-1.948529796e-06
-1.902533194e-06
-1.87690676e-06
-1.864099175e-06
-1.858743221e-06
-1.857355218e-06
-1.857803049e-06
-1.858869761e-06
-1.859950629e-06
-1.860812182e-06
-1.861414842e-06
-1.861800366e-06
-1.862030704e-06
-1.862160837e-06
-1.862230664e-06
-1.862265627e-06
-1.862280037e-06
-1.862280186e-06
-1.862266075e-06
-1.862231417e-06
-1.862161906e-06
-1.862032106e-06
-1.861802122e-06
-1.861416975e-06
-1.860814708e-06
-1.859953552e-06
-1.858873066e-06
-1.857806705e-06
-1.857359189e-06
-1.85874749e-06
-1.864103764e-06
-1.876911705e-06
-1.902538454e-06
-1.948535165e-06
-2.033473751e-06
-2.230249968e-06
-2.66985561e-06
-2.481413779e-06
-2.217610459e-06
-2.067202389e-06
-1.980431077e-06
-1.926786202e-06
-1.894365143e-06
-1.876043549e-06
-1.866537109e-06
-1.862200684e-06
-1.860657185e-06
-1.860451521e-06
-1.860767916e-06
-1.861199877e-06
-1.861578347e-06
-1.861856555e-06
-1.862040916e-06
-1.862154386e-06
-1.862219923e-06
-1.862254793e-06
-1.862269774e-06
-1.862269911e-06
-1.862255208e-06
-1.862220628e-06
-1.862155404e-06
-1.862042279e-06
-1.861858302e-06
-1.861580517e-06
-1.861202498e-06
-1.860770995e-06
-1.860455029e-06
-1.860661065e-06
-1.862204865e-06
-1.866541538e-06
-1.876048232e-06
-1.894370134e-06
-1.926791505e-06
-1.980436503e-06
-2.06720758e-06
-2.21761513e-06
-2.481416148e-06
-2.406240702e-06
-2.211962867e-06
-2.082527938e-06
-1.997068506e-06
-1.941844623e-06
-1.907225424e-06
-1.886331457e-06
-1.874281408e-06
-1.867728921e-06
-1.864423607e-06
-1.862914293e-06
-1.862321421e-06
-1.862150158e-06
-1.862145424e-06
-1.862189323e-06
-1.862235249e-06
-1.862269547e-06
-1.862291449e-06
-1.862303776e-06
-1.86230926e-06
-1.862309391e-06
-1.862304177e-06
-1.862292138e-06
-1.862270556e-06
-1.862236622e-06
-1.862191112e-06
-1.862147678e-06
-1.862152907e-06
-1.862324662e-06
-1.862917978e-06
-1.864427647e-06
-1.867733208e-06
-1.87428586e-06
-1.886336068e-06
-1.907230272e-06
-1.941849773e-06
-1.997073832e-06
-2.082533063e-06
-2.211967497e-06
-2.406244236e-06
-368.7989745
-385.7635911
-420.0248829
-472.08419
-542.658172
-632.5728667
-742.6075276
-873.2666744
-1024.48875
-1195.321812
-1383.612956
-1585.764728
-1796.610024
-2009.449564
-2216.281658
-2408.227939
-2576.12513
-2711.233327
-2806.010397
-2854.882508
-2854.882235
-2806.009903
-2711.233649
-2576.128034
-2408.235829
-2216.297565
-2009.477237
-1796.653985
-1585.830376
-1383.706892
-1195.452417
-1024.667069
-873.5077661
-742.9325461
-633.0127177
-543.2620485
-472.946667
-421.3830522
-388.3155371
-374.4432598
-385.4784093
-400.5643779
-430.9573503
-476.941869
-538.9055266
-617.2417746
-712.2233249
-823.8325738
-951.5579356
-1094.177563
-1249.561522
-1414.527856
-1584.786735
-1755.000514
-1918.975956
-2069.987804
-2201.213382
-2306.24305
-2379.621878
-2417.364096
-2417.362934
-2379.618692
-2306.238734
-2201.209368
-2069.985996
-1918.978655
-1755.01033
-1584.806455
-1414.560339
-1249.60967
-1094.244351
-951.6464802
-823.9462438
-712.3657466
-617.4161089
-539.1107254
-477.1616899
-431.1582118
-400.9015764
-387.7589249
-390.5397813
-403.8038322
-430.4670036
-470.6553281
-524.5230597
-592.1704578
-673.5454375
-768.3197296
-875.7476552
-994.5230302
-1122.655269
-1257.388224
-1395.184052
-1531.789409
-1662.392738
-1781.870009
-1885.103741
-1967.349265
-2024.61371
-2054.005141
-2054.003467
-2024.60898
-1967.342333
-1885.09597
-1781.863205
-1662.389058
-1531.791258
-1395.193946
-1257.40869
-1122.688786
-994.5719886
-875.8143419
-768.4063512
-673.6542324
-592.3038873
-524.6828852
-470.8336185
-430.6135562
-403.8489108
-391.4747192
-385.6314262
-397.1733845
-420.3297564
-455.1168495
-501.5318613
-559.4864687
-628.7327472
-708.7742825
-798.7693223
-897.4372677
-1002.982943
-1113.054282
-1224.74781
-1334.672529
-1439.076678
-1534.034107
-1615.678584
-1680.466834
-1725.444997
-1748.488858
-1748.486849
-1725.439242
-1680.458127
-1615.668192
-1534.023707
-1439.068277
-1334.668364
-1224.750254
-1113.065755
-1003.005853
-897.4739544
-798.8220029
-708.8450042
-628.8233923
-559.5990069
-501.6690089
-455.2803154
-420.4992152
-397.2644079
-386.072077
-372.2507498
-382.1959315
-402.1150691
-431.9534276
-471.6093333
-520.8821785
-579.4180078
-646.6468031
-721.7169937
-803.4354273
-890.2227504
-980.094591
-1070.677769
-1159.267907
-1242.93049
-1318.642066
-1383.462665
-1434.725321
-1470.224673
-1488.384221
-1488.382053
-1470.218404
-1434.715644
-1383.450691
-1318.629275
-1242.918667
-1159.259077
-1070.674122
-980.0984226
-890.2363973
-803.4612025
-721.757116
-646.7033221
-579.4927348
-520.9767243
-471.7256307
-432.0945757
-402.2775928
-382.3295232
-372.5123751
-351.7379499
-360.2226328
-377.1917515
-402.5488525
-436.136274
-477.6953814
-526.8274799
-582.9503508
-645.2547358
-712.6667492
-783.8230943
-857.0659929
-930.4637063
-1001.860402
-1068.956051
-1129.413362
-1180.984941
-1221.650448
-1249.750987
-1264.106758
-1264.104587
-1249.744664
-1221.640537
-1180.972355
-1129.399336
-1068.942104
-1001.848297
-930.4554091
-857.0636203
-783.8288571
-712.6828825
-645.2834219
-582.9936385
-526.8872026
-477.7730954
-436.2334197
-402.6676267
-377.3336258
-360.3644269
-351.928016
-325.2770898
-332.4378656
-346.7411514
-368.0702413
-396.2421884
-430.977986
-471.8750748
-518.3778036
-569.7491391
-625.0479517
-683.1166278
-742.5835998
-801.8845177
-859.3042069
-913.0393877
-961.2795928
-1002.301149
-1034.56683
-1056.822197
-1068.179044
-1068.176985
-1056.816164
-1034.557252
-1002.288735
-961.2653197
-913.0244941
-859.2901756
-801.8730533
-742.576594
-683.1161076
-625.0560133
-569.7678708
-518.4092063
-471.9209836
-431.0399906
-396.3216149
-368.1685653
-346.8602947
-332.5686708
-325.429819
-293.9046709
-299.8710858
-311.7757113
-329.4968349
-352.847627
-381.5541864
-415.2366097
-453.3893482
-495.3633195
-540.3528794
-587.3909344
-635.355237
-682.9882069
-728.9314523
-771.7746357
-810.1165762
-842.6347528
-868.157888
-885.7353054
-894.6964605
-894.6945857
-885.7297834
-868.1490281
-842.6230768
-810.1028275
-771.7597873
-728.9167105
-682.9750043
-635.3452099
-587.385881
-540.3547015
-495.3739519
-453.4106836
-415.2704243
-381.6020647
-352.9108912
-329.576653
-311.8735335
-299.9837137
-294.03076
-258.5231475
-263.4129081
-273.1601372
-287.648634
-306.7022093
-330.0688303
-357.4078742
-388.2773913
-422.123187
-458.2719378
-495.9305917
-534.1940647
-572.0626911
-608.4700333
-642.3205764
-672.5356306
-698.1046041
-718.1378352
-731.9165653
-738.9355017
-738.9338494
-731.9116783
-718.129928
-698.0940489
-672.522976
-642.3065669
-608.455624
-572.049051
-534.1825645
-495.9227724
-458.2694631
-422.1277824
-388.290777
-357.4316961
-330.1045906
-306.7511928
-287.7118874
-273.2387094
-263.5058592
-258.6264904
-219.917333
-223.8333964
-231.6333395
-243.2135135
-258.4179445
-277.0271439
-298.7497385
-323.2144513
-349.963739
-378.4506404
-408.0403717
-438.0179867
-467.6029982
-495.9712413
-522.2835058
-545.7196408
-565.5160622
-581.0039568
-591.6451033
-597.0621819
-597.0607711
-591.6409179
-580.9971436
-565.506883
-545.7084946
-522.270952
-495.9580189
-467.5900341
-438.0063911
-408.0314158
-378.4457202
-349.9643256
-323.2220343
-298.7657652
-277.0529589
-258.4547244
-243.2622134
-231.6947763
-223.9074418
-220.0001346
-178.7721644
-181.801131
-187.829967
-196.7721343
-208.4979864
-222.8271189
-239.5230387
-258.2882946
-278.7609856
-300.5137183
-323.056043
-345.8412201
-368.2778584
-389.7465316
-409.6209603
-427.2927962
-442.1985275
-453.8466222
-461.8427922
-465.9112532
-465.9100955
-461.8393511
-453.8409986
-442.1909057
-427.2834641
-409.6103311
-389.7351618
-368.2664588
-345.8306536
-323.0473112
-300.5079343
-278.7593367
-258.2919973
-239.5332894
-222.8450448
-208.5245942
-196.8082601
-187.8762892
-181.8578257
-178.8362889
-135.6907577
-137.9020964
-142.3008444
-148.82042
-157.3612582
-167.785858
-179.9155348
-193.527603
-208.3536056
-224.0793039
-240.3470918
-256.7613695
-272.897194
-288.3122288
-302.5616705
-315.2154727
-325.876855
-334.2008333
-339.9113655
-342.8157191
-342.8148259
-339.9087077
-334.1964803
-325.8709351
-315.2081887
-302.5533169
-288.3032066
-272.8880194
-256.7526748
-240.3396164
-224.0738757
-208.351115
-193.5289701
-179.9216733
-167.7976386
-157.3794737
-148.8457516
-142.3338591
-137.9431041
-135.7379002
-91.21209887
-92.65784131
-95.5320113
-99.78967722
-105.3635448
-112.1611125
-120.0628571
-128.920731
-138.55736
-148.7663719
-159.3142569
-169.9440686
-180.3811405
-190.3408076
-199.5379174
-207.6976947
-214.5673327
-219.9275316
-223.6031312
-225.4719908
-225.4713762
-223.6013014
-219.9245315
-214.563245
-207.6926511
-199.5321093
-190.3344968
-180.3746648
-169.9378434
-159.3087695
-148.7621706
-138.5550372
-128.9209024
-120.0661385
-112.1680969
-105.3747815
-99.80565665
-95.55317228
-92.68454362
-91.24356441
-45.82809081
-46.54269189
-47.9623495
-50.06465731
-52.81574377
-56.16915101
-60.06504108
-64.42955481
-69.17451837
-74.19770321
-79.38382561
-84.6064286
-89.7307222
-94.61737143
-99.12712253
-103.1260566
-106.4911695
-109.1159073
-110.9152543
-111.8299743
-111.829656
-110.9143064
-109.1143518
-106.4890477
-103.1234338
-99.12409371
-94.61406666
-89.72730965
-84.60311523
-79.38085478
-74.19534933
-69.17307876
-64.42933957
-60.06636182
-56.17230988
-52.8210247
-50.07232262
-47.97265461
-46.55592286
-45.84436645
-7.103049191e-06
-5.100732057e-07
-1.054943813e-06
-1.475320223e-06
-1.607037705e-06
-1.675753152e-06
-1.735933023e-06
-1.790576331e-06
-1.836409744e-06
-1.876356948e-06
-1.913737017e-06
-1.947602128e-06
-1.9771536e-06
-2.005919928e-06
-2.032549304e-06
-2.058016756e-06
-2.078860371e-06
-2.094559786e-06
-2.106201655e-06
-2.112707781e-06
-2.113022668e-06
-2.106251274e-06
-2.094412985e-06
-2.078743372e-06
-2.057752517e-06
-2.032541087e-06
-2.006403779e-06
-1.97776558e-06
-1.94706358e-06
-1.913533109e-06
-1.876349968e-06
-1.836845598e-06
-1.790028894e-06
-1.735494137e-06
-1.676121215e-06
-1.607819288e-06
-1.47517767e-06
-1.054811801e-06
-5.105135917e-07
-7.103357865e-06
-8.054807312e-06
-6.585213115e-07
-9.166504456e-07
-1.318048211e-06
-1.480998553e-06
-1.577716059e-06
-1.657173195e-06
-1.722562017e-06
-1.772538152e-06
-1.807918606e-06
-1.831222659e-06
-1.845556589e-06
-1.853811949e-06
-1.858271919e-06
-1.860534431e-06
-1.861612495e-06
-1.862094837e-06
-1.862297204e-06
-1.862376119e-06
-1.862402436e-06
-1.862402612e-06
-1.862376643e-06
-1.862298077e-06
-1.862096057e-06
-1.861614059e-06
-1.860536333e-06
-1.85827414e-06
-1.853814467e-06
-1.84555937e-06
-1.831225669e-06
-1.807921814e-06
-1.772541548e-06
-1.722565623e-06
-1.65717706e-06
-1.577720218e-06
-1.481002978e-06
-1.318052869e-06
-9.166556133e-07
-6.585280087e-07
-8.05480883e-06
-3.011262564e-06
-2.040919588e-06
-1.925221924e-06
-1.922198597e-06
-1.899838255e-06
-1.880150963e-06
-1.869300594e-06
-1.864245737e-06
-1.862272572e-06
-1.861769003e-06
-1.861834509e-06
-1.862030556e-06
-1.862191032e-06
-1.862282323e-06
-1.862319584e-06
-1.862326495e-06
-1.862320906e-06
-1.862312795e-06
-1.862306478e-06
-1.862303292e-06
-1.862303459e-06
-1.862306979e-06
-1.862313629e-06
-1.862322075e-06
-1.862328001e-06
-1.862321428e-06
-1.862284503e-06
-1.862193541e-06
-1.86203338e-06
-1.861837627e-06
-1.861772395e-06
-1.862276226e-06
-1.864249665e-06
-1.869304826e-06
-1.880155518e-06
-1.89984308e-06
-1.922203578e-06
-1.925227097e-06
-2.040925194e-06
-3.011265928e-06
-2.669838584e-06
-2.230232615e-06
-2.033457014e-06
-1.9485189e-06
-1.902522846e-06
-1.876896906e-06
-1.864089757e-06
-1.858734163e-06
-1.857346422e-06
-1.857794406e-06
-1.858861165e-06
-1.85994199e-06
-1.860803433e-06
-1.861405943e-06
-1.861791301e-06
-1.862021479e-06
-1.862151471e-06
-1.862221189e-06
-1.862256078e-06
-1.862270453e-06
-1.862270606e-06
-1.862256539e-06
-1.862221962e-06
-1.862152564e-06
-1.862022904e-06
-1.861793075e-06
-1.861408082e-06
-1.860805951e-06
-1.859944889e-06
-1.858864434e-06
-1.85779802e-06
-1.857350354e-06
-1.858738399e-06
-1.864094306e-06
-1.876901775e-06
-1.902527964e-06
-1.948524086e-06
-2.03346216e-06
-2.230237985e-06
-2.669843041e-06
-2.481400533e-06
-2.217598156e-06
-2.067190678e-06
-1.980419754e-06
-1.926775209e-06
-1.894354472e-06
-1.876033186e-06
-1.866527021e-06
-1.86219082e-06
-1.860647478e-06
-1.860441897e-06
-1.860758303e-06
-1.861190212e-06
-1.861568586e-06
-1.861846673e-06
-1.862030905e-06
-1.862144256e-06
-1.862209697e-06
-1.8622445e-06
-1.862259448e-06
-1.862259589e-06
-1.862244923e-06
-1.862210413e-06
-1.862145285e-06
-1.862032272e-06
-1.861848411e-06
-1.861570732e-06
-1.861192793e-06
-1.860761329e-06
-1.860445352e-06
-1.86065132e-06
-1.862194992e-06
-1.86653148e-06
-1.876037923e-06
-1.894359498e-06
-1.926780464e-06
-1.980425017e-06
-2.067195737e-06
-2.217603207e-06
-2.481404752e-06
-2.406238534e-06
-2.211961248e-06
-2.082526786e-06
-1.997067548e-06
-1.941843806e-06
-1.907224779e-06
-1.886331012e-06
-1.874281181e-06
-1.867728905e-06
-1.864423772e-06
-1.86291459e-06
-1.862321788e-06
-1.862150534e-06
-1.862145758e-06
-1.862189578e-06
-1.862235408e-06
-1.862269611e-06
-1.862291431e-06
-1.862303699e-06
-1.862309152e-06
-1.862309285e-06
-1.862304102e-06
-1.862292119e-06
-1.862270611e-06
-1.862236756e-06
-1.862191317e-06
-1.862147932e-06
-1.862153177e-06
-1.862324907e-06
-1.86291816e-06
-1.864427737e-06
-1.867733193e-06
-1.874285733e-06
-1.88633582e-06
-1.907229868e-06
-1.941849146e-06
-1.997072918e-06
-2.082531875e-06
-2.211966307e-06
-2.406244429e-06
-361.4987552
-377.929013
-411.1047894
-461.4987642
-529.7868006
-616.7468472
-723.110234
-849.3436366
-995.3689053
-1160.249749
-1341.891093
-1536.80404
-1739.987459
-1944.968845
-2144.032045
-2328.634481
-2489.984704
-2619.728582
-2710.68639
-2757.569872
-2757.568902
-2710.683777
-2619.725197
-2489.981958
-2328.634284
-2144.03675
-1944.981155
-1740.01028
-1536.840361
-1341.943936
-1160.322169
-995.4640265
-849.464709
-723.260553
-616.9291626
-530.0015614
-461.7431985
-411.3984784
-378.5064386
-363.6260492
-378.4199121
-393.0577749
-422.5434128
-467.1440542
-527.2233337
-603.1478276
-695.165747
-803.2441176
-926.8726959
-1064.855259
-1215.118612
-1374.574171
-1539.065667
-1703.429909
-1861.685796
-2007.350079
-2133.859448
-2235.06304
-2305.73947
-2342.08175
-2342.080264
-2305.735301
-2235.057029
-2133.852962
-2007.344966
-1861.684315
-1703.434597
-1539.079189
-1374.599196
-1215.157728
-1064.910929
-926.947243
-803.3397532
-695.2846864
-603.2924819
-527.395383
-467.3354475
-422.7037694
-393.1170754
-379.3684028
-383.8528433
-396.7445292
-422.6558975
-461.7032138
-514.0277659
-579.7164229
-658.7070412
-750.6692593
-854.8684023
-970.0274736
-1094.207756
-1224.731031
-1358.165161
-1490.389748
-1616.750073
-1732.29629
-1832.092633
-1911.570614
-1966.891994
-1995.280681
-1995.278773
-1966.886547
-1911.562446
-1832.083069
-1732.287113
-1616.743444
-1490.388087
-1358.171018
-1224.746984
-1094.236332
-970.0710932
-854.9293324
-750.7495637
-658.8085884
-579.8412806
-514.1795761
-461.8865069
-422.8482137
-396.8185985
-384.3240982
-379.4063932
-390.6413486
-413.1794225
-447.0320611
-492.1904945
-548.5613479
-615.8952136
-693.7009396
-781.152226
-876.9974703
-979.4869
-1086.332222
-1194.712772
-1301.338382
-1402.573132
-1494.616552
-1573.730645
-1636.493776
-1680.056706
-1702.372356
-1702.370162
-1680.050382
-1636.484082
-1573.718814
-1494.604236
-1402.56233
-1301.331347
-1194.711917
-1086.340033
-979.5058683
-877.0300273
-781.2006817
-693.7674029
-615.9814832
-548.668915
-492.3215307
-447.1923912
-413.3691899
-390.7740225
-379.6975608
-366.5474613
-376.2413244
-395.655388
-424.7331446
-463.3712545
-511.3689993
-568.3757266
-633.830301
-706.8979063
-786.412186
-870.8323905
-958.2256309
-1046.283184
-1132.376984
-1213.658177
-1287.19439
-1350.136867
-1399.903696
-1434.361556
-1451.986431
-1451.9841
-1434.354788
-1399.893163
-1350.123659
-1287.179974
-1213.644339
-1132.365766
-1046.276818
-958.2264719
-870.8428489
-786.4346584
-706.9347018
-633.8835637
-568.4473326
-511.4604099
-463.4837207
-424.8700467
-395.8227404
-376.3959375
-366.7650351
-346.593183
-354.8735502
-371.4328247
-396.1746297
-428.9421383
-469.4793292
-517.3931879
-572.1117083
-632.8418837
-698.5334969
-767.8553903
-839.1909207
-910.6582944
-980.1593861
-1045.457644
-1104.282087
-1154.450707
-1194.003286
-1221.33125
-1235.291121
-1235.288785
-1221.324432
-1193.99255
-1154.436972
-1104.2666
-1045.441949
-980.145282
-910.6477922
-839.1861924
-767.8587065
-698.5471542
-632.8681258
-572.1526493
-517.4507351
-469.5550628
-429.0371985
-396.2907362
-371.5749989
-355.0237852
-346.7721558
-320.7106602
-327.7065686
-341.679712
-362.5144742
-390.0300599
-423.9513752
-463.8824201
-509.2777285
-559.4150561
-613.3735223
-670.0218228
-728.0209687
-785.8451534
-841.8228068
-894.1977697
-941.2080542
-981.1771584
-1012.610731
-1034.289882
-1045.35188
-1045.349649
-1034.283339
-1012.600327
-981.1636332
-941.1924303
-894.1813356
-841.8070995
-785.8319324
-728.0121774
-670.0195352
-613.3798745
-559.4321701
-509.3076355
-463.9269934
-424.0122512
-390.1084961
-362.6116041
-341.7986401
-327.8407865
-320.8619981
-289.924442
-295.7590288
-307.4001094
-324.7275224
-347.5571413
-375.6193828
-408.5408756
-445.8254649
-486.8369477
-530.7865638
-576.7284285
-623.565862
-670.07088
-714.9179708
-756.7317855
-794.1466683
-825.8742739
-850.7740914
-867.9207534
-876.66175
-876.6597045
-867.9147313
-850.7644354
-825.8615574
-794.1316976
-756.7156017
-714.901847
-670.0563085
-623.5545283
-576.7221681
-530.7873035
-486.8466371
-445.8460047
-408.5740513
-375.6668023
-347.6201316
-324.8071048
-307.4981281
-295.8735156
-290.051869
-255.1291014
-259.9147563
-269.4541945
-283.6328753
-302.2773825
-325.1398604
-351.8856669
-382.081058
-415.1826617
-450.5308965
-487.3495268
-524.7533055
-561.7651153
-597.3431854
-630.4179051
-659.9365899
-684.9134246
-704.4808726
-717.9382589
-724.7931158
-724.7913099
-717.9329239
-704.4722598
-684.9019617
-659.9228929
-630.4027898
-597.3276748
-561.7504372
-524.7408762
-487.340919
-450.527792
-415.1867931
-382.0941449
-351.9093515
-325.1756496
-302.3265741
-283.6964739
-269.5334078
-260.0092352
-255.2345116
-217.1047899
-220.940154
-228.5792644
-239.9200268
-254.8090171
-273.0304631
-294.2981357
-318.2476001
-344.4300921
-372.3095373
-401.2642065
-430.5942871
-459.5362392
-487.2842006
-513.0179697
-535.9362973
-555.2934616
-570.436493
-580.8400506
-586.1359142
-586.1343785
-580.8355018
-570.4291099
-555.2835546
-535.9243242
-513.0045526
-487.270138
-459.5225102
-430.5820426
-401.2547466
-372.3042753
-344.4305066
-318.2551808
-294.314326
-273.0566053
-254.8462962
-239.9693958
-228.6416286
-221.0157049
-217.1897894
-176.5342375
-179.5024931
-185.4104896
-194.1730141
-205.662576
-219.7018491
-236.0585086
-254.4405297
-274.4928387
-295.7963608
-317.8704673
-340.1796497
-362.1449451
-383.1602103
-402.6128375
-419.9079665
-434.4947483
-445.8928203
-453.7169351
-457.6976756
-457.6964257
-453.7132257
-445.8867758
-434.4865891
-419.8980246
-402.6015735
-383.1482276
-362.1329962
-340.1686325
-317.86141
-295.7903953
-274.4911634
-254.4443661
-236.0690537
-219.7202291
-205.6898026
-194.2099337
-185.4578418
-179.5606514
-176.6004436
-134.0201536
-136.1881532
-140.5007247
-146.8923164
-155.2650308
-165.4837165
-177.3728241
-190.7136897
-205.2428468
-220.6520601
-236.5907297
-252.6711868
-268.4771854
-283.5756095
-297.5310798
-309.9227911
-320.3625937
-328.5130832
-334.1043325
-336.9479043
-336.946949
-334.1014936
-328.5084451
-320.3563077
-309.915089
-297.522288
-283.5661616
-268.4676287
-252.6621812
-236.5830379
-220.6465289
-205.2403804
-190.7152172
-177.3792641
-165.4959421
-155.2838393
-146.9184009
-140.5346978
-136.2304558
-134.0690867
-90.10238271
-91.52026238
-94.33906182
-98.51455213
-103.9805692
-110.6461906
-118.3939803
-127.0785429
-136.5257641
-146.5331595
-156.871721
-167.2895617
-177.5175275
-187.2767651
-196.2880319
-204.2823227
-211.0121995
-216.263063
-219.8635356
-221.6941289
-221.6934769
-219.8615963
-216.2598894
-211.0078871
-204.2770196
-196.2819483
-187.2701829
-177.5108049
-167.2831333
-156.866092
-146.5288939
-136.5234671
-127.0788399
-118.3974934
-110.6535166
-103.992262
-98.53111222
-94.36095956
-91.54794322
-90.13518776
-45.27451972
-45.97549855
-47.36808609
-49.430236
-52.1286461