/*--------------------------------*- C++ -*----------------------------------*\
  =========                 |
  \\      /  F ield         | OpenFOAM: The Open Source CFD Toolbox
   \\    /   O peration     | Website:  https://openfoam.org
    \\  /    A nd           | Version:  10
     \\/     M anipulation  |
\*---------------------------------------------------------------------------*/
FoamFile
{
    format      ascii;
    class       volScalarField;
    location    "0.0003";
    object      Qv;
}
// * * * * * * * * * * * * * * * * * * * * * * * * * * * * * * * * * * * * * //

dimensions      [1 0 -3 0 0 0 0];

internalField   nonuniform List<scalar> 
16000
(
2.279955763e-59
2.285069631e-59
2.299163651e-59
2.322284455e-59
2.354560136e-59
2.396224019e-59
2.447627493e-59
2.509236981e-59
2.581605642e-59
2.665297057e-59
2.760724018e-59
2.867866054e-59
2.9858587e-59
3.11250634e-59
3.243835331e-59
3.373843085e-59
3.494615487e-59
3.596973601e-59
3.671706387e-59
3.711228756e-59
3.711228757e-59
3.671706393e-59
3.596973619e-59
3.494615525e-59
3.373843146e-59
3.243835413e-59
3.112506431e-59
2.985858786e-59
2.867866121e-59
2.760724055e-59
2.665297057e-59
2.581605607e-59
2.509236916e-59
2.447627408e-59
2.396223924e-59
2.354560042e-59
2.322284369e-59
2.299163575e-59
2.285069564e-59
2.2799557e-59
2.230648964e-59
2.230894783e-59
2.235130558e-59
2.243291384e-59
2.255309757e-59
2.271128857e-59
2.290709487e-59
2.314027985e-59
2.341062567e-59
2.371762865e-59
2.405994925e-59
2.443456422e-59
2.483567868e-59
2.525362693e-59
2.567413071e-59
2.607829257e-59
2.64435836e-59
2.674590995e-59
2.696260339e-59
2.707586408e-59
2.707586409e-59
2.696260343e-59
2.674591004e-59
2.644358375e-59
2.607829279e-59
2.567413099e-59
2.525362725e-59
2.483567899e-59
2.443456448e-59
2.405994943e-59
2.371762872e-59
2.341062562e-59
2.314027971e-59
2.290709465e-59
2.271128832e-59
2.255309731e-59
2.24329136e-59
2.235130536e-59
2.230894764e-59
2.230648946e-59
2.20998072e-59
2.208240276e-59
2.20846973e-59
2.210593446e-59
2.214518521e-59
2.220146741e-59
2.227383172e-59
2.236139336e-59
2.246329903e-59
2.257861932e-59
2.270615387e-59
2.284414777e-59
2.298995221e-59
2.313971239e-59
2.328820093e-59
2.342890523e-59
2.355442148e-59
2.365713764e-59
2.373011992e-59
2.376805546e-59
2.376805547e-59
2.373011993e-59
2.365713767e-59
2.355442153e-59
2.342890531e-59
2.328820104e-59
2.31397125e-59
2.298995233e-59
2.284414787e-59
2.270615395e-59
2.257861936e-59
2.246329903e-59
2.236139333e-59
2.227383167e-59
2.220146734e-59
2.214518514e-59
2.210593439e-59
2.208469725e-59
2.20824027e-59
2.209980715e-59
2.201551629e-59
2.199014289e-59
2.197638939e-59
2.197351383e-59
2.19805764e-59
2.199655921e-59
2.202046597e-59
2.205138189e-59
2.208848658e-59
2.213101993e-59
2.217820549e-59
2.222913984e-59
2.228266634e-59
2.23372645e-59
2.239099496e-59
2.244153417e-59
2.248631269e-59
2.252274477e-59
2.254851511e-59
2.256187249e-59
2.25618725e-59
2.254851512e-59
2.252274479e-59
2.248631271e-59
2.24415342e-59
2.2390995e-59
2.233726455e-59
2.228266638e-59
2.222913988e-59
2.217820552e-59
2.213101995e-59
2.208848659e-59
2.205138189e-59
2.202046595e-59
2.19965592e-59
2.198057638e-59
2.197351381e-59
2.197638938e-59
2.199014287e-59
2.201551628e-59
2.198221286e-59
2.195372614e-59
2.193370651e-59
2.192142654e-59
2.191595708e-59
2.191628865e-59
2.19214383e-59
2.193052257e-59
2.194278908e-59
2.195760978e-59
2.197444435e-59
2.199278488e-59
2.201209469e-59
2.203175531e-59
2.205103658e-59
2.206910072e-59
2.20850444e-59
2.209797312e-59
2.210709484e-59
2.211181521e-59
2.211181521e-59
2.210709485e-59
2.209797313e-59
2.208504441e-59
2.206910073e-59
2.205103659e-59
2.203175533e-59
2.20120947e-59
2.199278489e-59
2.197444436e-59
2.195760979e-59
2.194278908e-59
2.193052257e-59
2.19214383e-59
2.191628864e-59
2.191595708e-59
2.192142654e-59
2.193370651e-59
2.195372614e-59
2.198221286e-59
2.196948312e-59
2.193981661e-59
2.191742281e-59
2.190158111e-59
2.189136884e-59
2.188578376e-59
2.188385426e-59
2.188471776e-59
2.188765987e-59
2.189211758e-59
2.189765627e-59
2.190393225e-59
2.191065175e-59
2.19175351e-59
2.192429264e-59
2.193061624e-59
2.193618683e-59
2.194069525e-59
2.194387109e-59
2.194551287e-59
2.194551287e-59
2.194387109e-59
2.194069526e-59
2.193618684e-59
2.193061625e-59
2.192429264e-59
2.19175351e-59
2.191065175e-59
2.190393225e-59
2.189765627e-59
2.189211759e-59
2.188765987e-59
2.188471776e-59
2.188385426e-59
2.188578376e-59
2.189136884e-59
2.190158111e-59
2.19174228e-59
2.193981661e-59
2.196948312e-59
2.196477678e-59
2.193467711e-59
2.191141165e-59
2.189426248e-59
2.188230978e-59
2.187455479e-59
2.187003149e-59
2.186788716e-59
2.186742443e-59
2.186810806e-59
2.186954651e-59
2.18714602e-59
2.187364665e-59
2.187594973e-59
2.187823691e-59
2.1880386e-59
2.188228078e-59
2.188381363e-59
2.188489264e-59
2.188545013e-59
2.188545013e-59
2.188489264e-59
2.188381363e-59
2.188228078e-59
2.1880386e-59
2.187823691e-59
2.187594973e-59
2.187364665e-59
2.18714602e-59
2.186954651e-59
2.186810806e-59
2.186742443e-59
2.186788716e-59
2.187003149e-59
2.187455479e-59
2.188230978e-59
2.189426248e-59
2.191141165e-59
2.193467711e-59
2.196477678e-59
2.19630942e-59
2.193284039e-59
2.190926475e-59
2.189165039e-59
2.187907858e-59
2.187055205e-59
2.186510715e-59
2.186189527e-59
2.186022593e-59
2.185957487e-59
2.185956709e-59
2.185994689e-59
2.186054488e-59
2.186124864e-59
2.186198023e-59
2.186268122e-59
2.18633043e-59
2.186380994e-59
2.186416623e-59
2.186435036e-59
2.186435036e-59
2.186416623e-59
2.186380994e-59
2.18633043e-59
2.186268122e-59
2.186198023e-59
2.186124864e-59
2.186054489e-59
2.185994689e-59
2.185956709e-59
2.185957487e-59
2.186022593e-59
2.186189527e-59
2.186510715e-59
2.187055205e-59
2.187907858e-59
2.189165039e-59
2.190926475e-59
2.193284039e-59
2.19630942e-59
2.196251419e-59
2.19322071e-59
2.190852425e-59
2.189074916e-59
2.187796355e-59
2.186917076e-59
2.186340808e-59
2.185982849e-59
2.185774418e-59
2.185663496e-59
2.18561319e-59
2.185598783e-59
2.185604496e-59
2.185620584e-59
2.185641099e-59
2.185662325e-59
2.185681816e-59
2.185697859e-59
2.185709232e-59
2.185715125e-59
2.185715125e-59
2.185709232e-59
2.185697859e-59
2.185681816e-59
2.185662325e-59
2.185641099e-59
2.185620584e-59
2.185604496e-59
2.185598783e-59
2.18561319e-59
2.185663496e-59
2.185774418e-59
2.185982849e-59
2.186340808e-59
2.186917076e-59
2.187796355e-59
2.189074916e-59
2.190852425e-59
2.19322071e-59
2.196251419e-59
2.196232466e-59
2.19319995e-59
2.190828036e-59
2.189045094e-59
2.187759319e-59
2.186871073e-59
2.186284126e-59
2.185913839e-59
2.185691525e-59
2.185565313e-59
2.18549852e-59
2.185466726e-59
2.185454538e-59
2.185452714e-59
2.185455907e-59
2.185461096e-59
2.185466566e-59
2.185471324e-59
2.18547478e-59
2.185476588e-59
2.185476588e-59
2.18547478e-59
2.185471324e-59
2.185466566e-59
2.185461096e-59
2.185455907e-59
2.185452714e-59
2.185454538e-59
2.185466726e-59
2.18549852e-59
2.185565313e-59
2.185691525e-59
2.185913839e-59
2.186284126e-59
2.186871073e-59
2.187759319e-59
2.189045094e-59
2.190828036e-59
2.19319995e-59
2.196232466e-59
2.196227121e-59
2.193193982e-59
2.190820821e-59
2.189036024e-59
2.187747806e-59
2.186856548e-59
2.186266041e-59
2.185891675e-59
2.185664798e-59
2.185533589e-59
2.185461435e-59
2.185424011e-59
2.185406051e-59
2.185398471e-59
2.185396117e-59
2.185396183e-59
2.185397185e-59
2.185398354e-59
2.185399294e-59
2.185399806e-59
2.185399806e-59
2.185399294e-59
2.185398354e-59
2.185397185e-59
2.185396183e-59
2.185396117e-59
2.185398471e-59
2.185406051e-59
2.185424011e-59
2.185461435e-59
2.185533589e-59
2.185664798e-59
2.185891675e-59
2.186266041e-59
2.186856548e-59
2.187747806e-59
2.189036024e-59
2.190820821e-59
2.193193982e-59
2.196227121e-59
2.196226664e-59
2.193193272e-59
2.190819617e-59
2.189034102e-59
2.187744962e-59
2.186852603e-59
2.186260834e-59
2.185885061e-59
2.185656647e-59
2.185523789e-59
2.185449895e-59
2.185410665e-59
2.185390871e-59
2.185381477e-59
2.185377384e-59
2.18537585e-59
2.185375463e-59
2.185375518e-59
2.185375679e-59
2.185375789e-59
2.185375789e-59
2.185375679e-59
2.185375518e-59
2.185375463e-59
2.18537585e-59
2.185377384e-59
2.185381477e-59
2.185390871e-59
2.185410665e-59
2.185449895e-59
2.185523789e-59
2.185656647e-59
2.185885061e-59
2.186260834e-59
2.186852603e-59
2.187744962e-59
2.189034102e-59
2.190819617e-59
2.193193272e-59
2.196226664e-59
2.196228269e-59
2.193194722e-59
2.190820773e-59
2.189034849e-59
2.187745216e-59
2.186852305e-59
2.186259951e-59
2.185883574e-59
2.185654548e-59
2.185521075e-59
2.185446565e-59
2.185406725e-59
2.185386331e-59
2.185376356e-59
2.185371717e-59
2.185369687e-59
2.185368872e-59
2.185368587e-59
2.18536851e-59
2.185368498e-59
2.185368498e-59
2.18536851e-59
2.185368587e-59
2.185368872e-59
2.185369687e-59
2.185371717e-59
2.185376356e-59
2.185386331e-59
2.185406725e-59
2.185446565e-59
2.185521075e-59
2.185654548e-59
2.185883574e-59
2.186259951e-59
2.186852305e-59
2.187745216e-59
2.189034849e-59
2.190820773e-59
2.193194722e-59
2.196228269e-59
2.196231108e-59
2.193197411e-59
2.190823183e-59
2.189036886e-59
2.187746822e-59
2.18685346e-59
2.186260664e-59
2.185883874e-59
2.185654474e-59
2.185520667e-59
2.185445862e-59
2.185405758e-59
2.185385128e-59
2.185374942e-59
2.185370114e-59
2.185367921e-59
2.185366968e-59
2.185366575e-59
2.185366425e-59
2.185366375e-59
2.185366375e-59
2.185366425e-59
2.185366575e-59
2.185366968e-59
2.185367921e-59
2.185370114e-59
2.185374942e-59
2.185385128e-59
2.185405758e-59
2.185445862e-59
2.185520667e-59
2.185654474e-59
2.185883874e-59
2.186260664e-59
2.18685346e-59
2.187746822e-59
2.189036886e-59
2.190823183e-59
2.193197411e-59
2.196231108e-59
2.196234992e-59
2.193201117e-59
2.190826565e-59
2.189039836e-59
2.187749283e-59
2.186855421e-59
2.186262152e-59
2.185884943e-59
2.185655188e-59
2.185521091e-59
2.185446055e-59
2.185405769e-59
2.185384997e-59
2.185374699e-59
2.185369784e-59
2.185367521e-59
2.185366515e-59
2.185366083e-59
2.185365906e-59
2.185365844e-59
2.185365844e-59
2.185365906e-59
2.185366083e-59
2.185366515e-59
2.185367521e-59
2.185369784e-59
2.185374699e-59
2.185384997e-59
2.185405769e-59
2.185446055e-59
2.185521091e-59
2.185655188e-59
2.185884943e-59
2.186262152e-59
2.186855421e-59
2.187749283e-59
2.189039836e-59
2.190826565e-59
2.193201117e-59
2.196234992e-59
2.196244787e-59
2.193210483e-59
2.190835148e-59
2.189047384e-59
2.187755663e-59
2.186860617e-59
2.186266243e-59
2.185888068e-59
2.185657514e-59
2.185522788e-59
2.185447274e-59
2.185406639e-59
2.185385617e-59
2.185375144e-59
2.185370108e-59
2.185367764e-59
2.185366704e-59
2.185366237e-59
2.18536604e-59
2.185365968e-59
2.185365968e-59
2.18536604e-59
2.185366237e-59
2.185366704e-59
2.185367764e-59
2.185370108e-59
2.185375144e-59
2.185385617e-59
2.185406639e-59
2.185447274e-59
2.185522788e-59
2.185657514e-59
2.185888068e-59
2.186266243e-59
2.186860617e-59
2.187755663e-59
2.189047384e-59
2.190835148e-59
2.193210483e-59
2.196244787e-59
2.198126083e-59
2.195016302e-59
2.192502625e-59
2.190530108e-59
2.189027261e-59
2.187914603e-59
2.187112806e-59
2.186549083e-59
2.186161168e-59
2.185898903e-59
2.185723939e-59
2.185608249e-59
2.185532111e-59
2.185482078e-59
2.1854492e-59
2.185427627e-59
2.185413591e-59
2.185404696e-59
2.185399464e-59
2.185397043e-59
2.185397043e-59
2.185399464e-59
2.185404696e-59
2.185413591e-59
2.185427627e-59
2.1854492e-59
2.185482078e-59
2.185532111e-59
2.185608249e-59
2.185723939e-59
2.185898903e-59
2.186161168e-59
2.186549083e-59
2.187112806e-59
2.187914603e-59
2.189027261e-59
2.190530108e-59
2.192502625e-59
2.195016302e-59
2.198126083e-59
2.199493603e-59
2.196332564e-59
2.193724657e-59
2.191625434e-59
2.189976357e-59
2.188711072e-59
2.187761605e-59
2.187063522e-59
2.186559517e-59
2.186201288e-59
2.185949961e-59
2.185775461e-59
2.185655286e-59
2.185573067e-59
2.185517164e-59
2.185479468e-59
2.185454426e-59
2.185438321e-59
2.185428756e-59
2.185424305e-59
2.185424305e-59
2.185428756e-59
2.185438321e-59
2.185454426e-59
2.185479468e-59
2.185517164e-59
2.185573067e-59
2.185655286e-59
2.185775461e-59
2.185949961e-59
2.186201288e-59
2.186559517e-59
2.187063522e-59
2.187761605e-59
2.188711072e-59
2.189976357e-59
2.191625434e-59
2.193724657e-59
2.196332564e-59
2.199493603e-59
2.200385757e-59
2.197192872e-59
2.194526304e-59
2.192347827e-59
2.190606653e-59
2.189244401e-59
2.188200142e-59
2.187414804e-59
2.186834446e-59
2.186412253e-59
2.186109329e-59
2.185894551e-59
2.185743821e-59
2.185638995e-59
2.185566744e-59
2.18551749e-59
2.185484497e-59
2.185463152e-59
2.185450424e-59
2.185444488e-59
2.185444488e-59
2.185450424e-59
2.185463152e-59
2.185484497e-59
2.18551749e-59
2.185566744e-59
2.185638995e-59
2.185743821e-59
2.185894551e-59
2.186109329e-59
2.186412253e-59
2.186834446e-59
2.187414804e-59
2.188200142e-59
2.189244401e-59
2.190606653e-59
2.192347827e-59
2.194526304e-59
2.197192872e-59
2.200385757e-59
2.200826197e-59
2.197618046e-59
2.194923326e-59
2.192706706e-59
2.190921028e-59
2.189511678e-59
2.1884211e-59
2.187592832e-59
2.186974632e-59
2.186520491e-59
2.186191591e-59
2.185956378e-59
2.185790027e-59
2.185673564e-59
2.185592844e-59
2.18553757e-59
2.185500417e-59
2.18547632e-59
2.185461927e-59
2.185455208e-59
2.185455208e-59
2.185461927e-59
2.18547632e-59
2.185500417e-59
2.18553757e-59
2.185592844e-59
2.185673564e-59
2.185790027e-59
2.185956378e-59
2.186191591e-59
2.186520491e-59
2.186974632e-59
2.187592832e-59
2.1884211e-59
2.189511678e-59
2.190921028e-59
2.192706706e-59
2.194923326e-59
2.197618046e-59
2.200826197e-59
2.278637301e-59
2.283622335e-59
2.29745441e-59
2.320174881e-59
2.351902325e-59
2.392854727e-59
2.443360166e-59
2.503851321e-59
2.57483529e-59
2.656817649e-59
2.750146164e-59
2.85473983e-59
2.969696796e-59
3.092831278e-59
3.220252824e-59
3.34613898e-59
3.462864263e-59
3.561631449e-59
3.633650535e-59
3.671706723e-59
3.671706734e-59
3.63365057e-59
3.561631511e-59
3.462864353e-59
3.346139096e-59
3.220252959e-59
3.09283142e-59
2.96969693e-59
2.854739942e-59
2.750146244e-59
2.656817691e-59
2.574835294e-59
2.503851292e-59
2.443360113e-59
2.392854661e-59
2.351902255e-59
2.320174813e-59
2.297454348e-59
2.283622279e-59
2.278637249e-59
2.230114332e-59
2.230309602e-59
2.234443177e-59
2.242449338e-59
2.254258865e-59
2.269811905e-59
2.289064382e-59
2.311985412e-59
2.338543438e-59
2.368676388e-59
2.402238654e-59
2.438919986e-59
2.478141674e-59
2.518951843e-59
2.559955308e-59
2.599314641e-59
2.634847338e-59
2.664226337e-59
2.685267835e-59
2.69626045e-59
2.696260453e-59
2.685267846e-59
2.664226357e-59
2.634847366e-59
2.599314677e-59
2.559955351e-59
2.518951889e-59
2.478141719e-59
2.438920025e-59
2.402238685e-59
2.368676407e-59
2.338543445e-59
2.311985408e-59
2.28906437e-59
2.269811888e-59
2.254258846e-59
2.242449319e-59
2.234443159e-59
2.230309586e-59
2.230114317e-59
2.209768637e-59
2.208008512e-59
2.208198272e-59
2.210262169e-59
2.214106977e-59
2.219633816e-59
2.226746607e-59
2.235355111e-59
2.24537162e-59
2.256700439e-59
2.269219091e-59
2.282751127e-59
2.297033683e-59
2.311687677e-59
2.326202009e-59
2.339942251e-59
2.352189013e-59
2.362204144e-59
2.369316378e-59
2.373012033e-59
2.373012035e-59
2.369316382e-59
2.362204151e-59
2.352189022e-59
2.339942264e-59
2.326202023e-59
2.311687692e-59
2.297033698e-59
2.282751141e-59
2.269219102e-59
2.256700446e-59
2.245371624e-59
2.235355111e-59
2.226746604e-59
2.219633812e-59
2.214106972e-59
2.210262164e-59
2.208198267e-59
2.208008508e-59
2.209768633e-59
2.201469857e-59
2.198925018e-59
2.197534557e-59
2.197224269e-59
2.197900109e-59
2.199460131e-59
2.201804413e-59
2.204841021e-59
2.208487299e-59
2.212666549e-59
2.217300592e-59
2.222299091e-59
2.227547384e-59
2.232895863e-59
2.238154696e-59
2.243097217e-59
2.247473329e-59
2.251031753e-59
2.253547758e-59
2.254851527e-59
2.254851527e-59
2.25354776e-59
2.251031755e-59
2.247473333e-59
2.243097221e-59
2.238154701e-59
2.232895868e-59
2.227547389e-59
2.222299096e-59
2.217300596e-59
2.212666552e-59
2.208487301e-59
2.204841022e-59
2.201804412e-59
2.19946013e-59
2.197900108e-59
2.197224267e-59
2.197534556e-59
2.198925017e-59
2.201469856e-59
2.198190731e-59
2.195339279e-59
2.193331715e-59
2.1920953e-59
2.191537106e-59
2.191556144e-59
2.192054045e-59
2.192942342e-59
2.194145639e-59
2.195600962e-59
2.197254174e-59
2.199054564e-59
2.200948874e-59
2.202876145e-59
2.204764784e-59
2.206532949e-59
2.208092601e-59
2.209356692e-59
2.210248233e-59
2.210709491e-59
2.210709491e-59
2.210248234e-59
2.209356693e-59
2.208092602e-59
2.206532951e-59
2.204764786e-59
2.202876147e-59
2.200948876e-59
2.199054565e-59
2.197254175e-59
2.195600964e-59
2.19414564e-59
2.192942342e-59
2.192054045e-59
2.191556143e-59
2.191537106e-59
2.1920953e-59
2.193331715e-59
2.195339279e-59
2.198190731e-59
2.196937269e-59
2.193969617e-59
2.191728222e-59
2.190141024e-59
2.189115753e-59
2.188552176e-59
2.188353114e-59
2.188432277e-59
2.188718189e-59
2.189154511e-59
2.189697766e-59
2.190313636e-59
2.1909729e-59
2.191647901e-59
2.192310159e-59
2.192929508e-59
2.193474804e-59
2.193915926e-59
2.194226559e-59
2.194387111e-59
2.194387111e-59
2.19422656e-59
2.193915926e-59
2.193474804e-59
2.192929508e-59
2.192310159e-59
2.191647902e-59
2.190972901e-59
2.190313636e-59
2.189697767e-59
2.189154511e-59
2.18871819e-59
2.188432277e-59
2.188353114e-59
2.188552176e-59
2.189115753e-59
2.190141024e-59
2.191728222e-59
2.193969617e-59
2.196937269e-59
2.196473833e-59
2.193463517e-59
2.191136266e-59
2.189420293e-59
2.188223611e-59
2.187446345e-59
2.186991888e-59
2.18677496e-59
2.186725817e-59
2.186790928e-59
2.186931141e-59
2.187118522e-59
2.187332879e-59
2.187558705e-59
2.187782908e-59
2.187993481e-59
2.18817905e-59
2.188329114e-59
2.188434714e-59
2.188489265e-59
2.188489265e-59
2.188434714e-59
2.188329114e-59
2.18817905e-59
2.187993481e-59
2.187782908e-59
2.187558705e-59
2.187332879e-59
2.187118522e-59
2.186931142e-59
2.186790928e-59
2.186725817e-59
2.18677496e-59
2.186991888e-59
2.187446345e-59
2.188223611e-59
2.189420293e-59
2.191136266e-59
2.193463517e-59
2.196473833e-59
2.196308147e-59
2.193282647e-59
2.190924844e-59
2.18916305e-59
2.187905391e-59
2.18705214e-59
2.186506931e-59
2.186184901e-59
2.186017003e-59
2.185950808e-59
2.185948821e-59
2.18598548e-59
2.186043867e-59
2.186112775e-59
2.18618446e-59
2.186253149e-59
2.186314191e-59
2.186363712e-59
2.186398598e-59
2.186416624e-59
2.186416624e-59
2.186398598e-59
2.186363712e-59
2.186314191e-59
2.186253149e-59
2.18618446e-59
2.186112775e-59
2.186043867e-59
2.18598548e-59
2.185948821e-59
2.185950808e-59
2.186017003e-59
2.186184902e-59
2.186506931e-59
2.18705214e-59
2.187905391e-59
2.18916305e-59
2.190924844e-59
2.193282647e-59
2.196308147e-59
2.196251036e-59
2.193220287e-59
2.190851924e-59
2.189074297e-59
2.187795579e-59
2.186916103e-59
2.186339599e-59
2.185981365e-59
2.185772618e-59
2.185661342e-59
2.185610644e-59
2.185595812e-59
2.185601071e-59
2.185616691e-59
2.185636737e-59
2.185657517e-59
2.185676608e-59
2.185692322e-59
2.185703462e-59
2.185709232e-59
2.185709232e-59
2.185703462e-59
2.185692322e-59
2.185676608e-59
2.185657517e-59
2.185636737e-59
2.185616691e-59
2.185601071e-59
2.185595812e-59
2.185610644e-59
2.185661342e-59
2.185772618e-59
2.185981365e-59
2.186339599e-59
2.186916103e-59
2.187795579e-59
2.189074297e-59
2.190851924e-59
2.193220287e-59
2.196251036e-59
2.196232382e-59
2.193199853e-59
2.190827914e-59
2.189044934e-59
2.187759109e-59
2.186870801e-59
2.186283778e-59
2.185913403e-59
2.185690989e-59
2.185564665e-59
2.185497749e-59
2.18546582e-59
2.185453491e-59
2.185451521e-59
2.18545457e-59
2.185459621e-59
2.185464967e-59
2.185469625e-59
2.185473009e-59
2.18547478e-59
2.18547478e-59
2.185473009e-59
2.185469625e-59
2.185464967e-59
2.185459621e-59
2.18545457e-59
2.185451521e-59
2.185453491e-59
2.18546582e-59
2.185497749e-59
2.185564665e-59
2.185690989e-59
2.185913403e-59
2.186283778e-59
2.186870801e-59
2.187759109e-59
2.189044934e-59
2.190827914e-59
2.193199853e-59
2.196232382e-59
2.196227135e-59
2.193193992e-59
2.190820823e-59
2.189036014e-59
2.18774778e-59
2.186856503e-59
2.186265973e-59
2.18589158e-59
2.185664672e-59
2.185533428e-59
2.185461236e-59
2.185423771e-59
2.185405768e-59
2.185398144e-59
2.185395746e-59
2.185395771e-59
2.185396736e-59
2.185397875e-59
2.185398794e-59
2.185399294e-59
2.185399294e-59
2.185398794e-59
2.185397875e-59
2.185396736e-59
2.185395771e-59
2.185395746e-59
2.185398144e-59
2.185405768e-59
2.185423771e-59
2.185461236e-59
2.185533428e-59
2.185664672e-59
2.18589158e-59
2.186265973e-59
2.186856503e-59
2.18774778e-59
2.189036014e-59
2.190820823e-59
2.193193992e-59
2.196227135e-59
2.19622671e-59
2.193193317e-59
2.190819659e-59
2.18903414e-59
2.187744996e-59
2.18685263e-59
2.186260855e-59
2.185885073e-59
2.185656651e-59
2.185523782e-59
2.185449876e-59
2.185410634e-59
2.185390828e-59
2.18538142e-59
2.185377314e-59
2.185375769e-59
2.18537537e-59
2.185375417e-59
2.185375572e-59
2.185375679e-59
2.185375679e-59
2.185375572e-59
2.185375417e-59
2.18537537e-59
2.185375769e-59
2.185377314e-59
2.18538142e-59
2.185390828e-59
2.185410634e-59
2.185449876e-59
2.185523782e-59
2.185656651e-59
2.185885073e-59
2.186260855e-59
2.18685263e-59
2.187744996e-59
2.18903414e-59
2.190819659e-59
2.193193317e-59
2.19622671e-59
2.196228326e-59
2.193194778e-59
2.190820828e-59
2.189034904e-59
2.187745269e-59
2.186852357e-59
2.18626e-59
2.185883621e-59
2.185654593e-59
2.185521116e-59
2.185446603e-59
2.185406759e-59
2.185386362e-59
2.185376383e-59
2.18537174e-59
2.185369707e-59
2.185368889e-59
2.185368601e-59
2.185368523e-59
2.18536851e-59
2.18536851e-59
2.185368523e-59
2.185368601e-59
2.185368889e-59
2.185369707e-59
2.18537174e-59
2.185376383e-59
2.185386362e-59
2.185406759e-59
2.185446603e-59
2.185521116e-59
2.185654593e-59
2.185883621e-59
2.18626e-59
2.186852357e-59
2.187745269e-59
2.189034904e-59
2.190820828e-59
2.193194778e-59
2.196228326e-59
2.196231171e-59
2.193197473e-59
2.190823246e-59
2.189036948e-59
2.187746884e-59
2.186853521e-59
2.186260724e-59
2.185883933e-59
2.185654533e-59
2.185520725e-59
2.185445919e-59
2.185405814e-59
2.185385183e-59
2.185374996e-59
2.185370167e-59
2.185367972e-59
2.185367019e-59
2.185366626e-59
2.185366474e-59
2.185366425e-59
2.185366425e-59
2.185366474e-59
2.185366626e-59
2.185367019e-59
2.185367972e-59
2.185370167e-59
2.185374996e-59
2.185385183e-59
2.185405814e-59
2.185445919e-59
2.185520725e-59
2.185654533e-59
2.185883933e-59
2.186260724e-59
2.186853521e-59
2.187746884e-59
2.189036948e-59
2.190823246e-59
2.193197473e-59
2.196231171e-59
2.19623506e-59
2.193201184e-59
2.190826631e-59
2.189039903e-59
2.187749349e-59
2.186855487e-59
2.186262219e-59
2.185885009e-59
2.185655254e-59
2.185521157e-59
2.18544612e-59
2.185405834e-59
2.185385061e-59
2.185374763e-59
2.185369847e-59
2.185367584e-59
2.185366577e-59
2.185366145e-59
2.185365968e-59
2.185365906e-59
2.185365906e-59
2.185365968e-59
2.185366145e-59
2.185366577e-59
2.185367584e-59
2.185369847e-59
2.185374763e-59
2.185385061e-59
2.185405834e-59
2.18544612e-59
2.185521157e-59
2.185655254e-59
2.185885009e-59
2.186262219e-59
2.186855487e-59
2.187749349e-59
2.189039903e-59
2.190826631e-59
2.193201184e-59
2.19623506e-59
2.196244864e-59
2.193210559e-59
2.190835224e-59
2.18904746e-59
2.187755739e-59
2.186860693e-59
2.186266319e-59
2.185888143e-59
2.185657589e-59
2.185522862e-59
2.185447349e-59
2.185406713e-59
2.185385691e-59
2.185375217e-59
2.185370181e-59
2.185367836e-59
2.185366776e-59
2.185366309e-59
2.185366112e-59
2.18536604e-59
2.18536604e-59
2.185366112e-59
2.185366309e-59
2.185366776e-59
2.185367836e-59
2.185370181e-59
2.185375217e-59
2.185385691e-59
2.185406713e-59
2.185447349e-59
2.185522862e-59
2.185657589e-59
2.185888143e-59
2.186266319e-59
2.186860693e-59
2.187755739e-59
2.18904746e-59
2.190835224e-59
2.193210559e-59
2.196244864e-59
2.19812852e-59
2.195018736e-59
2.192505057e-59
2.190532537e-59
2.189029688e-59
2.187917029e-59
2.187115231e-59
2.186551507e-59
2.186163592e-59
2.185901326e-59
2.185726362e-59
2.185610671e-59
2.185534533e-59
2.1854845e-59
2.185451621e-59
2.185430049e-59
2.185416012e-59
2.185407117e-59
2.185401886e-59
2.185399464e-59
2.185399464e-59
2.185401886e-59
2.185407117e-59
2.185416012e-59
2.185430049e-59
2.185451621e-59
2.1854845e-59
2.185534533e-59
2.185610671e-59
2.185726362e-59
2.185901326e-59
2.186163592e-59
2.186551507e-59
2.187115231e-59
2.187917029e-59
2.189029688e-59
2.190532537e-59
2.192505057e-59
2.195018736e-59
2.19812852e-59
2.199498083e-59
2.196337038e-59
2.193729126e-59
2.191629898e-59
2.189980818e-59
2.18871553e-59
2.187766061e-59
2.187067977e-59
2.186563971e-59
2.186205741e-59
2.185954413e-59
2.185779913e-59
2.185659738e-59
2.185577518e-59
2.185521615e-59
2.185483919e-59
2.185458877e-59
2.185442772e-59
2.185433207e-59
2.185428756e-59
2.185428756e-59
2.185433207e-59
2.185442772e-59
2.185458877e-59
2.185483919e-59
2.185521615e-59
2.185577518e-59
2.185659738e-59
2.185779913e-59
2.185954413e-59
2.186205741e-59
2.186563971e-59
2.187067977e-59
2.187766061e-59
2.18871553e-59
2.189980818e-59
2.191629898e-59
2.193729126e-59
2.196337038e-59
2.199498083e-59
2.200391733e-59
2.19719884e-59
2.194532265e-59
2.192353781e-59
2.190612603e-59
2.189250347e-59
2.188206086e-59
2.187420745e-59
2.186840386e-59
2.186418192e-59
2.186115266e-59
2.185900488e-59
2.185749757e-59
2.185644931e-59
2.18557268e-59
2.185523426e-59
2.185490433e-59
2.185469088e-59
2.18545636e-59
2.185450424e-59
2.185450424e-59
2.18545636e-59
2.185469088e-59
2.185490433e-59
2.185523426e-59
2.18557268e-59
2.185644931e-59
2.185749757e-59
2.185900488e-59
2.186115266e-59
2.186418192e-59
2.186840386e-59
2.187420745e-59
2.188206086e-59
2.189250347e-59
2.190612603e-59
2.192353781e-59
2.194532265e-59
2.19719884e-59
2.200391733e-59
2.200832963e-59
2.197624802e-59
2.194930074e-59
2.192713447e-59
2.190927764e-59
2.18951841e-59
2.188427828e-59
2.187599558e-59
2.186981355e-59
2.186527213e-59
2.186198312e-59
2.185963098e-59
2.185796747e-59
2.185680283e-59
2.185599563e-59
2.185544288e-59
2.185507135e-59
2.185483038e-59
2.185468645e-59
2.185461926e-59
2.185461926e-59
2.185468645e-59
2.185483038e-59
2.185507135e-59
2.185544288e-59
2.185599563e-59
2.185680283e-59
2.185796747e-59
2.185963098e-59
2.186198312e-59
2.186527213e-59
2.186981355e-59
2.187599558e-59
2.188427828e-59
2.18951841e-59
2.190927764e-59
2.192713447e-59
2.194930074e-59
2.197624802e-59
2.200832963e-59
2.276058766e-59
2.280792624e-59
2.294114151e-59
2.31605477e-59
2.346715198e-59
2.386284771e-59
2.435048256e-59
2.493375949e-59
2.561690153e-59
2.640390103e-59
2.72970506e-59
2.829445136e-59
2.938644448e-59
3.055143217e-59
3.175214962e-59
3.293380465e-59
3.402554371e-59
3.494644809e-59
3.561632255e-59
3.596974751e-59
3.596974773e-59
3.561632318e-59
3.494644912e-59
3.40255451e-59
3.293380631e-59
3.175215144e-59
3.055143402e-59
2.938644621e-59
2.829445284e-59
2.729705175e-59
2.640390179e-59
2.561690192e-59
2.493375954e-59
2.435048234e-59
2.386284733e-59
2.346715151e-59
2.316054721e-59
2.294114104e-59
2.28079258e-59
2.276058725e-59
2.22906818e-59
2.229164796e-59
2.23309894e-59
2.240803383e-59
2.25220572e-59
2.267240487e-59
2.28585464e-59
2.308004056e-59
2.333639318e-59
2.362677019e-59
2.394950451e-59
2.430135359e-59
2.467655529e-59
2.506587942e-59
2.545600203e-59
2.582954563e-59
2.616601564e-59
2.644368601e-59
2.664226602e-59
2.674591373e-59
2.67459138e-59
2.664226621e-59
2.644368631e-59
2.616601605e-59
2.582954613e-59
2.545600259e-59
2.506588e-59
2.467655585e-59
2.430135409e-59
2.394950491e-59
2.362677048e-59
2.333639335e-59
2.308004062e-59
2.285854637e-59
2.267240478e-59
2.252205708e-59
2.240803369e-59
2.233098927e-59
2.229164784e-59
2.229068169e-59
2.209353557e-59
2.207555006e-59
2.207667261e-59
2.209614385e-59
2.213302561e-59
2.218631701e-59
2.22550364e-59
2.233824964e-59
2.243503662e-59
2.254439091e-59
2.266504436e-59
2.27952171e-59
2.29323212e-59
2.307268952e-59
2.3211434e-59
2.334253165e-59
2.34591875e-59
2.355445646e-59
2.362204243e-59
2.365713905e-59
2.365713907e-59
2.36220425e-59
2.355445656e-59
2.345918764e-59
2.334253182e-59
2.321143419e-59
2.307268971e-59
2.293232139e-59
2.279521727e-59
2.26650445e-59
2.254439102e-59
2.243503669e-59
2.233824967e-59
2.225503641e-59
2.218631699e-59
2.213302558e-59
2.209614382e-59
2.207667258e-59
2.207555003e-59
2.209353554e-59
2.201309827e-59
2.198750342e-59
2.197330368e-59
2.19697569e-59
2.19759215e-59
2.19907752e-59
2.201331357e-59
2.204260917e-59
2.207782447e-59
2.211818037e-59
2.216288602e-59
2.221103901e-59
2.226151263e-59
2.231285781e-59
2.236325486e-59
2.241054572e-59
2.245235997e-59
2.248632347e-59
2.251031791e-59
2.252274532e-59
2.252274533e-59
2.251031793e-59
2.24863235e-59
2.245236001e-59
2.241054577e-59
2.236325492e-59
2.231285788e-59
2.226151269e-59
2.221103906e-59
2.216288607e-59
2.21181804e-59
2.207782449e-59
2.204260919e-59
2.201331358e-59
2.19907752e-59
2.19759215e-59
2.196975689e-59
2.197330367e-59
2.198750341e-59
2.201309826e-59
2.198130962e-59
2.195274079e-59
2.193255577e-59
2.19200272e-59
2.19142256e-59
2.191414039e-59
2.191878657e-59
2.192727738e-59
2.193885609e-59
2.19528901e-59
2.196883638e-59
2.198618969e-59
2.20044256e-59
2.202295157e-59
2.204107899e-59
2.205802642e-59
2.20729572e-59
2.208504669e-59
2.209356707e-59
2.209797333e-59
2.209797333e-59
2.209356708e-59
2.20850467e-59
2.207295721e-59
2.205802644e-59
2.204107901e-59
2.202295159e-59
2.200442562e-59
2.198618971e-59
2.19688364e-59
2.195289011e-59
2.19388561e-59
2.192727739e-59
2.191878658e-59
2.191414039e-59
2.191422559e-59
2.19200272e-59
2.193255576e-59
2.195274079e-59
2.198130962e-59
2.1969157e-59
2.193946094e-59
2.191700761e-59
2.190107648e-59
2.18907448e-59
2.188501008e-59
2.188290019e-59
2.188355175e-59
2.188624933e-59
2.189042894e-59
2.189565571e-59
2.190158748e-59
2.190793518e-59
2.19144282e-59
2.192079103e-59
2.192673444e-59
2.193196153e-59
2.193618627e-59
2.193915932e-59
2.194069533e-59
2.194069533e-59
2.193915932e-59
2.193618627e-59
2.193196154e-59
2.192673444e-59
2.192079104e-59
2.19144282e-59
2.190793519e-59
2.190158749e-59
2.189565571e-59
2.189042894e-59
2.188624933e-59
2.188355175e-59
2.188290019e-59
2.188501008e-59
2.18907448e-59
2.190107648e-59
2.191700761e-59
2.193946094e-59
2.1969157e-59
2.196466358e-59
2.193455359e-59
2.191126733e-59
2.189408694e-59
2.188209256e-59