/*--------------------------------*- C++ -*----------------------------------*\
  =========                 |
  \\      /  F ield         | OpenFOAM: The Open Source CFD Toolbox
   \\    /   O peration     | Website:  https://openfoam.org
    \\  /    A nd           | Version:  10
     \\/     M anipulation  |
\*---------------------------------------------------------------------------*/
FoamFile
{
    format      ascii;
    class       volScalarField;
    location    "0.0003";
    object      T;
}
// * * * * * * * * * * * * * * * * * * * * * * * * * * * * * * * * * * * * * //

dimensions      [0 0 0 1 0 0 0];

internalField   nonuniform List<scalar> 
16000
(
300.0748413
300.0787995
300.0896635
300.1073437
300.1317357
300.1627389
300.2002636
300.2442258
300.2945231
300.3509808
300.4132559
300.4806902
300.5521317
300.6257737
300.6990742
300.7688039
300.8312411
300.882511
300.9190412
300.9380642
300.9380642
300.9190412
300.882511
300.8312411
300.768804
300.6990742
300.6257737
300.5521318
300.4806903
300.4132559
300.3509808
300.294523
300.2442258
300.2002635
300.1627388
300.1317357
300.1073436
300.0896634
300.0787995
300.0748412
300.0362203
300.0364149
300.0397653
300.0462027
300.0556409
300.0679884
300.0831548
300.1010501
300.1215755
300.1446019
300.1699325
300.1972478
300.2260404
300.2555564
300.2847698
300.3124056
300.3370217
300.357142
300.3714255
300.378846
300.378846
300.3714255
300.357142
300.3370217
300.3124056
300.2847698
300.2555565
300.2260404
300.1972479
300.1699325
300.1446019
300.1215755
300.1010501
300.0831547
300.0679884
300.0556409
300.0462026
300.0397653
300.0364149
300.0362203
300.0197797
300.0183884
300.0185719
300.0202693
300.0234023
300.0278852
300.0336326
300.0405623
300.0485936
300.0576387
300.0675889
300.0782931
300.089534
300.1010067
300.1123098
300.1229549
300.1323977
300.1400883
300.1455326
300.1483559
300.1483559
300.1455326
300.1400883
300.1323977
300.1229549
300.1123099
300.1010068
300.089534
300.0782932
300.0675889
300.0576387
300.0485936
300.0405623
300.0336325
300.0278852
300.0234023
300.0202693
300.0185719
300.0183884
300.0197797
300.0130312
300.0109947
300.0098899
300.0096588
300.0102263
300.0115099
300.0134281
300.0159058
300.0188749
300.0222723
300.0260337
300.0300852
300.034333
300.0386554
300.0428989
300.0468813
300.0504023
300.0532619
300.0552819
300.056328
300.056328
300.0552819
300.0532619
300.0504023
300.0468813
300.042899
300.0386554
300.034333
300.0300852
300.0260337
300.0222723
300.0188749
300.0159058
300.0134281
300.0115099
300.0102263
300.0096588
300.0098899
300.0109947
300.0130312
300.0103577
300.0080678
300.0064568
300.0054678
300.0050272
300.0050539
300.0054688
300.0062004
300.0071878
300.0083802
300.0097336
300.0112068
300.0127567
300.0143333
300.0158781
300.0173242
300.0185996
300.0196332
300.020362
300.0207391
300.0207391
300.020362
300.0196332
300.0185996
300.0173242
300.0158781
300.0143333
300.0127567
300.0112068
300.0097336
300.0083802
300.0071878
300.0062004
300.0054688
300.0050539
300.0050272
300.0054678
300.0064568
300.0080678
300.0103577
300.0093348
300.0069486
300.0051453
300.0038685
300.0030449
300.0025943
300.0024386
300.0025083
300.0027457
300.0031053
300.003552
300.004058
300.0045997
300.0051543
300.0056987
300.0062079
300.0066564
300.0070193
300.0072749
300.007407
300.007407
300.0072749
300.0070193
300.0066564
300.0062079
300.0056987
300.0051543
300.0045997
300.004058
300.003552
300.0031053
300.0027457
300.0025083
300.0024386
300.0025943
300.0030449
300.0038685
300.0051453
300.0069486
300.0093348
300.0089565
300.0065349
300.0046609
300.0032783
300.002314
300.0016881
300.0013229
300.0011498
300.0011124
300.0011676
300.0012838
300.0014383
300.0016148
300.0018007
300.0019853
300.0021588
300.0023117
300.0024354
300.0025224
300.0025674
300.0025674
300.0025224
300.0024354
300.0023117
300.0021588
300.0019853
300.0018007
300.0016148
300.0014383
300.0012838
300.0011676
300.0011124
300.0011498
300.0013229
300.0016881
300.002314
300.0032783
300.0046609
300.0065349
300.0089565
300.0088212
300.006387
300.0044879
300.0030676
300.0020532
300.0013649
300.0009253
300.0006659
300.000531
300.0004784
300.0004778
300.0005085
300.0005568
300.0006136
300.0006727
300.0007293
300.0007797
300.0008205
300.0008493
300.0008641
300.0008641
300.0008493
300.0008205
300.0007797
300.0007293
300.0006727
300.0006136
300.0005568
300.0005085
300.0004778
300.0004784
300.000531
300.0006659
300.0009253
300.0013649
300.0020532
300.0030676
300.0044879
300.006387
300.0088212
300.0087746
300.006336
300.0044282
300.0029949
300.0019632
300.0012534
300.000788
300.0004989
300.0003305
300.0002409
300.0002003
300.0001886
300.0001933
300.0002063
300.0002228
300.00024
300.0002557
300.0002687
300.0002779
300.0002826
300.0002826
300.0002779
300.0002687
300.0002557
300.00024
300.0002228
300.0002063
300.0001933
300.0001886
300.0002003
300.0002409
300.0003305
300.0004989
300.000788
300.0012534
300.0019632
300.0029949
300.0044282
300.006336
300.0087746
300.0087593
300.0063193
300.0044085
300.0029709
300.0019334
300.0012163
300.0007423
300.0004432
300.0002636
300.0001616
300.0001076
300.0000819
300.0000721
300.0000706
300.0000732
300.0000774
300.0000818
300.0000857
300.0000885
300.0000899
300.0000899
300.0000885
300.0000857
300.0000818
300.0000774
300.0000732
300.0000706
300.0000721
300.0000819
300.0001076
300.0001616
300.0002636
300.0004432
300.0007423
300.0012163
300.0019334
300.0029709
300.0044085
300.0063193
300.0087593
300.008755
300.0063145
300.0044027
300.0029635
300.0019241
300.0012045
300.0007277
300.0004253
300.000242
300.000136
300.0000777
300.0000474
300.0000329
300.0000268
300.0000249
300.000025
300.0000258
300.0000267
300.0000275
300.0000279
300.0000279
300.0000275
300.0000267
300.0000258
300.000025
300.0000249
300.0000268
300.0000329
300.0000474
300.0000777
300.000136
300.000242
300.0004253
300.0007277
300.0012045
300.0019241
300.0029635
300.0044027
300.0063145
300.008755
300.0087547
300.0063139
300.0044017
300.002962
300.0019218
300.0012014
300.0007235
300.0004199
300.0002354
300.0001281
300.0000683
300.0000367
300.0000207
300.0000131
300.0000098
300.0000085
300.0000082
300.0000083
300.0000084
300.0000085
300.0000085
300.0000084
300.0000083
300.0000082
300.0000085
300.0000098
300.0000131
300.0000207
300.0000367
300.0000683
300.0001281
300.0002354
300.0004199
300.0007235
300.0012014
300.0019218
300.002962
300.0044017
300.0063139
300.0087547
300.0087559
300.0063151
300.0044027
300.0029626
300.001922
300.0012011
300.0007227
300.0004187
300.0002337
300.0001259
300.0000657
300.0000335
300.000017
300.0000089
300.0000052
300.0000035
300.0000029
300.0000027
300.0000026
300.0000026
300.0000026
300.0000026
300.0000027
300.0000029
300.0000035
300.0000052
300.0000089
300.000017
300.0000335
300.0000657
300.0001259
300.0002337
300.0004187
300.0007227
300.0012011
300.001922
300.0029626
300.0044027
300.0063151
300.0087559
300.0087582
300.0063173
300.0044046
300.0029642
300.0019233
300.001202
300.0007233
300.000419
300.0002336
300.0001255
300.0000651
300.0000327
300.000016
300.0000078
300.0000039
300.0000021
300.0000013
300.000001
300.0000009
300.0000009
300.0000009
300.0000009
300.000001
300.0000013
300.0000021
300.0000039
300.0000078
300.000016
300.0000327
300.0000651
300.0001255
300.0002336
300.000419
300.0007233
300.001202
300.0019233
300.0029642
300.0044046
300.0063173
300.0087582
300.0087614
300.0063203
300.0044073
300.0029666
300.0019253
300.0012036
300.0007245
300.0004198
300.0002342
300.0001259
300.0000652
300.0000327
300.0000159
300.0000076
300.0000036
300.0000018
300.000001
300.0000006
300.0000005
300.0000004
300.0000004
300.0000005
300.0000006
300.000001
300.0000018
300.0000036
300.0000076
300.0000159
300.0000327
300.0000652
300.0001259
300.0002342
300.0004198
300.0007245
300.0012036
300.0019253
300.0029666
300.0044073
300.0063203
300.0087614
300.0087692
300.0063278
300.0044143
300.0029727
300.0019304
300.0012078
300.0007278
300.0004224
300.0002361
300.0001272
300.0000662
300.0000334
300.0000164
300.000008
300.0000039
300.000002
300.0000011
300.0000008
300.0000006
300.0000005
300.0000005
300.0000006
300.0000008
300.0000011
300.000002
300.0000039
300.000008
300.0000164
300.0000334
300.0000662
300.0001272
300.0002361
300.0004224
300.0007278
300.0012078
300.0019304
300.0029727
300.0044143
300.0063278
300.0087692
300.0102813
300.0077812
300.0057578
300.0041684
300.0029565
300.0020587
300.0014114
300.0009563
300.000643
300.0004311
300.0002898
300.0001963
300.0001348
300.0000944
300.0000678
300.0000504
300.000039
300.0000318
300.0000276
300.0000256
300.0000256
300.0000276
300.0000318
300.000039
300.0000504
300.0000678
300.0000944
300.0001348
300.0001963
300.0002898
300.0004311
300.000643
300.0009563
300.0014114
300.0020587
300.0029565
300.0041684
300.0057578
300.0077812
300.0102813
300.0113796
300.0088398
300.0067417
300.0050511
300.0037219
300.0027014
300.0019352
300.0013717
300.0009647
300.0006754
300.0004723
300.0003314
300.0002343
300.0001679
300.0001227
300.0000922
300.000072
300.000059
300.0000513
300.0000477
300.0000477
300.0000513
300.000059
300.000072
300.0000922
300.0001227
300.0001679
300.0002343
300.0003314
300.0004723
300.0006754
300.0009647
300.0013717
300.0019352
300.0027014
300.0037219
300.0050511
300.0067417
300.0088398
300.0113796
300.0120957
300.0095314
300.0073869
300.0056331
300.0042301
300.0031316
300.0022891
300.0016553
300.0011867
300.0008457
300.0006011
300.0004276
300.0003058
300.0002211
300.0001628
300.000123
300.0000963
300.0000791
300.0000688
300.000064
300.000064
300.0000688
300.0000791
300.0000963
300.000123
300.0001628
300.0002211
300.0003058
300.0004276
300.0006011
300.0008457
300.0011867
300.0016553
300.0022891
300.0031316
300.0042301
300.0056331
300.0073869
300.0095314
300.0120957
300.0124492
300.0098731
300.0077064
300.0059221
300.0044835
300.0033472
300.0024674
300.001799
300.0012999
300.0009332
300.0006675
300.0004775
300.0003431
300.0002491
300.0001838
300.0001392
300.0001092
300.0000897
300.0000781
300.0000726
300.0000726
300.0000781
300.0000897
300.0001092
300.0001392
300.0001838
300.0002491
300.0003431
300.0004775
300.0006675
300.0009332
300.0012999
300.001799
300.0024674
300.0033472
300.0044835
300.0059221
300.0077064
300.0098731
300.0124492
300.0738193
300.0776802
300.0883495
300.1057377
300.1297396
300.1602516
300.1971782
300.2404256
300.289877
300.345341
300.4064586
300.4725638
300.5425127
300.6145297
300.6861303
300.7541701
300.8150354
300.8649734
300.9005319
300.9190414
300.9190414
300.9005319
300.8649734
300.8150354
300.7541702
300.6861304
300.6145298
300.5425128
300.4725638
300.4064586
300.345341
300.289877
300.2404256
300.1971782
300.1602515
300.1297396
300.1057377
300.0883494
300.0776801
300.0738193
300.0357969
300.0359516
300.039222
300.0455395
300.0548176
300.0669637
300.0818855
300.0994897
300.1196728
300.1423003
300.1671705
300.1939622
300.2221724
300.2510605
300.2796234
300.3066188
300.330645
300.3502696
300.3641939
300.3714255
300.3714255
300.3641939
300.3502696
300.330645
300.3066188
300.2796234
300.2510605
300.2221724
300.1939622
300.1671705
300.1423003
300.1196728
300.0994897
300.0818855
300.0669637
300.0548176
300.0455395
300.039222
300.0359515
300.0357969
300.0196102
300.018203
300.0183548
300.0200046
300.0230741
300.0274771
300.0331277
300.0399427
300.0478399
300.0567298
300.0665022
300.077006
300.0880259
300.0992621
300.1103221
300.1207296
300.1299551
300.1374642
300.1427778
300.1455326
300.1455326
300.1427778
300.1374642
300.1299551
300.1207296
300.1103221
300.0992621
300.0880259
300.0770061
300.0665023
300.0567298
300.0478399
300.0399427
300.0331277
300.0274771
300.0230741
300.0200046
300.0183548
300.018203
300.0196102
300.0129656
300.010923
300.009806
300.0095566
300.0100997
300.0113527
300.0132339
300.0156678
300.0185859
300.0219247
300.0256196
300.0295966
300.0337628
300.0379985
300.0421535
300.0460498
300.0494925
300.052287
300.0542603
300.0552819
300.0552819
300.0542603
300.052287
300.0494925
300.0460498
300.0421535
300.0379985
300.0337628
300.0295966
300.0256196
300.0219247
300.0185859
300.0156678
300.0132339
300.0113527
300.0100997
300.0095566
300.009806
300.010923
300.0129656
300.0103332
300.008041
300.0064254
300.0054297
300.00498
300.0049953
300.0053964
300.0061119
300.0070806
300.0082515
300.0095806
300.011027
300.0125476
300.0140933
300.0156067
300.0170224
300.0182703
300.019281
300.0199935
300.020362
300.020362
300.0199935
300.019281
300.0182703
300.0170224
300.0156067
300.0140933
300.0125476
300.011027
300.0095806
300.0082515
300.0070806
300.0061119
300.0053964
300.0049953
300.00498
300.0054297
300.0064254
300.008041
300.0103332
300.0093259
300.0069389
300.0051339
300.0038547
300.0030278
300.0025732
300.0024126
300.0024764
300.0027071
300.0030591
300.0034973
300.0039939
300.0045253
300.0050692
300.0056027
300.0061016
300.0065406
300.0068957
300.0071457
300.0072749
300.0072749
300.0071457
300.0068957
300.0065406
300.0061016
300.0056027
300.0050692
300.0045253
300.0039939
300.0034973
300.0030591
300.0027071
300.0024764
300.0024126
300.0025732
300.0030278
300.0038547
300.0051339
300.0069389
300.0093259
300.0089534
300.0065315
300.0046569
300.0032735
300.0023081
300.0016807
300.0013138
300.0011387
300.001099
300.0011516
300.0012648
300.0014161
300.0015891
300.0017714
300.0019524
300.0021223
300.0022721
300.0023932
300.0024784
300.0025224
300.0025224
300.0024784
300.0023932
300.0022721
300.0021223
300.0019524
300.0017714
300.0015891
300.0014161
300.0012648
300.0011516
300.001099
300.0011387
300.0013138
300.0016807
300.0023081
300.0032735
300.0046569
300.0065315
300.0089534
300.0088202
300.0063859
300.0044866
300.003066
300.0020512
300.0013625
300.0009222
300.0006621
300.0005265
300.000473
300.0004714
300.000501
300.0005482
300.0006039
300.0006618
300.0007172
300.0007665
300.0008065
300.0008347
300.0008493
300.0008493
300.0008347
300.0008065
300.0007665
300.0007172
300.0006618
300.0006039
300.0005482
300.000501
300.0004714
300.000473
300.0005265
300.0006621
300.0009222
300.0013625
300.0020512
300.003066
300.0044866
300.0063859
300.0088202
300.0087743
300.0063357
300.0044278
300.0029944
300.0019626
300.0012526
300.0007871
300.0004977
300.0003291
300.0002392
300.0001982
300.0001862
300.0001905
300.0002031
300.0002193
300.0002361
300.0002515
300.0002642
300.0002732
300.0002779
300.0002779
300.0002732
300.0002642
300.0002515
300.0002361
300.0002193
300.0002031
300.0001905
300.0001862
300.0001982
300.0002392
300.0003291
300.0004977
300.0007871
300.0012526
300.0019626
300.0029944
300.0044278
300.0063357
300.0087743
300.0087593
300.0063192
300.0044084
300.0029707
300.0019332
300.001216
300.000742
300.0004428
300.0002631
300.0001611
300.000107
300.0000812
300.0000713
300.0000697
300.0000721
300.0000762
300.0000805
300.0000843
300.000087
300.0000885
300.0000885
300.000087
300.0000843
300.0000805
300.0000762
300.0000721
300.0000697
300.0000713
300.0000812
300.000107
300.0001611
300.0002631
300.0004428
300.000742
300.001216
300.0019332
300.0029707
300.0044084
300.0063192
300.0087593
300.008755
300.0063145
300.0044027
300.0029635
300.001924
300.0012045
300.0007276
300.0004252
300.0002419
300.0001358
300.0000775
300.0000472
300.0000327
300.0000265
300.0000246
300.0000246
300.0000254
300.0000263
300.0000271
300.0000275
300.0000275
300.0000271
300.0000263
300.0000254
300.0000246
300.0000246
300.0000265
300.0000327
300.0000472
300.0000775
300.0001358
300.0002419
300.0004252
300.0007276
300.0012045
300.001924
300.0029635
300.0044027
300.0063145
300.008755
300.0087547
300.006314
300.0044018
300.002962
300.0019218
300.0012014
300.0007235
300.0004199
300.0002354
300.000128
300.0000683
300.0000366
300.0000206
300.000013
300.0000097
300.0000085
300.0000081
300.0000082
300.0000083
300.0000084
300.0000084
300.0000083
300.0000082
300.0000081
300.0000085
300.0000097
300.000013
300.0000206
300.0000366
300.0000683
300.000128
300.0002354
300.0004199
300.0007235
300.0012014
300.0019218
300.002962
300.0044018
300.006314
300.0087547
300.008756
300.0063152
300.0044027
300.0029626
300.001922
300.0012012
300.0007228
300.0004188
300.0002337
300.0001259
300.0000657
300.0000335
300.000017
300.000009
300.0000052
300.0000036
300.0000029
300.0000027
300.0000026
300.0000026
300.0000026
300.0000026
300.0000027
300.0000029
300.0000036
300.0000052
300.000009
300.000017
300.0000335
300.0000657
300.0001259
300.0002337
300.0004188
300.0007228
300.0012012
300.001922
300.0029626
300.0044027
300.0063152
300.008756
300.0087583
300.0063173
300.0044047
300.0029643
300.0019233
300.0012021
300.0007234
300.000419
300.0002337
300.0001256
300.0000651
300.0000327
300.0000161
300.0000078
300.0000039
300.0000022
300.0000014
300.0000011
300.0000009
300.0000009
300.0000009
300.0000009
300.0000011
300.0000014
300.0000022
300.0000039
300.0000078
300.0000161
300.0000327
300.0000651
300.0001256
300.0002337
300.000419
300.0007234
300.0012021
300.0019233
300.0029643
300.0044047
300.0063173
300.0087583
300.0087614
300.0063203
300.0044074
300.0029667
300.0019253
300.0012037
300.0007246
300.0004199
300.0002343
300.0001259
300.0000653
300.0000327
300.000016
300.0000076
300.0000037
300.0000018
300.000001
300.0000007
300.0000005
300.0000005
300.0000005
300.0000005
300.0000007
300.000001
300.0000018
300.0000037
300.0000076
300.000016
300.0000327
300.0000653
300.0001259
300.0002343
300.0004199
300.0007246
300.0012037
300.0019253
300.0029667
300.0044074
300.0063203
300.0087614
300.0087693
300.0063279
300.0044143
300.0029728
300.0019305
300.0012079
300.0007279
300.0004224
300.0002362
300.0001273
300.0000663
300.0000335
300.0000165
300.000008
300.0000039
300.000002
300.0000012
300.0000008
300.0000007
300.0000006
300.0000006
300.0000007
300.0000008
300.0000012
300.000002
300.0000039
300.000008
300.0000165
300.0000335
300.0000663
300.0001273
300.0002362
300.0004224
300.0007279
300.0012079
300.0019305
300.0029728
300.0044143
300.0063279
300.0087693
300.0102832
300.0077831
300.0057597
300.0041703
300.0029584
300.0020606
300.0014134
300.0009582
300.0006449
300.0004331
300.0002917
300.0001982
300.0001367
300.0000963
300.0000697
300.0000523
300.000041
300.0000338
300.0000296
300.0000276
300.0000276
300.0000296
300.0000338
300.000041
300.0000523
300.0000697
300.0000963
300.0001367
300.0001982
300.0002917
300.0004331
300.0006449
300.0009582
300.0014134
300.0020606
300.0029584
300.0041703
300.0057597
300.0077831
300.0102832
300.0113832
300.0088434
300.0067453
300.0050547
300.0037255
300.002705
300.0019388
300.0013753
300.0009683
300.000679
300.0004759
300.000335
300.0002379
300.0001715
300.0001263
300.0000958
300.0000756
300.0000626
300.0000549
300.0000513
300.0000513
300.0000549
300.0000626
300.0000756
300.0000958
300.0001263
300.0001715
300.0002379
300.000335
300.0004759
300.000679
300.0009683
300.0013753
300.0019388
300.002705
300.0037255
300.0050547
300.0067453
300.0088434
300.0113832
300.0121005
300.0095362
300.0073917
300.0056379
300.0042349
300.0031364
300.0022939
300.0016601
300.0011915
300.0008505
300.0006059
300.0004324
300.0003106
300.0002259
300.0001676
300.0001278
300.0001011
300.0000839
300.0000736
300.0000688
300.0000688
300.0000736
300.0000839
300.0001011
300.0001278
300.0001676
300.0002259
300.0003106
300.0004324
300.0006059
300.0008505
300.0011915
300.0016601
300.0022939
300.0031364
300.0042349
300.0056379
300.0073917
300.0095362
300.0121005
300.0124546
300.0098785
300.0077118
300.0059276
300.0044889
300.0033526
300.0024729
300.0018044
300.0013053
300.0009386
300.000673
300.000483
300.0003486
300.0002545
300.0001893
300.0001446
300.0001146
300.0000951
300.0000835
300.0000781
300.0000781
300.0000835
300.0000951
300.0001146
300.0001446
300.0001893
300.0002545
300.0003486
300.000483
300.000673
300.0009386
300.0013053
300.0018044
300.0024729
300.0033526
300.0044889
300.0059276
300.0077118
300.0098785
300.0124546
300.071819
300.0754896
300.0857788
300.1025971
300.1258375
300.1553915
300.1911532
300.2330108
300.2808219
300.3343639
300.3932496
300.4567992
300.5238854
300.5927927
300.6611478
300.7259681
300.783845
300.831256
300.8649738
300.8825116
300.8825116
300.8649738
300.831256
300.783845
300.7259681
300.6611479
300.5927928
300.5238855
300.4567992
300.3932497
300.334364
300.2808219
300.2330108
300.1911531
300.1553915
300.1258375
300.102597
300.0857788
300.0754896
300.071819
300.0349682
300.0350447
300.0381591
300.0442426
300.053208
300.0649612
300.0794064
300.0964443
300.115963
300.137818
300.1617991
300.1875824
300.2146737
300.2423576
300.2696754
300.2954473
300.318348
300.3370286
300.3502698
300.3571422
300.3571422
300.3502698
300.3370286
300.318348
300.2954473
300.2696755
300.2423577
300.2146737
300.1875824
300.1617991
300.137818
300.115963
300.0964443
300.0794064
300.0649612
300.053208
300.0442425
300.0381591
300.0350447
300.0349682
300.0192785
300.0178402
300.01793
300.019487
300.0224323
300.0266796
300.0321416
300.0387333
300.0463698
300.0549588
300.0643876
300.0745049
300.0850994
300.0958814
300.1064752
300.1164278
300.1252376
300.1324003
300.1374643
300.1400884
300.1400884
300.1374643
300.1324003
300.1252376
300.1164278
300.1064752
300.0958814
300.0850994
300.0745049
300.0643876
300.0549588
300.0463698
300.0387333
300.0321416
300.0266796
300.0224323
300.019487
300.01793
300.0178402
300.0192785
300.0128372
300.0107827
300.0096419
300.0093568
300.0098523
300.0110455
300.0128545
300.0152031
300.0180222
300.0212474
300.0248134
300.0286465
300.0326554
300.0367245
300.0407093
300.0444405
300.0477332
300.0504032
300.052287
300.053262
300.053262
300.052287
300.0504032
300.0477332
300.0444405
300.0407093
300.0367245
300.0326554
300.0286465
300.0248134
300.0212474
300.0180222
300.0152031
300.0128545
300.0110455
300.0098523
300.0093568
300.0096419
300.0107827
300.0128372
300.0102852
300.0079885
300.0063641
300.0053551
300.0048877
300.0048808
300.0052551
300.0059391
300.0068713
300.0080006
300.0092828
300.0106772
300.0121413
300.0136275
300.0150805
300.0164378
300.0176328
300.0185998
300.019281
300.0196332
300.0196332
300.019281
300.0185998
300.0176328
300.0164378
300.0150805
300.0136275
300.0121413
300.0106772
300.0092828
300.0080006
300.0068713
300.0059391
300.0052551
300.0048808
300.0048877
300.0053551
300.0063641
300.0079885
300.0102852
300.0093086
300.00692
300.0051118
300.0038278
300.0029946
300.0025319
300.0023617
300.0024142
300.0026319
300.0029691
300.0033907
300.003869
300.0043807
300.004904
300.0054166
300.0058953
300.0063163
300.0066564
300.0068957
300.0070193
300.0070193
300.0068957
300.0066564
300.0063163
300.0058953
300.0054166
300.004904
300.0043807
300.003869
300.0033907
300.0029691
300.0026319
300.0024142
300.0023617
300.0025319
300.0029946
300.0038278
300.0051118
300.00692
300.0093086
300.0089474
300.006525
300.0046493
300.0032641
300.0022965
300.0016663
300.0012961
300.001117
300.0010728
300.0011203
300.0012278
300.0013729
300.0015392
300.0017146
300.0018885
300.0020517
300.0021954
300.0023115
300.0023932
300.0024354
300.0024354
300.0023932
300.0023115
300.0021954
300.0020517
300.0018885
300.0017146
300.0015392
300.0013729
300.0012278
300.0011203
300.0010728
300.001117
300.0012961
300.0016663
300.0022965
300.0032641
300.0046493
300.006525
300.0089474
300.0088182
300.0063838
300.004484
300.0030629
300.0020474
300.0013577
300.0009163
300.0006549
300.0005177
300.0004625
300.000459
300.0004866
300.0005315
300.0005849
300.0006405
300.0006938
300.0007411
300.0007795
300.0008065
300.0008205
300.0008205
300.0008065
300.0007795
300.0007411
300.0006938
300.0006405
300.0005849
300.0005315
300.0004866
300.000459
300.0004625
300.0005177
300.0006549
300.0009163
300.0013577
300.0020474
300.0030629
300.004484
300.0063838
300.0088182
300.0087737
300.0063351
300.004427
300.0029935
300.0019614
300.0012511
300.0007852
300.0004954
300.0003263
300.0002358
300.0001943
300.0001816
300.0001851
300.000197
300.0002125
300.0002286
300.0002434
300.0002556
300.0002642
300.0002687
300.0002687
300.0002642
300.0002556
300.0002434
300.0002286
300.0002125
300.000197
300.0001851
300.0001816
300.0001943
300.0002358
300.0003263
300.0004954
300.0007852
300.0012511
300.0019614
300.0029935
300.004427
300.0063351
300.0087737
300.0087592
300.0063191
300.0044083
300.0029705
300.0019329
300.0012157
300.0007415
300.0004422
300.0002623
300.0001601
300.0001058
300.0000798
300.0000696
300.0000678
300.0000701
300.0000739
300.0000781
300.0000817
300.0000843
300.0000857
300.0000857
300.0000843
300.0000817
300.0000781
300.0000739
300.0000701
300.0000678
300.0000696
300.0000798
300.0001058
300.0001601
300.0002623
300.0004422
300.0007415
300.0012157
300.0019329
300.0029705
300.0044083
300.0063191
300.0087592
300.0087551
300.0063146
300.0044028
300.0029636
300.001924
300.0012045
300.0007275
300.0004251
300.0002417
300.0001356
300.0000772
300.0000469
300.0000323
300.0000261
300.0000241
300.000024
300.0000247
300.0000256
300.0000263
300.0000267
300.0000267
300.0000263
300.0000256
300.0000247
300.000024
300.0000241
300.0000261
300.0000323
300.0000469
300.0000772
300.0001356
300.0002417
300.0004251
300.0007275
300.0012045
300.001924
300.0029636
300.0044028
300.0063146
300.0087551
300.0087548
300.0063141
300.0044019
300.0029621
300.0019219
300.0012015
300.0007235
300.00042
300.0002354
300.0001281
300.0000683
300.0000366
300.0000206
300.000013
300.0000096
300.0000084
300.000008
300.0000081
300.0000082
300.0000083
300.0000083
300.0000082
300.0000081
300.000008
300.0000084
300.0000096
300.000013
300.0000206
300.0000366
300.0000683
300.0001281
300.0002354
300.00042
300.0007235
300.0012015
300.0019219
300.0029621
300.0044019
300.0063141
300.0087548
300.0087561
300.0063153
300.0044028
300.0029628
300.0019221
300.0012013
300.0007229
300.0004189
300.0002338
300.000126
300.0000658
300.0000336
300.0000171
300.000009
300.0000053
300.0000036
300.000003
300.0000027
300.0000027
300.0000027
300.0000027
300.0000027
300.0000027
300.000003
300.0000036
300.0000053
300.000009
300.0000171
300.0000336
300.0000658
300.000126
300.0002338
300.0004189
300.0007229
300.0012013
300.0019221
300.0029628
300.0044028
300.0063153
300.0087561
300.0087584
300.0063175
300.0044048
300.0029644
300.0019235
300.0012022
300.0007235
300.0004191
300.0002338
300.0001257
300.0000653
300.0000329
300.0000162
300.000008
300.0000041
300.0000023
300.0000015
300.0000012
300.0000011
300.000001
300.000001
300.0000011
300.0000012
300.0000015
300.0000023
300.0000041
300.000008
300.0000162
300.0000329
300.0000653
300.0001257
300.0002338
300.0004191
300.0007235
300.0012022
300.0019235
300.0029644
300.0044048
300.0063175
300.0087584
300.0087616
300.0063205
300.0044075
300.0029668
300.0019255
300.0012038
300.0007247
300.00042
300.0002344
300.0001261
300.0000654
300.0000329
300.0000161
300.0000078
300.0000038
300.000002
300.0000012
300.0000008
300.0000007
300.0000006
300.0000006
300.0000007
300.0000008
300.0000012
300.000002
300.0000038
300.0000078
300.0000161
300.0000329
300.0000654
300.0001261
300.0002344
300.00042
300.0007247
300.0012038
300.0019255
300.0029668
300.0044075
300.0063205
300.0087616
300.0087695
300.006328
300.0044145
300.0029729
300.0019306
300.0012081
300.000728
300.0004226
300.0002363
300.0001275
300.0000665
300.0000336
300.0000166
300.0000082
300.0000041
300.0000022
300.0000013
300.000001
300.0000008
300.0000008
300.0000008
300.0000008
300.000001
300.0000013
300.0000022
300.0000041
300.0000082
300.0000166
300.0000336
300.0000665
300.0001275
300.0002363
300.0004226
300.000728
300.0012081
300.0019306
300.0029729
300.0044145
300.006328
300.0087695
300.0102874
300.0077874
300.005764
300.0041746
300.0029627
300.0020649
300.0014176
300.0009624
300.0006491
300.0004373
300.0002959
300.0002025
300.000141
300.0001005
300.000074
300.0000565
300.0000452
300.000038
300.0000338
300.0000318
300.0000318
300.0000338
300.000038
300.0000452
300.0000565
300.000074
300.0001005
300.000141
300.0002025
300.0002959
300.0004373
300.0006491
300.0009624
300.0014176
300.0020649
300.0029627
300.0041746
300.005764
300.0077874
300.0102874
300.0113909
300.0088511
300.0067531
300.0050625
300.0037332
300.0027127
300.0019465
300.001383
300.000976
300.0006867
300.0004837
300.0003427
300.0002456
300.0001792
300.000134
300.0001036
300.0000833
300.0000703
300.0000626
300.000059
300.000059
300.0000626
300.0000703
300.0000833
300.0001036
300.000134
300.0001792
300.0002456
300.0003427
300.0004837
300.0006867
300.000976
300.001383
300.0019465
300.0027127
300.0037332
300.0050625
300.0067531
300.0088511
300.0113909
300.0121108
300.0095465
300.007402
300.0056482
300.0042452
300.0031467
300.0023042
300.0016703
300.0012018
300.0008608
300.0006162
300.0004427
300.0003209
300.0002362
300.0001778
300.000138
300.0001114
300.0000941
300.0000839
300.0000791
300.0000791
300.0000839
300.0000941
300.0001114
300.000138
300.0001778
300.0002362
300.0003209
300.0004427
300.0006162
300.0008608
300.0012018
300.0016703
300.0023042
300.0031467
300.0042452
300.0056482
300.007402
300.0095465
300.0121108
300.0124662
300.0098901
300.0077234
300.0059392
300.0045005
300.0033643
300.0024845
300.001816
300.0013169
300.0009502
300.0006846
300.0004946
300.0003602
300.0002661
300.0002009
300.0001562
300.0001262
300.0001068
300.0000951
300.0000897
300.0000897
300.0000951
300.0001068
300.0001262
300.0001562
300.0002009
300.0002661
300.0003602
300.0004946
300.0006846
300.0009502
300.0013169
300.001816
300.0024845
300.0033643
300.0045005
300.0059392
300.0077234
300.0098901
300.0124662
300.0689242
300.0723206
300.0820618
300.0980586
300.1202023
300.1483781
300.182467
300.2223349
300.2678067
300.3186206
300.3743533
300.4343094
300.4973873
300.5619569
300.6258006
300.6861614
300.7399129
300.7838459
300.8150367
300.8312426
300.8312426
300.8150367
300.783846
300.739913
300.6861615
300.6258008
300.561957
300.4973874
300.4343095
300.3743534
300.3186206
300.2678067
300.222335
300.182467
300.1483781
300.1202023
300.0980586
300.0820617
300.0723205
300.0689242
300.0337688
300.0337327
300.0366221
300.0423682
300.0508832
300.062071
300.0758313
300.0920576
300.1106274
300.1313838
300.1541061
300.1784678
300.2039878
300.2299865
300.2555669
300.2796362
300.3009749
300.3183484
300.3306456
300.3370224
300.3370224
300.3306456
300.3183484
300.3009749
300.2796362
300.2555669
300.2299865