/*--------------------------------*- C++ -*----------------------------------*\
  =========                 |
  \\      /  F ield         | OpenFOAM: The Open Source CFD Toolbox
   \\    /   O peration     | Website:  https://openfoam.org
    \\  /    A nd           | Version:  10
     \\/     M anipulation  |
\*---------------------------------------------------------------------------*/
FoamFile
{
    format      ascii;
    class       volVectorField;
    location    "0.0003";
    object      U;
}
// * * * * * * * * * * * * * * * * * * * * * * * * * * * * * * * * * * * * * //

dimensions      [0 1 -1 0 0 0 0];

internalField   nonuniform List<vector> 
16000
(
(8.620005401e-13 2.321290622e-12 -2.187731228e-13)
(2.603006279e-12 2.128584555e-12 -2.332292441e-13)
(4.386845653e-12 1.731613486e-12 -2.614372251e-13)
(6.233401445e-12 1.104428054e-12 -3.045804116e-13)
(8.159386017e-12 2.073431574e-13 -3.637331782e-13)
(1.016810414e-11 -1.013264998e-12 -4.40116418e-13)
(1.224320643e-11 -2.622184692e-12 -5.349329354e-13)
(1.434184345e-11 -4.688642526e-12 -6.491215965e-13)
(1.63898279e-11 -7.275517097e-12 -7.830804112e-13)
(1.828070755e-11 -1.042573457e-11 -9.363945886e-13)
(1.987985798e-11 -1.414792499e-11 -1.10759287e-12)
(2.103382765e-11 -1.840350337e-11 -1.293933194e-12)
(2.158451064e-11 -2.309716242e-11 -1.491225785e-12)
(2.138710573e-11 -2.807285107e-11 -1.693739395e-12)
(2.032981483e-11 -3.311728841e-11 -1.89422888e-12)
(1.835220299e-11 -3.797187381e-11 -2.084103876e-12)
(1.545966156e-11 -4.235111516e-11 -2.253739118e-12)
(1.173326501e-11 -4.596537136e-11 -2.393011414e-12)
(7.333870904e-12 -4.854929871e-11 -2.492294048e-12)
(2.495670368e-12 -4.989736207e-11 -2.543957113e-12)
(-2.495032812e-12 -4.98972145e-11 -2.543793001e-12)
(-7.33309598e-12 -4.854883893e-11 -2.491786e-12)
(-1.173216919e-11 -4.596452398e-11 -2.392085088e-12)
(-1.545803376e-11 -4.234971737e-11 -2.252230043e-12)
(-1.834980863e-11 -3.796966886e-11 -2.081751306e-12)
(-2.032633811e-11 -3.311389707e-11 -1.890648119e-12)
(-2.138209246e-11 -2.806769651e-11 -1.688345951e-12)
(-2.157732672e-11 -2.308937727e-11 -1.483141332e-12)
(-2.102357224e-11 -1.839180643e-11 -1.28186267e-12)
(-1.986521084e-11 -1.41304276e-11 -1.089632275e-12)
(-1.825971626e-11 -1.039964793e-11 -9.097418644e-13)
(-1.635960537e-11 -7.236725084e-12 -7.436115733e-13)
(-1.429812538e-11 -4.631069573e-12 -5.90761607e-13)
(-1.217970419e-11 -2.536865349e-12 -4.487273747e-13)
(-1.007557606e-11 -8.869607001e-13 -3.128481834e-13)
(-8.024449658e-12 3.942670765e-13 -1.757957094e-13)
(-6.037856617e-12 1.38151366e-12 -2.646061791e-14)
(-4.112489765e-12 2.144872592e-12 1.528501475e-13)
(-2.267414554e-12 2.75342314e-12 3.926032562e-13)
(-6.85261964e-13 3.278137804e-12 7.389492691e-13)
(7.658209503e-13 1.069831329e-12 -2.104540513e-13)
(2.308789011e-12 8.80595769e-13 -2.225924825e-13)
(3.877771971e-12 4.920449263e-13 -2.461189394e-13)
(5.481436889e-12 -1.150824181e-13 -2.818923127e-13)
(7.12545897e-12 -9.696318325e-13 -3.305488421e-13)
(8.804109262e-12 -2.108787545e-12 -3.927695354e-13)
(1.049653634e-11 -3.575087732e-12 -4.691655074e-13)
(1.216286126e-11 -5.411084528e-12 -5.601111621e-13)
(1.374182526e-11 -7.651686502e-12 -6.655558535e-13)
(1.51511021e-11 -1.031495327e-11 -7.848351744e-13)
(1.629096499e-11 -1.339262816e-11 -9.165008522e-13)
(1.705146267e-11 -1.684188661e-11 -1.058181257e-12)
(1.732273516e-11 -2.057975785e-11 -1.206486071e-12)
(1.700758498e-11 -2.448158207e-11 -1.356982332e-12)
(1.603486443e-11 -2.838459352e-11 -1.504264797e-12)
(1.437182109e-11 -3.209694647e-11 -1.642131466e-12)
(1.203370475e-11 -3.541140768e-11 -1.76388432e-12)
(9.08947938e-12 -3.812264813e-11 -1.862788528e-12)
(5.662381449e-12 -4.004761769e-11 -1.932722065e-12)
(1.923392923e-12 -4.104766425e-11 -1.968973579e-12)
(-1.923475655e-12 -4.104788633e-11 -1.968973999e-12)
(-5.662395431e-12 -4.004829766e-11 -1.932722046e-12)
(-9.089350638e-12 -3.812384891e-11 -1.862777668e-12)
(-1.203336557e-11 -3.541326918e-11 -1.763839052e-12)
(-1.437121306e-11 -3.20996943e-11 -1.642017652e-12)
(-1.603392565e-11 -2.838856413e-11 -1.504033971e-12)
(-1.700624401e-11 -2.44872871e-11 -1.35655824e-12)
(-1.732091138e-11 -2.058796695e-11 -1.205754069e-12)
(-1.704905271e-11 -1.685373383e-11 -1.056975253e-12)
(-1.628781832e-11 -1.340977685e-11 -9.145786743e-13)
(-1.514699288e-11 -1.033984958e-11 -7.81843573e-13)
(-1.373641377e-11 -7.687933544e-12 -6.609797269e-13)
(-1.215563464e-11 -5.463996809e-12 -5.531963763e-13)
(-1.048669426e-11 -3.65251463e-12 -4.588056284e-13)
(-8.790243144e-12 -2.222347565e-12 -3.773358623e-13)
(-7.104381794e-12 -1.136549751e-12 -3.075833285e-13)
(-5.443752289e-12 -3.606282852e-13 -2.471389767e-13)
(-3.793299706e-12 1.334102647e-13 -1.886065517e-13)
(-2.094410289e-12 3.772787415e-13 -9.893353798e-14)
(-6.111387443e-13 4.673757099e-13 1.68480178e-13)
(6.727649802e-13 -1.518646203e-14 -1.985643279e-13)
(2.025219876e-12 -1.960325483e-13 -2.086805814e-13)
(3.391167466e-12 -5.653309297e-13 -2.281382839e-13)
(4.771724686e-12 -1.136814784e-12 -2.575745887e-13)
(6.16568089e-12 -1.930467946e-12 -2.973430562e-13)
(7.562648238e-12 -2.970940593e-12 -3.477829741e-13)
(8.940909452e-12 -4.284854772e-12 -4.091414003e-13)
(1.026524468e-11 -5.896678592e-12 -4.814594872e-13)
(1.148595915e-11 -7.823280591e-12 -5.644451614e-13)
(1.25397659e-11 -1.006768584e-11 -6.573458837e-13)
(1.335292464e-11 -1.26128721e-11 -7.588357746e-13)
(1.384669795e-11 -1.54165987e-11 -8.669296543e-13)
(1.394481518e-11 -1.840826342e-11 -9.7893643e-13)
(1.358227007e-11 -2.148866278e-11 -1.091468438e-12)
(1.271445044e-11 -2.453326386e-11 -1.200521527e-12)
(1.132538883e-11 -2.739912152e-11 -1.301631786e-12)
(9.433959893e-12 -2.993500783e-11 -1.390118603e-12)
(7.097054999e-12 -3.199399831e-11 -1.461421715e-12)
(4.40885478e-12 -3.344761885e-11 -1.511521027e-12)
(1.495401721e-12 -3.420008828e-11 -1.537393799e-12)
(-1.495666223e-12 -3.420015425e-11 -1.537412172e-12)
(-4.409058558e-12 -3.344781859e-11 -1.511576097e-12)
(-7.097140706e-12 -3.19943429e-11 -1.461512106e-12)
(-9.433879152e-12 -2.993552158e-11 -1.390241569e-12)
(-1.132510359e-11 -2.739983941e-11 -1.301783272e-12)
(-1.271393092e-11 -2.453423379e-11 -1.200694529e-12)
(-1.358149527e-11 -2.148995598e-11 -1.091650496e-12)
(-1.394377345e-11 -1.840998311e-11 -9.791096811e-13)
(-1.384538215e-11 -1.541888943e-11 -8.670701255e-13)
(-1.335132659e-11 -1.261593931e-11 -7.589103624e-13)
(-1.253787295e-11 -1.007182766e-11 -6.573095979e-13)
(-1.148375261e-11 -7.828934441e-12 -5.642371237e-13)
(-1.026270646e-11 -5.904490156e-12 -4.809968794e-13)
(-8.938054948e-12 -4.295784011e-12 -4.083157457e-13)
(-7.559611185e-12 -2.986457608e-12 -3.464800768e-13)
(-6.162730378e-12 -1.953050515e-12 -2.955758954e-13)
(-4.767896602e-12 -1.171543798e-12 -2.559367553e-13)
(-3.374582737e-12 -6.249880494e-13 -2.279541356e-13)
(-1.933449107e-12 -3.138423489e-13 -2.010572959e-13)
(-5.951649948e-13 -2.564852181e-13 -6.920257692e-14)
(5.84974864e-13 -9.410331101e-13 -1.843378913e-13)
(1.758644544e-12 -1.110095216e-12 -1.927087644e-13)
(2.936989735e-12 -1.453657415e-12 -2.086849056e-13)
(4.116299873e-12 -1.980963942e-12 -2.327474639e-13)
(5.291333162e-12 -2.705101017e-12 -2.650707324e-13)
(6.449722436e-12 -3.641453138e-12 -3.057834034e-13)
(7.570798342e-12 -4.805456406e-12 -3.549170742e-13)
(8.62443544e-12 -6.209479113e-12 -4.123291028e-13)
(9.57081801e-12 -7.858962892e-12 -4.776173387e-13)
(1.036151059e-11 -9.748195792e-12 -5.500362282e-13)
(1.094205212e-11 -1.18562795e-11 -6.284246686e-13)
(1.125607136e-11 -1.414395318e-11 -7.111558032e-13)
(1.125067108e-11 -1.655193352e-11 -7.961184466e-13)
(1.088258454e-11 -1.900132595e-11 -8.807403677e-13)
(1.012440569e-11 -2.139645418e-11 -9.62062327e-13)
(8.970077119e-12 -2.363014929e-11 -1.036865757e-12)
(7.438827958e-12 -2.55911906e-11 -1.101855783e-12)
(5.576868364e-12 -2.717331339e-11 -1.153896795e-12)
(3.456291474e-12 -2.828497239e-11 -1.190284183e-12)
(1.17085752e-12 -2.885872596e-11 -1.209019228e-12)
(-1.171205963e-12 -2.885875567e-11 -1.209037058e-12)
(-3.456584085e-12 -2.828506454e-11 -1.190337818e-12)
(-5.577053625e-12 -2.71734779e-11 -1.153986487e-12)
(-7.438862081e-12 -2.559144334e-11 -1.101981834e-12)
(-8.969925267e-12 -2.363050963e-11 -1.037027629e-12)
(-1.012404221e-11 -2.139694373e-11 -9.622575047e-13)
(-1.088199333e-11 -1.900196861e-11 -8.80963806e-13)
(-1.124984483e-11 -1.655275379e-11 -7.963631609e-13)
(-1.125500892e-11 -1.41449751e-11 -7.114130334e-13)
(-1.094075655e-11 -1.185752894e-11 -6.28683609e-13)
(-1.035998801e-11 -9.749704864e-12 -5.502844015e-13)
(-9.569076274e-12 -7.860775806e-12 -4.778405238e-13)
(-8.622484212e-12 -6.211657445e-12 -4.125099267e-13)
(-7.568661713e-12 -4.808075642e-12 -3.550313143e-13)
(-6.447509648e-12 -3.644571185e-12 -3.057965518e-13)
(-5.289467984e-12 -2.708682776e-12 -2.649788633e-13)
(-4.115689823e-12 -1.984950226e-12 -2.329136433e-13)
(-2.935598257e-12 -1.459624348e-12 -2.110674418e-13)
(-1.725907458e-12 -1.130469006e-12 -1.995278526e-13)
(-5.537816139e-13 -1.027887457e-12 -1.444046584e-13)
(5.037028747e-13 -1.723613137e-12 -1.686238945e-13)
(1.512595571e-12 -1.879117344e-12 -1.755021438e-13)
(2.520298739e-12 -2.193841692e-12 -1.885337087e-13)
(3.520281084e-12 -2.673552978e-12 -2.080862045e-13)
(4.505191695e-12 -3.3261684e-12 -2.342228156e-13)
(5.46229285e-12 -4.160400577e-12 -2.669475391e-13)
(6.372883477e-12 -5.183971867e-12 -3.06172235e-13)
(7.211738194e-12 -6.401299221e-12 -3.516646539e-13)
(7.947242472e-12 -7.810778408e-12 -4.029919439e-13)
(8.54244929e-12 -9.401937884e-12 -4.594664322e-13)
(8.957167254e-12 -1.115284546e-11 -5.201010621e-13)
(9.15104393e-12 -1.302820908e-11 -5.835819721e-13)
(9.087442406e-12 -1.497860247e-11 -6.482651747e-13)
(8.737749406e-12 -1.694116353e-11 -7.122036318e-13)
(8.085627096e-12 -1.884196169e-11 -7.732096465e-13)
(7.130652413e-12 -2.060002495e-11 -8.289535523e-13)
(5.890795795e-12 -2.213278627e-11 -8.770969644e-13)
(4.403273207e-12 -2.336250054e-11 -9.154548249e-13)
(2.723442206e-12 -2.4223003e-11 -9.421726662e-13)
(9.216184404e-13 -2.466600565e-11 -9.558974354e-13)
(-9.220048021e-13 -2.466601443e-11 -9.559141627e-13)
(-2.723780785e-12 -2.422303407e-11 -9.422228565e-13)
(-4.403519505e-12 -2.33625676e-11 -9.155384728e-13)
(-5.890910885e-12 -2.213290992e-11 -8.772138981e-13)
(-7.130603982e-12 -2.060022993e-11 -8.291027322e-13)
(-8.085389899e-12 -1.884227425e-11 -7.733885219e-13)
(-8.737305333e-12 -1.69416088e-11 -7.124079533e-13)
(-9.086779933e-12 -1.497920168e-11 -6.48489273e-13)
(-9.150157297e-12 -1.302897798e-11 -5.838189324e-13)
(-8.956056353e-12 -1.115379475e-11 -5.203429754e-13)
(-8.541119813e-12 -9.403074665e-12 -4.597050656e-13)
(-7.945705187e-12 -7.812108693e-12 -4.03219327e-13)
(-7.210006301e-12 -6.402831061e-12 -3.51873171e-13)
(-6.370968688e-12 -5.185716308e-12 -3.06352721e-13)
(-5.460218319e-12 -4.16235718e-12 -2.67080749e-13)
(-4.503109419e-12 -3.328248746e-12 -2.342642032e-13)
(-3.518838174e-12 -2.675365645e-12 -2.080448751e-13)
(-2.520101517e-12 -2.194658233e-12 -1.892253781e-13)
(-1.501712216e-12 -1.881324326e-12 -1.799450842e-13)
(-4.925834453e-13 -1.753229868e-12 -1.574102926e-13)
(4.294706575e-13 -2.378970226e-12 -1.520205961e-13)
(1.288415988e-12 -2.520408789e-12 -1.576332085e-13)
(2.142554101e-12 -2.805691344e-12 -1.681948701e-13)
(2.983973165e-12 -3.237992872e-12 -1.839884313e-13)
(3.804485562e-12 -3.821474721e-12 -2.050110994e-13)
(4.591918968e-12 -4.560160565e-12 -2.311980096e-13)
(5.329899699e-12 -5.456564354e-12 -2.624019685e-13)
(5.997628899e-12 -6.510001127e-12 -2.983587789e-13)
(6.570179347e-12 -7.714693707e-12 -3.386502717e-13)
(7.019443543e-12 -9.057873563e-12 -3.826699861e-13)
(7.31578093e-12 -1.051813945e-11 -4.295966634e-13)
(7.430314338e-12 -1.206436784e-11 -4.783807735e-13)
(7.337716628e-12 -1.365545415e-11 -5.277488082e-13)
(7.019225325e-12 -1.524110015e-11 -5.762291797e-13)
(6.465544267e-12 -1.676375439e-11 -6.222022318e-13)
(5.67925253e-12 -1.816167139e-11 -6.639742569e-13)
(4.676352373e-12 -1.937289937e-11 -6.998728658e-13)
(3.486651639e-12 -2.033985983e-11 -7.28358043e-13)
(2.152786363e-12 -2.101405929e-11 -7.481389679e-13)
(7.278460892e-13 -2.136038089e-11 -7.582828026e-13)
(-7.282343861e-13 -2.136037441e-11 -7.582995109e-13)
(-2.153137255e-12 -2.10140453e-11 -7.481887107e-13)
(-3.486929469e-12 -2.03398539e-11 -7.284397064e-13)
(-4.676524413e-12 -1.937292494e-11 -6.999846048e-13)
(-5.679289599e-12 -1.81617569e-11 -6.641132818e-13)
(-6.465421081e-12 -1.676393008e-11 -6.223646466e-13)
(-7.018920761e-12 -1.524139503e-11 -5.764100106e-13)
(-7.337214004e-12 -1.36558934e-11 -5.27942197e-13)
(-7.429601984e-12 -1.20649713e-11 -4.785801778e-13)
(-7.314853232e-12 -1.051892138e-11 -4.297951773e-13)
(-7.018301957e-12 -9.058842974e-12 -3.828608628e-13)
(-6.56883267e-12 -7.715855403e-12 -3.388274817e-13)
(-5.996091827e-12 -6.511357578e-12 -2.985175862e-13)
(-5.328187832e-12 -5.45811906e-12 -2.625390757e-13)
(-4.590042086e-12 -4.56192135e-12 -2.313083619e-13)
(-3.802476449e-12 -3.823437504e-12 -2.050721653e-13)
(-2.982099309e-12 -3.240026016e-12 -1.839447145e-13)
(-2.141556938e-12 -2.807236492e-12 -1.682373978e-13)
(-1.284479094e-12 -2.521173732e-12 -1.595355656e-13)
(-4.25687156e-13 -2.389471868e-12 -1.493018726e-13)
(3.622643114e-13 -2.922580606e-12 -1.349554577e-13)
(1.085874453e-12 -3.050350253e-12 -1.39500616e-13)
(1.802714657e-12 -3.307323805e-12 -1.480000387e-13)
(2.504497707e-12 -3.694805071e-12 -1.606719835e-13)
(3.183024002e-12 -4.214299908e-12 -1.77477526e-13)
(3.827203216e-12 -4.866615756e-12 -1.98318826e-13)
(4.423042914e-12 -5.6508351e-12 -2.230273445e-13)
(4.953608841e-12 -6.563103477e-12 -2.513409918e-13)
(5.399370036e-12 -7.595325686e-12 -2.828802922e-13)
(5.739003548e-12 -8.733915953e-12 -3.171271708e-13)
(5.950672979e-12 -9.958784444e-12 -3.534099335e-13)
(6.013729229e-12 -1.124275623e-11 -3.908979659e-13)
(5.910710097e-12 -1.255160235e-11 -4.286092464e-13)
(5.629449169e-12 -1.384481442e-11 -4.654329661e-13)
(5.165055849e-12 -1.507717666e-11 -5.001684154e-13)
(4.521507426e-12 -1.620109199e-11 -5.315795261e-13)
(3.712607356e-12 -1.716951286e-11 -5.584625344e-13)
(2.762113292e-12 -1.79392286e-11 -5.797221625e-13)
(1.70292115e-12 -1.847418152e-11 -5.944493993e-13)
(5.753033168e-13 -1.874843541e-11 -6.01992119e-13)
(-5.75669211e-13 -1.874841982e-11 -6.020091188e-13)
(-1.703260268e-12 -1.847413982e-11 -5.944995918e-13)
(-2.762399145e-12 -1.793917537e-11 -5.798032235e-13)
(-3.712813886e-12 -1.716947036e-11 -5.585708379e-13)
(-4.52160912e-12 -1.620108763e-11 -5.317103584e-13)
(-5.165028037e-12 -1.50772403e-11 -5.003162227e-13)
(-5.629268653e-12 -1.384497579e-11 -4.655916404e-13)
(-5.910356199e-12 -1.255188893e-11 -4.287724236e-13)
(-6.013185278e-12 -1.124319189e-11 -3.910593004e-13)
(-5.949928026e-12 -9.9593887e-12 -3.535633919e-13)
(-5.738053837e-12 -8.734703538e-12 -3.172673561e-13)
(-5.398219791e-12 -7.596306492e-12 -2.830027563e-13)
(-4.952269958e-12 -6.564282902e-12 -2.51442631e-13)
(-4.421532461e-12 -5.652215651e-12 -2.231069762e-13)
(-3.825536763e-12 -4.868201592e-12 -1.983772076e-13)
(-3.181214085e-12 -4.216101936e-12 -1.775111703e-13)
(-2.502637163e-12 -3.696811224e-12 -1.6065005e-13)
(-1.801249234e-12 -3.309317527e-12 -1.479278034e-13)
(-1.083947592e-12 -3.05180949e-12 -1.401939944e-13)
(-3.60881581e-13 -2.927170567e-12 -1.345496558e-13)
(3.017010112e-13 -3.368761124e-12 -1.177228802e-13)
(9.036727899e-13 -3.483865941e-12 -1.213688283e-13)
(1.498099283e-12 -3.714800971e-12 -1.281480556e-13)
(2.076997061e-12 -4.061558196e-12 -1.382286181e-13)
(2.632674877e-12 -4.523814889e-12 -1.51554957e-13)
(3.155383776e-12 -5.10022922e-12 -1.680188892e-13)
(3.633411978e-12 -5.787689615e-12 -1.874533e-13)
(4.053138313e-12 -6.580460214e-12 -2.09617316e-13)
(4.399366871e-12 -7.469297356e-12 -2.341812084e-13)
(4.655984784e-12 -8.440644035e-12 -2.607136528e-13)
(4.806940656e-12 -9.476029135e-12 -2.886737966e-13)
(4.83749643e-12 -1.055180233e-11 -3.174104634e-13)
(4.735658432e-12 -1.163931987e-11 -3.461704615e-13)
(4.493651012e-12 -1.270565973e-11 -3.741173253e-13)
(4.109266695e-12 -1.371488963e-11 -4.003609371e-13)
(3.586916334e-12 -1.462984374e-11 -4.239972741e-13)
(2.938215772e-12 -1.541429238e-11 -4.441561917e-13)
(2.18198298e-12 -1.603532319e-11 -4.600538005e-13)
(1.343579544e-12 -1.646570214e-11 -4.710447155e-13)
(4.536077908e-13 -1.668595739e-11 -4.76668585e-13)
(-4.5393879e-13 -1.668593781e-11 -4.766851996e-13)
(-1.343892808e-12 -1.646564739e-11 -4.710934844e-13)
(-2.182260007e-12 -1.603524485e-11 -4.601316341e-13)
(-2.93843667e-12 -1.541420844e-11 -4.442583374e-13)
(-3.587059543e-12 -1.462977703e-11 -4.241177773e-13)
(-4.10930924e-12 -1.371486602e-11 -4.004931462e-13)
(-4.493569393e-12 -1.270570645e-11 -3.742543791e-13)
(-4.73543011e-12 -1.163946405e-11 -3.463057148e-13)
(-4.837101753e-12 -1.055206983e-11 -3.175378271e-13)
(-4.806364878e-12 -9.476443549e-12 -2.887879995e-13)
(-4.655219749e-12 -8.44122585e-12 -2.60810426e-13)
(-4.398412033e-12 -7.470063173e-12 -2.342574023e-13)
(-4.052000986e-12 -6.581422224e-12 -2.0967104e-13)
(-3.632106523e-12 -5.788855662e-12 -1.874842816e-13)
(-3.153928371e-12 -5.101604724e-12 -1.680291851e-13)
(-2.63108608e-12 -4.525408522e-12 -1.515480614e-13)
(-2.0753149e-12 -4.063382222e-12 -1.381973295e-13)
(-1.496555204e-12 -3.716799552e-12 -1.280739127e-13)
(-9.023321344e-13 -3.485729965e-12 -1.215898186e-13)
(-3.01048233e-13 -3.371575754e-12 -1.178619171e-13)
(2.471594943e-13 -3.730286196e-12 -1.005092902e-13)
(7.398346065e-13 -3.834111458e-12 -1.033956134e-13)
(1.225022402e-12 -4.041974045e-12 -1.087362553e-13)
(1.695483789e-12 -4.352973188e-12 -1.166594049e-13)
(2.144352977e-12 -4.76556111e-12 -1.271052957e-13)
(2.56332849e-12 -5.277001604e-12 -1.399692399e-13)
(2.942811921e-12 -5.882832513e-12 -1.550987054e-13)
(3.2720011e-12 -6.576274716e-12 -1.722838725e-13)
(3.539186216e-12 -7.347646066e-12 -1.912482748e-13)
(3.732271769e-12 -8.183858743e-12 -2.116414176e-13)
(3.839514681e-12 -9.068088479e-12 -2.330350468e-13)
(3.85043849e-12 -9.979703213e-12 -2.549245908e-13)
(3.756852695e-12 -1.089452464e-11 -2.767369957e-13)
(3.553879411e-12 -1.178546834e-11 -2.97845697e-13)
(3.240871845e-12 -1.262356877e-11 -3.17592821e-13)
(2.822104677e-12 -1.337934846e-11 -3.353178986e-13)
(2.307127902e-12 -1.402444223e-11 -3.503914848e-13)
(1.71070353e-12 -1.45333438e-11 -3.622512205e-13)
(1.052286948e-12 -1.488511109e-11 -3.704371494e-13)
(3.550676517e-13 -1.506485315e-11 -3.746226984e-13)
(-3.553592039e-13 -1.506483239e-11 -3.746378034e-13)
(-1.052567307e-12 -1.48850515e-11 -3.704813485e-13)
(-1.710960201e-12 -1.453325332e-11 -3.623213032e-13)
(-2.307346067e-12 -1.402433359e-11 -3.504825183e-13)
(-2.822266697e-12 -1.337923854e-11 -3.354237473e-13)
(-3.240957461e-12 -1.262347787e-11 -3.177067246e-13)
(-3.553866684e-12 -1.178541945e-11 -2.979608243e-13)
(-3.756719573e-12 -1.089454263e-11 -2.76846917e-13)
(-3.850164777e-12 -9.979814003e-12 -2.55023635e-13)
(-3.83908405e-12 -9.068318042e-12 -2.331185364e-13)
(-3.731673461e-12 -8.184232021e-12 -2.117057901e-13)
(-3.538416164e-12 -7.348185843e-12 -1.912911195e-13)
(-3.271062447e-12 -6.577000606e-12 -1.72303953e-13)
(-2.941714961e-12 -5.883760217e-12 -1.550961121e-13)
(-2.562089623e-12 -5.27814294e-12 -1.399459367e-13)
(-2.142991583e-12 -4.766926358e-12 -1.270657927e-13)
(-1.694028192e-12 -4.354575443e-12 -1.16606745e-13)
(-1.223596977e-12 -4.043807892e-12 -1.086625036e-13)
(-7.387237936e-13 -3.836032944e-12 -1.034394315e-13)
(-2.467273698e-13 -3.732510418e-12 -1.00718774e-13)
(1.978757488e-13 -4.018176573e-12 -8.341676013e-14)
(5.919849403e-13 -4.112327483e-12 -8.565715107e-14)
(9.792375532e-13 -4.300472163e-12 -8.978699517e-14)
(1.353409996e-12 -4.581121325e-12 -9.59021408e-14)
(1.708646461e-12 -4.951930878e-12 -1.039462508e-13)
(2.038112374e-12 -5.409290964e-12 -1.138262165e-13)
(2.334138866e-12 -5.947948505e-12 -1.254111741e-13)
(2.58832476e-12 -6.560607187e-12 -1.385266217e-13)
(2.791782844e-12 -7.23754988e-12 -1.529487604e-13)
(2.935542372e-12 -7.966341137e-12 -1.684004096e-13)
(3.011096186e-12 -8.731671825e-12 -1.845496261e-13)
(3.01106027e-12 -9.515404656e-12 -2.010120165e-13)
(2.929893308e-12 -1.029686722e-11 -2.173574896e-13)
(2.764606884e-12 -1.105341804e-11 -2.331218435e-13)
(2.515386572e-12 -1.176128262e-11 -2.478231256e-13)
(2.186042876e-12 -1.239662385e-11 -2.609821578e-13)
(1.784220433e-12 -1.29367778e-11 -2.721460442e-13)
(1.321314116e-12 -1.336155751e-11 -2.80912942e-13)
(8.120701915e-13 -1.365450783e-11 -2.869559659e-13)
(2.738864947e-13 -1.380398771e-11 -2.900439088e-13)
(-2.741371348e-13 -1.380396645e-11 -2.900565762e-13)
(-8.123137408e-13 -1.365444562e-11 -2.869929965e-13)
(-1.321542096e-12 -1.33614592e-11 -2.809715329e-13)
(-1.784421889e-12 -1.293665152e-11 -2.722218691e-13)
(-2.186203827e-12 -1.239648119e-11 -2.610698103e-13)
(-2.51549015e-12 -1.176113867e-11 -2.479166225e-13)
(-2.764634155e-12 -1.105329143e-11 -2.332151169e-13)
(-2.929824665e-12 -1.029677988e-11 -2.174448118e-13)
(-3.010877164e-12 -9.515381311e-12 -2.010883231e-13)
(-3.010782896e-12 -8.731739206e-12 -1.846107281e-13)
(-2.93508755e-12 -7.96652684e-12 -1.684431057e-13)
(-2.791180618e-12 -7.237881105e-12 -1.529708808e-13)
(-2.58757536e-12 -6.561109468e-12 -1.385270522e-13)
(-2.333248857e-12 -5.948644538e-12 -1.253899402e-13)
(-2.037094512e-12 -5.410199689e-12 -1.137848077e-13)
(-1.707518584e-12 -4.953067454e-12 -1.03888386e-13)
(-1.352196434e-12 -4.582499099e-12 -9.583327555e-14)
(-9.78012705e-13 -4.302097313e-12 -8.970844568e-14)
(-5.910346606e-13 -4.114136352e-12 -8.563112e-14)
(-1.975257076e-13 -4.020118424e-12 -8.358300783e-14)
(1.530085846e-13 -4.241620222e-12 -6.648614993e-14)
(4.575390164e-13 -4.327814942e-12 -6.817146818e-14)
(7.562285593e-13 -4.49978491e-12 -7.127087842e-14)
(1.044025074e-12 -4.755666207e-12 -7.585352831e-14)
(1.316183338e-12 -5.092614752e-12 -8.187099522e-14)
(1.567310863e-12 -5.506495874e-12 -8.924617811e-14)
(1.791495698e-12 -5.991623528e-12 -9.787327546e-14)
(1.982399725e-12 -6.540495818e-12 -1.076142074e-13)
(2.133452265e-12 -7.14356133e-12 -1.182952961e-13)
(2.238149824e-12 -7.789058954e-12 -1.297051343e-13)
(2.290451161e-12 -8.462975188e-12 -1.415943965e-13)
(2.285243091e-12 -9.149158715e-12 -1.536782288e-13)
(2.21883931e-12 -9.829621676e-12 -1.65641667e-13)
(2.089464014e-12 -1.048504091e-11 -1.771482855e-13)
(1.897666036e-12 -1.109545148e-11 -1.878519586e-13)
(1.646609502e-12 -1.164110169e-11 -1.974112629e-13)
(1.342194238e-12 -1.21034157e-11 -2.055056754e-13)
(9.929734983e-13 -1.246599104e-11 -2.11852399e-13)
(6.098567478e-13 -1.271554589e-11 -2.16222408e-13)
(2.056090339e-13 -1.284272803e-11 -2.184542253e-13)
(-2.058171093e-13 -1.284270578e-11 -2.184640467e-13)
(-6.100600616e-13 -1.271548005e-11 -2.162511378e-13)
(-9.931661005e-13 -1.246588441e-11 -2.118979086e-13)
(-1.342368054e-12 -1.210327339e-11 -2.055646506e-13)
(-1.64675385e-12 -1.164093168e-11 -1.974795115e-13)
(-1.897767703e-12 -1.109526512e-11 -1.87924768e-13)
(-2.089507886e-12 -1.048485342e-11 -1.772207833e-13)
(-2.218809456e-12 -9.829452292e-12 -1.657091433e-13)
(-2.285124107e-12 -9.149030487e-12 -1.537363951e-13)
(-2.290229578e-12 -8.462914362e-12 -1.416395734e-13)
(-2.23781536e-12 -7.789093985e-12 -1.297343763e-13)
(-2.132998792e-12 -7.143721644e-12 -1.183064755e-13)
(-1.98182588e-12 -6.54081046e-12 -1.076060835e-13)
(-1.790805182e-12 -5.992119799e-12 -9.784558505e-14)
(-1.56651254e-12 -5.507198001e-12 -8.919983774e-14)
(-1.315290993e-12 -5.093542738e-12 -8.18086353e-14)
(-1.043058051e-12 -4.756835491e-12 -7.578001895e-14)
(-7.552342298e-13 -4.501204053e-12 -7.119115711e-14)
(-4.567449051e-13 -4.329453295e-12 -6.811808555e-14)
(-1.527094416e-13 -4.243356783e-12 -6.659340192e-14)
(1.116810284e-13 -4.407983228e-12 -4.971707717e-14)
(3.338202519e-13 -4.487988648e-12 -5.091793652e-14)
(5.51386288e-13 -4.647396395e-12 -5.312527939e-14)
(7.605801542e-13 -4.88411364e-12 -5.638588186e-14)
(9.578167939e-13 -5.194995676e-12 -6.066173985e-14)
(1.139103598e-12 -5.57560875e-12 -6.589398722e-14)
(1.300138922e-12 -6.020051026e-12 -7.200318364e-14)
(1.436386958e-12 -6.52078126e-12 -7.888719688e-14)
(1.543219708e-12 -7.068481853e-12 -8.641932694e-14)
(1.616128514e-12 -7.651988507e-12 -9.444727548e-14)
(1.650996425e-12 -8.258318411e-12 -1.027934457e-13)
(1.644413782e-12 -8.872824442e-12 -1.112569689e-13)
(1.594011115e-12 -9.479494042e-12 -1.196177265e-13)
(1.498777077e-12 -1.006139874e-11 -1.276424611e-13)
(1.359325789e-12 -1.060128446e-11 -1.350928646e-13)
(1.178078664e-12 -1.108227593e-11 -1.417352991e-13)
(9.593310829e-13 -1.148865213e-11 -1.47351577e-13)
(7.091839191e-13 -1.18066366e-11 -1.517500333e-13)
(4.353332051e-13 -1.202513891e-11 -1.547759879e-13)
(1.467266039e-13 -1.213638211e-11 -1.563206619e-13)
(-1.468891544e-13 -1.21363582e-11 -1.563276924e-13)
(-4.35492369e-13 -1.202506775e-11 -1.547965901e-13)
(-7.093354414e-13 -1.180652006e-11 -1.517827794e-13)
(-9.594691538e-13 -1.148849388e-11 -1.473942171e-13)
(-1.178195556e-12 -1.108208209e-11 -1.417849358e-13)
(-1.359411891e-12 -1.060106433e-11 -1.351461631e-13)
(-1.498821326e-12 -1.006116543e-11 -1.276958707e-13)
(-1.594001735e-12 -9.47926482e-12 -1.196676921e-13)
(-1.644339234e-12 -8.872620685e-12 -1.113001167e-13)
(-1.650846394e-12 -8.258165215e-12 -1.028267398e-13)
(-1.615894832e-12 -7.651913868e-12 -9.446814765e-14)
(-1.542897093e-12 -7.068515578e-12 -8.642578835e-14)
(-1.435973515e-12 -6.520953682e-12 -7.887794113e-14)
(-1.299636399e-12 -6.020391638e-12 -7.197769051e-14)
(-1.138517451e-12 -5.576144786e-12 -6.585266453e-14)
(-9.571560737e-13 -5.195750613e-12 -6.060624704e-14)
(-7.598577494e-13 -4.885105763e-12 -5.631972273e-14)
(-5.50630509e-13 -4.648636301e-12 -5.305348192e-14)
(-3.331873913e-13 -4.489459963e-12 -5.085963818e-14)
(-1.114291956e-13 -4.409553679e-12 -4.977576636e-14)
(7.300316379e-14 -4.522867768e-12 -3.308225012e-14)
(2.181258488e-13 -4.598468971e-12 -3.385098129e-14)
(3.601035677e-13 -4.74893402e-12 -3.52669229e-14)
(4.964257933e-13 -4.972040833e-12 -3.735778333e-14)
(6.24688228e-13 -5.264475966e-12 -4.009733673e-14)
(7.422555131e-13 -5.62164723e-12 -4.344596693e-14)
(8.463231883e-13 -6.037558723e-12 -4.735085332e-14)
(9.339688983e-13 -6.504699938e-12 -5.174477168e-14)
(1.002245019e-12 -7.013970371e-12 -5.65450982e-14)
(1.048313266e-12 -7.554665047e-12 -6.165335915e-14)
(1.069615226e-12 -8.114545302e-12 -6.695560868e-14)
(1.064067459e-12 -8.680014662e-12 -7.232386502e-14)
(1.030265017e-12 -9.236412083e-12 -7.761875411e-14)
(9.676736007e-13 -9.768424266e-12 -8.269340304e-14)
(8.767888366e-13 -1.026060639e-11 -8.739849774e-14)
(7.592418307e-13 -1.069798753e-11 -9.158828307e-14)
(6.178335741e-13 -1.106672482e-11 -9.512715073e-14)
(4.564867142e-13 -1.135476113e-11 -9.789635037e-14)
(2.801112325e-13 -1.155243555e-11 -9.98002889e-14)
(9.438974156e-14 -1.165299615e-11 -1.007718698e-13)
(-9.450274614e-14 -1.165297011e-11 -1.007763768e-13)
(-2.802219211e-13 -1.155235796e-11 -9.98135268e-14)
(-4.56592229e-13 -1.135463365e-11 -9.791748674e-14)
(-6.179300844e-13 -1.106655076e-11 -9.515485436e-14)
(-7.593243016e-13 -1.069777245e-11 -9.162080248e-14)
(-8.768510417e-13 -1.026035882e-11 -8.743376089e-14)
(-9.677083753e-13 -9.768156305e-12 -8.272912998e-14)
(-1.030264708e-12 -9.23613981e-12 -7.765257498e-14)
(-1.064024502e-12 -8.679758192e-12 -7.23534375e-14)
(-1.069522761e-12 -8.114328508e-12 -6.697873233e-14)
(-1.048165723e-12 -7.554514938e-12 -6.166808584e-14)
(-1.002038606e-12 -7.013916166e-12 -5.654983857e-14)
(-9.337019399e-13 -6.504771947e-12 -5.173839604e-14)
(-8.459962861e-13 -6.037787088e-12 -4.733278548e-14)
(-7.418715139e-13 -5.622060615e-12 -4.341628236e-14)
(-6.242519703e-13 -5.265100172e-12 -4.005694099e-14)
(-4.959437389e-13 -4.972897313e-12 -3.73088156e-14)
(-3.595884303e-13 -4.750037565e-12 -3.521299584e-14)
(-2.176622833e-13 -4.59981464e-12 -3.380322811e-14)
(-7.280315736e-14 -4.52433434e-12 -3.310853526e-14)
(3.607982536e-14 -4.590173143e-12 -1.653434555e-14)
(1.077540004e-13 -4.663176586e-12 -1.690687747e-14)
(1.778144258e-13 -4.808299253e-12 -1.759768902e-14)
(2.450382077e-13 -5.023280131e-12 -1.861812172e-14)
(3.082103968e-13 -5.304725053e-12 -1.995459857e-14)
(3.660208412e-13 -5.647968389e-12 -2.15872024e-14)
(4.170862137e-13 -6.046980607e-12 -2.348960787e-14)
(4.599753096e-13 -6.494291625e-12 -2.562851085e-14)
(4.932545989e-13 -6.980949559e-12 -2.796319494e-14)
(5.155535826e-13 -7.496536703e-12 -3.044536904e-14)
(5.256468103e-13 -8.029262888e-12 -3.301940264e-14)
(5.225470004e-13 -8.566151994e-12 -3.562306393e-14)
(5.056015105e-13 -9.093330412e-12 -3.818882723e-14)
(4.74582766e-13 -9.596417074e-12 -4.0645765e-14)
(4.297625226e-13 -1.006100407e-11 -4.292198012e-14)
(3.71960238e-13 -1.047320597e-11 -4.494746884e-14)
(3.025574861e-13 -1.082024595e-11 -4.665724582e-14)
(2.234731855e-13 -1.109103958e-11 -4.799451144e-14)
(1.370981865e-13 -1.127673269e-11 -4.891361298e-14)
(4.619204316e-14 -1.137115083e-11 -4.938254582e-14)
(-4.625096683e-14 -1.137112244e-11 -4.938476749e-14)
(-1.371559058e-13 -1.127664808e-11 -4.892015328e-14)
(-2.235282389e-13 -1.10909005e-11 -4.800500116e-14)
(-3.026079503e-13 -1.082005582e-11 -4.667108578e-14)
(-3.720036163e-13 -1.047297038e-11 -4.496385433e-14)
(-4.297957481e-13 -1.006073147e-11 -4.293993459e-14)
(-4.746023175e-13 -9.596119283e-12 -4.066418251e-14)
(-5.056036221e-13 -9.093023034e-12 -3.820652182e-14)
(-5.225279317e-13 -8.565854511e-12 -3.563882558e-14)
(-5.256031396e-13 -8.028998467e-12 -3.303205809e-14)
(-5.154824893e-13 -7.496331686e-12 -3.045384632e-14)
(-4.931541019e-13 -6.980832681e-12 -2.796658894e-14)
(-4.598444361e-13 -6.494293021e-12 -2.562614656e-14)
(-4.169250673e-13 -6.047130687e-12 -2.348109743e-14)
(-3.658305346e-13 -5.648296687e-12 -2.157249757e-14)
(-3.079927714e-13 -5.305259133e-12 -1.993406933e-14)
(-2.44795142e-13 -5.024044686e-12 -1.859275054e-14)
(-1.775478356e-13 -4.809315387e-12 -1.756927125e-14)
(-1.074841672e-13 -4.664456279e-12 -1.688052559e-14)
(-3.59488963e-14 -4.591652842e-12 -1.654293326e-14)
(1.387214589e-14 -2.306157454e-12 -1.362146636e-19)
(1.109925834e-14 -2.342237616e-12 -1.361560026e-19)