/*--------------------------------*- C++ -*----------------------------------*\
  =========                 |
  \\      /  F ield         | OpenFOAM: The Open Source CFD Toolbox
   \\    /   O peration     | Website:  https://openfoam.org
    \\  /    A nd           | Version:  10
     \\/     M anipulation  |
\*---------------------------------------------------------------------------*/
FoamFile
{
    format      ascii;
    class       surfaceScalarField;
    location    "0.0002";
    object      phi;
}
// * * * * * * * * * * * * * * * * * * * * * * * * * * * * * * * * * * * * * //

dimensions      [0 3 -1 0 0 0 0];

internalField   nonuniform List<scalar> 
7080
(
-4.553960346e-12
-4.124696329e-14
-4.509715552e-12
-4.424477558e-14
-4.463177274e-12
-4.653820498e-14
-4.413637016e-12
-4.954013247e-14
-4.360129308e-12
-5.350754143e-14
-4.301872211e-12
-5.825690298e-14
-4.238183643e-12
-6.368836377e-14
-4.168440095e-12
-6.974335004e-14
-4.092081442e-12
-7.635847508e-14
-4.008615828e-12
-8.346547268e-14
-3.917622696e-12
-9.099303144e-14
-3.818757015e-12
-9.886562365e-14
-3.711754919e-12
-1.070020785e-13
-3.596440475e-12
-1.153144542e-13
-3.472733382e-12
-1.237071192e-13
-3.340657361e-12
-1.320760502e-13
-3.200348986e-12
-1.403083947e-13
-3.052066646e-12
-1.482823444e-13
-2.896199271e-12
-1.558673619e-13
-2.733274444e-12
-1.629247999e-13
-2.563965461e-12
-1.693089485e-13
-2.389096895e-12
-1.748685345e-13
-2.209648181e-12
-1.79448692e-13
-2.026754769e-12
-1.82893407e-13
-1.84170636e-12
-1.8504842e-13
-1.655941832e-12
-1.857645506e-13
-1.471040476e-12
-1.849013834e-13
-1.288709273e-12
-1.82331226e-13
-1.110766055e-12
-1.779432272e-13
-9.391185253e-13
-1.716475194e-13
-7.757392531e-13
-1.633792418e-13
-6.226368756e-13
-1.531023293e-13
-4.818239502e-13
-1.408128651e-13
-3.552827608e-13
-1.265411257e-13
-2.449312059e-13
-1.103514997e-13
-1.525850979e-13
-9.234607499e-14
-7.99197563e-14
-7.266534216e-14
-2.856714428e-14
-5.135265014e-14
-6.177454641e-16
-2.794946854e-14
2.284859241e-21
-6.178033958e-16
9.612768925e-22
-4.704376443e-24
9.595092089e-22
1.767683538e-24
9.559121946e-22
3.597094077e-24
9.505440398e-22
5.368336957e-24
9.434660692e-22
7.078255242e-24
9.347516899e-22
8.714782612e-24
9.244869288e-22
1.026531873e-23
9.127689104e-22
1.171878285e-23
8.997036563e-22
1.306628614e-23
8.854036777e-22
1.430133337e-23
8.699855788e-22
1.541981059e-23
8.535678014e-22
1.641984903e-23
8.362685922e-22
1.730161015e-23
8.182042437e-22
1.806702303e-23
7.994876301e-22
1.871949833e-23
7.802270366e-22
1.926363793e-23
7.605252627e-22
1.970495493e-23
7.404789639e-22
2.00496204e-23
7.201781662e-22
2.03042749e-23
2.047603801e-23
-4.575510476e-12
-8.464693049e-14
-4.532253258e-12
-8.750185673e-14
-4.486586268e-12
-9.220496436e-14
-4.437601112e-12
-9.852498464e-14
-4.384604446e-12
-1.065038597e-13
-4.326847901e-12
-1.16013085e-13
-4.263627432e-12
-1.269084835e-13
-4.19431003e-12
-1.390604423e-13
-4.118329184e-12
-1.52339069e-13
-4.035184767e-12
-1.666097087e-13
-3.944446407e-12
-1.817312811e-13
-3.845758119e-12
-1.975538629e-13
-3.738844101e-12
-2.139160959e-13
-3.623515695e-12
-2.306428857e-13
-3.499679365e-12
-2.475434787e-13
-3.367345453e-12
-2.644099802e-13
-3.226637438e-12
-2.810164054e-13
-3.077801395e-12
-2.971183589e-13
-2.921215285e-12
-3.124534245e-13
-2.757397678e-12
-3.267423505e-13
-2.587015474e-12
-3.396911015e-13
-2.41089014e-12
-3.509938344e-13
-2.230001982e-12
-3.603368385e-13
-2.045491953e-12
-3.67403447e-13
-1.858660507e-12
-3.718798919e-13
-1.670963058e-12
-3.734620275e-13
-1.484001666e-12
-3.718627918e-13
-1.299512667e-12
-3.66820216e-13
-1.11935013e-12
-3.581057232e-13
-9.454651877e-13
-3.4553239e-13
-7.798815543e-13
-3.289627783e-13
-6.246679158e-13
-3.08315857e-13
-4.819084024e-13
-2.835722697e-13
-3.536728774e-13
-2.547765633e-13
-2.419898921e-13
-2.2203444e-13
-1.488345096e-13
-1.855014704e-13
-7.615990485e-14
-1.453400221e-13
-2.594005516e-14
-1.015726279e-13
-1.376198491e-16
-5.375203545e-14
1.375694977e-21
-7.554589726e-16
9.631943182e-22
-1.124927071e-23
9.613372833e-22
3.624874723e-24
9.576834375e-22
7.251294479e-24
9.522539581e-22
1.079839066e-23
9.451025966e-22
1.423044067e-23
9.36302226e-22
1.751628822e-23
9.259403929e-22
2.062868289e-23
9.141164137e-22
2.354478095e-23
9.009387036e-22
2.624658029e-23
8.865221549e-22
2.872107262e-23
8.709856172e-22
3.096013757e-23
8.544495625e-22
3.296023494e-23
8.370340051e-22
3.472195089e-23
8.18856719e-22
3.624944936e-23
8.000317697e-22
3.754987383e-23
7.806683536e-22
3.863273679e-23
7.608699282e-22
3.950932758e-23
7.407336184e-22
4.01921623e-23
7.203499293e-22
4.069448542e-23
4.102976361e-23
-4.60224488e-12
-1.265601615e-13
-4.559454358e-12
-1.302922539e-13
-4.514535753e-12
-1.371233762e-13
-4.46643716e-12
-1.466233367e-13
-4.414330611e-12
-1.586101422e-13
-4.357452641e-12
-1.728907824e-13
-4.295095014e-12
-1.892658499e-13
-4.226614589e-12
-2.07540633e-13
-4.151432901e-12
-2.275205614e-13
-4.069036528e-12
-2.490059296e-13
-3.978979957e-12
-2.717877447e-13
-3.880890141e-12
-2.95643611e-13
-3.774472456e-12
-3.203337427e-13
-3.65951795e-12
-3.455973728e-13
-3.535911715e-12
-3.711497022e-13
-3.403642161e-12
-3.966795201e-13
-3.262810915e-12
-4.218476307e-13
-3.113643017e-12
-4.46286225e-13
-2.95649707e-12
-4.695993319e-13
-2.791874902e-12
-4.913644753e-13
-2.620430306e-12
-5.111356562e-13
-2.44297635e-12
-5.28447755e-13
-2.260490739e-12
-5.428224203e-13
-2.074118699e-12
-5.537754645e-13
-1.885172839e-12
-5.608257302e-13
-1.695129521e-12
-5.63505316e-13
-1.505621313e-12
-5.613709571e-13
-1.318425217e-12
-5.540162513e-13
-1.135446565e-12
-5.410842992e-13
-9.586986689e-13
-5.22280198e-13
-7.902786729e-13
-4.973826796e-13
-6.323404509e-13
-4.662539868e-13
-4.870659119e-13
-4.288467299e-13
-3.56636627e-13
-3.852057953e-13
-2.432085905e-13
-3.354624611e-13
-1.488938445e-13
-2.798162452e-13
-7.574229333e-14
-2.184916436e-13
-2.56767933e-14
-1.516382253e-13
-2.599550602e-16
-7.916894944e-14
1.112304809e-21
-1.015428988e-15
9.668448226e-22
-1.893752575e-23
9.649632316e-22
5.506598281e-24
9.612305336e-22
1.098433284e-23
9.556860081e-22
1.634349314e-23
9.483884441e-22
2.15288426e-23
9.394146207e-22
2.649125845e-23
9.288564909e-22
3.118832846e-23
9.16818213e-22
3.558500128e-23
9.034131959e-22
3.96540055e-23
8.887612199e-22
4.337593054e-23
8.729857146e-22
4.673897158e-23
8.562112784e-22
4.973839185e-23
8.385615035e-22
5.237577342e-23
8.201571435e-22
5.465813055e-23
8.011146327e-22
5.659695433e-23
7.815449444e-22
5.8207248e-23
7.615527629e-22
5.950660325e-23
7.412359415e-22
6.05143573e-23
7.206852075e-22
6.125085708e-23
6.173684507e-23
-4.632774746e-12
-1.671955784e-13
-4.591170964e-12
-1.718959485e-13
-4.547426479e-12
-1.808677389e-13
-4.500556977e-12
-1.934926979e-13
-4.449709319e-12
-2.094576476e-13
-4.394100945e-12
-2.28498999e-13
-4.333012987e-12
-2.503536483e-13
-4.265789918e-12
-2.747635437e-13
-4.191838255e-12
-3.014720725e-13
-4.110626946e-12
-3.30217097e-13
-4.021690027e-12
-3.607245345e-13
-3.924631156e-12
-3.927023713e-13
-3.819129747e-12
-4.258350602e-13
-3.70494859e-12
-4.597784587e-13
-3.581942748e-12
-4.941554908e-13
-3.45006952e-12
-5.285527087e-13
-3.309399184e-12
-5.625179363e-13
-3.160126205e-12
-5.955591774e-13
-3.002580532e-12
-6.271449746e-13
-2.837238565e-12
-6.567064048e-13
-2.664733298e-12
-6.836408747e-13
-2.485863129e-12
-7.073178648e-13
-2.301598755e-12
-7.270867239e-13
-2.113087574e-12
-7.42286564e-13
-1.921654994e-12
-7.522582185e-13
-1.728802088e-12
-7.563581236e-13
-1.536199095e-12
-7.539738484e-13
-1.345674401e-12
-7.445408453e-13
-1.159198794e-12
-7.275598111e-13
-9.788650523e-13
-7.02613855e-13
-8.06863203e-13
-6.693844575e-13
-6.454521607e-13
-6.276649736e-13
-4.969287129e-13
-5.773701397e-13
-3.635948414e-13
-5.185396481e-13
-2.477236632e-13
-4.513336425e-13
-1.515212325e-13
-3.760187018e-13
-7.706979884e-14
-2.929431218e-13
-2.621182803e-14
-2.024962483e-13
-3.075292837e-16
-1.050732797e-13
1.271094073e-21
-1.322968972e-15
9.723815887e-22
-2.837158964e-23
9.704410605e-22
7.447297785e-24
9.665896939e-22
1.483614365e-23
9.608713576e-22
2.206257993e-23
9.5335086e-22
2.905041092e-23
9.441116907e-22
3.573184658e-23
9.332531637e-22
4.204865069e-23
9.208872172e-22
4.795313685e-23
9.071351209e-22
5.340868342e-23
8.921242609e-22
5.838974255e-23
8.759851349e-22
6.288138191e-23
8.5884866e-22
6.687844111e-23
8.408438607e-22
7.038440584e-23
8.220959673e-22
7.341010633e-23
8.027249264e-22
7.597233976e-23
7.828442996e-22
7.809250376e-23
7.625605169e-22
7.979531317e-23
7.419724413e-22
8.11076545e-23
7.211711955e-22
8.205761085e-23
8.267366715e-23
-4.666912035e-12
-2.061875172e-13
-4.626895526e-12
-2.119124153e-13
-4.584743484e-12
-2.230197383e-13
-4.539502546e-12
-2.387335987e-13
-4.490316223e-12
-2.586439293e-13
-4.436394155e-12
-2.824210154e-13
-4.377007797e-12
-3.097399331e-13
-4.311488391e-12
-3.402828488e-13
-4.239225219e-12
-3.737351176e-13
-4.159665917e-12
-4.097762508e-13
-4.072319093e-12
-4.480711996e-13
-3.976758934e-12
-4.882623753e-13
-3.872631623e-12
-5.299622323e-13
-3.759663423e-12
-5.727465452e-13
-3.637670238e-12
-6.16148592e-13
-3.506568432e-12
-6.596544596e-13
-3.366386635e-12
-7.026996981e-13
-3.217278223e-12
-7.446675613e-13
-3.05953409e-12
-7.848890758e-13
-2.893595265e-12
-8.226451815e-13
-2.720064891e-12
-8.571711766e-13
-2.539718983e-12
-8.876636764e-13
-2.353515339e-12
-9.132902469e-13
-2.162599963e-12
-9.332018025e-13
-1.96831028e-12
-9.465477541e-13
-1.772174502e-12
-9.524937563e-13
-1.575906488e-12
-9.502417277e-13
-1.38139561e-12
-9.390516081e-13
-1.190691253e-12
-9.182640766e-13
-1.005981843e-12
-8.873232025e-13
-8.295685101e-13
-8.457977532e-13
-6.638337957e-13
-7.933996713e-13
-5.112058412e-13
-7.299980912e-13
-3.74118215e-13
-6.556272804e-13
-2.549643283e-13
-5.704875427e-13
-1.560422838e-13
-4.749407667e-13
-7.94787159e-14
-3.695067157e-13
-2.711171137e-14
-2.548632809e-13
-3.316826301e-16
-1.31853329e-13
1.469807092e-21
-1.654665852e-15
9.798509139e-22
-4.026195467e-23
9.778301627e-22
9.468287248e-24
9.738161302e-22
1.885077359e-23
9.678591886e-22
2.802050928e-23
9.600322956e-22
3.687867494e-23
9.504284948e-22
4.533739714e-23
9.391576499e-22
5.332160923e-23
9.263427638e-22
6.077047178e-23
9.121161801e-22
6.763801147e-23
8.966159003e-22
7.389301951e-23
8.799821941e-22
7.951830389e-23
8.623546247e-22
8.450942993e-23
8.438695612e-22
8.887310254e-23
8.246582007e-22
9.262534402e-23
8.048450904e-22
9.57896082e-23
7.84547109e-22
9.839495052e-23
7.638728583e-22
1.004743473e-22
7.429223976e-22
1.020632247e-22
7.217872518e-22
1.031982229e-22
1.039161905e-22
-4.704143322e-12
-2.431446439e-13
-4.666128799e-12
-2.499269472e-13
-4.625990544e-12
-2.631580275e-13
-4.582798332e-12
-2.819258642e-13
-4.535701206e-12
-3.057411078e-13
-4.483907249e-12
-3.342150003e-13
-4.426680714e-12
-3.669664538e-13
-4.363339813e-12
-4.036236835e-13
-4.293255006e-12
-4.438198055e-13
-4.215849414e-12
-4.871816839e-13
-4.130601501e-12
-5.333189314e-13
-4.037049878e-12
-5.818138135e-13
-3.9348001e-12
-6.322118426e-13
-3.823533317e-12
-6.840131921e-13
-3.703016627e-12
-7.366651822e-13
-3.573114924e-12
-7.895560963e-13
-3.433803975e-12
-8.420106009e-13
-3.285184436e-12
-8.932870592e-13
-3.127496413e-12
-9.425770483e-13
-2.961134126e-12
-9.890073963e-13
-2.786660148e-12
-1.031645054e-12
-2.604818606e-12
-1.069505087e-12
-2.416546659e-12
-1.10156204e-12
-2.222983485e-12
-1.126764811e-12
-2.025475971e-12
-1.144055104e-12
-1.825580277e-12
-1.152389296e-12
-1.625058479e-12
-1.150763395e-12
-1.425869539e-12
-1.138240447e-12
-1.230154057e-12
-1.113979494e-12
-1.040212392e-12
-1.077264837e-12
-8.584760311e-13
-1.027534111e-12
-6.874722667e-13
-9.644034512e-13
-5.297823134e-13
-8.876880685e-13
-3.87992765e-13
-7.974168549e-13
-2.646394638e-13
-6.938408697e-13
-1.621410586e-13
-5.774391971e-13
-8.2716584e-14
-4.489312157e-13
-2.828296902e-14
-3.092969229e-13
-3.529583515e-16
-1.597833658e-13
1.13638628e-21
-2.007630663e-15
9.893407232e-22
-5.54893006e-23
9.8721299e-22
1.15963434e-23
9.829858659e-22
2.307866928e-23
9.767173543e-22
3.42902582e-23
9.684910178e-22
4.510667642e-23
9.584127069e-22
5.541775609e-23
9.466065125e-22
6.513017538e-23
9.332103035e-22
7.416930791e-23
9.183711881e-22
8.24799452e-23
9.022411847e-22
9.002598684e-23
8.849733201e-22
9.678926268e-23
8.667182973e-22
1.027676961e-22
8.476218026e-22
1.07973035e-22
8.278224649e-22
1.124283681e-22
8.074504327e-22
1.161656199e-22
7.866265058e-22
1.192231788e-22
7.654617357e-22
1.216437657e-22
7.440573958e-22
1.234726011e-22
7.225052195e-22
1.247558848e-22
1.255395775e-22
-4.743960298e-12
-2.776807483e-13
-4.708361236e-12
-2.855260593e-13
-4.670660593e-12
-3.00858761e-13
-4.629949787e-12
-3.226367817e-13
-4.585388327e-12
-3.503026711e-13
-4.536186711e-12
-3.834166807e-13
-4.481604215e-12
-4.215489558e-13
-4.42094652e-12
-4.642813197e-13
-4.353564068e-12
-5.112021395e-13
-4.27885257e-12
-5.618930179e-13
-4.196255839e-12
-6.159154745e-13
-4.105270859e-12
-6.72798606e-13
-4.005455024e-12
-7.320275097e-13
-3.896435456e-12
-7.930326236e-13
-3.777920259e-12
-8.551802735e-13
-3.649711546e-12
-9.177647287e-13
-3.511719992e-12
-9.800020883e-13
-3.363980632e-12
-1.041026353e-12
-3.206669534e-12
-1.099888067e-12
-3.0401209e-12
-1.155555931e-12
-2.864844034e-12
-1.206921797e-12
-2.681539528e-12
-1.252809452e-12
-2.4911139e-12
-1.291987517e-12
-2.294691802e-12
-1.323186759e-12
-2.09362485e-12
-1.345121915e-12
-1.889496043e-12
-1.356517981e-12
-1.684118736e-12
-1.356140606e-12
-1.479529168e-12
-1.342829951e-12
-1.277971666e-12
-1.315536965e-12
-1.081875837e-12
-1.273360667e-12
-8.938252993e-13
-1.215584674e-12
-7.165177902e-13
-1.141711001e-12
-5.527166688e-13
-1.051489238e-12
-4.051939335e-13
-9.449396385e-13
-2.766647001e-13
-8.223701474e-13
-1.697125658e-13
-6.843913688e-13
-8.670479331e-14
-5.31939017e-13
-2.970075862e-14
-3.663009771e-13
-3.765445121e-16
-1.89107586e-13
1.268103768e-22
-2.384149437e-15
1.00096082e-21
-7.513883619e-23
9.986957285e-22
1.386184586e-23
9.941974548e-22
2.757787295e-23
9.875337725e-22
4.095537989e-23
9.788020975e-22
5.384022797e-23
9.681251262e-22
6.60969602e-23
9.55645645e-22
7.761215482e-23
9.415209408e-22
8.829668841e-23
9.259172298e-22
9.808644447e-23
9.090044605e-22
1.069416261e-22
8.909517536e-22
1.148449328e-22
8.719236362e-22
1.217989154e-22
8.520771357e-22
1.278228383e-22
8.315597167e-22
1.329493492e-22
8.105079916e-22
1.372212123e-22
7.890470927e-22
1.406882916e-22
7.672905711e-22
1.434049004e-22
7.453406795e-22
1.454275662e-22
7.232889122e-22
1.468132182e-22
1.476177951e-22
-4.785781336e-12
-3.094030328e-13
-4.753008397e-12
-3.182990707e-13
-4.718171362e-12
-3.356959071e-13
-4.680383945e-12
-3.604243204e-13
-4.638819817e-12
-3.918668958e-13
-4.592695302e-12
-4.295412453e-13
-4.541266819e-12
-4.729774286e-13
-4.483828192e-12
-5.217198742e-13
-4.419708913e-12
-5.753212944e-13
-4.34827467e-12
-6.333271048e-13
-4.268930306e-12
-6.952596703e-13
-4.181125179e-12
-7.606035704e-13
-4.084360885e-12
-8.28791659e-13
-3.978201285e-12
-8.991920981e-13
-3.862284759e-12
-9.710966915e-13
-3.736338523e-12
-1.043710867e-12
-3.600194833e-12
-1.116145685e-12
-3.453808803e-12
-1.187412286e-12
-3.297277501e-12
-1.256419263e-12
-3.13085988e-12
-1.321973437e-12
-2.954996967e-12
-1.382784592e-12
-2.770331618e-12
-1.437474685e-12
-2.577726995e-12
-1.484592031e-12
-2.378282765e-12
-1.52263089e-12
-2.173347876e-12
-1.550056719e-12
-1.964528666e-12
-1.565337122e-12
-1.75369097e-12
-1.566978254e-12
-1.542954888e-12
-1.553566008e-12
-1.33468098e-12
-1.523810875e-12
-1.131446804e-12
-1.476594869e-12
-9.36013047e-13
-1.411018479e-12
-7.512788359e-13
-1.326445276e-12
-5.802262906e-13
-1.222541854e-12
-4.25854829e-13
-1.099311169e-12
-2.911062095e-13
-9.571188236e-13
-1.787816024e-13
-7.967160112e-13
-9.145241488e-14
-6.192682096e-13
-3.137119221e-14
-4.263821688e-13
-4.038343671e-16
-2.200748763e-13
-9.677954947e-22
-2.787912724e-15
1.014849773e-21
-1.005500395e-22
1.012412241e-21
1.629986058e-23
1.007574962e-21
3.241618227e-23
1.000418621e-21
4.811325623e-23
9.910588297e-22
6.320196127e-23
9.796403208e-22
7.751772014e-23
9.663301786e-22
9.092476048e-23
9.513106968e-22
1.033187678e-22
9.347724114e-22
1.146274167e-22
9.169077671e-22
1.248090422e-22
8.979057362e-22
1.338498528e-22
8.779475591e-22
1.417601532e-22
8.572036466e-22
1.485700407e-22
8.358315797e-22
1.543249864e-22
8.139750709e-22
1.590816229e-22
7.917637015e-22
1.62903956e-22
7.693132368e-22
1.658601183e-22
7.467263316e-22
1.680197089e-22
7.240934891e-22
1.694517244e-22
1.702230675e-22
-4.828929333e-12
-3.379149926e-13
-4.799391964e-12
-3.478365114e-13
-4.76784589e-12
-3.672420696e-13
-4.733430759e-12
-3.948395277e-13
-4.695338548e-12
-4.299591471e-13
-4.65279493e-12
-4.720848542e-13
-4.605055849e-12
-5.207164515e-13
-4.551404264e-12
-5.753713606e-13
-4.491148116e-12
-6.355773175e-13
-4.423620763e-12
-7.008543264e-13
-4.348184e-12
-7.706963048e-13
-4.264233681e-12
-8.445537704e-13
-4.171207908e-12
-9.218173215e-13
-4.068597793e-12
-1.001802104e-12
-3.955960744e-12
-1.083733631e-12
-3.832936158e-12
-1.166735339e-12
-3.699263408e-12
-1.249818315e-12
-3.55480189e-12
-1.331873683e-12
-3.399552826e-12
-1.411668209e-12
-3.233682414e-12
-1.487843745e-12
-3.057545739e-12
-1.558921181e-12
-2.87171074e-12
-1.623309619e-12
-2.676981281e-12
-1.679321443e-12
-2.474418223e-12
-1.725193914e-12
-2.265357151e-12
-1.759117768e-12
-2.051421224e-12
-1.779273034e-12
-1.834527495e-12
-1.783871978e-12
-1.616884947e-12
-1.771208563e-12
-1.400982552e-12
-1.739713295e-12
-1.18956581e-12
-1.688011657e-12
-9.85600596e-13
-1.614983758e-12
-7.922236474e-13
-1.519822304e-12
-6.126797164e-13
-1.402085868e-12
-4.502462995e-13
-1.261744657e-12
-3.081478189e-13
-1.099217347e-12
-1.894619578e-13
-9.154018696e-13
-9.702148658e-14
-7.117086199e-13
-3.331911439e-14
-4.900844161e-13
-4.357286932e-16
-2.52958094e-13
-1.279874492e-21
-3.223543343e-15
1.03118075e-21
-1.333777366e-22
1.028529128e-21
1.895200016e-23
1.023272036e-21
3.767431099e-23
1.015507326e-21
5.587945491e-23
1.005374589e-21
7.3336537e-23
9.930473612e-22
8.984704873e-23
9.787241859e-22
1.052502287e-22
9.626193457e-22
1.194260487e-22
9.449540369e-22
1.322953027e-22
9.259485778e-22
1.438172329e-22
9.058160366e-22
1.539853165e-22
8.847574466e-22
1.628218983e-22
8.629585923e-22
1.703723225e-22
8.405882162e-22
1.766991069e-22
8.17797404e-22
1.818765564e-22
7.947198639e-22
1.859860597e-22
7.714728274e-22
1.891121878e-22
7.481583471e-22
1.913396289e-22
7.248648321e-22
1.927509445e-22
1.934250695e-22
-4.872618275e-12
-3.628215843e-13
-4.846723527e-12
-3.737313016e-13
-4.818895839e-12
-3.95069785e-13
-4.788306865e-12
-4.254284929e-13
-4.754172104e-12
-4.64093854e-13
-4.715730816e-12
-5.10526049e-13
-4.672241442e-12
-5.642057057e-13
-4.622977591e-12
-6.246350868e-13
-4.567225538e-12
-6.913292558e-13
-4.50428443e-12
-7.637953383e-13
-4.433469289e-12
-8.415113666e-13
-4.354116805e-12
-9.239061818e-13
-4.265593952e-12
-1.010340097e-12
-4.167309442e-12
-1.100086522e-12
-4.058728028e-12
-1.192314935e-12
-3.939387611e-12
-1.286075628e-12
-3.808919092e-12
-1.3802867e-12
-3.667068793e-12
-1.473723856e-12
-3.513723225e-12
-1.565013674e-12
-3.348935814e-12
-1.652631084e-12
-3.172955053e-12
-1.734901904e-12
-2.986253331e-12
-1.810011332e-12
-2.789555451e-12
-1.876019333e-12
-2.583865593e-12
-1.930883792e-12
-2.370491169e-12
-1.972492213e-12
-2.151061754e-12
-1.99870247e-12
-1.927541025e-12
-2.007392728e-12
-1.702229478e-12
-1.996520137e-12
-1.477755647e-12
-1.964187164e-12
-1.257053702e-12
-1.908713657e-12
-1.043325671e-12
-1.82871186e-12
-8.399871925e-13
-1.72316086e-12
-6.505966684e-13
-1.591476462e-12
-4.787689204e-13
-1.433572448e-12
-3.280759326e-13
-1.24991033e-12
-2.019384531e-13
-1.041539281e-12
-1.035129399e-13
-8.101339927e-13
-3.558249936e-14
-5.580146476e-13
-4.732254045e-16
-2.880671438e-13
-5.054998331e-22
-3.696686133e-15
1.050168389e-21
-1.756626235e-22
1.047252094e-21
2.186879334e-23
1.04147718e-21
4.345016408e-23
1.032964408e-21
6.439353252e-23
1.0218851e-21
8.441743968e-23
1.008450541e-21
1.032834451e-22
9.929000059e-22
1.208028204e-22
9.754885997e-22
1.368397314e-22
9.564759672e-22
1.51310449e-22
9.361166614e-22
1.641793139e-22
9.146526184e-22
1.754524171e-22
8.923078708e-22
1.851700027e-22
8.692853767e-22
1.933984951e-22
8.457656657e-22
2.002228599e-22
8.219069073e-22
2.057397753e-22
7.978459919e-22
2.100518791e-22
7.737002685e-22
2.13263199e-22
7.495696627e-22
2.154757639e-22
7.255389571e-22
2.167872985e-22
2.172897995e-22
-4.915944992e-12
-3.837334852e-13
-4.894094884e-12
-3.955814033e-13
-4.870410838e-12
-4.187537751e-13
-4.844104508e-12
-4.517347088e-13
-4.814421494e-12
-4.937767085e-13
-4.780619917e-12
-5.443274471e-13
-4.741964555e-12
-6.028608981e-13
-4.697721916e-12
-6.688775865e-13
-4.647157163e-12
-7.41893912e-13
-4.589533958e-12
-8.214184849e-13
-4.524117326e-12
-9.069279618e-13
-4.450179528e-12
-9.978439444e-13
-4.367008988e-12
-1.093510583e-12
-4.27392236e-12
-1.193173067e-12
-4.170279774e-12
-1.295957409e-12
-4.055503326e-12
-1.400851949e-12
-3.92909879e-12
-1.50669111e-12
-3.790680516e-12
-1.612142025e-12
-3.639999339e-12
-1.71569478e-12
-3.476973207e-12
-1.815657184e-12
-3.301720048e-12
-1.910155066e-12
-3.114592147e-12
-1.997139263e-12
-2.916211011e-12
-2.074400511e-12
-2.707501371e-12
-2.139593477e-12
-2.489722563e-12
-2.190271062e-12
-2.264495161e-12
-2.223929908e-12
-2.033820333e-12
-2.238067589e-12
-1.80008911e-12
-2.230251394e-12
-1.566078592e-12
-2.198197722e-12
-1.334932159e-12
-2.139860139e-12
-1.110121153e-12
-2.053522919e-12
-8.953862426e-13
-1.93789582e-12
-6.946578726e-13
-1.792204862e-12
-5.119568799e-13
-1.616273434e-12
-3.512782965e-13
-1.410588855e-12
-2.164630508e-13
-1.176354408e-12
-1.110632179e-13
-9.15533651e-13
-3.821121141e-14
-6.308664393e-13
-5.175056939e-16
-3.257606664e-13
7.851152885e-22
-4.214159348e-15
1.072077804e-21
-2.299115809e-22
1.068834225e-21
2.511279838e-23
1.062420548e-21
4.986459908e-23
1.052988315e-21
7.382680341e-23
1.040751106e-21
9.66559367e-23
1.025969916e-21
1.180661808e-22
1.008936917e-21
1.378376532e-22
9.899593173e-22
1.558194867e-22
9.69344832e-22
1.719274394e-22
9.473897646e-22
1.861372467e-22
9.24370204e-22
1.984751996e-22
9.005363632e-22
2.090074179e-22
8.761097415e-22
2.178290583e-22
8.512825812e-22
2.250543622e-22
8.262190112e-22
2.308081022e-22
8.010573118e-22
2.352186912e-22
7.759128334e-22
2.384130075e-22
7.508811973e-22
2.405128231e-22
7.26041458e-22
2.416325737e-22
2.418781207e-22
-4.957884168e-12
-4.002714206e-13
-4.940472022e-12
-4.12993487e-13
-4.921351426e-12
-4.378742309e-13
-4.89978377e-12
-4.733021561e-13
-4.875052786e-12
-5.185074508e-13
-4.846441954e-12
-5.729380434e-13
-4.813227284e-12
-6.360753735e-13
-4.774671398e-12
-7.074333386e-13
-4.730019763e-12
-7.865454733e-13
-4.678500076e-12
-8.729381424e-13
-4.619324859e-12
-9.661031679e-13
-4.551697268e-12
-1.065471517e-12
-4.474820196e-12
-1.170387609e-12
-4.387908799e-12
-1.280084387e-12
-4.290206551e-12
-1.393659554e-12
-4.181004986e-12
-1.510053404e-12
-4.059667209e-12
-1.628028788e-12
-3.925655251e-12
-1.74615391e-12
-3.778561218e-12
-1.862788775e-12
-3.618142062e-12
-1.976076336e-12
-3.444357582e-12
-2.083939568e-12
-3.257411006e-12
-2.184085876e-12
-3.057791148e-12
-2.274020415e-12
-2.846314699e-12
-2.351069973e-12
-2.624166742e-12
-2.412419062e-12
-2.392937021e-12
-2.455159666e-12
-2.154648955e-12
-2.476355688e-12
-1.911777892e-12
-2.473122484e-12
-1.667254752e-12
-2.442720886e-12
-1.424451107e-12
-2.382663804e-12
-1.187142028e-12
-2.290832013e-12
-9.594438338e-13
-2.165594015e-12
-7.45725305e-13
-2.00592337e-12
-5.504929758e-13
-1.811505714e-12
-3.78253749e-13
-1.582828002e-12
-2.333604077e-13
-1.321247641e-12
-1.198471383e-13
-1.029046794e-12
-4.126822912e-14
-7.094452237e-13
-5.699739672e-16
-3.664588555e-13
1.728319405e-21
-4.784151841e-15
1.097236621e-21
-2.99188489e-22
1.093586907e-21
2.876283037e-23
1.086382752e-21
5.706930081e-23
1.075817448e-21
8.43928721e-23
1.06216135e-21
1.103130441e-22
1.045741389e-21
1.344874533e-22
1.02691875e-21
1.566619668e-22
1.00606727e-21
1.766730507e-22
9.835546393e-22
1.944425779e-22
9.597277175e-22
2.099670902e-22
9.349024223e-22
2.233038107e-22
9.093580035e-22
2.345555398e-22
8.833350454e-22
2.438561188e-22
8.570363212e-22
2.513575907e-22
8.306296002e-22
2.572196681e-22
8.042516281e-22
2.616017104e-22
7.78012649e-22
2.646571062e-22
7.52000948e-22
2.665297297e-22
7.26287005e-22
2.67351983e-22
2.67243978e-22
-4.997285602e-12
-4.120711141e-13
-4.984691458e-12
-4.255875197e-13
-4.970544424e-12
-4.520210638e-13
-4.954167044e-12
-4.896792734e-13
-4.934890711e-12
-5.377835078e-13
-4.912032117e-12
-5.957963935e-13
-4.884884626e-12
-6.63222682e-13
-4.852711315e-12
-7.396065372e-13
-4.81474045e-12
-8.245162864e-13
-4.770164293e-12
-9.175142835e-13
-4.718141296e-12
-1.018126156e-12
-4.657801689e-12
-1.1258111e-12
-4.588256569e-12
-1.239932678e-12
-4.508610667e-12
-1.359730214e-12
-4.417979004e-12
-1.484291131e-12
-4.315507661e-12
-1.612524663e-12
-4.200398906e-12
-1.743137475e-12
-4.071940877e-12
-1.874611894e-12
-3.929541939e-12
-2.005187691e-12
-3.772769707e-12
-2.132848565e-12
-3.601394505e-12
-2.25531478e-12
-3.415436746e-12
-2.370043657e-12
-3.21521729e-12
-2.474239901e-12
-3.001409368e-12
-2.564877931e-12
-2.775090008e-12
-2.63873846e-12
-2.537788208e-12
-2.692461501e-12
-2.291526327e-12
-2.722617594e-12
-2.038850411e-12
-2.725798411e-12
-1.782844554e-12
-2.698726737e-12
-1.527123994e-12
-2.638384343e-12
-1.275801756e-12
-2.542154219e-12
-1.033424357e-12
-2.407971372e-12
-8.048736849e-13
-2.234473996e-12
-5.952346754e-13
-2.021144675e-12
-4.096318344e-13
-1.768430797e-12
-2.530409841e-13
-1.477838455e-12
-1.300852393e-13
-1.152002519e-12
-4.483246034e-14
-7.946980065e-13
-6.322894766e-16
-4.106590736e-13
1.939690294e-21
-5.416482491e-15
1.126051253e-21
-3.872160332e-22
1.121894403e-21
3.291988418e-23
1.113706324e-21
6.525774756e-23
1.10173762e-21
9.636214152e-23
1.086335759e-21
1.257157392e-22
1.067915902e-21
1.529084931e-22
1.046929834e-21
1.776496289e-22
1.023836797e-21
1.99768121e-22
9.990791516e-22
2.192026916e-22
9.73064438e-22
2.35984687e-22
9.461541515e-22
2.502173835e-22
9.186585825e-22
2.620548046e-22
8.908365172e-22
2.716822912e-22
8.628983987e-22
2.79300173e-22
8.350116424e-22
2.851111092e-22
8.073070239e-22
2.893110918e-22
7.798852725e-22
2.92083691e-22
7.528232013e-22
2.935968732e-22
7.26179e-22
2.940016837e-22
2.93432286e-22
-5.032873352e-12
-4.187890298e-13
-5.025458444e-12
-4.330022896e-13
-5.016680126e-12
-4.607991642e-13
-5.005935192e-12
-5.004239502e-13
-4.992613772e-12
-5.511046812e-13
-4.976075061e-12
-6.123349058e-13
-4.955637259e-12
-6.83660348e-13
-4.930569542e-12
-7.646741775e-13
-4.900086721e-12
-8.549990708e-13
-4.863347387e-12
-9.542535957e-13
-4.819455563e-12
-1.062017952e-12
-4.767465878e-12
-1.177800739e-12
-4.706392416e-12
-1.301006079e-12
-4.635221451e-12
-1.430901109e-12
-4.552928389e-12
-1.566584125e-12
-4.458499251e-12
-1.706953744e-12
-4.350957086e-12
-1.850679595e-12
-4.229393701e-12
-1.996175242e-12
-4.093007029e-12
-2.141574333e-12
-3.941144344e-12
-2.284711227e-12
-3.773351332e-12
-2.423107778e-12
-3.589426711e-12
-2.553968279e-12
-3.389481642e-12
-2.674184988e-12
-3.174002613e-12
-2.780356992e-12
-2.943915692e-12
-2.86882542e-12
-2.70064917e-12
-2.935728056e-12
-2.446190563e-12
-2.977076216e-12
-2.183132867e-12
-2.988856097e-12
-1.914703903e-12
-2.967155665e-12
-1.644771816e-12
-2.908316376e-12
-1.377819458e-12
-2.809106518e-12
-1.11888087e-12
-2.666909907e-12
-8.734346925e-13
-2.479920138e-12
-6.472522809e-13
-2.247327077e-12
-4.462027138e-13
-1.969480384e-12
-2.760216575e-13
-1.648019559e-12
-1.420554044e-13
-1.285968842e-12
-4.900305872e-14
-8.877504394e-13
-7.064161579e-16
-4.589558075e-13
1.606544427e-21
-6.122931102e-15
1.159028991e-21
-4.984896594e-22
1.15423347e-21
3.771552512e-23
1.144810718e-21
7.468077132e-23
1.131091218e-21
1.100821375e-22
1.113528513e-21
1.432792454e-22
1.092657038e-21
1.737811412e-22
1.069048326e-21
2.012599192e-22
1.043271368e-21
2.255470643e-22
1.015861147e-21
2.4661529e-22
9.872971345e-22
2.645514655e-22
9.579915725e-22
2.795261183e-22
9.282860692e-22
2.91763908e-22
8.984543989e-22
3.015179603e-22
8.687093349e-22
3.090495204e-22
8.39211625e-22
3.146132367e-22
8.100796231e-22
3.184476004e-22
7.813984548e-22
3.207695964e-22
7.532280117e-22
3.217724706e-22
7.256096023e-22
3.216256953e-22
3.204764806e-22
-5.063246579e-12
-4.201090027e-13
-5.061346812e-12
-4.34901925e-13
-5.058311071e-12
-4.638347228e-13
-5.05362519e-12
-5.051096431e-13
-5.046750685e-12
-5.579790276e-13
-5.037100057e-12
-6.219854238e-13
-5.024025284e-12
-6.96735055e-13
-5.006808714e-12
-7.818907095e-13
-4.984656889e-12
-8.77150864e-13
-4.95669795e-12
-9.822124943e-13
-4.921982602e-12
-1.096733242e-12
-4.879488685e-12
-1.220294585e-12
-4.828129497e-12
-1.352365196e-12
-4.766766167e-12
-1.492264376e-12
-4.694224477e-12
-1.639125763e-12
-4.609316605e-12
-1.791861572e-12
-4.510868352e-12
-1.949127803e-12
-4.397752448e-12
-2.109291097e-12
-4.268928513e-12
-2.270398214e-12
-4.123490181e-12
-2.430149509e-12
-3.960719689e-12
-2.585878234e-12
-3.780149969e-12
-2.73453799e-12
-3.58163377e-12
-2.872701207e-12
-3.365418729e-12
-2.996572075e-12
-3.132226403e-12
-3.102017793e-12
-2.883332185e-12
-3.184622311e-12
-2.620641654e-12
-3.239766758e-12
-2.346757444e-12
-3.262740287e-12
-2.065029073e-12
-3.248883992e-12
-1.779576787e-12
-3.193768605e-12
-1.495279493e-12
-3.09340376e-12
-1.217716764e-12
-2.944472603e-12
-9.530562967e-13
-2.744580602e-12
-7.078814791e-13
-2.492501925e-12
-4.889592514e-13
-2.188402673e-12
-3.029551662e-13
-1.834023726e-12
-1.561095754e-13
-1.432814523e-12
-5.390564589e-14
-9.899544561e-13
-7.94713916e-16
-5.120668044e-13
1.036052769e-21
-6.917653333e-15
1.19680888e-21
-6.384018236e-22
1.191200129e-21
4.332436593e-23
1.180212084e-21
8.566910454e-23
1.164288326e-21
1.260064676e-22
1.144030409e-21
1.635380723e-22
1.120135816e-21
1.97677005e-22
1.093335471e-21
2.280618885e-22
1.064339594e-21
2.545449025e-22
1.033797322e-21
2.771598576e-22
1.002271787e-21
2.960796657e-22
9.702293621e-22
3.115716283e-22
9.380401216e-22