/*--------------------------------*- C++ -*----------------------------------*\
  =========                 |
  \\      /  F ield         | OpenFOAM: The Open Source CFD Toolbox
   \\    /   O peration     | Website:  https://openfoam.org
    \\  /    A nd           | Version:  10
     \\/     M anipulation  |
\*---------------------------------------------------------------------------*/
FoamFile
{
    format      ascii;
    class       volScalarField;
    location    "0.0002";
    object      TRHS;
}
// * * * * * * * * * * * * * * * * * * * * * * * * * * * * * * * * * * * * * //

dimensions      [1 -1 -3 0 0 0 0];

internalField   nonuniform List<scalar> 
3600
(
-1.47282093e-11
1.363894459e-09
5.325305706e-09
9.242513969e-09
1.228660021e-08
1.425986369e-08
1.49730419e-08
1.459029843e-08
1.296763766e-08
1.034365323e-08
7.279382631e-09
4.043959052e-09
1.163728056e-09
-9.469089266e-10
-2.163658014e-09
-2.372706057e-09
-1.731551547e-09
-6.266225305e-10
6.036541321e-10
1.615024407e-09
2.077094357e-09
1.850383607e-09
1.014069519e-09
-1.925421627e-10
-1.419401945e-09
-2.311406711e-09
-2.618810889e-09
-2.235311709e-09
-1.216276108e-09
2.106632868e-10
1.722197138e-09
3.034204385e-09
3.945973147e-09
4.261555331e-09
3.743746738e-09
2.229633343e-09
-1.646967925e-10
-2.946296878e-09
-5.372385926e-09
-4.432754691e-09
-2.600022737
0
0
0
0
0
0
0
0
0
0
0
0
0
0
0
0
0
0
0
4.23328387e-09
1.009531996e-08
1.696083459e-08
2.232342567e-08
2.553571235e-08
2.664596261e-08
2.560654196e-08
2.269772332e-08
1.834048431e-08
1.30628362e-08
7.844154696e-09
3.203443949e-09
-3.297006293e-10
-2.249873042e-09
-2.652432863e-09
-1.873727956e-09
-3.311640887e-10
1.379657565e-09
2.687847743e-09
3.19655579e-09
2.721524717e-09
1.390658566e-09
-3.689346499e-10
-2.021412654e-09
-3.085885737e-09
-3.204302926e-09
-2.228380267e-09
-3.247285832e-10
2.05428467e-09
4.371897627e-09
6.199245962e-09
7.227939994e-09
7.165915201e-09
5.721955977e-09
2.773492486e-09
-1.395171887e-09
-6.004426801e-09
-1.00067863e-08
-1.028943738e-08
-2.866235224e-09
-1.561559807
0
0
0
0
0
0
0
0
0
0
0
0
0
0
0
0
0
0
0
4.377652995e-09
9.21784015e-09
1.417504429e-08
1.775410463e-08
1.950934581e-08
1.995339627e-08
1.908945348e-08
1.701124837e-08
1.419946628e-08
1.092295667e-08
7.616756402e-09
4.68344709e-09
2.441125078e-09
1.035742382e-09
3.998409328e-10
4.206068577e-10
8.98258942e-10
1.531924475e-09
2.024470055e-09
2.178227761e-09
1.973375784e-09
1.529156017e-09
1.00962306e-09
6.376245738e-10
6.884762533e-10
1.319110101e-09
2.421305956e-09
3.697979575e-09
4.851116637e-09
5.674570478e-09
6.026370558e-09
5.777916691e-09
4.797025956e-09
2.97643195e-09
3.339060349e-10
-2.830631645e-09
-5.860207813e-09
-7.869896381e-09
-6.195491383e-09
-1.114815469e-09
-1.15503206
0
0
0
0
0
0
0
0
0
0
0
0
0
0
0
0
0
0
0
3.37951386e-09
6.456656166e-09
8.958102816e-09
1.034495207e-08
1.112311111e-08
1.147270217e-08
1.155489278e-08
1.14004605e-08
1.094725402e-08
1.019856199e-08
9.193762908e-09
7.884876755e-09
6.423640926e-09
4.908303898e-09
3.428081608e-09
2.2464708e-09
1.483105031e-09
1.116608887e-09
1.204945807e-09
1.746413309e-09
2.560421353e-09
3.453860053e-09
4.357475499e-09
5.26248665e-09
6.103510138e-09
6.737803436e-09
7.021167516e-09
6.879130014e-09
6.312628925e-09
5.380945384e-09
4.201892293e-09
2.924231389e-09
1.637671879e-09
3.0856257e-10
-1.136465217e-09
-2.618904024e-09
-3.796266403e-09
-4.183029473e-09
-2.377984313e-09
-4.124352542e-10
-1.17944927
0
0
0
0
0
0
0
0
0
0
0
0
0
0
0
0
0
0
0
1.838080107e-09
3.124150304e-09
3.076524203e-09
2.695129501e-09
2.887665308e-09
3.718702743e-09
5.181571321e-09
7.195390445e-09
9.176529121e-09
1.067410778e-08
1.146486639e-08
1.117963825e-08
9.904073373e-09
7.956883991e-09
5.609489846e-09
3.350987163e-09
1.726280387e-09
1.061325556e-09
1.424175004e-09
2.647995885e-09
4.432987177e-09
6.449996992e-09
8.345568511e-09
9.769261035e-09
1.047480781e-08
1.03749575e-08
9.501168067e-09
7.953371276e-09
5.911631345e-09
3.675137257e-09
1.63027753e-09
1.041144934e-10
-8.039430089e-10
-1.249152464e-09
-1.485012966e-09
-1.659991635e-09
-1.72620023e-09
-1.559091049e-09
-6.893301173e-10
-4.324454552e-10
-1.360972446
0
0
0
0
0
0
0
0
0
0
0
0
0
0
0
0
0
0
0
2.101997768e-10
-6.695884725e-10
-2.576543446e-09
-3.957135665e-09
-3.882337623e-09
-2.148561958e-09
8.987415543e-10
4.792205161e-09
8.611153123e-09
1.152294806e-08
1.320220046e-08
1.334597135e-08
1.199783472e-08
9.555374844e-09
6.654185371e-09
4.121136871e-09
2.549717547e-09
2.150780785e-09
2.928968831e-09
4.694961174e-09
7.020127651e-09
9.333202024e-09
1.110139072e-08
1.199062605e-08
1.190619886e-08
1.090297117e-08
9.094344235e-09
6.663553806e-09
3.928319293e-09
1.336732643e-09
-6.628145419e-10
-1.811298358e-09
-2.144793751e-09
-1.929597496e-09
-1.493455686e-09
-1.075811879e-09
-7.773041096e-10
-6.576212289e-10
-5.91381694e-10
-6.59901788e-11
-1.15155609
0
0
0
0
0
0
0
0
0
0
0
0
0
0
0
0
0
0
0
-1.453070313e-09
-3.719371079e-09
-6.611671782e-09
-8.185860909e-09
-7.55689091e-09
-4.721436556e-09
-4.510481665e-10
4.323256256e-09
8.690947072e-09
1.195130231e-08
1.36795003e-08
1.356591391e-08
1.194970275e-08
9.559092585e-09
7.088554107e-09
5.173418168e-09
4.208192073e-09
4.310637148e-09
5.402044661e-09
7.143888152e-09
8.979266255e-09
1.037269836e-08
1.101303529e-08
1.083849745e-08
9.926013111e-09
8.376810177e-09
6.304307795e-09
3.898822889e-09
1.463459103e-09
-6.407715518e-10
-2.120185935e-09
-2.861570373e-09
-2.947524278e-09
-2.579428081e-09
-1.975158846e-09
-1.299661913e-09
-6.458598273e-10
-1.008742476e-10
3.923848103e-10
-3.890376047e-09
-166.2171045
0
0
0
0
0
0
0
0
0
0
0
0
0
0
0
0
0
0
0
-2.431936721e-09
-5.290000135e-09
-8.113963816e-09
-8.745138344e-09
-6.993849573e-09
-3.47123541e-09
9.313121059e-10
5.434506056e-09
9.166292672e-09
1.14835455e-08
1.226963077e-08
1.166697292e-08
1.027430176e-08
8.726011444e-09
7.408108769e-09
6.638902192e-09
6.564736112e-09
7.080341844e-09
7.910002738e-09
8.666974328e-09
8.995469204e-09
8.746115382e-09
7.995523261e-09
6.917715389e-09
5.645449439e-09
4.227725911e-09
2.683302757e-09
1.064219864e-09
-5.250366087e-10
-1.942448458e-09
-3.043983247e-09
-3.718641286e-09
-3.896824989e-09
-3.545438002e-09
-2.66479888e-09
-1.284287703e-09
5.262845932e-10
2.61769382e-09
4.542475909e-09
5.627584349e-08
1529.655513
0
0
0
0
0
0
0
0
0
0
0
0
0
0
0
0
0
0
0
-2.744361481e-09
-5.142632525e-09
-6.342231502e-09
-5.324345114e-09
-2.666293734e-09
9.321584838e-10
4.557397807e-09
7.518909264e-09
9.261030968e-09
9.698899445e-09
9.298758385e-09
8.512198027e-09
7.85545382e-09
7.628436362e-09
7.816947811e-09
8.335904464e-09
8.955433986e-09
9.309680804e-09
9.099629257e-09
8.209529911e-09
6.74828665e-09
5.016135211e-09
3.363443695e-09
2.030818586e-09
1.069568346e-09
3.729095476e-10
-2.33698104e-10
-9.20202e-10
-1.796631201e-09
-2.848416489e-09
-3.903107636e-09
-4.665722375e-09
-4.805784457e-09
-4.049656462e-09
-2.250944595e-09
5.717196775e-10
4.205911235e-09
8.246618706e-09
1.092754059e-08
8.723814094e-08
2385.526874
0
0
0
0
0
0
0
0
0
0
0
0
0
0
0
0
0
0
0
-2.064321953e-09
-2.939153844e-09
-1.798563084e-09
1.036134537e-09
4.347811218e-09
7.289747002e-09
9.070219957e-09
9.450963196e-09
8.577506029e-09
7.066713591e-09
5.78679265e-09
5.21343202e-09
5.59479335e-09
6.808925273e-09
8.366950669e-09
9.728223935e-09
1.036104376e-08
9.883356957e-09
8.276231413e-09
5.876698393e-09
3.222265613e-09
8.583473402e-10
-8.351432276e-10
-1.736920636e-09
-1.982732428e-09
-1.875394225e-09
-1.759157108e-09
-1.926223375e-09
-2.53394562e-09
-3.507659969e-09
-4.508769555e-09
-5.037611566e-09
-4.604627655e-09
-2.886395695e-09
1.895412803e-10
4.410160934e-09
9.254487945e-09
1.396685322e-08
1.523938031e-08
4.833259661e-08
1251.612484
0
0
0
0
0
0
0
0
0
0
0
0
0
0
0
0
0
0
0
-5.651362568e-10
6.655085011e-10
4.385445141e-09
8.772471893e-09
1.206185204e-08
1.350871375e-08
1.279371021e-08
1.041075751e-08
7.235780277e-09
4.368402773e-09
2.789893145e-09
2.79037497e-09
4.231728996e-09
6.517121398e-09
8.727696623e-09
1.006328642e-08
1.001178539e-08
8.482909403e-09
5.867905496e-09
2.844116232e-09
9.443733645e-11
-1.904955721e-09
-2.973482692e-09
-3.205728189e-09
-2.899699829e-09
-2.435468847e-09
-2.141710063e-09
-2.225003144e-09
-2.726725829e-09
-3.455709343e-09
-3.981382105e-09
-3.789652092e-09
-2.489416274e-09
5.489740847e-11
3.680049966e-09
7.931069057e-09
1.20682699e-08
1.521710696e-08
1.348905133e-08
2.914525046e-09
-0.6049338043
0
0
0
0
0
0
0
0
0
0
0
0
0
0
0
0
0
0
0
1.383065436e-09
4.783917429e-09
1.055442619e-08
1.562199474e-08
1.801819237e-08
1.74957895e-08
1.443178195e-08
1.000166059e-08
5.560463101e-09
2.348367916e-09
1.16341357e-09
1.921404191e-09
4.03982303e-09
6.558277204e-09
8.420789771e-09
8.95932558e-09
8.008155327e-09
5.877349071e-09
3.211997394e-09
6.958052997e-10
-1.19865631e-09
-2.310167592e-09
-2.729848468e-09
-2.67449002e-09
-2.401608596e-09
-2.129775237e-09
-1.968828604e-09
-1.937102221e-09
-1.995652941e-09
-2.003364494e-09
-1.691776898e-09
-7.81531778e-10
8.411711125e-10
3.071517117e-09
5.608858975e-09
8.000951165e-09
9.654072056e-09
9.991686768e-09
6.091261055e-09
-7.422073457e-10
-1.714864327
0
0
0
0
0
0
0
0
0
0
0
0
0
0
0
0
0
0
0
3.281939505e-09
8.335294576e-09
1.490911736e-08
1.94013721e-08
2.026032554e-08
1.791583051e-08
1.339364103e-08
8.288260444e-09
4.034265717e-09
1.613924242e-09
1.357061495e-09
2.707018784e-09
4.767548825e-09
6.554142594e-09
7.304614612e-09
6.821641899e-09
5.382420221e-09
3.519921742e-09
1.777883363e-09
4.822850066e-10
-3.291620814e-10
-8.310984437e-10
-1.221706635e-09
-1.568754332e-09
-1.822295562e-09
-1.873282232e-09
-1.598922482e-09
-9.702928429e-10
-1.130078966e-10
8.087896087e-10
1.71485821e-09
2.585776547e-09
3.34425422e-09
3.864483649e-09
4.024773965e-09
3.728597891e-09
2.838681413e-09
1.243466542e-09
-2.165574236e-09
-2.791258985e-09
-2.118838212
0
0
0
0
0
0
0
0
0
0
0
0
0
0
0
0
0
0
0
4.565662488e-09
1.015257544e-08
1.595438692e-08
1.871663862e-08
1.784042747e-08
1.440086482e-08
9.815922189e-09
5.687609688e-09
3.056214938e-09
2.279001778e-09
3.068125902e-09
4.51259512e-09
5.746745169e-09
6.191495029e-09
5.702702842e-09
4.625197876e-09
3.477449798e-09
2.652038706e-09
2.241531635e-09
2.034952292e-09
1.691875514e-09
9.474159998e-10
-1.816104115e-10
-1.346385824e-09
-2.083154109e-09
-2.045187004e-09
-1.114247053e-09
5.037716692e-10
2.29940174e-09
3.721057219e-09
4.426628032e-09
4.309908809e-09
3.387439413e-09
1.800591991e-09
-1.67282674e-10
-2.15748107e-09
-3.934884393e-09
-5.43682246e-09
-6.373895903e-09
-2.525147341e-09
-1.814990631
0
0
0
0
0
0
0
0
0
0
0
0
0
0
0
0
0
0
0
4.835733533e-09
9.563275792e-09
1.309682384e-08
1.345618796e-08
1.118064689e-08
7.773101455e-09
4.648655345e-09
2.917749152e-09
2.817648609e-09
3.907572254e-09
5.391401415e-09
6.343730141e-09
6.341406087e-09
5.497605024e-09
4.31097201e-09
3.423079604e-09
3.208031596e-09
3.586065608e-09
4.074345865e-09
4.064227863e-09
3.170874675e-09
1.407318242e-09
-7.505353818e-10
-2.512251144e-09
-3.195523074e-09
-2.53480432e-09
-7.125793593e-10
1.684461294e-09
3.823818577e-09
4.992743723e-09
4.895136992e-09
3.619681485e-09
1.456701054e-09
-1.148646812e-09
-3.629805303e-09
-5.446415405e-09
-6.376134861e-09
-6.569837506e-09
-5.299163176e-09
-7.017252029e-10
-1.077630949
0
0
0
0
0
0
0
0
0
0
0
0
0
0
0
0
0
0
0
3.91124992e-09
6.589387302e-09
6.918852673e-09
4.883368659e-09
2.022329831e-09
-1.321847301e-10
-6.441379911e-10
6.885389623e-10
3.140873497e-09
5.612871358e-09
7.162313746e-09
7.265291205e-09
6.201419872e-09
4.746494057e-09
3.735809452e-09
3.675551283e-09
4.455770946e-09
5.447222665e-09
5.808171811e-09
4.941978711e-09
2.829905204e-09
-2.158857388e-11
-2.74648223e-09
-4.419203505e-09
-4.530707063e-09
-3.183651223e-09
-9.111579917e-10
1.518091362e-09
3.298438721e-09
3.906356468e-09
3.312137187e-09
1.829133373e-09
-1.319061948e-10
-2.105507535e-09
-3.586471347e-09
-4.179376138e-09
-3.886367229e-09
-3.04757208e-09
-1.086686768e-09
1.37688465e-09
-0.3275511455
0
0
0
0
0
0
0
0
0
0
0
0
0
0
0
0
0
0
0
1.934249741e-09
1.873651079e-09
-1.012068998e-09
-4.710502221e-09
-7.100337998e-09
-7.104974426e-09
-4.681074928e-09
-6.681619333e-10
3.445358357e-09
6.330100709e-09
7.364376408e-09
6.705382584e-09
5.281193299e-09
4.165288363e-09
4.037467197e-09
4.892693206e-09
6.069482949e-09
6.665410164e-09
5.951762643e-09
3.780997117e-09
6.881343304e-10
-2.482222161e-09
-4.883192762e-09
-5.90489055e-09
-5.480219869e-09
-4.038855648e-09
-2.145400937e-09
-3.208739579e-10
9.909005938e-10
1.569383701e-09
1.523507262e-09
1.099580785e-09
4.855437751e-10
-1.209485397e-10
-4.330765812e-10
-1.847712108e-10
5.944713933e-10
1.711214463e-09
3.293309781e-09
-7.725369111e-10
-93.48512727
0
0
0
0
0
0
0
0
0
0
0
0
0
0
0
0
0
0
0
-5.623600319e-10
-3.337015703e-09
-8.50277686e-09
-1.259723621e-08
-1.358192746e-08
-1.125231595e-08
-6.600841003e-09
-1.257849686e-09
3.041734923e-09
5.301286825e-09
5.573599658e-09
4.674132217e-09
3.792325162e-09
3.751209697e-09
4.652133397e-09
5.891882247e-09
6.551240369e-09
5.971865297e-09
3.991981779e-09
1.068483511e-09
-1.936196782e-09
-4.329204994e-09
-5.771385732e-09
-6.202434655e-09
-5.868313755e-09
-5.120608752e-09
-4.10254694e-09
-2.820834264e-09
-1.39030514e-09
-2.477082817e-12
1.228249149e-09
2.188867889e-09
2.717959589e-09
2.810686729e-09
2.753286857e-09
2.957780833e-09
3.579854063e-09
4.580509766e-09
5.227788653e-09
1.338543579e-09
-0.9422940165
0
0
0
0
0
0
0
0
0
0
0
0
0
0
0
0
0
0
0
-2.88607387e-09
-7.529808439e-09
-1.3370551e-08
-1.648055385e-08
-1.562922703e-08
-1.165993851e-08
-6.35023981e-09
-1.543148787e-09
1.440520933e-09
2.399752424e-09
2.117507373e-09
1.707563075e-09
2.047303051e-09
3.237991884e-09
4.689497e-09
5.489816408e-09
4.990342023e-09
3.241489242e-09
7.716028965e-10
-1.645423119e-09
-3.365794003e-09
-4.349960119e-09
-4.943415679e-09
-5.408087264e-09
-5.826686084e-09
-6.03577983e-09
-5.60944196e-09
-4.243977635e-09
-2.134862559e-09
1.805641573e-10
2.202571686e-09
3.553751507e-09
4.007308692e-09
3.702143508e-09
3.177230783e-09
3.014982537e-09
3.317473569e-09
3.757375553e-09
2.806493578e-09
-1.341233239e-09
-2.160671075
0
0
0
0
0
0
0
0
0
0
0
0
0
0
0
0
0
0
0
-4.400026227e-09
-9.481166097e-09
-1.420154993e-08
-1.533046409e-08
-1.294940444e-08
-8.748276085e-09
-4.699347881e-09
-2.139533157e-09
-1.418054053e-09
-1.790678861e-09
-2.05375086e-09
-1.365744548e-09
3.36095099e-10
2.284442065e-09
3.488351231e-09
3.262388704e-09
1.690540619e-09
-3.700829325e-10
-2.046062749e-09
-2.83469639e-09
-2.804831163e-09
-2.675143105e-09
-3.133639722e-09
-4.20599405e-09
-5.397208934e-09
-6.01559365e-09
-5.450813792e-09
-3.619962597e-09
-1.152343243e-09
1.073997155e-09
2.493528266e-09
2.913533164e-09
2.418759734e-09
1.436988306e-09
5.896521131e-10
2.219671965e-10
6.568201805e-12
-7.503621424e-10
-3.083571392e-09
-3.292900877e-09
-2.558002241
0
0
0
0
0
0
0
0
0
0
0
0
0
0
0
0
0
0
0
-4.632608606e-09
-8.631235436e-09
-1.083565298e-08
-9.755044664e-09
-6.844354473e-09
-4.070389805e-09
-2.866750333e-09
-3.458527606e-09
-5.006713228e-09
-6.09006069e-09
-5.662025282e-09
-3.685698091e-09
-1.087389984e-09
7.826244481e-10
1.103288994e-09
-1.043629707e-10
-1.940019164e-09
-3.133627475e-09
-3.106455691e-09
-2.113580494e-09
-9.653129571e-10
-6.775333e-10
-1.623453751e-09
-3.177865967e-09
-4.372157413e-09
-4.536196441e-09
-3.505972521e-09
-1.729812763e-09
-9.342029204e-11
6.95678153e-10
5.375245156e-10
-2.738729738e-10
-1.370577206e-09
-2.37432734e-09
-3.058470265e-09
-3.57178259e-09
-4.394156734e-09
-5.872324854e-09
-7.277176894e-09
-2.122506554e-09
-1.521059608
0
0
0
0
0
0
0
0
0
0
0
0
0
0
0
0
0
0
0
-3.482506505e-09
-5.268866337e-09
-4.463452611e-09
-1.83310752e-09
2.522275878e-10
2.972066848e-10
-1.971522693e-09
-5.421766553e-09
-8.286867235e-09
-9.087355908e-09
-7.539918836e-09
-4.63566108e-09
-2.005343669e-09
-9.688061796e-10
-1.628110939e-09
-3.145197955e-09
-4.219235726e-09
-3.86670143e-09
-2.316389994e-09
-5.563835227e-10
4.27907381e-10
8.192448486e-11
-1.21047866e-09
-2.358248629e-09
-2.602502462e-09
-1.999780992e-09
-1.082652566e-09
-4.878107669e-10
-6.947778832e-10
-1.701877452e-09
-3.003933084e-09
-4.068770118e-09
-4.712814042e-09
-5.061570707e-09
-5.397355048e-09
-5.882710219e-09
-6.345181148e-09
-6.375665791e-09
-4.418368973e-09
6.500275939e-09
143.538093
0
0
0
0
0
0
0
0
0
0
0
0
0
0
0
0
0
0
0
-1.340517139e-09
-5.151083714e-10
2.693930105e-09
5.549338996e-09
5.621857101e-09
2.53951942e-09
-2.542482184e-09
-7.404463859e-09
-1.004685943e-08
-9.663491098e-09
-7.076612495e-09
-4.055312035e-09
-2.271128286e-09
-2.361534701e-09
-3.512779781e-09
-4.462743933e-09
-4.240337879e-09
-2.72433615e-09
-9.268457628e-10
6.856073582e-11
-5.950656547e-11
-9.284032857e-10
-1.630578038e-09
-1.393890839e-09
-4.297492795e-10
2.971740055e-10
6.289784443e-11
-1.169296116e-09
-2.970357435e-09
-4.697333098e-09
-5.726652483e-09
-5.847292187e-09
-5.419909032e-09
-5.031657207e-09
-4.916382092e-09
-4.52291877e-09
-2.985610419e-09
-7.140607557e-11
4.233584466e-09
4.413261325e-08
1171.999548
0
0
0
0
0
0
0
0
0
0
0
0
0
0
0
0
0
0
0
1.072644198e-09
4.011919208e-09
8.118648865e-09
9.717822938e-09
7.269949403e-09
1.83745752e-09
-4.241396496e-09
-8.422365833e-09
-9.36268388e-09
-7.448619196e-09
-4.474358155e-09
-2.302128342e-09
-1.8796454e-09
-2.815061561e-09
-3.698294695e-09
-3.582999676e-09
-2.453084692e-09
-1.080157098e-09
-6.060462512e-10
-1.31696595e-09
-2.375624688e-09
-2.739672886e-09
-1.848923928e-09
-6.333185575e-11
1.315424551e-09
1.079667155e-09
-7.700540331e-10
-3.207644986e-09
-5.17275425e-09
-6.092046788e-09
-5.836864736e-09
-4.73444824e-09
-3.483329292e-09
-2.569767888e-09
-1.605087175e-09
4.877619762e-10
4.04288489e-09
8.098029664e-09
1.062804941e-08
3.451715514e-09
-0.5309847913
0
0
0
0
0
0
0
0
0
0
0
0
0
0
0
0
0
0
0
2.972116745e-09
6.751043745e-09
9.893174614e-09
9.197634349e-09
4.704789925e-09
-1.270971895e-09
-5.969551384e-09
-7.544897514e-09
-6.035339126e-09
-3.051477447e-09
-7.277140907e-10
-1.521459716e-10
-1.036003513e-09
-2.146511863e-09
-2.193264386e-09
-1.235312189e-09
-3.252620864e-10
-5.011853727e-10
-2.104393587e-09
-4.110133672e-09
-4.849814603e-09
-3.588347819e-09
-9.987887949e-10
1.336825523e-09
1.835356292e-09
1.09047663e-10
-2.65594759e-09
-4.827200109e-09
-5.62477474e-09
-5.180583624e-09
-3.899688551e-09
-2.267085774e-09
-7.836093262e-10
5.716919863e-10
2.527665235e-09
5.524197185e-09
8.508941617e-09
1.004248523e-08
7.948517285e-09
-8.939924508e-10
-2.438742558
0
0
0
0
0
0
0
0
0
0
0
0
0
0
0
0
0
0
0
3.717210603e-09
6.735890156e-09
7.391338312e-09
4.260348148e-09
-8.672141408e-10
-5.120249139e-09
-6.386794499e-09
-4.416503352e-09
-8.467147291e-10
2.039692808e-09
2.697935202e-09
1.47691667e-09
-1.008789732e-10
-6.684612936e-10
1.743511262e-10
1.154845772e-09
6.965435099e-10
-1.551951386e-09
-4.551529946e-09
-6.306606453e-09
-5.386675274e-09
-2.359220598e-09
7.586457261e-10
2.077177697e-09
9.520031363e-10
-1.665949537e-09
-3.981956269e-09
-4.852938773e-09
-4.4453466e-09
-3.449378612e-09
-2.227146988e-09
-9.090824837e-10
4.515063173e-10
2.097793355e-09
4.133879757e-09
5.803087526e-09
5.707524772e-09
3.232307796e-09
-2.14498481e-09
-4.870431621e-09
-3.756624134
0
0
0
0
0
0
0
0
0
0
0
0
0
0
0
0
0
0
0
3.012977399e-09
3.94480291e-09
1.514557398e-09
-3.168757059e-09
-7.024278496e-09
-7.668603816e-09
-4.632756558e-09
3.628190286e-10
4.544782056e-09
5.941029756e-09
4.453933616e-09
1.965295348e-09
6.298795541e-10
1.04810586e-09
2.315928356e-09
2.403253522e-09
1.817775763e-10
-3.327934802e-09
-5.980133936e-09
-5.938381963e-09
-3.135508697e-09
3.740127513e-10
2.203271042e-09
1.527771184e-09
-7.322072889e-10
-2.916860483e-09
-3.883037511e-09
-3.721136199e-09
-3.263958761e-09
-2.983723018e-09
-2.67575588e-09
-2.006065756e-09
-8.208757706e-10
6.588857112e-10
1.479183515e-09
7.713508135e-10
-1.799666873e-09
-6.442716632e-09
-1.125146214e-08
-5.567293511e-09
-3.708842827
0
0
0
0
0
0
0
0
0
0
0
0
0
0
0
0
0
0
0
1.068139553e-09
-6.637618454e-10
-5.615439503e-09
-1.022636242e-08
-1.112836106e-08
-7.466795813e-09
-9.056102422e-10
5.250703363e-09
8.138948031e-09
7.132873359e-09
3.928841338e-09
1.367377669e-09
1.176660637e-09
2.553885818e-09
3.553634837e-09
2.319029314e-09
-9.992404484e-10
-4.097328077e-09
-4.81457658e-09
-2.714068479e-09
6.000915524e-10
2.567376399e-09
1.947083189e-09
-2.491705173e-10
-2.166204571e-09
-2.843306716e-09
-2.664142454e-09
-2.626245967e-09
-3.291275585e-09
-4.34869607e-09
-5.034109391e-09
-4.768210661e-09
-3.598697748e-09
-2.516559345e-09
-2.739114846e-09
-4.126953493e-09
-6.73620795e-09
-1.106618816e-08
-1.341993878e-08
-2.945524433e-09
-2.435590731
0
0
0
0
0
0
0
0
0
0
0
0
0
0
0
0
0
0
0
-1.451289031e-09
-5.48665408e-09
-1.143030142e-08
-1.422682384e-08
-1.146109378e-08
-4.410842982e-09
3.425424066e-09
8.258438212e-09
8.380577088e-09
5.162826798e-09
1.599488564e-09
4.423524596e-10
1.937914631e-09
3.799098733e-09
3.925634939e-09
1.624624349e-09
-1.491555553e-09
-2.764806252e-09
-1.322172487e-09
1.402515974e-09
3.049726061e-09
2.182828372e-09
-3.411433725e-10
-2.254581766e-09
-2.322080166e-09
-1.34632773e-09
-9.38634668e-10
-1.932790107e-09
-3.98591393e-09
-6.116841597e-09
-7.246511891e-09
-6.74898554e-09
-5.154352384e-09
-3.761948417e-09
-3.128633463e-09
-3.342021388e-09
-5.379626409e-09
-7.906756935e-09
-8.017467825e-09
2.914143485e-10
-2.156459825
0
0
0
0
0
0
0
0
0
0
0
0
0
0
0
0
0
0
0
-3.688384684e-09
-8.864871843e-09
-1.387675483e-08
-1.37340708e-08
-7.980806708e-09
1.203989735e-10
6.306680713e-09
7.772508029e-09
4.880851946e-09
9.210669732e-10
-1.072112372e-09
2.900845062e-10
3.300391517e-09
4.854855854e-09
3.818655787e-09
1.176018279e-09
-6.426576851e-10
8.86511596e-11
2.289925061e-09
3.417680619e-09
2.035165549e-09
-1.026867602e-09
-3.281747153e-09
-2.887784131e-09
-5.488489053e-10
1.363089142e-09
1.221632126e-09
-8.526556857e-10
-3.787095693e-09
-6.287571717e-09
-7.015765202e-09
-5.52555608e-09
-2.900944361e-09
-7.606464841e-11
2.22790161e-09
1.79632091e-09
-3.297356925e-10
-9.84024465e-11
1.240192466e-09
-7.387720495e-12
-4.647739228
0
0
0
0
0
0
0
0
0
0
0
0
0
0
0
0
0
0
0
-4.91399965e-09
-9.675193519e-09
-1.216791421e-08
-9.097808692e-09
-2.313533733e-09
3.86715064e-09
5.941859381e-09
3.379784325e-09
-1.216885239e-09
-3.69728379e-09
-2.450480963e-09
1.584645062e-09
5.125200017e-09
5.478592557e-09
3.34618581e-09
1.119186494e-09
8.611087986e-10
2.472541943e-09
3.40257538e-09
1.622873997e-09
-2.065700227e-09
-4.86825485e-09
-4.419865863e-09
-9.042347161e-10
3.040809155e-09
4.825762018e-09
3.896086342e-09
1.226401853e-09
-1.902253627e-09
-3.969161038e-09
-3.515546701e-09
-6.903740674e-10
3.098761894e-09
6.946331484e-09
8.449144783e-09
6.117054659e-09
4.108574426e-09
4.531471712e-09
4.559269766e-09
-3.484537722e-08
-931.5281606
0
0
0
0
0
0
0
0
0
0
0
0
0
0
0
0
0
0
0
-4.751034697e-09
-7.694551879e-09
-7.007686604e-09
-2.207198966e-09
3.040585481e-09
4.79944911e-09
1.796039606e-09
-3.721422899e-09
-7.627486696e-09
-6.634074373e-09
-1.729830939e-09
3.794564584e-09
6.303939425e-09
4.801232969e-09
2.011106823e-09
7.335944926e-10
1.53251868e-09
2.532459906e-09
1.123284768e-09
-2.760476648e-09
-6.158737062e-09
-6.059523823e-09
-2.079070971e-09
3.336958325e-09
7.074808145e-09
7.819941282e-09
6.250663465e-09
3.557411181e-09
9.895895499e-10
1.762024969e-10
2.014110231e-09
5.586003174e-09
9.354544212e-09
1.121397959e-08
9.787107213e-09
7.427524577e-09
3.574301906e-09
-3.672840061e-10
-1.942707741e-09
-1.73574524e-06
-51174.66978
0
0
0
0
0
0
0
0
0
0
0
0
0
0
0
0
0
0
0
-3.265159823e-09
-3.617260156e-09
-2.078270084e-10
4.415756157e-09
5.929727917e-09
2.216125428e-09
-4.93954844e-09
-1.103388193e-08
-1.196579794e-08
-6.839219987e-09
3.614608994e-10
5.115275651e-09
5.108953988e-09
1.793229591e-09
-7.784066671e-10
-7.333244432e-10
4.856443454e-10
2.170170315e-10
-2.718085284e-09
-6.178213683e-09
-6.645897442e-09
-2.965167297e-09
2.740488176e-09
7.271406558e-09
8.976233121e-09
8.37285712e-09
6.667231926e-09
4.746220706e-09
3.725488622e-09
4.662893608e-09
7.229833523e-09
1.019617051e-08
1.154101562e-08
9.108297857e-09
6.470687306e-09
4.568130549e-09
-1.696273693e-09
-8.37616108e-09
-6.137473174e-09
1.461443138e-07
4398.377132
0
0
0
0
0
0
0
0
0
0
0
0
0
0
0
0
0
0
0
-9.158558929e-10
1.273918389e-09
6.124718176e-09
8.751696638e-09
5.559989403e-09
-2.813033975e-09
-1.174012387e-08
-1.581725258e-08
-1.280264311e-08
-4.911151871e-09
1.738169759e-09
3.34577103e-09
3.090371002e-10
-3.710814591e-09
-4.770097495e-09
-3.044565827e-09
-1.605851994e-09
-2.513822141e-09
-4.874448728e-09
-5.554304785e-09
-2.612099203e-09
2.3826889e-09
6.225744297e-09
7.311009727e-09
6.487395119e-09
5.364722531e-09
4.688728739e-09
4.735091848e-09
6.002626278e-09
8.251224259e-09
1.029327122e-08
1.103850159e-08
8.553468733e-09
4.050633852e-09
1.014140452e-09
-1.69711307e-09
-4.398802001e-09
-9.087371654e-09
-5.418673099e-09
1.601301909e-05
473409.0259
0
0
0
0
0
0
0
0
0
0
0
0
0
0
0
0
0
0
0
1.631078854e-09
5.646121624e-09
1.043701346e-08
1.005596277e-08
2.751527418e-09
-7.95838563e-09
-1.580495997e-08
-1.637878716e-08
-1.04234262e-08
-2.816417685e-09
1.719831117e-10
-2.549372263e-09
-7.503016306e-09
-1.017161791e-08
-8.41931411e-09
-4.854867998e-09
-3.051726336e-09
-3.402535411e-09
-3.521910514e-09
-1.198447722e-09
2.758532394e-09
5.192220757e-09
4.383188133e-09
1.833775047e-09
1.798268989e-10
5.464755841e-10
2.460792952e-09
5.302920708e-09
8.424787086e-09
1.061542365e-08
1.078478241e-08
8.072681261e-09
3.45662831e-09
-2.508534089e-10
-3.942887706e-09
-4.370089591e-09
-1.054140594e-09
-3.586613748e-09
-7.266376633e-10
27202.73269
283984.3488
0
0
0
0
0
0
0
0
0
0
0
0
0
0
0
0
0
0
0
3.762859712e-09
8.597732234e-09
1.217077271e-08
8.877772785e-09
-6.491782271e-10
-1.08443408e-08
-1.550829532e-08
-1.283762604e-08
-6.602147827e-09
-2.654845546e-09
-5.062662586e-09
-1.116667286e-08
-1.545799986e-08
-1.466798519e-08
-9.689530558e-09
-4.897418686e-09
-2.902420801e-09
-2.156921511e-09
-1.83859535e-10
2.960066032e-09
4.399053563e-09
1.882641296e-09
-2.965874226e-09
-6.181862914e-09
-5.560595632e-09
-1.933241336e-09
2.884833152e-09
7.527265431e-09
1.066618647e-08
1.128726664e-08
8.745148836e-09
3.323027939e-09
-7.093942285e-10
-3.999462233e-09
-4.678259893e-09
-2.600837615e-09
1.399306639e-09
3.024437938e-09
1.246454194e-09
6.384297956e+11
-308353.339
0
0
0
0
0
0
0
0
0
0
0
0
0
0
0
0
0
0
0
5.112463091e-09
9.849705424e-09
1.161429059e-08
6.364300346e-09
-3.038113819e-09
-1.03448919e-08
-1.12136558e-08
-7.058147489e-09
-3.568283132e-09
-5.222284824e-09
-1.22603048e-08
-1.882692077e-08
-1.963742255e-08
-1.465847345e-08
-7.810642691e-09
-3.554855793e-09
-2.263850486e-09
-1.021525631e-09
1.356561503e-09
2.618106707e-09
-6.372828852e-11
-5.973415436e-09
-1.059816724e-08
-1.024331501e-08
-5.484078466e-09
6.400475918e-10
5.954031358e-09
9.493068409e-09
1.052541504e-08
8.614391709e-09
4.002539839e-09
-9.976734459e-10
-4.357465442e-09
-4.26465404e-09
-2.652120675e-09
-1.355326676e-09
4.465347156e-09
4.734118993e-09
-930527870.6
-9.661102517e+12
-235495.7005
0
0
0
0
0
0
0
0
0
0
0
0
0
0
0
0
0
0
0
5.572925021e-09
9.294434524e-09
9.37635501e-09
3.260840147e-09
-4.016097115e-09
-7.23275118e-09
-5.030230789e-09
-1.619963323e-09
-2.662173171e-09
-9.300473104e-09
-1.788846734e-08
-2.14741368e-08
-1.755774689e-08
-1.011785935e-08
-4.514346691e-09
-3.119625731e-09
-3.535309774e-09
-2.670091034e-09
-1.350996807e-09
-2.700683243e-09
-7.454429348e-09
-1.19594963e-08
-1.163457346e-08
-6.128792057e-09
6.684065282e-10
5.326765553e-09
7.382455573e-09
7.578140891e-09
5.950645773e-09
2.04363421e-09
-1.697386285e-09
-3.920141448e-09
-6.068642269e-09
-2.560064383e-09
8.699147539e-10
-3.942023948e-10
7.79985529e-09
1.135841692e-08
-2855189666
1.638561683e+11
-2074.553079
0
0
0
0
0
0
0
0
0
0
0
0
0
0
0
0
0
0
0
4.252542294e-09
7.12300542e-09
5.282146495e-09
-6.263575742e-10
-4.483054852e-09
-3.54773645e-09
3.646672582e-10
1.55412322e-09
-3.635651015e-09
-1.235657269e-08
-1.868553842e-08
-1.737712083e-08
-1.028472346e-08
-4.223025699e-09
-3.223856692e-09
-5.901385276e-09
-7.781904498e-09
-7.10322956e-09
-6.598742896e-09
-8.613001488e-09
-1.123752838e-08
-1.018158628e-08
-4.177404838e-09
2.805921162e-09
5.998409966e-09
4.933827597e-09
2.458968689e-09
4.570811138e-10
-1.681442803e-09
-3.423660143e-09
-3.854370871e-09
-3.400095567e-09
-4.050099665e-09
-1.782443563e-09
1.82175821e-09
-9.981391389e-10
-1.022463306e-08
1.065474804e-08
6.510910524
-8.916881698e+11
118398.0816
0
0
0
0
0
0
0
0
0
0
0
0
0
0
0
0
0
0
0
2.617404298e-09
3.963082738e-09
-1.104011735e-09
-5.650359483e-09
-5.626911368e-09
-1.216657586e-09
3.17241979e-09
2.0397765e-09
-5.124457889e-09
-1.234631497e-08
-1.40015164e-08
-8.726642856e-09
-2.293270037e-09
-1.440507669e-09
-6.207187809e-09
-1.144807059e-08
-1.268332396e-08
-1.085113945e-08
-9.772619558e-09
-9.874490793e-09
-7.740848325e-09
-1.405633766e-09
5.721252097e-09
7.789638312e-09
3.377791989e-09
-2.954905809e-09
-6.601605768e-09
-7.554902579e-09
-7.107912355e-09
-2.901834468e-09
1.693053889e-09
2.090904544e-09
2.2353436e-10
-2.025945828e-09
6.916561844e-09
5.095091865e-09
-5.935343352e-09
5.191486107e-09
-2.394493078e+10
4.79175539e+12
166469.2718
0
0
0
0
0
0
0
0
0
0
0
0
0
0
0
0
0
0
0
9.563727341e-10
-1.437507507e-09
-8.994625423e-09
-1.150094104e-08
-7.711161492e-09
-8.4503592e-10
3.237931655e-09
6.435606045e-10
-5.961033464e-09
-9.351940443e-09
-6.561665494e-09
-5.446180418e-10
1.445717453e-09
-3.959687872e-09
-1.189391532e-08
-1.57174472e-08
-1.374495341e-08
-1.008629304e-08
-8.154873483e-09
-6.02982665e-09
-6.221987944e-10
6.212985763e-09
8.363837112e-09
2.673882389e-09
-6.380800446e-09
-1.163337902e-08
-1.13563971e-08
-8.652156505e-09
-3.378624793e-09
2.334968214e-09
5.301152929e-09
3.178447792e-09
-1.107358263e-09
-7.700282307e-09
-5.654375973e-10
1.621436308e-08
1.286732586e-08
-6.091314717e-09
-7.998328148e+11
-1.285323023e+12
-6950.717525
0
0
0
0
0
0
0
0
0
0
0
0
0
0
0
0
0
0
0
-1.600214047e-09
-7.92802748e-09
-1.677787679e-08
-1.660408778e-08
-9.57852124e-09
-1.533496114e-09
1.569697092e-09
-1.681474752e-09
-6.227214304e-09
-5.616002051e-09
-6.801353646e-10
2.78114811e-09
-7.543315269e-10
-9.46212536e-09
-1.535974709e-08
-1.408110856e-08
-8.675951968e-09
-5.079292793e-09
-4.222683292e-09
-2.028709502e-09
2.774436864e-09
5.303005405e-09
7.364565447e-10
-8.256320497e-09