/*--------------------------------*- C++ -*----------------------------------*\
  =========                 |
  \\      /  F ield         | OpenFOAM: The Open Source CFD Toolbox
   \\    /   O peration     | Website:  https://openfoam.org
    \\  /    A nd           | Version:  6
     \\/     M anipulation  |
\*---------------------------------------------------------------------------*/
FoamFile
{
    version     2.0;
    format      ascii;
    class       volScalarField;
    location    "0.0016";
    object      ViscousDissipation;
}
// * * * * * * * * * * * * * * * * * * * * * * * * * * * * * * * * * * * * * //

dimensions      [1 -1 -3 0 0 0 0];

internalField   nonuniform List<scalar> 
600
(
4.000108962e-20
7.733285708e-20
1.308465248e-19
2.15196979e-19
3.583400752e-19
6.100866868e-19
1.057817146e-18
1.845704724e-18
3.18043415e-18
5.264885756e-18
8.01951361e-18
1.040885631e-17
9.787760516e-18
5.633069289e-18
2.148917694e-17
6.683746391e-17
6.169400315e-17
2.261041983e-17
1.137739427e-16
4.012742193e-16
7.867314288e-17
3.1115964e-17
1.002791916e-17
2.281885123e-17
5.143572361e-17
5.013065155e-16
4.09153908e-16
1.167376957e-17
5.982226853e-18
5.772200898e-20
2.540963642e-20
5.140284464e-20
9.362482772e-20
1.664980805e-19
2.979861106e-19
5.396088272e-19
9.846810801e-19
1.792785415e-18
3.20796779e-18
5.527006249e-18
8.930403777e-18
1.312080531e-17
1.715629074e-17
2.163264363e-17
3.851209151e-17
1.218571101e-16
1.967449524e-16
2.174901885e-16
4.11982264e-16
3.508944712e-16
1.301371505e-15
2.144432839e-16
2.649722982e-17
1.257073431e-16
8.787138787e-16
1.436770233e-16
1.308071766e-16
3.565964191e-17
6.284628061e-18
7.884450922e-18
1.417293462e-20
3.103035371e-20
6.296643743e-20
1.237054484e-19
2.404006257e-19
4.645132975e-19
8.91512576e-19
1.688758788e-18
3.122284188e-18
5.549719796e-18
9.325792318e-18
1.464494061e-17
2.174006448e-17
3.274784791e-17
5.721044213e-17
1.223538936e-16
1.600817606e-16
1.015517521e-16
3.573893872e-16
5.401643115e-16
1.826591654e-19
6.2358191e-19
3.903200249e-19
4.996646825e-19
1.030795303e-19
1.659878106e-16
3.002375772e-17
1.706649129e-16
3.562798554e-17
3.867228853e-18
7.154786521e-21
1.790931527e-20
4.179980149e-20
9.150615491e-20
1.926675496e-19
3.949640837e-19
7.918327131e-19
1.547871264e-18
2.92214855e-18
5.244416396e-18
8.757173542e-18
1.327148978e-17
1.80172254e-17
2.374005439e-17
4.177938525e-17
1.245114221e-16
1.924367306e-16
2.118765235e-16
4.12168802e-16
3.558224833e-16
1.314240483e-15
2.152005406e-16
2.586927747e-17
1.279706141e-16
8.921381701e-16
1.478252457e-16
1.300538507e-16
3.419315456e-17
6.239577903e-18
7.436810164e-18
3.970319622e-21
1.148365871e-20
2.984594832e-20
7.049329603e-20
1.570236661e-19
3.359740851e-19
6.955872814e-19
1.390874878e-18
2.659103144e-18
4.765591803e-18
7.730488496e-18
1.062978967e-17
1.082869294e-17
7.35468527e-18
2.178560615e-17
6.542636198e-17
6.162630241e-17
2.331147669e-17
1.106805732e-16
4.091967357e-16
8.264785792e-17
3.314081789e-17
1.073574563e-17
2.414112741e-17
5.284892551e-17
5.020292614e-16
4.00977447e-16
1.009837305e-17
5.453957443e-18
5.830573616e-20
3.264101007e-21
9.455447191e-21
2.430864537e-20
5.793952132e-20
1.315648259e-19
2.876496184e-19
6.074375584e-19
1.234781558e-18
2.392346643e-18
4.334510589e-18
7.080382891e-18
9.626936855e-18
8.646918009e-18
1.928431619e-18
2.156596587e-17
2.126626282e-17
1.14589842e-16
2.566016725e-16
9.418460761e-17
8.425904403e-17
3.296326721e-17
1.992880844e-17
1.329159987e-17
1.652216843e-17
2.732581947e-17
8.650795959e-17
2.029781961e-16
5.604978959e-16
2.173774157e-16
1.678811276e-18
3.423580473e-21
9.037367654e-21
2.155262207e-20
4.978442909e-20
1.124051859e-19
2.471906163e-19
5.269607547e-19
1.082673867e-18
2.12744742e-18
3.95752394e-18
6.873056765e-18
1.093937377e-17
1.532802847e-17
2.337277657e-17
1.465947005e-17
2.349766231e-17
2.2383094e-16
7.047618274e-17
1.976524239e-17
1.857940098e-17
1.402907914e-17
1.118189447e-17
9.280762699e-18
9.434626553e-18
1.121421791e-17
1.515001317e-17
1.631785479e-17
8.756429141e-17
7.055533873e-17
1.634707329e-19
3.301699691e-21
8.234892212e-21
1.886048266e-20
4.279770907e-20
9.622226649e-20
2.119768405e-19
4.530861001e-19
9.319542588e-19
1.830735406e-18
3.411745975e-18
6.008582074e-18
9.936649313e-18
1.478173851e-17
1.122624424e-17
8.437347674e-18
1.393705362e-16
1.41968296e-16
4.266651693e-18
2.352096098e-18
5.743291962e-18
6.610839585e-18
6.318030737e-18
5.545973323e-18
4.827365895e-18
4.280102012e-18
4.040510051e-18
3.819826711e-18
2.357935273e-18
5.198702018e-17
8.040239034e-17
2.574182547e-21
6.487974288e-21
1.536199951e-20
3.580488775e-20
8.180701503e-20
1.817001005e-19
3.887625114e-19
7.932260126e-19
1.523581543e-18
2.70929368e-18
4.394136139e-18
6.499392733e-18
1.072560684e-17
7.667304479e-18
6.927865512e-18
1.499116381e-16
4.783517324e-17
4.354355863e-18
2.02846159e-18
2.848933068e-18
3.742648509e-18
3.955367363e-18
3.440754825e-18
2.508248536e-18
1.547681771e-18
1.033150191e-18
1.197789791e-18
1.571987958e-18
2.685917268e-18
1.268398302e-17
1.592209835e-21
4.418836008e-21
1.176113348e-20
2.946600109e-20
6.990148746e-20
1.581008398e-19
3.401980567e-19
6.89164493e-19
1.285573783e-18
2.115266221e-18
2.815341419e-18
2.597781886e-18
2.802184943e-18
6.625875013e-18
1.648372612e-19
1.000235391e-16
3.829876944e-17
2.12726364e-18
4.849997708e-19
1.525979667e-18
2.614780906e-18
3.002535251e-18
2.56417538e-18
1.59303636e-18
5.886450064e-19
1.044887395e-19
3.571685474e-19
9.011412555e-19
1.291653549e-18
1.157415057e-18
9.037268656e-22
2.988911361e-21
9.247506122e-21
2.504165006e-20
6.183148413e-20
1.431574495e-19
3.130869406e-19
6.428687646e-19
1.215173609e-18
2.03010904e-18
2.760412315e-18
2.643939596e-18
2.822977143e-18
5.498495869e-18
1.715334774e-19
1.00227952e-16
3.845222519e-17
2.180714062e-18
5.084985349e-19
1.539704117e-18
2.623454351e-18
3.007517285e-18
2.565493276e-18
1.590339554e-18
5.824237339e-19
9.713282224e-20
3.505144795e-19
8.952051378e-19
1.282884461e-18
1.133928042e-18
7.890387972e-22
2.680572511e-21
8.417852277e-21
2.312616821e-20
5.799694233e-20
1.366396334e-19
3.05329676e-19
6.46527897e-19
1.287043075e-18
2.377448113e-18
4.024847962e-18
6.20814836e-18
1.029361053e-17
7.002556218e-18
7.035657977e-18
1.499651545e-16
4.789154548e-17
4.386871157e-18
2.068154205e-18
2.88718922e-18
3.771313126e-18
3.97327217e-18
3.447404915e-18
2.502074973e-18
1.529731025e-18
1.009111257e-18
1.174605674e-18
1.547508684e-18
2.651795061e-18
1.255378938e-17
1.090097137e-21
3.198388844e-21
8.873333795e-21
2.318609837e-20
5.747585395e-20
1.362018668e-19
3.091113059e-19
6.707208322e-19
1.386126596e-18
2.717218343e-18
5.041910437e-18
8.792900814e-18
1.375204624e-17
1.127962316e-17
7.815409238e-18
1.391525795e-16
1.415354203e-16
4.206849035e-18
2.419400314e-18
5.823080121e-18
6.672001872e-18
6.361118999e-18
5.571146428e-18
4.830400288e-18
4.256971552e-18
3.996584052e-18
3.760897488e-18
2.301107472e-18
5.220193024e-17
8.022771344e-17
1.393674986e-21
3.793204626e-21
9.628475968e-21
2.403911876e-20
5.87498167e-20
1.393828207e-19
3.190448079e-19
7.006131692e-19
1.465854062e-18
2.895755919e-18
5.338152694e-18
9.06494627e-18
1.381281705e-17
2.420578408e-17
1.073147519e-17
2.104959933e-17
2.242290567e-16
7.091719055e-17
2.009155031e-17
1.877305699e-17
1.415161085e-17
1.127650473e-17
9.361277465e-18
9.496231075e-18
1.122739416e-17
1.507423283e-17
1.617805131e-17
8.784331199e-17
7.076279992e-17
1.637808376e-19
1.39348413e-21
3.903978439e-21
9.938823259e-21
2.477831062e-20
6.063837428e-20
1.443983051e-19
3.322667627e-19
7.330480027e-19
1.532528215e-18
2.976786846e-18
5.177864393e-18
7.4477557e-18
7.044441159e-18
1.765188488e-18
1.793603337e-17
1.689911707e-17
1.148749314e-16
2.57071399e-16
9.473824739e-17
8.444770509e-17
3.309443838e-17
2.010898588e-17
1.35080673e-17
1.677674028e-17
2.751227617e-17
8.640946499e-17
2.024856843e-16
5.596612277e-16
2.183881722e-16
1.681556597e-18
1.147714685e-21
3.614649365e-21
9.892623921e-21
2.543254453e-20
6.29373534e-20
1.504777822e-19
3.47255973e-19
7.686362624e-19
1.611817068e-18
3.135540851e-18
5.458561188e-18
7.94997934e-18
8.407839923e-18
5.690144255e-18
1.868004268e-17
5.211537067e-17
5.318454679e-17
2.345121934e-17
1.101277907e-16
4.073544067e-16
8.181049209e-17
3.336508175e-17
1.106129017e-17
2.482934523e-17
5.338395139e-17
5.013066444e-16
4.015297572e-16
1.066279057e-17
6.113501616e-18
5.775384601e-20
1.039225493e-21
3.58177089e-21
1.030674974e-20
2.683146714e-20
6.624873985e-20
1.575654509e-19
3.625062529e-19
8.032879297e-19
1.696261691e-18
3.359184545e-18
6.11093332e-18
9.984054824e-18
1.452888909e-17
2.06115212e-17
3.912837415e-17
1.205969694e-16
1.706064326e-16
1.977217358e-16
3.976027591e-16
3.465604889e-16
1.292490961e-15
2.110631818e-16
2.499979148e-17
1.265903107e-16
8.847902457e-16
1.454065432e-16
1.283375182e-16
3.479817117e-17
5.368475133e-18
8.690481542e-18
1.475072684e-21
4.498555178e-21
1.201477114e-20
2.976673695e-20
7.105983846e-20
1.653189697e-19
3.753681693e-19
8.265681032e-19
1.745083996e-18
3.481919267e-18
6.472858231e-18
1.113458676e-17
1.804959515e-17
2.973202883e-17
5.62017992e-17
1.250944016e-16
1.634845924e-16
1.083563646e-16
3.374813704e-16
5.204644064e-16
1.77152374e-19
6.122936708e-19
3.841367088e-19
4.933314542e-19
1.009975384e-19
1.629332116e-16
2.841411723e-17
1.733575196e-16
3.308271097e-17
3.10738239e-18
2.549017877e-21
6.496848017e-21
1.507810123e-20
3.408886654e-20
7.680818599e-20
1.724189959e-19
3.828575038e-19
8.305487299e-19
1.731830576e-18
3.403388493e-18
6.160671811e-18
1.002877159e-17
1.454438206e-17
2.053519501e-17
3.871360495e-17
1.191567285e-16
1.680816628e-16
1.963991124e-16
3.975847935e-16
3.462066223e-16
1.291565432e-15
2.106952014e-16
2.500849214e-17
1.267474006e-16
8.84803299e-16
1.453304118e-16
1.279195806e-16
3.307668126e-17
5.357069228e-18
7.885447221e-18
3.911784249e-21
8.916668604e-21
1.849253808e-20
3.838493146e-20
8.159794102e-20
1.765183816e-19
3.827741095e-19
8.163330993e-19
1.674620775e-18
3.214200934e-18
5.544086837e-18
8.009649808e-18
8.379155937e-18
5.548790195e-18
1.886903538e-17
5.114261761e-17
5.142311066e-17
2.354784731e-17
1.104799214e-16
4.082888834e-16
8.169461845e-17
3.318550238e-17
1.095959345e-17
2.470046639e-17
5.321486848e-17
5.008308896e-16
4.016345636e-16
1.076302836e-17
5.879993699e-18
5.778604474e-20
)
;

boundaryField
{
    lowerWall
    {
        type            calculated;
        value           nonuniform 0();
    }
    atmosphere
    {
        type            calculated;
        value           nonuniform List<scalar> 
20
(
2.770288202e-20
1.823679005e-20
1.072956707e-20
5.768469289e-21
3.208839227e-21
2.31400353e-21
2.15331738e-21
2.015668755e-21
1.630824266e-21
1.11460241e-21
7.248836242e-22
6.11460628e-22
7.123465593e-22
8.356123532e-22
8.380772512e-22
7.55198764e-22
7.81162528e-22
1.115197211e-21
1.789524024e-21
2.603584044e-21
)
;
    }
    rightWall
    {
        type            empty;
    }
    leftWall
    {
        type            empty;
    }
    frontAndBack
    {
        type            calculated;
        value           nonuniform 0();
    }
    procBoundary2to0
    {
        type            processor;
        value           nonuniform List<scalar> 
30
(
5.627608046e-20
1.055045944e-19
1.692408379e-19
2.619356802e-19
4.107156292e-19
6.619292558e-19
1.094048234e-18
1.83297766e-18
3.05496501e-18
4.927622403e-18
7.357764435e-18
9.307969015e-18
7.770878427e-18
1.666649362e-18
2.543931317e-17
2.257767131e-17
1.20823716e-16
2.659533667e-16
9.839569195e-17
8.244103316e-17
3.00185676e-17
1.764320684e-17
1.190038348e-17
1.56417746e-17
2.77579789e-17
8.986399774e-17
2.067169158e-16
5.563406155e-16
2.133259355e-16
1.686080287e-18
)
;
    }
    procBoundary2to3
    {
        type            processor;
        value           nonuniform List<scalar> 
20
(
1.435056316e-16
1.860922253e-16
2.418357159e-16
1.863852562e-16
1.417982993e-16
4.899696499e-16
1.062582801e-16
3.404919444e-17
1.392487135e-17
1.468325068e-18
1.447623802e-18
1.383512301e-17
3.403067464e-17
1.069677908e-16
4.919882178e-16
1.437198117e-16
1.84909449e-16
2.396791533e-16
1.846538006e-16
1.441246421e-16
)
;
    }
    procBoundary2to4
    {
        type            processor;
        value           nonuniform List<scalar> 
30
(
4.944757747e-21
1.062071409e-20
2.061634543e-20
4.049941054e-20
8.279355857e-20
1.747615385e-19
3.733881441e-19
7.890184024e-19
1.609429387e-18
3.079744948e-18
5.298324068e-18
7.535753064e-18
7.001541479e-18
1.623414514e-18
1.827973777e-17
1.715234931e-17
1.139550637e-16
2.566741968e-16
9.511959694e-17
8.514787487e-17
3.317724104e-17
1.993753527e-17
1.331026027e-17
1.659779309e-17
2.742735891e-17
8.645528476e-17
2.02471496e-16
5.595177932e-16
2.186749777e-16
1.681227337e-18
)
;
    }
}


// ************************************************************************* //
