/*--------------------------------*- C++ -*----------------------------------*\
  =========                 |
  \\      /  F ield         | OpenFOAM: The Open Source CFD Toolbox
   \\    /   O peration     | Website:  https://openfoam.org
    \\  /    A nd           | Version:  6
     \\/     M anipulation  |
\*---------------------------------------------------------------------------*/
FoamFile
{
    version     2.0;
    format      ascii;
    class       volVectorField;
    location    "0.002";
    object      Marangoni;
}
// * * * * * * * * * * * * * * * * * * * * * * * * * * * * * * * * * * * * * //

dimensions      [1 -2 -2 0 0 0 0];

internalField   nonuniform List<vector> 
600
(
(-0 0 0)
(-0 0 0)
(-0 0 0)
(-0 0 0)
(-0 0 0)
(-0 0 0)
(-0 0 0)
(-0 0 0)
(-0 0 0)
(-0 0 0)
(-0 0 0)
(-0 0 -0)
(-0 0 -0)
(-0 0 -0)
(-0 0 -0)
(-0 0 -0)
(-0 3.347491122e-07 3.347490838e-07)
(-0 6.703067696e-07 6.703067656e-07)
(-0 1.029645308e-06 8.396792931e-14)
(-0 0 0)
(-0 -0 0)
(-0 -0 0)
(-0 -0 0)
(-0 -3.165730282e-23 5.781315167e-22)
(-0 -0 0)
(-0 -0 0)
(-0 -1.018424769e-06 8.063648317e-14)
(-0 -4.233383375e-07 4.233383505e-07)
(-0 -1.535883962e-06 1.535883728e-06)
(-0 -1.626964479e-13 -4.066552225e-06)
(-0 0 0)
(-0 0 0)
(-0 0 0)
(-0 0 0)
(-0 0 0)
(-0 0 0)
(-0 0 0)
(-0 0 0)
(-0 0 0)
(-0 0 0)
(-0 0 0)
(-0 0 -0)
(-0 0 -0)
(-0 0 -0)
(-0 0 -0)
(-0 0 -0)
(-0 0 -0)
(-0 2.326439514e-06 1.30460834e-14)
(-0 3.54306453e-06 3.543064462e-06)
(-0 2.016024385e-06 2.016024459e-06)
(-0 -1.890053435e-06 5.622252619e-14)
(-0 -1.275425153e-06 4.505693686e-14)
(-0 -5.200041146e-07 3.747003001e-14)
(-0 2.386330039e-07 4.288425441e-14)
(-0 9.283031109e-07 5.090070314e-14)
(-0 -2.068430014e-06 2.068430067e-06)
(-0 -3.210741148e-06 3.210741086e-06)
(-0 -3.596004257e-06 -4.108117786e-15)
(-0 -0 -0)
(-0 -1.180590636e-13 -9.806894487e-07)
(-0 0 0)
(-0 0 0)
(-0 0 0)
(-0 0 0)
(-0 0 0)
(-0 0 0)
(-0 0 0)
(-0 0 0)
(-0 0 0)
(-0 0 0)
(-0 0 0)
(-0 0 0)
(-0 0 0)
(-0 0 0)
(-0 0 0)
(-0 0 -0)
(-0 0 -0)
(-0 0 -0)
(-0 0 -0)
(-0 2.329977502e-21 -1.17069948e-22)
(-0 -6.07242049e-21 -4.772537936e-23)
(-0 -0 -0)
(-0 -2.007622802e-21 2.695747932e-23)
(-0 0 0)
(-0 2.123061106e-21 9.608922532e-23)
(-0 -3.264408864e-21 2.70142319e-22)
(-0 -0 0)
(-0 -0 0)
(-0 -0 0)
(-0 -1.096030836e-13 4.545390543e-08)
(-0 0 0)
(-0 0 0)
(-0 0 0)
(-0 0 0)
(-0 0 0)
(-0 0 0)
(-0 0 0)
(-0 0 0)
(-0 0 0)
(-0 0 0)
(-0 0 0)
(-0 0 0)
(-0 0 0)
(-0 0 0)
(-0 0 0)
(-0 0 0)
(-0 0 0)
(-0 2.326653919e-06 -1.451701434e-14)
(-0 3.576923512e-06 -3.576923444e-06)
(-0 2.010768663e-06 -2.010768736e-06)
(-0 -1.875259475e-06 -5.474909773e-14)
(-0 -1.25362729e-06 -4.282681566e-14)
(-0 -4.913452842e-07 -3.45556388e-14)
(-0 2.748674851e-07 -3.931805863e-14)
(-0 9.733282059e-07 -4.665273448e-14)
(-0 -1.911263696e-06 -1.911263747e-06)
(-0 -3.001674571e-06 -3.001674506e-06)
(-0 -3.607153328e-06 1.068360354e-14)
(-0 -0 0)
(-0 -1.203341368e-13 1.077600605e-06)
(-0 0 0)
(-0 0 0)
(-0 0 0)
(-0 0 0)
(-0 0 0)
(-0 0 0)
(-0 0 0)
(-0 0 0)
(-0 0 0)
(-0 0 0)
(-0 0 0)
(-0 0 0)
(-0 0 0)
(-0 0 0)
(-0 0 0)
(-0 0 0)
(-0 3.286848163e-07 -3.286847892e-07)
(-0 6.512042405e-07 -6.512042346e-07)
(-0 1.087534716e-06 -8.191511938e-14)
(-0 0 -0)
(-0 -0 -0)
(-0 -0 -0)
(-0 -0 -0)
(-0 -0 -0)
(-0 0 -0)
(-0 -0 -0)
(-0 -9.73828484e-07 -7.681056435e-14)
(-0 -3.650200318e-07 -3.650200443e-07)
(-0 -1.513648217e-06 -1.513647975e-06)
(-0 -1.666772012e-13 4.219280206e-06)
(-0 0 0)
(-0 0 0)
(-0 0 0)
(-0 0 0)
(-0 0 0)
(-0 0 0)
(-0 0 0)
(-0 0 0)
(-0 0 0)
(-0 0 0)
(-0 0 0)
(-0 0 0)
(-0 0 0)
(-0 0 0)
(-0 0 0)
(-0 2.979321909e-14 5.22505509e-07)
(-0 -5.508402098e-08 5.508400962e-08)
(-0 -0 -0)
(-0 0 -0)
(-0 -0 -0)
(-0 -0 -0)
(-0 -0 -0)
(-0 -0 -0)
(-0 -0 -0)
(-0 -0 -0)
(-0 -0 -0)
(-0 -0 -0)
(-0 0 -0)
(-0 -1.820400346e-06 -1.820400388e-06)
(-0 -9.46203391e-15 4.066631552e-15)
(-0 0 0)
(-0 0 0)
(-0 0 0)
(-0 0 0)
(-0 0 0)
(-0 0 0)
(-0 0 0)
(-0 0 0)
(-0 0 0)
(-0 0 0)
(-0 0 0)
(-0 0 0)
(-0 0 0)
(-0 0 0)
(-0 0 0)
(-0 2.161416013e-07 -2.161415779e-07)
(-0 -2.23062055e-14 -4.910594104e-07)
(-0 -0 -0)
(-0 -0 -0)
(-0 -0 -0)
(-0 -0 -0)
(-0 -0 -0)
(-0 -0 -0)
(-0 -0 -0)
(-0 -0 -0)
(-0 -0 -0)
(-0 -0 -0)
(-0 -0 -0)
(-0 -5.730637015e-14 -3.402324887e-06)
(-0 -2.390975491e-06 -1.023438957e-13)
(-0 0 0)
(-0 0 0)
(-0 0 0)
(-0 0 0)
(-0 0 0)
(-0 0 0)
(-0 0 0)
(-0 0 0)
(-0 0 0)
(-0 0 0)
(-0 0 0)
(-0 0 0)
(-0 0 0)
(-0 0 0)
(-0 4.923997458e-14 4.059405397e-08)
(-0 -8.004871869e-08 8.004867543e-08)
(-0 -0 -0)
(-0 -0 -0)
(-0 -0 -0)
(-0 -0 -0)
(-0 -0 -0)
(-0 -0 -0)
(-0 -0 -0)
(-0 -0 -0)
(-0 -0 -0)
(-0 -0 -0)
(-0 -0 -0)
(-0 -0 -0)
(-0 -0 -0)
(-0 -1.679364576e-06 -3.702050935e-14)
(-0 0 0)
(-0 0 0)
(-0 0 0)
(-0 0 0)
(-0 0 0)
(-0 0 0)
(-0 0 0)
(-0 0 0)
(-0 0 0)
(-0 0 0)
(-0 0 0)
(-0 0 0)
(-0 0 0)
(-0 0 -0)
(-0 2.977573759e-14 -7.04178194e-07)
(-0 -1.407248862e-14 -7.043211308e-07)
(-0 -0 -0)
(-0 -0 -0)
(-0 -0 -0)
(-0 -0 -0)
(-0 -0 -0)
(-0 -0 -0)
(-0 -0 -0)
(-0 -0 -0)
(-0 -0 -0)
(-0 -0 -0)
(-0 -0 -0)
(-0 -0 -0)
(-0 -0 -0)
(-0 -0 -0)
(-0 0 0)
(-0 0 0)
(-0 0 0)
(-0 0 0)
(-0 0 0)
(-0 0 0)
(-0 0 0)
(-0 0 0)
(-0 0 0)
(-0 0 0)
(-0 0 0)
(-0 0 0)
(-0 0 0)
(-0 0 -0)
(-0 2.997802176e-14 -2.708652546e-08)
(-0 -1.821057438e-14 -2.708652546e-08)
(-0 -0 -0)
(-0 -0 -0)
(-0 -0 -0)
(-0 -0 -0)
(-0 -0 -0)
(-0 -0 -0)
(-0 -0 -0)
(-0 -0 -0)
(-0 -0 -0)
(-0 -0 -0)
(-0 -0 -0)
(-0 -0 -0)
(-0 -0 -0)
(-0 -0 -0)
(-0 0 0)
(-0 0 0)
(-0 0 0)
(-0 0 0)
(-0 0 0)
(-0 0 0)
(-0 0 0)
(-0 0 0)
(-0 0 0)
(-0 0 0)
(-0 0 0)
(-0 0 0)
(-0 0 0)
(-0 0 0)
(-0 2.978322951e-14 3.544832884e-08)
(-0 -1.819559035e-14 3.530539203e-08)
(-0 -0 0)
(-0 -0 0)
(-0 -0 0)
(-0 -0 0)
(-0 -0 0)
(-0 -0 0)
(-0 -0 0)
(-0 -0 0)
(-0 -0 0)
(-0 -0 0)
(-0 -0 0)
(-0 -0 0)
(-0 -0 0)
(-0 -0 0)
(-0 0 0)
(-0 0 0)
(-0 0 0)
(-0 0 0)
(-0 0 0)
(-0 0 0)
(-0 0 0)
(-0 0 0)
(-0 0 0)
(-0 0 0)
(-0 0 0)
(-0 0 0)
(-0 0 0)
(-0 0 0)
(-0 2.91464088e-14 7.11753845e-07)
(-0 -1.401754714e-14 7.119682502e-07)
(-0 -0 0)
(-0 -0 0)
(-0 -0 0)
(-0 -0 0)
(-0 -0 0)
(-0 -0 0)
(-0 -0 0)
(-0 -0 0)
(-0 -0 0)
(-0 -0 0)
(-0 -0 0)
(-0 -0 0)
(-0 -0 0)
(-0 -0 0)
(-0 0 0)
(-0 0 0)
(-0 0 0)
(-0 0 0)
(-0 0 0)
(-0 0 0)
(-0 0 0)
(-0 0 0)
(-0 0 0)
(-0 0 0)
(-0 0 -0)
(-0 0 -0)
(-0 0 -0)
(-0 0 -0)
(-0 4.796633315e-14 3.21607822e-09)
(-0 -7.145763384e-08 -7.145759041e-08)
(-0 -0 0)
(-0 -0 0)
(-0 -0 0)
(-0 -0 0)
(-0 -0 0)
(-0 -0 0)
(-0 -0 0)
(-0 -0 0)
(-0 -0 0)
(-0 -0 0)
(-0 -0 0)
(-0 -0 0)
(-0 -0 0)
(-0 -1.680793944e-06 3.767980608e-14)
(-0 0 0)
(-0 0 0)
(-0 0 0)
(-0 0 0)
(-0 0 0)
(-0 0 0)
(-0 0 0)
(-0 0 0)
(-0 0 0)
(-0 0 -0)
(-0 0 -0)
(-0 0 -0)
(-0 0 -0)
(-0 0 -0)
(-0 0 -0)
(-0 2.070956934e-07 2.070956716e-07)
(-0 -2.189414511e-14 5.049242809e-07)
(-0 -0 0)
(-0 -0 0)
(-0 -0 0)
(-0 -0 0)
(-0 -0 0)
(-0 -0 0)
(-0 -0 0)
(-0 -0 0)
(-0 -0 0)
(-0 -0 0)
(-0 -0 0)
(-0 -5.767098125e-14 3.423908346e-06)
(-0 -2.38926025e-06 1.033451924e-13)
(-0 0 0)
(-0 0 0)
(-0 0 0)
(-0 0 0)
(-0 0 0)
(-0 0 0)
(-0 0 0)
(-0 0 0)
(-0 0 0)
(-0 0 0)
(-0 0 -0)
(-0 0 -0)
(-0 0 -0)
(-0 0 -0)
(-0 0 -0)
(-0 2.748068573e-14 -4.255943518e-07)
(-0 -3.719435009e-08 -3.719433847e-08)
(-0 -0 0)
(-0 0 0)
(-0 -0 0)
(-0 -0 0)
(-0 -0 0)
(-0 -0 0)
(-0 -0 0)
(-0 -0 0)
(-0 -0 0)
(-0 -0 0)
(-0 0 0)
(-0 -1.84258556e-06 1.842585601e-06)
(-0 -9.437887235e-15 -3.948485559e-15)
(-0 0 0)
(-0 0 0)
(-0 0 0)
(-0 0 0)
(-0 0 0)
(-0 0 0)
(-0 0 0)
(-0 0 0)
(-0 0 0)
(-0 0 0)
(-0 0 0)
(-0 0 -0)
(-0 0 -0)
(-0 0 -0)
(-0 0 -0)
(-0 0 -0)
(-0 3.753798862e-07 3.753798661e-07)
(-0 6.786957127e-07 6.78695706e-07)
(-0 1.141493362e-06 8.388551741e-14)
(-0 0 0)
(-0 -0 0)
(-0 -0 0)
(-0 -0 0)
(-0 -0 0)
(-0 -0 0)
(-0 -0 0)
(-0 -1.018281832e-06 7.901321474e-14)
(-0 -4.00041337e-07 4.000413491e-07)
(-0 -1.562870079e-06 1.562869839e-06)
(-0 -1.662951093e-13 -4.174040706e-06)
(-0 0 -0)
(-0 0 -0)
(-0 0 -0)
(-0 0 -0)
(-0 0 0)
(-0 0 0)
(-0 0 0)
(-0 0 0)
(-0 0 0)
(-0 0 0)
(-0 0 0)
(-0 0 0)
(-0 0 0)
(-0 0 0)
(-0 0 -0)
(-0 0 -0)
(-0 0 0)
(-0 2.272981147e-06 2.434652896e-14)
(-0 3.815705135e-06 3.815705072e-06)
(-0 2.189867514e-06 2.189867591e-06)
(-0 -1.828876481e-06 6.073770994e-14)
(-0 -1.227398385e-06 4.856069924e-14)
(-0 -4.842699121e-07 4.014467694e-14)
(-0 2.643616296e-07 4.488212324e-14)
(-0 9.463846173e-07 5.235415272e-14)
(-0 -2.075454488e-06 2.075454543e-06)
(-0 -3.212762579e-06 3.212762518e-06)
(-0 -3.627521823e-06 -3.543719834e-15)
(-0 -0 -0)
(-0 -1.209285029e-13 -1.019925603e-06)
(-0 0 -0)
(-0 0 -0)
(-0 0 -0)
(-0 0 -0)
(-0 0 -0)
(-0 0 0)
(-0 0 0)
(-0 0 0)
(-0 0 0)
(-0 0 0)
(-0 0 0)
(-0 0 0)
(-0 0 0)
(-0 0 0)
(-0 0 0)
(-0 0 0)
(-0 0 0)
(-0 0 0)
(-0 0 0)
(-0 8.908205451e-22 6.550667474e-22)
(-0 -6.253062204e-21 8.353537554e-22)
(-0 -2.023948032e-21 3.509083448e-22)
(-0 -6.250765516e-23 2.412871751e-23)
(-0 4.386088283e-22 3.103657149e-22)
(-0 8.195517067e-22 1.481685923e-22)
(-0 -6.152157895e-22 1.291830785e-22)
(-0 -0 0)
(-0 -0 0)
(-0 -0 0)
(-0 -1.128096636e-13 3.45192395e-08)
(-0 0 -0)
(-0 0 -0)
(-0 0 -0)
(-0 0 -0)
(-0 0 -0)
(-0 0 -0)
(-0 0 0)
(-0 0 0)
(-0 0 0)
(-0 0 0)
(-0 0 0)
(-0 0 0)
(-0 0 0)
(-0 0 0)
(-0 0 0)
(-0 0 0)
(-0 0 0)
(-0 2.289347412e-06 -2.752064313e-15)
(-0 3.210185258e-06 -3.210185188e-06)
(-0 1.769308643e-06 -1.769308711e-06)
(-0 -1.904561521e-06 -4.78739317e-14)
(-0 -1.28228612e-06 -3.729771365e-14)
(-0 -5.232201928e-07 -3.008790473e-14)
(-0 2.404911824e-07 -3.570191603e-14)
(-0 9.411674237e-07 -4.371087259e-14)
(-0 -1.87063292e-06 -1.870632967e-06)
(-0 -2.962206117e-06 -2.96220605e-06)
(-0 -3.701848964e-06 1.293120604e-14)
(-0 -0 0)
(-0 -1.24684496e-13 1.093395123e-06)
(-0 0 -0)
(-0 0 -0)
(-0 0 -0)
(-0 0 -0)
(-0 0 -0)
(-0 0 -0)
(-0 0 0)
(-0 0 0)
(-0 0 0)
(-0 0 0)
(-0 0 0)
(-0 0 0)
(-0 0 0)
(-0 0 0)
(-0 0 0)
(-0 0 0)
(-0 1.887512073e-07 -1.887511723e-07)
(-0 5.233486815e-07 -5.233486775e-07)
(-0 9.550322936e-07 -7.666571892e-14)
(-0 0 -0)
(-0 -0 -0)
(-0 -0 -0)
(-0 -0 -0)
(-0 -0 -0)
(-0 -0 -0)
(-0 -0 -0)
(-0 -9.936967006e-07 -7.635105465e-14)
(-0 -3.854364928e-07 -3.854365046e-07)
(-0 -1.614871416e-06 -1.614871166e-06)
(-0 -1.730329213e-13 4.332843501e-06)
)
;

boundaryField
{
    lowerWall
    {
        type            calculated;
        value           nonuniform 0();
    }
    atmosphere
    {
        type            calculated;
        value           uniform (-0 -0 0);
    }
    rightWall
    {
        type            empty;
    }
    leftWall
    {
        type            empty;
    }
    frontAndBack
    {
        type            calculated;
        value           nonuniform 0();
    }
    procBoundary2to0
    {
        type            processor;
        value           nonuniform List<vector> 
30
(
(-0 0 0)
(-0 0 0)
(-0 0 0)
(-0 0 0)
(-0 0 0)
(-0 0 0)
(-0 0 0)
(-0 0 0)
(-0 0 0)
(-0 0 0)
(-0 0 0)
(-0 0 -0)
(-0 0 -0)
(-0 0 -0)
(-0 0 -0)
(-0 3.170867576e-14 -4.937752102e-07)
(-0 -5.735813289e-08 -5.735811916e-08)
(-0 -0 0)
(-0 0 0)
(-0 -0 0)
(-0 -0 0)
(-0 -0 0)
(-0 -0 0)
(-0 -0 0)
(-0 -0 0)
(-0 -0 0)
(-0 -0 0)
(-0 0 0)
(-0 -1.851429322e-06 1.851429367e-06)
(-0 -9.255570374e-15 -3.503594837e-15)
)
;
    }
    procBoundary2to3
    {
        type            processor;
        value           nonuniform List<vector> 
20
(
(-0 -2.968333591e-14 -2.491102701e-06)
(-0 -1.601791319e-14 -9.801891655e-07)
(-0 -1.28288151e-14 4.538243682e-08)
(-0 -1.614278e-14 1.07717179e-06)
(-0 -3.002047633e-14 2.60852529e-06)
(-0 -1.304083897e-13 5.017081992e-07)
(-0 -6.898890747e-14 -1.858464386e-06)
(-0 -0 -0)
(-0 -0 -0)
(-0 -0 -0)
(-0 -0 0)
(-0 -0 0)
(-0 -0 0)
(-0 -6.887402998e-14 1.889481674e-06)
(-0 -1.304183788e-13 -4.681180491e-07)
(-0 -3.014534313e-14 -2.567502426e-06)
(-0 -1.629761486e-14 -1.019496788e-06)
(-0 -1.306356473e-14 3.459070775e-08)
(-0 -1.642997365e-14 1.092823371e-06)
(-0 -3.049247273e-14 2.656051779e-06)
)
;
    }
    procBoundary2to4
    {
        type            processor;
        value           nonuniform List<vector> 
30
(
(-0 0 -0)
(-0 0 -0)
(-0 0 -0)
(-0 0 -0)
(-0 0 -0)
(-0 0 -0)
(-0 0 -0)
(-0 0 0)
(-0 0 0)
(-0 0 0)
(-0 0 0)
(-0 0 0)
(-0 0 0)
(-0 0 0)
(-0 0 0)
(-0 3.144146067e-14 8.268179776e-07)
(-0 -1.906210183e-07 1.906210106e-07)
(-0 -0 -0)
(-0 2.19916278e-24 -3.164311477e-22)
(-0 -0 -0)
(-0 -0 -0)
(-0 -0 -0)
(-0 -0 -0)
(-0 -7.672240472e-23 -4.466251313e-22)
(-0 -0 -0)
(-0 -0 -0)
(-0 -0 -0)
(-0 2.299721271e-22 -3.780786463e-22)
(-0 -1.892262247e-06 -1.892262285e-06)
(-0 -9.850785721e-15 4.440550376e-15)
)
;
    }
}


// ************************************************************************* //
