/*--------------------------------*- C++ -*----------------------------------*\
  =========                 |
  \\      /  F ield         | OpenFOAM: The Open Source CFD Toolbox
   \\    /   O peration     | Website:  https://openfoam.org
    \\  /    A nd           | Version:  6
     \\/     M anipulation  |
\*---------------------------------------------------------------------------*/
FoamFile
{
    version     2.0;
    format      ascii;
    class       volScalarField;
    location    "0.002";
    object      Num_divU;
}
// * * * * * * * * * * * * * * * * * * * * * * * * * * * * * * * * * * * * * //

dimensions      [0 0 -1 0 0 0 0];

internalField   nonuniform List<scalar> 
600
(
3.83992961e-08
1.707432617e-08
4.647052823e-09
-4.667313612e-09
-1.34111448e-08
-2.373120017e-08
-3.674389432e-08
-5.204469954e-08
-6.573960117e-08
-6.6877179e-08
-3.039140115e-08
9.4036084e-08
3.950019827e-07
9.569703783e-07
1.428840872e-06
1.569082469e-06
-1.652923555e-06
-7.674564424e-11
-8.107608531e-11
-4.466798752e-11
3.604978552e-12
3.601422359e-11
3.200379521e-11
6.925535963e-12
2.853248469e-11
1.498170835e-10
8.992091795e-11
2.491469953e-11
1.553668245e-06
-4.155813155e-11
4.60506787e-08
2.186404391e-08
7.336342481e-09
-3.523774576e-09
-1.325542801e-08
-2.398224427e-08
-3.66083613e-08
-5.025542166e-08
-6.051057003e-08
-5.716751145e-08
-2.124696827e-08
7.568278134e-08
2.668572835e-07
5.696577558e-07
1.07757007e-06
2.057102726e-06
5.162850818e-06
5.635578125e-06
-7.043059593e-07
1.23975985e-11
-6.636864529e-13
2.665350795e-11
4.509852858e-12
-2.461745682e-11
4.68335116e-11
7.793732932e-18
-1.321171844e-06
-1.226627114e-06
-1.232047606e-07
9.315730087e-07
4.776573235e-08
2.316820278e-08
8.219389818e-09
-3.076685681e-09
-1.325239112e-08
-2.442613289e-08
-3.76060178e-08
-5.19834955e-08
-6.365015345e-08
-6.398506739e-08
-3.924479903e-08
2.60051138e-08
1.378135853e-07
2.782247633e-07
4.757163286e-07
8.688605414e-07
1.479464821e-06
2.255571974e-06
7.016060812e-06
1.637900184e-05
-2.49546079e-11
2.050390245e-11
-5.687254614e-12
8.02517475e-11
6.645840632e-12
1.000155312e-05
-1.818768519e-06
-2.064077018e-06
-3.144748811e-06
-1.759923217e-06
4.428996773e-08
2.156482341e-08
7.692189316e-09
-3.112288653e-09
-1.325383636e-08
-2.49633127e-08
-3.947499347e-08
-5.634766944e-08
-7.181366231e-08
-7.638002294e-08
-5.190757308e-08
2.963083625e-08
2.012018728e-07
4.814982738e-07
9.619145834e-07
1.891285761e-06
4.947156144e-06
5.467976852e-06
-8.702599383e-07
-7.170829392e-11
-9.34087164e-12
1.871562702e-11
5.060125751e-11
2.005398422e-11
1.11897531e-10
3.393656814e-11
-1.780833573e-06
-1.391101244e-06
-2.237108464e-07
8.540814871e-07
3.658399359e-08
1.770882954e-08
6.127589278e-09
-3.406887105e-09
-1.314963058e-08
-2.549501759e-08
-4.224120343e-08
-6.390463591e-08
-8.788895355e-08
-1.047530439e-07
-9.101815727e-08
2.340598201e-09
2.631399792e-07
7.774679924e-07
1.194208543e-06
1.278481597e-06
-1.883780318e-06
-4.887426984e-11
-5.658235024e-11
-4.825666199e-11
-8.095329875e-12
1.531476803e-11
2.750577867e-11
7.9747352e-11
6.447009831e-11
4.563734298e-11
6.079186128e-11
3.217049194e-11
1.521184555e-06
2.555059802e-11
2.597252325e-08
1.234078217e-08
3.914185092e-09
-3.798560157e-09
-1.283426913e-08
-2.583414652e-08
-4.54889897e-08
-7.428322104e-08
-1.134663052e-07
-1.604709995e-07
-2.023202158e-07
-1.99769839e-07
-4.571860145e-08
4.026632389e-07
1.901806437e-06
1.446935287e-06
-2.94475371e-11
-3.449701982e-11
-5.523276986e-11
-3.590963597e-11
-2.480405583e-12
1.9841256e-11
3.142249635e-11
4.719547173e-11
6.438205917e-11
6.713303308e-11
6.149369158e-11
9.883418813e-11
7.725150194e-11
4.641459285e-11
1.403918995e-08
6.289473288e-09
1.413581222e-09
-4.182921373e-09
-1.225645091e-08
-2.562450817e-08
-4.779951585e-08
-8.326453507e-08
-1.37799531e-07
-2.196345581e-07
-3.422070231e-07
-5.274070471e-07
-7.360225885e-07
-2.655941216e-07
5.712925209e-07
3.287489114e-06
-4.067278867e-11
-4.193038191e-11
-3.925885959e-11
-2.589405464e-11
-2.670538863e-12
1.648678614e-11
2.838633503e-11
4.532901472e-11
5.007563568e-11
5.53878019e-11
7.794926754e-11
8.55869556e-11
7.266047106e-11
4.866457082e-11
2.48638607e-09
3.937337057e-10
-1.065220917e-09
-4.595626726e-09
-1.164313501e-08
-2.503724797e-08
-4.86266214e-08
-8.737314183e-08
-1.470891795e-07
-2.340705018e-07
-3.551489443e-07
-5.25206169e-07
-1.015858416e-06
-1.628600358e-06
-2.655595066e-06
-3.972197309e-11
-3.679444657e-11
-3.598882827e-11
-3.617672892e-11
-2.541252686e-11
-6.260569691e-12
1.154837876e-11
2.351830776e-11
3.525660209e-11
4.736421395e-11
5.743202101e-11
7.150694724e-11
8.333184973e-11
7.15663774e-11
4.938104886e-11
-7.126250678e-09
-4.598767e-09
-3.285255669e-09
-5.179845198e-09
-1.150604427e-08
-2.520261643e-08
-5.061068726e-08
-9.364145211e-08
-1.612677306e-07
-2.600267614e-07
-3.93013789e-07
-5.772367882e-07
-1.409390037e-06
-2.444690859e-06
-1.862151077e-06
-2.770784082e-11
-3.266228792e-11
-3.604166618e-11
-3.569296335e-11
-2.660735248e-11
-1.179528376e-11
3.531467075e-12
1.839629876e-11
3.479932678e-11
5.124097831e-11
6.555614728e-11
7.71177596e-11
8.22002999e-11
7.024058238e-11
4.932388359e-11
-1.358206139e-08
-8.095259094e-09
-5.030855923e-09
-5.947212092e-09
-1.198629234e-08
-2.629750035e-08
-5.404146192e-08
-1.032227931e-07
-1.858644233e-07
-3.195584187e-07
-5.280108466e-07
-8.244668479e-07
-9.16981984e-07
-1.17422247e-06
-1.993215656e-07
-3.011229691e-11
-3.332499072e-11
-3.582827143e-11
-3.615629278e-11
-3.175963154e-11
-1.904793092e-11
-3.521386079e-12
1.626865174e-11
3.984379154e-11
6.059928292e-11
7.714296666e-11
8.497174514e-11
7.793863693e-11
7.132467603e-11
5.074117154e-11
-1.621616611e-08
-9.757175138e-09
-6.131948891e-09
-6.762162001e-09
-1.272040082e-08
-2.711435797e-08
-5.508885329e-08
-1.047202919e-07
-1.88191047e-07
-3.234771746e-07
-5.346847478e-07
-8.360808019e-07
-9.355858728e-07
-1.206469414e-06
-2.230044461e-07
-3.01775297e-11
-3.8290623e-11
-4.017164546e-11
-4.197128815e-11
-3.171281498e-11
-2.145568558e-11
-2.978427418e-12
2.219883837e-11
4.853964466e-11
7.639945751e-11
8.50754124e-11
7.330162373e-11
7.868294952e-11
4.853485538e-11
4.104858569e-11
-1.498318349e-08
-9.550611129e-09
-6.558770317e-09
-7.585853066e-09
-1.366098218e-08
-2.757754549e-08
-5.366022585e-08
-9.7980562e-08
-1.680185263e-07
-2.712344285e-07
-4.123430749e-07
-6.102487825e-07
-1.463973615e-06
-2.542394535e-06
-1.941165766e-06
-3.441991659e-11
-5.244476087e-11
-4.436485777e-11
-3.286222257e-11
-3.630203892e-11
-2.007173433e-11
5.304283971e-12
3.339460289e-11
6.361532698e-11
7.360583567e-11
7.473140417e-11
6.515577804e-11
1.700160404e-11
5.025187519e-11
2.717547683e-11
-1.047925527e-08
-7.757447996e-09
-6.422581545e-09
-8.49558463e-09
-1.508942373e-08
-2.880448431e-08
-5.345126633e-08
-9.425385707e-08
-1.577351084e-07
-2.515553581e-07
-3.845092981e-07
-5.746721916e-07
-1.103253117e-06
-1.792260326e-06
-2.682946583e-06
-3.151605363e-11
-4.134318131e-11
-4.468268639e-11
-5.501408624e-11
-2.431896866e-11
-6.730454568e-12
1.841516091e-11
4.695624339e-11
5.753954081e-11
8.076497298e-11
4.670376714e-11
-5.695112866e-12
8.158100185e-11
4.778142726e-11
3.761302395e-11
-3.797833972e-09
-4.884240992e-09
-5.873548228e-09
-9.420102486e-09
-1.681913124e-08
-3.05814806e-08
-5.418274714e-08
-9.244794782e-08
-1.520341761e-07
-2.426810364e-07
-3.799287551e-07
-5.881953123e-07
-8.29653878e-07
-3.951997726e-07
4.632867879e-07
3.125837029e-06
-4.72350774e-11
-4.858299264e-11
6.784155513e-12
-6.03090058e-11
-2.265100015e-12
4.058222644e-11
5.05202411e-11
6.637704576e-11
1.169178242e-11
5.25257971e-11
7.787438795e-11
6.67061458e-11
7.903303499e-11
3.081278579e-11
3.637708243e-09
-1.578008216e-09
-5.073520594e-09
-1.017074246e-08
-1.83261382e-08
-3.181969747e-08
-5.332971607e-08
-8.577391113e-08
-1.314277389e-07
-1.893772999e-07
-2.490028516e-07
-2.739781762e-07
-1.621478718e-07
2.126529789e-07
1.567702404e-06
1.260233664e-06
-1.64446005e-11
3.322335266e-11
-1.007688285e-10
-2.091933684e-11
-2.440743004e-11
2.446873684e-11
3.808066616e-11
-1.625162551e-11
1.609996879e-10
6.066438194e-11
4.261247569e-11
5.527972411e-11
3.375649099e-11
1.593432563e-11
1.035915275e-08
1.476975281e-09
-4.229632571e-09
-1.066449986e-08
-1.938296328e-08
-3.24194254e-08
-5.158638359e-08
-7.797449838e-08
-1.100863399e-07
-1.402084462e-07
-1.468684318e-07
-8.335305968e-08
1.367662687e-07
5.943414669e-07
9.103805977e-07
9.70350235e-07
-2.124103692e-06
-4.630433192e-11
-1.325611936e-11
-1.01295109e-10
-3.620692682e-11
1.400110665e-11
9.217281067e-14
1.586521121e-10
7.527276079e-11
3.026211578e-11
1.065315423e-11
5.451404286e-17
1.555494449e-06
1.898767534e-12
1.508164296e-08
3.683469482e-09
-3.568394997e-09
-1.091623202e-08
-2.003913784e-08
-3.277375265e-08
-5.052986346e-08
-7.35275471e-08
-9.936500421e-08
-1.203441776e-07
-1.20531505e-07
-7.401984312e-08
5.061826535e-08
2.726005847e-07
6.880718206e-07
1.538642971e-06
4.523843984e-06
5.19174007e-06
-8.145347325e-07
-3.540532452e-11
7.992372065e-12
3.108818106e-11
6.859786083e-11
5.833200112e-11
1.33545476e-11
9.016168817e-18
-1.426527212e-06
-1.308170218e-06
-2.17613017e-07
1.038794954e-06
1.698753942e-08
4.626192402e-09
-3.237906762e-09
-1.09852201e-08
-2.032379758e-08
-3.309048797e-08
-5.059399205e-08
-7.297476106e-08
-9.792804584e-08
-1.190003231e-07
-1.248910642e-07
-1.023408908e-07
-4.638221368e-08
2.72367893e-08
1.545743277e-07
4.659415064e-07
1.032341523e-06
2.026228029e-06
6.673606675e-06
1.610740719e-05
2.651704546e-11
3.299335964e-11
2.72696228e-11
-1.381727089e-11
-2.317571117e-12
9.914301387e-06
-1.939696432e-06
-2.084355012e-06
-3.287104533e-06
-1.606722423e-06
1.581980478e-08
4.185818846e-09
-3.278348999e-09
-1.087587937e-08
-2.023054169e-08
-3.336128837e-08
-5.168318226e-08
-7.566536559e-08
-1.028789525e-07
-1.258618994e-07
-1.286381777e-07
-8.573144664e-08
3.431030629e-08
2.51663952e-07
6.625956557e-07
1.486811672e-06
4.487800978e-06
5.174768909e-06
-8.399588006e-07
-2.710452632e-11
1.265003745e-11
2.29191474e-11
6.640631768e-12
-2.074407469e-12
4.402949187e-11
2.918652868e-11
-1.647533768e-06
-1.499226852e-06
8.316652202e-08
9.621454478e-07
1.195606457e-08
2.606298494e-09
-3.636833058e-09
-1.051341675e-08
-1.97813072e-08
-3.352491906e-08
-5.391850936e-08
-8.219723919e-08
-1.172618001e-07
-1.513976133e-07
-1.635957317e-07
-1.071233363e-07
1.042874219e-07
5.502786477e-07
8.328208669e-07
8.748401882e-07
-2.20207911e-06
-9.069950639e-11
-6.832242736e-11
-3.549201993e-11
-3.471857438e-12
1.790893064e-11
1.213303274e-11
2.748152061e-11
2.129314493e-11
1.353250277e-10
6.68511154e-11
1.335017353e-11
1.466155398e-06
-6.599761768e-11
)
;

boundaryField
{
    lowerWall
    {
        type            calculated;
        value           nonuniform 0();
    }
    atmosphere
    {
        type            calculated;
        value           nonuniform List<scalar> 
20
(
3.83992961e-08
4.60506787e-08
4.776573235e-08
4.428996773e-08
3.658399359e-08
2.597252325e-08
1.403918995e-08
2.48638607e-09
-7.126250678e-09
-1.358206139e-08
-1.621616611e-08
-1.498318349e-08
-1.047925527e-08
-3.797833972e-09
3.637708243e-09
1.035915275e-08
1.508164296e-08
1.698753942e-08
1.581980478e-08
1.195606457e-08
)
;
    }
    rightWall
    {
        type            empty;
    }
    leftWall
    {
        type            empty;
    }
    frontAndBack
    {
        type            calculated;
        value           nonuniform 0();
    }
    procBoundary2to0
    {
        type            processor;
        value           nonuniform List<scalar> 
30
(
2.390391801e-08
8.047165892e-09
-3.393248637e-10
-6.777190072e-09
-1.38859393e-08
-2.370309578e-08
-3.793208534e-08
-5.750935699e-08
-8.182673009e-08
-1.060166029e-07
-1.148234478e-07
-6.66943362e-08
1.466888344e-07
6.607306958e-07
2.244078084e-06
1.723804861e-06
-3.953467009e-11
-4.854855367e-11
-7.138070021e-11
-6.150942311e-11
-1.445840227e-11
1.562639855e-11
2.058736656e-11
4.508269189e-12
7.108886814e-11
1.019989643e-10
1.075936983e-10
5.03187665e-11
-2.428171202e-11
9.72044786e-11
)
;
    }
    procBoundary2to3
    {
        type            processor;
        value           nonuniform List<scalar> 
20
(
5.707936866e-11
-4.721979718e-11
-4.098817237e-11
-2.631415275e-11
1.715055748e-11
4.672616861e-11
5.180571923e-11
5.813739e-11
6.313183243e-11
6.577643268e-11
5.759418548e-11
3.306180553e-11
1.080599957e-11
4.816514461e-11
3.208285527e-11
-2.53416226e-11
-3.439822361e-11
-2.554206785e-12
-3.668161038e-11
9.0043293e-11
)
;
    }
    procBoundary2to4
    {
        type            processor;
        value           nonuniform List<scalar> 
30
(
6.413674811e-09
2.946953445e-10
-4.050258571e-09
-9.916861462e-09
-1.885648281e-08
-3.346517414e-08
-5.674595153e-08
-9.217133348e-08
-1.423450417e-07
-2.068071812e-07
-2.752161471e-07
-3.120524915e-07
-2.156639875e-07
1.410675829e-07
1.463581808e-06
1.171462868e-06
-4.11558829e-11
-5.502617556e-11
-9.737386659e-11
-6.715522141e-11
-1.536198587e-11
2.300217997e-11
3.407642074e-11
4.155113905e-12
7.903356925e-11
8.891926585e-11
1.175502103e-10
5.739457561e-11
-2.646991938e-11
1.151070177e-10
)
;
    }
}


// ************************************************************************* //
