/*--------------------------------*- C++ -*----------------------------------*\
  =========                 |
  \\      /  F ield         | OpenFOAM: The Open Source CFD Toolbox
   \\    /   O peration     | Website:  https://openfoam.org
    \\  /    A nd           | Version:  6
     \\/     M anipulation  |
\*---------------------------------------------------------------------------*/
FoamFile
{
    version     2.0;
    format      ascii;
    class       surfaceScalarField;
    location    "0.002";
    object      phi;
}
// * * * * * * * * * * * * * * * * * * * * * * * * * * * * * * * * * * * * * //

dimensions      [0 3 -1 0 0 0 0];

internalField   nonuniform List<scalar> 
1150
(
-4.19246591e-19
-1.118380833e-19
-4.447809464e-19
-1.361500709e-19
-4.901954589e-19
-1.782794026e-19
-5.599614896e-19
-2.342398895e-19
-6.603734382e-19
-3.024124625e-19
-8.002087648e-19
-3.831223617e-19
-9.908227325e-19
-4.780996986e-19
-1.245566017e-18
-5.896916729e-19
-1.577531378e-18
-7.19554069e-19
-1.993992131e-18
-8.664771018e-19
-2.483984227e-18
-1.023247081e-18
-2.992426529e-18
-1.173545389e-18
-3.369637772e-18
-1.293759138e-18
-3.306318069e-18
-1.373238572e-18
-2.476115622e-18
-1.481337074e-18
-4.133273207e-19
-1.795668599e-18
1.868459531e-19
-1.501551867e-18
1.297525123e-19
1.81385166e-20
1.290073179e-19
1.507336024e-20
4.748976704e-20
1.506056246e-19
1.496528607e-20
1.045090585e-19
-4.838965296e-21
8.550240569e-20
-1.502077822e-20
6.697157917e-20
-3.495069349e-20
7.065588743e-20
-6.365493336e-20
6.758969518e-20
-1.243882111e-19
7.327537447e-20
-5.807173082e-20
-1.338319036e-19
1.683205816e-20
-2.024475286e-19
-2.532911435e-19
8.483023385e-19
2.532911433e-19
-4.825304707e-19
-8.25428114e-20
-5.106598847e-19
-9.830330405e-20
-5.608648361e-19
-1.248138545e-19
-6.384308143e-19
-1.582400333e-19
-7.508197204e-19
-1.959148578e-19
-9.084672522e-19
-2.361336051e-19
-1.124974947e-18
-2.778623868e-19
-1.416585469e-18
-3.204168939e-19
-1.799994919e-18
-3.63038205e-19
-2.287464014e-18
-4.044157903e-19
-2.877834624e-18
-4.423195676e-19
-3.543384698e-18
-4.743585235e-19
-4.216006412e-18
-5.025341866e-19
-4.7887545e-18
-5.473092588e-19
-5.115605874e-18
-6.755656688e-19
-4.999737362e-18
-9.972692323e-19
-2.924576964e-18
-1.282111902e-18
5.32483353e-32
-4.017370561e-19
2.154910131e-19
-5.134425239e-19
1.393200721e-21
3.64708947e-19
-4.041366761e-21
1.09943331e-19
-2.336979173e-20
1.048426767e-19
-1.133647006e-20
5.494026189e-20
-3.801688574e-20
9.732536201e-20
-5.796925396e-20
8.75628783e-20
-2.824469198e-19
2.977530403e-19
-5.608981385e-32
-1.00346631e-18
-5.94768487e-19
-1.528466484e-19
-4.707136703e-19
6.694898505e-19
-1.656028529e-33
-5.254017368e-19
-5.243771826e-20
-5.536485887e-19
-5.975947324e-20
-6.040553569e-19
-7.075402414e-20
-6.820749128e-19
-8.158789328e-20
-7.954632143e-19
-8.84165079e-20
-9.551219082e-19
-8.733097028e-20
-1.175403916e-18
-7.429416489e-20
-1.473709296e-18
-4.521528897e-20
-1.868679471e-18
3.643012703e-21
-2.376328158e-18
7.479508838e-20
-3.004342791e-18
1.682529334e-19
-3.747875676e-18
2.807321891e-19
-4.597381548e-18
4.082221675e-19
-5.57916248e-18
5.581271241e-19
-6.820947075e-18
7.776484051e-19
-8.590334197e-18
1.15827813e-18
-1.065982674e-17
1.444920556e-18
-1.050610349e-17
4.470161351e-19
-8.497991683e-18
5.966949127e-19
-4.924520148e-19
-3.612743643e-19
-2.774701736e-19
-1.050496011e-19
-7.32722063e-20
-9.934617784e-20
3.104862993e-20
-4.938310201e-20
2.205487832e-19
-9.213912378e-20
3.913005077e-19
-8.318589255e-20
5.42900743e-18
-2.948191725e-19
2.401709957e-18
1.215489599e-18
1.108004825e-18
2.234909207e-19
9.438067855e-19
-5.639782458e-19
2.560544907e-33
-5.480047748e-19
-2.46298047e-20
-5.737694294e-19
-2.441045265e-20
-6.195687031e-19
-2.153599959e-20
-6.903620384e-19
-1.217779743e-20
-7.932354809e-19
8.566340631e-21
-9.382479626e-19
4.658670576e-20
-1.138749817e-18
1.086632484e-19
-1.411025406e-18
2.020168912e-19
-1.772396563e-18
3.330969861e-19
-2.236644719e-18
5.050965673e-19
-2.80537579e-18
7.139139722e-19
-3.454893131e-18
9.434187903e-19
-4.121969956e-18
1.164722048e-18
-4.702986706e-18
1.353143107e-18
-5.049248722e-18
1.551428014e-18
-4.945762889e-18
1.895363748e-18
-2.891818221e-18
1.589711952e-18
5.549738615e-32
-1.45901498e-20
2.189255958e-19
-9.01287824e-21
2.852347967e-21
-1.452329869e-19
-3.438597869e-21
-9.876280676e-20
-2.330913065e-20
-7.9467327e-20
-1.170739173e-20
-6.096235148e-20
-3.882613821e-20
-6.501146442e-20
-5.941237189e-20
-6.254992663e-20
-2.853807876e-19
-6.883567385e-20
-5.811378263e-32
1.386272228e-19
-5.999207544e-19
2.05144455e-19
-4.35810061e-19
-8.275159821e-19
-2.528460759e-19
-5.523807353e-19
-1.710023794e-21
-5.733424902e-19
4.421893069e-21
-6.10244309e-19
1.808919227e-20
-6.669357812e-19
4.299950275e-20
-7.489458992e-19
8.473217831e-20
-8.64256242e-19
1.505659297e-19
-1.023633408e-18
2.492665459e-19
-1.240402396e-18
3.903838192e-19
-1.528762534e-18
5.823953667e-19
-1.898915957e-18
8.286930823e-19
-2.345387477e-18
1.119932978e-18
-2.821650601e-18
1.42072218e-18
-3.189569445e-18
1.649591993e-18
-3.151399002e-18
1.660513995e-18
-2.384631575e-18
1.315419939e-18
-3.914640956e-19
4.704103115e-19
1.903943199e-19
1.706178399e-19
1.322646275e-19
4.351782075e-20
1.317540563e-19
-8.527454805e-21
4.932252832e-20
-6.282290628e-20
1.585688189e-20
-6.530075826e-20
-4.804155211e-21
-5.879948333e-20
-1.575650458e-20
-4.999777732e-20
-3.636460042e-20
-4.436792532e-20
-6.569811921e-20
-3.318775446e-20
-1.269664603e-19
-7.547049531e-21
-6.017012367e-20
7.185790482e-20
1.413513174e-20
1.308534976e-19
-2.528460761e-19
1.155472497e-19
-5.076185698e-19
-5.422772641e-19
1.45167827e-20
-5.567630554e-19
2.439247647e-20
-5.816648703e-19
4.4730645e-20
-6.192574114e-19
7.890379481e-20
-6.728138634e-19
1.325845107e-19
-7.472486265e-19
2.135188499e-19
-8.494616646e-19
3.312622553e-19
-9.884913472e-19
4.963987369e-19
-1.17506981e-18
7.185443602e-19
-1.419769739e-18
1.002072568e-18
-1.727510123e-18
1.337753266e-18
-2.082102185e-18
1.686527647e-18
-2.399377091e-18
1.946547521e-18
-2.437898008e-18
1.877996351e-18
-1.14785929e-18
8.706285263e-19
-3.436662974e-20
7.340280298e-33
6.329430106e-20
7.294382131e-20
8.021935182e-20
2.657743798e-20
7.745860463e-20
-5.791255508e-21
4.684467637e-20
-3.222493786e-20
2.235815679e-20
-4.081534108e-20
3.997550718e-21
-4.043005893e-20
-1.012665249e-20
-3.585960855e-20
-2.518442953e-20
-2.928917252e-20
-4.005741424e-20
-1.828615549e-20
-4.756150583e-20
-1.312103851e-23
-1.174530907e-21
2.549826043e-20
1.112211302e-19
1.850176286e-20
3.239880543e-19
-9.718534043e-20
1.698162462e-19
-5.226845739e-19
2.323197252e-20
-5.299418291e-19
3.44450531e-20
-5.414501741e-19
5.68672484e-20
-5.576793594e-19
9.327390393e-20
-5.792733609e-19
1.487312007e-19
-6.074695832e-19
2.303264018e-19
-6.443004005e-19
3.468488433e-19
-6.928734448e-19
5.079653212e-19
-7.578614745e-19
7.222881539e-19
-8.469705958e-19
9.935663297e-19
-9.754436305e-19
1.314134291e-18
-1.177740188e-18
1.654421072e-18
-1.502894135e-18
1.944580317e-18
-1.747957052e-18
2.005017436e-18
-1.678624962e-18
1.055204224e-18
-8.811016471e-20
-1.29408524e-19
1.692791775e-20
-3.211233795e-20
4.785065848e-20
-4.363938473e-21
5.102492234e-20
-8.982967752e-21
3.825427326e-20
-1.946579725e-20
2.274343898e-20
-2.53056937e-20
8.568001041e-21
-2.624729353e-20
-3.55621642e-21
-2.372277494e-20
-1.418141254e-20
-1.864383017e-20
-2.178437985e-20
-1.066093235e-20
-2.205012443e-20
2.772403466e-22
-8.171028472e-21
1.165380859e-20
-4.465973113e-21
1.483474615e-20
-1.214025721e-19
1.978355208e-20
5.666575941e-20
-4.991462628e-19
2.469379797e-20
-4.994771896e-19
3.495097267e-20
-4.98174106e-19
5.509073325e-20
-4.93989933e-19
8.704723012e-20
-4.850531648e-19
1.346197059e-19
-4.690220066e-19
2.031675778e-19
-4.429839033e-19
2.991989083e-19
-4.032641631e-19
4.294130735e-19
-3.448688963e-19
5.985199184e-19
-2.601730492e-19
8.048391485e-19
-1.361946496e-19
1.032311916e-18
4.732356644e-20
1.237477891e-18
2.091250473e-19
1.331286206e-18
3.273235571e-19
1.162996545e-18
2.022633072e-19
-4.874597917e-33
7.252969929e-20
3.074296229e-22
4.467631728e-20
-4.275309019e-21
4.32316292e-20
-2.935245433e-21
4.054209281e-20
-6.309509907e-21
3.241437683e-20
-1.134937573e-20
2.180183915e-20
-1.46959385e-20
1.109251959e-20
-1.553284135e-20
1.522728394e-21
-1.414253116e-20
-6.198514729e-21
-1.090691745e-20
-1.084620714e-20
-5.992189186e-21
-1.067355617e-20
1.301147274e-22
-4.990090914e-21
6.002124199e-21
4.828328512e-22
9.398858765e-21
8.071858805e-21
1.222633341e-20
1.437520546e-20
-4.769603123e-19
2.015920828e-20
-4.716712405e-19
2.76180044e-20
-4.600271698e-19
4.198654892e-20
-4.39481075e-19
6.419898184e-20
-4.063065151e-19
9.633134863e-20
-3.556503488e-19
1.413102487e-19
-2.814552827e-19
2.025102034e-19
-1.765468162e-19
2.828861839e-19
-3.27398055e-20
3.830383607e-19
1.594770656e-19
4.970548278e-19
4.131567389e-19
6.039594478e-19
7.431332918e-19
6.509516547e-19
9.245384002e-19
5.234855258e-19
9.66849759e-19
3.415591644e-20
1.392270586e-19
-1.759067303e-32
6.794696057e-20
7.157521305e-20
4.601638082e-20
1.764075416e-20
3.985736469e-20
3.207752182e-21
3.550222694e-20
-1.970235695e-21
2.906781404e-20
-4.926788317e-21
2.096493628e-20
-6.598303101e-21
1.248282975e-20
-7.049165275e-21
4.758342129e-21
-6.409867413e-21
-1.283786471e-21
-4.849322478e-21
-4.723903216e-21
-2.529298673e-21
-4.801546696e-21
2.368942727e-22
-1.593356348e-21
2.828208411e-21
3.31030751e-21
4.531728374e-21
1.022073083e-20
5.34712813e-21
4.091107217e-21
-4.604117853e-19
1.165946768e-20
-4.515758307e-19
1.518415684e-20
-4.334878149e-19
2.16625972e-20
-4.029205923e-19
3.098855386e-20
-3.552438306e-19
4.332734595e-20
-2.845404186e-19
5.891905863e-20
-1.839108197e-19
7.786217703e-20
-4.673654842e-20
9.98351157e-20
1.299966599e-19
1.23698742e-19
3.380722297e-19
1.469532941e-19
5.423197207e-19
1.650404696e-19
6.561803325e-19
1.706613326e-19
6.188255273e-19
1.532927824e-19
3.106148117e-20
1.000433097e-19
-5.752588134e-20
9.269768575e-35
1.401250174e-20
2.344672806e-23
3.158337886e-20
5.506593942e-23
3.467937684e-20
9.583052178e-23
3.254567433e-20
1.473973515e-22
2.739629928e-20
2.084713429e-22
2.051407412e-20
2.754563055e-22
1.312212761e-20
3.412161818e-22
6.318887076e-21
4.006036294e-22
1.03623733e-21
4.510356201e-22
-1.957710274e-21
4.915819455e-22
-2.210232562e-21
5.237023237e-22
1.101636125e-22
5.455774569e-22
4.125707275e-21
5.508241064e-22
8.964709911e-21
5.398253495e-22
5.087395308e-22
-4.521896438e-19
1.647525243e-21
-4.422871005e-19
9.450912273e-22
-4.223884279e-19
-9.613860187e-22
-3.892589871e-19
-5.146292247e-21
-3.3829103e-19
-1.329412262e-20
-2.636282473e-19
-2.779454982e-20
-1.584947338e-19
-5.175527131e-20
-1.651812944e-20
-8.868384058e-20
1.648595778e-19
-1.413194307e-19
3.76600279e-19
-2.085550403e-19
5.822342298e-19
-2.782311466e-19
6.932171786e-19
-3.11913084e-19
6.467003881e-19
-2.160063708e-19
4.161065254e-20
1.689244171e-19
-5.750243461e-20
1.777679656e-32
1.404412095e-20
-7.153652107e-20
3.162414344e-20
-1.75419746e-20
3.473094367e-20
-3.028823774e-21
3.260674832e-20
2.252938794e-21
2.746328424e-20
5.337840839e-21
2.0579834e-20
7.149370685e-21
1.318151505e-20
7.738211382e-21
6.369319066e-21
7.222665768e-21
1.076783656e-21
5.765144206e-21
-1.925589895e-21
3.52791081e-21
-2.188357429e-21
8.242811527e-22
1.15410262e-22
-1.725611735e-21
4.114708519e-21
-3.41350395e-21
8.933624091e-21
-4.257519177e-21
-3.065372684e-21
-4.530809558e-19
-7.401661137e-21
-4.445975778e-19
-1.178300285e-20
-4.275252794e-19
-2.094869343e-20
-3.992856459e-19
-3.675741598e-20
-3.562095056e-19
-6.244181059e-20
-2.936035951e-19
-1.026571472e-19
-2.057544829e-19
-1.634533727e-19
-8.616586347e-20
-2.518193764e-19
7.206383597e-20
-3.742240307e-19
2.761788769e-19
-5.332187161e-19
5.354584175e-19
-7.207742758e-19
8.590899866e-19
-9.067663341e-19
1.015071165e-18
-1.022642489e-18
1.002029537e-18
-9.479870806e-19
1.392891973e-19
5.219057699e-33
6.803866736e-20
-3.012888701e-22
4.613729425e-20
4.336089731e-21
4.001270621e-20
3.076046553e-21
3.569165035e-20
6.559389217e-21
2.927481406e-20
1.173854289e-20
2.116867468e-20
1.524658929e-20
1.266596945e-20
1.624327408e-20
4.911797491e-21
1.499167977e-20
-1.160449737e-21
1.186566491e-20
-4.629219547e-21
7.029394326e-21
-4.738250314e-21
9.66525877e-22
-1.57248195e-21
-4.862421975e-21
3.270693284e-21
-8.249122917e-21
1.012577058e-20
-1.109026231e-20
-1.33184575e-20
-4.619689153e-19
-1.339720319e-20
-4.569978321e-19
-2.020184069e-20
-4.46665145e-19
-3.413586126e-20
-4.296489908e-19
-5.754938556e-20
-4.041348937e-19
-9.466231827e-20
-3.679918121e-19
-1.516022218e-19
-3.187886283e-19
-2.36412675e-19
-2.538308267e-19
-3.586677811e-19
-1.699810891e-19
-5.28178261e-19
-6.29132598e-20
-7.520889269e-19
7.492338444e-20
-1.029503941e-18
2.551949321e-19
-1.342447745e-18
3.814413401e-19
-1.639223616e-18
4.041628813e-19
-1.767268767e-18
2.023315866e-19
-9.905894096e-19
7.267604604e-20
1.293402446e-19
4.487725111e-20
3.211650991e-20
4.349604891e-20
4.437389784e-21
4.087080408e-20
9.160183342e-21
3.278286047e-20
1.981567807e-20
2.216535949e-20
2.586109895e-20
1.141437517e-20
2.700244292e-20
1.785782616e-21
2.464114176e-20
-5.996720322e-21
1.967374098e-20
-1.0692088e-20
1.176065755e-20
-1.056719817e-20
8.623932802e-22
-4.959182892e-21
-1.047296842e-20
4.295538786e-22
-1.360160146e-20
7.897575419e-21
-1.853704766e-20
-5.553797955e-20
-4.761304077e-19
-1.496032784e-20
-4.760217485e-19
-2.248127371e-20
-4.74947305e-19
-3.782077062e-20
-4.732296155e-19
-6.345378727e-20
-4.71526075e-19
-1.038410283e-19
-4.712726929e-19
-1.654473731e-19
-4.750311876e-19
-2.567354012e-19
-4.87045015e-19
-3.877419305e-19
-5.141762535e-19
-5.686177675e-19
-5.680007039e-19
-8.06122715e-19
-6.701014262e-19
-1.096260443e-18
-8.647577837e-19
-1.409211526e-18
-1.215254792e-18
-1.657461666e-18
-1.536740864e-18
-1.621427037e-18
-1.606492514e-18
-7.149325211e-19
-8.789136654e-20
-6.904468199e-33
1.719813094e-20
-7.299398093e-20
4.821884247e-20
-2.660491419e-20
5.152629885e-20
5.855742142e-21
3.882828133e-20
3.248689159e-20
2.330670346e-20
4.138167012e-20
9.053074051e-21
4.127410887e-20
-3.18161821e-21
3.689828747e-20
-1.390980375e-20
3.043142743e-20
-2.159035228e-20
1.944640242e-20
-2.190255988e-20
1.197945686e-21
-8.087815937e-21
-2.425310153e-20
-4.505892348e-21
-1.715387788e-20
-1.2169558e-19
9.868776582e-20
-1.685646226e-19
-4.918077784e-19
-1.163617114e-20
-4.969453784e-19
-1.80450107e-20
-5.058167963e-19
-3.120425072e-20
-5.204461267e-19
-5.334478685e-20
-5.440301915e-19
-8.840191382e-20
-5.816119408e-19
-1.420077115e-19
-6.405924957e-19
-2.214569423e-19
-7.311954454e-19
-3.35260719e-19
-8.665059109e-19
-4.917196304e-19
-1.0612695e-18
-6.955268151e-19
-1.327253518e-18
-9.409443588e-19
-1.658854796e-18
-1.199378327e-18
-1.988167742e-18
-1.40021444e-18
-2.102659769e-18
-1.412422576e-18
-1.003533618e-18
-1.117302049e-18
-3.419799118e-20
-4.092317766e-19
6.358719765e-20
-1.707864785e-19
8.067949865e-20
-4.368244926e-20
7.815744822e-20
8.333006425e-21
4.772305974e-20
6.291198259e-20
2.319914218e-20
6.589473993e-20
4.677252696e-21
5.980687335e-20
-9.648478289e-21
5.124094319e-20
-2.489482871e-20
4.567055491e-20
-3.983880895e-20
3.446193807e-20
-4.735360703e-20
8.739705708e-21
-9.885922914e-22
-7.059917738e-20
1.113357513e-19
-1.294536527e-19
3.234442445e-19
-1.134057245e-19
5.090188076e-19
-5.049541915e-19
-3.925700715e-21
-5.147224111e-19
-7.62035766e-21
-5.323409099e-19
-1.546558858e-20
-5.612747494e-19
-2.915072516e-20
-6.068415803e-19
-5.144973321e-20
-6.770347665e-19
-8.622315891e-20
-7.830393649e-19
-1.383796254e-19
-9.393598295e-19
-2.13595587e-19
-1.162618724e-18
-3.173879979e-19
-1.467315857e-18
-4.53144547e-19
-1.854781035e-18
-6.187540395e-19
-2.288477604e-18
-8.027275617e-19
-2.643668149e-18
-9.842388873e-19
-2.641358954e-18
-1.150580008e-18
-1.994848298e-18
-1.359199105e-18
-2.082127328e-19
-1.764600571e-18
1.906912265e-19
-1.513736523e-18
1.326949544e-19
1.429324316e-20
1.327364246e-19
8.285644636e-21
5.070581705e-20
1.448975701e-19
1.711127564e-20
9.947318937e-20
-3.888677378e-21
8.081304908e-20
-1.521886666e-20
6.257117344e-20
-3.610344558e-20
6.662564588e-20
-6.556104136e-20
6.395298842e-20
-1.266924902e-19
6.988460438e-20
-5.98430676e-20
-1.374438652e-19
1.499143324e-20
-2.042881535e-19
-2.541311733e-19
8.470477477e-19
2.541311731e-19
-5.120077734e-19
6.843570505e-21
-5.249423516e-19
6.951318101e-21
-5.485252982e-19
6.53140466e-21
-5.871581324e-19
4.630450375e-21
-6.47546621e-19
3.24719044e-23
-7.395922418e-19
-8.743650427e-21
-8.769636234e-19
-2.346596091e-20
-1.077109321e-18
-4.61287994e-20
-1.35993181e-18
-7.872773301e-20
-1.743811356e-18
-1.227513022e-19
-2.237605527e-18
-1.785294262e-19
-2.827961775e-18
-2.452690218e-19
-3.465172282e-18
-3.245313734e-19
-4.061714338e-18
-4.328821362e-19
-4.486188509e-18
-6.28915236e-19
-4.558177392e-18
-1.008770368e-18
-2.73725456e-18
-1.324062028e-18
5.720770837e-32
-4.155212835e-19
2.202997809e-19
-5.740295733e-19
5.281436083e-21
3.599001792e-19
-1.548864652e-21
1.063070423e-19
-2.213055294e-20
1.014085543e-19
-1.116439431e-20
5.163550275e-20
-3.877610304e-20
9.426327994e-20
-5.96294253e-20
8.481224603e-20
-2.849723905e-19
2.952275696e-19
-5.817673581e-32
-1.056428351e-18
-6.723633514e-19
-1.133337885e-19
-5.209712914e-19
5.989387913e-19
-1.979386337e-33
-5.105380682e-19
1.880964127e-20
-5.246263776e-19
2.309571296e-20
-5.503569148e-19
3.082287224e-20
-5.924332399e-19
4.182445538e-20
-6.580014607e-19
5.656789379e-20
-7.575995064e-19
7.61475117e-20
-9.057512239e-19
1.02199538e-19
-1.121045294e-18
1.367320438e-19
-1.424976102e-18
1.816794986e-19
-1.838810156e-18
2.381937194e-19
-2.37854593e-18
3.056992085e-19
-3.051004486e-18
3.817046942e-19
-3.861164768e-18
4.650145917e-19
-4.850310758e-18
5.683690932e-19
-6.156173148e-18
7.456468549e-19
-8.043154175e-18
1.085295773e-18
-1.025715371e-17
1.348755957e-18
-1.01724314e-17
4.003021959e-19
-8.365998728e-18
5.855851689e-19
-4.873913004e-19
-3.598596225e-19
-2.747755051e-19
-1.062969677e-19
-7.190360433e-20
-1.014486827e-19
3.146338275e-20
-5.17193645e-20
2.201010157e-19
-9.438049397e-20
3.89865498e-19
-8.49532663e-20
5.386795625e-18
-2.953463945e-19
2.314001533e-18
1.154278439e-18
1.006346677e-18
2.679410629e-19
8.740669069e-19
-7.297167841e-19
2.322488958e-33
-4.996777471e-19
2.994589616e-20
-5.127340933e-19
3.801242312e-20
-5.364715522e-19
5.310328713e-20
-5.752062284e-19
7.572540736e-20
-6.355053241e-19
1.078756377e-19
-7.271568984e-19
1.529718466e-19
-8.63721508e-19
2.157938444e-19
-1.062641371e-18
3.020228555e-19
-1.343866647e-18
4.171807955e-19
-1.72595271e-18
5.643411604e-19
-2.217957688e-18
7.405316632e-19
-2.80677754e-18
9.324216804e-19
-3.442734642e-18
1.116220719e-18
-4.037659765e-18
1.275144862e-18
-4.459483314e-18
1.461957361e-18
-4.544908645e-18
1.831526292e-18
-2.714310746e-18
1.51273627e-18
5.50414967e-32
-1.411125438e-20
2.203403376e-19
-8.070191544e-21
5.250953948e-21
-1.447822853e-19
-1.599067615e-21
-9.944132389e-20
-2.21742863e-20
-8.086327775e-20
-1.11977466e-20
-6.26929528e-20
-3.879990929e-20
-6.677925324e-20
-5.96072299e-20
-6.412637703e-20
-2.848535657e-19
-7.008708696e-20
-5.770345978e-32
1.371876426e-19
-6.024945875e-19
2.041126043e-19
-4.871685305e-19
-8.080799425e-19
-2.543026348e-19
-4.802559811e-19
-4.903239771e-19
-5.083715314e-19
-5.376488081e-19
-5.832249203e-19
-6.528045496e-19
-7.573784012e-19
-9.113715355e-19
-1.131574024e-18
-1.432846312e-18
-1.817174469e-18
-2.248684886e-18
-2.602821441e-18
-2.600046913e-18
-1.960043802e-18
-1.720841462e-19
1.908732153e-19
1.327284187e-19
1.32676813e-19
5.05919156e-20
1.697897853e-20
-4.003961425e-21
-1.528404695e-20
-3.614703308e-20
-6.556793994e-20
-1.266274054e-19
-5.976239416e-20
1.516698245e-20
-2.54302635e-19
)
;

boundaryField
{
    lowerWall
    {
        type            calculated;
        value           nonuniform 0();
    }
    atmosphere
    {
        type            calculated;
        value           nonuniform List<scalar> 
20
(
4.112217181e-19
4.737021672e-19
5.165258581e-19
5.398812913e-19
5.457205072e-19
5.375938013e-19
5.202090241e-19
4.987894979e-19
4.783276795e-19
4.628750542e-19
4.549944013e-19
4.554709495e-19
4.633070106e-19
4.760056062e-19
4.901003809e-19
5.01847789e-19
5.079414546e-19
5.06122015e-19
4.955725166e-19
4.770450358e-19
)
;
    }
    rightWall
    {
        type            empty;
        value           nonuniform 0();
    }
    leftWall
    {
        type            empty;
        value           nonuniform 0();
    }
    frontAndBack
    {
        type            calculated;
        value           nonuniform 0();
    }
    procBoundary2to0
    {
        type            processor;
        value           nonuniform List<scalar> 
30
(
1.3692931e-19
1.692730158e-19
2.257592719e-19
3.019315586e-19
3.968639024e-19
5.124104882e-19
6.523830465e-19
8.213039794e-19
1.02230183e-18
1.253214664e-18
1.499731888e-18
1.723781507e-18
1.846526817e-18
1.735239038e-18
1.286175015e-18
4.302502838e-19
1.667459026e-19
3.892081507e-20
-1.436419971e-20
-6.910792615e-20
-7.198297533e-20
-6.568214801e-20
-5.677554234e-20
-5.072289415e-20
-3.887277421e-20
-1.247551138e-20
6.755538816e-20
1.275548129e-19
1.123400826e-19
-5.088032848e-19
)
;
    }
    procBoundary2to3
    {
        type            processor;
        value           nonuniform List<scalar> 
20
(
2.202527666e-21
1.966099217e-19
1.616186893e-19
1.966277873e-19
1.937773564e-21
-3.53426133e-19
-8.230456594e-21
5.038435989e-20
2.052675079e-20
1.256962923e-20
1.252598012e-20
2.039093339e-20
5.013381437e-20
-8.655242373e-21
-3.541321038e-19
7.573050877e-22
1.948465285e-19
1.599680525e-19
1.947543037e-19
6.689207349e-22
)
;
    }
    procBoundary2to4
    {
        type            processor;
        value           nonuniform List<scalar> 
30
(
3.847064789e-20
4.923877401e-20
6.953447124e-20
1.003300543e-19
1.446600578e-19
2.076515119e-19
2.96403914e-19
4.194838835e-19
5.852669288e-19
7.983256202e-19
1.052150606e-18
1.316321725e-18
1.51670724e-18
1.516938622e-18
1.192096858e-18
4.323844976e-19
1.710770819e-19
4.399323133e-20
-8.048951359e-21
-6.271316209e-20
-6.582992988e-20
-5.987237828e-20
-5.140747482e-20
-4.59040531e-20
-3.469600655e-20
-8.967477061e-21
7.035234299e-20
1.291891611e-19
1.13014296e-19
-5.093035228e-19
)
;
    }
}


// ************************************************************************* //
