/*--------------------------------*- C++ -*----------------------------------*\
  =========                 |
  \\      /  F ield         | OpenFOAM: The Open Source CFD Toolbox
   \\    /   O peration     | Website:  https://openfoam.org
    \\  /    A nd           | Version:  6
     \\/     M anipulation  |
\*---------------------------------------------------------------------------*/
FoamFile
{
    version     2.0;
    format      ascii;
    class       surfaceScalarField;
    location    "0.0054";
    object      phi;
}
// * * * * * * * * * * * * * * * * * * * * * * * * * * * * * * * * * * * * * //

dimensions      [0 3 -1 0 0 0 0];

internalField   nonuniform List<scalar> 
1150
(
-1.301976699e-18
1.436240124e-19
-1.323675466e-18
1.606799157e-19
-1.359899993e-18
1.929906681e-19
-1.411808618e-18
2.411275782e-19
-1.480786164e-18
3.078064804e-19
-1.568657685e-18
3.977524649e-19
-1.677630113e-18
5.174806723e-19
-1.810314959e-18
6.74621806e-19
-1.969493223e-18
8.762767686e-19
-2.157323408e-18
1.125459791e-18
-2.371887357e-18
1.413906436e-18
-2.595074705e-18
1.707356386e-18
-2.750009893e-18
1.91406588e-18
-2.620711909e-18
1.8112444e-18
-1.193122576e-18
8.113907503e-19
-3.39073877e-20
8.350478703e-33
6.378936502e-20
7.336203773e-20
8.068623596e-20
2.707190432e-20
7.801260208e-20
-5.418594754e-21
4.747514784e-20
-3.220555462e-20
2.293653009e-20
-4.129813968e-20
4.460941946e-21
-4.138656694e-20
-9.780625132e-21
-3.715076267e-20
-2.49389865e-20
-3.074384501e-20
-3.983941041e-20
-1.976045661e-20
-4.730758524e-20
-1.459782552e-21
-9.255760657e-22
2.402257836e-20
1.113843637e-19
1.690473011e-20
3.233794961e-19
-9.89926009e-20
1.682719078e-19
-1.237211663e-18
1.510228176e-19
-1.251586892e-18
1.666096072e-19
-1.273901383e-18
1.958451641e-19
-1.303030898e-18
2.38870004e-19
-1.337179512e-18
2.97824518e-19
-1.37398837e-18
3.768463827e-19
-1.4105295e-18
4.82012671e-19
-1.443688131e-18
6.208437733e-19
-1.471141581e-18
8.009477917e-19
-1.494107904e-18
1.027072997e-18
-1.523900636e-18
1.295755647e-18
-1.596750986e-18
1.586016155e-18
-1.772532185e-18
1.842228838e-18
-1.872317796e-18
1.904923309e-18
-1.708517034e-18
1.027553576e-18
-8.723270626e-20
-1.286514393e-19
1.749923164e-20
-3.137575724e-20
4.819573703e-20
-3.639941167e-21
5.122564228e-20
-8.464889826e-21
3.83825629e-20
-1.937559851e-20
2.284810286e-20
-2.576868095e-20
8.696746172e-21
-2.723148396e-20
-3.373707438e-21
-2.507199998e-20
-1.395559815e-20
-2.015548768e-20
-2.153873641e-20
-1.216604683e-20
-2.18252244e-20
-1.154385512e-21
-8.04342431e-21
1.025324952e-20
-4.512967327e-21
1.338355018e-20
-1.217482082e-19
1.824883865e-20
5.519046105e-20
-1.173883788e-18
1.512361326e-19
-1.182237885e-18
1.628859834e-19
-1.192916088e-18
1.84101413e-19
-1.202572193e-18
2.14105905e-19
-1.206265554e-18
2.535774297e-19
-1.197376172e-18
3.048671361e-19
-1.167485706e-18
3.721245626e-19
-1.106482097e-18
4.610011003e-19
-1.002812558e-18
5.773411428e-19
-8.436622707e-19
7.238844677e-19
-6.144896419e-19
8.934176905e-19
-2.994202343e-19
1.056563768e-18
5.301245937e-21
1.143204949e-18
2.657346957e-19
1.025551836e-18
2.030203919e-19
-3.46830158e-33
7.338665378e-20
9.78749306e-22
4.523504776e-20
-3.233618695e-21
4.337078837e-20
-1.787922256e-21
4.031493356e-20
-5.422359681e-21
3.198948048e-20
-1.106134912e-20
2.138529984e-20
-1.517078733e-20
1.085623013e-20
-1.670185531e-20
1.542804897e-21
-1.575273819e-20
-5.966157297e-21
-1.263833991e-20
-1.052707508e-20
-7.592205203e-21
-1.041758936e-20
-1.249141488e-21
-4.913123648e-21
4.761221854e-21
3.523211772e-22
8.130297994e-21
7.785637756e-21
1.082175198e-20
1.288597606e-20
-1.118625357e-18
1.480368116e-19
-1.123995597e-18
1.542085814e-19
-1.128509651e-18
1.64224405e-19
-1.127088149e-18
1.75903285e-19
-1.112283074e-18
1.876885561e-19
-1.074126885e-18
1.991521727e-19
-1.000106055e-18
2.114609553e-19
-8.756756366e-19
2.275557142e-19
-6.853808293e-19
2.515007732e-19
-4.143763327e-19
2.857729458e-19
-4.886031735e-20
3.239928868e-19
4.189341316e-19
3.344618952e-19
7.456653985e-19
2.283721463e-19
9.15513035e-19
-1.582479887e-19
1.40655463e-19
-1.696910185e-32
6.917428567e-20
7.245246928e-20
4.668074414e-20
1.92495579e-20
3.973635089e-20
5.143850753e-21
3.467594405e-20
-3.745202688e-22
2.788004224e-20
-4.276546331e-21
1.985423184e-20
-7.15238147e-21
1.18053472e-20
-8.654832216e-21
4.657203198e-21
-8.600649453e-21
-9.200225937e-22
-7.052951363e-21
-4.18401136e-21
-4.316166305e-21
-4.407226012e-21
-1.011388485e-21
-1.544047508e-21
1.91141025e-21
3.043775178e-21
3.554181368e-21
9.849861803e-21
4.023392783e-21
2.464676229e-21
-1.075029013e-18
1.464615502e-19
-1.081741588e-18
1.470028213e-19
-1.087964449e-18
1.452816096e-19
-1.087662609e-18
1.372725738e-19
-1.071914969e-18
1.185792345e-19
-1.028762826e-18
8.528868541e-20
-9.434870172e-19
3.493689072e-20
-8.002350882e-19
-3.233385928e-20
-5.86369284e-19
-1.124053502e-19
-3.020968266e-19
-1.957364077e-19
2.057091447e-20
-2.6626681e-19
2.891147124e-19
-3.016109481e-19
4.197660675e-19
-2.765975598e-19
-2.122230118e-20
-1.728011498e-19
-5.522022077e-20
1.060317504e-33
1.597137439e-20
1.252407583e-21
3.257503704e-20
2.633878735e-21
3.421797993e-20
3.48918834e-21
3.077391804e-20
3.058522836e-21
2.500420715e-20
1.483475503e-21
1.835178112e-20
-5.072508032e-22
1.185952997e-20
-2.165769206e-21
6.204901309e-21
-2.943810817e-21
1.816762461e-21
-2.656896506e-21
-8.79233548e-22
-1.607594372e-21
-1.484427282e-21
-3.924655158e-22
9.87236069e-23
3.403727783e-22
3.512986603e-21
1.490546753e-22
8.291145258e-21
-7.502560686e-22
-1.492391373e-21
-1.042351671e-18
1.516841244e-19
-1.055327625e-18
1.480807345e-19
-1.072259017e-18
1.37215119e-19
-1.087084211e-18
1.128248297e-19
-1.09055678e-18
6.725287464e-20
-1.069931099e-18
-7.417310393e-21
-1.009013191e-18
-1.179901082e-19
-8.895198278e-19
-2.681013711e-19
-6.95206974e-19
-4.54827688e-19
-4.215128194e-19
-6.62895136e-19
-9.503784211e-20
-8.546394042e-19
1.957853253e-19
-9.5277578e-19
3.651815677e-19
-8.127820116e-19
-3.336040433e-20
-2.210390743e-19
-5.396781343e-20
1.909883957e-32
1.735284562e-20
-7.007625394e-20
3.343034679e-20
-1.345241389e-20
3.378731458e-20
3.121931131e-21
2.919887083e-20
7.638111276e-21
2.301348094e-20
7.661235153e-21
1.669326279e-20
5.806676101e-21
1.10814884e-20
3.442590473e-21
6.491815655e-21
1.647489221e-21
2.86606461e-21
9.76163758e-22
3.358953126e-22
9.339689854e-22
-7.515889887e-22
7.068797083e-22
-9.25944969e-23
-3.101158204e-22
2.613675867e-21
-2.552723157e-21
7.549009986e-21
-5.683870532e-21
-5.993011152e-21
-1.014970884e-18
1.676434662e-19
-1.038890599e-18
1.630410793e-19
-1.075163645e-18
1.487778516e-19
-1.118699242e-18
1.160250137e-19
-1.161219358e-18
5.369200079e-20
-1.190644319e-18
-5.035747041e-20
-1.190401933e-18
-2.078930377e-19
-1.139121541e-18
-4.280551046e-19
-1.011024878e-18
-7.133866676e-19
-7.772682498e-19
-1.053023208e-18
-4.077277389e-19
-1.411647038e-18
1.196116499e-19
-1.713147572e-18
5.579137326e-19
-1.820147547e-18
8.672547883e-19
-1.519298468e-18
1.442840847e-19
1.119352336e-33
7.39766847e-20
2.268507557e-22
5.000469111e-20
1.051191872e-20
3.830349416e-20
1.481885511e-20
2.922199428e-20
1.671554166e-20
2.115892155e-20
1.572010286e-20
1.432917695e-20
1.263215386e-20
9.28638701e-21
8.482913633e-21
5.820490101e-21
5.115005397e-21
2.823869795e-21
3.979921996e-21
1.088060344e-22
3.659197614e-21
-1.768584494e-21
2.591885578e-21
-2.335201801e-21
2.581501211e-22
-5.174715158e-22
-4.372825323e-21
7.239869265e-21
-1.344840193e-20
-1.852911036e-20
-9.827294246e-19
1.956542203e-19
-1.021180439e-18
1.946550725e-19
-1.083502196e-18
1.854385563e-19
-1.166519076e-18
1.563346787e-19
-1.264338164e-18
9.300819582e-20
-1.367587862e-18
-2.049424533e-20
-1.462244085e-18
-2.006789228e-19
-1.528349337e-18
-4.627051013e-19
-1.538834303e-18
-8.166968391e-19
-1.458899104e-18
-1.261047137e-18
-1.246722397e-18
-1.771299697e-18
-8.595083825e-19
-2.282989896e-18
-3.827703038e-19
-2.664862701e-18
1.329736837e-19
-2.638922476e-18
2.078546158e-19
-1.320802211e-18
8.426175381e-20
1.238172156e-19
5.431162825e-20
4.04658698e-20
4.020018128e-20
2.892346769e-20
2.822655595e-20
2.868757974e-20
1.807097283e-20
2.587517542e-20
1.017993693e-20
2.052165365e-20
5.918478913e-21
1.274320701e-20
4.685406777e-21
6.350214158e-21
2.503145454e-21
6.168537843e-21
-9.585059984e-22
7.127186145e-21
-4.102319987e-21
5.73749373e-21
-6.966177288e-21
3.119283584e-21
-9.593048174e-21
-1.756369824e-21
2.159160954e-21
-2.520093344e-20
-6.636107338e-20
-9.322161927e-19
2.331588526e-19
-9.869793018e-19
2.415086657e-19
-1.078718317e-18
2.476119492e-19
-1.206788217e-18
2.36629502e-19
-1.368801618e-18
1.915775494e-19
-1.55993703e-18
9.385096817e-20
-1.77163159e-18
-7.640957969e-20
-1.990020482e-18
-3.391142648e-19
-2.194661552e-18
-7.110474899e-19
-2.359175436e-18
-1.198878481e-18
-2.457474912e-18
-1.785313797e-18
-2.482005623e-18
-2.403486966e-18
-2.454493021e-18
-2.891553134e-18
-2.228642323e-18
-2.906506389e-18
-1.685695347e-18
-1.683977925e-18
-6.243327005e-20
1.362245459e-34
4.276922598e-20
-6.474887031e-20
3.996429333e-20
3.172683955e-20
2.541415164e-20
4.323364991e-20
1.271745098e-20
3.85711678e-20
2.401490215e-21
3.083680737e-20
-4.745139883e-22
1.561861902e-20
4.503730451e-21
1.374491167e-21
3.461793765e-21
7.215638652e-21
-2.348198418e-21
1.294256407e-20
-6.720530167e-21
1.011285126e-20
-1.184183074e-20
8.23051336e-21
-3.303761206e-20
1.944440631e-20
-1.31593205e-19
7.334002733e-20
-1.92389814e-19
-8.488787519e-19
2.728149143e-19
-9.196018343e-19
2.972626289e-19
-1.039921873e-18
3.297160335e-19
-1.211716402e-18
3.515816833e-19
-1.43649707e-18
3.442339499e-19
-1.714817201e-18
2.882402425e-19
-2.044814821e-18
1.626045202e-19
-2.419986681e-18
-5.512573536e-20
-2.825989185e-18
-3.869632395e-19
-3.236480498e-18
-8.487588299e-19
-3.607998235e-18
-1.436733131e-18
-3.871215916e-18
-2.100972862e-18
-3.899443589e-18
-2.705315515e-18
-3.448278849e-18
-2.99086753e-18
-1.477642992e-18
-2.640787284e-18
-4.947841857e-22
-1.17205018e-18
1.39244934e-19
-2.044896868e-19
5.147110294e-20
1.194882687e-19
2.075166926e-20
7.394724741e-20
4.983090398e-21
5.433897688e-20
-1.281669796e-20
4.863586467e-20
-1.471864165e-20
1.752036895e-20
1.034487779e-20
-2.368645975e-20
9.188719056e-21
8.37813713e-21
-5.177911147e-21
2.731655702e-20
-8.602867956e-21
1.353401542e-20
-6.27937763e-22
2.573080304e-22
2.085800888e-20
-2.047190175e-21
3.150691698e-19
-2.208703443e-19
4.609459486e-19
-7.197255502e-19
3.020466747e-19
-8.042708401e-19
3.509760619e-19
-9.481620773e-19
4.205914624e-19
-1.155073929e-18
4.877040488e-19
-1.430019517e-18
5.336684443e-19
-1.778645938e-18
5.405469496e-19
-2.205684986e-18
4.888864945e-19
-2.712236796e-18
3.565098442e-19
-3.290680852e-18
1.181878623e-19
-3.915774755e-18
-2.524081358e-19
-4.531289184e-18
-7.739845805e-19
-5.032886825e-18
-1.433805637e-18
-5.243530014e-18
-2.148565087e-18
-4.8648239e-18
-2.74728594e-18
-3.679986471e-18
-3.185053466e-18
-5.343568103e-19
-3.85284298e-18
4.632228891e-19
-2.753494765e-18
5.930082356e-21
5.767762113e-19
1.143399083e-21
7.873420253e-20
-7.200218282e-22
5.62049484e-20
-4.393219392e-20
9.184898031e-20
-5.59254707e-20
2.951435811e-20
4.240947493e-20
-1.220174666e-19
2.812713911e-20
2.266798927e-20
-1.896045283e-20
7.440969575e-20
-2.187957552e-20
1.64531776e-20
-2.932435981e-21
-1.868800638e-20
-3.10357388e-19
3.053777618e-19
-2.031144952e-19
-2.185608881e-18
2.031144932e-19
-5.366241334e-19
3.043428429e-19
-6.321801675e-19
3.895789182e-19
-7.912782075e-19
5.057408125e-19
-1.018408881e-18
6.253762119e-19
-1.321169441e-18
7.32525082e-19
-1.708903974e-18
8.132033673e-19
-2.191354508e-18
8.520783718e-19
-2.776408204e-18
8.305091176e-19
-3.464762229e-18
7.238510428e-19
-4.238688304e-18
4.974944019e-19
-5.045659069e-18
1.06170025e-19
-5.792188689e-18
-4.829744038e-19
-6.401350472e-18
-1.211765899e-18
-6.948582621e-18
-1.76073305e-18
-7.540515061e-18
-1.874821524e-18
-7.415152025e-18
-2.277325405e-18
-6.207422281e-18
-9.786861781e-19
-2.080487199e-19
4.477661849e-32
-7.043442463e-20
-5.888066839e-20
3.492401035e-20
-4.91515468e-20
-1.062668167e-19
2.330408975e-19
-2.074572971e-19
1.307062617e-19
1.870949324e-19
-5.165649085e-19
7.986884605e-20
1.299022715e-19
-7.691697152e-20
2.312021323e-19
-7.972190388e-21
-5.248698539e-20
3.70700194e-20
-6.372911674e-20
2.097827588e-18
4.69917352e-32
1.342535091e-18
-1.447244593e-18
-2.87301216e-32
-3.024080785e-19
2.616827569e-19
-4.056131559e-19
4.018983993e-19
-5.6848627e-19
5.707373125e-19
-7.9647053e-19
7.424278863e-19
-1.098606207e-18
9.080527537e-19
-1.485200855e-18
1.059331811e-18
-1.967158115e-18
1.186326143e-18
-2.555300702e-18
1.276494375e-18
-3.256696732e-18
1.311128882e-18
-4.060782187e-18
1.254304245e-18
-4.907084306e-18
1.030626192e-18
-5.640318238e-18
5.232353169e-19
-6.09256292e-18
-3.190133113e-19
-6.39789259e-18
-8.183998549e-19
-6.811682754e-18
-2.224976326e-19
-6.75952416e-18
-4.300749146e-19
-3.707345606e-18
-5.655397089e-19
-2.669293844e-19
2.6394268e-20
-3.923771305e-19
6.656266773e-20
-3.462272089e-19
-9.530059595e-20
2.988063096e-19
-4.119916873e-19
5.210074184e-19
-9.149297108e-20
-5.42173773e-19
5.466210891e-19
-3.262390549e-19
-8.602413251e-20
3.027375751e-19
-3.977677443e-19
3.124575069e-19
-6.220327485e-20
1.007991347e-19
1.479307127e-19
-4.263656208e-19
2.464232455e-19
-8.429455119e-20
-1.631753087e-18
-1.558519567e-19
-4.469118136e-20
1.86492978e-19
-1.441484774e-19
3.938099367e-19
-2.928289942e-19
6.068276278e-19
-4.998263673e-19
8.188677122e-19
-7.727417962e-19
1.028855785e-18
-1.118311414e-18
1.232761426e-18
-1.5421304e-18
1.424047679e-18
-2.049973519e-18
1.595381936e-18
-2.649689769e-18
1.738638137e-18
-3.342187193e-18
1.832586777e-18
-4.07218047e-18
1.786314335e-18
-4.55775368e-18
1.343463635e-18
-4.30512088e-18
-3.302584195e-20
-3.24076789e-18
-5.490682273e-19
-1.616785643e-18
4.007936313e-19
5.107602189e-32
-7.783408525e-21
5.970776883e-20
-3.58229976e-20
7.159733901e-20
1.449528408e-20
1.383518331e-19
-1.936350883e-22
1.128176047e-19
-6.976532189e-20
-1.564308878e-19
-1.427423667e-19
-2.16614407e-19
-3.130765486e-20
2.009168907e-19
1.290944046e-19
1.377532466e-19
-2.285395959e-20
-1.37433861e-19
-1.225748186e-19
-1.70000734e-19
-2.963310792e-20
-9.906676326e-20
7.699746718e-20
-1.140848694e-20
1.58765109e-19
-1.558519571e-19
-6.653190602e-20
-1.329482642e-19
2.124213384e-19
1.359623019e-19
1.37404169e-19
3.761884678e-19
1.87485635e-20
6.083537377e-19
-1.508526065e-19
8.398056063e-19
-3.749443628e-19
1.071954974e-18
-6.532328861e-19
1.300544553e-18
-9.789831953e-19
1.516306128e-18
-1.339565657e-18
1.708453744e-18
-1.727303397e-18
1.873993853e-18
-2.15621559e-18
2.028943205e-18
-2.659860853e-18
2.141676407e-18
-2.903318954e-18
1.723651056e-18
-2.464260645e-18
2.284037774e-20
-1.081427579e-19
-1.48242051e-18
1.972010624e-19
7.759057737e-20
9.864776396e-20
9.076431655e-20
4.668237313e-20
1.613675617e-20
5.690841971e-20
4.264000668e-21
6.878014556e-20
-1.206651698e-20
3.984055928e-20
-4.08255779e-20
-4.499617499e-20
-5.790509737e-20
-5.621234581e-20
-2.009012611e-20
4.896852487e-20
2.391761686e-20
3.803238668e-20
-1.191214687e-20
-4.449214948e-20
-4.004558357e-20
-6.337015782e-20
-1.075328762e-20
-1.729912074e-20
3.092608346e-20
9.496632906e-20
4.649131137e-20
4.60598353e-20
-1.763388406e-20
-4.47980259e-20
4.788240872e-19
1.170731129e-19
4.330909392e-19
3.440395809e-19
3.482222362e-19
5.690296494e-19
2.21005251e-19
7.967275096e-19
4.948422932e-20
1.027329997e-18
-1.616376958e-19
1.25330276e-18
-3.92270417e-19
1.455727839e-18
-5.969938168e-19
1.602513365e-18
-7.116058419e-19
1.659555328e-18
-6.932062603e-19
1.650652226e-18
-7.660232245e-19
1.709134688e-18
-7.366717433e-19
1.301032793e-18
1.328969442e-32
-4.52840112e-20
-1.907375682e-19
-7.84895676e-20
-5.795334593e-20
-5.519525863e-20
2.402020303e-20
8.788484916e-21
3.480961707e-20
5.341919038e-21
4.057790143e-20
-1.507704637e-21
4.002108391e-20
-1.151054674e-20
2.27610395e-20
-2.356549404e-20
-7.181203571e-21
-2.796285265e-20
-1.220460252e-20
-1.506578977e-20
1.313876082e-20
-1.422458816e-21
9.898949788e-21
-8.667348186e-21
-1.519985325e-20
-1.494245573e-20
-2.16907863e-20
-4.261147942e-21
-1.733892787e-21
1.096705985e-20
3.0841133e-20
1.390977051e-20
1.889569315e-20
-5.696961835e-21
-1.656786149e-20
7.479814707e-19
9.684906254e-20
7.242764547e-19
2.898331778e-19
6.717362919e-19
4.853649242e-19
5.847658871e-19
6.872495874e-19
4.565745183e-19
8.958702888e-19
2.845567542e-19
1.103423277e-18
8.384494121e-20
1.285151437e-18
-8.047556554e-20
1.383548981e-18
-5.79616612e-20
1.288610749e-18
2.329689975e-19
9.040491166e-19
7.366201283e-19
2.818242783e-19
1.597004639e-19
1.435617494e-19
9.34818019e-20
2.093346997e-20
3.754120453e-20
-2.25508889e-20
6.030396903e-21
-2.368740526e-20
2.057363751e-20
-5.758280688e-21
2.795999389e-20
-2.04816446e-21
3.057505992e-20
-4.124812162e-21
2.796613715e-20
-8.902686908e-21
1.836368126e-20
-1.396315887e-20
5.715859225e-21
-1.531560591e-20
1.438728276e-21
-1.078793288e-20
5.893871634e-21
-5.875162835e-21
3.62384238e-21
-6.392523677e-21
-4.518545673e-21
-6.79578796e-21
-6.462578793e-21
-2.315139132e-21
1.208817845e-21
3.293290542e-21
1.123440107e-20
3.878639121e-21
8.024793763e-21
-2.493080894e-21
-6.817787837e-21
9.894631017e-19
7.019084855e-20
9.86466345e-19
2.115846475e-19
9.651339053e-19
3.574833884e-19
9.16642742e-19
5.121325444e-19
8.246469275e-19
6.788387048e-19
6.629980621e-19
8.577331706e-19
3.956266655e-19
1.040047191e-18
-1.050491035e-21
1.190979239e-18
-4.763061128e-19
1.191325913e-18
-3.751849543e-19
5.086073547e-19
-6.142272263e-20
-1.623451969e-32
3.707218296e-20
4.506688619e-20
4.999744259e-20
8.0077806e-21
3.640468818e-20
-8.960759616e-21
2.395952165e-20
-1.124558076e-20
2.428375377e-20
-6.086661934e-21
2.588334617e-20
-3.651710589e-21
2.579718513e-20
-4.041593054e-21
2.290566511e-20
-6.012513027e-21
1.701123422e-20
-8.069729895e-21
1.024353229e-20
-8.548601466e-21
6.351498362e-21
-6.895976391e-21
5.376510796e-21
-4.897898328e-21
3.220578094e-21
-4.232168981e-21
-3.789680461e-23
-3.532161743e-21
-8.541490605e-22
-1.496058197e-21
1.794166429e-21
6.446092245e-22
4.862680986e-21
8.066152985e-22
3.700086782e-21
-1.334017131e-21
-3.022378131e-21
1.180450378e-18
3.70304266e-20
1.196209973e-18
1.120495927e-19
1.204953567e-18
1.905395081e-19
1.198516336e-18
2.758882491e-19
1.158266916e-18
3.725886948e-19
1.045471092e-18
4.876849025e-19
7.794886743e-19
6.345958978e-19
2.333634516e-19
8.412699215e-19
-4.904100447e-19
1.131029413e-18
-1.295251569e-18
9.938923797e-19
-1.430431906e-19
-8.034419699e-20
1.307732097e-23
-9.798955368e-20
3.302890183e-20
-2.500911662e-20
3.411986652e-20
-1.005487911e-20
2.911844005e-20
-6.248592962e-21
2.671870472e-20
-3.692255736e-21
2.549346333e-20
-2.43103311e-21
2.38262648e-20
-2.377833475e-21
2.084844792e-20
-3.036609984e-21
1.653236242e-20
-3.755161032e-21
1.189615719e-20
-3.913473589e-21
8.349576296e-21
-3.349593768e-21
6.042240061e-21
-2.58817302e-21
3.920585274e-21
-2.105614508e-21
1.998206714e-21
-1.603756355e-21
1.286518349e-21
-7.803614161e-22
1.956172474e-21
-2.389349541e-23
2.722048509e-21
3.907391255e-23
2.01172575e-21
-6.253617061e-22
-1.205253134e-21
1.301828537e-18
1.330681862e-18
1.362618315e-18
1.395242565e-18
1.422704948e-18
1.43560607e-18
1.417617422e-18
1.15247022e-18
7.896729505e-19
2.513276425e-19
1.709832768e-19
7.299351449e-20
4.798313986e-20
3.79261532e-20
3.167477772e-20
2.797992775e-20
2.554666335e-20
2.316748865e-20
2.012989718e-20
1.637405011e-20
1.246003719e-20
9.110997168e-21
6.524798668e-21
4.422443487e-21
2.821601683e-21
2.042986292e-21
2.019139911e-21
2.057612928e-21
1.431834352e-21
)
;

boundaryField
{
    lowerWall
    {
        type            calculated;
        value           nonuniform 0();
    }
    atmosphere
    {
        type            calculated;
        value           nonuniform List<scalar> 
20
(
1.294751074e-18
1.232201824e-18
1.170672575e-18
1.116266297e-18
1.072176782e-18
1.037483724e-18
1.006645705e-18
9.698517668e-19
9.142438427e-19
8.258842302e-19
6.921631491e-19
5.046429654e-19
2.655660977e-19
6.071644276e-21
-2.402561422e-19
-4.923755223e-19
-7.533816706e-19
-9.874053062e-19
-1.171788679e-18
-1.288800649e-18
)
;
    }
    rightWall
    {
        type            empty;
        value           nonuniform 0();
    }
    leftWall
    {
        type            empty;
        value           nonuniform 0();
    }
    frontAndBack
    {
        type            calculated;
        value           uniform 0;
    }
    procBoundary4to2
    {
        type            processor;
        value           nonuniform List<scalar> 
30
(
-1.273017111e-19
-1.43007881e-19
-1.728116695e-19
-2.172765994e-19
-2.788417433e-19
-3.616674017e-19
-4.713031771e-19
-6.139962752e-19
-7.949815005e-19
-1.01509934e-18
-1.264150728e-18
-1.509097508e-18
-1.675438336e-18
-1.629523278e-18
-1.252066704e-18
-4.420848249e-19
-1.710770819e-19
-4.399323133e-20
8.048951359e-21
6.271316209e-20
6.582992988e-20
5.987237828e-20
5.140747482e-20
4.59040531e-20
3.469600655e-20
8.967477061e-21
-7.035234299e-20
-1.291891611e-19
-1.13014296e-19
5.093035228e-19
)
;
    }
    procBoundary4to5
    {
        type            processor;
        value           nonuniform List<scalar> 
20
(
-3.541447757e-19
-8.664223127e-21
5.009438635e-20
2.027273146e-20
1.225076601e-20
1.204694723e-20
1.977412306e-20
4.997918224e-20
-5.562703145e-21
-3.382846342e-19
5.47140047e-20
3.1650152e-19
1.223992926e-19
-1.787574946e-19
-4.209847625e-20
-9.338446989e-21
-1.728560919e-21
-9.741019801e-23
1.9365985e-22
2.267974912e-22
)
;
    }
}


// ************************************************************************* //
