/*--------------------------------*- C++ -*----------------------------------*\
  =========                 |
  \\      /  F ield         | OpenFOAM: The Open Source CFD Toolbox
   \\    /   O peration     | Website:  https://openfoam.org
    \\  /    A nd           | Version:  6
     \\/     M anipulation  |
\*---------------------------------------------------------------------------*/
FoamFile
{
    version     2.0;
    format      ascii;
    class       volScalarField;
    location    "0.0054";
    object      ViscousDissipation;
}
// * * * * * * * * * * * * * * * * * * * * * * * * * * * * * * * * * * * * * //

dimensions      [1 -1 -3 0 0 0 0];

internalField   nonuniform List<scalar> 
600
(
3.876099622e-20
7.000261447e-20
1.214915439e-19
2.093369303e-19
3.634315844e-19
6.371888567e-19
1.122191977e-18
1.962248212e-18
3.348863387e-18
5.443597348e-18
8.094181906e-18
1.012196413e-17
8.390609299e-18
2.026480358e-18
2.70567286e-17
2.439347118e-17
1.139550637e-16
2.566741968e-16
9.511959694e-17
8.514787487e-17
3.317724104e-17
1.993753527e-17
1.331026027e-17
1.659779309e-17
2.742735891e-17
8.645528476e-17
2.02471496e-16
5.595177932e-16
2.186749777e-16
1.681227337e-18
3.828550219e-20
6.461490953e-20
1.050802132e-19
1.728296968e-19
2.941284027e-19
5.193393887e-19
9.404176659e-19
1.712180415e-18
3.066483217e-18
5.288852355e-18
8.591181412e-18
1.278252899e-17
1.656096927e-17
2.241106644e-17
1.883551366e-17
2.535328613e-17
2.233717313e-16
6.981326913e-17
2.028146812e-17
1.933372679e-17
1.42901871e-17
1.107635558e-17
9.080663161e-18
9.303344722e-18
1.122339738e-17
1.519623457e-17
1.614279438e-17
8.792996428e-17
7.094158399e-17
1.6364663e-19
3.165611481e-20
4.932730178e-20
7.483773726e-20
1.186855341e-19
2.045264492e-19
3.814590309e-19
7.436026326e-19
1.454897507e-18
2.770479924e-18
5.038382655e-18
8.669582764e-18
1.398434072e-17
2.058280718e-17
1.544394573e-17
9.775847583e-18
1.413128309e-16
1.428902647e-16
4.255553004e-18
2.712821501e-18
6.33845519e-18
6.810595226e-18
6.088970539e-18
5.190333211e-18
4.62389818e-18
4.322906187e-18
4.149650172e-18
3.729329269e-18
2.215593081e-18
5.192828003e-17
8.04810725e-17
2.166587374e-20
2.947034429e-20
3.963698285e-20
6.11564003e-20
1.174074727e-19
2.597367549e-19
5.877996557e-19
1.270950051e-18
2.550218917e-18
4.676726601e-18
7.750787482e-18
1.146543469e-17
1.698960272e-17
7.312666927e-18
5.652465708e-18
1.475892503e-16
4.843331874e-17
4.915560591e-18
2.64570406e-18
3.467831782e-18
3.880716237e-18
3.571534468e-18
2.917393025e-18
2.24265139e-18
1.630927953e-18
1.187105958e-18
1.121023811e-18
1.382076702e-18
2.592326676e-18
1.295835033e-17
1.255810926e-20
1.263568921e-20
1.167275931e-20
1.910988791e-20
6.150287023e-20
1.974254378e-19
5.375356404e-19
1.257515992e-18
2.561403157e-18
4.49174046e-18
6.442334803e-18
6.670281014e-18
4.537838704e-18
4.689409753e-18
5.277601654e-20
9.640856404e-17
3.504429646e-17
1.746810294e-18
1.122512938e-18
2.197721993e-18
2.650535534e-18
2.365213604e-18
1.76032226e-18
1.167666644e-18
6.380183543e-19
2.498678369e-19
2.263726317e-19
6.423153109e-19
1.293705229e-18
1.408358571e-18
8.212697718e-21
5.549172715e-21
2.188534186e-21
1.060750717e-20
6.466364358e-20
2.3591466e-19
6.539634709e-19
1.515093637e-18
3.029123315e-18
5.190103848e-18
7.238000279e-18
7.243053788e-18
4.948927159e-18
7.473002489e-18
1.444566918e-19
1.063396227e-16
3.906461121e-17
1.992134404e-18
1.213564321e-18
2.204225542e-18
2.404573153e-18
1.876613295e-18
1.186417628e-18
7.24379174e-19
3.671277917e-19
6.768183278e-20
4.921941245e-20
5.448246374e-19
1.449475992e-18
1.447357471e-18
1.179040164e-20
1.331407456e-20
2.016711892e-20
5.084825805e-20
1.508814006e-19
4.107617133e-19
9.883489707e-19
2.122483786e-18
4.102586113e-18
7.134148712e-18
1.110120865e-17
1.546637649e-17
2.236672556e-17
1.102649865e-17
6.027515823e-18
1.555109273e-16
6.194297581e-17
1.038526589e-17
4.634061532e-18
3.686063882e-18
3.009223396e-18
1.862475353e-18
8.302695553e-19
5.102856867e-19
4.167000105e-19
2.690644496e-19
3.801896716e-19
1.47350286e-18
4.37149649e-18
1.480456186e-17
2.75383138e-20
4.224235378e-20
7.547726513e-20
1.547456622e-19
3.412503051e-19
7.49621503e-19
1.573371598e-18
3.106039298e-18
5.734812308e-18
9.872120718e-18
1.581025851e-17
2.341843592e-17
3.137493687e-17
2.209441083e-17
1.407366806e-17
1.178011405e-16
1.107502501e-16
1.167271644e-17
7.882654552e-18
6.174616911e-18
4.845510488e-18
2.610724942e-18
5.586586048e-19
2.641487966e-19
6.793881562e-19
7.312745822e-19
1.166684982e-18
7.120235377e-18
6.949447884e-17
1.044670237e-16
6.368754029e-20
1.046261779e-19
1.841955024e-19
3.41002336e-19
6.542663059e-19
1.264749365e-18
2.401735091e-18
4.404069848e-18
7.70346161e-18
1.269552359e-17
1.934644487e-17
2.628439198e-17
2.913533646e-17
2.588901319e-17
4.186509128e-17
3.033116323e-17
2.153820557e-16
6.395549541e-17
1.229658556e-17
1.02979157e-17
1.039312594e-17
6.984376581e-18
2.78866144e-18
5.881070069e-19
2.007972294e-18
1.327111884e-18
2.254891239e-18
4.218228757e-17
3.876645512e-17
1.334367918e-19
1.344721645e-19
2.219167723e-19
3.71071303e-19
6.319425394e-19
1.101254285e-18
1.942556727e-18
3.411347679e-18
5.866348477e-18
9.713971147e-18
1.515239095e-17
2.146312947e-17
2.567351525e-17
2.181429018e-17
1.041155852e-17
5.488224454e-17
6.207730913e-17
4.631639454e-16
1.212588104e-15
6.952176277e-17
1.951203264e-17
3.074243244e-17
3.615206156e-17
4.522568509e-17
1.408346642e-17
1.355965073e-17
4.105568078e-18
3.638588147e-18
4.986996768e-16
1.355213971e-16
1.349732428e-18
2.605830487e-19
4.23227126e-19
6.635669875e-19
1.042768356e-18
1.672815525e-18
2.732136896e-18
4.488038534e-18
7.300232353e-18
1.154121738e-17
1.728419647e-17
2.356789215e-17
2.754302582e-17
2.579332587e-17
2.454642312e-17
7.795623624e-17
1.772915939e-16
1.839393831e-16
6.688870132e-16
1.144929032e-15
2.185538163e-17
1.343684945e-16
3.102758084e-16
7.019810343e-16
2.430367533e-16
1.420262606e-16
3.945615684e-17
2.247631575e-16
5.812640015e-16
5.453541108e-17
3.579576999e-19
4.647522858e-19
7.356184727e-19
1.072344096e-18
1.556625442e-18
2.314588634e-18
3.526750532e-18
5.453200341e-18
8.439529966e-18
1.28366497e-17
1.866428768e-17
2.481258575e-17
2.828431909e-17
2.624242926e-17
2.642102344e-17
5.186326351e-17
1.508587034e-16
2.204496523e-16
3.153675164e-16
7.630824742e-19
3.465934241e-16
3.271260055e-16
6.206912108e-18
6.314381254e-16
1.237441284e-18
3.777410226e-16
9.865869937e-17
3.083180728e-19
5.184490236e-17
2.815680271e-17
5.60125569e-17
7.057359837e-19
1.133225593e-18
1.548037149e-18
2.092459886e-18
2.90812504e-18
4.157460704e-18
6.066614872e-18
8.948038188e-18
1.313699607e-17
1.856971068e-17
2.352703132e-17
2.302768881e-17
1.402959105e-17
2.514846329e-17
7.326302101e-17
1.503934916e-16
4.099491726e-16
1.226514998e-16
2.576191816e-19
3.830852222e-19
3.020178287e-18
8.615802481e-20
7.850112813e-15
7.133379912e-20
2.712547306e-18
1.819440976e-19
3.381421166e-19
1.776432327e-17
7.406768303e-17
1.433767009e-17
9.110249885e-19
1.613607588e-18
1.99538248e-18
2.518723731e-18
3.299035121e-18
4.435996783e-18
6.084459422e-18
8.512344212e-18
1.212980033e-17
1.698797147e-17
2.060979117e-17
1.461382984e-17
6.152317369e-18
8.419248669e-17
1.386746855e-16
9.648143179e-17
1.025924181e-16
2.304185821e-16
3.128168889e-16
1.560688324e-16
6.751445002e-16
9.75146246e-17
8.952570118e-16
6.070282303e-17
7.169277321e-16
1.343434287e-16
6.749984326e-17
1.055421917e-16
2.005822337e-17
7.09124143e-21
1.991345679e-18
1.992694787e-18
2.254416927e-18
2.717671162e-18
3.380728592e-18
4.25204479e-18
5.36566853e-18
6.921256799e-18
9.636715491e-18
1.456841097e-17
1.968281494e-17
8.449182733e-18
1.776657877e-17
4.462554915e-17
5.699872967e-17
3.91346789e-17
7.265197168e-17
5.170911071e-18
7.130372456e-17
1.684656746e-16
4.645229311e-16
4.421683637e-16
7.934520814e-16
3.550646905e-16
4.365985051e-16
2.706090438e-16
3.234408034e-16
2.905150478e-16
3.614616747e-17
3.152190056e-16
1.892828673e-18
2.009454335e-18
2.255430243e-18
2.652318118e-18
3.161737604e-18
3.67979452e-18
4.039251131e-18
4.256589773e-18
5.563681026e-18
1.209535754e-17
3.558522314e-17
1.340503239e-17
3.650866162e-18
1.369352492e-17
8.466483447e-17
2.357252929e-16
5.353843934e-17
8.795635032e-18
1.585082283e-17
2.971254852e-17
5.697992786e-17
4.176196192e-17
4.788816011e-17
2.132404828e-17
4.030180079e-17
3.471601504e-17
4.202148064e-17
8.403838436e-17
6.141057533e-17
4.964787768e-17
1.606878066e-18
1.731895652e-18
1.982114864e-18
2.35358004e-18
2.776696536e-18
3.045022102e-18
2.732919418e-18
1.482975173e-18
1.213268898e-18
1.279273478e-17
1.233196429e-17
9.448220743e-18
3.213783226e-17
1.216226127e-16
1.70678761e-16
4.448422698e-17
3.272710044e-18
2.303992156e-18
3.87352428e-18
6.906778808e-18
9.692375397e-18
5.444828201e-18
2.30738233e-18
1.001237743e-18
4.387679971e-18
4.692529499e-18
5.447502998e-18
8.082337456e-18
6.531948542e-18
5.878177202e-18
1.087277534e-18
1.235387875e-18
1.511119623e-18
1.919729288e-18
2.416225527e-18
2.835352414e-18
2.792683669e-18
1.912115116e-18
2.77958288e-18
2.273802066e-17
1.126133579e-17
1.682962659e-16
1.873444482e-16
2.675497589e-17
1.028662803e-17
3.390532476e-18
2.173927791e-19
2.959935413e-19
1.118273222e-18
2.196607113e-18
2.626219794e-18
1.419013546e-18
2.807198778e-19
2.563682314e-19
7.862564747e-19
7.383417174e-19
6.643638821e-19
7.986543272e-19
8.06252957e-19
9.025471796e-19
5.251610658e-19
6.844113633e-19
9.812160431e-19
1.447469503e-18
2.116003172e-18
3.053678586e-18
4.601072357e-18
8.496992556e-18
3.020010435e-17
2.318046411e-18
1.328764748e-17
2.88378702e-16
8.469210604e-17
2.354440622e-18
1.923257594e-18
7.690791631e-19
1.298446949e-19
1.850599465e-19
5.866346406e-19
1.065506206e-18
1.194674939e-18
7.751840415e-19
3.486073861e-19
2.665211122e-19
2.635517405e-19
1.416924258e-19
6.368655077e-20
6.365291544e-20
1.163485525e-19
2.0065332e-19
9.032181654e-20
2.441516174e-19
5.302960985e-19
9.925948526e-19
1.69802201e-18
2.789871202e-18
4.559924304e-18
6.867243187e-18
1.025651472e-17
9.121753555e-18
2.316681853e-16
3.625516525e-16
7.239548034e-17
7.182798934e-18
2.287669707e-18
8.042905265e-19
3.35487245e-19
3.134179363e-19
5.126723594e-19
7.776550281e-19
8.428506362e-19
6.217207927e-19
3.729128054e-19
2.46349172e-19
1.473665488e-19
4.194826343e-20
3.978475517e-21
3.143670033e-21
2.679562854e-20
8.200651248e-20
)
;

boundaryField
{
    lowerWall
    {
        type            calculated;
        value           nonuniform 0();
    }
    atmosphere
    {
        type            calculated;
        value           nonuniform List<scalar> 
20
(
2.953655389e-20
2.943370105e-20
2.50552776e-20
1.812935967e-20
1.153823472e-20
8.357841564e-21
1.16657825e-20
2.544162777e-20
5.588103752e-20
1.120217702e-19
2.05321163e-19
3.438928954e-19
4.758788414e-19
5.075699172e-19
2.170041944e-18
1.934184085e-18
1.61403448e-18
1.084894007e-18
5.203564779e-19
8.558557156e-20
)
;
    }
    rightWall
    {
        type            empty;
    }
    leftWall
    {
        type            empty;
    }
    frontAndBack
    {
        type            calculated;
        value           nonuniform List<scalar> 
30
(
3.226171378e-20
1.865072268e-19
4.759806925e-19
9.491701501e-19
1.687382164e-18
2.874733981e-18
4.89233524e-18
7.591973621e-18
1.062945209e-17
1.643851806e-18
1.854484292e-16
4.21810055e-16
6.663977942e-17
7.602285875e-18
2.288149591e-18
8.296634277e-19
3.689048944e-19
3.348971274e-19
5.103153581e-19
7.463197747e-19
8.02787604e-19
6.080931385e-19
3.786850151e-19
2.432508326e-19
1.355269976e-19
3.621255662e-20
1.655927187e-21
9.135173261e-22
2.208607835e-20
7.047828576e-20
)
;
    }
    procBoundary4to2
    {
        type            processor;
        value           nonuniform List<scalar> 
30
(
3.324862409e-20
6.500776891e-20
1.219952217e-19
2.229179333e-19
4.012125611e-19
7.138944149e-19
1.25385958e-18
2.158831774e-18
3.597637938e-18
5.684743709e-18
8.227429157e-18
1.024127718e-17
9.81499636e-18
8.410116855e-18
3.238865848e-17
7.502743994e-17
6.06760837e-17
2.354784731e-17
1.104799214e-16
4.082888834e-16
8.169461845e-17
3.318550238e-17
1.095959345e-17
2.470046639e-17
5.321486848e-17
5.008308896e-16
4.016345636e-16
1.076302836e-17
5.877434504e-18
5.778604474e-20
)
;
    }
    procBoundary4to5
    {
        type            processor;
        value           nonuniform List<scalar> 
20
(
4.924800522e-16
1.072660575e-16
3.368760197e-17
1.354341155e-17
1.23848171e-18
1.086229597e-18
1.242172273e-17
2.879477758e-17
9.502747708e-17
3.776110243e-16
6.212181763e-17
5.321558859e-16
2.253037887e-16
2.407102078e-16
1.836197488e-16
1.450439441e-17
2.047101571e-18
4.575011593e-19
1.471096787e-19
7.658866115e-20
)
;
    }
}


// ************************************************************************* //
