/*--------------------------------*- C++ -*----------------------------------*\
  =========                 |
  \\      /  F ield         | OpenFOAM: The Open Source CFD Toolbox
   \\    /   O peration     | Website:  https://openfoam.org
    \\  /    A nd           | Version:  6
     \\/     M anipulation  |
\*---------------------------------------------------------------------------*/
FoamFile
{
    version     2.0;
    format      ascii;
    class       volVectorField;
    location    "0.0032";
    object      U;
}
// * * * * * * * * * * * * * * * * * * * * * * * * * * * * * * * * * * * * * //

dimensions      [0 1 -1 0 0 0 0];

internalField   nonuniform List<vector> 
600
(
(0 -1.101944753e-10 1.160230339e-11)
(0 -1.113468967e-10 1.391796996e-11)
(0 -1.137092931e-10 1.833198163e-11)
(0 -1.175139887e-10 2.500122049e-11)
(0 -1.232081597e-10 3.441674296e-11)
(0 -1.314158532e-10 4.737727601e-11)
(0 -1.429681042e-10 6.49393144e-11)
(0 -1.589074002e-10 8.8295743e-11)
(0 -1.804540554e-10 1.184896394e-10)
(0 -2.089020515e-10 1.558208903e-10)
(0 -2.453300979e-10 1.986601249e-10)
(0 -2.8966447e-10 2.411785895e-10)
(0 -3.375518919e-10 2.693211572e-10)
(0 -3.690132364e-10 2.552528633e-10)
(0 -3.309524849e-10 1.660432358e-10)
(0 -2.54305408e-12 3.269138914e-24)
(0 2.241148301e-12 1.833293399e-11)
(0 1.083567008e-11 5.329885171e-12)
(0 1.190241286e-11 -1.010065958e-12)
(0 9.411581253e-12 -7.118903761e-12)
(0 5.28087585e-12 -8.034605212e-12)
(0 2.054810405e-12 -7.594420887e-12)
(0 -3.989762394e-13 -6.641867818e-12)
(0 -2.603970875e-12 -5.748592355e-12)
(0 -4.858379773e-12 -4.084234735e-12)
(0 -6.53602468e-12 -7.820444718e-13)
(0 -3.617487102e-12 7.078119098e-12)
(0 8.284409078e-12 1.095704184e-11)
(0 3.260728952e-11 1.051627133e-12)
(0 -2.307395969e-12 -2.557737111e-11)
(0 -1.038327128e-10 1.245987408e-11)
(0 -1.043936859e-10 1.480294611e-11)
(0 -1.05412295e-10 1.924692356e-11)
(0 -1.068655975e-10 2.592089161e-11)
(0 -1.088132408e-10 3.529809822e-11)
(0 -1.113390432e-10 4.818000152e-11)
(0 -1.145670491e-10 6.566587716e-11)
(0 -1.186806736e-10 8.905450487e-11)
(0 -1.239761866e-10 1.196070178e-10)
(0 -1.310405701e-10 1.580519086e-10)
(0 -1.413115787e-10 2.036431236e-10)
(0 -1.586411692e-10 2.523765679e-10)
(0 -1.934113478e-10 2.935886926e-10)
(0 -2.63578531e-10 3.022154602e-10)
(0 -4.2431958e-10 2.489925847e-10)
(0 -6.542452966e-12 -9.648857949e-12)
(0 -5.230010594e-12 3.148971038e-12)
(0 4.927122648e-12 1.757397235e-12)
(0 7.456603444e-12 -1.041261343e-12)
(0 6.720615385e-12 -3.868586488e-12)
(0 4.59229993e-12 -5.030011545e-12)
(0 2.365863676e-12 -5.146353815e-12)
(0 3.992279049e-13 -4.666707203e-12)
(0 -1.299697918e-12 -3.81744995e-12)
(0 -2.66207509e-12 -2.394487757e-12)
(0 -3.252297059e-12 -1.96062605e-13)
(0 -2.240148652e-12 2.570687089e-12)
(0 -9.417293723e-13 2.27162102e-12)
(0 -9.46958816e-12 -6.055782174e-12)
(0 -9.780932345e-12 1.675967765e-11)
(0 -9.763343187e-11 1.237187888e-11)
(0 -9.769933784e-11 1.438554904e-11)
(0 -9.757990308e-11 1.814326589e-11)
(0 -9.700990482e-11 2.366720347e-11)
(0 -9.567384399e-11 3.126779525e-11)
(0 -9.312168378e-11 4.154779315e-11)
(0 -8.875579825e-11 5.539295729e-11)
(0 -8.181834761e-11 7.389865706e-11)
(0 -7.138075684e-11 9.816153874e-11)
(0 -5.630977269e-11 1.288189619e-10)
(0 -3.51455516e-11 1.6515919e-10)
(0 -5.729696653e-12 2.033522255e-10)
(0 3.361847532e-11 2.318946692e-10)
(0 9.756578414e-11 2.110556171e-10)
(0 1.522652938e-11 1.382429048e-24)
(0 2.073052842e-11 -9.575451751e-12)
(0 8.896627612e-12 -2.595703197e-12)
(0 6.645437707e-12 -4.070897565e-13)
(0 6.276429142e-12 -1.041543712e-12)
(0 5.42283105e-12 -2.282771074e-12)
(0 4.003108522e-12 -3.07046012e-12)
(0 2.418114747e-12 -3.295000444e-12)
(0 9.299276262e-13 -3.061855366e-12)
(0 -3.317514298e-13 -2.459537068e-12)
(0 -1.236992428e-12 -1.481868902e-12)
(0 -1.570849832e-12 -1.802645252e-13)
(0 -1.149803475e-12 1.126085352e-12)
(0 -3.420601851e-13 1.613538612e-12)
(0 6.103469197e-13 2.1802943e-12)
(0 4.341001806e-12 5.105732781e-12)
(0 -9.227341186e-11 1.165786734e-11)
(0 -9.207509032e-11 1.306792891e-11)
(0 -9.132434556e-11 1.557936405e-11)
(0 -8.95749526e-11 1.902935678e-11)
(0 -8.62231448e-11 2.343151096e-11)
(0 -8.040603624e-11 2.900806213e-11)
(0 -7.097977385e-11 3.620879856e-11)
(0 -5.652988156e-11 4.56706903e-11)
(0 -3.544256426e-11 5.802363035e-11)
(0 -6.028370809e-12 7.335385756e-11)
(0 3.343695295e-11 8.999971226e-11)
(0 8.529984111e-11 1.023028083e-10)
(0 1.517728884e-10 9.768192189e-11)
(0 2.586657996e-10 6.129101072e-11)
(0 1.054915973e-11 -2.593419349e-24)
(0 1.573723116e-11 5.507341394e-12)
(0 8.689127244e-12 1.201195441e-12)
(0 6.481282133e-12 2.516946371e-13)
(0 5.580922126e-12 -4.34765996e-13)
(0 4.691698977e-12 -1.15034216e-12)
(0 3.580070559e-12 -1.67423766e-12)
(0 2.374468431e-12 -1.901751564e-12)
(0 1.234691281e-12 -1.826504075e-12)
(0 2.802885456e-13 -1.476846845e-12)
(0 -3.828025469e-13 -8.931278626e-13)
(0 -6.443428035e-13 -1.695397481e-13)
(0 -4.463455144e-13 5.004474075e-13)
(0 1.124795754e-13 8.763359517e-13)
(0 9.670227745e-13 1.113385859e-12)
(0 2.259194497e-12 1.151298921e-12)
(0 -8.813314331e-11 1.083933473e-11)
(0 -8.800304651e-11 1.152363015e-11)
(0 -8.735588879e-11 1.252098948e-11)
(0 -8.566259415e-11 1.341649409e-11)
(0 -8.21701896e-11 1.382524721e-11)
(0 -7.579060742e-11 1.34634346e-11)
(0 -6.508589306e-11 1.22256965e-11)
(0 -4.835261693e-11 1.025764184e-11)
(0 -2.395510936e-11 7.976101019e-12)
(0 8.80327999e-12 5.910973021e-12)
(0 4.772697688e-11 4.118992347e-12)
(0 8.378475676e-11 8.8566575e-13)
(0 9.487774693e-11 -8.668720562e-12)
(0 3.558001845e-11 -2.293513847e-11)
(0 -4.141516556e-12 -1.231901581e-24)
(0 -2.943663478e-12 5.527865765e-12)
(0 3.640980855e-12 1.641257749e-12)
(0 5.00947627e-12 6.474779316e-13)
(0 4.874392345e-12 2.013001924e-13)
(0 4.183359387e-12 -2.094803124e-13)
(0 3.251699119e-12 -5.744724202e-13)
(0 2.265848331e-12 -8.115451062e-13)
(0 1.354832345e-12 -8.658345211e-13)
(0 6.016247824e-13 -7.282385897e-13)
(0 7.031466842e-14 -4.442820505e-13)
(0 -1.772745622e-13 -1.052890501e-13)
(0 -1.039277756e-13 1.68883727e-13)
(0 2.708782656e-13 2.777427031e-13)
(0 8.853098891e-13 2.454852538e-13)
(0 1.540643345e-12 7.292136414e-14)
(0 -8.51631432e-11 1.053968459e-11)
(0 -8.548143446e-11 1.05753591e-11)
(0 -8.578274636e-11 1.017466784e-11)
(0 -8.557348743e-11 8.618674102e-12)
(0 -8.411436215e-11 5.057945353e-12)
(0 -8.029044933e-11 -1.377807007e-12)
(0 -7.256272618e-11 -1.143176047e-11)
(0 -5.900754979e-11 -2.548057678e-11)
(0 -3.760139014e-11 -4.313565677e-11)
(0 -7.058776581e-12 -6.259273696e-11)
(0 3.119530733e-11 -7.961209976e-11)
(0 6.893628482e-11 -8.615460527e-11)
(0 8.454338336e-11 -6.987977199e-11)
(0 3.221404004e-11 -2.668969041e-11)
(0 -4.047585987e-12 2.084308444e-24)
(0 -2.746122572e-12 -5.161788476e-12)
(0 3.808739412e-12 -8.113901373e-13)
(0 5.041324578e-12 4.958339601e-13)
(0 4.723963882e-12 8.02247558e-13)
(0 3.915926363e-12 6.858532999e-13)
(0 2.978005765e-12 3.974568971e-13)
(0 2.083106329e-12 9.576159501e-14)
(0 1.317997798e-12 -9.722411981e-14)
(0 7.018410163e-13 -1.26054956e-13)
(0 2.40146993e-13 -5.052190396e-14)
(0 -3.117702555e-14 2.358106446e-14)
(0 -6.33137611e-14 2.269271837e-15)
(0 1.890811018e-13 -1.80275136e-13)
(0 7.622014352e-13 -4.825594955e-13)
(0 1.469696784e-12 -5.614051891e-13)
(0 -8.281918483e-11 1.134779272e-11)
(0 -8.394842106e-11 1.102853447e-11)
(0 -8.601049567e-11 9.763604717e-12)
(0 -8.867252387e-11 6.495532077e-12)
(0 -9.138654777e-11 -1.174702615e-13)
(0 -9.323623274e-11 -1.157824869e-11)
(0 -9.281703537e-11 -2.937495531e-11)
(0 -8.811240257e-11 -5.465440938e-11)
(0 -7.641422717e-11 -8.761086556e-11)
(0 -5.43285614e-11 -1.264019056e-10)
(0 -1.783791232e-11 -1.653423474e-10)
(0 3.793891975e-11 -1.922213191e-10)
(0 1.169808429e-10 -1.855674502e-10)
(0 2.448142204e-10 -1.209739688e-10)
(0 1.082130646e-11 3.386303012e-24)
(0 1.636955787e-11 -5.238705238e-12)
(0 9.298603279e-12 -2.205371378e-13)
(0 6.623113961e-12 1.345558967e-12)
(0 5.064411684e-12 1.826523969e-12)
(0 3.778568725e-12 1.753600353e-12)
(0 2.661607414e-12 1.382912246e-12)
(0 1.771167314e-12 8.944128075e-13)
(0 1.133015795e-12 5.071870968e-13)
(0 6.483269986e-13 3.717064314e-13)
(0 2.199506894e-13 3.444874948e-13)
(0 -1.244833857e-13 2.474073967e-13)
(0 -3.077839753e-13 -3.897427451e-15)
(0 -2.139505009e-13 -5.194161357e-13)
(0 5.041798362e-13 -1.434920436e-12)
(0 2.026049445e-12 -1.839159113e-12)
(0 -8.008395255e-11 1.366133867e-11)
(0 -8.23011672e-11 1.348236536e-11)
(0 -8.67536745e-11 1.227501377e-11)
(0 -9.338262201e-11 8.630468694e-12)
(0 -1.02008015e-10 7.415368129e-13)
(0 -1.121726439e-10 -1.349717944e-11)
(0 -1.229769449e-10 -3.634921485e-11)
(0 -1.328478774e-10 -6.993774891e-11)
(0 -1.392643855e-10 -1.15645313e-10)
(0 -1.384786554e-10 -1.730394615e-10)
(0 -1.253219579e-10 -2.381196729e-10)
(0 -9.32347331e-11 -3.004906734e-10)
(0 -3.676343745e-11 -3.376713892e-10)
(0 5.937788644e-11 -2.930659844e-10)
(0 1.558909611e-11 -1.477107152e-24)
(0 2.190872761e-11 9.303304977e-12)
(0 1.03930036e-11 3.823334141e-12)
(0 7.088385679e-12 3.280674208e-12)
(0 5.132005266e-12 3.405234103e-12)
(0 3.472314641e-12 3.119645874e-12)
(0 2.118818222e-12 2.486535562e-12)
(0 1.207381182e-12 1.591959047e-12)
(0 7.952914228e-13 8.598914675e-13)
(0 5.391414147e-13 7.611344876e-13)
(0 1.158479586e-13 8.089787815e-13)
(0 -3.79561947e-13 6.247034487e-13)
(0 -8.301372915e-13 2.533075277e-13)
(0 -1.241941903e-12 -4.596896358e-13)
(0 -5.575415387e-13 -2.898700156e-12)
(0 3.91037572e-12 -6.366763778e-12)
(0 -7.557961845e-11 1.752885064e-11)
(0 -7.902010977e-11 1.814334571e-11)
(0 -8.617632411e-11 1.820812713e-11)
(0 -9.733274286e-11 1.596826333e-11)
(0 -1.12805669e-10 9.245261833e-12)
(0 -1.328123482e-10 -4.521717939e-12)
(0 -1.572986176e-10 -2.821777356e-11)
(0 -1.85671101e-10 -6.483601813e-11)
(0 -2.16472421e-10 -1.169315522e-10)
(0 -2.471381519e-10 -1.85510211e-10)
(0 -2.742469866e-10 -2.680338089e-10)
(0 -2.951885642e-10 -3.551095253e-10)
(0 -3.13148443e-10 -4.253236696e-10)
(0 -3.404435086e-10 -4.364198261e-10)
(0 -4.265517704e-10 -3.39043412e-10)
(0 -4.682495231e-12 9.286291171e-12)
(0 -1.474803298e-12 -1.821225039e-12)
(0 6.205013917e-12 4.54877304e-12)
(0 4.903383348e-12 5.394092221e-12)
(0 2.859870182e-12 4.833475746e-12)
(0 1.133920584e-12 3.851884575e-12)
(0 1.445232163e-13 2.127136951e-12)
(0 3.021912332e-13 5.793528999e-13)
(0 5.974143132e-13 1.003813237e-12)
(0 8.351965057e-14 1.505231266e-12)
(0 -6.801546405e-13 1.188775875e-12)
(0 -1.392177061e-12 8.512347703e-13)
(0 -3.365958193e-12 1.326602736e-12)
(0 -1.234731122e-11 3.610432045e-12)
(0 -1.028669306e-11 -1.940631654e-11)
(0 -6.77615498e-11 2.250854972e-11)
(0 -7.239782135e-11 2.467505956e-11)
(0 -8.217791225e-11 2.737276922e-11)
(0 -9.77184983e-11 2.850181302e-11)
(0 -1.198645404e-10 2.566469717e-11)
(0 -1.495930965e-10 1.609623332e-11)
(0 -1.878407768e-10 -3.404669129e-12)
(0 -2.351891159e-10 -3.638810804e-11)
(0 -2.913734768e-10 -8.631948716e-11)
(0 -3.545955372e-10 -1.554694444e-10)
(0 -4.206894618e-10 -2.425793662e-10)
(0 -4.82137613e-10 -3.385514331e-10)
(0 -5.259952608e-10 -4.19622524e-10)
(0 -5.24780215e-10 -4.385835684e-10)
(0 -4.194108923e-10 -3.265892758e-10)
(0 -3.710881448e-14 -1.925161135e-24)
(0 1.040626134e-11 -2.019289179e-11)
(0 1.430370291e-11 1.134113311e-11)
(0 5.416707969e-12 8.788567294e-12)
(0 1.930106994e-12 6.968260858e-12)
(0 -5.87520573e-13 5.9604504e-12)
(0 -2.065150492e-12 2.485424096e-12)
(0 -3.28032293e-13 -1.673397645e-12)
(0 1.465019778e-12 1.169533183e-12)
(0 3.008105962e-13 3.01943408e-12)
(0 -1.033558443e-12 1.773515003e-12)
(0 -6.923104358e-13 6.36586604e-13)
(0 1.517255349e-12 1.30479121e-12)
(0 2.519453865e-11 -1.106477378e-11)
(0 -1.741159849e-12 2.014171009e-11)
(0 -5.51528067e-11 2.755419729e-11)
(0 -6.085379229e-11 3.212848141e-11)
(0 -7.280754101e-11 3.880922559e-11)
(0 -9.18546701e-11 4.51183067e-11)
(0 -1.19297924e-10 4.863987154e-11)
(0 -1.568099818e-10 4.672222898e-11)
(0 -2.062605706e-10 3.623319133e-11)
(0 -2.693822186e-10 1.34537935e-11)
(0 -3.471339084e-10 -2.576975891e-11)
(0 -4.385442463e-10 -8.531416734e-11)
(0 -5.388403471e-10 -1.669018799e-10)
(0 -6.369090269e-10 -2.663018598e-10)
(0 -7.121131827e-10 -3.680902955e-10)
(0 -7.283707164e-10 -4.433992221e-10)
(0 -6.191627403e-10 -4.636910564e-10)
(0 -2.090013126e-10 -3.899455065e-10)
(0 3.474171651e-11 -1.533672652e-11)
(0 3.518647269e-11 5.221983597e-11)
(0 5.305111053e-13 1.145110874e-11)
(0 3.175329397e-14 8.290794404e-12)
(0 -3.348916165e-12 1.053636337e-11)
(0 -7.489324809e-12 3.527604527e-12)
(0 -1.013699677e-12 -1.092779449e-11)
(0 5.290246027e-12 2.328459479e-12)
(0 6.875014673e-13 7.629468953e-12)
(0 -3.063002111e-12 2.249039479e-12)
(0 -1.860900854e-12 -1.382302376e-12)
(0 -2.349673668e-11 2.274979286e-11)
(0 -3.851039104e-11 -1.656527584e-11)
(0 -1.113003673e-11 4.980453311e-11)
(0 -3.653180415e-11 3.089017788e-11)
(0 -4.332368908e-11 3.900411016e-11)
(0 -5.676077366e-11 5.089565461e-11)
(0 -7.78154698e-11 6.368767308e-11)
(0 -1.081361043e-10 7.523136425e-11)
(0 -1.49890252e-10 8.333647649e-11)
(0 -2.056065471e-10 8.535098838e-11)
(0 -2.779160016e-10 7.786705749e-11)
(0 -3.689624393e-10 5.648378301e-11)
(0 -4.79074685e-10 1.578213211e-11)
(0 -6.042990348e-10 -4.974200275e-11)
(0 -7.336455876e-10 -1.419258417e-10)
(0 -8.504592537e-10 -2.509585747e-10)
(0 -9.502208042e-10 -3.473391922e-10)
(0 -1.063812351e-09 -4.198620603e-10)
(0 -1.210347079e-09 -5.411445828e-10)
(0 -1.612087376e-09 -6.455381826e-10)
(0 -1.560365391e-11 4.325821582e-11)
(0 -2.088623574e-11 1.48901506e-12)
(0 -2.663281058e-12 5.290051201e-13)
(0 -5.350710449e-12 2.436674083e-11)
(0 -2.352930841e-11 1.201654648e-11)
(0 -1.527177342e-12 -4.789367818e-11)
(0 2.002228328e-11 1.144276955e-11)
(0 2.213905888e-13 2.292088709e-11)
(0 -6.366687111e-12 -2.702535587e-12)
(0 2.182337165e-12 -6.181284231e-12)
(0 2.780251441e-12 2.290333213e-11)
(0 5.246993208e-10 -5.449446225e-10)
(0 2.373761388e-11 1.523358698e-11)
(0 -1.084840277e-11 3.000650233e-11)
(0 -1.983908565e-11 4.364430237e-11)
(0 -3.391000094e-11 6.170281829e-11)
(0 -5.502072311e-11 8.141665743e-11)
(0 -8.514285364e-11 1.013438527e-10)
(0 -1.266151758e-10 1.200509532e-10)
(0 -1.820852625e-10 1.356831168e-10)
(0 -2.544338878e-10 1.456378933e-10)
(0 -3.464784616e-10 1.460014744e-10)
(0 -4.597912459e-10 1.304883674e-10)
(0 -5.910737886e-10 8.934784895e-11)
(0 -7.252843313e-10 1.223873316e-11)
(0 -8.299764547e-10 -9.600796858e-11)
(0 -8.94088509e-10 -1.657851021e-10)
(0 -9.819173239e-10 -1.189909273e-10)
(0 -1.020899262e-09 -1.544781457e-10)
(0 -1.07120984e-09 -1.749122657e-10)
(0 -2.001970403e-11 1.979570099e-12)
(0 -4.944798911e-11 5.761499503e-13)
(0 -5.539532601e-11 -1.083391072e-11)
(0 -3.556567485e-12 -1.342130923e-11)
(0 6.148603022e-11 2.940996794e-12)
(0 -1.587476608e-12 2.254213552e-12)
(0 -6.513096274e-11 3.29086042e-12)
(0 -1.762611003e-12 -1.24924209e-11)
(0 4.613963161e-11 -8.601769527e-12)
(0 3.099424843e-11 6.315119696e-12)
(0 7.55993518e-12 1.84817434e-11)
(0 -7.155090746e-11 -4.260580422e-10)
(0 9.179947034e-12 -1.168889675e-11)
(0 1.454966241e-11 1.828689718e-11)
(0 6.627810787e-12 4.439633276e-11)
(0 -5.810418292e-12 6.939616439e-11)
(0 -2.45417384e-11 9.53734698e-11)
(0 -5.131470111e-11 1.224946258e-10)
(0 -8.806022535e-11 1.502006647e-10)
(0 -1.367403747e-10 1.774374927e-10)
(0 -1.993493676e-10 2.02643536e-10)
(0 -2.781712422e-10 2.232740122e-10)
(0 -3.758116003e-10 2.337956327e-10)
(0 -4.915296212e-10 2.202791043e-10)
(0 -6.070281246e-10 1.549640678e-10)
(0 -6.449857915e-10 4.828001588e-12)
(0 -5.48772557e-10 -9.85646695e-11)
(0 -4.482787934e-10 9.796765011e-11)
(0 4.516063354e-24 -5.837556395e-13)
(0 4.47808264e-12 -2.686724821e-12)
(0 9.847883038e-12 3.066716404e-12)
(0 1.574618783e-11 4.977677446e-12)
(0 1.883770774e-11 -1.237994385e-11)
(0 -3.270996218e-12 -4.160505403e-11)
(0 -2.797839697e-11 -9.210046941e-12)
(0 -1.177313717e-12 5.067866208e-11)
(0 2.540026017e-11 -8.165856903e-12)
(0 2.395391738e-14 -3.90256922e-11)
(0 -2.305759451e-11 -6.887728715e-12)
(0 -2.018006219e-11 1.686961348e-11)
(0 -8.285643724e-12 3.038912657e-11)
(0 -1.254453324e-11 -4.989892956e-12)
(0 -2.509570875e-11 -2.166001656e-11)
(0 3.896298633e-11 1.58913816e-11)
(0 3.48833223e-11 4.476885389e-11)
(0 2.596284131e-11 7.333266757e-11)
(0 1.149987375e-11 1.0319514e-10)
(0 -9.694307054e-12 1.348494567e-10)
(0 -3.878885376e-11 1.679961051e-10)
(0 -7.637482904e-11 2.017470232e-10)
(0 -1.220673207e-10 2.349922401e-10)
(0 -1.750744384e-10 2.668869637e-10)
(0 -2.372329682e-10 2.959134432e-10)
(0 -3.154480381e-10 3.104176626e-10)
(0 -4.130714577e-10 2.643363022e-10)
(0 -3.67451524e-10 2.423259998e-12)
(0 -8.960271768e-11 -3.417136985e-10)
(0 1.47900796e-11 5.819293303e-12)
(0 2.218866186e-11 6.223568101e-12)
(0 1.089976023e-11 -1.476468108e-12)
(0 7.769309424e-12 1.406946355e-12)
(0 9.426642348e-12 -9.195114046e-13)
(0 8.146552822e-12 -8.294317493e-12)
(0 -3.866711758e-13 -1.50485598e-11)
(0 -7.590639022e-12 -3.854833571e-12)
(0 -5.432865684e-13 1.147590162e-11)
(0 6.525068333e-12 -2.607457983e-12)
(0 -4.844822076e-13 -1.219653016e-11)
(0 -8.089673007e-12 -3.028979669e-12)
(0 -6.050195862e-12 8.094266294e-12)
(0 5.825040595e-12 1.539423152e-11)
(0 1.057696227e-11 -6.312434262e-12)
(0 2.971019275e-13 -1.333097175e-11)
(0 6.720442033e-11 1.456454908e-11)
(0 6.530241228e-11 4.316249979e-11)
(0 5.998199952e-11 7.235529863e-11)
(0 5.039498061e-11 1.032272685e-10)
(0 3.541601527e-11 1.361252052e-10)
(0 1.419317016e-11 1.703729817e-10)
(0 -1.27568249e-11 2.0408824e-10)
(0 -4.183924246e-11 2.345000172e-10)
(0 -6.503603721e-11 2.598097261e-10)
(0 -7.464232833e-11 2.838120193e-10)
(0 -7.916070668e-11 3.136949019e-10)
(0 -1.767350613e-10 3.517477069e-10)
(0 3.135210109e-24 -3.396300838e-12)
(0 -1.430531776e-11 -5.886717573e-12)
(0 -1.865181875e-11 1.679648906e-12)
(0 -2.544985743e-12 7.466460109e-12)
(0 4.412236551e-12 1.610900642e-12)
(0 5.654063944e-12 2.067222022e-13)
(0 6.044923961e-12 -1.768279778e-12)
(0 4.708659303e-12 -4.8293304e-12)
(0 1.168487707e-12 -6.440096248e-12)
(0 -1.453935471e-12 -2.63669369e-12)
(0 7.006187325e-14 1.687136855e-12)
(0 1.727828313e-12 -1.543462128e-12)
(0 -3.975677638e-13 -4.124102946e-12)
(0 -2.766797994e-12 -1.126082668e-12)
(0 -1.756850949e-12 3.141985747e-12)
(0 2.183043038e-12 4.530081138e-12)
(0 3.730261999e-12 -1.749813444e-12)
(0 7.167934694e-13 -4.602441552e-12)
(0 9.542367023e-11 1.286552603e-11)
(0 9.556031615e-11 3.877404516e-11)
(0 9.383234068e-11 6.57898269e-11)
(0 8.91458541e-11 9.477479204e-11)
(0 7.989665544e-11 1.259092002e-10)
(0 6.43433472e-11 1.580106553e-10)
(0 4.18314496e-11 1.87487657e-10)
(0 1.61112725e-11 2.070100357e-10)
(0 2.928447601e-12 2.051301585e-10)
(0 3.657253034e-11 1.727967452e-10)
(0 1.894350553e-10 1.086354113e-10)
(0 1.197753473e-11 1.07671312e-11)
(0 1.898866984e-11 -1.826290591e-12)
(0 9.826725433e-12 -7.578034242e-12)
(0 3.267870091e-12 -5.916199791e-12)
(0 1.995302571e-12 2.27265317e-13)
(0 3.640022337e-12 2.470315935e-13)
(0 4.390129014e-12 -4.224387597e-13)
(0 4.390589758e-12 -1.530992523e-12)
(0 3.474736363e-12 -2.814648971e-12)
(0 1.805965527e-12 -3.24588439e-12)
(0 5.365940599e-13 -1.939029198e-12)
(0 5.499449905e-13 -5.473216244e-13)
(0 7.138285475e-13 -1.129490389e-12)
(0 -6.710274658e-14 -1.630368276e-12)
(0 -8.235843308e-13 -4.93221531e-13)
(0 -3.940320691e-13 1.069526279e-12)
(0 9.332414137e-13 1.334130721e-12)
(0 1.444439605e-12 -6.142532053e-13)
(0 4.72217461e-13 -1.753923699e-12)
(0 1.208860306e-10 1.026391347e-11)
(0 1.23072964e-10 3.116425367e-11)
(0 1.249282649e-10 5.335131981e-11)
(0 1.251781084e-10 7.769678954e-11)
(0 1.214776788e-10 1.046327021e-10)
(0 1.099910765e-10 1.335093724e-10)
(0 8.491411094e-11 1.611997782e-10)
(0 3.89962289e-11 1.792146992e-10)
(0 -2.925857416e-11 1.687743388e-10)
(0 -1.040544731e-10 1.090864918e-10)
(0 -4.606704174e-12 -1.587377922e-24)
(0 -1.826290466e-12 1.414714766e-11)
(0 6.530221883e-12 2.170593792e-12)
(0 6.480159775e-12 -2.36337364e-12)
(0 4.527315715e-12 -2.619973951e-12)
(0 3.618245638e-12 -8.883706966e-13)
(0 3.762532477e-12 -4.274906289e-13)
(0 3.876039829e-12 -6.124803909e-13)
(0 3.65271375e-12 -1.118639995e-12)
(0 2.993767435e-12 -1.652466659e-12)
(0 2.044107478e-12 -1.789815552e-12)
(0 1.244627293e-12 -1.326293195e-12)
(0 8.796006824e-13 -8.07979588e-13)
(0 6.447816635e-13 -7.968519489e-13)
(0 2.387010955e-13 -7.745962273e-13)
(0 -6.690343955e-14 -2.858398e-13)
(0 7.050130229e-14 2.953424823e-13)
(0 4.992635537e-13 3.513940813e-13)
(0 6.422075794e-13 -2.870323522e-13)
(0 2.702007424e-13 -7.380124472e-13)
(0 1.412276368e-10 6.681137257e-12)
(0 1.452981467e-10 2.038089804e-11)
(0 1.505794933e-10 3.518063959e-11)
(0 1.560045215e-10 5.193276493e-11)
(0 1.592852421e-10 7.154636166e-11)
(0 1.559403304e-10 9.501093406e-11)
(0 1.368757779e-10 1.233492546e-10)
(0 8.276975547e-11 1.57082775e-10)
(0 -3.773185943e-11 1.913128615e-10)
(0 -3.123301541e-10 2.276177106e-10)
(0 -1.07282394e-11 -6.02581478e-12)
(0 -1.07272586e-11 -3.96920006e-12)
(0 2.478148461e-12 -1.275100201e-12)
(0 5.036157677e-12 -1.426172905e-12)
(0 4.742873041e-12 -1.312063029e-12)
(0 4.1877859e-12 -7.334188252e-13)
(0 3.915912643e-12 -4.562057777e-13)
(0 3.698979647e-12 -4.814569894e-13)
(0 3.350603487e-12 -6.786842255e-13)
(0 2.803560803e-12 -8.868668204e-13)
(0 2.132138992e-12 -9.346556286e-13)
(0 1.518430027e-12 -7.684177616e-13)
(0 1.079386238e-12 -5.614553517e-13)
(0 7.472119076e-13 -4.753337615e-13)
(0 4.439094035e-13 -3.851938572e-13)
(0 2.463543822e-13 -1.707314712e-13)
(0 2.432018141e-13 4.655367966e-14)
(0 3.508665772e-13 6.34266908e-14)
(0 3.55033073e-13 -1.469534129e-13)
(0 1.654039217e-13 -3.170723447e-13)
(0 1.544226313e-10 2.314812232e-12)
(0 1.59810554e-10 7.078360895e-12)
(0 1.676715552e-10 1.227949572e-11)
(0 1.775108929e-10 1.829360239e-11)
(0 1.883074389e-10 2.563191201e-11)
(0 1.985609868e-10 3.511476919e-11)
(0 2.063004817e-10 4.810273358e-11)
(0 2.069331318e-10 6.576385036e-11)
(0 2.164873346e-10 7.718663413e-11)
(0 1.884957309e-11 2.563490457e-24)
(0 3.167331879e-11 -6.02581478e-12)
(0 1.829825926e-11 -7.349216522e-12)
(0 9.073249031e-12 -1.875683746e-12)
(0 6.443196947e-12 -7.541159335e-13)
(0 5.220069793e-12 -4.686444721e-13)
(0 4.474102888e-12 -2.769191802e-13)
(0 4.014494312e-12 -1.823274833e-13)
(0 3.653561381e-12 -1.783375105e-13)
(0 3.24730392e-12 -2.277457487e-13)
(0 2.737796033e-12 -2.816370777e-13)
(0 2.162556537e-12 -2.93510519e-13)
(0 1.617827569e-12 -2.512195325e-13)
(0 1.172684682e-12 -1.941129767e-13)
(0 8.210431575e-13 -1.579210881e-13)
(0 5.433033851e-13 -1.202817266e-13)
(0 3.648440963e-13 -5.852710627e-14)
(0 3.046594637e-13 -1.792012155e-15)
(0 3.057564615e-13 2.93054344e-15)
(0 2.617085447e-13 -4.6902128e-14)
(0 1.243973876e-13 -9.0393985e-14)
)
;

boundaryField
{
    lowerWall
    {
        type            slip;
    }
    atmosphere
    {
        type            pressureInletOutletVelocity;
        tangentialVelocity uniform (0 0 0);
        value           nonuniform List<vector> 
20
(
(0 -1.101944753e-10 1.160230339e-11)
(0 -1.038327128e-10 1.245987408e-11)
(0 -9.763343187e-11 1.237187888e-11)
(0 -9.227341186e-11 1.165786734e-11)
(0 -8.813314331e-11 1.083933473e-11)
(0 -8.51631432e-11 1.053968459e-11)
(0 -8.281918483e-11 1.134779272e-11)
(0 -8.008395255e-11 1.366133867e-11)
(0 -7.557961845e-11 1.752885064e-11)
(0 -6.77615498e-11 2.250854972e-11)
(0 -5.51528067e-11 2.755419729e-11)
(0 -3.653180415e-11 3.089017788e-11)
(0 -1.084840277e-11 3.000650233e-11)
(0 1.454966241e-11 0)
(0 3.896298633e-11 0)
(0 6.720442033e-11 0)
(0 9.542367023e-11 0)
(0 1.208860306e-10 0)
(0 1.412276368e-10 0)
(0 1.544226313e-10 0)
)
;
    }
    rightWall
    {
        type            empty;
    }
    leftWall
    {
        type            empty;
    }
    frontAndBack
    {
        type            slip;
    }
    procBoundary4to2
    {
        type            processor;
        value           nonuniform List<vector> 
30
(
(0 -1.159220798e-10 9.732828627e-12)
(0 -1.17620988e-10 1.166000945e-11)
(0 -1.212185585e-10 1.532638956e-11)
(0 -1.271682111e-10 2.084649899e-11)
(0 -1.362478934e-10 2.860227842e-11)
(0 -1.495329082e-10 3.921394685e-11)
(0 -1.684240906e-10 5.349187829e-11)
(0 -1.946100248e-10 7.232631623e-11)
(0 -2.29904328e-10 9.645295241e-11)
(0 -2.758227917e-10 1.260073128e-10)
(0 -3.325958823e-10 1.597634048e-10)
(0 -3.968914055e-10 1.940205571e-10)
(0 -4.567457258e-10 2.214926775e-10)
(0 -4.811735825e-10 2.316021112e-10)
(0 -4.090398593e-10 2.160672502e-10)
(0 -1.225568816e-10 1.604733513e-10)
(0 1.431549114e-11 1.283078115e-11)
(0 2.427012254e-11 2.24114827e-12)
(0 1.990539237e-11 -1.208935717e-12)
(0 1.374515464e-11 -1.556215857e-11)
(0 5.067817057e-12 -1.239534403e-11)
(0 9.731262823e-13 -1.05551742e-11)
(0 -1.446600627e-12 -8.55753208e-12)
(0 -3.857331e-12 -8.451247971e-12)
(0 -7.628622973e-12 -7.411678765e-12)
(0 -1.441465089e-11 -5.929092307e-12)
(0 -1.397923496e-11 1.556549891e-11)
(0 -3.344655877e-12 2.49976324e-11)
(0 -1.793517393e-11 8.476072208e-12)
(0 -1.902252856e-11 -5.727046179e-11)
)
;
    }
    procBoundary4to5
    {
        type            processor;
        value           nonuniform List<vector> 
20
(
(0 -3.464406723e-11 5.542448077e-12)
(0 -3.134242107e-12 -1.110257801e-11)
(0 4.150173772e-12 -5.904190663e-12)
(0 2.187682377e-12 -1.686972611e-12)
(0 1.54805086e-12 -5.440124612e-13)
(0 1.549850907e-12 2.846607698e-15)
(0 2.220043252e-12 1.005758514e-12)
(0 4.33494782e-12 4.913169177e-12)
(0 -2.414913901e-12 9.654090056e-12)
(0 -3.235234642e-11 -7.157341946e-12)
(0 5.565319459e-12 -2.290630697e-11)
(0 3.177634019e-11 -4.565403299e-12)
(0 1.320300467e-11 1.629128745e-11)
(0 -1.636824125e-11 1.100264912e-11)
(0 -5.133841282e-12 -6.245433772e-13)
(0 -1.632090401e-12 -1.574697901e-12)
(0 -5.423405866e-13 -1.06084593e-12)
(0 -1.988923602e-13 -5.938458902e-13)
(0 -8.791534684e-14 -2.92756768e-13)
(0 -5.387687467e-14 -8.790866213e-14)
)
;
    }
}


// ************************************************************************* //
