/*--------------------------------*- C++ -*----------------------------------*\
  =========                 |
  \\      /  F ield         | OpenFOAM: The Open Source CFD Toolbox
   \\    /   O peration     | Website:  https://openfoam.org
    \\  /    A nd           | Version:  10
     \\/     M anipulation  |
\*---------------------------------------------------------------------------*/
FoamFile
{
    format      ascii;
    class       surfaceScalarField;
    location    "0.0004";
    object      phi;
}
// * * * * * * * * * * * * * * * * * * * * * * * * * * * * * * * * * * * * * //

dimensions      [0 3 -1 0 0 0 0];

internalField   nonuniform List<scalar> 
46000
(
3.201045514e-22
6.02383612e-22
-1.794796049e-23
6.469391008e-22
5.675921035e-22
-2.367665497e-23
9.858738285e-22
4.955203901e-22
-3.526955938e-23
1.341030351e-21
3.813993748e-22
-5.298564809e-23
1.714303513e-21
2.185403086e-22
-7.721610384e-23
2.104951978e-21
-1.206586396e-24
-1.084906799e-22
2.509212504e-21
-2.869497358e-22
-1.474887724e-22
2.919877515e-21
-6.482227699e-22
-1.950494044e-22
3.325744421e-21
-1.094373852e-21
-2.521647948e-22
3.710888346e-21
-1.63377167e-21
-3.199327841e-22
4.053788374e-21
-2.272671276e-21
-3.994353378e-22
4.326460807e-21
-3.013549883e-21
-4.915035862e-22
4.493964464e-21
-3.85271757e-21
-5.963309045e-22
4.515110714e-21
-4.777080518e-21
-7.129112041e-22
4.345615887e-21
-5.760279656e-21
-8.383604065e-22
3.944698163e-21
-6.759094747e-21
-9.672923228e-22
3.285437191e-21
-7.711627177e-21
-1.091503423e-21
2.36990631e-21
-8.539178105e-21
-1.200175119e-21
1.244656085e-21
-9.155454167e-21
-1.281272493e-21
1.651069519e-24
-9.485286843e-21
-1.324498817e-21
-1.241362378e-21
-9.485450992e-21
-1.324371947e-21
-2.366625573e-21
-9.155936076e-21
-1.280887332e-21
-3.282143788e-21
-8.539961298e-21
-1.199528928e-21
-3.94135754e-21
-7.712720239e-21
-1.09061846e-21
-4.342185346e-21
-6.760541247e-21
-9.662196465e-22
-4.511523895e-21
-5.762162055e-21
-8.371795431e-22
-4.490141023e-21
-4.779538112e-21
-7.117471884e-22
-4.32230612e-21
-3.855962936e-21
-5.953733806e-22
-4.049171296e-21
-3.01788632e-21
-4.910291629e-22
-3.705608777e-21
-2.278529298e-21
-3.998488286e-22
-3.319503623e-21
-1.641774632e-21
-3.218374778e-22
-2.912228943e-21
-1.105432105e-21
-2.564605118e-22
-2.49948971e-21
-6.636706217e-22
-2.030723363e-22
-2.092158624e-21
-3.08743919e-22
-1.612129029e-22
-1.696955443e-21
-3.221034477e-23
-1.308146726e-22
-1.316966e-21
1.741878049e-22
-1.12334695e-22
-9.522337451e-22
3.179911335e-22
-1.06682371e-22
-6.015082944e-22
4.064611642e-22
-1.142362852e-22
-2.698338046e-22
4.505444111e-22
-1.303648372e-22
4.79003848e-22
-1.308278906e-22
2.853130429e-22
3.379056576e-22
-2.436293838e-23
5.748673874e-22
3.038280437e-22
-2.919445102e-23
8.717528132e-22
2.338893881e-22
-3.895674565e-23
1.178171285e-21
1.246954586e-22
-5.382707304e-23
1.494556618e-21
-2.849902842e-23
-7.406937328e-23
1.819208828e-21
-2.314179398e-22
-1.000316131e-22
2.14793947e-21
-4.90322468e-22
-1.321408949e-22
2.473726432e-21
-8.115023138e-22
-1.708921794e-22
2.786346603e-21
-1.200670885e-21
-2.168206327e-22
3.07198874e-21
-1.662205326e-21
-2.704432068e-22
3.312909766e-21
-2.198150932e-21
-3.321525817e-22
3.487293121e-21
-2.806907491e-21
-4.020462546e-22
3.569601516e-21
-3.481549757e-21
-4.796798145e-22
3.531911576e-21
-4.207834929e-21
-5.637511451e-22
3.346800796e-21
-4.962181967e-21
-6.517673801e-22
2.992165733e-21
-5.710241743e-21
-7.39794763e-22
2.457886264e-21
-6.406988976e-21
-8.224259623e-22
1.753630248e-21
-6.999459193e-21
-8.931052741e-22
9.148234078e-22
-7.433333567e-21
-9.450088217e-22
1.486921109e-24
-7.663235372e-21
-9.724561681e-22
-9.118474624e-22
-7.663340198e-21
-9.722936928e-22
-1.750650795e-21
-7.433648089e-21
-9.445233845e-22
-2.454902729e-21
-6.999984108e-21
-8.923013575e-22
-2.989178548e-21
-6.407728343e-21
-8.213096254e-22
-3.343806154e-21
-5.71120253e-21
-7.383708417e-22
-3.528899952e-21
-4.963376329e-21
-6.500402135e-22
-3.566565847e-21
-4.209285846e-21
-5.617301134e-22
-3.484229505e-21
-3.483292004e-21
-4.773822467e-22
-3.309814273e-21
-2.808987544e-21
-3.995003166e-22
-3.068854111e-21
-2.200630427e-21
-3.294037343e-22
-2.783161096e-21
-1.665168961e-21
-2.67565005e-22
-2.470467459e-21
-1.204236857e-21
-2.139278936e-22
-2.144563007e-21
-8.158391321e-22
-1.681597264e-22
-1.81562505e-21
-4.956773954e-22
-1.298335606e-22
-1.490557294e-21
-2.381748455e-22
-9.856613093e-23
-1.173162671e-21
-3.732175653e-23
-7.418675414e-23
-8.637637143e-22
1.124690053e-22
-5.712787788e-23
-5.574250474e-22
2.152389998e-22
-4.929794955e-23
-2.413743672e-22
2.722769021e-22
-5.427461794e-23
2.846017345e-22
-6.558987041e-23
2.51235429e-22
1.116984606e-22
-2.825434675e-23
5.049287318e-22
7.931904242e-23
-3.229661324e-23
7.625588838e-22
1.331343192e-23
-4.045012847e-23
1.024976797e-21
-8.867040028e-23
-5.282940567e-23
1.291637707e-21
-2.298911523e-22
-6.960167055e-23
1.5603043e-21
-4.142086021e-22
-9.09798379e-23
1.826759624e-21
-6.45706028e-22
-1.172108499e-22
2.084557861e-21
-9.28239665e-22
-1.485568721e-22
2.324812163e-21
-1.264901125e-21
-1.852633093e-22
2.536043134e-21
-1.657365547e-21
-2.275059186e-22
2.704153208e-21
-2.105093821e-21
-2.753092933e-22
2.812650856e-21
-2.604369335e-21
-3.2843108e-22
2.843316343e-21
-3.147190157e-21
-3.862124574e-22
2.777564538e-21
-3.720118383e-21
-4.474080829e-22
2.59874102e-21
-4.303326039e-21
-5.100312354e-22
2.295418499e-21
-4.870241227e-21
-5.71272394e-22
1.865416048e-21
-5.388323505e-21
-6.275617213e-22
1.319755874e-21
-5.821500452e-21
-6.748402299e-22
6.849216033e-22
-6.134574526e-21
-7.090873394e-22
1.382094556e-24
-6.299125701e-21
-7.27043579e-22
-6.821553531e-22
-6.29922657e-21
-7.268934973e-22
-1.316986814e-21
-6.134878827e-21
-7.086389241e-22
-1.862646964e-21
-5.822011685e-21
-6.740965475e-22
-2.292652735e-21
-5.389045409e-21
-6.265240375e-22
-2.595979953e-21
-4.871177399e-21
-5.699390428e-22
-2.77480947e-21
-4.304481667e-21
-5.083989189e-22
-2.840572005e-21
-3.721501672e-21
-4.454736192e-22
-2.809925045e-21
-3.148811314e-21
-3.839732508e-22
-2.701457156e-21
-2.60623974e-21
-3.258862922e-22
-2.533392645e-21
-2.107225824e-21
-2.724618166e-22
-2.322228991e-21
-1.659772468e-21
-2.243645902e-22
-2.082069735e-21
-1.26759674e-21
-1.818447592e-22
-1.82440127e-21
-9.312376249e-22
-1.448868106e-22
-1.5581225e-21
-6.490176394e-22
-1.133221118e-22
-1.289704205e-21
-4.178369452e-22
-8.69017239e-23
-1.023371909e-21
-2.338260002e-22
-6.534823909e-23
-7.609937198e-22
-9.294405105e-23
-4.851310129e-23
-5.003871451e-22
8.196508903e-24
-3.71006238e-23
-2.290495351e-22
7.056646836e-23
-3.425485021e-23
8.983796298e-23
-3.95054936e-23
2.188560108e-22
-7.995447372e-23
-3.012320741e-23
4.389231213e-22
-1.100803141e-22
-3.347947755e-23
6.605750516e-22
-1.711756251e-22
-4.023761554e-23
8.837560455e-22
-2.648063802e-22
-5.046601029e-23
1.107320257e-21
-3.931088702e-22
-6.426166835e-23
1.328806874e-21
-5.585397571e-22
-8.174181646e-23
1.544225987e-21
-7.635618725e-22
-1.030305801e-22
1.747896401e-21
-1.010265694e-21
-1.282395801e-22
1.93234774e-21
-1.299922696e-21
-1.574390596e-22
2.088314861e-21
-1.632463226e-21
-1.906157923e-22
2.204877693e-21
-2.005874977e-21
-2.27614884e-22
2.269830033e-21
-2.415533496e-21
-2.68065006e-22
2.270388117e-21
-2.853509328e-21
-3.112912327e-22
2.194356882e-21
-3.307950641e-21
-3.562275303e-22
2.031825832e-21
-3.762714691e-21
-4.01351434e-22
1.777336221e-21
-4.197494808e-21
-4.446734745e-22
1.432239101e-21
-4.588721832e-21
-4.838166338e-22
1.006681799e-21
-4.911457684e-21
-5.162115089e-22
5.20370428e-22
-5.142291713e-21
-5.39411156e-22
1.281225754e-24
-5.262836888e-21
-5.514796213e-22
-5.178076099e-22
-5.262942595e-21
-5.513471183e-22
-1.004119672e-21
-5.142610045e-21
-5.39014365e-22
-1.429680688e-21
-4.911991235e-21
-5.155512515e-22
-1.774784724e-21
-4.589473483e-21
-4.82892245e-22
-2.02928422e-21
-4.198467786e-21
-4.434827404e-22
-2.191829475e-21
-3.763913267e-21
-3.998913669e-22
-2.267881647e-21
-3.309380031e-21
-3.54494812e-22
-2.267353471e-21
-2.855174846e-21
-3.09282532e-22
-2.20244324e-21
-2.417440134e-21
-2.657780129e-22
-2.085939289e-21
-2.008026997e-21
-2.250495368e-22
-1.930053263e-21
-1.63486351e-21
-1.87775341e-22
-1.745710619e-21
-1.30257186e-21
-1.543311039e-22
-1.542181285e-21
-1.013161158e-21
-1.248771156e-22
-1.326941806e-21
-7.666961939e-22
-9.943192604e-23
-1.10569326e-21
-5.618954601e-22
-7.792358568e-23
-8.824899601e-22
-3.966415807e-22
-6.020937424e-23
-6.598531599e-22
-2.684098428e-22
-4.609082777e-23
-4.380171856e-22
-1.747220464e-22
-3.560508029e-23
-2.097780404e-22
-1.141999746e-22
-3.030084468e-23
-8.976939063e-23
-3.079164493e-23
1.887301704e-22
-2.40885688e-22
-3.040779378e-23
3.778278104e-22
-2.685099934e-22
-3.31738211e-23
5.669442965e-22
-3.243021861e-22
-3.873443882e-23
7.554535555e-22
-4.092422928e-22
-4.712550178e-23
9.4188937e-22
-5.246328145e-22
-5.839527138e-23
1.123784759e-21
-6.718966111e-22
-7.259634958e-23
1.297522165e-21
-8.523224426e-22
-8.977324759e-23
1.458239399e-21
-1.066759523e-21
-1.099453686e-22
1.599807209e-21
-1.315263787e-21
-1.330836867e-22
1.714903111e-21
-1.596699574e-21
-1.59079601e-22
1.795219174e-21
-1.90830639e-21
-1.877054138e-22
1.831854201e-21
-2.24525395e-21
-2.18567856e-22
1.815946804e-21
-2.600231933e-21
-2.51059154e-22
1.739592833e-21
-2.963153499e-21
-2.843146518e-22
1.597045715e-21
-3.321088283e-21
-3.171906151e-22
1.386109197e-21
-3.658567455e-21
-3.482797212e-22
1.109503249e-21
-3.958397532e-21
-3.759809797e-22
7.758477705e-22
-4.203054256e-21
-3.986327709e-22
3.998252525e-22
-4.376586059e-21
-4.14702552e-22
1.175518867e-24
-4.466743979e-21
-4.230037292e-22
-3.974750596e-22
-4.466854754e-21
-4.228874445e-22
-7.735008621e-22
-4.376919055e-21
-4.143537969e-22
-1.107162937e-21
-4.20361102e-21
-3.98051304e-22
-1.383779027e-21
-3.959179986e-21
-3.751656462e-22
-1.594729702e-21
-3.659577913e-21
-3.47228617e-22
-1.73729624e-21
-3.322329499e-21
-3.159014382e-22
-1.813676462e-21
-2.964628305e-21
-2.827849059e-22
-1.829618759e-21
-2.601942804e-21
-2.492865983e-22
-1.793030103e-21
-2.247202828e-21
-2.165513742e-22
-1.712775803e-21
-1.910494351e-21
-1.854458796e-22
-1.597761613e-21
-1.599126214e-21
-1.565805566e-22
-1.456299918e-21
-1.317926378e-21
-1.303519807e-22
-1.295716321e-21
-1.069652104e-21
-1.069918745e-22
-1.122141072e-21
-8.554351041e-22
-8.661392809e-23
-9.404393801e-22
-6.7521462e-22
-6.925228378e-23
-7.542582222e-22
-5.281313513e-22
-5.488170567e-23
-5.661653635e-22
-4.128621503e-22
-4.340767873e-23
-3.774951138e-22
-3.279026154e-22
-3.473060654e-23
-1.853474565e-22
-2.720641137e-22
-2.944338594e-23
-2.465479725e-22
-2.800026512e-23
1.611058649e-22
-3.748135426e-22
-2.947745303e-23
3.220356177e-22
-3.999029685e-22
-3.173977873e-23
4.820041898e-22
-4.504048133e-22
-3.628108337e-23
6.400630337e-22
-5.268688647e-22
-4.311528428e-23
7.946255735e-22
-6.299894252e-22
-5.225843521e-23
9.433589273e-22
-7.604443216e-22
-6.372181686e-23
1.083085085e-21
-9.186940149e-22
-7.750145815e-23
1.209735136e-21
-1.104743087e-21
-9.356442064e-23
1.318371422e-21
-1.317870325e-21
-1.118311183e-22
1.403296295e-21
-1.556336319e-21
-1.321533266e-22
1.458271614e-21
-1.817083316e-21
-1.542883316e-22
1.476876219e-21
-2.09545221e-21
-1.778710351e-22
1.453025238e-21
-2.384956248e-21
-2.023877046e-22
1.381658049e-21
-2.677168795e-21
-2.271574809e-22
1.259566543e-21
-2.961798277e-21
-2.513296577e-22
1.086279121e-21
-3.22702869e-21
-2.739058342e-22
8.648465247e-22
-3.460186665e-21
-2.937943997e-22
6.023159671e-22
-3.648744669e-21
-3.098992886e-22
3.09667333e-22
-3.781581981e-21
-3.212358558e-22
1.064744142e-24
-3.850316006e-21
-3.270557765e-22
-3.075393615e-22
-3.850430685e-21
-3.269540291e-22
-6.001928268e-22
-3.781926301e-21
-3.209304978e-22
-8.627319028e-22
-3.649319285e-21
-3.093897981e-22
-1.084176954e-21
-3.460992391e-21
-2.930797085e-22
-1.257481288e-21
-3.228066439e-21
-2.729844905e-22
-1.379595045e-21
-2.963068957e-21
-2.502000406e-22
-1.450990961e-21
-2.678673102e-21
-2.258180466e-22
-1.474878783e-21
-2.386694544e-21
-2.008374638e-22
-1.456321626e-21
-2.097424441e-21
-1.761102009e-22
-1.401407665e-21
-1.819288715e-21
-1.523189e-22
-1.316561777e-21
-1.558772789e-21
-1.299795021e-22
-1.208025644e-21
-1.320533521e-21
-1.094596452e-22
-1.08149932e-21
-1.10762534e-21
-9.100487246e-23
-9.41920588e-22
-9.217835319e-22
-7.476687251e-23
-7.933561114e-22
-7.637252015e-22
-6.083006599e-23
-6.389890212e-22
-6.334418285e-22
-4.923133418e-23
-4.812058286e-22
-5.304617912e-22
-3.995879584e-23
-3.216566121e-22
-4.540615105e-22
-3.294857934e-23
-1.598313152e-22
-4.035048391e-22
-2.839699587e-23
-3.791308909e-22
-2.65186002e-23
1.360164391e-22
-4.851924989e-22
-2.763508984e-23
2.715337728e-22
-5.078594993e-22
-2.947010089e-23
4.055401384e-22
-5.533567437e-22
-3.314869757e-23
5.369424733e-22
-6.219235329e-22
-3.867084862e-23
6.64170677e-22
-7.138191863e-22
-4.603264874e-23
7.85109234e-22
-8.29196877e-22
-5.522084083e-23
8.970360122e-22
-9.679487538e-22
-6.620453867e-23
9.966078977e-22
-1.129524863e-21
-7.892475565e-23
1.079905429e-21
-1.312733518e-21
-9.328154939e-23
1.142549298e-21
-1.515533718e-21
-1.091189957e-22
1.179902719e-21
-1.734834883e-21
-1.262087822e-22
1.187372181e-21
-1.966326008e-21
-1.442340578e-22
1.160812691e-21
-2.204364797e-21
-1.627762375e-22
1.097028567e-21
-2.441965979e-21
-1.813086632e-22
9.943361301e-22
-2.670933036e-21
-1.992017149e-22
8.531211454e-22
-2.882174113e-21
-2.157439534e-22
6.762885207e-22
-3.066225121e-21
-2.301823258e-22
4.694786551e-22
-3.21396687e-21
-2.417809717e-22
2.409333081e-22
-3.317470841e-21
-2.49893043e-22
9.500643668e-25
-3.370851884e-21
-2.540346018e-22
-2.390349769e-22
-3.370969004e-21
-2.539461149e-22
-4.675858113e-22
-3.317822196e-21
-2.496274445e-22
-6.744050084e-22
-3.214552385e-21
-2.413378127e-22
-8.512510021e-22
-3.067044583e-21
-2.295608628e-22
-9.92483806e-22
-2.88322716e-21
-2.14943298e-22
-1.09519919e-21
-2.672219124e-21
-1.982210238e-22
-1.159012403e-21
-2.443484361e-21
-1.801473996e-22
-1.185608679e-21
-2.206114514e-21
-1.614345509e-22
-1.1781859e-21
-1.968305783e-21
-1.427131997e-22
-1.14089174e-21
-1.737042745e-21
-1.245114519e-22
-1.078322508e-21
-1.517966321e-21
-1.07249597e-22
-9.951174632e-22
-1.315385203e-21
-9.124639708e-23
-8.956575126e-22
-1.132386619e-21
-7.673224726e-23
-7.838622576e-22
-9.710074297e-22
-6.386546446e-23
-6.630727385e-22
-8.324351139e-22
-5.274926491e-23
-5.360089839e-22
-7.172164755e-22
-4.344718653e-23
-4.048055479e-22
-6.254561023e-22
-3.598894243e-23
-2.710999407e-22
-5.569832284e-22
-3.036037063e-23
-1.354573671e-22
-5.114929129e-22
-2.662628246e-23
-4.890661939e-22
-2.487128386e-23
1.133494387e-22
-5.751258991e-22
-2.512309708e-23
2.260365285e-22
-5.955785148e-22
-2.659672055e-23
3.369733491e-22
-6.36533303e-22
-2.954721468e-23
4.450468199e-22
-6.980097243e-22
-3.396647085e-23
5.487929863e-22
-7.799625139e-22
-3.98394225e-23
6.463573573e-22
-8.821843545e-22
-4.713996023e-23
7.35459903e-22
-1.004189078e-21
-5.582469598e-23
8.133992425e-22
-1.145077621e-21
-6.582528826e-23
8.771052291e-22
-1.303394488e-21
-7.703939096e-23
9.232481322e-22
-1.476985113e-21
-8.932064805e-23
9.484115943e-22
-1.662867806e-21
-1.024685516e-22
9.493333924e-22
-1.857138193e-21
-1.162194677e-22
9.232115086e-22
-2.05492843e-21
-1.302406876e-22
8.680615105e-22
-2.250446869e-21
-1.441298984e-22
7.830950524e-22
-2.43712385e-21
-1.574226327e-22
6.690701383e-22
-2.607883277e-21
-1.69609913e-22
5.285467716e-22
-2.755544967e-21
-1.801671126e-22
3.659746837e-22
-2.873338769e-21
-1.885929256e-22
1.875522653e-22
-2.955480795e-21
-1.944545205e-22
8.329443846e-25
-2.997732982e-21
-1.974322965e-22
-1.85888169e-22
-2.9978512e-21
-1.973562081e-22
-3.643160001e-22
-2.955835276e-21
-1.942261768e-22
-5.26897207e-22
-2.873928992e-21
-1.882120993e-22
-6.674335789e-22
-2.756370093e-21
-1.796334873e-22
-7.814757694e-22
-2.608942198e-21
-1.689232099e-22
-8.664644272e-22
-2.438415251e-21
-1.56582769e-22
-9.216425564e-22
-2.251969253e-21
-1.431371871e-22
-9.477999481e-22
-2.056680083e-21
-1.29096075e-22
-9.469228623e-22
-1.859116958e-21
-1.149247611e-22
-9.218153158e-22
-1.665070614e-21
-1.010266131e-22
-8.757413903e-22
-1.479407277e-21
-8.773557524e-23
-8.121188798e-22
-1.306028874e-21
-7.531672012e-23
-7.342783229e-22
-1.14791385e-21
-6.397221925e-23
-6.452899419e-22
-1.007212989e-21
-5.3850351e-23
-5.478541001e-22
-8.853779555e-22
-4.50558157e-23
-4.442486107e-22
-7.833047711e-22
-3.766023494e-23
-3.36332674e-22
-7.014778603e-22
-3.170937353e-23
-2.256096252e-22
-6.400988306e-22
-2.721861323e-23
-1.13030648e-22
-5.991870225e-22
-2.421734102e-23
-5.788259036e-22
-2.273733433e-23
9.289682307e-23
-6.473215247e-22
-2.213080454e-23
1.850817402e-22
-6.658275139e-22
-2.329867402e-23
2.754969278e-22
-7.028097309e-22
-2.563430094e-23
3.630940303e-22
-7.581351973e-22
-2.912570745e-23
4.465711457e-22
-8.315502338e-22
-3.375281826e-23
5.243526333e-22
-9.226063673e-22
-3.948457157e-23
5.945713609e-22
-1.030574e-21
-4.627439398e-23
6.550823754e-22
-1.154345458e-21
-5.405476852e-23
7.03514604e-22
-1.292334602e-21
-6.273104656e-23
7.373654387e-22
-1.44238224e-21
-7.217494618e-23
7.541412074e-22
-1.601678799e-21
-8.221844634e-23
7.515431558e-22
-1.766718001e-21
-9.264905444e-23
7.276930697e-22
-1.933297204e-21
-1.03207684e-22
6.813845286e-22
-2.096580687e-21
-1.135905756e-22
6.12335626e-22
-2.251240076e-21
-1.23456647e-22
5.214084478e-22
-2.391680127e-21
-1.324412773e-22
4.107529703e-22
-2.512347031e-21
-1.401766973e-22
2.838326572e-22
-2.608100835e-21
-1.463178805e-22
1.453000786e-22
-2.674615748e-21
-1.505712937e-22
7.147267265e-25
-2.708756874e-21
-1.527225379e-22
-1.43872245e-22
-2.70887536e-21
-1.526583126e-22
-2.824097168e-22
-2.674970979e-21
-1.503786166e-22
-4.093383074e-22
-2.608692148e-21
-1.459967621e-22
-5.200056843e-22
-2.513173382e-21
-1.397272111e-22
-6.10948822e-22
-2.392740161e-21
-1.318636428e-22
-6.800184293e-22
-2.252532173e-21
-1.227513285e-22
-7.263533864e-22
-2.098102945e-21
-1.127583941e-22
-7.502368233e-22
-1.935047293e-21
-1.022499373e-22
-7.528765181e-22
-1.768692841e-21
-9.156763526e-23
-7.361519793e-22
-1.603874062e-21
-8.101597321e-23
-7.023629873e-22
-1.444791732e-21
-7.085493848e-23
-6.540038556e-22
-1.294949652e-21
-6.1298164e-23
-5.935774615e-22
-1.157154442e-21
-5.251509368e-23
-5.234549087e-22
-1.033562108e-21
-4.463569892e-23
-4.457809157e-22
-9.257556723e-22
-3.775653136e-23
-3.624216999e-22
-8.348401608e-22
-3.194736225e-23
-2.749536443e-22
-7.615435092e-22
-2.725706566e-23
-1.846978171e-22
-7.063120284e-22
-2.371330507e-23
-9.266952915e-23
-6.693869566e-22
-2.133788598e-23
-6.509284918e-22
-2.014447502e-23
7.439083384e-23
-7.040752206e-22
-1.880251533e-23
1.480995232e-22
-7.209372053e-22
-1.971046253e-23
2.201714615e-22
-7.545772975e-22
-2.152432283e-23
2.896789938e-22
-8.047592995e-22
-2.423117364e-23
3.555150122e-22
-8.710905896e-22
-2.781011579e-23
4.163850005e-22
-9.529661439e-22
-3.223032623e-23
4.707999026e-22
-1.049505761e-21
-3.744787833e-23
5.170932318e-22
-1.159485383e-21
-4.340202289e-23
5.534669658e-22
-1.281268823e-21
-5.001108622e-23
5.780688796e-22
-1.412747734e-21
-5.71683601e-23
5.891020062e-22
-1.551299014e-21
-6.473853959e-23
5.849639523e-22
-1.693769931e-21
-7.255540947e-23
5.644095873e-22
-1.836501705e-21
-8.042158793e-23
5.267251395e-22
-1.975401584e-21
-8.811117338e-23
4.718955747e-22
-2.10607076e-21
-9.537602331e-23
4.007415438e-22
-2.223990348e-21
-1.01956076e-22
3.149991666e-22
-2.324759659e-21
-1.075935694e-22
2.173177433e-22
-2.404371005e-21
-1.120502526e-22
1.111589533e-22
-2.459494827e-21
-1.151258515e-22
5.962407154e-25
-2.487740956e-21
-1.166753802e-22
-1.099678647e-22
-2.487859492e-21
-1.166226575e-22
-2.16130885e-22
-2.459850213e-21
-1.149677372e-22
-3.138195415e-22
-2.404962586e-21
-1.117869159e-22
-3.995724633e-22
-2.325586378e-21
-1.072253191e-22
-4.707408346e-22
-2.225050769e-21
-1.014833961e-22
-5.255892013e-22
-2.107363041e-21
-9.479961263e-23
-5.632977343e-22
-1.976923371e-21
-8.743199099e-23
-5.838823707e-22
-1.838249911e-21
-7.964090967e-23
-5.880577392e-22
-1.695740385e-21
-7.167490724e-23
-5.77069649e-22
-1.553486037e-21
-6.376040619e-23
-5.525209074e-22
-1.415143694e-21
-5.60954998e-23
-5.162086461e-22
-1.283863782e-21
-4.884736953e-23
-4.699851277e-22
-1.162266898e-21
-4.215256606e-23
-4.156484726e-22
-1.052458865e-21
-3.611927198e-23
-3.548654042e-22
-9.560734725e-22
-3.083073113e-23
-2.891250482e-22
-8.743326194e-22
-2.634928023e-23
-2.197221635e-22
-8.081147997e-22
-2.27204163e-23
-1.477727453e-22
-7.580234736e-22
-1.997409501e-23
-7.421106443e-23
-7.244450481e-22
-1.813010507e-23
-7.076181203e-22
-1.719651129e-23
5.752884912e-23
-7.472716958e-22
-1.524557059e-23
1.14459431e-22
-7.628107231e-22
-1.593030394e-23
1.699894594e-22
-7.937688934e-22
-1.729688243e-23
2.233477038e-22
-8.398421388e-22
-1.933339017e-23
2.736394578e-22
-9.005481032e-22
-2.202085574e-23
3.198453836e-22
-9.751836917e-22
-2.53319996e-23
3.608202803e-22
-1.062779785e-21
-2.922907235e-23
3.953097917e-22
-1.162053306e-21
-3.366139811e-23
4.219880551e-22
-1.271362026e-21
-3.856275141e-23
4.395175995e-22
-1.388668624e-21
-4.384884837e-23
4.466310896e-22
-1.511521253e-21
-4.941535315e-23
4.422321775e-22
-1.637058241e-21
-5.513688144e-23
4.255097088e-22
-1.762044235e-21
-6.08675198e-23
3.960559629e-22
-1.882943807e-21
-6.644335616e-23
3.539759866e-22
-1.996035925e-21
-7.16873956e-23
2.999722333e-22
-2.097568479e-21
-7.64169971e-23
2.353878206e-22
-2.183946378e-21
-8.045360651e-23
1.621939215e-22
-2.251940252e-21
-8.363411364e-23
8.291282387e-23
-2.298896558e-21
-8.582270631e-23
4.777044735e-25
-2.322925724e-21
-8.692175925e-23
-8.195858522e-23
-2.323044474e-21
-8.688021332e-23
-1.612432582e-22
-2.299252586e-21
-8.569814019e-23
-2.344433334e-22
-2.252532886e-21
-8.3426743e-23
-2.99036854e-22
-2.184774479e-21
-8.016379282e-23
-3.530531067e-22
-2.098630406e-21
-7.604525048e-23
-3.951495317e-22
-1.997329432e-21
-7.123438014e-23
-4.246242742e-22
-1.884465879e-21
-6.59099058e-23
-4.413728448e-22
-1.763790856e-21
-6.025467717e-23
-4.458033908e-22
-1.639024104e-21
-5.444597558e-23
-4.387273058e-22
-1.513699463e-21
-4.864813146e-23
-4.212409958e-22
-1.391050459e-21
-4.300766588e-23
-3.946117619e-22
-1.27393679e-21
-3.765079844e-23
-3.601770949e-22
-1.1648083e-21
-3.268292126e-23
-3.192630802e-22
-1.065700369e-21
-2.818952487e-23
-2.731245511e-22
-9.782533713e-22
-2.423805592e-23
-2.229072285e-22
-9.037485797e-22
-2.088029398e-23
-1.696308374e-22
-8.43153373e-22
-1.815493977e-23
-1.141943197e-22
-7.971691103e-22
-1.608909003e-23
-5.73841367e-23
-7.662742039e-22
-1.470027117e-23
-7.507670936e-22
-1.399455635e-23
4.198982182e-23
-7.783944695e-22
-1.153803713e-23
8.350126066e-23
-7.929399726e-22
-1.202787417e-23
1.23916214e-22
-8.218876538e-22
-1.300459254e-23
1.626417394e-22
-8.648907191e-22
-1.445851742e-23
1.990038693e-22
-9.214114404e-22
-1.637433484e-23
2.322492905e-22
-9.906881511e-22
-1.873032995e-23
2.615467596e-22
-1.071702231e-21
-2.14969851e-23
2.860010714e-22
-1.163144594e-21
-2.463543272e-23
3.046814573e-22
-1.263386276e-21
-2.809585723e-23
3.166649705e-22
-1.370458531e-21
-3.181603598e-23
3.21094101e-22
-1.482048251e-21
-3.57202864e-23
3.172461838e-22
-1.595514424e-21
-3.971913237e-23
3.046101371e-22
-1.707930689e-21
-4.371001223e-23
2.829638442e-22
-1.816157555e-21
-4.757931407e-23
2.524434334e-22
-1.916945453e-21
-5.120592586e-23
2.135943343e-22
-2.007066399e-21
-5.446632313e-23
1.673939458e-22
-2.083467909e-21
-5.724099098e-23
1.152376162e-22
-2.143438441e-21
-5.942171721e-23
5.888365806e-23
-2.184769826e-21
-6.091904661e-23
3.589539022e-25
-2.205899939e-21
-6.16690204e-23
-5.816669709e-23
-2.206019126e-21
-6.163830311e-23
-1.145235577e-22
-2.185127128e-21
-6.082695487e-23
-1.666849271e-22
-2.144033062e-21
-5.926842851e-23
-2.128927803e-22
-2.084298471e-21
-5.702679229e-23
-2.517521328e-22
-2.008130854e-21
-5.419160176e-23
-2.822859789e-22
-1.918240952e-21
-5.087116572e-23
-3.039492517e-22
-1.817680283e-21
-4.718510815e-23
-3.166060922e-22
-1.70967568e-21
-4.325710385e-23
-3.2047875e-22
-1.597475375e-21
-3.920849624e-23
-3.160783021e-22
-1.484217375e-21
-3.515325366e-23
-3.041273268e-22
-1.372826474e-21
-3.11944542e-23
-2.854832717e-22
-1.265942099e-21
-2.742225991e-23
-2.610691643e-22
-1.165875803e-21
-2.391318007e-23
-2.31816082e-22
-1.074594815e-21
-2.073033388e-23
-1.986197595e-22
-9.937265699e-22
-1.792439742e-23
-1.623120218e-22
-9.245785276e-22
-1.553495584e-23
-1.236465747e-22
-8.681675321e-22
-1.359205933e-23
-8.329941329e-23
-8.252532966e-22
-1.211736501e-23
-4.187702643e-23
-7.963703056e-22
-1.112499432e-23
-7.818569232e-22
-1.061966334e-23
2.744431871e-23
-7.985389977e-22
-7.735790941e-24
5.455357954e-23
-8.124237273e-22
-8.051328325e-24
8.09131486e-23
-8.400339331e-22
-8.679938783e-24
1.061210181e-22
-8.809984966e-22
-9.614915255e-24
1.297271586e-22
-9.347484165e-22
-1.084562181e-23
1.512352109e-22
-1.000489853e-21
-1.235707793e-23
1.701043962e-22
-1.077178948e-21
-1.412913307e-23
1.857593897e-22
-1.163497402e-21
-1.613557489e-23
1.976092024e-22
-1.257832863e-21
-1.834323522e-23
2.050752507e-22
-1.358268787e-21
-2.071120866e-23
2.076279277e-22
-1.462588614e-21
-2.319034347e-23
2.048299188e-22
-1.568298802e-21
-2.57231897e-23
1.963832711e-22
-1.672674387e-21
-2.824459047e-23
1.821759459e-22
-1.772829279e-21
-3.068307254e-23
1.623224877e-22
-1.865811275e-21
-3.296312662e-23
1.371928246e-22
-1.948718957e-21
-3.500836474e-23
1.074234136e-22
-2.018834439e-21
-3.67454113e-23
7.390623052e-23
-2.073762747e-21
-3.81082403e-23
3.775354537e-23
-2.111566113e-21
-3.904254386e-23
2.397670095e-25
-2.130880202e-21
-3.950963694e-23
-3.727469857e-23
-2.130999896e-21
-3.948940326e-23
-7.342949176e-23
-2.111924877e-21
-3.898187953e-23
-1.069503365e-22
-2.0743596e-21
-3.800725231e-23
-1.367251631e-22
-2.019667678e-21
-3.660426905e-23
-1.618622308e-22
-1.949786053e-21
-3.482729206e-23
-1.817253103e-22
-1.867108747e-21
-3.274240097e-23
-1.959446486e-22
-1.774352566e-21
-3.04230408e-23
-2.044057871e-22
-1.674417732e-21
-2.79457098e-23
-2.072207502e-22
-1.570255175e-21
-2.538609832e-23
-2.046874011e-22
-1.464749683e-21
-2.281595831e-23
-1.972429512e-22
-1.360624933e-21
-2.030083728e-23
-1.85416976e-22
-1.260373224e-21
-1.789867986e-23
-1.697881762e-22
-1.166209894e-21
-1.565920297e-23
-1.509478371e-22
-1.080050232e-21
-1.362389232e-23
-1.294717172e-22
-1.003505224e-21
-1.182644396e-23
-1.059010263e-22
-9.378916074e-22
-1.029348234e-23
-8.073233929e-23
-8.842514613e-22
-9.045425383e-24
-5.441642223e-23
-8.433766626e-22
-8.09720591e-24
-2.736364405e-23
-8.158334719e-22
-7.45864816e-24
-8.019839892e-22
-7.132964443e-24
1.355958655e-23
-8.084238896e-22
-3.87911333e-24
2.694337379e-23
-8.219835369e-22
-4.033731946e-24
3.994858528e-23
-8.489269115e-22
-4.341409655e-24
5.237109831e-23
-8.888755057e-22
-4.798780311e-24
6.398572181e-23
-9.412466069e-22
-5.400426409e-24
7.454611642e-23
-1.005232333e-21
-6.138721714e-24
8.378594167e-23
-1.079778457e-21
-7.003463792e-24
9.142392857e-23
-1.163564407e-21
-7.981472558e-24
9.717327921e-23
-1.254988347e-21
-9.056194826e-24
1.007554233e-22
-1.352161639e-21
-1.020736928e-23
1.019177398e-22
-1.452917076e-21
-1.141082599e-23
1.004543341e-22
-1.554834831e-21
-1.263850611e-23
9.622837905e-23
-1.655289181e-21
-1.385878668e-23
8.919394975e-23
-1.751517575e-21
-1.503718002e-23
7.941480532e-23
-1.840711538e-21
-1.6137444e-23
6.70773432e-23
-1.920126356e-21
-1.712309068e-23
5.249510552e-23
-1.98720371e-21
-1.795922007e-23
3.610286395e-23
-2.039698824e-21
-1.861454232e-23
1.843945632e-23
-2.075801694e-21
-1.906339667e-23
1.200728201e-25
-2.094241153e-21
-1.928754383e-23
-1.819967887e-23
-2.094361226e-21
-1.927751121e-23
-3.58642153e-23
-2.076161544e-21
-1.903331411e-23
-5.225841446e-23
-2.040297323e-21
-1.856445387e-23
-6.684353793e-23
-1.9880389e-21
-1.78891943e-23
-7.918492458e-23
-1.921195351e-21
-1.703321699e-23
-8.89691293e-23
-1.842010414e-21
-1.602783423e-23
-9.600981483e-23
-1.753041271e-21
-1.490798062e-23
-1.002432303e-22
-1.657031441e-21
-1.371020554e-23
-1.017152576e-22
-1.556788196e-21
-1.24708551e-23
-1.005626512e-22
-1.455072923e-21
-1.122457549e-23
-9.699124261e-23
-1.354510258e-21
-1.000320563e-23
-9.125364557e-23
-1.257519002e-21
-8.835068145e-24
-8.362851469e-23
-1.166265346e-21
-7.744622006e-24
-7.440282939e-23
-1.082636822e-21
-6.75241201e-24
-6.38581002e-23
-1.008233986e-21
-5.875236801e-24
-5.226088022e-23
-9.443758809e-22
-5.126456663e-24
-3.985754067e-23
-8.921149978e-22
-4.516377457e-24
-2.687323161e-23
-8.522574482e-22
-4.05258997e-24
-1.351415877e-23
-8.253842158e-22
-3.740104977e-24
-8.118699962e-22
-3.580427019e-24
1.284904989e-24
-8.096749703e-22
-2.081188601e-28
1.050022809e-24
-8.217199329e-22
-2.068393508e-28
8.335657714e-25
-8.486834871e-22
-2.042809012e-28
6.421071843e-25
-8.886589071e-22
-2.004396315e-28
4.795163186e-25
-9.410607364e-22
-1.953300926e-28
3.468896656e-25
-1.005078098e-21
-1.889355229e-28
2.429343264e-25
-1.079654192e-21
-1.81280043e-28
1.646033215e-25
-1.1634666e-21
-1.72385651e-28
1.078355759e-25
-1.25491246e-21
-1.622784832e-28
6.824696376e-26
-1.352102868e-21
-1.510511656e-28
4.166787297e-26
-1.452870933e-21
-1.387961289e-28
2.448308365e-26
-1.554797491e-21
-1.257531666e-28
1.37845424e-26
-1.655257629e-21
-1.122064494e-28
7.37854334e-27
-1.751489597e-21
-9.852917582e-29
3.701863624e-27
-1.840685609e-21
-8.52072364e-29
1.696011556e-27
-1.920101499e-21
-7.27817022e-29
6.757142325e-28
-1.987179346e-21
-6.187666588e-29
2.128103018e-28
-2.039674648e-21
-5.308518159e-29
4.370742368e-29
-2.075777574e-21
-4.690098855e-29
3.694245898e-33
-2.094217055e-21
-4.370020304e-29
-4.371210266e-29
-2.094337154e-21
-4.370364385e-29
-2.128075875e-28
-2.076137492e-21
-4.689757136e-29
-6.757179341e-28
-2.04027322e-21
-5.308810295e-29
-1.696009552e-27
-1.988014551e-21
-6.188161852e-29
-3.701864339e-27
-1.921170355e-21
-7.278098769e-29
-7.378541662e-27
-1.841984063e-21
-8.520300481e-29
-1.378453762e-26
-1.753012432e-21
-9.852610751e-29
-2.448308675e-26
-1.656998422e-21
-1.122104128e-28
-4.166787493e-26
-1.556748623e-21
-1.257611179e-28
-6.824696381e-26
-1.455023665e-21