/*--------------------------------*- C++ -*----------------------------------*\
  =========                 |
  \\      /  F ield         | OpenFOAM: The Open Source CFD Toolbox
   \\    /   O peration     | Website:  https://openfoam.org
    \\  /    A nd           | Version:  10
     \\/     M anipulation  |
\*---------------------------------------------------------------------------*/
FoamFile
{
    format      ascii;
    class       volScalarField;
    location    "0.0004";
    object      Qv;
}
// * * * * * * * * * * * * * * * * * * * * * * * * * * * * * * * * * * * * * //

dimensions      [1 0 -3 0 0 0 0];

internalField   nonuniform List<scalar> 
16000
(
2.906258072e-59
2.964886943e-59
3.090822156e-59
3.292427488e-59
3.583875446e-59
3.987196927e-59
4.535500216e-59
5.277811527e-59
6.286085944e-59
7.664851427e-59
9.563316615e-59
1.218780076e-58
1.580755894e-58
2.073759426e-58
2.72682198e-58
3.55034955e-58
4.510044139e-58
5.500609398e-58
6.343633853e-58
6.835078972e-58
6.835078837e-58
6.343633507e-58
5.500608965e-58
4.510043727e-58
3.550349197e-58
2.72682167e-58
2.073759125e-58
1.580755576e-58
1.218779731e-58
9.563312934e-59
7.664847608e-59
6.286082106e-59
5.277807784e-59
4.535496661e-59
3.987193619e-59
3.583872413e-59
3.292424722e-59
3.09081962e-59
2.964884575e-59
2.906255791e-59
2.520018211e-59
2.542830771e-59
2.593414019e-59
2.67334349e-59
2.785247752e-59
2.933039619e-59
3.122203919e-59
3.360105728e-59
3.656244186e-59
4.022309532e-59
4.47179514e-59
5.018767776e-59
5.675227047e-59
6.446383542e-59
7.323424194e-59
8.274413826e-59
9.23631401e-59
1.011396055e-58
1.079244747e-58
1.116450667e-58
1.116450662e-58
1.079244733e-58
1.011396037e-58
9.236313823e-59
8.274413641e-59
7.323423986e-59
6.44638327e-59
5.675226668e-59
5.01876726e-59
4.47179448e-59
4.022308737e-59
3.656243282e-59
3.360104751e-59
3.122202909e-59
2.933038612e-59
2.785246775e-59
2.67334256e-59
2.593413139e-59
2.542829932e-59
2.520017394e-59
2.345859151e-59
2.354131496e-59
2.374752389e-59
2.407983134e-59
2.454286478e-59
2.514362254e-59
2.589173414e-59
2.679942516e-59
2.788091454e-59
2.915089691e-59
3.062171229e-59
3.229882534e-59
3.417439299e-59
3.62191043e-59
3.837331133e-59
4.053988216e-59
4.25829111e-59
4.43371494e-59
4.563089041e-59
4.631943475e-59
4.631943471e-59
4.563089033e-59
4.433714932e-59
4.258291104e-59
4.053988211e-59
3.837331121e-59
3.621910399e-59
3.417439235e-59
3.229882426e-59
3.062171068e-59
2.915089476e-59
2.78809119e-59
2.679942213e-59
2.589173084e-59
2.514361912e-59
2.454286137e-59
2.407982802e-59
2.374752069e-59
2.354131188e-59
2.34585885e-59
2.265348601e-59
2.267281764e-59
2.274981335e-59
2.28844958e-59
2.307718361e-59
2.332859052e-59
2.363985353e-59
2.401241239e-59
2.444765545e-59
2.494625062e-59
2.550710654e-59
2.612596621e-59
2.679372986e-59
2.749473447e-59
2.820538447e-59
2.889370959e-59
2.952053824e-59
3.004283529e-59
3.041919476e-59
3.061658077e-59
3.061658077e-59
3.041919478e-59
3.004283533e-59
2.952053831e-59
2.889370966e-59
2.820538453e-59
2.749473448e-59
2.679372976e-59
2.612596596e-59
2.55071061e-59
2.494624998e-59
2.44476546e-59
2.401241138e-59
2.36398524e-59
2.332858932e-59
2.307718239e-59
2.28844946e-59
2.274981218e-59
2.267281651e-59
2.265348491e-59
2.228180029e-59
2.227279904e-59
2.229235581e-59
2.23400235e-59
2.24152876e-59
2.251762881e-59
2.264655312e-59
2.28015558e-59
2.298198839e-59
2.318680722e-59
2.341419994e-59
2.366111521e-59
2.392275674e-59
2.41921421e-59
2.445986052e-59
2.471418378e-59
2.494167024e-59
2.512832724e-59
2.526124716e-59
2.533044015e-59
2.533044016e-59
2.526124718e-59
2.512832728e-59
2.494167029e-59
2.471418384e-59
2.445986057e-59
2.419214214e-59
2.392275675e-59
2.366111516e-59
2.341419982e-59
2.318680702e-59
2.298198812e-59
2.280155546e-59
2.264655273e-59
2.251762839e-59
2.241528716e-59
2.234002307e-59
2.229235539e-59
2.227279863e-59
2.228179989e-59
2.211276278e-59
2.209111512e-59
2.208510062e-59
2.209421118e-59
2.211779579e-59
2.215512072e-59
2.220541643e-59
2.226789262e-59
2.234170716e-59
2.242588163e-59
2.251916643e-59
2.261987154e-59
2.272569292e-59
2.28335766e-59
2.293966935e-59
2.303940332e-59
2.312774779e-59
2.319963117e-59
2.325049092e-59
2.327685919e-59
2.327685919e-59
2.325049093e-59
2.319963119e-59
2.312774782e-59
2.303940336e-59
2.293966938e-59
2.283357663e-59
2.272569294e-59
2.261987154e-59
2.25191664e-59
2.242588157e-59
2.234170707e-59
2.226789251e-59
2.22054163e-59
2.215512058e-59
2.211779564e-59
2.209421103e-59
2.208510047e-59
2.209111498e-59
2.211276264e-59
2.203754565e-59
2.201033734e-59
2.199309283e-59
2.198530906e-59
2.198632628e-59
2.199539076e-59
2.201171248e-59
2.203450468e-59
2.206299609e-59
2.209641216e-59
2.213392845e-59
2.21746054e-59
2.221731978e-59
2.226071189e-59
2.230316811e-59
2.234285547e-59
2.237781728e-59
2.240612687e-59
2.242608118e-59
2.243640173e-59
2.243640174e-59
2.242608118e-59
2.240612688e-59
2.23778173e-59
2.234285548e-59
2.230316813e-59
2.226071191e-59
2.221731979e-59
2.21746054e-59
2.213392845e-59
2.209641214e-59
2.206299606e-59
2.203450465e-59
2.201171243e-59
2.199539071e-59
2.198632623e-59
2.198530901e-59
2.199309278e-59
2.201033729e-59
2.20375456e-59
2.200490334e-59
2.197530235e-59
2.195322846e-59
2.193818777e-59
2.192952838e-59
2.192650533e-59
2.192834397e-59
2.193429049e-59
2.194364211e-59
2.195575425e-59
2.197002709e-59
2.198587772e-59
2.200270691e-59
2.201987064e-59
2.203666571e-59
2.205233625e-59
2.206610444e-59
2.207722306e-59
2.20850427e-59
2.208908121e-59
2.208908121e-59
2.208504271e-59
2.207722307e-59
2.206610444e-59
2.205233626e-59
2.203666572e-59
2.201987065e-59
2.200270691e-59
2.198587772e-59
2.197002709e-59
2.195575425e-59
2.19436421e-59
2.193429048e-59
2.192834395e-59
2.192650531e-59
2.192952836e-59
2.193818775e-59
2.195322844e-59
2.197530234e-59
2.200490332e-59
2.19911078e-59
2.196050222e-59
2.193640123e-59
2.191831643e-59
2.19056021e-59
2.189752141e-59
2.189331258e-59
2.189224411e-59
2.18936523e-59
2.18969586e-59
2.190166864e-59
2.190735792e-59
2.191365081e-59
2.192019933e-59
2.192666755e-59
2.193272519e-59
2.1938052e-59
2.194235182e-59
2.194537339e-59
2.194693286e-59
2.194693286e-59
2.194537339e-59
2.194235183e-59
2.1938052e-59
2.19327252e-59
2.192666755e-59
2.192019933e-59
2.191365081e-59
2.190735792e-59
2.190166864e-59
2.18969586e-59
2.18936523e-59
2.18922441e-59
2.189331258e-59
2.189752141e-59
2.190560209e-59
2.191831643e-59
2.193640122e-59
2.196050221e-59
2.19911078e-59
2.198543528e-59
2.195441846e-59
2.192948784e-59
2.191015773e-59
2.189578574e-59
2.188563969e-59
2.187896496e-59
2.18750417e-59
2.187322533e-59
2.18729677e-59
2.187382085e-59
2.18754276e-59
2.187750469e-59
2.187982375e-59
2.18821946e-59
2.188445325e-59
2.188645595e-59
2.188807868e-59
2.188922079e-59
2.188981057e-59
2.188981057e-59
2.188922079e-59
2.188807868e-59
2.188645595e-59
2.188445326e-59
2.18821946e-59
2.187982375e-59
2.187750469e-59
2.187542761e-59
2.187382085e-59
2.18729677e-59
2.187322533e-59
2.18750417e-59
2.187896496e-59
2.188563969e-59
2.189578574e-59
2.191015773e-59
2.192948784e-59
2.195441846e-59
2.198543528e-59
2.198317047e-59
2.195198941e-59
2.192672752e-59
2.190690039e-59
2.189186727e-59
2.188089829e-59
2.187324232e-59
2.186818501e-59
2.186509039e-59
2.186342354e-59
2.186275602e-59
2.186275821e-59
2.186318388e-59
2.186385184e-59
2.186462849e-59
2.18654137e-59
2.186613077e-59
2.186672055e-59
2.186713876e-59
2.186735547e-59
2.186735547e-59
2.186713876e-59
2.186672055e-59
2.186613077e-59
2.18654137e-59
2.186462849e-59
2.186385184e-59
2.186318388e-59
2.186275821e-59
2.186275602e-59
2.186342354e-59
2.186509039e-59
2.186818501e-59
2.187324232e-59
2.188089829e-59
2.189186726e-59
2.190690039e-59
2.192672752e-59
2.195198941e-59
2.198317047e-59
2.198229867e-59
2.195105338e-59
2.192566205e-59
2.190564085e-59
2.189034985e-59
2.187906034e-59
2.18710228e-59
2.186552536e-59
2.186193576e-59
2.185972457e-59
2.185847127e-59
2.185785717e-59
2.185765046e-59
2.185768806e-59
2.185785784e-59
2.185808365e-59
2.185831379e-59
2.18585131e-59
2.185865808e-59
2.18587341e-59
2.18587341e-59
2.185865808e-59
2.18585131e-59
2.185831379e-59
2.185808365e-59
2.185785784e-59
2.185768806e-59
2.185765046e-59
2.185785717e-59
2.185847127e-59
2.185972457e-59
2.186193576e-59
2.186552536e-59
2.18710228e-59
2.187906034e-59
2.189034985e-59
2.190564085e-59
2.192566205e-59
2.195105338e-59
2.198229867e-59
2.198198386e-59
2.195071372e-59
2.192527239e-59
2.19051764e-59
2.188978629e-59
2.187837395e-59
2.187019067e-59
2.18645257e-59
2.186074834e-59
2.185833141e-59
2.185685746e-59
2.1856012e-59
2.185556867e-59
2.185537112e-59
2.185531517e-59
2.185533343e-59
2.185538329e-59
2.185543831e-59
2.185548244e-59
2.185550658e-59
2.185550658e-59
2.185548244e-59
2.185543831e-59
2.185538329e-59
2.185533343e-59
2.185531517e-59
2.185537112e-59
2.185556867e-59
2.1856012e-59
2.185685746e-59
2.185833141e-59
2.186074834e-59
2.18645257e-59
2.187019067e-59
2.187837395e-59
2.188978629e-59
2.19051764e-59
2.192527239e-59
2.195071372e-59
2.198198386e-59
2.198188966e-59
2.195060973e-59
2.192514883e-59
2.190502376e-59
2.18895954e-59
2.187813604e-59
2.186989748e-59
2.186416951e-59
2.186032213e-59
2.185782904e-59
2.185627395e-59
2.185534392e-59
2.185481452e-59
2.185453181e-59
2.18543944e-59
2.1854338e-59
2.185432317e-59
2.185432651e-59
2.185433458e-59
2.185434017e-59
2.185434017e-59
2.185433458e-59
2.185432651e-59
2.185432317e-59
2.1854338e-59
2.18543944e-59
2.185453181e-59
2.185481452e-59
2.185534392e-59
2.185627395e-59
2.185782904e-59
2.186032213e-59
2.186416951e-59
2.186989748e-59
2.187813604e-59
2.18895954e-59
2.190502376e-59
2.192514883e-59
2.195060973e-59
2.198188966e-59
2.198188638e-59
2.195060237e-59
2.192513345e-59
2.190499669e-59
2.188955329e-59
2.187807592e-59
2.186981673e-59
2.186406587e-59
2.186019368e-59
2.185767419e-59
2.185609153e-59
2.185513321e-59
2.185457541e-59
2.185426486e-59
2.185410104e-59
2.185402057e-59
2.185398499e-59
2.18539718e-59
2.185396835e-59
2.185396804e-59
2.185396804e-59
2.185396835e-59
2.18539718e-59
2.185398499e-59
2.185402057e-59
2.185410104e-59
2.185426486e-59
2.185457541e-59
2.185513321e-59
2.185609153e-59
2.185767419e-59
2.186019368e-59
2.186406587e-59
2.186981673e-59
2.187807592e-59
2.188955329e-59
2.190499669e-59
2.192513345e-59
2.195060237e-59
2.198188638e-59
2.198197435e-59
2.195068732e-59
2.192521282e-59
2.190506847e-59
2.188961619e-59
2.187812937e-59
2.186986085e-59
2.18641013e-59
2.186022142e-59
2.185769542e-59
2.185610745e-59
2.185514496e-59
2.185458396e-59
2.185427103e-59
2.185410548e-59
2.185402378e-59
2.185398735e-59
2.185397359e-59
2.18539698e-59
2.185396932e-59
2.185396932e-59
2.18539698e-59
2.185397359e-59
2.185398735e-59
2.185402378e-59
2.185410548e-59
2.185427103e-59
2.185458396e-59
2.185514496e-59
2.185610745e-59
2.185769542e-59
2.186022142e-59
2.18641013e-59
2.186986085e-59
2.187812937e-59
2.188961619e-59
2.190506847e-59
2.192521282e-59
2.195068732e-59
2.198197435e-59
2.199904356e-59
2.196721028e-59
2.1940725e-59
2.19191998e-59
2.190211723e-59
2.188887939e-59
2.187885886e-59
2.187144423e-59
2.186607528e-59
2.186226525e-59
2.18596107e-59
2.185779116e-59
2.18565615e-59
2.185574055e-59
2.18551984e-59
2.185484438e-59
2.185461686e-59
2.185447501e-59
2.185439292e-59
2.185435537e-59
2.185435537e-59
2.185439292e-59
2.185447501e-59
2.185461686e-59
2.185484438e-59
2.18551984e-59
2.185574055e-59
2.18565615e-59
2.185779116e-59
2.18596107e-59
2.186226525e-59
2.186607528e-59
2.187144423e-59
2.187885886e-59
2.188887939e-59
2.190211723e-59
2.19191998e-59
2.1940725e-59
2.196721028e-59
2.199904356e-59
2.201154511e-59
2.197933335e-59
2.195214687e-59
2.192965991e-59
2.191143503e-59
2.189696069e-59
2.188569124e-59
2.187708387e-59
2.187062863e-59
2.186586935e-59
2.186241513e-59
2.185994357e-59
2.185819772e-59
2.185697892e-59
2.185613785e-59
2.185556505e-59
2.185518239e-59
2.18549357e-59
2.185478912e-59
2.185472093e-59
2.185472093e-59
2.185478912e-59
2.18549357e-59
2.185518239e-59
2.185556505e-59
2.185613785e-59
2.185697892e-59
2.185819772e-59
2.185994357e-59
2.186241513e-59
2.186586935e-59
2.187062863e-59
2.187708387e-59
2.188569124e-59
2.189696069e-59
2.191143503e-59
2.192965991e-59
2.195214687e-59
2.197933335e-59
2.201154511e-59
2.201974372e-59
2.198729345e-59
2.195966476e-59
2.193656958e-59
2.191761923e-59
2.190235531e-59
2.189028311e-59
2.188090325e-59
2.187373851e-59
2.186835355e-59
2.186436712e-59
2.18614573e-59
2.1859361e-59
2.185786947e-59
2.185682158e-59
2.185609615e-59
2.185560448e-59
2.185528368e-59
2.185509132e-59
2.185500133e-59
2.185500133e-59
2.185509132e-59
2.185528368e-59
2.185560448e-59
2.185609615e-59
2.185682158e-59
2.185786947e-59
2.1859361e-59
2.18614573e-59
2.186436712e-59
2.186835355e-59
2.187373851e-59
2.188090325e-59
2.189028311e-59
2.190235531e-59
2.191761923e-59
2.193656958e-59
2.195966476e-59
2.198729345e-59
2.201974372e-59
2.202380369e-59
2.199123812e-59
2.196339555e-59
2.194000572e-59
2.192070304e-59
2.190505442e-59
2.189258957e-59
2.188283018e-59
2.187531512e-59
2.186961956e-59
2.186536745e-59
2.186223758e-59
2.185996429e-59
2.185833424e-59
2.185718075e-59
2.185637701e-59
2.185582916e-59
2.185547005e-59
2.185525396e-59
2.185515265e-59
2.185515265e-59
2.185525396e-59
2.185547005e-59
2.185582916e-59
2.185637701e-59
2.185718075e-59
2.185833424e-59
2.185996429e-59
2.186223758e-59
2.186536745e-59
2.186961956e-59
2.187531512e-59
2.188283018e-59
2.189258957e-59
2.190505442e-59
2.192070304e-59
2.194000572e-59
2.196339555e-59
2.199123812e-59
2.202380369e-59
2.894575607e-59
2.952067527e-59
3.075569425e-59
3.273129729e-59
3.558360986e-59
3.952362197e-59
4.486717774e-59
5.207967257e-59
6.184002767e-59
7.51272471e-59
9.332632776e-59
1.183313722e-58
1.525798606e-58
1.988684279e-58
2.596846216e-58
3.357388149e-58
4.236651937e-58
5.137853008e-58
5.900616865e-58
6.343715665e-58
6.343715663e-58
5.900616875e-58
5.137853055e-58
4.236652026e-58
3.357388253e-58
2.596846291e-58
1.988684291e-58
1.525798541e-58
1.183313581e-58
9.332630764e-59
7.512722263e-59
6.184000064e-59
5.207964452e-59
4.486714992e-59
3.952359526e-59
3.558358477e-59
3.273127398e-59
3.075567257e-59
2.952065482e-59
2.894573626e-59
2.515064271e-59
2.537454555e-59
2.587157212e-59
2.665685784e-59
2.775563139e-59
2.920537306e-59
3.105846832e-59
3.338498657e-59
3.627483867e-59
3.983792454e-59
4.419989596e-59
4.948981735e-59
5.581452552e-59
6.321378721e-59
7.159289904e-59
8.063957607e-59
8.975315568e-59
9.803931688e-59
1.044277089e-58
1.079248396e-58
1.0792484e-58
1.044277102e-58
9.80393189e-59
8.975315833e-59
8.063957895e-59
7.159290159e-59
6.321378884e-59
5.581452576e-59
4.948981591e-59
4.419989277e-59
3.983791971e-59
3.627483248e-59
3.338497936e-59
3.105846049e-59
2.920536497e-59
2.775562334e-59
2.665685003e-59
2.587156462e-59
2.537453831e-59
2.515063564e-59
2.343668654e-59
2.351767909e-59
2.372032991e-59
2.404711475e-59
2.450242731e-59
2.509290921e-59
2.582767903e-59
2.671826684e-59
2.777799232e-59
2.902045483e-59
3.045676164e-59
3.209114999e-59
3.391482248e-59
3.589821674e-59
3.798272577e-59
4.007419432e-59
4.204205347e-59
4.37285561e-59
4.497054106e-59
4.563093848e-59
4.563093861e-59
4.497054145e-59
4.372855673e-59
4.20420543e-59
4.007419527e-59
3.79827267e-59
3.589821748e-59
3.391482288e-59
3.209114992e-59
3.045676102e-59
2.902045363e-59
2.777799058e-59
2.671826465e-59
2.582767651e-59
2.50929065e-59
2.450242451e-59
2.404711197e-59
2.37203272e-59
2.351767644e-59
2.343668394e-59
2.2643719e-59
2.266231044e-59
2.273779605e-59
2.287016537e-59
2.305967912e-59
2.330696221e-59
2.361302614e-59
2.397914611e-59
2.44065111e-59
2.489557023e-59
2.544502441e-59
2.605046976e-59
2.670279061e-59
2.738652694e-59
2.807859814e-59
2.874793181e-59
2.935664258e-59
2.986326476e-59
3.022801347e-59
3.041920693e-59
3.041920698e-59
3.022801362e-59
2.9863265e-59
2.93566429e-59
2.874793218e-59
2.807859853e-59
2.738652728e-59
2.670279085e-59
2.605046985e-59
2.544502431e-59
2.489556991e-59
2.440651058e-59
2.39791454e-59
2.36130253e-59
2.330696127e-59
2.305967813e-59
2.287016437e-59
2.273779506e-59
2.266230948e-59
2.264371805e-59
2.227748684e-59
2.226816617e-59
2.228707382e-59
2.233375406e-59
2.240767667e-59
2.250829776e-59
2.263508869e-59
2.278750033e-59
2.296483329e-59
2.316599346e-59
2.338913048e-59
2.363118409e-59
2.388739877e-59
2.41509042e-59
2.441249146e-59
2.466073185e-59
2.488257007e-59
2.506445062e-59
2.519389319e-59
2.526125149e-59
2.526125151e-59
2.519389326e-59
2.506445072e-59
2.48825702e-59
2.466073201e-59
2.441249163e-59
2.415090436e-59
2.38873989e-59
2.363118417e-59
2.338913049e-59
2.316599339e-59
2.296483313e-59
2.27875001e-59
2.26350884e-59
2.250829744e-59
2.240767632e-59
2.233375371e-59
2.228707347e-59
2.226816583e-59
2.22774865e-59
2.211089376e-59
2.208910949e-59
2.208281793e-59
2.20915086e-59
2.211452587e-59
2.215112871e-59
2.220053723e-59
2.22619482e-59
2.233450541e-59
2.241721807e-59
2.250883045e-59
2.260765853e-59
2.271142297e-59
2.281711942e-59
2.292097334e-59
2.301852482e-59
2.310487459e-59
2.317509342e-59
2.322475346e-59
2.325049269e-59
2.32504927e-59
2.322475349e-59
2.317509347e-59
2.310487464e-59
2.301852488e-59
2.292097341e-59
2.281711949e-59
2.271142304e-59
2.260765857e-59
2.250883047e-59
2.241721806e-59
2.233450536e-59
2.226194813e-59
2.220053714e-59
2.21511286e-59
2.211452575e-59
2.209150847e-59
2.208281781e-59
2.208910937e-59
2.211089364e-59
2.203675546e-59
2.200948977e-59
2.199212901e-59
2.198416944e-59
2.198494989e-59
2.199371436e-59
2.200966963e-59
2.203202505e-59
2.206000533e-59
2.209283296e-59
2.212968329e-59
2.216962134e-59
2.221153561e-59
2.225408711e-59
2.229569299e-59
2.233456059e-59
2.236878062e-59
2.239647634e-59
2.2415991e-59
2.242608193e-59
2.242608193e-59
2.241599101e-59
2.239647636e-59
2.236878064e-59
2.233456062e-59
2.229569302e-59
2.225408714e-59
2.221153563e-59
2.216962136e-59
2.21296833e-59
2.209283297e-59
2.206000532e-59
2.203202503e-59
2.20096696e-59
2.199371432e-59
2.198494985e-59
2.19841694e-59
2.199212897e-59
2.200948973e-59
2.203675542e-59
2.200457898e-59
2.197495442e-59
2.195283281e-59
2.193772005e-59
2.19289638e-59
2.192581839e-59
2.192750817e-59
2.193327816e-59
2.194242448e-59
2.195430192e-59
2.19683112e-59
2.19838718e-59
2.200038959e-59
2.201722894e-59
2.203369855e-59
2.204905775e-59
2.206254615e-59
2.207343456e-59
2.208109003e-59
2.208504302e-59
2.208504302e-59
2.208109003e-59
2.207343457e-59
2.206254616e-59
2.204905776e-59
2.203369856e-59
2.201722895e-59
2.20003896e-59
2.198387181e-59
2.196831121e-59
2.195430193e-59
2.194242447e-59
2.193327816e-59
2.192750816e-59
2.192581838e-59
2.192896379e-59
2.193772004e-59
2.19528328e-59
2.197495441e-59
2.200457897e-59
2.199097968e-59
2.196036464e-59
2.193624452e-59
2.191813087e-59
2.190537781e-59
2.189724831e-59
2.189298027e-59
2.189184187e-59
2.189316912e-59
2.189638341e-59
2.190099073e-59
2.190656772e-59
2.191274082e-59
2.191916537e-59
2.192550999e-59
2.193145009e-59
2.19366718e-59
2.194088552e-59
2.194384588e-59
2.194537352e-59
2.194537352e-59
2.194384588e-59
2.194088552e-59
2.19366718e-59
2.193145009e-59
2.192551e-59
2.191916537e-59
2.191274082e-59
2.190656772e-59
2.190099074e-59
2.189638341e-59
2.189316912e-59
2.189184187e-59
2.189298027e-59
2.18972483e-59
2.19053778e-59
2.191813086e-59
2.193624452e-59
2.196036464e-59
2.199097968e-59
2.198538772e-59
2.19543672e-59
2.19294291e-59
2.19100877e-59
2.189570059e-59
2.188553553e-59
2.187883779e-59
2.187488744e-59
2.187303984e-59
2.187274687e-59
2.187356078e-59
2.187512485e-59
2.187715665e-59
2.18794291e-59
2.188175371e-59
2.18839686e-59
2.188593232e-59
2.188752323e-59
2.188864278e-59
2.188922085e-59
2.188922085e-59
2.188864278e-59
2.188752323e-59
2.188593232e-59
2.18839686e-59
2.188175372e-59
2.187942911e-59
2.187715665e-59
2.187512485e-59
2.187356078e-59
2.187274687e-59
2.187303984e-59
2.187488744e-59
2.187883779e-59
2.188553553e-59
2.189570059e-59
2.19100877e-59
2.192942909e-59
2.19543672e-59
2.198538772e-59
2.198315515e-59
2.195197266e-59
2.192670792e-59
2.190687648e-59
2.18918376e-59
2.188086139e-59
2.187319668e-59
2.186812912e-59
2.186502273e-59
2.18633426e-59
2.18626604e-59
2.18626467e-59
2.186305559e-59
2.186370636e-59
2.186446603e-59
2.186523523e-59
2.186593809e-59
2.186651629e-59
2.186692632e-59
2.186713878e-59
2.186713878e-59
2.186692632e-59
2.186651629e-59
2.186593809e-59
2.186523523e-59
2.186446603e-59
2.186370636e-59
2.186305559e-59
2.18626467e-59
2.18626604e-59
2.18633426e-59
2.186502273e-59
2.186812912e-59
2.187319668e-59
2.188086139e-59
2.18918376e-59
2.190687648e-59
2.192670792e-59
2.195197266e-59
2.198315515e-59
2.198229592e-59
2.19510501e-59
2.19256577e-59
2.190563489e-59
2.189034176e-59
2.187904955e-59
2.187100877e-59
2.186550754e-59
2.18619136e-59
2.185969753e-59
2.185843886e-59
2.185781897e-59
2.185760617e-59
2.185763755e-59
2.185780122e-59
2.185802129e-59
2.185824634e-59
2.185844152e-59
2.185858358e-59
2.185865809e-59
2.185865809e-59
2.185858358e-59
2.185844152e-59
2.185824634e-59
2.185802129e-59
2.185780122e-59
2.185763755e-59
2.185760617e-59
2.185781897e-59
2.185843886e-59
2.185969753e-59
2.18619136e-59
2.186550754e-59
2.187100877e-59
2.187904955e-59
2.189034176e-59
2.190563489e-59
2.19256577e-59
2.19510501e-59
2.198229592e-59
2.198198591e-59
2.195071557e-59
2.192527385e-59
2.190517727e-59
2.188978638e-59
2.187837305e-59
2.187018859e-59
2.186452225e-59
2.186074333e-59
2.185832463e-59
2.185684875e-59
2.185600123e-59
2.185555573e-59
2.185535597e-59
2.185529785e-59
2.185531408e-59
2.185536216e-59
2.185541573e-59
2.185545884e-59
2.185548245e-59
2.185548245e-59
2.185545884e-59
2.185541573e-59
2.185536216e-59
2.185531408e-59
2.185529785e-59
2.185535597e-59
2.185555573e-59
2.185600123e-59
2.185684875e-59
2.185832463e-59
2.186074333e-59
2.186452225e-59
2.187018859e-59
2.187837305e-59
2.188978638e-59
2.190517727e-59
2.192527385e-59
2.195071557e-59
2.198198591e-59
2.19818935e-59
2.195061349e-59
2.192515245e-59
2.190502715e-59
2.18895985e-59
2.187813879e-59
2.186989979e-59
2.186417132e-59
2.186032337e-59
2.185782964e-59
2.185627386e-59
2.185534308e-59
2.18548129e-59
2.18545294e-59
2.185439122e-59
2.18543341e-59
2.185431864e-59
2.185432146e-59
2.185432917e-59
2.185433458e-59
2.185433458e-59
2.185432917e-59
2.185432146e-59
2.185431864e-59
2.18543341e-59
2.185439122e-59
2.18545294e-59
2.18548129e-59
2.185534308e-59
2.185627386e-59
2.185782964e-59
2.186032337e-59
2.186417132e-59
2.186989979e-59
2.187813879e-59
2.18895985e-59
2.190502715e-59
2.192515245e-59
2.195061349e-59
2.19818935e-59
2.198189084e-59
2.195060679e-59
2.192513781e-59
2.190500094e-59
2.188955742e-59
2.187807988e-59
2.18698205e-59
2.186406942e-59
2.186019697e-59
2.18576772e-59
2.185609423e-59
2.185513559e-59
2.185457744e-59
2.185426655e-59
2.18541024e-59
2.185402162e-59
2.185398576e-59
2.185397235e-59
2.185396875e-59
2.185396835e-59
2.185396835e-59
2.185396875e-59
2.185397235e-59
2.185398576e-59
2.185402162e-59
2.18541024e-59
2.185426655e-59
2.185457744e-59
2.185513559e-59
2.185609423e-59
2.18576772e-59
2.186019697e-59
2.186406942e-59
2.18698205e-59
2.187807988e-59
2.188955742e-59
2.190500094e-59
2.192513781e-59
2.195060679e-59
2.198189084e-59
2.198197896e-59
2.195069189e-59
2.192521732e-59
2.190507287e-59
2.188962046e-59
2.187813348e-59
2.186986477e-59
2.1864105e-59
2.186022486e-59
2.185769858e-59
2.185611031e-59
2.185514749e-59
2.185458615e-59
2.185427288e-59
2.1854107e-59
2.185402498e-59
2.185398828e-59
2.18539743e-59
2.185397036e-59
2.18539698e-59
2.18539698e-59
2.185397036e-59
2.18539743e-59
2.185398828e-59
2.185402498e-59
2.1854107e-59
2.185427288e-59
2.185458615e-59
2.185514749e-59
2.185611031e-59
2.185769858e-59
2.186022486e-59
2.1864105e-59
2.186986477e-59
2.187813348e-59
2.188962046e-59
2.190507287e-59
2.192521732e-59
2.195069189e-59
2.198197896e-59
2.19990838e-59
2.196725045e-59
2.194076509e-59
2.191923979e-59
2.190215711e-59
2.188891915e-59
2.187889848e-59
2.187148371e-59
2.186611459e-59
2.186230438e-59
2.185964965e-59
2.185782991e-59
2.185660005e-59
2.185577889e-59
2.185523654e-59
2.185488235e-59
2.185465466e-59
2.185451269e-59
2.185443051e-59
2.185439292e-59
2.185439292e-59
2.185443051e-59
2.185451269e-59
2.185465466e-59
2.185488235e-59
2.185523654e-59
2.185577889e-59
2.185660005e-59
2.185782991e-59
2.185964965e-59
2.186230438e-59
2.186611459e-59
2.187148371e-59
2.187889848e-59
2.188891915e-59
2.190215711e-59
2.191923979e-59
2.194076509e-59
2.196725045e-59
2.19990838e-59
2.201161527e-59
2.19794034e-59
2.195221681e-59
2.192972974e-59
2.191150475e-59
2.18970303e-59
2.188576075e-59
2.187715327e-59
2.187069791e-59
2.186593851e-59
2.186248417e-59
2.186001249e-59
2.18582665e-59
2.185704758e-59
2.185620639e-59
2.185563349e-59
2.185525073e-59
2.185500396e-59
2.185485733e-59
2.185478911e-59
2.185478911e-59
2.185485733e-59
2.185500396e-59
2.185525073e-59
2.185563349e-59
2.185620639e-59
2.185704758e-59
2.18582665e-59
2.186001249e-59
2.186248417e-59
2.186593851e-59
2.187069791e-59
2.187715327e-59
2.188576075e-59
2.18970303e-59
2.191150475e-59
2.192972974e-59
2.195221681e-59
2.19794034e-59
2.201161527e-59
2.201983535e-59
2.198738495e-59
2.195975612e-59
2.193666082e-59
2.191771036e-59
2.190244634e-59
2.189037404e-59
2.188099409e-59
2.187382926e-59
2.18684442e-59
2.186445768e-59
2.186154777e-59
2.185945138e-59
2.185795976e-59
2.18569118e-59
2.18561863e-59
2.185569456e-59
2.185537372e-59
2.185518132e-59
2.185509132e-59
2.185509132e-59
2.185518132e-59
2.185537372e-59
2.185569456e-59
2.18561863e-59
2.18569118e-59
2.185795976e-59
2.185945138e-59
2.186154777e-59
2.186445768e-59
2.18684442e-59
2.187382926e-59
2.188099409e-59
2.189037404e-59
2.190244634e-59
2.191771036e-59
2.193666082e-59
2.195975612e-59
2.198738495e-59
2.201983535e-59
2.202390652e-59
2.19913408e-59
2.196349809e-59
2.194010812e-59
2.192080533e-59
2.190515661e-59
2.189269166e-59
2.188293218e-59
2.187541704e-59
2.18697214e-59
2.186546921e-59
2.186233927e-59
2.18600659e-59
2.185843579e-59
2.185728224e-59
2.185647844e-59
2.185593054e-59
2.185557139e-59
2.185535528e-59
2.185525396e-59
2.185525396e-59
2.185535528e-59
2.185557139e-59
2.185593054e-59
2.185647844e-59
2.185728224e-59
2.185843579e-59
2.18600659e-59
2.186233927e-59
2.186546921e-59
2.18697214e-59
2.187541704e-59
2.188293218e-59
2.189269166e-59
2.190515661e-59
2.192080533e-59
2.194010812e-59
2.196349809e-59
2.19913408e-59
2.202390652e-59
2.871820797e-59
2.927113977e-59
3.04591656e-59
3.235683426e-59
3.508977165e-59
3.885158745e-59
4.392989858e-59
5.07444233e-59
5.990019605e-59
7.225711702e-59
8.901038979e-59
1.117592672e-58
1.42504846e-58
1.834529437e-58
2.364177929e-58
3.016093991e-58
3.758420538e-58
4.50915718e-58
5.137938455e-58
5.500767473e-58
5.500767576e-58
5.137938748e-58
4.509157607e-58
3.758421024e-58
3.016094457e-58
2.364178312e-58
1.834529705e-58
1.425048607e-58
1.117592708e-58
8.901038451e-59
7.225710512e-59
5.990017967e-59
5.074440428e-59
4.392987838e-59
3.885156713e-59
3.508975192e-59
3.235681547e-59
3.04591478e-59
2.927112277e-59
2.871819139e-59
2.505385696e-59
2.526955087e-59
2.57494739e-59
2.650759186e-59
2.756714386e-59
2.896251939e-59
3.074150601e-59
3.296752634e-59
3.572113159e-59
3.909943859e-59
4.3211346e-59
4.816527426e-59
5.4045101e-59
6.086976062e-59
6.853470581e-59
7.674248902e-59
8.494719754e-59
9.235693175e-59
9.803982713e-59
1.011404573e-58
1.011404585e-58
9.803983062e-59
9.235693708e-59
8.494720408e-59
7.674249595e-59
6.853471232e-59
6.0869766e-59
5.404510475e-59
4.81652761e-59
4.321134587e-59
3.909943662e-59
3.572112806e-59
3.296752158e-59
3.07415004e-59
2.896251329e-59
2.756713756e-59
2.650758558e-59
2.574946775e-59
2.526954488e-59
2.505385105e-59
2.339382497e-59
2.347144294e-59
2.366716077e-59
2.39831957e-59
2.442350189e-59
2.499405162e-59
2.570300765e-59
2.656060457e-59
2.757849672e-59
2.876827106e-59
3.013879568e-59
3.169211872e-59
3.341780784e-59
3.52860096e-59
3.724023041e-59
3.91919649e-59
4.102054602e-59
4.258197625e-59
4.37286396e-59
4.433727935e-59
4.433727963e-59
4.372864041e-59
4.258197754e-59
4.102054766e-59
3.919196674e-59
3.724023227e-59
3.528601128e-59
3.341780917e-59
3.169211956e-59
3.013879594e-59
2.876827073e-59
2.757849582e-59
2.656060318e-59
2.570300588e-59
2.49940496e-59
2.442349972e-59
2.398319348e-59
2.366715856e-59
2.347144076e-59
2.339382281e-59
2.262459422e-59
2.264174033e-59
2.271427839e-59
2.284213598e-59
2.302546551e-59
2.326472572e-59
2.356069391e-59
2.391433913e-59
2.432648143e-59
2.479716828e-59
2.532472537e-59
2.590449424e-59
2.6527357e-59
2.717826578e-59
2.783513506e-59
2.846859518e-59
2.904317407e-59
2.952033081e-59
2.986328847e-59
3.0042871e-59
3.004287109e-59
2.986328874e-59
2.952033124e-59
2.904317463e-59
2.846859583e-59
2.783513573e-59
2.717826642e-59
2.652735754e-59
2.590449463e-59
2.532472557e-59
2.479716827e-59
2.43264812e-59
2.391433871e-59
2.356069333e-59
2.326472503e-59
2.302546475e-59
2.284213519e-59
2.271427759e-59
2.264173954e-59
2.262459344e-59
2.226903879e-59
2.22590939e-59
2.227673335e-59
2.232148547e-59
2.239279083e-59
2.249005986e-59
2.261269957e-59
2.276007868e-59
2.293140401e-59
2.312548966e-59
2.33404182e-59
2.35731187e-59
2.381891994e-59
2.407117117e-59
2.432105164e-59
2.45577029e-59
2.476880045e-59
2.494161196e-59
2.506445939e-59
2.512834031e-59
2.512834035e-59
2.506445949e-59
2.494161212e-59
2.476880066e-59
2.455770315e-59
2.432105191e-59
2.407117144e-59
2.381892018e-59
2.357311888e-59
2.334041831e-59
2.312548969e-59
2.293140396e-59
2.276007856e-59
2.261269938e-59
2.249005963e-59
2.239279057e-59
2.232148519e-59
2.227673307e-59
2.225909362e-59
2.226903851e-59
2.210723399e-59
2.208518262e-59
2.20783495e-59
2.208621974e-59
2.210812929e-59
2.214332358e-59
2.219100369e-59
2.22503426e-59
2.23204584e-59
2.240033821e-59
2.248871637e-59
2.258392226e-59
2.268372569e-59
2.278521876e-59
2.28847783e-59
2.297815061e-59
2.306068639e-59
2.312772625e-59
2.317509702e-59
2.319963654e-59
2.319963655e-59
2.317509706e-59
2.312772632e-59
2.306068648e-59
2.297815071e-59
2.288477841e-59
2.278521887e-59
2.268372579e-59
2.258392234e-59
2.248871643e-59
2.240033823e-59
2.232045839e-59
2.225034257e-59
2.219100363e-59
2.21433235e-59
2.21081292e-59
2.208621965e-59
2.20783494e-59
2.208518252e-59
2.210723389e-59
2.203520956e-59
2.200783165e-59
2.199024359e-59
2.19819404e-59
2.198225834e-59
2.199043723e-59
2.200567804e-59
2.202718298e-59