/*--------------------------------*- C++ -*----------------------------------*\
  =========                 |
  \\      /  F ield         | OpenFOAM: The Open Source CFD Toolbox
   \\    /   O peration     | Website:  https://openfoam.org
    \\  /    A nd           | Version:  6
     \\/     M anipulation  |
\*---------------------------------------------------------------------------*/
FoamFile
{
    version     2.0;
    format      ascii;
    class       volVectorField;
    location    "0.0005";
    object      gradT;
}
// * * * * * * * * * * * * * * * * * * * * * * * * * * * * * * * * * * * * * //

dimensions      [0 -1 0 1 0 0 0];

internalField   nonuniform List<vector> 
57600
(
(0 -7.623296358e-09 -5.637427656e-06)
(0 -1.905824101e-08 -5.664109228e-06)
(0 -3.811648179e-08 -5.721283916e-06)
(0 -4.573977815e-08 -5.808951824e-06)
(0 -6.098637123e-08 -5.915678009e-06)
(0 -8.004461175e-08 -6.064332252e-06)
(0 -9.147955629e-08 -6.232044772e-06)
(0 -1.067261496e-07 -6.426438868e-06)
(0 -1.257843899e-07 -6.658949368e-06)
(0 -1.410309826e-07 -6.925764741e-06)
(0 -1.524659281e-07 -7.219261694e-06)
(0 -1.71524168e-07 -7.543251746e-06)
(0 -1.867707608e-07 -7.893923378e-06)
(0 -2.020173547e-07 -8.282711542e-06)
(0 -2.172639462e-07 -8.713427737e-06)
(0 -2.363221871e-07 -9.163202222e-06)
(0 -2.553804295e-07 -9.658716543e-06)
(0 -2.744386689e-07 -1.018853558e-05)
(0 -2.973085579e-07 -1.076409446e-05)
(0 -3.163668007e-07 -1.137014659e-05)
(0 -3.392366879e-07 -1.202193836e-05)
(0 -3.544832806e-07 -1.271184668e-05)
(0 -3.735415238e-07 -1.344368321e-05)
(0 -3.964114106e-07 -1.421363606e-05)
(0 -4.192812997e-07 -1.503695207e-05)
(0 -4.459628396e-07 -1.589838465e-05)
(0 -4.726443742e-07 -1.681318012e-05)
(0 -4.917026151e-07 -1.777752711e-05)
(0 -5.145725072e-07 -1.878380234e-05)
(0 -5.412540414e-07 -1.984725207e-05)
(0 -5.75558875e-07 -2.095644169e-05)
(0 -5.946171195e-07 -2.212661781e-05)
(0 -6.289219495e-07 -2.335396839e-05)
(0 -6.479801904e-07 -2.463468218e-05)
(0 -6.822850281e-07 -2.59611359e-05)
(0 -7.165898576e-07 -2.735619898e-05)
(0 -7.394597467e-07 -2.880843694e-05)
(0 -7.661412885e-07 -3.031403815e-05)
(0 -8.004461175e-07 -3.189206031e-05)
(0 -8.347509512e-07 -3.352344573e-05)
(0 -8.652441418e-07 -3.522344103e-05)
(0 -8.95737322e-07 -3.698442228e-05)
(0 -9.300421556e-07 -3.881020176e-05)
(0 -9.605353468e-07 -4.069696785e-05)
(0 -9.910285265e-07 -4.265615477e-05)
(0 -1.029145008e-06 -4.46763283e-05)
(0 -1.055826552e-06 -4.676130014e-05)
(0 -1.093943027e-06 -4.891869273e-05)
(0 -1.132059509e-06 -5.114088361e-05)
(0 -1.158741053e-06 -5.342787284e-05)
(0 -1.19304588e-06 -5.57834711e-05)
(0 -1.215915769e-06 -5.819624439e-05)
(0 -1.25022061e-06 -6.066619278e-05)
(0 -1.280713788e-06 -6.320093845e-05)
(0 -1.311206976e-06 -6.580048263e-05)
(0 -1.34551181e-06 -6.845338981e-05)
(0 -1.368381699e-06 -7.116728327e-05)
(0 -1.395063236e-06 -7.393453986e-05)
(0 -1.417933126e-06 -7.674372462e-05)
(0 -1.436991366e-06 -7.960627236e-05)
(0 -1.456049607e-06 -8.249931333e-05)
(0 -1.471296201e-06 -8.543047084e-05)
(0 -1.482731144e-06 -8.839593307e-05)
(0 -1.494166089e-06 -9.137283031e-05)
(0 -1.49416609e-06 -9.436497419e-05)
(0 -1.497977737e-06 -9.73685529e-05)
(0 -1.497977734e-06 -0.0001003606965)
(0 -1.478919502e-06 -0.000103341406)
(0 -1.463672901e-06 -0.0001062992444)
(0 -1.440803012e-06 -0.0001092151553)
(0 -1.417933131e-06 -0.0001120738921)
(0 -1.383628289e-06 -0.0001148868878)
(0 -1.341700159e-06 -0.0001176198395)
(0 -1.288337092e-06 -0.0001202498775)
(0 -1.23497401e-06 -0.0001227846228)
(0 -1.166364343e-06 -0.0001251973961)
(0 -1.097754682e-06 -0.0001274691392)
(0 -1.02533336e-06 -0.0001296036614)
(0 -9.414771002e-07 -0.0001315742835)
(0 -8.461859008e-07 -0.0001333619473)
(0 -7.47083043e-07 -0.000134970462)
(0 -6.441685422e-07 -0.0001363655252)
(0 -5.336307482e-07 -0.0001375433254)
(0 -4.154696515e-07 -0.0001385000482)
(0 -2.934969098e-07 -0.0001392166381)
(0 -1.677125209e-07 -0.0001396778483)
(0 -3.811648179e-08 -0.0001398951115)
(0 9.910285265e-08 -0.0001398341251)
(0 2.286988921e-07 -0.0001395139475)
(0 3.697298733e-07 -0.0001389117062)
(0 5.183841523e-07 -0.0001380235922)
(0 6.556034907e-07 -0.0001368496054)
(0 8.042577657e-07 -0.0001353897433)
(0 9.567236929e-07 -0.0001336363851)
(0 1.093943034e-06 -0.0001315857192)
(0 1.242597306e-06 -0.0001292453664)
(0 1.395063233e-06 -0.0001266077059)
(0 1.536094225e-06 -0.0001236651143)
(0 1.680936847e-06 -0.0001204480824)
(0 1.825779478e-06 -0.0001169337428)
(0 1.959187176e-06 -0.0001131487769)
(0 2.096406498e-06 -0.0001090855592)
(0 2.229814185e-06 -0.0001047593385)
(0 2.347975292e-06 -0.0001001701147)
(0 2.477571316e-06 -9.53331326e-05)
(0 2.59573241e-06 -9.025601723e-05)
(0 2.698646927e-06 -8.495782677e-05)
(0 2.801561411e-06 -7.944999464e-05)
(0 2.904475912e-06 -7.373252237e-05)
(0 2.992143838e-06 -6.782827975e-05)
(0 3.072188432e-06 -6.175251214e-05)
(0 3.152233044e-06 -5.552046737e-05)
(0 3.22084273e-06 -4.913214532e-05)
(0 3.28564073e-06 -4.261803829e-05)
(0 3.342815453e-06 -3.598577046e-05)
(0 3.384743603e-06 -2.9242965e-05)
(0 3.426671713e-06 -2.242011459e-05)
(0 3.468599843e-06 -1.551721974e-05)
(0 3.487658105e-06 -8.557150213e-06)
(0 1.749546514e-06 -1.555152457e-06)
(0 0 -1.555152429e-06)
(0 3.811648339e-09 -1.555152522e-06)
(0 7.62329622e-09 -1.539905837e-06)
(0 3.81164811e-09 -1.528470892e-06)
(0 7.623296678e-09 -1.505601094e-06)
(0 1.905824055e-08 -1.482731115e-06)
(0 1.905824055e-08 -1.448426282e-06)
(0 1.524659336e-08 -1.410309885e-06)
(0 2.286988866e-08 -1.37219332e-06)
(0 2.286988866e-08 -1.33026519e-06)
(0 1.905824169e-08 -1.288337139e-06)
(0 3.049318488e-08 -1.238785636e-06)
(0 2.286988866e-08 -1.18923421e-06)
(0 2.286989003e-08 -1.143494502e-06)
(0 2.668153677e-08 -1.086319711e-06)
(0 2.668153677e-08 -1.032956638e-06)
(0 2.668153837e-08 -9.757819748e-07)
(0 3.049318488e-08 -9.186071946e-07)
(0 3.049318488e-08 -8.65244121e-07)
(0 2.668153837e-08 -8.004461512e-07)
(0 2.286988866e-08 -7.508946777e-07)
(0 2.668153677e-08 -7.013432523e-07)
(0 2.286989003e-08 -6.517918659e-07)
(0 2.286988866e-08 -5.984287533e-07)
(0 2.668153677e-08 -5.565006241e-07)
(0 2.286989003e-08 -5.107608774e-07)
(0 2.286988866e-08 -4.650210694e-07)
(0 1.905824055e-08 -4.269045883e-07)
(0 1.524659336e-08 -3.887881306e-07)
(0 1.905824055e-08 -3.506716261e-07)
(0 1.905824055e-08 -3.163667931e-07)
(0 1.143494502e-08 -2.858736254e-07)
(0 1.524659244e-08 -2.515687753e-07)
(0 1.143494433e-08 -2.286988866e-07)
(0 1.143494502e-08 -2.02017362e-07)
(0 7.62329622e-09 -1.867707574e-07)
(0 1.143494433e-08 -1.639008687e-07)
(0 7.623296678e-09 -1.410309885e-07)
(0 7.62329622e-09 -1.257843876e-07)
(0 1.143494433e-08 -1.105377952e-07)
(0 3.811648339e-09 -9.529120847e-08)
(0 3.81164811e-09 -8.385625842e-08)
(0 7.62329622e-09 -7.242131409e-08)
(0 7.623296678e-09 -6.098637342e-08)
(0 3.81164811e-09 -5.336307354e-08)
(0 3.81164811e-09 -4.192812921e-08)
(0 7.623296678e-09 -3.430483505e-08)
(0 3.81164811e-09 -2.286988866e-08)
(0 3.81164811e-09 -1.524659244e-08)
(0 0 -1.524659336e-08)
(0 0 -1.524659244e-08)
(0 -3.81164811e-09 -1.143494433e-08)
(0 3.811648339e-09 -1.524659336e-08)
(0 3.81164811e-09 -7.62329622e-09)
(0 0 -3.81164811e-09)
(0 0 0)
(0 3.81164811e-09 0)
(0 -3.81164811e-09 0)
(0 0 -3.811648339e-09)
(0 0 -3.81164811e-09)
(0 0 -3.81164811e-09)
(0 0 -3.811648339e-09)
(0 0 -3.81164811e-09)
(0 3.81164811e-09 -3.81164811e-09)
(0 -3.811648339e-09 0)
(0 -3.81164811e-09 -7.62329622e-09)
(0 0 -1.143494433e-08)
(0 0 -7.623296678e-09)
(0 3.81164811e-09 -7.62329622e-09)
(0 -3.81164811e-09 -3.81164811e-09)
(0 0 -7.623296678e-09)
(0 3.81164811e-09 -7.62329622e-09)
(0 3.81164811e-09 0)
(0 0 0)
(0 0 0)
(0 -3.81164811e-09 0)
(0 0 0)
(0 0 3.81164811e-09)
(0 3.81164811e-09 3.81164811e-09)
(0 0 3.811648339e-09)
(0 0 0)
(0 -3.81164811e-09 0)
(0 0 -3.811648339e-09)
(0 -3.81164811e-09 -3.81164811e-09)
(0 3.81164811e-09 -3.81164811e-09)
(0 0 -3.811648339e-09)
(0 -3.81164811e-09 -3.81164811e-09)
(0 7.62329622e-09 -3.81164811e-09)
(0 3.811648339e-09 3.811648339e-09)
(0 -7.62329622e-09 7.62329622e-09)
(0 0 3.81164811e-09)
(0 0 0)
(0 -3.81164811e-09 -3.81164811e-09)
(0 3.81164811e-09 0)
(0 0 3.811648339e-09)
(0 0 3.81164811e-09)
(0 0 3.81164811e-09)
(0 0 3.811648339e-09)
(0 0 0)
(0 0 -3.81164811e-09)
(0 0 -3.811648339e-09)
(0 -3.81164811e-09 -3.81164811e-09)
(0 3.81164811e-09 -3.81164811e-09)
(0 0 0)
(0 0 -3.81164811e-09)
(0 0 -7.62329622e-09)
(0 0 -3.811648339e-09)
(0 0 -3.81164811e-09)
(0 0 -7.62329622e-09)
(0 0 -3.811648339e-09)
(0 0 0)
(0 0 -3.81164811e-09)
(0 0 -3.811648339e-09)
(0 -3.81164811e-09 0)
(0 3.81164811e-09 3.81164811e-09)
(0 0 3.811648339e-09)
(0 -3.81164811e-09 0)
(0 3.81164811e-09 0)
(0 0 0)
(0 0 -3.81164811e-09)
(0 -1.905824204e-08 -5.633616346e-06)
(0 -6.098637489e-08 -5.660297919e-06)
(0 -1.067261554e-07 -5.717472611e-06)
(0 -1.524659363e-07 -5.801328876e-06)
(0 -1.867707731e-07 -5.919490012e-06)
(0 -2.363222013e-07 -6.060520968e-06)
(0 -2.782503337e-07 -6.232045146e-06)
(0 -3.239901166e-07 -6.43406255e-06)
(0 -3.697298955e-07 -6.666573065e-06)
(0 -4.192813248e-07 -6.925765156e-06)
(0 -4.573978116e-07 -7.21163883e-06)
(0 -5.107608866e-07 -7.535628902e-06)
(0 -5.565006675e-07 -7.8977355e-06)
(0 -6.136753973e-07 -8.290335336e-06)
(0 -6.594151745e-07 -8.709616611e-06)
(0 -7.127782522e-07 -9.174637717e-06)
(0 -7.699529829e-07 -9.670152068e-06)
(0 -8.23316056e-07 -1.019997114e-05)
(0 -8.881140789e-07 -1.076790675e-05)
(0 -9.452888107e-07 -1.138158221e-05)
(0 -1.00627518e-06 -1.202956237e-05)
(0 -1.063449906e-06 -1.271947074e-05)
(0 -1.128247935e-06 -1.344749566e-05)
(0 -1.1968576e-06 -1.422507186e-05)
(0 -1.261655623e-06 -1.504457626e-05)
(0 -1.334076951e-06 -1.590982055e-05)
(0 -1.406498262e-06 -1.682461607e-05)
(0 -1.478919582e-06 -1.778896312e-05)
(0 -1.551340911e-06 -1.879905006e-05)
(0 -1.635197167e-06 -1.98663115e-05)
(0 -1.715241783e-06 -2.097931283e-05)
(0 -1.787663114e-06 -2.214948903e-05)
(0 -1.879142665e-06 -2.337302803e-05)
(0 -1.955375633e-06 -2.46461186e-05)
(0 -2.043043559e-06 -2.598400735e-05)
(0 -2.134523108e-06 -2.737907051e-05)
(0 -2.222191022e-06 -2.882749691e-05)
(0 -2.309858949e-06 -3.034453315e-05)
(0 -2.405150145e-06 -3.191493212e-05)
(0 -2.504253004e-06 -3.356156423e-05)
(0 -2.591920933e-06 -3.525393633e-05)
(0 -2.691023776e-06 -3.702254098e-05)
(0 -2.790126634e-06 -3.885213222e-05)
(0 -2.885417862e-06 -4.074271007e-05)
(0 -2.984520703e-06 -4.270189711e-05)
(0 -3.079811913e-06 -4.472969406e-05)
(0 -3.182726439e-06 -4.682228932e-05)
(0 -3.281829279e-06 -4.897968204e-05)
(0 -3.384743786e-06 -5.120568471e-05)
(0 -3.480035017e-06 -5.349267407e-05)
(0 -3.571514558e-06 -5.584446082e-05)
(0 -3.666805768e-06 -5.826485756e-05)
(0 -3.758285352e-06 -6.075005268e-05)
(0 -3.849764892e-06 -6.329623345e-05)
(0 -3.937432812e-06 -6.589196614e-05)
(0 -4.025100728e-06 -6.855630842e-05)
(0 -4.108956991e-06 -7.127020205e-05)
(0 -4.185189959e-06 -7.404127045e-05)
(0 -4.253799633e-06 -7.686570197e-05)
(0 -4.318597653e-06 -7.972824988e-05)
(0 -4.371960731e-06 -8.263653762e-05)
(0 -4.421512163e-06 -8.557913025e-05)
(0 -4.455816996e-06 -8.854459267e-05)
(0 -4.482498535e-06 -9.153673667e-05)
(0 -4.497745132e-06 -9.454412733e-05)
(0 -4.493933481e-06 -9.755532952e-05)
(0 -4.486310176e-06 -0.0001005627199)
(0 -4.452005367e-06 -0.0001035586762)
(0 -4.410077207e-06 -0.0001065279497)
(0 -4.337655888e-06 -0.0001094591073)
(0 -4.253799648e-06 -0.0001123445258)
(0 -4.154696764e-06 -0.000115165145)
(0 -4.028912367e-06 -0.0001179095318)
(0 -3.876446454e-06 -0.0001205624399)
(0 -3.712545549e-06 -0.0001231124319)
(0 -3.51815148e-06 -0.0001255404519)
(0 -3.304699189e-06 -0.0001278426884)
(0 -3.079811913e-06 -0.000129984834)
(0 -2.820619822e-06 -0.0001319668912)
(0 -2.546181151e-06 -0.0001337736133)
(0 -2.252684209e-06 -0.0001353859398)
(0 -1.940129039e-06 -0.0001367962497)
(0 -1.597080692e-06 -0.0001379892965)
(0 -1.254032326e-06 -0.000138949831)
(0 -8.843024305e-07 -0.0001396740442)
(0 -5.107608897e-07 -0.0001401543128)
(0 -1.181611006e-07 -0.0001403677643)
(0 2.820619822e-07 -0.0001403258361)
(0 6.937200143e-07 -0.0001400018468)
(0 1.116812983e-06 -0.0001394072289)
(0 1.543717605e-06 -0.0001385191148)
(0 1.970622238e-06 -0.0001373527512)
(0 2.412773442e-06 -0.000135892889)
(0 2.858736306e-06 -0.0001341357191)
(0 3.293264244e-06 -0.0001320850531)
(0 3.739227088e-06 -0.0001297294535)
(0 4.181378303e-06 -0.0001270841696)
(0 4.623529546e-06 -0.0001241453894)
(0 5.046622492e-06 -0.0001209092991)
(0 5.473527113e-06 -0.0001173911477)
(0 5.888996825e-06 -0.0001135909349)
(0 6.296843169e-06 -0.0001095124704)
(0 6.693254604e-06 -0.0001051710029)
(0 7.070607838e-06 -0.0001005589089)
(0 7.432714395e-06 -9.570286822e-05)
(0 7.783386048e-06 -9.061431759e-05)
(0 8.107376211e-06 -8.529706857e-05)
(0 8.423742981e-06 -7.975874293e-05)
(0 8.717239908e-06 -7.402983537e-05)
(0 8.98405535e-06 -6.810653415e-05)
(0 9.235624091e-06 -6.200789629e-05)
(0 9.471946293e-06 -5.574535796e-05)
(0 9.677775365e-06 -4.933797728e-05)
(0 9.86073443e-06 -4.280099997e-05)
(0 1.003607026e-05 -3.61420502e-05)
(0 1.017710131e-05 -2.93801861e-05)
(0 1.029526235e-05 -2.252684209e-05)
(0 1.04019885e-05 -1.560488858e-05)
(0 1.047059824e-05 -8.618137101e-06)
(0 5.252451506e-06 -1.593269034e-06)
(0 3.811648339e-09 -1.593269006e-06)
(0 1.14349457e-08 -1.585645804e-06)
(0 1.524659336e-08 -1.578022412e-06)
(0 2.668153837e-08 -1.558964171e-06)
(0 3.430483711e-08 -1.539906021e-06)
(0 4.192813173e-08 -1.509412742e-06)
(0 5.336307674e-08 -1.478919555e-06)
(0 5.717472851e-08 -1.440803159e-06)
(0 6.098637342e-08 -1.402686589e-06)
(0 6.86096701e-08 -1.360758457e-06)
(0 6.860967422e-08 -1.315018756e-06)
(0 6.86096701e-08 -1.265467249e-06)
(0 7.623296678e-08 -1.21591582e-06)
(0 7.623297135e-08 -1.162552813e-06)
(0 8.004461512e-08 -1.109189667e-06)
(0 8.385626346e-08 -1.052014942e-06)
(0 8.385626849e-08 -9.910286276e-07)
(0 8.766791179e-08 -9.376654914e-07)
(0 9.147956013e-08 -8.766791179e-07)
(0 7.623297135e-08 -8.271277392e-07)
(0 8.004461512e-08 -7.699529645e-07)
(0 7.623296678e-08 -7.127782394e-07)
(0 7.623297135e-08 -6.556035536e-07)
(0 7.242131844e-08 -6.098637342e-07)
(0 6.479802176e-08 -5.679356025e-07)
(0 6.479802565e-08 -5.183842052e-07)
(0 6.479802176e-08 -4.802676907e-07)
(0 6.098637342e-08 -4.345279106e-07)
(0 5.336307995e-08 -3.96411451e-07)
(0 5.717472508e-08 -3.582949439e-07)
(0 5.336307674e-08 -3.201784605e-07)
(0 4.573978281e-08 -2.896852911e-07)
(0 3.811648339e-08 -2.59192087e-07)
(0 4.192813173e-08 -2.286989003e-07)
(0 3.049318854e-08 -2.058290226e-07)
(0 3.430483505e-08 -1.791474719e-07)
(0 2.668153837e-08 -1.600892302e-07)
(0 2.668153997e-08 -1.448426456e-07)
(0 2.668153837e-08 -1.219727468e-07)
(0 2.286989003e-08 -1.105378018e-07)
(0 1.524659427e-08 -9.529121419e-08)
(0 2.286989003e-08 -8.385626346e-08)
(0 1.905824169e-08 -6.86096701e-08)
(0 1.524659427e-08 -6.098637708e-08)
(0 1.143494502e-08 -4.955142841e-08)
(0 1.524659336e-08 -3.811648339e-08)
(0 1.14349457e-08 -3.049318854e-08)
(0 1.143494502e-08 -2.286989003e-08)
(0 7.623296678e-09 -2.286989003e-08)
(0 0 -2.286989141e-08)
(0 3.811648339e-09 -1.524659336e-08)
(0 7.623296678e-09 -1.143494502e-08)
(0 0 -3.811648568e-09)
(0 3.811648339e-09 -1.143494502e-08)
(0 3.811648339e-09 -3.811648339e-09)
(0 3.811648568e-09 0)
(0 0 0)
(0 -3.811648339e-09 0)
(0 0 0)
(0 -3.811648339e-09 0)
(0 3.811648339e-09 0)
(0 0 0)
(0 0 0)
(0 0 0)
(0 0 -3.811648568e-09)
(0 -3.811648339e-09 0)
(0 -3.811648339e-09 0)
(0 0 -3.811648568e-09)
(0 3.811648339e-09 -3.811648339e-09)
(0 0 -7.623296678e-09)
(0 0 0)
(0 3.811648339e-09 3.811648339e-09)
(0 3.811648339e-09 0)
(0 0 0)
(0 0 0)
(0 0 0)
(0 0 0)
(0 3.811648339e-09 0)
(0 0 0)
(0 0 0)
(0 -3.811648339e-09 0)
(0 -3.811648339e-09 0)
(0 0 0)
(0 -3.811648339e-09 0)
(0 3.811648339e-09 -3.811648339e-09)
(0 0 0)
(0 0 0)
(0 3.811648339e-09 0)
(0 3.811648568e-09 0)
(0 3.811648339e-09 0)
(0 -7.623296678e-09 0)
(0 0 0)
(0 0 3.811648339e-09)
(0 3.811648339e-09 3.811648339e-09)
(0 0 0)
(0 0 3.811648339e-09)
(0 0 0)
(0 0 0)
(0 -7.623296678e-09 0)
(0 -3.811648339e-09 0)
(0 0 -3.811648568e-09)
(0 3.811648339e-09 0)
(0 3.811648339e-09 0)
(0 0 0)
(0 -7.623296678e-09 0)
(0 3.811648339e-09 0)
(0 0 0)
(0 -3.811648339e-09 0)
(0 3.811648339e-09 0)
(0 0 0)
(0 0 0)
(0 0 0)
(0 0 0)
(0 7.623296678e-09 3.811648339e-09)
(0 0 3.811648339e-09)
(0 0 0)
(0 -3.811648339e-09 0)
(0 0 0)
(0 0 0)
(0 0 0)
(0 -3.811648179e-08 -5.641239305e-06)
(0 -1.067261496e-07 -5.671732524e-06)
(0 -1.753358162e-07 -5.725095565e-06)
(0 -2.515687798e-07 -5.812763473e-06)
(0 -3.163668007e-07 -5.930924602e-06)
(0 -3.925997624e-07 -6.071955549e-06)
(0 -4.612094296e-07 -6.239668069e-06)
(0 -5.374423964e-07 -6.441685461e-06)
(0 -6.17487005e-07 -6.666572665e-06)
(0 -6.937199685e-07 -6.929576389e-06)
(0 -7.661412885e-07 -7.22688499e-06)
(0 -8.53809192e-07 -7.550875042e-06)
(0 -9.338538038e-07 -7.909169971e-06)
(0 -1.013898422e-06 -8.301769783e-06)
(0 -1.105377972e-06 -8.728674329e-06)
(0 -1.196857528e-06 -9.186072111e-06)
(0 -1.280713796e-06 -9.68539808e-06)
(0 -1.376004993e-06 -1.021902877e-05)
(0 -1.478919493e-06 -1.079077599e-05)
(0 -1.574210707e-06 -1.139682812e-05)
(0 -1.677125199e-06 -1.204861989e-05)
(0 -1.772416403e-06 -1.273852821e-05)
(0 -1.882954212e-06 -1.347036474e-05)
(0 -1.993491998e-06 -1.424794089e-05)
(0 -2.107841443e-06 -1.507506855e-05)
(0 -2.222190902e-06 -1.594412443e-05)
(0 -2.34416363e-06 -1.685510825e-05)
(0 -2.46994802e-06 -1.782326688e-05)
(0 -2.591920777e-06 -1.883716541e-05)
(0 -2.7215168e-06 -1.990061514e-05)
(0 -2.858736134e-06 -2.101742806e-05)
(0 -2.98833219e-06 -2.218760418e-05)
(0 -3.125551507e-06 -2.341495476e-05)
(0 -3.266582489e-06 -2.469566855e-05)
(0 -3.407613492e-06 -2.603736887e-05)
(0 -3.556267751e-06 -2.743243194e-05)
(0 -3.70492203e-06 -2.888848155e-05)
(0 -3.861199628e-06 -3.04055177e-05)
(0 -4.01747718e-06 -3.199116316e-05)
(0 -4.173754756e-06 -3.363017188e-05)
(0 -4.322409061e-06 -3.533779048e-05)
(0 -4.490121555e-06 -3.710258337e-05)
(0 -4.650210778e-06 -3.893598615e-05)
(0 -4.814111679e-06 -4.083799883e-05)
(0 -4.98182417e-06 -4.28086207e-05)
(0 -5.145725041e-06 -4.483641753e-05)
(0 -5.309625945e-06 -4.69404476e-05)
(0 -5.481150081e-06 -4.910546349e-05)
(0 -5.641239305e-06 -5.133527767e-05)
(0 -5.797516915e-06 -5.36298902e-05)
(0 -5.9652294e-06 -5.599311175e-05)
(0 -6.121506975e-06 -5.842113164e-05)
(0 -6.27397294e-06 -6.091394991e-05)
(0 -6.430250478e-06 -6.346775382e-05)
(0 -6.571281472e-06 -6.609016789e-05)
(0 -6.723747404e-06 -6.875832166e-05)
(0 -6.857155086e-06 -7.149127337e-05)
(0 -6.986751124e-06 -7.427758819e-05)
(0 -7.101100574e-06 -7.710964284e-05)
(0 -7.207826719e-06 -7.999506047e-05)
(0 -7.303117924e-06 -8.291859463e-05)
(0 -7.379350892e-06 -8.587262203e-05)
(0 -7.447960555e-06 -8.886857745e-05)
(0 -7.489888685e-06 -9.187977952e-05)
(0 -7.516570227e-06 -9.491385153e-05)
(0 -7.516570222e-06 -9.794792343e-05)
(0 -7.497511968e-06 -0.0001009819952)
(0 -7.444148938e-06 -0.0001040008212)
(0 -7.36791593e-06 -0.000106996776)
(0 -7.261189781e-06 -0.0001099622383)
(0 -7.120158841e-06 -0.0001128857731)
(0 -6.94863463e-06 -0.0001157330737)
(0 -6.742805628e-06 -0.0001185117652)
(0 -6.483613591e-06 -0.0001212027895)
(0 -6.21679818e-06 -0.0001237832746)
(0 -5.896619733e-06 -0.0001262532226)
(0 -5.542136485e-06 -0.0001285783288)
(0 -5.153348338e-06 -0.0001307585908)
(0 -4.726443742e-06 -0.0001327673294)
(0 -4.265234338e-06 -0.0001346007329)
(0 -3.769720049e-06 -0.0001362435525)
(0 -3.247524248e-06 -0.0001376767322)
(0 -2.683400334e-06 -0.0001388850255)
(0 -2.100218147e-06 -0.0001398760532)
(0 -1.497977734e-06 -0.000140615513)
(0 -8.652441418e-07 -0.0001411110281)
(0 -2.096406498e-07 -0.0001413397261)
(0 4.650210778e-07 -0.0001413054213)
(0 1.14349446e-06 -0.0001409966786)
(0 1.856272663e-06 -0.000140409684)
(0 2.576674169e-06 -0.0001395291932)
(0 3.281829102e-06 -0.0001383590181)
(0 4.021288829e-06 -0.000136899156)
(0 4.760748575e-06 -0.0001351419862)
(0 5.500208355e-06 -0.0001330798853)
(0 6.239668069e-06 -0.0001307242859)
(0 6.982939464e-06 -0.0001280637555)
(0 7.707152664e-06 -0.0001251097289)
(0 8.43517742e-06 -0.0001218622039)
(0 9.147955629e-06 -0.0001183249944)
(0 9.83405236e-06 -0.0001144981003)
(0 1.052014897e-05 -0.0001103891429)
(0 1.117956411e-05 -0.0001060057475)
(0 1.181229778e-05 -0.0001013745956)
(0 1.242597306e-05 -9.6488062e-05)
(0 1.300534359e-05 -9.135758355e-05)
(0 1.355040936e-05 -8.599459508e-05)
(0 1.407260508e-05 -8.041434163e-05)
(0 1.456049604e-05 -7.463588299e-05)
(0 1.501027062e-05 -6.8670654e-05)
(0 1.543336348e-05 -6.252627672e-05)
(0 1.582215159e-05 -5.622562229e-05)
(0 1.616901167e-05 -4.976869057e-05)
(0 1.647775508e-05 -4.317453892e-05)
(0 1.676362869e-05 -3.646984977e-05)
(0 1.700376263e-05 -2.966605795e-05)
(0 1.720577988e-05 -2.275935128e-05)
(0 1.73734924e-05 -1.578022346e-05)
(0 1.749546525e-05 -8.747732623e-06)
(0 8.774414108e-06 -1.669501902e-06)
(0 7.62329622e-09 -1.669501872e-06)
(0 1.905824169e-08 -1.661878676e-06)
(0 3.049318488e-08 -1.650443632e-06)
(0 4.955142543e-08 -1.635197039e-06)
(0 5.717472508e-08 -1.612327247e-06)
(0 7.62329622e-08 -1.585645614e-06)
(0 8.385625842e-08 -1.551340781e-06)
(0 9.147956013e-08 -1.517036039e-06)
(0 1.067261471e-07 -1.475107819e-06)
(0 1.105377952e-07 -1.425556393e-06)
(0 1.181610985e-07 -1.37600505e-06)
(0 1.219727395e-07 -1.326453542e-06)
(0 1.257843876e-07 -1.273090469e-06)
(0 1.334076919e-07 -1.212104172e-06)
(0 1.410309801e-07 -1.154929377e-06)
(0 1.410309801e-07 -1.097754656e-06)
(0 1.372193402e-07 -1.040579997e-06)
(0 1.486542763e-07 -9.757819162e-07)
(0 1.410309801e-07 -9.186071946e-07)
(0 1.334076919e-07 -8.614325246e-07)
(0 1.37219332e-07 -8.080693994e-07)
(0 1.37219332e-07 -7.508946777e-07)
(0 1.257843952e-07 -6.97531646e-07)
(0 1.181610914e-07 -6.441685306e-07)
(0 1.181610914e-07 -5.908054571e-07)
(0 1.067261535e-07 -5.450657125e-07)
(0 1.067261471e-07 -4.993259024e-07)
(0 9.910285086e-08 -4.612094213e-07)
(0 9.529120847e-08 -4.154696689e-07)
(0 9.529120275e-08 -3.735415148e-07)
(0 8.385625842e-08 -3.46859978e-07)
(0 7.623296678e-08 -3.087435154e-07)
(0 7.62329622e-08 -2.744386639e-07)
(0 6.479801787e-08 -2.439454791e-07)
(0 5.336307674e-08 -2.210756037e-07)
(0 5.717472165e-08 -1.943940536e-07)
(0 5.336307354e-08 -1.71524165e-07)
(0 4.573978007e-08 -1.486542852e-07)
(0 4.192812921e-08 -1.334076839e-07)
(0 3.81164811e-08 -1.143494433e-07)
(0 3.049318671e-08 -9.910285681e-08)
(0 2.668153677e-08 -8.766790653e-08)
(0 3.049318488e-08 -7.62329622e-08)
(0 2.668153837e-08 -6.86096701e-08)
(0 2.668153677e-08 -5.717472165e-08)
(0 2.286988866e-08 -4.573977732e-08)
(0 1.905824169e-08 -4.192813173e-08)
(0 1.905824055e-08 -3.430483299e-08)
(0 7.62329622e-09 -3.049318488e-08)
(0 3.811648339e-09 -2.286989003e-08)
(0 1.143494433e-08 -1.524659244e-08)
(0 7.62329622e-09 -1.143494433e-08)
(0 0 -1.143494502e-08)
(0 1.143494433e-08 -7.62329622e-09)
(0 3.81164811e-09 -3.81164811e-09)
(0 3.811648339e-09 -7.623296678e-09)
(0 0 -7.62329622e-09)
(0 3.81164811e-09 0)
(0 0 7.623296678e-09)
(0 0 1.143494433e-08)
(0 0 7.62329622e-09)
(0 0 7.623296678e-09)
(0 0 3.81164811e-09)
(0 0 3.81164811e-09)
(0 0 0)
(0 -7.62329622e-09 7.62329622e-09)
(0 -3.81164811e-09 3.81164811e-09)
(0 0 0)
(0 0 3.81164811e-09)
(0 0 0)
(0 7.623296678e-09 3.811648339e-09)
(0 3.81164811e-09 3.81164811e-09)
(0 3.81164811e-09 3.81164811e-09)
(0 0 3.811648339e-09)
(0 -3.81164811e-09 3.81164811e-09)
(0 3.81164811e-09 0)
(0 0 7.623296678e-09)
(0 0 0)
(0 0 -3.81164811e-09)
(0 0 -3.811648339e-09)
(0 -7.62329622e-09 -3.81164811e-09)
(0 3.81164811e-09 0)
(0 0 3.811648339e-09)
(0 -3.81164811e-09 3.81164811e-09)
(0 3.81164811e-09 7.62329622e-09)
(0 0 3.811648339e-09)
(0 0 0)
(0 3.81164811e-09 3.81164811e-09)
(0 3.811648339e-09 3.811648339e-09)
(0 0 0)
(0 -3.81164811e-09 3.81164811e-09)
(0 0 7.623296678e-09)
(0 3.81164811e-09 7.62329622e-09)
(0 0 7.62329622e-09)
(0 0 7.623296678e-09)
(0 3.81164811e-09 0)
(0 -7.62329622e-09 3.81164811e-09)
(0 0 0)
(0 -3.81164811e-09 7.62329622e-09)
(0 -3.81164811e-09 3.81164811e-09)
(0 0 7.623296678e-09)
(0 3.81164811e-09 3.81164811e-09)
(0 0 3.81164811e-09)
(0 0 -3.811648339e-09)
(0 -3.81164811e-09 0)
(0 0 3.81164811e-09)
(0 0 0)
(0 3.81164811e-09 0)
(0 -3.81164811e-09 3.81164811e-09)
(0 0 3.811648339e-09)
(0 3.81164811e-09 3.81164811e-09)
(0 0 7.62329622e-09)
(0 3.811648339e-09 7.623296678e-09)
(0 3.81164811e-09 3.81164811e-09)
(0 -3.81164811e-09 0)
(0 -3.811648339e-09 0)
(0 -3.81164811e-09 0)
(0 3.81164811e-09 -3.81164811e-09)
(0 0 0)
(0 0 3.81164811e-09)
(0 -4.955142632e-08 -5.648862601e-06)
(0 -1.486542799e-07 -5.67935582e-06)
(0 -2.477571316e-07 -5.736530509e-06)
(0 -3.468599843e-07 -5.820386769e-06)
(0 -4.497744878e-07 -5.93473625e-06)
(0 -5.488773377e-07 -6.071955549e-06)
(0 -6.517918386e-07 -6.247291365e-06)
(0 -7.470830475e-07 -6.449308757e-06)
(0 -8.614324884e-07 -6.681819257e-06)
(0 -9.681586374e-07 -6.941011334e-06)
(0 -1.082508089e-06 -7.234508287e-06)
(0 -1.19304588e-06 -7.569933283e-06)
(0 -1.311206974e-06 -7.924416564e-06)
(0 -1.425556427e-06 -8.317016376e-06)
(0 -1.547529161e-06 -8.740109274e-06)
(0 -1.67331355e-06 -9.201318704e-06)
(0 -1.799097951e-06 -9.696833025e-06)
(0 -1.928693978e-06 -1.023427536e-05)
(0 -2.065913313e-06 -1.080983424e-05)
(0 -2.203132661e-06 -1.142350966e-05)
(0 -2.34416363e-06 -1.206767813e-05)
(0 -2.492817909e-06 -1.27613981e-05)
(0 -2.641472204e-06 -1.350466958e-05)
(0 -2.793938115e-06 -1.428224573e-05)
(0 -2.95021569e-06 -1.510175008e-05)
(0 -3.114116581e-06 -1.597080596e-05)
(0 -3.293264026e-06 -1.689322473e-05)
(0 -3.457164898e-06 -1.786138337e-05)
(0 -3.632500736e-06 -1.887909354e-05)
(0 -3.811648179e-06 -1.994635492e-05)
(0 -4.006042236e-06 -2.107079113e-05)
(0 -4.192813022e-06 -2.22447789e-05)
(0 -4.379583757e-06 -2.347212948e-05)
(0 -4.577789463e-06 -2.476046657e-05)
(0 -4.783618493e-06 -2.610597853e-05)
(0 -4.985635818e-06 -2.75162882e-05)
(0 -5.199088116e-06 -2.89799611e-05)
(0 -5.408728798e-06 -3.050462056e-05)
(0 -5.62980436e-06 -3.208645437e-05)
(0 -5.850879954e-06 -3.373689803e-05)
(0 -6.060520641e-06 -3.545213992e-05)
(0 -6.296842791e-06 -3.722836776e-05)
(0 -6.521730034e-06 -3.906939383e-05)
(0 -6.754240613e-06 -4.097902982e-05)
(0 -6.982939464e-06 -4.295727497e-05)
(0 -7.215450002e-06 -4.50003184e-05)
(0 -7.447960586e-06 -4.710816012e-05)
(0 -7.676659432e-06 -4.928461095e-05)
(0 -7.905358323e-06 -5.151823678e-05)
(0 -8.137868911e-06 -5.383190755e-05)
(0 -8.370379401e-06 -5.620656404e-05)
(0 -8.587643347e-06 -5.865364218e-05)
(0 -8.804907346e-06 -6.116170704e-05)
(0 -9.025982887e-06 -6.373075755e-05)
(0 -9.228000257e-06 -6.637222986e-05)
(0 -9.426205969e-06 -6.906325352e-05)
(0 -9.628223317e-06 -7.181145182e-05)
(0 -9.803559133e-06 -7.461682488e-05)
(0 -9.967460011e-06 -7.747556107e-05)
(-9.918233385e-25 -1.012754923e-05 -8.038003694e-05)
(9.918233385e-25 -1.025714527e-05 -8.333406428e-05)
(0 -1.036768307e-05 -8.632239651e-05)
(0 -1.045916262e-05 -8.933741018e-05)
(0 -1.052396064e-05 -9.239054037e-05)
(0 -1.056588878e-05 -9.545129392e-05)
(0 -1.056970042e-05 -9.852729395e-05)
(0 -1.053539557e-05 -0.0001015994822)
(0 -1.047440926e-05 -0.000104664048)
(0 -1.036768305e-05 -0.0001077057426)
(0 -1.021902877e-05 -0.000110713133)
(0 -1.002844642e-05 -0.000113678596)
(0 -9.784500875e-06 -0.0001165792595)
(0 -9.491003965e-06 -0.0001194075025)
(0 -9.151767332e-06 -0.0001221480783)
(0 -8.759167515e-06 -0.0001247857381)
(0 -8.313204678e-06 -0.0001272938026)
(0 -7.813878813e-06 -0.0001296722718)
(0 -7.268813077e-06 -0.0001319020852)
(0 -6.666572665e-06 -0.0001339641869)
(0 -6.022404159e-06 -0.0001358433303)
(0 -5.321060858e-06 -0.0001375204546)
(0 -4.585412759e-06 -0.0001389917508)
(0 -3.800213257e-06 -0.0001402381606)
(0 -2.980708876e-06 -0.0001412558699)
(0 -2.126899684e-06 -0.0001420334461)
(0 -1.231162369e-06 -0.0001425442078)
(0 -3.125551507e-07 -0.0001427995874)
(0 6.289219495e-07 -0.0001427805291)
(0 1.5894573e-06 -0.0001424870331)
(0 2.580485817e-06 -0.0001419076617)
(0 3.594384233e-06 -0.0001410386059)
(0 4.604471028e-06 -0.0001398798657)
(0 5.633616008e-06 -0.0001384085687)
(0 6.670384313e-06 -0.0001366437756)
(0 7.710964312e-06 -0.0001345778631)
(0 8.759167515e-06 -0.0001322108287)
(0 9.795935819e-06 -0.0001295350517)
(0 1.082126924e-05 -0.0001265581552)
(0 1.183897924e-05 -0.000123280137)
(0 1.284144271e-05 -0.0001197048111)
(0 1.382103638e-05 -0.0001158398005)
(0 1.478157164e-05 -0.0001116927266)
(0 1.570780214e-05 -0.0001072750263)
(0 1.659591627e-05 -0.0001025828881)
(0 1.745353701e-05 -9.76429914e-05)
(0 1.827304137e-05 -9.245914987e-05)
(0 1.905061771e-05 -8.703898668e-05)
(0 1.97786424e-05 -8.139774686e-05)
(0 2.045711578e-05 -7.55544902e-05)
(0 2.10974728e-05 -6.952065155e-05)
(0 2.168446649e-05 -6.33076646e-05)
(0 2.223334383e-05 -5.69307772e-05)
(0 2.272123493e-05 -5.040523582e-05)
(0 2.315576269e-05 -4.374628615e-05)
(0 2.35445508e-05 -3.696536404e-05)
(0 2.389141093e-05 -3.007771596e-05)
(0 2.418109605e-05 -2.309858796e-05)
(0 2.440979494e-05 -1.605085048e-05)
(0 2.458894255e-05 -8.938315033e-06)
(0 1.233449351e-05 -1.780039699e-06)
(0 1.143494433e-08 -1.776228019e-06)
(0 2.286989003e-08 -1.772416478e-06)
(0 4.955142543e-08 -1.760981427e-06)
(0 6.479801787e-08 -1.738111538e-06)
(0 8.385626346e-08 -1.711430104e-06)
(0 1.02914499e-07 -1.684748465e-06)
(0 1.219727395e-07 -1.650443632e-06)
(0 1.372193402e-07 -1.608515599e-06)
(0 1.486542763e-07 -1.562775725e-06)
(0 1.600892206e-07 -1.517035948e-06)
(0 1.677125269e-07 -1.463672962e-06)
(0 1.791474612e-07 -1.410309801e-06)
(0 1.867707574e-07 -1.349323431e-06)
(0 1.905824169e-07 -1.292148787e-06)
(0 1.982057017e-07 -1.227350691e-06)
(0 2.020173498e-07 -1.166364322e-06)
(0 2.02017362e-07 -1.10156637e-06)
(0 2.096406461e-07 -1.036768286e-06)
(0 2.020173498e-07 -9.719702681e-07)
(0 1.943940653e-07 -9.147956013e-07)
(0 1.905824055e-07 -8.538091767e-07)
(0 1.905824055e-07 -7.928228069e-07)
(0 1.791474719e-07 -7.356481294e-07)
(0 1.753358131e-07 -6.822850117e-07)
(0 1.677125168e-07 -6.251102901e-07)
(0 1.524659336e-07 -5.755588992e-07)
(0 1.448426282e-07 -5.298190873e-07)
(0 1.486542763e-07 -4.802676619e-07)
(0 1.410309885e-07 -4.38339559e-07)