/*--------------------------------*- C++ -*----------------------------------*\
  =========                 |
  \\      /  F ield         | OpenFOAM: The Open Source CFD Toolbox
   \\    /   O peration     | Website:  https://openfoam.org
    \\  /    A nd           | Version:  10
     \\/     M anipulation  |
\*---------------------------------------------------------------------------*/
FoamFile
{
    format      ascii;
    class       surfaceScalarField;
    location    "0.0002";
    object      alphaPhi.metal;
}
// * * * * * * * * * * * * * * * * * * * * * * * * * * * * * * * * * * * * * //

dimensions      [0 3 -1 0 0 0 0];

internalField   nonuniform List<scalar> 
46000
(
5.420960145e-25
-4.324491783e-22
2.364487323e-25
2.87852836e-24
-4.308974735e-22
3.501915434e-25
6.339070156e-24
-4.281029977e-22
3.754830477e-25
1.149599185e-23
-4.245502237e-22
3.70835582e-25
1.837530135e-23
-4.208310738e-22
3.477814868e-25
2.66779419e-23
-4.175350687e-22
3.340586225e-25
3.586697035e-23
-4.15149567e-22
3.872373234e-25
4.526824503e-23
-4.140001586e-22
5.927638735e-25
5.416361805e-23
-4.142357851e-22
1.051499607e-24
6.185956495e-23
-4.158480087e-22
1.860704417e-24
6.773024874e-23
-4.187066454e-22
3.093327638e-24
7.12450309e-23
-4.225959654e-22
4.780036948e-24
7.199183058e-23
-4.272432968e-22
6.897056367e-24
6.970219611e-23
-4.323395222e-22
9.361462046e-24
6.427704816e-23
-4.375550882e-22
1.203454071e-23
5.580764503e-23
-4.425554972e-22
1.47330611e-23
4.458526413e-23
-4.470185244e-22
1.72475458e-23
3.109445313e-23
-4.506533125e-22
1.936568571e-23
1.598737434e-23
-4.532199216e-22
2.089800839e-23
3.999857801e-26
-4.545470583e-22
2.170211323e-23
-1.590592073e-23
-4.545455595e-22
2.170159844e-23
-3.100866653e-23
-4.532156643e-22
2.089644748e-23
-4.449238938e-23
-4.506469902e-22
1.936303916e-23
-5.570515634e-23
-4.470112219e-22
1.724377553e-23
-6.416277415e-23
-4.425486006e-22
1.472815831e-23
-6.957445472e-23
-4.375501832e-22
1.202854917e-23
-7.184955551e-23
-4.323382819e-22
9.354491371e-24
-7.108784242e-23
-4.272473515e-22
6.88928261e-24
-6.755842135e-23
-4.226067653e-22
4.771693305e-24
-6.167389811e-23
-4.187253465e-22
3.084694306e-24
-5.396529006e-23
-4.15875411e-22
1.852112545e-24
-4.505876497e-23
-4.142723236e-22
1.043362246e-24
-3.564830824e-23
-4.140459184e-22
5.856414134e-25
-2.64528848e-23
-4.152042885e-22
3.819553352e-25
-1.814820984e-23
-4.175981239e-22
3.31941639e-25
-1.127465107e-23
-4.209013405e-22
3.512057734e-25
-6.140351736e-24
-4.246254744e-22
3.847689465e-25
-2.754441711e-24
-4.281770621e-22
4.124572471e-25
-8.377244397e-25
-4.309484821e-22
4.501629635e-25
-4.323994063e-22
5.663068194e-25
2.09380079e-24
-4.349941301e-22
1.794646402e-24
5.673004197e-24
-4.339636648e-22
1.947337016e-24
9.891844154e-24
-4.321513208e-22
2.054224564e-24
1.521514177e-23
-4.298586222e-22
2.195738115e-24
2.167130646e-23
-4.274805868e-22
2.399167624e-24
2.90634436e-23
-4.25426289e-22
2.698935999e-24
3.701637867e-23
-4.2405507e-22
3.145044362e-24
4.503261862e-23
-4.236324429e-22
3.799983579e-24
5.255139439e-23
-4.243096258e-22
4.729568359e-24
5.900092828e-23
-4.261232696e-22
5.990155059e-24
6.384092868e-23
-4.290077237e-22
7.615073463e-24
6.659769952e-23
-4.328122195e-22
9.603014819e-24
6.689560521e-23
-4.373183075e-22
1.191050384e-23
6.448663015e-23
-4.422563641e-22
1.444977762e-23
5.927663911e-23
-4.473221932e-22
1.70926273e-23
5.134461778e-23
-4.521951982e-22
1.968005964e-23
4.095047603e-23
-4.565588152e-22
2.203694014e-23
2.852784408e-23
-4.601226494e-22
2.399005946e-23
1.466023767e-23
-4.626446258e-22
2.538740397e-23
4.149730548e-26
-4.639507832e-22
2.61159838e-23
-1.457602544e-23
-4.639502138e-22
2.611556178e-23
-2.84399925e-23
-4.626431042e-22
2.53861257e-23
-4.085662108e-23
-4.601207294e-22
2.39878942e-23
-5.124253496e-23
-4.565573959e-22
2.203385381e-23
-5.916435679e-23
-4.521954766e-22
1.967603368e-23
-6.436255341e-23
-4.473255903e-22
1.708767731e-23
-6.675862511e-23
-4.422644216e-22
1.44439685e-23
-6.644725625e-23
-4.373325626e-22
1.190395844e-23
-6.367700251e-23
-4.328340713e-22
9.595915096e-24
-5.882396262e-23
-4.290383171e-22
7.607658322e-24
-5.236220264e-23
-4.261634201e-22
5.982725113e-24
-4.483235978e-23
-4.243597867e-22
4.722510101e-24
-3.680667834e-23
-4.236926897e-22
3.793824693e-24
-2.884672018e-23
-4.241250558e-22
3.140561504e-24
-2.145142652e-23
-4.255051158e-22
2.697375679e-24
-1.499878491e-23
-4.275664788e-22
2.402761641e-24
-9.691939493e-24
-4.299480995e-22
2.209093113e-24
-5.525861703e-24
-4.322371662e-22
2.088719722e-24
-2.28864863e-24
-4.340305306e-22
2.03929672e-24
-4.350065905e-22
2.103013572e-24
3.124266099e-24
-4.395853298e-22
2.834840428e-24
7.485348189e-24
-4.389545103e-22
3.015042463e-24
1.218454269e-23
-4.378850802e-22
3.192335371e-24
1.759317723e-23
-4.36573167e-22
3.449201854e-24
2.372560427e-23
-4.352905129e-22
3.815510286e-24
3.043466253e-23
-4.343264383e-22
4.322871216e-24
3.743900576e-23
-4.339453208e-22
5.010282934e-24
4.435543577e-23
-4.343537187e-22
5.920906182e-24
5.07377506e-23
-4.356800658e-22
7.095225831e-24
5.611647417e-23
-4.379665206e-22
8.562281648e-24
6.003643282e-23
-4.411700997e-22
1.033070939e-23
6.209161156e-23
-4.451697212e-22
1.238132971e-23
6.195754858e-23
-4.497767621e-22
1.466271794e-23
5.942080104e-23
-4.547481681e-22
1.709070373e-23
5.440363419e-23
-4.598021442e-22
1.955220314e-23
4.69810007e-23
-4.646366507e-22
2.191323029e-23
3.738664188e-23
-4.689504463e-22
2.403038512e-23
2.600586765e-23
-4.724656221e-22
2.576459162e-23
1.335408027e-23
-4.749498053e-22
2.699543529e-23
4.206674754e-26
-4.762357452e-22
2.763421702e-23
-1.326891581e-23
-4.762359689e-22
2.763389464e-23
-2.591761779e-23
-4.749506326e-22
2.699445813e-23
-3.729328751e-23
-4.724675217e-22
2.576293271e-23
-4.688061569e-23
-4.689541928e-22
2.402800911e-23
-5.429447048e-23
-4.646433e-22
2.191010591e-23
-5.930138471e-23
-4.598129788e-22
1.954831798e-23
-6.182676611e-23
-4.547646118e-22
1.708607961e-23
-6.194876503e-23
-4.498002693e-22
1.465742398e-23
-5.988124832e-23
-4.45201654e-22
1.237549134e-23
-5.594906555e-23
-4.412116145e-22
1.03245143e-23
-5.05585693e-23
-4.380184827e-22
8.555988849e-24
-4.416526273e-23
-4.357429981e-22
7.089187359e-24
-3.723904442e-23
-4.344277645e-22
5.915613919e-24
-3.022678026e-23
-4.340301843e-22
5.006463508e-24
-2.351278951e-23
-4.344212544e-22
4.321686728e-24
-1.738040555e-23
-4.353935862e-22
3.819028546e-24
-1.198100618e-23
-4.366815053e-22
3.461651751e-24
-7.31922614e-24
-4.379936798e-22
3.224082455e-24
-3.264708509e-24
-4.390552024e-22
3.099422727e-24
-4.396531757e-22
3.12127661e-24
3.755085625e-24
-4.455231352e-22
3.478461143e-24
8.554778303e-24
-4.451991771e-22
3.675069323e-24
1.349645586e-23
-4.447088986e-22
3.90020233e-24
1.887583138e-23
-4.441799985e-22
4.231430672e-24
2.468967886e-23
-4.438015992e-22
4.695768916e-24
3.081578007e-23
-4.437788492e-22
5.318642109e-24
3.703060781e-23
-4.44303099e-22
6.128159922e-24
4.302908865e-23
-4.455270151e-22
7.15225042e-24
4.845129584e-23
-4.47546559e-22
8.413567391e-24
5.291289505e-23
-4.503905314e-22
9.923417212e-24
5.603681136e-23
-4.54016991e-22
1.167583113e-23
5.748457067e-23
-4.583153124e-22
1.364290487e-23
5.69861426e-23
-4.631128138e-22
1.577235556e-23
5.436682492e-23
-4.68185342e-22
1.798793701e-23
4.956912771e-23
-4.732715102e-22
2.019297017e-23
4.26672051e-23
-4.780902358e-22
2.227683192e-23
3.387146605e-23
-4.823608378e-22
2.412383806e-23
2.352168448e-23
-4.858243983e-22
2.562358914e-23
1.206814035e-23
-4.882645798e-22
2.668157356e-23
4.184303001e-26
-4.895258032e-22
2.722869633e-23
-1.198357954e-23
-4.895267486e-22
2.722847127e-23
-2.343450684e-23
-4.882675542e-22
2.668088879e-23
-3.377995866e-23
-4.858298168e-22
2.562241766e-23
-4.256972283e-23
-4.823693877e-22
2.41221406e-23
-4.946414929e-23
-4.781028591e-22
2.227456567e-23
-5.425301775e-23
-4.732893622e-22
2.019010065e-23
-5.686242356e-23
-4.682097236e-22
1.798445212e-23
-5.73501497e-23
-4.631450811e-22
1.576827991e-23
-5.589120883e-23
-4.583567728e-22
1.363831301e-23
-5.275593382e-23
-4.540688014e-22
1.16708594e-23
-4.828308466e-23
-4.504536136e-22
9.9182775e-24
-4.28500291e-23
-4.476215389e-22
8.408568963e-24
-3.684146425e-23
-4.456141759e-22
7.147840929e-24
-3.061785035e-23
-4.444023252e-22
6.12500821e-24
-2.448512134e-23
-4.438895321e-22
5.317817736e-24
-1.866832464e-23
-4.439224862e-22
4.699169497e-24
-1.329318065e-23
-4.443089927e-22
4.2429293e-24
-8.380748811e-24
-4.448428447e-22
3.92930397e-24
-3.862681749e-24
-4.453329808e-22
3.752536939e-24
-4.456321713e-22
3.743254242e-24
4.079043709e-24
-4.522133845e-22
3.818084961e-24
9.045056811e-24
-4.521295962e-22
4.01948861e-24
1.402535596e-23
-4.520974767e-22
4.2689518e-24
1.925423068e-23
-4.521979729e-22
4.636426783e-24
2.471242887e-23
-4.525620538e-22
5.144211082e-24
3.029153024e-23
-4.533330206e-22
5.811064379e-24
3.580669171e-23
-4.546447482e-22
6.655804664e-24
4.10095447e-23
-4.566026421e-22
7.694979062e-24
4.560732349e-23
-4.592685058e-22
8.939106996e-24
4.928643545e-23
-4.62650337e-22
1.038846643e-23
5.173848999e-23
-4.666972973e-22
1.202918113e-23
5.268706926e-23
-4.712996412e-22
1.38303449e-23
5.191361436e-23
-4.762932512e-22
1.574280655e-23
4.928065669e-23
-4.814684368e-22
1.770003277e-23
4.475040215e-23
-4.865826145e-22
1.962119608e-23
3.839660311e-23
-4.913762919e-22
2.141633837e-23
3.040790548e-23
-4.955914259e-22
2.299316885e-23
2.108150305e-23
-4.989908145e-22
2.426480311e-23
1.080691691e-23
-5.013768329e-22
2.515757256e-23
4.089764052e-26
-5.026076657e-22
2.561796625e-23
-1.072438517e-23
-5.026092866e-22
2.561783142e-23
-2.09967694e-23
-5.013818221e-22
2.515715802e-23
-3.031952955e-23
-4.989995497e-22
2.426407989e-23
-3.830319425e-23
-4.956045294e-22
2.299209268e-23
-4.465065239e-23
-4.91394613e-22
2.141485629e-23
-4.917337918e-23
-4.866071964e-22
1.961925622e-23
-5.179778106e-23
-4.815004629e-22
1.769759678e-23
-5.256184139e-23
-4.763339741e-22
1.57398638e-23
-5.160323743e-23
-4.713502997e-22
1.38269275e-23
-4.9140746e-23
-4.667590327e-22
1.202537942e-23
-4.545100994e-23
-4.62724117e-22
1.038444596e-23
-4.08426661e-23
-4.593550645e-22
8.935130985e-24
-3.562961354e-23
-4.567024313e-22
7.691445394e-24
-3.010505726e-23
-4.547578885e-22
6.653318423e-24
-2.451807546e-23
-4.534592382e-22
5.810597324e-24
-1.905483116e-23
-4.527005968e-22
5.147487836e-24
-1.382703266e-23
-4.523475129e-22
4.646971763e-24
-8.870884881e-24
-4.522559538e-22
4.295440663e-24
-4.161872201e-24
-4.522929891e-22
4.090095386e-24
-4.523557066e-22
4.060325903e-24
4.162832057e-24
-4.591874695e-22
3.920179533e-24
9.077176288e-24
-4.592928437e-22
4.116270011e-24
1.39248597e-23
-4.596235065e-22
4.370214865e-24
1.889014986e-23
-4.602271721e-22
4.743445833e-24
2.394146206e-23
-4.611922906e-22
5.253366952e-24
2.897980264e-23
-4.626153199e-22
5.912851126e-24
3.384879779e-23
-4.645844015e-22
6.733453894e-24
3.834368095e-23
-4.671647207e-22
7.723632858e-24
4.22254923e-23
-4.703862313e-22
8.886012212e-24
4.523947516e-23
-4.742347674e-22
1.021446871e-23
4.713614613e-23
-4.78647132e-22
1.169156515e-23
4.769345923e-23
-4.83510397e-22
1.328682034e-23
4.67384288e-23
-4.886654122e-22
1.495622292e-23
4.416647898e-23
-4.939143484e-22
1.664325299e-23
3.995672474e-23
-4.99031905e-22
1.828148622e-23
3.418146906e-23
-5.037795502e-22
1.979864573e-23
2.700851693e-23
-5.079218434e-22
2.112176308e-23
1.869548467e-23
-5.112435676e-22
2.218293843e-23
9.576084095e-24
-5.135661646e-22
2.292507558e-23
3.927667559e-26
-5.147618782e-22
2.330693193e-23
-9.49692066e-24
-5.147641397e-22
2.330687788e-23
-1.861449697e-23
-5.135730663e-22
2.292490238e-23
-2.69245092e-23
-5.11255458e-22
2.218261381e-23
-3.409327792e-23
-5.079392927e-22
2.112123659e-23
-3.986323576e-23
-5.038033322e-22
1.979785441e-23
-4.406664567e-23
-4.990629668e-22
1.828036313e-23
-4.663129224e-23
-4.939537679e-22
1.664173863e-23
-4.757816707e-23
-4.887143425e-22
1.495427912e-23
-4.701197034e-23
-4.835700031e-22
1.328444595e-23
-4.510583032e-23
-4.787185254e-22
1.168881301e-23
-4.208195748e-23
-4.743189443e-22
1.021146401e-23
-3.819003288e-23
-4.704840187e-22
8.882974787e-24
-3.368507076e-23
-4.672767303e-22
7.7209107e-24
-2.880640699e-23
-4.647109863e-22
6.731586835e-24
-2.375943403e-23
-4.627565247e-22
5.912711602e-24
-1.870174728e-23
-4.613477897e-22
5.256505438e-24
-1.373547351e-23
-4.6039618e-22
4.753035491e-24
-8.907920178e-24
-4.598045507e-22
4.394085102e-24
-4.224589717e-24
-4.594822252e-22
4.179888149e-24
-4.593579803e-22
4.138858296e-24
4.057457833e-24
-4.660758961e-22
3.835516688e-24
8.746513499e-24
-4.663295259e-22
4.01855917e-24
1.332119406e-23
-4.669450496e-22
4.262066487e-24
1.792503143e-23
-4.679458257e-22
4.618889995e-24
2.251843272e-23
-4.693883827e-22
5.102086663e-24
2.701072108e-23
-4.713330824e-22
5.719846816e-24
3.126847862e-23
-4.738316332e-22
6.47842102e-24
3.512217027e-23
-4.769158389e-22
7.380822668e-24
3.83769562e-23
-4.805878934e-22
8.424865236e-24
4.082711058e-23
-4.848131335e-22
9.60116112e-24
4.227288111e-23
-4.895159163e-22
1.089145494e-23
4.253844402e-23
-4.945790168e-22
1.226761952e-23
4.148949261e-23
-4.99846691e-22
1.369157972e-23
3.904892243e-23
-5.051313207e-22
1.511632725e-23
3.520907949e-23
-5.102233075e-22
1.648805702e-23
3.003917592e-23
-5.14903607e-22
1.774930913e-23
2.368679269e-23
-5.189580155e-22
1.88428603e-23
1.637288768e-23
-5.221920643e-22
1.971599248e-23
8.380370512e-24
-5.244452115e-22
2.03246934e-23
3.701513801e-26
-5.25602985e-22
2.063732513e-23
-8.305847271e-24
-5.256058596e-22
2.063734023e-23
-1.629688864e-23
-5.244539436e-22
2.032472627e-23
-2.360834388e-23
-5.222069748e-22
1.971600678e-23
-2.995731741e-23
-5.189796268e-22
1.884279875e-23
-3.51228704e-23
-5.149326241e-22
1.7749099e-23
-3.895744675e-23
-5.102605912e-22
1.648761835e-23
-4.139186682e-23
-5.051778522e-22
1.511558395e-23
-4.243382772e-23
-4.999035294e-22
1.369047321e-23
-4.216049264e-23
-4.946472531e-22
1.226612439e-23
-4.070624918e-23
-4.895966243e-22
1.088959584e-23
-3.824703189e-23
-4.849073233e-22
9.599030841e-24
-3.498274454e-23
-4.806964672e-22
8.422645583e-24
-3.111932677e-23
-4.770395488e-22
7.378814432e-24
-2.68519453e-23
-4.739710394e-22
6.477099551e-24
-2.235069911e-23
-4.714885037e-22
5.719985094e-24
-1.77501375e-23
-4.695598277e-22
5.105060063e-24
-1.314384424e-23
-4.681328725e-22
4.62751536e-24
-8.585594636e-24
-4.671465328e-22
4.283303514e-24
-4.100344839e-24
-4.665418014e-22
4.075064185e-24
-4.662709049e-22
4.029873978e-24
3.803828054e-24
-4.725886296e-22
3.604760113e-24
8.130989821e-24
-4.729570604e-22
3.769364806e-24
1.232041793e-23
-4.737930825e-22
3.992153718e-24
1.648247451e-23
-4.751018519e-22
4.317701951e-24
2.057373299e-23
-4.769155815e-22
4.755494495e-24
2.451217028e-23
-4.792666558e-22
5.310264058e-24
2.818427292e-23
-4.821779436e-22
5.984631589e-24
3.145011572e-23
-4.856541792e-22
6.778198716e-24
3.415171616e-23
-4.896744499e-22
7.686161126e-24
3.612432774e-23
-4.941865614e-22
8.697947794e-24
3.72097806e-23
-4.991039099e-22
9.796153601e-24
3.727076988e-23
-5.043052781e-22
1.09559872e-23
3.620486285e-23
-5.096377485e-22
1.21454063e-23
3.395693567e-23
-5.149226869e-22
1.332603912e-23
3.052877999e-23
-5.199645031e-22
1.445489756e-23
2.598476741e-23
-5.245616379e-22
1.548678655e-23
2.045274387e-23
-5.285189784e-22
1.637721754e-23
1.41197405e-23
-5.316607054e-22
1.708555683e-23
7.222597041e-24
-5.338424551e-22
1.757809187e-23
3.41404978e-26
-5.3496167e-22
1.783069032e-23
-7.15393127e-24
-5.349651358e-22
1.783075952e-23
-1.40499198e-23
-5.338529499e-22
1.757828583e-23
-2.038099584e-23
-5.316785181e-22
1.708583573e-23
-2.591031479e-23
-5.285445787e-22
1.637751857e-23
-3.045083751e-23
-5.245956585e-22
1.548702968e-23
-3.38747077e-23
-5.200077168e-22
1.445499391e-23
-3.611754406e-23
-5.149759795e-22
1.332590193e-23
-3.717755135e-23
-5.09702088e-22
1.21449642e-23
-3.710986387e-23
-5.043816825e-22
1.09551991e-23
-3.60169482e-23
-4.991934144e-22
9.795024498e-24
-3.403617577e-23
-4.94290185e-22
8.696545252e-24
-3.132582615e-23
-4.897931607e-22
7.684633902e-24
-2.80508174e-23
-4.857888576e-22
6.776802881e-24
-2.436940958e-23
-4.82329339e-22
5.983778408e-24
-2.042202307e-23
-4.794353289e-22
5.310626131e-24
-1.632318227e-23
-4.771018147e-22
4.758270124e-24
-1.21575046e-23
-4.75305485e-22
4.325346509e-24
-7.980863211e-24
-4.74013121e-22
4.010739209e-24
-3.829448334e-24
-4.731898137e-22
3.818666874e-24
-4.72805459e-22
3.774306825e-24
3.435397192e-24
-4.785005988e-22
3.261115047e-24
7.294967759e-24
-4.789564502e-22
3.403835405e-24
1.101164856e-23
-4.799600252e-22
3.599391202e-24
1.466874484e-23
-4.815027548e-22
3.884503405e-24
1.822265873e-23
-4.835982736e-22
4.265851563e-24
2.160088249e-23
-4.862573726e-22
4.745781488e-24
2.470803734e-23
-4.894803879e-22
5.324620484e-24
2.742984499e-23
-4.932506191e-22
6.000064266e-24
2.963960461e-23
-4.975286185e-22
6.766212964e-24
3.120697931e-23
-5.022479824e-22
7.612657257e-24
3.200841237e-23
-5.073131935e-22
8.523807114e-24
3.193829946e-23
-5.125998979e-22
9.478613541e-24
3.09199245e-23
-5.179578019e-22
1.045079476e-23
2.891511943e-23
-5.232161565e-22
1.140962519e-23
2.593164517e-23
-5.281915698e-22
1.232128061e-23
2.202742693e-23
-5.326976574e-22
1.315066279e-23
1.731101691e-23
-5.365558333e-22
1.386356178e-23
1.193799077e-23
-5.396063873e-22
1.442896227e-23
6.103382081e-24
-5.417189013e-22
1.482126981e-23
3.067476341e-26
-5.428010706e-22
1.502222952e-23
-6.041745343e-24
-5.428051037e-22
1.502233425e-23
-1.187548809e-23
-5.417310848e-22
1.482156991e-23
-1.724705643e-23
-5.396269709e-22
1.442941666e-23
-2.196139456e-23
-5.365852237e-22
1.38641059e-23
-2.586289585e-23
-5.327364049e-22
1.315121452e-23
-2.884297035e-23
-5.282403523e-22
1.232174871e-23
-3.084365259e-23
-5.232757607e-22
1.140991982e-23
-3.185714585e-23
-5.18029105e-22
1.045083993e-23
-3.192159575e-23
-5.126838484e-22
9.478360539e-24
-3.11137188e-23
-5.074107913e-22
8.523248421e-24
-2.953915143e-23
-5.023602579e-22
7.611840793e-24
-2.732152308e-23
-4.976566067e-22
6.765257973e-24
-2.459129885e-23
-4.933953274e-22
5.999183453e-24
-2.147539945e-23
-4.896427516e-22
5.324160485e-24
-1.808850884e-23
-4.864381869e-22
4.7463127e-24
-1.45268526e-23
-4.8379808e-22
4.268392594e-24
-1.086514057e-23
-4.817216296e-22
3.891143939e-24
-7.157555941e-24
-4.801971083e-22
3.615304639e-24
-3.445093685e-24
-4.792079738e-22
3.445878068e-24
-4.787374801e-22
3.405580895e-24
2.979545834e-24
-4.836399696e-22
2.831707768e-24
6.291392806e-24
-4.841610445e-22
2.950553813e-24
9.46891891e-24
-4.852891106e-22
3.115147854e-24
1.257322601e-23
-4.870052465e-22
3.354776237e-24
1.556355977e-23
-4.893090145e-22
3.673971617e-24
1.837786721e-23
-4.921947868e-22
4.07355396e-24
2.093780615e-23
-4.956456572e-22
4.552570427e-24
2.315184557e-23
-4.996284124e-22
5.107891647e-24
2.492024074e-23
-5.040892505e-22
5.73355272e-24
2.614176822e-23
-5.089507527e-22
6.42014886e-24
2.672170793e-23
-5.141105703e-22
7.15442284e-24
2.65803955e-23
-5.194421544e-22
7.91914575e-24
2.566156991e-23
-5.247976882e-22
8.693362762e-24
2.393970605e-23
-5.300131908e-22
9.453037571e-24
2.142555764e-23
-5.349155582e-22
1.017208393e-23
1.816925097e-23
-5.393311093e-22
1.082372497e-23
1.426046293e-23
-5.430950329e-22
1.138207689e-23
9.825476816e-24
-5.460610016e-22
1.182381941e-23
5.021212783e-24
-5.481101551e-22
1.212979594e-23
2.664167385e-26
-5.491586702e-22
1.228638535e-23
-4.967726458e-24
-5.491632343e-22
1.228650531e-23
-9.771374269e-24
-5.481239162e-22
1.21301424e-23
-1.420530921e-23
-5.460841642e-22
1.182435334e-23
-1.811257576e-23
-5.431279327e-22
1.138273715e-23
-2.136684321e-23
-5.393742066e-22
1.082443408e-23
-2.387837874e-23
-5.349694302e-22
1.017275595e-23
-2.559699693e-23
-5.300785238e-22
9.45358774e-24
-2.651188922e-23
-5.248752707e-22
8.693718343e-24
-2.66485387e-23
-5.195328702e-22
7.919257509e-24
-2.606318534e-23
-5.142153902e-22
7.154276628e-24
-2.483550022e-23
-5.090707235e-22
6.419777304e-24
-2.306024379e-23
-5.042254784e-22
5.733048227e-24
-2.083872303e-23
-4.99782036e-22
5.10742459e-24
-1.827083478e-23
-4.958178042e-22
4.552422462e-24
-1.54484019e-23
-4.923865015e-22
4.074192029e-24
-1.245040219e-23
-4.895211271e-22
3.676233026e-24
-9.340619354e-24
-4.872381206e-22
3.360383077e-24
-6.168421397e-24
-4.855420882e-22
3.128370812e-24
-2.974600036e-24
-4.844303297e-22
2.985315008e-24
-4.838960665e-22
2.950996122e-24
2.458470921e-24
-4.878781325e-22
2.338475721e-24
5.163326771e-24
-4.884467621e-22
2.432467971e-24
7.752782977e-24
-4.896647715e-22
2.564274308e-24
1.026945797e-23
-4.915054867e-22
2.756109616e-24
1.267778749e-23
-4.939580884e-22
3.010881626e-24
1.492699679e-23
-4.970048428e-22
3.328538625e-24
1.695505094e-23
-5.006160834e-22
3.707586079e-24
1.869100756e-23
-5.047463324e-22
4.144822222e-24
2.005873854e-23
-5.093311138e-22
4.634896132e-24
2.098195054e-23
-5.142848518e-22
5.169916131e-24
2.139012385e-23
-5.195002368e-22
5.739203465e-24
2.122486177e-23
-5.248493331e-22
6.329258635e-24
2.04460673e-23
-5.301865599e-22
6.923985885e-24
1.903733865e-23
-5.353535064e-22
7.505194645e-24
1.701000653e-23
-5.401853701e-22
8.053365795e-24
1.440532736e-23
-5.445186333e-22
8.548638474e-24
1.129449421e-23
-5.481994506e-22
8.971943889e-24
7.776323324e-24
-5.510921131e-22
9.30619017e-24
3.972697709e-24
-5.530869084e-22
9.537390094e-24
2.207755198e-26
-5.541067143e-22
9.655623566e-24
-3.928408349e-24
-5.541117518e-22
9.655739535e-24
-7.731622273e-24
-5.531020736e-22
9.537726408e-24
-1.124907774e-23
-5.511175642e-22
9.306713124e-24
-1.435884968e-23
-5.482354514e-22
8.972600821e-24
-1.696206679e-23
-5.445655542e-22
8.54936286e-24
-1.898747238e-23
-5.402436902e-22
8.054084013e-24
-2.039374383e-23
-5.354238163e-22
7.505834016e-24
-2.116948867e-23
-5.302695661e-22
6.924483509e-24
-2.133105868e-23
-5.249458617e-22
6.329570516e-24
-2.091851871e-23
-5.196112355e-22
5.739313574e-24
-1.999025513e-23
-5.14411388e-22
5.169845498e-24
-1.861680133e-23
-5.094743658e-22
4.634713013e-24
-1.68744912e-23
-5.049075706e-22
4.144656449e-24
-1.483953217e-23
-5.007966356e-22
3.707655447e-24
-1.258302749e-23
-4.972060287e-22
3.329207439e-24
-1.016739562e-23
-4.941810925e-22
3.012806964e-24
-7.644587016e-24
-4.917510931e-22
2.76064787e-24
-5.056662869e-24
-4.899327418e-22
2.574796338e-24
-2.440336898e-24
-4.88733515e-22
2.459965013e-24
-4.881537994e-22
2.432632843e-24
1.889841318e-24
-4.911209318e-22
1.798822805e-24
3.945317335e-24
-4.917236976e-22
1.867640961e-24
5.912067754e-24
-4.930042752e-22
1.966026619e-24
7.816856312e-24
-4.949304527e-22
2.109410531e-24
9.631033051e-24
-4.97484289e-22
2.299468701e-24
1.131575625e-23
-5.006396709e-22
2.535753425e-24
1.282480193e-23
-5.043580218e-22
2.816746631e-24
1.410622612e-23
-5.085852622e-22
3.139681615e-24
1.510500051e-23
-5.132494281e-22
3.500255012e-24
1.576656561e-23
-5.182592549e-22
3.892381314e-24
1.604102752e-23
-5.235040517e-22
4.308051499e-24
1.588763501e-23
-5.288550959e-22
4.737338697e-24
1.527912079e-23
-5.341686562e-22
5.16857886e-24
1.420547497e-23
-5.392905996e-22
5.58873647e-24
1.267674331e-23
-5.440623866e-22
5.983944939e-24
1.072451001e-23
-5.483281064e-22
6.340190443e-24
8.401831707e-24
-5.519420836e-22
6.644089075e-24
5.781528047e-24
-5.547764963e-22
6.883693015e-24
2.952891791e-24
-5.567284127e-22
7.049253879e-24
1.704005634e-26
-5.577256693e-22
7.133871885e-24
-2.918730131e-24
-5.577310985e-22
7.133968188e-24
-5.747112852e-24
-5.567447384e-22
7.049533868e-24
-8.366964965e-24
-5.548038345e-22
6.884130775e-24
-1.068895251e-23
-5.51980633e-22
6.644644188e-24
-1.264020271e-23
-5.483781569e-22
6.340811949e-24
-1.416759853e-23
-5.441243301e-22
5.984576506e-24
-1.52394936e-23
-5.393649431e-22
5.589322436e-24
-1.58457843e-23
-5.342560354e-22
5.16907075e-24
-1.599643248e-23
-5.289562883e-22
4.737701861e-24
-1.571867123e-23
-5.236199866e-22
4.308271664e-24
-1.505323284e-23
-5.183910197e-22
3.89247117e-24
-1.405000616e-23
-5.133982676e-22
3.500261666e-24
-1.276355619e-23
-5.087525708e-22
3.139697242e-24
-1.124892534e-23
-5.045453239e-22
2.816928115e-24
-9.558091228e-24
-5.008485807e-22
2.536365783e-24
-7.73739628e-24
-4.977164231e-22
2.300993206e-24
-5.826235626e-24
-4.951872204e-22
2.112844634e-24
-3.857436074e-24
-4.932862943e-22
1.973852739e-24
-1.860621366e-24
-4.920283341e-22
1.887940423e-24
-4.914185211e-22
1.868025779e-24
1.287075536e-24
-4.933004125e-22
1.225897406e-24
2.664739738e-24
-4.939291892e-22
1.269695739e-24
3.985890213e-24
-4.952506421e-22
1.334716075e-24
5.263020058e-24
-4.972304893e-22
1.429838955e-24
6.475651102e-24
-4.998469941e-22
1.555810745e-24
7.597405394e-24
-5.03069005e-22
1.712123934e-24
8.597561458e-24
-5.06852394e-22
1.897585414e-24
9.442060273e-24
-5.111376636e-22
2.110191199e-24
1.009517369e-23
-5.158481238e-22
2.346950787e-24
1.052176882e-23
-5.208889393e-22
2.603744123e-24
1.068998327e-23
-5.261473414e-22
2.875246054e-24
1.057407475e-23
-5.314942158e-22
3.154943111e-24
1.015717736e-23
-5.367871543e-22
3.435258548e-24
9.43368802e-24
-5.418749273e-22
3.707790572e-24
8.411023484e-24
-5.466031871e-22
3.963656425e-24
7.11053282e-24
-5.508210824e-22
4.193922433e-24
5.567418941e-24
-5.543883513e-22
4.390088866e-24
3.829611732e-24
-5.571823858e-22
4.544590214e-24
1.955635133e-24
-5.591047282e-22
4.65126708e-24
1.161083648e-26
-5.600864832e-22
4.705766435e-24
-1.932369987e-24
-5.600922019e-22
4.705832319e-24
-3.806208969e-24
-5.591219102e-22
4.651458956e-24
-5.543763426e-24
-5.572111127e-22
4.544891311e-24
-7.086476414e-24
-5.54428769e-22
4.390473043e-24
-8.386375913e-24
-5.508734154e-22
4.194356744e-24
-9.408211558e-24
-5.466677571e-22
3.964104437e-24
-1.013058588e-23
-5.419521738e-22
3.708216218e-24
-1.054603719e-23
-5.368776563e-22
3.43563025e-24
-1.066013084e-23
-5.315987117e-22
3.155237969e-24
-1.048970431e-23
-5.262667455e-22
2.875454007e-24
-1.006048073e-23
-5.210243539e-22
2.603872189e-24
-9.404309388e-24
-5.160008469e-22
2.34702794e-24
-8.556309204e-24
-5.113091914e-22
2.110275451e-24
-7.552182197e-24
-5.070444212e-22
1.897776874e-24
-6.425933643e-24
-5.032834224e-22
1.7125935e-24
-5.208193576e-24
-5.000858788e-22
1.556871114e-24
-3.925309506e-24
-4.974960541e-22
1.43214069e-24
-2.599475824e-24
-4.955449704e-22
1.339877085e-24
-1.250808419e-24
-4.942523122e-22
1.282939879e-24
-4.936265174e-22
1.270508767e-24
6.582961485e-25
-4.943644579e-22
6.275484717e-25
1.343286985e-24
-4.950228194e-22
6.472666537e-25
2.006043127e-24
-4.963660964e-22
6.79396726e-25
2.646515333e-24
-4.983721355e-22
7.267491912e-25
3.253640354e-24
-5.010186389e-22
7.894534061e-25
3.814016391e-24
-5.04272269e-22
8.671809702e-25
4.312291892e-24
-5.080862778e-22
9.592821927e-25
4.731600069e-24
-5.123985645e-22
1.064710595e-24
5.054358247e-24
-5.171301615e-22
1.18193823e-24
5.263366685e-24
-5.221845181e-22
1.308889701e-24
5.343108953e-24
-5.27447884e-22
1.442909561e-24
5.281136252e-24
-5.327909928e-22
1.580774272e-24
5.069404348e-24
-5.380721292e-22
1.718755863e-24
4.705428198e-24
-5.431415338e-22
1.852739311e-24
4.193128207e-24
-5.478469622e-22
1.978389822e-24
3.543263875e-24
-5.520400907e-22
2.091360336e-24
2.773384436e-24
-5.555833549e-22
2.18752442e-24
1.907269377e-24
-5.583567395e-22
2.263215721e-24
9.738800748e-25
-5.60264009e-22
2.315453297e-24
5.892197478e-27
-5.612378891e-22
2.342132431e-24
-9.620783338e-25
-5.612437813e-22
2.342163056e-24
-1.895411501e-24
-5.602817029e-22
2.315542602e-24
-2.761419674e-24
-5.583862913e-22
2.263356238e-24
-3.531122793e-24
-5.556248714e-22
2.187704491e-24
-4.180717613e-24
-5.520937484e-22
2.091565225e-24
-4.6926283e-24
-5.479130305e-22
1.978603196e-24
-5.0560684e-24
-5.432204019e-22
1.852944918e-24
-5.267092533e-24
-5.381643333e-22
1.718939389e-24
-5.328164663e-24
-5.328972406e-22
1.580925249e-24
-5.247312772e-24
-5.275690761e-22
1.443023307e-24
-5.036973737e-24
-5.223217641e-22
1.308969361e-24
-4.712653866e-24
-5.17284792e-22
1.181997209e-24
-4.291539004e-24
-5.125721413e-22
1.064776154e-24
-3.791183432e-24
-5.082806074e-22
9.594020272e-25
-3.228390171e-24
-5.044894316e-22
8.674375677e-25
-2.618368968e-24
-5.012610517e-22
7.899992958e-25
-1.974225936e-24
-4.986426946e-22
7.279038896e-25
-1.306817774e-24
-4.966684728e-22
6.819542431e-25
-6.250109674e-25
-4.953616649e-22
6.537253491e-25
-4.947365886e-22
6.484385508e-25
1.188237035e-24
-1.82964925e-55
1.188138007e-24
8.736024047e-25
-3.942708218e-48
1.188141945e-24
6.061049927e-25
-6.361683261e-48
1.18814168e-24
3.961418683e-25
-5.591489584e-48
1.188141611e-24
2.43718987e-25
-4.663192665e-48
1.188141565e-24
1.411463231e-25
-3.689763905e-48
1.188141513e-24
7.69999125e-26
-2.979725312e-48
1.188141486e-24
3.961871687e-26
-2.404340538e-48
1.188141468e-24
1.926097592e-26
-2.131418125e-48
1.188141442e-24
8.86853556e-27
-1.924269596e-48
1.18814143e-24
3.879635898e-27
-1.791463344e-48
1.188141433e-24
1.619662282e-27
-1.660664657e-48
1.18814143e-24
6.496378269e-28
-1.777938953e-48
1.18814142e-24
2.53056968e-28
-1.655447888e-48
1.188141418e-24
9.742130818e-29
-1.37448006e-48
1.188141419e-24
3.803956058e-29
-1.416052409e-48
1.188141428e-24
1.547675258e-29
-1.571617375e-48
1.18814143e-24
6.523397499e-30
-1.419725446e-48
1.188141423e-24
2.486065969e-30
-1.312823166e-48
1.188141436e-24
-2.694126466e-34
-1.280783392e-48
1.188141432e-24
-2.487686611e-30
-1.280821763e-48
1.188141428e-24
-6.523262806e-30
1.979209413e-52
1.188141435e-24
-1.547354039e-29
-1.436595309e-48
1.188141432e-24
-3.804168058e-29
-1.553648113e-48
1.188141431e-24
-9.742432051e-29
-1.414143301e-48
1.188141429e-24
-2.530543255e-28
-1.394805903e-48
1.188141421e-24
-6.496349178e-28
-1.644837227e-48
1.188141421e-24
-1.61966176e-27
-1.765939664e-48
1.188141422e-24
-3.879637806e-27
-1.662124706e-48
1.18814143e-24
-8.868543529e-27
-1.82180291e-48
1.188141427e-24
-1.926096757e-26
-1.956049379e-48
1.188141439e-24
-3.961870841e-26
-2.155541933e-48
1.188141445e-24
-7.699992714e-26
-2.471657229e-48
1.188141455e-24
-1.41146321e-25
-3.053883397e-48
1.188141494e-24
-2.437189808e-25
-3.72774741e-48
1.188141517e-24
-3.961418621e-25
-4.668904872e-48
1.188141556e-24
-6.061050059e-25
-5.681047892e-48
1.1881416e-24
-8.736024027e-25
-5.413155381e-48
1.188141689e-24
-1.188237029e-24
4.165867008e-53
1.188141947e-24
-2.058528372e-55
1.188138003e-24
1.9080367e-63
-1.857187912e-55
1.907876725e-63
1.299891609e-56