/*--------------------------------*- C++ -*----------------------------------*\
  =========                 |
  \\      /  F ield         | OpenFOAM: The Open Source CFD Toolbox
   \\    /   O peration     | Website:  https://openfoam.org
    \\  /    A nd           | Version:  10
     \\/     M anipulation  |
\*---------------------------------------------------------------------------*/
FoamFile
{
    format      ascii;
    class       volVectorField;
    location    "0.0002";
    object      U;
}
// * * * * * * * * * * * * * * * * * * * * * * * * * * * * * * * * * * * * * //

dimensions      [0 1 -1 0 0 0 0];

internalField   nonuniform List<vector> 
16000
(
(7.379728065e-15 -4.314490386e-12 6.135490366e-15)
(2.970192722e-14 -4.298173171e-12 6.452930547e-15)
(6.523274939e-14 -4.268051852e-12 6.33641527e-15)
(1.145028585e-13 -4.230741043e-12 5.98705932e-15)
(1.799506417e-13 -4.193663493e-12 5.44965546e-15)
(2.599707267e-13 -4.163863605e-12 4.867700237e-15)
(3.502074327e-13 -4.146748251e-12 4.544162279e-15)
(4.444822855e-13 -4.145400732e-12 4.929599722e-15)
(5.357696579e-13 -4.160534044e-12 6.557689418e-15)
(6.170255866e-13 -4.19090927e-12 9.947621779e-15)
(6.817765012e-13 -4.233951013e-12 1.549748181e-14)
(7.244968353e-13 -4.28633674e-12 2.339059264e-14)
(7.408601293e-13 -4.344448588e-12 3.353057105e-14)
(7.279365206e-13 -4.404672993e-12 4.551440362e-14)
(6.843675532e-13 -4.463581242e-12 5.864774242e-14)
(6.105105954e-13 -4.518034825e-12 7.200224509e-14)
(5.085218693e-13 -4.565254908e-12 8.451010596e-14)
(3.823381677e-13 -4.602884897e-12 9.508560867e-14)
(2.375214047e-13 -4.629060003e-12 1.027582152e-13)
(8.094782404e-14 -4.642481266e-12 1.06797872e-13)
(-7.964769449e-14 -4.642479833e-12 1.068125898e-13)
(-2.362304718e-13 -4.629054747e-12 1.028018656e-13)
(-3.810624634e-13 -4.602873479e-12 9.515670766e-14)
(-5.072620066e-13 -4.565235086e-12 8.460628826e-14)
(-6.092613174e-13 -4.518006424e-12 7.212045285e-14)
(-6.831194406e-13 -4.463547779e-12 5.878446237e-14)
(-7.266790243e-13 -4.404642137e-12 4.566586043e-14)
(-7.395840446e-13 -4.344431106e-12 3.369281135e-14)
(-7.231946044e-13 -4.286344465e-12 2.355950687e-14)
(-6.804404728e-13 -4.233994928e-12 1.566889285e-14)
(-6.156461588e-13 -4.190998569e-12 1.011752133e-14)
(-5.343355484e-13 -4.160676235e-12 6.722612635e-15)
(-4.429839138e-13 -4.145602125e-12 5.087128272e-15)
(-3.486428656e-13 -4.147014103e-12 4.693617606e-15)
(-2.583531928e-13 -4.164197808e-12 5.011239244e-15)
(-1.783190152e-13 -4.194068708e-12 5.594470523e-15)
(-1.12947536e-13 -4.231220944e-12 6.151079275e-15)
(-6.401258001e-14 -4.268618676e-12 6.56671874e-15)
(-3.032382357e-14 -4.298881352e-12 6.900421845e-15)
(-8.478943322e-15 -4.315853911e-12 7.428538506e-15)
(1.409522128e-14 -4.339358526e-12 1.287866102e-14)
(4.838062325e-14 -4.328325205e-12 1.34071394e-14)
(9.205331827e-14 -4.308848706e-12 1.374220254e-14)
(1.44247559e-13 -4.284752615e-12 1.419225462e-14)
(2.069393399e-13 -4.26079846e-12 1.48848998e-14)
(2.791133008e-13 -4.241743001e-12 1.599849219e-14)
(3.577903503e-13 -4.231530659e-12 1.779581205e-14)
(4.38532009e-13 -4.232784644e-12 2.060673527e-14)
(5.160206854e-13 -4.24663904e-12 2.478091967e-14)
(5.846272721e-13 -4.272846006e-12 3.062223166e-14)
(6.388984604e-13 -4.310037849e-12 3.831891964e-14)
(6.739524865e-13 -4.356030988e-12 4.788323677e-14)
(6.858040396e-13 -4.408102759e-12 5.911143845e-14)
(6.71640522e-13 -4.463218507e-12 7.157134424e-14)
(6.300552749e-13 -4.518215624e-12 8.462083635e-14)
(5.612242126e-13 -4.569962027e-12 9.745686507e-14)
(4.669996187e-13 -4.615505861e-12 1.091906185e-13)
(3.508915671e-13 -4.652226065e-12 1.189405968e-13)
(2.179139898e-13 -4.677982948e-12 1.259319119e-13)
(7.428830457e-14 -4.691257081e-12 1.295880463e-13)
(-7.297999225e-14 -4.69125808e-12 1.296013945e-13)
(-2.166129009e-13 -4.677984989e-12 1.259715825e-13)
(-3.496031822e-13 -4.652226975e-12 1.190054498e-13)
(-4.657263407e-13 -4.615504099e-12 1.092787291e-13)
(-5.599648402e-13 -4.56995896e-12 9.756556013e-14)
(-6.288054561e-13 -4.518217115e-12 8.474681469e-14)
(-6.703938386e-13 -4.463234868e-12 7.171085168e-14)
(-6.845529412e-13 -4.408146895e-12 5.926045457e-14)
(-6.726884443e-13 -4.356115716e-12 4.803766704e-14)
(-6.376114787e-13 -4.310173859e-12 3.847482065e-14)
(-5.833056634e-13 -4.273041406e-12 3.07760792e-14)
(-5.146521336e-13 -4.246900199e-12 2.492990482e-14)
(-4.37106414e-13 -4.233117157e-12 2.074911189e-14)
(-3.563043539e-13 -4.231939233e-12 1.793140702e-14)
(-2.775763211e-13 -4.242229661e-12 1.612963001e-14)
(-2.053820952e-13 -4.261359057e-12 1.501840184e-14)
(-1.427392446e-13 -4.285370355e-12 1.434461355e-14)
(-9.077749506e-14 -4.309476302e-12 1.395594746e-14)
(-4.856796877e-14 -4.328824676e-12 1.381921103e-14)
(-1.48282724e-14 -4.339297161e-12 1.408672775e-14)
(1.841304869e-14 -4.391744341e-12 1.723658996e-14)
(6.021174693e-14 -4.384921517e-12 1.793093193e-14)
(1.088053395e-13 -4.373238774e-12 1.865914617e-14)
(1.625531045e-13 -4.359124682e-12 1.974558002e-14)
(2.229602558e-13 -4.345772969e-12 2.133263672e-14)
(2.892385279e-13 -4.336489333e-12 2.358428071e-14)
(3.591657902e-13 -4.334169079e-12 2.670579531e-14)
(4.293739044e-13 -4.340920894e-12 3.092595977e-14)
(4.957082957e-13 -4.357872068e-12 3.646176269e-14)
(5.536267777e-13 -4.38513804e-12 4.347342369e-14)
(5.985915189e-13 -4.421906464e-12 5.201831043e-14)
(6.264319257e-13 -4.466581792e-12 6.201246089e-14)
(6.336726103e-13 -4.51695185e-12 7.320706193e-14)
(6.178236556e-13 -4.570358503e-12 8.518494759e-14)
(5.776240331e-13 -4.623869589e-12 9.737944596e-14)
(5.132203581e-13 -4.674455707e-12 1.091149597e-13)
(4.262578313e-13 -4.719174703e-12 1.196656736e-13)
(3.198610807e-13 -4.755361485e-12 1.283259897e-13)
(1.984903893e-13 -4.780813585e-12 1.344840868e-13)
(6.767269194e-14 -4.793956289e-12 1.376888628e-13)
(-6.637560306e-14 -4.793967933e-12 1.377008626e-13)
(-1.971993665e-13 -4.780847968e-12 1.345197674e-13)
(-3.185815731e-13 -4.755417449e-12 1.283843669e-13)
(-4.249939914e-13 -4.719251765e-12 1.197450438e-13)
(-5.11974333e-13 -4.674555575e-12 1.092128852e-13)
(-5.763953485e-13 -4.623997142e-12 9.749283177e-14)
(-6.166088047e-13 -4.570521626e-12 8.531021751e-14)
(-6.324648933e-13 -4.517160078e-12 7.334040153e-14)
(-6.252215684e-13 -4.466844442e-12 6.2150089e-14)
(-5.973661621e-13 -4.422231214e-12 5.215674761e-14)
(-5.523724983e-13 -4.385530548e-12 4.360973441e-14)
(-4.944113001e-13 -4.358336445e-12 3.65937666e-14)
(-4.280229485e-13 -4.341460242e-12 3.10524611e-14)
(-3.577553694e-13 -4.33478521e-12 2.682696074e-14)
(-2.87773017e-13 -4.337181026e-12 2.370242331e-14)
(-2.214597088e-13 -4.346532455e-12 2.145402368e-14)
(-1.610647809e-13 -4.359931687e-12 1.988516226e-14)
(-1.074669014e-13 -4.374049951e-12 1.885548711e-14)
(-6.0144682e-14 -4.385649851e-12 1.830967647e-14)
(-1.895142807e-14 -4.392161553e-12 1.835919598e-14)
(2.091804527e-14 -4.458068278e-12 1.979359364e-14)
(6.688619114e-14 -4.454447688e-12 2.059744117e-14)
(1.178501533e-13 -4.448715748e-12 2.159903014e-14)
(1.717133636e-13 -4.442459664e-12 2.310526442e-14)
(2.295746891e-13 -4.4378731e-12 2.524506075e-14)
(2.907171905e-13 -4.437283944e-12 2.81504643e-14)
(3.533587893e-13 -4.442800895e-12 3.197005022e-14)
(4.148290199e-13 -4.456031886e-12 3.685307352e-14)
(4.718035397e-13 -4.477900403e-12 4.292315228e-14)
(5.205928768e-13 -4.508562131e-12 5.024709946e-14)
(5.574547082e-13 -4.547405084e-12 5.880443636e-14)
(5.789070999e-13 -4.593110048e-12 6.84632183e-14)
(5.820273287e-13 -4.643751928e-12 7.896703196e-14)
(5.647227835e-13 -4.696930401e-12 8.993654172e-14)
(5.259580707e-13 -4.749924509e-12 1.008870343e-13)
(4.65919098e-13 -4.799868121e-12 1.112612579e-13)
(3.86093841e-13 -4.843941539e-12 1.204746804e-13)
(2.892526856e-13 -4.879570369e-12 1.279683521e-13)
(1.793191858e-13 -4.904617881e-12 1.332631317e-13)
(6.113395627e-14 -4.917553259e-12 1.36008415e-13)
(-5.987167093e-14 -4.917577225e-12 1.360188898e-13)
(-1.780624163e-13 -4.904689449e-12 1.332942768e-13)
(-2.880069798e-13 -4.879688795e-12 1.280193076e-13)
(-3.848644669e-13 -4.844106306e-12 1.205439616e-13)
(-4.64710217e-13 -4.800079715e-12 1.113467411e-13)
(-5.247715069e-13 -4.750184964e-12 1.009860221e-13)
(-5.635567744e-13 -4.697243336e-12 9.004592347e-14)
(-5.808757573e-13 -4.64412204e-12 7.90835168e-14)
(-5.777595805e-13 -4.593542344e-12 6.858359277e-14)
(-5.562975855e-13 -4.547904272e-12 5.892579908e-14)
(-5.194108944e-13 -4.50913239e-12 5.03670462e-14)
(-4.705818278e-13 -4.478545443e-12 4.303992095e-14)
(-4.135551789e-13 -4.456754893e-12 3.696571026e-14)
(-3.520251374e-13 -4.443603909e-12 3.20787243e-14)
(-2.893235658e-13 -4.438166277e-12 2.825717381e-14)
(-2.281327559e-13 -4.438828676e-12 2.535530445e-14)
(-1.702567406e-13 -4.44347337e-12 2.323243904e-14)
(-1.164956592e-13 -4.449759262e-12 2.177829781e-14)
(-6.667957123e-14 -4.455471865e-12 2.094482024e-14)
(-2.133997462e-14 -4.458887748e-12 2.08317928e-14)
(2.203363911e-14 -4.532355305e-12 2.097239262e-14)
(6.956427672e-14 -4.531213489e-12 2.182500225e-14)
(1.207933625e-13 -4.530156582e-12 2.297557879e-14)
(1.733957528e-13 -4.530217799e-12 2.470054575e-14)
(2.281359763e-13 -4.532912765e-12 2.710565435e-14)
(2.843107324e-13 -4.539873726e-12 3.028851862e-14)
(3.404178484e-13 -4.552599266e-12 3.434933168e-14)
(3.942743965e-13 -4.572240617e-12 3.937788322e-14)
(4.431780504e-13 -4.599442398e-12 4.543409386e-14)
(4.841220967e-13 -4.634246874e-12 5.252636313e-14)
(5.140436019e-13 -4.676059693e-12 6.059144219e-14)
(5.300850819e-13 -4.723669406e-12 6.94795248e-14)
(5.298522575e-13 -4.775312307e-12 7.894773508e-14)
(5.11651075e-13 -4.828775854e-12 8.866418322e-14)
(4.746863129e-13 -4.881535294e-12 9.822340745e-14)
(4.192033281e-13 -4.930917695e-12 1.071724921e-13)
(3.465555834e-13 -4.974285241e-12 1.15045626e-13)
(2.591847383e-13 -5.009226122e-12 1.214035411e-13)
(1.605074994e-13 -5.033737952e-12 1.258733519e-13)
(5.471334838e-14 -5.046386572e-12 1.281839768e-13)
(-5.351179276e-14 -5.046423457e-12 1.281926669e-13)
(-1.593109365e-13 -5.033848217e-12 1.258991988e-13)
(-2.579984303e-13 -5.009408659e-12 1.214458615e-13)
(-3.453849117e-13 -4.974538405e-12 1.151032538e-13)
(-4.180529914e-13 -4.931239601e-12 1.07243776e-13)
(-4.7355897e-13 -4.881924183e-12 9.830626327e-14)
(-5.1054588e-13 -4.82923048e-12 8.875621364e-14)
(-5.28763901e-13 -4.775832286e-12 7.904640059e-14)
(-5.29003801e-13 -4.724255491e-12 6.958232911e-14)
(-5.12956208e-13 -4.676713928e-12 6.069609444e-14)
(-4.830136687e-13 -4.634972597e-12 5.263090134e-14)
(-4.420338031e-13 -4.600244004e-12 4.553698936e-14)
(-3.930814144e-13 -4.573122984e-12 3.947818675e-14)
(-3.391667538e-13 -4.553566739e-12 3.444697353e-14)
(-2.829977841e-13 -4.540928566e-12 3.038497842e-14)
(-2.267668013e-13 -4.534053092e-12 2.720552964e-14)
(-1.719953674e-13 -4.531435254e-12 2.48156455e-14)
(-1.194653967e-13 -4.531434005e-12 2.313775851e-14)
(-6.927316835e-14 -4.532516786e-12 2.214061947e-14)
(-2.236731118e-14 -4.533494978e-12 2.192218396e-14)
(2.205986141e-14 -4.609755606e-12 2.107227564e-14)
(6.908491458e-14 -4.610563487e-12 2.192058756e-14)
(1.188458437e-13 -4.613217346e-12 2.311529333e-14)
(1.6895718e-13 -4.618367776e-12 2.489808026e-14)
(2.199187619e-13 -4.627048659e-12 2.735059928e-14)
(2.710306896e-13 -4.640376682e-12 3.054002191e-14)
(3.209918982e-13 -4.659367759e-12 3.452864885e-14)
(3.679858877e-13 -4.6847734e-12 3.936385755e-14)
(4.09797283e-13 -4.716948776e-12 4.506388197e-14)
(4.439755818e-13 -4.755762955e-12 5.160281585e-14)
(4.680321755e-13 -4.800555372e-12 5.889740468e-14)
(4.796544864e-13 -4.850138161e-12 6.679807776e-14)
(4.769208814e-13 -4.902841705e-12 7.508628737e-14)
(4.584997969e-13 -4.956599754e-12 8.347951302e-14)
(4.238162294e-13 -5.009069404e-12 9.164433932e-14)
(3.731691501e-13 -5.057779431e-12 9.92169478e-14)
(3.077854137e-13 -5.100297764e-12 1.058293109e-13)
(2.297999752e-13 -5.134405912e-12 1.111384846e-13)
(1.421587361e-13 -5.158265717e-12 1.148558054e-13)
(4.844845086e-14 -5.170562732e-12 1.167726105e-13)
(-4.733331607e-14 -5.170611537e-12 1.167793872e-13)
(-1.410476181e-13 -5.158411516e-12 1.148759834e-13)
(-2.286971682e-13 -5.134646835e-12 1.111716028e-13)
(-3.066954091e-13 -5.100630661e-12 1.058745899e-13)
(-3.72095994e-13 -5.058199975e-12 9.927329293e-14)
(-4.227623852e-13 -5.009572461e-12 9.171036998e-14)
(-4.574648783e-13 -4.957180075e-12 8.355362771e-14)
(-4.75900769e-13 -4.903494862e-12 7.516675505e-14)
(-4.786412224e-13 -4.850861501e-12 6.688313604e-14)
(-4.670146911e-13 -4.80134872e-12 5.898534644e-14)
(-4.429409705e-13 -4.756628837e-12 5.169206251e-14)
(-4.087322154e-13 -4.717892095e-12 4.515306726e-14)
(-3.668779131e-13 -4.685800596e-12 3.945197372e-14)
(-3.198307185e-13 -4.660485554e-12 3.461534789e-14)
(-2.698099189e-13 -4.641590498e-12 3.062625862e-14)
(-2.186394442e-13 -4.628360796e-12 2.744009419e-14)
(-1.676376541e-13 -4.619775434e-12 2.500108631e-14)
(-1.175771909e-13 -4.614710151e-12 2.326032028e-14)
(-6.87405443e-14 -4.612112723e-12 2.22038874e-14)
(-2.231816728e-14 -4.611162009e-12 2.192981107e-14)
(2.122575801e-14 -4.686445103e-12 2.03215121e-14)
(6.610253647e-14 -4.688788687e-12 2.112497994e-14)
(1.129890733e-13 -4.69437796e-12 2.228494948e-14)
(1.595644395e-13 -4.703589442e-12 2.400824026e-14)
(2.061270705e-13 -4.717102557e-12 2.635519006e-14)
(2.519916323e-13 -4.735641666e-12 2.936870566e-14)
(2.960211303e-13 -4.759838006e-12 3.308328963e-14)
(3.366933798e-13 -4.790103949e-12 3.751759032e-14)
(3.721884959e-13 -4.826526968e-12 4.26641633e-14)
(4.005155013e-13 -4.868793125e-12 4.847915621e-14)
(4.19668396e-13 -4.916146196e-12 5.487372583e-14)
(4.277987483e-13 -4.967385176e-12 6.170883007e-14)
(4.233906642e-13 -5.02090033e-12 6.879473478e-14)
(4.054233762e-13 -5.074745886e-12 7.589606599e-14)
(3.735066353e-13 -5.126745414e-12 8.274257137e-14)
(3.279749679e-13 -5.174623526e-12 8.904501314e-14)
(2.699291022e-13 -5.216154901e-12 9.451489679e-14)
(2.012167853e-13 -5.249319104e-12 9.888614447e-14)
(1.243506797e-13 -5.272447889e-12 1.019364424e-13)
(4.236752861e-14 -5.2843512e-12 1.035058958e-13)
(-4.136057693e-14 -5.284409285e-12 1.035108444e-13)
(-1.233462349e-13 -5.272621333e-12 1.019512077e-13)
(-2.002175747e-13 -5.249605433e-12 9.89104838e-14)
(-2.689380518e-13 -5.216549928e-12 9.454840073e-14)
(-3.269947921e-13 -5.175121442e-12 8.908710315e-14)
(-3.725390698e-13 -5.127339203e-12 8.279250428e-14)
(-4.044682807e-13 -5.07542815e-12 7.595294864e-14)
(-4.224453269e-13 -5.021664437e-12 6.885754744e-14)
(-4.268576585e-13 -4.968226466e-12 6.177645393e-14)
(-4.187235434e-13 -4.917062909e-12 5.494497242e-14)
(-3.99557044e-13 -4.869786791e-12 4.855280691e-14)
(-3.712055623e-13 -4.827602154e-12 4.273904181e-14)
(-3.356748734e-13 -4.791267444e-12 3.759270927e-14)
(-2.94956656e-13 -4.761097585e-12 3.315814498e-14)
(-2.508730265e-13 -4.737004577e-12 2.944387852e-14)
(-2.049517374e-13 -4.718573803e-12 2.643368156e-14)
(-1.583447225e-13 -4.705169792e-12 2.409887127e-14)
(-1.118026852e-13 -4.696060925e-12 2.24128889e-14)
(-6.572502644e-14 -4.690547807e-12 2.13760108e-14)
(-2.141659809e-14 -4.688074543e-12 2.108481958e-14)
(1.971627735e-14 -4.75940956e-12 1.890423027e-14)
(6.115205757e-14 -4.762951013e-12 1.963462848e-14)
(1.040450881e-13 -4.770834582e-12 2.070524563e-14)
(1.462325827e-13 -4.783234985e-12 2.228971271e-14)
(1.878665385e-13 -4.800564845e-12 2.443102289e-14)
(2.282952409e-13 -4.823245941e-12 2.715411339e-14)
(2.665296152e-13 -4.851603511e-12 3.047433514e-14)
(3.012969254e-13 -4.885769682e-12 3.439213261e-14)
(3.311081069e-13 -4.9256002e-12 3.888578702e-14)
(3.543563539e-13 -4.970612984e-12 4.390439186e-14)
(3.69440124e-13 -5.019954818e-12 4.936235136e-14)
(3.749003521e-13 -5.072399957e-12 5.513650952e-14)
(3.695601716e-13 -5.12638195e-12 6.106677703e-14)
(3.526547135e-13 -5.180057708e-12 6.696075418e-14)
(3.239385901e-13 -5.231400428e-12 7.260237916e-14)
(2.837596632e-13 -5.278315562e-12 7.776411861e-14)
(2.330898353e-13 -5.318771573e-12 8.222172954e-14)
(1.735069864e-13 -5.350935137e-12 8.577022585e-14)
(1.071266402e-13 -5.373299155e-12 8.823944047e-14)
(3.64870553e-14 -5.384791737e-12 8.950752708e-14)
(-3.560344943e-14 -5.384855601e-12 8.951091199e-14)
(-1.062437661e-13 -5.373489899e-12 8.824957167e-14)
(-1.726257627e-13 -5.351250195e-12 8.578703102e-14)
(-2.322114177e-13 -5.319206651e-12 8.224508186e-14)
(-2.828852691e-13 -5.278864771e-12 7.779382618e-14)
(-3.230690939e-13 -5.232056691e-12 7.263816946e-14)
(-3.517901126e-13 -5.180813524e-12 6.700225555e-14)
(-3.686990848e-13 -5.127230439e-12 6.111349987e-14)
(-3.740396948e-13 -5.073335966e-12 5.518783175e-14)
(-3.68575016e-13 -5.020975815e-12 4.941751504e-14)
(-3.534802153e-13 -4.971719502e-12 4.396252334e-14)
(-3.302128682e-13 -4.926795744e-12 3.894596021e-14)
(-3.003733437e-13 -4.887060131e-12 3.445350662e-14)
(-2.655678518e-13 -4.852996131e-12 3.053642486e-14)
(-2.272861372e-13 -4.8247481e-12 2.72173286e-14)
(-1.868046594e-13 -4.802182453e-12 2.449784903e-14)
(-1.451247756e-13 -4.784970468e-12 2.236770714e-14)
(-1.029552058e-13 -4.772683412e-12 2.081630427e-14)
(-6.075416268e-14 -4.764887838e-12 1.985387101e-14)
(-1.984490313e-14 -4.761225083e-12 1.957285888e-14)
(1.768430467e-14 -4.826292508e-12 1.697243967e-14)
(5.4677514e-14 -4.830752681e-12 1.761152701e-14)
(9.270510165e-14 -4.840398815e-12 1.855767487e-14)
(1.298341768e-13 -4.855254031e-12 1.995355624e-14)
(1.661161147e-13 -4.875527903e-12 2.182875268e-14)
(2.009529661e-13 -4.901408253e-12 2.419575508e-14)
(2.334973886e-13 -4.932979082e-12 2.705768088e-14)
(2.626966908e-13 -4.970146562e-12 3.040459615e-14)
(2.873451947e-13 -5.012574888e-12 3.420845691e-14)
(3.061608834e-13 -5.059639104e-12 3.84183862e-14)
(3.178814229e-13 -5.11040067e-12 4.295721013e-14)
(3.213716168e-13 -5.163609563e-12 4.7720002e-14)
(3.157329133e-13 -5.217734564e-12 5.257519454e-14)
(3.004048981e-13 -5.271021125e-12 5.736855339e-14)
(2.752487809e-13 -5.321573911e-12 6.192997568e-14)
(2.406038232e-13 -5.367458818e-12 6.608272513e-14)
(1.973095269e-13 -5.406817144e-12 6.965438413e-14)
(1.466892026e-13 -5.437982899e-12 7.248854121e-14)
(9.049408056e-14 -5.459593255e-12 7.445607788e-14)
(3.081108291e-14 -5.470682185e-12 7.546489874e-14)
(-3.005873977e-14 -5.470748447e-12 7.546707301e-14)
(-8.974082921e-14 -5.459791336e-12 7.446261207e-14)
(-1.459343264e-13 -5.438310685e-12 7.249946701e-14)
(-1.965526277e-13 -5.407271141e-12 6.966974506e-14)
(-2.398448316e-13 -5.368034283e-12 6.610256019e-14)
(-2.744878225e-13 -5.322265182e-12 6.195429386e-14)
(-2.996420289e-13 -5.271822186e-12 5.73973008e-14)
(-3.149677694e-13 -5.218639806e-12 5.260821885e-14)
(-3.206030351e-13 -5.164614603e-12 4.775702175e-14)
(-3.171070787e-13 -5.111503047e-12 4.299779883e-14)
(-3.053769726e-13 -5.060838696e-12 3.846198314e-14)
(-2.865461921e-13 -5.013873971e-12 3.425442034e-14)
(-2.618752603e-13 -4.971549509e-12 3.045232249e-14)
(-2.326446243e-13 -4.934491734e-12 2.710683686e-14)
(-2.000593488e-13 -4.903036982e-12 2.424673746e-14)
(-1.651741053e-13 -4.877278294e-12 2.188369633e-14)
(-1.288456809e-13 -4.857128878e-12 2.001890208e-14)
(-9.172005524e-14 -4.842394323e-12 1.865213143e-14)
(-5.426669778e-14 -4.832843768e-12 1.779946812e-14)
(-1.775384343e-14 -4.828267214e-12 1.754641198e-14)
(1.525610471e-14 -4.885282339e-12 1.465146434e-14)
(4.704575028e-14 -4.890432281e-12 1.518820545e-14)
(7.954373786e-14 -4.901404473e-12 1.598907144e-14)
(1.111034949e-13 -4.91810665e-12 1.716786523e-14)
(1.417123167e-13 -4.940593887e-12 1.874413508e-14)
(1.708440619e-13 -4.968874484e-12 2.07223898e-14)
(1.977913061e-13 -5.00284524e-12 2.309878845e-14)
(2.2170112e-13 -5.042234771e-12 2.585866448e-14)
(2.416155648e-13 -5.086554863e-12 2.89730621e-14)
(2.565305714e-13 -5.135065641e-12 3.239561088e-14)
(2.654696652e-13 -5.186759538e-12 3.606039383e-14)
(2.675664585e-13 -5.240367478e-12 3.988131333e-14)
(2.621486095e-13 -5.294388859e-12 4.375331518e-14)
(2.488153659e-13 -5.347144839e-12 4.755563909e-14)
(2.275008969e-13 -5.396852409e-12 5.115703517e-14)
(1.985164303e-13 -5.441714611e-12 5.442264441e-14)
(1.625657548e-13 -5.48002052e-12 5.72220183e-14)
(1.207308754e-13 -5.510247206e-12 5.943757976e-14)
(7.442735345e-14 -5.531155159e-12 6.09727293e-14)
(2.533186347e-14 -5.541868831e-12 6.175879443e-14)
(-2.471260022e-14 -5.541934931e-12 6.176011119e-14)
(-7.380600442e-14 -5.531353022e-12 6.097670573e-14)
(-1.20105568e-13 -5.510575533e-12 5.944429146e-14)
(-1.619350153e-13 -5.480477175e-12 5.723158075e-14)
(-1.978793093e-13 -5.442296706e-12 5.443519547e-14)
(-2.268569965e-13 -5.397556503e-12 5.117270899e-14)
(-2.48164737e-13 -5.347967249e-12 4.757453313e-14)
(-2.614915026e-13 -5.295326096e-12 4.377545514e-14)
(-2.669029359e-13 -5.241416732e-12 3.990662314e-14)
(-2.647991084e-13 -5.18791913e-12 3.608867945e-14)
(-2.558511389e-13 -5.136335368e-12 3.242656754e-14)
(-2.409236813e-13 -5.087936168e-12 2.900631662e-14)
(-2.209911066e-13 -5.043730714e-12 2.589387089e-14)
(-1.970553249e-13 -5.004460247e-12 2.313581447e-14)
(-1.700726977e-13 -4.970613789e-12 2.076168968e-14)
(-1.408965554e-13 -4.942462505e-12 1.878757686e-14)
(-1.102408047e-13 -4.920107445e-12 1.722085808e-14)
(-7.86700963e-14 -4.903534025e-12 1.606719415e-14)
(-4.662705323e-14 -4.892665211e-12 1.534503039e-14)
(-1.52683484e-14 -4.887402759e-12 1.513039499e-14)
(1.253436295e-14 -4.935018874e-12 1.204298092e-14)
(3.855537982e-14 -4.940674469e-12 1.247114431e-14)
(6.503073229e-14 -4.952619669e-12 1.311566694e-14)
(9.064476302e-14 -4.970674035e-12 1.40630976e-14)
(1.15348281e-13 -4.994776752e-12 1.532561745e-14)
(1.387016139e-13 -5.024801128e-12 1.690316187e-14)
(1.601371021e-13 -5.060502317e-12 1.878879675e-14)
(1.789870674e-13 -5.101473703e-12 2.096707806e-14)
(1.945143239e-13 -5.147110371e-12 2.341173045e-14)
(2.059562085e-13 -5.196584315e-12 2.608362266e-14)
(2.125795858e-13 -5.248835554e-12 2.892949289e-14)
(2.13742296e-13 -5.302582088e-12 3.188175863e-14)
(2.089555524e-13 -5.35635005e-12 3.485963956e-14)
(1.979413473e-13 -5.408523594e-12 3.777168773e-14)
(1.806790097e-13 -5.457412222e-12 4.051966241e-14)
(1.574357122e-13 -5.50133148e-12 4.300352422e-14)
(1.287769314e-13 -5.538691398e-12 4.5127175e-14)
(9.555456371e-14 -5.568085962e-12 4.680445657e-14)
(5.887245517e-14 -5.588376343e-12 4.796486013e-14)
(2.003131132e-14 -5.598760833e-12 4.855839805e-14)
(-1.954293078e-14 -5.598825298e-12 4.855915485e-14)
(-5.838143171e-14 -5.588569612e-12 4.796715752e-14)
(-9.505847856e-14 -5.56840766e-12 4.680837273e-14)
(-1.282738007e-13 -5.539140897e-12 4.513283096e-14)
(-1.569241601e-13 -5.501907905e-12 4.301106911e-14)
(-1.801583656e-13 -5.458114497e-12 4.052925252e-14)
(-1.974116215e-13 -5.409350529e-12 3.778346109e-14)
(-2.08417252e-13 -5.357300489e-12 3.487368953e-14)
(-2.131960692e-13 -5.30365511e-12 3.189811204e-14)
(-2.120257152e-13 -5.250030718e-12 2.894809878e-14)
(-2.053940105e-13 -5.197901917e-12 2.610435843e-14)
(-1.93941538e-13 -5.148551684e-12 2.34344338e-14)
(-1.783993391e-13 -5.103041174e-12 2.099161828e-14)
(-1.595276987e-13 -5.062199637e-12 1.88152154e-14)
(-1.380616072e-13 -5.02663306e-12 1.693195924e-14)
(-1.146677617e-13 -4.996748445e-12 1.535839949e-14)
(-8.991720105e-14 -4.972789248e-12 1.410425962e-14)
(-6.427782167e-14 -4.954876305e-12 1.317767027e-14)
(-3.813543176e-14 -4.943047456e-12 1.259667856e-14)
(-1.249139099e-14 -4.937286638e-12 1.242575569e-14)
(9.600510321e-15 -4.974509544e-12 9.227348436e-15)
(2.944495558e-14 -4.980527869e-12 9.543784054e-15)
(4.954417146e-14 -4.993164363e-12 1.002708487e-14)
(6.894641199e-14 -5.012172635e-12 1.073761636e-14)
(8.758522438e-14 -5.037408567e-12 1.168217944e-14)
(1.051184973e-13 -5.068648157e-12 1.2858621e-14)
(1.21118731e-13 -5.105543853e-12 1.425963853e-14)
(1.350930655e-13 -5.147590546e-12 1.587169229e-14)
(1.46504952e-13 -5.194098177e-12 1.767349891e-14)
(1.548053889e-13 -5.244174642e-12 1.963476451e-14)
(1.594718931e-13 -5.296722525e-12 2.171545271e-14)
(1.600519619e-13 -5.350452124e-12 2.386580097e-14)
(1.56207103e-13 -5.4039119e-12 2.602722576e-14)
(1.477531939e-13 -5.455535862e-12 2.813416737e-14)
(1.346930111e-13 -5.50370579e-12 3.011682129e-14)
(1.17237254e-13 -5.546824628e-12 3.190459745e-14)
(9.581127309e-14 -5.583396067e-12 3.343005277e-14)
(7.104593077e-14 -5.612104443e-12 3.46329707e-14)
(4.375248162e-14 -5.631888633e-12 3.546422371e-14)
(1.488290862e-14 -5.642003874e-12 3.588905681e-14)
(-1.452137895e-14 -5.642066236e-12 3.588947493e-14)
(-4.33883665e-14 -5.632075878e-12 3.546549844e-14)
(-7.067685263e-14 -5.612417031e-12 3.463516112e-14)
(-9.543526028e-14 -5.583834712e-12 3.343325076e-14)
(-1.168529097e-13 -5.547390225e-12 3.190891776e-14)
(-1.342996206e-13 -5.504399325e-12 3.012238792e-14)
(-1.473507283e-13 -5.456358323e-12 2.814109767e-14)
(-1.557960832e-13 -5.404864224e-12 2.603561451e-14)
(-1.596331653e-13 -5.351535198e-12 2.387570783e-14)
(-1.590459156e-13 -5.297937279e-12 2.17268967e-14)
(-1.543721051e-13 -5.245522243e-12 1.964772973e-14)
(-1.460629381e-13 -5.195580318e-12 1.768795717e-14)
(-1.346390592e-13 -5.149209804e-12 1.588765243e-14)
(-1.20647211e-13 -5.107304047e-12 1.427724505e-14)
(-1.046215063e-13 -5.070554561e-12 1.287835928e-14)
(-8.705274345e-14 -5.039467696e-12 1.170534804e-14)
(-6.836866421e-14 -5.014390922e-12 1.076757052e-14)
(-4.892830444e-14 -4.995543799e-12 1.007315044e-14)
(-2.903738677e-14 -4.983047393e-12 9.637668786e-15)
(-9.507530933e-15 -4.976943252e-12 9.512403927e-15)
(6.516038341e-15 -5.00304949e-12 6.264937719e-15)
(1.99005606e-14 -5.009330981e-12 6.468744895e-15)
(3.338596621e-14 -5.022434906e-12 6.789600854e-15)
(4.640055925e-14 -5.042075036e-12 7.262398475e-15)
(5.887275841e-14 -5.068054549e-12 7.890040565e-15)
(7.056632788e-14 -5.100085273e-12 8.670032179e-15)
(8.119471339e-14 -5.137750798e-12 9.596538523e-15)
(9.0432744e-14 -5.180479556e-12 1.065966467e-14)
(9.793022824e-14 -5.227523965e-12 1.18445455e-14)
(1.033318603e-13 -5.277948823e-12 1.313061064e-14)
(1.063021036e-13 -5.330632049e-12 1.449119383e-14)
(1.065529207e-13 -5.384279944e-12 1.58936109e-14)
(1.038718144e-13 -5.437457907e-12 1.72997866e-14)
(9.814745697e-14 -5.488636092e-12 1.866745546e-14)
(8.939024415e-14 -5.536248057e-12 1.995189944e-14)
(7.774543566e-14 -5.578759007e-12 2.110812159e-14)
(6.349711571e-14 -5.614739154e-12 2.209329775e-14)
(4.706199734e-14 -5.642936875e-12 2.286930643e-14)
(2.897302439e-14 -5.662346049e-12 2.340511493e-14)
(9.853708585e-15 -5.672262196e-12 2.367880253e-14)
(-9.614934746e-15 -5.67232275e-12 2.367902876e-14)
(-2.873222663e-14 -5.662528089e-12 2.340580483e-14)
(-4.681731266e-14 -5.643241499e-12 2.287049263e-14)
(-6.324699486e-14 -5.615168094e-12 2.20950312e-14)
(-7.748877341e-14 -5.579314483e-12 2.111046651e-14)
(-8.912646382e-14 -5.536932592e-12 1.995492668e-14)
(-9.787651965e-14 -5.489452307e-12 1.86712351e-14)
(-1.035941263e-13 -5.438408332e-12 1.730438089e-14)
(-1.062691246e-13 -5.385366911e-12 1.589906926e-14)
(-1.060127608e-13 -5.331857684e-12 1.449755186e-14)
(-1.030370493e-13 -5.279315204e-12 1.31378952e-14)
(-9.76290991e-14 -5.229033446e-12 1.185278926e-14)
(-9.012306789e-14 -5.182135253e-12 1.066893663e-14)
(-8.087245552e-14 -5.139557195e-12 9.607005478e-15)
(-7.022525631e-14 -5.102048851e-12 8.682089275e-15)
(-5.850412208e-14 -5.070184232e-12 7.904617287e-15)
(-4.599330468e-14 -5.044381952e-12 7.281771769e-15)
(-3.293429339e-14 -5.024929645e-12 6.819954556e-15)
(-1.953488466e-14 -5.012006529e-12 6.530783249e-15)
(-6.387249821e-15 -5.005692962e-12 6.451104068e-15)
(3.319019949e-15 -5.020133608e-12 3.192678544e-15)
(1.00595393e-14 -5.026649927e-12 3.286413911e-15)
(1.680011606e-14 -5.04003442e-12 3.445783784e-15)
(2.33267691e-14 -5.060035844e-12 3.681863887e-15)
(2.957498689e-14 -5.086434954e-12 3.995077042e-15)
(3.542224876e-14 -5.118908595e-12 4.383798464e-15)
(4.072444844e-14 -5.157001279e-12 4.844813875e-15)
(4.531989818e-14 -5.200103308e-12 5.372918139e-15)
(4.903568446e-14 -5.247434024e-12 5.96048215e-15)
(5.169730491e-14 -5.298033539e-12 6.597115955e-15)
(5.314077212e-14 -5.350765888e-12 7.269501005e-15)
(5.322610464e-14 -5.404335646e-12 7.961447772e-15)
(5.185095519e-14 -5.457318812e-12 8.65421477e-15)
(4.89630437e-14 -5.508207464e-12 9.327099465e-15)
(4.457009678e-14 -5.555466273e-12 9.958281816e-15)
(3.874615655e-14 -5.597597711e-12 1.052587166e-14)
(3.163340501e-14 -5.633211711e-12 1.100908482e-14)
(2.343903601e-14 -5.661094829e-12 1.138945268e-14)
(1.442716058e-14 -5.68027371e-12 1.165196059e-14)
(4.906207192e-15 -5.690067855e-12 1.178601155e-14)
(-4.787272449e-15 -5.690127419e-12 1.178612507e-14)
(-1.430711516e-14 -5.68045292e-12 1.165230411e-14)
(-2.331685779e-14 -5.661395192e-12 1.139003482e-14)
(-3.150824435e-14 -5.633635605e-12 1.100991907e-14)
(-3.861740765e-14 -5.598148195e-12 1.052697514e-14)
(-4.4437444e-14 -5.556146829e-12 9.959673857e-15)
(-4.882646824e-14 -5.509021727e-12 9.328800067e-15)
(-5.171068783e-14 -5.458270306e-12 8.656243622e-15)
(-5.308251691e-14 -5.405427597e-12 7.963824146e-15)
(-5.299420836e-14 -5.352001178e-12 7.272245151e-15)
(-5.154786713e-14 -5.299414833e-12 6.600252803e-15)
(-4.888298739e-14 -5.248964125e-12 5.964048749e-15)
(-4.51628087e-14 -5.201785731e-12 5.376977967e-15)
(-4.056080829e-14 -5.158841056e-12 4.849485395e-15)
(-3.524854332e-14 -5.120913276e-12 4.389317261e-15)
(-2.938584534e-14 -5.088615803e-12 4.001944533e-15)
(-2.311407679e-14 -5.062409162e-12 3.691247909e-15)
(-1.655288129e-14 -5.042622523e-12 3.460774288e-15)
(-9.800703517e-15 -5.029474917e-12 3.317007402e-15)
(-3.19396335e-15 -5.023087387e-12 3.281064174e-15)
(1.355630208e-14 -2.51288051e-12 1.355517229e-14)
(1.021599542e-14 -2.516199939e-12 1.355520215e-14)
(7.267782234e-15 -2.522940364e-12 1.355520071e-14)
(4.869070939e-15 -2.532999943e-12 1.355520016e-14)
(3.068541605e-15 -2.546266897e-12 1.355519978e-14)
(1.818643112e-15 -2.562574513e-12 1.355519939e-14)
(1.014162941e-15 -2.581688797e-12 1.355519917e-14)
(5.327256245e-16 -2.603298707e-12 1.355519902e-14)
(2.64037685e-16 -2.627008526e-12 1.355519885e-14)
(1.237556987e-16 -2.652334288e-12 1.355519877e-14)
(5.501380319e-17 -2.678705773e-12 1.355519877e-14)
(2.328738887e-17 -2.705475031e-12 1.355519875e-14)