/*--------------------------------*- C++ -*----------------------------------*\
  =========                 |
  \\      /  F ield         | OpenFOAM: The Open Source CFD Toolbox
   \\    /   O peration     | Website:  https://openfoam.org
    \\  /    A nd           | Version:  6
     \\/     M anipulation  |
\*---------------------------------------------------------------------------*/
FoamFile
{
    version     2.0;
    format      ascii;
    class       volScalarField;
    location    "0.0012";
    object      TRHS;
}
// * * * * * * * * * * * * * * * * * * * * * * * * * * * * * * * * * * * * * //

dimensions      [1 -1 -3 0 0 0 0];

internalField   nonuniform List<scalar> 
9600
(
-6.185890599e-10
-9.131700254e-10
-9.040674801e-10
-6.743044712e-10
-4.113767815e-10
-1.641170612e-10
3.711523978e-11
1.999869736e-10
3.18128043e-10
4.078015113e-10
4.645908883e-10
5.04425037e-10
5.214120161e-10
5.299300212e-10
5.223633073e-10
5.116854987e-10
4.890227049e-10
4.664723808e-10
4.343552549e-10
4.04150719e-10
3.654930169e-10
3.293163329e-10
2.847836716e-10
2.424037809e-10
1.906982271e-10
1.391085225e-10
7.465538155e-11
4.989107148e-12
-8.439679788e-11
-1.871980482e-10
-3.192218678e-10
-4.765975367e-10
-6.792641724e-10
-9.299391192e-10
-1.256540268e-09
-1.670461075e-09
-2.207101984e-09
-2.884660546e-09
-3.744977165e-09
-4.81519697e-09
-6.149110572e-09
-7.789502926e-09
-9.806272294e-09
-1.225797863e-08
-1.522877785e-08
-1.879407456e-08
-2.305961933e-08
-2.813113603e-08
-3.415239485e-08
-4.127810448e-08
-4.971335517e-08
-5.969640761e-08
-7.154954173e-08
-8.568821233e-08
-1.027101748e-07
-1.234693019e-07
-1.492463569e-07
-1.818754497e-07
-2.23724496e-07
-2.770196332e-07
-3.417528207e-07
-4.131074226e-07
-4.849202753e-07
-5.862775523e-07
-7.60899592e-07
-1.478763881e-06
-2.176482806e-06
-0.002039539203
268.4828431
0
0
0
0
0
0
0
0
0
0
0
0
0
0
0
0
0
0
0
0
0
0
0
0
0
0
0
0
0
0
0
0
0
0
0
0
0
0
0
0
0
0
-0.00775470148
-0.001031089583
-1.28804557e-06
-6.38101122e-07
-1.005778825e-07
-6.618579153e-09
-5.201906295e-08
-1.644840848e-07
6.831656763e-08
-1.886065649e-09
-2.050075184e-09
-1.684504793e-09
-1.164454901e-09
-7.149668486e-10
-3.579915004e-10
-8.895647517e-11
1.130973677e-10
2.58038899e-10
3.627815435e-10
4.319116105e-10
4.778685684e-10
5.015312532e-10
5.124181485e-10
5.089761796e-10
4.989207481e-10
4.792187329e-10
4.565464211e-10
4.269675304e-10
3.9641056e-10
3.602727335e-10
3.239182233e-10
2.823046377e-10
2.403108091e-10
1.9217847e-10
1.417095875e-10
8.178253227e-11
1.488045322e-11
-6.708222961e-11
-1.624657553e-10
-2.805563914e-10
-4.224102506e-10
-6.019811439e-10
-8.27040096e-10
-1.119040239e-09
-1.49306463e-09
-1.97683226e-09
-2.591905765e-09
-3.374411031e-09
-4.358639562e-09
-5.597724285e-09
-7.14603612e-09
-9.076728528e-09
-1.146388219e-08
-1.440163158e-08
-1.799144811e-08
-2.236447466e-08
-2.767056588e-08
-3.409913263e-08
-4.186863492e-08
-5.124955187e-08
-6.25620975e-08
-7.621157127e-08
-9.270862698e-08
-1.127332613e-07
-1.371891312e-07
-1.672907229e-07
-2.046037105e-07
-2.510187791e-07
-3.085409974e-07
-3.792447022e-07
-4.66149323e-07
-5.794566225e-07
-7.475475008e-07
-1.011531774e-06
-1.422839851e-06
-1.868750061e-06
-1.643213332e-06
-0.0006148734964
218.7121761
0
0
0
0
0
0
0
0
0
0
0
0
0
0
0
0
0
0
0
0
0
0
0
0
0
0
0
0
0
0
0
0
0
0
0
0
0
0
0
0
-0.007487406358
-9.221143412e-07
-1.478376536e-06
-1.58123758e-06
-1.020589428e-06
-6.472272928e-07
-4.290559141e-07
-3.449476357e-07
-2.975593944e-07
3.677430357e-08
-7.368702979e-09
-4.703180849e-09
-2.772524964e-09
-1.683905162e-09
-9.852972652e-10
-5.140695083e-10
-1.840545307e-10
4.882887558e-11
2.145318504e-10
3.292405875e-10
4.077098233e-10
4.570115092e-10
4.860050727e-10
4.976542792e-10
4.9786054e-10
4.874066166e-10
4.706245965e-10
4.471030459e-10
4.20243038e-10
3.887965043e-10
3.55463153e-10
3.184392154e-10
2.799651589e-10
2.377309291e-10
1.932342142e-10
1.431254128e-10
8.775654283e-11
2.286158699e-11
-5.178526767e-11
-1.409448733e-10
-2.461107744e-10
-3.74973886e-10
-5.340986346e-10
-7.377443625e-10
-9.993549637e-10
-1.339196527e-09
-1.776159197e-09
-2.33714634e-09
-3.051716514e-09
-3.962984601e-09
-5.121656517e-09
-6.593996251e-09
-8.453587149e-09
-1.0789629e-08
-1.370317954e-08
-1.732068599e-08
-2.179355171e-08
-2.731076807e-08
-3.409599819e-08
-4.241908711e-08
-5.259558821e-08
-6.500410089e-08
-8.009612755e-08
-9.842859162e-08
-1.206935901e-07
-1.477674604e-07
-1.807459935e-07
-2.209811317e-07
-2.701013863e-07
-3.300977314e-07
-4.036855817e-07
-4.954346854e-07
-6.139990565e-07
-7.731641443e-07
-9.786500431e-07
-1.197730379e-06
-1.247027306e-06
-1.379873537e-06
-1.343689608e-06
-0.001793938249
1203.953807
0
0
0
0
0
0
0
0
0
0
0
0
0
0
0
0
0
0
0
0
0
0
0
0
0
0
0
0
0
0
0
0
0
0
0
0
0
0
840.1641334
-0.001060037296
-1.636131441e-06
-1.548346589e-06
-1.314003685e-06
-1.163416212e-06
-9.268963308e-07
-6.977427862e-07
-5.708511941e-07
-5.200704783e-07
-7.212460941e-08
-8.824801498e-09
-5.461411729e-09
-3.114297649e-09
-1.859247962e-09
-1.084013184e-09
-5.738105432e-10
-2.248616917e-10
1.998894337e-11
1.912005851e-10
3.109327722e-10
3.91151878e-10
4.433570012e-10
4.728225289e-10
4.865570251e-10
4.866613027e-10
4.779333155e-10
4.608462703e-10
4.390088111e-10
4.118969052e-10
3.822638975e-10
3.488647542e-10
3.138875697e-10
2.756350532e-10
2.357734824e-10
1.918626405e-10
1.446315743e-10
9.0751725e-11
3.034793936e-11
-4.016798443e-11
-1.210565736e-10
-2.173234269e-10
-3.32502651e-10
-4.76773136e-10
-6.599310431e-10
-8.980638467e-10
-1.20592887e-09
-1.604483064e-09
-2.116065545e-09
-2.774622967e-09
-3.621959865e-09
-4.715937991e-09
-6.123452256e-09
-7.926751707e-09
-1.02189068e-08
-1.311573561e-08
-1.675695593e-08
-2.131931388e-08
-2.701504421e-08
-3.410105994e-08
-4.28762936e-08
-5.369284579e-08
-6.695695182e-08
-8.314512388e-08
-1.028138479e-07
-1.266268879e-07
-1.553734327e-07
-1.899913567e-07
-2.315736846e-07
-2.813942336e-07
-3.409769468e-07
-4.122941507e-07
-4.980442545e-07
-6.015523367e-07
-7.242852429e-07
-8.569242545e-07
-9.677169231e-07
-1.005784765e-06
-1.020186264e-06
-1.419865854e-06
-1.44087937e-06
-0.001519816148
2049.595184
4962.536073
0
0
0
0
0
0
0
0
0
0
0
0
0
0
0
0
0
0
0
0
0
0
0
0
0
0
0
0
0
0
0
0
0
0
4718.21628
1904.959969
-0.001061673158
-1.956383031e-06
-1.927241651e-06
-1.4403422e-06
-1.317616983e-06
-1.222538031e-06
-1.060361604e-06
-9.075526096e-07
-7.922350993e-07
-7.55654447e-07
-2.351945592e-07
-4.516930326e-09
-3.568707314e-09
-2.452524144e-09
-1.5933393e-09
-9.680133406e-10
-5.208511013e-10
-2.001427699e-10
2.934804032e-11
1.931384489e-10
3.076074492e-10
3.857771621e-10
4.35802249e-10
4.650574427e-10
4.777051364e-10
4.78306384e-10
4.689608311e-10
4.527480999e-10
4.306338068e-10
4.047119788e-10
3.750907989e-10
3.43145227e-10
3.084278146e-10
2.718654846e-10
2.324885917e-10
1.905461515e-10
1.44294092e-10
9.329683225e-11
3.547638847e-11
-2.970654376e-11
-1.04790418e-10
-1.919618383e-10
-2.972161185e-10
-4.278310546e-10
-5.954371645e-10
-8.122723693e-10
-1.094050476e-09
-1.457986607e-09
-1.92869484e-09
-2.538801693e-09
-3.334758694e-09
-4.374637105e-09
-5.730551578e-09
-7.48606484e-09
-9.742772187e-09
-1.262427591e-08
-1.628699476e-08
-2.092325142e-08
-2.676724266e-08
-3.40941197e-08
-4.322551191e-08
-5.453002128e-08
-6.842926445e-08
-8.539761544e-08
-1.059694934e-07
-1.307430576e-07
-1.60387095e-07
-1.956317627e-07
-2.372497417e-07
-2.860240573e-07
-3.427213524e-07
-4.080388839e-07
-4.824021926e-07
-5.652327192e-07
-6.530146385e-07
-7.359546936e-07
-7.979221022e-07
-8.294153153e-07
-8.691051042e-07
-8.736335116e-07
-7.482138393e-07
2.926318101e-07
-0.00516623209
-0.05020947846
14955.47909
0
0
0
0
0
0
0
0
0
0
0
0
0
0
0
0
0
0
0
0
0
0
0
0
0
0
0
0
0
0
0
0
14788.00611
-0.04917123064
-0.004802136688
-1.98869956e-07
-1.470984198e-06
-1.530011035e-06
-1.456174598e-06
-1.333449441e-06
-1.228876103e-06
-1.145440432e-06
-1.074828181e-06
-1.018435689e-06
-1.041491998e-06
-4.335754653e-07
-2.537433653e-09
-2.252362351e-09
-1.709939613e-09
-1.183102564e-09
-7.390522558e-10
-3.904972514e-10
-1.255735504e-10
7.200618527e-11
2.162343427e-10
3.191466528e-10
3.896550855e-10
4.352776034e-10
4.613049838e-10
4.723637233e-10
4.715457239e-10
4.61868536e-10
4.45160443e-10
4.23410319e-10
3.975377581e-10
3.686920363e-10
3.371107255e-10
3.034159958e-10
2.673983511e-10
2.292183755e-10
1.880887638e-10
1.435263889e-10
9.429442237e-11
3.971644175e-11
-2.156679119e-11
-9.082262178e-11
-1.713042508e-10
-2.677848865e-10
-3.882520584e-10
-5.423237791e-10
-7.42048756e-10
-1.000748082e-09
-1.336041497e-09
-1.771837409e-09
-2.343178459e-09
-3.097186273e-09
-4.094582486e-09
-5.407983011e-09
-7.124766021e-09
-9.350890823e-09
-1.222006841e-08
-1.589977937e-08
-2.05969921e-08
-2.65583674e-08
-3.407270748e-08
-4.347167236e-08
-5.513302245e-08
-6.94780553e-08
-8.696837031e-08
-1.080974858e-07
-1.333836667e-07
-1.633523895e-07
-1.985045779e-07
-2.392561614e-07
-2.858536814e-07
-3.382545146e-07
-3.959463388e-07
-4.576099015e-07
-5.204931028e-07
-5.794292338e-07
-6.260195596e-07
-6.500829441e-07
-6.445167416e-07
-6.069347231e-07
-4.77277245e-07
-9.079829602e-08
6.045564802e-07
9.584129797e-07
2.446177119e-06
-1.404083933e-06
1391.63738
4852.309699
0
0
0
0
0
0
0
0
0
0
0
0
0
0
0
0
0
0
0
0
0
0
0
0
0
0
0
0
4638.77641
1263.691911
-1.938647424e-06
1.781458749e-06
7.969201207e-07
1.872830976e-07
-7.766117753e-07
-1.189557345e-06
-1.271218418e-06
-1.264662804e-06
-1.229301947e-06
-1.208422469e-06
-1.184210385e-06
-1.201998525e-06
-1.310204709e-06
-6.383138272e-07
-1.291091068e-09
-1.281262362e-09
-1.051954505e-09
-7.605712794e-10
-4.724859426e-10
-2.237029867e-10
-2.151988396e-11
1.361391457e-10
2.550846523e-10
3.414820238e-10
4.01444546e-10
4.399744431e-10
4.615177873e-10
4.694566903e-10
4.668364639e-10
4.558858792e-10
4.387117896e-10
4.166665246e-10
3.910352058e-10
3.6240367e-10
3.314149875e-10
2.981655364e-10
2.629063093e-10
2.253335999e-10
1.852175953e-10
1.417991747e-10
9.452408127e-11
4.249983995e-11
-1.50402721e-11
-7.982893539e-11
-1.546695579e-10
-2.446973325e-10
-3.568768689e-10
-5.003654231e-10
-6.855063489e-10
-9.25192297e-10
-1.236432953e-09
-1.644423551e-09
-2.185029869e-09
-2.906968509e-09
-3.870981342e-09
-5.15083638e-09
-6.835557221e-09
-9.036711162e-09
-1.189558763e-08
-1.559003081e-08
-2.033612886e-08
-2.638931279e-08
-3.404438867e-08
-4.363826902e-08
-5.554952106e-08
-7.019434973e-08
-8.801421454e-08
-1.094596101e-07
-1.349655227e-07
-1.649166574e-07
-1.99587194e-07
-2.390514758e-07
-2.830562559e-07
-3.308565735e-07
-3.809921131e-07
-4.309777559e-07
-4.768850623e-07
-5.128988434e-07
-5.31150578e-07
-5.223508331e-07
-4.762084712e-07
-3.769966752e-07
-1.821771675e-07
1.657173355e-07
7.362650772e-07
8.182890298e-07
2.237521889e-06
3.442247591e-06
-0.003506746882
-0.01378556701
616.2809487
3174.084098
0
0
0
0
0
0
0
0
0
0
0
0
0
0
0
0
0
0
0
0
0
0
0
0
2951.405507
480.4967044
-0.01290492582
-0.003184883893
2.204214063e-06
1.497069591e-06
4.699000221e-07
1.719259513e-07
-4.489142664e-07
-8.456436526e-07
-1.047507684e-06
-1.145282858e-06
-1.177953582e-06
-1.238034112e-06
-1.261553405e-06
-1.346945305e-06
-1.557674383e-06
-8.301882831e-07
-4.731467293e-10
-5.82959605e-10
-5.229314443e-10
-3.852108963e-10
-2.14970778e-10
-5.070490407e-11
9.281120191e-11
2.106055201e-10
3.024835172e-10
3.707094004e-10
4.183105653e-10
4.485572283e-10
4.644294889e-10
4.68650564e-10
4.635185799e-10
4.510910127e-10
4.329929038e-10
4.106120586e-10
3.848733901e-10
3.564631311e-10
3.257342962e-10
2.929448745e-10
2.581065846e-10
2.211560063e-10
1.817506901e-10
1.394993609e-10
9.383673389e-11
4.418601647e-11
-1.039652194e-11
-7.154433068e-11
-1.422982131e-10
-2.273940716e-10
-3.334094569e-10
-4.683163531e-10
-6.417177074e-10
-8.658209658e-10
-1.158209652e-09
-1.544862665e-09
-2.062883457e-09
-2.761073244e-09
-3.70017693e-09
-4.953826995e-09
-6.61339996e-09
-8.795015268e-09
-1.164724565e-08
-1.535504264e-08
-2.014094757e-08
-2.626434163e-08
-3.402296026e-08
-4.37546819e-08
-5.583723797e-08
-7.068010185e-08
-8.870787905e-08
-1.103335442e-07
-1.359221306e-07
-1.657360187e-07
-1.998563836e-07
-2.380687497e-07
-2.79716236e-07
-3.235159157e-07
-3.673419289e-07
-4.079684611e-07
-4.407953498e-07
-4.596198726e-07
-4.565798752e-07
-4.222947529e-07
-3.455659952e-07
-2.113752846e-07
2.628816167e-09
3.120987537e-07
7.008286374e-07
9.796569635e-07
1.299168015e-06
2.231992161e-06
2.854361582e-06
4.925112907e-06
2.893972201e-06
-0.02202756072
5563.554862
-0.09849847288
13552.0111
0
0
0
0
0
0
0
0
0
0
0
0
0
0
0
0
0
0
13221.19698
-0.1069294435
5423.059159
-0.0211120951
2.163537117e-06
3.870917683e-06
2.14165013e-06
1.444961727e-06
7.074336288e-07
4.081732303e-07
1.261103281e-07
-3.125040921e-07
-6.772613654e-07
-8.900664228e-07
-1.041251734e-06
-1.150463395e-06
-1.252489197e-06
-1.338489236e-06
-1.502723323e-06
-1.777308742e-06
-9.919549736e-07
8.733813208e-11
-7.996140703e-11
-1.146043013e-10
-7.506868958e-11
1.156359193e-11
1.098942644e-10
2.040989439e-10
2.86081924e-10
3.524895184e-10
4.02730609e-10
4.377900403e-10
4.592715331e-10
4.691114074e-10
4.691829005e-10
4.61305833e-10
4.47096643e-10
4.279786461e-10
4.050405494e-10
3.791094894e-10
3.507056293e-10
3.201564166e-10
2.876264151e-10
2.531521628e-10
2.166400303e-10
1.77904455e-10
1.366150685e-10
9.239642892e-11
4.466050286e-11
-7.562176478e-12
-6.607507771e-11
-1.33924524e-10
-2.156351513e-10
-3.170970285e-10
-4.455082538e-10
-6.097196563e-10
-8.219747216e-10
-1.100467371e-09
-1.472300407e-09
-1.975049753e-09
-2.657307617e-09
-3.578862397e-09
-4.813496374e-09
-6.454605664e-09
-8.623027103e-09
-1.147287277e-08
-1.519430851e-08
-2.001287127e-08
-2.618954872e-08
-3.402252758e-08
-4.385023935e-08
-5.605033391e-08
-7.10303132e-08
-8.92061307e-08
-1.109687973e-07
-1.366354353e-07
-1.663825009e-07
-2.001503781e-07
-2.375194004e-07
-2.775524559e-07
-3.186130797e-07
-3.581593134e-07
-3.925269559e-07
-4.167209408e-07
-4.242681214e-07
-4.071903844e-07
-3.561310116e-07
-2.605519715e-07
-1.092409677e-07
1.073272167e-07
3.873154326e-07
7.070691465e-07
1.012642943e-06
1.392009048e-06
2.258983125e-06
2.536756535e-06
3.620033743e-06
3.293053819e-06
4.988734468e-06
1.03680407e-06
-6.657328458e-07
-0.0341634517
9223.36405
-0.1416273323
11575.92008
4149.438172
0
0
0
0
0
0
0
0
0
0
4108.587483
11508.17565
-0.1463281679
8939.768724
-0.03332963175
-7.590180105e-07
3.535875605e-07
3.870262776e-06
2.377684782e-06
2.719763988e-06
1.745375263e-06
1.551131988e-06
7.132141112e-07
3.679574285e-07
7.47941859e-08
-2.385921013e-07
-5.506765185e-07
-7.780654419e-07
-9.651685431e-07
-1.112167149e-06
-1.248431756e-06
-1.381808004e-06
-1.603839669e-06
-1.92163346e-06
-1.110391506e-06
4.788540359e-10
2.823328896e-10
1.932842738e-10
1.705128574e-10
1.996066814e-10
2.490906329e-10
3.042844517e-10
3.563833873e-10
4.004874426e-10
4.343986098e-10
4.576310304e-10
4.706709823e-10
4.745280227e-10
4.704482792e-10
4.597554183e-10
4.437246217e-10
4.234588232e-10
3.998766501e-10
3.736228942e-10
3.451279918e-10
3.146408491e-10
2.822735332e-10
2.480549087e-10
2.11912596e-10
1.737232692e-10
1.332652856e-10
9.020993334e-11
4.396381557e-11
-6.589891931e-12
-6.338167825e-11
-1.294563715e-10
-2.090418118e-10
-3.074670403e-10
-4.312547739e-10
-5.889850737e-10
-7.931879108e-10
-1.062958195e-09
-1.42615915e-09
-1.920505069e-09
-2.593694503e-09
-3.50464795e-09
-4.727299978e-09
-6.357422151e-09
-8.519660234e-09
-1.137231543e-08
-1.510807051e-08
-1.99533992e-08
-2.616890004e-08
-3.405290314e-08
-4.394550244e-08
-5.622841293e-08
-7.131474635e-08
-8.962505604e-08
-1.115474326e-07
-1.373817931e-07
-1.672628197e-07
-2.010602556e-07
-2.382491758e-07
-2.777551285e-07
-3.177725329e-07
-3.555656166e-07
-3.872582848e-07
-4.076420568e-07
-4.100426023e-07
-3.863049233e-07
-3.269737161e-07
-2.218839645e-07
-6.180600121e-08
1.57622747e-07
4.293606503e-07
7.340017629e-07
1.057383e-06
1.457225753e-06
2.042777557e-06
2.252600114e-06
2.332750413e-06
2.080917965e-06
1.942141904e-06
1.98881104e-07
2.545102887e-06
8.089479678e-06
-0.02324489743
-3.570349516e-07
-0.02918088694
-0.02052889607
3994.277974
0
0
0
0
0
0
0
0
3748.04382
-0.01980520493
-0.02901011493
-3.689124337e-07
-0.02253000534
7.576336393e-06
2.00780391e-06
-7.590531222e-07
1.002095419e-06
1.16840565e-06
1.451205606e-06
1.430309613e-06
1.2647994e-06
7.233392266e-07
3.377987098e-07
4.810451078e-08
-2.392655362e-07
-5.140659663e-07
-7.485161147e-07
-9.182361031e-07
-1.110691026e-06
-1.270119818e-06
-1.447452692e-06
-1.649356362e-06
-2.009075138e-06
-1.179153329e-06
7.536410678e-10
5.422784289e-10
4.214148471e-10
3.591099012e-10
3.49465132e-10
3.639041767e-10
3.895501224e-10
4.179024926e-10
4.435350287e-10
4.634348972e-10
4.762011113e-10
4.815701306e-10
4.798890043e-10
4.719042087e-10
4.585207183e-10
4.407030333e-10
4.192921933e-10
3.950113175e-10
3.683624813e-10
3.396994339e-10
3.091927401e-10
2.769253341e-10
2.428898951e-10
2.070388155e-10
1.692850596e-10
1.294784969e-10
8.728214672e-11
4.203771162e-11
-7.502636027e-12
-6.340781744e-11
-1.286907586e-10
-2.073217188e-10
-3.041537206e-10
-4.253349416e-10
-5.794311904e-10
-7.795608428e-10
-1.045672405e-09
-1.406186157e-09
-1.898475242e-09
-2.569220754e-09
-3.476447662e-09
-4.694652351e-09
-6.321725906e-09
-8.485355609e-09
-1.134589502e-08
-1.509650426e-08
-1.996239686e-08
-2.62029523e-08
-3.411693816e-08
-4.404868357e-08
-5.638937932e-08
-7.156700926e-08
-9.002023448e-08
-1.12155733e-07
-1.382880085e-07
-1.685625268e-07
-2.028558576e-07
-2.406528931e-07
-2.808937797e-07
-3.217916264e-07
-3.606190567e-07
-3.934810789e-07
-4.151025837e-07
-4.18676573e-07
-3.958059503e-07
-3.36571726e-07
-2.29925035e-07
-6.530018013e-08
1.627507677e-07
4.459719865e-07
7.60101375e-07
1.085179148e-06
1.477474822e-06
2.043706182e-06
2.230918916e-06
2.280902268e-06
1.986992508e-06
1.875627393e-06
5.21677291e-08
2.563299672e-06
7.988952841e-06
-0.02320461094
-3.58723498e-07
-0.02912897376
-0.02047011977
3993.507447
0
0
0
0
0
0
0
0
3747.185658
-0.01975050479
-0.0289627641
-3.704106698e-07
-0.02249377778
7.611530397e-06
1.965248962e-06
-7.803142334e-07
8.968694248e-07
1.085756684e-06
1.412700996e-06
1.371780909e-06
1.188059174e-06
6.375243687e-07
2.94839415e-07
4.255560313e-08
-2.355125508e-07
-5.030865162e-07
-7.442357831e-07
-9.274029916e-07
-1.119725892e-06
-1.280768473e-06
-1.424499124e-06
-1.660460606e-06
-2.022796451e-06
-1.193035515e-06
9.4499428e-10
7.266425682e-10
5.87358704e-10
5.001627577e-10
4.649119498e-10
4.548902789e-10
4.588896702e-10
4.690878188e-10
4.800576289e-10
4.884474293e-10
4.924074272e-10
4.911418968e-10
4.846049118e-10
4.73126266e-10
4.573179569e-10
4.378282139e-10
4.153298382e-10
3.903325582e-10
3.632701966e-10
3.343917701e-10
3.038378127e-10
2.716172873e-10
2.377146795e-10
2.020680284e-10
1.646323052e-10
1.252576349e-10
8.35951973e-11
3.886878745e-11
-1.030566985e-11
-6.611398491e-11
-1.315292359e-10
-2.10311375e-10
-3.070374917e-10
-4.277332052e-10
-5.81280925e-10
-7.814864027e-10
-1.049050985e-09
-1.412598022e-09
-1.908912681e-09
-2.583659891e-09
-3.494412064e-09
-4.716342067e-09
-6.349087858e-09
-8.521743104e-09
-1.139474854e-08
-1.515933925e-08
-2.003798587e-08
-2.628806187e-08
-3.420959554e-08
-4.415386285e-08
-5.652655385e-08
-7.177815332e-08
-9.037740402e-08
-1.127678428e-07
-1.393111914e-07
-1.702161206e-07
-2.054511242e-07
-2.446317998e-07
-2.86874137e-07
-3.305984425e-07
-3.732865035e-07
-4.11212677e-07
-4.39196034e-07
-4.50423868e-07
-4.36338549e-07
-3.864161059e-07
-2.876505732e-07
-1.244188772e-07
1.174924114e-07
4.346954347e-07
7.866387097e-07
1.101994474e-06
1.460086382e-06
2.283170801e-06
2.414765845e-06
3.459505273e-06
3.036901507e-06
4.864277107e-06
9.176572768e-07
-7.368385137e-07
-0.03408955728
9207.413537
-0.1423037436
11555.32636
4126.892416
0
0
0
0
0
0
0
0
0
0
4087.746362
11489.39177
-0.1469344455
8925.379894
-0.03326499101
-7.485394885e-07
1.903589324e-07
3.670719816e-06
1.971818377e-06
2.387850102e-06
1.495832392e-06
1.351732001e-06
5.563022117e-07
2.718172803e-07
4.016524411e-08
-2.463680106e-07
-5.246717788e-07
-7.801385974e-07
-9.474215603e-07
-1.122513264e-06
-1.267900977e-06
-1.441317211e-06
-1.624405081e-06
-1.967661933e-06
-1.147226033e-06
1.075267448e-09
8.547708606e-10
7.052520664e-10
6.027015946e-10
5.509781289e-10
5.243483782e-10
5.129672861e-10
5.097472818e-10
5.094914849e-10
5.088146661e-10
5.05631683e-10
4.989122806e-10
4.882763103e-10
4.73830333e-10
4.559000799e-10
4.349514421e-10
4.114327605e-10
3.85778717e-10
3.583122781e-10
3.292282135e-10
2.985994709e-10
2.663948656e-10
2.325606899e-10
1.970338065e-10
1.59757973e-10
1.205963266e-10
7.911352433e-11
3.443925745e-11
-1.499221494e-11
-7.144038852e-11
-1.378925075e-10
-2.179945115e-10
-3.16251493e-10
-4.388391235e-10
-5.951255555e-10
-7.996704691e-10
-1.073742314e-09
-1.445953046e-09
-1.952436836e-09
-2.638088609e-09
-3.560290319e-09
-4.794914039e-09
-6.442359866e-09
-8.631449051e-09
-1.152030209e-08
-1.529620718e-08
-2.017717339e-08
-2.641784967e-08
-3.431985065e-08
-4.424303552e-08
-5.661034373e-08
-7.189874554e-08
-9.061330735e-08
-1.132483615e-07
-1.402396954e-07
-1.719103929e-07
-2.084037751e-07
-2.495906622e-07
-2.94924853e-07
-3.432286645e-07
-3.92408329e-07
-4.391263656e-07
-4.78496154e-07
-5.03891232e-07
-5.068861256e-07
-4.769758494e-07
-3.997433272e-07
-2.52288985e-07
-2.279890596e-10
3.784660947e-07
8.339799442e-07
1.145080671e-06
1.435023474e-06
2.228353843e-06
2.673147809e-06
4.686731005e-06
2.712695516e-06
-0.02192306134
5548.404928
-0.09934342961
13522.65712
0
0
0
0
0
0
0
0
0
0
0
0
0
0
0
0
0
0
13195.55003
-0.1076563891
5410.19045
-0.02102477162
1.791888292e-06
3.32466381e-06
1.678218742e-06
1.188526309e-06
4.057789488e-07
3.004669381e-07
1.10361958e-07
-2.646118622e-07
-5.934054435e-07
-8.421397724e-07
-1.001232361e-06
-1.15178828e-06
-1.261738215e-06
-1.392413539e-06
-1.551195201e-06
-1.851165782e-06
-1.054490901e-06
1.160222017e-09
9.405696152e-10
7.861638841e-10
6.746068963e-10
6.127503158e-10
5.752733802e-10
5.533442255e-10
5.405302016e-10
5.320030725e-10
5.244191767e-10
5.157035332e-10
5.046423024e-10
4.907244841e-10
4.738378859e-10
4.541486393e-10
4.319272959e-10
4.075389258e-10
3.813014066e-10
3.534771102e-10
3.242092056e-10
2.935139543e-10
2.612984535e-10
2.274657495e-10
1.919488868e-10
1.546860397e-10
1.154818423e-10
7.38555524e-11
2.874502496e-11
-2.153427843e-11
-7.93739988e-11
-1.478084878e-10
-2.305113031e-10
-3.321236209e-10
-4.591832711e-10
-6.217360334e-10
-8.350277247e-10
-1.120747969e-09
-1.507379894e-09
-2.030505336e-09
-2.734596155e-09
-3.67711033e-09
-4.934158209e-09
-6.605658953e-09
-8.818053444e-09
-1.172491901e-08
-1.550738628e-08
-2.037731487e-08
-2.658539752e-08
-3.44341137e-08
-4.429111544e-08
-5.659513784e-08
-7.184733575e-08
-9.058866273e-08
-1.133693954e-07
-1.407189291e-07
-1.731166281e-07
-2.109554296e-07
-2.544730568e-07
-3.036168572e-07
-3.578183613e-07
-4.156703167e-07
-4.745208957e-07
-5.300283952e-07
-5.758606956e-07
-6.03892269e-07
-6.048590144e-07
-5.666866099e-07
-4.649970459e-07
-2.300867436e-07
2.291044046e-07
8.998552264e-07
1.155228743e-06
2.464800855e-06
3.399097922e-06
-0.003466510171
-0.01367695349
599.805732
3147.737433
0
0
0
0
0
0
0
0
0
0
0
0
0
0
0
0
0
0
0
0
0
0
0
0
2929.58301
467.0315035
-0.01281790163
-0.003153599862
2.158698967e-06
1.593940218e-06
4.367114921e-07
3.158869699e-07
-2.918505792e-07
-7.328730952e-07
-9.421650883e-07
-1.097433559e-06
-1.193646813e-06
-1.245797284e-06
-1.320836931e-06
-1.437644272e-06
-1.689411297e-06
-9.142595901e-07
1.211142945e-09
9.945169618e-10
8.386935118e-10
7.224577595e-10
6.549000472e-10
6.107338013e-10
5.819095088e-10
5.625474477e-10
5.481419044e-10
5.355422958e-10
5.226765772e-10
5.083342002e-10
4.918772841e-10
4.730807118e-10
4.519594963e-10
4.2872067e-10
4.035994394e-10
3.768851063e-10
3.487881421e-10
3.193826055e-10
2.886174626e-10
2.563508854e-10
2.22441784e-10
1.868165009e-10
1.49394861e-10
1.099457688e-10
6.78167495e-11
2.182793102e-11
-2.991056547e-11
-8.993500544e-11
-1.614019254e-10
-2.481480504e-10
-3.551434284e-10
-4.895036401e-10
-6.620049966e-10
-8.885922788e-10
-1.191296748e-09
-1.598469729e-09
-2.145410979e-09
-2.876439472e-09
-3.849067027e-09
-5.13898169e-09
-6.844054578e-09
-9.086298296e-09
-1.20124701e-08
-1.579537878e-08
-2.06386314e-08
-2.678688161e-08
-3.454094456e-08
-4.427233147e-08
-5.642871304e-08
-7.152624522e-08
-9.013212141e-08
-1.128480288e-07
-1.403032245e-07
-1.731588101e-07
-2.121081316e-07
-2.57838649e-07
-3.109235249e-07
-3.71622206e-07
-4.395710015e-07
-5.132773381e-07
-5.893500908e-07
-6.616457903e-07
-7.213873588e-07
-7.597343437e-07
-7.738775066e-07
-7.539432613e-07
-5.958701416e-07
-8.663575558e-08
9.082474928e-07
1.436907315e-06
2.782828457e-06
-1.299303255e-06
1375.675847
4825.653923
0
0
0
0
0
0
0
0
0
0
0
0
0
0
0
0
0
0
0
0
0
0
0
0
0
0
0
0
4617.619145
1251.214293
-1.773861451e-06
2.190348434e-06
1.376525804e-06
6.434475298e-07
-4.372545952e-07
-9.019064851e-07
-1.106405928e-06
-1.185537358e-06
-1.203640051e-06
-1.242259963e-06
-1.221512775e-06
-1.314082838e-06
-1.457649388e-06
-7.404439219e-07
1.236452156e-09
1.024263067e-09
8.695144379e-10
7.515774318e-10
6.81449024e-10
6.336159344e-10
6.006262532e-10
5.770413576e-10
5.587075707e-10
5.426253969e-10
5.268471089e-10
5.101229127e-10
4.917915797e-10
4.715463981e-10
4.493464665e-10
4.252893229e-10
3.996199466e-10
3.725602648e-10
3.442771454e-10
3.147830407e-10
2.839477575e-10
2.515708627e-10
2.175058062e-10
1.8165483e-10
1.439339362e-10
1.039982126e-10
6.106798291e-11
1.373248074e-11
-4.011240794e-11
-1.031790399e-10
-1.788394156e-10
-2.712433062e-10
-3.858526992e-10
-5.30535443e-10
-7.168785813e-10
-9.615318147e-10
-1.28685458e-09
-1.72128187e-09
-2.300059309e-09
-3.067601778e-09
-4.081198595e-09
-5.415140716e-09
-7.16365381e-09
-9.442354044e-09
-1.238903806e-08
-1.616596309e-08
-2.096601147e-08
-2.702476282e-08
-3.463666665e-08
-4.416891333e-08
-5.606582387e-08
-7.084195481e-08
-8.907264012e-08
-1.113946174e-07
-1.385271185e-07
-1.713119901e-07
-2.107502483e-07
-2.580048147e-07
-3.143514242e-07
-3.810871783e-07
-4.593439761e-07
-5.495956818e-07
-6.504098113e-07
-7.56177413e-07
-8.542989381e-07
-9.303611765e-07
-9.813617394e-07
-1.050372374e-06
-1.057359549e-06
-8.001245594e-07
6.650669981e-07
-0.0051241548
-0.05008452161
14934.86698
0
0
0
0
0
0
0
0
0
0
0
0
0
0
0
0
0
0
0
0
0
0
0
0
0
0
0
0
0
0
0
0
14772.36254
-0.04907817906
-0.004771373678
6.255782088e-07
-8.202828023e-07
-1.252712282e-06
-1.282089844e-06
-1.247691943e-06
-1.232036614e-06
-1.208164857e-06
-1.157391678e-06
-1.143927861e-06
-1.210843385e-06
-5.452153496e-07
1.242351342e-09
1.03576792e-09
8.837786796e-10
7.662554174e-10
6.957440963e-10
6.46448512e-10
6.11312448e-10
5.853167351e-10
5.645657982e-10
5.46268929e-10
5.285467803e-10
5.102200977e-10
4.905897303e-10
4.693214767e-10
4.463126189e-10
4.216924357e-10
3.956297289e-10
3.683698332e-10
3.399957409e-10
3.104545882e-10
2.795256117e-10
2.469872522e-10
2.126628406e-10
1.76498521e-10
1.383421576e-10
9.774313044e-11
5.369151844e-11
4.516653184e-12
-5.212340353e-11
-1.19197108e-10
-2.003551961e-10
-3.001731052e-10
-4.248043343e-10
-5.829706062e-10
-7.872239177e-10
-1.054978811e-09
-1.409090656e-09
-1.878226936e-09
-2.497890711e-09
-3.312576601e-09
-4.378962966e-09
-5.768896696e-09
-7.571517298e-09
-9.894254144e-09
-1.286400729e-08
-1.663004251e-08
-2.137158934e-08
-2.731092954e-08
-3.472920775e-08
-4.397799318e-08
-5.548084027e-08
-6.972834299e-08
-8.727786866e-08
-1.087731158e-07
-1.349934023e-07
-1.669246807e-07
-2.058271497e-07
-2.532791068e-07
-3.112244333e-07
-3.820788897e-07
-4.688695335e-07
-5.751329418e-07
-7.038005367e-07
-8.526060374e-07
-1.006016448e-06
-1.123172317e-06
-1.150334136e-06
-1.205754898e-06
-1.564114937e-06
-1.468162312e-06
-0.001470134941
2032.98644
4933.644358
0
0
0
0
0
0
0
0
0
0
0
0
0
0
0
0
0
0
0
0
0
0
0
0
0
0
0
0
0
0
0
0
0
0
4697.079632
1893.035375
-0.001026867311
-1.101391417e-06
-1.414558777e-06
-1.241940378e-06
-1.235021394e-06
-1.230538104e-06
-1.160592761e-06
-1.03482179e-06
-9.458927651e-07
-9.560638385e-07
-3.476110949e-07
1.233596162e-09
1.033393986e-09
8.854559414e-10
7.698539341e-10
7.005702431e-10
6.513717463e-10
6.156044355e-10
5.885500848e-10
5.665746046e-10
5.470436858e-10
5.282002983e-10
5.088861886e-10
4.88435806e-10
4.664776247e-10
4.42962906e-10
4.179667213e-10
3.917166022e-10
3.643817359e-10
3.359994077e-10
3.0642603e-10
2.753865326e-10
2.426140356e-10
2.079842854e-10
1.714240678e-10
1.327334826e-10
9.127320778e-11
4.577091111e-11
-5.760651566e-12
-6.594260599e-11
-1.380603939e-10
-2.260992648e-10
-3.352312702e-10
-4.724042346e-10
-6.474018385e-10
-8.738517783e-10
-1.17009323e-09
-1.559667943e-09
-2.071798134e-09
-2.742397251e-09
-3.615994815e-09
-4.748055212e-09
-6.207075164e-09
-8.075800596e-09
-1.045208699e-08
-1.34499948e-08
-1.720361294e-08
-2.187525263e-08
-2.766868979e-08
-3.484289616e-08
-4.371936391e-08
-5.46808024e-08
-6.816778344e-08
-8.46883071e-08
-1.048555607e-07
-1.294587698e-07
-1.595545428e-07
-1.965521163e-07
-2.422954571e-07
-2.992033545e-07
-3.705666047e-07
-4.61107721e-07
-5.779826738e-07
-7.313709035e-07
-9.332506928e-07
-1.175742264e-06
-1.402016605e-06
-1.398993431e-06
-1.428109134e-06
-1.389287818e-06
-0.001691265729
1164.572683
0
0
0
0
0
0
0
0
0
0
0
0
0
0
0
0
0
0
0
0
0
0
0
0
0
0
0
0
0
0
0
0
0
0
0
0
0
0
812.887481
-0.001025219042
-8.846027453e-07
-1.156049948e-06
-1.27398199e-06
-1.260348806e-06
-1.087785867e-06
-8.650607502e-07
-7.697559814e-07
-6.991719223e-07
-1.716851462e-07
1.213731795e-09
1.020625754e-09
8.776228057e-10
7.65050283e-10
6.981064044e-10
6.501802315e-10
6.148876799e-10
5.878089828e-10
5.655087514e-10
5.455283964e-10
5.261821029e-10
5.063926943e-10
4.854902227e-10
4.631731032e-10
4.393741977e-10
4.142284901e-10
3.879423386e-10
3.606618715e-10
3.323406142e-10
3.027443341e-10
2.715440639e-10
2.38505759e-10
2.03516404e-10
1.665296494e-10
1.272242395e-10
8.473712038e-11
3.742694314e-11
-1.701500563e-11
-8.156996255e-11
-1.598148333e-10
-2.562132963e-10
-3.76584422e-10
-5.289106075e-10
-7.241813566e-10
-9.773354474e-10
-1.307843528e-09
-1.74021832e-09
-2.304432373e-09
-3.0369805e-09
-3.982217054e-09
-5.19397727e-09
-6.736600916e-09
-8.685653482e-09
-1.11281124e-08
-1.416372899e-08
-1.790889843e-08