/*--------------------------------*- C++ -*----------------------------------*\
  =========                 |
  \\      /  F ield         | OpenFOAM: The Open Source CFD Toolbox
   \\    /   O peration     | Website:  https://openfoam.org
    \\  /    A nd           | Version:  6
     \\/     M anipulation  |
\*---------------------------------------------------------------------------*/
FoamFile
{
    version     2.0;
    format      ascii;
    class       volScalarField;
    location    "0.0012";
    object      ViscousDissipation;
}
// * * * * * * * * * * * * * * * * * * * * * * * * * * * * * * * * * * * * * //

dimensions      [1 -1 -3 0 0 0 0];

internalField   nonuniform List<scalar> 
9600
(
9.261308569e-20
8.728597655e-20
8.465098354e-20
8.448000934e-20
8.586045042e-20
8.808500925e-20
9.076934145e-20
9.37362652e-20
9.692119303e-20
1.003193392e-19
1.039555385e-19
1.078704399e-19
1.121115928e-19
1.167313043e-19
1.217831977e-19
1.273236375e-19
1.334090769e-19
1.400995881e-19
1.47456287e-19
1.555471357e-19
1.644435916e-19
1.742276031e-19
1.849868704e-19
1.968243074e-19
2.098545832e-19
2.242184722e-19
2.400799386e-19
2.576425804e-19
2.771449911e-19
2.988831427e-19
3.232160338e-19
3.506117253e-19
3.816768334e-19
4.172290876e-19
4.583410407e-19
5.064292818e-19
5.633135415e-19
6.313399124e-19
7.134624586e-19
8.133557187e-19
9.353703101e-19
1.084374862e-18
1.265240572e-18
1.482050225e-18
1.736766659e-18
2.027532641e-18
2.346457736e-18
2.677599483e-18
2.99587333e-18
3.269076342e-18
3.465373972e-18
3.570092213e-18
3.614995245e-18
3.723727914e-18
4.175119715e-18
5.486246447e-18
8.512236551e-18
1.454663538e-17
2.537532996e-17
4.329925186e-17
7.183952057e-17
1.204240823e-16
2.19577251e-16
4.326318377e-16
7.654947494e-16
1.222899047e-15
3.124396503e-16
6.045147899e-16
1.320521684e-15
1.892215642e-15
2.520497171e-15
3.957255732e-15
1.370803023e-15
4.588564523e-16
2.636129374e-17
4.151187279e-17
1.329788441e-16
2.327232131e-16
3.290993767e-16
4.07575232e-16
4.527983845e-16
4.619875723e-16
4.446062348e-16
4.097452004e-16
3.632561804e-16
3.116729229e-16
2.620610738e-16
2.203327103e-16
1.905737042e-16
1.753847355e-16
1.764525307e-16
1.948793424e-16
2.310418509e-16
2.839694404e-16
3.503305965e-16
4.235379642e-16
4.940118248e-16
5.511657951e-16
5.843714862e-16
5.792800957e-16
5.217584141e-16
4.155171097e-16
2.841686119e-16
1.520782766e-16
4.594295776e-17
5.895941582e-17
5.578097696e-16
1.319459393e-15
3.4450791e-15
2.321689303e-15
1.85202367e-15
2.037131553e-15
2.966994678e-16
1.857133667e-15
3.053427654e-15
1.346654238e-15
1.182655031e-15
1.91289956e-15
3.998151518e-15
1.491812551e-15
8.688733007e-20
7.853589246e-20
7.52557324e-20
7.56223254e-20
7.755370285e-20
8.013458897e-20
8.29948591e-20
8.600632715e-20
8.914166981e-20
9.242187501e-20
9.588548503e-20
9.958295438e-20
1.035646033e-19
1.078857347e-19
1.125972856e-19
1.177546299e-19
1.234075008e-19
1.296116934e-19
1.364179213e-19
1.438864544e-19
1.52073816e-19
1.610491559e-19
1.708784529e-19
1.816444434e-19
1.934305683e-19
2.063458307e-19
2.20506553e-19
2.360626579e-19
2.531759464e-19
2.720537726e-19
2.929367314e-19
3.161551952e-19
3.421341706e-19
3.714674416e-19
4.049249159e-19
4.435354007e-19
4.886049014e-19
5.418297433e-19
6.053261632e-19
6.817051141e-19
7.739416527e-19
8.851507383e-19
1.017996366e-18
1.173876448e-18
1.351597926e-18
1.545746411e-18
1.744654349e-18
1.928745207e-18
2.070151093e-18
2.135869577e-18
2.09717847e-18
1.949645526e-18
1.748477527e-18
1.665287666e-18
2.07251215e-18
3.663085933e-18
7.611888824e-18
1.578004739e-17
3.09564643e-17
5.719540196e-17
1.006925958e-16
1.725124824e-16
2.934626069e-16
4.874648872e-16
7.079824388e-16
6.571722324e-16
5.484376963e-18
1.038099499e-15
3.720483801e-16
1.19896719e-15
1.360232004e-14
3.963734412e-14
1.163577629e-14
3.303158224e-15
2.184748802e-16
1.312469703e-16
2.669567711e-16
4.203370803e-16
5.941469606e-16
7.37376166e-16
7.993453156e-16
7.802792452e-16
7.202506016e-16
6.399326528e-16
5.425372932e-16
4.384568247e-16
3.415341148e-16
2.622623354e-16
2.065010511e-16
1.771286018e-16
1.758606149e-16
2.042867796e-16
2.637859812e-16
3.54216371e-16
4.713183991e-16
6.039040247e-16
7.341698448e-16
8.455107917e-16
9.284940874e-16
9.54949866e-16
8.746854313e-16
6.878657778e-16
4.62395736e-16
2.596426975e-16
9.20932251e-17
2.233723619e-16
3.560247756e-15
1.159093246e-14
3.809218095e-14
1.364966924e-14
2.053022718e-15
9.584061208e-17
4.489687239e-16
1.141788823e-15
1.902036066e-15
1.814695484e-15
1.578567705e-15
1.705430227e-15
2.67757778e-15
9.817218341e-16
1.081227715e-19
7.198417924e-20
6.643519358e-20
6.73526609e-20
6.982068142e-20
7.269692031e-20
7.56758543e-20
7.869001646e-20
8.175129677e-20
8.490005777e-20
8.818852652e-20
9.167123404e-20
9.540384926e-20
9.943942395e-20
1.038305424e-19
1.086262177e-19
1.13875399e-19
1.196239421e-19
1.25919667e-19
1.32809019e-19
1.40342661e-19
1.485705954e-19
1.5754833e-19
1.673320821e-19
1.779875556e-19
1.895854632e-19
2.022105765e-19
2.159542746e-19
2.309241642e-19
2.472404396e-19
2.650587545e-19
2.845825465e-19
3.061019426e-19
3.300119586e-19
3.568525846e-19
3.873283779e-19
4.223650186e-19
4.631521296e-19
5.112059982e-19
5.683488618e-19
6.365998395e-19
7.178521192e-19
8.133440985e-19
9.22800135e-19
1.043251695e-18
1.167466848e-18
1.282273867e-18
1.367336516e-18
1.395762883e-18
1.338659131e-18
1.177097049e-18
9.262595015e-19
6.78474915e-19
6.73522841e-19
1.406935796e-18
3.789051604e-18
9.369395543e-18
2.06389863e-17
4.142092871e-17
7.737962163e-17
1.367602513e-16
2.31361127e-16
3.7550814e-16
5.713412802e-16
7.513547006e-16
6.947131119e-16
2.926142411e-16
5.513957278e-16
1.483174338e-15
6.449910354e-16
3.75846185e-14
2.585025952e-13
1.748747959e-13
3.336970136e-14
7.043649952e-15
1.065564955e-15
8.047604138e-16
8.61922081e-16
1.212394361e-15
1.508729148e-15
1.553615392e-15
1.392179468e-15
1.213285856e-15
1.045420285e-15
8.485852637e-16
6.406227059e-16
4.535933252e-16
3.066886979e-16
2.065288095e-16
1.538524506e-16
1.487519531e-16
1.933454905e-16
2.919718775e-16
4.484446933e-16
6.596332925e-16
9.060999544e-16
1.149189168e-15
1.360268506e-15
1.573053596e-15
1.752590924e-15
1.686053779e-15
1.321358964e-15
9.000668865e-16
7.753821753e-16
9.613065967e-16
6.861596418e-15
3.394032377e-14
1.737817811e-13
2.552293201e-13
3.520036661e-14
3.415019141e-16
2.239005257e-16
2.836172135e-16
1.038191154e-15
1.91085065e-15
1.948922606e-15
1.53176016e-15
1.237430213e-15
1.532173929e-15
5.857290926e-16
4.161315212e-20
5.040140588e-20
5.557554774e-20
5.923359203e-20
6.25492547e-20
6.57173522e-20
6.877828984e-20
7.176967979e-20
7.474289351e-20
7.775651283e-20
8.087196118e-20
8.414859675e-20
8.764397662e-20
9.141130186e-20
9.550148393e-20
9.99607685e-20
1.048338126e-19
1.1016145e-19
1.159848264e-19
1.223429081e-19
1.292764355e-19
1.368242134e-19
1.450271681e-19
1.539248993e-19
1.635612965e-19
1.739808763e-19
1.852334916e-19
1.973681959e-19
2.104384939e-19
2.245012081e-19
2.396337326e-19
2.559464551e-19
2.736104045e-19
2.928714511e-19
3.140763037e-19
3.376909331e-19
3.643454973e-19
3.948766122e-19
4.303689434e-19
4.721244695e-19
5.215306487e-19
5.797558083e-19
6.472496571e-19
7.229791235e-19
8.033679924e-19
8.809748575e-19
9.432090458e-19
9.718553697e-19
9.448565422e-19
8.428457456e-19
6.642564855e-19
4.548922647e-19
3.601417329e-19
7.111235962e-19
2.158995244e-18
5.875233322e-18
1.383712038e-17
2.921490299e-17
5.686151997e-17
1.038647144e-16
1.799818389e-16
2.972176921e-16
4.656575515e-16
6.774771412e-16
8.684306538e-16
8.880050682e-16
6.678247559e-16
7.734906428e-16
1.891687957e-15
3.350777732e-15
2.374233979e-15
1.214286735e-13
5.324482289e-13
5.805948967e-13
1.435918265e-13
5.044170274e-15
2.25252759e-15
1.508183114e-15
2.785312803e-15
3.639467518e-15
3.433968473e-15
2.571552176e-15
2.081297107e-15
1.803933087e-15
1.419661751e-15
9.981851929e-16
6.349332832e-16
3.656297713e-16
1.910037444e-16
1.014738001e-16
9.052829394e-17
1.606603196e-16
3.241493695e-16
5.980067625e-16
9.893140095e-16
1.464892607e-15
1.917230717e-15
2.251170321e-15
2.783312597e-15
3.689693446e-15
3.889410529e-15
2.922483201e-15
1.549733868e-15
2.221447656e-15
4.891453762e-15
1.421582716e-13
5.759922178e-13
5.367314608e-13
1.232059142e-13
1.031283043e-15
9.576034404e-16
7.598452677e-16
9.418547146e-16
1.617247383e-15
2.079920047e-15
1.864351904e-15
1.264600789e-15
7.567349281e-16
7.365488139e-16
3.247419959e-16
3.254423996e-20
4.066899941e-20
4.703018686e-20
5.174914266e-20
5.564999367e-20
5.908375406e-20
6.223099495e-20
6.520507043e-20
6.80956278e-20
7.098114093e-20
7.39328353e-20
7.701560434e-20
8.028869491e-20
8.380594509e-20
8.761636263e-20
9.176422462e-20
9.628995966e-20
1.012306328e-19
1.066212542e-19
1.124950022e-19
1.188838367e-19
1.258176794e-19
1.333248185e-19
1.414313528e-19
1.501621702e-19
1.595398843e-19
1.6958427e-19
1.803093248e-19
1.917237176e-19
2.038334675e-19
2.166528818e-19
2.30218039e-19
2.446040456e-19
2.599382325e-19
2.764167926e-19
2.943268614e-19
3.140863619e-19
3.362892125e-19
3.617368134e-19
3.914082093e-19
4.263354442e-19
4.67342234e-19
5.146202733e-19
5.670893715e-19
6.215302354e-19
6.715812762e-19
7.070130871e-19
7.141653447e-19
6.792232348e-19
5.97093429e-19
4.903769989e-19
4.452492429e-19
6.742415279e-19
1.619525685e-18
4.114451895e-18
9.624313618e-18
2.058760352e-17
4.086919633e-17
7.630322856e-17
1.352092902e-16
2.28518692e-16
3.685146741e-16
5.637400145e-16
8.056991768e-16
1.046237177e-15
1.191329826e-15
1.19651061e-15
1.319915586e-15
1.960626675e-15
3.617717399e-15
4.833153958e-15
1.060646013e-15
2.098388145e-15
2.49248214e-13
8.400371444e-13
1.709591752e-13
3.455753382e-15
1.232956113e-15
8.887344657e-15
1.146930839e-14
9.47869824e-15
4.552544831e-15
3.410274296e-15
3.367168621e-15
2.622091562e-15
1.717225866e-15
9.872918915e-16
4.888669745e-16
1.888108233e-16
4.240011762e-17
2.325934671e-17
1.335342687e-16
4.057602413e-16
8.961424299e-16
1.655642059e-15
2.642492237e-15
3.501889505e-15
3.605848862e-15
4.744180575e-15
9.742072438e-15
1.185854753e-14
9.092774204e-15
1.259688093e-15
3.418266143e-15
1.698055748e-13
8.339432289e-13
2.447542947e-13
2.070713983e-15
2.24194758e-16
1.696420474e-15
2.807942339e-15
2.299468561e-15
2.199793649e-15
2.252921545e-15
2.115710598e-15
1.609848354e-15
9.328661063e-16
3.929624245e-16
2.963845959e-16
1.843634899e-16
2.410446022e-20
3.245597777e-20
3.939800118e-20
4.478893994e-20
4.913087416e-20
5.279480934e-20
5.602561077e-20
5.898812532e-20
6.180435323e-20
6.457143121e-20
6.737100608e-20
7.027333629e-20
7.334015938e-20
7.66255926e-20
8.017767012e-20
8.403845905e-20
8.824554495e-20
9.283226698e-20
9.782935714e-20
1.032645713e-19
1.09163501e-19
1.155481087e-19
1.224372021e-19
1.29844897e-19
1.377812013e-19
1.462495334e-19
1.55245716e-19
1.647542268e-19
1.747487964e-19
1.851941764e-19
1.96055635e-19
2.073088139e-19
2.189529201e-19
2.310202361e-19
2.43592113e-19
2.568230049e-19
2.709832421e-19
2.865055785e-19
3.040172905e-19
3.243193257e-19
3.482905514e-19
3.766891316e-19
4.098284458e-19
4.470906924e-19
4.862942388e-19
5.23086891e-19
5.508689638e-19
5.622859288e-19
5.541509199e-19
5.389542226e-19
5.680557572e-19
7.744612983e-19
1.446674451e-18
3.149502301e-18
6.912068399e-18
1.45061601e-17
2.883489646e-17
5.443408322e-17
9.803714205e-17
1.690305314e-16
2.79353719e-16
4.418662878e-16
6.65391009e-16
9.443473532e-16
1.244651947e-15
1.501757587e-15
1.665481693e-15
1.789582958e-15
1.930476546e-15
1.841880416e-15
9.706637607e-16
4.890925347e-15
7.022965779e-15
5.881660036e-15
2.891087431e-13
4.710417451e-13
6.27343947e-14
2.013850122e-14
6.77766334e-14
5.520013363e-14
4.150569908e-14
6.09920387e-15
4.536098697e-15
7.438104951e-15
5.606580169e-15
3.380975588e-15
1.789925522e-15
8.231389732e-16
3.003726897e-16
6.459080461e-17
3.518331408e-17
2.121482714e-16
6.793289414e-16
1.608772957e-15
3.219304584e-15
5.585136483e-15
7.684735867e-15
4.817815643e-15
5.997639557e-15
4.112704453e-14
5.574567356e-14
6.816800537e-14
1.982913702e-14
6.176750058e-14
4.736521065e-13
2.849403886e-13
3.920479977e-15
3.873962309e-15
2.615525889e-15
3.242861485e-16
1.823725397e-15
2.47788646e-15
2.524143759e-15
2.294525596e-15
1.857270507e-15
1.253343081e-15
6.385108465e-16
1.906198748e-16
1.5952527e-16
1.369105588e-16
1.953088476e-20
2.671548797e-20
3.330734962e-20
3.874331853e-20
4.321130177e-20
4.696304491e-20
5.021763191e-20
5.314619221e-20
5.588276933e-20
5.853470323e-20
6.1190343e-20
6.39240037e-20
6.679908608e-20
6.987007515e-20
7.31838924e-20
7.6781036e-20
8.069659653e-20
8.496128365e-20
8.960220761e-20
9.464320434e-20
1.001045812e-19
1.060024034e-19
1.12347649e-19
1.191452615e-19
1.263928729e-19
1.340787837e-19
1.42179229e-19
1.506557832e-19
1.594544808e-19
1.685083325e-19
1.777435139e-19
1.870876204e-19
1.964782449e-19
2.058724447e-19
2.152625461e-19
2.247054778e-19
2.343679437e-19
2.445773083e-19
2.558574067e-19
2.689260065e-19
2.846381066e-19
3.038605149e-19
3.272573415e-19
3.549691139e-19
3.862411149e-19
4.192439057e-19
4.516864621e-19
4.833853451e-19
5.228689167e-19
6.015355671e-19
8.011087795e-19
1.303224975e-18
2.474053293e-18
5.001557685e-18
1.010757664e-17
1.985857796e-17
3.759252266e-17
6.845388092e-17
1.199653542e-16
2.024280193e-16
3.286829073e-16
5.123561704e-16
7.632773492e-16
1.078995118e-15
1.434040484e-15
1.775445862e-15
2.037994952e-15
2.170765783e-15
2.096359206e-15
1.647957609e-15
9.601697288e-16
3.394365199e-15
1.659824388e-14
1.413023786e-14
4.921518857e-15
2.658358248e-15
1.790963078e-14
7.879541923e-14
7.223186701e-13
4.414617452e-13
3.56930887e-13
2.234082503e-14
6.392602015e-15
2.618141501e-14
1.482358903e-14
7.861733628e-15
3.782896792e-15
1.710912381e-15
7.507681094e-16
3.625696754e-16
3.224092455e-16
6.249045505e-16
1.486496951e-15
3.456528857e-15
7.497744392e-15
1.471670392e-14
2.70866539e-14
7.331307401e-15
2.063674193e-14
3.495938209e-13
4.396453505e-13
7.199175851e-13
8.19681642e-14
1.894830262e-14
1.787507874e-15
2.527253129e-15
8.071448893e-15
1.232637359e-14
2.023936396e-15
4.454512575e-16
1.484171084e-15
2.172527368e-15
2.235277476e-15
1.933422053e-15
1.454852131e-15
9.174231321e-16
4.488046601e-16
1.436088194e-16
2.313918061e-16
1.498151868e-16
1.657032677e-20
2.261162861e-20
2.852613891e-20
3.364757936e-20
3.798385119e-20
4.166785896e-20
4.486118504e-20
4.771279387e-20
5.035067648e-20
5.28820443e-20
5.539656969e-20
5.796963382e-20
6.066497796e-20
6.353662531e-20
6.663047362e-20
6.998547435e-20
7.363491136e-20
7.760731904e-20
8.19273068e-20
8.661562066e-20
9.168884499e-20
9.715843907e-20
1.030297395e-19
1.093004789e-19
1.15959008e-19
1.229816924e-19
1.303300415e-19
1.379479391e-19
1.45760787e-19
1.536769449e-19
1.615921579e-19
1.693949486e-19
1.769730914e-19
1.842226162e-19
1.910661238e-19
1.974858818e-19
2.035726531e-19
2.095795852e-19
2.159655306e-19
2.234134872e-19
2.328174779e-19
2.452294213e-19
2.617520117e-19
2.833810382e-19
3.108925385e-19
3.45081206e-19
3.880247814e-19
4.466537828e-19
5.408936585e-19
7.202506689e-19
1.095127306e-18
1.892531072e-18
3.550152917e-18
6.86775781e-18
1.323916901e-17
2.498880338e-17
4.582717604e-17
8.140897367e-17
1.399059079e-16
2.323669189e-16
3.72400576e-16
5.743900828e-16
8.49194457e-16
1.196590975e-15
1.595473986e-15
1.996336268e-15
2.322475777e-15
2.478423096e-15
2.350437226e-15
1.847080452e-15
1.194817045e-15
1.841758069e-15
5.852460242e-15
7.052555948e-15
1.07564913e-14
1.553354186e-14
8.253178254e-15
3.149200435e-15
8.535337874e-13
8.114478735e-13
4.803359695e-13
9.029197179e-14
1.234456811e-13
2.09510417e-13
5.451211882e-14
2.20762513e-14
8.673841893e-15
3.73372769e-15
1.864591016e-15
1.193968898e-15
1.145715398e-15
1.705234732e-15
3.417090442e-15
8.125187002e-15
2.126507191e-14
5.397969903e-14
2.143569059e-13
1.29466316e-13
8.329300116e-14
4.728909982e-13
7.926310933e-13
8.545553088e-13
2.279078002e-15
5.368706517e-15
9.498399424e-15
5.609521748e-15
4.267746527e-15
4.038837824e-15
1.06083419e-15
6.86514778e-16
1.378850012e-15
1.822637937e-15
1.799486879e-15
1.485141884e-15
1.066285813e-15
6.638701721e-16
3.60709292e-16
1.979343783e-16
4.022492173e-16
1.900031896e-16
1.439147602e-20
1.95055635e-20
2.471050262e-20
2.937187284e-20
3.342454524e-20
3.692415406e-20
3.997887951e-20
4.270716587e-20
4.522139796e-20
4.762134767e-20
4.999315146e-20
5.241025519e-20
5.493497031e-20
5.762001295e-20
6.050987641e-20
6.364209972e-20
6.704845859e-20
7.075595435e-20
7.478736747e-20
7.916134695e-20
8.389185584e-20
8.898728253e-20
9.444903045e-20
1.002698154e-19
1.06431307e-19
1.129013452e-19
1.196308165e-19
1.265510205e-19
1.335723166e-19
1.40584733e-19
1.474601454e-19
1.540555569e-19
1.602176528e-19
1.657923756e-19
1.706452496e-19
1.746977608e-19
1.779781652e-19
1.806779046e-19
1.832024386e-19
1.862105972e-19
1.906417341e-19
1.97726624e-19
2.089751684e-19
2.261640077e-19
2.514545185e-19
2.879924121e-19
3.417211554e-19
4.257721926e-19
5.698585524e-19
8.388110175e-19
1.366972067e-18
2.418702694e-18
4.489742795e-18
8.469162204e-18
1.588579719e-17
2.926281462e-17
5.259263633e-17
9.190981432e-17
1.558638575e-16
2.560535083e-16
4.066622826e-16
6.226584072e-16
9.156365208e-16
1.286631396e-15
1.71642964e-15
2.156136899e-15
2.522711978e-15
2.703907974e-15
2.579177557e-15
2.088314407e-15
1.403265356e-15
1.134624036e-15
1.921627105e-15
2.570544883e-15
4.106504479e-15
9.272253949e-15
1.545538452e-14
2.087269784e-14
1.962446914e-14
1.518191971e-14
1.497143355e-14
7.540157702e-13
7.296126933e-13
3.988329748e-13
4.413035196e-13
6.786960877e-14
1.872713095e-14
7.328779722e-15
3.752413825e-15
2.587506392e-15
2.536742409e-15
3.574386473e-15
6.927775411e-15
1.787192788e-14
6.606656133e-14
4.376787176e-13
3.955094059e-13
7.012605573e-13
7.5118164e-13
1.450289744e-14
1.374864135e-14
1.604258983e-14
1.463678922e-14
9.966157306e-15
5.908765853e-15
2.232504025e-15
1.582080187e-15
1.251062948e-15
6.348687083e-16
8.132840659e-16
1.291205087e-15
1.535053273e-15
1.433272824e-15
1.126396835e-15
7.869896824e-16
5.091413551e-16
3.424804771e-16
2.910266488e-16
5.808748506e-16
2.320088244e-16
1.264638094e-20
1.702205636e-20
2.158043885e-20
2.575181655e-20
2.945351586e-20
3.270008857e-20
3.556158931e-20
3.812881527e-20
4.049634946e-20
4.275307836e-20
4.497856319e-20
4.724208635e-20
4.960305933e-20
5.211201918e-20
5.481170295e-20
5.773822074e-20
6.092213899e-20
6.438932497e-20
6.816137556e-20
7.225560456e-20
7.668448193e-20
8.145461527e-20
8.656518528e-20
9.200586228e-20
9.775421408e-20
1.037726523e-19
1.100053382e-19
1.163754399e-19
1.227833142e-19
1.291058559e-19
1.351967481e-19
1.408875913e-19
1.459912458e-19
1.503116103e-19
1.536656027e-19
1.559208912e-19
1.570470673e-19
1.571727965e-19
1.566427039e-19
1.560739524e-19
1.564157167e-19
1.590099986e-19
1.656533965e-19
1.786990188e-19
2.013525247e-19
2.385414689e-19
2.991204719e-19
4.008295715e-19
5.805276334e-19
9.140084881e-19
1.552359374e-18
2.785445438e-18
5.14762827e-18
9.58582266e-18
1.771397789e-17
3.217749688e-17
5.713860216e-17
9.885721802e-17
1.662632107e-16
2.712744063e-16
4.283998468e-16
6.529147079e-16
9.567374519e-16
1.341360805e-15
1.788128872e-15
2.247916341e-15
2.634490317e-15
2.8287188e-15
2.707132362e-15
2.217346216e-15
1.493632045e-15
8.718130933e-16
6.250995844e-16
6.007124267e-16
6.019236971e-16
1.322214644e-15
2.700197626e-15
7.816765896e-15
1.749047998e-14
1.146697297e-14
3.673553172e-14
1.688282796e-14
6.825084438e-16
1.047211548e-15
5.066418117e-16
1.465462084e-13
3.426488654e-14
1.164802278e-14
5.627981224e-15
3.861306755e-15
3.81216418e-15
5.446227142e-15
1.118739089e-14
3.304656435e-14
1.427862461e-13
4.987086356e-16
1.027185446e-15
6.725466993e-16
1.606725558e-14
3.373451532e-14
1.075961729e-14
1.641636782e-14
7.051669032e-15
2.009032907e-15
7.989974343e-16
3.168597133e-16
4.131960276e-16
3.913546087e-16
4.886378906e-16
8.283717578e-16
1.195544278e-15
1.338523807e-15
1.198065581e-15
9.103683436e-16
6.255041352e-16
4.303690823e-16
3.450724202e-16
3.626313689e-16
6.977948485e-16
2.607189085e-16
1.117406114e-20
1.495054575e-20
1.894252428e-20
2.264473463e-20
2.597938118e-20
2.894235774e-20
3.157980375e-20
3.396131955e-20
3.616538132e-20
3.826950663e-20
4.034539154e-20
4.245691327e-20
4.465965489e-20
4.700136535e-20
4.952276424e-20
5.225853364e-20
5.523819504e-20
5.848681006e-20
6.202530825e-20
6.587040257e-20
7.003403542e-20
7.452228218e-20
7.933362386e-20
8.445661806e-20
8.986707698e-20
9.552497402e-20
1.013713059e-19
1.073252031e-19
1.132814742e-19
1.191086069e-19
1.246471922e-19
1.297091033e-19
1.340797302e-19
1.375276618e-19
1.398270564e-19
1.407949958e-19
1.403408759e-19
1.385222426e-19
1.356047405e-19
1.321300644e-19
1.289969121e-19
1.275544628e-19
1.297122829e-19
1.381149916e-19
1.56547506e-19
1.909575585e-19
2.518658113e-19
3.595911592e-19
5.5483876e-19
9.189920709e-19
1.611106245e-18
2.932205675e-18
5.431986962e-18
1.007799719e-17
1.851142068e-17
3.341306672e-17
5.899069121e-17
1.015613436e-16
1.701217363e-16
2.766549759e-16
4.357066165e-16
6.625164677e-16
9.688573789e-16
1.355977326e-15
1.804950051e-15
2.266294164e-15
2.652554174e-15
2.84053859e-15
2.698930831e-15
2.17169355e-15
1.415862657e-15
8.249336901e-16
7.019243057e-16
7.907613299e-16
7.969573508e-16
1.430034732e-15
2.672748791e-15
7.507019437e-15
1.707896094e-14
1.158121889e-14
3.670985205e-14
1.691254224e-14
6.839086087e-16
1.047268385e-15
5.067250714e-16
1.465746561e-13
3.426801109e-14
1.164601642e-14
5.625161002e-15
3.858624163e-15
3.809958316e-15
5.445058106e-15
1.118917444e-14
3.30583143e-14
1.428365347e-13
4.988137852e-16
1.027281151e-15
6.738271642e-16
1.598830241e-14
3.374966345e-14
1.098785252e-14
1.586020506e-14
6.52233274e-15
1.768538379e-15
7.939717898e-16
4.761336868e-16
5.66509579e-16
4.934570963e-16
5.091188802e-16
7.869891542e-16
1.120552806e-15
1.252124748e-15
1.117624838e-15
8.459147766e-16
5.820651118e-16
4.096480239e-16
3.48569751e-16
3.751824481e-16
7.218380996e-16
2.667300807e-16
9.892586838e-21
1.317073789e-20
1.667004832e-20
1.994172815e-20
2.291992372e-20
2.559365989e-20
2.799506298e-20
3.017873779e-20
3.221006111e-20
3.415617628e-20
3.608092289e-20
3.804235391e-20
4.009181854e-20
4.22740021e-20
4.462748976e-20
4.718553075e-20
4.997675546e-20
5.302568763e-20
5.635301687e-20
5.997550753e-20
6.390548021e-20
6.814962349e-20
7.270713493e-20
7.75672106e-20
8.270615432e-20
8.808427584e-20
9.364275362e-20
9.930049554e-20
1.049509527e-19
1.104587686e-19
1.156564553e-19
1.203419001e-19
1.242794325e-19
1.272088704e-19
1.288670327e-19
1.290228475e-19
1.27523045e-19
1.243444309e-19
1.196533797e-19
1.138785395e-19
1.078016892e-19
1.026656581e-19
1.003038664e-19
1.033418435e-19
1.15634754e-19
1.433195023e-19
1.972321461e-19
2.980873406e-19
4.869085739e-19
8.449441321e-19
1.529880288e-18
2.838672769e-18
5.31173774e-18
9.898251297e-18
1.820657451e-17
3.286386316e-17
5.799700925e-17
9.980990227e-17
1.671496885e-16
2.718055892e-16
4.280580362e-16
6.507378803e-16
9.509346829e-16
1.328849426e-15
1.764444701e-15
2.208162112e-15
2.574452205e-15
2.740179598e-15
2.560569051e-15
1.962344695e-15
1.19035894e-15
1.032811591e-15
2.186213873e-15
3.081758975e-15
4.476596459e-15
9.347056974e-15
1.552599543e-14
2.040121881e-14
1.919519006e-14
1.521276514e-14
1.509229949e-14
7.554900072e-13
7.300566043e-13
3.994206248e-13
4.416782363e-13
6.794303008e-14
1.873819893e-14
7.32552454e-15
3.74608549e-15
2.581099418e-15
2.531525693e-15
3.572028223e-15
6.932851293e-15
1.789919392e-14
6.616789549e-14
4.380872254e-13
3.960824756e-13
7.017148055e-13
7.525317789e-13
1.443971282e-14
1.370773982e-14
1.530599258e-14
1.400872846e-14
9.778347283e-15
5.900956878e-15
2.661561839e-15
2.02721081e-15
1.558898864e-15
7.120749522e-16
7.11890281e-16
1.078243455e-15
1.285153939e-15
1.196783743e-15
9.382418879e-16
6.564735024e-16
4.448432195e-16
3.319412432e-16
3.246080357e-16
6.396046861e-16
2.468616393e-16
8.756745851e-21
1.161146124e-20
1.468057008e-20
1.75638124e-20
2.020822277e-20
2.260146499e-20
2.476770016e-20
2.675125589e-20
2.860733532e-20
3.039422176e-20
3.216856541e-20
3.398276845e-20
3.588393183e-20
3.791366079e-20
4.010841268e-20
4.250006432e-20
4.511646674e-20
4.798183198e-20
5.111700309e-20
5.453942016e-20
5.826258029e-20
6.22948086e-20
6.663729738e-20
7.128151519e-20
7.620632491e-20
8.137500054e-20
8.673208016e-20
9.219991732e-20
9.767471127e-20
1.030219037e-19
1.080712953e-19
1.126131167e-19
1.163978453e-19
1.191440839e-19
1.20558026e-19
1.203649318e-19
1.183495373e-19
1.144028987e-19
1.085782013e-19
1.011620359e-19
9.276475714e-20
8.442602108e-20
7.773684242e-20
7.502280285e-20
7.974057952e-20
9.744219989e-20
1.380162352e-19
2.205268887e-19
3.830020516e-19
7.01160475e-19
1.322497846e-18
2.525502881e-18
4.818094517e-18
9.094408201e-18
1.687369529e-17
3.064590194e-17
5.433798617e-17
9.387936456e-17
1.577630486e-16
2.573429804e-16
4.063573606e-16
6.188630703e-16
9.046325859e-16
1.261640185e-15
1.66718498e-15
2.071797845e-15
2.398563787e-15
2.538798802e-15
2.336948752e-15
1.672398212e-15
9.14484052e-16
1.799875583e-15
6.288809841e-15
7.577140304e-15
1.101791165e-14
1.511818354e-14
8.180851795e-15
3.034260317e-15
8.530637825e-13
8.098105084e-13
4.806274959e-13
9.038142054e-14
1.232897339e-13
2.097263961e-13
5.464021443e-14
2.212509264e-14
8.686028281e-15
3.732050155e-15
1.858414337e-15
1.187093813e-15
1.14026836e-15
1.703591167e-15
3.423804377e-15
8.150172442e-15
2.132835108e-14
5.410798284e-14
2.145035187e-13
1.292989906e-13
8.336544821e-14
4.730784832e-13
7.911680492e-13
8.542756004e-13
2.040226165e-15
4.924215899e-15
8.9095626e-15
6.240590654e-15
4.729601095e-15
4.460736259e-15
1.205298903e-15
5.839162589e-16
1.062960725e-15
1.422583946e-15
1.412051475e-15
1.167723531e-15
8.460650603e-16
5.459568792e-16
3.272098567e-16
2.315675375e-16
4.817318246e-16
2.096094085e-16
7.739699904e-21
1.022867662e-20
1.291964125e-20
1.545452828e-20
1.779212638e-20
1.99210397e-20
2.186089432e-20
2.364889828e-20
2.533245957e-20
2.696252419e-20
2.858941665e-20
3.026039421e-20
3.201854713e-20
3.390253481e-20
3.594679598e-20
3.818192341e-20
4.063507911e-20
4.333039795e-20
4.628925466e-20
4.95302896e-20
5.306889618e-20
5.691594311e-20
6.107573869e-20
6.554349079e-20
7.030255976e-20
7.532165804e-20
8.055173669e-20
8.592220071e-20
9.133617981e-20
9.666482561e-20
1.017412127e-19
1.063551896e-19
1.102520058e-19
1.131386065e-19
1.147002594e-19
1.14627476e-19
1.126503344e-19
1.085789172e-19
1.02353266e-19
9.410895126e-20
8.425901259e-20
7.358385783e-20
6.332345576e-20
5.530491717e-20
5.223688205e-20
5.848980662e-20
8.20092617e-20
1.38570843e-19
2.60519916e-19
5.136262381e-19
1.02791477e-18
2.051485483e-18
4.040493732e-18
7.803493548e-18
1.472325822e-17
2.708099455e-17
4.849956171e-17
8.449084959e-17
1.430142003e-16
2.347881562e-16
3.728009342e-16
5.700527912e-16
8.343173427e-16
1.159530268e-15
1.516899105e-15
1.855025957e-15
2.116856827e-15
2.247214532e-15
2.109523782e-15
1.471155212e-15
7.389569646e-16
3.558826919e-15
1.688758229e-14
1.467115642e-14
5.298992696e-15
2.683214069e-15
1.798762169e-14
7.918310658e-14
7.215441456e-13
4.410955367e-13
3.568186892e-13
2.233564151e-14
6.400529369e-15
2.625630791e-14
1.488463793e-14
7.894502485e-15
3.795047821e-15
1.712033213e-15
7.471124661e-16
3.577334616e-16
3.188626413e-16
6.251600331e-16
1.494073323e-15
3.476614062e-15
7.535861963e-15
1.477228283e-14
2.71368108e-14
7.326018437e-15
2.063948589e-14
3.494198285e-13
4.392673139e-13
7.193606924e-13
8.231255153e-14
1.906279688e-14
1.662045789e-15
2.975180239e-15
8.660731383e-15
1.260171741e-14
2.11705842e-15
4.065029505e-16
1.125414228e-15
1.658664011e-15
1.719275073e-15
1.497854891e-15
1.137428662e-15
7.326344583e-16
3.729096541e-16
1.522463383e-16
3.007299891e-16
1.674641723e-16
6.82431249e-21
8.993663583e-21
1.135024047e-20
1.3573222e-20
1.563155659e-20
1.751556124e-20
1.924218134e-20
2.084352349e-20
2.236094234e-20
2.383933811e-20
2.532359162e-20
2.68563856e-20
2.84771899e-20
3.022195701e-20
3.212322099e-20
3.421037552e-20
3.651004846e-20
3.904648444e-20
4.184192338e-20
4.491668421e-20
4.828866745e-20
5.197202897e-20
5.597516407e-20
6.029832044e-20
6.493114218e-20
6.985013839e-20
7.501562439e-20
8.03676205e-20
8.582048855e-20
9.125642323e-20
9.651848108e-20
1.014046254e-19
1.056653576e-19
1.090082397e-19
1.111114688e-19
1.116460839e-19
1.103044143e-19
1.068343774e-19
1.010833589e-19
9.305636172e-20
8.298559306e-20
7.139694968e-20
5.91582233e-20
4.752643968e-20
3.829961478e-20
3.434820535e-20
4.109759091e-20
7.003065221e-20
1.460960848e-19
3.222123802e-19
7.060616757e-19
1.507267798e-18
3.116973368e-18
6.236657527e-18
1.2078055e-17
2.265886928e-17
4.121423611e-17
7.271997885e-17
1.244539843e-16
2.063514613e-16
3.305523219e-16
5.089405459e-16
7.46871364e-16
1.031990824e-15
1.322802769e-15
1.556804086e-15
1.708411544e-15
1.860896674e-15
2.008481888e-15
1.733667698e-15
9.249855372e-16
4.898998031e-15
7.600794587e-15
6.384055771e-15
2.885462463e-13
4.714342012e-13
6.26330616e-14
2.013981562e-14
6.766839606e-14
5.512351838e-14
4.151894173e-14
6.125736986e-15
4.55981616e-15
7.476036305e-15
5.642108514e-15
3.404651179e-15
1.801786355e-15
8.269435952e-16
2.999240872e-16
6.279906219e-17
3.437178268e-17
2.145145168e-16
6.872822036e-16
1.624658711e-15
3.243853307e-15
5.614435786e-15
7.708390406e-15
4.827313443e-15
6.008143011e-15
4.110439611e-14
5.56583995e-14
6.810406305e-14
1.982386221e-14
6.169571295e-14
4.738918328e-13
2.844741088e-13
4.383760213e-15
4.165711786e-15
2.669275667e-15
3.855192602e-16
1.481293644e-15
1.959550997e-15
1.97715646e-15
1.80799804e-15
1.478210882e-15
1.007399143e-15
5.177100593e-16
1.511147744e-16
1.815061944e-16
1.41405567e-16
5.998775339e-21
7.886654684e-21
9.946223761e-21
1.188998739e-20
1.369554293e-20
1.535501714e-20
1.688362315e-20
1.830964594e-20
1.966958926e-20
2.100334549e-20
2.235113508e-20
2.375164057e-20
2.524109482e-20
2.685298357e-20
2.861808528e-20
3.056470776e-20
3.271904469e-20
3.510565423e-20
3.774793776e-20
4.066827882e-20
4.388754152e-20
4.742376105e-20
5.129022039e-20
5.549335712e-20
6.003074341e-20
6.488889854e-20
7.00403131e-20
7.543915943e-20
8.101545936e-20
8.666815519e-20
9.225778915e-20
9.760026363e-20
1.02463834e-19
1.065721579e-19
1.096151662e-19
1.112672827e-19
1.112115304e-19
1.091696029e-19
1.049417833e-19
9.845933708e-20
8.984258584e-20