/*--------------------------------*- C++ -*----------------------------------*\
  =========                 |
  \\      /  F ield         | OpenFOAM: The Open Source CFD Toolbox
   \\    /   O peration     | Website:  https://openfoam.org
    \\  /    A nd           | Version:  6
     \\/     M anipulation  |
\*---------------------------------------------------------------------------*/
FoamFile
{
    version     2.0;
    format      ascii;
    class       volScalarField;
    location    "0.0016";
    object      TRHS;
}
// * * * * * * * * * * * * * * * * * * * * * * * * * * * * * * * * * * * * * //

dimensions      [1 -1 -3 0 0 0 0];

internalField   nonuniform List<scalar> 
9600
(
7.876116018e-10
7.55916454e-10
7.481342509e-10
7.519887615e-10
7.801972702e-10
8.157940419e-10
8.453725767e-10
8.767731162e-10
8.988117806e-10
9.20758127e-10
9.324633279e-10
9.441152863e-10
9.458164554e-10
9.479167585e-10
9.402798901e-10
9.33249332e-10
9.165026884e-10
9.003749649e-10
8.739950101e-10
8.470301771e-10
8.07443741e-10
7.639335091e-10
7.035311333e-10
6.342641606e-10
5.419320497e-10
4.324344548e-10
2.879309273e-10
1.098274234e-10
-1.244589224e-10
-4.174925227e-10
-7.955382741e-10
-1.265912616e-09
-1.862506298e-09
-2.603401968e-09
-3.534808226e-09
-4.686381112e-09
-6.114500708e-09
-7.859520651e-09
-9.991630033e-09
-1.256817721e-08
-1.567633634e-08
-1.938682986e-08
-2.379668175e-08
-2.898789309e-08
-3.507539622e-08
-4.216729079e-08
-5.040733123e-08
-5.992764508e-08
-7.088742057e-08
-8.343073884e-08
-9.773615211e-08
-1.139782339e-07
-1.32371959e-07
-1.531306754e-07
-1.765256074e-07
-2.028809106e-07
-2.327257807e-07
-2.670129103e-07
-3.075794396e-07
-3.569321191e-07
-4.158138282e-07
-4.724314999e-07
-4.76117312e-07
-3.760425348e-07
-2.139155719e-07
-9.391091103e-07
-0.001635072531
1294.970118
0
0
0
0
0
0
0
0
0
0
0
0
0
0
0
0
0
0
0
0
0
0
0
0
0
0
0
0
0
0
0
0
0
0
0
0
0
0
0
0
0
0
0
0
771.6914609
-0.0009749561508
2.642385511e-07
5.690486666e-07
3.830621635e-07
-5.832944218e-09
-2.670995204e-07
-3.826903906e-08
8.512324016e-10
8.080417064e-10
7.921791146e-10
7.869309205e-10
8.095314816e-10
8.381782926e-10
8.643265256e-10
8.906593596e-10
9.109539512e-10
9.292803888e-10
9.405136464e-10
9.495026749e-10
9.513981867e-10
9.512152999e-10
9.439948638e-10
9.348195983e-10
9.186025996e-10
9.002375561e-10
8.740364256e-10
8.440330349e-10
8.035249926e-10
7.557332809e-10
6.931688873e-10
6.181776661e-10
5.215398233e-10
4.027115966e-10
2.484421257e-10
5.379476694e-11
-1.984225875e-10
-5.165036075e-10
-9.2151054e-10
-1.427738759e-09
-2.06541291e-09
-2.860152493e-09
-3.853316979e-09
-5.079851803e-09
-6.589366802e-09
-8.426673716e-09
-1.065434559e-08
-1.333164816e-08
-1.653309406e-08
-2.032519362e-08
-2.47868506e-08
-2.999136971e-08
-3.603023456e-08
-4.299405823e-08
-5.099040042e-08
-6.011972293e-08
-7.049401866e-08
-8.222089905e-08
-9.542979512e-08
-1.102540207e-07
-1.268462801e-07
-1.45346795e-07
-1.658783585e-07
-1.885027607e-07
-2.133222179e-07
-2.408957012e-07
-2.733800286e-07
-3.164235031e-07
-3.80079116e-07
-4.622859723e-07
-4.873209551e-07
-4.421619596e-07
7.545122781e-07
-0.005374317633
2131.937268
0
0
0
0
0
0
0
0
0
0
0
0
0
0
0
0
0
0
0
0
0
0
0
0
0
0
0
0
0
0
0
0
0
0
0
0
0
0
0
0
0
0
0
0
0
0
1865.889429
-0.004703111411
8.65672492e-07
2.644280467e-07
3.366325463e-08
-3.157637782e-07
-7.665242182e-08
9.180085133e-10
8.621305422e-10
8.383169198e-10
8.232919794e-10
8.40411698e-10
8.614322627e-10
8.843412749e-10
9.049926748e-10
9.238169764e-10
9.379733374e-10
9.490217763e-10
9.547932074e-10
9.572165918e-10
9.541978465e-10
9.477866811e-10
9.359086669e-10
9.206000737e-10
8.994472977e-10
8.738030183e-10
8.402917229e-10
7.9933067e-10
7.468045457e-10
6.824517194e-10
6.00995039e-10
4.999878821e-10
3.70656195e-10
2.062313397e-10
-6.268970111e-12
-2.770077775e-10
-6.219768854e-10
-1.055556936e-09
-1.601017419e-09
-2.283178945e-09
-3.136950672e-09
-4.197178939e-09
-5.506114335e-09
-7.105233304e-09
-9.045617214e-09
-1.138055345e-08
-1.417279456e-08
-1.748281198e-08
-2.137453739e-08
-2.590682009e-08
-3.114390182e-08
-3.714913084e-08
-4.39926072e-08
-5.173947863e-08
-6.045476577e-08
-7.019648026e-08
-8.103025154e-08
-9.302901006e-08
-1.062844783e-07
-1.208948627e-07
-1.369438148e-07
-1.544048294e-07
-1.72984806e-07
-1.919446605e-07
-2.101699181e-07
-2.270431848e-07
-2.476949359e-07
-2.920107627e-07
-4.09262573e-07
-6.287525207e-07
4.019562106e-07
9.935575443e-07
-0.05127552342
5154.293148
0
0
0
0
0
0
0
0
0
0
0
0
0
0
0
0
0
0
0
0
0
0
0
0
0
0
0
0
0
0
0
0
0
0
0
0
0
0
0
0
0
0
0
0
0
0
4637.231481
-0.0487239253
1.954990994e-06
1.508339647e-06
5.381866243e-08
-3.058751241e-07
-4.485923935e-08
9.863214029e-10
9.195591958e-10
8.844957836e-10
8.616086988e-10
8.701791791e-10
8.857129686e-10
9.024773634e-10
9.198133712e-10
9.34382645e-10
9.468770324e-10
9.549965865e-10
9.601274063e-10
9.602886339e-10
9.57087512e-10
9.486859387e-10
9.368421866e-10
9.196565299e-10
8.984859768e-10
8.706259414e-10
8.364225136e-10
7.922692591e-10
7.378695516e-10
6.688647505e-10
5.835778597e-10
4.749398372e-10
3.373448602e-10
1.592177579e-10
-6.902054282e-11
-3.619043917e-10
-7.319504014e-10
-1.198654251e-09
-1.783079494e-09
-2.516267243e-09
-3.430899994e-09
-4.566801902e-09
-5.962320548e-09
-7.662622159e-09
-9.714194528e-09
-1.217274041e-08
-1.50934857e-08
-1.853439427e-08
-2.254587419e-08
-2.717759749e-08
-3.247261537e-08
-3.847475239e-08
-4.521899126e-08
-5.273406043e-08
-6.103289095e-08
-7.012249672e-08
-8.000614285e-08
-9.070190816e-08
-1.022490433e-07
-1.147222444e-07
-1.281977846e-07
-1.426354012e-07
-1.575572944e-07
-1.713754369e-07
-1.797882569e-07
-1.732663904e-07
-1.30457311e-07
-1.090848552e-08
2.15936944e-07
1.409448536e-07
3.007582628e-07
-2.399692385e-06
15187.05576
0
0
0
0
0
0
0
0
0
0
0
0
0
0
0
0
0
0
0
0
0
0
0
0
0
0
0
0
0
0
0
0
0
0
0
0
0
0
0
0
0
0
0
0
0
0
0
0
14691.51385
-1.79032383e-06
2.275380503e-06
8.054331731e-07
1.887875759e-07
1.074096462e-07
1.058100375e-09
9.78031416e-10
9.326224079e-10
8.999434969e-10
9.010780154e-10
9.09343316e-10
9.212554681e-10
9.33626545e-10
9.45374914e-10
9.545696865e-10
9.612265748e-10
9.640542891e-10
9.634542371e-10
9.583913272e-10
9.495649525e-10
9.361237279e-10
9.186960978e-10
8.959237491e-10
8.67505153e-10
8.310454595e-10
7.853851877e-10
7.274868029e-10
6.553981746e-10
5.643751153e-10
4.493887708e-10
3.013638896e-10
1.107067784e-10
-1.353845124e-10
-4.492586731e-10
-8.469007799e-10
-1.346583037e-09
-1.97414796e-09
-2.760204841e-09
-3.741902099e-09
-4.957342955e-09
-6.447986586e-09
-8.256647147e-09
-1.04325723e-08
-1.302797842e-08
-1.609773559e-08
-1.969139943e-08
-2.385292599e-08
-2.861673117e-08
-3.401071602e-08
-4.005151108e-08
-4.674281692e-08
-5.406683974e-08
-6.198444653e-08
-7.043597081e-08
-7.935371943e-08
-8.867684979e-08
-9.838338579e-08
-1.085263978e-07
-1.192574153e-07
-1.307784811e-07
-1.431393346e-07
-1.55504729e-07
-1.642237989e-07
-1.56856006e-07
-9.997426452e-08
7.996410878e-08
4.377436365e-07
1.25532511e-06
-0.004185016769
1660.084553
0
0
0
0
0
0
0
0
0
0
0
0
0
0
0
0
0
0
0
0
0
0
0
0
0
0
0
0
0
0
0
0
0
0
0
0
0
0
0
0
0
0
0
0
0
0
0
0
0
0
1129.230412
-0.002845804437
1.504067282e-06
-1.886410364e-07
-1.416151384e-07
1.131724469e-09
1.038495021e-09
9.812107971e-10
9.391262429e-10
9.316310531e-10
9.332698225e-10
9.393496024e-10
9.475508341e-10
9.555277569e-10
9.622673018e-10
9.664883426e-10
9.67828811e-10
9.654804301e-10
9.594555677e-10
9.492817067e-10
9.352183388e-10
9.166715479e-10
8.932773269e-10
8.634319836e-10
8.257073491e-10
7.776404063e-10
7.171940978e-10
6.409702211e-10
5.44966757e-10
4.223493866e-10
2.645502956e-10
6.01809007e-11
-2.029274437e-10
-5.389623622e-10
-9.638720672e-10
-1.498882755e-09
-2.170930238e-09
-3.014014006e-09
-4.06581769e-09
-5.366738992e-09
-6.958030891e-09
-8.884733728e-09
-1.119598023e-08
-1.394505676e-08
-1.718368896e-08
-2.095776285e-08
-2.530239717e-08
-3.024152769e-08
-3.578524681e-08
-4.192685227e-08
-4.863486585e-08
-5.584643396e-08
-6.346200961e-08
-7.134709322e-08
-7.933983041e-08
-8.727271756e-08
-9.501615632e-08
-1.025501697e-07
-1.10060792e-07
-1.180731781e-07
-1.275924399e-07
-1.399453642e-07
-1.546459135e-07
-1.634243826e-07
-1.205189026e-07
3.981169756e-08
1.241544743e-06
1.724130884e-06
-0.01653043343
5404.378824
0
0
0
0
0
0
0
0
0
0
0
0
0
0
0
0
0
0
0
0
0
0
0
0
0
0
0
0
0
0
0
0
0
0
0
0
0
0
0
0
0
0
0
0
0
0
0
0
0
0
4327.136675
-0.01090795975
3.927268643e-06
7.912721134e-07
-3.531730133e-07
1.207238028e-09
1.099575589e-09
1.030266274e-09
9.780154134e-10
9.620039497e-10
9.56480026e-10
9.570348968e-10
9.606346578e-10
9.652356058e-10
9.690750071e-10
9.712201117e-10
9.706467006e-10
9.669379984e-10
9.595603932e-10
9.485291763e-10
9.335259603e-10
9.143743725e-10
8.900265878e-10
8.592269309e-10
8.198513378e-10
7.698230146e-10
7.063777473e-10
6.263873835e-10
5.248502522e-10
3.949156685e-10
2.268791184e-10
9.298892892e-12
-2.711206299e-10
-6.289064312e-10
-1.08195753e-09
-1.653007397e-09
-2.371878972e-09
-3.274207595e-09
-4.399838626e-09
-5.790007609e-09
-7.488044433e-09
-9.540566701e-09
-1.199921227e-08
-1.491781081e-08
-1.834757707e-08
-2.233067328e-08
-2.689680365e-08
-3.206038586e-08
-3.78177884e-08
-4.414031315e-08
-5.096488235e-08
-5.818342346e-08
-6.563492349e-08
-7.310062113e-08
-8.030540032e-08
-8.693540498e-08
-9.268393531e-08
-9.733362085e-08
-1.00892413e-07
-1.038620859e-07
-1.077411404e-07
-1.151608346e-07
-1.29205313e-07
-1.364546825e-07
-5.618067346e-08
1.248579146e-07
1.150291072e-06
8.821883357e-07
1153.460649
0
0
0
0
0
0
0
0
0
0
0
0
0
0
0
0
0
0
0
0
0
0
0
0
0
0
0
0
0
0
0
0
0
0
0
0
0
0
0
0
0
0
0
0
0
0
0
0
0
0
0
0
-0.1846255101
2.104107791e-06
1.936065056e-06
-4.239333581e-07
1.283458805e-09
1.160848713e-09
1.078743327e-09
1.016159367e-09
9.912532964e-10
9.786701798e-10
9.735119608e-10
9.727310223e-10
9.737858972e-10
9.749491698e-10
9.748352888e-10
9.725615758e-10
9.673823936e-10
9.589729666e-10
9.470302103e-10
9.314243493e-10
9.115739401e-10
8.86541361e-10
8.546273088e-10
8.138097724e-10
7.616355798e-10
6.954028541e-10
6.11448384e-10
5.046053748e-10
3.672637907e-10
1.893906763e-10
-4.12406662e-11
-3.384069269e-10
-7.179713152e-10
-1.199252882e-09
-1.807403627e-09
-2.574307934e-09
-3.537851586e-09
-4.739343072e-09
-6.22199162e-09
-8.031265818e-09
-1.02170064e-08
-1.283370284e-08
-1.593742217e-08
-1.957964751e-08
-2.380139599e-08
-2.862917864e-08
-3.407206073e-08
-4.011662701e-08
-4.671785377e-08
-5.378669256e-08
-6.117596884e-08
-6.866686556e-08
-7.595488192e-08
-8.264087708e-08
-8.823623336e-08
-9.219541654e-08
-9.397584902e-08
-9.314467737e-08
-8.963755837e-08
-8.433477478e-08
-8.175489611e-08
-9.30482451e-08
-1.452435114e-07
-2.327919335e-07
2.506844926e-07
7.895618346e-07
-0.0276524687
4270.465397
0
0
0
0
0
0
0
0
0
0
0
0
0
0
0
0
0
0
0
0
0
0
0
0
0
0
0
0
0
0
0
0
0
0
0
0
0
0
0
0
0
0
0
0
0
0
0
0
0
0
0
0
1533.943332
-0.003867609973
4.177194012e-06
-3.43779705e-07
1.359330156e-09
1.220887017e-09
1.125656305e-09
1.052444922e-09
1.018638542e-09
9.989368085e-10
9.882412181e-10
9.830995383e-10
9.807990022e-10
9.79290763e-10
9.771208071e-10
9.732009253e-10
9.668190563e-10
9.574775584e-10
9.449295621e-10
9.287892323e-10
9.084439499e-10
8.826628042e-10
8.497255508e-10
8.073896177e-10
7.531996453e-10
6.841795237e-10
5.964978849e-10
4.84483401e-10
3.401336316e-10
1.52783077e-10
-9.030166735e-11
-4.038077632e-10
-8.04758837e-10
-1.314387721e-09
-1.959950216e-09
-2.775604672e-09
-3.801069684e-09
-5.079473951e-09
-6.65616916e-09
-8.579886153e-09
-1.09044092e-08
-1.368828561e-08
-1.699064464e-08
-2.086487848e-08
-2.535302431e-08
-3.048209919e-08
-3.626055431e-08
-4.26714784e-08
-4.96613526e-08
-5.712462644e-08
-6.488662835e-08
-7.268279731e-08
-8.013433635e-08
-8.672294943e-08
-9.177989343e-08
-9.449805166e-08
-9.396540505e-08
-8.918263886e-08
-7.885826129e-08
-6.047710176e-08
-2.634207614e-08
4.422087502e-08
1.96631228e-07
-1.337988625e-07
5.597947489e-07
-1.856424946e-06
6698.94614
0
0
0
0
0
0
0
0
0
0
0
0
0
0
0
0
0
0
0
0
0
0
0
0
0
0
0
0
0
0
0
0
0
0
0
0
0
0
0
0
0
0
0
0
0
0
0
0
0
0
0
0
0
0
-0.2400292382
4.140213275e-06
-0.05859485617
1.433179716e-09
1.278386718e-09
1.169585588e-09
1.085672375e-09
1.042961934e-09
1.016327183e-09
1.000267879e-09
9.910243225e-10
9.855556605e-10
9.816318968e-10
9.776254152e-10
9.723652935e-10
9.65030553e-10
9.550934901e-10
9.421141688e-10
9.256413741e-10
9.048218083e-10
8.783587803e-10
8.443624008e-10
8.006003872e-10
7.444626818e-10
6.729063924e-10
5.817466919e-10
4.649882044e-10
3.140619135e-10
1.178560846e-10
-1.370780456e-10
-4.662926622e-10
-8.88236155e-10
-1.425912577e-09
-2.108716863e-09
-2.972772739e-09
-4.059638381e-09
-5.414407235e-09
-7.085251525e-09
-9.124801739e-09
-1.159163652e-08
-1.454903373e-08
-1.806016247e-08
-2.218195145e-08
-2.696011595e-08
-3.242616336e-08
-3.859325378e-08
-4.544838466e-08
-5.293910344e-08
-6.095704318e-08
-6.931725678e-08
-7.773188283e-08
-8.577249764e-08
-9.282620656e-08
-9.80571955e-08
-1.004012844e-07
-9.864696574e-08
-9.172096181e-08
-7.924203459e-08
-6.124946512e-08
-3.500523671e-08
2.359547546e-08
2.076577864e-07
5.487779138e-07
1.619134883e-06
1.590986538e-06
-0.009267060189
0
0
0
0
0
0
0
0
0
0
0
0
0
0
0
0
0
0
0
0
0
0
0
0
0
0
0
0
0
0
0
0
0
0
0
0
0
0
0
0
0
0
0
0
0
0
0
0
0
0
0
0
0
0
-0.06320962147
-1.59385737e-07
-0.0314333357
1.502971408e-09
1.331145127e-09
1.208691843e-09
1.114131663e-09
1.06275702e-09
1.029493699e-09
1.008450037e-09
9.954796999e-10
9.872529398e-10
9.813228593e-10
9.759065411e-10
9.697263792e-10
9.61865201e-10
9.516395875e-10
9.38503042e-10
9.217912413e-10
9.005801358e-10
8.734145257e-10
8.384355439e-10
7.933387898e-10
7.355238937e-10
6.617417863e-10
5.67561646e-10
4.46524472e-10
2.896268647e-10
8.516415956e-11
-1.809506313e-10
-5.252254982e-10
-9.674437902e-10
-1.532419984e-09
-2.251447716e-09
-3.162511927e-09
-4.308930371e-09
-5.738039476e-09
-7.501290792e-09
-9.655921008e-09
-1.226583532e-08
-1.539953984e-08
-1.912503505e-08
-2.350417571e-08
-2.85890632e-08
-3.441953708e-08
-4.10191591e-08
-4.83861005e-08
-5.647989695e-08
-6.52044972e-08
-7.438806861e-08
-8.375189317e-08
-9.286161356e-08
-1.01054234e-07
-1.073414894e-07
-1.102936856e-07
-1.079818975e-07
-9.829831747e-08
-8.03127061e-08
-5.859903738e-08
-4.995704819e-08
-8.805702308e-08
-9.891360367e-08
1.274714256e-06
2.375367107e-06
-0.06628731219
18517.92171
0
0
0
0
0
0
0
0
0
0
0
0
0
0
0
0
0
0
0
0
0
0
0
0
0
0
0
0
0
0
0
0
0
0
0
0
0
0
0
0
0
0
0
0
0
0
0
0
0
0
0
0
0
0
12095.21579
-0.03049019452
-8.128528217e-07
1.565942337e-09
1.376810667e-09
1.240589902e-09
1.135679614e-09
1.076069618e-09
1.036751959e-09
1.011346405e-09
9.952956593e-10
9.849655721e-10
9.776711134e-10
9.714790958e-10
9.649586428e-10
9.570455377e-10
9.469122964e-10
9.338294793e-10
9.170194623e-10
8.95436957e-10
8.67668845e-10
8.318192411e-10
7.856727619e-10
7.265187907e-10
6.509560542e-10
5.542230431e-10
4.294543432e-10
2.671278312e-10
5.505937059e-11
-2.215263533e-10
-5.800225699e-10
-1.041538527e-09
-1.632475582e-09
-2.385852014e-09
-3.341316193e-09
-4.544055047e-09
-6.043924549e-09
-7.896135901e-09
-1.016282077e-08
-1.2913387e-08
-1.622175328e-08
-2.016128461e-08
-2.480022458e-08
-3.019925102e-08
-3.641001817e-08
-4.347072749e-08
-5.139738698e-08
-6.017100726e-08
-6.972405306e-08
-7.99232969e-08
-9.054244182e-08
-1.012106085e-07
-1.113215101e-07
-1.19864078e-07
-1.250931847e-07
-1.238998093e-07
-1.107164926e-07
-7.593186721e-08
-5.037066439e-09
1.242388568e-07
3.428483393e-07
2.863406556e-07
8.083390238e-07
-1.392147256e-06
7778.385768
0
0
0
0
0
0
0
0
0
0
0
0
0
0
0
0
0
0
0
0
0
0
0
0
0
0
0
0
0
0
0
0
0
0
0
0
0
0
0
0
0
0
0
0
0
0
0
0
0
0
0
0
0
0
0
0
1198.276722
-0.01059671338
1.618665743e-09
1.411851898e-09
1.262195192e-09
1.147543109e-09
1.080483112e-09
1.036012279e-09
1.00722696e-09
9.890815014e-10
9.776239905e-10
9.699058918e-10
9.637812607e-10
9.576443791e-10
9.502539465e-10
9.40582021e-10
9.277914935e-10
9.109968212e-10
8.89179445e-10
8.609482356e-10
8.245337119e-10
7.776781183e-10
7.176424017e-10
6.407713956e-10
5.419696992e-10
4.139304249e-10
2.467237871e-10
2.763968569e-11
-2.586138601e-10
-6.302866434e-10
-1.109623454e-09
-1.724468703e-09
-2.509373516e-09
-3.505613123e-09
-4.760269287e-09
-6.325947362e-09
-8.261803936e-09
-1.063495525e-08
-1.352017752e-08
-1.699667189e-08
-2.114347571e-08
-2.603607844e-08
-3.174551033e-08
-3.833732535e-08
-4.586751868e-08
-5.437375113e-08
-6.386545779e-08
-7.431497928e-08
-8.564981506e-08
-9.773775296e-08
-1.103573562e-07
-1.231389768e-07
-1.354381176e-07
-1.460210649e-07
-1.522784968e-07
-1.482537923e-07
-1.201928631e-07
-3.645069972e-08
1.68161132e-07
5.814466972e-07
2.515789855e-07
1.410856114e-06
-8.146471103e-07
-0.5625962439
0
0
0
0
0
0
0
0
0
0
0
0
0
0
0
0
0
0
0
0
0
0
0
0
0
0
0
0
0
0
0
0
0
0
0
0
0
0
0
0
0
0
0
0
0
0
0
0
0
0
0
0
0
0
0
0
-0.3421671778
-0.001748194708
1.656624853e-09
1.432213068e-09
1.269640173e-09
1.146235752e-09
1.072984453e-09
1.024788516e-09
9.940612056e-10
9.752947394e-10
9.640699919e-10
9.57181092e-10
9.522002508e-10
9.473107044e-10
9.410485399e-10
9.322708257e-10
9.200154164e-10
9.034437745e-10
8.816080517e-10
8.532483351e-10
8.16640823e-10
7.695552588e-10
7.090702491e-10
6.313140578e-10
5.308118481e-10
3.99910625e-10
2.282848492e-10
2.895976955e-12
-2.920579985e-10
-6.755130228e-10
-1.170726191e-09
-1.806770959e-09
-2.619611424e-09
-3.65204115e-09
-4.953168101e-09
-6.578465245e-09
-8.590985741e-09
-1.106248517e-08
-1.407256284e-08
-1.770538456e-08
-2.204568042e-08
-2.717682907e-08
-3.318093002e-08
-4.013835053e-08
-4.812335201e-08
-5.719649125e-08
-6.739720913e-08
-7.874153712e-08
-9.122386833e-08
-1.04820854e-07
-1.194968271e-07
-1.352220751e-07
-1.520134855e-07
-1.699952985e-07
-1.894092676e-07
-2.101859568e-07
-2.294317744e-07
-2.328001552e-07
-1.684599566e-07
1.220042728e-07
1.679704876e-06
3.353265632e-06
-0.03520212085
13965.70375
0
0
0
0
0
0
0
0
0
0
0
0
0
0
0
0
0
0
0
0
0
0
0
0
0
0
0
0
0
0
0
0
0
0
0
0
0
0
0
0
0
0
0
0
0
0
0
0
0
0
0
0
0
0
0
0
25082.7081
-0.1147723256
1.674141203e-09
1.4322719e-09
1.257925775e-09
1.127438063e-09
1.049936346e-09
1.000089193e-09
9.695782814e-10
9.521875487e-10
9.430739064e-10
9.386046164e-10
9.360766274e-10
9.334055092e-10
9.28978596e-10
9.215285418e-10
9.101738823e-10
8.941509151e-10
8.726839571e-10
8.446260001e-10
8.083242075e-10
7.614376646e-10
7.0089676e-10
6.225368571e-10
5.206146923e-10
3.871705688e-10
2.116587954e-10
-1.924812235e-11
-3.216706435e-10
-7.151385694e-10
-1.223759335e-09
-1.877735477e-09
-2.714284666e-09
-3.777740879e-09
-5.119166806e-09
-6.796806712e-09
-8.87725322e-09
-1.143629307e-08
-1.455766273e-08
-1.832987711e-08
-2.284318693e-08
-2.818883618e-08
-3.445997221e-08
-4.175112908e-08
-5.015382639e-08
-5.974949592e-08
-7.060508399e-08
-8.277480145e-08
-9.630884533e-08
-1.112662217e-07
-1.277396119e-07
-1.459139286e-07
-1.662081341e-07
-1.895910561e-07
-2.182579405e-07
-2.567658121e-07
-3.136150661e-07
-3.977541361e-07
-4.945581734e-07
-4.581410658e-07
1.267867535e-06
3.25987139e-06
-0.06428745558
16739.66293
0
0
0
0
0
0
0
0
0
0
0
0
0
0
0
0
0
0
0
0
0
0
0
0
0
0
0
0
0
0
0
0
0
0
0
0
0
0
0
0
0
0
0
0
0
0
0
0
0
0
0
0
0
0
0
0
-0.1586430943
-2.088435165e-06
1.663836072e-09
1.405300484e-09
1.220868645e-09
1.085825634e-09
1.006965432e-09
9.585336808e-10
9.312026466e-10
9.179466647e-10
9.133161115e-10
9.132373189e-10
9.146919818e-10
9.153704083e-10
9.135489907e-10
9.080325613e-10
8.98037701e-10
8.830673747e-10
8.624788296e-10
8.352694743e-10
7.997282408e-10
7.534191791e-10
6.930383149e-10
6.142280258e-10
5.110457958e-10
3.754092671e-10
1.966273541e-10
-3.873460008e-11
-3.471087731e-10
-7.484798075e-10
-1.267727931e-09
-1.935996789e-09
-2.791704588e-09
-3.880572723e-09
-5.255540922e-09
-6.9772797e-09
-9.1153137e-09
-1.174855558e-08
-1.496396805e-08
-1.885376914e-08
-2.351335076e-08
-2.904139461e-08
-3.554115459e-08
-4.311966556e-08
-5.188311336e-08
-6.193078196e-08
-7.335240557e-08
-8.623271985e-08
-1.00660691e-07
-1.167410424e-07
-1.346088329e-07
-1.544619526e-07
-1.766312101e-07
-2.017288615e-07
-2.309056868e-07
-2.661536293e-07
-3.101183076e-07
-3.57139727e-07
-3.60914608e-07
-5.217363523e-07
1.421299581e-07
-1.583442581e-06
8763.625254
0
0
0
0
0
0
0
0
0
0
0
0
0
0
0
0
0
0
0
0
0
0
0
0
0
0
0
0
0
0
0
0
0
0
0
0
0
0
0
0
0
0
0
0
0
0
0
0
0
0
0
0
0
0
0
0
0
0
-0.4203112882
1.616334736e-09
1.342240967e-09
1.150646705e-09
1.014885842e-09
9.389662913e-10
8.962843682e-10
8.76195301e-10
8.706603435e-10
8.735022661e-10
8.801896151e-10
8.873895873e-10
8.926865247e-10
8.944251565e-10
8.915463661e-10
8.835975293e-10
8.702838923e-10
8.512091325e-10
8.253547824e-10
7.909565825e-10
7.453988466e-10
6.852507813e-10
6.060346155e-10
5.01780689e-10
3.643902377e-10
1.831881228e-10
-5.539324409e-11
-3.6793597e-10
-7.749135447e-10
-1.301791155e-09
-1.980616071e-09
-2.850786878e-09
-3.95929044e-09
-5.36060678e-09
-7.117264705e-09
-9.300887483e-09
-1.199255326e-08
-1.528149258e-08
-1.926292477e-08
-2.403670414e-08
-2.970808269e-08
-3.638878724e-08
-4.419585837e-08
-5.324707764e-08
-6.365600876e-08
-7.553162752e-08
-8.898424641e-08
-1.041352428e-07
-1.211241876e-07
-1.401141351e-07
-1.612981103e-07
-1.849143079e-07
-2.112761998e-07
-2.407805622e-07
-2.739231031e-07
-3.10406674e-07
-3.430821009e-07
-3.605301812e-07
-1.088971357e-06
-1.126802779e-06
-1.779434367e-06
-0.4379376621
0
0
0
0
0
0
0
0
0
0
0
0
0
0
0
0
0
0
0
0
0
0
0
0
0
0
0
0
0
0
0
0
0
0
0
0
0
0
0
0
0
0
0
0
0
0
0
0
0
0
0
0
0
0
0
0
0
0
0
1.51928789e-09
1.231924889e-09
1.037502022e-09
9.068070933e-10
8.400425717e-10
8.091777627e-10
8.017599175e-10
8.085220693e-10
8.224929875e-10
8.387049047e-10
8.536854352e-10
8.65077478e-10
8.71443504e-10
8.721316332e-10
8.669918393e-10
8.560875888e-10
8.390911178e-10
8.150172447e-10
7.819500685e-10
7.37171367e-10
6.771858508e-10
5.976038143e-10
4.925439962e-10
3.540523575e-10
1.71442411e-10
-6.885309101e-11
-3.8372917e-10
-7.939376898e-10
-1.325560545e-09
-2.011251614e-09
-2.891268502e-09
-4.013497741e-09
-5.433496843e-09
-7.214979993e-09
-9.430718626e-09
-1.216288903e-08
-1.550214657e-08
-1.954591131e-08
-2.439772633e-08
-3.016792809e-08
-3.697446437e-08
-4.494120031e-08
-5.419387249e-08
-6.48568314e-08
-7.705485472e-08
-9.092165383e-08
-1.066107401e-07
-1.243053935e-07
-1.442274922e-07
-1.666565516e-07
-1.919778317e-07
-2.208167396e-07
-2.543738485e-07
-2.952894334e-07
-3.49027014e-07
-4.236833579e-07
-5.175347465e-07
-3.655765095e-07
-5.299885947e-07
-0.00766440533
3040.379953
0
0
0
0
0
0
0
0
0
0
0
0
0
0
0
0
0
0
0
0
0
0
0
0
0
0
0
0
0
0
0
0
0
0
0
0
0
0
0
0
0
0
0
0
0
0
0
0
0
0
0
0
0
0
0
0
0
0
0
1.356515531e-09
1.059362586e-09
8.691533219e-10
7.522709257e-10
7.036675053e-10
6.929302467e-10
7.052871035e-10
7.300309452e-10
7.594723517e-10
7.883860227e-10
8.134217973e-10
8.325497728e-10
8.448178949e-10
8.500698827e-10
8.486284936e-10
8.40803599e-10
8.263800182e-10
8.042952727e-10
7.725456271e-10
7.284039398e-10
6.685088989e-10
5.886801239e-10
4.833046312e-10
3.44537965e-10
1.617538943e-10
-7.881313162e-11
-3.941789754e-10
-8.054859233e-10
-1.339116802e-09
-2.028223801e-09
-2.913510496e-09
-4.043418536e-09
-5.47397689e-09
-7.269294447e-09
-9.502325566e-09
-1.225549121e-08
-1.561994608e-08
-1.969460379e-08
-2.458549571e-08
-3.040625147e-08
-3.727805412e-08
-4.532780404e-08
-5.468482065e-08
-6.547951089e-08
-7.784769249e-08
-9.194080348e-08
-1.079391878e-07
-1.260646946e-07
-1.465956214e-07
-1.698892711e-07
-1.964164426e-07
-2.268007901e-07
-2.618081771e-07
-3.020952133e-07
-3.467942201e-07
-3.886739539e-07
-4.011183908e-07
-2.757139265e-07
1.241337774e-09
-0.003093950926
1227.451359
0
0
0
0
0
0
0
0
0
0
0
0
0
0
0
0
0
0
0
0
0
0
0
0
0
0
0
0
0
0
0
0
0
0
0
0
0
0
0
0
0
0
0
0
0
0
0
0
0
0
0
0
0
0
0
0
0
0
0
1.105983603e-09
8.052073845e-10
6.302727572e-10
5.404395689e-10
5.229171787e-10
5.435935113e-10
5.848137731e-10
6.344401457e-10
6.843314984e-10
7.294637838e-10
7.670046005e-10
7.956219558e-10
8.151083845e-10
8.259831564e-10
8.290321464e-10
8.248258088e-10
8.132186588e-10
7.930989644e-10
7.624903292e-10
7.188152355e-10
6.590115975e-10
5.792633846e-10
4.742265161e-10
3.361843069e-10
1.543932134e-10
-8.502227018e-11
-3.993635725e-10
-8.098738393e-10
-1.343124225e-09
-2.032340799e-09
-2.918382012e-09
-4.049681313e-09
-5.482170752e-09
-7.279512735e-09
-9.514133808e-09
-1.226777259e-08
-1.563151639e-08
-1.970478004e-08
-2.459472746e-08
-3.041581025e-08
-3.728906933e-08
-4.534006405e-08
-5.469665241e-08
-6.548935956e-08
-7.785707048e-08
-9.195796813e-08
-1.079827435e-07
-1.261684543e-07
-1.468143492e-07
-1.702992638e-07
-1.970786819e-07
-2.275896763e-07
-2.618605231e-07
-2.983442576e-07
-3.310086278e-07
-3.434119286e-07
-2.997145002e-07
-1.188879853e-07
3.078200185e-07
-0.001708814426
677.9935184
0
0
0
0
0
0
0
0
0
0
0
0
0
0
0
0
0
0
0
0
0
0
0
0
0
0
0
0
0
0
0
0
0
0
0
0
0
0
0
0
0
0
0
0
0
0
0
0
0
0
0
0
0
0
0
0
0
0
0
7.369770256e-10
4.429726309e-10
3.016350041e-10
2.592241739e-10
2.913070175e-10
3.584046398e-10
4.397792538e-10
5.222653676e-10
5.980754112e-10
6.630772836e-10
7.155610177e-10
7.553785849e-10
7.833352179e-10
8.007095196e-10
8.088312501e-10
8.084981223e-10
7.996765832e-10
7.813017739e-10
7.515778112e-10
7.082478038e-10
6.487265926e-10
5.695778758e-10
4.657097569e-10
3.293513498e-10
1.496226523e-10
-8.762638593e-11
-3.997384158e-10
-8.079501211e-10
-1.338599455e-09
-2.024737277e-09
-2.906842974e-09
-4.032953425e-09
-5.458244822e-09
-7.245407982e-09
-9.465498158e-09
-1.219913789e-08
-1.553648204e-08
-1.957659254e-08
-2.442594859e-08
-3.019721912e-08
-3.700750335e-08
-4.497649576e-08
-5.422515558e-08
-6.487727765e-08
-7.706513929e-08
-9.093874461e-08
-1.066764273e-07
-1.244966772e-07
-1.44674207e-07
-1.675592448e-07
-1.935782382e-07
-2.231424304e-07
-2.562722664e-07
-2.914755696e-07
-3.229267177e-07
-3.347093226e-07
-2.922778038e-07
-1.150108459e-07
3.092185803e-07
-0.001707583536
677.5055455
0
0
0
0
0
0
0
0
0
0
0
0
0
0
0
0
0
0
0
0
0
0
0
0
0
0
0
0
0
0
0
0
0
0
0
0
0
0
0
0
0
0
0
0
0
0
0
0
0
0
0
0
0
0
0
0
0
0
0
2.043635768e-10
-6.345929963e-11
-1.401779585e-10
-1.035666284e-10
4.334673848e-12
1.373021709e-10
2.72139686e-10
3.961893804e-10
5.033509196e-10
5.915979245e-10
6.611538457e-10
7.135552826e-10
7.508660369e-10
7.752897655e-10
7.886692411e-10
7.921330398e-10
7.857822865e-10
7.687972315e-10
7.397287028e-10
6.968213715e-10
6.3794832e-10
5.600731835e-10
4.581444931e-10
3.242811706e-10
1.472834239e-10
-8.711060266e-11
-3.961845025e-10
-8.007848607e-10
-1.326766768e-09
-2.006480463e-09
-2.879790336e-09
-3.993797974e-09
-5.402588054e-09
-7.16724323e-09
-9.357170577e-09
-1.205116666e-08
-1.533797273e-08
-1.93149311e-08
-2.408598731e-08
-2.975903207e-08
-3.644374235e-08
-4.424975918e-08
-5.328643613e-08
-6.366443042e-08
-7.549994952e-08
-8.891997587e-08
-1.040679443e-07
-1.211109182e-07
-1.402545083e-07
-1.617706375e-07
-1.860386624e-07
-2.135950543e-07
-2.451651291e-07
-2.815215991e-07
-3.222671245e-07
-3.62348838e-07
-3.787144897e-07
-2.625435953e-07
4.35333094e-09
-0.003090363307
1226.028988
0
0
0
0
0
0
0
0
0
0
0
0
0
0
0
0
0
0
0
0
0
0
0
0
0
0
0
0
0
0
0
0
0
0
0
0
0
0
0
0
0
0
0
0
0
0
0
0
0
0
0
0
0
0
0
0
0
0
0
-5.620525369e-10
-7.653564146e-10
-7.222899173e-10
-5.572380503e-10
-3.372725646e-10
-1.147136278e-10
8.800635689e-11
2.618532336e-10
4.049305823e-10
5.188343921e-10
6.0678949e-10
6.724335246e-10
7.193953851e-10
7.508289951e-10
7.692095635e-10
7.759894018e-10
7.71625677e-10
7.556573017e-10
7.271479088e-10
6.848636528e-10
6.271791868e-10
5.512105653e-10
4.518625062e-10
3.209015238e-10
1.469189813e-10
-8.436411307e-11
-3.898210357e-10
-7.896039497e-10
-1.308625759e-09
-1.978391967e-09
-2.837716958e-09
-3.93266984e-09
-5.315781292e-09
-7.046371522e-09
-9.191616755e-09
-1.182821185e-08
-1.504249652e-08
-1.892895226e-08
-2.358681225e-08
-2.911663732e-08
-3.561746718e-08
-4.318580029e-08
-5.191569034e-08
-6.190022029e-08
-7.323254003e-08
-8.600640084e-08
-1.003151195e-07
-1.162528474e-07
-1.339232443e-07
-1.534641046e-07
-1.751006253e-07
-1.992867103e-07
-2.271014037e-07
-2.611840136e-07
-3.078225194e-07
-3.787321679e-07
-4.768909725e-07
-3.410324129e-07
-5.287486298e-07
-0.007658789197
3038.152609
0
0
0
0
0
0
0
0
0
0
0
0
0
0
0
0
0
0
0
0
0
0
0
0
0
0
0
0
0
0
0
0
0
0
0
0
0
0
0
0
0
0
0
0
0
0
0
0
0
0
0
0
0
0
0
0
0
0
0
-1.680667616e-09
-1.735099927e-09
-1.470639633e-09
-1.100977205e-09
-7.218978355e-10
-3.839489376e-10
-1.00535267e-10
1.288595423e-10
3.099811163e-10
4.501066636e-10
5.562599754e-10
6.347214697e-10
6.907265793e-10
7.284687698e-10
7.510332604e-10
7.603787933e-10
7.573861194e-10
7.421367158e-10
7.142222568e-10
6.729618449e-10
6.169533657e-10
5.43377657e-10
4.468180273e-10
3.187707684e-10
1.476500997e-10
-8.04783516e-11
-3.817740199e-10
-7.752937777e-10
-1.284862136e-09
-1.940824864e-09
-2.781009153e-09
-3.850153425e-09
-5.199225638e-09
-6.885373716e-09
-8.97337778e-09
-1.15371149e-08
-1.465980556e-08
-1.843145532e-08
-2.294477723e-08
-2.82906102e-08
-3.455541968e-08
-4.182049965e-08
-5.016295645e-08
-5.965553156e-08
-7.036493902e-08
-8.234703116e-08
-9.564159563e-08
-1.102690755e-07
-1.262346429e-07
-1.435379105e-07
-1.621864781e-07
-1.822171142e-07
-2.037549413e-07
-2.270187559e-07
-2.525713342e-07
-2.762355068e-07
-2.939570494e-07
-1.0428603e-06
-1.137343429e-06
-1.786185628e-06
-0.4380379498
0
0
0
0
0
0
0
0
0
0
0
0
0
0
0
0
0
0
0
0
0
0
0
0
0
0
0
0
0
0
0
0
0
0
0
0
0
0
0
0
0
0
0
0
0
0
0
0
0
0
0
0
0
0
0
0
0
0
0
-3.379456638e-09
-3.075232981e-09
-2.393987185e-09
-1.708348972e-09
-1.117672434e-09
-6.436910106e-10
-2.737788739e-10
1.090367527e-11
2.279119325e-10
3.917364388e-10
5.138911731e-10
6.032472584e-10
6.666446786e-10
7.092173553e-10
7.347250146e-10
7.456729307e-10
7.434689238e-10
7.2873544e-10
7.016025851e-10
6.616755216e-10
6.077025192e-10
5.366072267e-10
4.426566918e-10
3.170705319e-10
1.484546276e-10
-7.652459185e-11
-3.728574539e-10
-7.583593007e-10
-1.255570512e-09
-1.893868106e-09
-2.709988042e-09
-3.747469537e-09
-5.055426271e-09
-6.688665978e-09
-8.709002039e-09
-1.118700864e-08
-1.420165896e-08
-1.783738488e-08
-2.217865352e-08
-2.730528852e-08
-3.328977331e-08
-4.019773591e-08
-4.808840337e-08
-5.701346895e-08
-6.701133161e-08
-7.809942627e-08
-9.026698246e-08
-1.034756253e-07
-1.17672656e-07
-1.32822793e-07
-1.489664448e-07
-1.663400373e-07
-1.855763926e-07
-2.080919223e-07
-2.357658686e-07
-2.640733705e-07
-2.558252549e-07