/*--------------------------------*- C++ -*----------------------------------*\
  =========                 |
  \\      /  F ield         | OpenFOAM: The Open Source CFD Toolbox
   \\    /   O peration     | Website:  https://openfoam.org
    \\  /    A nd           | Version:  6
     \\/     M anipulation  |
\*---------------------------------------------------------------------------*/
FoamFile
{
    version     2.0;
    format      ascii;
    class       volVectorField;
    location    "0.0016";
    object      U;
}
// * * * * * * * * * * * * * * * * * * * * * * * * * * * * * * * * * * * * * //

dimensions      [0 1 -1 0 0 0 0];

internalField   nonuniform List<vector> 
9600
(
(0 -3.153170558e-11 1.933322021e-12)
(0 -3.152595805e-11 1.977754421e-12)
(0 -3.155141214e-11 2.069706528e-12)
(0 -3.158012286e-11 2.201440921e-12)
(0 -3.16152563e-11 2.365138148e-12)
(0 -3.165785771e-11 2.553082143e-12)
(0 -3.170926981e-11 2.758295453e-12)
(0 -3.177064885e-11 2.973980626e-12)
(0 -3.184294211e-11 3.194121774e-12)
(0 -3.192679196e-11 3.412914768e-12)
(0 -3.202248117e-11 3.625348748e-12)
(0 -3.21298995e-11 3.826604103e-12)
(0 -3.224855056e-11 4.012615756e-12)
(0 -3.237757432e-11 4.179444063e-12)
(0 -3.25157903e-11 4.323836929e-12)
(0 -3.266172984e-11 4.442595241e-12)
(0 -3.281367467e-11 4.533148865e-12)
(0 -3.296969449e-11 4.592913423e-12)
(0 -3.312771814e-11 4.619856251e-12)
(0 -3.328563279e-11 4.611819992e-12)
(0 -3.344141349e-11 4.567069511e-12)
(0 -3.359325141e-11 4.483598627e-12)
(0 -3.373967477e-11 4.359689986e-12)
(0 -3.387966254e-11 4.193215714e-12)
(0 -3.401280319e-11 3.982163223e-12)
(0 -3.413953661e-11 3.723838002e-12)
(0 -3.42615116e-11 3.415258003e-12)
(0 -3.438201404e-11 3.052230104e-12)
(0 -3.450639694e-11 2.629691339e-12)
(0 -3.464243788e-11 2.140803904e-12)
(0 -3.480065023e-11 1.577336078e-12)
(0 -3.499465091e-11 9.287102047e-13)
(0 -3.524169971e-11 1.822184094e-13)
(0 -3.55633905e-11 -6.781362979e-13)
(0 -3.598631337e-11 -1.671488904e-12)
(0 -3.654246097e-11 -2.821052026e-12)
(0 -3.726929034e-11 -4.153488439e-12)
(0 -3.820954631e-11 -5.69927003e-12)
(0 -3.941097365e-11 -7.491474255e-12)
(0 -4.092580588e-11 -9.565465464e-12)
(0 -4.280963936e-11 -1.195665317e-11)
(0 -4.511929048e-11 -1.469857802e-11)
(0 -4.790955584e-11 -1.781858935e-11)
(0 -5.122919975e-11 -2.133360055e-11)
(0 -5.511657314e-11 -2.52433958e-11)
(0 -5.959502609e-11 -2.95239556e-11)
(0 -6.466789679e-11 -3.411822812e-11)
(0 -7.031287305e-11 -3.892693111e-11)
(0 -7.647605909e-11 -4.379751777e-11)
(0 -8.306695679e-11 -4.851526001e-11)
(0 -8.995600397e-11 -5.279649441e-11)
(0 -9.697551402e-11 -5.629008603e-11)
(0 -1.039232585e-10 -5.858934264e-11)
(0 -1.105661195e-10 -5.926280958e-11)
(0 -1.166389138e-10 -5.790679528e-11)
(0 -1.218302281e-10 -5.422232783e-11)
(0 -1.257481829e-10 -4.810292027e-11)
(0 -1.278763702e-10 -3.970923964e-11)
(0 -1.275744207e-10 -2.949046901e-11)
(0 -1.242371804e-10 -1.814701594e-11)
(0 -1.176990581e-10 -6.69678637e-12)
(0 -1.082185744e-10 2.827983212e-12)
(0 -9.279687293e-11 5.578318395e-12)
(0 -4.892051332e-11 -7.268309714e-12)
(0 9.033341849e-11 -2.819571766e-11)
(0 4.255753864e-10 8.242613544e-12)
(0 -1.003885613e-11 2.129191356e-10)
(0 -5.764991578e-12 -3.438962443e-11)
(0 9.219007419e-12 -8.888172304e-12)
(0 9.285332224e-12 6.805594545e-13)
(0 9.081172903e-12 5.983647344e-12)
(0 1.110100198e-11 9.07903661e-12)
(0 1.369264044e-11 7.857148753e-12)
(0 1.491259002e-11 5.635339637e-12)
(0 1.532677029e-11 4.223790426e-12)
(0 1.580532796e-11 3.211843284e-12)
(0 1.652767832e-11 2.059701724e-12)
(0 1.732333537e-11 5.006147443e-13)
(0 1.794239277e-11 -1.520378921e-12)
(0 1.81557722e-11 -3.927471191e-12)
(0 1.780607266e-11 -6.530245408e-12)
(0 1.68480322e-11 -9.08649212e-12)
(0 1.534247996e-11 -1.138679638e-11)
(0 1.341594366e-11 -1.329165674e-11)
(0 1.122079036e-11 -1.473528443e-11)
(0 8.903458979e-12 -1.572100428e-11)
(0 6.57946406e-12 -1.630516349e-11)
(0 4.318835025e-12 -1.657281057e-11)
(0 2.144146031e-12 -1.661103261e-11)
(0 3.869743903e-14 -1.648850815e-11)
(0 -2.039398934e-12 -1.624184871e-11)
(0 -4.140559048e-12 -1.587010321e-11)
(0 -6.306337745e-12 -1.533463005e-11)
(0 -8.552833416e-12 -1.456597295e-11)
(0 -1.085684021e-11 -1.347700233e-11)
(0 -1.314819149e-11 -1.19844427e-11)
(0 -1.531240948e-11 -1.003478686e-11)
(0 -1.720612939e-11 -7.62907575e-12)
(0 -1.868273001e-11 -4.8374261e-12)
(0 -1.962425425e-11 -1.803244561e-12)
(0 -1.998068856e-11 1.262259607e-12)
(0 -1.980942804e-11 4.116829025e-12)
(0 -1.9280324e-11 6.571621793e-12)
(0 -1.863470347e-11 8.552151532e-12)
(0 -1.813446501e-11 1.01135634e-11)
(0 -1.796252016e-11 1.151937964e-11)
(0 -1.79536068e-11 1.330115382e-11)
(0 -1.725597753e-11 1.585486815e-11)
(0 -1.532396973e-11 1.735656459e-11)
(0 -1.410552592e-11 1.448608593e-11)
(0 -1.522483834e-11 9.326276775e-12)
(0 -1.611682396e-11 -2.323069314e-13)
(0 -1.979461543e-12 -2.590897908e-11)
(0 5.982299893e-12 2.170438904e-10)
(0 -6.885232017e-10 -6.682472251e-10)
(0 -5.656495342e-10 -1.257008045e-09)
(0 -4.181115671e-10 -1.610573416e-09)
(0 -2.16311549e-10 -1.609240406e-09)
(0 8.779026862e-12 -1.101863492e-09)
(0 1.663989642e-11 8.736531779e-23)
(0 -3.115054439e-11 2.078218961e-12)
(0 -3.114694799e-11 2.126216893e-12)
(0 -3.117637485e-11 2.225273437e-12)
(0 -3.121131375e-11 2.367230856e-12)
(0 -3.125495387e-11 2.54339844e-12)
(0 -3.130837373e-11 2.745656325e-12)
(0 -3.137293011e-11 2.966226128e-12)
(0 -3.144977799e-11 3.197989884e-12)
(0 -3.153984417e-11 3.434209733e-12)
(0 -3.164373164e-11 3.668846446e-12)
(0 -3.176166874e-11 3.896243546e-12)
(0 -3.189348184e-11 4.11142174e-12)
(0 -3.203860641e-11 4.309732953e-12)
(0 -3.219611159e-11 4.487139984e-12)
(0 -3.236473818e-11 4.639861367e-12)
(0 -3.254292898e-11 4.764662653e-12)
(0 -3.27288697e-11 4.858504471e-12)
(0 -3.292053894e-11 4.918836652e-12)
(0 -3.311579665e-11 4.943225519e-12)
(0 -3.331250011e-11 4.929622615e-12)
(0 -3.350864193e-11 4.875968674e-12)
(0 -3.370247662e-11 4.780463025e-12)
(0 -3.3892648e-11 4.641176437e-12)
(0 -3.407833322e-11 4.456321512e-12)
(0 -3.425946165e-11 4.223813832e-12)
(0 -3.443704205e-11 3.941437331e-12)
(0 -3.461359739e-11 3.606261369e-12)
(0 -3.479363998e-11 3.214690358e-12)
(0 -3.498411603e-11 2.761836151e-12)
(0 -3.519479114e-11 2.241595154e-12)
(0 -3.543865678e-11 1.646026618e-12)
(0 -3.573248481e-11 9.653184928e-13)
(0 -3.609759362e-11 1.869116487e-13)
(0 -3.656071349e-11 -7.048090803e-13)
(0 -3.715470938e-11 -1.729495294e-12)
(0 -3.791896962e-11 -2.910967797e-12)
(0 -3.889946605e-11 -4.277820389e-12)
(0 -4.014864362e-11 -5.863161024e-12)
(0 -4.172518329e-11 -7.704882209e-12)
(0 -4.369337338e-11 -9.844954147e-12)
(0 -4.612159394e-11 -1.232883918e-11)
(0 -4.907954906e-11 -1.520337564e-11)
(0 -5.263425983e-11 -1.851434662e-11)
(0 -5.684516027e-11 -2.230230061e-11)
(0 -6.175858301e-11 -2.659787063e-11)
(0 -6.740164821e-11 -3.141496352e-11)
(0 -7.377534231e-11 -3.674282618e-11)
(0 -8.084690808e-11 -4.25354876e-11)
(0 -8.854259304e-11 -4.87003102e-11)
(0 -9.674298339e-11 -5.508558552e-11)
(0 -1.052837928e-10 -6.147083492e-11)
(0 -1.139646954e-10 -6.756216664e-11)
(0 -1.225679832e-10 -7.300002625e-11)
(0 -1.308869216e-10 -7.738694665e-11)
(0 -1.387586779e-10 -8.03469123e-11)
(0 -1.460883693e-10 -8.162080747e-11)
(0 -1.52846104e-10 -8.11900043e-11)
(0 -1.590351079e-10 -7.93813897e-11)
(0 -1.647082052e-10 -7.683954393e-11)
(0 -1.703558803e-10 -7.416898158e-11)
(0 -1.784664046e-10 -7.113276599e-11)
(0 -1.972571776e-10 -6.588375622e-11)
(0 -2.457877829e-10 -5.721598317e-11)
(0 -3.395102286e-10 -5.815645571e-11)
(0 -4.263102923e-10 -7.372324975e-11)
(0 -3.30622283e-11 1.453275337e-21)
(0 4.162279222e-11 3.180920631e-10)
(0 9.853079657e-11 2.13873195e-12)
(0 3.421338104e-11 3.921453104e-12)
(0 1.685646739e-11 5.166988e-12)
(0 1.216837887e-11 6.394923402e-12)
(0 1.175173457e-11 7.069947544e-12)
(0 1.265659912e-11 6.374847718e-12)
(0 1.349884916e-11 5.060488996e-12)
(0 1.408296334e-11 3.805592803e-12)
(0 1.460153761e-11 2.638600232e-12)
(0 1.513553201e-11 1.382795381e-12)
(0 1.562164182e-11 -9.765644949e-14)
(0 1.593119364e-11 -1.843986828e-12)
(0 1.593236825e-11 -3.811704842e-12)
(0 1.553070822e-11 -5.888028248e-12)
(0 1.469340519e-11 -7.926881355e-12)
(0 1.345015225e-11 -9.791493572e-12)
(0 1.187564247e-11 -1.138056024e-11)
(0 1.006675919e-11 -1.263814656e-11)
(0 8.121390023e-12 -1.355267451e-11)
(0 6.121494682e-12 -1.414833138e-11)
(0 4.122727797e-12 -1.447022576e-11)
(0 2.151673837e-12 -1.456852228e-11)
(0 2.096985477e-13 -1.448426929e-11)
(0 -1.718649161e-12 -1.424005882e-11)
(0 -3.654733594e-12 -1.383503758e-11)
(0 -5.614082739e-12 -1.324532507e-11)
(0 -7.595482e-12 -1.242880641e-11)
(0 -9.572693827e-12 -1.133520372e-11)
(0 -1.149096425e-11 -9.919868365e-12)
(0 -1.327027039e-11 -8.160085737e-12)
(0 -1.481625587e-11 -6.06922487e-12)
(0 -1.603753946e-11 -3.70527126e-12)
(0 -1.686702096e-11 -1.170776644e-12)
(0 -1.72844488e-11 1.397146509e-12)
(0 -1.733356269e-11 3.853472089e-12)
(0 -1.712082368e-11 6.087100183e-12)
(0 -1.679096567e-11 8.055382817e-12)
(0 -1.648669262e-11 9.800174194e-12)
(0 -1.628718599e-11 1.145573836e-11)
(0 -1.613019423e-11 1.319344602e-11)
(0 -1.584534111e-11 1.497482445e-11)
(0 -1.565179481e-11 1.610618077e-11)
(0 -1.695169968e-11 1.581271283e-11)
(0 -2.269732886e-11 1.485949864e-11)
(0 -4.124869314e-11 1.367367255e-11)
(0 -1.067158945e-10 1.151154339e-11)
(0 -5.010343784e-11 3.261087838e-10)
(0 2.8937473e-11 1.542525908e-21)
(0 -7.47272493e-11 -1.01183759e-09)
(0 -2.280667892e-10 -1.596639759e-09)
(0 -1.832401108e-10 -1.769316425e-09)
(0 1.848774737e-11 -1.285600239e-09)
(0 1.943112781e-11 1.115008266e-22)
(0 -3.073999826e-11 2.235091463e-12)
(0 -3.07387346e-11 2.286908055e-12)
(0 -3.077246894e-11 2.393767111e-12)
(0 -3.08141644e-11 2.546827478e-12)
(0 -3.086704097e-11 2.7367238e-12)
(0 -3.093221566e-11 2.954656132e-12)
(0 -3.101105845e-11 3.192244288e-12)
(0 -3.110472118e-11 3.441770713e-12)
(0 -3.121410632e-11 3.69598097e-12)
(0 -3.133977615e-11 3.948322397e-12)
(0 -3.148190238e-11 4.192703047e-12)
(0 -3.164024785e-11 4.423705106e-12)
(0 -3.181417799e-11 4.636314729e-12)
(0 -3.200268696e-11 4.82612178e-12)
(0 -3.22044275e-11 4.989045787e-12)
(0 -3.24177415e-11 5.121547719e-12)
(0 -3.264069988e-11 5.220361371e-12)
(0 -3.287116713e-11 5.282706588e-12)
(0 -3.310690549e-11 5.306002587e-12)
(0 -3.334570629e-11 5.288058459e-12)
(0 -3.358552857e-11 5.226770772e-12)
(0 -3.382462924e-11 5.120322292e-12)
(0 -3.406169542e-11 4.966887382e-12)
(0 -3.429602434e-11 4.764826956e-12)
(0 -3.45278052e-11 4.512336861e-12)
(0 -3.475852874e-11 4.207534183e-12)
(0 -3.499149222e-11 3.847973322e-12)
(0 -3.523231565e-11 3.43063303e-12)
(0 -3.548940434e-11 2.951398227e-12)
(0 -3.577438279e-11 2.405057189e-12)
(0 -3.610262959e-11 1.784741373e-12)
(0 -3.649405027e-11 1.081743993e-12)
(0 -3.697409127e-11 2.846497396e-13)
(0 -3.757479561e-11 -6.211516743e-13)
(0 -3.833561972e-11 -1.654464931e-12)
(0 -3.930387589e-11 -2.838671076e-12)
(0 -4.053490518e-11 -4.202504009e-12)
(0 -4.209216432e-11 -5.78026468e-12)
(0 -4.404717841e-11 -7.61250754e-12)
(0 -4.647894226e-11 -9.746040239e-12)
(0 -4.947220893e-11 -1.223399983e-11)
(0 -5.311434032e-11 -1.513475077e-11)
(0 -5.749079953e-11 -1.851047944e-11)
(0 -6.267955963e-11 -2.242434926e-11)
(0 -6.8744534e-11 -2.693695478e-11)
(0 -7.572782351e-11 -3.210057553e-11)
(0 -8.364054193e-11 -3.795158939e-11)
(0 -9.245258394e-11 -4.449951639e-11)
(0 -1.020829563e-10 -5.171352047e-11)
(0 -1.123937199e-10 -5.950580267e-11)
(0 -1.23191676e-10 -6.771413608e-11)
(0 -1.34242755e-10 -7.608547719e-11)
(0 -1.453047974e-10 -8.426800856e-11)
(0 -1.561830739e-10 -9.182207505e-11)
(0 -1.668057489e-10 -9.826783988e-11)
(0 -1.773009441e-10 -1.031884612e-10)
(0 -1.88031869e-10 -1.064021919e-10)
(0 -1.99512513e-10 -1.081686689e-10)
(0 -2.121237071e-10 -1.09246433e-10)
(0 -2.257626993e-10 -1.102598146e-10)
(0 -2.403850663e-10 -1.08995684e-10)
(0 -2.614879903e-10 -9.338744413e-11)
(0 -3.246115045e-10 -2.958592869e-11)
(0 -5.268118537e-10 1.341465983e-10)
(0 -1.226579831e-09 4.078443366e-10)
(0 -7.991413402e-11 -2.354691184e-10)
(0 -8.391254111e-11 1.344312465e-10)
(0 2.058178566e-12 4.292493363e-11)
(0 1.22472634e-11 1.726742451e-11)
(0 1.17588025e-11 9.670217021e-12)
(0 1.098413244e-11 7.35833245e-12)
(0 1.108092629e-11 6.430294689e-12)
(0 1.168318189e-11 5.511293032e-12)
(0 1.23433351e-11 4.425623013e-12)
(0 1.290488153e-11 3.298990455e-12)
(0 1.338253054e-11 2.153533369e-12)
(0 1.379142164e-11 9.299277276e-13)
(0 1.409655316e-11 -4.307921587e-13)
(0 1.422834438e-11 -1.946867864e-12)
(0 1.411173078e-11 -3.588128607e-12)
(0 1.369089615e-11 -5.28400335e-12)
(0 1.294456687e-11 -6.942362731e-12)
(0 1.188880107e-11 -8.472393593e-12)
(0 1.056929068e-11 -9.801567294e-12)
(0 9.048676084e-12 -1.08843656e-11)
(0 7.393274156e-12 -1.170342754e-11)
(0 5.661912815e-12 -1.226515458e-11)
(0 3.89864412e-12 -1.259111961e-11)
(0 2.130102501e-12 -1.270830137e-11)
(0 3.671608993e-13 -1.26399208e-11)
(0 -1.390167228e-12 -1.239897257e-11)
(0 -3.145825293e-12 -1.198469143e-11)
(0 -4.900106577e-12 -1.13827651e-11)
(0 -6.642712069e-12 -1.056877537e-11)
(0 -8.347902155e-12 -9.515038016e-12)
(0 -9.973073506e-12 -8.199569725e-12)
(0 -1.146176599e-11 -6.616043765e-12)
(0 -1.275131491e-11 -4.781963338e-12)
(0 -1.378428179e-11 -2.742944292e-12)
(0 -1.452183648e-11 -5.709606592e-13)
(0 -1.495643982e-11 1.644475092e-12)
(0 -1.511947436e-11 3.813539644e-12)
(0 -1.507841327e-11 5.868576797e-12)
(0 -1.492162945e-11 7.782615827e-12)
(0 -1.473410947e-11 9.576517977e-12)
(0 -1.456924833e-11 1.131054555e-11)
(0 -1.443452071e-11 1.304270382e-11)
(0 -1.434324278e-11 1.474550772e-11)
(0 -1.448608135e-11 1.628116091e-11)
(0 -1.535220804e-11 1.780033623e-11)
(0 -1.736387861e-11 2.062579105e-11)
(0 -1.946477914e-11 2.855636256e-11)
(0 -1.153813034e-11 5.416555472e-11)
(0 7.048317227e-11 1.448176684e-10)
(0 7.189741207e-11 -2.277863305e-10)
(0 8.36294069e-10 -2.559331971e-10)
(0 -9.052640342e-11 -1.26928863e-09)
(0 -2.292017216e-10 -1.836691986e-09)
(0 -3.439316983e-12 -1.48052777e-09)
(0 2.343267139e-11 1.479528961e-22)
(0 -3.029744013e-11 2.404495439e-12)
(0 -3.029870013e-11 2.460482438e-12)
(0 -3.033709456e-11 2.575886179e-12)
(0 -3.038609319e-11 2.741103542e-12)
(0 -3.044895529e-11 2.946076242e-12)
(0 -3.052683998e-11 3.181250269e-12)
(0 -3.06211344e-11 3.437629813e-12)
(0 -3.073298711e-11 3.70682858e-12)
(0 -3.08632762e-11 3.981066269e-12)
(0 -3.101252268e-11 4.253209217e-12)
(0 -3.118084365e-11 4.516724224e-12)
(0 -3.1367938e-11 4.765689559e-12)
(0 -3.15731003e-11 4.994723322e-12)
(0 -3.179524324e-11 5.198983009e-12)
(0 -3.203292176e-11 5.374094146e-12)
(0 -3.22843596e-11 5.516160714e-12)
(0 -3.254749316e-11 5.621702787e-12)
(0 -3.282004616e-11 5.687665105e-12)
(0 -3.309964878e-11 5.711340012e-12)
(0 -3.338397864e-11 5.6903607e-12)
(0 -3.367090061e-11 5.622617983e-12)
(0 -3.395859656e-11 5.506263653e-12)
(0 -3.424570875e-11 5.339640068e-12)
(0 -3.453155492e-11 5.121271409e-12)
(0 -3.48164732e-11 4.849736863e-12)
(0 -3.510230361e-11 4.523560373e-12)
(0 -3.53929519e-11 4.140971036e-12)
(0 -3.569493951e-11 3.699716026e-12)
(0 -3.601789418e-11 3.196795824e-12)
(0 -3.637505525e-11 2.628261297e-12)
(0 -3.678396545e-11 1.988854686e-12)
(0 -3.72674802e-11 1.271570595e-12)
(0 -3.785503205e-11 4.669552424e-13)
(0 -3.858387877e-11 -4.376406372e-13)
(0 -3.95000483e-11 -1.458903553e-12)
(0 -4.065891722e-11 -2.618279999e-12)
(0 -4.212561337e-11 -3.942770857e-12)
(0 -4.397543247e-11 -5.465729443e-12)
(0 -4.629411511e-11 -7.227823247e-12)
(0 -4.917744559e-11 -9.277871288e-12)
(0 -5.272956998e-11 -1.167349227e-11)
(0 -5.705975589e-11 -1.448123155e-11)
(0 -6.227768654e-11 -1.777620301e-11)
(0 -6.84874368e-11 -2.164092053e-11)
(0 -7.577997401e-11 -2.616306905e-11)
(0 -8.42237091e-11 -3.143136416e-11)
(0 -9.385270904e-11 -3.752871012e-11)
(0 -1.046529718e-10 -4.452148074e-11)
(0 -1.165485333e-10 -5.244405159e-11)
(0 -1.29390768e-10 -6.127743727e-11)
(0 -1.429559557e-10 -7.092145006e-11)
(0 -1.569586137e-10 -8.116096472e-11)
(0 -1.710911249e-10 -9.163091267e-11)
(0 -1.851013714e-10 -1.017909956e-10)
(0 -1.989156071e-10 -1.109323248e-10)
(0 -2.127980807e-10 -1.18256344e-10)
(0 -2.27493607e-10 -1.230920785e-10)
(0 -2.441773123e-10 -1.253274834e-10)
(0 -2.637656724e-10 -1.260550404e-10)
(0 -2.844650595e-10 -1.279850213e-10)
(0 -2.954772679e-10 -1.338172142e-10)
(0 -2.643875627e-10 -1.384198218e-10)
(0 -1.274497413e-10 -1.082463764e-10)
(0 2.274094033e-10 2.866510525e-11)
(0 8.652466214e-11 2.202346501e-10)
(0 2.53566024e-11 -3.232445876e-10)
(0 -7.798935227e-11 1.41707196e-11)
(0 -1.863302566e-11 1.786209204e-11)
(0 9.586643795e-13 1.255286513e-11)
(0 6.947375334e-12 8.887883202e-12)
(0 8.928456534e-12 6.937701216e-12)
(0 9.90469515e-12 5.781456322e-12)
(0 1.065192745e-11 4.814325623e-12)
(0 1.128654658e-11 3.831648128e-12)
(0 1.181087369e-11 2.811159923e-12)
(0 1.223247488e-11 1.74652284e-12)
(0 1.255120648e-11 6.140881646e-13)
(0 1.274484622e-11 -6.086961565e-13)
(0 1.277385719e-11 -1.924666948e-12)
(0 1.259523276e-11 -3.310080636e-12)
(0 1.21764741e-11 -4.717614241e-12)
(0 1.150501494e-11 -6.086324783e-12)
(0 1.059094768e-11 -7.354245724e-12)
(0 9.46367046e-12 -8.469036489e-12)
(0 8.164898948e-12 -9.3943177e-12)
(0 6.740601046e-12 -1.011148666e-11)
(0 5.233802604e-12 -1.061761836e-11)
(0 3.679581007e-12 -1.092067747e-11)
(0 2.102872654e-12 -1.103350598e-11)
(0 5.190273464e-13 -1.096809665e-11)
(0 -1.06341979e-12 -1.073121218e-11)
(0 -2.638526122e-12 -1.032206749e-11)
(0 -4.198166685e-12 -9.732346454e-12)
(0 -5.727754918e-12 -8.948595015e-12)
(0 -7.203488176e-12 -7.956631581e-12)
(0 -8.591970003e-12 -6.747310543e-12)
(0 -9.852664003e-12 -5.322459796e-12)
(0 -1.094315639e-11 -3.69953266e-12)
(0 -1.182653678e-11 -1.913439896e-12)
(0 -1.247960158e-11 -1.446988508e-14)
(0 -1.289994849e-11 1.938292143e-12)
(0 -1.310946098e-11 3.887698419e-12)
(0 -1.31517475e-11 5.791082309e-12)
(0 -1.308302448e-11 7.629979459e-12)
(0 -1.29587629e-11 9.412779421e-12)
(0 -1.282100015e-11 1.116732159e-11)
(0 -1.269523205e-11 1.292148993e-11)
(0 -1.260688401e-11 1.468349577e-11)
(0 -1.25969663e-11 1.647276231e-11)
(0 -1.260706953e-11 1.848186154e-11)
(0 -1.194130255e-11 2.128730227e-11)
(0 -7.708929434e-12 2.576021146e-11)
(0 9.545411575e-12 3.177680562e-11)
(0 6.595087319e-11 2.87759482e-11)
(0 -3.986777971e-11 -3.070259066e-10)
(0 -9.420744984e-11 2.284649104e-10)
(0 -7.161893184e-10 -9.874837993e-10)
(0 -5.109486141e-10 -1.954837441e-09)
(0 -7.882815146e-11 -1.750003726e-09)
(0 2.948422228e-11 2.062517531e-22)
(0 -2.982004675e-11 2.586979969e-12)
(0 -2.982403065e-11 2.647554623e-12)
(0 -2.986744664e-11 2.772306543e-12)
(0 -2.992430801e-11 2.950867919e-12)
(0 -2.999791828e-11 3.172381642e-12)
(0 -3.008948729e-11 3.426542153e-12)
(0 -3.020042208e-11 3.703638668e-12)
(0 -3.033186999e-11 3.994625514e-12)
(0 -3.048468772e-11 4.291101045e-12)
(0 -3.06593581e-11 4.58536339e-12)
(0 -3.085594666e-11 4.870344752e-12)
(0 -3.107409147e-11 5.139635752e-12)
(0 -3.131301436e-11 5.387396766e-12)
(0 -3.157154038e-11 5.60837513e-12)
(0 -3.184811486e-11 5.797818406e-12)
(0 -3.214082671e-11 5.951502647e-12)
(0 -3.244745493e-11 6.065653579e-12)
(0 -3.276555479e-11 6.136973859e-12)
(0 -3.309258585e-11 6.162552403e-12)
(0 -3.342605902e-11 6.139885885e-12)
(0 -3.376367542e-11 6.066791227e-12)
(0 -3.410345475e-11 5.941443148e-12)
(0 -3.444389153e-11 5.762299704e-12)
(0 -3.478420481e-11 5.528127183e-12)
(0 -3.512473738e-11 5.237873019e-12)
(0 -3.546749807e-11 4.890604917e-12)
(0 -3.581676997e-11 4.485297058e-12)
(0 -3.617968795e-11 4.020716506e-12)
(0 -3.656676717e-11 3.495188703e-12)
(0 -3.699250104e-11 2.906442631e-12)
(0 -3.747622887e-11 2.251234279e-12)
(0 -3.804338284e-11 1.524917301e-12)
(0 -3.872698868e-11 7.207222529e-13)
(0 -3.956909961e-11 -1.709581522e-13)
(0 -4.062189821e-11 -1.163434342e-12)
(0 -4.194848783e-11 -2.274493231e-12)
(0 -4.362363889e-11 -3.527397874e-12)
(0 -4.573465678e-11 -4.951978911e-12)
(0 -4.838211518e-11 -6.586052317e-12)
(0 -5.167982122e-11 -8.476809476e-12)
(0 -5.575340974e-11 -1.068225277e-11)
(0 -6.073733894e-11 -1.327234198e-11)
(0 -6.677035967e-11 -1.633001886e-11)
(0 -7.398942041e-11 -1.995169711e-11)
(0 -8.252154199e-11 -2.424698244e-11)
(0 -9.247284298e-11 -2.933656276e-11)
(0 -1.039140312e-10 -3.534732514e-11)
(0 -1.168624478e-10 -4.24029583e-11)
(0 -1.31261995e-10 -5.060826528e-11)
(0 -1.469637741e-10 -6.002419208e-11)
(0 -1.637125192e-10 -7.063037767e-11)
(0 -1.811478604e-10 -8.22719417e-11)
(0 -1.988350364e-10 -9.459000343e-11)
(0 -2.163455393e-10 -1.069403456e-10)
(0 -2.334143295e-10 -1.183177631e-10)
(0 -2.50205378e-10 -1.273333018e-10)
(0 -2.677021915e-10 -1.323552326e-10)
(0 -2.881494249e-10 -1.320383032e-10)
(0 -3.150911351e-10 -1.266010684e-10)
(0 -3.515051976e-10 -1.200193429e-10)
(0 -3.92871598e-10 -1.21808751e-10)
(0 -4.099950386e-10 -1.427665356e-10)
(0 -3.357395829e-10 -1.553230732e-10)
(0 -2.574671309e-11 1.172135859e-21)
(0 7.476161024e-11 3.142146395e-10)
(0 1.120281333e-10 -8.656179923e-11)
(0 1.121277535e-11 -1.834768974e-11)
(0 4.403240962e-13 1.799573268e-12)
(0 3.273054574e-12 6.193826544e-12)
(0 6.143638597e-12 6.390552368e-12)
(0 7.877705564e-12 5.7229723e-12)
(0 8.957550703e-12 4.943391137e-12)
(0 9.7333737e-12 4.132814697e-12)
(0 1.03401694e-11 3.275410455e-12)
(0 1.081975624e-11 2.367382916e-12)
(0 1.118545878e-11 1.407197068e-12)
(0 1.143620264e-11 3.884487586e-13)
(0 1.155779805e-11 -6.935656953e-13)
(0 1.152695991e-11 -1.833190476e-12)
(0 1.131878348e-11 -3.010068361e-12)
(0 1.091465201e-11 -4.19021932e-12)
(0 1.030793539e-11 -5.331228892e-12)
(0 9.506089362e-12 -6.389374711e-12)
(0 8.529218702e-12 -7.32610656e-12)
(0 7.406225913e-12 -8.112431969e-12)
(0 6.169973495e-12 -8.730553287e-12)
(0 4.852722012e-12 -9.17308119e-12)
(0 3.482756497e-12 -9.440347975e-12)
(0 2.082683315e-12 -9.536862908e-12)
(0 6.694547021e-13 -9.467708707e-12)
(0 -7.441380646e-13 -9.235758943e-12)
(0 -2.146959566e-12 -8.840101499e-12)
(0 -3.526634107e-12 -8.276052696e-12)
(0 -4.866997198e-12 -7.536661692e-12)
(0 -6.146617683e-12 -6.615554812e-12)
(0 -7.338901725e-12 -5.510474187e-12)
(0 -8.41398811e-12 -4.226813315e-12)
(0 -9.342295006e-12 -2.780110169e-12)
(0 -1.009921902e-11 -1.196672329e-12)
(0 -1.067010445e-11 4.883578653e-13)
(0 -1.105427152e-11 2.235568514e-12)
(0 -1.12666842e-11 4.007963328e-12)
(0 -1.133613224e-11 5.778131511e-12)
(0 -1.129993234e-11 7.533506612e-12)
(0 -1.119676735e-11 9.277397338e-12)
(0 -1.106053782e-11 1.102461135e-11)
(0 -1.091834652e-11 1.279257976e-11)
(0 -1.079197041e-11 1.459435234e-11)
(0 -1.068771559e-11 1.644462597e-11)
(0 -1.053766809e-11 1.836715959e-11)
(0 -1.00855287e-11 2.028145967e-11)
(0 -8.9752758e-12 2.142056594e-11)
(0 -8.522393592e-12 1.840573663e-11)
(0 -2.233817622e-11 -4.464266944e-13)
(0 -1.264198227e-10 -6.790568262e-11)
(0 -9.098029269e-11 3.309166131e-10)
(0 1.751645098e-11 1.313001377e-21)
(0 -2.914588543e-10 -1.838708179e-09)
(0 2.71237171e-12 -2.03456408e-09)
(0 3.933080626e-11 3.103100829e-22)
(0 -2.930478292e-11 2.783071064e-12)
(0 -2.931169114e-11 2.848679316e-12)
(0 -2.936049252e-11 2.983686132e-12)
(0 -2.942578519e-11 3.176881891e-12)
(0 -2.951092099e-11 3.416567838e-12)
(0 -2.961716544e-11 3.691613954e-12)
(0 -2.974595152e-11 3.991561459e-12)
(0 -2.989843051e-11 4.306638676e-12)
(0 -3.007544325e-11 4.627794367e-12)
(0 -3.027744037e-11 4.946695873e-12)
(0 -3.050444243e-11 5.255715615e-12)
(0 -3.075602991e-11 5.547898045e-12)
(0 -3.103135172e-11 5.816926498e-12)
(0 -3.132913883e-11 6.057085068e-12)
(0 -3.164771527e-11 6.263229352e-12)
(0 -3.198501874e-11 6.430757068e-12)
(0 -3.233865054e-11 6.555585889e-12)
(0 -3.270596947e-11 6.634123483e-12)
(0 -3.30842258e-11 6.663241039e-12)
(0 -3.347070897e-11 6.640245073e-12)
(0 -3.386288202e-11 6.562866267e-12)
(0 -3.425850909e-11 6.42925357e-12)
(0 -3.465582295e-11 6.237977877e-12)
(0 -3.505380495e-11 5.988017039e-12)
(0 -3.545262959e-11 5.678715372e-12)
(0 -3.58542498e-11 5.309704788e-12)
(0 -3.626303549e-11 4.880806281e-12)
(0 -3.668637423e-11 4.391923097e-12)
(0 -3.713524477e-11 3.842924488e-12)
(0 -3.762492299e-11 3.233473461e-12)
(0 -3.817603025e-11 2.562737408e-12)
(0 -3.881600086e-11 1.828928999e-12)
(0 -3.958078766e-11 1.028699322e-12)
(0 -4.051646457e-11 1.564391118e-13)
(0 -4.168050802e-11 -7.96465961e-13)
(0 -4.314287137e-11 -1.842475465e-12)
(0 -4.498716816e-11 -2.998946585e-12)
(0 -4.731208839e-11 -4.289508597e-12)
(0 -5.023269334e-11 -5.745749481e-12)
(0 -5.388090814e-11 -7.409127147e-12)
(0 -5.840464709e-11 -9.333013841e-12)
(0 -6.396540676e-11 -1.158488432e-11)
(0 -7.073435863e-11 -1.424866334e-11)
(0 -7.88867006e-11 -1.742711635e-11)
(0 -8.859347019e-11 -2.12438406e-11)
(0 -1.000096249e-10 -2.584404435e-11)
(0 -1.132572643e-10 -3.139286569e-11)
(0 -1.284034183e-10 -3.806942935e-11)
(0 -1.454326013e-10 -4.605382007e-11)
(0 -1.642154436e-10 -5.550259315e-11)
(0 -1.844770132e-10 -6.650661179e-11)
(0 -2.057729399e-10 -7.902361021e-11)
(0 -2.274880325e-10 -9.277704925e-11)
(0 -2.48881371e-10 -1.071132025e-10)
(0 -2.692193149e-10 -1.208136594e-10)
(0 -2.88072025e-10 -1.318807865e-10)
(0 -3.059024652e-10 -1.373733022e-10)
(0 -3.251036428e-10 -1.335327948e-10)
(0 -3.51344812e-10 -1.16804482e-10)
(0 -3.936377175e-10 -8.644926591e-11)
(0 -4.590515028e-10 -4.867245039e-11)
(0 -5.257846767e-10 -1.288320677e-11)
(0 -5.687060799e-10 6.070931178e-12)
(0 -8.379155798e-11 -1.78858403e-11)
(0 -7.604955423e-11 9.642667454e-11)
(0 1.478805334e-11 3.123743534e-12)
(0 1.037202008e-11 -2.799587661e-12)
(0 5.90849065e-12 1.489820728e-12)
(0 5.549643485e-12 4.032125217e-12)
(0 6.47652109e-12 4.757372154e-12)
(0 7.481295302e-12 4.620131974e-12)
(0 8.314537548e-12 4.136230366e-12)
(0 8.983946766e-12 3.498063278e-12)
(0 9.521114795e-12 2.769717563e-12)
(0 9.942660308e-12 1.975672176e-12)
(0 1.025354073e-11 1.126298667e-12)
(0 1.045044372e-11 2.259217615e-13)
(0 1.052320699e-11 -7.210035775e-13)
(0 1.045735453e-11 -1.704629062e-12)
(0 1.023820391e-11 -2.706960778e-12)
(0 9.855313564e-12 -3.702129363e-12)
(0 9.305859554e-12 -4.65916849e-12)
(0 8.596070011e-12 -5.546056985e-12)
(0 7.740613201e-12 -6.333697716e-12)
(0 6.760452222e-12 -6.998797025e-12)
(0 5.679951824e-12 -7.525212962e-12)
(0 4.524007916e-12 -7.90373814e-12)
(0 3.315799289e-12 -8.130690954e-12)
(0 2.075511922e-12 -8.205817932e-12)
(0 8.201313111e-13 -8.130120835e-12)
(0 -4.358125819e-13 -7.904074993e-12)
(0 -1.678819873e-12 -7.526630792e-12)
(0 -2.894726879e-12 -6.995168189e-12)
(0 -4.067257034e-12 -6.306451657e-12)
(0 -5.177300667e-12 -5.458367272e-12)
(0 -6.203228506e-12 -4.452079749e-12)
(0 -7.122299986e-12 -3.294042524e-12)
(0 -7.913015403e-12 -1.99727851e-12)
(0 -8.558068746e-12 -5.813740502e-13)
(0 -9.047360732e-12 9.291055432e-13)
(0 -9.380343025e-12 2.507757753e-12)
(0 -9.566897987e-12 4.130542023e-12)
(0 -9.626204214e-12 5.780065254e-12)
(0 -9.583758649e-12 7.448620486e-12)
(0 -9.467658162e-12 9.13881573e-12)
(0 -9.305817724e-12 1.086127106e-11)
(0 -9.125491045e-12 1.262996089e-11)
(0 -8.9548378e-12 1.445677344e-11)
(0 -8.824159048e-12 1.634426594e-11)
(0 -8.770235833e-12 1.826071866e-11)
(0 -8.887896205e-12 2.005080302e-11)
(0 -9.584652477e-12 2.123509638e-11)
(0 -1.232158107e-11 2.08721479e-11)
(0 -2.036054585e-11 1.893889847e-11)
(0 -3.049851976e-11 2.692698066e-11)
(0 4.971064912e-11 1.204348323e-10)
(0 6.708958329e-11 7.807297873e-13)
(0 3.133540336e-11 -1.459721417e-09)
(0 1.555076938e-11 -2.322568821e-09)
(0 5.701791853e-11 5.181076256e-22)
(0 -2.874836985e-11 2.993195972e-12)
(0 -2.875840763e-11 3.064342566e-12)
(0 -2.881296252e-11 3.210596609e-12)
(0 -2.888726052e-11 3.419855698e-12)
(0 -2.898470754e-11 3.6794989e-12)
(0 -2.910663325e-11 3.977526466e-12)
(0 -2.925450305e-11 4.302658933e-12)
(0 -2.942947956e-11 4.644361085e-12)
(0 -2.963239664e-11 4.992864798e-12)
(0 -2.98636823e-11 5.339174103e-12)
(0 -3.012332e-11 5.675039444e-12)
(0 -3.041083797e-11 5.992933163e-12)
(0 -3.072531211e-11 6.286006027e-12)
(0 -3.106537412e-11 6.54805884e-12)
(0 -3.142921767e-11 6.773501785e-12)
(0 -3.181461675e-11 6.957333098e-12)
(0 -3.221897828e-11 7.095103856e-12)
(0 -3.263944051e-11 7.182898402e-12)
(0 -3.30730088e-11 7.217303324e-12)
(0 -3.351669783e-11 7.19540051e-12)
(0 -3.39676589e-11 7.114762011e-12)
(0 -3.44233043e-11 6.973473352e-12)
(0 -3.488148336e-11 6.770148084e-12)
(0 -3.534078728e-11 6.503946377e-12)
(0 -3.580102379e-11 6.174559584e-12)
(0 -3.626383091e-11 5.78218967e-12)
(0 -3.673332975e-11 5.327506697e-12)
(0 -3.721674216e-11 4.811622413e-12)
(0 -3.772501575e-11 4.236033787e-12)
(0 -3.827363935e-11 3.602516781e-12)
(0 -3.888386074e-11 2.912884794e-12)
(0 -3.958434054e-11 2.168615637e-12)
(0 -4.041301747e-11 1.370348054e-12)
(0 -4.141885156e-11 5.173300489e-13)
(0 -4.266329895e-11 -3.932077176e-13)
(0 -4.422171825e-11 -1.36681782e-12)
(0 -4.618505251e-11 -2.412914603e-12)
(0 -4.866184751e-11 -3.54623562e-12)
(0 -5.178017695e-11 -4.788706288e-12)
(0 -5.568878737e-11 -6.171622826e-12)
(0 -6.055699167e-11 -7.738190375e-12)
(0 -6.657323137e-11 -9.546517331e-12)
(0 -7.394230494e-11 -1.167324537e-11)
(0 -8.288082971e-11 -1.421778481e-11)
(0 -9.360985275e-11 -1.730689578e-11)
(0 -1.063430694e-10 -2.10989514e-11)
(0 -1.212690435e-10 -2.578686979e-11)
(0 -1.385259482e-10 -3.159793381e-11)
(0 -1.581674169e-10 -3.878742024e-11)
(0 -1.801184342e-10 -4.762069264e-11)
(0 -2.041219375e-10 -5.833567786e-11)
(0 -2.296804894e-10 -7.107442303e-11)
(0 -2.560023482e-10 -8.576862384e-11)
(0 -2.819684973e-10 -1.019590575e-10)
(0 -3.061534467e-10 -1.185230706e-10)
(0 -3.269715016e-10 -1.332758469e-10)
(0 -3.431120033e-10 -1.424049846e-10)
(0 -3.546080094e-10 -1.397925097e-10)
(0 -3.645401982e-10 -1.166711342e-10)
(0 -3.797385954e-10 -6.38131574e-11)
(0 -3.974534215e-10 1.578777674e-11)
(0 -3.664508921e-10 9.704884676e-11)
(0 5.812657458e-11 1.549293365e-22)
(0 7.06799613e-11 9.80148837e-12)
(0 1.975877885e-11 1.024155836e-11)
(0 1.280187094e-11 5.429410932e-12)
(0 9.578852554e-12 2.535539744e-12)
(0 7.272036991e-12 2.926993725e-12)
(0 6.540606005e-12 3.687340786e-12)
(0 6.731645353e-12 3.986572195e-12)
(0 7.256563775e-12 3.863868887e-12)