/*--------------------------------*- C++ -*----------------------------------*\
  =========                 |
  \\      /  F ield         | OpenFOAM: The Open Source CFD Toolbox
   \\    /   O peration     | Website:  https://openfoam.org
    \\  /    A nd           | Version:  6
     \\/     M anipulation  |
\*---------------------------------------------------------------------------*/
FoamFile
{
    version     2.0;
    format      ascii;
    class       volVectorField;
    location    "0.0011";
    object      gradT;
}
// * * * * * * * * * * * * * * * * * * * * * * * * * * * * * * * * * * * * * //

dimensions      [0 -1 0 1 0 0 0];

internalField   nonuniform List<vector> 
9600
(
(0 8.862082069e-06 -0.0001530757918)
(0 2.577817833e-05 -0.0001493861253)
(0 4.105526278e-05 -0.0001425937592)
(0 5.398818513e-05 -0.0001336020811)
(0 6.433681386e-05 -0.0001233716247)
(0 7.220024024e-05 -0.0001126761325)
(0 7.784147957e-05 -0.0001020797505)
(0 8.15997696e-05 -9.196364168e-05)
(0 8.382576725e-05 -8.251837192e-05)
(0 8.483966567e-05 -7.38583072e-05)
(0 8.488541054e-05 -6.599106927e-05)
(0 8.419549713e-05 -5.889377636e-05)
(0 8.294527652e-05 -5.253213552e-05)
(0 8.125290959e-05 -4.684897086e-05)
(0 7.924797776e-05 -4.177185264e-05)
(0 7.700291697e-05 -3.724742623e-05)
(0 7.457871319e-05 -3.322613937e-05)
(0 7.203633936e-05 -2.964318806e-05)
(0 6.94139254e-05 -2.644902687e-05)
(0 6.673052907e-05 -2.360935038e-05)
(0 6.402806649e-05 -2.107079126e-05)
(0 6.133323121e-05 -1.881810717e-05)
(0 5.86422111e-05 -1.681318123e-05)
(0 5.598167714e-05 -1.501789391e-05)
(0 5.336307482e-05 -1.341319002e-05)
(0 5.079021533e-05 -1.198382267e-05)
(0 4.826690118e-05 -1.070310815e-05)
(0 4.581219974e-05 -9.567236986e-06)
(0 4.342611057e-05 -8.549527429e-06)
(0 4.110862585e-05 -7.634731348e-06)
(0 3.887118836e-05 -6.826661929e-06)
(0 3.669855109e-05 -6.098637489e-06)
(0 3.460595402e-05 -5.443033632e-06)
(0 3.260865037e-05 -4.863663105e-06)
(0 3.067614657e-05 -4.345279211e-06)
(0 2.883511865e-05 -3.884069517e-06)
(0 2.705889058e-05 -3.464788215e-06)
(0 2.53665203e-05 -3.087435229e-06)
(0 2.375800324e-05 -2.759633298e-06)
(0 2.222572066e-05 -2.462324738e-06)
(0 2.076586065e-05 -2.195509496e-06)
(0 1.938604275e-05 -1.951563879e-06)
(0 1.807483577e-05 -1.741923228e-06)
(0 1.682461617e-05 -1.55515256e-06)
(0 1.565825081e-05 -1.383628297e-06)
(0 1.455287283e-05 -1.234974017e-06)
(0 1.350848204e-05 -1.097754748e-06)
(0 1.252507599e-05 -9.719702914e-07)
(0 1.159884548e-05 -8.6905579e-07)
(0 1.073360198e-05 -7.737646314e-07)
(0 9.921720269e-06 -6.860966763e-07)
(0 9.167013925e-06 -6.098637123e-07)
(0 8.45042457e-06 -5.412540771e-07)
(0 7.783385628e-06 -4.802676734e-07)
(0 7.162086971e-06 -4.269045986e-07)
(0 6.582716839e-06 -3.735415462e-07)
(0 6.045274048e-06 -3.354250417e-07)
(0 5.557383078e-06 -2.973085597e-07)
(0 5.084739006e-06 -2.630037417e-07)
(0 4.657834102e-06 -2.325105403e-07)
(0 4.261422689e-06 -2.058290029e-07)
(0 3.884069751e-06 -1.829591247e-07)
(0 3.544832828e-06 -1.639008727e-07)
(0 3.228466027e-06 -1.410309835e-07)
(0 2.942592588e-06 -1.295960466e-07)
(0 2.679588686e-06 -1.105377978e-07)
(0 2.431831553e-06 -9.529120504e-08)
(0 2.203132793e-06 -8.385626547e-08)
(0 2.008738602e-06 -7.623296403e-08)
(0 1.814344544e-06 -6.479801943e-08)
(0 1.635197177e-06 -5.336307802e-08)
(0 1.48273115e-06 -4.573977842e-08)
(0 1.341700167e-06 -4.192813022e-08)
(0 1.212104201e-06 -3.81164843e-08)
(0 1.090131386e-06 -3.049318561e-08)
(0 9.872168842e-07 -2.668153741e-08)
(0 8.804907874e-07 -2.286989058e-08)
(0 7.966344741e-07 -2.668153741e-08)
(0 7.089665655e-07 -1.905824101e-08)
(0 6.28921991e-07 -1.524659372e-08)
(0 5.67935582e-07 -1.14349446e-08)
(0 5.10760859e-07 -7.623296403e-09)
(0 4.535861632e-07 -7.623296861e-09)
(0 4.078463576e-07 -3.811648202e-09)
(0 3.621065792e-07 -1.14349446e-08)
(0 3.201784681e-07 -7.623296861e-09)
(0 2.820619669e-07 -7.623296403e-09)
(0 2.515687813e-07 -7.623296403e-09)
(0 2.172639605e-07 -7.623296861e-09)
(0 1.943940583e-07 -1.14349446e-08)
(0 1.639008727e-07 -3.811648202e-09)
(0 1.448426404e-07 -3.81164843e-09)
(0 1.295960389e-07 -7.623296403e-09)
(0 1.105377978e-07 0)
(0 9.910285919e-08 -3.81164843e-09)
(0 8.766790864e-08 3.811648202e-09)
(0 7.242131583e-08 0)
(0 5.717472646e-08 0)
(0 4.573977842e-08 0)
(0 4.573977842e-08 0)
(0 3.430483587e-08 0)
(0 3.049318561e-08 0)
(0 3.049318561e-08 -3.811648202e-09)
(0 1.905824215e-08 0)
(0 1.905824101e-08 -3.811648202e-09)
(0 7.623296403e-09 -7.623296403e-09)
(0 3.81164843e-09 0)
(0 0 0)
(0 3.811648202e-09 -3.811648202e-09)
(0 0 0)
(0 -3.811648202e-09 3.811648202e-09)
(0 7.623296403e-09 0)
(0 0 0)
(0 0 0)
(0 -3.811648202e-09 0)
(0 0 -3.81164843e-09)
(0 -3.811648202e-09 0)
(0 0 -3.811648202e-09)
(0 0 0)
(0 7.623296403e-09 0)
(0 1.101947488e-05 -0.0001784728027)
(0 3.186919233e-05 -0.0001731631872)
(0 5.01269852e-05 -0.0001636454913)
(0 6.490474519e-05 -0.0001515053918)
(0 7.607669057e-05 -0.0001381608198)
(0 8.399347927e-05 -0.0001247018818)
(0 8.917350914e-05 -0.0001117842061)
(0 9.218852838e-05 -9.977752036e-05)
(0 9.35454696e-05 -8.884189575e-05)
(0 9.362551422e-05 -7.900022015e-05)
(0 9.279076883e-05 -7.021437531e-05)
(0 9.126229234e-05 -6.240430398e-05)
(0 8.923830716e-05 -5.547472759e-05)
(0 8.684840896e-05 -4.934560028e-05)
(0 8.422598981e-05 -4.390637537e-05)
(0 8.14244284e-05 -3.909226372e-05)
(0 7.850852225e-05 -3.482321985e-05)
(0 7.552780866e-05 -3.104206277e-05)
(0 7.25166066e-05 -2.768781237e-05)
(0 6.949016212e-05 -2.470329333e-05)
(0 6.649420248e-05 -2.204276142e-05)
(0 6.35211169e-05 -1.967953955e-05)
(0 6.059377473e-05 -1.757169916e-05)
(0 5.772360002e-05 -1.570017885e-05)
(0 5.491822696e-05 -1.403067695e-05)
(0 5.21814667e-05 -1.253269996e-05)
(0 4.950568655e-05 -1.119862235e-05)
(0 4.691757743e-05 -1.000938812e-05)
(0 4.441332724e-05 -8.945938812e-06)
(0 4.199292799e-05 -8.000649527e-06)
(0 3.96601993e-05 -7.150651983e-06)
(0 3.740751747e-05 -6.392134379e-06)
(0 3.524249906e-05 -5.706037324e-06)
(0 3.31651508e-05 -5.096173615e-06)
(0 3.118309562e-05 -4.558731495e-06)
(0 2.928489296e-05 -4.070840255e-06)
(0 2.746673678e-05 -3.628689066e-06)
(0 2.572862675e-05 -3.243712795e-06)
(0 2.407818155e-05 -2.893040968e-06)
(0 2.251540579e-05 -2.580485817e-06)
(0 2.102505262e-05 -2.302235638e-06)
(0 1.962236482e-05 -2.054478368e-06)
(0 1.828066467e-05 -1.833402774e-06)
(0 1.701138684e-05 -1.631385518e-06)
(0 1.581833994e-05 -1.452237956e-06)
(0 1.470152703e-05 -1.292148733e-06)
(0 1.364188965e-05 -1.151117819e-06)
(0 1.264323701e-05 -1.02533336e-06)
(0 1.170557156e-05 -9.109839147e-07)
(0 1.082508148e-05 -8.118811108e-07)
(0 1.000557647e-05 -7.204015058e-07)
(0 9.243246834e-06 -6.365452459e-07)
(0 8.511410894e-06 -5.679356127e-07)
(0 7.844371952e-06 -5.10760856e-07)
(0 7.215450002e-06 -4.459628369e-07)
(0 6.628456581e-06 -4.002230828e-07)
(0 6.09101379e-06 -3.506716324e-07)
(0 5.591687878e-06 -3.087435025e-07)
(0 5.119043811e-06 -2.782503337e-07)
(0 4.680703964e-06 -2.439454834e-07)
(0 4.284292553e-06 -2.210755944e-07)
(0 3.906939618e-06 -1.982057172e-07)
(0 3.567702695e-06 -1.677125199e-07)
(0 3.251335897e-06 -1.524659272e-07)
(0 2.957839164e-06 -1.295960459e-07)
(0 2.694835262e-06 -1.143494454e-07)
(0 2.447078131e-06 -9.910285265e-08)
(0 2.218379373e-06 -8.766791337e-08)
(0 2.012550238e-06 -8.004461175e-08)
(0 1.821967829e-06 -7.623296358e-08)
(0 1.646632112e-06 -6.098637452e-08)
(0 1.490354438e-06 -5.33630745e-08)
(0 1.345511807e-06 -4.192812997e-08)
(0 1.215915842e-06 -3.811648407e-08)
(0 1.097754675e-06 -3.430483361e-08)
(0 9.910285265e-07 -2.668153725e-08)
(0 8.843024305e-07 -2.286989044e-08)
(0 7.966344694e-07 -2.668153725e-08)
(0 7.165898576e-07 -1.905824089e-08)
(0 6.327336356e-07 -2.286989044e-08)
(0 5.679355786e-07 -1.524659272e-08)
(0 5.145725041e-07 -1.524659272e-08)
(0 4.535861605e-07 -1.524659363e-08)
(0 4.002230588e-07 -1.143494454e-08)
(0 3.62106577e-07 -1.143494454e-08)
(0 3.239901146e-07 -1.143494522e-08)
(0 2.858736134e-07 -1.143494454e-08)
(0 2.477571316e-07 -1.143494454e-08)
(0 2.172639592e-07 -7.623296815e-09)
(0 1.982057053e-07 -7.623296358e-09)
(0 1.677125199e-07 -7.623296358e-09)
(0 1.410309911e-07 -3.811648407e-09)
(0 1.334076863e-07 -7.623296358e-09)
(0 1.181610935e-07 -3.811648179e-09)
(0 9.529121019e-08 0)
(0 8.766790811e-08 -3.811648179e-09)
(0 7.24213154e-08 0)
(0 5.717472611e-08 0)
(0 5.33630745e-08 7.623296358e-09)
(0 4.192812997e-08 7.623296358e-09)
(0 3.430483567e-08 3.811648407e-09)
(0 3.049318543e-08 7.623296358e-09)
(0 2.668153725e-08 0)
(0 1.905824204e-08 0)
(0 1.524659272e-08 0)
(0 3.811648179e-09 0)
(0 7.623296815e-09 -3.811648407e-09)
(0 3.811648179e-09 -3.811648179e-09)
(0 3.811648179e-09 -3.811648179e-09)
(0 0 -3.811648407e-09)
(0 3.811648179e-09 3.811648179e-09)
(0 0 3.811648179e-09)
(0 0 0)
(0 -3.811648179e-09 -3.811648179e-09)
(0 0 -7.623296358e-09)
(0 0 0)
(0 -3.811648179e-09 0)
(0 0 3.811648179e-09)
(0 0 0)
(0 7.623296358e-09 0)
(0 1.419076617e-05 -0.0002092861666)
(0 4.059786719e-05 -0.0002012359777)
(0 6.271685913e-05 -0.0001874454225)
(0 7.946524123e-05 -0.0001706894171)
(0 9.114032507e-05 -0.0001531787146)
(0 9.858065685e-05 -0.0001362664224)
(0 0.0001027620349 -0.0001206615347)
(0 0.0001045420809 -0.000106611806)
(0 0.000104603061 -9.414771002e-05)
(0 0.0001034671898 -8.317397491e-05)
(0 0.0001014851388 -7.353813273e-05)
(0 9.893514013e-05 -6.510295089e-05)
(0 9.600017103e-05 -5.769691848e-05)
(0 9.282507367e-05 -5.119043811e-05)
(0 8.949749924e-05 -4.548058607e-05)
(0 8.608226247e-05 -4.044158718e-05)
(0 8.262891418e-05 -3.599720756e-05)
(0 7.917555597e-05 -3.206358448e-05)
(0 7.575650755e-05 -2.857973804e-05)
(0 7.237557996e-05 -2.549230455e-05)
(0 6.905181841e-05 -2.275172798e-05)
(0 6.580048251e-05 -2.031227314e-05)
(0 6.261776004e-05 -1.813963477e-05)
(0 5.953032126e-05 -1.620331641e-05)
(0 5.653055414e-05 -1.448045143e-05)
(0 5.361845815e-05 -1.294435799e-05)
(0 5.079021198e-05 -1.157216387e-05)
(0 4.806869518e-05 -1.034100151e-05)
(0 4.543866067e-05 -9.243247388e-06)
(0 4.290772355e-05 -8.2674649e-06)
(0 4.047208036e-05 -7.390785819e-06)
(0 3.814316561e-05 -6.60558669e-06)
(0 3.59019142e-05 -5.904243029e-06)
(0 3.375595627e-05 -5.275321079e-06)
(0 3.17091031e-05 -4.711197432e-06)
(0 2.975372568e-05 -4.208059589e-06)
(0 2.788982972e-05 -3.762096752e-06)
(0 2.610216829e-05 -3.361873895e-06)
(0 2.441741823e-05 -2.999767117e-06)
(0 2.2816526e-05 -2.671965373e-06)
(0 2.129567965e-05 -2.378468606e-06)
(0 1.985868701e-05 -2.126899684e-06)
(0 1.849792861e-05 -1.890577497e-06)
(0 1.720578091e-05 -1.688560245e-06)
(0 1.599748741e-05 -1.501789382e-06)
(0 1.48501813e-05 -1.337888511e-06)
(0 1.377529734e-05 -1.193045952e-06)
(0 1.27690214e-05 -1.063449842e-06)
(0 1.180848606e-05 -9.452887483e-07)
(0 1.092418434e-05 -8.423742981e-07)
(0 1.010086767e-05 -7.47083043e-07)
(0 9.311856501e-06 -6.632267831e-07)
(0 8.583832214e-06 -5.908055032e-07)
(0 7.901546675e-06 -5.221958005e-07)
(0 7.272624725e-06 -4.650210778e-07)
(0 6.67800801e-06 -4.11658028e-07)
(0 6.136753568e-06 -3.659182252e-07)
(0 5.62980436e-06 -3.20178447e-07)
(0 5.153348647e-06 -2.89685279e-07)
(0 4.711197149e-06 -2.515687798e-07)
(0 4.307162442e-06 -2.248872425e-07)
(0 3.929809508e-06 -2.020173656e-07)
(0 3.590572584e-06 -1.791474644e-07)
(0 3.274205786e-06 -1.562775753e-07)
(0 2.976897406e-06 -1.372193427e-07)
(0 2.710081855e-06 -1.219727417e-07)
(0 2.458513075e-06 -1.06726149e-07)
(0 2.22600267e-06 -9.147956178e-08)
(0 2.023985183e-06 -8.385625993e-08)
(0 1.833402774e-06 -6.479801904e-08)
(0 1.658067057e-06 -6.098637452e-08)
(0 1.497977734e-06 -5.33630745e-08)
(0 1.353135103e-06 -4.573977815e-08)
(0 1.223539139e-06 -4.192813248e-08)
(0 1.101566324e-06 -3.811648179e-08)
(0 9.948401747e-07 -3.430483361e-08)
(0 8.843024305e-07 -3.049318726e-08)
(0 8.004461175e-07 -2.286988907e-08)
(0 7.165898576e-07 -2.286988907e-08)
(0 6.327336356e-07 -1.905824204e-08)
(0 5.75558875e-07 -1.905824089e-08)
(0 5.145725041e-07 -1.524659272e-08)
(0 4.573978089e-07 -7.623296815e-09)
(0 4.002230588e-07 -1.524659272e-08)
(0 3.62106577e-07 -1.143494454e-08)
(0 3.201784662e-07 -1.524659363e-08)
(0 2.858736134e-07 -1.143494454e-08)
(0 2.515687798e-07 -1.143494454e-08)
(0 2.24887256e-07 -7.623296815e-09)
(0 1.943940571e-07 0)
(0 1.677125199e-07 -7.623296358e-09)
(0 1.448426395e-07 -7.623296815e-09)
(0 1.295960381e-07 -3.811648179e-09)
(0 1.181610935e-07 -7.623296358e-09)
(0 9.910285859e-08 -7.623296815e-09)
(0 8.766790811e-08 -3.811648179e-09)
(0 7.623296358e-08 0)
(0 6.098637452e-08 0)
(0 5.33630745e-08 0)
(0 3.811648179e-08 7.623296358e-09)
(0 3.430483567e-08 3.811648407e-09)
(0 3.049318543e-08 3.811648179e-09)
(0 3.049318543e-08 7.623296358e-09)
(0 1.905824204e-08 0)
(0 1.143494454e-08 3.811648179e-09)
(0 3.811648179e-09 3.811648179e-09)
(0 0 3.811648407e-09)
(0 7.623296358e-09 0)
(0 3.811648179e-09 3.811648179e-09)
(0 3.811648407e-09 3.811648407e-09)
(0 3.811648179e-09 0)
(0 -3.811648179e-09 3.811648179e-09)
(0 0 0)
(0 0 -3.811648179e-09)
(0 0 0)
(0 0 -3.811648407e-09)
(0 -3.811648179e-09 -3.811648179e-09)
(0 3.811648179e-09 0)
(0 0 0)
(0 3.811648179e-09 0)
(0 1.90811109e-05 -0.0002482640823)
(0 5.370993803e-05 -0.0002352053897)
(0 8.067734584e-05 -0.0002143175434)
(0 9.917146291e-05 -0.0001907539343)
(0 0.0001104958763 -0.0001676972843)
(0 0.0001165106506 -0.0001466455413)
(0 0.000118835756 -0.0001280713796)
(0 0.0001187023554 -0.0001119443028)
(0 0.0001169756717 -9.805083834e-05)
(0 0.0001142389083 -8.607463969e-05)
(0 0.0001108617946 -7.57527009e-05)
(0 0.0001071073145 -6.681819298e-05)
(0 0.0001031393887 -5.906911218e-05)
(0 9.906855435e-05 -5.231868636e-05)
(0 9.498246154e-05 -4.64182518e-05)
(0 9.090780961e-05 -4.124203354e-05)
(0 8.688652597e-05 -3.668330449e-05)
(0 8.294146487e-05 -3.266963674e-05)
(0 7.908026524e-05 -2.912099226e-05)
(0 7.532579628e-05 -2.597638405e-05)
(0 7.167423278e-05 -2.317863271e-05)
(0 6.81332116e-05 -2.069343809e-05)
(0 6.470273211e-05 -1.849030654e-05)
(0 6.138278264e-05 -1.651968331e-05)
(0 5.818099815e-05 -1.476251349e-05)
(0 5.508594312e-05 -1.320355016e-05)
(0 5.210904256e-05 -1.180467448e-05)
(0 4.924268312e-05 -1.055064222e-05)
(0 4.648686426e-05 -9.437641514e-06)
(0 4.384920091e-05 -8.438989118e-06)
(0 4.131826651e-05 -7.543251791e-06)
(0 3.889406058e-05 -6.746617722e-06)
(0 3.657657614e-05 -6.033839103e-06)
(0 3.435819689e-05 -5.389670557e-06)
(0 3.224654572e-05 -4.817923616e-06)
(0 3.023780518e-05 -4.307162468e-06)
(0 2.831292284e-05 -3.849764684e-06)
(0 2.649476824e-05 -3.434295236e-06)
(0 2.476427837e-05 -3.060753506e-06)
(0 2.312908129e-05 -2.732951761e-06)
(0 2.157774176e-05 -2.431831699e-06)
(0 2.010644426e-05 -2.172639475e-06)
(0 1.871519267e-05 -1.936317286e-06)
(0 1.740017508e-05 -1.726676739e-06)
(0 1.617282332e-05 -1.536094225e-06)
(0 1.501027062e-05 -1.368381704e-06)
(0 1.391632842e-05 -1.219727498e-06)
(0 1.289099422e-05 -1.090131386e-06)
(0 1.192664722e-05 -9.719702914e-07)
(0 1.102328726e-05 -8.614325453e-07)
(0 1.018472399e-05 -7.661412885e-07)
(0 9.395712817e-06 -6.822850281e-07)
(0 8.652441937e-06 -6.02240452e-07)
(0 7.97015639e-06 -5.374423964e-07)
(0 7.329799492e-06 -4.764560252e-07)
(0 6.72755948e-06 -4.154696789e-07)
(0 6.178681735e-06 -3.735415238e-07)
(0 5.671732524e-06 -3.316133935e-07)
(0 5.183841865e-06 -2.896852807e-07)
(0 4.749313659e-06 -2.591920777e-07)
(0 4.337655653e-06 -2.286988921e-07)
(0 3.956491071e-06 -1.982057184e-07)
(0 3.613442495e-06 -1.753358173e-07)
(0 3.28564075e-06 -1.600892245e-07)
(0 2.995955666e-06 -1.410309919e-07)
(0 2.725328464e-06 -1.219727425e-07)
(0 2.473759683e-06 -1.105377978e-07)
(0 2.241249277e-06 -9.529121076e-08)
(0 2.03542014e-06 -8.004461223e-08)
(0 1.848649378e-06 -6.479801943e-08)
(0 1.658067067e-06 -5.717472646e-08)
(0 1.50560104e-06 -5.336307482e-08)
(0 1.360758408e-06 -4.955142662e-08)
(0 1.223539146e-06 -3.81164843e-08)
(0 1.105377978e-06 -3.049318561e-08)
(0 9.986518288e-07 -3.049318561e-08)
(0 8.957373811e-07 -2.668153901e-08)
(0 8.004461223e-07 -2.286988921e-08)
(0 7.165898619e-07 -2.286988921e-08)
(0 6.403569363e-07 -1.524659372e-08)
(0 5.755588785e-07 -1.14349446e-08)
(0 5.145725072e-07 -1.524659281e-08)
(0 4.573978116e-07 -1.524659372e-08)
(0 4.078463576e-07 -1.14349446e-08)
(0 3.621065792e-07 -7.623296403e-09)
(0 3.201784681e-07 -7.623296861e-09)
(0 2.896852633e-07 -7.623296403e-09)
(0 2.553804295e-07 0)
(0 2.21075609e-07 -3.81164843e-09)
(0 1.943940583e-07 -7.623296403e-09)
(0 1.677125209e-07 -3.811648202e-09)
(0 1.410309919e-07 -3.81164843e-09)
(0 1.295960389e-07 -3.811648202e-09)
(0 1.219727425e-07 -3.811648202e-09)
(0 9.910285919e-08 -3.81164843e-09)
(0 9.147955684e-08 -3.811648202e-09)
(0 7.623296403e-08 -3.811648202e-09)
(0 6.098637489e-08 0)
(0 5.336307482e-08 -3.811648202e-09)
(0 4.573977842e-08 -3.811648202e-09)
(0 3.430483587e-08 0)
(0 3.049318561e-08 0)
(0 2.668153741e-08 0)
(0 1.524659372e-08 0)
(0 1.524659281e-08 0)
(0 7.623296403e-09 0)
(0 0 0)
(0 3.811648202e-09 0)
(0 3.811648202e-09 3.811648202e-09)
(0 0 0)
(0 7.623296403e-09 0)
(0 -3.811648202e-09 -3.811648202e-09)
(0 -3.81164843e-09 -3.81164843e-09)
(0 -3.811648202e-09 0)
(0 0 0)
(0 0 0)
(0 0 0)
(0 0 -3.811648202e-09)
(0 0 0)
(0 7.623296403e-09 0)
(0 2.726090777e-05 -0.0003004531677)
(0 7.454440791e-05 -0.0002771373324)
(0 0.0001071644885 -0.0002440255281)
(0 0.0001260931334 -0.0002104525309)
(0 0.0001352487204 -0.0001803405211)
(0 0.000138210363 -0.0001546538132)
(0 0.000137451845 -0.0001331370592)
(0 0.0001345626237 -0.0001151727683)
(0 0.0001304803405 -0.0001001129394)
(0 0.0001257577084 -8.742015098e-05)
(0 0.0001207415866 -7.665224947e-05)
(0 0.0001156149126 -6.744330288e-05)
(0 0.0001105034924 -5.951888631e-05)
(0 0.0001054797464 -5.26617344e-05)
(0 0.0001005741488 -4.668506689e-05)
(0 9.581340027e-05 -4.146692054e-05)
(0 9.120131145e-05 -3.688913329e-05)
(0 8.674548925e-05 -3.28564073e-05)
(0 8.244595011e-05 -2.929251625e-05)
(0 7.831793983e-05 -2.613647313e-05)
(0 7.432713949e-05 -2.33310985e-05)
(0 7.049262142e-05 -2.084590389e-05)
(0 6.679151504e-05 -1.863133742e-05)
(0 6.325811318e-05 -1.666452584e-05)
(0 5.984668806e-05 -1.489592108e-05)
(0 5.657629731e-05 -1.332171118e-05)
(0 5.344311911e-05 -1.19228355e-05)
(0 5.04357287e-05 -1.065736831e-05)
(0 4.755031388e-05 -9.536744316e-06)
(0 4.479830105e-05 -8.530468624e-06)
(0 4.217207545e-05 -7.630919654e-06)
(0 3.965639003e-05 -6.822850649e-06)
(0 3.72550493e-05 -6.102448734e-06)
(0 3.496806039e-05 -5.454468544e-06)
(0 3.27954229e-05 -4.875098313e-06)
(0 3.072569597e-05 -4.35290222e-06)
(0 2.875888551e-05 -3.891692791e-06)
(0 2.688736787e-05 -3.476223348e-06)
(0 2.51187615e-05 -3.102681618e-06)
(0 2.34492596e-05 -2.76344493e-06)
(0 2.185599197e-05 -2.473759816e-06)
(0 2.035801292e-05 -2.203132647e-06)
(0 1.89400798e-05 -1.96681046e-06)
(0 1.760600399e-05 -1.745734971e-06)
(0 1.635197069e-05 -1.555152457e-06)
(0 1.51665481e-05 -1.391251585e-06)
(0 1.405735933e-05 -1.238785732e-06)
(0 1.302059018e-05 -1.101566324e-06)
(0 1.203718495e-05 -9.757819338e-07)
(0 1.113001335e-05 -8.728674853e-07)
(0 1.027620349e-05 -7.737645803e-07)
(0 9.475757372e-06 -6.860966722e-07)
(0 8.724863205e-06 -6.136753936e-07)
(0 8.034954361e-06 -5.374423932e-07)
(0 7.390785819e-06 -4.802676705e-07)
(0 6.780922517e-06 -4.3071627e-07)
(0 6.220609828e-06 -3.773531697e-07)
(0 5.71366062e-06 -3.392366879e-07)
(0 5.221958318e-06 -2.934969274e-07)
(0 4.779806816e-06 -2.630037243e-07)
(0 4.364337165e-06 -2.286988907e-07)
(0 3.979360937e-06 -2.05829014e-07)
(0 3.632500714e-06 -1.867707608e-07)
(0 3.308510619e-06 -1.600892235e-07)
(0 3.011202242e-06 -1.448426395e-07)
(0 2.744386689e-06 -1.257843899e-07)
(0 2.489006261e-06 -1.06726149e-07)
(0 2.256495857e-06 -9.529121019e-08)
(0 2.046855072e-06 -8.004461175e-08)
(0 1.856272663e-06 -7.623296358e-08)
(0 1.669502002e-06 -6.479802293e-08)
(0 1.513224327e-06 -5.717472268e-08)
(0 1.364570048e-06 -4.573977815e-08)
(0 1.231162436e-06 -3.811648407e-08)
(0 1.113001268e-06 -3.430483361e-08)
(0 1.002463471e-06 -3.049318543e-08)
(0 8.957373758e-07 -3.049318726e-08)
(0 8.004461175e-07 -2.286988907e-08)
(0 7.24213154e-07 -2.286988907e-08)
(0 6.441685809e-07 -1.905824204e-08)
(0 5.75558875e-07 -1.905824089e-08)
(0 5.145725041e-07 -1.524659272e-08)
(0 4.573978089e-07 -1.524659363e-08)
(0 4.116580033e-07 -1.905824089e-08)
(0 3.62106577e-07 -1.905824089e-08)
(0 3.201784662e-07 -1.143494522e-08)
(0 2.896852616e-07 -1.143494454e-08)
(0 2.591920762e-07 -1.143494454e-08)
(0 2.210756076e-07 -7.623296815e-09)
(0 1.982057053e-07 -7.623296358e-09)
(0 1.677125199e-07 -7.623296358e-09)
(0 1.448426395e-07 -7.623296815e-09)
(0 1.334076863e-07 -7.623296358e-09)
(0 1.143494454e-07 -7.623296358e-09)
(0 9.910285859e-08 -3.811648407e-09)
(0 8.766790811e-08 -7.623296358e-09)
(0 7.24213154e-08 -1.143494454e-08)
(0 6.479802293e-08 -7.623296815e-09)
(0 5.717472268e-08 -7.623296358e-09)
(0 4.573977815e-08 -3.811648179e-09)
(0 3.811648407e-08 3.811648407e-09)
(0 3.049318543e-08 3.811648179e-09)
(0 2.668153725e-08 3.811648179e-09)
(0 1.524659363e-08 0)
(0 1.524659272e-08 -3.811648179e-09)
(0 7.623296358e-09 3.811648179e-09)
(0 3.811648407e-09 3.811648407e-09)
(0 3.811648179e-09 3.811648179e-09)
(0 -3.811648179e-09 -7.623296358e-09)
(0 0 -3.811648407e-09)
(0 3.811648179e-09 -7.623296358e-09)
(0 -3.811648179e-09 -3.811648179e-09)
(0 0 -3.811648407e-09)
(0 0 0)
(0 0 3.811648179e-09)
(0 0 3.811648407e-09)
(0 -3.811648179e-09 -3.811648179e-09)
(0 3.811648179e-09 0)
(0 3.811648407e-09 0)
(0 3.811648179e-09 3.811648179e-09)
(0 4.240839764e-05 -0.0003761296306)
(0 0.0001101375807 -0.0003290176789)
(0 0.0001473659419 -0.0002743548126)
(0 0.0001628564801 -0.0002268235598)
(0 0.0001662907851 -0.0001886994661)
(0 0.0001637141009 -0.0001586331739)
(0 0.0001583244304 -0.0001347722563)
(0 0.0001517226649 -0.0001155806147)
(0 0.0001447282813 -9.990711041e-05)
(0 0.0001377034138 -8.693607166e-05)
(0 0.0001308424549 -7.605763232e-05)
(0 0.0001242406724 -6.684487411e-05)
(0 0.0001179209597 -5.895857403e-05)
(0 0.0001118985623 -5.216240846e-05)
(0 0.00010617346 -4.626197395e-05)
(0 0.0001007075565 -4.111243726e-05)
(0 9.549322755e-05 -3.659182471e-05)
(0 9.053426754e-05 -3.261246182e-05)
(0 8.580401215e-05 -2.909431055e-05)
(0 8.128721394e-05 -2.597257225e-05)
(0 7.696861167e-05 -2.321293741e-05)
(0 7.28329734e-05 -2.075061269e-05)
(0 6.888411002e-05 -1.85589161e-05)
(0 6.512200913e-05 -1.660353947e-05)
(0 6.151618996e-05 -1.485399295e-05)
(0 5.806284019e-05 -1.329502965e-05)
(0 5.477719598e-05 -1.189615397e-05)
(0 5.162877458e-05 -1.064593336e-05)
(0 4.861376379e-05 -9.52530937e-06)
(0 4.575502474e-05 -8.522845328e-06)
(0 4.302207299e-05 -7.623296358e-06)
(0 4.042253136e-05 -6.822850649e-06)
(0 3.794114597e-05 -6.102448734e-06)
(0 3.558173575e-05 -5.46209184e-06)
(0 3.334811192e-05 -4.878909962e-06)
(0 3.121358694e-05 -4.368148813e-06)
(0 2.92010367e-05 -3.899316087e-06)
(0 2.72837793e-05 -3.483846644e-06)
(0 2.547705643e-05 -3.106493266e-06)
(0 2.376181475e-05 -2.774879874e-06)
(0 2.213805395e-05 -2.477571465e-06)
(0 2.061339335e-05 -2.203132647e-06)
(0 1.917640199e-05 -1.962998812e-06)
(0 1.780802136e-05 -1.749546619e-06)
(0 1.653111815e-05 -1.562775753e-06)
(0 1.532663733e-05 -1.387439937e-06)
(0 1.420220197e-05 -1.234974084e-06)
(0 1.314637457e-05 -1.101566324e-06)
(0 1.215534604e-05 -9.795935819e-07)
(0 1.122911621e-05 -8.690558369e-07)
(0 1.037149469e-05 -7.699529321e-07)
(0 9.559613632e-06 -6.860966722e-07)
(0 8.801096173e-06 -6.098637452e-07)
(0 8.09975238e-06 -5.412540414e-07)
(0 7.440337245e-06 -4.764560223e-07)
(0 6.830473946e-06 -4.269046216e-07)
(0 6.270161254e-06 -3.735415215e-07)
(0 5.751777102e-06 -3.316133916e-07)
(0 5.263886451e-06 -2.973085758e-07)
(0 4.806488353e-06 -2.591920762e-07)
(0 4.398641998e-06 -2.325105389e-07)
(0 4.002230828e-06 -2.05829014e-07)
(0 3.655370603e-06 -1.753358162e-07)
(0 3.335192156e-06 -1.562775753e-07)
(0 3.026448836e-06 -1.334076943e-07)
(0 2.759633281e-06 -1.219727417e-07)
(0 2.504252853e-06 -1.105377972e-07)
(0 2.267930802e-06 -9.529121019e-08)
(0 2.054478368e-06 -8.004461175e-08)
(0 1.867707608e-06 -7.623296358e-08)
(0 1.680936948e-06 -6.479802293e-08)
(0 1.520847623e-06 -4.955142632e-08)
(0 1.376004993e-06 -4.573977815e-08)
(0 1.234974084e-06 -3.811648407e-08)
(0 1.116812916e-06 -3.430483361e-08)
(0 1.006275119e-06 -2.668153725e-08)
(0 8.957373758e-07 -2.286989044e-08)
(0 8.080694139e-07 -2.668153725e-08)
(0 7.280248021e-07 -1.524659272e-08)
(0 6.441685809e-07 -1.905824204e-08)
(0 5.75558875e-07 -1.524659272e-08)
(0 5.145725041e-07 -1.905824089e-08)
(0 4.535861605e-07 -2.286989044e-08)
(0 4.116580033e-07 -1.524659272e-08)
(0 3.659182252e-07 -1.143494454e-08)
(0 3.27801763e-07 -1.143494522e-08)
(0 2.896852616e-07 -7.623296358e-09)
(0 2.591920762e-07 -1.143494454e-08)
(0 2.24887256e-07 -3.811648407e-09)
(0 1.943940571e-07 -7.623296358e-09)
(0 1.677125199e-07 -3.811648179e-09)
(0 1.410309911e-07 -7.623296815e-09)
(0 1.295960381e-07 -7.623296358e-09)
(0 1.219727417e-07 -7.623296358e-09)
(0 9.910285859e-08 -3.811648407e-09)
(0 8.766790811e-08 -3.811648179e-09)
(0 8.004461175e-08 0)
(0 6.098637452e-08 0)
(0 5.717472268e-08 3.811648179e-09)
(0 5.33630745e-08 0)
(0 3.811648407e-08 0)
(0 3.049318543e-08 3.811648179e-09)
(0 2.668153725e-08 3.811648179e-09)
(0 1.143494522e-08 0)
(0 1.524659272e-08 7.623296358e-09)
(0 1.143494454e-08 0)
(0 0 0)
(0 0 3.811648179e-09)
(0 0 0)
(0 0 0)
(0 3.811648179e-09 -3.811648179e-09)
(0 -3.811648179e-09 -3.811648179e-09)
(0 0 3.811648407e-09)
(0 0 3.811648179e-09)
(0 3.811648179e-09 3.811648179e-09)
(0 -3.811648407e-09 0)
(0 -3.811648179e-09 7.623296358e-09)
(0 3.811648179e-09 0)
(0 0 0)
(0 7.623296358e-09 3.811648179e-09)
(0 7.437287971e-05 -0.0004990781573)
(0 0.0001763192331 -0.0003886280507)
(0 0.0002093547775 -0.0002977240294)
(0 0.0002117446809 -0.00023394372)
(0 0.000203446735 -0.0001891492417)
(0 0.0001921375625 -0.0001565329567)
(0 0.0001805044122 -0.0001318563462)
(0 0.0001694277727 -0.0001125732247)
(0 0.0001591210658 -9.710554959e-05)
(0 0.0001496071919 -8.444706591e-05)
(0 0.0001408251629 -7.390405142e-05)
(0 0.0001327177787 -6.499241349e-05)
(0 0.0001251897735 -5.738817532e-05)
(0 0.0001181763479 -5.083214347e-05)
(0 0.0001116279292 -4.514134965e-05)
(0 0.0001054797407 -4.01709604e-05)
(0 9.970509964e-05 -3.580281371e-05)
(0 9.424300179e-05 -3.194542358e-05)
(0 8.908965342e-05 -2.853018679e-05)
(0 8.419550218e-05 -2.550373965e-05)
(0 7.955290962e-05 -2.281271449e-05)
(0 7.5139021e-05 -2.041518777e-05)
(0 7.094240059e-05 -1.827304258e-05)
(0 6.695541231e-05 -1.635578243e-05)
(0 6.31590107e-05 -1.464816404e-05)
(0 5.953413683e-05 -1.311588225e-05)
(0 5.609221494e-05 -1.173987646e-05)
(0 5.280657419e-05 -1.051633739e-05)
(0 4.967340234e-05 -9.418583271e-06)
(0 4.669650212e-05 -8.423742526e-06)
(0 4.38720708e-05 -7.547063439e-06)
(0 4.117723799e-05 -6.754241019e-06)
(0 3.862343123e-05 -6.0414624e-06)
(0 3.619541132e-05 -5.401105502e-06)
(0 3.388936619e-05 -4.829358561e-06)
(0 3.170910139e-05 -4.314785764e-06)
(0 2.963175312e-05 -3.85738798e-06)
(0 2.76801909e-05 -3.449541829e-06)
(0 2.583153986e-05 -3.079811747e-06)
(0 2.407818169e-05 -2.748198353e-06)
(0 2.242011607e-05 -2.450889941e-06)
(0 2.086496226e-05 -2.191697716e-06)
(0 1.940510099e-05 -1.947752231e-06)
(0 1.801003883e-05 -1.738111684e-06)
(0 1.671026572e-05 -1.54752917e-06)
(0 1.549053829e-05 -1.376005001e-06)
(0 1.434704469e-05 -1.227350795e-06)
(0 1.327597069e-05 -1.090131386e-06)
(0 1.226969556e-05 -9.681586432e-07)
(0 1.133203078e-05 -8.614325453e-07)
(0 1.046297431e-05 -7.661412885e-07)
(0 9.639658302e-06 -6.784733799e-07)
(0 8.873517546e-06 -6.02240452e-07)
(0 8.164550448e-06 -5.336307482e-07)
(0 7.501323661e-06 -4.72644377e-07)
(0 6.887648714e-06 -4.116580305e-07)
(0 6.312089422e-06 -3.659182274e-07)
(0 5.789893618e-06 -3.239900971e-07)
(0 5.298191318e-06 -2.896852807e-07)
(0 4.848416513e-06 -2.515687813e-07)
(0 4.417700266e-06 -2.248872439e-07)
(0 4.032724039e-06 -1.982057184e-07)
(0 3.678240515e-06 -1.715241691e-07)
(0 3.350438769e-06 -1.524659281e-07)
(0 3.049318744e-06 -1.334076951e-07)
(0 2.771068243e-06 -1.14349446e-07)
(0 2.515687813e-06 -9.910285324e-08)
(0 2.279365761e-06 -8.76679139e-08)
(0 2.073536622e-06 -8.004461223e-08)
(0 1.871519267e-06 -6.860966763e-08)
(0 1.696183552e-06 -6.098637489e-08)
(0 1.524659281e-06 -5.336307482e-08)
(0 1.387439945e-06 -4.192813022e-08)
(0 1.23878574e-06 -3.81164843e-08)
(0 1.120624571e-06 -3.430483381e-08)
(0 1.010086773e-06 -2.668153741e-08)
(0 8.957373811e-07 -2.668153901e-08)
(0 8.11881067e-07 -2.286988921e-08)
(0 7.280248065e-07 -2.286988921e-08)
(0 6.441685847e-07 -1.905824215e-08)
(0 5.793705267e-07 -1.905824101e-08)
(0 5.145725072e-07 -1.524659281e-08)
(0 4.573978116e-07 -1.143494529e-08)
(0 4.15469654e-07 -1.14349446e-08)
(0 3.697298756e-07 -7.623296403e-09)
(0 3.27801765e-07 -7.623296861e-09)
(0 2.896852633e-07 -3.811648202e-09)
(0 2.591920777e-07 -7.623296403e-09)
(0 2.248872574e-07 -7.623296861e-09)
(0 1.943940583e-07 -7.623296403e-09)
(0 1.677125209e-07 -7.623296403e-09)
(0 1.448426404e-07 0)
(0 1.334076871e-07 0)
(0 1.14349446e-07 0)
(0 1.029145076e-07 -3.81164843e-09)
(0 8.766790864e-08 -3.811648202e-09)
(0 8.385626044e-08 -3.811648202e-09)
(0 6.479802332e-08 0)
(0 5.717472302e-08 3.811648202e-09)
(0 4.955142662e-08 0)
(0 3.430483587e-08 0)
(0 3.430483381e-08 0)
(0 2.668153741e-08 0)
(0 1.524659372e-08 0)
(0 1.524659281e-08 0)
(0 7.623296403e-09 0)
(0 0 0)
(0 3.811648202e-09 0)
(0 -3.811648202e-09 0)
(0 0 0)
(0 0 0)
(0 3.811648202e-09 0)
(0 0 0)
(0 3.811648202e-09 0)
(0 -3.811648202e-09 0)
(0 0 0)
(0 -3.811648202e-09 -3.811648202e-09)
(0 0 0)
(0 3.81164843e-09 0)
(0 3.811648202e-09 0)
(0 0.0001528585269 -0.0007326978828)
(0 0.0003114955312 -0.0004289133603)
(0 0.0003020464366 -0.0002941487016)
(0 0.0002714312785 -0.0002222724519)
(0 0.0002437015526 -0.000177577076)
(0 0.0002210069847 -0.0001466379171)
(0 0.0002022765456 -0.000123691795)
(0 0.0001864810867 -0.0001058837811)
(0 0.0001728544333 -9.162821057e-05)
(0 0.0001609125395 -7.993788561e-05)
(0 0.0001502932967 -7.018388213e-05)
(0 0.0001407527323 -6.192403631e-05)
(0 0.0001320812327 -5.483818235e-05)
(0 0.0001241453886 -4.871286665e-05)