/*--------------------------------*- C++ -*----------------------------------*\
  =========                 |
  \\      /  F ield         | OpenFOAM: The Open Source CFD Toolbox
   \\    /   O peration     | Website:  https://openfoam.org
    \\  /    A nd           | Version:  6
     \\/     M anipulation  |
\*---------------------------------------------------------------------------*/
FoamFile
{
    version     2.0;
    format      ascii;
    class       volVectorField;
    location    "0.0055";
    object      U;
}
// * * * * * * * * * * * * * * * * * * * * * * * * * * * * * * * * * * * * * //

dimensions      [0 1 -1 0 0 0 0];

internalField   nonuniform List<vector> 
600
(
(0 2.99535751e-10 -2.736076765e-13)
(0 3.005584361e-10 -8.012934141e-13)
(0 3.019139743e-10 -1.266209927e-12)
(0 3.032668954e-10 -1.621558048e-12)
(0 3.042395666e-10 -1.818640719e-12)
(0 3.043158739e-10 -1.80661253e-12)
(0 3.028494737e-10 -1.533094385e-12)
(0 2.990711117e-10 -9.478739122e-13)
(0 2.921059745e-10 -9.021543253e-15)
(0 2.810079521e-10 1.305810297e-12)
(0 2.648220397e-10 2.984465966e-12)
(0 2.42685546e-10 4.96126661e-12)
(0 2.139691848e-10 7.101863481e-12)
(0 1.784364596e-10 9.203526057e-12)
(8.889857881e-53 1.363668788e-10 1.10343912e-11)
(5.918655287e-53 8.856352156e-11 1.242467988e-11)
(0 3.618930068e-11 1.337915013e-11)
(0 -1.947928583e-11 1.407420106e-11)
(0 -7.702848542e-11 1.453749014e-11)
(0 -1.341441515e-10 1.403627036e-11)
(0 -1.864136696e-10 1.10745957e-11)
(0 -2.276647252e-10 5.044500265e-12)
(0 -2.521710579e-10 -3.280102898e-12)
(0 -2.558861594e-10 -1.32587423e-11)
(0 -2.360703551e-10 -2.466562415e-11)
(0 -1.916217225e-10 -3.650507336e-11)
(0 -1.260862251e-10 -4.499329967e-11)
(0 -5.189912874e-11 -4.440485316e-11)
(0 1.218436801e-11 -2.998302827e-11)
(0 1.179204762e-12 1.339917976e-24)
(0 2.979455154e-10 -8.435011281e-13)
(0 2.990920868e-10 -2.472132183e-12)
(0 3.00672703e-10 -3.914772767e-12)
(0 3.023595753e-10 -5.032630374e-12)
(0 3.0378046e-10 -5.681196399e-12)
(0 3.044240915e-10 -5.708370333e-12)
(0 3.036451652e-10 -4.957243354e-12)
(0 3.006666841e-10 -3.275170505e-12)
(0 2.945901711e-10 -5.324374918e-13)
(0 2.844214136e-10 3.346518314e-12)
(0 2.691249717e-10 8.336998488e-12)
(0 2.477242572e-10 1.425531013e-11)
(0 2.194601963e-10 2.070188237e-11)
(0 1.840028292e-10 2.704730305e-11)
(0 1.416635796e-10 3.253526403e-11)
(0 9.347535087e-11 3.657876102e-11)
(0 4.093714192e-11 3.919058884e-11)
(0 -1.465454273e-11 4.112671077e-11)
(0 -7.277335899e-11 4.290992991e-11)
(0 -1.326073705e-10 4.240633409e-11)
(0 -1.897766698e-10 3.419769421e-11)
(0 -2.363011305e-10 1.619680504e-11)
(0 -2.656888128e-10 -8.370845711e-12)
(0 -2.748126524e-10 -3.741419125e-11)
(0 -2.610186861e-10 -7.104489861e-11)
(0 -2.20259614e-10 -1.075818334e-10)
(0 -1.518207425e-10 -1.353098473e-10)
(0 -6.719543212e-11 -1.35434419e-10)
(0 1.039027433e-11 -9.216378228e-11)
(0 1.221492938e-12 1.399355014e-24)
(0 2.951563109e-10 -1.486997359e-12)
(0 2.965021285e-10 -4.365912651e-12)
(0 2.984360177e-10 -6.943305359e-12)
(0 3.006428427e-10 -8.994125355e-12)
(0 3.027593254e-10 -1.028266034e-11)
(0 3.042832408e-10 -1.055896632e-11)
(0 3.045743206e-10 -9.562610093e-12)
(0 3.028501788e-10 -7.035026224e-12)
(0 2.981869095e-10 -2.746670873e-12)
(0 2.895312788e-10 3.456626933e-12)
(0 2.757384626e-10 1.157915705e-11)
(0 2.556582449e-10 2.136887953e-11)
(0 2.283033447e-10 3.218848791e-11)
(0 1.931334759e-10 4.292513839e-11)
(1.001492492e-52 1.504428512e-10 5.208960002e-11)
(6.88908766e-53 1.016725538e-10 5.834448798e-11)
(0 4.916491026e-11 6.157588135e-11)
(0 -5.258883972e-12 6.384638412e-11)
(0 -6.25596226e-11 6.805156081e-11)
(0 -1.255914243e-10 7.133261686e-11)
(0 -1.903627625e-10 6.02668545e-11)
(0 -2.445609482e-10 3.011102716e-11)
(0 -2.80417462e-10 -9.291339528e-12)
(0 -2.981663961e-10 -5.366002133e-11)
(0 -2.971231316e-10 -1.062999263e-10)
(0 -2.680982107e-10 -1.705315653e-10)
(0 -2.011015471e-10 -2.254269712e-10)
(0 -1.039948648e-10 -2.331632875e-10)
(0 -5.076181815e-12 -1.62105099e-10)
(0 1.313564863e-12 1.515824146e-24)
(0 2.909395467e-10 -2.243770646e-12)
(0 2.925475593e-10 -6.603617996e-12)
(0 2.949422525e-10 -1.055871501e-11)
(0 2.97825292e-10 -1.380636235e-11)
(0 3.008454383e-10 -1.602750363e-11)
(0 3.035135872e-10 -1.688157241e-11)
(0 3.051997642e-10 -1.600928739e-11)
(0 3.051234327e-10 -1.304583675e-11)
(0 3.02344769e-10 -7.649387968e-12)
(0 2.95760318e-10 4.467744561e-13)
(0 2.841115013e-10 1.134298368e-11)
(0 2.660287479e-10 2.481852486e-11)
(0 2.401673359e-10 4.009524896e-11)
(0 2.055444984e-10 5.555895533e-11)
(-1.130350365e-52 1.622006315e-10 6.865813438e-11)
(-7.570091952e-53 1.120994457e-10 7.652574287e-11)
(0 5.941724288e-11 7.811960029e-11)
(0 8.23382346e-12 7.763634103e-11)
(0 -4.416713429e-11 8.502762536e-11)
(0 -1.095192534e-10 1.003321981e-10)
(0 -1.853856426e-10 9.083877636e-11)
(0 -2.486156725e-10 4.57351334e-11)
(0 -2.889439216e-10 -6.471967689e-12)
(0 -3.15746587e-10 -5.78711509e-11)
(0 -3.356077852e-10 -1.198777117e-10)
(0 -3.311460549e-10 -2.159034783e-10)
(0 -2.734584355e-10 -3.127526052e-10)
(0 -1.619631424e-10 -3.410811593e-10)
(0 -3.142359349e-11 -2.460194138e-10)
(0 1.473550082e-12 1.692450589e-24)
(0 2.849990932e-10 -3.147745637e-12)
(0 2.869154942e-10 -9.287965606e-12)
(0 2.898488707e-10 -1.493592513e-11)
(0 2.93520568e-10 -1.972216283e-11)
(0 2.975925157e-10 -2.325543232e-11)
(0 3.015903106e-10 -2.511550332e-11)
(0 3.048976117e-10 -2.485487014e-11)
(0 3.067444975e-10 -2.200976311e-11)
(0 3.061952619e-10 -1.612360788e-11)
(0 3.021321438e-10 -6.789521602e-12)
(0 2.932278876e-10 6.266472878e-12)
(0 2.779092821e-10 2.301298745e-11)
(0 2.543665308e-10 4.276697598e-11)
(0 2.208052274e-10 6.360017105e-11)
(0 1.763563222e-10 8.162951714e-11)
(0 1.230924476e-10 9.105348236e-11)
(0 6.835983772e-11 8.727488582e-11)
(0 2.307032439e-11 7.573213841e-11)
(0 -1.525535368e-11 8.357112686e-11)
(0 -7.94564994e-11 1.285004553e-10)
(0 -1.718588476e-10 1.285183082e-10)
(0 -2.435262755e-10 5.71851418e-11)
(0 -2.793997448e-10 -5.722569296e-12)
(0 -3.092368516e-10 -4.915081273e-11)
(0 -3.583318963e-10 -9.637565286e-11)
(0 -3.98143702e-10 -2.289261894e-10)
(0 -3.646248286e-10 -3.925660742e-10)
(0 -2.400435513e-10 -4.613012471e-10)
(0 -6.794611963e-11 -3.51568447e-10)
(0 1.739029228e-12 1.961877163e-24)
(0 2.769903633e-10 -4.22415559e-12)
(0 2.792407985e-10 -1.249513589e-11)
(0 2.827542703e-10 -2.020344684e-11)
(0 2.872726126e-10 -2.692532196e-11)
(0 2.924687409e-10 -3.221009676e-11)
(0 2.978790584e-10 -3.55717215e-11)
(0 3.028964929e-10 -3.649023579e-11)
(0 3.067624657e-10 -3.442175602e-11)
(0 3.085636973e-10 -2.881454826e-11)
(0 3.072240917e-10 -1.912951735e-11)
(0 3.014611045e-10 -4.87711049e-12)
(0 2.896548863e-10 1.427271851e-11)
(0 2.696058084e-10 3.814858419e-11)
(0 2.383542006e-10 6.518062935e-11)
(0 1.928337521e-10 9.05772268e-11)
(0 1.331979653e-10 1.040352102e-10)
(0 7.012459392e-11 9.130430449e-11)
(0 3.146201128e-11 5.006338613e-11)
(0 2.485150324e-11 4.195236925e-11)
(0 -3.085305978e-11 1.528553099e-10)
(0 -1.472840852e-10 1.766583998e-10)
(0 -2.229317012e-10 5.031966254e-11)
(0 -2.363516178e-10 -1.947242215e-11)
(0 -2.529523702e-10 -3.478223785e-11)
(0 -3.340331193e-10 -1.685003103e-11)
(0 -4.414818278e-10 -1.898131183e-10)
(0 -4.593541706e-10 -4.573169066e-10)
(0 -3.312221405e-10 -5.883217221e-10)
(0 -1.145549119e-10 -4.865218554e-10)
(0 2.189459246e-12 2.411360741e-24)
(0 2.665402414e-10 -5.488271453e-12)
(0 2.691276162e-10 -1.627052832e-11)
(0 2.73222282e-10 -2.643609362e-11)
(0 2.785854497e-10 -3.551914451e-11)
(0 2.848954784e-10 -4.302189502e-11)
(0 2.916885062e-10 -4.840500437e-11)
(0 2.983482975e-10 -5.109170773e-11)
(0 3.041044542e-10 -5.048352257e-11)
(0 3.080520492e-10 -4.597978115e-11)
(0 3.091886776e-10 -3.698329333e-11)
(0 3.064263364e-10 -2.286917746e-11)
(0 2.984578981e-10 -2.919284068e-12)
(0 2.83250284e-10 2.363892866e-11)
(0 2.569599859e-10 5.69237865e-11)
(0 2.128376577e-10 9.359039317e-11)
(0 1.439636451e-10 1.197407631e-10)
(0 5.784178358e-11 1.027575403e-10)
(0 1.792651999e-11 -5.2924527e-13)
(0 6.787954734e-11 -7.554598731e-11)
(0 2.51568138e-11 1.829407178e-10)
(0 -1.020605911e-10 2.612256277e-10)
(0 -1.649354863e-10 -6.424522837e-12)
(0 -1.448953898e-10 -6.462420303e-11)
(0 -1.335173589e-10 -4.375878962e-11)
(0 -2.222873753e-10 1.579783005e-10)
(0 -3.843253579e-10 -6.729969828e-11)
(0 -5.133637941e-10 -4.927218409e-10)
(0 -4.089318325e-10 -6.878981279e-10)
(0 -1.745624183e-10 -6.521409909e-10)
(0 3.007070296e-12 3.235645365e-24)
(0 2.532704252e-10 -6.944852575e-12)
(0 2.561740377e-10 -2.062708514e-11)
(0 2.608093857e-10 -3.365190013e-11)
(0 2.669558386e-10 -4.55225688e-11)
(0 2.742914175e-10 -5.570358857e-11)
(0 2.823368851e-10 -6.360762919e-11)
(0 2.904336522e-10 -6.860410497e-11)
(0 2.977387468e-10 -7.005162537e-11)
(0 3.032651076e-10 -6.734816196e-11)
(0 3.059927411e-10 -5.997094941e-11)
(0 3.050500278e-10 -4.743575505e-11)
(0 2.998549894e-10 -2.904242616e-11)
(0 2.897847181e-10 -3.269783959e-12)
(0 2.72299607e-10 3.289403165e-11)
(0 2.379268726e-10 8.253146349e-11)
(0 1.654811312e-10 1.373646856e-10)
(0 3.269307667e-11 1.475354001e-10)
(0 -2.091666088e-11 -5.079783179e-11)
(0 9.966655743e-11 -3.549313433e-10)
(0 1.795573962e-24 1.44969933e-11)
(0 -3.436642419e-24 9.856881804e-12)
(0 -1.75947569e-24 -4.289457775e-12)
(0 -7.043060109e-25 -2.731153132e-12)
(0 4.266824171e-25 -3.677980115e-12)
(0 2.152268778e-24 1.102872886e-11)
(0 -3.925358176e-24 1.589582012e-11)
(0 -4.40704939e-10 -4.885377627e-10)
(0 -3.93244935e-10 -6.688998453e-10)
(0 -2.777715913e-10 -8.214875907e-10)
(0 4.657345893e-12 4.412422526e-24)
(0 2.368241356e-10 -8.588673022e-12)
(0 2.399993166e-10 -2.554606123e-11)
(0 2.450921686e-10 -4.181299111e-11)
(0 2.51902413e-10 -5.687320452e-11)
(0 2.601092691e-10 -7.016079732e-11)
(0 2.692111417e-10 -8.103455971e-11)
(0 2.784747538e-10 -8.878559395e-11)
(0 2.868976242e-10 -9.269080375e-11)
(0 2.932243267e-10 -9.21217635e-11)
(0 2.960861529e-10 -8.670163909e-11)
(0 2.943804596e-10 -7.644253083e-11)
(0 2.880197409e-10 -6.162578884e-11)
(0 2.788940866e-10 -4.180810186e-11)
(0 2.705161988e-10 -1.287803642e-11)
(0 2.599589569e-10 3.830659644e-11)
(0 2.146914443e-10 1.302412923e-10)
(0 7.367324951e-12 2.630856732e-10)
(0 3.270632808e-24 -4.213845945e-12)
(0 -1.037839384e-11 -8.672419469e-12)
(0 -1.026772936e-11 1.850501793e-11)
(0 6.088936224e-12 1.384661649e-11)
(0 7.53657639e-12 -4.158267492e-12)
(0 6.114776588e-13 -2.95628744e-12)
(0 -6.364729333e-12 -2.883975774e-12)
(0 -5.301587064e-12 1.652315593e-11)
(0 9.095882305e-12 2.292807153e-11)
(0 8.979567017e-12 -1.480182803e-12)
(0 -3.896492615e-24 9.834756208e-12)
(0 -5.55251874e-10 -8.403549077e-10)
(0 8.481423204e-12 -2.272521122e-11)
(0 2.168972357e-10 -1.040642663e-11)
(0 2.202744303e-10 -3.097989014e-11)
(0 2.256936226e-10 -5.082717562e-11)
(0 2.329847823e-10 -6.943067193e-11)
(0 2.418477721e-10 -8.620761352e-11)
(0 2.517806163e-10 -1.004520502e-10)
(0 2.619827533e-10 -1.113229872e-10)
(0 2.712453989e-10 -1.178993132e-10)
(0 2.778532458e-10 -1.193333878e-10)
(0 2.795665772e-10 -1.15152515e-10)
(0 2.738851029e-10 -1.057616698e-10)
(0 2.591201774e-10 -9.31063446e-11)
(0 2.373412911e-10 -8.096912622e-11)
(0 2.206227019e-10 -7.291770037e-11)
(0 2.335741428e-10 -6.221559223e-11)
(0 3.075707177e-10 -2.479844468e-11)
(0 1.115998926e-11 1.113528854e-11)
(0 1.620296717e-11 -2.31129642e-12)
(0 2.594252349e-12 -9.853471773e-12)
(0 -2.356351033e-12 5.474959788e-12)
(0 2.212101859e-12 5.952366198e-12)
(0 3.321707374e-12 1.180523031e-12)
(0 1.27429172e-12 6.800230431e-13)
(0 -6.451679379e-13 2.378179461e-12)
(0 9.366600393e-13 8.61720536e-12)
(0 6.872048295e-12 1.049955606e-11)
(0 7.031296249e-12 4.432167091e-13)
(0 8.424600317e-12 1.487204069e-11)
(0 -1.611399863e-11 1.406729109e-12)
(0 -2.617158294e-11 -6.472928491e-11)
(0 1.932777807e-10 -1.238216285e-11)
(0 1.967609123e-10 -3.68584428e-11)
(0 2.023121958e-10 -6.054643713e-11)
(0 2.098131346e-10 -8.296795036e-11)
(0 2.190296387e-10 -1.035621897e-10)
(0 2.295280937e-10 -1.215656199e-10)
(0 2.405337225e-10 -1.359541496e-10)
(0 2.507398451e-10 -1.454545573e-10)
(0 2.580364075e-10 -1.486527329e-10)
(0 2.59113733e-10 -1.442724236e-10)
(0 2.489282204e-10 -1.317865948e-10)
(0 2.20273764e-10 -1.126691413e-10)
(0 1.646586431e-10 -9.254174574e-11)
(0 7.996855619e-11 -8.294283629e-11)
(1.908146082e-52 -1.290442423e-11 -8.086812011e-11)
(3.892490471e-52 -4.238546786e-12 3.78548909e-24)
(0 -2.311296268e-12 1.610456174e-11)
(0 3.886626612e-12 3.772665308e-12)
(0 2.158637986e-12 -6.022217041e-13)
(0 7.873327739e-13 2.545044437e-12)
(0 1.794499451e-12 3.307030397e-12)
(0 2.264233219e-12 2.247489515e-12)
(0 1.809134091e-12 2.117130365e-12)
(0 1.572453005e-12 3.098943378e-12)
(0 2.819789563e-12 5.067717427e-12)
(0 5.67266951e-12 5.258614047e-12)
(0 8.601276077e-12 2.593532125e-12)
(0 1.633734804e-11 3.591301715e-12)
(0 3.527405832e-11 -9.64099679e-12)
(0 -4.176210386e-12 -3.210488617e-11)
(0 1.65903057e-10 -1.451376194e-11)
(0 1.693684539e-10 -4.310544805e-11)
(0 1.747644292e-10 -7.076119576e-11)
(0 1.820635749e-10 -9.713892437e-11)
(0 1.911669676e-10 -1.217903799e-10)
(0 2.018152439e-10 -1.439507207e-10)
(0 2.134356757e-10 -1.624279973e-10)
(0 2.249393959e-10 -1.755458841e-10)
(0 2.344006678e-10 -1.811217485e-10)
(0 2.384805401e-10 -1.76482135e-10)
(0 2.31268751e-10 -1.585406888e-10)
(0 2.018319137e-10 -1.240785289e-10)
(0 1.287316614e-10 -7.077022814e-11)
(0 -2.127797753e-11 -2.356649126e-12)
(0 -3.303728854e-10 7.804616185e-11)
(0 -8.770825274e-12 -1.055703028e-11)
(0 -9.94273217e-12 2.339498505e-12)
(0 -5.038159798e-13 1.899967531e-12)
(0 1.366631485e-12 1.127029218e-12)
(0 1.552901059e-12 2.000365422e-12)
(0 1.914546939e-12 2.483015842e-12)
(0 2.131807346e-12 2.384912681e-12)
(0 2.125745581e-12 2.44150458e-12)
(0 2.305419116e-12 2.83246282e-12)
(0 3.096330702e-12 3.296041112e-12)
(0 4.397862999e-12 2.874377026e-12)
(0 5.36398392e-12 1.081707664e-12)
(0 4.619489553e-12 -1.889478808e-12)
(0 -6.810187769e-12 -1.166935296e-11)
(0 -9.696210796e-12 1.225717554e-11)
(0 1.34957173e-10 -1.686422716e-11)
(0 1.382470702e-10 -4.968304276e-11)
(0 1.430530688e-10 -8.119650702e-11)
(0 1.495253191e-10 -1.114241788e-10)
(0 1.57777484e-10 -1.401911139e-10)
(0 1.67812754e-10 -1.668410543e-10)
(0 1.794104459e-10 -1.901237835e-10)
(0 1.920090714e-10 -2.081221581e-10)
(0 2.045657972e-10 -2.181841227e-10)
(0 2.154273161e-10 -2.168557059e-10)
(0 2.223257012e-10 -1.99809279e-10)
(0 2.227845336e-10 -1.61865965e-10)
(0 2.13397133e-10 -9.827302713e-11)
(0 2.05055009e-10 -1.787344528e-11)
(0 1.431835699e-11 1.652753262e-24)
(0 1.822556311e-11 -1.070300907e-11)
(0 5.394925685e-12 -2.840322896e-12)
(0 2.674157352e-12 3.606625666e-13)
(0 2.259035885e-12 1.20998562e-12)
(0 2.143319399e-12 1.846252701e-12)
(0 2.179046711e-12 2.239532798e-12)
(0 2.222721958e-12 2.367317254e-12)
(0 2.256684231e-12 2.431064235e-12)
(0 2.426989536e-12 2.492941788e-12)
(0 2.861703767e-12 2.409822445e-12)
(0 3.45833606e-12 1.86162818e-12)
(0 3.837420245e-12 7.482259467e-13)
(0 3.586287441e-12 -5.614743884e-13)
(0 2.935713197e-12 -9.189666155e-13)
(0 5.119604562e-12 2.206805115e-12)
(0 1.010831036e-10 -1.971863826e-11)
(0 1.039244287e-10 -5.669324644e-11)
(0 1.07448553e-10 -9.151728096e-11)
(0 1.121883048e-10 -1.250785102e-10)
(0 1.185197884e-10 -1.576823853e-10)
(0 1.267053956e-10 -1.888836745e-10)
(0 1.368612473e-10 -2.174902306e-10)
(0 1.489071531e-10 -2.415452636e-10)
(0 1.624815118e-10 -2.583197039e-10)
(0 1.768902886e-10 -2.644378745e-10)
(0 1.913324979e-10 -2.563537296e-10)
(0 2.061210475e-10 -2.313924289e-10)
(0 2.235004923e-10 -1.888471429e-10)
(0 2.717880566e-10 -1.226445146e-10)
(0 9.421602367e-12 -2.736232512e-24)
(0 1.326423908e-11 5.286744355e-12)
(0 5.871715287e-12 1.392036463e-12)
(0 3.546492549e-12 1.17280569e-12)
(0 2.852221622e-12 1.505752918e-12)
(0 2.582448239e-12 1.93481477e-12)
(0 2.435611493e-12 2.261193761e-12)
(0 2.323338783e-12 2.413424485e-12)
(0 2.251370116e-12 2.42221371e-12)
(0 2.284177327e-12 2.2982929e-12)
(0 2.465017093e-12 1.988874892e-12)
(0 2.736266498e-12 1.41462907e-12)
(0 2.940881346e-12 6.11338967e-13)
(0 2.952296988e-12 -1.854217496e-13)
(0 2.902508638e-12 -5.958114825e-13)
(0 3.230742463e-12 -6.30069894e-13)
(0 6.601517622e-11 -2.411289158e-11)
(0 6.742674393e-11 -6.456013247e-11)
(0 6.849074926e-11 -1.013217758e-10)
(0 7.031236579e-11 -1.3710708e-10)
(0 7.341335831e-11 -1.72792607e-10)
(0 7.817524248e-11 -2.081276623e-10)
(0 8.492436676e-11 -2.419952302e-10)
(0 9.388577663e-11 -2.72421577e-10)
(0 1.049438791e-10 -2.964907105e-10)
(0 1.170303293e-10 -3.103158358e-10)
(0 1.267497631e-10 -3.092906782e-10)
(0 1.255373685e-10 -2.888674719e-10)
(0 9.5700491e-11 -2.453442505e-10)
(0 3.962013268e-13 -1.661472029e-10)
(0 -5.270285989e-12 -1.253299501e-24)
(0 -5.257787752e-12 5.582271964e-12)
(0 1.280987029e-12 1.948573868e-12)
(0 2.787873807e-12 1.432406395e-12)
(0 3.021044963e-12 1.705036515e-12)
(0 2.898760241e-12 2.125660485e-12)
(0 2.657656424e-12 2.456603555e-12)
(0 2.383741906e-12 2.60269071e-12)
(0 2.141552646e-12 2.546012056e-12)
(0 1.993650719e-12 2.289300843e-12)
(0 1.978039939e-12 1.833179858e-12)
(0 2.080800138e-12 1.197291869e-12)
(0 2.237369429e-12 4.684058264e-13)
(0 2.379136994e-12 -1.952386277e-13)
(0 2.491065054e-12 -6.483984254e-13)
(0 2.517080207e-12 -9.327678922e-13)
(0 3.465272406e-11 -3.29740103e-11)
(0 2.985297058e-11 -7.390244099e-11)
(0 2.666184188e-11 -1.099823406e-10)
(0 2.436862637e-11 -1.462596415e-10)
(0 2.298336663e-11 -1.837851024e-10)
(0 2.272027633e-11 -2.222950126e-10)
(0 2.401136342e-11 -2.60709986e-10)
(0 2.74537427e-11 -2.970639525e-10)
(0 3.363707206e-11 -3.281786063e-10)
(0 4.264208121e-11 -3.491006527e-10)
(0 5.27894514e-11 -3.522065699e-10)
(0 5.784992071e-11 -3.259974138e-10)
(0 4.277643918e-11 -2.548140929e-10)
(0 -2.755950303e-11 -1.319205596e-10)
(0 -5.120737165e-12 1.895875607e-24)
(0 -4.911798543e-12 -5.031029937e-12)
(0 1.721849729e-12 -6.12636979e-13)
(0 3.302955199e-12 9.030243952e-13)
(0 3.545475713e-12 1.755993039e-12)
(0 3.33401528e-12 2.405787377e-12)
(0 2.912641718e-12 2.836547506e-12)
(0 2.412747284e-12 2.994614806e-12)
(0 1.937980248e-12 2.870045412e-12)
(0 1.571345129e-12 2.48011752e-12)
(0 1.373008119e-12 1.857717384e-12)
(0 1.371492466e-12 1.073318083e-12)
(0 1.54835085e-12 2.607085259e-13)
(0 1.835492736e-12 -4.150813575e-13)
(0 2.164979374e-12 -8.694455444e-13)
(0 2.4079638e-12 -9.811362813e-13)
(0 -5.124706752e-12 -6.404455108e-11)
(0 -1.249245954e-11 -8.648109955e-11)
(0 -1.875927996e-11 -1.166586055e-10)
(0 -2.508708389e-11 -1.51148049e-10)
(0 -3.164202462e-11 -1.888754701e-10)
(0 -3.827846422e-11 -2.29070055e-10)
(0 -4.447213866e-11 -2.706703422e-10)
(0 -4.923690442e-11 -3.119443305e-10)
(0 -5.096559838e-11 -3.50020213e-10)
(0 -4.713926637e-11 -3.801540432e-10)
(0 -3.370393708e-11 -3.945186338e-10)
(0 -3.549960593e-12 -3.803407025e-10)
(0 5.402270521e-11 -3.180681279e-10)
(0 1.752025199e-10 -1.884218352e-10)
(0 9.823295558e-12 3.174705159e-24)
(0 1.425418675e-11 -4.96909303e-12)
(0 7.215041362e-12 -2.709754956e-13)
(0 5.156503826e-12 1.036179337e-12)
(0 4.523807947e-12 2.009948441e-12)
(0 3.979314709e-12 2.904715629e-12)
(0 3.246483853e-12 3.489004594e-12)
(0 2.417239812e-12 3.669279562e-12)
(0 1.627055359e-12 3.45977212e-12)
(0 9.8132269e-13 2.90378832e-12)
(0 5.712405008e-13 2.044469196e-12)
(0 4.837912784e-13 9.780060005e-13)
(0 7.489699872e-13 -8.36188805e-14)
(0 1.248982923e-12 -8.560058712e-13)
(0 1.925010129e-12 -1.432505279e-12)
(0 2.959090618e-12 -1.694814512e-12)
(0 -5.46227563e-11 -7.675056578e-11)
(0 -5.916249555e-11 -9.280545853e-11)
(0 -6.653264465e-11 -1.184129282e-10)
(0 -7.629803535e-11 -1.501543506e-10)
(0 -8.828629143e-11 -1.864506168e-10)
(0 -1.022865527e-10 -2.263515017e-10)
(0 -1.178125826e-10 -2.689405958e-10)
(0 -1.338823717e-10 -3.12932608e-10)
(0 -1.487355288e-10 -3.562784756e-10)
(0 -1.594155973e-10 -3.956635919e-10)
(0 -1.611140476e-10 -4.257919523e-10)
(0 -1.461117114e-10 -4.381049637e-10)
(0 -1.039308623e-10 -4.170251731e-10)
(0 -8.751615482e-12 -3.202175723e-10)
(0 1.478555714e-11 -7.729368474e-25)
(0 1.96926133e-11 1.030131593e-11)
(0 7.727122096e-12 3.461923727e-12)
(0 5.583879134e-12 1.503116585e-12)
(0 5.414012004e-12 2.342478386e-12)
(0 4.813071433e-12 3.713715543e-12)
(0 3.677205651e-12 4.545378491e-12)
(0 2.38351481e-12 4.734018577e-12)
(0 1.172489006e-12 4.396433291e-12)
(0 1.560422048e-13 3.631047716e-12)
(0 -5.527741994e-13 2.438448341e-12)
(0 -7.565956109e-13 8.772821082e-13)
(0 -2.856610216e-13 -7.162952519e-13)
(0 4.866063389e-13 -1.491971665e-12)
(0 1.326170733e-12 -2.310841282e-12)
(0 4.893389575e-12 -5.417879205e-12)
(0 -9.943105056e-11 -8.016383213e-11)
(0 -1.039607187e-10 -9.271153251e-11)
(0 -1.129188726e-10 -1.143096468e-10)
(0 -1.26163843e-10 -1.424175769e-10)
(0 -1.436818698e-10 -1.755369871e-10)
(0 -1.654544468e-10 -2.12741932e-10)
(0 -1.912913328e-10 -2.532803728e-10)
(0 -2.206397397e-10 -2.962474405e-10)
(0 -2.523939169e-10 -3.402508289e-10)
(0 -2.847896259e-10 -3.829753108e-10)
(0 -3.156604392e-10 -4.205001797e-10)
(0 -3.437566857e-10 -4.460424043e-10)
(0 -3.729230567e-10 -4.473704009e-10)
(0 -4.133884959e-10 -4.004266458e-10)
(0 -5.08136222e-10 -2.795333156e-10)
(0 -7.159276845e-12 1.008983019e-11)
(0 -6.333933822e-12 -2.43589437e-12)
(0 4.037058483e-12 -8.293953616e-13)
(0 6.734406905e-12 2.141853757e-12)
(0 6.182214815e-12 5.061424296e-12)
(0 4.266786888e-12 6.244655519e-12)
(0 2.268294612e-12 6.325280993e-12)
(0 5.240844977e-13 5.761172233e-12)
(0 -9.766622599e-13 4.785255263e-12)
(0 -2.182525107e-12 3.199977266e-12)
(0 -2.670952316e-12 8.111611573e-13)
(0 -1.620283787e-12 -2.164550773e-12)
(0 -3.455631072e-13 -2.085399145e-12)
(0 -8.945314177e-12 6.044138005e-12)
(0 -9.357428305e-12 -1.692844308e-11)
(0 -1.390645406e-10 -7.661360141e-11)
(0 -1.44263028e-10 -8.660656651e-11)
(0 -1.550074963e-10 -1.043250089e-10)
(0 -1.715315043e-10 -1.279228444e-10)
(0 -1.941390835e-10 -1.561385207e-10)
(0 -2.231421614e-10 -1.881274466e-10)
(0 -2.58759895e-10 -2.232333028e-10)
(0 -3.009516068e-10 -2.607440712e-10)
(0 -3.49195175e-10 -2.995863412e-10)
(0 -4.021984907e-10 -3.378364329e-10)
(0 -4.574556145e-10 -3.718016482e-10)
(0 -5.102161649e-10 -3.941909158e-10)
(0 -5.503524057e-10 -3.90702906e-10)
(0 -5.508026419e-10 -3.351911386e-10)
(0 -4.501837071e-10 -1.99878992e-10)
(0 -2.867892531e-12 -2.471752899e-24)
(0 1.558672415e-12 -1.771611011e-11)
(0 1.016162726e-11 -4.52800661e-12)
(0 1.130483166e-11 1.99171635e-12)
(0 8.915873196e-12 8.144573743e-12)
(0 4.941062349e-12 9.0467829e-12)
(0 1.900031524e-12 8.561915836e-12)
(0 -3.675367248e-13 7.537962346e-12)
(0 -2.405152762e-12 6.548350575e-12)
(0 -4.526868306e-12 4.766764228e-12)
(0 -6.121123652e-12 1.335453671e-12)
(0 -3.182221325e-12 -6.665519282e-12)
(0 8.695295116e-12 -1.072875818e-11)
(0 3.296812602e-11 -9.835131549e-13)
(0 -2.000313388e-12 2.548212332e-11)
)
;

boundaryField
{
    lowerWall
    {
        type            slip;
    }
    atmosphere
    {
        type            pressureInletOutletVelocity;
        tangentialVelocity uniform (0 0 0);
        value           nonuniform List<vector> 
20
(
(0 2.99535751e-10 0)
(0 2.979455154e-10 0)
(0 2.951563109e-10 0)
(0 2.909395467e-10 0)
(0 2.849990932e-10 0)
(0 2.769903633e-10 0)
(0 2.665402414e-10 0)
(0 2.532704252e-10 0)
(0 2.368241356e-10 0)
(0 2.168972357e-10 0)
(0 1.932777807e-10 0)
(0 1.65903057e-10 0)
(0 1.34957173e-10 0)
(0 1.010831036e-10 0)
(0 6.601517622e-11 0)
(0 3.465272406e-11 0)
(0 -5.124706752e-12 -6.404455108e-11)
(0 -5.46227563e-11 -7.675056578e-11)
(0 -9.943105056e-11 -8.016383213e-11)
(0 -1.390645406e-10 -7.661360141e-11)
)
;
    }
    rightWall
    {
        type            empty;
    }
    leftWall
    {
        type            empty;
    }
    frontAndBack
    {
        type            slip;
    }
    procBoundary0to1
    {
        type            processor;
        value           nonuniform List<vector> 
20
(
(0 2.316669972e-12 4.228817567e-14)
(0 2.39376844e-12 1.343601009e-13)
(0 2.559790378e-12 2.520571442e-13)
(0 2.842183069e-12 4.254643662e-13)
(0 3.293692325e-12 7.159091683e-13)
(0 4.01251777e-12 1.268041069e-12)
(0 5.182309609e-12 2.467886653e-12)
(0 7.140876869e-12 5.474352936e-12)
(0 1.044035708e-11 1.417106982e-11)
(0 -6.769250141e-12 2.056890044e-11)
(0 -3.772056132e-11 2.083599904e-12)
(0 -4.364029174e-12 -1.406873158e-11)
(0 3.883410776e-12 -8.116625194e-12)
(0 2.383357679e-12 -3.198335852e-12)
(0 1.938082231e-12 -1.471177091e-12)
(0 1.990021341e-12 -4.274351308e-13)
(0 2.609210985e-12 1.052920504e-12)
(0 4.521233892e-12 5.4972516e-12)
(0 -2.823596344e-12 1.084562865e-11)
(0 -3.439050801e-11 -5.706955759e-12)
)
;
    }
    procBoundary0to2
    {
        type            processor;
        value           nonuniform List<vector> 
30
(
(0 -1.724275871e-10 -6.80608923e-11)
(0 -1.782915463e-10 -7.569583896e-11)
(0 -1.905300831e-10 -8.934590146e-11)
(0 -2.096303633e-10 -1.076125542e-10)
(0 -2.361838327e-10 -1.294212502e-10)
(0 -2.708241676e-10 -1.539652672e-10)
(0 -3.141541557e-10 -1.80591134e-10)
(0 -3.6657714e-10 -2.0864684e-10)
(0 -4.280046096e-10 -2.372771311e-10)
(0 -4.97339024e-10 -2.650999111e-10)
(0 -5.714631197e-10 -2.896847072e-10)
(0 -6.430538382e-10 -3.068013548e-10)
(0 -6.957718004e-10 -3.097945769e-10)
(0 -6.943457364e-10 -2.904435514e-10)
(0 -5.747596498e-10 -2.452691192e-10)
(0 -2.227209678e-10 -1.659187424e-10)
(0 1.401344648e-11 -1.25059427e-11)
(0 2.374488489e-11 -1.558672384e-12)
(0 1.940698725e-11 2.207816995e-12)
(0 1.323728136e-11 1.647851632e-11)
(0 4.684128981e-12 1.323690253e-11)
(0 7.594740574e-13 1.133884152e-11)
(0 -1.489480763e-12 9.281034122e-12)
(0 -3.747860377e-12 9.103408614e-12)
(0 -7.39542201e-12 7.984685201e-12)
(0 -1.410323583e-11 6.431316445e-12)
(0 -1.368449564e-11 -1.510404687e-11)
(0 -3.092975449e-12 -2.47501756e-11)
(0 -1.773443139e-11 -8.425506206e-12)
(0 -1.883164618e-11 5.715708208e-11)
)
;
    }
}


// ************************************************************************* //
