/*--------------------------------*- C++ -*----------------------------------*\
  =========                 |
  \\      /  F ield         | OpenFOAM: The Open Source CFD Toolbox
   \\    /   O peration     | Website:  https://openfoam.org
    \\  /    A nd           | Version:  10
     \\/     M anipulation  |
\*---------------------------------------------------------------------------*/
FoamFile
{
    format      ascii;
    class       volScalarField;
    location    "0.0003";
    object      TRHS;
}
// * * * * * * * * * * * * * * * * * * * * * * * * * * * * * * * * * * * * * //

dimensions      [1 -1 -3 0 0 0 0];

internalField   nonuniform List<scalar> 
3600
(
-2.094834901e-12
2.390602881e-10
7.01016901e-10
6.339787713e-10
-9.450873329e-11
-1.024175768e-09
-1.541818912e-09
-1.234166815e-09
-2.67082645e-10
6.889162463e-10
8.871974208e-10
-1.094405268e-10
-1.964668613e-09
-3.877713619e-09
-5.117724089e-09
-5.445042761e-09
-5.344755012e-09
-5.581691036e-09
-6.622161575e-09
-8.029388181e-09
-8.615825146e-09
-7.287688994e-09
-3.917969939e-09
2.360607224e-10
3.270974418e-09
4.091671518e-09
2.996912421e-09
1.596034781e-09
1.262759932e-09
1.862085502e-09
2.102850088e-09
1.122139066e-09
-4.500920096e-10
-1.038010533e-09
3.175413893e-11
1.539905439e-09
2.0366484e-09
1.966946316e-09
3.091033637e-09
8.671747725e-08
2453.701564
0
0
0
0
0
0
0
0
0
0
0
0
0
0
0
0
0
0
0
5.121214759e-10
9.397314475e-10
7.130074373e-10
-5.585380132e-10
-2.134848358e-09
-2.990966689e-09
-2.591623664e-09
-1.126558844e-09
3.344668456e-10
5.08517101e-10
-1.031807906e-09
-3.841770675e-09
-6.773301011e-09
-8.701108695e-09
-9.396089609e-09
-9.602300211e-09
-1.047917594e-08
-1.235619881e-08
-1.431963494e-08
-1.464624695e-08
-1.194743365e-08
-6.498522759e-09
-2.977048551e-10
4.02198782e-09
4.857445732e-09
3.30370812e-09
1.804412951e-09
2.053410536e-09
3.56059759e-09
4.191404555e-09
2.525312229e-09
-2.728239408e-10
-1.466757696e-09
9.460264333e-11
2.63629027e-09
3.920914912e-09
4.494577785e-09
6.645522238e-09
8.760869134e-09
-1.82115518e-08
-642.6556913
0
0
0
0
0
0
0
0
0
0
0
0
0
0
0
0
0
0
0
5.322695277e-10
4.933999472e-10
-5.378103292e-10
-2.306444738e-09
-3.79857956e-09
-4.163905332e-09
-3.162361072e-09
-1.468841933e-09
-1.043963164e-10
5.58011356e-11
-1.060341421e-09
-2.805180275e-09
-4.354682027e-09
-5.335100918e-09
-6.07682492e-09
-7.225091778e-09
-9.209721956e-09
-1.152341415e-08
-1.28520531e-08
-1.207758945e-08
-9.157722368e-09
-5.432246781e-09
-2.666670961e-09
-1.560245123e-09
-1.552364547e-09
-1.080950669e-09
9.530471568e-10
3.743409158e-09
5.178813995e-09
3.866689054e-09
7.686486109e-10
-1.383835968e-09
-8.39906378e-10
1.341016148e-09
2.940789819e-09
3.700586987e-09
5.350180097e-09
8.175853659e-09
8.022874582e-09
-5.721687338e-08
-1692.732159
0
0
0
0
0
0
0
0
0
0
0
0
0
0
0
0
0
0
0
1.677972062e-10
-4.923845264e-10
-2.319927112e-09
-4.300076022e-09
-5.517247333e-09
-5.40711111e-09
-4.035320388e-09
-2.181586825e-09
-6.613524032e-10
1.117708577e-10
1.710576849e-10
-1.951809464e-10
-7.525043715e-10
-1.687536361e-09
-3.367836673e-09
-5.714443685e-09
-8.102101691e-09
-9.695945814e-09
-1.002211442e-08
-9.326748861e-09
-8.440030582e-09
-8.120811589e-09
-8.369931758e-09
-8.128353118e-09
-6.039441051e-09
-2.087426129e-09
2.261719307e-09
4.902265002e-09
4.571365344e-09
2.187880398e-09
1.505162607e-10
1.01018848e-10
1.525283796e-09
2.681179135e-09
3.126656842e-09
3.930329746e-09
5.266716023e-09
5.039236798e-09
-3.324244453e-10
-3.731172637e-08
-1047.576034
0
0
0
0
0
0
0
0
0
0
0
0
0
0
0
0
0
0
0
-3.708266196e-10
-1.728221814e-09
-4.032492691e-09
-6.094377434e-09
-6.945176428e-09
-6.419936724e-09
-4.836887159e-09
-2.743255935e-09
-7.235039272e-10
9.806659278e-10
2.305194078e-09
2.956594072e-09
2.537273681e-09
7.825267566e-10
-2.002365466e-09
-4.829979544e-09
-6.664542626e-09
-7.148898036e-09
-7.099719284e-09
-7.817968182e-09
-9.963696753e-09
-1.258320241e-08
-1.344505434e-08
-1.109937585e-08
-5.982784684e-09
-4.386119458e-10
2.996644048e-09
3.54744863e-09
2.632004773e-09
2.189176553e-09
2.908604261e-09
3.81153581e-09
3.698300346e-09
2.873481296e-09
2.541577579e-09
2.695739353e-09
1.482645186e-09
-2.199577874e-09
-5.102667694e-09
-2.371951363e-08
-688.1348663
0
0
0
0
0
0
0
0
0
0
0
0
0
0
0
0
0
0
0
-9.75085159e-10
-2.806956452e-09
-5.372581635e-09
-7.268519859e-09
-7.767467773e-09
-6.902496154e-09
-5.107984151e-09
-2.737168177e-09
-1.017020502e-10
2.495421859e-09
4.597501425e-09
5.407745849e-09
4.342066016e-09
1.585155266e-09
-1.686989134e-09
-3.955834885e-09
-4.62817044e-09
-4.434707435e-09
-5.169585101e-09
-7.97065563e-09
-1.195811091e-08
-1.461192687e-08
-1.351752801e-08
-8.845235507e-09
-3.319481176e-09
1.095899455e-10
9.713415875e-10
1.302028075e-09
3.018453467e-09
5.745602465e-09
7.249414347e-09
6.172787129e-09
3.654977304e-09
1.971918946e-09
1.51669956e-09
3.215314372e-10
-2.592709742e-09
-4.301462487e-09
-7.591732006e-10
-8.890229006e-08
-2598.893827
0
0
0
0
0
0
0
0
0
0
0
0
0
0
0
0
0
0
0
-1.402893149e-09
-3.548642891e-09
-6.095922275e-09
-7.60065601e-09
-7.739568425e-09
-6.618471994e-09
-4.592048257e-09
-1.95491449e-09
1.050836809e-09
3.950534177e-09
5.923117884e-09
6.042991504e-09
4.10072613e-09
9.254455906e-10
-1.865808641e-09
-2.929300171e-09
-2.582164118e-09
-2.510680086e-09
-4.43190192e-09
-8.229122232e-09
-1.150210139e-08
-1.156807589e-08
-8.05310015e-09
-3.607229648e-09
-1.346523369e-09
-1.521125747e-09
-1.340855485e-09
1.657213491e-09
6.544418336e-09
9.655006108e-09
8.668433234e-09
5.22997608e-09
2.80180415e-09
2.427265329e-09
1.942228765e-09
-2.483123821e-10
-2.094515661e-09
-1.084926085e-09
-8.527857521e-10
-1.257147748e-07
-3566.016016
0
0
0
0
0
0
0
0
0
0
0
0
0
0
0
0
0
0
0
-1.649953903e-09
-3.814299021e-09
-6.037149056e-09
-7.109072411e-09
-6.806668055e-09
-5.371360897e-09
-3.169334988e-09
-5.446804034e-10
2.175010139e-09
4.461369337e-09
5.500084057e-09
4.608454231e-09
2.174677382e-09
-5.119204048e-10
-2.046599137e-09
-1.950869909e-09
-1.357983995e-09
-1.856408521e-09
-3.897387914e-09
-6.034100033e-09
-6.071940876e-09
-3.533798438e-09
-3.958622589e-10
3.844767839e-10
-1.509512253e-09
-2.974422121e-09
-7.230224986e-10
4.720918196e-09
8.977625083e-09
8.834955586e-09
5.759327168e-09
3.885137241e-09
4.706968137e-09
5.409109302e-09
3.669924687e-09
1.202411602e-09
-8.308616544e-11
-3.392298665e-09
-1.108348952e-08
-6.009454734e-08
-1633.066766
0
0
0
0
0
0
0
0
0
0
0
0
0
0
0
0
0
0
0
-1.698634937e-09
-3.59624037e-09
-5.358314664e-09
-5.838781662e-09
-4.936290714e-09
-3.157437934e-09
-1.069775819e-09
9.966922384e-10
2.698599724e-09
3.559614975e-09
3.199437077e-09
1.577606571e-09
-4.927300702e-10
-1.901777066e-09
-2.071611552e-09
-1.44159897e-09
-1.081225865e-09
-1.414588414e-09
-1.566702558e-09
-3.49365655e-10
2.461705681e-09
5.115939521e-09
5.146810058e-09
1.840811147e-09
-1.687183168e-09
-1.558031236e-09
2.461242329e-09
6.19518157e-09
6.105642599e-09
3.524541502e-09
3.037096422e-09
6.004858504e-09
8.543514256e-09
7.367982318e-09
4.19982788e-09
1.931692919e-09
-1.846433929e-09
-1.021095815e-08
-1.190384944e-08
-5.840334485e-08
-1734.21235
0
0
0
0
0
0
0
0
0
0
0
0
0
0
0
0
0
0
0
-1.532621544e-09
-3.10950182e-09
-4.139868813e-09
-3.80401256e-09
-2.334529273e-09
-3.95180066e-10
1.288414588e-09
2.24837834e-09
2.214619261e-09
1.198583944e-09
-3.469016935e-10
-1.856754263e-09
-2.762426169e-09
-2.81667325e-09
-2.270795051e-09
-1.618513052e-09
-1.02482489e-09
1.973895996e-10
2.796643239e-09
6.336434606e-09
9.572038215e-09
1.009213462e-08
7.06523002e-09
2.59132886e-09
7.671028288e-10
2.219675225e-09
3.666431367e-09
2.351173462e-09
-6.030906297e-10
-3.62129709e-10
4.63752483e-09
9.179803941e-09
8.761019232e-09
5.6468831e-09
3.837599423e-09
1.559221533e-09
-4.059112884e-09
-7.418323012e-09
4.07809681e-10
-1.340149321e-07
-3954.876332
0
0
0
0
0
0
0
0
0
0
0
0
0
0
0
0
0
0
0
-1.26604557e-09
-2.296989356e-09
-2.538385908e-09
-1.424394635e-09
5.870538747e-10
2.509328002e-09
3.343821827e-09
2.637312559e-09
6.440844418e-10
-1.843670761e-09
-3.836598903e-09
-4.586655054e-09
-4.202747903e-09
-3.349282958e-09
-2.593662497e-09
-1.856373474e-09
-1.209121547e-10
3.195164954e-09
7.557569211e-09
1.170902119e-08
1.298612843e-08
1.094791419e-08
7.2986124e-09
5.151645e-09
5.01735165e-09
4.035236598e-09
6.26422102e-10
-3.686934506e-09
-4.158538944e-09
1.18658807e-09
6.924660361e-09
7.271551572e-09
4.728572176e-09
4.694590162e-09
5.331846052e-09
1.583708911e-09
-1.72196769e-09
1.815961808e-09
-2.920360358e-10
-5.62495325e-08
-1583.81874
0
0
0
0
0
0
0
0
0
0
0
0
0
0
0
0
0
0
0
-9.129610868e-10
-1.381975782e-09
-8.882516698e-10
9.126939413e-10
3.262428614e-09
4.816574342e-09
4.439731271e-09
1.98341528e-09
-1.585654867e-09
-4.686875977e-09
-6.220569958e-09
-5.853325583e-09
-4.514571474e-09
-3.459127592e-09
-2.798685125e-09
-1.439216649e-09
1.72188491e-09
6.323426582e-09
1.128994719e-08
1.367078118e-08
1.286478597e-08
1.06653526e-08
9.354756003e-09
9.038908938e-09
7.245760448e-09
2.611671184e-09
-3.467022907e-09
-5.711833655e-09
-1.502543274e-09
3.933799306e-09
4.090270494e-09
2.007280436e-09
4.121828242e-09
7.855336153e-09
6.059332295e-09
8.887567806e-10
1.382275138e-09
1.214748075e-09
-7.133033883e-09
2.254362439e-08
539.8868261
0
0
0
0
0
0
0
0
0
0
0
0
0
0
0
0
0
0
0
-5.743260034e-10
-5.686343291e-10
4.5416497e-10
2.619921976e-09
4.87272372e-09
5.713005936e-09
4.144792469e-09
5.182698957e-10
-3.643343424e-09
-6.432607808e-09
-6.975793027e-09
-5.68420134e-09
-3.99229048e-09
-3.105686054e-09
-2.347858846e-09
-1.508285823e-10
3.874375179e-09
8.63910816e-09
1.162285706e-08
1.22336921e-08
1.152282457e-08
1.10227589e-08
1.157160957e-08
1.105834811e-08
6.751148603e-09
-1.975741907e-10
-3.781505948e-09
-1.083387076e-09
2.93236953e-09
1.890241904e-09
-6.859605902e-10
2.737324673e-09
8.961616913e-09
7.893941947e-09
1.778667574e-09
6.708812271e-10
1.886727985e-09
-5.449526111e-10
1.060480356e-08
-1.020574792e-07
-3239.545205
0
0
0
0
0
0
0
0
0
0
0
0
0
0
0
0
0
0
0
-3.447200807e-10
-8.06849406e-11
1.023017911e-09
3.02448386e-09
4.756038652e-09
4.771711061e-09
2.401495786e-09
-1.505298338e-09
-5.049277963e-09
-6.544698927e-09
-5.703971258e-09
-4.038996313e-09
-2.87346021e-09
-2.312124559e-09
-1.264675972e-09
1.48690441e-09
5.34926854e-09
8.442484864e-09
9.444791503e-09
9.124517587e-09
9.007527859e-09
1.055113524e-08
1.1871022e-08
9.319754546e-09
3.469890622e-09
5.517975013e-11
2.026505714e-09
4.853231943e-09
2.410792481e-09
-1.601965605e-09
1.661671129e-09
9.505330434e-09
9.040516616e-09
8.347766561e-10
-3.847917833e-10
4.226820456e-09
2.799236645e-09
1.06804772e-08
2.256660661e-08
-9.498819273e-08
-2862.414177
0
0
0
0
0
0
0
0
0
0
0
0
0
0
0
0
0
0
0
-3.298127351e-10
-1.920821057e-10
4.108974413e-10
1.721044324e-09
2.675727172e-09
2.023255505e-09
-4.590784542e-10
-3.698396922e-09
-5.28578792e-09
-4.468547704e-09
-3.010361688e-09
-1.810337271e-09
-1.292184471e-09
-1.160492288e-09
-1.159221467e-10
2.250404672e-09
4.788413806e-09
5.762069723e-09
5.338232207e-09
5.250324083e-09
6.858319337e-09
8.963105222e-09
8.380673724e-09
4.850385129e-09
2.717838079e-09
5.106507244e-09
8.018450651e-09
5.239535717e-09
-1.98738174e-10
1.4747743e-09
9.269996277e-09
9.498522693e-09
2.280940283e-10
-1.857475179e-09
5.296527379e-09
4.945118417e-09
4.966133056e-09
1.520648788e-08
1.014611472e-08
5.941939505e-09
-26.57886487
0
0
0
0
0
0
0
0
0
0
0
0
0
0
0
0
0
0
0
-6.168933134e-10
-1.046701854e-09
-1.438194074e-09
-1.149087718e-09
-9.950738608e-10
-1.956062704e-09
-3.820761331e-09
-5.264178908e-09
-3.92251357e-09
-2.157991289e-09
-8.85876434e-10
1.752574462e-11
4.113819025e-10
5.931038266e-11
3.976619783e-10
1.383030562e-09
1.951075392e-09
1.757282462e-09
1.777537586e-09
3.134864328e-09
5.078591852e-09
5.212357815e-09
3.120299608e-09
2.224884447e-09
5.444866227e-09
9.535683928e-09
8.121739611e-09
2.525560906e-09
2.282104631e-09
8.785871125e-09
9.335774259e-09
2.208897782e-11
-2.256231648e-09
6.673215747e-09
5.256699386e-09
-1.943550888e-10
7.774267942e-09
5.685851575e-09
1.519009216e-08
-2.369529398e-07
-7212.584203
0
0
0
0
0
0
0
0
0
0
0
0
0
0
0
0
0
0
0
-1.211106662e-09
-2.520917526e-09
-4.091192064e-09
-4.840332752e-09
-5.318358761e-09
-6.21117359e-09
-6.978515667e-09
-5.669567036e-09
-2.933714286e-09
-1.020321749e-09
6.361980923e-10
1.881610997e-09
1.986189858e-09
8.506915965e-10
7.303627658e-11
-4.81442803e-10
-8.937430228e-10
-6.345044902e-10
6.796878861e-10
2.252791674e-09
2.270996761e-09
3.721390235e-10
-4.868503738e-10
2.710117036e-09
7.779302961e-09
8.605652643e-09
4.546670915e-09
3.41225226e-09
8.377793758e-09
9.360229474e-09
9.014755763e-10
-2.115734819e-09
6.990237785e-09
6.131853985e-09
-4.976786534e-09
5.553943619e-09
8.570849459e-09
3.491455277e-09
6.636395783e-09
-3.719001408e-06
-110167.3922
0
0
0
0
0
0
0
0
0
0
0
0
0
0
0
0
0
0
0
-1.973839225e-09
-4.195919533e-09
-6.696123434e-09
-8.165768959e-09
-9.01221476e-09
-9.593154858e-09
-8.97581529e-09
-5.738359469e-09
-2.401001211e-09
-1.43285979e-10
2.019724343e-09
3.469164858e-09
2.666725727e-09
9.87961887e-10
-6.536972319e-10
-1.73370287e-09
-1.6373976e-09
-1.860797992e-10
1.407307991e-09
1.228242718e-09
-1.061723033e-09
-2.938020638e-09
-1.142632098e-09
3.49603203e-09
5.974080783e-09
4.271554749e-09
3.647100493e-09
7.870014623e-09
9.559639056e-09
2.844153444e-09
-5.146495579e-10
7.438490039e-09
7.219314366e-09
-5.107035799e-09
-9.381347988e-12
8.353568667e-09
1.855537118e-09
2.029573719e-08
1.804535314e-09
2.416387133e-06
71501.96365
0
0
0
0
0
0
0
0
0
0
0
0
0
0
0
0
0
0
0
-2.633984412e-09
-5.437567395e-09
-8.225939001e-09
-9.897041113e-09
-1.084284703e-08
-1.108654618e-08
-9.372983477e-09
-5.415763535e-09
-1.791204149e-09
4.54390829e-10
2.915498335e-09
3.734946318e-09
2.740605853e-09
9.278317327e-10
-6.638925705e-10
-9.785128107e-10
4.091153556e-10
2.272418528e-09
2.340431865e-09
-1.98495618e-10
-3.305941269e-09
-3.677954568e-09
-9.975865895e-10
1.388762404e-09
1.410252033e-09
2.118155849e-09
6.514274401e-09
9.571563808e-09
5.432561785e-09
1.962756564e-09
8.180108603e-09
9.470556437e-09
-2.016014675e-09
9.376125744e-10
4.825056022e-09
-7.11568461e-09
1.801792175e-08
4.30760464e-09
-1.164475834e-09
10423.72468
749381.9203
0
0
0
0
0
0
0
0
0
0
0
0
0
0
0
0
0
0
0
-2.876880038e-09
-5.629005901e-09
-7.934036989e-09
-9.281293851e-09
-1.011202409e-08
-1.015876653e-08
-8.135327371e-09
-4.758976575e-09
-1.623678254e-09
3.975976551e-10
2.50624842e-09
3.06757952e-09
2.561864348e-09
1.446040773e-09
1.037453953e-09
2.228074982e-09
4.263889442e-09
4.842997426e-09
2.473413413e-09
-1.446379955e-09
-3.77741907e-09
-3.58104067e-09
-2.875302388e-09
-2.893337202e-09
-1.371236342e-09
3.666188241e-09
8.274843645e-09
7.267673854e-09
5.316795318e-09
9.46006296e-09
1.111163205e-08
2.320007045e-09
1.665987752e-09
8.007689313e-09
-2.603787301e-09
9.116009311e-09
-1.627494611e-08
9.199030619e-09
1.169635247e-08
2.404147962e+12
94300.24107
0
0
0
0
0
0
0
0
0
0
0
0
0
0
0
0
0
0
0
-2.484276978e-09
-4.452663224e-09
-5.640734372e-09
-6.403486332e-09
-7.035412916e-09
-7.173482485e-09
-5.843900035e-09
-3.894425463e-09
-2.043548789e-09
-4.03678423e-10
1.176073274e-09
2.102962035e-09
2.586567725e-09
3.062790103e-09
4.48531763e-09
6.743522314e-09
7.899830325e-09
6.018664523e-09
1.827543129e-09
-1.82530326e-09
-3.594062448e-09
-4.933867476e-09
-6.490426628e-09
-5.638866657e-09
-6.11926034e-10
5.028556844e-09
6.715714041e-09
7.000081486e-09
1.122170351e-08
1.377002874e-08
7.238200675e-09
3.881331841e-09
6.251355316e-09
2.159270066e-09
7.706414295e-09
-7.06748386e-09
-1.385448959e-09
-1.573448148e-08
-5.509929377e+10
-8.388461435e+13
-145370.0594
0
0
0
0
0
0
0
0
0
0
0
0
0
0
0
0
0
0
0
-1.470300683e-09
-2.133710738e-09
-1.939023853e-09
-2.049299951e-09
-2.587004086e-09
-3.0896819e-09
-3.154013082e-09
-2.90334021e-09
-2.856671017e-09
-2.102904982e-09
-4.794137931e-10
1.332581439e-09
3.322651125e-09
5.635697448e-09
8.467426795e-09
1.046678813e-08
9.505219751e-09
5.53726183e-09
1.218647529e-09
-1.581990024e-09
-4.140594171e-09
-7.440347265e-09
-8.506251621e-09
-4.637971122e-09
8.98344331e-10
3.628439322e-09
5.65103107e-09
1.050392793e-08
1.406400132e-08
1.195986046e-08
8.737745457e-09
8.444034238e-09
5.965753635e-09
2.046332664e-09
-2.865597556e-08
-5.037308791e-06
-0.0001755944828
-0.003198724653
9.357012362e+11
-1.340038975e+13
0
0
0
0
0
0
0
0
0
0
0
0
0
0
0
0
0
0
0
0
-7.72502353e-11
6.408731205e-10
1.954051543e-09
2.381476078e-09
1.856736326e-09
9.246172102e-10
-5.558517061e-10
-2.280833127e-09
-3.524016184e-09
-3.372904862e-09
-1.521830859e-09
1.320402376e-09
4.561774325e-09
8.148869416e-09
1.124542674e-08
1.174832425e-08
8.714854848e-09
4.343059803e-09
1.294027787e-09
-1.167232319e-09
-5.02750625e-09
-8.084479378e-09
-6.329492725e-09
-1.842495162e-09
2.269327631e-10
1.933741608e-09
7.500649508e-09
1.215699598e-08
1.137283646e-08
1.077927183e-08
1.075760771e-08
1.019401014e-08
1.071058957e-08
-4.490605852e-09
-1.941245839e-06
-0.000295849617
-0.006067071248
4.638660184e+11
-3.054954613e+12
0
0
0
0
0
0
0
0
0
0
0
0
0
0
0
0
0
0
0
0
0
1.244213179e-09
2.920725579e-09
4.700486425e-09
5.444703502e-09
5.101004471e-09
3.780159277e-09
1.307421452e-09
-1.579949703e-09
-3.518115524e-09
-3.117597841e-09
-1.011536625e-09
1.970187094e-09
5.511777694e-09
9.17748422e-09
1.13659783e-08
1.01782846e-08
6.589339006e-09
3.822386492e-09
2.444648626e-09
-2.16283411e-10
-3.904226381e-09
-4.217361018e-09
-1.205627149e-09
-6.665903052e-10
-1.685628861e-09
2.536775106e-09
8.433627715e-09
9.658082059e-09
1.069808095e-08
1.137056195e-08
1.160059471e-08
1.737475248e-08
4.641320932e-09
-1.657048408e-07
-7.697183241e-05
-0.007267226613
3.205458595e+12
-5.737690781e+12
0
0
0
0
0
0
0
0
0
0
0
0
0
0
0
0
0
0
0
0
0
0
2.065894898e-09
4.000649548e-09
5.539257801e-09
6.31458566e-09
6.345285952e-09
5.04137552e-09
2.351034233e-09
-4.528510141e-10
-1.809530231e-09
-1.247717019e-09
3.311104889e-10
2.413592462e-09
5.108863612e-09
7.786235898e-09
8.557521625e-09
6.724757491e-09
4.808578907e-09
4.916150559e-09
4.824751828e-09
2.435280078e-09
1.119323413e-09
3.125495313e-09
2.869760135e-09
-1.742789868e-09
-2.043251822e-09
2.724993147e-09
3.442558061e-09
5.627377642e-09
1.128222663e-08
7.236241978e-09
1.892338465e-08
1.001573352e-08
1.972389739e-08
-5.139193879e-06
-0.001469285904
-8.601837634e+12
-1.339948805e+13
0
0
0
0
0
0
0
0
0
0
0
0
0
0
0
0
0
0
0
0
0
0
0
2.046783482e-09
3.582214407e-09
4.420758785e-09
5.104754377e-09
5.597931753e-09
4.913873609e-09
3.015345038e-09
1.522329527e-09
1.299917839e-09
1.648787279e-09
1.557242491e-09
1.554789441e-09
2.605026505e-09
3.903891608e-09
3.8036618e-09
3.166350305e-09
4.661251501e-09
7.56719274e-09
8.173685871e-09
7.228717092e-09
8.676466997e-09
9.170888418e-09
3.066595069e-09
-2.433316212e-09
-5.513915497e-10
-1.36455462e-09
-3.384465008e-09
5.860840052e-09
7.660396807e-09
1.365208107e-08
1.286647119e-08
1.743451334e-08
2.135458968e-08
-0.0001000849985
-1.958569791e+13
-7.602464947e+12
0
0
0
0
0
0
0
0
0
0
0
0
0
0
0
0
0
0
0
0
0
0
0
0
1.221958118e-09
1.819573363e-09
1.83561022e-09
2.48965899e-09
3.361802602e-09
3.68032841e-09
3.604484129e-09
4.21786516e-09
4.914317646e-09
4.057297483e-09
1.339434931e-09
-1.111140791e-09
-1.66451656e-09
-1.399999744e-09
-1.14841149e-09
1.112679516e-09
6.315767309e-09
1.066366739e-08
1.153499934e-08
1.261029456e-08
1.439454158e-08
9.652501095e-09
5.948268003e-10
-1.030287776e-09
-1.428439772e-09
-8.274525851e-09
-2.096071594e-09
4.521966619e-09
5.62170297e-09
1.91488293e-08
1.883002769e-08
5.839482675e-09
-6.559473692e-08
-5.429240471e+12
-2.766263535e+14
-3071070.153
0
0
0
0
0
0
0
0
0
0
0
0
0
0
0
0
0
0
0
0
0
0
0
0
-8.147438228e-11
-6.897504668e-10
-1.500251483e-09
-8.838577712e-10
3.187634542e-10
1.809786786e-09
4.106603591e-09
6.792040582e-09
7.51535933e-09
4.472691342e-09
-8.859143449e-10
-4.935284148e-09
-6.324264665e-09
-6.341900532e-09
-4.460481809e-09
1.314639896e-09
8.642067528e-09
1.230375286e-08
1.314400354e-08
1.5275509e-08
1.393995248e-08
4.760824579e-09
-1.171051708e-09
-1.247165811e-09
-9.74410933e-09
-1.11916089e-08
6.540769519e-10
-2.521968204e-09
1.454210866e-08
1.340685995e-08
2.598820569e-08
-1.034720328e-08
-6420.96002
2.728988281e+13
-1.22203106e+13
0
0
0
0
0
0
0
0
0
0
0
0
0
0
0
0
0
0
0
0
0
0
0
0
0
-1.431730345e-09
-3.147773201e-09
-4.769529713e-09
-4.480899915e-09
-3.031383123e-09
-2.397674395e-10
4.301772942e-09
8.187981374e-09
7.886860921e-09
2.607587832e-09
-4.077817092e-09
-8.197136771e-09
-9.609400735e-09
-9.194215793e-09
-4.983102729e-09
3.206090571e-09
9.632426372e-09
1.083650641e-08
1.167663651e-08
1.309591824e-08
7.752517842e-09
3.842524881e-10
1.246628567e-09
-3.758173048e-09
-1.340542964e-08
-1.973856473e-09
-3.596826267e-09
2.436200098e-09
-1.234701529e-09
2.415184642e-08
-1.079609532e-09
-3.240659831e-07
-3.674210199e+13
-2.320903098e+13
-137521.6411
0
0
0
0
-5235.239655
0
0
0
0
0
0
0
0
0
0
0
0
0
0
0
0
0
0
0
0
-2.557243129e-09
-5.014228479e-09
-7.567307772e-09
-7.833127722e-09
-6.301261029e-09
-2.211842394e-09
3.863369107e-09
7.759973902e-09
5.917425016e-09
-3.58030112e-10
-6.202523419e-09
-9.125701828e-09
-1.02764477e-08
-9.043689978e-09
-2.891339687e-09
4.960156099e-09
7.474463848e-09
6.130939453e-09
7.360857632e-09
6.836696165e-09
7.565015675e-10
1.116158388e-09
4.10337147e-09
-6.517091004e-09
-5.812346188e-09
-1.354707277e-09
2.298803581e-09
3.751913133e-09
1.173843176e-08
-1.147612836e-08
-4.972224254e-09
-18917.50945
-4.863211151e+12
-7.218439709e+13
461898.1479
0
36530.62002
-2823110.16
1759389.603
4893451.422
5095964.439
0
0
0
0
0
0
0
0
0
0
0
0
0
0
0
0
0
0
0
-2.792078267e-09
-6.090504306e-09
-9.646397613e-09
-1.052854292e-08
-8.874792649e-09
-3.714419095e-09
2.78215124e-09
5.632312518e-09
2.676550495e-09
-2.505176111e-09
-5.691116666e-09
-7.160420739e-09
-8.203980023e-09
-6.077246519e-09
4.024912315e-10
4.456691163e-09
1.790531282e-09
-3.115501551e-10
1.367857049e-09
-1.090572274e-09
-2.876432081e-09
4.4866286e-09
3.03480143e-09
-1.277559267e-09
4.280748637e-09
-5.52240111e-09
-2.633955943e-09
6.910652206e-09
-4.741447847e-09
8.38385057e-09
-2.257354634e-08
-77968.37017
-1215427.447
-1.910322452e+13
-1.110726528e+13
1.950273055e+11
-2.451589666e+12
-1.104617516e+13
6.873257827e+11
-3.728845485e+12
-2115814.745
0
0
0
0
0
0
0
0
0
0
0
0
0
0
0
0
0
0
0
-2.61535966e-09
-6.934578063e-09
-1.065664006e-08
-1.211548557e-08
-1.011378823e-08
-4.361021333e-09
1.322703532e-09
2.480807376e-09
-4.077659803e-10
-2.62267439e-09
-2.697224203e-09
-3.370496382e-09
-4.239540296e-09
-1.221748667e-09
3.336499184e-09
1.410064256e-09
-4.539031618e-09
-4.541729053e-09
-2.498768021e-09
-4.291665692e-09
1.598140831e-09
9.178970541e-09
4.373183984e-09
8.679610762e-09
2.176788856e-09
5.12946501e-09
-2.559767993e-09
8.711267497e-10
-1.459258049e-08
-1.451030141e-08
-6.908322684e-09
-7.805804182
-7.196155832
-8.860393845e+12
-1.843482797e+13
6.432876853e+13
-1.279623871e+13
4.135821189
8.620371803e+12
-1646309.579
-2181434.366
0
0
0
0
0
0
0
0
0
0
0
0
0
0
0
0
0
0
0
-2.553288188e-09
-6.868180073e-09
-1.075347611e-08
-1.218726173e-08
-9.630745256e-09
-4.134304569e-09
-4.806117107e-10
-1.074159392e-09
-2.541870114e-09
-1.096112191e-09
9.517060467e-10
3.608291485e-10
3.502075897e-10
3.879958092e-09
4.309269711e-09
-3.175497748e-09
-8.522971846e-09
-5.577463743e-09
-4.568351548e-09
-3.180456817e-09
7.654068067e-09
1.070761042e-08
1.016579184e-08
7.233017275e-09
4.939618066e-09
-1.119968117e-08
8.307993954e-09
-2.029559778e-08
1.658189867e-09
2.176681301e-09
-0.7274928641
-1.270634883
-5.841062196
-3.914480697e+12
8.62894291e+12
9633569790
1.450237956
15.68680737
7.970085439
-218319.2702
-328095.3138
0
0
0
0
0
0
0
0
0
0
0
0
0
0
0
0
0
0
0
-2.162758579e-09
-6.330331903e-09
-9.862252042e-09
-1.055891279e-08
-7.525199787e-09
-3.518721474e-09
-2.873253798e-09
-4.692594936e-09
-3.792548113e-09
6.820441485e-10
3.431868512e-09
3.152624828e-09
4.959097394e-09
7.688226926e-09
2.515654965e-09
-7.752871521e-09
-9.609849217e-09
-6.212969523e-09
-7.239355524e-09
-1.470675253e-09
8.608008921e-09
9.750526456e-09
1.30668978e-08
8.209580529e-09
2.041117999e-09
2.766624633e-09
4.644484252e-09
-9.273631234e-09
-1.482220682e-08
-1.80138275e-09
1.1616227
-2.3701028
9.207533192
1.616439536
-2.035481268e+12
-3.143172825e+12
3.8609776e+12
7.389754609
-0.5879879078
1.822906941e+12
-129737.7502
0
0
0
0
0
0
0
0
0
0
0
0
0
0
0
0
0
0
0
-1.729949636e-09
-5.407348355e-09
-7.863671568e-09
-7.361263495e-09
-4.453475423e-09
-3.304178951e-09
-6.024423933e-09
-8.11756628e-09
-4.608759697e-09
1.589538829e-09
4.499074901e-09
6.043185229e-09
1.026312441e-08
1.049516434e-08
5.5493892e-10
-7.952971008e-09
-5.718091794e-09
-4.961695512e-09
-6.855273378e-09
8.560586091e-10
6.59808703e-09
1.163243476e-08
8.272201327e-09
8.969750753e-09
-2.018007545e-09
2.223004335e-08
-2.146614984e-09
1.775543488e-09
-1.541985889e-09
-5.189019575e-09
1.089487842
5.687118926
-3.056392619
-12.17505495
-1.126328743e+12
2.339426065e+13
-2.045344937e+12
-4.066343997
8.445399644e+12
-2.015507176e+11
0
0
0
0
0
0
0
0
0
0
0
0
0
0
0
0
0
0
0
0
-1.306507608e-09
-4.044681698e-09
-4.783654868e-09
-3.10116827e-09
-1.388879142e-09
-4.01192247e-09
-9.525791352e-09
-1.081461894e-08
-5.201489406e-09
1.361953105e-09
4.834816009e-09
9.494377778e-09
1.489618189e-08
1.078568258e-08
-1.368665578e-09
-5.155881769e-09
-1.491873213e-09
-3.77237819e-09
-2.780689104e-09
2.863692437e-09
1.432306785e-09
3.987981995e-09
1.628060075e-08
1.190373819e-08
-1.437647824e-09
2.533513087e-09
7.39748819e-09
9.212640865e-09
7.416358404e-09
1.038407663e-09
-1.62954729
3.022564941
-3.469314043
-12.32189766
1.975966369
-4.676846829e+12
-1.548500781e+13
-1.868769323e+13
5.396655996e+11
-275520.4514
0
0
0
0
0
0
0
0
0
0
0
0
0
0
0
0
0
0
0
0
-8.60943928e-10
-2.208472664e-09
-9.227722108e-10
1.375776618e-09
7.621340817e-10
-5.49884603e-09
-1.219026504e-08
-1.166331646e-08
-4.855760254e-09
1.104000094e-09
5.649416561e-09
1.281007052e-08
1.626689035e-08
7.225759533e-09
-3.399301829e-09
-2.243060497e-09
-5.043648944e-10
-3.529306457e-09
8.968406733e-10
3.841605742e-09
5.445691156e-09
6.686278628e-09
1.0347128e-08
1.082743635e-09
2.163328977e-08
1.663135984e-08
9.249762974e-09
6.111196091e-09
1.232916595e-08
1.026180994e-09
-2.271729312
-0.03723507865
-4.824365773
0.2049115053
2.828986172
-5.361573996
2.101676049e+12
-2.2143262e+13
7.871186732e+12
9.645228911e+12
159699.7776
0
0
0
0
0
0
0
0
0
0
0
0
0
0
0
0
0
0
0
-3.250049495e-10
4.730223851e-11
3.00144632e-09
4.885353724e-09
1.275804575e-09
-7.323900595e-09
-1.28731721e-08
-9.757207487e-09
-2.622913192e-09
2.477968579e-09
8.224579282e-09
1.570796221e-08
1.480965337e-08
3.678887067e-09
-9.753507615e-10
3.998882016e-09
4.200184561e-09
5.431168686e-09
1.014934531e-08
5.288245819e-09
-1.068775544e-09
5.224079439e-09
1.678472974e-08
1.638825477e-08
1.909918105e-08
2.168401932e-08
2.024689598e-08
1.190178769e-08
5.665792752e-09
-8.308551833e-10
-3.145337105e-09
3.359706308
0.9493763631
2.222602515
-2.877802137
-11.88211302
-5.2987782
1.857699e+13
-2.473823309e+13
-7.29217638e+12
0
0
0
0
0
0
0
0
0
0
0
0
0
0
0
0
0
0
0
0
3.185464784e-10
2.424221234e-09
5.846818756e-09
6.010972389e-09
-3.975149558e-10
-9.24246309e-09
-1.156107752e-08
-5.884481791e-09
4.260871474e-10
4.263228212e-09
9.90286913e-09
1.442973976e-08
8.686163383e-09
1.792519774e-10
3.804128415e-09
1.060759111e-08
1.069649493e-08
1.30324264e-08
8.998628225e-09
5.565965155e-10
5.295683957e-09
1.239604081e-08
6.892284242e-09
9.702603406e-09
1.639036946e-08
2.673515202e-08
2.584242876e-08
9.194011035e-09
5.219832886e-12
2.597481105e-09
7.983166142e-11
-0.5394181796
4.477057713
-4.148908905
-12.14869445
-9.794717757
-1.615612681
10.04334478
-3.733173395e+12
-1.065937224e+12
-1.916341301e+12
0
0
0
0
0
0
0
0
0
0
0
0
0
0
0
0
0
0
0
9.021340328e-10
4.106921292e-09
6.308604538e-09
3.711705353e-09
-4.157994795e-09
-1.054084091e-08
-8.314936132e-09
-9.898578434e-10
3.107082632e-09
4.733127425e-09
7.962932717e-09
7.221313922e-09
-1.083138793e-09
-3.249682757e-09
6.262210765e-09
1.23985733e-08
1.545249795e-08
1.81227498e-08
8.322694914e-09
-5.328138264e-09
-8.456582176e-09
-2.59594246e-09
8.461842774e-09
2.005703363e-08
2.306455231e-08
2.077878456e-08
1.689489887e-08
4.220027514e-09
-5.44769601e-09
1.501115058e-09
6.376893634e-10
0.7469952604
0.5233439825
-4.300969289
-10.20130142
-4.723663872
1.934528411
9.674043536
17.01471448
-6.649962504e+12
1.824378233e+13
1.437737863e+12
0
0
0
0
0
0
0
0
0
0
0
0
0
0
0
0
0
0
1.082362471e-09
3.848888326e-09
3.262812084e-09
-1.980534228e-09
-8.920008982e-09
-9.853703009e-09
-2.511896894e-09
5.131267265e-09
6.068429699e-09
4.681868601e-09
4.071504015e-09
-8.618433092e-10
-6.298987861e-09
5.297507627e-10
1.282007359e-08
1.754729091e-08
2.096614839e-08
1.472548374e-08
-4.815282656e-09
-1.359199711e-08
-1.070061804e-08
5.031373076e-09
1.544664922e-08
2.366093868e-08
1.863828964e-08
1.159221593e-08
6.317090335e-09
2.852991712e-09
-3.136695884e-09
1.943119207e-09
9.874752623e-09
3.867623454e-09
4.280140781
-11.17780835
-3.483954913
-3.771905487
6.556516591
7.804040205
4.065134937
3.077189492
3.177858931e+12
2.599169321e+13
2.500924857e+12
6403.507778
0
0
0
0
0
0
0
0
0
0
0
0
0
0
0
0
5.891847237e-10
9.526129962e-10
-3.390858884e-09
-9.571467481e-09
-1.283536274e-08
-6.674610351e-09
4.802188734e-09
1.057076005e-08
7.393925408e-09
2.246121138e-09
-2.373054707e-09
-8.198684014e-09
-6.535694366e-09
6.802133135e-09
1.58227586e-08
1.559696905e-08
1.266182961e-08
2.148410485e-09
-5.000239336e-09
-1.215892622e-09
-2.55666134e-09
1.263676506e-08
1.198829553e-08
1.442176887e-08
9.148823982e-09
-4.331109996e-10
-3.582896469e-09
4.930072986e-09
4.744515066e-09
8.73750127e-09
1.166758474e-08
4.749060536e-09
-2.091005445e-09
-5.860585264
-5.174560617
3.831399176
3.545109532
0.9838238252
-1.522899892
7.162265671
4.696495713
6.272775185e+12
-6.195772094e+11
2.31920129e+13
1.174281585e+12
0
0
0
0
0
0
0
0
0
0
0
0
0
0
0
-6.180561705e-10
-3.644365136e-09
-1.122147501e-08
-1.575526126e-08
-1.314473157e-08
-1.06621206e-09
1.134690771e-08
1.253959349e-08
4.692891623e-09
-3.853573185e-09
-1.073037279e-08
-1.366045659e-08
-4.341495569e-09
1.041038418e-08
1.494389419e-08
1.496645192e-08
1.03708813e-08
-3.80246701e-09
-7.070199753e-09
-1.465884568e-09
2.585383507e-09
1.451116596e-08
7.778644276e-09
2.521725238e-09