/*--------------------------------*- C++ -*----------------------------------*\
  =========                 |
  \\      /  F ield         | OpenFOAM: The Open Source CFD Toolbox
   \\    /   O peration     | Website:  https://openfoam.org
    \\  /    A nd           | Version:  6
     \\/     M anipulation  |
\*---------------------------------------------------------------------------*/
FoamFile
{
    version     2.0;
    format      ascii;
    class       volScalarField;
    location    "0.004";
    object      TRHS;
}
// * * * * * * * * * * * * * * * * * * * * * * * * * * * * * * * * * * * * * //

dimensions      [1 -1 -3 0 0 0 0];

internalField   nonuniform List<scalar> 
600
(
8.409509998e-09
3.842523771e-09
8.463287385e-10
-1.296111995e-09
-2.852849873e-09
-3.888438134e-09
-4.20071709e-09
-3.300030802e-09
-2.880435661e-10
6.358179603e-09
1.928541854e-08
4.313968697e-08
8.567419446e-08
1.534044378e-07
2.087149456e-07
2.209803321e-07
-1.72482625e-07
21.92721345
18.22874913
0
0
0
0
0
0
0
-0.005972238653
20.34657071
-5.117159371e-05
-2.519401748e-10
1.068140657e-08
5.56546245e-09
2.095287617e-09
-4.065835623e-10
-2.173065588e-09
-3.248018527e-09
-3.396110344e-09
-2.071380667e-09
1.678221245e-09
9.284407002e-09
2.273082333e-08
4.435469395e-08
7.614859702e-08
1.175790085e-07
1.749510541e-07
2.70474356e-07
5.70930497e-07
-5.470778413e-05
-4.604627192e-05
441.0458492
132.9583696
126.7899674
66.44120738
117.6990121
105.8928943
360.0707085
-1.79685725e-07
-1.461331178e-07
-1.303474293e-08
7.125030585e-08
1.144660192e-08
6.224291748e-09
2.604513223e-09
-5.886203636e-11
-1.974491913e-09
-3.170886601e-09
-3.412489908e-09
-2.150379458e-09
1.526939605e-09
8.899175559e-09
2.142174717e-08
4.010406604e-08
6.415382069e-08
8.940059558e-08
1.155028344e-07
1.525880161e-07
2.013746251e-07
2.558414222e-07
7.124821816e-07
-0.002211536877
-0.0006554113317
-0.0006224748264
-0.0003180323844
-0.0005775872143
-0.0005205318966
-0.001805471224
-1.814033738e-07
-2.034840418e-07
-3.112764007e-07
-1.947993784e-07
1.087676243e-08
5.950242872e-09
2.455718119e-09
-2.127672198e-10
-2.236413794e-09
-3.646231427e-09
-4.222770428e-09
-3.444125329e-09
-3.941324865e-10
6.327286998e-09
1.866732238e-08
3.89692131e-08
6.923058984e-08
1.090519093e-07
1.644884894e-07
2.559209275e-07
5.51866558e-07
-4.390661327e-05
-2.758755663e-05
436.8921333
127.0402084
120.1428564
59.72073683
111.4271103
100.5996502
356.5225472
-2.261876601e-07
-1.612134948e-07
-2.548829669e-08
6.316245267e-08
9.213488255e-09
4.923675551e-09
1.772975833e-09
-7.772946638e-10
-2.884638046e-09
-4.593882393e-09
-5.740787164e-09
-5.891813421e-09
-4.224028768e-09
7.105028737e-10
1.14903383e-08
3.271932791e-08
7.213128028e-08
1.364129926e-07
1.8789972e-07
1.973257743e-07
-1.945286829e-07
17.63588928
10.89959331
0
0
0
0
0
0
0
-0.006186229415
17.08496159
-4.2952007e-05
-2.154444654e-10
6.786240926e-09
3.372238908e-09
7.180727907e-10
-1.628451904e-09
-3.798657591e-09
-5.864976477e-09
-7.757070091e-09
-9.235656003e-09
-9.840169885e-09
-8.752189278e-09
-4.329612266e-09
7.254043764e-09
3.604394834e-08
9.508706623e-08
2.638881586e-07
-0.0001045791848
41.55317049
0
0
0
0
0
0
0
0
0
0
0
391.8050893
-0.002065114083
3.986803785e-09
1.558641338e-09
-5.264931483e-10
-2.622298101e-09
-4.830912321e-09
-7.249498876e-09
-9.899704481e-09
-1.274594069e-08
-1.576675793e-08
-1.917924547e-08
-2.390405517e-08
-3.214929135e-08
-4.084891612e-08
1.815654579e-08
1.044477151e-07
-0.0006627572258
106.5547472
0
0
0
0
0
0
0
0
0
0
0
-0.005417580673
-2.511078054e-05
1.229039237e-09
-2.468016809e-10
-1.77703208e-09
-3.620035333e-09
-5.847995499e-09
-8.568633679e-09
-1.184999678e-08
-1.571279416e-08
-2.013112631e-08
-2.508635913e-08
-3.072515614e-08
-3.824559745e-08
-7.4972955e-08
-1.171342464e-07
-2.603688976e-07
156.4892919
0
0
0
0
0
0
0
0
0
0
0
0
0
-0.002528705261
-1.108408549e-09
-1.799309434e-09
-2.869871022e-09
-4.50381674e-09
-6.753559938e-09
-9.74712529e-09
-1.361501001e-08
-1.848535981e-08
-2.44551799e-08
-3.153020262e-08
-3.949251422e-08
-4.98543578e-08
-1.228255358e-07
-2.136242625e-07
-1.813310455e-07
-0.006212997051
0
0
0
0
0
0
0
0
0
0
0
0
0
0
-2.731909748e-09
-2.908113223e-09
-3.674720114e-09
-5.171362472e-09
-7.444950952e-09
-1.065135195e-08
-1.501245953e-08
-2.087580254e-08
-2.885222346e-08
-4.006178612e-08
-5.636676442e-08
-7.896519531e-08
-7.932355208e-08
-9.471830875e-08
-0.0001753736681
69.5680886
0
0
0
0
0
0
0
0
0
0
0
0
0
0
-3.476453266e-09
-3.463383338e-09
-4.111562812e-09
-5.549375407e-09
-7.818797073e-09
-1.107377809e-08
-1.553713145e-08
-2.156587922e-08
-2.97882019e-08
-4.136215685e-08
-5.81869852e-08
-8.15567096e-08
-8.290270256e-08
-1.000112928e-07
-0.0001753056585
69.53973364
0
0
0
0
0
0
0
0
0
0
0
0
0
0
-3.324041893e-09
-3.45001123e-09
-4.167678577e-09
-5.626129696e-09
-7.864014529e-09
-1.100123101e-08
-1.517358105e-08
-2.053142062e-08
-2.722557575e-08
-3.535165916e-08
-4.484432971e-08
-5.739169653e-08
-1.333920875e-07
-2.296539111e-07
-1.926800952e-07
-0.006215769986
0
0
0
0
0
0
0
0
0
0
0
0
0
0
-2.404061194e-09
-2.947296655e-09
-3.896652778e-09
-5.452698943e-09
-7.662763384e-09
-1.062112627e-08
-1.44019251e-08
-1.905988215e-08
-2.464159161e-08
-3.125575528e-08
-3.922507598e-08
-5.005236687e-08
-9.201453989e-08
-1.443658702e-07
-2.686842961e-07
156.406716
0
0
0
0
0
0
0
0
0
0
0
0
0
-0.00247837817
-9.636966114e-10
-2.108293847e-09
-3.398514424e-09
-5.106844346e-09
-7.298982694e-09
-1.005227055e-08
-1.339536875e-08
-1.733303765e-08
-2.192588329e-08
-2.75155413e-08
-3.517671118e-08
-4.727401555e-08
-6.070492885e-08
-6.337527628e-09
8.329436779e-08
-0.0006619035346
106.2901468
0
0
0
0
0
0
0
0
0
0
0
-0.005430656131
-2.640565848e-05
6.750209227e-10
-1.131533812e-09
-2.800313822e-09
-4.679437714e-09
-6.851049817e-09
-9.361653846e-09
-1.214886687e-08
-1.501844256e-08
-1.759650137e-08
-1.918481893e-08
-1.829356366e-08
-1.126606433e-08
1.15838806e-08
6.174596028e-08
2.137332925e-07
-0.0001040933884
41.34922237
0
0
0
0
0
0
0
0
0
0
0
391.1475364
-0.002065608438
2.176764417e-09
-2.258659908e-10
-2.238886639e-09
-4.276403461e-09
-6.431112815e-09
-8.718931399e-09
-1.098236353e-08
-1.283976733e-08
-1.35484072e-08
-1.17644573e-08
-4.990721267e-09
1.131843807e-08
4.497358919e-08
1.023772208e-07
1.432853121e-07
1.511285578e-07
-2.260059287e-07
17.2768163
10.02012392
0
0
0
0
0
0
0
-0.006133422172
18.12055558
-4.555901614e-05
-8.500694533e-11
3.250058603e-09
4.275335001e-10
-1.837244526e-09
-3.997591232e-09
-6.15936524e-09
-8.315204127e-09
-1.026229508e-08
-1.1529831e-08
-1.129234486e-08
-8.23492932e-09
-4.751895649e-10
1.433847418e-08
3.832430763e-08
7.144458169e-08
1.205411737e-07
2.057702511e-07
4.973712508e-07
-4.303424342e-05
-2.536520515e-05
435.2302211
128.5608766
122.6369614
62.44464494
113.9959277
102.5664572
357.0164545
-1.908800829e-07
-1.537798632e-07
-2.395486121e-08
8.199240301e-08
3.70525059e-09
7.064533809e-10
-1.677167997e-09
-3.914649342e-09
-6.115395192e-09
-8.271218943e-09
-1.016754863e-08
-1.132435854e-08
-1.092730124e-08
-7.793784002e-09
-5.245107364e-10
1.192834111e-08
2.897137525e-08
4.698483366e-08
6.670103094e-08
9.774116008e-08
1.455963668e-07
2.268665489e-07
6.761030091e-07
-0.00219259219
-0.0006481286377
-0.0006184153561
-0.0003150798948
-0.000575085263
-0.0005175344094
-0.001799388002
-1.939731912e-07
-2.087677814e-07
-3.259573698e-07
-1.792580652e-07
3.483355534e-09
5.732321979e-10
-1.784989704e-09
-4.050660474e-09
-6.32507306e-09
-8.620100482e-09
-1.073326522e-08
-1.221602211e-08
-1.223435611e-08
-9.488144099e-09
-2.080543928e-09
1.230535632e-08
3.579265371e-08
6.84322253e-08
1.170613752e-07
1.996298744e-07
4.928458029e-07
-4.248140291e-05
-2.471099166e-05
435.1811727
128.5486931
122.6854901
62.54606192
114.1376788
102.736998
357.160159
-2.121008747e-07
-1.72778651e-07
9.274706074e-09
7.41575789e-08
2.669183649e-09
8.531271332e-11
-2.130183696e-09
-4.374953347e-09
-6.763865263e-09
-9.319753715e-09
-1.192058533e-08
-1.419342439e-08
-1.542310941e-08
-1.424746547e-08
-8.194777415e-09
7.299398117e-09
4.003329387e-08
9.626868125e-08
1.338074928e-07
1.396050332e-07
-2.346208828e-07
17.05672269
9.759568854
0
0
0
0
0
0
0
-0.006121988256
18.3328613
-4.610307355e-05
-8.18533442e-11
)
;

boundaryField
{
    lowerWall
    {
        type            calculated;
        value           nonuniform 0();
    }
    atmosphere
    {
        type            calculated;
        value           nonuniform List<scalar> 
20
(
8.409509998e-09
1.068140657e-08
1.144660192e-08
1.087676243e-08
9.213488255e-09
6.786240926e-09
3.986803785e-09
1.229039237e-09
-1.108408549e-09
-2.731909748e-09
-3.476453266e-09
-3.324041893e-09
-2.404061194e-09
-9.636966114e-10
6.750209227e-10
2.176764417e-09
3.250058603e-09
3.70525059e-09
3.483355534e-09
2.669183649e-09
)
;
    }
    rightWall
    {
        type            empty;
    }
    leftWall
    {
        type            empty;
    }
    frontAndBack
    {
        type            calculated;
        value           nonuniform 0();
    }
    procBoundary2to0
    {
        type            processor;
        value           nonuniform List<scalar> 
30
(
4.460873553e-09
9.408849113e-10
-1.180880054e-09
-2.71257937e-09
-3.970992342e-09
-5.022022052e-09
-5.729306871e-09
-5.743941675e-09
-4.494154787e-09
-1.037234716e-09
6.373244628e-09
2.168184393e-08
5.499762565e-08
1.187126111e-07
2.939475074e-07
-0.000116359054
46.23581439
0
0
0
0
0
0
0
0
0
0
0
393.7128196
-0.002066295491
)
;
    }
    procBoundary2to3
    {
        type            processor;
        value           nonuniform List<scalar> 
20
(
-9.828763159e-05
-0.008773702983
-0.007212221876
-0.008774500233
-8.647299967e-05
427.410757
9.95338304
0
0
0
0
0
0
10.46709155
428.2645126
-3.379468263e-05
-0.008695011692
-0.007138562331
-0.008690896168
-2.985053753e-05
)
;
    }
    procBoundary2to4
    {
        type            processor;
        value           nonuniform List<scalar> 
30
(
1.48211469e-09
-6.322579705e-10
-2.619815298e-09
-4.826057321e-09
-7.345538131e-09
-1.025896023e-08
-1.353465531e-08
-1.702420792e-08
-2.036692829e-08
-2.288130079e-08
-2.307286415e-08
-1.733934192e-08
3.96235589e-09
5.239876281e-08
2.012152589e-07
-0.0001032177758
40.9977723
0
0
0
0
0
0
0
0
0
0
0
391.0692514
-0.002065449672
)
;
    }
}


// ************************************************************************* //
