/*--------------------------------*- C++ -*----------------------------------*\
  =========                 |
  \\      /  F ield         | OpenFOAM: The Open Source CFD Toolbox
   \\    /   O peration     | Website:  https://openfoam.org
    \\  /    A nd           | Version:  6
     \\/     M anipulation  |
\*---------------------------------------------------------------------------*/
FoamFile
{
    version     2.0;
    format      ascii;
    class       volVectorField;
    location    "0.0027";
    object      gradT;
}
// * * * * * * * * * * * * * * * * * * * * * * * * * * * * * * * * * * * * * //

dimensions      [0 -1 0 1 0 0 0];

internalField   nonuniform List<vector> 
9600
(
(0 -3.430483361e-08 -0.0001691418879)
(0 -1.029145014e-07 -0.0001692829199)
(0 -1.753358162e-07 -0.0001695611692)
(0 -2.401338353e-07 -0.0001699728272)
(0 -3.087435043e-07 -0.0001705217056)
(0 -3.773531697e-07 -0.0001712154245)
(0 -4.497744851e-07 -0.0001720425522)
(0 -5.183841554e-07 -0.0001730030886)
(0 -5.869938195e-07 -0.0001741084655)
(0 -6.556034868e-07 -0.0001753586861)
(0 -7.318364547e-07 -0.0001767423155)
(0 -7.966344694e-07 -0.000178274597)
(0 -8.690557848e-07 -0.0001799364756)
(0 -9.414771058e-07 -0.0001817508212)
(0 -1.013898416e-06 -0.0001837100073)
(0 -1.082508083e-06 -0.0001857987905)
(0 -1.158741053e-06 -0.0001880400407)
(0 -1.238785658e-06 -0.0001904337547)
(0 -1.303583677e-06 -0.000192976124)
(0 -1.379816649e-06 -0.0001956595255)
(0 -1.456049604e-06 -0.0001984953906)
(0 -1.532282568e-06 -0.0002014760994)
(0 -1.600892245e-06 -0.0002046130871)
(0 -1.684748495e-06 -0.000207894915)
(0 -1.75716981e-06 -0.0002113406449)
(0 -1.829591137e-06 -0.0002149274071)
(0 -1.909635738e-06 -0.0002186704444)
(0 -1.989680349e-06 -0.0002225735721)
(0 -2.069724974e-06 -0.0002266291671)
(0 -2.149769573e-06 -0.0002308562836)
(0 -2.229814185e-06 -0.0002352244324)
(0 -2.306047162e-06 -0.0002397564835)
(0 -2.38609176e-06 -0.0002444524327)
(0 -2.462324723e-06 -0.0002493008491)
(0 -2.538557702e-06 -0.0002543017331)
(0 -2.626225595e-06 -0.0002594703265)
(0 -2.706270207e-06 -0.0002647990106)
(0 -2.774879891e-06 -0.0002702763507)
(0 -2.862547782e-06 -0.0002759214)
(0 -2.942592394e-06 -0.0002817265402)
(0 -3.015013728e-06 -0.000287684148)
(0 -3.095058321e-06 -0.0002937942183)
(0 -3.163667988e-06 -0.000300049133)
(0 -3.239900971e-06 -0.0003064565154)
(0 -3.316133916e-06 -0.0003130201717)
(0 -3.380931935e-06 -0.0003197172376)
(0 -3.453353271e-06 -0.0003265553364)
(0 -3.521962917e-06 -0.0003335420855)
(0 -3.590572584e-06 -0.000340654621)
(0 -3.651558977e-06 -0.000347892943)
(0 -3.708733678e-06 -0.0003552570452)
(0 -3.762096752e-06 -0.0003627278756)
(0 -3.807836553e-06 -0.0003703092461)
(0 -3.861199605e-06 -0.0003779820916)
(0 -3.903127742e-06 -0.0003857502313)
(0 -3.937432578e-06 -0.0003935984152)
(0 -3.967925761e-06 -0.0004015075849)
(0 -3.986984002e-06 -0.0004094739296)
(0 -4.006042246e-06 -0.0004174783911)
(0 -4.021288836e-06 -0.0004255171569)
(0 -4.017477188e-06 -0.0004335559229)
(0 -4.006042246e-06 -0.0004415908775)
(0 -3.983172354e-06 -0.0004495991501)
(0 -3.960302465e-06 -0.0004575540599)
(0 -3.914562689e-06 -0.0004654403602)
(0 -3.861199612e-06 -0.0004732351805)
(0 -3.796401586e-06 -0.0004809004041)
(0 -3.720168645e-06 -0.0004884284122)
(0 -3.624877418e-06 -0.0004957848903)
(0 -3.506716324e-06 -0.000502927919)
(0 -3.377120307e-06 -0.0005098308169)
(0 -3.239900952e-06 -0.0005164707049)
(0 -3.079811728e-06 -0.0005228094759)
(0 -2.900664281e-06 -0.00052880139)
(0 -2.702458559e-06 -0.0005344273795)
(0 -2.492817909e-06 -0.0005396417142)
(0 -2.256495735e-06 -0.0005444062777)
(0 -2.016361887e-06 -0.0005486981903)
(0 -1.741923218e-06 -0.0005524755336)
(0 -1.459861261e-06 -0.000555692568)
(0 -1.158741046e-06 -0.0005583302252)
(0 -8.385625993e-07 -0.0005603427755)
(0 -5.069492108e-07 -0.0005616997256)
(0 -1.600892235e-07 -0.0005623820072)
(0 2.13452298e-07 -0.0005623400791)
(0 5.869938231e-07 -0.0005615510713)
(0 9.795935819e-07 -0.0005599997271)
(0 1.379816641e-06 -0.0005576555635)
(0 1.787663007e-06 -0.0005544957105)
(0 2.210755944e-06 -0.0005505010999)
(0 2.645283836e-06 -0.0005456526834)
(0 3.079811747e-06 -0.0005399352144)
(0 3.529586214e-06 -0.0005333334365)
(0 3.971737402e-06 -0.0005258397362)
(0 4.417700266e-06 -0.00051744649)
(0 4.875098021e-06 -0.0005081575003)
(0 5.328684154e-06 -0.0004979499064)
(0 5.778458674e-06 -0.0004868351433)
(0 6.232044772e-06 -0.0004748208253)
(0 6.674195961e-06 -0.0004619107729)
(0 7.108723896e-06 -0.0004481202325)
(0 7.543251746e-06 -0.0004334530076)
(0 7.966344694e-06 -0.0004179434112)
(0 8.374191099e-06 -0.0004015876312)
(0 8.774414108e-06 -0.0003844237771)
(0 9.159390574e-06 -0.0003664823491)
(0 9.51768556e-06 -0.0003477900285)
(0 9.872168783e-06 -0.0003283734906)
(0 1.021521712e-05 -0.0003082670465)
(0 1.052396068e-05 -0.0002875050006)
(0 1.081745753e-05 -0.0002661445224)
(0 1.10918962e-05 -0.0002442161105)
(0 1.134346505e-05 -0.0002217502574)
(0 1.157597552e-05 -0.0001988117574)
(0 1.177418122e-05 -0.0001754311074)
(0 1.195332876e-05 -0.0001516769169)
(0 1.210579462e-05 -0.0001275911111)
(0 1.22392023e-05 -0.0001032194327)
(0 1.233830523e-05 -7.861143251e-05)
(0 6.193928291e-06 -5.383190723e-05)
(0 -1.067261554e-07 -0.0001690771001)
(0 -3.125551713e-07 -0.0001692143204)
(0 -5.183841834e-07 -0.0001694925697)
(0 -7.20401549e-07 -0.0001699042278)
(0 -9.262305686e-07 -0.0001704531062)
(0 -1.139682874e-06 -0.0001711430135)
(0 -1.345511888e-06 -0.0001719701412)
(0 -1.551340911e-06 -0.0001729344893)
(0 -1.768604861e-06 -0.0001740398663)
(0 -1.974433875e-06 -0.000175290087)
(0 -2.184074551e-06 -0.0001766737164)
(0 -2.3937152e-06 -0.0001781983747)
(0 -2.614790808e-06 -0.0001798716883)
(0 -2.824431487e-06 -0.0001816822224)
(0 -3.034072132e-06 -0.0001836337853)
(0 -3.251336092e-06 -0.0001857340036)
(0 -3.476223368e-06 -0.0001879790656)
(0 -3.697298955e-06 -0.0001903613448)
(0 -3.922186211e-06 -0.0001929037143)
(0 -4.139450195e-06 -0.0001955871159)
(0 -4.360525778e-06 -0.0001984191695)
(0 -4.589224683e-06 -0.0002014036902)
(0 -4.814111968e-06 -0.0002045330548)
(0 -5.046622492e-06 -0.0002078186945)
(0 -5.275321396e-06 -0.0002112529897)
(0 -5.500208685e-06 -0.0002148511871)
(0 -5.732719205e-06 -0.0002186018478)
(0 -5.969041406e-06 -0.0002225011641)
(0 -6.209175293e-06 -0.0002265643827)
(0 -6.445497457e-06 -0.0002307762528)
(0 -6.67800801e-06 -0.0002351482136)
(0 -6.92195355e-06 -0.0002396878882)
(0 -7.150652412e-06 -0.0002443762143)
(0 -7.394597911e-06 -0.0002492208195)
(0 -7.627108509e-06 -0.0002542331387)
(0 -7.867242313e-06 -0.0002594017324)
(0 -8.111187811e-06 -0.0002647227935)
(0 -8.343698414e-06 -0.0002702115689)
(0 -8.583832214e-06 -0.0002758566185)
(0 -8.820154415e-06 -0.0002816541358)
(0 -9.048853374e-06 -0.000287611744)
(0 -9.273740575e-06 -0.0002937256263)
(0 -9.50243948e-06 -0.0002999919763)
(0 -9.727326794e-06 -0.0003064031707)
(0 -9.944590695e-06 -0.0003129706391)
(0 -1.015804301e-05 -0.0003196791403)
(0 -1.036768373e-05 -0.0003265286744)
(0 -1.057351268e-05 -0.000333515424)
(0 -1.076790675e-05 -0.0003406317716)
(0 -1.095086594e-05 -0.0003478777173)
(0 -1.11262017e-05 -0.0003552456316)
(0 -1.129010258e-05 -0.0003627317091)
(0 -1.144256859e-05 -0.0003703207033)
(0 -1.158359951e-05 -0.0003780087959)
(0 -1.170938393e-05 -0.0003857845593)
(0 -1.181611009e-05 -0.0003936365553)
(0 -1.191140129e-05 -0.0004015647837)
(0 -1.198382261e-05 -0.0004095463755)
(0 -1.203337405e-05 -0.0004175737073)
(0 -1.206005558e-05 -0.0004256200969)
(0 -1.206005558e-05 -0.0004336893566)
(0 -1.203337405e-05 -0.0004417433699)
(0 -1.197238767e-05 -0.0004497707012)
(0 -1.18885314e-05 -0.0004577561047)
(0 -1.175893537e-05 -0.0004656652754)
(0 -1.160265777e-05 -0.0004734867777)
(0 -1.140445204e-05 -0.0004811939299)
(0 -1.11605066e-05 -0.0004887409967)
(0 -1.087844455e-05 -0.0004961241567)
(0 -1.05430195e-05 -0.000503297679)
(0 -1.016185472e-05 -0.0005102425055)
(0 -9.734950033e-06 -0.0005169128871)
(0 -9.254682333e-06 -0.0005232859633)
(0 -8.71723996e-06 -0.0005293159942)
(0 -8.130246053e-06 -0.0005349762889)
(0 -7.493700769e-06 -0.0005402287404)
(0 -6.796169151e-06 -0.000545039044)
(0 -6.052897671e-06 -0.0005493652617)
(0 -5.252451506e-06 -0.0005531730984)
(0 -4.398642289e-06 -0.0005564282495)
(0 -3.487658293e-06 -0.0005590964001)
(0 -2.534746191e-06 -0.0005611394436)
(0 -1.532282669e-06 -0.0005625306986)
(0 -4.764560509e-07 -0.0005632320386)
(0 6.136753936e-07 -0.0005632206036)
(0 1.74954663e-06 -0.0005624659006)
(0 2.927345977e-06 -0.0005609336146)
(0 4.124203577e-06 -0.0005586085091)
(0 5.359177693e-06 -0.0005554715258)
(0 6.636079877e-06 -0.0005514959731)
(0 7.916793742e-06 -0.0005466551797)
(0 9.235624147e-06 -0.0005409567685)
(0 1.056970103e-05 -0.0005343626135)
(0 1.191902457e-05 -0.0005268803477)
(0 1.326453654e-05 -0.0005184909127)
(0 1.462148329e-05 -0.0005091904875)
(0 1.599367672e-05 -0.0004989867047)
(0 1.734681201e-05 -0.0004878643175)
(0 1.868851214e-05 -0.0004758385639)
(0 2.003021238e-05 -0.0004629170758)
(0 2.134141956e-05 -0.0004491074763)
(0 2.264119154e-05 -0.0004344211923)
(0 2.390665881e-05 -0.0004188772901)
(0 2.51378214e-05 -0.0004024986393)
(0 2.632705555e-05 -0.0003853157259)
(0 2.748579667e-05 -0.0003673361803)
(0 2.858736323e-05 -0.0003486019305)
(0 2.964700131e-05 -0.0003291472749)
(0 3.065327649e-05 -0.0003089989014)
(0 3.160237714e-05 -0.0002881987378)
(0 3.247524443e-05 -0.0002667848953)
(0 3.330237214e-05 -0.0002447993073)
(0 3.405707873e-05 -0.0002222877132)
(0 3.474698688e-05 -0.0001992958486)
(0 3.535685063e-05 -0.0001758694575)
(0 3.588666997e-05 -0.0001520542792)
(0 3.635169086e-05 -0.0001279074856)
(0 3.6740479e-05 -0.0001034824426)
(0 3.704541109e-05 -7.882107789e-05)
(0 1.859322093e-05 -5.398818804e-05)
(0 -1.753358162e-07 -0.0001689513055)
(0 -5.221958036e-07 -0.0001690923375)
(0 -8.652441366e-07 -0.0001693629635)
(0 -1.196857528e-06 -0.0001697746215)
(0 -1.54752917e-06 -0.0001703273115)
(0 -1.894389145e-06 -0.0001710172188)
(0 -2.241249129e-06 -0.0001718405348)
(0 -2.588109129e-06 -0.0001728086945)
(0 -2.942592394e-06 -0.0001739140715)
(0 -3.289452378e-06 -0.0001751528571)
(0 -3.640124033e-06 -0.0001765441098)
(0 -3.99841894e-06 -0.000178068768)
(0 -4.349090572e-06 -0.0001797382699)
(0 -4.703573881e-06 -0.0001815488038)
(0 -5.06568043e-06 -0.0001835041783)
(0 -5.427787007e-06 -0.0001856005848)
(0 -5.78608197e-06 -0.000187841835)
(0 -6.163435105e-06 -0.0001902317373)
(0 -6.52935333e-06 -0.0001927664833)
(0 -6.895271597e-06 -0.0001954498848)
(0 -7.268813077e-06 -0.0001982819383)
(0 -7.649977895e-06 -0.0002012664588)
(0 -8.019707816e-06 -0.0002043958232)
(0 -8.404684234e-06 -0.0002076814627)
(0 -8.7896607e-06 -0.0002111195693)
(0 -9.170825573e-06 -0.0002147101432)
(0 -9.563425281e-06 -0.0002184569921)
(0 -9.952213395e-06 -0.0002223677431)
(0 -1.034481322e-05 -0.0002264195265)
(0 -1.073741292e-05 -0.000230635208)
(0 -1.113763598e-05 -0.0002350071685)
(0 -1.153023581e-05 -0.0002395430312)
(0 -1.19228355e-05 -0.0002442389804)
(0 -1.232305856e-05 -0.0002490873968)
(0 -1.27156584e-05 -0.0002540997157)
(0 -1.311588138e-05 -0.0002592683091)
(0 -1.351229279e-05 -0.0002645969933)
(0 -1.390870429e-05 -0.0002700857683)
(0 -1.431273891e-05 -0.0002757346293)
(0 -1.469771538e-05 -0.0002815397694)
(0 -1.509031523e-05 -0.0002875011889)
(0 -1.546766831e-05 -0.0002936188825)
(0 -1.584502148e-05 -0.0002998966671)
(0 -1.62185631e-05 -0.0003063192961)
(0 -1.658448123e-05 -0.0003128867641)
(0 -1.694277615e-05 -0.0003196066998)
(0 -1.728963624e-05 -0.0003264714801)
(0 -1.763268448e-05 -0.0003334658526)
(0 -1.794905127e-05 -0.0003405974463)
(0 -1.826541818e-05 -0.0003478586382)
(0 -1.855891498e-05 -0.0003552417986)
(0 -1.883335365e-05 -0.0003627431222)
(0 -1.908492255e-05 -0.0003703473626)
(0 -1.932505627e-05 -0.0003780621363)
(0 -1.95385086e-05 -0.0003858645808)
(0 -1.971765608e-05 -0.0003937508811)
(0 -1.987774529e-05 -0.000401701979)
(0 -1.999209473e-05 -0.0004097140635)
(0 -2.00835743e-05 -0.0004177680763)
(0 -2.013312572e-05 -0.0004258602052)
(0 -2.013312572e-05 -0.0004339561459)
(0 -2.00911976e-05 -0.0004420520869)
(0 -2.000352968e-05 -0.0004501251575)
(0 -1.985106375e-05 -0.0004581563003)
(0 -1.964523476e-05 -0.0004661264569)
(0 -1.938604267e-05 -0.0004739936985)
(0 -1.905442925e-05 -0.0004817504017)
(0 -1.865039465e-05 -0.0004893698893)
(0 -1.817775016e-05 -0.0004968026003)
(0 -1.762506118e-05 -0.0005040523552)
(0 -1.699613933e-05 -0.0005110619792)
(0 -1.628336102e-05 -0.0005178047818)
(0 -1.54829149e-05 -0.0005242388439)
(0 -1.459098932e-05 -0.0005303527308)
(0 -1.361901894e-05 -0.0005360892581)
(0 -1.255175745e-05 -0.0005414179423)
(0 -1.139301647e-05 -0.0005463006669)
(0 -1.014660745e-05 -0.0005506993056)
(0 -8.808718941e-06 -0.0005545757518)
(0 -7.379350918e-06 -0.0005578995123)
(0 -5.869938195e-06 -0.0005606324607)
(0 -4.276669257e-06 -0.0005627479255)
(0 -2.599544074e-06 -0.0005641963552)
(0 -8.461858957e-07 -0.0005649624931)
(0 9.757819338e-07 -0.0005650044212)
(0 2.877794392e-06 -0.0005643030813)
(0 4.829358243e-06 -0.0005628241584)
(0 6.841908481e-06 -0.0005605447928)
(0 8.904010199e-06 -0.0005574421145)
(0 1.102709818e-05 -0.000553500867)
(0 1.318449105e-05 -0.000548690567)
(0 1.53723772e-05 -0.0005430074028)
(0 1.760219129e-05 -0.0005364361181)
(0 1.984725207e-05 -0.0005289652877)
(0 2.210755957e-05 -0.0005205796648)
(0 2.43831134e-05 -0.0005112792401)
(0 2.665866736e-05 -0.000501064023)
(0 2.892278655e-05 -0.0004899340132)
(0 3.11792821e-05 -0.0004778892021)
(0 3.340528464e-05 -0.0004649372216)
(0 3.560460585e-05 -0.0004510933181)
(0 3.77696218e-05 -0.0004363651068)
(0 3.988508654e-05 -0.0004207792774)
(0 4.193956516e-05 -0.0004043434529)
(0 4.394068021e-05 -0.0003870919308)
(0 4.586556254e-05 -0.0003690514)
(0 4.771040054e-05 -0.0003502409183)
(0 4.948281666e-05 -0.0003307024076)
(0 5.115994186e-05 -0.0003104701791)
(0 5.273415287e-05 -0.0002895861605)
(0 5.42168837e-05 -0.0002680732164)
(0 5.558907704e-05 -0.0002459923385)
(0 5.684310963e-05 -0.0002233816429)
(0 5.799422704e-05 -0.0002002792419)
(0 5.90195604e-05 -0.0001767499377)
(0 5.991148643e-05 -0.000152824223)
(0 6.068143901e-05 -0.0001285630814)
(0 6.13294192e-05 -0.0001040160672)
(0 6.183255713e-05 -7.924035446e-05)
(0 3.103062782e-05 -5.428549336e-05)
(0 -2.477571316e-07 -0.0001687607231)
(0 -7.204015101e-07 -0.0001688941318)
(0 -1.204480824e-06 -0.0001691647578)
(0 -1.684748495e-06 -0.0001695802275)
(0 -2.165016179e-06 -0.0001701291058)
(0 -2.652907132e-06 -0.0001708152015)
(0 -3.140798099e-06 -0.0001716423291)
(0 -3.621065792e-06 -0.0001726143005)
(0 -4.116580033e-06 -0.0001737196774)
(0 -4.604471e-06 -0.0001749584631)
(0 -5.096173646e-06 -0.0001763420924)
(0 -5.58787623e-06 -0.000177862939)
(0 -6.094825438e-06 -0.0001795324409)
(0 -6.586528092e-06 -0.0001813391632)
(0 -7.085853964e-06 -0.000183290726)
(0 -7.59661482e-06 -0.0001853833208)
(0 -8.103564077e-06 -0.0001876283827)
(0 -8.62194818e-06 -0.0001900220967)
(0 -9.140332333e-06 -0.000192553031)
(0 -9.654904895e-06 -0.0001952402442)
(0 -1.017710064e-05 -0.000198068486)
(0 -1.070310809e-05 -0.0002010453832)
(0 -1.12291156e-05 -0.0002041785592)
(0 -1.177036958e-05 -0.0002074641987)
(0 -1.230018867e-05 -0.0002109023054)
(0 -1.283763114e-05 -0.0002144928793)
(0 -1.339032005e-05 -0.0002182397281)
(0 -1.393157409e-05 -0.0002221390442)
(0 -1.448426317e-05 -0.0002261984509)
(0 -1.503314042e-05 -0.0002304141324)
(0 -1.558964105e-05 -0.0002347937162)
(0 -1.614614178e-05 -0.0002393257673)
(0 -1.669501902e-05 -0.0002440140931)
(0 -1.724770801e-05 -0.0002488739445)
(0 -1.781183205e-05 -0.0002538824518)
(0 -1.836833257e-05 -0.0002590586685)
(0 -1.892864486e-05 -0.0002643987876)
(0 -1.948133396e-05 -0.0002698913742)
(0 -2.003402283e-05 -0.0002755478585)
(0 -2.058671181e-05 -0.0002813568103)
(0 -2.113177763e-05 -0.0002873258531)
(0 -2.16692199e-05 -0.0002934549816)
(0 -2.219903899e-05 -0.0002997365778)
(0 -2.272123493e-05 -0.0003061744534)
(0 -2.32358073e-05 -0.000312757168)
(0 -2.373894486e-05 -0.0003194923503)
(0 -2.422683597e-05 -0.000326364754)
(0 -2.46994802e-05 -0.0003333781847)
(0 -2.515687798e-05 -0.0003405288366)
(0 -2.559521767e-05 -0.0003478128984)
(0 -2.601449882e-05 -0.0003552189287)
(0 -2.640328693e-05 -0.0003627507455)
(0 -2.675777038e-05 -0.0003703931023)
(0 -2.710081855e-05 -0.0003781383692)
(0 -2.739050386e-05 -0.0003859713069)
(0 -2.76535076e-05 -0.0003938919121)
(0 -2.787458318e-05 -0.0004018887498)
(0 -2.805373065e-05 -0.000409946574)
(0 -2.817570341e-05 -0.00041805395)
(-9.918233384e-25 -2.82481247e-05 -0.0004261880069)
(9.918233384e-25 -2.825955965e-05 -0.0004343525573)
(0 -2.820238494e-05 -0.0004425094847)
(0 -2.807660054e-05 -0.000450651165)
(0 -2.788220648e-05 -0.0004587471057)
(0 -2.760395618e-05 -0.000466785872)
(0 -2.723041464e-05 -0.0004747484048)
(0 -2.677301681e-05 -0.0004825851526)
(0 -2.621651633e-05 -0.0004902846849)
(0 -2.556091269e-05 -0.0004978317453)
(0 -2.47947714e-05 -0.0005051653564)
(0 -2.391428082e-05 -0.000512277895)
(0 -2.292325215e-05 -0.0005191312354)
(0 -2.179881593e-05 -0.0005256834586)
(0 -2.056384205e-05 -0.0005318964483)
(0 -1.919546023e-05 -0.0005377435134)
(0 -1.770129414e-05 -0.0005431827354)
(0 -1.608134376e-05 -0.0005481759978)
(0 -1.433179715e-05 -0.0005526889859)
(0 -1.245646625e-05 -0.0005566797816)
(0 -1.045153937e-05 -0.0005601102683)
(0 -8.336074567e-06 -0.0005629499428)
(0 -6.094825438e-06 -0.0005651530755)
(0 -3.746850182e-06 -0.000566700608)
(0 -1.284525436e-06 -0.0005675544138)
(0 1.273090492e-06 -0.0005676878215)
(0 3.937432592e-06 -0.0005670550913)
(0 6.685630906e-06 -0.0005656485897)
(0 9.50243891e-06 -0.0005634340221)
(0 1.240310325e-05 -0.0005603885186)
(0 1.538381205e-05 -0.0005564930108)
(0 1.84102607e-05 -0.0005517360739)
(0 2.148626091e-05 -0.0005460948379)
(0 2.461562394e-05 -0.000539546423)
(0 2.777166863e-05 -0.0005320908392)
(0 3.09505834e-05 -0.0005237128396)
(0 3.414093274e-05 -0.0005144162266)
(0 3.733509391e-05 -0.0005041895745)
(0 4.052544368e-05 -0.0004930405065)
(0 4.368911143e-05 -0.0004809652021)
(0 4.682228623e-05 -0.0004679674819)
(0 4.99135332e-05 -0.000454074027)
(0 5.29590398e-05 -0.0004392848293)
(0 5.592831373e-05 -0.0004236189553)
(0 5.88175434e-05 -0.0004071107095)
(0 6.162672775e-05 -0.0003897677078)
(0 6.433299796e-05 -0.0003716204508)
(0 6.693254242e-05 -0.0003527070547)
(0 6.941773663e-05 -0.0003330465713)
(0 7.177714685e-05 -0.0003126885583)
(0 7.398790324e-05 -0.0002916635087)
(0 7.60690627e-05 -0.0002700209686)
(0 7.799775668e-05 -0.0002477914365)
(0 7.976636192e-05 -0.0002250168399)
(0 8.138250027e-05 -0.000201761973)
(0 8.281567998e-05 -0.000178057333)
(0 8.406971274e-05 -0.0001539677175)
(0 8.516365526e-05 -0.0001295350517)
(0 8.605939258e-05 -0.0001048127016)
(0 8.677598296e-05 -7.986165312e-05)
(0 4.355189209e-05 -5.47238329e-05)
(0 -3.049318726e-07 -0.0001684977295)
(0 -9.30042217e-07 -0.0001686311382)
(0 -1.543717605e-06 -0.0001689055759)
(0 -2.165016295e-06 -0.0001693172339)
(0 -2.786315003e-06 -0.0001698699239)
(0 -3.415236973e-06 -0.0001705560196)
(0 -4.036535664e-06 -0.0001713831473)
(0 -4.657834382e-06 -0.0001723474954)
(0 -5.286756341e-06 -0.0001734452491)
(0 -5.915678328e-06 -0.0001746916582)
(0 -6.544600355e-06 -0.0001760676643)
(0 -7.192580545e-06 -0.0001775923226)
(0 -7.821502532e-06 -0.000179258013)
(0 -8.465671164e-06 -0.0001810609237)
(0 -9.113651342e-06 -0.0001830124866)
(0 -9.76544322e-06 -0.0001851165166)
(0 -1.041723516e-05 -0.0001873539553)
(0 -1.108427357e-05 -0.0001897362344)
(0 -1.175131204e-05 -0.000192267169)
(0 -1.241072729e-05 -0.000194946759)
(0 -1.308157733e-05 -0.0001977788126)
(0 -1.376005075e-05 -0.0002007595216)
(0 -1.443471261e-05 -0.0002038926978)
(0 -1.512843253e-05 -0.0002071745259)
(0 -1.581452924e-05 -0.0002106088211)
(0 -1.650824935e-05 -0.0002141993952)
(0 -1.721340421e-05 -0.0002179424326)
(0 -1.791093587e-05 -0.0002218455606)
(0 -1.861609093e-05 -0.0002259049675)
(0 -1.932886907e-05 -0.0002301206493)
(0 -2.005308227e-05 -0.0002344964217)
(0 -2.075823735e-05 -0.0002390322847)
(0 -2.146720383e-05 -0.0002437282341)
(0 -2.218760538e-05 -0.0002485842742)
(0 -2.290419542e-05 -0.0002536042167)
(0 -2.362840848e-05 -0.0002587842453)
(0 -2.434499838e-05 -0.0002641243647)
(0 -2.505777678e-05 -0.000269624575)
(0 -2.577436653e-05 -0.0002752886829)
(0 -2.648333314e-05 -0.0002811128817)
(0 -2.718467661e-05 -0.0002870895481)
(0 -2.787839645e-05 -0.0002932263003)
(0 -2.856449317e-05 -0.0002995231435)
(0 -2.923915511e-05 -0.0003059762661)
(0 -2.990619341e-05 -0.0003125780393)
(0 -3.054655034e-05 -0.0003193322803)
(0 -3.117928416e-05 -0.0003262237426)
(0 -3.179677102e-05 -0.0003332638552)
(0 -3.238376487e-05 -0.0003404450008)
(0 -3.295170068e-05 -0.0003477519329)
(0 -3.34967662e-05 -0.0003551922685)
(0 -3.400752709e-05 -0.0003627545789)
(0 -3.44725484e-05 -0.0003704350527)
(0 -3.490326447e-05 -0.0003782222482)
(0 -3.529586432e-05 -0.0003861085494)
(0 -3.563510105e-05 -0.0003940825181)
(0 -3.592859795e-05 -0.0004021327194)
(0 -3.616110851e-05 -0.0004102553421)
(0 -3.632882106e-05 -0.0004184237049)
(0 -3.643173554e-05 -0.000426637807)
(0 -3.644698214e-05 -0.0004348633443)
(0 -3.638980743e-05 -0.0004431079401)
(0 -3.624496477e-05 -0.0004513372887)
(0 -3.598958433e-05 -0.0004595323328)
(0 -3.564272434e-05 -0.0004676740141)
(0 -3.517770322e-05 -0.0004757318386)
(0 -3.459833259e-05 -0.0004836905596)
(0 -3.388936619e-05 -0.0004915196884)
(0 -3.305461499e-05 -0.0004991772871)
(0 -3.208264465e-05 -0.0005066519296)
(0 -3.095820855e-05 -0.0005139054996)
(0 -2.968130615e-05 -0.0005208884364)
(0 -2.8251938e-05 -0.0005275893143)
(0 -2.666248077e-05 -0.0005339547704)
(0 -2.490149905e-05 -0.0005399504901)
(0 -2.29842399e-05 -0.0005455383667)
(0 -2.089926834e-05 -0.0005506840953)
(0 -1.864658401e-05 -0.0005553419264)
(0 -1.622999892e-05 -0.0005594775649)
(0 -1.364570138e-05 -0.0005630567061)
(0 -1.091656104e-05 -0.0005660336002)
(0 -8.034954843e-06 -0.0005683777639)
(0 -4.997071092e-06 -0.0005700548927)
(0 -1.829591236e-06 -0.0005710230479)
(0 1.475107934e-06 -0.0005712631818)
(0 4.913214827e-06 -0.0005707409894)
(0 8.450424519e-06 -0.0005694297789)
(0 1.210198369e-05 -0.0005673028791)
(0 1.584502252e-05 -0.00056433742)
(0 1.967954073e-05 -0.0005605143333)
(0 2.358648035e-05 -0.0005558107591)
(0 2.75696531e-05 -0.0005502038276)
(0 3.160237695e-05 -0.0005436973405)
(0 3.568084074e-05 -0.0005362646261)
(0 3.978217467e-05 -0.000527909496)
(0 4.390256636e-05 -0.000518605259)
(0 4.803058158e-05 -0.0005083709831)
(0 5.215097382e-05 -0.0004971914213)
(0 5.62446839e-05 -0.0004850779996)
(0 6.029646616e-05 -0.0004720307271)
(0 6.429107407e-05 -0.0004580610385)
(0 6.82208832e-05 -0.0004431917953)
(0 7.205921314e-05 -0.0004274344408)
(0 7.579844069e-05 -0.0004108118445)
(0 7.942712952e-05 -0.0003933468691)
(0 8.292622275e-05 -0.0003750700149)
(0 8.628809717e-05 -0.0003560003401)
(0 8.949750461e-05 -0.0003361873895)
(0 9.254301169e-05 -0.0003156578512)
(0 9.540937186e-05 -0.0002944536529)
(0 9.809277177e-05 -0.0002726167174)
(0 0.0001005855898 -0.0002501851665)
(0 0.0001028763911 -0.0002272123629)
(0 0.0001049537389 -0.0002037402307)
(0 0.0001068062 -0.0001798145136)
(0 0.0001084337745 -0.0001555000094)
(0 0.0001098364605 -0.0001308386432)
(0 0.0001110028249 -0.0001058837811)
(0 0.0001119214329 -8.069259727e-05)
(0 5.617226258e-05 -5.532226499e-05)
(0 -3.773531697e-07 -0.0001681813526)
(0 -1.128247868e-06 -0.0001683185729)
(0 -1.894389145e-06 -0.0001685891989)
(0 -2.645283836e-06 -0.0001690046686)
(0 -3.403801844e-06 -0.0001695497353)
(0 -4.169943108e-06 -0.0001702396426)
(0 -4.928461095e-06 -0.000171059147)
(0 -5.686979117e-06 -0.000172023495)
(0 -6.456932015e-06 -0.0001731212486)
(0 -7.226884947e-06 -0.0001743562226)
(0 -7.996837927e-06 -0.0001757436636)
(0 -8.778225756e-06 -0.0001772606986)
(0 -9.563425281e-06 -0.0001789225772)
(0 -1.034481322e-05 -0.0001807292995)
(0 -1.113763598e-05 -0.0001826770506)
(0 -1.193427045e-05 -0.0001847772688)
(0 -1.273090499e-05 -0.0001870108957)
(0 -1.353897433e-05 -0.0001893931747)
(0 -1.435085539e-05 -0.0001919202975)
(0 -1.516273655e-05 -0.000194592264)
(0 -1.598605246e-05 -0.0001974281291)
(0 -1.681318012e-05 -0.0002004012146)
(0 -1.764411953e-05 -0.000203530579)
(0 -1.848649367e-05 -0.0002068124069)
(0 -1.932886791e-05 -0.0002102467019)
(0 -2.017886558e-05 -0.0002138372758)
(0 -2.103267465e-05 -0.0002175841246)
(0 -2.189410714e-05 -0.0002214834407)
(0 -2.275172812e-05 -0.0002255428474)
(0 -2.362840706e-05 -0.0002297585289)
(0 -2.450127449e-05 -0.000234134301)
(0 -2.537795373e-05 -0.0002386701638)
(0 -2.624700936e-05 -0.0002433699246)
(0 -2.712750009e-05 -0.000248229776)
(0 -2.800799099e-05 -0.0002532535298)
(0 -2.88922932e-05 -0.0002584411815)
(0 -2.976897228e-05 -0.0002637889239)
(0 -3.064565154e-05 -0.0002693005687)
(0 -3.152233044e-05 -0.000274968488)
(0 -3.238376293e-05 -0.0002808041213)
(0 -3.324519561e-05 -0.000286796034)
(0 -3.41066279e-05 -0.0002929480324)
(0 -3.494900215e-05 -0.0002992639335)
(0 -3.577231837e-05 -0.0003057323023)
(0 -3.659182252e-05 -0.0003123531333)
(0 -3.738464534e-05 -0.0003191264321)
(0 -3.815841015e-05 -0.0003260521988)
(0 -3.891692791e-05 -0.0003331228042)
(0 -3.964876436e-05 -0.0003403344426)
(0 -4.034248457e-05 -0.0003476794907)
(0 -4.101714605e-05 -0.0003551579424)
(0 -4.164225635e-05 -0.0003627659921)
(0 -4.223306207e-05 -0.0003704883936)
(0 -4.276669257e-05 -0.0003783289516)
(0 -4.325458361e-05 -0.0003862762388)
(0 -4.367767659e-05 -0.000394315005)
(0 -4.405121808e-05 -0.0004024338154)
(0 -4.434090334e-05 -0.0004106250474)
(0 -4.455435567e-05 -0.0004188810776)
(0 -4.469157498e-05 -0.0004271790355)
(0 -4.473350311e-05 -0.0004355074867)
(0 -4.466870511e-05 -0.0004438511849)
(0 -4.450480422e-05 -0.0004521872592)
(0 -4.421511895e-05 -0.0004605042755)
(0 -4.379964933e-05 -0.0004687679291)
(0 -4.325458361e-05 -0.0004769629724)
(0 -4.255705192e-05 -0.0004850665356)
(0 -4.170705462e-05 -0.0004930405065)
(0 -4.06969676e-05 -0.0005008696289)
(0 -3.951916832e-05 -0.0005085081719)
(0 -3.815078685e-05 -0.0005159256423)
(0 -3.660706911e-05 -0.0005230953495)
(0 -3.486514589e-05 -0.0005299715628)
(0 -3.292120552e-05 -0.0005365276009)
(0 -3.078287069e-05 -0.000542710091)
(0 -2.843489541e-05 -0.0005484961729)
(0 -2.588109129e-05 -0.0005538210488)
(0 -2.31328928e-05 -0.0005586694619)
(0 -2.016743051e-05 -0.0005629956826)
(0 -1.700757428e-05 -0.0005667539711)
(0 -1.365332378e-05 -0.0005699062007)
(0 -1.011611427e-05 -0.0005724180769)
(0 -6.392134034e-06 -0.0005742514831)
(0 -2.496629557e-06 -0.0005753759159)
(0 1.558964105e-06 -0.0005757570807)
(0 5.763212081e-06 -0.0005753721077)
(0 1.011992591e-05 -0.00057418287)
(0 1.460242417e-05 -0.0005721665081)
(0 1.919927199e-05 -0.0005692963405)
(0 2.390665738e-05 -0.0005655532985)
(0 2.871695738e-05 -0.000560922146)
(0 3.359586725e-05 -0.0005553838245)
(0 3.855482133e-05 -0.0005489230775)
(0 4.356332704e-05 -0.0005415208568)
(0 4.860613787e-05 -0.0005331809737)
(0 5.36794413e-05 -0.000523880549)
(0 5.875655668e-05 -0.0005136234037)
(0 6.381080254e-05 -0.0005024133495)
(0 6.884980105e-05 -0.0004902503771)
(0 7.384306017e-05 -0.0004771383074)
(0 7.875627514e-05 -0.00046307714)
(0 8.358182126e-05 -0.0004481049832)
(0 8.830826501e-05 -0.0004322294685)
(0 9.290892492e-05 -0.000415469654)
(0 9.736855273e-05 -0.0003978407787)
(0 0.0001016795268 -0.0003793924015)
(0 0.0001058113541 -0.000360135957)
(0 0.0001097640326 -0.0003401248019)
(0 0.0001135070711 -0.0003193818125)
(0 0.0001170328464 -0.0002979565399)
(0 0.0001203375447 -0.0002758794719)
(0 0.0001234021098 -0.0002532039769)
(0 0.0001262112953 -0.0002299757942)
(0 0.0001287727221 -0.0002062292247)
(0 0.000131059711 -0.0001820328821)
(0 0.0001330532038 -0.0001574325057)
(0 0.0001347722563 -0.0001324776441)
(0 0.0001362092477 -0.0001072292866)
(0 0.000137341308 -8.173698404e-05)
(0 6.892222237e-05 -5.605790977e-05)
(0 -4.497744851e-07 -0.0001677887528)
(0 -1.337888519e-06 -0.0001679259732)
(0 -2.229814185e-06 -0.0001682042225)
(0 -3.125551507e-06 -0.0001686044455)
(0 -4.021288853e-06 -0.0001691609472)
(0 -4.920837799e-06 -0.0001698394196)
(0 -5.824198417e-06 -0.0001706665472)
(0 -6.723747428e-06 -0.0001716270836)
(0 -7.619484709e-06 -0.0001727286489)
(0 -8.534280272e-06 -0.0001739674345)
(0 -9.449075892e-06 -0.0001753358173)
(0 -1.037149469e-05 -0.0001768604755)
(0 -1.129391355e-05 -0.0001785185425)
(0 -1.222014413e-05 -0.0001803214531)
(0 -1.315780951e-05 -0.0001822692043)
(0 -1.409547497e-05 -0.0001843503642)
(0 -1.50407638e-05 -0.0001865878028)
(0 -1.599367576e-05 -0.0001889662701)
(0 -1.695039945e-05 -0.0001914972045)
(0 -1.791474655e-05 -0.000194169171)
(0 -1.889052837e-05 -0.0001969897895)
(0 -1.986249866e-05 -0.0001999704984)
(0 -2.084971566e-05 -0.0002030922395)
(0 -2.184074406e-05 -0.0002063740673)
(0 -2.283939589e-05 -0.0002098083624)
(0 -2.384567115e-05 -0.0002133913129)
(0 -2.485956942e-05 -0.0002171381618)
(0 -2.587346784e-05 -0.0002210374779)
(0 -2.688736641e-05 -0.0002251006962)
(0 -2.792413456e-05 -0.0002293163777)
(0 -2.896090286e-05 -0.0002336921498)
(0 -2.99938597e-05 -0.0002382356359)
(0 -3.103062782e-05 -0.0002429392083)
(0 -3.207120778e-05 -0.0002478028714)
(0 -3.311559958e-05 -0.0002528304369)
(0 -3.415999098e-05 -0.0002580180885)
(0 -3.520057093e-05 -0.0002633696426)
(0 -3.62411511e-05 -0.0002688889107)
(0 -3.727791919e-05 -0.0002745720766)
(0 -3.83070642e-05 -0.0002804191449)
(0 -3.932858614e-05 -0.0002864301158)
(0 -4.034629597e-05 -0.0002926011724)
(0 -4.135257109e-05 -0.0002989323201)
(0 -4.232835328e-05 -0.0003054197471)
(0 -4.330413496e-05 -0.000312074883)
(0 -4.424561206e-05 -0.0003188748633)
(0 -4.517184284e-05 -0.0003258349349)
(0 -4.607520319e-05 -0.0003329360335)
(0 -4.694425897e-05 -0.0003401819767)
(0 -4.777519856e-05 -0.0003475765762)
(0 -4.858326769e-05 -0.0003551045793)
(0 -4.933797403e-05 -0.0003627621805)
(0 -5.003931759e-05 -0.0003705493799)
(0 -5.069110913e-05 -0.0003784471127)
(0 -5.127429139e-05 -0.0003864553862)
(0 -5.179648723e-05 -0.0003945665738)
(0 -5.224626168e-05 -0.0004027768638)
(0 -5.260455661e-05 -0.0004110557636)
(0 -5.287899531e-05 -0.0004194070851)
(0 -5.305814274e-05 -0.0004278079574)