/*--------------------------------*- C++ -*----------------------------------*\
  =========                 |
  \\      /  F ield         | OpenFOAM: The Open Source CFD Toolbox
   \\    /   O peration     | Website:  https://openfoam.org
    \\  /    A nd           | Version:  6
     \\/     M anipulation  |
\*---------------------------------------------------------------------------*/
FoamFile
{
    version     2.0;
    format      ascii;
    class       surfaceScalarField;
    location    "0.006";
    object      phi;
}
// * * * * * * * * * * * * * * * * * * * * * * * * * * * * * * * * * * * * * //

dimensions      [0 3 -1 0 0 0 0];

internalField   nonuniform List<scalar> 
19000
(
-1.937777154e-19
2.548435071e-20
-1.940214546e-19
2.558426065e-20
-1.944345773e-19
2.580828405e-20
-1.950227248e-19
2.614367961e-20
-1.957869673e-19
2.657348236e-20
-1.967340555e-19
2.707977951e-20
-1.978734452e-19
2.764341977e-20
-1.992134609e-19
2.824481178e-20
-2.00764609e-19
2.886360131e-20
-2.025360278e-19
2.947955495e-20
-2.045389087e-19
3.007220001e-20
-2.067830197e-19
3.06216954e-20
-2.092803016e-19
3.110841426e-20
-2.120414444e-19
3.151379496e-20
-2.15079575e-19
3.181989537e-20
-2.184068003e-19
3.201023662e-20
-2.220379303e-19
3.206934971e-20
-2.259870007e-19
3.198360731e-20
-2.302710922e-19
3.174071314e-20
-2.349068862e-19
3.133047895e-20
-2.399145505e-19
3.07442585e-20
-2.453142105e-19
2.997571398e-20
-2.511297639e-19
2.902025701e-20
-2.573852271e-19
2.787583042e-20
-2.641085832e-19
2.654227955e-20
-2.713282138e-19
2.502198302e-20
-2.790769247e-19
2.331900096e-20
-2.873883628e-19
2.143952399e-20
-2.963008141e-19
1.939095668e-20
-3.058531397e-19
1.718243498e-20
-3.160881488e-19
1.482394535e-20
-3.27048354e-19
1.232669427e-20
-3.387794584e-19
9.701796757e-21
-3.513261285e-19
6.960110927e-21
-3.647349558e-19
4.110590893e-21
-3.790490404e-19
1.16018395e-21
-3.94309485e-19
-1.887481604e-21
-4.1054879e-19
-5.031912924e-21
-4.277914921e-19
-8.277006346e-21
-4.460463912e-19
-1.163077818e-20
-4.653049518e-19
-1.510600923e-20
-4.855302301e-19
-1.871851662e-20
-5.066518654e-19
-2.248563947e-20
-5.285526946e-19
-2.642198326e-20
-5.510627784e-19
-3.053510425e-20
-5.739458438e-19
-3.481782939e-20
-5.96892925e-19
-3.923943603e-20
-6.195084331e-19
-4.373243161e-20
-6.413050363e-19
-4.817820702e-20
-6.616951057e-19
-5.239061312e-20
-6.79996328e-19
-5.61039445e-20
-6.954365954e-19
-5.896798308e-20
-7.071705102e-19
-6.056149746e-20
-7.142862673e-19
-6.043337076e-20
-7.158083917e-19
-5.818748549e-20
-7.10667983e-19
-5.361333588e-20
-6.976564449e-19
-4.684797736e-20
-6.753986115e-19
-3.850626587e-20
-6.424977747e-19
-2.965697906e-20
-5.97942238e-19
-2.147867296e-20
-5.414831129e-19
-1.47001157e-20
-4.712447039e-19
-1.00947916e-20
-3.699819468e-19
-1.335732084e-20
-1.852827406e-19
-4.70325528e-20
1.488890585e-19
-9.699563457e-20
5.045348116e-19
-1.028453342e-19
-3.346285364e-20
7.097304534e-19
1.424621512e-20
-8.116922695e-20
1.648380949e-20
-1.59295223e-20
1.44672978e-20
2.145351505e-21
1.580327842e-20
9.307594953e-21
2.120006135e-20
1.243603808e-20
2.444207326e-20
1.147670365e-20
2.526655995e-20
8.98256696e-21
2.582267415e-20
6.764234096e-21
2.686175216e-20
4.836543827e-21
2.823050869e-20
2.751599576e-21
2.95139423e-20
1.960561282e-22
3.029403337e-20
-2.920712261e-21
3.022520706e-20
-6.507940965e-21
2.912836824e-20
-1.033205878e-20
2.703173885e-20
-1.409248917e-20
2.410986081e-20
-1.751414872e-20
2.060995122e-20
-2.040024821e-20
1.679268315e-20
-2.264848615e-20
1.288551333e-20
-2.424701863e-20
9.046033452e-21
-2.525538268e-20
5.35008324e-21
-2.577358337e-20
1.797070167e-21
-2.590907328e-20
-1.668078704e-21
-2.574849068e-20
-5.129917714e-21
-2.533906974e-20
-8.671945725e-21
-2.467932462e-20
-1.234918001e-20
-2.371965156e-20
-1.61602646e-20
-2.237180807e-20
-2.002920261e-20
-2.052848004e-20
-2.379810218e-20
-1.809132013e-20
-2.724326257e-20
-1.500438935e-20
-3.011050184e-20
-1.128418973e-20
-3.216526463e-20
-7.038144273e-21
-3.324891595e-20
-2.466887916e-21
-3.3353379e-20
2.152633384e-21
-3.267804752e-20
6.520577974e-21
-3.158969889e-20
1.040551791e-20
-3.052597909e-20
1.371891232e-20
-2.992223736e-20
1.65513106e-20
-2.995282958e-20
1.921148704e-20
-2.989252619e-20
2.213575772e-20
-2.762739868e-20
2.528952898e-20
-2.345250023e-20
2.683787926e-20
-2.356591931e-20
2.419677859e-20
-2.718354163e-20
1.735063338e-20
-2.653920468e-20
-7.115230914e-22
1.994099956e-20
-6.64222637e-20
-7.545727606e-19
7.234796361e-19
-8.796478544e-19
-7.083172918e-19
-7.919574579e-19
-1.903409444e-18
-5.231387247e-19
-2.685636599e-18
-1.926728572e-19
-2.813859499e-18
3.920090484e-20
-1.983105325e-18
2.053794216e-31
-1.914667235e-19
2.705711171e-20
-1.917308876e-19
2.7168226e-20
-1.921784636e-19
2.741535298e-20
-1.928156365e-19
2.778462228e-20
-1.936435508e-19
2.825737929e-20
-1.946693677e-19
2.881411408e-20
-1.959023727e-19
2.94337143e-20
-1.973511239e-19
3.009479293e-20
-1.990257556e-19
3.07748971e-20
-2.009354369e-19
3.145191737e-20
-2.030907751e-19
3.210324699e-20
-2.055013803e-19
3.270717809e-20
-2.081784114e-19
3.324200251e-20
-2.111321999e-19
3.368738058e-20
-2.143748666e-19
3.402341495e-20
-2.179179146e-19
3.423202312e-20
-2.217748883e-19
3.42959905e-20
-2.259589794e-19
3.420033673e-20
-2.304857855e-19
3.393130257e-20
-2.353709489e-19
3.347767477e-20
-2.406329379e-19
3.282971894e-20
-2.462905939e-19
3.198050677e-20
-2.523658367e-19
3.092486068e-20
-2.588811602e-19
2.966068891e-20
-2.65862449e-19
2.818783642e-20
-2.73336622e-19
2.65092664e-20
-2.813345845e-19
2.462969012e-20
-2.898887626e-19
2.255658797e-20
-2.9903572e-19
2.029878789e-20
-3.08813252e-19
1.786752264e-20
-3.192627568e-19
1.527497108e-20
-3.3042641e-19
1.253504047e-20
-3.423497538e-19
9.661362903e-21
-3.550787393e-19
6.66746099e-21
-3.686614724e-19
3.56434679e-21
-3.831438646e-19
3.606214509e-22
-3.985699894e-19
-2.93983242e-21
-4.149767767e-19
-6.33783151e-21
-4.323935255e-19
-9.841532098e-21
-4.508350229e-19
-1.346670451e-20
-4.702981295e-19
-1.723912732e-20
-4.90751042e-19
-2.119386871e-20
-5.121261741e-19
-2.53760503e-20
-5.343068701e-19
-2.983809444e-20
-5.571187538e-19
-3.463781664e-20
-5.803153082e-19
-3.983179141e-20
-6.035679741e-19
-4.54676574e-20
-6.264515724e-19
-5.156973494e-20
-6.484381625e-19
-5.812241342e-20
-6.688937308e-19
-6.504762458e-20
-6.870927401e-19
-7.21835503e-20
-7.022438443e-19
-7.926497029e-20
-7.135384483e-19
-8.591981045e-20
-7.20208195e-19
-9.169416532e-20
-7.215868797e-19
-9.61331092e-20
-7.171392879e-19
-9.893399954e-20
-7.064496406e-19
-1.001786135e-19
-6.892196984e-19
-1.005708282e-19
-6.655737836e-19
-1.014238927e-19
-6.374949962e-19
-1.037111991e-19
-6.129405711e-19
-1.050768673e-19
-6.12224876e-19
-9.345200443e-20
-6.653783817e-19
-4.370611289e-20
-8.027331722e-19
2.584719573e-20
-3.841999737e-19
-2.321924114e-19
-1.102074279e-19
5.43310974e-31
2.489500689e-19
3.505764257e-19
7.948592034e-20
8.829833342e-20
3.455868334e-20
2.900103268e-20
2.162954139e-20
1.507794186e-20
1.893172158e-20
1.20088163e-20
2.024072705e-20
1.113045378e-20
2.194793677e-20
9.772788788e-21
2.304822718e-20
7.885729625e-21
2.389498405e-20
5.921075272e-21
2.477680809e-20
3.958790297e-21
2.567496539e-20
1.857718341e-21
2.63971741e-20
-5.215776271e-22
2.670680481e-20
-3.225910509e-21
2.640108947e-20
-6.197741791e-21
2.536793803e-20
-9.294702088e-21
2.361007936e-20
-1.233044873e-20
2.122376157e-20
-1.512416305e-20
1.836171341e-20
-1.753495267e-20
1.519415063e-20
-1.947866912e-20
1.18771495e-20
-2.09285629e-20
8.527832812e-21
-2.190572201e-20
5.214593205e-21
-2.246050258e-20
1.957652933e-21
-2.265266746e-20
-1.258657772e-21
-2.253240703e-20
-4.470172774e-21
-2.212779309e-20
-7.712272564e-21
-2.143746713e-20
-1.10013366e-20
-2.043143209e-20
-1.431693678e-20
-1.905754672e-20
-1.759204271e-20
-1.725553222e-20
-2.071117155e-20
-1.497490782e-20
-2.352306318e-20
-1.219589649e-20
-2.58644565e-20
-8.946559758e-21
-2.759400848e-20
-5.312759953e-21
-2.862939484e-20
-1.435700904e-21
-2.898543462e-20
2.504521626e-21
-2.879310779e-20
6.324329017e-21
-2.82763046e-20
9.884816073e-21
-2.769358107e-20
1.313236363e-20
-2.726206111e-20
1.611593678e-20
-2.702855896e-20
1.897430756e-20
-2.673875524e-20
2.184239552e-20
-2.607904857e-20
2.462655261e-20
-2.609360089e-20
2.684939008e-20
-3.041206481e-20
2.851226398e-20
-4.524569821e-20
3.218102885e-20
-9.224994586e-20
4.629043168e-20
-2.634697033e-19
1.047940748e-19
9.645824352e-20
3.635496453e-19
-1.184162388e-19
5.671055888e-31
-1.837040329e-19
-1.595812525e-18
-3.587484013e-19
-2.437544665e-18
-1.666605687e-19
-2.99666069e-18
5.418721891e-20
-2.292021608e-18
2.621604623e-31
-1.889699511e-19
2.87140084e-20
-1.892562676e-19
2.883809544e-20
-1.897409469e-19
2.911223784e-20
-1.904312106e-19
2.952078385e-20
-1.913279071e-19
3.004372535e-20
-1.924390741e-19
3.065928035e-20
-1.937734194e-19
3.13446937e-20
-1.953401842e-19
3.207607811e-20
-1.97148707e-19
3.282918965e-20
-1.992086339e-19
3.357932739e-20
-2.015295534e-19
3.430206863e-20
-2.04121353e-19
3.497312501e-20
-2.069939627e-19
3.556903684e-20
-2.101577778e-19
3.606698811e-20
-2.136234312e-19
3.644548471e-20
-2.174022236e-19
3.668415648e-20
-2.215059148e-19
3.676443044e-20
-2.259472256e-19
3.666930318e-20
-2.30739703e-19
3.63839691e-20
-2.358982741e-19
3.589553866e-20
-2.414390725e-19
3.519364528e-20
-2.473799067e-19
3.427015934e-20
-2.537400105e-19
3.311982153e-20
-2.605405544e-19
3.173993975e-20
-2.678045578e-19
3.01309397e-20
-2.755576138e-19
2.829589305e-20
-2.838278736e-19
2.624088246e-20
-2.926465794e-19
2.397439105e-20
-3.020476447e-19
2.150763078e-20
-3.120678271e-19
1.885392909e-20
-3.227462921e-19
1.602892077e-20
-3.341251241e-19
1.304954431e-20
-3.462491905e-19
9.933607687e-21
-3.591663645e-19
6.698126735e-21
-3.729263005e-19
3.35845261e-21
-3.875791779e-19
-7.35887809e-23
-4.031733043e-19
-3.590771946e-21
-4.19753192e-19
-7.192803686e-21
-4.373563736e-19
-1.088816433e-20
-4.560095367e-19
-1.469713118e-20
-4.757218865e-19
-1.865383688e-20
-4.96476992e-19
-2.280886747e-20
-5.182222098e-19
-2.723039645e-20
-5.408575089e-19
-3.200535692e-20
-5.642223833e-19
-3.723821227e-20
-5.880819191e-19
-4.304792318e-20
-6.121108208e-19
-4.955978144e-20
-6.358784452e-19
-5.689221642e-20
-6.588376195e-19
-6.513545506e-20
-6.803247989e-19
-7.432280302e-20
-6.995778755e-19
-8.439280068e-20
-7.157815041e-19
-9.514652756e-20
-7.281473407e-19
-1.062071721e-19
-7.360325977e-19
-1.170022994e-19
-7.39078238e-19
-1.2679988e-19
-7.373159202e-19
-1.348507934e-19
-7.311449466e-19
-1.407025359e-19
-7.210481989e-19
-1.447191206e-19
-7.070100045e-19
-1.486113787e-19
-6.887100576e-19
-1.551770436e-19
-6.695515004e-19
-1.640001794e-19
-6.738584911e-19
-1.560407745e-19
-7.883126199e-19
-5.249684778e-20
-9.572876151e-19
3.594179124e-19
-1.635698053e-18
7.729865405e-19
-2.663804473e-19
-7.848970613e-19
-1.332802367e-20
9.752773001e-20
2.01886189e-20
5.478477813e-20
2.063559252e-20
2.855704914e-20
1.85604159e-20
1.715611494e-20
1.805335899e-20
1.251895843e-20
1.888306206e-20
1.030386189e-20
2.006087765e-20
8.598188021e-21
2.108357277e-20
6.866347027e-21
2.193269907e-20
5.075559602e-21
2.267573614e-20
3.219654281e-21
2.329566941e-20
1.242040739e-21
2.369284122e-20
-9.143962381e-22
2.373497348e-20
-3.263649051e-21
2.33041292e-20
-5.762686852e-21
2.233219139e-20
-8.318642445e-21
2.081636494e-20
-1.081076042e-20
1.881297204e-20
-1.311714881e-20
1.641799695e-20
-1.513693838e-20
1.374425672e-20
-1.680254962e-20
1.089999051e-20
-1.808286207e-20
7.973052241e-21
-1.897812666e-20
5.022428185e-21
-1.950989622e-20
2.077913498e-21
-1.970833692e-20
-8.540438316e-22
-1.960066237e-20
-3.779846938e-21
-1.920211555e-20
-6.706237393e-21
-1.851150413e-20
-9.62745123e-21
-1.751111831e-20
-1.251492238e-20
-1.617170459e-20
-1.53114182e-20
-1.446126104e-20
-1.793216023e-20
-1.235699132e-20
-2.027372648e-20
-9.857582767e-21
-2.223065663e-20
-6.993317973e-21
-2.371694943e-20
-3.830387707e-21
-2.468917228e-20
-4.675012974e-22
-2.516562724e-20
2.977061993e-21
-2.523262073e-20
6.387469821e-21
-2.502875695e-20
9.677106623e-21
-2.4710008e-20
1.280968902e-20
-2.440369033e-20
1.580578987e-20
-2.416047086e-20
1.872751102e-20
-2.395459827e-20
2.16332837e-20
-2.38562111e-20
2.45251399e-20
-2.443072682e-20
2.742114641e-20
-2.674330009e-20
3.08221899e-20
-3.113629538e-20
3.657160813e-20
-3.374630189e-20
4.88974437e-20
-4.714132661e-21
7.575777349e-20
2.396580407e-19
1.191759169e-19
1.292314567e-18
-7.592877698e-19
1.536004433e-20
2.244126697e-19
-3.488778383e-19
-1.655410241e-18
-2.362056077e-19
-3.094161445e-18
5.128571991e-20
-2.665786349e-18
3.495170166e-31
-1.862688015e-19
3.045348669e-20
-1.865787148e-19
3.059287646e-20
-1.871035659e-19
3.089818474e-20
-1.878507916e-19
3.135241312e-20
-1.888218818e-19
3.193345058e-20
-1.900249086e-19
3.261761148e-20
-1.914689272e-19
3.33797043e-20
-1.931629877e-19
3.419370234e-20
-1.951165532e-19
3.503275587e-20
-1.973388503e-19
3.586993634e-20
-1.998393749e-19
3.667818578e-20
-2.026273746e-19
3.743101969e-20
-2.057124674e-19
3.810241767e-20
-2.09104165e-19
3.866749848e-20
-2.128125144e-19
3.910238003e-20
-2.168476258e-19
3.938484426e-20
-2.212203577e-19
3.949418158e-20
-2.259419245e-19
3.941182815e-20
-2.310246685e-19
3.912116188e-20
-2.364816914e-19
3.860810515e-20
-2.423275709e-19
3.786090561e-20
-2.485778842e-19
3.687075501e-20
-2.552498914e-19
3.563158522e-20
-2.623621552e-19
3.414067718e-20
-2.699354668e-19
3.239836445e-20
-2.779926893e-19
3.04085011e-20
-2.865597137e-19
2.817801024e-20
-2.95665032e-19
2.571724839e-20
-3.053402723e-19
2.303952295e-20
-3.156195447e-19
2.016140122e-20
-3.265402038e-19
1.710200393e-20
-3.381427581e-19
1.388283378e-20
-3.50471989e-19
1.052639467e-20
-3.635764264e-19
7.055370534e-21
-3.775082302e-19
3.490781373e-21
-3.92321263e-19
-1.491830818e-22
-4.080701186e-19
-3.851507591e-21
-4.248078903e-19
-7.610406983e-21
-4.425844845e-19
-1.143085837e-20
-4.614422095e-19
-1.533178519e-20
-4.814102735e-19
-1.935030856e-20
-5.024958606e-19
-2.354521241e-20
-5.246744492e-19
-2.800112491e-20
-5.478772352e-19
-3.283145061e-20
-5.719775018e-19
-3.818084746e-20
-5.967730188e-19
-4.422418555e-20
-6.219667513e-19
-5.116157344e-20
-6.47145542e-19
-5.920541381e-20
-6.717634312e-19
-6.855812125e-20
-6.951346031e-19
-7.937539143e-20
-7.164483705e-19
-9.171254538e-20
-7.348188272e-19
-1.054500334e-19
-7.493901894e-19
-1.202023993e-19
-7.5951189e-19
-1.352224876e-19
-7.649836459e-19
-1.493357425e-19
-7.663167149e-19
-1.609783232e-19
-7.64827493e-19
-1.684924183e-19
-7.620018307e-19
-1.709305948e-19
-7.570273851e-19
-1.697197602e-19
-7.400510594e-19
-1.708444611e-19
-6.785958424e-19
-1.853686168e-19
-5.070425208e-19
-2.190868171e-19
-2.257654677e-19
-2.411447405e-19
3.769712182e-19
-1.053893299e-19
2.884155393e-19
7.341155002e-19
-2.038935316e-19
-2.925848975e-19
-5.607097489e-20
-5.029199791e-20
-6.039110382e-21
4.75552844e-21
9.234658301e-21
1.328583472e-20
1.392325939e-20
1.247016246e-20
1.583826228e-20
1.060671219e-20
1.717738809e-20
8.967659222e-21
1.832903659e-20
7.449564089e-21
1.929278519e-20
5.905813349e-21
2.007679364e-20
4.294973494e-21
2.069812248e-20
2.602088532e-21
2.113923229e-20
8.049198017e-22
2.134358828e-20
-1.114590954e-21
2.123593552e-20
-3.151907455e-21
2.074817351e-20
-5.270915225e-21
1.984007331e-20
-7.40673839e-21
1.850997635e-20
-9.476988899e-21
1.679318245e-20
-1.13970035e-20
1.475238562e-20
-1.309318331e-20
1.246394409e-20
-1.451184278e-20
1.000472597e-20
-1.562209334e-20
7.441282642e-21
-1.641393462e-20
4.823987332e-21
-1.689236208e-20
2.185588153e-21
-1.707001621e-20
-4.554970052e-22
-1.695965987e-20
-3.089235614e-21
-1.65685918e-20
-5.705851425e-21
-1.589538736e-20
-8.288037469e-21
-1.493003661e-20
-1.080447885e-20
-1.365694552e-20
-1.320714831e-20
-1.206084412e-20
-1.543275159e-20
-1.013404387e-20
-1.740946163e-20
-7.883949923e-21
-1.90677262e-20
-5.33845751e-21
-2.035406291e-20
-2.547745291e-21
-2.124460884e-20
4.192683471e-22
-2.175521929e-20
3.483911791e-21
-2.194298381e-20
6.571524934e-21
-2.189617434e-20
9.626501112e-21
-2.171390709e-20
1.262357574e-20
-2.148196907e-20
1.557014159e-20
-2.125469792e-20
1.849689435e-20
-2.106274206e-20
2.143834924e-20
-2.096020448e-20
2.44198461e-20
-2.102968302e-20
2.748806141e-20
-2.099388192e-20
3.078401497e-20
-1.881045974e-20
3.438606624e-20
-6.885971604e-21
3.696992799e-20
3.870401006e-20
3.016491151e-20
1.81132233e-19
-2.325608935e-20
-3.140248316e-19
-2.64131921e-19
-8.108708126e-19
7.615496983e-19
-8.565387811e-19
-9.791420174e-19
-5.05461821e-19
-3.222088848e-18
1.896724859e-20
-3.140052193e-18
4.926172397e-31
-1.833428758e-19
3.227290657e-20
-1.836782049e-19
3.242999383e-20
-1.842460655e-19
3.277145271e-20
-1.850545576e-19
3.327842226e-20
-1.861055057e-19
3.392678912e-20
-1.874074418e-19
3.469041654e-20
-1.889694222e-19
3.554174835e-20
-1.908007252e-19
3.645203497e-20
-1.929105711e-19
3.739189448e-20
-1.953081807e-19
3.833158286e-20
-1.980025759e-19
3.92414933e-20
-2.010027735e-19
4.009237068e-20
-2.043176728e-19
4.085575313e-20
-2.079562938e-19
4.150413904e-20
-2.119276629e-19
4.201140791e-20
-2.16241068e-19
4.235295895e-20
-2.209060001e-19
4.250611155e-20
-2.259325004e-19
4.245021421e-20
-2.313311853e-19
4.216700191e-20
-2.371135995e-19
4.164068419e-20
-2.432921542e-19
4.085830886e-20
-2.498803824e-19
3.980987208e-20
-2.568928659e-19
3.848870555e-20
-2.643456537e-19
3.689157424e-20
-2.722564769e-19
3.501898713e-20
-2.806454011e-19
3.287517754e-20
-2.89535023e-19
3.046830658e-20
-2.989508015e-19
2.781038004e-20
-3.089208697e-19
2.49174168e-20
-3.194762987e-19
2.18092642e-20
-3.306513818e-19
1.850946147e-20
-3.424846529e-19
1.504452312e-20
-3.55019535e-19
1.144314093e-20
-3.683048167e-19
7.734862389e-21
-3.823940314e-19
3.948822622e-21
-3.973447527e-19
1.119281165e-22
-4.132175699e-19
-3.753218093e-21
-4.300754783e-19
-7.631402056e-21
-4.479822742e-19
-1.151845057e-20
-4.669996441e-19
-1.542584073e-20
-4.871816372e-19
-1.93856273e-20
-5.085672339e-19
-2.345612508e-20
-5.311705519e-19
-2.772783662e-20
-5.549690631e-19
-3.232980257e-20
-5.798881862e-19
-3.7435057e-20
-6.057816741e-19
-4.326409232e-20
-6.32406699e-19
-5.008363902e-20
-6.593955178e-19
-5.819808333e-20
-6.862267651e-19
-6.792870027e-20
-7.122034714e-19
-7.957462766e-20
-7.364486638e-19
-9.334671262e-20
-7.579386178e-19
-1.092651729e-19
-7.756028741e-19
-1.270127234e-19
-7.885301255e-19
-1.457402013e-19
-7.963256074e-19
-1.638367227e-19
-7.996592996e-19
-1.787211626e-19
-8.009297266e-19
-1.868185611e-19
-8.046170309e-19
-1.841382059e-19
-8.157286126e-19
-1.68181343e-19
-8.326825538e-19
-1.422809062e-19
-8.295308317e-19
-1.213792876e-19
-7.380334638e-19
-1.380948928e-19
-3.184470161e-19
-2.492847706e-19
-8.582237714e-20
1.326219728e-30
3.350277451e-19
3.132666312e-19
3.839936675e-20
4.045566688e-21
-1.023448843e-21
-1.086696802e-20
2.491195833e-21
1.243049098e-21
8.418986102e-21
7.360253803e-21
1.205980926e-20
8.831678807e-21
1.419920934e-20
8.469862064e-21
1.565929307e-20
7.510311268e-21
1.6785286e-20
6.32648493e-21
1.768194541e-20
5.012221456e-21
1.83839088e-20
3.596302907e-21
1.890095388e-20
2.088568371e-21
1.921972166e-20
4.899093884e-22
1.930627192e-20
-1.197294701e-21
1.911692784e-20
-2.958727476e-21
1.86123505e-20
-4.762645938e-21
1.776982292e-20
-6.560659372e-21
1.658996179e-20
-8.293774111e-21
1.509700281e-20
-9.900912113e-21
1.333372625e-20
-1.132717194e-20
1.135369351e-20
-1.252959717e-20
9.212884848e-21
-1.347975083e-20
6.962855225e-21
-1.416300274e-20
4.646333123e-21
-1.457546457e-20
2.295944608e-21
-1.471952669e-20
-6.44289301e-23
-1.459936921e-20
-2.41603129e-21
-1.421727141e-20
-4.740500611e-21
-1.357161752e-20
-7.014946435e-21
-1.265680577e-20
-9.208377592e-21
-1.146526017e-20
-1.128034806e-20
-9.991005162e-21
-1.318265774e-20
-8.234203458e-21
-1.486396935e-20
-6.205427822e-21
-1.627701407e-20
-3.92857635e-21
-1.73870494e-20
-1.441162481e-21
-1.817996551e-20
1.208591207e-21
-1.86676063e-20
3.967983225e-21
-1.888800777e-20
6.788352853e-21
-1.889909977e-20
9.633937295e-21
-1.876734144e-20
1.248811287e-20
-1.855521645e-20
1.535451626e-20
-1.831324302e-20
1.825181023e-20
-1.808124547e-20
2.120358312e-20
-1.78919893e-20
2.422799515e-20
-1.773372939e-20
2.732735861e-20
-1.739183096e-20
3.04398501e-20
-1.622659811e-20
3.321879945e-20
-1.369098795e-20
3.44319586e-20
-1.471699074e-20
3.118754368e-20
-5.974359679e-20
2.176800036e-20
-3.61655813e-19
3.777964512e-20
5.838817006e-20
3.415056744e-19
-3.208353406e-19
1.517835955e-30
-2.720213906e-19
-2.853168788e-18
1.049296704e-19
-3.569527427e-18
7.634529462e-31
-1.801705116e-19
3.41678166e-20
-1.805329424e-19
3.434549795e-20
-1.811468729e-19
3.472864807e-20
-1.820209041e-19
3.529651597e-20
-1.831574892e-19
3.602257086e-20
-1.845654495e-19
3.687811534e-20
-1.86254116e-19
3.783276806e-20
-1.882327943e-19
3.885493592e-20
-1.905107329e-19
3.991222965e-20
-1.930969326e-19
4.097198237e-20
-1.960002046e-19
4.200158577e-20
-1.992291026e-19
4.29689405e-20
-2.027920618e-19
4.384271701e-20
-2.066973506e-19
4.459276168e-20
-2.109532109e-19
4.519031446e-20
-2.155678274e-19
4.560837913e-20
-2.20549534e-19
4.582191262e-20
-2.25906883e-19
4.580816099e-20
-2.316489219e-19
4.554682002e-20
-2.37785247e-19
4.502036655e-20
-2.443261749e-19
4.421424427e-20
-2.512827042e-19
4.311722853e-20
-2.586667076e-19
4.172164668e-20
-2.664911043e-19
4.002374053e-20
-2.747703784e-19
3.802382395e-20
-2.835209738e-19
3.57265735e-20
-2.927617511e-19
3.314112718e-20
-3.025140505e-19
3.02813406e-20
-3.128018337e-19
2.716585507e-20
-3.236518661e-19
2.381821446e-20
-3.350945472e-19
2.026658606e-20
-3.471649791e-19
1.654333296e-20
-3.599041424e-19
1.268413754e-20
-3.733593631e-19
8.727044599e-21
-3.875843166e-19
4.7111209e-21
-4.026386818e-19
6.748721579e-22
-4.185882721e-19
-3.346173081e-21
-4.355052189e-19
-7.322638953e-21
-4.534677019e-19
-1.123559268e-20
-4.725579058e-19
-1.508159345e-20
-4.928579954e-19
-1.887876817e-20
-5.144438962e-19
-2.267378812e-20
-5.373771731e-19
-2.655015811e-20
-5.616939854e-19
-3.063741472e-20
-5.873897921e-19
-3.512078078e-20
-6.143976342e-19
-4.024965386e-20
-6.425588588e-19
-4.634300739e-20
-6.715858653e-19
-5.378821147e-20
-7.010184031e-19
-6.302811881e-20
-7.301771648e-19
-7.452774384e-20
-7.581241943e-19
-8.870815578e-20
-7.836490707e-19
-1.058312144e-19
-8.053133369e-19
-1.258149924e-19
-8.216060434e-19
-1.479555393e-19
-8.313040742e-19
-1.705295468e-19
-8.341951049e-19
-1.902625513e-19
-8.323616941e-19
-2.017007016e-19
-8.319550963e-19
-1.967080722e-19
-8.44339349e-19
-1.653531677e-19
-8.793853707e-19
-9.987420971e-20
-9.393303724e-19
-4.889931481e-21
-8.164014705e-19
1.328644797e-19
-6.653925757e-19
1.247118332e-19
-2.793051938e-19
-5.961946767e-20
2.580667921e-20
8.155617141e-21
2.348683202e-20
6.36691176e-21
1.108656832e-20
1.535009134e-21
8.608400549e-21
3.723019974e-21
9.890411105e-21
6.080163614e-21
1.169799257e-20
7.026228406e-21
1.323965849e-20
6.930577786e-21
1.447546673e-20
6.277123314e-21
1.547102255e-20
5.333726019e-21
1.626602683e-20
4.220170384e-21
1.687617426e-20
2.989271025e-21
1.73022949e-20
1.665760526e-21
1.753251756e-20
2.63163147e-22
1.754483914e-20
-1.206050562e-21
1.731300935e-20
-2.72336941e-21
1.681433709e-20
-4.26055662e-21
1.603670819e-20
-5.779771861e-21
1.498282372e-20
-7.236787555e-21
1.367074304e-20
-8.585944428e-21
1.213130102e-20
-9.785153822e-21
1.040353977e-20
-1.079972629e-20
8.529633014e-21
-1.160429227e-20
6.550393404e-21
-1.218279111e-20
4.502270914e-21
-1.252683867e-20
2.416102172e-21
-1.263319964e-20
3.176688704e-22
-1.250103363e-20
-1.77037748e-21
-1.212964529e-20
-3.825688776e-21
-1.151715169e-20
-5.82340084e-21
-1.066042157e-20
-7.734122635e-21
-9.556245391e-21
-9.523546291e-21
-8.20355234e-21
-1.11538821e-20
-6.606062402e-21
-1.258711789e-20
-4.774713947e-21
-1.378960017e-20
-2.729018656e-21
-1.473729571e-20
-4.967510233e-22
-1.542057346e-20
1.888427276e-21
-1.584723669e-20
4.391209252e-21
-1.604242333e-20
6.980120586e-21
-1.604492411e-20
9.632946924e-21
-1.590093811e-20
1.234062199e-20
-1.565792249e-20
1.51082029e-20
-1.536146998e-20
1.795242673e-20
-1.505683356e-20
2.089628635e-20
-1.479262584e-20
2.396124975e-20
-1.462123772e-20
2.715352797e-20
-1.461288178e-20
3.042921187e-20
-1.501343896e-20
3.361721075e-20
-1.69354027e-20
3.635169615e-20
-2.413653428e-20
3.838628237e-20
-4.373195204e-20
4.136166132e-20
-5.79297807e-20
5.197695725e-20
2.236319448e-19
5.994376479e-20
2.231882471e-19
2.602432632e-21
-3.934968094e-19
-1.146109679e-18
1.932711258e-19
-3.934734218e-18
1.337218675e-30
-1.76728341e-19
3.61319501e-20
-1.77119682e-19
3.633345004e-20
-1.777827286e-19
3.676468403e-20
-1.78726757e-19
3.740267588e-20
-1.799548405e-19
3.821825572e-20
-1.814762376e-19
3.917976926e-20
-1.833005097e-19
4.025374543e-20
-1.854371269e-19
4.140532392e-20
-1.87895305e-19
4.259884915e-20
-1.906839523e-19
4.379833327e-20
-1.938115979e-19
4.496794345e-20
-1.972864539e-19
4.607238055e-20
-2.011163988e-19
4.707727903e-20
-2.053090602e-19
4.794951587e-20
-2.098717899e-19
4.865755627e-20
-2.148117653e-19
4.917170545e-20
-2.201360418e-19
4.946442088e-20
-2.258517434e-19
4.951053779e-20
-2.319661736e-19
4.92875568e-20
-2.384869659e-19
4.877589187e-20
-2.454220768e-19
4.795920335e-20
-2.527798507e-19
4.6824695e-20
-2.605690635e-19
4.536349409e-20
-2.687992423e-19
4.357095686e-20
-2.774810436e-19
4.144701958e-20
-2.866267796e-19
3.899647365e-20
-2.962507102e-19
3.622930649e-20
-3.063692436e-19
3.316098061e-20
-3.170010163e-19
2.981274891e-20
-3.281673966e-19
2.621177237e-20
-3.39893438e-19
2.23910776e-20
-3.522093279e-19
1.8389188e-20
-3.651516553e-19
1.424957851e-20
-3.787642582e-19
1.001988279e-20
-3.930985337e-19
5.750906659e-21
-4.082139617e-19
1.495093015e-21
-4.241791265e-19
-2.695747597e-21
-4.410731966e-19
-6.773757732e-21
-4.589867987e-19
-1.069934878e-20
-4.780215215e-19
-1.444660948e-20
-4.982875733e-19
-1.800986739e-20
-5.198998728e-19
-2.141184244e-20
-5.429722491e-19
-2.471369161e-20
-5.676087279e-19
-2.802711309e-20
-5.938896309e-19
-3.152807991e-20
-6.218499874e-19
-3.547133115e-20
-6.514476576e-19
-4.020404742e-20
-6.825189397e-19
-4.617592e-20
-7.147195604e-19
-5.394042683e-20
-7.474503522e-19
-6.413804965e-20
-7.797715963e-19
-7.744712808e-20
-8.103177407e-19
-9.448154886e-20
-8.372344384e-19
-1.156070571e-19
-8.5817749e-19
-1.406390224e-19
-8.704571431e-19
-1.683741547e-19
-8.71503262e-19
-1.958770004e-19
-8.599031589e-19
-2.173158479e-19
-8.376379131e-19
-2.220708508e-19
-8.119736717e-19
-1.912495973e-19
-7.887629429e-19
-9.609315479e-20
-7.869113892e-19
7.55394854e-20
-3.043780288e-19
2.629727673e-20
1.937552478e-19
6.847329547e-31
4.184462223e-20
9.229109558e-20
2.401797368e-20
2.598291072e-20
1.865492928e-20
1.173112468e-20
1.327457911e-20
6.91679003e-21
1.09655441e-20
6.033625738e-21
1.083647583e-20
6.210972364e-21
1.160234192e-20
6.262345603e-21
1.25862039e-20
5.94898512e-21
1.353206936e-20
5.333778994e-21
1.435746685e-20
4.511036839e-21
1.503512736e-20
3.545350465e-21
1.555266367e-20
2.474702302e-21
1.589969742e-20
1.321827128e-21
1.606330376e-20
1.027796563e-22
1.60275202e-20
-1.166987356e-21
1.577582202e-20
-2.468418821e-21
1.529512178e-20
-3.776710478e-21
1.457969241e-20
-5.061334579e-21
1.363366672e-20
-6.287908877e-21
1.247153362e-20
-7.42114307e-21
1.111672849e-20
-8.427952664e-21
9.598973658e-21
-9.279961182e-21
7.951134202e-21
-9.954927662e-21
6.206345808e-21
-1.043697953e-20
4.395909834e-21
-1.071583068e-20
2.548268251e-21
-1.078535486e-20
6.89057205e-22
-1.064197131e-20
-1.157883941e-21
-1.028324757e-20
-2.968958579e-21
-9.707065763e-21
-4.719224631e-21
-8.911529748e-21
-6.381429594e-21
-7.895659673e-21
-7.926056256e-21
-6.660675525e-21
-9.322533599e-21
-5.211520459e-21
-1.054142256e-20
-3.558116512e-21
-1.155733245e-20
-1.715886044e-21
-1.235211734e-20
2.948588407e-22
-1.291779138e-20
2.450774807e-21
-1.32583253e-20
4.728474364e-21
-1.338959692e-20
7.108170977e-21
-1.333724889e-20
9.577315925e-21
-1.31333572e-20
1.213340879e-20
-1.281369859e-20
1.478539662e-20
-1.241761017e-20
1.755349619e-20
-1.199187021e-20
2.046791749e-20
-1.160034756e-20
2.356716769e-20
-1.134555356e-20
2.689627246e-20
-1.142488303e-20
3.050623164e-20
-1.227895349e-20
3.446909364e-20
-1.490081616e-20
3.897137468e-20
-2.116115543e-20
4.464446022e-20
-3.311665594e-20
5.331576931e-20
-4.99629725e-20
6.88225247e-20
-8.708411271e-20
9.706619499e-20
-2.559771472e-19
1.714961427e-19
-6.891786217e-19
1.148940377e-30
2.730988284e-19
-4.359810783e-18
1.098903495e-30
-1.729914706e-19
3.815673147e-20
-1.734135093e-19
3.838579146e-20
-1.74128814e-19
3.887236995e-20
-1.751473699e-19
3.9591028e-20
-1.764730064e-19
4.050956562e-20
-1.781154339e-19
4.159302264e-20
-1.800845484e-19
4.280439238e-20
-1.82389978e-19
4.410518503e-20
-1.850409926e-19
4.545605349e-20
-1.88046395e-19
4.681736786e-20
-1.914145122e-19
4.814970665e-20
-1.951531892e-19
4.941432059e-20
-1.992698246e-19
5.057350654e-20
-2.037713737e-19
5.159097154e-20
-2.086643769e-19
5.243213248e-20
-2.139549718e-19
5.306441322e-20
-2.196489972e-19
5.345749287e-20
-2.25752092e-19
5.358358781e-20
-2.322698236e-19
5.341770111e-20
-2.392077299e-19
5.293794211e-20
-2.465713213e-19
5.212584757e-20
-2.543660438e-19
5.09667645e-20
-2.625973634e-19
4.945023493e-20
-2.712710049e-19
4.757040812e-20
-2.803933716e-19
4.532642945e-20
-2.899719676e-19
4.27228688e-20
-3.00015712e-19
3.977014772e-20
-3.10535068e-19
3.648501324e-20
-3.21542264e-19
3.289095057e-20
-3.33051891e-19
2.901850555e-20
-3.450821127e-19
2.490537588e-20
-3.576562291e-19
2.059632995e-20
-3.708041541e-19
1.614293612e-20
-3.845634395e-19
1.16031756e-20
-3.989801218e-19
7.040767847e-21
-4.141099806e-19
2.523971796e-21
-4.300206583e-19
-1.876470467e-21
-4.467942833e-19
-6.09038082e-21
-4.645297331e-19
-1.005224667e-20
-4.833437683e-19
-1.370641531e-20
-5.033709707e-19
-1.701372751e-20
-5.247627168e-19
-1.996014821e-20
-5.476848642e-19
-2.25680116e-20
-5.723127335e-19
-2.491028719e-20
-5.988208553e-19
-2.712792617e-20
-6.273644507e-19
-2.945014882e-20
-6.580490082e-19
-3.221709374e-20
-6.908835446e-19
-3.590342473e-20
-7.257115283e-19
-4.113894565e-20
-7.621136307e-19
-4.871831107e-20
-7.992790041e-19
-5.958543321e-20