/*--------------------------------*- C++ -*----------------------------------*\
  =========                 |
  \\      /  F ield         | OpenFOAM: The Open Source CFD Toolbox
   \\    /   O peration     | Website:  https://openfoam.org
    \\  /    A nd           | Version:  6
     \\/     M anipulation  |
\*---------------------------------------------------------------------------*/
FoamFile
{
    version     2.0;
    format      ascii;
    class       volScalarField;
    location    "0.006";
    object      TRHS;
}
// * * * * * * * * * * * * * * * * * * * * * * * * * * * * * * * * * * * * * //

dimensions      [1 -1 -3 0 0 0 0];

internalField   nonuniform List<scalar> 
9600
(
5.048111237e-09
4.499748725e-09
3.965602086e-09
3.445923333e-09
2.94841757e-09
2.450592392e-09
1.933119204e-09
1.397451148e-09
8.256242305e-10
2.197183008e-10
-4.379214335e-10
-1.144967716e-09
-1.919408671e-09
-2.759234877e-09
-3.683091699e-09
-4.689220958e-09
-5.796617307e-09
-7.003545867e-09
-8.329324203e-09
-9.772474459e-09
-1.135280819e-08
-1.306876319e-08
-1.493966716e-08
-1.696273633e-08
-1.915606764e-08
-2.15158907e-08
-2.406004757e-08
-2.678453132e-08
-2.970616819e-08
-3.281808978e-08
-3.613279088e-08
-3.963882257e-08
-4.334564537e-08
-4.724050668e-08
-5.133171276e-08
-5.560326192e-08
-6.005752531e-08
-6.467196695e-08
-6.944465156e-08
-7.435130954e-08
-7.938800807e-08
-8.452511386e-08
-8.975059244e-08
-9.502958718e-08
-1.003537099e-07
-1.057030861e-07
-1.110912011e-07
-1.165206179e-07
-1.220253018e-07
-1.2763284e-07
-1.334191219e-07
-1.394757404e-07
-1.459608278e-07
-1.530640396e-07
-1.610732872e-07
-1.703769965e-07
-1.816227892e-07
-1.959410394e-07
-2.15407813e-07
-2.428250618e-07
-2.792657286e-07
-3.132443761e-07
-2.942154217e-07
-1.712876498e-07
1.552697461e-08
-6.949746662e-07
-0.001634945921
1294.970118
0
0
0
0
0
0
0
0
0
0
0
0
0
0
0
0
0
0
0
0
0
0
0
0
0
0
0
0
0
0
0
0
0
0
0
0
0
0
0
0
0
0
0
0
771.6914609
-0.0009749521096
2.663805113e-07
5.717583972e-07
3.801601833e-07
-1.526242541e-08
-2.734780355e-07
-4.123265798e-08
5.327453145e-09
4.734679506e-09
4.162541157e-09
3.606875151e-09
3.079770851e-09
2.553821327e-09
2.014339273e-09
1.457508274e-09
8.70102334e-10
2.488640736e-10
-4.19081293e-10
-1.136823202e-09
-1.917472046e-09
-2.76442426e-09
-3.691183602e-09
-4.701316566e-09
-5.808479167e-09
-7.01629939e-09
-8.338749026e-09
-9.779732577e-09
-1.135339128e-08
-1.306324975e-08
-1.492257911e-08
-1.693366469e-08
-1.910877664e-08
-2.144964327e-08
-2.396834161e-08
-2.6665822e-08
-2.955195303e-08
-3.262371002e-08
-3.588628081e-08
-3.933284332e-08
-4.296654977e-08
-4.677936167e-08
-5.07717189e-08
-5.492983558e-08
-5.924623372e-08
-6.369996159e-08
-6.827890868e-08
-7.295875556e-08
-7.772174504e-08
-8.253396157e-08
-8.736654416e-08
-9.217890305e-08
-9.694406824e-08
-1.016316988e-07
-1.062283815e-07
-1.107166331e-07
-1.150971042e-07
-1.193767981e-07
-1.23599979e-07
-1.278354708e-07
-1.321978708e-07
-1.36821711e-07
-1.418627475e-07
-1.474605558e-07
-1.538458096e-07
-1.617618329e-07
-1.736096496e-07
-1.953419691e-07
-2.373606568e-07
-2.979186517e-07
-3.010242689e-07
-2.325329026e-07
1.019531063e-06
-0.005374165231
2131.937268
0
0
0
0
0
0
0
0
0
0
0
0
0
0
0
0
0
0
0
0
0
0
0
0
0
0
0
0
0
0
0
0
0
0
0
0
0
0
0
0
0
0
0
0
0
0
1865.889429
-0.004703109674
8.721123916e-07
2.645917492e-07
3.037207728e-08
-3.214805724e-07
-7.683909646e-08
5.604166073e-09
4.963563862e-09
4.351811179e-09
3.758156587e-09
3.20069024e-09
2.645354487e-09
2.083846826e-09
1.505266996e-09
9.028234163e-10
2.660966612e-10
-4.112345952e-10
-1.139543087e-09
-1.925261659e-09
-2.779012717e-09
-3.707397588e-09
-4.721078243e-09
-5.826613726e-09
-7.034801102e-09
-8.352392132e-09
-9.790455488e-09
-1.135566e-08
-1.305842394e-08
-1.490424447e-08
-1.690232449e-08
-1.905732351e-08
-2.137819658e-08
-2.386931261e-08
-2.653828948e-08
-2.938626208e-08
-3.241602313e-08
-3.562390871e-08
-3.900960255e-08
-4.256819481e-08
-4.629801345e-08
-5.01899262e-08
-5.423429253e-08
-5.841238243e-08
-6.270659237e-08
-6.709297209e-08
-7.154872053e-08
-7.604095708e-08
-8.053321845e-08
-8.497806359e-08
-8.932905521e-08
-9.353630296e-08
-9.7556393e-08
-1.013433452e-07
-1.048565149e-07
-1.080572066e-07
-1.109272047e-07
-1.134727231e-07
-1.157405342e-07
-1.178105161e-07
-1.197796868e-07
-1.216716966e-07
-1.232854464e-07
-1.240207571e-07
-1.22954723e-07
-1.19723548e-07
-1.197978313e-07
-1.435652464e-07
-2.412441742e-07
-4.441010425e-07
5.921467734e-07
1.176013115e-06
-0.05127542831
5154.293148
0
0
0
0
0
0
0
0
0
0
0
0
0
0
0
0
0
0
0
0
0
0
0
0
0
0
0
0
0
0
0
0
0
0
0
0
0
0
0
0
0
0
0
0
0
0
4637.231481
-0.04872392427
1.955800397e-06
1.504464416e-06
5.487620068e-08
-3.098964519e-07
-4.395422879e-08
5.872555636e-09
5.183715727e-09
4.527390328e-09
3.896483484e-09
3.304822992e-09
2.72192893e-09
2.135483389e-09
1.537805342e-09
9.180676469e-10
2.690982635e-10
-4.195338434e-10
-1.154863981e-09
-1.94741751e-09
-2.804260382e-09
-3.735930793e-09
-4.749332563e-09
-5.854865112e-09
-7.059452798e-09
-8.373755046e-09
-9.804822164e-09
-1.136300772e-08
-1.305442111e-08
-1.488809788e-08
-1.686891532e-08
-1.900529169e-08
-2.130197427e-08
-2.37669272e-08
-2.640286396e-08
-2.921364187e-08
-3.219661125e-08
-3.535102526e-08
-3.867189408e-08
-4.215778683e-08
-4.580188125e-08
-4.959691123e-08
-5.352616552e-08
-5.757148631e-08
-6.170773915e-08
-6.591085438e-08
-7.014861873e-08
-7.438460018e-08
-7.856898686e-08
-8.264680753e-08
-8.655385811e-08
-9.022623365e-08
-9.359322401e-08
-9.658270465e-08
-9.911476195e-08
-1.011149624e-07
-1.025202075e-07
-1.033011253e-07
-1.034724043e-07
-1.031110984e-07
-1.023267195e-07
-1.011469235e-07
-9.919999366e-08
-9.504505689e-08
-8.457068692e-08
-5.848102239e-08
4.298345124e-09
1.438862376e-07
3.90190662e-07
3.33024209e-07
4.961281501e-07
-2.299496112e-06
15187.05576
0
0
0
0
0
0
0
0
0
0
0
0
0
0
0
0
0
0
0
0
0
0
0
0
0
0
0
0
0
0
0
0
0
0
0
0
0
0
0
0
0
0
0
0
0
0
0
0
14691.51385
-1.79068027e-06
2.270813269e-06
8.043407019e-07
1.882344218e-07
1.075668019e-07
6.129824605e-09
5.388128989e-09
4.686563922e-09
4.015456866e-09
3.390243009e-09
2.777929786e-09
2.168165819e-09
1.55036854e-09
9.15616033e-10
2.538227753e-10
-4.435020789e-10
-1.186267951e-09
-1.982880695e-09
-2.843176904e-09
-3.77528331e-09
-4.788701858e-09
-5.8913085e-09
-7.092635164e-09
-8.400699259e-09
-9.825039536e-09
-1.137318634e-08
-1.305352162e-08
-1.487205596e-08
-1.683601242e-08
-1.895090042e-08
-2.122384559e-08
-2.36595897e-08
-2.626261565e-08
-2.903286489e-08
-3.196922718e-08
-3.506748332e-08
-3.832495691e-08
-4.17370593e-08
-4.529848456e-08
-4.899717154e-08
-5.281634878e-08
-5.673241615e-08
-6.072011037e-08
-6.474940535e-08
-6.878588416e-08
-7.278380116e-08
-7.66871637e-08
-8.042755146e-08
-8.392923033e-08
-8.710684994e-08
-8.986650195e-08
-9.210017414e-08
-9.36891132e-08
-9.450797202e-08
-9.444073407e-08
-9.339903139e-08
-9.135746631e-08
-8.839294395e-08
-8.471091499e-08
-8.059988943e-08
-7.623046367e-08
-7.092341831e-08
-6.121655099e-08
-3.487542864e-08
4.136730655e-08
2.412663351e-07
6.205047241e-07
1.480693984e-06
-0.004184890019
1660.084553
0
0
0
0
0
0
0
0
0
0
0
0
0
0
0
0
0
0
0
0
0
0
0
0
0
0
0
0
0
0
0
0
0
0
0
0
0
0
0
0
0
0
0
0
0
0
0
0
0
0
1129.230412
-0.002845805079
1.503800702e-06
-1.874494589e-07
-1.415698701e-07
6.368863404e-09
5.572354288e-09
4.82259024e-09
4.110900838e-09
3.45072363e-09
2.809934341e-09
2.176554957e-09
1.540433712e-09
8.910007071e-10
2.1860091e-10
-4.868378879e-10
-1.234667299e-09
-2.034737441e-09
-2.896044691e-09
-3.827956775e-09
-4.838967246e-09
-5.938087876e-09
-7.13375012e-09
-8.435087118e-09
-9.850390312e-09
-1.138806146e-08
-1.305501925e-08
-1.485810621e-08
-1.680305418e-08
-1.889626763e-08
-2.114330562e-08
-2.354945156e-08
-2.611706435e-08
-2.884623992e-08
-3.173386373e-08
-3.477645877e-08
-3.796998493e-08
-4.131053826e-08
-4.479045226e-08
-4.839689788e-08
-5.210979527e-08
-5.590473828e-08
-5.975352579e-08
-6.362481309e-08
-6.747929444e-08
-7.126674637e-08
-7.492272647e-08
-7.837027667e-08
-8.151962242e-08
-8.42679936e-08
-8.649459608e-08
-8.805723691e-08
-8.879024556e-08
-8.850954696e-08
-8.702345406e-08
-8.415738581e-08
-7.980011411e-08
-7.3977734e-08
-6.695177075e-08
-5.935343611e-08
-5.232531578e-08
-4.73647447e-08
-4.419602495e-08
-3.482700756e-08
2.605909781e-08
2.031107535e-07
1.417549369e-06
1.889622919e-06
-0.01653034971
5404.378824
0
0
0
0
0
0
0
0
0
0
0
0
0
0
0
0
0
0
0
0
0
0
0
0
0
0
0
0
0
0
0
0
0
0
0
0
0
0
0
0
0
0
0
0
0
0
0
0
0
0
4327.136675
-0.01090795996
3.923355238e-06
7.966430856e-07
-3.531826018e-07
6.583447157e-09
5.728781253e-09
4.92945121e-09
4.17595091e-09
3.481086015e-09
2.812003454e-09
2.156479063e-09
1.503113914e-09
8.41076713e-10
1.595373555e-10
-5.517510028e-10
-1.30312916e-09
-2.104356952e-09
-2.965199026e-09
-3.894687918e-09
-4.901912368e-09
-5.995455737e-09
-7.18428843e-09
-8.476992435e-09
-9.882228107e-09
-1.140764737e-08
-1.306036144e-08
-1.48463242e-08
-1.677149449e-08
-1.884139249e-08
-2.106165802e-08
-2.343634018e-08
-2.596746815e-08
-2.86537887e-08
-3.149219539e-08
-3.447855828e-08
-3.760928404e-08
-4.087944931e-08
-4.428071016e-08
-4.779808812e-08
-5.1410568e-08
-5.509235252e-08
-5.88150361e-08
-6.254552063e-08
-6.624236122e-08
-6.985088458e-08
-7.330175682e-08
-7.651053088e-08
-7.937758759e-08
-8.178416237e-08
-8.3586283e-08
-8.46075005e-08
-8.463434548e-08
-8.341478859e-08
-8.06626547e-08
-7.607787194e-08
-6.939447635e-08
-6.046415497e-08
-4.939272284e-08
-3.68080047e-08
-2.436082015e-08
-1.485748763e-08
-1.157330125e-08
-1.2751442e-09
9.671554155e-08
2.957417631e-07
1.352963254e-06
9.95276942e-07
1153.460649
0
0
0
0
0
0
0
0
0
0
0
0
0
0
0
0
0
0
0
0
0
0
0
0
0
0
0
0
0
0
0
0
0
0
0
0
0
0
0
0
0
0
0
0
0
0
0
0
0
0
0
0
-0.1846255101
2.105441462e-06
1.934104713e-06
-4.244623244e-07
6.765115885e-09
5.849869451e-09
4.999257532e-09
4.203659458e-09
3.474399724e-09
2.778382567e-09
2.102254486e-09
1.433926944e-09
7.614182535e-10
7.331626851e-11
-6.415726667e-10
-1.393930068e-09
-2.19415717e-09
-3.052079602e-09
-3.977174645e-09
-4.978406854e-09
-6.064702694e-09
-7.244827223e-09
-8.527534707e-09
-9.921084799e-09
-1.143306799e-08
-1.307001678e-08
-1.483777818e-08
-1.674169264e-08
-1.878716289e-08
-2.097902584e-08
-2.332091353e-08
-2.581385045e-08
-2.845626117e-08
-3.124455932e-08
-3.417489314e-08
-3.724336603e-08
-4.044472268e-08
-4.376929737e-08
-4.720122037e-08
-5.071866922e-08
-5.429624732e-08
-5.790577225e-08
-6.151421398e-08
-6.507887358e-08
-6.854331478e-08
-7.183561559e-08
-7.486806875e-08
-7.753519644e-08
-7.970794792e-08
-8.122477118e-08
-8.188109656e-08
-8.141931749e-08
-7.951799749e-08
-7.578584511e-08
-6.976918619e-08
-6.098613019e-08
-4.898707669e-08
-3.346086114e-08
-1.449135207e-08
6.870433725e-09
2.591740408e-08
3.128813383e-08
-4.333768088e-09
-7.62608198e-08
4.197740205e-07
9.453486e-07
-0.02765239331
4270.465397
0
0
0
0
0
0
0
0
0
0
0
0
0
0
0
0
0
0
0
0
0
0
0
0
0
0
0
0
0
0
0
0
0
0
0
0
0
0
0
0
0
0
0
0
0
0
0
0
0
0
0
0
1533.943332
-0.003867607882
4.175007334e-06
-3.458563245e-07
6.904489256e-09
5.926046494e-09
5.023203615e-09
4.185639201e-09
3.423207565e-09
2.702135947e-09
2.008015429e-09
1.327505879e-09
6.476633333e-10
-4.400367262e-11
-7.593434119e-10
-1.509786152e-09
-2.306091538e-09
-3.158510888e-09
-4.076634297e-09
-5.069734296e-09
-6.14670948e-09
-7.316441522e-09
-8.5874833e-09
-9.967954767e-09
-1.146501763e-08
-1.308491601e-08
-1.483300801e-08
-1.671437249e-08
-1.873385652e-08
-2.089588524e-08
-2.320331677e-08
-2.565668704e-08
-2.82539195e-08
-3.099148734e-08
-3.386556081e-08
-3.68722174e-08
-4.000552615e-08
-4.325497692e-08
-4.660404876e-08
-5.003137095e-08
-5.351277034e-08
-5.702164871e-08
-6.052596593e-08
-6.398351081e-08
-6.733835644e-08
-7.051972557e-08
-7.344143446e-08
-7.599840967e-08
-7.805906812e-08
-7.945365435e-08
-7.996092577e-08
-7.929100993e-08
-7.706439768e-08
-7.278945759e-08
-6.585366422e-08
-5.553691525e-08
-4.104508066e-08
-2.152617195e-08
4.138426392e-09
3.827426587e-08
8.839508148e-08
1.750664327e-07
3.439885674e-07
3.129338031e-08
7.617123387e-07
-1.741746329e-06
6698.94614
0
0
0
0
0
0
0
0
0
0
0
0
0
0
0
0
0
0
0
0
0
0
0
0
0
0
0
0
0
0
0
0
0
0
0
0
0
0
0
0
0
0
0
0
0
0
0
0
0
0
0
0
0
0
-0.2400292382
4.138253517e-06
-0.05859485617
6.990307719e-09
5.946645468e-09
4.990999038e-09
4.112404885e-09
3.318835354e-09
2.575672947e-09
1.867023037e-09
1.178216918e-09
4.949331717e-10
-1.96315807e-10
-9.083502954e-10
-1.653218902e-09
-2.442265312e-09
-3.286036371e-09
-4.194488737e-09
-5.176987391e-09
-6.242587346e-09
-7.40006442e-09
-8.657853301e-09
-1.00236897e-08
-1.150440474e-08
-1.310574466e-08
-1.483274937e-08
-1.669001497e-08
-1.868201807e-08
-2.081257422e-08
-2.308402097e-08
-2.549632868e-08
-2.804723776e-08
-3.073319844e-08
-3.355049206e-08
-3.649492275e-08
-3.955999428e-08
-4.273458216e-08
-4.600231704e-08
-4.934305275e-08
-5.273480306e-08
-5.615333397e-08
-5.956871147e-08
-6.294093078e-08
-6.621729293e-08
-6.93321824e-08
-7.220621975e-08
-7.474206375e-08
-7.681499934e-08
-7.82605166e-08
-7.885761473e-08
-7.830627035e-08
-7.619315552e-08
-7.195055718e-08
-6.481998723e-08
-5.384782923e-08
-3.796639715e-08
-1.627827571e-08
1.13919826e-08
4.47703079e-08
8.632234898e-08
1.597982988e-07
3.577206702e-07
7.101513017e-07
1.791033571e-06
1.683942766e-06
-0.009267060189
0
0
0
0
0
0
0
0
0
0
0
0
0
0
0
0
0
0
0
0
0
0
0
0
0
0
0
0
0
0
0
0
0
0
0
0
0
0
0
0
0
0
0
0
0
0
0
0
0
0
0
0
0
0
-0.06320962147
-1.59385737e-07
-0.0314333357
7.00948947e-09
5.898781051e-09
4.890658137e-09
3.972975336e-09
3.15152333e-09
2.390409285e-09
1.672005863e-09
9.798669066e-10
2.982427731e-10
-3.876883132e-10
-1.091730758e-09
-1.826732042e-09
-2.604556872e-09
-3.436248063e-09
-4.331987307e-09
-5.301354286e-09
-6.353393495e-09
-7.496764316e-09
-8.739585511e-09
-1.008922913e-08
-1.155201601e-08
-1.313330483e-08
-1.483764612e-08
-1.666930218e-08
-1.863224682e-08
-2.072980886e-08
-2.296372037e-08
-2.533354245e-08
-2.783676419e-08
-3.046986973e-08
-3.322908542e-08
-3.610992536e-08
-3.910532828e-08
-4.220394625e-08
-4.539013738e-08
-4.864578306e-08
-5.195176361e-08
-5.528684136e-08
-5.862405245e-08
-6.192707934e-08
-6.514917787e-08
-6.823374487e-08
-7.111381307e-08
-7.37068504e-08
-7.590569812e-08
-7.756584287e-08
-7.848948119e-08
-7.83982905e-08
-7.688820547e-08
-7.335925037e-08
-6.692095142e-08
-5.627725763e-08
-3.966865467e-08
-1.519104017e-08
1.785078064e-08
5.461915655e-08
7.801128684e-08
5.39406405e-08
5.531314126e-08
1.436889259e-06
2.51895858e-06
-0.06628724959
18517.92171
0
0
0
0
0
0
0
0
0
0
0
0
0
0
0
0
0
0
0
0
0
0
0
0
0
0
0
0
0
0
0
0
0
0
0
0
0
0
0
0
0
0
0
0
0
0
0
0
0
0
0
0
0
0
12095.21579
-0.03049019452
-8.128528217e-07
6.946487234e-09
5.767722509e-09
4.708278136e-09
3.754771565e-09
2.910129662e-09
2.136831686e-09
1.414974463e-09
7.26048181e-10
5.24567876e-11
-6.220852109e-10
-1.312524027e-09
-2.032557887e-09
-2.794739689e-09
-3.610507449e-09
-4.490356472e-09
-5.44391574e-09
-6.480170523e-09
-7.607497914e-09
-8.833622012e-09
-1.016540455e-08
-1.160870032e-08
-1.31683626e-08
-1.484857053e-08
-1.665313133e-08
-1.858557913e-08
-2.064865755e-08
-2.284354678e-08
-2.516932054e-08
-2.762325476e-08
-3.020169255e-08
-3.290068665e-08
-3.571534015e-08
-3.863821259e-08
-4.165811928e-08
-4.476072116e-08
-4.793037342e-08
-5.115107215e-08
-5.440486877e-08
-5.766840471e-08
-6.091055161e-08
-6.409273612e-08
-6.717075594e-08
-7.009416257e-08
-7.280167476e-08
-7.521278552e-08
-7.721874273e-08
-7.866974919e-08
-7.935173752e-08
-7.89383841e-08
-7.690322199e-08
-7.235234128e-08
-6.36962656e-08
-4.802011713e-08
-1.998707924e-08
2.975429211e-08
1.154481346e-07
2.591743688e-07
4.921013407e-07
4.505377885e-07
1.004656382e-06
-1.280137073e-06
7778.385768
0
0
0
0
0
0
0
0
0
0
0
0
0
0
0
0
0
0
0
0
0
0
0
0
0
0
0
0
0
0
0
0
0
0
0
0
0
0
0
0
0
0
0
0
0
0
0
0
0
0
0
0
0
0
0
0
1198.276722
-0.01059671338
6.782945731e-09
5.535604465e-09
4.427516505e-09
3.443202148e-09
2.582152229e-09
1.804504295e-09
1.087517917e-09
4.101138934e-10
-2.47459663e-10
-9.032078716e-10
-1.573386098e-09
-2.272676781e-09
-3.01425775e-09
-3.810018035e-09
-4.670605819e-09
-5.60563256e-09
-6.623817027e-09
-7.733134884e-09
-8.940770178e-09
-1.025306101e-08
-1.167531104e-08
-1.321192565e-08
-1.486663839e-08
-1.664282914e-08
-1.854347549e-08
-2.057072872e-08
-2.272510577e-08
-2.500514292e-08
-2.740772956e-08
-2.992897802e-08
-3.256462724e-08
-3.530937886e-08
-3.815554944e-08
-4.109242143e-08
-4.410726848e-08
-4.718706158e-08
-5.031893392e-08
-5.348816218e-08
-5.667535185e-08
-5.985545672e-08
-6.299979201e-08
-6.607856226e-08
-6.906076845e-08
-7.190988141e-08
-7.457856368e-08
-7.700454756e-08
-7.910745029e-08
-8.077811391e-08
-8.185276863e-08
-8.205697018e-08
-8.088111369e-08
-7.726754065e-08
-6.882536183e-08
-4.986059987e-08
-6.929902123e-09
9.12458239e-08
3.094232837e-07
7.349571825e-07
4.150773189e-07
1.58901346e-06
-7.18167462e-07
-0.5625962439
0
0
0
0
0
0
0
0
0
0
0
0
0
0
0
0
0
0
0
0
0
0
0
0
0
0
0
0
0
0
0
0
0
0
0
0
0
0
0
0
0
0
0
0
0
0
0
0
0
0
0
0
0
0
0
0
-0.3421671778
-0.001748194708
6.496705038e-09
5.1815583e-09
4.029190134e-09
3.021509073e-09
2.153490341e-09
1.382067665e-09
6.808464375e-10
2.554436926e-11
-6.061707725e-10
-1.234268193e-09
-1.876499434e-09
-2.548514201e-09
-3.264159019e-09
-4.03558141e-09
-4.873473728e-09
-5.787179061e-09
-6.785005107e-09
-7.874322519e-09
-9.061760826e-09
-1.035300834e-08
-1.175288154e-08
-1.326526489e-08
-1.48934315e-08
-1.664023155e-08
-1.850802108e-08
-2.049817928e-08
-2.261049393e-08
-2.484283436e-08
-2.719161074e-08
-2.965250656e-08
-3.222085611e-08
-3.489094726e-08
-3.765501597e-08
-4.05030297e-08
-4.34238976e-08
-4.640698097e-08
-4.944205399e-08
-5.251735707e-08
-5.561754509e-08
-5.872426418e-08
-6.181936332e-08
-6.488819758e-08
-6.79194503e-08
-7.090218386e-08
-7.382328761e-08
-7.667010557e-08
-7.943692091e-08
-8.213319155e-08
-8.479261334e-08
-8.749427305e-08
-9.040523942e-08
-9.384262125e-08
-9.828526305e-08
-1.039494453e-07
-1.082900673e-07
-9.741398053e-08
-2.016221373e-08
2.80707696e-07
1.843828528e-06
3.517221139e-06
-0.03520203854
13965.70375
0
0
0
0
0
0
0
0
0
0
0
0
0
0
0
0
0
0
0
0
0
0
0
0
0
0
0
0
0
0
0
0
0
0
0
0
0
0
0
0
0
0
0
0
0
0
0
0
0
0
0
0
0
0
0
0
25082.7081
-0.1147723256
6.061026877e-09
4.679975553e-09
3.490399012e-09
2.470220061e-09
1.608420845e-09
8.574399023e-10
1.861352439e-10
-4.337502873e-10
-1.027617988e-09
-1.617694323e-09
-2.223223021e-09
-2.860844998e-09
-3.544847039e-09
-4.287498854e-09
-5.099208514e-09
-5.988855606e-09
-6.964067611e-09
-8.031562913e-09
-9.197239582e-09
-1.046621232e-08
-1.184270446e-08
-1.333008512e-08
-1.493104686e-08
-1.664775994e-08
-1.848180767e-08
-2.043371599e-08
-2.250235701e-08
-2.468484435e-08
-2.697692525e-08
-2.93737998e-08
-3.187027559e-08
-3.446027427e-08
-3.71359733e-08
-3.98879583e-08
-4.270650877e-08
-4.558281287e-08
-4.850867003e-08
-5.14747222e-08
-5.446947845e-08
-5.748120122e-08
-6.050216768e-08
-6.353199725e-08
-6.657773962e-08
-6.965158596e-08
-7.277154752e-08
-7.596829068e-08
-7.929873265e-08
-8.286323725e-08
-8.683412425e-08
-9.151682666e-08
-9.749308879e-08
-1.059367957e-07
-1.19289445e-07
-1.423946963e-07
-1.840848765e-07
-2.537176478e-07
-3.372757759e-07
-2.903241357e-07
1.440481021e-06
3.408221503e-06
-0.06428739605
16739.66293
0
0
0
0
0
0
0
0
0
0
0
0
0
0
0
0
0
0
0
0
0
0
0
0
0
0
0
0
0
0
0
0
0
0
0
0
0
0
0
0
0
0
0
0
0
0
0
0
0
0
0
0
0
0
0
0
-0.1586430943
-2.088435165e-06
5.443186537e-09
4.000187029e-09
2.783916292e-09
1.766795912e-09
9.295125334e-10
2.18028385e-10
-4.050594026e-10
-9.729432234e-10
-1.514599819e-09
-2.05465176e-09
-2.613797618e-09
-3.209386746e-09
-3.855908181e-09
-4.565324058e-09
-5.347481446e-09
-6.210448337e-09
-7.161042111e-09
-8.205126688e-09
-9.34790954e-09
-1.059382621e-08
-1.194648534e-08
-1.340860113e-08
-1.498212639e-08
-1.666840602e-08
-1.84680629e-08
-2.03806036e-08
-2.240395083e-08
-2.453430528e-08
-2.67667077e-08
-2.90956716e-08
-3.151546934e-08
-3.401953079e-08
-3.659991757e-08
-3.924757952e-08
-4.195357106e-08
-4.471007844e-08
-4.75100293e-08
-5.034583499e-08
-5.320944451e-08
-5.609525025e-08
-5.900481475e-08
-6.195015077e-08
-6.495367973e-08
-6.804720787e-08
-7.127447922e-08
-7.470101773e-08
-7.842832873e-08
-8.260989578e-08
-8.746937694e-08
-9.333549839e-08
-1.007128337e-07
-1.104286729e-07
-1.238844642e-07
-1.43345157e-07
-1.717194938e-07
-2.035197025e-07
-1.922103921e-07
-3.374811636e-07
3.589509605e-07
-1.459344786e-06
8763.625254
0
0
0
0
0
0
0
0
0
0
0
0
0
0
0
0
0
0
0
0
0
0
0
0
0
0
0
0
0
0
0
0
0
0
0
0
0
0
0
0
0
0
0
0
0
0
0
0
0
0
0
0
0
0
0
0
0
0
-0.4203112882
4.603486003e-09
3.104741708e-09
1.877413772e-09
8.854665834e-10
9.788544178e-11
-5.487223053e-10
-1.100100236e-09
-1.595580194e-09
-2.068080068e-09
-2.544572527e-09
-3.046857061e-09
-3.592549362e-09
-4.195754978e-09
-4.867696089e-09
-5.617186976e-09
-6.45123615e-09
-7.375588133e-09
-8.395254202e-09
-9.514588384e-09
-1.073735064e-08
-1.206636107e-08
-1.350352912e-08
-1.504985252e-08
-1.670565785e-08
-1.847047667e-08
-2.034275063e-08
-2.231930985e-08
-2.439542562e-08
-2.656526816e-08
-2.882262232e-08
-3.116101867e-08
-3.357330628e-08
-3.605110505e-08
-3.858519999e-08
-4.116663562e-08
-4.378763595e-08
-4.644133062e-08
-4.912116739e-08
-5.182180578e-08
-5.454276977e-08
-5.729310086e-08
-6.009438945e-08
-6.298096791e-08
-6.600010128e-08
-6.921702974e-08
-7.272628453e-08
-7.666656668e-08
-8.123247464e-08
-8.668349583e-08
-9.335295606e-08
-1.016639751e-07
-1.12157859e-07
-1.254967088e-07
-1.424672529e-07
-1.630653837e-07
-1.803965515e-07
-1.831306206e-07
-8.980942612e-07
-9.148147633e-07
-1.665109319e-06
-0.4379376621
0
0
0
0
0
0
0
0
0
0
0
0
0
0
0
0
0
0
0
0
0
0
0
0
0
0
0
0
0
0
0
0
0
0
0
0
0
0
0
0
0
0
0
0
0
0
0
0
0
0
0
0
0
0
0
0
0
0
0
3.493516592e-09
1.949407968e-09
7.337749201e-10
-2.019964452e-10
-9.056356188e-10
-1.454065916e-09
-1.904126102e-09
-2.30249253e-09
-2.686336154e-09
-3.08442998e-09
-3.518971e-09
-4.00696452e-09
-4.561417763e-09
-5.192117046e-09
-5.90642218e-09
-6.709927158e-09
-7.607191148e-09
-8.602162981e-09
-9.698372756e-09
-1.089865208e-08
-1.220493718e-08
-1.361804483e-08
-1.513786716e-08
-1.676352248e-08
-1.849341478e-08
-2.032481071e-08
-2.225350066e-08
-2.427372172e-08
-2.637869718e-08
-2.856125277e-08
-3.081402016e-08
-3.31289124e-08
-3.5496711e-08
-3.79073248e-08
-4.035087718e-08
-4.281857306e-08
-4.530288204e-08
-4.779745381e-08
-5.029879725e-08
-5.28099431e-08
-5.534490963e-08
-5.793137908e-08
-6.061147611e-08
-6.344383913e-08
-6.65109777e-08
-6.993330282e-08
-7.388532579e-08
-7.861035671e-08
-8.443328957e-08
-9.17824304e-08
-1.012390013e-07
-1.136711727e-07
-1.305666303e-07
-1.548921385e-07
-1.92469463e-07
-2.517822395e-07
-3.31476936e-07
-1.677121606e-07
-3.147884451e-07
-0.007664291524
3040.379953
0
0
0
0
0
0
0
0
0
0
0
0
0
0
0
0
0
0
0
0
0
0
0
0
0
0
0
0
0
0
0
0
0
0
0
0
0
0
0
0
0
0
0
0
0
0
0
0
0
0
0
0
0
0
0
0
0
0
0
2.053197391e-09
4.806120927e-10
-6.88493917e-10
-1.524021513e-09
-2.09790202e-09
-2.505450567e-09
-2.817829687e-09
-3.09024649e-09
-3.363746344e-09
-3.667923748e-09
-4.023998545e-09
-4.447166987e-09
-4.948259169e-09
-5.534922538e-09
-6.212477525e-09
-6.984846687e-09
-7.855157546e-09
-8.826263199e-09
-9.900613229e-09
-1.108001749e-08
-1.236520476e-08
-1.375575062e-08
-1.525022538e-08
-1.684652839e-08
-1.854186695e-08
-2.033243336e-08
-2.221290695e-08
-2.417642523e-08
-2.621506519e-08
-2.832050048e-08
-3.04840932e-08
-3.26964806e-08
-3.494697115e-08
-3.722384664e-08
-3.951534023e-08
-4.181077116e-08
-4.410099659e-08
-4.637910605e-08
-4.864214836e-08
-5.089468587e-08
-5.315251664e-08
-5.544521419e-08
-5.781786357e-08
-6.033508902e-08
-6.309107359e-08
-6.622541745e-08
-6.994187426e-08
-7.452587941e-08
-8.036365777e-08
-8.796802962e-08
-9.80150564e-08
-1.113846904e-07
-1.291509199e-07
-1.523318659e-07
-1.804792658e-07
-2.068563982e-07
-2.053950652e-07
-6.910287145e-08
2.236640698e-07
-0.003093834158
1227.451359
0
0
0
0
0
0
0
0
0
0
0
0
0
0
0
0
0
0
0
0
0
0
0
0
0
0
0
0
0
0
0
0
0
0
0
0
0
0
0
0
0
0
0
0
0
0
0
0
0
0
0
0
0
0
0
0
0
0
0
1.891138461e-10
-1.372630073e-09
-2.437146101e-09
-3.106534286e-09
-3.48856977e-09
-3.702117909e-09
-3.834135414e-09
-3.948627574e-09
-4.089229288e-09
-4.284438867e-09
-4.552548584e-09
-4.905254179e-09
-5.349960009e-09
-5.891261859e-09
-6.531986603e-09
-7.273996825e-09
-8.118886711e-09
-9.068142543e-09
-1.012302558e-08
-1.128402309e-08
-1.255050145e-08
-1.39205719e-08
-1.539146492e-08
-1.695983418e-08
-1.862181245e-08
-2.0372496e-08
-2.220547006e-08
-2.411260823e-08
-2.608462474e-08
-2.811165638e-08
-3.018349207e-08
-3.228890704e-08
-3.44151957e-08
-3.654818789e-08
-3.867344887e-08
-4.077752858e-08
-4.284903561e-08
-4.48794303e-08
-4.686484601e-08
-4.880872111e-08
-5.072495619e-08
-5.264030641e-08
-5.459721608e-08
-5.665970927e-08
-5.892478627e-08
-6.153916641e-08
-6.471799707e-08
-6.876377624e-08
-7.408650958e-08
-8.122456963e-08
-9.084447071e-08
-1.036480497e-07
-1.199849092e-07
-1.386913495e-07
-1.541915234e-07
-1.506002921e-07
-9.271842583e-08
9.891632551e-08
5.413653698e-07
-0.001708692202
677.9935184
0
0
0
0
0
0
0
0
0
0
0
0
0
0
0
0
0
0
0
0
0
0
0
0
0
0
0
0
0
0
0
0
0
0
0
0
0
0
0
0
0
0
0
0
0
0
0
0
0
0
0
0
0
0
0
0
0
0
0
-2.251285715e-09
-3.737726689e-09
-4.577626524e-09
-4.973646756e-09
-5.075587151e-09
-5.028902709e-09
-4.933444854e-09
-4.857566077e-09
-4.844368633e-09
-4.918125517e-09
-5.09155152e-09
-5.37082866e-09
-5.758529612e-09
-6.255374672e-09
-6.86110305e-09
-7.575353408e-09
-8.397880479e-09
-9.328710785e-09
-1.036760818e-08
-1.151360004e-08
-1.276446975e-08
-1.411685897e-08
-1.556665623e-08
-1.710942875e-08
-1.874028666e-08
-2.045333183e-08
-2.22408749e-08
-2.40933429e-08
-2.599971065e-08
-2.794828652e-08
-2.992676502e-08
-3.192169543e-08
-3.391765665e-08
-3.589749111e-08
-3.784332019e-08
-3.973837518e-08
-4.156816134e-08
-4.332156798e-08
-4.499185717e-08
-4.657855892e-08
-4.808961026e-08
-4.954401084e-08
-5.097565542e-08
-5.244039982e-08
-5.40275371e-08
-5.587483626e-08
-5.818473864e-08
-6.12412331e-08
-6.543025057e-08
-7.126240812e-08
-7.937627189e-08
-9.044910293e-08
-1.048239719e-07
-1.213936602e-07
-1.347925345e-07
-1.29671352e-07
-7.21510429e-08
1.167051128e-07
5.577791209e-07
-0.001707453543
677.5055455
0
0
0
0
0
0
0
0
0
0
0
0
0
0
0
0
0
0
0
0
0
0
0
0
0
0
0
0
0
0
0
0
0
0
0
0
0
0
0
0
0
0
0
0
0
0
0
0
0
0
0
0
0
0
0
0
0
0
0
-5.643872873e-09
-6.849984412e-09
-7.23697871e-09
-7.154271953e-09
-6.842483316e-09
-6.451618973e-09
-6.078474108e-09
-5.783906897e-09
-5.601718518e-09
-5.547173812e-09
-5.624162507e-09
-5.83119403e-09
-6.164744451e-09
-6.620854834e-09
-7.195933284e-09
-7.887028331e-09
-8.692012827e-09
-9.609162028e-09
-1.063668847e-08
-1.17719273e-08
-1.301110524e-08
-1.43494283e-08
-1.578164443e-08
-1.730233458e-08
-1.890574266e-08
-2.058483284e-08
-2.233054149e-08
-2.413148075e-08
-2.597459118e-08
-2.784589886e-08
-2.973071155e-08
-3.161283046e-08
-3.347380666e-08
-3.529284835e-08
-3.704830558e-08
-3.871942424e-08
-4.028803306e-08
-4.173903888e-08
-4.306084517e-08
-4.424590242e-08
-4.529241561e-08
-4.620710937e-08
-4.701006762e-08
-4.774194695e-08
-4.847399711e-08
-4.931915108e-08
-5.044322846e-08
-5.207713684e-08
-5.453595479e-08
-5.824977064e-08
-6.380669531e-08
-7.200328393e-08
-8.387653249e-08
-1.005639595e-07
-1.220931745e-07
-1.439248239e-07
-1.436069742e-07
-1.405969064e-08
2.722320398e-07
-0.003090222919
1226.028988
0
0
0
0
0
0
0
0
0
0
0
0
0
0
0
0
0
0
0
0
0
0
0
0
0
0
0
0
0
0
0
0
0
0
0
0
0
0
0
0
0
0
0
0
0
0
0
0
0
0
0
0
0
0
0
0
0
0
0
-1.061602557e-08
-1.120448073e-08
-1.061594183e-08
-9.70131222e-09
-8.756188722e-09
-7.912071772e-09
-7.212163701e-09
-6.679639176e-09
-6.32433838e-09
-6.144133173e-09
-6.130381634e-09
-6.272095292e-09
-6.558744775e-09
-6.981381009e-09
-7.532826946e-09
-8.207599585e-09
-9.00151631e-09
-9.911122491e-09
-1.09328878e-08
-1.206256665e-08
-1.329486596e-08
-1.462381319e-08
-1.604317575e-08
-1.754678456e-08
-1.91279552e-08
-2.077846116e-08
-2.248747267e-08
-2.424151751e-08
-2.602509284e-08
-2.782172103e-08
-2.961398503e-08
-3.138280211e-08
-3.310625377e-08
-3.47597542e-08
-3.631732978e-08
-3.775390453e-08
-3.90466517e-08
-4.017525014e-08
-4.112097419e-08
-4.186646152e-08
-4.239674318e-08
-4.270279924e-08
-4.278676919e-08
-4.266903606e-08
-4.239505822e-08
-4.204172246e-08
-4.172183337e-08
-4.159028699e-08
-4.185670066e-08
-4.281264329e-08
-4.488575315e-08
-4.877963054e-08
-5.586604305e-08
-6.911258787e-08
-9.516110014e-08
-1.461073588e-07
-2.252970909e-07
-7.300162106e-08
-2.363350756e-07
-0.007658634818
3038.152609
0
0
0
0
0
0
0
0
0
0
0
0
0
0
0
0
0
0
0
0
0
0
0
0
0
0
0
0
0
0
0
0
0
0
0
0
0
0
0
0
0
0
0
0
0
0
0
0
0
0
0
0
0
0
0
0
0
0
0
-1.857283848e-08
-1.748208937e-08
-1.498326908e-08
-1.26221807e-08
-1.074685343e-08
-9.322081537e-09
-8.255325808e-09
-7.48390761e-09
-6.967731904e-09
-6.677767483e-09
-6.588741619e-09
-6.679070904e-09
-6.931164709e-09
-7.331280463e-09
-7.868974661e-09
-8.536344465e-09
-9.327286175e-09
-1.023663854e-08
-1.125929074e-08
-1.238952692e-08
-1.362087823e-08
-1.494638362e-08
-1.635916683e-08
-1.785229965e-08
-1.94181579e-08
-2.104697515e-08
-2.272594501e-08
-2.443908509e-08
-2.61683246e-08
-2.789443905e-08
-2.959730663e-08
-3.125470593e-08
-3.284125901e-08
-3.432819486e-08
-3.568504123e-08
-3.688172163e-08
-3.788996053e-08
-3.868257999e-08
-3.923181319e-08
-3.950794869e-08
-3.948067564e-08
-3.912285706e-08
-3.841662152e-08
-3.735875984e-08
-3.59648527e-08
-3.427024354e-08
-3.23303153e-08
-3.022207366e-08
-2.805204634e-08
-2.596829607e-08
-2.417411447e-08
-2.294607449e-08
-2.268472526e-08
-2.390181637e-08
-2.743394701e-08
-2.929528148e-08
-2.534408164e-08
-7.534162949e-07
-8.142243525e-07
-1.611757352e-06
-0.4380379498
0
0
0
0
0
0
0
0
0
0
0
0
0
0
0
0
0
0
0
0
0
0
0
0
0
0
0
0
0
0
0
0
0
0
0
0
0
0
0
0
0
0
0
0
0
0
0
0
0
0
0
0
0
0
0
0
0
0
0
-3.145972364e-08
-2.639034423e-08
-2.02054428e-08
-1.569698268e-08
-1.261524582e-08
-1.053454578e-08
-9.106931664e-09
-8.126717869e-09
-7.485274682e-09
-7.117252106e-09
-6.97921569e-09
-7.039456657e-09
-7.274399769e-09
-7.666539772e-09
-8.202855911e-09
-8.873552613e-09
-9.67093073e-09
-1.05884006e-08
-1.16195473e-08
-1.275756942e-08
-1.399509665e-08
-1.532461239e-08
-1.673864259e-08
-1.822960001e-08
-1.978862874e-08
-2.140421249e-08
-2.306112109e-08
-2.474078837e-08
-2.642240712e-08
-2.808421238e-08
-2.970331645e-08
-3.125453784e-08
-3.2708761e-08