/*--------------------------------*- C++ -*----------------------------------*\
  =========                 |
  \\      /  F ield         | OpenFOAM: The Open Source CFD Toolbox
   \\    /   O peration     | Website:  https://openfoam.org
    \\  /    A nd           | Version:  6
     \\/     M anipulation  |
\*---------------------------------------------------------------------------*/
FoamFile
{
    version     2.0;
    format      ascii;
    class       volVectorField;
    location    "0.006";
    object      U;
}
// * * * * * * * * * * * * * * * * * * * * * * * * * * * * * * * * * * * * * //

dimensions      [0 1 -1 0 0 0 0];

internalField   nonuniform List<vector> 
9600
(
(0 -1.162264511e-10 1.483147985e-11)
(0 -1.163063302e-10 1.488826608e-11)
(0 -1.165099919e-10 1.501628667e-11)
(0 -1.168113423e-10 1.520804514e-11)
(0 -1.172160377e-10 1.54540491e-11)
(0 -1.177282002e-10 1.574381349e-11)
(0 -1.183528169e-10 1.606660515e-11)
(0 -1.190952294e-10 1.641098225e-11)
(0 -1.199611074e-10 1.676553228e-11)
(0 -1.209563558e-10 1.711844775e-11)
(0 -1.220870747e-10 1.745825813e-11)
(0 -1.233595454e-10 1.777338252e-11)
(0 -1.247802662e-10 1.805284875e-11)
(0 -1.263560091e-10 1.828581826e-11)
(0 -1.280938999e-10 1.846229788e-11)
(0 -1.300014905e-10 1.857264969e-11)
(0 -1.320868348e-10 1.860830745e-11)
(0 -1.343585623e-10 1.856126814e-11)
(0 -1.368259782e-10 1.842478815e-11)
(0 -1.394991813e-10 1.819283242e-11)
(0 -1.423891986e-10 1.786074536e-11)
(0 -1.455080984e-10 1.742468033e-11)
(0 -1.488690726e-10 1.688228094e-11)
(0 -1.524864797e-10 1.623210749e-11)
(0 -1.563758957e-10 1.547429192e-11)
(0 -1.605541978e-10 1.460987354e-11)
(0 -1.650397117e-10 1.364133544e-11)
(0 -1.698523614e-10 1.257182746e-11)
(0 -1.75013745e-10 1.140566085e-11)
(0 -1.805470528e-10 1.014755979e-11)
(0 -1.864768419e-10 8.803196297e-12)
(0 -1.928287616e-10 7.378381227e-12)
(0 -1.996293353e-10 5.879398638e-12)
(0 -2.069057753e-10 4.311922846e-12)
(0 -2.146856425e-10 2.681178763e-12)
(0 -2.229961247e-10 9.909128734e-13)
(0 -2.318628467e-10 -7.562032773e-13)
(0 -2.413083253e-10 -2.559333841e-12)
(0 -2.513502087e-10 -4.418899241e-12)
(0 -2.619992046e-10 -6.337151345e-12)
(0 -2.732563311e-10 -8.317131681e-12)
(0 -2.851091174e-10 -1.036229684e-11)
(0 -2.975267174e-10 -1.247407838e-11)
(0 -3.104543083e-10 -1.464985021e-11)
(0 -3.238072418e-10 -1.687871789e-11)
(0 -3.37465184e-10 -1.913750004e-11)
(0 -3.512661159e-10 -2.138417973e-11)
(0 -3.650000975e-10 -2.355121396e-11)
(0 -3.78403246e-10 -2.553658729e-11)
(0 -3.911532738e-10 -2.719628756e-11)
(0 -4.028683724e-10 -2.833795283e-11)
(0 -4.131104377e-10 -2.872146051e-11)
(0 -4.213920207e-10 -2.806845149e-11)
(0 -4.271845605e-10 -2.608905867e-11)
(0 -4.299230914e-10 -2.252864708e-11)
(0 -4.28999303e-10 -1.723737356e-11)
(0 -4.237358199e-10 -1.024922507e-11)
(0 -4.133517703e-10 -1.847092342e-12)
(0 -3.969736876e-10 7.425708324e-12)
(0 -3.738048374e-10 1.681210583e-11)
(0 -3.435374753e-10 2.528340995e-11)
(0 -3.063382225e-10 3.085030215e-11)
(0 -2.5915061e-10 2.877053058e-11)
(0 -1.793806829e-10 1.040424493e-11)
(0 -1.19501998e-17 -1.645362207e-11)
(0 3.800660256e-10 1.315375675e-11)
(0 -1.003885613e-11 2.129191356e-10)
(0 -5.764991578e-12 -3.438962443e-11)
(0 9.219007419e-12 -8.888172304e-12)
(0 9.285332224e-12 6.805594545e-13)
(0 9.081172903e-12 5.983647344e-12)
(0 1.110100198e-11 9.07903661e-12)
(0 1.369264044e-11 7.857148753e-12)
(0 1.491259002e-11 5.635339637e-12)
(0 1.532677029e-11 4.223790426e-12)
(0 1.580532796e-11 3.211843284e-12)
(0 1.652767832e-11 2.059701724e-12)
(0 1.732333537e-11 5.006147443e-13)
(0 1.794239277e-11 -1.520378921e-12)
(0 1.81557722e-11 -3.927471191e-12)
(0 1.780607266e-11 -6.530245408e-12)
(0 1.68480322e-11 -9.08649212e-12)
(0 1.534247996e-11 -1.138679638e-11)
(0 1.341594366e-11 -1.329165674e-11)
(0 1.122079036e-11 -1.473528443e-11)
(0 8.903458979e-12 -1.572100428e-11)
(0 6.57946406e-12 -1.630516349e-11)
(0 4.318835025e-12 -1.657281057e-11)
(0 2.144146031e-12 -1.661103261e-11)
(0 3.869743903e-14 -1.648850815e-11)
(0 -2.039398934e-12 -1.624184871e-11)
(0 -4.140559048e-12 -1.587010321e-11)
(0 -6.306337745e-12 -1.533463005e-11)
(0 -8.552833416e-12 -1.456597295e-11)
(0 -1.085684021e-11 -1.347700233e-11)
(0 -1.314819149e-11 -1.19844427e-11)
(0 -1.531240948e-11 -1.003478686e-11)
(0 -1.720612939e-11 -7.62907575e-12)
(0 -1.868273001e-11 -4.8374261e-12)
(0 -1.962425425e-11 -1.803244561e-12)
(0 -1.998068856e-11 1.262259607e-12)
(0 -1.980942804e-11 4.116829025e-12)
(0 -1.9280324e-11 6.571621793e-12)
(0 -1.863470347e-11 8.552151532e-12)
(0 -1.813446501e-11 1.01135634e-11)
(0 -1.796252016e-11 1.151937964e-11)
(0 -1.79536068e-11 1.330115382e-11)
(0 -1.725597753e-11 1.585486815e-11)
(0 -1.532396973e-11 1.735656459e-11)
(0 -1.410552592e-11 1.448608593e-11)
(0 -1.522483834e-11 9.326276775e-12)
(0 -1.611682396e-11 -2.323069314e-13)
(0 -1.979461544e-12 -2.590897908e-11)
(0 5.982299893e-12 2.170438904e-10)
(0 -6.869915821e-10 -6.67871454e-10)
(0 -5.633564073e-10 -1.256672242e-09)
(0 -4.158085108e-10 -1.609687046e-09)
(0 -2.145649507e-10 -1.608374563e-09)
(0 9.758725801e-12 -1.101577908e-09)
(0 1.663989642e-11 1.091248114e-22)
(0 -1.148357603e-10 1.574977962e-11)
(0 -1.149238768e-10 1.581280779e-11)
(0 -1.151438583e-10 1.595363631e-11)
(0 -1.154701855e-10 1.616424884e-11)
(0 -1.159086583e-10 1.643403316e-11)
(0 -1.164635226e-10 1.675173498e-11)
(0 -1.171398379e-10 1.710535435e-11)
(0 -1.179429655e-10 1.748257312e-11)
(0 -1.188785347e-10 1.787063028e-11)
(0 -1.199523475e-10 1.825679856e-11)
(0 -1.21170338e-10 1.862823618e-11)
(0 -1.225385643e-10 1.897245164e-11)
(0 -1.240632438e-10 1.927712583e-11)
(0 -1.257508075e-10 1.953055877e-11)
(0 -1.276079737e-10 1.972147703e-11)
(0 -1.296418114e-10 1.98394791e-11)
(0 -1.318598133e-10 1.987483608e-11)
(0 -1.342699741e-10 1.981892796e-11)
(0 -1.368809005e-10 1.966401151e-11)
(0 -1.397019349e-10 1.940362371e-11)
(0 -1.427432857e-10 1.903231789e-11)
(0 -1.460161267e-10 1.854606455e-11)
(0 -1.495326684e-10 1.794199458e-11)
(0 -1.533062109e-10 1.721880385e-11)
(0 -1.573512327e-10 1.637645047e-11)
(0 -1.616835336e-10 1.541646309e-11)
(0 -1.663204272e-10 1.434150352e-11)
(0 -1.71280903e-10 1.315557159e-11)
(0 -1.765856753e-10 1.186353366e-11)
(0 -1.822570847e-10 1.047135931e-11)
(0 -1.883189173e-10 8.985653331e-12)
(0 -1.94796264e-10 7.413762924e-12)
(0 -2.017154743e-10 5.763013782e-12)
(0 -2.091040902e-10 4.040468242e-12)
(0 -2.169905172e-10 2.251939438e-12)
(0 -2.25403242e-10 4.017511649e-13)
(0 -2.343696154e-10 -1.508113648e-12)
(0 -2.439143677e-10 -3.478185472e-12)
(0 -2.540579233e-10 -5.512436887e-12)
(0 -2.648142754e-10 -7.618510047e-12)
(0 -2.76187958e-10 -9.808376451e-12)
(0 -2.881697916e-10 -1.209780966e-11)
(0 -3.007314633e-10 -1.450589052e-11)
(0 -3.138193407e-10 -1.705309475e-11)
(0 -3.273478699e-10 -1.975914951e-11)
(0 -3.411926454e-10 -2.263892993e-11)
(0 -3.551830193e-10 -2.569725179e-11)
(0 -3.690944642e-10 -2.892085437e-11)
(0 -3.826418322e-10 -3.226906091e-11)
(0 -3.954758433e-10 -3.566276795e-11)
(0 -4.071857796e-10 -3.897512589e-11)
(0 -4.173110767e-10 -4.202597567e-11)
(0 -4.253636906e-10 -4.458713822e-11)
(0 -4.308611887e-10 -4.640600397e-11)
(0 -4.333654868e-10 -4.725900142e-11)
(0 -4.325137861e-10 -4.703953237e-11)
(0 -4.280235401e-10 -4.587272959e-11)
(0 -4.196694492e-10 -4.421083435e-11)
(0 -4.073096164e-10 -4.279562973e-11)
(0 -3.9128383e-10 -4.229185286e-11)
(0 -3.739835319e-10 -4.247928967e-11)
(0 -3.635876385e-10 -4.148152865e-11)
(0 -3.791552428e-10 -3.801669659e-11)
(0 -4.359909042e-10 -4.498038121e-11)
(0 -4.815558399e-10 -6.703257259e-11)
(0 -3.30622283e-11 1.445322505e-21)
(0 4.162279222e-11 3.180920631e-10)
(0 9.853079657e-11 2.13873195e-12)
(0 3.421338104e-11 3.921453104e-12)
(0 1.685646739e-11 5.166988e-12)
(0 1.216837887e-11 6.394923402e-12)
(0 1.175173457e-11 7.069947544e-12)
(0 1.265659912e-11 6.374847718e-12)
(0 1.349884916e-11 5.060488996e-12)
(0 1.408296334e-11 3.805592803e-12)
(0 1.460153761e-11 2.638600232e-12)
(0 1.513553201e-11 1.382795381e-12)
(0 1.562164182e-11 -9.765644949e-14)
(0 1.593119364e-11 -1.843986828e-12)
(0 1.593236825e-11 -3.811704842e-12)
(0 1.553070822e-11 -5.888028248e-12)
(0 1.469340519e-11 -7.926881355e-12)
(0 1.345015225e-11 -9.791493572e-12)
(0 1.187564247e-11 -1.138056024e-11)
(0 1.006675919e-11 -1.263814656e-11)
(0 8.121390023e-12 -1.355267451e-11)
(0 6.121494682e-12 -1.414833138e-11)
(0 4.122727797e-12 -1.447022576e-11)
(0 2.151673837e-12 -1.456852228e-11)
(0 2.096985477e-13 -1.448426929e-11)
(0 -1.718649161e-12 -1.424005882e-11)
(0 -3.654733594e-12 -1.383503758e-11)
(0 -5.614082739e-12 -1.324532507e-11)
(0 -7.595482e-12 -1.242880641e-11)
(0 -9.572693827e-12 -1.133520372e-11)
(0 -1.149096425e-11 -9.919868365e-12)
(0 -1.327027039e-11 -8.160085737e-12)
(0 -1.481625587e-11 -6.06922487e-12)
(0 -1.603753946e-11 -3.70527126e-12)
(0 -1.686702096e-11 -1.170776644e-12)
(0 -1.72844488e-11 1.397146509e-12)
(0 -1.733356269e-11 3.853472089e-12)
(0 -1.712082368e-11 6.087100183e-12)
(0 -1.679096567e-11 8.055382817e-12)
(0 -1.648669262e-11 9.800174194e-12)
(0 -1.628718599e-11 1.145573836e-11)
(0 -1.613019423e-11 1.319344602e-11)
(0 -1.584534111e-11 1.497482445e-11)
(0 -1.565179481e-11 1.610618077e-11)
(0 -1.695169968e-11 1.581271283e-11)
(0 -2.269732886e-11 1.485949864e-11)
(0 -4.124869314e-11 1.367367255e-11)
(0 -1.067158945e-10 1.151154339e-11)
(0 -5.010343784e-11 3.261087838e-10)
(0 2.8937473e-11 1.647941674e-21)
(0 -7.335659021e-11 -1.012049968e-09)
(0 -2.264608246e-10 -1.595734382e-09)
(0 -1.820767909e-10 -1.768616701e-09)
(0 1.935760144e-11 -1.285479923e-09)
(0 1.943112781e-11 1.370466305e-22)
(0 -1.133333125e-10 1.671878537e-11)
(0 -1.134303163e-10 1.678904673e-11)
(0 -1.136679121e-10 1.694482836e-11)
(0 -1.140212218e-10 1.717729954e-11)
(0 -1.144962189e-10 1.747488083e-11)
(0 -1.150973e-10 1.782521802e-11)
(0 -1.158296145e-10 1.821517556e-11)
(0 -1.16698556e-10 1.863120837e-11)
(0 -1.177097206e-10 1.905933331e-11)
(0 -1.188688141e-10 1.948554555e-11)
(0 -1.201816081e-10 1.989576208e-11)
(0 -1.216539381e-10 2.027622046e-11)
(0 -1.232917374e-10 2.06133941e-11)
(0 -1.251010889e-10 2.089437034e-11)
(0 -1.270882861e-10 2.110675128e-11)
(0 -1.292598911e-10 2.12390322e-11)
(0 -1.316228004e-10 2.128049371e-11)
(0 -1.341843306e-10 2.122156831e-11)
(0 -1.369523322e-10 2.105370093e-11)
(0 -1.399353195e-10 2.07696854e-11)
(0 -1.431425889e-10 2.036350055e-11)
(0 -1.465843048e-10 1.983064873e-11)
(0 -1.502715587e-10 1.91680019e-11)
(0 -1.542164391e-10 1.837413646e-11)
(0 -1.584321572e-10 1.7449127e-11)
(0 -1.629332474e-10 1.639478147e-11)
(0 -1.677357974e-10 1.521430967e-11)
(0 -1.728576159e-10 1.391246949e-11)
(0 -1.783182614e-10 1.249520843e-11)
(0 -1.841389472e-10 1.096982098e-11)
(0 -1.90342442e-10 9.34454003e-12)
(0 -1.969530983e-10 7.628491648e-12)
(0 -2.039970037e-10 5.830928821e-12)
(0 -2.115020566e-10 3.960799103e-12)
(0 -2.194976889e-10 2.025724355e-12)
(0 -2.28014105e-10 3.149084679e-14)
(0 -2.37081162e-10 -2.018998537e-12)
(0 -2.46727089e-10 -4.126396676e-12)
(0 -2.56977031e-10 -6.29628818e-12)
(0 -2.678510318e-10 -8.540153996e-12)
(0 -2.793609385e-10 -1.087672753e-11)
(0 -2.915059511e-10 -1.333251298e-11)
(0 -3.042669537e-10 -1.594234916e-11)
(0 -3.175999629e-10 -1.874885868e-11)
(0 -3.314288656e-10 -2.18014638e-11)
(0 -3.456373125e-10 -2.515336549e-11)
(0 -3.60059602e-10 -2.885669308e-11)
(0 -3.74470994e-10 -3.295409124e-11)
(0 -3.885791513e-10 -3.746732302e-11)
(0 -4.020198269e-10 -4.23820399e-11)
(0 -4.14361001e-10 -4.763066983e-11)
(0 -4.251204841e-10 -5.307507366e-11)
(0 -4.338027215e-10 -5.849608689e-11)
(0 -4.399591736e-10 -6.360025403e-11)
(0 -4.432694746e-10 -6.806155161e-11)
(0 -4.436250017e-10 -7.16170235e-11)
(0 -4.41171268e-10 -7.423002301e-11)
(0 -4.362316248e-10 -7.628678494e-11)
(0 -4.290323251e-10 -7.864396032e-11)
(0 -4.193633596e-10 -8.198597965e-11)
(0 -4.071388986e-10 -8.411389119e-11)
(0 -3.979217023e-10 -7.292554408e-11)
(0 -4.275465483e-10 -1.448553843e-11)
(0 -5.938429937e-10 1.430721224e-10)
(0 -1.257966355e-09 4.106495596e-10)
(0 -7.991413402e-11 -2.354691184e-10)
(0 -8.391254111e-11 1.344312465e-10)
(0 2.058178566e-12 4.292493363e-11)
(0 1.22472634e-11 1.726742451e-11)
(0 1.17588025e-11 9.670217021e-12)
(0 1.098413244e-11 7.35833245e-12)
(0 1.108092629e-11 6.430294689e-12)
(0 1.168318189e-11 5.511293032e-12)
(0 1.23433351e-11 4.425623013e-12)
(0 1.290488153e-11 3.298990455e-12)
(0 1.338253054e-11 2.153533369e-12)
(0 1.379142164e-11 9.299277276e-13)
(0 1.409655316e-11 -4.307921587e-13)
(0 1.422834438e-11 -1.946867864e-12)
(0 1.411173078e-11 -3.588128607e-12)
(0 1.369089615e-11 -5.28400335e-12)
(0 1.294456687e-11 -6.942362731e-12)
(0 1.188880107e-11 -8.472393593e-12)
(0 1.056929068e-11 -9.801567294e-12)
(0 9.048676084e-12 -1.08843656e-11)
(0 7.393274156e-12 -1.170342754e-11)
(0 5.661912815e-12 -1.226515458e-11)
(0 3.89864412e-12 -1.259111961e-11)
(0 2.130102501e-12 -1.270830137e-11)
(0 3.671608993e-13 -1.26399208e-11)
(0 -1.390167228e-12 -1.239897257e-11)
(0 -3.145825293e-12 -1.198469143e-11)
(0 -4.900106577e-12 -1.13827651e-11)
(0 -6.642712069e-12 -1.056877537e-11)
(0 -8.347902155e-12 -9.515038016e-12)
(0 -9.973073506e-12 -8.199569725e-12)
(0 -1.146176599e-11 -6.616043765e-12)
(0 -1.275131491e-11 -4.781963338e-12)
(0 -1.378428179e-11 -2.742944292e-12)
(0 -1.452183648e-11 -5.709606592e-13)
(0 -1.495643982e-11 1.644475092e-12)
(0 -1.511947436e-11 3.813539644e-12)
(0 -1.507841327e-11 5.868576797e-12)
(0 -1.492162945e-11 7.782615827e-12)
(0 -1.473410947e-11 9.576517977e-12)
(0 -1.456924833e-11 1.131054555e-11)
(0 -1.443452071e-11 1.304270382e-11)
(0 -1.434324278e-11 1.474550772e-11)
(0 -1.448608135e-11 1.628116091e-11)
(0 -1.535220804e-11 1.780033623e-11)
(0 -1.736387861e-11 2.062579105e-11)
(0 -1.946477914e-11 2.855636256e-11)
(0 -1.153813034e-11 5.416555472e-11)
(0 7.048317227e-11 1.448176684e-10)
(0 7.189741207e-11 -2.277863305e-10)
(0 8.367479236e-10 -2.559820078e-10)
(0 -8.990399829e-11 -1.26818391e-09)
(0 -2.284074086e-10 -1.836061751e-09)
(0 -2.851041029e-12 -1.480311142e-09)
(0 2.343267139e-11 1.777079898e-22)
(0 -1.117078319e-10 1.77380014e-11)
(0 -1.118143951e-10 1.78167025e-11)
(0 -1.120709466e-10 1.798985197e-11)
(0 -1.124533107e-10 1.824769013e-11)
(0 -1.129676693e-10 1.857759941e-11)
(0 -1.136185982e-10 1.896598304e-11)
(0 -1.144113604e-10 1.939848053e-11)
(0 -1.153513973e-10 1.986016499e-11)
(0 -1.16444285e-10 2.033573275e-11)
(0 -1.176956406e-10 2.080974294e-11)
(0 -1.191110815e-10 2.126677476e-11)
(0 -1.206962245e-10 2.169164155e-11)
(0 -1.224567183e-10 2.206951998e-11)
(0 -1.243982898e-10 2.238614291e-11)
(0 -1.265267931e-10 2.262791374e-11)
(0 -1.288482589e-10 2.278209536e-11)
(0 -1.313689557e-10 2.283691695e-11)
(0 -1.340954777e-10 2.278174509e-11)
(0 -1.37034863e-10 2.260716398e-11)
(0 -1.401947198e-10 2.230511895e-11)
(0 -1.435833329e-10 2.186898348e-11)
(0 -1.47209732e-10 2.129370901e-11)
(0 -1.510837434e-10 2.057590261e-11)
(0 -1.552160736e-10 1.971396694e-11)
(0 -1.596184738e-10 1.870812607e-11)
(0 -1.64303985e-10 1.756047003e-11)
(0 -1.692871964e-10 1.62748755e-11)
(0 -1.745844118e-10 1.485697969e-11)
(0 -1.802136686e-10 1.331407951e-11)
(0 -1.86194673e-10 1.165508735e-11)
(0 -1.925488146e-10 9.890321982e-12)
(0 -1.992993846e-10 8.031198116e-12)
(0 -2.064719352e-10 6.089620563e-12)
(0 -2.140945066e-10 4.077277266e-12)
(0 -2.221974435e-10 2.004759541e-12)
(0 -2.308127497e-10 -1.193085332e-13)
(0 -2.399731933e-10 -2.289359589e-12)
(0 -2.497113785e-10 -4.504163174e-12)
(0 -2.600586658e-10 -6.76850308e-12)
(0 -2.710434479e-10 -9.095003028e-12)
(0 -2.82688227e-10 -1.150607723e-11)
(0 -2.95005276e-10 -1.403569522e-11)
(0 -3.079910367e-10 -1.673100496e-11)
(0 -3.2161947e-10 -1.965346328e-11)
(0 -3.358342686e-10 -2.287916583e-11)
(0 -3.50539526e-10 -2.649742146e-11)
(0 -3.655885348e-10 -3.060662712e-11)
(0 -3.807711775e-10 -3.53060675e-11)
(0 -3.958017309e-10 -4.068251985e-11)
(0 -4.103104869e-10 -4.679023755e-11)
(0 -4.23844291e-10 -5.36234346e-11)
(0 -4.358835145e-10 -6.108157503e-11)
(0 -4.458859851e-10 -6.893185679e-11)
(0 -4.533695601e-10 -7.677973264e-11)
(0 -4.580405257e-10 -8.406965182e-11)
(0 -4.599592479e-10 -9.015651494e-11)
(0 -4.596891308e-10 -9.451418695e-11)
(0 -4.582528615e-10 -9.715727193e-11)
(0 -4.564496087e-10 -9.927671605e-11)
(0 -4.524086593e-10 -1.036427033e-10)
(0 -4.35298817e-10 -1.129648019e-10)
(0 -3.727204274e-10 -1.220578968e-10)
(0 -2.010741365e-10 -9.723948468e-11)
(0 1.914457606e-10 3.326199091e-11)
(0 8.652466214e-11 2.202346501e-10)
(0 2.53566024e-11 -3.232445876e-10)
(0 -7.798935227e-11 1.41707196e-11)
(0 -1.863302566e-11 1.786209204e-11)
(0 9.586643795e-13 1.255286513e-11)
(0 6.947375334e-12 8.887883202e-12)
(0 8.928456534e-12 6.937701216e-12)
(0 9.90469515e-12 5.781456322e-12)
(0 1.065192745e-11 4.814325623e-12)
(0 1.128654658e-11 3.831648128e-12)
(0 1.181087369e-11 2.811159923e-12)
(0 1.223247488e-11 1.74652284e-12)
(0 1.255120648e-11 6.140881646e-13)
(0 1.274484622e-11 -6.086961565e-13)
(0 1.277385719e-11 -1.924666948e-12)
(0 1.259523276e-11 -3.310080636e-12)
(0 1.21764741e-11 -4.717614241e-12)
(0 1.150501494e-11 -6.086324783e-12)
(0 1.059094768e-11 -7.354245724e-12)
(0 9.46367046e-12 -8.469036489e-12)
(0 8.164898948e-12 -9.3943177e-12)
(0 6.740601046e-12 -1.011148666e-11)
(0 5.233802604e-12 -1.061761836e-11)
(0 3.679581007e-12 -1.092067747e-11)
(0 2.102872654e-12 -1.103350598e-11)
(0 5.190273464e-13 -1.096809665e-11)
(0 -1.06341979e-12 -1.073121218e-11)
(0 -2.638526122e-12 -1.032206749e-11)
(0 -4.198166685e-12 -9.732346454e-12)
(0 -5.727754918e-12 -8.948595015e-12)
(0 -7.203488176e-12 -7.956631581e-12)
(0 -8.591970003e-12 -6.747310543e-12)
(0 -9.852664003e-12 -5.322459796e-12)
(0 -1.094315639e-11 -3.69953266e-12)
(0 -1.182653678e-11 -1.913439896e-12)
(0 -1.247960158e-11 -1.446988508e-14)
(0 -1.289994849e-11 1.938292143e-12)
(0 -1.310946098e-11 3.887698419e-12)
(0 -1.31517475e-11 5.791082309e-12)
(0 -1.308302448e-11 7.629979459e-12)
(0 -1.29587629e-11 9.412779421e-12)
(0 -1.282100015e-11 1.116732159e-11)
(0 -1.269523205e-11 1.292148993e-11)
(0 -1.260688401e-11 1.468349577e-11)
(0 -1.25969663e-11 1.647276231e-11)
(0 -1.260706953e-11 1.848186154e-11)
(0 -1.194130255e-11 2.128730227e-11)
(0 -7.708929434e-12 2.576021146e-11)
(0 9.545411575e-12 3.177680562e-11)
(0 6.595087319e-11 2.87759482e-11)
(0 -3.986777971e-11 -3.070259066e-10)
(0 -9.420744984e-11 2.284649104e-10)
(0 -7.160038664e-10 -9.868446264e-10)
(0 -5.106322104e-10 -1.954472525e-09)
(0 -7.862096683e-11 -1.750160568e-09)
(0 2.948422228e-11 2.407665515e-22)
(0 -1.099471701e-10 1.880619937e-11)
(0 -1.100639861e-10 1.889474613e-11)
(0 -1.103408705e-10 1.908799906e-11)
(0 -1.107544203e-10 1.937522211e-11)
(0 -1.113110631e-10 1.974258883e-11)
(0 -1.120155873e-10 2.017518354e-11)
(0 -1.128733935e-10 2.065722901e-11)
(0 -1.138899923e-10 2.117232709e-11)
(0 -1.150709552e-10 2.170365579e-11)
(0 -1.164218242e-10 2.223424751e-11)
(0 -1.179480729e-10 2.274714845e-11)
(0 -1.196551072e-10 2.322566638e-11)
(0 -1.215482931e-10 2.365349836e-11)
(0 -1.236329966e-10 2.401495518e-11)
(0 -1.259146204e-10 2.429507312e-11)
(0 -1.283986434e-10 2.447982957e-11)
(0 -1.310906778e-10 2.45562433e-11)
(0 -1.339965564e-10 2.451257096e-11)
(0 -1.371224497e-10 2.433838262e-11)
(0 -1.404749848e-10 2.402473944e-11)
(0 -1.440613333e-10 2.356426527e-11)
(0 -1.478892626e-10 2.295133772e-11)
(0 -1.519671801e-10 2.218216966e-11)
(0 -1.563042282e-10 2.125499134e-11)
(0 -1.609104801e-10 2.017008249e-11)
(0 -1.657972159e-10 1.892987418e-11)
(0 -1.709771966e-10 1.753890041e-11)
(0 -1.764648237e-10 1.600385163e-11)
(0 -1.822761609e-10 1.433350532e-11)
(0 -1.884289227e-10 1.253873006e-11)
(0 -1.949426254e-10 1.063225585e-11)
(0 -2.018390046e-10 8.628367458e-12)
(0 -2.091425728e-10 6.542267349e-12)
(0 -2.168810001e-10 4.389388692e-12)
(0 -2.250850642e-10 2.184474729e-12)
(0 -2.337882088e-10 -5.936221312e-14)
(0 -2.430260015e-10 -2.33195665e-12)
(0 -2.528356929e-10 -4.627685321e-12)
(0 -2.632556619e-10 -6.947620176e-12)
(0 -2.743241678e-10 -9.301924564e-12)
(0 -2.860768639e-10 -1.171260281e-11)
(0 -2.985429095e-10 -1.421628923e-11)
(0 -3.117398213e-10 -1.686724937e-11)
(0 -3.256670959e-10 -1.974015539e-11)
(0 -3.402982064e-10 -2.2932341e-11)
(0 -3.555702145e-10 -2.656437224e-11)
(0 -3.713703715e-10 -3.077784164e-11)
(0 -3.875198347e-10 -3.572844477e-11)
(0 -4.037558613e-10 -4.157232324e-11)
(0 -4.197153152e-10 -4.844240308e-11)
(0 -4.349245641e-10 -5.641124803e-11)
(0 -4.488047715e-10 -6.543686804e-11)
(0 -4.60707149e-10 -7.529074959e-11)
(0 -4.699985787e-10 -8.547237997e-11)
(0 -4.762241475e-10 -9.512779481e-11)
(0 -4.793782285e-10 -1.03019515e-10)
(0 -4.803005843e-10 -1.076590934e-10)
(0 -4.81123223e-10 -1.078274365e-10)
(0 -4.853124465e-10 -1.03843594e-10)
(0 -4.958016975e-10 -9.975129159e-11)
(0 -5.080395131e-10 -1.050981573e-10)
(0 -4.927007287e-10 -1.306793369e-10)
(0 -3.82321645e-10 -1.489320398e-10)
(0 -2.574671309e-11 1.166871259e-21)
(0 7.476161024e-11 3.142146395e-10)
(0 1.120281333e-10 -8.656179923e-11)
(0 1.121277535e-11 -1.834768974e-11)
(0 4.403240962e-13 1.799573268e-12)
(0 3.273054574e-12 6.193826544e-12)
(0 6.143638597e-12 6.390552368e-12)
(0 7.877705564e-12 5.7229723e-12)
(0 8.957550703e-12 4.943391137e-12)
(0 9.7333737e-12 4.132814697e-12)
(0 1.03401694e-11 3.275410455e-12)
(0 1.081975624e-11 2.367382916e-12)
(0 1.118545878e-11 1.407197068e-12)
(0 1.143620264e-11 3.884487586e-13)
(0 1.155779805e-11 -6.935656953e-13)
(0 1.152695991e-11 -1.833190476e-12)
(0 1.131878348e-11 -3.010068361e-12)
(0 1.091465201e-11 -4.19021932e-12)
(0 1.030793539e-11 -5.331228892e-12)
(0 9.506089362e-12 -6.389374711e-12)
(0 8.529218702e-12 -7.32610656e-12)
(0 7.406225913e-12 -8.112431969e-12)
(0 6.169973495e-12 -8.730553287e-12)
(0 4.852722012e-12 -9.17308119e-12)
(0 3.482756497e-12 -9.440347975e-12)
(0 2.082683315e-12 -9.536862908e-12)
(0 6.694547021e-13 -9.467708707e-12)
(0 -7.441380646e-13 -9.235758943e-12)
(0 -2.146959566e-12 -8.840101499e-12)
(0 -3.526634107e-12 -8.276052696e-12)
(0 -4.866997198e-12 -7.536661692e-12)
(0 -6.146617683e-12 -6.615554812e-12)
(0 -7.338901725e-12 -5.510474187e-12)
(0 -8.41398811e-12 -4.226813315e-12)
(0 -9.342295006e-12 -2.780110169e-12)
(0 -1.009921902e-11 -1.196672329e-12)
(0 -1.067010445e-11 4.883578653e-13)
(0 -1.105427152e-11 2.235568514e-12)
(0 -1.12666842e-11 4.007963328e-12)
(0 -1.133613224e-11 5.778131511e-12)
(0 -1.129993234e-11 7.533506612e-12)
(0 -1.119676735e-11 9.277397338e-12)
(0 -1.106053782e-11 1.102461135e-11)
(0 -1.091834652e-11 1.279257976e-11)
(0 -1.079197041e-11 1.459435234e-11)
(0 -1.068771559e-11 1.644462597e-11)
(0 -1.053766809e-11 1.836715959e-11)
(0 -1.00855287e-11 2.028145967e-11)
(0 -8.9752758e-12 2.142056594e-11)
(0 -8.522393592e-12 1.840573663e-11)
(0 -2.233817622e-11 -4.464266944e-13)
(0 -1.264198227e-10 -6.790568262e-11)
(0 -9.098029269e-11 3.309166131e-10)
(0 1.751645098e-11 1.457205408e-21)
(0 -2.908101747e-10 -1.838563424e-09)
(0 3.09984909e-12 -2.034997433e-09)
(0 3.933080626e-11 3.503223636e-22)
(0 -1.080382748e-10 1.992128676e-11)
(0 -1.081660468e-10 2.002126693e-11)
(0 -1.084646698e-10 2.023776092e-11)
(0 -1.089115924e-10 2.055892158e-11)
(0 -1.095135259e-10 2.096959292e-11)
(0 -1.102755065e-10 2.145337201e-11)
(0 -1.112031026e-10 2.199292184e-11)
(0 -1.123019155e-10 2.257019058e-11)
(0 -1.135775329e-10 2.316669047e-11)
(0 -1.150354389e-10 2.376374722e-11)
(0 -1.166809779e-10 2.43427359e-11)
(0 -1.18519355e-10 2.488529275e-11)
(0 -1.205556599e-10 2.537351429e-11)
(0 -1.227948964e-10 2.579014162e-11)
(0 -1.252420085e-10 2.611873936e-11)
(0 -1.279019104e-10 2.634386395e-11)
(0 -1.307795376e-10 2.645122671e-11)
(0 -1.338799313e-10 2.642784132e-11)
(0 -1.372083483e-10 2.626216727e-11)
(0 -1.407703652e-10 2.594424827e-11)
(0 -1.445719449e-10 2.546586319e-11)
(0 -1.486194685e-10 2.482068362e-11)
(0 -1.529197689e-10 2.400444009e-11)
(0 -1.574802337e-10 2.301507302e-11)
(0 -1.623090201e-10 2.185285874e-11)
(0 -1.67415347e-10 2.052050136e-11)
(0 -1.728097678e-10 1.90232073e-11)
(0 -1.785043222e-10 1.73687499e-11)
(0 -1.845125684e-10 1.556752204e-11)
(0 -1.908496454e-10 1.363252509e-11)
(0 -1.975325684e-10 1.157922284e-11)
(0 -2.04580834e-10 9.425200289e-12)
(0 -2.120171526e-10 7.18963298e-12)
(0 -2.198679742e-10 4.892602346e-12)
(0 -2.28163606e-10 2.554281083e-12)
(0 -2.369380561e-10 1.939077545e-13)
(0 -2.462289516e-10 -2.171599905e-12)
(0 -2.560776958e-10 -4.529541783e-12)
(0 -2.665295592e-10 -6.873871883e-12)
(0 -2.776330852e-10 -9.208126822e-12)
(0 -2.894383069e-10 -1.154878702e-11)
(0 -3.019936849e-10 -1.392910176e-11)
(0 -3.153418692e-10 -1.6403397e-11)
(0 -3.29514117e-10 -1.905172306e-11)
(0 -3.445226363e-10 -2.198434111e-11)
(0 -3.60349719e-10 -2.534513418e-11)
(0 -3.769325813e-10 -2.931254848e-11)
(0 -3.941433636e-10 -3.409606983e-11)
(0 -4.117644939e-10 -3.992517789e-11)
(0 -4.294607068e-10 -4.702613316e-11)
(0 -4.467512853e-10 -5.558010529e-11)
(0 -4.629905638e-10 -6.565477467e-11)
(0 -4.773712829e-10 -7.710075059e-11)
(0 -4.88974655e-10 -8.940460483e-11)
(0 -4.9690845e-10 -1.014956934e-10)
(0 -5.006085834e-10 -1.115244681e-10)
(0 -5.004331519e-10 -1.166898132e-10)
(0 -4.987049653e-10 -1.133568851e-10)
(0 -5.01064609e-10 -9.806960892e-11)
(0 -5.165500071e-10 -7.015535613e-11)
(0 -5.523469894e-10 -3.584436325e-11)
(0 -5.870251961e-10 -4.491398654e-12)
(0 -5.964055156e-10 9.020508674e-12)
(0 -8.379155798e-11 -1.78858403e-11)
(0 -7.604955423e-11 9.642667454e-11)
(0 1.478805334e-11 3.123743534e-12)
(0 1.037202008e-11 -2.799587661e-12)
(0 5.90849065e-12 1.489820728e-12)
(0 5.549643485e-12 4.032125217e-12)
(0 6.47652109e-12 4.757372154e-12)
(0 7.481295302e-12 4.620131974e-12)
(0 8.314537548e-12 4.136230366e-12)
(0 8.983946766e-12 3.498063278e-12)
(0 9.521114795e-12 2.769717563e-12)
(0 9.942660308e-12 1.975672176e-12)
(0 1.025354073e-11 1.126298667e-12)
(0 1.045044372e-11 2.259217615e-13)
(0 1.052320699e-11 -7.210035775e-13)
(0 1.045735453e-11 -1.704629062e-12)
(0 1.023820391e-11 -2.706960778e-12)
(0 9.855313564e-12 -3.702129363e-12)
(0 9.305859554e-12 -4.65916849e-12)
(0 8.596070011e-12 -5.546056985e-12)
(0 7.740613201e-12 -6.333697716e-12)
(0 6.760452222e-12 -6.998797025e-12)
(0 5.679951824e-12 -7.525212962e-12)
(0 4.524007916e-12 -7.90373814e-12)
(0 3.315799289e-12 -8.130690954e-12)
(0 2.075511922e-12 -8.205817932e-12)
(0 8.201313111e-13 -8.130120835e-12)
(0 -4.358125819e-13 -7.904074993e-12)
(0 -1.678819873e-12 -7.526630792e-12)
(0 -2.894726879e-12 -6.995168189e-12)
(0 -4.067257034e-12 -6.306451657e-12)
(0 -5.177300667e-12 -5.458367272e-12)
(0 -6.203228506e-12 -4.452079749e-12)
(0 -7.122299986e-12 -3.294042524e-12)
(0 -7.913015403e-12 -1.99727851e-12)
(0 -8.558068746e-12 -5.813740502e-13)
(0 -9.047360732e-12 9.291055432e-13)
(0 -9.380343025e-12 2.507757753e-12)
(0 -9.566897987e-12 4.130542023e-12)
(0 -9.626204214e-12 5.780065254e-12)
(0 -9.583758649e-12 7.448620486e-12)
(0 -9.467658162e-12 9.13881573e-12)
(0 -9.305817724e-12 1.086127106e-11)
(0 -9.125491045e-12 1.262996089e-11)
(0 -8.9548378e-12 1.445677344e-11)
(0 -8.824159048e-12 1.634426594e-11)
(0 -8.770235833e-12 1.826071866e-11)
(0 -8.887896205e-12 2.005080302e-11)
(0 -9.584652477e-12 2.123509638e-11)
(0 -1.232158107e-11 2.08721479e-11)
(0 -2.036054585e-11 1.893889847e-11)
(0 -3.049851976e-11 2.692698066e-11)
(0 4.971064912e-11 1.204348323e-10)
(0 6.708958329e-11 7.807297871e-13)
(0 3.174995905e-11 -1.459543804e-09)
(0 1.581046482e-11 -2.32245146e-09)
(0 5.701791853e-11 5.64665612e-22)
(0 -1.059671475e-10 2.108010149e-11)
(0 -1.061065918e-10 2.119333913e-11)
(0 -1.064283866e-10 2.143664148e-11)
(0 -1.069109198e-10 2.179692806e-11)
(0 -1.075612301e-10 2.225753811e-11)
(0 -1.083846411e-10 2.28004171e-11)
(0 -1.093869201e-10 2.340646673e-11)
(0 -1.105737864e-10 2.405580504e-11)
(0 -1.119508666e-10 2.472807365e-11)
(0 -1.135236067e-10 2.540272575e-11)
(0 -1.152972392e-10 2.605927728e-11)
(0 -1.172767829e-10 2.667754911e-11)
(0 -1.194670603e-10 2.723787359e-11)
(0 -1.218727182e-10 2.772130182e-11)
(0 -1.244982438e-10 2.810978069e-11)
(0 -1.273479841e-10 2.838633549e-11)
(0 -1.304261913e-10 2.853522648e-11)
(0 -1.337370983e-10 2.854211149e-11)
(0 -1.372850151e-10 2.83941892e-11)
(0 -1.410744123e-10 2.808036469e-11)
(0 -1.451099616e-10 2.759141243e-11)
(0 -1.493965429e-10 2.692016923e-11)
(0 -1.539392646e-10 2.606171967e-11)
(0 -1.587435675e-10 2.501358855e-11)
(0 -1.638154437e-10 2.377590089e-11)
(0 -1.691617269e-10 2.235154169e-11)
(0 -1.747903519e-10 2.074629346e-11)
(0 -1.80710492e-10 1.896898909e-11)
(0 -1.8693261e-10 1.703162958e-11)
(0 -1.934685983e-10 1.49494422e-11)
(0 -2.003322137e-10 1.274078352e-11)
(0 -2.075398403e-10 1.042688087e-11)
(0 -2.151113595e-10 8.031399395e-12)
(0 -2.230708035e-10 5.579895296e-12)
(0 -2.314466625e-10 3.099107096e-12)
(0 -2.402720761e-10 6.159913409e-13)
(0 -2.495852861e-10 -1.843705474e-12)
(0 -2.594304604e-10 -4.257443247e-12)
(0 -2.698585132e-10 -6.608513439e-12)
(0 -2.80927301e-10 -8.88924357e-12)
(0 -2.927007944e-10 -1.110484843e-11)
(0 -3.052472227e-10 -1.327804814e-11)
(0 -3.186362647e-10 -1.545463301e-11)
(0 -3.329349274e-10 -1.770991877e-11)
(0 -3.482010923e-10 -2.015577466e-11)
(0 -3.644732411e-10 -2.294746183e-11)
(0 -3.817547876e-10 -2.628912744e-11)
(0 -3.999915438e-10 -3.043598673e-11)
(0 -4.190408966e-10 -3.568988736e-11)
(0 -4.386315712e-10 -4.238265474e-11)
(0 -4.583145757e-10 -5.083886602e-11)
(0 -4.774095692e-10 -6.130649079e-11)
(0 -4.949558329e-10 -7.384006776e-11)
(0 -5.096842257e-10 -8.811620898e-11)
(0 -5.200427363e-10 -1.031555517e-10)
(0 -5.243471155e-10 -1.169170164e-10)
(0 -5.212199061e-10 -1.257242443e-10)
(0 -5.106622126e-10 -1.235790323e-10)
(0 -4.957598128e-10 -1.018100491e-10)
(0 -4.833837584e-10 -5.125915046e-11)
(0 -4.708230229e-10 2.503206001e-11)
(0 -4.06884144e-10 1.019074117e-10)
(0 5.812657458e-11 1.501585671e-22)
(0 7.06799613e-11 9.80148837e-12)
(0 1.975877885e-11 1.024155836e-11)
(0 1.280187094e-11 5.429410932e-12)
(0 9.578852554e-12 2.535539744e-12)
(0 7.272036991e-12 2.926993725e-12)
(0 6.540606005e-12 3.687340786e-12)
(0 6.731645353e-12 3.986572195e-12)
(0 7.256563775e-12 3.863868887e-12)
(0 7.835482007e-12 3.483270685e-12)