/*--------------------------------*- C++ -*----------------------------------*\
  =========                 |
  \\      /  F ield         | OpenFOAM: The Open Source CFD Toolbox
   \\    /   O peration     | Website:  https://openfoam.org
    \\  /    A nd           | Version:  6
     \\/     M anipulation  |
\*---------------------------------------------------------------------------*/
FoamFile
{
    version     2.0;
    format      ascii;
    class       volVectorField;
    location    "0.0046";
    object      gradT;
}
// * * * * * * * * * * * * * * * * * * * * * * * * * * * * * * * * * * * * * //

dimensions      [0 -1 0 1 0 0 0];

internalField   nonuniform List<vector> 
600
(
(0 -5.908054775e-08 -2.582391684e-05)
(0 -1.743829073e-07 -2.605642742e-05)
(0 -2.944498267e-07 -2.65243072e-05)
(0 -4.164225704e-07 -2.723232086e-05)
(0 -5.383953149e-07 -2.818523297e-05)
(0 -6.660855302e-07 -2.938780794e-05)
(0 -7.956815705e-07 -3.08457634e-05)
(0 -9.281363482e-07 -3.256958136e-05)
(0 -1.059638211e-06 -3.45592617e-05)
(0 -1.188281339e-06 -3.681480454e-05)
(0 -1.309301173e-06 -3.932477497e-05)
(0 -1.414121498e-06 -4.206916164e-05)
(0 -1.494166111e-06 -4.500794244e-05)
(0 -1.536094243e-06 -4.808298971e-05)
(-1.239779192e-25 -1.528470946e-06 -5.120854124e-05)
(1.239779192e-25 -1.454143805e-06 -5.426643604e-05)
(0 -1.300724964e-06 -5.710706693e-05)
(0 -1.058685299e-06 -5.955605086e-05)
(0 -7.318364624e-07 -6.14313818e-05)
(0 -3.306604855e-07 -6.255867686e-05)
(0 1.210198317e-07 -6.280833973e-05)
(0 6.117695428e-07 -6.210604354e-05)
(0 1.132059529e-06 -6.039842522e-05)
(0 1.696183468e-06 -5.761973356e-05)
(0 2.311764659e-06 -5.366133686e-05)
(0 2.967368161e-06 -4.840412109e-05)
(0 3.626783302e-06 -4.177947638e-05)
(0 4.224259164e-06 -3.383504853e-05)
(0 4.696903553e-06 -2.475379663e-05)
(0 2.449936907e-06 -1.48539932e-05)
(0 -1.743829097e-07 -2.56800275e-05)
(0 -5.25054554e-07 -2.591158517e-05)
(0 -8.823965812e-07 -2.637851205e-05)
(0 -1.245456082e-06 -2.708176116e-05)
(0 -1.616138881e-06 -2.802895581e-05)
(0 -1.995397884e-06 -2.922581333e-05)
(0 -2.387044747e-06 -3.068376881e-05)
(0 -2.784409086e-06 -3.240568097e-05)
(0 -3.185585066e-06 -3.440107881e-05)
(0 -3.577231928e-06 -3.666996246e-05)
(0 -3.943150171e-06 -3.920566155e-05)
(0 -4.269046095e-06 -4.19919764e-05)
(0 -4.522520707e-06 -4.499746108e-05)
(0 -4.665457523e-06 -4.81677996e-05)
(0 -4.654975487e-06 -5.141913557e-05)
(0 -4.443429006e-06 -5.463140218e-05)
(0 -3.988889949e-06 -5.764927476e-05)
(0 -3.263723856e-06 -6.028598241e-05)
(0 -2.270789474e-06 -6.233664919e-05)
(0 -1.04629746e-06 -6.36002107e-05)
(0 3.306604899e-07 -6.39232478e-05)
(0 1.799097997e-06 -6.327050302e-05)
(0 3.354250508e-06 -6.163054144e-05)
(0 5.041857787e-06 -5.895095259e-05)
(0 6.903847981e-06 -5.509928198e-05)
(0 8.912586648e-06 -4.989733504e-05)
(0 1.094419518e-05 -4.320693929e-05)
(0 1.280332664e-05 -3.505954105e-05)
(0 1.428034037e-05 -2.564286397e-05)
(0 7.451772424e-06 -1.530757957e-05)
(0 -2.906381784e-07 -2.539891806e-05)
(0 -8.719145366e-07 -2.562666408e-05)
(0 -1.463672925e-06 -2.608596765e-05)
(0 -2.066866259e-06 -2.677968763e-05)
(0 -2.684353278e-06 -2.771640023e-05)
(0 -3.320898531e-06 -2.890563444e-05)
(0 -3.975549116e-06 -3.035501368e-05)
(0 -4.645446302e-06 -3.207502e-05)
(0 -5.32296677e-06 -3.407613528e-05)
(0 -5.992863948e-06 -3.636598296e-05)
(0 -6.631315038e-06 -3.895028053e-05)
(0 -7.206873913e-06 -4.18204516e-05)
(0 -7.669036262e-06 -4.495362645e-05)
(0 -7.956815713e-06 -4.830597113e-05)
(-1.239779192e-25 -7.992073454e-06 -5.180506419e-05)
(1.239779192e-25 -7.684282859e-06 -5.533274464e-05)
(0 -6.956258048e-06 -5.872511161e-05)
(0 -5.746059724e-06 -6.176490102e-05)
(0 -4.044158784e-06 -6.419196804e-05)
(0 -1.919164893e-06 -6.574616771e-05)
(0 4.516803166e-07 -6.618546007e-05)
(0 2.90447596e-06 -6.558607838e-05)
(0 5.451609906e-06 -6.406237209e-05)
(0 8.225536906e-06 -6.160576471e-05)
(0 1.136538214e-05 -5.803520322e-05)
(0 1.48606636e-05 -5.301240382e-05)
(0 1.846362408e-05 -4.620765872e-05)
(0 2.178642844e-05 -3.765050842e-05)
(0 2.445077059e-05 -2.752581782e-05)
(0 1.278617403e-05 -1.625000937e-05)
(0 -4.030818016e-07 -2.497487219e-05)
(0 -1.212104143e-06 -2.519880656e-05)
(0 -2.036373073e-06 -2.564762811e-05)
(0 -2.87684151e-06 -2.632896023e-05)
(0 -3.739226931e-06 -2.72475675e-05)
(0 -4.63401135e-06 -2.841774347e-05)
(0 -5.555477312e-06 -2.98509232e-05)
(0 -6.505530646e-06 -3.156044749e-05)
(0 -7.47845385e-06 -3.356537442e-05)
(0 -8.452329976e-06 -3.588285655e-05)
(0 -9.397618754e-06 -3.852528175e-05)
(0 -1.027048619e-05 -4.150217897e-05)
(0 -1.100804012e-05 -4.481068964e-05)
(0 -1.151784809e-05 -4.84298497e-05)
(1.239779192e-25 -1.168270187e-05 -5.229962555e-05)
(-1.239779192e-25 -1.136538215e-05 -5.631996153e-05)
(0 -1.041818757e-05 -6.030980437e-05)
(0 -8.73153321e-06 -6.401091475e-05)
(0 -6.253961853e-06 -6.709263235e-05)
(0 -3.038836565e-06 -6.917855695e-05)
(0 4.907497111e-07 -6.96569187e-05)
(0 3.922186041e-06 -6.900226812e-05)
(0 7.335517052e-06 -6.759005255e-05)
(0 1.106807358e-05 -6.553557404e-05)
(0 1.549816175e-05 -6.257011171e-05)
(0 2.074013103e-05 -5.804568534e-05)
(0 2.630704325e-05 -5.108275682e-05)
(0 3.148516739e-05 -4.190430786e-05)
(0 3.568179216e-05 -3.062564076e-05)
(0 1.872948655e-05 -1.776037498e-05)
(0 -5.126666962e-07 -2.441551318e-05)
(0 -1.544670475e-06 -2.463182426e-05)
(0 -2.592873755e-06 -2.506635213e-05)
(0 -3.666805663e-06 -2.572481437e-05)
(0 -4.774089501e-06 -2.661864593e-05)
(0 -5.924254368e-06 -2.775832874e-05)
(0 -7.118253198e-06 -2.916196822e-05)
(0 -8.360850556e-06 -3.085243429e-05)
(0 -9.64537602e-06 -3.284783213e-05)
(0 -1.095181847e-05 -3.517865506e-05)
(0 -1.225063765e-05 -3.78763492e-05)
(0 -1.349323498e-05 -4.096854883e-05)
(0 -1.459575425e-05 -4.448193565e-05)
(0 -1.544479892e-05 -4.842699169e-05)
(0 -1.588218556e-05 -5.278465858e-05)
(0 -1.569446188e-05 -5.747679764e-05)
(0 -1.464721152e-05 -6.233569634e-05)
(0 -1.252888796e-05 -6.704212902e-05)
(0 -9.212753938e-06 -7.115394462e-05)
(0 -4.482498406e-06 -7.439193996e-05)
(0 6.289219693e-07 -7.44357738e-05)
(0 4.970389382e-06 -7.334754821e-05)
(0 8.916398296e-06 -7.193437972e-05)
(0 1.324738366e-05 -7.054312798e-05)
(0 1.885527122e-05 -6.882216877e-05)
(0 2.634897182e-05 -6.566040661e-05)
(0 3.460404908e-05 -5.829439617e-05)
(0 4.224354518e-05 -4.836219362e-05)
(0 4.859375132e-05 -3.539210742e-05)
(0 2.565429888e-05 -1.998923659e-05)
(0 -6.184399272e-07 -2.37275103e-05)
(0 -1.862943081e-06 -2.393429226e-05)
(0 -3.129363206e-06 -2.434690314e-05)
(0 -4.430088169e-06 -2.497868384e-05)
(0 -5.773694183e-06 -2.583439891e-05)
(0 -7.176380727e-06 -2.693024774e-05)
(0 -8.64862986e-06 -2.828719451e-05)
(0 -1.01913945e-05 -2.993096786e-05)
(0 -1.18046746e-05 -3.189301375e-05)
(0 -1.348084692e-05 -3.421335462e-05)
(0 -1.518655953e-05 -3.693963608e-05)
(0 -1.68770255e-05 -4.01299856e-05)
(0 -1.846743573e-05 -4.384443681e-05)
(0 -1.981961797e-05 -4.814397608e-05)
(0 -2.073250771e-05 -5.306862558e-05)
(0 -2.091641974e-05 -5.861838542e-05)
(0 -1.998256593e-05 -6.467128287e-05)
(0 -1.755073433e-05 -7.083471801e-05)
(0 -1.360377257e-05 -7.626441093e-05)
(0 -6.321618618e-06 -8.298911147e-05)
(0 1.536094241e-06 -8.05363157e-05)
(0 6.423580199e-06 -7.820453989e-05)
(0 1.014089016e-05 -7.644165269e-05)
(0 1.418123728e-05 -7.605477028e-05)
(0 2.037993024e-05 -7.669131553e-05)
(0 3.126695057e-05 -7.764041606e-05)
(0 4.360430297e-05 -6.822278605e-05)
(0 5.438840876e-05 -5.797421684e-05)
(0 6.405379589e-05 -4.268093125e-05)
(0 3.413426292e-05 -2.321293779e-05)
(0 -7.194486056e-07 -2.291467632e-05)
(0 -2.165016205e-06 -2.310716459e-05)
(0 -3.637265335e-06 -2.34978585e-05)
(0 -5.152395511e-06 -2.408771106e-05)
(0 -6.725653333e-06 -2.489196888e-05)
(0 -8.378002835e-06 -2.592873716e-05)
(0 -1.012087899e-05 -2.721612136e-05)
(0 -1.196666967e-05 -2.878556756e-05)
(0 -1.392680976e-05 -3.067805087e-05)
(0 -1.599844058e-05 -3.29402641e-05)
(0 -1.816822137e-05 -3.564653441e-05)
(0 -2.039708265e-05 -3.887690624e-05)
(0 -2.260974446e-05 -4.274001173e-05)
(0 -2.466898745e-05 -4.735687072e-05)
(0 -2.63575476e-05 -5.286565531e-05)
(0 -2.72971189e-05 -5.940167914e-05)
(0 -2.686449684e-05 -6.705356303e-05)
(0 -2.412106299e-05 -7.553352738e-05)
(0 -2.136524131e-05 -8.026092411e-05)
(0 -8.7534502e-06 -0.0001009572213)
(0 5.410634679e-06 -8.671309167e-05)
(0 9.064099519e-06 -8.269180278e-05)
(0 1.10680736e-05 -7.976636287e-05)
(0 1.299676759e-05 -8.073738014e-05)
(0 1.727057818e-05 -8.443849059e-05)
(0 3.481750092e-05 -0.0001001767863)
(0 5.427024767e-05 -7.913744079e-05)
(0 6.778539942e-05 -7.277103532e-05)
(0 8.335598261e-05 -5.423594291e-05)
(0 4.512419771e-05 -2.795748694e-05)
(0 -8.109281756e-07 -2.199130486e-05)
(0 -2.446125299e-06 -2.216664072e-05)
(0 -4.108956866e-06 -2.25230298e-05)
(0 -5.825151513e-06 -2.306523677e-05)
(0 -7.612814576e-06 -2.380564949e-05)
(0 -9.501486297e-06 -2.475951444e-05)
(0 -1.150546039e-05 -2.594970162e-05)
(0 -1.365237131e-05 -2.740765713e-05)
(0 -1.595937143e-05 -2.917721482e-05)
(0 -1.844933068e-05 -3.132317281e-05)
(0 -2.112320199e-05 -3.392366991e-05)
(0 -2.397145615e-05 -3.709877289e-05)
(0 -2.694835347e-05 -4.099332454e-05)
(0 -2.994430907e-05 -4.57998131e-05)
(0 -3.277731665e-05 -5.176313683e-05)
(0 -3.510337502e-05 -5.921300344e-05)
(0 -3.611536767e-05 -6.87630883e-05)
(0 -3.075809595e-05 -8.415928861e-05)
(0 -3.902746693e-05 -6.847530878e-05)
(0 -1.277378638e-05 -5.675067869e-05)
(0 1.980151291e-05 -4.476685636e-05)
(0 1.337126223e-05 -4.235408298e-05)
(0 1.209436007e-05 -4.046064675e-05)
(0 9.510062506e-06 -4.132589086e-05)
(0 9.395713057e-07 -4.394735197e-05)
(0 3.65660951e-05 -5.766547429e-05)
(0 7.101100781e-05 -7.556688044e-05)
(0 7.929086082e-05 -9.989281988e-05)
(0 0.0001088682989 -7.366010349e-05)
(0 6.041748427e-05 -3.534541468e-05)
(0 -8.947844247e-07 -2.096882989e-05)
(0 -2.697694047e-06 -2.112701332e-05)
(0 -4.53681432e-06 -2.144433301e-05)
(0 -6.435015144e-06 -2.192841233e-05)
(0 -8.418978066e-06 -2.258782751e-05)
(0 -1.052110206e-05 -2.343687213e-05)
(0 -1.276902161e-05 -2.449841616e-05)
(0 -1.519513574e-05 -2.58019999e-05)
(0 -1.784232542e-05 -2.7393363e-05)
(0 -2.074584847e-05 -2.933825652e-05)
(0 -2.394286847e-05 -3.172911292e-05)
(0 -2.746578432e-05 -3.470124559e-05)
(0 -3.131078448e-05 -3.844047252e-05)
(0 -3.543975248e-05 -4.319645666e-05)
(0 -3.977073777e-05 -4.930081129e-05)
(0 -4.429707006e-05 -5.706132712e-05)
(0 -5.180982878e-05 -6.479134979e-05)
(0 -2.383233063e-05 -4.509465744e-05)
(0 6.042415375e-06 -2.911336927e-05)
(0 1.495309607e-05 8.3189223e-06)
(0 1.9808183e-05 5.053292656e-06)
(0 1.337126203e-05 6.563658272e-06)
(0 1.20953128e-05 6.1701056e-06)
(0 9.510062363e-06 6.580810689e-06)
(0 9.319479951e-07 6.071002737e-06)
(0 3.199878704e-06 1.125675019e-05)
(0 1.204194971e-05 -2.655289456e-05)
(0 6.969122354e-05 -5.899955022e-05)
(0 0.000147902434 -0.0001053139353)
(0 8.344269748e-05 -4.809633043e-05)
(0 -9.691115654e-07 -1.986535772e-05)
(0 -2.918769645e-06 -1.999876544e-05)
(0 -4.911308759e-06 -2.027225117e-05)
(0 -6.968645898e-06 -2.068772083e-05)
(0 -9.12318008e-06 -2.125279772e-05)
(0 -1.141112192e-05 -2.197796376e-05)
(0 -1.387058795e-05 -2.288132439e-05)
(0 -1.654636504e-05 -2.398670242e-05)
(0 -1.949658076e-05 -2.533697877e-05)
(0 -2.278412736e-05 -2.698742246e-05)
(0 -2.648619076e-05 -2.903713635e-05)
(0 -3.068376835e-05 -3.162429255e-05)
(0 -3.544356409e-05 -3.496424932e-05)
(0 -4.080369447e-05 -3.935050358e-05)
(0 -4.664218664e-05 -4.529191025e-05)
(0 -5.059486587e-05 -5.5068788e-05)
(0 -2.414869746e-05 -3.176437066e-05)
(0 4.92083788e-06 4.692138986e-06)
(0 1.438516046e-05 7.460348521e-06)
(0 2.139096996e-05 1.512747898e-05)
(0 1.80462486e-05 1.039055311e-05)
(0 1.448902788e-05 1.189043669e-05)
(0 1.211151231e-05 1.152833012e-05)
(0 9.411912421e-06 1.234592865e-05)
(0 5.61455786e-06 1.254032272e-05)
(0 3.941244288e-06 1.971575056e-05)
(0 7.556592639e-07 1.562775779e-05)
(0 5.298191056e-07 1.042009338e-05)
(0 0.00011977247 -6.022213648e-05)
(0 0.0001176493817 -0.0001047326587)
(0 -1.030097953e-06 -1.869327617e-05)
(0 -3.105540456e-06 -1.880571982e-05)
(0 -5.225769818e-06 -1.902965413e-05)
(0 -7.414608853e-06 -1.936889083e-05)
(0 -9.709221144e-06 -1.982819448e-05)
(0 -1.214962895e-05 -2.041328246e-05)
(0 -1.477776045e-05 -2.113177817e-05)
(0 -1.764983747e-05 -2.200369275e-05)
(0 -2.084399872e-05 -2.305094309e-05)
(0 -2.444695928e-05 -2.432117488e-05)
(0 -2.85806919e-05 -2.588585655e-05)
(0 -3.339194492e-05 -2.788030148e-05)
(0 -3.903604314e-05 -3.05255854e-05)
(0 -4.5768367e-05 -3.403801934e-05)
(6.198896052e-26 -5.548807014e-05 -3.754854741e-05)
(-6.198896052e-26 -3.076857799e-05 -3.217793495e-05)
(0 7.948239624e-06 -3.178914685e-06)
(0 1.539238874e-05 7.55087528e-06)
(0 1.647870851e-05 1.372098096e-05)
(0 1.788425385e-05 1.147020266e-05)
(0 1.657114098e-05 9.480522231e-06)
(0 1.450808634e-05 9.343302893e-06)
(0 1.255175787e-05 9.51006252e-06)
(0 1.05201493e-05 1.040294112e-05)
(0 8.301769995e-06 1.204099698e-05)
(0 6.289219703e-06 1.570589684e-05)
(0 2.746292599e-06 1.843217826e-05)
(0 -6.160576563e-06 2.523597047e-05)
(0 3.275063514e-05 2.998147265e-05)
(0 7.782528205e-05 -5.543756577e-05)
(0 -1.080602277e-06 -1.747926592e-05)
(0 -3.254194691e-06 -1.756598095e-05)
(0 -5.475432699e-06 -1.773941092e-05)
(0 -7.766233292e-06 -1.799955591e-05)
(0 -1.01675717e-05 -1.834736884e-05)
(0 -1.271565853e-05 -1.87809438e-05)
(0 -1.546195109e-05 -1.930313961e-05)
(0 -1.846552993e-05 -1.991395627e-05)
(0 -2.181310998e-05 -2.061911116e-05)
(0 -2.561808783e-05 -2.143003933e-05)
(0 -3.004531731e-05 -2.237628104e-05)
(0 -3.532445008e-05 -2.355503322e-05)
(0 -4.160223473e-05 -2.529886229e-05)
(0 -4.782665636e-05 -2.880843744e-05)
(0 -4.478019648e-05 -3.876446264e-05)
(0 -1.622428075e-05 -8.011131696e-06)
(0 1.55801122e-05 3.662041052e-06)
(0 2.181978036e-05 6.205363337e-06)
(0 1.830544068e-05 8.032095757e-06)
(0 1.715051129e-05 7.537534409e-06)
(0 1.592030179e-05 6.714218378e-06)
(0 1.451761524e-05 6.488378219e-06)
(0 1.317115052e-05 6.771393112e-06)
(0 1.194094103e-05 7.721446426e-06)
(0 1.09194193e-05 9.535790989e-06)
(0 1.033242549e-05 1.267087169e-05)
(0 1.028573278e-05 1.725723741e-05)
(0 1.207911328e-05 2.611074337e-05)
(0 3.909893481e-05 4.483546542e-05)
(0 5.839540397e-05 2.717324031e-05)
(0 -1.116812935e-06 -1.623857442e-05)
(0 -3.366638315e-06 -1.630051373e-05)
(0 -5.658391815e-06 -1.642248645e-05)
(0 -8.022566637e-06 -1.660449265e-05)
(0 -1.04915618e-05 -1.684081487e-05)
(0 -1.310444665e-05 -1.712287681e-05)
(0 -1.591077267e-05 -1.744496109e-05)
(0 -1.896771459e-05 -1.779277402e-05)
(0 -2.235817567e-05 -1.814344563e-05)
(0 -2.620317584e-05 -1.846171826e-05)
(0 -3.070759119e-05 -1.869422883e-05)
(0 -3.631452571e-05 -1.872948655e-05)
(0 -4.428849383e-05 -1.836356832e-05)
(0 -5.923396665e-05 -1.719720397e-05)
(0 -3.468981066e-05 -1.443090025e-05)
(0 1.165697324e-05 5.017082e-06)
(0 2.216473455e-05 9.182260624e-06)
(0 1.97605374e-05 5.564053521e-06)
(0 1.781278515e-05 4.64354047e-06)
(0 1.656542328e-05 3.929809343e-06)
(0 1.552103164e-05 3.337098036e-06)
(0 1.456716667e-05 3.12173991e-06)
(0 1.378387297e-05 3.365685402e-06)
(0 1.328549995e-05 4.182331033e-06)
(0 1.325119511e-05 5.725095659e-06)
(0 1.400971313e-05 8.209337413e-06)
(0 1.618521135e-05 1.184279109e-05)
(0 2.141955729e-05 1.715813456e-05)
(0 3.381122578e-05 2.360744342e-05)
(0 4.166893858e-05 8.402778549e-06)
(0 -1.14349449e-06 -1.499216567e-05)
(0 -3.440965507e-06 -1.503314091e-05)
(0 -5.778458821e-06 -1.510746803e-05)
(0 -8.18456181e-06 -1.521419418e-05)
(0 -1.068500311e-05 -1.534379025e-05)
(0 -1.332075789e-05 -1.548577413e-05)
(0 -1.61308956e-05 -1.562013473e-05)
(0 -1.916306185e-05 -1.572114343e-05)
(0 -2.248491331e-05 -1.575068368e-05)
(0 -2.616791848e-05 -1.564109879e-05)
(0 -3.031213314e-05 -1.526183981e-05)
(0 -3.499379012e-05 -1.435371458e-05)
(0 -4.006899983e-05 -1.227446043e-05)
(0 -4.389589477e-05 -7.22116771e-06)
(0 -2.256686376e-05 6.673243262e-06)
(0 7.388880231e-06 6.678960735e-06)
(0 1.612708397e-05 4.189954397e-06)
(0 1.728201339e-05 2.207897277e-06)
(0 1.667024384e-05 1.034862513e-06)
(0 1.5845022e-05 1.867707669e-07)
(0 1.51131855e-05 -4.221400491e-07)
(0 1.454524991e-05 -7.13731144e-07)
(0 1.423078895e-05 -6.212986736e-07)
(0 1.430225733e-05 -8.195043843e-08)
(0 1.494452007e-05 9.757819645e-07)
(0 1.645012117e-05 2.60716744e-06)
(0 1.923548314e-05 4.760748725e-06)
(0 2.384376593e-05 7.0868071e-06)
(0 3.034357924e-05 7.960627484e-06)
(0 3.488420523e-05 2.380374363e-06)
(0 -1.157788153e-06 -1.376672054e-05)
(0 -3.479081938e-06 -1.378387297e-05)
(0 -5.84135093e-06 -1.381627196e-05)
(0 -8.258888828e-06 -1.385534136e-05)
(0 -1.076218883e-05 -1.389155204e-05)
(0 -1.338079115e-05 -1.390775152e-05)
(0 -1.614804778e-05 -1.38820229e-05)
(0 -1.909731063e-05 -1.377910841e-05)
(0 -2.227717815e-05 -1.355231532e-05)
(0 -2.571433195e-05 -1.31320811e-05)
(0 -2.9420207e-05 -1.240405631e-05)
(0 -3.332809931e-05 -1.119004633e-05)
(0 -3.715689997e-05 -9.198460119e-06)
(0 -4.02843574e-05 -6.113883786e-06)
(0 -2.078968243e-05 -2.780597394e-06)
(0 9.17368441e-06 -2.782503218e-06)
(0 1.769462407e-05 -1.320736117e-06)
(0 1.660639848e-05 -1.962045932e-06)
(0 1.579070575e-05 -2.910193433e-06)
(0 1.510746783e-05 -3.804977863e-06)
(0 1.461957683e-05 -4.511085694e-06)
(0 1.436800805e-05 -4.944660682e-06)
(0 1.441565367e-05 -5.069492169e-06)
(0 1.488448638e-05 -4.873192277e-06)
(0 1.594031295e-05 -4.350043556e-06)
(0 1.779467984e-05 -3.522915893e-06)
(0 2.066580385e-05 -2.49281795e-06)
(0 2.461848308e-05 -1.532282593e-06)
(0 2.910288728e-05 -1.251173537e-06)
(0 3.23313533e-05 -2.501394159e-06)
(0 -1.160646895e-06 -1.257081596e-05)
(0 -3.489563986e-06 -1.256986306e-05)
(0 -5.850880077e-06 -1.25660514e-05)
(0 -8.259841777e-06 -1.254889898e-05)
(0 -1.073741316e-05 -1.250601796e-05)
(0 -1.331122863e-05 -1.242025585e-05)
(0 -1.600129939e-05 -1.226493118e-05)
(0 -1.883430699e-05 -1.200478621e-05)
(0 -2.183788579e-05 -1.159312818e-05)
(0 -2.502061208e-05 -1.096992369e-05)
(0 -2.837009803e-05 -1.007132763e-05)
(0 -3.178628774e-05 -8.837306488e-06)
(0 -3.499283684e-05 -7.240225868e-06)
(0 -3.747803154e-05 -5.265792075e-06)
(0 -1.923738877e-05 -2.100218192e-06)
(0 8.849694349e-06 -2.097359455e-06)
(0 1.694563526e-05 -4.737878791e-06)
(0 1.569350879e-05 -5.842303869e-06)
(0 1.482635881e-05 -6.91814159e-06)
(0 1.424508248e-05 -8.002555531e-06)
(0 1.397445543e-05 -8.88876374e-06)
(0 1.398874911e-05 -9.494815813e-06)
(0 1.43022572e-05 -9.848346204e-06)
(0 1.501979996e-05 -1.000271794e-05)
(0 1.629479631e-05 -9.996047559e-06)
(0 1.830829953e-05 -9.870263181e-06)
(0 2.122421042e-05 -9.693021522e-06)
(0 2.50854101e-05 -9.500533285e-06)
(0 2.937637317e-05 -8.960232158e-06)
(0 3.231610685e-05 -7.359339876e-06)
(0 -1.156835248e-06 -1.142160402e-05)
(0 -3.47527031e-06 -1.140731036e-05)
(0 -5.819433988e-06 -1.137395842e-05)
(0 -8.199808329e-06 -1.131297205e-05)
(0 -1.063449867e-05 -1.121101047e-05)
(0 -1.313875157e-05 -1.104806249e-05)
(0 -1.57316253e-05 -1.079649371e-05)
(0 -1.842550774e-05 -1.04229522e-05)
(0 -2.124231578e-05 -9.87883939e-06)
(0 -2.419348445e-05 -9.120321385e-06)
(0 -2.728663705e-05 -8.108328783e-06)
(0 -3.049699776e-05 -6.871448909e-06)
(0 -3.358633868e-05 -5.67745009e-06)
(0 -3.514339704e-05 -5.623134108e-06)
(0 -1.762124993e-05 -1.072978987e-05)
(0 6.536023865e-06 -1.073264861e-05)
(0 1.395063266e-05 -9.694927371e-06)
(0 1.442613577e-05 -9.760678293e-06)
(0 1.363045419e-05 -1.092513684e-05)
(0 1.313589285e-05 -1.240691512e-05)
(0 1.312636371e-05 -1.356470326e-05)
(0 1.340747277e-05 -1.431940962e-05)
(0 1.390870454e-05 -1.484637001e-05)
(0 1.473583219e-05 -1.531424981e-05)
(0 1.607276782e-05 -1.578975294e-05)
(0 1.80986589e-05 -1.629765509e-05)
(0 2.103648677e-05 -1.694087071e-05)
(0 2.53503197e-05 -1.784899591e-05)
(0 3.124408087e-05 -1.777085715e-05)
(0 3.47403152e-05 -1.146639089e-05)
(0 -1.145400302e-06 -1.032956678e-05)
(0 -3.442871295e-06 -1.0305744e-05)
(0 -5.755588871e-06 -1.025142799e-05)
(0 -8.095940902e-06 -1.015994843e-05)
(0 -1.047250361e-05 -1.001605873e-05)
(0 -1.28976648e-05 -9.80260641e-06)
(0 -1.537428325e-05 -9.48909834e-06)
(0 -1.791760558e-05 -9.04408842e-06)
(0 -2.053620791e-05 -8.418978092e-06)
(0 -2.325010147e-05 -7.557545585e-06)
(0 -2.612027264e-05 -6.397851612e-06)
(0 -2.935636198e-05 -4.883674332e-06)
(0 -3.374452204e-05 -2.994049707e-06)
(0 -4.253037132e-05 -8.290334972e-07)
(0 -2.434690326e-05 1.114907116e-06)
(0 9.88360394e-06 -8.435177601e-06)
(0 1.791760557e-05 -1.35599387e-05)
(0 1.446329932e-05 -1.258701546e-05)
(0 1.218012201e-05 -1.462815311e-05)
(0 1.160742188e-05 -1.715622884e-05)
(0 1.206386674e-05 -1.865134784e-05)
(0 1.270517656e-05 -1.93908076e-05)
(0 1.3307417e-05 -1.992634422e-05)
(0 1.407736993e-05 -2.064483988e-05)
(0 1.531043814e-05 -2.157964662e-05)
(0 1.715622884e-05 -2.262784992e-05)
(0 1.967286958e-05 -2.396859716e-05)
(0 2.425637661e-05 -2.72256506e-05)
(0 3.575897819e-05 -3.285831386e-05)
(0 4.103715807e-05 -1.681508629e-05)
(0 -1.131106621e-06 -9.302327576e-06)
(0 -3.397131516e-06 -9.269928579e-06)
(0 -5.672685521e-06 -9.205130545e-06)
(0 -7.965391949e-06 -9.09649857e-06)
(0 -1.027715663e-05 -8.931644796e-06)
(0 -1.261274409e-05 -8.692463854e-06)
(0 -1.497215436e-05 -8.353227159e-06)
(0 -1.735348164e-05 -7.876771139e-06)
(0 -1.975672584e-05 -7.221167626e-06)
(0 -2.217331083e-05 -6.318759901e-06)
(0 -2.461276576e-05 -5.069492192e-06)
(0 -2.709224291e-05 -3.294217008e-06)
(0 -2.953074489e-05 -5.965229525e-07)
(0 -3.103539307e-05 4.17947232e-06)
(0 -2.522739401e-05 1.50617281e-05)
(0 -8.138821948e-06 1.900106658e-06)
(0 9.798794772e-06 -7.992073495e-06)
(0 1.335696841e-05 -1.240596217e-05)
(0 9.061240823e-06 -1.785661918e-05)
(0 9.114603913e-06 -2.295088711e-05)
(0 1.089083199e-05 -2.451556869e-05)
(0 1.213342932e-05 -2.468518704e-05)
(0 1.265276641e-05 -2.484908795e-05)
(0 1.308348265e-05 -2.57962825e-05)
(0 1.408975779e-05 -2.729044862e-05)
(0 1.570875541e-05 -2.870933473e-05)
(0 1.64367802e-05 -2.91371922e-05)
(0 1.646155592e-05 -3.429339938e-05)
(0 4.165559806e-05 -5.304099143e-05)
(0 5.643812286e-05 -3.892169328e-05)
(0 -1.115860029e-06 -8.338933491e-06)
(0 -3.345674269e-06 -8.306534493e-06)
(0 -5.581205971e-06 -8.2369719e-06)
(0 -7.822455151e-06 -8.12166954e-06)
(0 -1.006846891e-05 -7.953957028e-06)
(0 -1.231829428e-05 -7.711917351e-06)
(0 -1.456049637e-05 -7.378398128e-06)
(0 -1.678649898e-05 -6.921953259e-06)
(0 -1.897819671e-05 -6.299701669e-06)
(0 -2.109556732e-05 -5.45160993e-06)
(0 -2.309572978e-05 -4.282386832e-06)
(0 -2.488625152e-05 -2.643378071e-06)
(0 -2.626987984e-05 -2.915910922e-07)
(0 -2.687307321e-05 3.076000153e-06)
(0 -2.662531605e-05 7.168757477e-06)
(0 -1.316924476e-05 6.471225844e-06)
(0 3.611536734e-06 -1.86675474e-06)
(0 4.599706543e-06 -1.119004639e-05)
(0 1.634244193e-06 -2.144719187e-05)
(0 4.946566543e-06 -3.228751959e-05)
(0 1.032861388e-05 -3.179676982e-05)
(0 1.237165735e-05 -3.001482426e-05)
(0 1.219727446e-05 -2.902093702e-05)
(0 1.163505633e-05 -3.044172886e-05)
(0 1.239833889e-05 -3.312703507e-05)
(0 1.531043819e-05 -3.583997577e-05)
(0 1.409071072e-05 -2.963556526e-05)
(0 3.516245524e-07 -2.784409057e-05)
(0 3.113163725e-05 -3.386554197e-05)
(0 7.234413115e-05 3.494137964e-05)
)
;

boundaryField
{
    lowerWall
    {
        type            calculated;
        value           nonuniform 0();
    }
    atmosphere
    {
        type            calculated;
        value           nonuniform List<vector> 
20
(
(0 0 -2.582391684e-05)
(0 0 -2.56800275e-05)
(0 0 -2.539891806e-05)
(0 0 -2.497487219e-05)
(0 0 -2.441551318e-05)
(0 0 -2.37275103e-05)
(0 0 -2.291467632e-05)
(0 0 -2.199130486e-05)
(0 0 -2.096882989e-05)
(0 0 -1.986535772e-05)
(0 0 -1.869327617e-05)
(0 0 -1.747926592e-05)
(0 0 -1.623857442e-05)
(0 0 -1.499216567e-05)
(0 0 -1.376672054e-05)
(0 0 -1.257081596e-05)
(0 0 -1.142160402e-05)
(0 0 -1.032956678e-05)
(0 0 -9.302327576e-06)
(0 0 -8.338933491e-06)
)
;
    }
    rightWall
    {
        type            empty;
    }
    leftWall
    {
        type            empty;
    }
    frontAndBack
    {
        type            calculated;
        value           nonuniform List<vector> 
30
(
(0 -5.908054775e-08 -2.585920798e-05)
(0 -1.743829073e-07 -2.609283443e-05)
(0 -2.944498267e-07 -2.655838203e-05)
(0 -4.164225704e-07 -2.726949319e-05)
(0 -5.383953149e-07 -2.822275732e-05)
(0 -6.660855302e-07 -2.942670093e-05)
(0 -7.956815705e-07 -3.088643992e-05)
(0 -9.281363482e-07 -3.26087955e-05)
(0 -1.059638211e-06 -3.459888359e-05)
(0 -1.188281339e-06 -3.684817766e-05)
(0 -1.309301173e-06 -3.935156181e-05)
(0 -1.414121498e-06 -4.208516181e-05)
(0 -1.494166111e-06 -4.500805039e-05)
(0 -1.536094243e-06 -4.806054197e-05)
(-1.239779192e-25 -1.528470946e-06 -5.115396081e-05)
(1.239779192e-25 -1.454143805e-06 -5.417405164e-05)
(0 -1.300724964e-06 -5.697074783e-05)
(0 -1.058685299e-06 -5.937522444e-05)
(0 -7.318364624e-07 -6.120671939e-05)
(0 -3.306604855e-07 -6.230152363e-05)
(0 1.210198317e-07 -6.253173947e-05)
(0 6.117695428e-07 -6.18138071e-05)
(0 1.132059529e-06 -6.008804091e-05)
(0 1.696183468e-06 -5.72845235e-05)
(0 2.311764659e-06 -5.330434734e-05)
(0 2.967368161e-06 -4.803837304e-05)
(0 3.626783302e-06 -4.143032563e-05)
(0 4.224259164e-06 -3.353477479e-05)
(0 4.696903553e-06 -2.453589319e-05)
(0 2.449936907e-06 -1.474234061e-05)
)
;
    }
    procBoundary0to1
    {
        type            processor;
        value           nonuniform List<vector> 
20
(
(0 7.337422832e-08 -1.485304022e-05)
(0 2.30604721e-07 -1.530662659e-05)
(0 4.154696565e-07 -1.624715056e-05)
(0 6.479801982e-07 -1.775751617e-05)
(0 9.74829048e-07 -1.998828359e-05)
(0 1.474154951e-06 -2.321007895e-05)
(0 2.320340857e-06 -2.795272225e-05)
(0 3.929809378e-06 -3.534064996e-05)
(0 7.462254312e-06 -4.808108362e-05)
(0 1.653207126e-05 -6.584050561e-05)
(0 7.475118736e-05 -2.92734588e-05)
(0 4.871381722e-05 8.678170095e-06)
(0 3.992796806e-05 9.624411767e-08)
(0 3.547310473e-05 -1.377910854e-06)
(0 3.327759482e-05 -3.817365697e-06)
(0 3.306986014e-05 -6.551270415e-06)
(0 3.462215394e-05 -9.049805851e-06)
(0 3.749423084e-05 -1.116050605e-05)
(0 4.39225756e-05 -2.173306536e-05)
(0 6.960736738e-05 1.18427911e-05)
)
;
    }
    procBoundary0to2
    {
        type            processor;
        value           nonuniform List<vector> 
30
(
(0 -1.098707611e-06 -7.44414905e-06)
(0 -3.294217013e-06 -7.410797138e-06)
(0 -5.488773493e-06 -7.343140371e-06)
(0 -7.681424154e-06 -7.234508395e-06)
(0 -9.867404445e-06 -7.074419179e-06)
(0 -1.203813811e-05 -6.855249394e-06)
(0 -1.418314317e-05 -6.558893741e-06)
(0 -1.627478518e-05 -6.159623596e-06)
(0 -1.82844767e-05 -5.63075739e-06)
(0 -2.015599599e-05 -4.926555375e-06)
(0 -2.180643972e-05 -3.987936997e-06)
(0 -2.310049427e-05 -2.720563945e-06)
(0 -2.381041376e-05 -1.013898437e-06)
(0 -2.357409159e-05 1.238785685e-06)
(0 -2.183407415e-05 4.067981606e-06)
(0 -1.717433415e-05 7.903452668e-06)
(0 -7.86057163e-06 1.000557669e-06)
(0 -6.225374519e-06 -5.491632229e-06)
(0 -1.203527938e-05 -3.203785653e-05)
(0 -1.23592695e-06 -5.297047593e-05)
(0 1.316448017e-05 -4.039013077e-05)
(0 1.490830925e-05 -3.458308465e-05)
(0 1.222681472e-05 -3.081431748e-05)
(0 8.977384562e-06 -3.386458896e-05)
(0 8.692463854e-06 -3.898553839e-05)
(0 1.91983194e-05 -5.194800129e-05)
(0 2.443266534e-05 -3.740465728e-05)
(0 1.223253217e-05 -9.655857952e-06)
(0 0.0001044391624 3.768862513e-05)
(0 0.0001021474088 7.569361695e-05)
)
;
    }
}


// ************************************************************************* //
