/*--------------------------------*- C++ -*----------------------------------*\
  =========                 |
  \\      /  F ield         | OpenFOAM: The Open Source CFD Toolbox
   \\    /   O peration     | Website:  https://openfoam.org
    \\  /    A nd           | Version:  6
     \\/     M anipulation  |
\*---------------------------------------------------------------------------*/
FoamFile
{
    version     2.0;
    format      ascii;
    class       volScalarField;
    location    "0.0009";
    object      ViscousDissipation;
}
// * * * * * * * * * * * * * * * * * * * * * * * * * * * * * * * * * * * * * //

dimensions      [1 -1 -3 0 0 0 0];

internalField   nonuniform List<scalar> 
9600
(
5.116164226e-20
4.869932444e-20
4.770501924e-20
4.796204395e-20
4.897005558e-20
5.035687959e-20
5.193119057e-20
5.361450715e-20
5.538808188e-20
5.726312783e-20
5.926429389e-20
6.142207473e-20
6.376833351e-20
6.63355954e-20
6.915556868e-20
7.226054958e-20
7.56818724e-20
7.945268824e-20
8.360613681e-20
8.81795358e-20
9.321172143e-20
9.874790671e-20
1.048356501e-19
1.115312526e-19
1.18896197e-19
1.270065384e-19
1.359488959e-19
1.458300808e-19
1.567701547e-19
1.689140596e-19
1.824295893e-19
1.975329478e-19
2.14500621e-19
2.337101784e-19
2.556600543e-19
2.810223071e-19
3.106822095e-19
3.458367728e-19
3.880969047e-19
4.396568993e-19
5.034337799e-19
5.832231822e-19
6.83741891e-19
8.106045461e-19
9.700401186e-19
1.168340781e-18
1.410773189e-18
1.700121497e-18
2.035078319e-18
2.40974984e-18
2.816075964e-18
3.252593988e-18
3.743464923e-18
4.372816647e-18
5.338461601e-18
7.028586404e-18
1.011979021e-17
1.568300154e-17
2.52622217e-17
4.096055942e-17
6.619880327e-17
1.100762498e-16
2.008992068e-16
3.949158508e-16
6.934442567e-16
1.139190038e-15
3.310346276e-16
6.072051238e-16
1.320521684e-15
1.892215642e-15
2.520497171e-15
3.957255732e-15
1.370803023e-15
4.588564523e-16
2.636129374e-17
4.151187279e-17
1.329788441e-16
2.327232131e-16
3.290993767e-16
4.07575232e-16
4.527983845e-16
4.619875723e-16
4.446062348e-16
4.097452004e-16
3.632561804e-16
3.116729229e-16
2.620610738e-16
2.203327103e-16
1.905737042e-16
1.753847355e-16
1.764525307e-16
1.948793424e-16
2.310418509e-16
2.839694404e-16
3.503305965e-16
4.235379642e-16
4.940118248e-16
5.511657951e-16
5.843714862e-16
5.792800957e-16
5.217584141e-16
4.155171097e-16
2.841686119e-16
1.520782766e-16
4.594295776e-17
5.895941582e-17
5.578097696e-16
1.319459393e-15
3.4450791e-15
2.321689303e-15
1.85202367e-15
2.037131553e-15
3.093244775e-16
1.885823207e-15
3.018009918e-15
1.316633739e-15
1.180517374e-15
1.939017202e-15
4.032063903e-15
1.495181207e-15
4.769945453e-20
4.372445718e-20
4.245915781e-20
4.303148265e-20
4.43394913e-20
4.591146354e-20
4.756921077e-20
4.926369558e-20
5.099743469e-20
5.279649369e-20
5.469283467e-20
5.672254924e-20
5.891843832e-20
6.131480789e-20
6.394117735e-20
6.682934876e-20
7.000620148e-20
7.350262386e-20
7.734526796e-20
8.15674501e-20
8.61990126e-20
9.127845197e-20
9.684061419e-20
1.029311934e-19
1.095939512e-19
1.168883207e-19
1.248742888e-19
1.336300897e-19
1.432329483e-19
1.537803567e-19
1.653754569e-19
1.781622415e-19
1.923202355e-19
2.081090007e-19
2.25861979e-19
2.46037102e-19
2.692253697e-19
2.962415656e-19
3.281790907e-19
3.665380623e-19
4.132678431e-19
4.708253457e-19
5.420765847e-19
6.301408659e-19
7.379460287e-19
8.675312548e-19
1.018861344e-18
1.188435759e-18
1.368084706e-18
1.545395802e-18
1.707948847e-18
1.855288861e-18
2.023883894e-18
2.332227165e-18
3.054266897e-18
4.730441082e-18
8.324201004e-18
1.54259032e-17
2.849919036e-17
5.1219649e-17
8.928812964e-17
1.528603968e-16
2.608174001e-16
4.346162479e-16
6.32241468e-16
5.859767939e-16
-1.119062894e-18
1.003480968e-15
3.579163069e-16
1.19896719e-15
1.360232004e-14
3.963734412e-14
1.163577629e-14
3.303158224e-15
2.184748802e-16
1.312469703e-16
2.669567711e-16
4.203370803e-16
5.941469606e-16
7.37376166e-16
7.993453156e-16
7.802792452e-16
7.202506016e-16
6.399326528e-16
5.425372932e-16
4.384568247e-16
3.415341148e-16
2.622623354e-16
2.065010511e-16
1.771286018e-16
1.758606149e-16
2.042867796e-16
2.637859812e-16
3.54216371e-16
4.713183991e-16
6.039040247e-16
7.341698448e-16
8.455107917e-16
9.284940874e-16
9.54949866e-16
8.746854313e-16
6.878657778e-16
4.62395736e-16
2.596426975e-16
9.20932251e-17
2.233723619e-16
3.560247756e-15
1.159093246e-14
3.809218095e-14
1.364966924e-14
2.053022718e-15
1.060839309e-16
4.812328652e-16
1.133631763e-15
1.849647908e-15
1.77905861e-15
1.5800879e-15
1.73846596e-15
2.717618524e-15
9.856434791e-16
5.79227258e-20
3.985575524e-20
3.751276595e-20
3.841450799e-20
4.001535456e-20
4.174018383e-20
4.345181247e-20
4.513624973e-20
4.681865826e-20
4.853580072e-20
5.032755634e-20
5.223173702e-20
5.42843607e-20
5.651769992e-20
5.89624675e-20
6.164600272e-20
6.459514881e-20
6.783423542e-20
7.138895244e-20
7.528381993e-20
7.954630922e-20
8.420307311e-20
8.928429688e-20
9.481977372e-20
1.008449731e-19
1.073968966e-19
1.145198519e-19
1.222582954e-19
1.306616549e-19
1.397784754e-19
1.49669107e-19
1.604090513e-19
1.721104465e-19
1.849265078e-19
1.990711069e-19
2.148240603e-19
2.325678513e-19
2.52825054e-19
2.763300496e-19
3.040736212e-19
3.373320292e-19
3.776095218e-19
4.265104674e-19
4.854504833e-19
5.551676131e-19
6.348872379e-19
7.21167303e-19
8.066085549e-19
8.791913899e-19
9.236983206e-19
9.280127673e-19
8.98789446e-19
8.934449826e-19
1.078016739e-18
1.823379954e-18
3.854712185e-18
8.470184115e-18
1.784144915e-17
3.540266093e-17
6.634643456e-17
1.183112488e-16
2.022487149e-16
3.314714591e-16
5.082448359e-16
6.708658194e-16
6.150318686e-16
2.419153742e-16
4.947873522e-16
1.391491864e-15
6.306815492e-16
3.75846185e-14
2.585025952e-13
1.748747959e-13
3.336970136e-14
7.043649952e-15
1.065564955e-15
8.047604138e-16
8.61922081e-16
1.212394361e-15
1.508729148e-15
1.553615392e-15
1.392179468e-15
1.213285856e-15
1.045420285e-15
8.485852637e-16
6.406227059e-16
4.535933252e-16
3.066886979e-16
2.065288095e-16
1.538524506e-16
1.487519531e-16
1.933454905e-16
2.919718775e-16
4.484446933e-16
6.596332925e-16
9.060999544e-16
1.149189168e-15
1.360268506e-15
1.573053596e-15
1.752590924e-15
1.686053779e-15
1.321358964e-15
9.000668865e-16
7.753821753e-16
9.613065967e-16
6.861596418e-15
3.394032377e-14
1.737817811e-13
2.552293201e-13
3.520036661e-14
3.548632827e-16
2.460219552e-16
2.790038327e-16
9.943084862e-16
1.84598605e-15
1.909720073e-15
1.536363596e-15
1.275202964e-15
1.571161466e-15
5.888275085e-16
2.241353042e-20
2.810482076e-20
3.150471033e-20
3.388544168e-20
3.594129559e-20
3.781668479e-20
3.956335596e-20
4.122556754e-20
4.285063264e-20
4.448552636e-20
4.617518522e-20
4.795996721e-20
4.987673646e-20
5.195757977e-20
5.423203925e-20
5.672564099e-20
5.946255978e-20
6.24641568e-20
6.57521855e-20
6.934693218e-20
7.327022154e-20
7.75424906e-20
8.218575767e-20
8.722078046e-20
9.267096015e-20
9.8559079e-20
1.049100984e-19
1.117453168e-19
1.190845878e-19
1.269428474e-19
1.353395403e-19
1.443028802e-19
1.538842516e-19
1.641606942e-19
1.752454867e-19
1.872931e-19
2.0052772e-19
2.152774457e-19
2.320248625e-19
2.514295999e-19
2.743173112e-19
3.015927352e-19
3.340716099e-19
3.721635971e-19
4.153387088e-19
4.612903967e-19
5.048521672e-19
5.370070252e-19
5.448589004e-19
5.143427783e-19
4.388783463e-19
3.394856311e-19
3.04885872e-19
5.640576137e-19
1.607751941e-18
4.379609363e-18
1.055887933e-17
2.295235004e-17
4.599463104e-17
8.63115227e-17
1.531668957e-16
2.580977984e-16
4.110565269e-16
6.054441387e-16
7.814382807e-16
7.956365475e-16
5.770334104e-16
6.560528333e-16
1.682167859e-15
3.083112779e-15
2.250411148e-15
1.214286735e-13
5.324482289e-13
5.805948967e-13
1.435918265e-13
5.044170274e-15
2.25252759e-15
1.508183114e-15
2.785312803e-15
3.639467518e-15
3.433968473e-15
2.571552176e-15
2.081297107e-15
1.803933087e-15
1.419661751e-15
9.981851929e-16
6.349332832e-16
3.656297713e-16
1.910037444e-16
1.014738001e-16
9.052829394e-17
1.606603196e-16
3.241493695e-16
5.980067625e-16
9.893140095e-16
1.464892607e-15
1.917230717e-15
2.251170321e-15
2.783312597e-15
3.689693446e-15
3.889410529e-15
2.922483201e-15
1.549733868e-15
2.221447656e-15
4.891453762e-15
1.421582716e-13
5.759922178e-13
5.367314608e-13
1.232059142e-13
1.006907983e-15
9.143541574e-16
6.948711427e-16
8.823904658e-16
1.542813061e-15
2.007103931e-15
1.822428977e-15
1.265975116e-15
7.904951892e-16
7.656971406e-16
3.246891201e-16
1.776450946e-20
2.279170763e-20
2.678018658e-20
2.971624274e-20
3.207703672e-20
3.408575285e-20
3.586915894e-20
3.751260596e-20
3.908420487e-20
4.064182953e-20
4.223556201e-20
4.390866768e-20
4.569860445e-20
4.763770742e-20
4.97540713e-20
5.207199427e-20
5.461296101e-20
5.73961917e-20
6.043976611e-20
6.376082985e-20
6.737609995e-20
7.130124948e-20
7.555112166e-20
8.013923418e-20
8.507836624e-20
9.037942317e-20
9.605051449e-20
1.020938851e-19
1.085049202e-19
1.152721283e-19
1.223824122e-19
1.298270561e-19
1.376091184e-19
1.457463232e-19
1.542753603e-19
1.632604268e-19
1.72817206e-19
1.831473314e-19
1.945746106e-19
2.075564251e-19
2.226545166e-19
2.404441464e-19
2.613421178e-19
2.852951704e-19
3.112592216e-19
3.364263999e-19
3.55328064e-19
3.592559311e-19
3.370433291e-19
2.792461906e-19
1.895238718e-19
1.097098486e-19
1.689462246e-19
6.720709731e-19
2.247978221e-18
6.083334343e-18
1.426796164e-17
3.02678503e-17
5.950607044e-17
1.099366764e-16
1.922562599e-16
3.18791564e-16
4.987022625e-16
7.251813109e-16
9.530601526e-16
1.090525388e-15
1.087197229e-15
1.179218148e-15
1.748610337e-15
3.296987711e-15
4.37233025e-15
9.172333658e-16
2.055118721e-15
2.49248214e-13
8.400371444e-13
1.709591752e-13
3.455753382e-15
1.232956113e-15
8.887344657e-15
1.146930839e-14
9.47869824e-15
4.552544831e-15
3.410274296e-15
3.367168621e-15
2.622091562e-15
1.717225866e-15
9.872918915e-16
4.888669745e-16
1.888108233e-16
4.240011762e-17
2.325934671e-17
1.335342687e-16
4.057602413e-16
8.961424299e-16
1.655642059e-15
2.642492237e-15
3.501889505e-15
3.605848862e-15
4.744180575e-15
9.742072438e-15
1.185854753e-14
9.092774204e-15
1.259688093e-15
3.418266143e-15
1.698055748e-13
8.339432289e-13
2.447542947e-13
2.056121013e-15
1.927097567e-16
1.567386119e-15
2.670147896e-15
2.18510388e-15
2.097988083e-15
2.157880525e-15
2.036880021e-15
1.567883898e-15
9.286015182e-16
4.148939068e-16
3.087624282e-16
1.801096818e-16
1.3327225e-20
1.834360014e-20
2.258060253e-20
2.584836919e-20
2.842911767e-20
3.054894995e-20
3.236671711e-20
3.399466617e-20
3.551804437e-20
3.700452326e-20
3.850960545e-20
4.007919293e-20
4.175186849e-20
4.355983877e-20
4.553041114e-20
4.768642169e-20
5.004761717e-20
5.263100932e-20
5.545221956e-20
5.852532525e-20
6.186350716e-20
6.547799632e-20
6.937842654e-20
7.35717149e-20
7.806242114e-20
8.285077525e-20
8.793160804e-20
9.329095923e-20
9.890552607e-20
1.047424503e-19
1.107640435e-19
1.16931664e-19
1.232108653e-19
1.295722295e-19
1.359959659e-19
1.424820782e-19
1.49076061e-19
1.559016375e-19
1.631916933e-19
1.712944341e-19
1.806456881e-19
1.916906246e-19
2.047331676e-19
2.196559935e-19
2.354556803e-19
2.495968976e-19
2.573795129e-19
2.518658161e-19
2.255590463e-19
1.761935094e-19
1.210055617e-19
1.270492892e-19
3.696350857e-19
1.23682764e-18
3.504378267e-18
8.610600275e-18
1.905946248e-17
3.89629607e-17
7.468072891e-17
1.353876761e-16
2.331250623e-16
3.813566342e-16
5.902193658e-16
8.562576216e-16
1.147861254e-15
1.401376901e-15
1.562316024e-15
1.673692851e-15
1.786018816e-15
1.664258151e-15
7.711561013e-16
4.519398111e-15
6.542692072e-15
5.648464697e-15
2.891087431e-13
4.710417451e-13
6.27343947e-14
2.013850122e-14
6.77766334e-14
5.520013363e-14
4.150569908e-14
6.09920387e-15
4.536098697e-15
7.438104951e-15
5.606580169e-15
3.380975588e-15
1.789925522e-15
8.231389732e-16
3.003726897e-16
6.459080461e-17
3.518331408e-17
2.121482714e-16
6.793289414e-16
1.608772957e-15
3.219304584e-15
5.585136483e-15
7.684735867e-15
4.817815643e-15
5.997639557e-15
4.112704453e-14
5.574567356e-14
6.816800537e-14
1.982913702e-14
6.176750058e-14
4.736521065e-13
2.849403886e-13
3.817092217e-15
3.671969817e-15
2.507121005e-15
2.739177185e-16
1.742487509e-15
2.377351023e-15
2.42090627e-15
2.199612081e-15
1.7823758e-15
1.209988907e-15
6.250394085e-16
1.948450025e-16
1.470392039e-16
1.265680579e-16
1.090386148e-20
1.522508754e-20
1.922203049e-20
2.24827937e-20
2.511196016e-20
2.72654497e-20
2.908545401e-20
3.068649077e-20
3.215967074e-20
3.357778248e-20
3.499959565e-20
3.647295593e-20
3.803701714e-20
3.97239589e-20
4.156021673e-20
4.356760386e-20
4.576429253e-20
4.816579141e-20
5.07856422e-20
5.363577792e-20
5.672638761e-20
6.006549228e-20
6.365836254e-20
6.750689881e-20
7.160872381e-20
7.595567385e-20
8.053161471e-20
8.531015035e-20
9.025327181e-20
9.531205944e-20
1.004293584e-19
1.055430566e-19
1.105882991e-19
1.154989734e-19
1.202126186e-19
1.246847562e-19
1.289155716e-19
1.329834888e-19
1.370732877e-19
1.414857204e-19
1.466208811e-19
1.52925218e-19
1.607749245e-19
1.702468176e-19
1.807400306e-19
1.90498375e-19
1.962872343e-19
1.938575501e-19
1.805435715e-19
1.626541844e-19
1.726073531e-19
3.043429546e-19
7.807045625e-19
2.073094664e-18
5.100960672e-18
1.154365606e-17
2.429379027e-17
4.805708397e-17
9.003784552e-17
1.605048846e-16
2.727595975e-16
4.415917003e-16
6.788269282e-16
9.847121337e-16
1.336473664e-15
1.682262687e-15
1.954397328e-15
2.095634138e-15
2.022182678e-15
1.560596676e-15
8.204429844e-16
3.039707738e-15
1.590303397e-14
1.335834528e-14
4.664036438e-15
2.585804251e-15
1.790963078e-14
7.879541923e-14
7.223186701e-13
4.414617452e-13
3.56930887e-13
2.234082503e-14
6.392602015e-15
2.618141501e-14
1.482358903e-14
7.861733628e-15
3.782896792e-15
1.710912381e-15
7.507681094e-16
3.625696754e-16
3.224092455e-16
6.249045505e-16
1.486496951e-15
3.456528857e-15
7.497744392e-15
1.471670392e-14
2.70866539e-14
7.331307401e-15
2.063674193e-14
3.495938209e-13
4.396453505e-13
7.199175851e-13
8.19681642e-14
1.894830262e-14
1.75204247e-15
2.419703933e-15
7.739637796e-15
1.199479248e-14
1.881104645e-15
4.017097881e-16
1.440434081e-15
2.106109799e-15
2.151723661e-15
1.851720292e-15
1.386606911e-15
8.700323677e-16
4.222480943e-16
1.274166818e-16
1.92463691e-16
1.326860664e-16
9.312218545e-21
1.297557145e-20
1.656768174e-20
1.963123459e-20
2.217108578e-20
2.427532763e-20
2.60528723e-20
2.76050545e-20
2.901903451e-20
3.036705464e-20
3.170823573e-20
3.30906706e-20
3.4553448e-20
3.612823904e-20
3.784070088e-20
3.971164316e-20
4.175816312e-20
4.399453001e-20
4.643290524e-20
4.908348985e-20
5.195443582e-20
5.505121148e-20
5.837599822e-20
6.19266679e-20
6.569566089e-20
6.966808955e-20
7.381963688e-20
7.811431676e-20
8.250338241e-20
8.692555618e-20
9.130875409e-20
9.557167492e-20
9.962494525e-20
1.033727955e-19
1.067202669e-19
1.095904522e-19
1.11953182e-19
1.138586632e-19
1.154665544e-19
1.170625507e-19
1.190595892e-19
1.219739989e-19
1.263495527e-19
1.325886502e-19
1.406775837e-19
1.498941072e-19
1.587982607e-19
1.662117485e-19
1.746676332e-19
1.992693861e-19
2.874063816e-19
5.587126513e-19
1.280278498e-18
2.999358991e-18
6.763522383e-18
1.446301184e-17
2.932456998e-17
5.655685211e-17
1.040726923e-16
1.830615866e-16
3.07923613e-16
4.947110995e-16
7.569096745e-16
1.097625586e-15
1.498978805e-15
1.91315751e-15
2.261988265e-15
2.444517888e-15
2.337810139e-15
1.835824509e-15
1.13872222e-15
1.654364123e-15
5.490816187e-15
6.639941048e-15
1.02031563e-14
1.50276938e-14
8.058117432e-15
3.108981456e-15
8.535337874e-13
8.114478735e-13
4.803359695e-13
9.029197179e-14
1.234456811e-13
2.09510417e-13
5.451211882e-14
2.20762513e-14
8.673841893e-15
3.73372769e-15
1.864591016e-15
1.193968898e-15
1.145715398e-15
1.705234732e-15
3.417090442e-15
8.125187002e-15
2.126507191e-14
5.397969903e-14
2.143569059e-13
1.29466316e-13
8.329300116e-14
4.728909982e-13
7.926310933e-13
8.545553088e-13
2.257911545e-15
5.271676968e-15
9.261932077e-15
5.373286502e-15
4.090473239e-15
3.867433407e-15
9.806162145e-16
6.661140798e-16
1.361958711e-15
1.788897944e-15
1.746726548e-15
1.422579498e-15
1.004592927e-15
6.141220935e-16
3.225213583e-16
1.610238346e-16
3.352727089e-16
1.661043162e-16
8.12271002e-21
1.125265716e-20
1.442915844e-20
1.72203959e-20
1.959088111e-20
2.158452548e-20
2.327950362e-20
2.475943872e-20
2.610228452e-20
2.737575325e-20
2.863663597e-20
2.993170029e-20
3.129898901e-20
3.276923175e-20
3.436716626e-20
3.611273614e-20
3.802217223e-20
4.010889268e-20
4.238407143e-20
4.485677803e-20
4.753373093e-20
5.041872271e-20
5.351175092e-20
5.68079014e-20
6.029581857e-20
6.395581011e-20
6.775765105e-20
7.165862598e-20
7.560228409e-20
7.951830002e-20
8.332288601e-20
8.691914319e-20
9.019730577e-20
9.303726847e-20
9.531775263e-20
9.693609228e-20
9.783789486e-20
9.805088205e-20
9.77159737e-20
9.711305395e-20
9.668096227e-20
9.702274761e-20
9.887022724e-20
1.029775789e-19
1.099522373e-19
1.201400527e-19
1.33900274e-19
1.530289447e-19
1.849241909e-19
2.526484323e-19
4.167229941e-19
8.186693803e-19
1.762266861e-18
3.856088041e-18
8.248870539e-18
1.699388483e-17
3.357168718e-17
6.356803284e-17
1.154235173e-16
2.010152036e-16
3.355771494e-16
5.36141025e-16
8.174319353e-16
1.184359982e-15
1.621461114e-15
2.082031564e-15
2.481984204e-15
2.703499216e-15
2.615521947e-15
2.142865045e-15
1.440792353e-15
1.112325579e-15
1.826168437e-15
2.429879207e-15
3.861853718e-15
8.945114468e-15
1.507452429e-14
2.058017815e-14
1.950533293e-14
1.515268783e-14
1.496023763e-14
7.540157702e-13
7.296126933e-13
3.988329748e-13
4.413035196e-13
6.786960877e-14
1.872713095e-14
7.328779722e-15
3.752413825e-15
2.587506392e-15
2.536742409e-15
3.574386473e-15
6.927775411e-15
1.787192788e-14
6.606656133e-14
4.376787176e-13
3.955094059e-13
7.012605573e-13
7.5118164e-13
1.449858838e-14
1.373200041e-14
1.598310561e-14
1.448424576e-14
9.77350591e-15
5.754096311e-15
2.126570111e-15
1.526248599e-15
1.209858428e-15
6.269565046e-16
8.274305704e-16
1.299879844e-15
1.525964303e-15
1.404459781e-15
1.080209881e-15
7.341198618e-16
4.576423808e-16
2.92243179e-16
2.358865803e-16
4.933828147e-16
2.027865023e-16
7.156917407e-21
9.858306157e-21
1.265641783e-20
1.516124072e-20
1.732750227e-20
1.917499145e-20
2.075950612e-20
2.214845309e-20
2.340929372e-20
2.460327288e-20
2.57832028e-20
2.699324631e-20
2.826964578e-20
2.964176933e-20
3.113329498e-20
3.276333227e-20
3.454746331e-20
3.649852725e-20
3.862707071e-20
4.094148133e-20
4.344767458e-20
4.614848582e-20
4.904268467e-20
5.212364874e-20
5.537766719e-20
5.878196825e-20
6.230260791e-20
6.589258972e-20
6.94904856e-20
7.301955342e-20
7.638704798e-20
7.948331025e-20
8.218155438e-20
8.434104559e-20
8.581792739e-20
8.648625548e-20
8.626769886e-20
8.516489756e-20
8.329485995e-20
8.092346796e-20
7.850246921e-20
7.669992372e-20
7.640089108e-20
7.865808193e-20
8.461715983e-20
9.555262527e-20
1.133698315e-19
1.423669364e-19
1.939206958e-19
2.973873e-19
5.232817627e-19
1.02910464e-18
2.144285958e-18
4.518478888e-18
9.365544541e-18
1.884017103e-17
3.657662482e-17
6.838482353e-17
1.230151521e-16
2.127441405e-16
3.532827245e-16
5.622020716e-16
8.548549509e-16
1.236952535e-15
1.693930309e-15
2.179154853e-15
2.605520811e-15
2.848172785e-15
2.772696988e-15
2.312558415e-15
1.590852379e-15
9.451517546e-16
6.66787572e-16
6.090339245e-16
5.531624929e-16
1.24235659e-15
2.633738686e-15
7.784611774e-15
1.747127726e-14
1.145123678e-14
3.668091303e-14
1.686897243e-14
6.825084438e-16
1.047211548e-15
5.066418117e-16
1.465462084e-13
3.426488654e-14
1.164802278e-14
5.627981224e-15
3.861306755e-15
3.81216418e-15
5.446227142e-15
1.118739089e-14
3.304656435e-14
1.427862461e-13
4.987086356e-16
1.027185446e-15
6.725466993e-16
1.606142569e-14
3.370694565e-14
1.075287087e-14
1.6412504e-14
7.051624357e-15
1.99161208e-15
7.745789527e-16
3.075958124e-16
4.280169343e-16
4.161153815e-16
5.217813634e-16
8.670906877e-16
1.224020476e-15
1.344906984e-15
1.180682041e-15
8.728605779e-16
5.768582356e-16
3.770371873e-16
2.885124875e-16
2.979016998e-16
5.977985154e-16
2.286026356e-16
6.333440633e-21
8.682713887e-21
1.114717439e-20
1.337793749e-20
1.533225113e-20
1.701816236e-20
1.847684569e-20
1.976290143e-20
2.09341116e-20
2.204486618e-20
2.314325352e-20
2.427016417e-20
2.545952042e-20
2.673903758e-20
2.813122589e-20
2.965443547e-20
3.132371517e-20
3.315152744e-20
3.514811643e-20
3.732158525e-20
3.967760463e-20
4.221874966e-20
4.494342047e-20
4.784434646e-20
5.090678915e-20
5.410655207e-20
5.740797273e-20
6.07620357e-20
6.4104672e-20
6.73551216e-20
7.041410597e-20
7.316188735e-20
7.545758547e-20
7.714284272e-20
7.80533991e-20
7.804022832e-20
7.699803953e-20
7.489736143e-20
7.181943544e-20
6.799765171e-20
6.386768156e-20
6.011742157e-20
5.771644952e-20
5.791241913e-20
6.222980534e-20
7.26158231e-20
9.209685874e-20
1.267505189e-19
1.906799242e-19
3.173160143e-19
5.831546037e-19
1.154335404e-18
2.372555914e-18
4.904559351e-18
9.987604387e-18
1.98079928e-17
3.804235413e-17
7.05563343e-17
1.261697538e-16
2.172347805e-16
3.595219708e-16
5.706074042e-16
8.657563613e-16
1.250506073e-15
1.710096933e-15
2.197613163e-15
2.624779911e-15
2.862609697e-15
2.768366754e-15
2.270752356e-15
1.51454052e-15
8.957026653e-16
7.381690035e-16
7.939703203e-16
7.461652609e-16
1.349541938e-15
2.606277547e-15
7.476128238e-15
1.7060655e-14
1.15656183e-14
3.66551834e-14
1.689867081e-14
6.839086087e-16
1.047268385e-15
5.067250714e-16
1.465746561e-13
3.426801109e-14
1.164601642e-14
5.625161002e-15
3.858624163e-15
3.809958316e-15
5.445058106e-15
1.118917444e-14
3.30583143e-14
1.428365347e-13
4.988137852e-16
1.027281151e-15
6.738271642e-16
1.598079756e-14
3.37231674e-14
1.098514756e-14
1.586161126e-14
6.519957773e-15
1.747804971e-15
7.65873614e-16
4.603609125e-16
5.755320059e-16
5.13811125e-16
5.39159567e-16
8.22881682e-16
1.14660374e-15
1.258756077e-15
1.103139217e-15
8.119728034e-16
5.352331603e-16
3.575896092e-16
2.911333143e-16
3.088094747e-16
6.182955991e-16
2.336804719e-16
5.611254624e-21
7.663713854e-21
9.835199447e-21
1.181339168e-20
1.356203831e-20
1.50840166e-20
1.641130747e-20
1.758900654e-20
1.866673139e-20
1.969246765e-20
2.070951227e-20
2.175523621e-20
2.286100843e-20
2.405277628e-20
2.535186296e-20
2.677587534e-20
2.833945475e-20
3.005483955e-20
3.193222595e-20
3.397980776e-20
3.620352632e-20
3.860635121e-20
4.118709646e-20
4.393882644e-20
4.684701447e-20
4.988761779e-20
5.302511182e-20
5.621054875e-20
5.937942413e-20
6.244925361e-20
6.531667105e-20
6.785460885e-20
6.991114423e-20
7.131320804e-20
7.187804391e-20
7.143319133e-20
6.984269136e-20
6.703699486e-20
6.304810058e-20
5.805539833e-20
5.244451871e-20
4.68703777e-20
4.230634108e-20
4.007180246e-20
4.187795888e-20
5.003728355e-20
6.819481226e-20
1.033730401e-19
1.709843425e-19
3.060622761e-19
5.866659475e-19
1.179589619e-18
2.424434468e-18
4.979701255e-18
1.00626685e-17
1.98197107e-17
3.785671121e-17
6.992462204e-17
1.246690584e-16
2.141876133e-16
3.538789534e-16
5.607559227e-16
8.492088489e-16
1.223515613e-15
1.667587664e-15
2.134239419e-15
2.537037148e-15
2.747220955e-15
2.608435475e-15
2.029214047e-15
1.233795005e-15
1.004600441e-15
2.076656641e-15
2.928282042e-15
4.228551328e-15
9.020411278e-15
1.514310549e-14
2.011188033e-14
1.907775756e-14
1.518352664e-14
1.508107556e-14
7.554900072e-13
7.300566043e-13
3.994206248e-13
4.416782363e-13
6.794303008e-14
1.873819893e-14
7.32552454e-15
3.74608549e-15
2.581099418e-15
2.531525693e-15
3.572028223e-15
6.932851293e-15
1.789919392e-14
6.616789549e-14
4.380872254e-13
3.960824756e-13
7.017148055e-13
7.525317789e-13
1.443356654e-14
1.369059934e-14
1.524161001e-14
1.38577671e-14
9.588305749e-15
5.744233863e-15
2.549787575e-15
1.959571952e-15
1.506924246e-15
6.926173349e-16
7.184269881e-16
1.088532999e-15
1.279565085e-15
1.170887116e-15
8.961860485e-16
6.063052128e-16
3.928765248e-16
2.79442057e-16
2.649510217e-16
5.465941089e-16
2.164473033e-16
4.967811401e-21
6.764777512e-21
8.677796268e-21
1.042663683e-20
1.198222655e-20
1.334543202e-20
1.454240635e-20
1.561127426e-20
1.659500757e-20
1.753594101e-20
1.847285303e-20
1.943966621e-20
2.046521171e-20
2.157365187e-20
2.278516444e-20
2.411665481e-20
2.558242534e-20
2.719464432e-20
2.896367486e-20
3.089816565e-20
3.300478199e-20
3.528746971e-20
3.774617701e-20
4.037520664e-20
4.316141047e-20
4.608235562e-20
4.91044356e-20
5.21807619e-20
5.524855987e-20
5.822596708e-20
6.100824169e-20
6.346411982e-20
6.543419805e-20
6.673418204e-20
6.71654381e-20
6.653283019e-20
6.46677642e-20
6.145514259e-20
5.686755091e-20
5.101307041e-20
4.419889083e-20
3.700170738e-20
3.032780493e-20
2.545672035e-20
2.410746929e-20
2.866597067e-20
4.291448048e-20
7.401497139e-20
1.373124459e-19
2.670284703e-19
5.384651073e-19
1.111297744e-18
2.309186682e-18
4.758243638e-18
9.614837134e-18
1.891826229e-17
3.609768461e-17
6.662983349e-17
1.187596852e-16
2.040280726e-16
3.370716797e-16
5.338074751e-16
8.069095915e-16
1.157991318e-15
1.567830608e-15
1.988804693e-15
2.342707534e-15
2.515689327e-15
2.342367137e-15
1.682884453e-15
8.716349954e-16
1.607307014e-15
5.912881254e-15
7.153965357e-15
1.04625132e-14
1.462084557e-14
7.986329463e-15
2.994763928e-15
8.530637825e-13
8.098105084e-13
4.806274959e-13
9.038142054e-14
1.232897339e-13
2.097263961e-13
5.464021443e-14
2.212509264e-14
8.686028281e-15
3.732050155e-15
1.858414337e-15
1.187093813e-15
1.14026836e-15
1.703591167e-15
3.423804377e-15
8.150172442e-15
2.132835108e-14
5.410798284e-14
2.145035187e-13
1.292989906e-13
8.336544821e-14
4.730784832e-13
7.911680492e-13
8.542756004e-13
2.019666237e-15
4.831442378e-15
8.67467293e-15
5.992139677e-15
4.540202123e-15
4.279865533e-15
1.112853972e-15
5.547192083e-16
1.047626827e-15
1.393410703e-15
1.364594503e-15
1.109803526e-15
7.897243665e-16
4.962241032e-16
2.845356565e-16
1.886627528e-16
4.070402996e-16
1.839902671e-16
4.389700876e-21
5.963374629e-21
7.64694373e-21
9.188641797e-21
1.05660815e-20
1.177955326e-20
1.285134288e-20
1.381433448e-20
1.470610522e-20
1.556411974e-20
1.642308259e-20
1.731369739e-20
1.826239132e-20
1.92916318e-20
2.04204997e-20
2.166526652e-20
2.303995024e-20
2.455677113e-20
2.622648011e-20
2.805848756e-20
3.006061156e-20
3.223827208e-20
3.459317864e-20
3.712168282e-20
3.981309025e-20
4.264797719e-20
4.559635528e-20
4.861534125e-20
5.164610599e-20
5.460995409e-20
5.740383315e-20
5.989602483e-20
6.19240176e-20
6.329695804e-20
6.380461281e-20
6.323243643e-20
6.138098825e-20
5.808966006e-20
5.326919485e-20
4.69499688e-20
3.934776765e-20
3.093751294e-20
2.251769421e-20
1.525809661e-20
1.07646014e-20
1.128665056e-20
2.037896795e-20
4.470522659e-20
9.841139823e-20
2.128667814e-19
4.569115606e-19
9.764175311e-19
2.06723422e-18
4.302460044e-18
8.742548301e-18
1.726193399e-17
3.30211782e-17
6.108470961e-17
1.091052842e-16
1.878249515e-16
3.108282498e-16
4.925339806e-16
7.430917097e-16
1.059550062e-15
1.416046385e-15
1.762164489e-15
2.038169762e-15
2.183221945e-15
2.055572227e-15
1.411923515e-15
6.174239184e-16
3.201124553e-15
1.619059357e-14
1.388817659e-14
5.033322396e-15
2.610442397e-15
1.798762169e-14
7.918310658e-14
7.215441456e-13
4.410955367e-13
3.568186892e-13
2.233564151e-14
6.400529369e-15
2.625630791e-14
1.488463793e-14
7.894502485e-15
3.795047821e-15
1.712033213e-15
7.471124661e-16
3.577334616e-16
3.188626413e-16
6.251600331e-16
1.494073323e-15
3.476614062e-15
7.535861963e-15
1.477228283e-14
2.71368108e-14
7.326018437e-15
2.063948589e-14
3.494198285e-13
4.392673139e-13
7.193606924e-13
8.231255153e-14
1.906279688e-14
1.626878468e-15
2.856764448e-15
8.308331835e-15
1.226560098e-14
1.964324604e-15
3.560175041e-16
1.080676547e-15
1.599148125e-15
1.649697963e-15
1.426774039e-15
1.073716245e-15
6.854580117e-16
3.432891695e-16
1.289603666e-16
2.521484921e-16
1.479942017e-16
3.868265809e-21
5.244788931e-21
6.723646357e-21
8.078601306e-21
9.293179906e-21
1.036768006e-20
1.132162942e-20
1.218382332e-20
1.298739577e-20
1.376562647e-20
1.454960499e-20
1.536711433e-20
1.6242385e-20
1.719631662e-20
1.824695806e-20
1.940999844e-20
2.069923793e-20
2.212705489e-20
2.370478649e-20
2.544289439e-20
2.735068576e-20
2.943547433e-20
3.170125567e-20
3.414715392e-20
3.676592625e-20
3.954248635e-20
4.245209551e-20
4.545782219e-20
4.850706038e-20
5.152708313e-20
5.442003507e-20
5.705823639e-20
5.928149262e-20
6.08986056e-20
6.169437351e-20
6.144172922e-20
5.991766272e-20
5.692406729e-20
5.231896191e-20
4.606517238e-20
3.829784673e-20
2.940054114e-20
2.007159867e-20
1.137012114e-20
4.766957396e-21
2.307756919e-21
7.160653088e-21
2.515169955e-20
6.853857954e-20
1.644822961e-19
3.727735987e-19
8.20687919e-19
1.767623197e-18
3.718398179e-18
7.611048536e-18
1.511019212e-17
2.903478356e-17
5.392700913e-17
9.670006486e-17
1.671316947e-16
2.776105618e-16
4.409293938e-16
6.642541275e-16
9.379284296e-16
1.223173649e-15
1.457714725e-15
1.610151941e-15
1.752782103e-15
1.877494614e-15
1.577867611e-15
7.342731187e-16
4.517867295e-15
7.100259737e-15
6.141719204e-15
2.885462463e-13
4.714342012e-13
6.26330616e-14
2.013981562e-14
6.766839606e-14
5.512351838e-14
4.151894173e-14
6.125736986e-15
4.55981616e-15
7.476036305e-15
5.642108514e-15
3.404651179e-15
1.801786355e-15
8.269435952e-16
2.999240872e-16
6.279906219e-17
3.437178268e-17
2.145145168e-16
6.872822036e-16
1.624658711e-15
3.243853307e-15
5.614435786e-15
7.708390406e-15
4.827313443e-15
6.008143011e-15
4.110439611e-14
5.56583995e-14
6.810406305e-14
1.982386221e-14
6.169571295e-14
4.738918328e-13
2.844741088e-13
4.266361272e-15
3.949800548e-15
2.551390433e-15
3.274556051e-16
1.400842868e-15
1.867718432e-15
1.885822878e-15
1.724488709e-15
1.408174029e-15
9.617960138e-16
4.994643564e-16
1.488438932e-16
1.580118996e-16
1.28298523e-16
3.397435762e-21
4.598824794e-21
5.894458712e-21
7.081217361e-21
8.147755943e-21
9.094574615e-21
9.939071766e-21
1.070672531e-20
1.142692439e-20
1.212932168e-20
1.284182827e-20
1.35896256e-20
1.439493644e-20
1.527723706e-20
1.625361463e-20
1.733920693e-20
1.8547664e-20
1.989163936e-20
2.138322736e-20
2.303416175e-20
2.485550331e-20
2.685677818e-20
2.904469065e-20
3.142177295e-20
3.398516363e-20
3.672535388e-20
3.962442008e-20
4.265330179e-20
4.576798367e-20
4.890473916e-20
5.19749143e-20
5.486009127e-20
5.740903746e-20
5.943822205e-20
6.073696139e-20
6.107689839e-20
6.022535026e-20
5.79646137e-20
5.412351041e-20
4.862841278e-20
4.157486481e-20
3.330917352e-20