/*--------------------------------*- C++ -*----------------------------------*\
  =========                 |
  \\      /  F ield         | OpenFOAM: The Open Source CFD Toolbox
   \\    /   O peration     | Website:  https://openfoam.org
    \\  /    A nd           | Version:  6
     \\/     M anipulation  |
\*---------------------------------------------------------------------------*/
FoamFile
{
    version     2.0;
    format      ascii;
    class       volVectorField;
    location    "0.0023";
    object      gradT;
}
// * * * * * * * * * * * * * * * * * * * * * * * * * * * * * * * * * * * * * //

dimensions      [0 -1 0 1 0 0 0];

internalField   nonuniform List<vector> 
9600
(
(0 9.845487246e-06 0.0001704988347)
(0 2.87322057e-05 0.0001673885398)
(0 4.641443987e-05 0.0001615376498)
(0 6.224040311e-05 0.0001535522469)
(0 7.589373144e-05 0.0001440955564)
(0 8.730961318e-05 0.0001338231559)
(0 9.657572991e-05 0.0001232458322)
(0 0.0001038864773 0.0001127561832)
(0 0.0001094705357 0.0001026210039)
(0 0.0001135756808 9.300040391e-05)
(0 0.000116422989 8.400491925e-05)
(0 0.0001182258916 7.567265129e-05)
(0 0.0001191483104 6.802648505e-05)
(0 0.0001193465233 6.10397376e-05)
(0 0.000118957728 5.467046983e-05)
(0 0.0001180429324 4.890344613e-05)
(0 0.0001167355441 4.368149075e-05)
(0 0.0001150927168 3.896647933e-05)
(0 0.0001131754577 3.470505667e-05)
(0 0.0001110295065 3.088578705e-05)
(0 0.0001087005828 2.744005524e-05)
(0 0.0001062268231 2.434499692e-05)
(0 0.0001036387202 2.156630669e-05)
(0 0.0001009705603 1.906967584e-05)
(0 9.823379686e-05 1.68436733e-05)
(0 9.543605283e-05 1.48425589e-05)
(0 9.262305074e-05 1.304727172e-05)
(0 8.979861944e-05 1.144637948e-05)
(0 8.695132347e-05 1.000557707e-05)
(0 8.413451025e-05 8.728674329e-06)
(0 8.132913719e-05 7.585179876e-06)
(0 7.854663873e-05 6.571281855e-06)
(0 7.579843568e-05 5.660297546e-06)
(0 7.309216548e-05 4.85603978e-06)
(0 7.041639268e-05 4.139450171e-06)
(0 6.78092211e-05 3.506716324e-06)
(0 6.524017023e-05 2.946404042e-06)
(0 6.272829784e-05 2.450889926e-06)
(0 6.027359265e-05 2.016361887e-06)
(0 5.789131254e-05 1.623762124e-06)
(0 5.555477554e-05 1.284525513e-06)
(0 5.327540659e-05 9.910285265e-07)
(0 5.107227395e-05 7.394597467e-07)
(0 4.891869566e-05 5.107608866e-07)
(0 4.684134447e-05 3.087435025e-07)
(0 4.482498258e-05 1.448426308e-07)
(0 4.286579799e-05 -7.623296815e-09)
(0 4.097902957e-05 -1.295960381e-07)
(0 3.91456268e-05 -2.363221871e-07)
(0 3.738083593e-05 -3.239901146e-07)
(0 3.56808386e-05 -3.964114106e-07)
(0 3.402658329e-05 -4.573977815e-07)
(0 3.243712795e-05 -5.14572535e-07)
(0 3.091627838e-05 -5.526889859e-07)
(0 2.944117053e-05 -5.793705232e-07)
(0 2.803086239e-05 -6.022404484e-07)
(0 2.667391396e-05 -6.17487005e-07)
(0 2.535889533e-05 -6.289219495e-07)
(0 2.410105288e-05 -6.289219872e-07)
(0 2.290038226e-05 -6.40356894e-07)
(0 2.174926451e-05 -6.289219495e-07)
(0 2.064007613e-05 -6.251103388e-07)
(0 1.958424834e-05 -6.17487005e-07)
(0 1.856653828e-05 -5.984287641e-07)
(0 1.759456905e-05 -5.908055032e-07)
(0 1.667214913e-05 -5.793705232e-07)
(0 1.578022346e-05 -5.641239305e-07)
(0 1.492260352e-05 -5.412540739e-07)
(0 1.412596815e-05 -5.221958005e-07)
(0 1.335982687e-05 -5.10760856e-07)
(0 1.262417953e-05 -4.840793478e-07)
(0 1.192664715e-05 -4.68832726e-07)
(0 1.126342037e-05 -4.535861333e-07)
(0 1.061544081e-05 -4.3071627e-07)
(0 1.001701141e-05 -4.116580033e-07)
(0 9.449075835e-06 -3.887881142e-07)
(0 8.892575735e-06 -3.697298955e-07)
(0 8.378002697e-06 -3.544832806e-07)
(0 7.89011173e-06 -3.354250397e-07)
(0 7.428902746e-06 -3.201784662e-07)
(0 6.99056276e-06 -3.087435025e-07)
(0 6.575093108e-06 -2.896852616e-07)
(0 6.171058772e-06 -2.706270369e-07)
(0 5.79751688e-06 -2.591920762e-07)
(0 5.439221951e-06 -2.439454834e-07)
(0 5.099985569e-06 -2.24887256e-07)
(0 4.787430113e-06 -2.13452298e-07)
(0 4.486309906e-06 -2.020173535e-07)
(0 4.204248193e-06 -1.86770772e-07)
(0 3.941244217e-06 -1.791474644e-07)
(0 3.697298733e-06 -1.71524168e-07)
(0 3.457165106e-06 -1.600892331e-07)
(0 3.239900952e-06 -1.524659272e-07)
(0 3.030260302e-06 -1.410309826e-07)
(0 2.835866415e-06 -1.372193427e-07)
(0 2.649095484e-06 -1.219727417e-07)
(0 2.477571316e-06 -1.143494454e-07)
(0 2.32129388e-06 -1.02914507e-07)
(0 2.172639462e-06 -9.910285265e-08)
(0 2.031608479e-06 -9.147955629e-08)
(0 1.898200907e-06 -8.766791337e-08)
(0 1.780039699e-06 -7.623296358e-08)
(0 1.665690254e-06 -7.623296358e-08)
(0 1.558964199e-06 -6.479802293e-08)
(0 1.459861252e-06 -6.098637086e-08)
(0 1.372193344e-06 -6.098637086e-08)
(0 1.284525513e-06 -5.717472611e-08)
(0 1.219727417e-06 -4.573977815e-08)
(0 1.139682805e-06 -4.573977815e-08)
(0 1.078696499e-06 -3.811648407e-08)
(0 1.02533336e-06 -3.430483361e-08)
(0 9.795935819e-07 -2.286988907e-08)
(0 9.338538598e-07 -1.905824204e-08)
(0 8.95737322e-07 -1.524659272e-08)
(0 8.53809192e-07 -1.524659272e-08)
(0 8.271277044e-07 -1.524659363e-08)
(0 8.080694139e-07 -1.143494454e-08)
(0 7.928228212e-07 -1.143494454e-08)
(0 7.737646267e-07 -7.623296815e-09)
(0 7.699529321e-07 0)
(0 8.507598735e-06 0.0001468094413)
(0 2.489387575e-05 0.0001444729096)
(0 4.043777553e-05 0.0001400399541)
(0 5.46209184e-05 0.0001338803306)
(0 6.716886824e-05 0.0001264628709)
(0 7.798632174e-05 0.0001182335149)
(0 8.704660946e-05 0.0001096039434)
(0 9.446789413e-05 0.00010088671)
(0 0.0001003759431 9.232574219e-05)
(0 0.0001049308627 8.409639377e-05)
(0 0.0001083308594 7.629395452e-05)
(0 0.0001107169446 6.899845533e-05)
(0 0.0001122339806 6.222515652e-05)
(0 0.0001130153753 5.598930346e-05)
(0 0.0001131792694 5.027563948e-05)
(0 0.0001128019162 4.506130477e-05)
(0 0.0001119786069 4.031961685e-05)
(0 0.0001107969893 3.602769859e-05)
(0 0.0001092990115 3.214362909e-05)
(0 0.0001075342249 2.862929119e-05)
(0 0.000105555973 2.546180983e-05)
(0 0.0001033985801 2.2610697e-05)
(0 0.0001010963507 2.004545897e-05)
(0 9.869119465e-05 1.774703392e-05)
(0 9.618313014e-05 1.566968566e-05)
(0 9.360646159e-05 1.381722548e-05)
(0 9.098785368e-05 1.215915769e-05)
(0 8.832732325e-05 1.066880325e-05)
(0 8.564011642e-05 9.338538598e-06)
(0 8.296433426e-05 8.145492158e-06)
(0 8.027712229e-05 7.082042316e-06)
(0 7.761278487e-05 6.132942288e-06)
(0 7.496749638e-05 5.290567672e-06)
(0 7.235651738e-05 4.535861333e-06)
(0 6.976841245e-05 3.868823134e-06)
(0 6.722603893e-05 3.281829082e-06)
(0 6.472559772e-05 2.755821633e-06)
(0 6.227471168e-05 2.286989044e-06)
(0 5.988099289e-05 1.879142552e-06)
(0 5.753682926e-05 1.520847623e-06)
(0 5.523840872e-05 1.204480897e-06)
(0 5.301240287e-05 9.262305074e-07)
(0 5.083976341e-05 6.860966722e-07)
(0 4.871286665e-05 4.726444025e-07)
(0 4.6662197e-05 2.896852616e-07)
(0 4.466870501e-05 1.295960381e-07)
(0 4.273620194e-05 -7.623296815e-09)
(0 4.086849177e-05 -1.219727417e-07)
(0 3.905414724e-05 -2.210755944e-07)
(0 3.729697967e-05 -3.049318726e-07)
(0 3.560841729e-05 -3.773531697e-07)
(0 3.397322022e-05 -4.421511887e-07)
(0 3.239901146e-05 -4.802676993e-07)
(0 3.08781619e-05 -5.183841523e-07)
(0 2.942211229e-05 -5.488773377e-07)
(0 2.801180415e-05 -5.641239643e-07)
(0 2.665104407e-05 -5.831821714e-07)
(0 2.535127204e-05 -5.946171159e-07)
(0 2.410105288e-05 -6.022404484e-07)
(0 2.290419391e-05 -5.946171159e-07)
(0 2.175307616e-05 -5.984287641e-07)
(0 2.064388777e-05 -5.908055032e-07)
(0 1.959568329e-05 -5.831821714e-07)
(0 1.858178487e-05 -5.75558875e-07)
(0 1.761362729e-05 -5.565006675e-07)
(0 1.668358408e-05 -5.450656896e-07)
(0 1.57916584e-05 -5.298190969e-07)
(0 1.494547341e-05 -5.14572535e-07)
(0 1.414502639e-05 -4.955142632e-07)
(0 1.337507346e-05 -4.802676705e-07)
(0 1.264323777e-05 -4.573978089e-07)
(0 1.194570539e-05 -4.383395406e-07)
(0 1.127485531e-05 -4.230929478e-07)
(0 1.063831071e-05 -4.078463796e-07)
(0 1.003225801e-05 -3.887881142e-07)
(0 9.468134076e-06 -3.697298733e-07)
(0 8.915445625e-06 -3.506716535e-07)
(0 8.397060938e-06 -3.354250397e-07)
(0 7.909169971e-06 -3.163667988e-07)
(0 7.440337691e-06 -3.011202242e-07)
(0 7.001997704e-06 -2.858736134e-07)
(0 6.590339701e-06 -2.744386689e-07)
(0 6.186305365e-06 -2.630037401e-07)
(0 5.808951824e-06 -2.439454834e-07)
(0 5.458280192e-06 -2.286988907e-07)
(0 5.119043811e-06 -2.172639592e-07)
(0 4.795053409e-06 -2.058290017e-07)
(0 4.501556499e-06 -1.905824089e-07)
(0 4.21187149e-06 -1.829591236e-07)
(0 3.952679161e-06 -1.71524168e-07)
(0 3.708733678e-06 -1.600892235e-07)
(0 3.464788402e-06 -1.524659363e-07)
(0 3.251335897e-06 -1.372193344e-07)
(0 3.037883598e-06 -1.295960381e-07)
(0 2.839678064e-06 -1.21972749e-07)
(0 2.664342077e-06 -1.143494454e-07)
(0 2.489006261e-06 -1.06726149e-07)
(0 2.328917177e-06 -9.910285859e-08)
(0 2.172639462e-06 -9.147955629e-08)
(0 2.039231776e-06 -8.385625993e-08)
(0 1.902012555e-06 -8.004461656e-08)
(0 1.783851348e-06 -8.004461175e-08)
(0 1.669501902e-06 -7.24213154e-08)
(0 1.566587495e-06 -6.860967133e-08)
(0 1.467484549e-06 -6.098637086e-08)
(0 1.372193344e-06 -5.33630745e-08)
(0 1.29214881e-06 -4.95514293e-08)
(0 1.219727417e-06 -4.955142632e-08)
(0 1.147306102e-06 -4.573977815e-08)
(0 1.086319796e-06 -3.811648407e-08)
(0 1.032956656e-06 -3.049318543e-08)
(0 9.872168783e-07 -3.049318543e-08)
(0 9.338538598e-07 -2.286989044e-08)
(0 8.95737322e-07 -2.286988907e-08)
(0 8.614324884e-07 -1.905824089e-08)
(0 8.271277044e-07 -1.524659363e-08)
(0 8.080694139e-07 -1.143494454e-08)
(0 7.928228212e-07 -3.811648179e-09)
(0 7.813879235e-07 -3.811648407e-09)
(0 7.737645803e-07 0)
(0 7.493700364e-06 0.000125509952)
(0 2.19665299e-05 0.0001237337313)
(0 3.581805815e-05 0.0001203261104)
(0 4.866331259e-05 0.0001155463036)
(0 6.024691509e-05 0.0001096954302)
(0 7.045069371e-05 0.0001031165188)
(0 7.922891952e-05 9.610308611e-05)
(0 8.660827563e-05 8.891432293e-05)
(0 9.268022602e-05 8.175985393e-05)
(0 9.754007748e-05 7.478834936e-05)
(0 0.0001013212386 6.812178075e-05)
(0 0.0001041570988 6.181731053e-05)
(0 0.0001061467791 5.592450241e-05)
(0 0.0001073970062 5.044335533e-05)
(0 0.00010802211 4.540435338e-05)
(0 0.0001080945314 4.076938916e-05)
(0 0.000107701938 3.65498968e-05)
(0 0.0001069129204 3.270394157e-05)
(0 0.0001057808609 2.920866017e-05)
(0 0.0001043438758 2.604499372e-05)
(0 0.0001026819909 2.318244436e-05)
(0 0.0001008142833 2.060195853e-05)
(0 9.877505742e-05 1.828066587e-05)
(0 9.659478873e-05 1.618425826e-05)
(0 9.430398816e-05 1.430130405e-05)
(0 9.192171355e-05 1.261274466e-05)
(0 8.947844153e-05 1.109951956e-05)
(0 8.697418867e-05 9.738761155e-06)
(0 8.443563603e-05 8.52284589e-06)
(0 8.188182667e-05 7.44033729e-06)
(0 7.931277578e-05 6.468366998e-06)
(0 7.674754115e-05 5.595499896e-06)
(0 7.420516719e-05 4.825546623e-06)
(0 7.167423278e-05 4.139449947e-06)
(0 6.916236077e-05 3.52196315e-06)
(0 6.669240858e-05 2.980708894e-06)
(0 6.424914209e-05 2.504252868e-06)
(0 6.185161908e-05 2.077348395e-06)
(0 5.950745172e-05 1.699995098e-06)
(0 5.721283951e-05 1.368381704e-06)
(0 5.496015872e-05 1.074884857e-06)
(0 5.276083441e-05 8.233160116e-07)
(0 5.061487647e-05 5.946171195e-07)
(0 4.852228452e-05 4.040347336e-07)
(0 4.649829641e-05 2.363221885e-07)
(0 4.452767429e-05 9.147955684e-08)
(0 4.26180411e-05 -3.049318744e-08)
(0 4.076176587e-05 -1.372193353e-07)
(0 3.896647957e-05 -2.286988921e-07)
(0 3.722074692e-05 -3.087435229e-07)
(0 3.554743113e-05 -3.735415238e-07)
(0 3.392748064e-05 -4.230929504e-07)
(0 3.235327188e-05 -4.650211085e-07)
(0 3.08476689e-05 -4.993259144e-07)
(0 2.939543093e-05 -5.221958036e-07)
(0 2.799274607e-05 -5.412540771e-07)
(0 2.664342093e-05 -5.565006374e-07)
(0 2.534746054e-05 -5.67935582e-07)
(0 2.409724138e-05 -5.717472646e-07)
(0 2.290800569e-05 -5.717472302e-07)
(0 2.175307629e-05 -5.641239338e-07)
(0 2.06515112e-05 -5.603123193e-07)
(0 1.96033067e-05 -5.48877341e-07)
(0 1.859321993e-05 -5.412540446e-07)
(0 1.762506234e-05 -5.298191318e-07)
(0 1.669883077e-05 -5.183841554e-07)
(0 1.581071674e-05 -4.993259144e-07)
(0 1.496072009e-05 -4.878909991e-07)
(0 1.416027307e-05 -4.650210806e-07)
(0 1.339794343e-05 -4.459628396e-07)
(0 1.265848444e-05 -4.345279211e-07)
(0 1.195714041e-05 -4.15469654e-07)
(0 1.129010197e-05 -4.040347094e-07)
(0 1.065736901e-05 -3.849764915e-07)
(0 1.005512796e-05 -3.659182274e-07)
(0 9.483380726e-06 -3.506716346e-07)
(0 8.934503921e-06 -3.316134134e-07)
(0 8.408495933e-06 -3.201784489e-07)
(0 7.928228259e-06 -3.049318561e-07)
(0 7.45558433e-06 -2.858736323e-07)
(0 7.017244339e-06 -2.706270223e-07)
(0 6.601774685e-06 -2.591920777e-07)
(0 6.197740348e-06 -2.515687964e-07)
(0 5.8280101e-06 -2.363221885e-07)
(0 5.469715169e-06 -2.172639475e-07)
(0 5.130478787e-06 -2.058290152e-07)
(0 4.806488382e-06 -1.905824101e-07)
(0 4.512991471e-06 -1.829591137e-07)
(0 4.223306461e-06 -1.715241794e-07)
(0 3.96411413e-06 -1.562775763e-07)
(0 3.716356997e-06 -1.524659281e-07)
(0 3.480035017e-06 -1.372193435e-07)
(0 3.255147564e-06 -1.295960389e-07)
(0 3.045506913e-06 -1.257843907e-07)
(0 2.851113026e-06 -1.143494529e-07)
(0 2.671965389e-06 -1.105377978e-07)
(0 2.496629572e-06 -9.910285324e-08)
(0 2.328917191e-06 -9.529121076e-08)
(0 2.18407442e-06 -9.147955684e-08)
(0 2.046855084e-06 -8.766790864e-08)
(0 1.905824215e-06 -7.623296861e-08)
(0 1.787663007e-06 -7.242131583e-08)
(0 1.677125209e-06 -6.479801943e-08)
(0 1.566587505e-06 -6.479802332e-08)
(0 1.475107854e-06 -6.098637123e-08)
(0 1.379816649e-06 -5.336307482e-08)
(0 1.295960466e-06 -4.573978116e-08)
(0 1.219727425e-06 -4.192813022e-08)
(0 1.151117757e-06 -3.811648202e-08)
(0 1.0939431e-06 -3.049318744e-08)
(0 1.036768311e-06 -3.430483381e-08)
(0 9.872168842e-07 -2.668153741e-08)
(0 9.414771623e-07 -2.668153901e-08)
(0 8.995489756e-07 -1.905824101e-08)
(0 8.6905579e-07 -1.14349446e-08)
(0 8.309393578e-07 -3.81164843e-09)
(0 8.11881067e-07 -7.623296403e-09)
(0 7.966344741e-07 -3.811648202e-09)
(0 7.813879282e-07 -3.81164843e-09)
(0 7.737645849e-07 -3.811648202e-09)
(0 6.719935739e-06 0.0001060552989)
(0 1.971003392e-05 0.0001046945468)
(0 3.224654359e-05 0.00010205688)
(0 4.398641998e-05 9.832908807e-05)
(0 5.474670608e-05 9.373224599e-05)
(0 6.438636104e-05 8.848741247e-05)
(0 7.285203164e-05 8.283473822e-05)
(0 8.012084953e-05 7.696480464e-05)
(0 8.624997499e-05 7.105674535e-05)
(0 9.130040883e-05 6.524779352e-05)
(0 9.535219656e-05 5.963323934e-05)
(0 9.851585883e-05 5.427787007e-05)
(0 0.0001008676458 4.923124788e-05)
(0 0.0001024990373 4.452386505e-05)
(0 0.0001035014946 4.014427862e-05)
(0 0.0001039436458 3.611917814e-05)
(0 0.0001039131589 3.242188135e-05)
(0 0.0001034633782 2.904857077e-05)
(0 0.0001026362505 2.597257069e-05)
(0 0.0001015080087 2.317482232e-05)
(0 0.0001001091278 2.064769818e-05)
(0 9.849680059e-05 1.836070928e-05)
(0 9.667865021e-05 1.629479694e-05)
(0 9.471564559e-05 1.442708836e-05)
(0 9.26116158e-05 1.275377481e-05)
(0 9.040086528e-05 1.12443628e-05)
(0 8.81100593e-05 9.887415376e-06)
(0 8.575064908e-05 8.667687959e-06)
(0 8.334550408e-05 7.585180331e-06)
(0 8.090223259e-05 6.617021238e-06)
(0 7.843990787e-05 5.744153805e-06)
(0 7.597377606e-05 4.970389523e-06)
(0 7.350382348e-05 4.276669257e-06)
(0 7.10529337e-05 3.659182252e-06)
(0 6.861348298e-05 3.114116749e-06)
(0 6.620451722e-05 2.626225595e-06)
(0 6.382223711e-05 2.191697703e-06)
(0 6.147426552e-05 1.810532994e-06)
(0 5.917202633e-05 1.478919493e-06)
(0 5.691553061e-05 1.181610935e-06)
(0 5.4693343e-05 9.186072662e-07)
(0 5.253594685e-05 6.82285024e-07)
(0 5.041667046e-05 4.840793187e-07)
(0 4.83545717e-05 3.08743521e-07)
(0 4.634964185e-05 1.639008717e-07)
(0 4.439807799e-05 3.430483361e-08)
(0 4.250750304e-05 -7.623296815e-08)
(0 4.066647442e-05 -1.791474644e-07)
(0 3.888262307e-05 -2.630037243e-07)
(0 3.715213703e-05 -3.239901146e-07)
(0 3.549787949e-05 -3.811648179e-07)
(0 3.387411736e-05 -4.307162442e-07)
(0 3.23227785e-05 -4.688327541e-07)
(0 3.082098717e-05 -4.993259114e-07)
(0 2.937637251e-05 -5.183841523e-07)
(0 2.797749931e-05 -5.374424255e-07)
(0 2.663198583e-05 -5.488773377e-07)
(0 2.533983709e-05 -5.526889859e-07)
(0 2.409724123e-05 -5.565006675e-07)
(0 2.290800555e-05 -5.526889859e-07)
(0 2.176069945e-05 -5.488773377e-07)
(0 2.066294602e-05 -5.374424255e-07)
(0 1.961092988e-05 -5.298190969e-07)
(0 1.860465476e-05 -5.183841523e-07)
(0 1.763268553e-05 -5.107608866e-07)
(0 1.671407726e-05 -4.917026151e-07)
(0 1.582596324e-05 -4.840793187e-07)
(0 1.497977824e-05 -4.612094573e-07)
(0 1.418314287e-05 -4.497744851e-07)
(0 1.340937829e-05 -4.307162442e-07)
(0 1.267373095e-05 -4.154696764e-07)
(0 1.197238693e-05 -4.04034707e-07)
(0 1.130916015e-05 -3.849764661e-07)
(0 1.067261554e-05 -3.659182471e-07)
(0 1.007418614e-05 -3.506716324e-07)
(0 9.494815613e-06 -3.354250397e-07)
(0 8.945938812e-06 -3.239901146e-07)
(0 8.431365771e-06 -3.049318543e-07)
(0 7.935851508e-06 -2.896852616e-07)
(0 7.470830879e-06 -2.782503337e-07)
(0 7.03249089e-06 -2.630037243e-07)
(0 6.61320959e-06 -2.477571316e-07)
(0 6.212986904e-06 -2.363222013e-07)
(0 5.83944501e-06 -2.248872425e-07)
(0 5.484961729e-06 -2.13452298e-07)
(0 5.14572535e-06 -1.982057172e-07)
(0 4.817923298e-06 -1.867707608e-07)
(0 4.52061474e-06 -1.71524168e-07)
(0 4.238553029e-06 -1.639008815e-07)
(0 3.971737402e-06 -1.524659272e-07)
(0 3.727791919e-06 -1.410309826e-07)
(0 3.487658293e-06 -1.295960459e-07)
(0 3.266582489e-06 -1.257843899e-07)
(0 3.056941839e-06 -1.143494454e-07)
(0 2.854924657e-06 -1.067261554e-07)
(0 2.671965373e-06 -1.029145008e-07)
(0 2.500441205e-06 -1.029145008e-07)
(0 2.344163771e-06 -9.147956178e-08)
(0 2.187886055e-06 -8.766790811e-08)
(0 2.05066672e-06 -7.623296358e-08)
(0 1.913447501e-06 -7.242131974e-08)
(0 1.795286292e-06 -6.860966722e-08)
(0 1.677125199e-06 -6.860966722e-08)
(0 1.570399144e-06 -6.098637452e-08)
(0 1.478919493e-06 -5.717472268e-08)
(0 1.387439937e-06 -5.33630745e-08)
(0 1.303583755e-06 -4.573978089e-08)
(0 1.223539065e-06 -3.811648179e-08)
(0 1.158741046e-06 -3.430483361e-08)
(0 1.093943093e-06 -3.049318726e-08)
(0 1.040579953e-06 -2.668153725e-08)
(0 9.872168783e-07 -2.668153725e-08)
(0 9.452888051e-07 -2.668153885e-08)
(0 9.071722666e-07 -1.524659272e-08)
(0 8.690557848e-07 -1.524659272e-08)
(0 8.347510012e-07 -1.143494522e-08)
(0 8.156927103e-07 -7.623296358e-09)
(0 7.966344694e-07 -3.811648179e-09)
(0 7.813879235e-07 -7.623296815e-09)
(0 7.813878767e-07 -3.811648179e-09)
(0 6.125318623e-06 8.800333315e-05)
(0 1.797192224e-05 8.695513512e-05)
(0 2.946404042e-05 8.493114472e-05)
(0 4.033486103e-05 8.20419154e-05)
(0 5.040142689e-05 7.844753587e-05)
(0 5.955319115e-05 7.431570454e-05)
(0 6.77063066e-05 6.980652475e-05)
(0 7.483409318e-05 6.50953315e-05)
(0 8.095940732e-05 6.029646254e-05)
(0 8.61165673e-05 5.554333726e-05)
(0 9.03551255e-05 5.090837613e-05)
(0 9.375511025e-05 4.6456368e-05)
(0 9.63851475e-05 4.223306182e-05)
(0 9.831384737e-05 3.826513836e-05)
(0 9.96212368e-05 3.456783733e-05)
(0 0.0001003721315 3.114497727e-05)
(0 0.000100627518 2.79927459e-05)
(0 0.0001004597994 2.509970326e-05)
(0 9.990711041e-05 2.246204272e-05)
(0 9.902281398e-05 2.006070557e-05)
(0 9.786406699e-05 1.787281831e-05)
(0 9.646138046e-05 1.589076126e-05)
(0 9.484524732e-05 1.410309911e-05)
(0 9.305376699e-05 1.249077108e-05)
(0 9.112126136e-05 1.102709818e-05)
(0 8.905535339e-05 9.723515087e-06)
(0 8.690939012e-05 8.541903569e-06)
(0 8.467195264e-05 7.486077023e-06)
(0 8.237353373e-05 6.540788667e-06)
(0 8.004080011e-05 5.679355786e-06)
(0 7.766995494e-05 4.928461095e-06)
(0 7.528005605e-05 4.253799623e-06)
(0 7.289777142e-05 3.651558955e-06)
(0 7.050405636e-05 3.114116562e-06)
(0 6.812940364e-05 2.63384905e-06)
(0 6.576998932e-05 2.206944296e-06)
(0 6.343726064e-05 1.829591126e-06)
(0 6.113502881e-05 1.497977824e-06)
(0 5.887471777e-05 1.200669176e-06)
(0 5.665252688e-05 9.414771002e-07)
(0 5.446464409e-05 7.089666038e-07)
(0 5.23263062e-05 5.10760856e-07)
(0 5.024514629e-05 3.354250397e-07)
(0 4.820210576e-05 1.86770772e-07)
(0 4.622385746e-05 5.717472268e-08)
(0 4.428372854e-05 -5.33630745e-08)
(0 4.240458853e-05 -1.562775847e-07)
(0 4.058261816e-05 -2.363221871e-07)
(0 3.88216367e-05 -3.049318543e-07)
(0 3.709877395e-05 -3.621065987e-07)
(0 3.544451641e-05 -4.116580033e-07)
(0 3.383981253e-05 -4.459628369e-07)
(0 3.228847366e-05 -4.802676993e-07)
(0 3.080192893e-05 -5.031375596e-07)
(0 2.935350262e-05 -5.221958005e-07)
(0 2.796606437e-05 -5.33630777e-07)
(0 2.662436253e-05 -5.412540414e-07)
(0 2.533602544e-05 -5.412540414e-07)
(0 2.409724123e-05 -5.374424255e-07)
(0 2.291562885e-05 -5.33630745e-07)
(0 2.17645111e-05 -5.298190969e-07)
(0 2.067438096e-05 -5.221958318e-07)
(0 1.962236482e-05 -5.10760856e-07)
(0 1.861608971e-05 -4.993259114e-07)
(0 1.765174378e-05 -4.878909962e-07)
(0 1.672170056e-05 -4.764560223e-07)
(0 1.583739818e-05 -4.650210778e-07)
(0 1.499502484e-05 -4.497745121e-07)
(0 1.419838947e-05 -4.345278924e-07)
(0 1.342462489e-05 -4.192812997e-07)
(0 1.26927892e-05 -4.002230828e-07)
(0 1.198763352e-05 -3.849764661e-07)
(0 1.132821839e-05 -3.62106577e-07)
(0 1.068786213e-05 -3.468600051e-07)
(0 1.008562108e-05 -3.354250397e-07)
(0 9.513873854e-06 -3.163667988e-07)
(0 8.968808703e-06 -3.011202242e-07)
(0 8.438989068e-06 -2.858736134e-07)
(0 7.951098101e-06 -2.744386689e-07)
(0 7.486077472e-06 -2.630037401e-07)
(0 7.047737483e-06 -2.477571316e-07)
(0 6.624644535e-06 -2.325105389e-07)
(0 6.220610201e-06 -2.172639592e-07)
(0 5.850879954e-06 -2.058290017e-07)
(0 5.492585026e-06 -1.943940571e-07)
(0 5.157160295e-06 -1.905824204e-07)
(0 4.836981539e-06 -1.791474644e-07)
(0 4.532049685e-06 -1.677125199e-07)
(0 4.246176326e-06 -1.562775847e-07)
(0 3.986983995e-06 -1.448426308e-07)
(0 3.735415215e-06 -1.372193344e-07)
(0 3.49528159e-06 -1.295960459e-07)
(0 3.274205786e-06 -1.181610935e-07)
(0 3.064565136e-06 -1.143494454e-07)
(0 2.862547954e-06 -1.067261554e-07)
(0 2.675777022e-06 -9.910285265e-08)
(0 2.504252853e-06 -9.147955629e-08)
(0 2.347975419e-06 -9.147956178e-08)
(0 2.195509351e-06 -8.004461175e-08)
(0 2.054478368e-06 -8.004461175e-08)
(0 1.921070797e-06 -7.623296815e-08)
(0 1.79909794e-06 -6.860966722e-08)
(0 1.680936847e-06 -6.098637086e-08)
(0 1.581834089e-06 -5.717472611e-08)
(0 1.482731142e-06 -5.33630745e-08)
(0 1.387439937e-06 -4.955142632e-08)
(0 1.307395404e-06 -4.573978089e-08)
(0 1.231162362e-06 -4.192812997e-08)
(0 1.162552695e-06 -3.430483361e-08)
(0 1.097754741e-06 -3.430483567e-08)
(0 1.040579953e-06 -3.049318543e-08)
(0 9.948401747e-07 -2.286988907e-08)
(0 9.491004535e-07 -1.524659363e-08)
(0 9.109839147e-07 -1.905824089e-08)
(0 8.728674329e-07 -1.143494454e-08)
(0 8.385626496e-07 -1.524659363e-08)
(0 8.156927103e-07 -7.623296358e-09)
(0 8.004461175e-07 -7.623296358e-09)
(0 7.813879235e-07 -3.811648407e-09)
(0 7.851995248e-07 -3.811648179e-09)
(0 5.667920876e-06 7.104149918e-05)
(0 1.663403375e-05 7.024868057e-05)
(0 2.732570596e-05 6.870495883e-05)
(0 3.751042995e-05 6.650563782e-05)
(0 4.701287174e-05 6.37421967e-05)
(0 5.57491666e-05 6.054040839e-05)
(0 6.363165508e-05 5.703369204e-05)
(0 7.061078717e-05 5.332877319e-05)
(0 7.669798511e-05 4.953618003e-05)
(0 8.190850821e-05 4.573977842e-05)
(0 8.627285057e-05 4.20196123e-05)
(0 8.983673646e-05 3.843284882e-05)
(0 9.267260273e-05 3.499855379e-05)
(0 9.483381295e-05 3.176246637e-05)
(0 9.638133643e-05 2.873601579e-05)
(0 9.737617661e-05 2.591920777e-05)
(0 9.786407345e-05 2.331585345e-05)
(0 9.79288656e-05 2.092213698e-05)
(0 9.75972522e-05 1.872662761e-05)
(0 9.691878464e-05 1.672551331e-05)
(0 9.594680853e-05 1.490354447e-05)
(0 9.472708111e-05 1.324928915e-05)
(0 9.327484874e-05 1.174368881e-05)
(0 9.163583442e-05 1.0390553e-05)
(0 8.984435976e-05 9.170825573e-06)
(0 8.791567105e-05 8.065448079e-06)
(0 8.587643398e-05 7.07823071e-06)
(0 8.374572264e-05 6.186305031e-06)
(0 8.154259487e-05 5.385859232e-06)
(0 7.929752919e-05 4.676892343e-06)
(0 7.700672862e-05 4.032723797e-06)
(0 7.468925099e-05 3.460976775e-06)
(0 7.236795276e-05 2.954027356e-06)
(0 7.004284735e-05 2.50044122e-06)
(0 6.770631107e-05 2.100218285e-06)
(0 6.540025984e-05 1.741923228e-06)
(0 6.310945927e-05 1.425556427e-06)
(0 6.084534389e-05 1.143494529e-06)
(0 5.861552605e-05 8.919256792e-07)
(0 5.642382833e-05 6.708500835e-07)
(0 5.42664387e-05 4.802677022e-07)
(0 5.215859399e-05 3.125551525e-07)
(0 5.009649231e-05 1.639008727e-07)
(0 4.807632165e-05 4.192813273e-08)
(0 4.61095083e-05 -6.479801943e-08)
(0 4.418462595e-05 -1.562775763e-07)
(0 4.232454417e-05 -2.363222027e-07)
(0 4.051400874e-05 -3.049318561e-07)
(0 3.875683891e-05 -3.621065792e-07)
(0 3.705303439e-05 -4.07846382e-07)
(0 3.54025885e-05 -4.421511914e-07)
(0 3.380931955e-05 -4.802676734e-07)
(0 3.226941561e-05 -5.031375928e-07)
(0 3.077905923e-05 -5.145725072e-07)
(0 2.93458795e-05 -5.221958036e-07)
(0 2.795462959e-05 -5.336307802e-07)
(0 2.662436269e-05 -5.336307482e-07)
(0 2.533983724e-05 -5.374423964e-07)
(0 2.410486467e-05 -5.260074834e-07)
(0 2.292325228e-05 -5.221958036e-07)
(0 2.177213453e-05 -5.145725072e-07)
(0 2.067819273e-05 -5.107608897e-07)
(0 1.963379989e-05 -4.993259144e-07)
(0 1.862752476e-05 -4.878909698e-07)
(0 1.766317883e-05 -4.726444054e-07)
(0 1.673313561e-05 -4.612094324e-07)
(0 1.585264487e-05 -4.459628396e-07)
(0 1.501027152e-05 -4.345279211e-07)
(0 1.42098245e-05 -4.15469654e-07)
(0 1.344368321e-05 -3.96411413e-07)
(0 1.270803587e-05 -3.849764915e-07)
(0 1.201050348e-05 -3.659182274e-07)
(0 1.134346505e-05 -3.506716346e-07)
(0 1.070692044e-05 -3.392367103e-07)
(0 1.010086773e-05 -3.201784489e-07)
(0 9.529120504e-06 -3.087435043e-07)
(0 8.972620405e-06 -2.896852807e-07)
(0 8.458047359e-06 -2.782503187e-07)
(0 7.966344741e-06 -2.630037259e-07)
(0 7.497512463e-06 -2.47757148e-07)
(0 7.062984118e-06 -2.363221885e-07)
(0 6.636079519e-06 -2.210755957e-07)
(0 6.23966848e-06 -2.058290152e-07)
(0 5.862314934e-06 -1.943940583e-07)
(0 5.504020003e-06 -1.829591137e-07)
(0 5.164783623e-06 -1.715241794e-07)
(0 4.844604864e-06 -1.677125209e-07)
(0 4.539673008e-06 -1.562775763e-07)
(0 4.257611297e-06 -1.448426404e-07)
(0 3.994607315e-06 -1.372193353e-07)
(0 3.743038534e-06 -1.257843907e-07)
(0 3.506716556e-06 -1.219727498e-07)
(0 3.278017453e-06 -1.105377978e-07)
(0 3.068376802e-06 -1.029145014e-07)
(0 2.873982916e-06 -9.910285919e-08)
(0 2.683400334e-06 -9.147955684e-08)
(0 2.515687813e-06 -8.385626044e-08)
(0 2.344163785e-06 -8.385626547e-08)
(0 2.203132661e-06 -8.004461223e-08)
(0 2.062101677e-06 -7.242131583e-08)
(0 1.921070809e-06 -6.479802332e-08)
(0 1.802909599e-06 -6.479801943e-08)
(0 1.692371802e-06 -6.098637123e-08)
(0 1.581834099e-06 -5.336307802e-08)
(0 1.486542799e-06 -4.573977842e-08)
(0 1.395063242e-06 -4.573977842e-08)
(0 1.31120706e-06 -3.81164843e-08)
(0 1.234974017e-06 -3.430483381e-08)
(0 1.16636435e-06 -3.049318561e-08)
(0 1.097754748e-06 -3.049318744e-08)
(0 1.048203255e-06 -2.286988921e-08)
(0 9.986518288e-07 -2.286988921e-08)
(0 9.529121076e-07 -1.905824215e-08)
(0 9.109839202e-07 -1.524659281e-08)
(0 8.766790864e-07 -1.524659281e-08)
(0 8.385626547e-07 -1.143494529e-08)
(0 8.233160116e-07 -7.623296403e-09)
(0 8.004461223e-07 -7.623296403e-09)
(0 7.851995767e-07 0)
(0 7.851995295e-07 0)
(0 5.328684154e-06 5.490298037e-05)
(0 1.563538177e-05 5.43236131e-05)
(0 2.572481356e-05 5.319536198e-05)
(0 3.536828345e-05 5.156016491e-05)
(0 4.444000878e-05 4.950568952e-05)
(0 5.28408787e-05 4.711959479e-05)
(0 6.04908566e-05 4.448193425e-05)
(0 6.734039242e-05 4.168418698e-05)
(0 7.337041579e-05 3.880257846e-05)
(0 7.860380874e-05 3.59019142e-05)
(0 8.304438385e-05 3.30393684e-05)
(0 8.673405431e-05 3.026448654e-05)
(0 8.971857483e-05 2.761157941e-05)
(0 9.204749739e-05 2.508826982e-05)
(0 9.377798014e-05 2.27136115e-05)
(0 9.495196778e-05 2.050285555e-05)
(0 9.562663525e-05 1.844456664e-05)
(0 9.587819829e-05 1.655017639e-05)
(0 9.570667412e-05 1.481587647e-05)
(0 9.519973063e-05 1.322260833e-05)
(0 9.438784385e-05 1.177418122e-05)
(0 9.330152412e-05 1.045153931e-05)
(0 9.198651102e-05 9.254682333e-06)
(0 9.047709282e-05 8.172173695e-06)
(0 8.879615597e-05 7.196391762e-06)
(0 8.696657007e-05 6.312089763e-06)
(0 8.503024757e-05 5.515454915e-06)
(0 8.29833925e-05 4.802676705e-06)
(0 8.086030932e-05 4.158508413e-06)
(0 7.868385335e-05 3.590572584e-06)
(0 7.645785082e-05 3.072188432e-06)
(0 7.420135955e-05 2.610979159e-06)
(0 7.193342443e-05 2.203132647e-06)
(0 6.965787047e-05 1.837214422e-06)
(0 6.736326231e-05 1.520847715e-06)
(0 6.50953276e-05 1.231162362e-06)
(0 6.284264352e-05 9.757819338e-07)
(0 6.060139803e-05 7.470830879e-07)
(0 5.84020734e-05 5.488773377e-07)
(0 5.623705723e-05 3.697298733e-07)
(0 5.41025375e-05 2.172639592e-07)
(0 5.20175627e-05 8.385625993e-08)
(0 4.997070762e-05 -2.668153725e-08)
(0 4.797340686e-05 -1.295960459e-07)
(0 4.602184011e-05 -2.13452298e-07)
(0 4.411220437e-05 -2.896852616e-07)
(0 4.225593425e-05 -3.430483567e-07)
(0 4.046064542e-05 -3.925997624e-07)
(0 3.871491055e-05 -4.345278924e-07)
(0 3.701872933e-05 -4.688327541e-07)
(0 3.53720951e-05 -4.955142632e-07)
(0 3.378263781e-05 -5.183841523e-07)
(0 3.225416882e-05 -5.260074802e-07)
(0 3.077143575e-05 -5.374423932e-07)
(0 2.933825603e-05 -5.488773377e-07)
(0 2.795462942e-05 -5.450657223e-07)
(0 2.662436253e-05 -5.488773377e-07)
(0 2.534746039e-05 -5.374423932e-07)
(0 2.410867618e-05 -5.33630777e-07)
(0 2.29270638e-05 -5.298190969e-07)
(0 2.178356934e-05 -5.183841523e-07)
(0 2.068581591e-05 -5.031375898e-07)
(0 1.964523471e-05 -4.955142632e-07)
(0 1.863895959e-05 -4.840793187e-07)
(0 1.767461367e-05 -4.688327541e-07)
(0 1.67483821e-05 -4.535861333e-07)
(0 1.587170302e-05 -4.383395406e-07)
(0 1.502932967e-05 -4.230929732e-07)
(0 1.4225071e-05 -4.04034707e-07)
(0 1.346274137e-05 -3.887881142e-07)
(0 1.271947074e-05 -3.697298955e-07)
(0 1.202575e-05 -3.582949288e-07)
(0 1.135489992e-05 -3.430483361e-07)
(0 1.071835532e-05 -3.316134115e-07)
(0 1.011611427e-05 -3.125551507e-07)
(0 9.54436704e-06 -3.011202061e-07)
(0 8.987866945e-06 -2.858736306e-07)
(0 8.473293901e-06 -2.706270207e-07)
(0 7.981591286e-06 -2.515687798e-07)
(0 7.508947363e-06 -2.439454981e-07)
(0 7.078230668e-06 -2.286988907e-07)
(0 6.65513772e-06 -2.172639462e-07)
(0 6.251103388e-06 -2.020173656e-07)
(0 5.873749844e-06 -1.905824089e-07)
(0 5.511643267e-06 -1.791474644e-07)
(0 5.172406889e-06 -1.753358267e-07)