/*--------------------------------*- C++ -*----------------------------------*\
  =========                 |
  \\      /  F ield         | OpenFOAM: The Open Source CFD Toolbox
   \\    /   O peration     | Website:  https://openfoam.org
    \\  /    A nd           | Version:  6
     \\/     M anipulation  |
\*---------------------------------------------------------------------------*/
FoamFile
{
    version     2.0;
    format      ascii;
    class       volVectorField;
    location    "0.0003";
    object      U;
}
// * * * * * * * * * * * * * * * * * * * * * * * * * * * * * * * * * * * * * //

dimensions      [0 1 -1 0 0 0 0];

internalField   nonuniform List<vector> 
9600
(
(0 1.114486629e-12 -2.872336023e-13)
(0 1.116082933e-12 -8.451409035e-13)
(0 1.097557328e-12 -1.394104938e-12)
(0 1.056585083e-12 -1.94284959e-12)
(0 9.948674297e-13 -2.495703464e-12)
(0 9.125443888e-13 -3.053666893e-12)
(0 8.0903892e-13 -3.615822507e-12)
(0 6.834281273e-13 -4.181107733e-12)
(0 5.346572704e-13 -4.748244483e-12)
(0 3.616566015e-13 -5.316493599e-12)
(0 1.633863894e-13 -5.885047436e-12)
(0 -6.114596298e-14 -6.453570966e-12)
(0 -3.128990768e-13 -7.021526619e-12)
(0 -5.928140293e-13 -7.588727323e-12)
(0 -9.018428543e-13 -8.154683725e-12)
(0 -1.240971883e-12 -8.719189158e-12)
(0 -1.611240472e-12 -9.281677059e-12)
(0 -2.013747609e-12 -9.841818421e-12)
(0 -2.449660744e-12 -1.039887897e-11)
(0 -2.920225003e-12 -1.095232344e-11)
(0 -3.426779093e-12 -1.150117072e-11)
(0 -3.970765175e-12 -1.20445982e-11)
(0 -4.55373165e-12 -1.258128497e-11)
(0 -5.177329662e-12 -1.311000472e-11)
(0 -5.843316093e-12 -1.362896172e-11)
(0 -6.553579834e-12 -1.413638195e-11)
(0 -7.310186502e-12 -1.462984951e-11)
(0 -8.115418581e-12 -1.510688071e-11)
(0 -8.971768843e-12 -1.556421878e-11)
(0 -9.881873165e-12 -1.599833364e-11)
(0 -1.084839496e-11 -1.640464216e-11)
(0 -1.187392587e-11 -1.677795251e-11)
(0 -1.296094449e-11 -1.7111688e-11)
(0 -1.411185195e-11 -1.739835678e-11)
(0 -1.532900402e-11 -1.762879744e-11)
(0 -1.661464537e-11 -1.779257003e-11)
(0 -1.797061841e-11 -1.787703032e-11)
(0 -1.939784487e-11 -1.786746595e-11)
(0 -2.08956188e-11 -1.774599228e-11)
(0 -2.246084795e-11 -1.749165005e-11)
(0 -2.408724951e-11 -1.707947034e-11)
(0 -2.576442477e-11 -1.648077965e-11)
(0 -2.747654364e-11 -1.566239555e-11)
(0 -2.920049255e-11 -1.458680255e-11)
(0 -3.09034388e-11 -1.321107599e-11)
(0 -3.254003466e-11 -1.148672661e-11)
(0 -3.404939576e-11 -9.358483077e-12)
(0 -3.535193998e-11 -6.764186041e-12)
(0 -3.634590745e-11 -3.633937287e-12)
(0 -3.690345824e-11 1.092026401e-13)
(0 -3.686603209e-11 4.548055284e-12)
(0 -3.603859237e-11 9.766137377e-12)
(0 -3.418194443e-11 1.583703656e-11)
(0 -3.100254195e-11 2.280139375e-11)
(0 -2.614013814e-11 3.062544431e-11)
(0 -1.91571066e-11 3.913015854e-11)
(0 -9.540251289e-12 4.788499409e-11)
(0 3.263755272e-12 5.606846373e-11)
(0 1.975622101e-11 6.233225015e-11)
(0 4.026248652e-11 6.476774103e-11)
(0 6.501754834e-11 6.114487572e-11)
(0 9.515907007e-11 4.94477846e-11)
(0 1.355629146e-10 2.781691518e-11)
(0 1.978990235e-10 -9.564448834e-12)
(0 2.883906792e-10 -8.672824166e-11)
(0 3.403146653e-10 -2.502722009e-10)
(0 7.652496561e-11 -4.879056596e-10)
(0 -2.081330962e-12 1.045647544e-11)
(0 -1.706113422e-12 6.619061339e-12)
(0 1.146988076e-12 4.172942164e-13)
(0 2.956092038e-12 -6.870782522e-12)
(0 9.093462314e-12 -1.445431781e-11)
(0 1.53426994e-11 -9.340847948e-12)
(0 1.63996711e-11 -4.360603124e-12)
(0 1.580098289e-11 -3.167460084e-12)
(0 1.609056052e-11 -2.818189166e-12)
(0 1.720546223e-11 -2.006636527e-12)
(0 1.859739888e-11 -3.972010897e-13)
(0 1.979502855e-11 1.997942707e-12)
(0 2.042114654e-11 5.054325603e-12)
(0 2.021484668e-11 8.441375894e-12)
(0 1.912456961e-11 1.173513622e-11)
(0 1.728320492e-11 1.461768406e-11)
(0 1.490959022e-11 1.690750559e-11)
(0 1.224355344e-11 1.853535872e-11)
(0 9.504656269e-12 1.953546607e-11)
(0 6.855526609e-12 2.002185972e-11)
(0 4.381177222e-12 2.014539404e-11)
(0 2.090616072e-12 2.005129322e-11)
(0 -6.593786301e-14 1.984881247e-11)
(0 -2.173907665e-12 1.959524854e-11)
(0 -4.330479509e-12 1.928921973e-11)
(0 -6.620517419e-12 1.887122503e-11)
(0 -9.092097543e-12 1.823047307e-11)
(0 -1.173359947e-11 1.722204916e-11)
(0 -1.44579143e-11 1.569705912e-11)
(0 -1.710185501e-11 1.354617066e-11)
(0 -1.944780248e-11 1.074232022e-11)
(0 -2.126168225e-11 7.363708045e-12)
(0 -2.233480281e-11 3.598973307e-12)
(0 -2.25472679e-11 -2.29743463e-13)
(0 -2.196447993e-11 -3.698680395e-12)
(0 -2.086017168e-11 -6.479452091e-12)
(0 -1.962263139e-11 -8.450393108e-12)
(0 -1.873236964e-11 -9.600272389e-12)
(0 -1.874540913e-11 -1.026172191e-11)
(0 -1.973230517e-11 -1.172995183e-11)
(0 -1.916479906e-11 -1.692161911e-11)
(0 -1.354249667e-11 -2.215988238e-11)
(0 -8.173938107e-12 -1.466865771e-11)
(0 -7.227672312e-12 -7.441055887e-12)
(0 -5.268684604e-12 -1.247467427e-12)
(0 -1.629141134e-12 6.336371566e-12)
(0 -3.345608136e-10 -9.411308949e-11)
(0 -7.770464987e-10 6.770184383e-10)
(0 -7.581950861e-10 1.293071684e-09)
(0 -5.511498242e-10 1.598165463e-09)
(0 -2.815983769e-10 1.529381981e-09)
(0 -2.749864137e-11 1.015439115e-09)
(0 1.436219899e-11 -5.286806894e-23)
(0 6.129230434e-13 -3.055304014e-13)
(0 6.025975063e-13 -8.465360854e-13)
(0 5.691770607e-13 -1.363342482e-12)
(0 5.172976178e-13 -1.879891081e-12)
(0 4.482657219e-13 -2.403528698e-12)
(0 3.613199024e-13 -2.934527096e-12)
(0 2.550398865e-13 -3.471220226e-12)
(0 1.278977021e-13 -4.011552652e-12)
(0 -2.155858232e-14 -4.553974362e-12)
(0 -1.946480255e-13 -5.097201964e-12)
(0 -3.92557465e-13 -5.640462222e-12)
(0 -6.163573883e-13 -6.183051428e-12)
(0 -8.67035673e-13 -6.724565552e-12)
(0 -1.145530383e-12 -7.264495808e-12)
(0 -1.452767553e-12 -7.802511796e-12)
(0 -1.78968639e-12 -8.338094033e-12)
(0 -2.157258493e-12 -8.870838184e-12)
(0 -2.556494584e-12 -9.400096235e-12)
(0 -2.988454981e-12 -9.925289662e-12)
(0 -3.454258632e-12 -1.044555458e-11)
(0 -3.955096812e-12 -1.096005816e-11)
(0 -4.492238398e-12 -1.146763891e-11)
(0 -5.067026587e-12 -1.196711655e-11)
(0 -5.680872448e-12 -1.245692137e-11)
(0 -6.335259487e-12 -1.293539951e-11)
(0 -7.031769558e-12 -1.340044466e-11)
(0 -7.772118078e-12 -1.384980051e-11)
(0 -8.558168813e-12 -1.428067029e-11)
(0 -9.391889144e-12 -1.468996519e-11)
(0 -1.027524742e-11 -1.507384513e-11)
(0 -1.121008063e-11 -1.542790567e-11)
(0 -1.219800496e-11 -1.5746703e-11)
(0 -1.324040034e-11 -1.602397229e-11)
(0 -1.43384562e-11 -1.625220957e-11)
(0 -1.549316388e-11 -1.642289959e-11)
(0 -1.670515427e-11 -1.652601611e-11)
(0 -1.797429117e-11 -1.65500577e-11)
(0 -1.929908034e-11 -1.648135318e-11)
(0 -2.06759963e-11 -1.630401424e-11)
(0 -2.209885656e-11 -1.599939125e-11)
(0 -2.355817783e-11 -1.554635335e-11)
(0 -2.50403357e-11 -1.492111524e-11)
(0 -2.652621539e-11 -1.409771645e-11)
(0 -2.798924719e-11 -1.304787008e-11)
(0 -2.939287464e-11 -1.174140509e-11)
(0 -3.068771344e-11 -1.014630415e-11)
(0 -3.180846668e-11 -8.229675552e-12)
(0 -3.26704741e-11 -5.958695219e-12)
(0 -3.316549139e-11 -3.302782564e-12)
(0 -3.315636003e-11 -2.363432242e-13)
(0 -3.247012948e-11 3.255902453e-12)
(0 -3.088925471e-11 7.170021177e-12)
(0 -2.81404026e-11 1.146591085e-11)
(0 -2.388104989e-11 1.603768282e-11)
(0 -1.768524269e-11 2.066279848e-11)
(0 -9.032374256e-12 2.492222442e-11)
(0 2.693912034e-12 2.808512607e-11)
(0 1.818717245e-11 2.896415005e-11)
(0 3.817667399e-11 2.576754938e-11)
(0 6.338869217e-11 1.600352274e-11)
(0 9.459692448e-11 -3.509583543e-12)
(0 1.32859329e-10 -3.660950448e-11)
(0 1.79490318e-10 -8.815872084e-11)
(0 2.333779086e-10 -1.653792567e-10)
(0 2.793589445e-10 -2.779970013e-10)
(0 2.658472649e-10 -4.217170973e-10)
(0 1.145719461e-10 -5.136566554e-10)
(0 4.030147783e-12 -3.159881989e-10)
(0 -1.695498074e-12 2.08132981e-12)
(0 -5.075692554e-12 1.70611342e-12)
(0 -6.643626364e-12 -8.39893743e-12)
(0 7.802662854e-12 -3.350716952e-11)
(0 2.298556988e-11 -1.171753451e-11)
(0 2.031396436e-11 -3.672617009e-13)
(0 1.612802351e-11 -2.374568186e-12)
(0 1.625858975e-11 -4.029235856e-12)
(0 1.827784322e-11 -3.92635634e-12)
(0 2.069719996e-11 -2.28387037e-12)
(0 2.280677088e-11 5.833563111e-13)
(0 2.405902033e-11 4.596921754e-12)
(0 2.399696961e-11 9.17293363e-12)
(0 2.258792993e-11 1.350759513e-11)
(0 2.013532176e-11 1.714287129e-11)
(0 1.701460721e-11 1.987972029e-11)
(0 1.359400198e-11 2.165289581e-11)
(0 1.020292156e-11 2.255107596e-11)
(0 7.072731614e-12 2.278809555e-11)
(0 4.303497222e-12 2.262372964e-11)
(0 1.874995646e-12 2.229132139e-11)
(0 -3.182595388e-13 2.195714454e-11)
(0 -2.429264325e-12 2.170481321e-11)
(0 -4.625639701e-12 2.153216708e-11)
(0 -7.059005441e-12 2.135167125e-11)
(0 -9.831619922e-12 2.09947985e-11)
(0 -1.295911786e-11 2.022774773e-11)
(0 -1.633661513e-11 1.879314128e-11)
(0 -1.972883196e-11 1.648377787e-11)
(0 -2.280539357e-11 1.322306827e-11)
(0 -2.520380197e-11 9.090450787e-12)
(0 -2.656169537e-11 4.298148551e-12)
(0 -2.659352026e-11 -6.894729327e-13)
(0 -2.534992194e-11 -5.069724283e-12)
(0 -2.3302445e-11 -8.264269491e-12)
(0 -2.100931339e-11 -1.019996149e-11)
(0 -1.91866331e-11 -1.05671074e-11)
(0 -1.932371304e-11 -9.148465391e-12)
(0 -2.383907368e-11 -7.345395685e-12)
(0 -2.690770613e-11 -1.880966997e-11)
(0 -1.22892329e-11 -4.051833826e-11)
(0 1.397077925e-12 -1.536992659e-11)
(0 -1.02326409e-12 -5.268684604e-12)
(0 -1.572987744e-12 -1.629142276e-12)
(0 -2.634991576e-10 -5.155782735e-11)
(0 -5.521945835e-10 1.441197394e-10)
(0 -7.702938603e-10 6.303574751e-10)
(0 -7.295984337e-10 1.080941978e-09)
(0 -5.268602093e-10 1.315401305e-09)
(0 -2.647806377e-10 1.245992398e-09)
(0 -2.583757331e-11 8.181380738e-10)
(0 1.285925098e-11 -4.185965845e-23)
(0 1.891179578e-13 -3.755705517e-13)
(0 1.238141639e-13 -8.77890662e-13)
(0 6.454363594e-14 -1.345472537e-12)
(0 -7.340104524e-16 -1.82237967e-12)
(0 -7.689787071e-14 -2.31384833e-12)
(0 -1.677250663e-13 -2.816932983e-12)
(0 -2.760243095e-13 -3.327826246e-12)
(0 -4.040274776e-13 -3.843279118e-12)
(0 -5.53562902e-13 -4.361047515e-12)
(0 -7.261591878e-13 -4.87949616e-12)
(0 -9.23114698e-13 -5.397613642e-12)
(0 -1.145554103e-12 -5.914583296e-12)
(0 -1.394479686e-12 -6.429883232e-12)
(0 -1.670818547e-12 -6.942951138e-12)
(0 -1.97546498e-12 -7.453366503e-12)
(0 -2.30930771e-12 -7.960567002e-12)
(0 -2.673246307e-12 -8.464060661e-12)
(0 -3.068200496e-12 -8.963154554e-12)
(0 -3.495119696e-12 -9.45717963e-12)
(0 -3.954993836e-12 -9.945223342e-12)
(0 -4.448863688e-12 -1.042635976e-11)
(0 -4.977823842e-12 -1.089937889e-11)
(0 -5.543014415e-12 -1.136301093e-11)
(0 -6.145612962e-12 -1.181564858e-11)
(0 -6.786839776e-12 -1.22555683e-11)
(0 -7.467981279e-12 -1.268065311e-11)
(0 -8.190412641e-12 -1.308860511e-11)
(0 -8.955583857e-12 -1.347663887e-11)
(0 -9.76494437e-12 -1.384164133e-11)
(0 -1.061981442e-11 -1.417981042e-11)
(0 -1.152125372e-11 -1.448677926e-11)
(0 -1.246999351e-11 -1.475726794e-11)
(0 -1.346645224e-11 -1.498525805e-11)
(0 -1.451078061e-11 -1.516369779e-11)
(0 -1.56028121e-11 -1.528466586e-11)
(0 -1.674180524e-11 -1.533898024e-11)
(0 -1.792595748e-11 -1.531619343e-11)
(0 -1.915180363e-11 -1.520408602e-11)
(0 -2.041365912e-11 -1.498871151e-11)
(0 -2.170318846e-11 -1.465417707e-11)
(0 -2.300897069e-11 -1.418311288e-11)
(0 -2.431576928e-11 -1.355686267e-11)
(0 -2.560322671e-11 -1.275619268e-11)
(0 -2.684394228e-11 -1.17616439e-11)
(0 -2.800113862e-11 -1.055453996e-11)
(0 -2.902617924e-11 -9.118075074e-12)
(0 -2.985594482e-11 -7.439560284e-12)
(0 -3.040975734e-11 -5.513212016e-12)
(0 -3.058536997e-11 -3.344515898e-12)
(0 -3.025364435e-11 -9.559638186e-13)
(0 -2.92516328e-11 1.603859816e-12)
(0 -2.737387709e-11 4.246309715e-12)
(0 -2.436196582e-11 6.819486975e-12)
(0 -1.989325836e-11 9.071074739e-12)
(0 -1.357123807e-11 1.058945424e-11)
(0 -4.922105649e-12 1.071609288e-11)
(0 6.595376851e-12 8.423943714e-12)
(0 2.155771399e-11 2.16694711e-12)
(0 4.051280664e-11 -1.027867469e-11)
(0 6.387610265e-11 -3.193898849e-11)
(0 9.176519158e-11 -6.667861209e-11)
(0 1.23659274e-10 -1.19097899e-10)
(0 1.574246702e-10 -1.941946981e-10)
(0 1.866955903e-10 -2.961315759e-10)
(0 1.959744507e-10 -4.235811892e-10)
(0 1.588111846e-10 -5.554007629e-10)
(0 6.092085782e-11 -6.252025186e-10)
(0 -1.924332291e-11 -5.222066263e-10)
(0 -2.414929788e-11 -2.974787009e-10)
(0 -9.333280327e-12 1.695499225e-12)
(0 -3.225719093e-11 5.075693704e-12)
(0 5.774865167e-12 -9.94589036e-11)
(0 4.848260718e-11 -3.655612337e-12)
(0 2.574263744e-11 1.698302519e-11)
(0 1.213900874e-11 -1.934209377e-12)
(0 1.453877238e-11 -6.997455041e-12)
(0 1.895082772e-11 -7.385440314e-12)
(0 2.310711153e-11 -5.395490656e-12)
(0 2.667582068e-11 -1.977959441e-12)
(0 2.901072387e-11 3.576201242e-12)
(0 2.912552005e-11 1.014531151e-11)
(0 2.709450728e-11 1.597861555e-11)
(0 2.365533009e-11 2.056606473e-11)
(0 1.941961473e-11 2.381534798e-11)
(0 1.49149091e-11 2.56452227e-11)
(0 1.063985601e-11 2.62272785e-11)
(0 6.92818029e-12 2.595493968e-11)
(0 3.884403061e-12 2.526929009e-11)
(0 1.424030973e-12 2.453280223e-11)
(0 -6.52446039e-13 2.398368404e-11)
(0 -2.598885128e-12 2.373494344e-11)
(0 -4.683621467e-12 2.378313566e-11)
(0 -7.157885994e-12 2.400901629e-11)
(0 -1.021602107e-11 2.41699485e-11)
(0 -1.39352567e-11 2.390125281e-11)
(0 -1.820188416e-11 2.276372914e-11)
(0 -2.267192802e-11 2.037327414e-11)
(0 -2.684112957e-11 1.657612253e-11)
(0 -3.018660197e-11 1.147765367e-11)
(0 -3.211472653e-11 5.193123626e-12)
(0 -3.191514075e-11 -1.756262026e-12)
(0 -2.953927649e-11 -7.626569068e-12)
(0 -2.599040889e-11 -1.130782789e-11)
(0 -2.19254693e-11 -1.351816483e-11)
(0 -1.768087355e-11 -1.331906697e-11)
(0 -1.552369743e-11 -8.420560931e-12)
(0 -2.939350976e-11 1.030740638e-11)
(0 -5.233774159e-11 -1.045311144e-11)
(0 -1.010275322e-11 -1.057315409e-10)
(0 2.707571557e-11 -1.02326295e-12)
(0 6.513113156e-12 -1.572986603e-12)
(0 -1.594247289e-10 -9.053267213e-11)
(0 -3.629383461e-10 -6.622618728e-11)
(0 -5.548946845e-10 1.309183311e-10)
(0 -6.580598143e-10 4.882358955e-10)
(0 -6.002178831e-10 8.27558233e-10)
(0 -4.232529017e-10 1.012122665e-09)
(0 -1.990513756e-10 9.599271015e-10)
(0 -1.051552055e-12 6.279253397e-10)
(0 1.171860402e-11 -3.363747442e-23)
(0 -2.901300607e-13 -6.914128471e-13)
(0 -3.677225044e-13 -9.645685849e-13)
(0 -4.347664167e-13 -1.341535732e-12)
(0 -5.046967805e-13 -1.769066499e-12)
(0 -5.836029957e-13 -2.226002198e-12)
(0 -6.7592503e-13 -2.700673913e-12)
(0 -7.848310249e-13 -3.185766987e-12)
(0 -9.127597608e-13 -3.676513151e-12)
(0 -1.061667348e-12 -4.16984616e-12)
(0 -1.233158921e-12 -4.663780457e-12)
(0 -1.428574165e-12 -5.157034154e-12)
(0 -1.649052412e-12 -5.64871154e-12)
(0 -1.895590093e-12 -6.13815154e-12)
(0 -2.169092118e-12 -6.624777303e-12)
(0 -2.47041509e-12 -7.108058837e-12)
(0 -2.800392856e-12 -7.587430943e-12)
(0 -3.159850686e-12 -8.062294714e-12)
(0 -3.549615289e-12 -8.531955486e-12)
(0 -3.970524463e-12 -8.995637185e-12)
(0 -4.423439112e-12 -9.452427617e-12)
(0 -4.909252621e-12 -9.90129887e-12)
(0 -5.428889821e-12 -1.034105096e-11)
(0 -5.983296541e-12 -1.077032689e-11)
(0 -6.573430117e-12 -1.118755223e-11)
(0 -7.200264374e-12 -1.15909482e-11)
(0 -7.864806779e-12 -1.197846773e-11)
(0 -8.568104307e-12 -1.234779268e-11)
(0 -9.311205576e-12 -1.269623659e-11)
(0 -1.009506131e-11 -1.302069798e-11)
(0 -1.092038606e-11 -1.331752627e-11)
(0 -1.178753896e-11 -1.358246875e-11)
(0 -1.269648468e-11 -1.381057055e-11)
(0 -1.364683126e-11 -1.399617547e-11)
(0 -1.463786524e-11 -1.413285855e-11)
(0 -1.566844773e-11 -1.421339045e-11)
(0 -1.673668344e-11 -1.422956078e-11)
(0 -1.783939878e-11 -1.417202189e-11)
(0 -1.897160047e-11 -1.403009363e-11)
(0 -2.012608953e-11 -1.379178368e-11)
(0 -2.129325971e-11 -1.344396833e-11)
(0 -2.246086279e-11 -1.297286132e-11)
(0 -2.361340532e-11 -1.236456287e-11)
(0 -2.473095356e-11 -1.160577737e-11)
(0 -2.578744641e-11 -1.068466844e-11)
(0 -2.674884187e-11 -9.592236689e-12)
(0 -2.757136923e-11 -8.324418037e-12)
(0 -2.819979801e-11 -6.885287665e-12)
(0 -2.856532288e-11 -5.291459996e-12)
(0 -2.858262819e-11 -3.578133077e-12)
(0 -2.814594972e-11 -1.807422622e-12)
(0 -2.712416653e-11 -8.054216929e-14)
(0 -2.535510242e-11 1.44388606e-12)
(0 -2.26395959e-11 2.521747997e-12)
(0 -1.873703291e-11 2.780761142e-12)
(0 -1.336591942e-11 1.657009067e-12)
(0 -6.215429548e-12 -1.695335621e-12)
(0 3.023660065e-12 -8.524108593e-12)
(0 1.459720233e-11 -2.062305836e-11)
(0 2.857945674e-11 -4.047695733e-11)
(0 4.469561575e-11 -7.135962308e-11)
(0 6.203573213e-11 -1.173005801e-10)
(0 7.858176514e-11 -1.827752794e-10)
(0 9.040913479e-11 -2.718326446e-10)
(0 9.056093989e-11 -3.85991986e-10)
(0 6.864447073e-11 -5.196445351e-10)
(0 1.523198868e-11 -6.518767644e-10)
(0 -6.16965184e-11 -7.390686763e-10)
(0 -1.10048368e-10 -7.276170449e-10)
(0 -7.667376193e-11 -6.185648171e-10)
(0 1.236831274e-10 -3.979278311e-10)
(0 2.141957511e-10 9.333280326e-12)
(0 3.210651368e-10 -4.3755226e-11)
(0 1.394274984e-10 7.957083092e-11)
(0 2.203536732e-11 7.388956553e-11)
(0 -7.852456706e-12 -1.534721515e-11)
(0 1.080735882e-11 -1.464079708e-11)
(0 1.987980761e-11 -1.322298214e-11)
(0 2.610468082e-11 -9.934929053e-12)
(0 3.177846277e-11 -6.676510724e-12)
(0 3.618229128e-11 1.540235996e-12)
(0 3.63993839e-11 1.185320594e-11)
(0 3.300868313e-11 1.969572586e-11)
(0 2.797205418e-11 2.532784261e-11)
(0 2.209376518e-11 2.917074593e-11)
(0 1.60059325e-11 3.088561912e-11)
(0 1.051263854e-11 3.075774494e-11)
(0 6.11474321e-12 2.953464532e-11)
(0 2.881359775e-12 2.796520106e-11)
(0 5.893895943e-13 2.658672038e-11)
(0 -1.11611833e-12 2.57098993e-11)
(0 -2.629812703e-12 2.546827611e-11)
(0 -4.351566849e-12 2.58566872e-11)
(0 -6.672192606e-12 2.673200988e-11)
(0 -9.9393834e-12 2.777536671e-11)
(0 -1.436533721e-11 2.844342713e-11)
(0 -1.98645938e-11 2.798712427e-11)
(0 -2.591643857e-11 2.56694351e-11)
(0 -3.170101404e-11 2.123072997e-11)
(0 -3.658680086e-11 1.505050683e-11)
(0 -3.979561104e-11 6.752269069e-12)
(0 -3.941321295e-11 -3.902470367e-12)
(0 -3.490148779e-11 -1.237153844e-11)
(0 -2.919404075e-11 -1.582228721e-11)
(0 -2.302055247e-11 -1.924525372e-11)
(0 -1.408902922e-11 -2.077086543e-11)
(0 4.302760304e-12 -2.152214541e-11)
(0 -2.587162418e-11 6.744942512e-11)
(0 -1.429466531e-10 7.24227757e-11)
(0 -3.248531644e-10 -4.893670135e-11)
(0 -2.164381481e-10 6.513113155e-12)
(0 -3.767059379e-10 -3.12940828e-10)
(0 -2.981096964e-10 -3.063483148e-10)
(0 -3.589939457e-10 -2.045477083e-10)
(0 -4.442490413e-10 9.130498808e-12)
(0 -4.797536941e-10 3.027998171e-10)
(0 -4.184586273e-10 5.742899819e-10)
(0 -2.775152065e-10 7.291395863e-10)
(0 -1.061771589e-10 7.02041807e-10)
(0 3.737907728e-11 4.600293874e-10)
(0 1.084369363e-11 -2.725238424e-23)
(0 -8.470767746e-13 -8.181607608e-13)
(0 -8.800285037e-13 -1.012643183e-12)
(0 -9.322114451e-13 -1.329256621e-12)
(0 -9.960303165e-13 -1.714185483e-12)
(0 -1.072538098e-12 -2.138441456e-12)
(0 -1.163691762e-12 -2.585407125e-12)
(0 -1.271692011e-12 -3.045144457e-12)
(0 -1.398583009e-12 -3.511514924e-12)
(0 -1.546158036e-12 -3.980748543e-12)
(0 -1.715952058e-12 -4.450481111e-12)
(0 -1.909269299e-12 -4.919232004e-12)
(0 -2.127223353e-12 -5.385980947e-12)
(0 -2.370784426e-12 -5.849995072e-12)
(0 -2.640825199e-12 -6.310634868e-12)
(0 -2.938158296e-12 -6.767327826e-12)
(0 -3.263558832e-12 -7.219457737e-12)
(0 -3.617776517e-12 -7.666387107e-12)
(0 -4.001545042e-12 -8.107373127e-12)
(0 -4.415592625e-12 -8.541605426e-12)
(0 -4.860655895e-12 -8.968132099e-12)
(0 -5.337487278e-12 -9.385903245e-12)
(0 -5.846852092e-12 -9.793696702e-12)
(0 -6.389515929e-12 -1.019015753e-11)
(0 -6.966234554e-12 -1.057372166e-11)
(0 -7.577755607e-12 -1.094265243e-11)
(0 -8.224826122e-12 -1.129495536e-11)
(0 -8.908181915e-12 -1.162839417e-11)
(0 -9.628489648e-12 -1.194037348e-11)
(0 -1.038623461e-11 -1.222792181e-11)
(0 -1.118158582e-11 -1.24875589e-11)
(0 -1.201429873e-11 -1.271529701e-11)
(0 -1.288370107e-11 -1.290655404e-11)
(0 -1.37887412e-11 -1.305619808e-11)
(0 -1.472799668e-11 -1.315846341e-11)
(0 -1.569951558e-11 -1.320692958e-11)
(0 -1.670043812e-11 -1.319433394e-11)
(0 -1.772649197e-11 -1.311248822e-11)
(0 -1.877156726e-11 -1.295217408e-11)
(0 -1.982753583e-11 -1.270333326e-11)
(0 -2.088426798e-11 -1.235537156e-11)
(0 -2.192956581e-11 -1.189774231e-11)
(0 -2.294868038e-11 -1.132053217e-11)
(0 -2.392330768e-11 -1.061528143e-11)
(0 -2.483031313e-11 -9.776031024e-12)
(0 -2.564060471e-11 -8.801120184e-12)
(0 -2.631838245e-11 -7.695859273e-12)
(0 -2.682058753e-11 -6.476494416e-12)
(0 -2.709614135e-11 -5.175476787e-12)
(0 -2.708473314e-11 -3.848641226e-12)
(0 -2.671532241e-11 -2.585015703e-12)
(0 -2.590479702e-11 -1.521007152e-12)
(0 -2.455737501e-11 -8.611250166e-13)
(0 -2.256579774e-11 -9.086259109e-13)
(0 -1.981667393e-11 -2.110070503e-12)
(0 -1.620445592e-11 -5.118755758e-12)
(0 -1.166092309e-11 -1.088105034e-11)
(0 -6.209359529e-12 -2.074632608e-11)
(0 -5.513750404e-14 -3.659185928e-11)
(0 6.272507957e-12 -6.09372002e-11)
(0 1.171019315e-11 -9.699445782e-11)
(0 1.436601111e-11 -1.485596421e-10)
(0 1.114237913e-11 -2.195887044e-10)
(0 -2.654851888e-12 -3.132123213e-10)
(0 -3.340611691e-11 -4.29832252e-10)
(0 -8.802529896e-11 -5.640198769e-10)
(0 -1.69800036e-10 -7.008949322e-10)
(0 -2.703026561e-10 -8.156962753e-10)
(0 -3.634276997e-10 -8.841247065e-10)
(0 -4.259813041e-10 -9.05813946e-10)
(0 -4.532049333e-10 -8.754103423e-10)
(0 -5.215999768e-10 -8.186924986e-10)
(0 1.429531465e-21 3.178561225e-11)
(0 -2.318787975e-10 7.6941059e-11)
(0 -3.151567724e-10 -3.162947045e-11)
(0 -7.639135408e-11 -1.187039028e-10)
(0 1.66630054e-11 -2.299666405e-11)
(0 2.365669575e-11 -2.093075365e-11)
(0 2.965358295e-11 -1.444504294e-11)
(0 3.815098574e-11 -1.633321973e-11)
(0 4.754044056e-11 -2.591649658e-12)
(0 4.728100993e-11 1.603235837e-11)
(0 4.056914395e-11 2.562348985e-11)
(0 3.313035017e-11 3.187903228e-11)
(0 2.497739124e-11 3.665455587e-11)
(0 1.650190812e-11 3.796897293e-11)
(0 9.288882213e-12 3.638327576e-11)
(0 4.1356364e-12 3.346024777e-11)
(0 9.364781194e-13 3.046978121e-11)
(0 -8.312707857e-13 2.813889583e-11)
(0 -1.77089031e-12 2.680102059e-11)
(0 -2.452097227e-12 2.657171055e-11)
(0 -3.419887699e-12 2.744382632e-11)
(0 -5.239206489e-12 2.928770982e-11)
(0 -8.50460381e-12 3.175612622e-11)
(0 -1.372349913e-11 3.410967965e-11)
(0 -2.09758762e-11 3.507176032e-11)
(0 -2.942832232e-11 3.308690821e-11)
(0 -3.746005786e-11 2.762666075e-11)
(0 -4.466506288e-11 2.074094135e-11)
(0 -5.106770373e-11 1.066760972e-11)
(0 -5.10389483e-11 -8.232954355e-12)
(0 -4.145909334e-11 -2.213583428e-11)
(0 -3.286412416e-11 -2.036554079e-11)
(0 -2.687404753e-11 -2.686966038e-11)
(0 -1.995776525e-11 -2.899721032e-11)
(0 7.269659332e-11 -1.243445449e-10)
(0 3.105327751e-10 -3.739102216e-11)
(0 2.292823282e-10 7.315303141e-11)
(0 -1.4851896e-21 2.954321525e-11)
(0 2.438232839e-10 -6.864897063e-10)
(0 1.011383464e-10 -6.856206875e-10)
(0 -1.683149586e-11 -5.693017013e-10)
(0 -1.292396738e-10 -3.831376192e-10)
(0 -2.147300409e-10 -1.447190051e-10)
(0 -2.457852766e-10 1.187719001e-10)
(0 -2.062556876e-10 3.494457352e-10)
(0 -1.120238093e-10 4.862268706e-10)
(0 -4.59493246e-13 4.843604811e-10)
(0 8.363413779e-11 3.210004305e-10)
(0 1.01711019e-11 -2.196238017e-23)
(0 -1.349701671e-12 -8.716014493e-13)
(0 -1.368704329e-12 -1.02850433e-12)
(0 -1.411098869e-12 -1.304832324e-12)
(0 -1.468701266e-12 -1.655277984e-12)
(0 -1.541518518e-12 -2.050132926e-12)
(0 -1.630300387e-12 -2.470861538e-12)
(0 -1.73647219e-12 -2.906008089e-12)
(0 -1.861617818e-12 -3.348514034e-12)
(0 -2.007279122e-12 -3.794055967e-12)
(0 -2.174853998e-12 -4.239981684e-12)
(0 -2.365567802e-12 -4.684625086e-12)
(0 -2.58048355e-12 -5.12687933e-12)
(0 -2.820531116e-12 -5.565932048e-12)
(0 -3.08654339e-12 -6.001110437e-12)
(0 -3.37928496e-12 -6.431787382e-12)
(0 -3.699470064e-12 -6.857324602e-12)
(0 -4.047772677e-12 -7.277035268e-12)
(0 -4.424835988e-12 -7.690159908e-12)
(0 -4.831284322e-12 -8.095848061e-12)
(0 -5.267737319e-12 -8.493145466e-12)
(0 -5.734817461e-12 -8.880980807e-12)
(0 -6.233144321e-12 -9.258153826e-12)
(0 -6.76332172e-12 -9.623319417e-12)
(0 -7.325925257e-12 -9.974973842e-12)
(0 -7.921498356e-12 -1.031143403e-11)
(0 -8.55054884e-12 -1.063081181e-11)
(0 -9.21352279e-12 -1.093096975e-11)
(0 -9.910733638e-12 -1.120946754e-11)
(0 -1.064224721e-11 -1.146349849e-11)
(0 -1.140776181e-11 -1.168984123e-11)
(0 -1.220653474e-11 -1.188483041e-11)
(0 -1.303738647e-11 -1.204435528e-11)
(0 -1.389874145e-11 -1.216385446e-11)
(0 -1.478859769e-11 -1.223828366e-11)
(0 -1.570431935e-11 -1.226202562e-11)
(0 -1.664224332e-11 -1.22287709e-11)
(0 -1.759724033e-11 -1.213143248e-11)
(0 -1.856244711e-11 -1.196219664e-11)
(0 -1.952928877e-11 -1.171276513e-11)
(0 -2.048767055e-11 -1.137478009e-11)
(0 -2.142602455e-11 -1.094034921e-11)
(0 -2.233094253e-11 -1.040263666e-11)
(0 -2.318643923e-11 -9.756616732e-12)
(0 -2.397323453e-11 -9.000263794e-12)
(0 -2.466850334e-11 -8.136509184e-12)
(0 -2.524623596e-11 -7.176228867e-12)
(0 -2.567795849e-11 -6.14240186e-12)
(0 -2.593349432e-11 -5.075627699e-12)
(0 -2.598182918e-11 -4.041474431e-12)
(0 -2.579265956e-11 -3.140640663e-12)
(0 -2.533948067e-11 -2.52346484e-12)
(0 -2.460516307e-11 -2.410908685e-12)
(0 -2.359145442e-11 -3.124722814e-12)
(0 -2.233521338e-11 -5.130089147e-12)
(0 -2.093629153e-11 -9.094161772e-12)
(0 -1.960409653e-11 -1.596280259e-11)
(0 -1.873141529e-11 -2.705391548e-11)
(0 -1.900497713e-11 -4.415716679e-11)
(0 -2.156200014e-11 -6.961421789e-11)
(0 -2.819765873e-11 -1.063289487e-10)
(0 -4.16130393e-11 -1.576232849e-10)
(0 -6.565411535e-11 -2.268148877e-10)
(0 -1.054086459e-10 -3.163630245e-10)
(0 -1.668654726e-10 -4.264534961e-10)
(0 -2.556177773e-10 -5.531125388e-10)
(0 -3.741194955e-10 -6.865862952e-10)
(0 -5.18112225e-10 -8.117439288e-10)
(0 -6.757512979e-10 -9.120296175e-10)
(0 -8.35303863e-10 -9.724797903e-10)
(0 -9.855415317e-10 -9.574142439e-10)
(0 -1.096232072e-09 -7.749351745e-10)
(0 -8.78220808e-10 -1.270880191e-10)
(0 -1.427493359e-10 8.500123733e-10)
(0 2.243966025e-10 -9.01149828e-11)
(0 3.227741296e-10 -8.284942692e-11)
(0 1.085805077e-10 6.228878763e-11)
(0 2.843142873e-11 -3.30575224e-11)
(0 3.070221476e-11 -1.05801235e-11)
(0 4.363185608e-11 -4.161850383e-11)
(0 6.854786942e-11 -1.160533657e-11)
(0 6.461452341e-11 2.924264324e-11)
(0 4.885535703e-11 3.488805169e-11)
(0 3.900312022e-11 3.991004363e-11)
(0 2.818370584e-11 4.759896349e-11)
(0 1.573465239e-11 4.795194195e-11)
(0 6.003913366e-12 4.334555766e-11)
(0 2.012486675e-13 3.74527042e-11)
(0 -2.439992158e-12 3.231442284e-11)
(0 -3.079371032e-12 2.869804349e-11)
(0 -2.683303613e-12 2.678369809e-11)
(0 -1.987006977e-12 2.65739657e-11)
(0 -1.635567573e-12 2.805965366e-11)
(0 -2.359892707e-12 3.121915989e-11)
(0 -5.117413578e-12 3.585153993e-11)
(0 -1.104970311e-11 4.116704945e-11)
(0 -2.088736524e-11 4.510382469e-11)
(0 -3.336153814e-11 4.398082239e-11)
(0 -4.404698092e-11 3.545057975e-11)
(0 -5.354585189e-11 2.961684597e-11)
(0 -6.876950675e-11 2.341134841e-11)
(0 -7.221665699e-11 -1.756143018e-11)
(0 -4.703407426e-11 -4.757618485e-11)
(0 -3.392786687e-11 -1.663621126e-11)
(0 -3.165222201e-11 -3.887110634e-11)
(0 -1.115639135e-10 5.599755751e-11)
(0 -3.260848314e-10 -8.747342421e-11)
(0 -2.263802448e-10 -9.271145215e-11)
(0 -4.742835712e-11 9.11843982e-10)
(0 6.29837543e-10 8.210672021e-11)
(0 7.686491096e-10 -5.790310863e-10)
(0 5.873106128e-10 -7.304232132e-10)
(0 3.749329491e-10 -6.559841347e-10)
(0 1.977247238e-10 -4.774396797e-10)
(0 7.402763557e-11 -2.532408827e-10)
(0 1.229922565e-11 -2.181251727e-11)
(0 1.1418143e-11 1.748771407e-10)
(0 5.326910116e-11 2.954999185e-10)
(0 1.059944107e-10 3.122977025e-10)
(0 1.313091814e-10 2.113166806e-10)
(0 9.658087488e-12 -1.726406808e-23)
(0 -1.814738716e-12 -8.824232851e-13)
(0 -1.828179254e-12 -1.019164948e-12)
(0 -1.865832076e-12 -1.268398335e-12)
(0 -1.919200569e-12 -1.591536515e-12)
(0 -1.988762218e-12 -1.960589189e-12)
(0 -2.075003544e-12 -2.356883159e-12)
(0 -2.178976509e-12 -2.76843173e-12)
(0 -2.301958053e-12 -3.187702591e-12)
(0 -2.445279792e-12 -3.610048805e-12)
(0 -2.610205055e-12 -4.032610522e-12)
(0 -2.797873559e-12 -4.453599149e-12)
(0 -3.009290599e-12 -4.871827962e-12)
(0 -3.245341025e-12 -5.286435006e-12)
(0 -3.506814391e-12 -5.696707129e-12)
(0 -3.794425335e-12 -6.101986616e-12)
(0 -4.108826797e-12 -6.501603718e-12)
(0 -4.450619176e-12 -6.894847979e-12)
(0 -4.820360459e-12 -7.280937665e-12)
(0 -5.218579135e-12 -7.659011849e-12)
(0 -5.645789033e-12 -8.028113446e-12)
(0 -6.102495858e-12 -8.38718536e-12)
(0 -6.589190882e-12 -8.735052844e-12)
(0 -7.106336128e-12 -9.070420911e-12)
(0 -7.654349369e-12 -9.391852941e-12)
(0 -8.233593809e-12 -9.6977617e-12)
(0 -8.844362105e-12 -9.986374684e-12)
(0 -9.486837945e-12 -1.025570202e-11)
(0 -1.016101874e-11 -1.050347964e-11)
(0 -1.086660869e-11 -1.072713209e-11)
(0 -1.160291821e-11 -1.092373733e-11)
(0 -1.236881332e-11 -1.109003064e-11)
(0 -1.316272573e-11 -1.122240863e-11)
(0 -1.398267027e-11 -1.131693147e-11)
(0 -1.482616863e-11 -1.136926864e-11)
(0 -1.569000372e-11 -1.137460694e-11)
(0 -1.656984601e-11 -1.132753867e-11)
(0 -1.745991889e-11 -1.122203799e-11)
(0 -1.835290126e-11 -1.105157815e-11)
(0 -1.924012079e-11 -1.080943525e-11)
(0 -2.011185365e-11 -1.048908999e-11)
(0 -2.095742371e-11 -1.008466761e-11)
(0 -2.176494764e-11 -9.591392648e-12)
(0 -2.252092835e-11 -9.006253912e-12)
(0 -2.321017807e-11 -8.329154395e-12)
(0 -2.38164759e-11 -7.564859807e-12)
(0 -2.432398388e-11 -6.725870444e-12)
(0 -2.471913827e-11 -5.836291455e-12)
(0 -2.499287181e-11 -4.93683376e-12)
(0 -2.514358914e-11 -4.091464942e-12)
(0 -2.51818845e-11 -3.39663749e-12)
(0 -2.513819962e-11 -2.994504338e-12)
(0 -2.507465576e-11 -3.091869953e-12)
(0 -2.510275011e-11 -3.987058695e-12)
(0 -2.540992561e-11 -6.10709269e-12)
(0 -2.629989433e-11 -1.005741805e-11)
(0 -2.825318206e-11 -1.668498072e-11)
(0 -3.201489017e-11 -2.715185867e-11)
(0 -3.871579689e-11 -4.300932935e-11)
(0 -5.002965158e-11 -6.624973402e-11)
(0 -6.836074493e-11 -9.929486635e-11)
(0 -9.703553327e-11 -1.448566287e-10)
(0 -1.404329736e-10 -2.055855196e-10)
(0 -2.03925695e-10 -2.834223807e-10)
(0 -2.934247487e-10 -3.786212655e-10)
(0 -4.142802817e-10 -4.885704491e-10)
(0 -5.694613924e-10 -6.068197139e-10)