/*--------------------------------*- C++ -*----------------------------------*\
  =========                 |
  \\      /  F ield         | OpenFOAM: The Open Source CFD Toolbox
   \\    /   O peration     | Website:  https://openfoam.org
    \\  /    A nd           | Version:  6
     \\/     M anipulation  |
\*---------------------------------------------------------------------------*/
FoamFile
{
    version     2.0;
    format      ascii;
    class       volScalarField;
    location    "0.0059";
    object      Num_divU;
}
// * * * * * * * * * * * * * * * * * * * * * * * * * * * * * * * * * * * * * //

dimensions      [0 0 -1 0 0 0 0];

internalField   nonuniform List<scalar> 
600
(
-1.463446621e-09
-9.074256899e-09
-2.361220886e-08
-3.949702009e-08
-5.781904943e-08
-7.880381044e-08
-1.027546478e-07
-1.298283809e-07
-1.599840339e-07
-1.930112212e-07
-2.284507126e-07
-2.656340074e-07
-3.0373021e-07
-3.420096697e-07
-3.798603298e-07
-4.161025294e-07
-4.46956912e-07
-4.63921708e-07
-4.558565086e-07
-4.217599893e-07
-3.826582266e-07
-3.486130422e-07
-3.080628869e-07
-2.638004235e-07
-2.358645453e-07
-2.486286382e-07
-2.882826689e-07
-3.607972394e-07
-3.973091338e-07
-7.101883804e-08
-1.265945223e-09
-8.677381826e-09
-2.314732458e-08
-3.906080931e-08
-5.750742731e-08
-7.875917857e-08
-1.032629556e-07
-1.312741165e-07
-1.629790943e-07
-1.982907933e-07
-2.368933534e-07
-2.779666381e-07
-3.203602211e-07
-3.62680817e-07
-4.039570112e-07
-4.436107994e-07
-4.80273711e-07
-5.074055757e-07
-5.09028846e-07
-4.732584439e-07
-4.306643643e-07
-3.950371891e-07
-3.412577849e-07
-2.721122059e-07
-2.053988786e-07
-1.812118182e-07
-1.890590838e-07
-2.447488748e-07
-3.569897982e-07
-5.868812259e-08
-1.191106463e-09
-8.854158431e-09
-2.396996218e-08
-4.064971837e-08
-6.005051843e-08
-8.259880032e-08
-1.088405196e-07
-1.3927703e-07
-1.742564661e-07
-2.139232903e-07
-2.579413754e-07
-3.053297729e-07
-3.542561195e-07
-4.024886051e-07
-4.484063428e-07
-4.931599296e-07
-5.404063627e-07
-5.888833077e-07
-6.081811322e-07
-5.523952915e-07
-4.941655604e-07
-4.64011629e-07
-3.899313724e-07
-2.814704364e-07
-1.517673414e-07
-9.441015226e-08
-8.45425749e-08
-1.190175759e-07
-2.288424555e-07
5.41633736e-08
-1.220593537e-09
-9.469443889e-09
-2.576535692e-08
-4.375741554e-08
-6.478343575e-08
-8.939332651e-08
-1.183537609e-07
-1.523830625e-07
-1.921257944e-07
-2.379501014e-07
-2.897077855e-07
-3.462605827e-07
-4.050719547e-07
-4.6206642e-07
-5.134002683e-07
-5.607496311e-07
-6.179816828e-07
-7.058360787e-07
-7.727935261e-07
-6.686081934e-07
-5.766031481e-07
-5.708111577e-07
-4.646485405e-07
-3.095967711e-07
-7.792561764e-08
9.018624311e-09
3.446102726e-08
5.270853272e-08
-3.035213946e-08
2.458121118e-07
-1.356476419e-09
-1.053525064e-08
-2.846216379e-08
-4.827119551e-08
-7.148234835e-08
-9.884323739e-08
-1.31331908e-07
-1.699462086e-07
-2.156203631e-07
-2.691029576e-07
-3.306857133e-07
-3.996443672e-07
-4.730965799e-07
-5.442934434e-07
-6.0289454e-07
-6.44368605e-07
-6.932987575e-07
-8.422956256e-07
-1.037296154e-06
-8.418001819e-07
-6.965626817e-07
-7.169419521e-07
-5.492019916e-07
-3.653321281e-07
-1.004685185e-08
1.023175722e-07
1.433064106e-07
3.090001514e-07
2.327140795e-07
5.088779192e-07
-1.615426042e-09
-1.203269509e-08
-3.197701851e-08
-5.400269881e-08
-7.987073772e-08
-1.105368838e-07
-1.472190991e-07
-1.911476071e-07
-2.435249006e-07
-3.055166715e-07
-3.78248856e-07
-4.625031524e-07
-5.569116459e-07
-6.533376659e-07
-7.293949741e-07
-7.550822751e-07
-7.324668328e-07
-9.378148352e-07
-1.358071782e-06
-1.384404658e-06
-1.432677062e-06
-6.103171145e-07
-4.638090239e-07
-1.972156679e-07
-6.098913992e-07
-9.721750327e-08
2.434627341e-07
7.511425757e-07
6.078404727e-07
8.375857801e-07
-2.008379203e-09
-1.395329658e-08
-3.620360566e-08
-6.074827434e-08
-8.961915895e-08
-1.240268803e-07
-1.65420582e-07
-2.151983373e-07
-2.746539836e-07
-3.451307815e-07
-4.285867882e-07
-5.283927195e-07
-6.488598627e-07
-7.884932487e-07
-9.165198607e-07
-9.550651797e-07
-7.370720055e-07
-1.017268041e-06
-8.43178418e-07
-2.150341755e-06
-2.440021913e-06
-5.54960339e-07
-1.209031238e-07
-8.466754456e-08
-1.395293532e-06
-3.928613148e-07
5.807647401e-07
1.750547609e-06
1.31567439e-06
1.2434758e-06
-2.557646804e-09
-1.629475093e-08
-4.103661663e-08
-6.825718324e-08
-1.003223193e-07
-1.387613133e-07
-1.853023932e-07
-2.414648427e-07
-3.083744803e-07
-3.868481698e-07
-4.783223408e-07
-5.876052223e-07
-7.276780317e-07
-9.211118141e-07
-1.157925326e-06
-1.335317052e-06
-1.190336199e-06
-5.712736513e-07
2.595773926e-07
-2.234085664e-06
-1.945493256e-06
6.193784711e-08
4.80789276e-07
3.412613953e-07
-1.178036747e-06
-2.737908243e-06
1.07341643e-06
3.90582396e-06
3.690251632e-06
1.898757431e-06
-3.306730351e-09
-1.910239102e-08
-4.63900084e-08
-7.62367834e-08
-1.114253787e-07
-1.539427184e-07
-2.059557461e-07
-2.692859369e-07
-3.449105301e-07
-4.323922044e-07
-5.297601695e-07
-6.363495777e-07
-7.650109246e-07
-9.779942942e-07
-1.350828898e-06
-1.92785749e-06
-2.523445557e-06
3.785092187e-07
2.710943846e-06
2.691152298e-12
1.380567007e-11
2.042777192e-11
2.661568241e-11
2.727189296e-11
-2.524148335e-12
-9.50772086e-12
3.662218971e-06
1.269051827e-06
4.393532047e-06
3.728405014e-06
-4.367328852e-09
-2.254615571e-08
-5.22755825e-08
-8.43687367e-08
-1.221698891e-07
-1.68307828e-07
-2.256928749e-07
-2.970012228e-07
-3.840449418e-07
-4.862281664e-07
-5.971415792e-07
-6.989771365e-07
-7.600738562e-07
-7.911181799e-07
-1.228448737e-06
-2.483287054e-06
-4.22843239e-06
-1.847707317e-11
-1.009046253e-11
3.192027659e-13
7.488783103e-12
1.185542056e-11
1.869836769e-11
1.138477084e-11
-8.84652718e-13
-3.533243946e-11
-2.816222995e-11
1.060216049e-11
6.127498008e-06
-6.788986457e-13
-6.039434779e-09
-2.711946701e-08
-5.897657796e-08
-9.244127208e-08
-1.31643196e-07
-1.800263539e-07
-2.41456184e-07
-3.20127717e-07
-4.206342157e-07
-5.475348602e-07
-7.021483593e-07
-8.714723298e-07
-9.957345841e-07
-1.072371002e-06
-7.276287307e-07
3.163218829e-07
-6.542611751e-12
-9.245001758e-12
-6.938320903e-12
-5.068515713e-13
3.751789036e-12
6.003019776e-12
1.021371355e-11
1.161773982e-11
-8.902463854e-12
-1.973274985e-11
6.43153037e-14
-1.39324765e-11
-1.643219553e-11
-2.743028901e-11
-9.176037688e-09
-3.405151267e-08
-6.735969826e-08
-1.005723596e-07
-1.390671862e-07
-1.871020058e-07
-2.492004714e-07
-3.305459807e-07
-4.382420761e-07
-5.83956822e-07
-7.884863562e-07
-1.084581932e-06
-1.435683385e-06
-9.057483671e-07
3.901625279e-07
2.506984386e-06
-3.884455946e-12
-7.986457766e-12
-5.469901474e-12
-9.963835215e-13
1.320787646e-12
1.007890229e-12
1.870124337e-12
2.881648664e-12
-2.859045144e-12
-1.3539072e-11
-6.813016049e-12
-1.014306187e-11
-2.261146562e-11
-1.109974086e-11
-1.634963402e-08
-4.623156219e-08
-7.931607323e-08
-1.094578285e-07
-1.442081981e-07
-1.884928033e-07
-2.466345463e-07
-3.22847331e-07
-4.216702368e-07
-5.48580231e-07
-7.111681977e-07
-9.279656682e-07
-1.481631819e-06
-2.261651884e-06
-2.262274945e-06
-2.982549744e-12
-7.802018246e-12
-9.681233933e-12
-7.539156065e-12
-4.091432027e-12
-2.910127907e-12
-3.703023344e-12
-3.232892431e-12
-9.949442242e-13
-2.443972804e-12
-5.245260215e-12
-5.166150208e-12
-1.101197617e-11
-1.205979452e-11
-1.770198869e-11
-3.627959545e-08
-7.034670031e-08
-9.813489927e-08
-1.201635608e-07
-1.472876219e-07
-1.845876924e-07
-2.35730313e-07
-3.04027794e-07
-3.927272751e-07
-5.044009512e-07
-6.39471763e-07
-8.137549932e-07
-1.580360037e-06
-2.557717804e-06
-2.032128744e-06
-7.910346114e-12
-1.275769736e-11
-1.441652597e-11
-1.282208447e-11
-1.036225709e-11
-9.228204046e-12
-9.036683265e-12
-6.518021498e-12
-8.610042372e-13
3.026588576e-12
2.713681243e-12
2.086023679e-12
-2.453030414e-12
-9.119923019e-12
-8.958703609e-12
-9.578904159e-08
-1.201059388e-07
-1.275981609e-07
-1.327951274e-07
-1.476612739e-07
-1.750330626e-07
-2.168409663e-07
-2.761211117e-07
-3.585423515e-07
-4.745487275e-07
-6.408321708e-07
-8.636112168e-07
-8.077817058e-07
-8.333682688e-07
1.194867098e-08
-1.170188206e-11
-1.814667807e-11
-2.061369172e-11
-1.861147469e-11
-1.606793319e-11
-1.489325126e-11
-1.217809075e-11
-5.06790096e-12
3.794048904e-12
1.02971878e-11
1.328355427e-11
9.330634629e-12
4.03203342e-12
-3.823844371e-13
-1.261799221e-11
-3.588724818e-07
-2.415210419e-07
-1.691849474e-07
-1.438243818e-07
-1.426278696e-07
-1.579773239e-07
-1.870952364e-07
-2.303241723e-07
-2.912167616e-07
-3.781038962e-07
-5.054434551e-07
-6.77073533e-07
-5.647004279e-07
-5.02048981e-07
2.270598384e-07
-1.355392913e-11
-1.928726367e-11
-1.997008902e-11
-2.281882727e-11
-2.23539493e-11
-1.888100492e-11
-1.227484948e-11
-4.44528546e-13
1.110790754e-11
1.699328737e-11
1.367454031e-11
1.640892592e-11
1.131107964e-11
7.847398079e-13
-2.622121501e-13
-4.108995647e-07
-2.626252821e-07
-1.703220941e-07
-1.3543452e-07
-1.265237354e-07
-1.325613909e-07
-1.481893371e-07
-1.703979787e-07
-1.968262363e-07
-2.241352684e-07
-2.459174684e-07
-2.702324525e-07
-8.659505566e-07
-1.54173451e-06
-1.292211804e-06
-1.019590102e-11
-1.392447261e-11
-2.5287365e-11
-2.387432011e-11
-2.305341479e-11
-2.028398754e-11
-9.059081894e-12
4.977785076e-12
1.525045296e-11
1.675080122e-11
2.682699004e-11
1.501765671e-11
1.434938762e-11
1.944265581e-11
-1.015667264e-11
-1.679102774e-07
-1.473878139e-07
-1.196371163e-07
-1.042969744e-07
-9.952532753e-08
-1.016077345e-07
-1.069526297e-07
-1.122743896e-07
-1.143944914e-07
-1.103601357e-07
-9.859742518e-08
-8.559049444e-08
-3.259548188e-07
-5.126342606e-07
-2.086431089e-06
-4.695752179e-12
-1.103627663e-11
-8.072760575e-12
-3.564002336e-11
-3.455076545e-11
-2.179663984e-11
-3.519401715e-12
1.329854191e-11
1.87060834e-11
1.949109928e-11
-3.530322748e-12
4.30767018e-11
3.670015073e-11
-3.179810651e-11
1.947114607e-11
-3.786483859e-08
-6.008176288e-08
-6.52180934e-08
-6.707067705e-08
-6.863285797e-08
-6.944931116e-08
-6.731655532e-08
-5.961161201e-08
-4.419635537e-08
-2.211723054e-08
-2.368499161e-09
-7.2967642e-09
-1.576071989e-08
6.842847349e-07
1.509565533e-06
3.837228406e-06
5.383111978e-12
-6.369491209e-11
-6.225078258e-11
-4.901457782e-11
-2.387591932e-11
-1.182233228e-13
1.330224376e-11
7.281010063e-12
-1.376156047e-11
9.258140143e-11
8.467160265e-11
-5.297292671e-12
4.134882186e-11
-4.341859004e-11
5.2723296e-08
7.542375315e-09
-1.760143796e-08
-3.206018532e-08
-3.926133771e-08
-3.949017263e-08
-3.084702749e-08
-9.529206603e-09
2.996670123e-08
9.610226563e-08
2.045164008e-07
3.920444846e-07
7.568703818e-07
1.420540224e-06
3.212952387e-06
2.269342426e-06
-3.953467009e-11
-4.854855367e-11
-7.138070021e-11
-6.150942311e-11
-1.445840227e-11
1.562639855e-11
2.058736656e-11
4.508269189e-12
7.108886814e-11
1.019989643e-10
1.075936983e-10
5.031876649e-11
-2.4281712e-11
9.72044786e-11
)
;

boundaryField
{
    lowerWall
    {
        type            calculated;
        value           nonuniform 0();
    }
    atmosphere
    {
        type            calculated;
        value           nonuniform List<scalar> 
20
(
-1.463446621e-09
-1.265945223e-09
-1.191106463e-09
-1.220593537e-09
-1.356476419e-09
-1.615426042e-09
-2.008379203e-09
-2.557646804e-09
-3.306730351e-09
-4.367328852e-09
-6.039434779e-09
-9.176037688e-09
-1.634963402e-08
-3.627959545e-08
-9.578904159e-08
-3.588724818e-07
-4.108995647e-07
-1.679102774e-07
-3.786483859e-08
5.2723296e-08
)
;
    }
    rightWall
    {
        type            empty;
    }
    leftWall
    {
        type            empty;
    }
    frontAndBack
    {
        type            calculated;
        value           nonuniform List<scalar> 
30
(
-1.463446621e-09
-9.074256899e-09
-2.361220886e-08
-3.949702009e-08
-5.781904943e-08
-7.880381044e-08
-1.027546478e-07
-1.298283809e-07
-1.599840339e-07
-1.930112212e-07
-2.284507126e-07
-2.656340074e-07
-3.0373021e-07
-3.420096697e-07
-3.798603298e-07
-4.161025294e-07
-4.46956912e-07
-4.63921708e-07
-4.558565086e-07
-4.217599893e-07
-3.826582266e-07
-3.486130422e-07
-3.080628869e-07
-2.638004235e-07
-2.358645453e-07
-2.486286382e-07
-2.882826689e-07
-3.607972394e-07
-3.973091338e-07
-7.101883804e-08
)
;
    }
    procBoundary0to1
    {
        type            processor;
        value           nonuniform List<scalar> 
20
(
1.645868026e-11
1.698943098e-11
1.721838544e-11
1.730500087e-11
1.754237386e-11
2.340911737e-11
2.500726449e-11
-3.947732662e-13
1.277488763e-11
-4.774429139e-11
-1.173370755e-11
-2.289970961e-11
-1.658344468e-11
-2.168220534e-11
-1.440062372e-11
-1.972500737e-11
-4.19652449e-12
-2.818476932e-11
3.681636365e-11
-4.202293239e-11
)
;
    }
    procBoundary0to2
    {
        type            processor;
        value           nonuniform List<scalar> 
30
(
1.142091409e-07
5.581441757e-08
1.886518899e-08
-3.96779327e-09
-1.525813017e-08
-1.527560906e-08
-1.610993542e-09
3.072487354e-08
9.021202712e-08
1.907298126e-07
3.563973057e-07
6.303166847e-07
1.0858073e-06
1.783063558e-06
2.340815468e-06
2.432688627e-06
-1.218624811e-06
-7.674564424e-11
-8.107608531e-11
-4.466798751e-11
3.604978552e-12
3.601422359e-11
3.200379521e-11
6.925535963e-12
2.853248469e-11
1.498170835e-10
8.992091796e-11
2.491469951e-11
1.542177917e-06
-4.155813153e-11
)
;
    }
}


// ************************************************************************* //
