/*--------------------------------*- C++ -*----------------------------------*\
  =========                 |
  \\      /  F ield         | OpenFOAM: The Open Source CFD Toolbox
   \\    /   O peration     | Website:  https://openfoam.org
    \\  /    A nd           | Version:  6
     \\/     M anipulation  |
\*---------------------------------------------------------------------------*/
FoamFile
{
    version     2.0;
    format      ascii;
    class       volScalarField;
    location    "0.0059";
    object      TRHS;
}
// * * * * * * * * * * * * * * * * * * * * * * * * * * * * * * * * * * * * * //

dimensions      [1 -1 -3 0 0 0 0];

internalField   nonuniform List<scalar> 
600
(
-1.420846722e-10
-8.934705342e-10
-2.336208954e-09
-3.913099576e-09
-5.732996354e-09
-7.81843833e-09
-1.019985219e-08
-1.289314011e-08
-1.589454778e-08
-1.918350255e-08
-2.271464708e-08
-2.642177427e-08
-3.022247161e-08
-3.404443512e-08
-3.782705055e-08
-4.145281389e-08
-4.454407251e-08
-4.625071909e-08
-4.545856283e-08
-4.20671185e-08
-3.81784642e-08
-3.479808895e-08
-3.076900234e-08
-2.636950902e-08
-2.360242947e-08
-2.490396896e-08
-2.889199903e-08
-3.616216599e-08
-3.983167894e-08
-8.927618697e-09
-1.223383677e-10
-8.537539169e-10
-2.289619934e-09
-3.869309533e-09
-5.70159138e-09
-7.813652671e-09
-1.025028048e-08
-1.303722914e-08
-1.619349123e-08
-1.971083264e-08
-2.35582495e-08
-2.765438674e-08
-3.188489769e-08
-3.611113227e-08
-4.023654926e-08
-4.420380596e-08
-4.787631246e-08
-5.060007268e-08
-5.077710966e-08
-4.721849665e-08
-4.298065636e-08
-3.944192111e-08
-3.408954747e-08
-2.720119913e-08
-2.055568978e-08
-1.816131867e-08
-1.896781056e-08
-2.455458211e-08
-3.579562812e-08
-7.75531263e-09
-1.14785108e-10
-8.711483727e-10
-2.371315547e-09
-4.027369019e-09
-5.954820973e-09
-8.196315484e-09
-1.080654871e-08
-1.383588783e-08
-1.731951001e-08
-2.127235516e-08
-2.566140954e-08
-3.038926336e-08
-3.527339366e-08
-4.009131731e-08
-4.46815488e-08
-4.915958561e-08
-5.389132533e-08
-5.875044753e-08
-6.069561079e-08
-5.513580036e-08
-4.933434136e-08
-4.63424188e-08
-3.895902026e-08
-2.813784695e-08
-1.519180121e-08
-9.478708243e-09
-8.511981379e-09
-1.197566466e-08
-2.297329546e-08
3.396340463e-09
-1.176128019e-10
-9.322008044e-10
-2.549941741e-09
-4.33681977e-09
-6.426433692e-09
-8.873778086e-09
-1.17556382e-08
-1.514409192e-08
-1.910398105e-08
-2.36726316e-08
-2.883585149e-08
-3.448051758e-08
-4.035372129e-08
-4.60486311e-08
-5.11814917e-08
-5.592033471e-08
-6.165199684e-08
-7.045019583e-08
-7.716233393e-08
-6.676303436e-08
-5.758387293e-08
-5.702721453e-08
-4.643400444e-08
-3.095166918e-08
-7.806391671e-09
8.680203855e-10
3.394754732e-09
5.205488846e-09
-3.113417329e-09
2.232771386e-08
-1.310331219e-10
-1.038157321e-09
-2.818446635e-09
-4.786529688e-09
-7.094230257e-09
-9.816330815e-09
-1.305076979e-08
-1.689759489e-08
-2.145063158e-08
-2.678526761e-08
-3.293132361e-08
-3.981710273e-08
-4.715514279e-08
-5.427130427e-08
-6.013219497e-08
-6.428512096e-08
-6.91884454e-08
-8.410280907e-08
-1.03620683e-07
-8.40908637e-08
-6.958819442e-08
-7.164720499e-08
-5.489394212e-08
-3.652688557e-08
-1.016886266e-09
1.020308595e-08
1.428776584e-08
3.084561028e-08
2.320679072e-08
4.824411087e-08
-1.567301398e-10
-1.187179893e-09
-3.168602304e-09
-5.357830741e-09
-7.930799569e-09
-1.098312325e-08
-1.463674429e-08
-1.90149629e-08
-2.423843918e-08
-3.042428462e-08
-3.768574729e-08
-4.610174041e-08
-5.553626805e-08
-6.51764631e-08
-7.278443207e-08
-7.536058243e-08
-7.311169284e-08
-9.366396116e-08
-1.357094903e-07
-1.383631555e-07
-1.432113252e-07
-6.099414084e-08
-4.636079555e-08
-1.971757813e-08
-6.099949706e-08
-9.743918063e-09
2.431403945e-08
7.507277468e-08
6.073496253e-08
8.044832539e-08
-1.958093218e-10
-1.378474172e-09
-3.589887889e-09
-6.030538246e-09
-8.903455423e-09
-1.23297606e-08
-1.645451834e-08
-2.141781547e-08
-2.73494444e-08
-3.438425988e-08
-4.27187097e-08
-5.269059425e-08
-6.473184199e-08
-7.869380983e-08
-9.150006596e-08
-9.53639974e-08
-7.358001978e-08
-1.016215805e-07
-8.423542945e-08
-2.149711564e-07
-2.439612238e-07
-5.547038934e-08
-1.207789917e-08
-8.46607056e-09
-1.395384869e-07
-3.930135142e-08
5.805740612e-08
1.750274268e-07
1.315346751e-07
1.198202402e-07
-2.505104876e-10
-1.611850311e-09
-4.071876158e-09
-6.779756345e-09
-9.971939942e-09
-1.380141608e-08
-1.844115559e-08
-2.404334875e-08
-3.072095842e-08
-3.855616355e-08
-4.769319046e-08
-5.861353043e-08
-7.261605416e-08
-9.195873642e-08
-1.156444939e-07
-1.333947361e-07
-1.189144862e-07
-5.703815476e-08
2.602029032e-08
-2.45122698e-07
-2.093282812e-07
-0.0001743473957
-0.0001109651036
-0.0001494647363
-1.343516031e-07
-2.976293453e-07
1.073446422e-07
3.905689951e-07
3.690079352e-07
1.828814511e-07
-3.25177324e-10
-1.891856509e-09
-4.606024794e-09
-7.576365534e-09
-1.108100692e-08
-1.531869173e-08
-2.050623011e-08
-2.68259966e-08
-3.437604058e-08
-4.311304429e-08
-5.284040759e-08
-6.349217255e-08
-7.635397903e-08
-9.765156953e-08
-1.349388118e-07
-1.926534013e-07
-2.522233727e-07
-0.0001712422814
-0.0007740873066
167.3375045
-0.005864834831
69.16524582
44.03840478
59.30549084
-0.006562082662
144.7813271
-0.0004247912324
1.121501692e-07
4.393493109e-07
3.601162049e-07
-4.309568347e-10
-2.235437213e-09
-5.19350915e-09
-8.388614577e-09
-1.215500898e-08
-1.675556737e-08
-2.24813837e-08
-2.960023849e-08
-3.829358431e-08
-4.85021387e-08
-5.958528423e-08
-6.976252098e-08
-7.586802796e-08
-7.897081539e-08
-1.227052045e-07
-2.482016945e-07
-4.562204343e-07
67.93940422
139.838192
0
0
0
0
0
0
0
23.86716737
106.5964686
-0.0002681153253
-0.0001400846667
-5.977463835e-10
-2.691770927e-09
-5.862520384e-09
-9.195306279e-09
-1.310278968e-08
-1.79292464e-08
-2.406119398e-08
-3.191821193e-08
-4.195977615e-08
-5.464196734e-08
-7.00967768e-08
-8.70239674e-08
-9.944602115e-08
-1.071056406e-07
-7.261479486e-08
-0.0001722524996
68.33770731
0
0
0
0
0
0
0
0
0
0
0
384.7933079
-0.002109749049
-9.10577916e-10
-3.383357745e-09
-6.69939383e-09
-1.000808751e-08
-1.384655652e-08
-1.864024715e-08
-2.484137676e-08
-3.296827966e-08
-4.373136598e-08
-5.829747282e-08
-7.874616755e-08
-1.08352488e-07
-1.434607881e-07
-9.046841369e-08
3.909722841e-08
-0.0007853685902
141.4249345
0
0
0
0
0
0
0
0
0
0
0
-0.005128010861
-4.382135836e-05
-1.625877005e-09
-4.59818483e-09
-7.892587935e-09
-1.0896253e-08
-1.43628911e-08
-1.878443655e-08
-2.459292483e-08
-3.220970246e-08
-4.20886648e-08
-5.47773946e-08
-7.10346243e-08
-9.271265012e-08
-1.480760147e-07
-2.260613677e-07
-2.47663077e-07
170.2180285
0
0
0
0
0
0
0
0
0
0
0
0
0
-0.001403000509
-3.612846983e-09
-7.002828841e-09
-9.769967619e-09
-1.196605292e-08
-1.467390343e-08
-1.840074358e-08
-2.351302884e-08
-3.034202148e-08
-3.921245164e-08
-5.038138884e-08
-6.389071117e-08
-8.13211225e-08
-1.579824543e-07
-2.557133244e-07
-2.173116859e-07
-0.005605843987
0
0
0
0
0
0
0
0
0
0
0
0
0
0
-9.545489474e-09
-1.196390916e-08
-1.270857057e-08
-1.322806524e-08
-1.471540794e-08
-1.745391523e-08
-2.163690249e-08
-2.756829104e-08
-3.581511156e-08
-4.742166881e-08
-6.405676729e-08
-8.634157025e-08
-8.076471342e-08
-8.332718999e-08
-0.0002142201157
84.98058361
0
0
0
0
0
0
0
0
0
0
0
0
0
0
-3.577359603e-08
-2.406864151e-08
-1.685600136e-08
-1.433070241e-08
-1.421812315e-08
-1.575906964e-08
-1.867723222e-08
-2.3007641e-08
-2.910587511e-08
-3.780498424e-08
-5.055042128e-08
-6.772545844e-08
-5.649985907e-08
-5.02471364e-08
-0.0002081199232
82.56918763
0
0
0
0
0
0
0
0
0
0
0
0
0
0
-4.09566813e-08
-2.617215733e-08
-1.69713448e-08
-1.349804995e-08
-1.261761687e-08
-1.323070806e-08
-1.480331866e-08
-1.703538735e-08
-1.969113443e-08
-2.24366011e-08
-2.463069738e-08
-2.7079024e-08
-8.666809148e-08
-1.542689102e-07
-1.440146417e-07
-0.005844851033
0
0
0
0
0
0
0
0
0
0
0
0
0
0
-1.672689345e-08
-1.468372379e-08
-1.192140634e-08
-1.039853921e-08
-9.931688822e-09
-1.015068154e-08
-1.069735513e-08
-1.124369067e-08
-1.147193215e-08
-1.108652775e-08
-9.929596178e-09
-8.649268204e-09
-3.270717868e-08
-5.141283848e-08
-2.308908836e-07
162.6843961
0
0
0
0
0
0
0
0
0
0
0
0
0
-0.002528936189
-3.760915142e-09
-5.98199077e-09
-6.500391271e-09
-6.692803929e-09
-6.858049257e-09
-6.950882188e-09
-6.751326937e-09
-5.997214529e-09
-4.474490005e-09
-2.287147725e-09
-3.335821018e-10
-8.470280754e-10
-1.711015417e-09
6.828292084e-08
1.508373398e-07
-0.0007007408054
115.4395655
0
0
0
0
0
0
0
0
0
0
0
-0.00529066684
-1.894237256e-05
5.269721097e-09
7.565228258e-10
-1.758148708e-09
-3.208265069e-09
-3.936119749e-09
-3.970220559e-09
-3.120620686e-09
-1.006858085e-09
2.921967771e-09
9.513004271e-09
2.033154635e-08
3.906282842e-08
7.552687478e-08
1.418793343e-07
3.210958552e-07
-0.0001163443993
46.23581439
0
0
0
0
0
0
0
0
0
0
0
393.7128196
-0.002066295491
)
;

boundaryField
{
    lowerWall
    {
        type            calculated;
        value           nonuniform 0();
    }
    atmosphere
    {
        type            calculated;
        value           nonuniform List<scalar> 
20
(
-1.420846722e-10
-1.223383677e-10
-1.14785108e-10
-1.176128019e-10
-1.310331219e-10
-1.567301398e-10
-1.958093218e-10
-2.505104876e-10
-3.25177324e-10
-4.309568347e-10
-5.977463835e-10
-9.10577916e-10
-1.625877005e-09
-3.612846983e-09
-9.545489474e-09
-3.577359603e-08
-4.09566813e-08
-1.672689345e-08
-3.760915142e-09
5.269721097e-09
)
;
    }
    rightWall
    {
        type            empty;
    }
    leftWall
    {
        type            empty;
    }
    frontAndBack
    {
        type            calculated;
        value           nonuniform List<scalar> 
30
(
-1.420846722e-10
-8.934705342e-10
-2.336208954e-09
-3.913099576e-09
-5.732996354e-09
-7.81843833e-09
-1.019985219e-08
-1.289314011e-08
-1.589454778e-08
-1.918350255e-08
-2.271464708e-08
-2.642177427e-08
-3.022247161e-08
-3.404443512e-08
-3.782705055e-08
-4.145281389e-08
-4.454407251e-08
-4.625071909e-08
-4.545856283e-08
-4.20671185e-08
-3.81784642e-08
-3.479808895e-08
-3.076900234e-08
-2.636950902e-08
-2.360242947e-08
-2.490396896e-08
-2.889199903e-08
-3.616216599e-08
-3.983167894e-08
-8.927618697e-09
)
;
    }
    procBoundary0to1
    {
        type            processor;
        value           nonuniform List<scalar> 
20
(
-0.0007016256525
-0.0007267870745
-0.0007815697776
-0.0008767608228
-0.001034720649
-0.001302726059
-0.001789203814
-0.002771116141
-0.005046438311
55.57092529
452.1333347
17.37719386
0
0
0
0
0
0
7.506527781
425.9718306
)
;
    }
    procBoundary0to2
    {
        type            processor;
        value           nonuniform List<scalar> 
30
(
1.139787699e-08
5.565230916e-09
1.872424402e-09
-4.132598557e-10
-1.549077768e-09
-1.561975032e-09
-2.109052135e-10
3.0034514e-09
8.929912658e-09
1.895771317e-08
3.550055605e-08
6.287088982e-08
1.084032085e-07
1.781198437e-07
2.338967591e-07
2.431108764e-07
-1.617178283e-07
21.92721345
18.22874913
0
0
0
0
0
0
0
-0.005972238653
20.34657071
-5.117104832e-05
-2.519401748e-10
)
;
    }
}


// ************************************************************************* //
