/*--------------------------------*- C++ -*----------------------------------*\
  =========                 |
  \\      /  F ield         | OpenFOAM: The Open Source CFD Toolbox
   \\    /   O peration     | Website:  https://openfoam.org
    \\  /    A nd           | Version:  6
     \\/     M anipulation  |
\*---------------------------------------------------------------------------*/
FoamFile
{
    version     2.0;
    format      ascii;
    class       volScalarField;
    location    "0.0059";
    object      ViscousDissipation;
}
// * * * * * * * * * * * * * * * * * * * * * * * * * * * * * * * * * * * * * //

dimensions      [1 -1 -3 0 0 0 0];

internalField   nonuniform List<scalar> 
600
(
1.112876448e-21
3.489484484e-21
6.196780531e-21
8.061876822e-21
7.991070055e-21
6.135997592e-21
5.42965074e-21
1.331735032e-20
4.334621177e-20
1.156957822e-19
2.550895656e-19
4.841406181e-19
8.114990695e-19
1.218429087e-18
1.654278633e-18
2.053252447e-18
2.369310311e-18
2.59108132e-18
2.681598193e-18
2.467795795e-18
1.747021876e-18
7.583238192e-19
1.546622434e-19
5.384697817e-19
2.372134464e-18
5.673010741e-18
8.785593532e-18
8.593947673e-18
2.969006558e-18
8.250223269e-20
6.350907824e-21
8.622045127e-21
1.102915191e-20
1.243999884e-20
1.180264773e-20
9.28393524e-21
7.807381308e-21
1.480497948e-20
4.385774403e-20
1.154140158e-19
2.549251464e-19
4.862590758e-19
8.187288486e-19
1.230556922e-18
1.660324468e-18
2.027086484e-18
2.288820779e-18
2.494899301e-18
2.706136346e-18
2.731251561e-18
2.172492719e-18
1.243853791e-18
7.002675865e-19
1.110939499e-18
3.001832909e-18
6.639820609e-18
1.027242254e-17
1.041960225e-17
4.764927261e-18
7.170936808e-19
1.695806058e-20
1.920337199e-20
2.136628337e-20
2.23621319e-20
2.114193978e-20
1.779291198e-20
1.506109897e-20
2.007803924e-20
4.610970473e-20
1.135861566e-19
2.489325793e-19
4.784801045e-19
8.14243016e-19
1.23118458e-18
1.647900989e-18
1.944911219e-18
2.066446641e-18
2.177001126e-18
2.593343699e-18
3.131182488e-18
2.857461983e-18
1.878148089e-18
1.279914845e-18
1.600813485e-18
3.554779429e-18
7.894461761e-18
1.262791148e-17
1.366659157e-17
8.871993353e-18
2.2156979e-18
3.633158575e-20
3.867986286e-20
4.073653639e-20
4.148408886e-20
3.985488107e-20
3.58046905e-20
3.177050784e-20
3.434173812e-20
5.605855093e-20
1.16892949e-19
2.44177183e-19
4.681063847e-19
8.071393836e-19
1.237100794e-18
1.649615074e-18
1.848984714e-18
1.703404061e-18
1.545989114e-18
2.289882193e-18
3.79736401e-18
3.888877756e-18
2.38360953e-18
1.404093978e-18
1.533649555e-18
4.003097188e-18
9.846427445e-18
1.639163966e-17
1.896270384e-17
1.702191429e-17
5.227109455e-18
6.913184116e-20
7.18493442e-20
7.417421707e-20
7.515294277e-20
7.364186886e-20
6.936731224e-20
6.429176989e-20
6.415654688e-20
8.026439275e-20
1.313690422e-19
2.451688615e-19
4.57110322e-19
7.990832312e-19
1.262168172e-18
1.720077317e-18
1.863253858e-18
1.354870001e-18
7.050539801e-19
2.266521045e-18
5.293582011e-18
5.482113176e-18
2.378726563e-18
6.669628825e-19
1.03741593e-18
5.67229052e-18
1.375798304e-17
2.215954403e-17
2.62125103e-17
3.146287299e-17
1.098329951e-17
1.216227997e-19
1.251031682e-19
1.282855684e-19
1.302425195e-19
1.296346874e-19
1.258044392e-19
1.200310477e-19
1.169193991e-19
1.26016684e-19
1.638314612e-19
2.568320388e-19
4.455764472e-19
7.845696751e-19
1.312742127e-18
1.941288376e-18
2.283116699e-18
1.739099958e-18
7.423251688e-19
5.55753905e-18
9.103598278e-18
8.600934186e-18
2.451390298e-18
6.436633027e-19
4.169456232e-18
1.701515842e-17
2.201063051e-17
2.849960294e-17
3.10249642e-17
5.292419078e-17
2.155897708e-17
2.014706056e-19
2.061864857e-19
2.109448467e-19
2.147417627e-19
2.158188165e-19
2.128475168e-19
2.061204566e-19
1.988560052e-19
1.985919888e-19
2.187838619e-19
2.820598631e-19
4.295856447e-19
7.422804549e-19
1.360284779e-18
2.389279775e-18
3.615736404e-18
4.988187631e-18
5.459705945e-18
2.936060614e-17
1.441860674e-17
4.393986933e-18
1.264975213e-18
3.611548028e-18
2.012764883e-17
1.643859146e-17
2.449307382e-17
3.052113682e-17
2.09418165e-17
6.926261238e-17
3.971134582e-17
3.171768698e-19
3.235993782e-19
3.306568625e-19
3.370787318e-19
3.402787089e-19
3.376757328e-19
3.279229312e-19
3.124157718e-19
2.968317475e-19
2.9223043e-19
3.165060844e-19
4.028266943e-19
6.38244522e-19
1.291015617e-18
3.01627624e-18
6.81620511e-18
1.478392649e-17
2.36592241e-17
6.524184701e-19
1.083081806e-17
7.311839691e-18
2.150081753e-18
2.216414343e-18
1.855772188e-18
6.797341472e-18
2.756851097e-17
6.74137556e-17
6.11500664e-17
3.350008252e-17
6.764009477e-17
4.770855658e-19
4.855709866e-19
4.955700679e-19
5.052988071e-19
5.106835342e-19
5.067675085e-19
4.890529748e-19
4.556537281e-19
4.101706681e-19
3.644956352e-19
3.405946324e-19
3.738524537e-19
5.379616213e-19
1.098590692e-18
3.624584543e-18
2.044226678e-17
6.476394306e-18
5.003070563e-18
1.358086621e-17
1.694605269e-16
1.65045749e-16
4.597349713e-17
6.345743597e-17
7.591576337e-17
1.83715874e-16
8.994653782e-17
4.258839477e-17
1.456640763e-16
9.013393052e-17
9.665558165e-17
6.87912894e-19
6.984735676e-19
7.119948734e-19
7.260745457e-19
7.343066826e-19
7.27602534e-19
6.955066491e-19
6.291886031e-19
5.273034151e-19
4.065760176e-19
3.203337347e-19
3.958207981e-19
9.533569067e-19
2.857829049e-18
7.430608029e-18
6.604317231e-18
7.576165481e-18
8.640072911e-17
1.878303465e-16
1.876874522e-16
5.494128407e-17
2.972699966e-17
1.351922764e-17
4.936053876e-17
9.745298013e-17
1.270059498e-16
8.228394796e-18
2.208389909e-16
1.007459493e-16
3.271011119e-20
9.527514698e-19
9.643446482e-19
9.819298087e-19
1.002934188e-18
1.017877881e-18
1.011629109e-18
9.644306823e-19
8.551923955e-19
6.710831617e-19
4.348458194e-19
2.833204372e-19
6.871530213e-19
2.974163347e-18
9.832795923e-18
2.416999717e-17
4.032998733e-18
8.949593242e-17
1.816908176e-16
4.060738698e-17
1.303944902e-17
4.388686898e-18
1.305525829e-18
1.533776998e-18
5.682555811e-18
1.660179623e-17
3.16492295e-17
3.649441165e-17
3.417731091e-16
2.865959917e-16
1.940183473e-18
1.26850091e-18
1.276886621e-18
1.298729532e-18
1.332427737e-18
1.364846404e-18
1.3738264e-18
1.329350746e-18
1.196910229e-18
9.503550322e-19
6.184601447e-19
4.610455363e-19
1.664316912e-18
8.436970071e-18
3.986049001e-17
8.928987631e-19
1.147243795e-17
1.92232214e-16
4.344055208e-17
2.297318614e-18
1.361545533e-18
5.397706651e-19
1.902270463e-20
1.61357305e-19
8.444098723e-19
3.489650741e-18
8.075416131e-18
1.489083474e-17
1.495801321e-16
1.36119454e-16
2.009778896e-19
1.622297168e-18
1.615084499e-18
1.640549218e-18
1.697718294e-18
1.767753246e-18
1.821549228e-18
1.822257678e-18
1.730543559e-18
1.523206027e-18
1.245891627e-18
1.153218291e-18
2.06251551e-18
5.637147922e-18
1.664127389e-17
1.251144743e-17
1.569718408e-16
1.841307273e-16
1.31617297e-17
1.475328447e-18
6.495677346e-19
1.824701016e-19
2.445907245e-20
2.246532612e-20
1.988674326e-19
1.088233921e-18
2.623321248e-18
3.652521938e-18
2.828124401e-18
6.184953924e-17
5.590866026e-17
1.982446539e-18
1.934534407e-18
1.964455163e-18
2.063583542e-18
2.199766356e-18
2.336202598e-18
2.431348928e-18
2.442869871e-18
2.347214346e-18
2.183343453e-18
2.109231864e-18
2.36178798e-18
3.339439576e-18
4.532947136e-18
8.313609716e-18
1.590928123e-16
4.610146518e-17
3.137344146e-18
7.120371578e-19
4.246760147e-19
1.745027365e-19
4.305473198e-20
1.258497765e-20
1.410595992e-19
6.398233504e-19
1.360664047e-18
1.599160727e-18
9.298874257e-19
1.665792809e-19
7.216771054e-18
2.266009907e-18
2.163728585e-18
2.211637289e-18
2.382799381e-18
2.617878435e-18
2.873565854e-18
3.101995109e-18
3.24140634e-18
3.215003043e-18
2.935080778e-18
2.314083225e-18
1.456411913e-18
2.472528995e-18
1.261904264e-18
2.110090309e-18
8.568175771e-17
3.146280311e-17
9.818656267e-19
3.15977664e-19
4.52327577e-19
3.205551556e-19
1.890738062e-19
1.674263106e-19
3.280616568e-19
7.346830952e-19
1.19175933e-18
1.247015164e-18
7.962128216e-19
3.60301414e-19
5.43427517e-19
3.13237993e-18
2.324064686e-18
2.35794778e-18
2.619788724e-18
2.977712233e-18
3.383795588e-18
3.787490889e-18
4.103869308e-18
4.184497991e-18
3.784690739e-18
2.608959071e-18
9.93553328e-19
3.365127819e-18
1.570061148e-17
1.773337267e-18
1.026643829e-16
4.35482594e-17
4.483092618e-18
1.405738962e-18
1.019119981e-18
7.951491715e-19
6.371494604e-19
6.318020313e-19
8.373025998e-19
1.232531865e-18
1.579170994e-18
1.509362196e-18
1.027844209e-18
4.827361515e-19
3.055033023e-19
1.369521199e-18
1.885583299e-18
2.29266017e-18
2.721773221e-18
3.226014426e-18
3.809768997e-18
4.44493481e-18
5.057780989e-18
5.504294394e-18
5.560452067e-18
5.06858095e-18
4.743925813e-18
1.012215623e-17
1.312453314e-17
6.211686889e-18
1.640067892e-16
5.228403918e-17
5.489495635e-18
2.656061317e-18
2.352866255e-18
1.990659861e-18
1.72249238e-18
1.696218284e-18
1.965067422e-18
2.439609473e-18
2.782764071e-18
2.520522081e-18
1.884642417e-18
1.953961459e-18
9.910207981e-18
1.160226943e-18
1.644146955e-18
2.133024086e-18
2.669921816e-18
3.308424548e-18
4.077505355e-18
4.981801538e-18
5.992655728e-18
7.040525924e-18
8.038987391e-18
9.022991507e-18
1.051113906e-17
1.405655574e-17
1.211949768e-17
1.23219643e-17
1.334508714e-16
1.382405004e-16
3.455960479e-18
3.165830234e-18
5.296919936e-18
4.749559169e-18
4.076892792e-18
3.869205952e-18
4.324265063e-18
5.284808838e-18
6.098724581e-18
5.214630587e-18
2.803002368e-18
5.634119445e-17
7.696424214e-17
8.774402883e-19
1.342685311e-18
1.856594793e-18
2.456760873e-18
3.196517547e-18
4.124859397e-18
5.279033408e-18
6.674616782e-18
8.29419497e-18
1.008151363e-17
1.193736044e-17
1.364658425e-17
1.426320178e-17
1.530557416e-17
3.271367645e-17
3.369800435e-17
2.194684615e-16
7.594053744e-17
2.260136139e-17
1.810710378e-17
1.182204761e-17
8.880439007e-18
7.665279917e-18
8.827888141e-18
1.215808249e-17
1.770657902e-17
1.755911156e-17
8.34551225e-17
6.83198497e-17
1.655918597e-19
6.69179932e-19
1.053817225e-18
1.529154062e-18
2.131291501e-18
2.915371914e-18
3.944295871e-18
5.279460064e-18
6.962632562e-18
8.976548465e-18
1.115343528e-17
1.295025402e-17
1.297124162e-17
8.662236675e-18
2.274409361e-18
4.329072658e-17
3.509502571e-17
1.20823716e-16
2.659533667e-16
9.839569195e-17
8.244103316e-17
3.00185676e-17
1.764320684e-17
1.190038348e-17
1.56417746e-17
2.77579789e-17
8.986399774e-17
2.067169158e-16
5.563406155e-16
2.133259355e-16
1.686080287e-18
)
;

boundaryField
{
    lowerWall
    {
        type            calculated;
        value           nonuniform 0();
    }
    atmosphere
    {
        type            calculated;
        value           nonuniform List<scalar> 
20
(
9.425394241e-22
6.211276645e-21
1.688098452e-20
3.635059709e-20
6.928157153e-20
1.219415862e-19
2.020085968e-19
3.180112207e-19
4.78356816e-19
6.89931283e-19
9.563597407e-19
1.276366364e-18
1.643574117e-18
2.049624301e-18
2.499122017e-18
4.040295905e-18
9.680731953e-19
8.621627775e-19
6.682745886e-19
5.211236931e-19
)
;
    }
    rightWall
    {
        type            empty;
    }
    leftWall
    {
        type            empty;
    }
    frontAndBack
    {
        type            calculated;
        value           nonuniform List<scalar> 
30
(
5.133377234e-22
2.904682364e-21
5.629018688e-21
7.501690586e-21
7.413436665e-21
5.502426696e-21
4.695190483e-21
1.245117589e-20
4.236393618e-20
1.147003115e-19
2.54297063e-19
4.838621438e-19
8.121200462e-19
1.22052363e-18
1.659068223e-18
2.063002741e-18
2.38612299e-18
2.61245596e-18
2.696109391e-18
2.462111817e-18
1.724144315e-18
7.221643393e-19
1.021505094e-19
4.791128121e-19
2.316292995e-18
5.599793662e-18
8.678914121e-18
8.486761573e-18
2.898786186e-18
8.229041619e-20
)
;
    }
    procBoundary0to1
    {
        type            processor;
        value           nonuniform List<scalar> 
20
(
3.296419074e-19
3.756722023e-19
4.927764539e-19
7.594206098e-19
1.42252167e-18
3.418714185e-18
1.145408027e-17
5.893872118e-17
1.266643919e-16
2.746338502e-16
5.982630057e-16
1.319702049e-16
4.667146792e-17
1.807740602e-17
3.270604592e-18
2.818011614e-18
1.581936396e-17
3.670231981e-17
1.062191981e-16
4.917676919e-16
)
;
    }
    procBoundary0to2
    {
        type            processor;
        value           nonuniform List<scalar> 
30
(
4.894058106e-19
7.854963382e-19
1.191821978e-18
1.750346858e-18
2.522217495e-18
3.582954803e-18
5.014806365e-18
6.884434534e-18
9.189150232e-18
1.173649284e-17
1.390270516e-17
1.430586345e-17
1.122412884e-17
8.416795225e-18
3.949344119e-17
1.028676908e-16
7.510302913e-17
2.261041983e-17
1.137739427e-16
4.012742193e-16
7.867314288e-17
3.1115964e-17
1.002791916e-17
2.281885123e-17
5.143572361e-17
5.013065155e-16
4.09153908e-16
1.167376957e-17
5.963198406e-18
5.772200898e-20
)
;
    }
}


// ************************************************************************* //
