/*--------------------------------*- C++ -*----------------------------------*\
  =========                 |
  \\      /  F ield         | OpenFOAM: The Open Source CFD Toolbox
   \\    /   O peration     | Website:  https://openfoam.org
    \\  /    A nd           | Version:  6
     \\/     M anipulation  |
\*---------------------------------------------------------------------------*/
FoamFile
{
    version     2.0;
    format      ascii;
    class       volScalarField;
    location    "0.003";
    object      Num_divU;
}
// * * * * * * * * * * * * * * * * * * * * * * * * * * * * * * * * * * * * * //

dimensions      [0 0 -1 0 0 0 0];

internalField   nonuniform List<scalar> 
9600
(
-8.982518991e-09
-1.947432622e-08
-2.442250896e-08
-2.391353146e-08
-2.090777976e-08
-1.68774873e-08
-1.279911876e-08
-8.996969085e-09
-5.758649621e-09
-3.041200803e-09
-9.501406298e-10
6.427117258e-10
1.662111578e-09
2.241515012e-09
2.29435076e-09
1.937713517e-09
1.064966658e-09
-2.270392551e-10
-2.066602454e-09
-4.378763418e-09
-7.315506349e-09
-1.082494948e-08
-1.508204132e-08
-2.005710803e-08
-2.594827113e-08
-3.275168171e-08
-4.069243909e-08
-4.979217725e-08
-6.029319305e-08
-7.2224456e-08
-8.582537053e-08
-1.011216044e-07
-1.183518645e-07
-1.375493829e-07
-1.589557542e-07
-1.825935697e-07
-2.086606747e-07
-2.371064059e-07
-2.680290018e-07
-3.012814897e-07
-3.36874614e-07
-3.745914594e-07
-4.143604065e-07
-4.558635717e-07
-4.989003517e-07
-5.430396665e-07
-5.880077621e-07
-6.333843121e-07
-6.78986458e-07
-7.246066929e-07
-7.704256546e-07
-8.16870642e-07
-8.651719383e-07
-9.175239607e-07
-9.780709239e-07
-1.053766697e-06
-1.156229293e-06
-1.303170108e-06
-1.518365779e-06
-1.825046736e-06
-2.225061307e-06
-2.673178635e-06
-3.111865571e-06
-3.83931604e-06
-5.304816377e-06
-1.229668616e-05
-1.903606624e-05
-8.942470248e-06
1.761386745e-11
5.846066261e-11
7.582567362e-11
1.114519674e-10
1.158261015e-10
8.275667693e-11
6.047227092e-11
7.473296841e-11
1.275467512e-10
1.717957266e-10
2.134598165e-10
2.25348647e-10
2.010418916e-10
1.603108897e-10
1.20020044e-10
1.140267537e-10
1.124886832e-10
1.231724146e-10
8.813833546e-11
3.464980355e-11
-3.249466166e-11
-4.359792991e-11
-3.423808151e-11
-1.031248743e-11
-5.789968125e-12
1.709582036e-11
1.932577479e-11
-3.519232019e-11
-1.185581915e-10
-1.818020549e-10
-1.967803123e-10
-1.977955178e-10
-1.581567764e-10
-1.495468404e-10
-1.167690005e-10
-1.017726316e-10
-9.543479169e-11
-1.616976603e-10
-1.896235665e-10
-7.021625602e-11
-3.200980736e-10
-9.153987239e-11
-2.105688465e-10
-4.977477263e-11
-8.45097928e-06
-1.270824676e-05
-6.318500206e-06
-1.022067184e-06
-1.728219575e-07
-6.610637126e-07
-1.898132479e-06
1.393063061e-06
-2.178408837e-08
-3.650643046e-08
-4.005263522e-08
-3.594690918e-08
-2.96193643e-08
-2.308808626e-08
-1.720607195e-08
-1.21695102e-08
-8.048688262e-09
-4.734414874e-09
-2.194236085e-09
-2.988675447e-10
9.699263444e-10
1.715114623e-09
1.924338378e-09
1.670942244e-09
9.138988633e-10
-2.994896481e-10
-2.036545243e-09
-4.275536249e-09
-7.10955073e-09
-1.054207631e-08
-1.469094907e-08
-1.958459448e-08
-2.536750651e-08
-3.209717011e-08
-3.994760639e-08
-4.900220913e-08
-5.945222903e-08
-7.139060297e-08
-8.501370039e-08
-1.00423642e-07
-1.178333255e-07
-1.373667644e-07
-1.59249179e-07
-1.835957941e-07
-2.105907567e-07
-2.402870552e-07
-2.728011501e-07
-3.081356357e-07
-3.463727075e-07
-3.874842798e-07
-4.314936903e-07
-4.78283763e-07
-5.27774345e-07
-5.797826896e-07
-6.342356779e-07
-6.910520092e-07
-7.503475645e-07
-8.123351922e-07
-8.775710657e-07
-9.469652188e-07
-1.022190203e-06
-1.105965539e-06
-1.202810533e-06
-1.319733406e-06
-1.467280906e-06
-1.660147026e-06
-1.917134162e-06
-2.259278534e-06
-2.709641572e-06
-3.302372178e-06
-4.145623998e-06
-5.532880255e-06
-7.890125991e-06
-1.176130876e-05
-1.602248954e-05
-1.348159166e-05
-6.46617343e-06
2.263477196e-11
6.321377265e-11
6.785444279e-11
1.756777034e-11
2.63714408e-11
2.290714261e-11
8.057779152e-11
1.237851153e-10
1.653891111e-10
1.627460432e-10
1.637079106e-10
1.062983788e-10
9.633724769e-11
6.412334415e-11
7.055167016e-11
7.610690292e-11
6.855663804e-11
2.326499381e-11
-2.753539676e-11
-5.84972821e-11
-3.927836417e-11
-1.222758484e-11
4.552721447e-12
1.033966288e-11
4.760092808e-11
3.887157139e-11
-2.677228157e-11
-1.156591784e-10
-8.243969267e-11
-1.146664569e-10
-1.02273827e-10
-1.23079096e-10
-9.566533555e-11
-1.27150617e-10
-9.997141837e-11
-1.181809843e-10
-6.843665584e-11
-1.135269546e-10
-1.811629601e-10
-1.162571251e-10
-5.474876086e-11
5.895848111e-17
-8.812536709e-06
-1.444314172e-05
-1.567568392e-05
-1.018074428e-05
-6.639766144e-06
-4.549560896e-06
-3.716297882e-06
-3.380453308e-06
9.380123043e-07
-5.924965535e-08
-7.039617667e-08
-6.393820701e-08
-5.124194091e-08
-3.92995143e-08
-2.933905286e-08
-2.132081761e-08
-1.497368274e-08
-9.98171658e-09
-6.120755232e-09
-3.179763773e-09
-1.034138421e-09
4.455112178e-10
1.317174815e-09
1.656555227e-09
1.477447012e-09
8.185352895e-10
-3.390015847e-10
-1.986290299e-09
-4.171333328e-09
-6.913353968e-09
-1.028759828e-08
-1.434000662e-08
-1.917303283e-08
-2.48622066e-08
-3.154161484e-08
-3.931798473e-08
-4.835176153e-08
-5.876874894e-08
-7.074232931e-08
-8.441194056e-08
-9.997238288e-08
-1.175944235e-07
-1.375055028e-07
-1.598961844e-07
-1.849859268e-07
-2.129301164e-07
-2.439010994e-07
-2.780203386e-07
-3.154523349e-07
-3.563282732e-07
-4.00807938e-07
-4.489782793e-07
-5.009167202e-07
-5.566329042e-07
-6.161841253e-07
-6.796520101e-07
-7.472535981e-07
-8.193029851e-07
-8.963273e-07
-9.790775333e-07
-1.06873774e-06
-1.167085589e-06
-1.276911632e-06
-1.40244735e-06
-1.550025632e-06
-1.728641352e-06
-1.950561396e-06
-2.231799204e-06
-2.593263707e-06
-3.064687862e-06
-3.696271269e-06
-4.581397285e-06
-5.867667411e-06
-7.625146912e-06
-9.542608413e-06
-9.790526949e-06
-1.091215422e-05
-1.025724122e-05
-6.197546805e-06
2.84001456e-11
-1.041987367e-11
2.5424114e-11
6.696355255e-12
7.315974286e-11
1.196940375e-10
1.566214377e-10
1.465583498e-10
1.665883498e-10
1.209212371e-10
1.374132125e-10
6.145552933e-11
6.950417979e-11
8.276776776e-11
8.782327652e-11
5.50234202e-11
-5.124436356e-12
-6.344732894e-11
-7.040386866e-11
-3.724294897e-11
-4.147431209e-12
1.027377327e-11
5.683634887e-11
9.46827019e-11
4.942569105e-11
-6.533896851e-11
-5.341191408e-11
-1.340028774e-10
-1.037308128e-10
-1.401270719e-10
-1.208955138e-10
-1.609173907e-10
-1.033056487e-10
-1.124372515e-10
-1.583552597e-11
-2.726209835e-10
-8.139198232e-11
-4.435376938e-11
-4.01526648e-11
-1.26689057e-16
-1.041114396e-05
-1.587323046e-05
-1.517683973e-05
-1.292857366e-05
-1.163212551e-05
-9.399822012e-06
-7.314931178e-06
-6.1393151e-06
-5.738480768e-06
-2.861267841e-07
-2.208606205e-07
-1.496209888e-07
-9.731254756e-08
-6.752483873e-08
-4.799856383e-08
-3.435599559e-08
-2.440760332e-08
-1.695234582e-08
-1.131169694e-08
-7.028502775e-09
-3.82818339e-09
-1.491046922e-09
1.065326409e-10
1.081866186e-09
1.484414739e-09
1.375959077e-09
7.62030777e-10
-3.327845516e-10
-1.93648493e-09
-4.055870808e-09
-6.749147037e-09
-1.005209304e-08
-1.405132678e-08
-1.881204321e-08
-2.445257557e-08
-3.10714529e-08
-3.881914831e-08
-4.782170518e-08
-5.82505117e-08
-7.024990189e-08
-8.401393161e-08
-9.972024059e-08
-1.176054159e-07
-1.378881021e-07
-1.608269101e-07
-1.866349828e-07
-2.155432476e-07
-2.477389277e-07
-2.83452776e-07
-3.229039081e-07
-3.663626892e-07
-4.140588607e-07
-4.662210217e-07
-5.23005921e-07
-5.845910212e-07
-6.511585867e-07
-7.230018516e-07
-8.004871689e-07
-8.841317325e-07
-9.745739847e-07
-1.072699708e-06
-1.179689849e-06
-1.297250579e-06
-1.427815379e-06
-1.574965183e-06
-1.743801385e-06
-1.941414084e-06
-2.177221812e-06
-2.463533509e-06
-2.816565661e-06
-3.258752196e-06
-3.821835328e-06
-4.546136519e-06
-5.455832691e-06
-6.469364277e-06
-7.281764425e-06
-7.392919371e-06
-7.299075659e-06
-1.110439728e-05
-1.103147526e-05
-8.711308989e-06
1.020881624e-11
1.683766526e-12
7.210662301e-11
9.7827082e-11
9.708036106e-11
6.103644088e-11
1.370011918e-10
9.001983505e-11
1.282909153e-10
7.153334759e-11
1.245408419e-10
1.143449984e-10
1.139602787e-10
1.061780707e-10
5.287190627e-11
-3.064645813e-11
-8.606646621e-11
-8.166048478e-11
-3.287545995e-11
4.004054331e-12
3.711708172e-11
9.435447158e-11
1.244402575e-10
1.982073854e-11
-4.165996121e-11
-1.19490356e-10
-5.413057906e-11
-1.639715311e-10
-1.845052977e-10
-1.639548192e-10
1.517159316e-11
-1.246370904e-10
-3.406093171e-11
-1.698657602e-10
-7.175424664e-11
-2.577194505e-11
-1.108945448e-11
2.39602979e-15
-1.380041509e-05
-1.891075723e-05
-1.876984224e-05
-1.415865952e-05
-1.313627533e-05
-1.233287067e-05
-1.083513664e-05
-9.519849153e-06
-8.550007213e-06
-8.185717018e-06
-2.037872219e-06
-2.686970341e-07
-1.748419088e-07
-1.090078611e-07
-7.360220101e-08
-5.133831905e-08
-3.629343688e-08
-2.556745098e-08
-1.767712832e-08
-1.176893382e-08
-7.333486053e-09
-4.027853843e-09
-1.633464238e-09
1.368716107e-11
1.013908091e-09
1.449066532e-09
1.358697071e-09
7.773354495e-10
-2.947646427e-10
-1.858276481e-09
-3.946166921e-09
-6.590609442e-09
-9.854691588e-09
-1.38003551e-08
-1.852162392e-08
-2.411353073e-08
-3.070455442e-08
-3.842259592e-08
-4.742459984e-08
-5.786291557e-08
-6.9918851e-08
-8.37763474e-08
-9.965991897e-08
-1.178041612e-07
-1.384781213e-07
-1.61940057e-07
-1.884563278e-07
-2.182698443e-07
-2.516453866e-07
-2.888589388e-07
-3.302373028e-07
-3.761137787e-07
-4.268277313e-07
-4.826707314e-07
-5.43921878e-07
-6.108554038e-07
-6.838152461e-07
-7.632142344e-07
-8.495662251e-07
-9.434572215e-07
-1.045594792e-06
-1.156826633e-06
-1.278241298e-06
-1.411240022e-06
-1.55772484e-06
-1.720297169e-06
-1.902537244e-06
-2.109170335e-06
-2.346179268e-06
-2.620814359e-06
-2.941671152e-06
-3.318493703e-06
-3.760438166e-06
-4.268935057e-06
-4.81834525e-06
-5.32217094e-06
-5.631530769e-06
-5.662870641e-06
-5.812804261e-06
-5.653873573e-06
-4.244890143e-06
6.475482492e-06
1.919546822e-05
9.304642615e-06
3.940813051e-11
1.521282197e-11
-1.567397614e-11
1.576407082e-10
1.09327727e-10
1.870716057e-10
1.57261046e-10
2.343690912e-10
9.151710368e-11
9.330209916e-11
1.285902203e-10
1.130255296e-10
3.56914967e-11
-5.886683183e-11
-1.075138757e-10
-8.037797859e-11
-2.477272315e-11
1.217640466e-11
7.017331211e-11
1.456954011e-10
1.000707465e-10
1.521148262e-11
-8.2787363e-11
-1.787060782e-11
-1.57369108e-10
-1.557185658e-10
-1.769082294e-10
4.659258682e-11
-2.817716504e-10
-2.247460394e-10
-1.079912448e-10
-4.160041385e-11
-2.833865197e-11
-1.709597171e-15
1.130967109e-05
1.285463117e-05
-1.115495742e-06
-1.407031968e-05
-1.484634321e-05
-1.429386716e-05
-1.329938387e-05
-1.244704322e-05
-1.184365885e-05
-1.130761043e-05
-1.081165532e-05
-1.114929421e-05
-4.134707191e-06
-1.486934747e-07
-1.222633123e-07
-9.079470659e-08
-6.617458664e-08
-4.791715441e-08
-3.447559998e-08
-2.447696289e-08
-1.695454276e-08
-1.126350467e-08
-6.96283429e-09
-3.754800054e-09
-1.42618721e-09
1.681812245e-10
1.135215801e-09
1.54332374e-09
1.441978611e-09
8.538348839e-10
-2.105339725e-10
-1.763935817e-09
-3.829232125e-09
-6.451080964e-09
-9.683067662e-09
-1.360054468e-08
-1.828874861e-08
-2.385680614e-08
-3.042497263e-08
-3.813577541e-08
-4.71398965e-08
-5.760805969e-08
-6.972195584e-08
-8.369205747e-08
-9.975041629e-08
-1.181625012e-07
-1.392057895e-07
-1.63169854e-07
-1.903355372e-07
-2.209931884e-07
-2.554481456e-07
-2.940520678e-07
-3.371918355e-07
-3.852805111e-07
-4.38712895e-07
-4.978624207e-07
-5.630850558e-07
-6.34773198e-07
-7.133779567e-07
-7.994287255e-07
-8.935027553e-07
-9.9622598e-07
-1.108271479e-06
-1.23040457e-06
-1.36349966e-06
-1.508586987e-06
-1.666892884e-06
-1.839941864e-06
-2.029608034e-06
-2.238075365e-06
-2.467555193e-06
-2.719794645e-06
-2.995240331e-06
-3.29157406e-06
-3.600621374e-06
-3.902261137e-06
-4.154599479e-06
-4.285535376e-06
-4.206735356e-06
-3.861621717e-06
-3.242033559e-06
-1.766022397e-06
2.184791221e-06
9.074208083e-06
1.211058965e-05
2.681156411e-05
6.15514526e-06
-1.557884468e-11
9.601473334e-11
1.574017982e-10
2.745061583e-10
2.306206674e-10
2.046930891e-10
-1.377559475e-10
2.696050257e-10
9.068933848e-11
5.290112562e-11
4.629901872e-11
-1.669523513e-11
-1.007916675e-10
-1.289513042e-10
-8.377529648e-11
-1.830766218e-11
3.358811122e-11
9.183261063e-11
1.283169441e-10
9.938995113e-11
-2.283359534e-11
1.780880139e-11
6.001532892e-12
2.478258728e-10
-4.21020107e-10
-4.462869627e-11
-2.008783991e-10
-3.305989398e-10
-3.442269492e-10
-9.042221799e-11
-1.040107271e-11
2.632245497e-15
1.84144883e-07
1.850029129e-05
8.594903352e-06
2.581127079e-06
-7.165746735e-06
-1.150972206e-05
-1.251719929e-05
-1.269380035e-05
-1.250348828e-05
-1.250521104e-05
-1.244880911e-05
-1.277615881e-05
-1.401477375e-05
-6.285587448e-06
-9.255082676e-08
-8.454423437e-08
-6.90953711e-08
-5.374830633e-08
-4.057094497e-08
-2.992752244e-08
-2.152332016e-08
-1.495696278e-08
-9.865566935e-09
-5.962324372e-09
-3.024936574e-09
-8.896259022e-10
5.671070902e-10
1.432189946e-09
1.768680634e-09
1.61530832e-09
9.949809569e-10
-8.968559216e-11
-1.649323498e-09
-3.714079614e-09
-6.325975375e-09
-9.545755773e-09
-1.344633032e-08
-1.812030642e-08
-2.367456178e-08
-3.023663192e-08
-3.794764022e-08
-4.696763506e-08
-5.747037708e-08
-6.965324066e-08
-8.373624039e-08
-9.997178176e-08
-1.18635489e-07
-1.400243494e-07
-1.644392534e-07
-1.921891694e-07
-2.235949919e-07
-2.590152849e-07
-2.988533755e-07
-3.435568786e-07
-3.935843913e-07
-4.493845356e-07
-5.113846418e-07
-5.80024917e-07
-6.557890083e-07
-7.392294535e-07
-8.309430961e-07
-9.31545167e-07
-1.04164246e-06
-1.161849532e-06
-1.292796451e-06
-1.435132248e-06
-1.58948456e-06
-1.756428338e-06
-1.936424504e-06
-2.129711951e-06
-2.335998443e-06
-2.553906369e-06
-2.780064247e-06
-3.007841637e-06
-3.225464376e-06
-3.413208138e-06
-3.539392017e-06
-3.555968657e-06
-3.396700165e-06
-2.983166373e-06
-2.22862695e-06
-9.937812162e-07
1.126324976e-06
4.681546036e-06
1.033901122e-05
1.092876406e-05
2.494410693e-05
3.710855148e-05
2.815859228e-05
2.05535783e-06
1.380714328e-10
1.168440605e-10
4.338910195e-11
-3.003432727e-10
4.411063484e-10
2.672359332e-11
1.914574514e-10
8.344246312e-11
2.902412049e-11
-5.565404128e-11
-1.375175478e-10
-1.463427261e-10
-8.069686334e-11
-1.401933322e-11
3.493051026e-11
9.887837493e-11
1.408768799e-10
1.088816378e-10
7.505629079e-11
1.600777162e-10
5.92240489e-10
-8.475045517e-10
-1.361531627e-10
1.152919914e-10
-7.367326864e-11
-2.518499899e-10
-8.605732742e-11
8.119695625e-16
2.866001918e-06
2.069300852e-05
2.290692669e-05
1.570042464e-05
5.383427484e-06
2.361596059e-06
-4.019207495e-06
-8.150853368e-06
-1.037565139e-05
-1.151821179e-05
-1.209383173e-05
-1.291899364e-05
-1.337612449e-05
-1.431720304e-05
-1.649884682e-05
-8.303715763e-06
-5.589905817e-08
-5.552971084e-08
-4.889393802e-08
-4.023318694e-08
-3.156807552e-08
-2.385563488e-08
-1.734961245e-08
-1.202815006e-08
-7.772998245e-09
-4.443900918e-09
-1.911485054e-09
-6.645893451e-11
1.177610321e-09
1.8867544e-09
2.107609485e-09
1.870650135e-09
1.189897873e-09
6.45585214e-11
-1.522193979e-09
-3.601868891e-09
-6.221548839e-09
-9.442543425e-09
-1.334231776e-08
-1.801407268e-08
-2.356881419e-08
-3.013447495e-08
-3.785710207e-08
-4.689960436e-08
-5.744524137e-08
-6.969949698e-08
-8.389629811e-08
-1.002976643e-07
-1.191922276e-07
-1.408844982e-07
-1.656908925e-07
-1.939397285e-07
-2.259869977e-07
-2.622316709e-07
-3.031239817e-07
-3.491488412e-07
-4.008006995e-07
-4.585613442e-07
-5.229116689e-07
-5.943603899e-07
-6.734769146e-07
-7.608842462e-07
-8.572258645e-07
-9.631182698e-07
-1.079136141e-06
-1.205817223e-06
-1.343671079e-06
-1.493142647e-06
-1.654532854e-06
-1.827867228e-06
-2.012724574e-06
-2.207939804e-06
-2.41112356e-06
-2.617869717e-06
-2.820670291e-06
-3.0074676e-06
-3.15984822e-06
-3.250771261e-06
-3.242016989e-06
-3.081952869e-06
-2.704845647e-06
-2.03199567e-06
-9.683635029e-07
6.178263911e-07
2.930642469e-06
6.106976743e-06
9.968317985e-06
1.261457915e-05
1.561924775e-05
2.470899724e-05
3.040279231e-05
5.076039909e-05
3.37293099e-05
3.849327574e-06
-1.407273969e-10
2.022547336e-10
-3.598283075e-12
4.650615851e-10
2.639220831e-10
7.732912745e-11
3.135924088e-12
-8.666749441e-11
-1.62850632e-10
-1.562415345e-10
-8.328393676e-11
-9.629545709e-12
4.072994416e-11
1.092447873e-10
1.834480164e-10
1.386936522e-10
1.333621092e-10
3.988604241e-10
-6.105572197e-10
-2.42192491e-10
5.184364766e-11
6.254414128e-11
-1.841764094e-11
2.964962975e-15
3.640972658e-06
2.60285222e-05
3.924407627e-05
2.197270073e-05
1.525287657e-05
7.802361057e-06
4.77715299e-06
1.871024951e-06
-2.658322564e-06
-6.428625423e-06
-8.855397345e-06
-1.051015065e-05
-1.190630728e-05
-1.313626357e-05
-1.422367851e-05
-1.598749286e-05
-1.88768715e-05
-9.984247509e-06
-3.063725127e-08
-3.358349584e-08
-3.176115908e-08
-2.754732065e-08
-2.237889521e-08
-1.723874576e-08
-1.257071038e-08
-8.552455476e-09
-5.224060079e-09
-2.560832482e-09
-5.123111084e-10
9.764659797e-10
1.956056627e-09
2.466961621e-09
2.539492884e-09
2.191371872e-09
1.428275594e-09
2.422787059e-10
-1.388230975e-09
-3.499214318e-09
-6.140662815e-09
-9.377460599e-09
-1.328908117e-08
-1.797175242e-08
-2.353788683e-08
-3.011809446e-08
-3.786077328e-08
-4.693382228e-08
-5.752656466e-08
-6.985388696e-08
-8.41580969e-08
-1.007101735e-07
-1.198040879e-07
-1.417515317e-07
-1.668785853e-07
-1.955334123e-07
-2.281001241e-07
-2.650129126e-07
-3.067527103e-07
-3.538289195e-07
-4.067533776e-07
-4.66034894e-07
-5.321968949e-07
-6.058129306e-07
-6.875178335e-07
-7.779871496e-07
-8.778823834e-07
-9.878093755e-07
-1.108303868e-06
-1.239847358e-06
-1.382868242e-06
-1.537693265e-06
-1.704422459e-06
-1.882735069e-06
-2.071597527e-06
-2.268852355e-06
-2.470577808e-06
-2.670209438e-06
-2.857358159e-06
-3.016389349e-06
-3.124733247e-06
-3.151024675e-06
-3.053218554e-06
-2.777175556e-06
-2.25627727e-06
-1.412384923e-06
-1.573133589e-07
1.602817824e-06
3.945042419e-06
6.834518198e-06
1.002313802e-05
1.296907613e-05
1.657198297e-05
2.496848108e-05
2.733127535e-05
3.774761877e-05
3.405664598e-05
5.067504725e-05
2.945062899e-05
-4.168455725e-06
-1.073939858e-06
1.887374266e-10
2.90761248e-11
-7.070379363e-11
-9.150026981e-11
-1.492892712e-10
-1.990302251e-10
-1.70387565e-10
-8.40212772e-11
-1.567235074e-11
4.303107857e-11
1.301419134e-10
1.888021655e-10
1.405460319e-10
1.464911263e-10
7.658111483e-11
-3.224446863e-11
7.207509361e-11
5.901630992e-16
-1.862667563e-06
-4.889503759e-06
2.251988283e-05
3.896035079e-05
2.421301821e-05
2.776964201e-05
1.811861417e-05
1.633459671e-05
7.893790054e-06
4.443305824e-06
1.294789926e-06
-1.962339735e-06
-5.249214081e-06
-7.764935585e-06
-9.854531434e-06
-1.157649857e-05
-1.312689085e-05
-1.47057633e-05
-1.703595081e-05
-2.041503341e-05
-1.12431732e-05
-1.227024482e-08
-1.680783004e-08
-1.771474273e-08
-1.640016569e-08
-1.378931435e-08
-1.07241823e-08
-7.663976356e-09
-4.863439648e-09
-2.448572637e-09
-4.696447089e-10
1.064611423e-09
2.165235228e-09
2.850061013e-09
3.13645848e-09
3.037561108e-09
2.558538834e-09
1.695499868e-09
4.331537326e-10
-1.255794175e-09
-3.411684764e-09
-6.088259195e-09
-9.353294701e-09
-1.328924218e-08
-1.799404816e-08
-2.358244076e-08
-3.01867519e-08
-3.795795892e-08
-4.706804827e-08
-5.771197043e-08
-7.011097801e-08
-8.451377527e-08
-1.011953989e-07
-1.204525954e-07
-1.426002911e-07
-1.6797298e-07
-1.969344031e-07
-2.298919615e-07
-2.6730287e-07
-3.096659018e-07
-3.574988477e-07
-4.113218943e-07
-4.716616921e-07
-5.390800966e-07
-6.142002089e-07
-6.977059019e-07
-7.902991261e-07
-8.926443874e-07
-1.00532845e-06
-1.128862795e-06
-1.263708925e-06
-1.410287278e-06
-1.568920957e-06
-1.739685769e-06
-1.922153444e-06
-2.115034672e-06
-2.315669419e-06
-2.519348397e-06
-2.718382411e-06
-2.900951742e-06
-3.049694033e-06
-3.140091092e-06
-3.138680104e-06
-3.00133938e-06
-2.672013889e-06
-2.082445697e-06
-1.153644459e-06
1.987847232e-07
2.049071233e-06
4.423267041e-06
7.235773965e-06
1.028236633e-05
1.341891057e-05
1.722994288e-05
2.280947706e-05
2.453788235e-05
2.493993883e-05
2.201120841e-05
2.024996021e-05
2.491458947e-06
2.567188649e-05
8.10112162e-05
6.682157569e-05
9.343289028e-11
-4.567786764e-11
-1.096078528e-10
-1.739720079e-10
-2.125718454e-10
-1.712594178e-10
-8.309843754e-11
-1.220942139e-11
4.6222998e-11
1.41841409e-10
1.923347055e-10
1.519765911e-10
2.325799124e-10
2.680855083e-10
4.22668889e-10
-1.727269856e-10
6.703260778e-05
7.580793175e-05
2.016043519e-05
-7.360515273e-06
1.033789858e-05
1.212178896e-05
1.505052482e-05
1.494825574e-05
1.347294713e-05
7.996446562e-06
4.061449064e-06
1.100251675e-06
-1.931106739e-06
-4.877801703e-06
-7.462342833e-06
-9.425711339e-06
-1.152548139e-05
-1.338526699e-05
-1.53321251e-05
-1.754364449e-05
-2.134224567e-05
-1.196402111e-05
1.483052114e-09
-3.861513718e-09
-6.367252835e-09
-6.940781737e-09
-6.151708339e-09
-4.6859861e-09
-2.952038039e-09
-1.214768159e-09
3.63255773e-10
1.690175851e-09
2.718289482e-09
3.426480096e-09
3.806635304e-09
3.856715423e-09
3.573747187e-09
2.951513731e-09
1.976210851e-09
6.255019697e-10
-1.133636192e-09
-3.346073455e-09
-6.069196105e-09
-9.373764039e-09
-1.334490968e-08
-1.808271843e-08
-2.370356584e-08
-3.034139874e-08
-3.814957499e-08
-4.730297361e-08
-5.800099786e-08
-7.046890148e-08
-8.495873155e-08
-1.017463298e-07
-1.211284259e-07
-1.434204588e-07
-1.68962266e-07
-1.98129217e-07
-2.313433667e-07
-2.690744192e-07
-3.118246423e-07
-3.601089001e-07
-4.144458316e-07
-4.753746281e-07
-5.434847021e-07
-6.194349022e-07
-7.03933529e-07
-7.976889599e-07
-9.013524118e-07
-1.015494233e-06
-1.140622739e-06
-1.277229672e-06
-1.425813888e-06
-1.586825951e-06
-1.760497133e-06
-1.946555002e-06
-2.143822659e-06
-2.349711736e-06
-2.559543684e-06
-2.765690115e-06
-2.956441703e-06
-3.114590965e-06
-3.21567701e-06
-3.226028463e-06
-3.100846384e-06
-2.782747981e-06
-2.20106393e-06
-1.272187121e-06
9.708697835e-08
1.994314494e-06
4.456367613e-06
7.385478463e-06
1.052883666e-05
1.368430757e-05
1.742182166e-05
2.280986224e-05
2.431379022e-05
2.441613945e-05
2.106788771e-05
1.95823715e-05
1.02218308e-06
2.585309507e-05
8.000566988e-05
6.76165493e-05
2.603853915e-10
-1.223699378e-11
-1.058275149e-10
-1.796301305e-10
-2.136016088e-10
-1.674189789e-10
-7.96002906e-11
-1.211685895e-11
4.82269057e-11
1.371886631e-10
1.820255839e-10
1.464167987e-10
2.010507126e-10
4.41475444e-10
-2.447011724e-10
1.292454884e-10
6.660312189e-05
7.614244861e-05
1.969082279e-05
-7.585474852e-06
9.299736842e-06
1.129893711e-05
1.472034042e-05
1.443266646e-05
1.25759474e-05
7.153635224e-06
3.62401522e-06
1.035575741e-06
-1.830954648e-06
-4.797511374e-06
-7.410140251e-06
-9.482281813e-06
-1.162261597e-05
-1.349817526e-05
-1.510949994e-05
-1.765065573e-05
-2.148676806e-05
-1.208625227e-05
1.19484825e-08
6.190541711e-09
2.727155142e-09
9.181305759e-10
4.267760963e-10
6.92029758e-10
1.371966571e-09
2.220749996e-09
3.069197327e-09
3.806378925e-09
4.362538233e-09
4.695009764e-09
4.777324262e-09
4.591102944e-09
4.120829045e-09
3.349434214e-09
2.254725831e-09
8.07513769e-10
-1.03068034e-09
-3.309023552e-09
-6.088272081e-09
-9.44244493e-09
-1.345892734e-08
-1.823993854e-08
-2.390320111e-08
-3.058410885e-08
-3.84375383e-08
-4.764083565e-08
-5.839564107e-08
-7.092930021e-08
-8.549397487e-08
-1.023638988e-07
-1.218326359e-07
-1.442144877e-07
-1.698512648e-07
-1.991241575e-07
-2.324610272e-07
-2.703313943e-07
-3.132292861e-07
-3.616566857e-07
-4.161248738e-07
-4.771772845e-07
-5.454189267e-07
-6.215215205e-07
-7.061946249e-07
-8.001295303e-07
-9.039542975e-07
-1.018226355e-06
-1.143476239e-06
-1.280277998e-06
-1.429290734e-06
-1.59120757e-06
-1.766579185e-06
-1.95552034e-06
-2.157342968e-06
-2.370103583e-06
-2.590049385e-06
-2.810856873e-06
-3.022561745e-06
-3.210001668e-06
-3.350764955e-06
-3.412813806e-06
-3.352212123e-06
-3.111422351e-06
-2.618060676e-06
-1.782378048e-06
-4.915997593e-07
1.392156979e-06
3.992705475e-06
7.259615648e-06
1.077575919e-05
1.38254253e-05
1.722155394e-05
2.518409356e-05
2.608977849e-05
3.612711725e-05
3.148195571e-05
4.942401529e-05
2.827075648e-05
-4.858896854e-06
-2.077813852e-06
4.222041601e-10
1.274500226e-10
-9.333326171e-12
-8.796543292e-11
-1.662940967e-10
-2.000106176e-10
-1.542197832e-10
-6.991762391e-11
-7.254781474e-12
4.991289236e-11
1.283766404e-10
1.60982561e-10
1.156357454e-10
1.973400985e-10
5.522147004e-11
2.755449933e-10
-6.103110812e-10
-1.088652515e-10
-1.941533754e-06
-4.755579114e-06
2.091091005e-05
3.70033505e-05
2.009800988e-05
2.439237461e-05
1.562311907e-05
1.429900512e-05
6.280878416e-06
3.442494903e-06
1.063439903e-06
-1.954914247e-06
-5.026711849e-06
-7.717102673e-06
-9.660496877e-06
-1.166023652e-05
-1.330144744e-05
-1.530197125e-05
-1.725847896e-05
-2.083955369e-05
-1.159830881e-05
1.996010191e-08
1.400776419e-08
9.967342197e-09
7.348670188e-09
5.965121083e-09
5.345613353e-09
5.208601501e-09
5.338271971e-09
5.572751696e-09
5.796943204e-09
5.93039583e-09
5.917932823e-09
5.720163638e-09
5.307461072e-09
4.653884382e-09
3.733313363e-09
2.516414336e-09
9.679583998e-10
-9.554679731e-10
-3.30670761e-09
-6.150329496e-09
-9.562924183e-09
-1.363443911e-08
-1.846848106e-08
-2.418427209e-08
-3.091791967e-08
-3.882559857e-08
-4.808550969e-08
-5.890036318e-08
-7.149706341e-08
-8.61256751e-08
-1.030561431e-07
-1.225772487e-07
-1.449990675e-07
-1.706617747e-07
-1.999456656e-07
-2.332747756e-07
-2.71107556e-07
-3.139194699e-07
-3.621921196e-07
-4.164221639e-07
-4.771479788e-07
-5.449715701e-07
-6.205546482e-07
-7.045799466e-07
-7.977016782e-07
-9.005125975e-07
-1.01356046e-06
-1.137418905e-06
-1.272784652e-06
-1.420536137e-06
-1.581687092e-06
-1.757214202e-06
-1.947807019e-06
-2.153585035e-06
-2.373810685e-06
-2.606530321e-06
-2.848006194e-06
-3.091661923e-06
-3.326335219e-06
-3.533803325e-06
-3.685813507e-06
-3.741229012e-06
-3.644177104e-06
-3.323343725e-06
-2.688895189e-06
-1.61376808e-06
1.124337808e-07
2.813927591e-06
6.691210494e-06
1.122966061e-05
1.42085501e-05
1.692810517e-05
2.463028523e-05
2.855243205e-05
4.83545951e-05
3.19214966e-05
2.79659308e-06
-9.623346164e-11
1.313974504e-10
2.047087847e-10
2.472372003e-10
1.290478767e-10
4.107122476e-11
-4.440866646e-11
-1.329178526e-10
-1.724496395e-10
-1.346358456e-10
-6.132718664e-11
-2.032549184e-12
5.072976786e-11
1.117705328e-10
1.351256475e-10
1.037382028e-10
1.389777529e-10
2.050942683e-10
-1.984477346e-10
-1.383452027e-10
-8.986907924e-11
2.192984174e-11
-9.57118368e-11
-5.953272165e-11
2.362276602e-06
2.233860163e-05
3.382851528e-05
1.741638507e-05
1.260757082e-05
4.812338691e-06
3.750492263e-06
1.706433905e-06
-2.102842606e-06
-5.698831112e-06
-8.297629917e-06
-1.019292791e-05
-1.190234522e-05
-1.322273306e-05
-1.469143348e-05
-1.643668957e-05
-1.970155904e-05
-1.062212158e-05
2.608011409e-08
2.006375881e-08
1.568452555e-08
1.253951982e-08
1.054122151e-08
9.279262903e-09
8.522270664e-09
8.083524898e-09
7.815825551e-09
7.606953779e-09
7.373906039e-09
7.054693366e-09
6.602571476e-09
5.979524638e-09
5.151853751e-09
4.086657507e-09
2.748465838e-09
1.096961405e-09
-9.15234351e-10
-3.344945426e-09
-6.259650501e-09
-9.738842343e-09
-1.387429996e-08
-1.877151558e-08
-2.455000999e-08
-3.134668732e-08
-3.931797799e-08
-4.864245132e-08
-5.952181615e-08
-7.218099647e-08
-8.686541847e-08
-1.038391093e-07
-1.233837112e-07
-1.45802885e-07
-1.714304121e-07
-2.006388555e-07
-2.338388418e-07
-2.714679575e-07
-3.139748823e-07
-3.618143911e-07
-4.154611202e-07
-4.754342909e-07
-5.423123071e-07
-6.167187629e-07
-6.992840026e-07
-7.906027097e-07
-8.912201818e-07
-1.001672706e-06
-1.122586243e-06
-1.254796308e-06
-1.399416984e-06
-1.557797275e-06
-1.731379116e-06
-1.921526241e-06
-2.129410918e-06
-2.355969067e-06
-2.601838439e-06
-2.867020005e-06
-3.149906848e-06
-3.445417833e-06
-3.74213139e-06
-4.018526576e-06
-4.238719159e-06
-4.349490514e-06
-4.282109548e-06
-3.958573915e-06
-3.274564184e-06
-2.00457482e-06
5.276945183e-07
5.207799828e-06
1.187988763e-05
1.421730061e-05
2.715372754e-05
3.662050533e-05
2.815029462e-05
9.387568654e-07
3.363158397e-10
2.149133227e-10
4.814994827e-11
6.013455322e-11
2.277893532e-10
1.924306054e-10
1.344411175e-10
7.358606124e-11
-1.245920392e-11
-1.034575523e-10
-1.456398841e-10
-1.151466339e-10
-4.924006032e-11
2.798547795e-13
4.204364255e-11
9.747801692e-11
1.168291125e-10
5.769378242e-11
6.923730973e-11
1.008417073e-10
2.293819055e-11
-2.083904109e-10
-1.978309147e-10
-1.519984454e-10
-9.316300266e-11
-3.133195894e-10
-2.210383332e-10
-5.237898408e-11
3.57634749e-07
1.90162776e-05
2.245179878e-05
1.67103438e-05
5.008150731e-06
3.784785833e-06
-2.365130743e-06
-6.898843528e-06
-9.277757455e-06
-1.106133936e-05
-1.226100821e-05
-1.296356302e-05
-1.388171576e-05
-1.527987113e-05
-1.793457019e-05
-9.13369669e-06
3.070685453e-08
2.471124721e-08
2.0147928e-08
1.666937418e-08
1.42554113e-08
1.253562087e-08
1.131665686e-08
1.043881032e-08
9.769722262e-09
9.204768059e-09
8.661951689e-09
8.077691428e-09
7.40034963e-09
6.587029817e-09
5.598336205e-09
4.396170072e-09
2.940367065e-09
1.186613707e-09
-9.162892905e-10
-3.428285802e-09
-6.419985374e-09
-9.973313944e-09
-1.418195446e-08
-1.915198887e-08
-2.500391265e-08
-3.187442253e-08
-3.991989143e-08
-4.931803136e-08
-6.026879818e-08
-7.299283156e-08
-8.772977353e-08
-1.047354574e-07
-1.242827944e-07
-1.466657004e-07
-1.722075235e-07
-2.012657492e-07
-2.342296356e-07
-2.715076032e-07
-3.135148013e-07
-3.606724903e-07
-4.13423395e-07
-4.722515556e-07
-5.376877361e-07
-6.102906108e-07
-6.906113298e-07
-7.791632749e-07
-8.764276063e-07
-9.829180804e-07
-1.099304142e-06
-1.226543641e-06
-1.365947916e-06
-1.519146239e-06
-1.687992085e-06
-1.874525089e-06
-2.08108203e-06
-2.310575238e-06
-2.566785801e-06
-2.854317655e-06
-3.177880398e-06
-3.540671625e-06
-3.941638091e-06
-4.370712065e-06
-4.801294984e-06
-5.181722937e-06
-5.436210136e-06
-5.490052151e-06
-5.329974794e-06
-4.873417627e-06
-3.098925817e-06
2.094145193e-06
1.199372677e-05
1.679098593e-05
3.010967307e-05
7.203547013e-06
1.15461634e-11
1.193688202e-10
1.729941586e-10
1.874786835e-10
1.245283988e-10
1.412798807e-10
1.488828615e-10
1.583702844e-10
1.422971607e-10
9.626538732e-11
1.597343295e-11
-7.018860571e-11