/*--------------------------------*- C++ -*----------------------------------*\
  =========                 |
  \\      /  F ield         | OpenFOAM: The Open Source CFD Toolbox
   \\    /   O peration     | Website:  https://openfoam.org
    \\  /    A nd           | Version:  6
     \\/     M anipulation  |
\*---------------------------------------------------------------------------*/
FoamFile
{
    version     2.0;
    format      ascii;
    class       volScalarField;
    location    "0.0035";
    object      Num_divU;
}
// * * * * * * * * * * * * * * * * * * * * * * * * * * * * * * * * * * * * * //

dimensions      [0 0 -1 0 0 0 0];

internalField   nonuniform List<scalar> 
600
(
1.836056262e-09
2.260698037e-09
-2.423134705e-09
-7.418876812e-09
-1.34260297e-08
-2.046653492e-08
-2.876235803e-08
-3.854781085e-08
-5.004265007e-08
-6.349701365e-08
-7.91157175e-08
-9.708565058e-08
-1.175908424e-07
-1.410231226e-07
-1.679250665e-07
-1.982161578e-07
-2.290683654e-07
-2.527043413e-07
-2.584312449e-07
-2.454055617e-07
-2.345151433e-07
-2.353427401e-07
-2.354885919e-07
-2.365135819e-07
-2.568034172e-07
-3.186477494e-07
-4.058114183e-07
-5.208184469e-07
-6.013900723e-07
-1.901644607e-07
2.0322814e-09
2.728031085e-09
-1.733707229e-09
-6.580863243e-09
-1.249401002e-08
-1.953314481e-08
-2.806026241e-08
-3.84125548e-08
-5.105232912e-08
-6.638092454e-08
-8.478804668e-08
-1.063620659e-07
-1.310274824e-07
-1.585710718e-07
-1.892216928e-07
-2.235199182e-07
-2.61028801e-07
-2.958664448e-07
-3.123926248e-07
-2.987548427e-07
-2.852819139e-07
-2.851726064e-07
-2.723737233e-07
-2.483476207e-07
-2.291547989e-07
-2.527459467e-07
-3.061788493e-07
-4.018045012e-07
-5.539231635e-07
-1.723130067e-07
2.211254616e-09
3.014065675e-09
-1.578447603e-09
-6.645441047e-09
-1.291250965e-08
-2.059196976e-08
-3.015444978e-08
-4.220834791e-08
-5.74205757e-08
-7.648475577e-08
-9.984697871e-08
-1.275227061e-07
-1.588453373e-07
-1.92844771e-07
-2.291557382e-07
-2.70053615e-07
-3.200571045e-07
-3.783978751e-07
-4.147377614e-07
-3.829195635e-07
-3.551650933e-07
-3.61183266e-07
-3.279056999e-07
-2.634578027e-07
-1.791846661e-07
-1.665663904e-07
-1.98489682e-07
-2.687072709e-07
-4.133794438e-07
-5.079967251e-08
2.372911498e-09
3.18076655e-09
-1.787319138e-09
-7.328937094e-09
-1.432547491e-08
-2.311637546e-08
-3.441347216e-08
-4.908415075e-08
-6.815652669e-08
-9.263477058e-08
-1.232579301e-07
-1.600007336e-07
-2.016109555e-07
-2.453813456e-07
-2.887968911e-07
-3.34665255e-07
-3.976053416e-07
-4.98587102e-07
-5.856729787e-07
-5.078400866e-07
-4.478569914e-07
-4.785762127e-07
-4.122672925e-07
-2.989533771e-07
-1.091076687e-07
-6.208843963e-08
-7.287860494e-08
-8.486110152e-08
-1.965585339e-07
1.531314394e-07
2.509050963e-09
3.181150336e-09
-2.374464195e-09
-8.665999174e-09
-1.673302852e-08
-2.712285059e-08
-4.078876512e-08
-5.893281095e-08
-8.295368437e-08
-1.143400474e-07
-1.543930352e-07
-2.03634553e-07
-2.60602888e-07
-3.200461873e-07
-3.73055601e-07
-4.162703096e-07
-4.749076971e-07
-6.414942312e-07
-8.606724841e-07
-6.941311765e-07
-5.82430164e-07
-6.389218489e-07
-5.089201569e-07
-3.63071115e-07
-4.433044383e-08
3.487066057e-08
4.704056655e-08
1.888309137e-07
9.091696945e-08
4.320186841e-07
2.593440698e-09
2.98437092e-09
-3.373144103e-09
-1.066771957e-08
-2.016009029e-08
-3.262197136e-08
-4.928349107e-08
-7.16420252e-08
-1.014527558e-07
-1.407301797e-07
-1.917321719e-07
-2.566171222e-07
-3.355736855e-07
-4.221062847e-07
-4.954113037e-07
-5.267985603e-07
-5.189137055e-07
-7.478343411e-07
-1.197601752e-06
-1.255195735e-06
-1.338445593e-06
-5.503657184e-07
-4.377495371e-07
-2.037302513e-07
-6.459147936e-07
-1.572621702e-07
1.64248507e-07
6.539071129e-07
4.959437949e-07
7.793969065e-07
2.605107899e-09
2.544940904e-09
-4.808691986e-09
-1.336148633e-08
-2.463191066e-08
-3.966642637e-08
-5.99657508e-08
-8.72587019e-08
-1.234760169e-07
-1.709065717e-07
-2.327405723e-07
-3.138236973e-07
-4.201266768e-07
-5.519302616e-07
-6.802528838e-07
-7.289106991e-07
-5.314261167e-07
-8.437011273e-07
-7.06744071e-07
-2.04269708e-06
-2.370969439e-06
-5.16579723e-07
-1.11017128e-07
-1.009403215e-07
-1.433516737e-06
-4.442629829e-07
5.265758574e-07
1.681152137e-06
1.237427336e-06
1.205307097e-06
2.515709732e-09
1.817979762e-09
-6.706341392e-09
-1.674161906e-08
-3.013247101e-08
-4.826218768e-08
-7.294541824e-08
-1.060877156e-07
-1.495195146e-07
-2.050695251e-07
-2.754558285e-07
-3.669868904e-07
-4.943160149e-07
-6.818492983e-07
-9.21614435e-07
-1.113429049e-06
-9.94632621e-07
-4.194622774e-07
3.580010561e-07
-2.187240259e-06
-1.933048671e-06
6.582134709e-08
4.758453073e-07
3.278695075e-07
-1.198932907e-06
-2.73677586e-06
1.069153809e-06
3.866304027e-06
3.646262092e-06
1.879442636e-06
2.288110238e-09
7.399124719e-10
-9.081096671e-09
-2.074571789e-08
-3.650266921e-08
-5.819733128e-08
-8.810447526e-08
-1.284703742e-07
-1.810172351e-07
-2.463377322e-07
-3.237138512e-07
-4.138852058e-07
-5.312073502e-07
-7.39589997e-07
-1.116388876e-06
-1.711298022e-06
-2.326134552e-06
4.823532821e-07
2.725973882e-06
2.691152294e-12
1.380567007e-11
2.042777192e-11
2.661568241e-11
2.727189296e-11
-2.524148335e-12
-9.507720864e-12
3.64806207e-06
1.257880302e-06
4.381506991e-06
3.723220128e-06
1.849831042e-09
-8.074269957e-10
-1.197035557e-08
-2.523060996e-08
-4.33490697e-08
-6.878287808e-08
-1.045470163e-07
-1.537591262e-07
-2.18983487e-07
-3.006159654e-07
-3.933778748e-07
-4.806219988e-07
-5.3178236e-07
-5.586539155e-07
-9.986003596e-07
-2.27487169e-06
-4.120269439e-06
-1.847707317e-11
-1.009046253e-11
3.192027657e-13
7.488783103e-12
1.185542056e-11
1.869836769e-11
1.138477084e-11
-8.84652718e-13
-3.533243946e-11
-2.816222994e-11
1.06021605e-11
6.123407688e-06
-6.788986517e-13
1.025435593e-09
-3.113414327e-09
-1.553394219e-08
-3.005202791e-08
-5.005181025e-08
-7.870642998e-08
-1.199513209e-07
-1.784206321e-07
-2.594396004e-07
-3.684687607e-07
-5.077477896e-07
-6.650405481e-07
-7.808389763e-07
-8.518396089e-07
-4.852974384e-07
4.471830274e-07
-6.542611751e-12
-9.245001758e-12
-6.938320903e-12
-5.068515713e-13
3.751789036e-12
6.003019776e-12
1.021371355e-11
1.161773982e-11
-8.902463854e-12
-1.973274985e-11
6.43153037e-14
-1.39324765e-11
-1.643219555e-11
-2.7430289e-11
-6.725455311e-10
-6.876330219e-09
-2.025189613e-08
-3.523389142e-08
-5.602023759e-08
-8.639277518e-08
-1.308883397e-07
-1.951300087e-07
-2.869267926e-07
-4.18732735e-07
-6.120517433e-07
-9.002513801e-07
-1.248073612e-06
-7.226303673e-07
5.250740117e-07
2.593136519e-06
-3.884455944e-12
-7.986457766e-12
-5.469901474e-12
-9.963835215e-13
1.320787646e-12
1.007890229e-12
1.870124337e-12
2.881648664e-12
-2.859045144e-12
-1.3539072e-11
-6.813016049e-12
-1.014306187e-11
-2.261146561e-11
-1.109974086e-11
-4.707893891e-09
-1.374260497e-08
-2.720928361e-08
-4.119489288e-08
-6.111042473e-08
-9.11066729e-08
-1.355032563e-07
-1.990098465e-07
-2.868631158e-07
-4.051439299e-07
-5.616292237e-07
-7.740996944e-07
-1.323466246e-06
-2.080074047e-06
-2.190599326e-06
-2.982549746e-12
-7.802018246e-12
-9.681233933e-12
-7.539156065e-12
-4.091432027e-12
-2.910127907e-12
-3.703023344e-12
-3.232892431e-12
-9.949442242e-13
-2.443972804e-12
-5.245260215e-12
-5.166150208e-12
-1.101197617e-11
-1.205979451e-11
-1.770198869e-11
-1.606898046e-08
-2.753716887e-08
-3.833073095e-08
-4.865135315e-08
-6.564068883e-08
-9.346170102e-08
-1.359876571e-07
-1.972483963e-07
-2.812965555e-07
-3.912617208e-07
-5.275627388e-07
-7.051073266e-07
-1.475315456e-06
-2.448702802e-06
-1.973754531e-06
-7.910346114e-12
-1.275769736e-11
-1.441652597e-11
-1.282208447e-11
-1.036225709e-11
-9.228204046e-12
-9.036683265e-12
-6.518021498e-12
-8.610042372e-13
3.026588576e-12
2.713681243e-12
2.086023679e-12
-2.453030414e-12
-9.119923019e-12
-8.958703609e-12
-5.020302409e-08
-5.616849074e-08
-5.588497407e-08
-5.780509849e-08
-6.93614225e-08
-9.333908431e-08
-1.326549109e-07
-1.915537442e-07
-2.76747987e-07
-3.992855345e-07
-5.757822814e-07
-8.115005502e-07
-7.694740411e-07
-8.061499657e-07
2.170719633e-08
-1.170188206e-11
-1.814667807e-11
-2.061369172e-11
-1.861147469e-11
-1.606793319e-11
-1.489325126e-11
-1.217809075e-11
-5.06790096e-12
3.794048904e-12
1.02971878e-11
1.328355427e-11
9.330634629e-12
4.03203342e-12
-3.823844371e-13
-1.261799221e-11
-2.027165097e-07
-1.265128691e-07
-8.097956434e-08
-6.681975212e-08
-7.072226429e-08
-8.923919225e-08
-1.223206032e-07
-1.722477722e-07
-2.438993657e-07
-3.462633564e-07
-4.936726584e-07
-6.890016947e-07
-6.018173816e-07
-5.660629023e-07
1.850659179e-07
-1.355392913e-11
-1.928726367e-11
-1.997008902e-11
-2.281882727e-11
-2.23539493e-11
-1.888100492e-11
-1.227484948e-11
-4.44528546e-13
1.110790754e-11
1.699328737e-11
1.367454031e-11
1.640892592e-11
1.131107964e-11
7.847398079e-13
-2.622121501e-13
-2.297608973e-07
-1.385701143e-07
-8.366888173e-08
-6.574629776e-08
-6.661746268e-08
-8.07168849e-08
-1.060095735e-07
-1.4167066e-07
-1.867053696e-07
-2.383432199e-07
-2.899371957e-07
-3.486786088e-07
-9.815514957e-07
-1.703755835e-06
-1.394124474e-06
-1.019590102e-11
-1.392447261e-11
-2.5287365e-11
-2.387432011e-11
-2.305341479e-11
-2.028398754e-11
-9.059081894e-12
4.977785076e-12
1.525045296e-11
1.675080122e-11
2.682699004e-11
1.501765671e-11
1.434938762e-11
1.944265581e-11
-1.015667264e-11
-8.521512905e-08
-7.280425694e-08
-5.7888005e-08
-5.283365786e-08
-5.723873557e-08
-6.979329202e-08
-8.916205591e-08
-1.138037782e-07
-1.415927009e-07
-1.698005802e-07
-1.962550111e-07
-2.265630967e-07
-5.143700579e-07
-7.785567436e-07
-2.211534805e-06
-4.695752179e-12
-1.103627663e-11
-8.072760575e-12
-3.564002336e-11
-3.455076545e-11
-2.179663984e-11
-3.519401715e-12
1.329854191e-11
1.87060834e-11
1.949109928e-11
-3.530322748e-12
4.30767018e-11
3.670015073e-11
-3.17981065e-11
1.947114607e-11
-1.014207861e-08
-2.543261229e-08
-3.125242167e-08
-3.729037414e-08
-4.618800322e-08
-5.856502141e-08
-7.366007014e-08
-9.005837672e-08
-1.061838027e-07
-1.226716437e-07
-1.468818415e-07
-1.980738074e-07
-2.495099402e-07
4.20211292e-07
1.285177132e-06
3.695975254e-06
5.383111979e-12
-6.369491209e-11
-6.225078258e-11
-4.901457782e-11
-2.387591932e-11
-1.182233228e-13
1.330224376e-11
7.281010063e-12
-1.376156047e-11
9.258140143e-11
8.467160265e-11
-5.297292671e-12
4.134882186e-11
-4.341859004e-11
4.069202027e-08
9.7298384e-09
-8.979589733e-09
-2.311171485e-08
-3.582343415e-08
-4.807044407e-08
-5.895043364e-08
-6.544824273e-08
-6.216520242e-08
-3.966477576e-08
2.000219152e-08
1.573043202e-07
4.747387984e-07
1.097662623e-06
2.830198623e-06
2.061346168e-06
-3.953467009e-11
-4.854855367e-11
-7.138070021e-11
-6.150942311e-11
-1.445840227e-11
1.562639855e-11
2.058736656e-11
4.508269189e-12
7.108886814e-11
1.019989643e-10
1.075936983e-10
5.031876649e-11
-2.428171201e-11
9.72044786e-11
)
;

boundaryField
{
    lowerWall
    {
        type            calculated;
        value           nonuniform 0();
    }
    atmosphere
    {
        type            calculated;
        value           nonuniform List<scalar> 
20
(
1.836056262e-09
2.0322814e-09
2.211254616e-09
2.372911498e-09
2.509050963e-09
2.593440698e-09
2.605107899e-09
2.515709732e-09
2.288110238e-09
1.849831042e-09
1.025435593e-09
-6.725455311e-10
-4.707893891e-09
-1.606898046e-08
-5.020302409e-08
-2.027165097e-07
-2.297608973e-07
-8.521512905e-08
-1.014207861e-08
4.069202027e-08
)
;
    }
    rightWall
    {
        type            empty;
    }
    leftWall
    {
        type            empty;
    }
    frontAndBack
    {
        type            calculated;
        value           nonuniform List<scalar> 
30
(
1.836056262e-09
2.260698037e-09
-2.423134705e-09
-7.418876812e-09
-1.34260297e-08
-2.046653492e-08
-2.876235803e-08
-3.854781085e-08
-5.004265007e-08
-6.349701365e-08
-7.91157175e-08
-9.708565058e-08
-1.175908424e-07
-1.410231226e-07
-1.679250665e-07
-1.982161578e-07
-2.290683654e-07
-2.527043413e-07
-2.584312449e-07
-2.454055617e-07
-2.345151433e-07
-2.353427401e-07
-2.354885919e-07
-2.365135819e-07
-2.568034172e-07
-3.186477494e-07
-4.058114183e-07
-5.208184469e-07
-6.013900723e-07
-1.901644607e-07
)
;
    }
    procBoundary0to1
    {
        type            processor;
        value           nonuniform List<scalar> 
20
(
1.645868025e-11
1.698943098e-11
1.721838543e-11
1.730500087e-11
1.754237386e-11
2.340911737e-11
2.500726449e-11
-3.947732679e-13
1.277488762e-11
-4.774429139e-11
-1.173370754e-11
-2.289970961e-11
-1.658344469e-11
-2.168220534e-11
-1.440062372e-11
-1.972500737e-11
-4.19652449e-12
-2.818476932e-11
3.681636364e-11
-4.202293239e-11
)
;
    }
    procBoundary0to2
    {
        type            processor;
        value           nonuniform List<scalar> 
30
(
7.407710391e-08
3.365830693e-08
7.218535273e-09
-1.230659159e-08
-2.768680063e-08
-3.98734052e-08
-4.72804926e-08
-4.543997425e-08
-2.561386394e-08
2.755731253e-08
1.41219156e-07
3.631596317e-07
7.72874486e-07
1.438042895e-06
1.985225454e-06
2.116677744e-06
-1.372943847e-06
-7.674564424e-11
-8.107608531e-11
-4.466798752e-11
3.604978552e-12
3.601422359e-11
3.200379521e-11
6.925535963e-12
2.853248469e-11
1.498170835e-10
8.992091796e-11
2.491469952e-11
1.548496746e-06
-4.155813154e-11
)
;
    }
}


// ************************************************************************* //
