/*--------------------------------*- C++ -*----------------------------------*\
  =========                 |
  \\      /  F ield         | OpenFOAM: The Open Source CFD Toolbox
   \\    /   O peration     | Website:  https://openfoam.org
    \\  /    A nd           | Version:  6
     \\/     M anipulation  |
\*---------------------------------------------------------------------------*/
FoamFile
{
    version     2.0;
    format      ascii;
    class       volScalarField;
    location    "0.0026";
    object      TRHS;
}
// * * * * * * * * * * * * * * * * * * * * * * * * * * * * * * * * * * * * * //

dimensions      [1 -1 -3 0 0 0 0];

internalField   nonuniform List<scalar> 
9600
(
1.631446745e-09
1.551913794e-09
1.501973321e-09
1.467162967e-09
1.459918412e-09
1.462824258e-09
1.4619063e-09
1.464270511e-09
1.457873196e-09
1.45094411e-09
1.432112221e-09
1.410099877e-09
1.373313318e-09
1.330113753e-09
1.267987398e-09
1.19454038e-09
1.096183102e-09
9.794750055e-10
8.2911114e-10
6.496350537e-10
4.231066933e-10
1.515013466e-10
-1.857597827e-10
-5.891453985e-10
-1.082250351e-09
-1.669383903e-09
-2.379325604e-09
-3.222167242e-09
-4.232289032e-09
-5.424069688e-09
-6.835170284e-09
-8.483405091e-09
-1.041165187e-08
-1.264478373e-08
-1.523282562e-08
-1.820538121e-08
-2.161398942e-08
-2.548832724e-08
-2.98810667e-08
-3.482412704e-08
-4.037029968e-08
-4.654604996e-08
-5.339343281e-08
-6.092813488e-08
-6.918708436e-08
-7.818871332e-08
-8.797593402e-08
-9.85699417e-08
-1.100107006e-07
-1.223173845e-07
-1.355414443e-07
-1.497326618e-07
-1.649889377e-07
-1.814205875e-07
-1.992168826e-07
-2.186485768e-07
-2.402274772e-07
-2.649316622e-07
-2.946713945e-07
-3.32075232e-07
-3.780487337e-07
-4.209768432e-07
-4.103118532e-07
-2.952984992e-07
-1.170679006e-07
-8.30905479e-07
-0.00163501466
1294.970118
0
0
0
0
0
0
0
0
0
0
0
0
0
0
0
0
0
0
0
0
0
0
0
0
0
0
0
0
0
0
0
0
0
0
0
0
0
0
0
0
0
0
0
0
771.6914609
-0.0009749525751
2.688136517e-07
5.700951829e-07
3.841002183e-07
-1.463290055e-08
-2.735130385e-07
-4.187092597e-08
1.752093121e-09
1.654068774e-09
1.589588712e-09
1.539828856e-09
1.52165825e-09
1.512829671e-09
1.504133256e-09
1.497515581e-09
1.485788211e-09
1.471920948e-09
1.449466866e-09
1.42173571e-09
1.382100725e-09
1.333428004e-09
1.268352249e-09
1.189001828e-09
1.086991171e-09
9.632379479e-10
8.075339282e-10
6.186719742e-10
3.839462771e-10
9.976949102e-11
-2.489485405e-10
-6.683578791e-10
-1.176910785e-09
-1.785136943e-09
-2.516796698e-09
-3.387746174e-09
-4.426161654e-09
-5.651043138e-09
-7.093465654e-09
-8.776469318e-09
-1.073715857e-08
-1.300546799e-08
-1.562369893e-08
-1.862359647e-08
-2.204645327e-08
-2.592283629e-08
-3.029416471e-08
-3.519084562e-08
-4.064996665e-08
-4.669141589e-08
-5.3337695e-08
-6.059566497e-08
-6.848022952e-08
-7.699564467e-08
-8.615404301e-08
-9.595265117e-08
-1.063942891e-07
-1.174739872e-07
-1.292085009e-07
-1.416224543e-07
-1.547687306e-07
-1.687022064e-07
-1.834809853e-07
-1.991293883e-07
-2.15745984e-07
-2.339261589e-07
-2.559083957e-07
-2.874703416e-07
-3.388348808e-07
-4.081107034e-07
-4.194825303e-07
-3.594239474e-07
8.674614338e-07
-0.005374252021
2131.937268
0
0
0
0
0
0
0
0
0
0
0
0
0
0
0
0
0
0
0
0
0
0
0
0
0
0
0
0
0
0
0
0
0
0
0
0
0
0
0
0
0
0
0
0
0
0
1865.889429
-0.004703110178
8.708158226e-07
2.657207926e-07
3.022106897e-08
-3.203931325e-07
-7.909255825e-08
1.876947641e-09
1.758696133e-09
1.679421013e-09
1.613672886e-09
1.584457574e-09
1.562993119e-09
1.546578933e-09
1.530251911e-09
1.513396862e-09
1.491982291e-09
1.466173716e-09
1.432157026e-09
1.389951534e-09
1.335261652e-09
1.267512056e-09
1.181669917e-09
1.076217697e-09
9.447316802e-10
7.83859829e-10
5.848637222e-10
3.420721272e-10
4.447055275e-11
-3.158610536e-10
-7.526242171e-10
-1.277392588e-09
-1.908659947e-09
-2.663336234e-09
-3.564714019e-09
-4.633094087e-09
-5.894096301e-09
-7.370664403e-09
-9.093037991e-09
-1.109077396e-08
-1.340054099e-08
-1.605522977e-08
-1.909062455e-08
-2.253636153e-08
-2.64255937e-08
-3.078676535e-08
-3.565023674e-08
-4.103596582e-08
-4.6958832e-08
-5.341986062e-08
-6.041672728e-08
-6.79377314e-08
-7.597004641e-08
-8.448902623e-08
-9.346444419e-08
-1.028555552e-07
-1.126282005e-07
-1.227575882e-07
-1.332434849e-07
-1.441022274e-07
-1.553505516e-07
-1.669153275e-07
-1.784827306e-07
-1.893246584e-07
-1.983753803e-07
-2.051113664e-07
-2.148154976e-07
-2.476190293e-07
-3.532550851e-07
-5.619497727e-07
4.751735283e-07
1.067586276e-06
-0.05127548159
5154.293148
0
0
0
0
0
0
0
0
0
0
0
0
0
0
0
0
0
0
0
0
0
0
0
0
0
0
0
0
0
0
0
0
0
0
0
0
0
0
0
0
0
0
0
0
0
0
4637.231481
-0.04872392426
1.955104735e-06
1.500604767e-06
5.071074348e-08
-3.095491149e-07
-4.566817105e-08
2.003673506e-09
1.866507958e-09
1.768719368e-09
1.688605234e-09
1.645029998e-09
1.612907487e-09
1.585766482e-09
1.562029299e-09
1.537238586e-09
1.510801419e-09
1.478910657e-09
1.441210198e-09
1.393698612e-09
1.335619652e-09
1.262444466e-09
1.172774034e-09
1.061084859e-09
9.245288238e-10
7.555583476e-10
5.490573522e-10
2.95164702e-10
-1.334765906e-11
-3.885687705e-10
-8.405788486e-10
-1.385440842e-09
-2.038280868e-09
-2.82038629e-09
-3.751061874e-09
-4.854180262e-09
-6.150741568e-09
-7.667402948e-09
-9.430408689e-09
-1.147336286e-08
-1.382815132e-08
-1.6529713e-08
-1.960662467e-08
-2.308868153e-08
-2.700070521e-08
-3.136982651e-08
-3.621533179e-08
-4.155153385e-08
-4.737735996e-08
-5.368324354e-08
-6.044557204e-08
-6.763468134e-08
-7.52061766e-08
-8.31047387e-08
-9.12562189e-08
-9.957951135e-08
-1.079911747e-07
-1.164268485e-07
-1.248509434e-07
-1.332746639e-07
-1.417262463e-07
-1.501372515e-07
-1.580260687e-07
-1.638296293e-07
-1.633040541e-07
-1.470136574e-07
-9.373948084e-08
3.678771124e-08
2.747704138e-07
2.104817421e-07
3.747328565e-07
-2.360367971e-06
15187.05576
0
0
0
0
0
0
0
0
0
0
0
0
0
0
0
0
0
0
0
0
0
0
0
0
0
0
0
0
0
0
0
0
0
0
0
0
0
0
0
0
0
0
0
0
0
0
0
0
14691.51385
-1.789722256e-06
2.271972191e-06
8.039594075e-07
1.836622097e-07
1.086191632e-07
2.133369569e-09
1.974354594e-09
1.858580286e-09
1.761873698e-09
1.704852326e-09
1.660192271e-09
1.623573872e-09
1.590778723e-09
1.5595453e-09
1.526513953e-09
1.490112907e-09
1.447153301e-09
1.395904203e-09
1.332877658e-09
1.255883496e-09
1.160820493e-09
1.044507956e-09
9.012515312e-10
7.257893415e-10
5.100730745e-10
2.46606061e-10
-7.471695392e-11
-4.63601671e-10
-9.33185782e-10
-1.497426537e-09
-2.174641426e-09
-2.983803528e-09
-3.946850446e-09
-5.084654042e-09
-6.420616225e-09
-7.97874215e-09
-9.788299798e-09
-1.188030282e-08
-1.4288572e-08
-1.704339564e-08
-2.017319376e-08
-2.370186745e-08
-2.765329592e-08
-3.204739905e-08
-3.689956151e-08
-4.221257869e-08
-4.797650647e-08
-5.416510653e-08
-6.073954811e-08
-6.764457227e-08
-7.480806478e-08
-8.213398763e-08
-8.950435608e-08
-9.678211069e-08
-1.03826019e-07
-1.105082279e-07
-1.167491979e-07
-1.225570686e-07
-1.28054425e-07
-1.334338085e-07
-1.387582871e-07
-1.432317432e-07
-1.432696475e-07
-1.265206616e-07
-5.964433587e-08
1.309525018e-07
5.003759215e-07
1.338569313e-06
-0.004184969799
1660.084553
0
0
0
0
0
0
0
0
0
0
0
0
0
0
0
0
0
0
0
0
0
0
0
0
0
0
0
0
0
0
0
0
0
0
0
0
0
0
0
0
0
0
0
0
0
0
0
0
0
0
1129.230412
-0.002845804953
1.500540926e-06
-1.805049726e-07
-1.430255854e-07
2.26333879e-09
2.08217123e-09
1.946511611e-09
1.833369631e-09
1.761593004e-09
1.704977372e-09
1.657911421e-09
1.616949237e-09
1.57843832e-09
1.539827881e-09
1.498092008e-09
1.450881284e-09
1.395101738e-09
1.328149543e-09
1.246567027e-09
1.14718734e-09
1.025468454e-09
8.765576717e-10
6.937181977e-10
4.697371512e-10
1.956879559e-10
-1.376422143e-10
-5.41475401e-10
-1.028215144e-09
-1.61351226e-09
-2.31500072e-09
-3.15308387e-09
-4.148517462e-09
-5.32324338e-09
-6.699559667e-09
-8.303057556e-09
-1.016236699e-08
-1.230980542e-08
-1.477722797e-08
-1.75943472e-08
-2.078616371e-08
-2.437532796e-08
-2.838193739e-08
-3.282332919e-08
-3.770825855e-08
-4.303277165e-08
-4.8775701e-08
-5.489895532e-08
-6.134582913e-08
-6.803933202e-08
-7.487570811e-08
-8.171964614e-08
-8.840089869e-08
-9.471825872e-08
-1.004494405e-07
-1.053752895e-07
-1.093258817e-07
-1.122548512e-07
-1.143383953e-07
-1.161109508e-07
-1.18608604e-07
-1.232136923e-07
-1.295249683e-07
-1.293990543e-07
-7.72819056e-08
9.208878009e-08
1.301545788e-06
1.782733884e-06
-0.01653040103
5404.378824
0
0
0
0
0
0
0
0
0
0
0
0
0
0
0
0
0
0
0
0
0
0
0
0
0
0
0
0
0
0
0
0
0
0
0
0
0
0
0
0
0
0
0
0
0
0
0
0
0
0
4327.136675
-0.01090795964
3.927227487e-06
7.943613263e-07
-3.53297381e-07
2.392468955e-09
2.187339372e-09
2.031338836e-09
1.900828908e-09
1.81432797e-09
1.745270735e-09
1.688207751e-09
1.638828278e-09
1.593665437e-09
1.549277091e-09
1.502844077e-09
1.451206959e-09
1.391531338e-09
1.320520286e-09
1.235058796e-09
1.1312331e-09
1.004780171e-09
8.499998258e-10
6.60356999e-10
4.277914127e-10
1.436129148e-10
-2.022329839e-10
-6.207540258e-10
-1.125381362e-09
-1.731705396e-09
-2.458338442e-09
-3.325367353e-09
-4.354198269e-09
-5.566350802e-09
-6.985071031e-09
-8.636149051e-09
-1.054943172e-08
-1.275683737e-08
-1.528997665e-08
-1.817661626e-08
-2.144071586e-08
-2.510310539e-08
-2.918285014e-08
-3.369424215e-08
-3.864213667e-08
-4.401585382e-08
-4.978649578e-08
-5.590509853e-08
-6.230118319e-08
-6.887731391e-08
-7.550162721e-08
-8.199923616e-08
-8.8146457e-08
-9.366828509e-08
-9.824207961e-08
-1.015174597e-07
-1.031644134e-07
-1.029575033e-07
-1.009137192e-07
-9.756248655e-08
-9.444969502e-08
-9.427423391e-08
-1.002073118e-07
-9.892890164e-08
-9.77197421e-09
1.804895403e-07
1.220574887e-06
9.21648529e-07
1153.460649
0
0
0
0
0
0
0
0
0
0
0
0
0
0
0
0
0
0
0
0
0
0
0
0
0
0
0
0
0
0
0
0
0
0
0
0
0
0
0
0
0
0
0
0
0
0
0
0
0
0
0
0
-0.1846255101
2.105411295e-06
1.933341882e-06
-4.242324754e-07
2.518034388e-09
2.288008928e-09
2.110636002e-09
1.962455535e-09
1.860910754e-09
1.779661056e-09
1.712638579e-09
1.655379029e-09
1.603735525e-09
1.554155164e-09
1.503228175e-09
1.447753597e-09
1.384431892e-09
1.310007361e-09
1.220921481e-09
1.113264723e-09
9.82247886e-10
8.220849155e-10
6.256656065e-10
3.848740554e-10
9.050158636e-11
-2.675542019e-10
-7.00941707e-10
-1.223248918e-09
-1.850826157e-09
-2.602375051e-09
-3.498553067e-09
-4.560717914e-09
-5.811046958e-09
-7.273263783e-09
-8.974308894e-09
-1.094452053e-08
-1.321613075e-08
-1.581989703e-08
-1.878289132e-08
-2.212822379e-08
-2.587668658e-08
-3.004676498e-08
-3.465155874e-08
-3.969290763e-08
-4.515609092e-08
-5.100676773e-08
-5.718931543e-08
-6.362340487e-08
-7.019678483e-08
-7.675496963e-08
-8.308943302e-08
-8.892646401e-08
-9.391546642e-08
-9.762231953e-08
-9.953662676e-08
-9.910617805e-08
-9.579835568e-08
-8.920802315e-08
-7.931687883e-08
-6.70695154e-08
-5.706683267e-08
-6.056298489e-08
-1.04734097e-07
-1.844068854e-07
3.059385818e-07
8.422832651e-07
-0.02765244141
4270.465397
0
0
0
0
0
0
0
0
0
0
0
0
0
0
0
0
0
0
0
0
0
0
0
0
0
0
0
0
0
0
0
0
0
0
0
0
0
0
0
0
0
0
0
0
0
0
0
0
0
0
0
0
1533.943332
-0.003867609428
4.173903965e-06
-3.443223276e-07
2.63727705e-09
2.38102681e-09
2.181754316e-09
2.015631508e-09
1.899177392e-09
1.805965558e-09
1.729545386e-09
1.664868262e-09
1.60743488e-09
1.553180857e-09
1.498457111e-09
1.439694174e-09
1.373454935e-09
1.296178434e-09
1.204157096e-09
1.093124499e-09
9.580695692e-10
7.927919306e-10
5.899848493e-10
3.411508495e-10
3.695325236e-11
-3.331027066e-10
-7.809266631e-10
-1.320653918e-09
-1.968962863e-09
-2.745103305e-09
-3.669920466e-09
-4.765267238e-09
-6.053846317e-09
-7.560387731e-09
-9.312773528e-09
-1.13421406e-08
-1.36806961e-08
-1.635885368e-08
-1.940329582e-08
-2.283752678e-08
-2.668320207e-08
-3.095960089e-08
-3.567960049e-08
-4.08438046e-08
-4.643574808e-08
-5.241943431e-08
-5.873735476e-08
-6.530561129e-08
-7.200485818e-08
-7.866729866e-08
-8.50621187e-08
-9.087726609e-08
-9.569760097e-08
-9.898186114e-08
-1.000537588e-07
-9.811563197e-08
-9.228303475e-08
-8.160284236e-08
-6.484791623e-08
-3.958330527e-08
1.799429822e-09
7.99009535e-08
2.401929401e-07
-8.178757698e-08
6.270420069e-07
-1.817846909e-06
6698.94614
0
0
0
0
0
0
0
0
0
0
0
0
0
0
0
0
0
0
0
0
0
0
0
0
0
0
0
0
0
0
0
0
0
0
0
0
0
0
0
0
0
0
0
0
0
0
0
0
0
0
0
0
0
0
-0.2400292382
4.140025546e-06
-0.05859485617
2.74642636e-09
2.463087598e-09
2.241374422e-09
2.057346265e-09
1.926296715e-09
1.821756811e-09
1.736680739e-09
1.665469852e-09
1.603091381e-09
1.545110855e-09
1.487458248e-09
1.426340269e-09
1.35802976e-09
1.278768556e-09
1.184519407e-09
1.070775914e-09
9.321571907e-10
7.622318561e-10
5.533842737e-10
2.96995209e-10
-1.658336047e-11
-3.98033168e-10
-8.596848994e-10
-1.416078866e-09
-2.084396489e-09
-2.884237032e-09
-3.836929375e-09
-4.964784048e-09
-6.29132581e-09
-7.842268989e-09
-9.646529784e-09
-1.17358091e-08
-1.414246425e-08
-1.689681733e-08
-2.002598083e-08
-2.355471202e-08
-2.750651273e-08
-3.190231801e-08
-3.675594499e-08
-4.20685521e-08
-4.782472658e-08
-5.399088446e-08
-6.051300393e-08
-6.731097861e-08
-7.426782985e-08
-8.121590659e-08
-8.791899366e-08
-9.404873473e-08
-9.91495255e-08
-1.025969255e-07
-1.035611098e-07
-1.010028197e-07
-9.375526781e-08
-8.08099507e-08
-6.187023445e-08
-3.707984589e-08
-3.828020432e-09
6.182540907e-08
2.52736555e-07
5.999164527e-07
1.676118391e-06
1.622813305e-06
-0.009267060189
0
0
0
0
0
0
0
0
0
0
0
0
0
0
0
0
0
0
0
0
0
0
0
0
0
0
0
0
0
0
0
0
0
0
0
0
0
0
0
0
0
0
0
0
0
0
0
0
0
0
0
0
0
0
-0.06320962147
-1.59385737e-07
-0.0314333357
2.841073779e-09
2.529632305e-09
2.285402542e-09
2.083821735e-09
1.938912924e-09
1.824044026e-09
1.73147445e-09
1.654967861e-09
1.588941896e-09
1.528465724e-09
1.469159512e-09
1.406882886e-09
1.337641721e-09
1.257369467e-09
1.161774394e-09
1.046003639e-09
9.044327844e-10
7.303615375e-10
5.160567592e-10
2.526951545e-10
-6.949379216e-11
-4.615064329e-10
-9.360197867e-10
-1.508054144e-09
-2.195256559e-09
-3.017688863e-09
-3.997093511e-09
-5.156410207e-09
-6.519956999e-09
-8.114481412e-09
-9.969825557e-09
-1.211825174e-08
-1.459230236e-08
-1.742263293e-08
-2.063742994e-08
-2.426354742e-08
-2.832709093e-08
-3.285135178e-08
-3.785204465e-08
-4.333247248e-08
-4.928109914e-08
-5.567071775e-08
-6.245650828e-08
-6.95693814e-08
-7.690549208e-08
-8.431220618e-08
-9.157093341e-08
-9.836890036e-08
-1.042531112e-07
-1.085596544e-07
-1.103189134e-07
-1.081406589e-07
-1.001568381e-07
-8.434179707e-08
-5.986790494e-08
-3.143139074e-08
-1.597752519e-08
-4.736959632e-08
-5.204251723e-08
1.326350057e-06
2.423135185e-06
-0.06628729109
18517.92171
0
0
0
0
0
0
0
0
0
0
0
0
0
0
0
0
0
0
0
0
0
0
0
0
0
0
0
0
0
0
0
0
0
0
0
0
0
0
0
0
0
0
0
0
0
0
0
0
0
0
0
0
0
0
12095.21579
-0.03049019452
-8.128528217e-07
2.915562971e-09
2.575541781e-09
2.308875666e-09
2.090541093e-09
1.932978777e-09
1.809294848e-09
1.710916149e-09
1.630882062e-09
1.562947575e-09
1.501743694e-09
1.442403691e-09
1.380502834e-09
1.311685596e-09
1.231583186e-09
1.135569333e-09
1.018572072e-09
8.747109824e-10
6.972013735e-10
4.781669419e-10
2.087143517e-10
-1.211058425e-10
-5.225761266e-10
-1.008777964e-09
-1.595178769e-09
-2.29992506e-09
-3.143494355e-09
-4.148107789e-09
-5.337271975e-09
-6.736149134e-09
-8.372379416e-09
-1.027661019e-08
-1.248160676e-08
-1.502030847e-08
-1.792414255e-08
-2.122301231e-08
-2.494636449e-08
-2.912326246e-08
-3.377973877e-08
-3.893415027e-08
-4.45935782e-08
-5.075270946e-08
-5.739428898e-08
-6.448695853e-08
-7.197925374e-08
-7.97897631e-08
-8.779680392e-08
-9.582441499e-08
-1.036181322e-07
-1.107962083e-07
-1.167611769e-07
-1.205322387e-07
-1.204171421e-07
-1.133826976e-07
-9.395961776e-08
-5.265445398e-08
2.491225696e-08
1.608961916e-07
3.862573205e-07
3.367169257e-07
8.712754807e-07
-1.355103988e-06
7778.385768
0
0
0
0
0
0
0
0
0
0
0
0
0
0
0
0
0
0
0
0
0
0
0
0
0
0
0
0
0
0
0
0
0
0
0
0
0
0
0
0
0
0
0
0
0
0
0
0
0
0
0
0
0
0
0
0
1198.276722
-0.01059671338
2.96313909e-09
2.594064935e-09
2.305673627e-09
2.071977574e-09
1.903655712e-09
1.773370106e-09
1.671582e-09
1.590434725e-09
1.523006095e-09
1.463298218e-09
1.406051048e-09
1.346349072e-09
1.279530694e-09
1.200888887e-09
1.105537828e-09
9.881883786e-10
8.428980066e-10
6.62802229e-10
4.400155355e-10
1.655630846e-10
-1.706969712e-10
-5.803335247e-10
-1.076860631e-09
-1.676213719e-09
-2.396946072e-09
-3.259948094e-09
-4.287832628e-09
-5.504634092e-09
-6.936200316e-09
-8.611018623e-09
-1.056041724e-08
-1.281771745e-08
-1.541640744e-08
-1.838908224e-08
-2.176769978e-08
-2.558457066e-08
-2.987179881e-08
-3.465822319e-08
-3.996536462e-08
-4.580509191e-08
-5.21802578e-08
-5.908572082e-08
-6.650676221e-08
-7.441326992e-08
-8.275304339e-08
-9.14463351e-08
-1.003815077e-07
-1.094033785e-07
-1.18286605e-07
-1.266790739e-07
-1.339770119e-07
-1.390117037e-07
-1.392636222e-07
-1.288909598e-07
-9.427999363e-08
-3.95324366e-09
2.070789931e-07
6.264015873e-07
3.017698954e-07
1.467542857e-06
-7.834517547e-07
-0.5625962439
0
0
0
0
0
0
0
0
0
0
0
0
0
0
0
0
0
0
0
0
0
0
0
0
0
0
0
0
0
0
0
0
0
0
0
0
0
0
0
0
0
0
0
0
0
0
0
0
0
0
0
0
0
0
0
0
-0.3421671778
-0.001748194708
2.975309907e-09
2.577328171e-09
2.26841656e-09
2.021555383e-09
1.845261651e-09
1.711531225e-09
1.609632895e-09
1.530671886e-09
1.466855472e-09
1.411543158e-09
1.358885531e-09
1.303578805e-09
1.240537228e-09
1.164795785e-09
1.071282449e-09
9.546603235e-10
8.089549081e-10
6.273754098e-10
4.020151222e-10
1.238301201e-10
-2.175450092e-10
-6.339910509e-10
-1.139435569e-09
-1.750183074e-09
-2.485166247e-09
-3.365532502e-09
-4.41421581e-09
-5.655682269e-09
-7.116391464e-09
-8.825477511e-09
-1.081492327e-08
-1.311857846e-08
-1.577076722e-08
-1.880545962e-08
-2.225682631e-08
-2.615986075e-08
-3.054936314e-08
-3.545685289e-08
-4.090722096e-08
-4.691797318e-08
-5.350095142e-08
-6.066412083e-08
-6.840990231e-08
-7.67306657e-08
-8.560478034e-08
-9.499791893e-08
-1.048683832e-07
-1.151743885e-07
-1.258824337e-07
-1.369879547e-07
-1.485576127e-07
-1.607909532e-07
-1.740309279e-07
-1.883357747e-07
-2.009690318e-07
-1.977820167e-07
-1.272165763e-07
1.687040687e-07
1.730198112e-06
3.405565415e-06
-0.03520209459
13965.70375
0
0
0
0
0
0
0
0
0
0
0
0
0
0
0
0
0
0
0
0
0
0
0
0
0
0
0
0
0
0
0
0
0
0
0
0
0
0
0
0
0
0
0
0
0
0
0
0
0
0
0
0
0
0
0
0
25082.7081
-0.1147723256
2.941699039e-09
2.515220658e-09
2.18802471e-09
1.931341737e-09
1.751126987e-09
1.618408233e-09
1.520917296e-09
1.448468334e-09
1.392267094e-09
1.344868466e-09
1.299845613e-09
1.251388059e-09
1.194116584e-09
1.122885373e-09
1.03257715e-09
9.179041279e-10
7.730417953e-10
5.912507839e-10
3.646608891e-10
8.407741489e-11
-2.610541172e-10
-6.829731597e-10
-1.195856001e-09
-1.816358397e-09
-2.563574082e-09
-3.458855811e-09
-4.525304929e-09
-5.787726745e-09
-7.273034842e-09
-9.010976951e-09
-1.103408835e-08
-1.337687602e-08
-1.607451008e-08
-1.916240367e-08
-2.267670268e-08
-2.665467114e-08
-3.113329832e-08
-3.614636221e-08
-4.172214548e-08
-4.788389831e-08
-5.465259116e-08
-6.204871202e-08
-7.009076981e-08
-7.879151225e-08
-8.815713764e-08
-9.819284091e-08
-1.089152536e-07
-1.203687737e-07
-1.326534363e-07
-1.459858173e-07
-1.608422987e-07
-1.782752976e-07
-2.005891629e-07
-2.324740602e-07
-2.825866532e-07
-3.600602033e-07
-4.505119516e-07
-4.085326456e-07
1.321322009e-06
3.309042122e-06
-0.06428743679
16739.66293
0
0
0
0
0
0
0
0
0
0
0
0
0
0
0
0
0
0
0
0
0
0
0
0
0
0
0
0
0
0
0
0
0
0
0
0
0
0
0
0
0
0
0
0
0
0
0
0
0
0
0
0
0
0
0
0
-0.1586430943
-2.088435165e-06
2.849249705e-09
2.395667569e-09
2.053510485e-09
1.791958467e-09
1.613632117e-09
1.488064772e-09
1.401017805e-09
1.340703683e-09
1.297098673e-09
1.261868904e-09
1.227937676e-09
1.189132514e-09
1.139846331e-09
1.074915608e-09
9.893614975e-10
8.78101133e-10
7.354829252e-10
5.549059169e-10
3.284405415e-10
4.677915808e-11
-3.008601063e-10
-7.269081762e-10
-1.245776253e-09
-1.874183652e-09
-2.631341489e-09
-3.538601855e-09
-4.619202075e-09
-5.898157752e-09
-7.402797828e-09
-9.163325934e-09
-1.121283228e-08
-1.358640023e-08
-1.63200697e-08
-1.945046122e-08
-2.301525893e-08
-2.705323344e-08
-3.160282915e-08
-3.669962813e-08
-4.237507095e-08
-4.865791196e-08
-5.557737806e-08
-6.316488838e-08
-7.145242384e-08
-8.046994099e-08
-9.024650926e-08
-1.008187919e-07
-1.122441787e-07
-1.246159111e-07
-1.380807632e-07
-1.528738665e-07
-1.693900585e-07
-1.883323195e-07
-2.109667721e-07
-2.394199666e-07
-2.764790366e-07
-3.166029935e-07
-3.134796681e-07
-4.672577238e-07
2.089429193e-07
-1.542691743e-06
8763.625254
0
0
0
0
0
0
0
0
0
0
0
0
0
0
0
0
0
0
0
0
0
0
0
0
0
0
0
0
0
0
0
0
0
0
0
0
0
0
0
0
0
0
0
0
0
0
0
0
0
0
0
0
0
0
0
0
0
0
-0.4203112882
2.681685003e-09
2.203143136e-09
1.851376279e-09
1.592249062e-09
1.424083445e-09
1.31410614e-09
1.245488638e-09
1.204426863e-09
1.179487288e-09
1.161407534e-09
1.142552409e-09
1.116479025e-09
1.077611616e-09
1.020969339e-09
9.419113283e-10
8.356520439e-10
6.968145581e-10
5.188333596e-10
2.93791795e-10
1.222278618e-11
-3.367702742e-10
-7.656880799e-10
-1.288941099e-09
-1.923214962e-09
-2.687629671e-09
-3.603536393e-09
-4.694174751e-09
-5.984767731e-09
-7.502913739e-09
-9.279224305e-09
-1.134720103e-08
-1.374244198e-08
-1.650158803e-08
-1.966205039e-08
-2.326231846e-08
-2.734186435e-08
-3.193978572e-08
-3.709293116e-08
-4.28354001e-08
-4.920067937e-08
-5.622474772e-08
-6.394747691e-08
-7.241121019e-08
-8.165939451e-08
-9.17401328e-08
-1.027162206e-07
-1.146788701e-07
-1.277586169e-07
-1.421337988e-07
-1.580394671e-07
-1.757839536e-07
-1.957789351e-07
-2.185456252e-07
-2.447259304e-07
-2.741820562e-07
-2.999236134e-07
-3.10650943e-07
-1.032885888e-06
-1.06246414e-06
-1.744179117e-06
-0.4379376621
0
0
0
0
0
0
0
0
0
0
0
0
0
0
0
0
0
0
0
0
0
0
0
0
0
0
0
0
0
0
0
0
0
0
0
0
0
0
0
0
0
0
0
0
0
0
0
0
0
0
0
0
0
0
0
0
0
0
0
2.418049475e-09
1.918536734e-09
1.565169766e-09
1.319183674e-09
1.172862956e-09
1.089920558e-09
1.050100503e-09
1.037174858e-09
1.038164068e-09
1.04295459e-09
1.043564459e-09
1.033599078e-09
1.007765425e-09
9.615726723e-10
8.908412011e-10
7.912534035e-10
6.576307492e-10
4.835480478e-10
2.609922376e-10
-1.948567795e-11
-3.687869724e-10
-7.992775485e-10
-1.325188086e-09
-1.962998885e-09
-2.73170507e-09
-3.652558948e-09
-4.748862211e-09
-6.045915927e-09
-7.571546868e-09
-9.356581954e-09
-1.143478526e-08
-1.384196909e-08
-1.661503366e-08
-1.979154705e-08
-2.340999806e-08
-2.750964595e-08
-3.212953374e-08
-3.730712563e-08
-4.307853187e-08
-4.94806416e-08
-5.655397249e-08
-6.434371843e-08
-7.289885792e-08
-8.227266823e-08
-9.252857389e-08
-1.037528507e-07
-1.160696931e-07
-1.296550327e-07
-1.447487508e-07
-1.61676307e-07
-1.808984747e-07
-2.031462331e-07
-2.297549964e-07
-2.635270766e-07
-3.101120843e-07
-3.778155314e-07
-4.651321969e-07
-3.0754038e-07
-4.649522611e-07
-0.00766437028
3040.379953
0
0
0
0
0
0
0
0
0
0
0
0
0
0
0
0
0
0
0
0
0
0
0
0
0
0
0
0
0
0
0
0
0
0
0
0
0
0
0
0
0
0
0
0
0
0
0
0
0
0
0
0
0
0
0
0
0
0
0
2.031169121e-09
1.51692191e-09
1.174555511e-09
9.575997751e-10
8.496737464e-10
8.091791048e-10
8.11461922e-10
8.374961425e-10
8.728532839e-10
9.068734341e-10
9.316944682e-10
9.413584354e-10
9.312980151e-10
8.977213535e-10
8.371682446e-10
7.457552672e-10
6.186293712e-10
4.49419802e-10
2.302175336e-10
-4.838060653e-11
-3.969875963e-10
-8.276815927e-10
-1.354290382e-09
-1.993090057e-09
-2.762884352e-09
-3.684916697e-09
-4.782462834e-09
-6.08087614e-09
-7.607998795e-09
-9.394689594e-09
-1.147465738e-08
-1.388362409e-08
-1.665817775e-08
-1.983538204e-08
-2.345285201e-08
-2.754888684e-08
-3.216171052e-08
-3.732882498e-08
-4.308727956e-08
-4.94756657e-08
-5.653616145e-08
-6.431543751e-08
-7.286469915e-08
-8.224211901e-08
-9.252135291e-08
-1.038060333e-07
-1.162473755e-07
-1.300607626e-07
-1.455442011e-07
-1.631036808e-07
-1.832895874e-07
-2.068371107e-07
-2.346558633e-07
-2.675783927e-07
-3.049457597e-07
-3.397728808e-07
-3.457204209e-07
-2.149359413e-07
6.859476606e-08
-0.003093914842
1227.451359
0
0
0
0
0
0
0
0
0
0
0
0
0
0
0
0
0
0
0
0
0
0
0
0
0
0
0
0
0
0
0
0
0
0
0
0
0
0
0
0
0
0
0
0
0
0
0
0
0
0
0
0
0
0
0
0
0
0
0
1.484465312e-09
9.661696645e-10
6.545000824e-10
4.903722953e-10
4.442139835e-10
4.667541105e-10
5.278322176e-10
6.056581266e-10
6.848520496e-10
7.549264961e-10
8.087933304e-10
8.416141687e-10
8.499045685e-10
8.309924343e-10
7.821831099e-10
7.001874189e-10
5.804383172e-10
4.167876506e-10
2.014721697e-10
-7.452759425e-11
-4.214430897e-10
-8.507783238e-10
-1.376017263e-09
-2.013121081e-09
-2.780839891e-09
-3.700373138e-09
-4.794995103e-09
-6.089920106e-09
-7.612803166e-09
-9.394192144e-09
-1.146743361e-08
-1.386762657e-08
-1.663058002e-08
-1.979207969e-08
-2.338823366e-08
-2.745561364e-08
-3.203114589e-08
-3.715151581e-08
-4.285348567e-08
-4.917496477e-08
-5.615644173e-08
-6.384172598e-08
-7.227906164e-08
-8.152541099e-08
-9.16563287e-08
-1.027813345e-07
-1.150614952e-07
-1.287273748e-07
-1.440984923e-07
-1.616036352e-07
-1.817800468e-07
-2.051797128e-07
-2.319798131e-07
-2.608172935e-07
-2.858811823e-07
-2.909955746e-07
-2.406249661e-07
-5.434489528e-08
3.790503881e-07
-0.00170877635
677.9935184
0
0
0
0
0
0
0
0
0
0
0
0
0
0
0
0
0
0
0
0
0
0
0
0
0
0
0
0
0
0
0
0
0
0
0
0
0
0
0
0
0
0
0
0
0
0
0
0
0
0
0
0
0
0
0
0
0
0
0
7.270365472e-10
2.228487379e-10
-2.581057043e-11
-1.010017753e-10
-5.226564853e-11
6.026102114e-11
2.005387577e-10
3.44730866e-10
4.778104354e-10
5.907012357e-10
6.781801884e-10
7.372302719e-10
7.661102383e-10
7.63408923e-10
7.274646824e-10
6.556085085e-10
5.436910963e-10
3.858760398e-10
1.748317093e-10
-9.795984456e-11
-4.420536115e-10
-8.68424312e-10
-1.390120598e-09
-2.022967803e-09
-2.785674176e-09
-3.699463074e-09
-4.787427641e-09
-6.07446259e-09
-7.587677389e-09
-9.3569874e-09
-1.141490678e-08
-1.379559628e-08
-1.653342563e-08
-1.966247172e-08
-2.321663905e-08
-2.723036769e-08
-3.173860021e-08
-3.677644137e-08
-4.237867566e-08
-4.857999312e-08
-5.541546446e-08
-6.292146029e-08
-7.113776736e-08
-8.011303662e-08
-8.991472109e-08
-1.00642789e-07
-1.124447425e-07
-1.255316287e-07
-1.401977566e-07
-1.568429659e-07
-1.759754181e-07
-1.981214879e-07
-2.234508277e-07
-2.506554061e-07
-2.7413098e-07
-2.782277762e-07
-2.287076551e-07
-4.55867858e-08
3.858925425e-07
-0.001707542533
677.5055455
0
0
0
0
0
0
0
0
0
0
0
0
0
0
0
0
0
0
0
0
0
0
0
0
0
0
0
0
0
0
0
0
0
0
0
0
0
0
0
0
0
0
0
0
0
0
0
0
0
0
0
0
0
0
0
0
0
0
0
-3.15842312e-10
-7.722560773e-10
-9.034971049e-10
-8.340368656e-10
-6.440681792e-10
-4.071211561e-10
-1.640304535e-10
6.192997976e-11
2.58511964e-10
4.201307774e-10
5.447822398e-10
6.322985867e-10
6.830774399e-10
6.97406742e-10
6.74708694e-10
6.130964597e-10
5.089335208e-10
3.56946717e-10
1.50394231e-10
-1.185189357e-10
-4.586638314e-10
-8.80422282e-10
-1.396592861e-09
-2.022925949e-09
-2.778211714e-09
-3.683550552e-09
-4.761708982e-09
-6.036884367e-09
-7.535332609e-09
-9.285911609e-09
-1.132004469e-08
-1.367044232e-08
-1.636979394e-08
-1.944989945e-08
-2.294223119e-08
-2.687857458e-08
-3.129144909e-08
-3.621318657e-08
-4.167480727e-08
-4.770490583e-08
-5.432965976e-08
-6.157382635e-08
-6.946388571e-08
-7.803358457e-08
-8.73324626e-08
-9.743558319e-08
-1.084536642e-07
-1.205444644e-07
-1.339313558e-07
-1.489339836e-07
-1.660113413e-07
-1.858122646e-07
-2.092069798e-07
-2.371448459e-07
-2.694367135e-07
-3.012749288e-07
-3.098846194e-07
-1.870895424e-07
8.817951858e-08
-0.003090318293
1226.028988
0
0
0
0
0
0
0
0
0
0
0
0
0
0
0
0
0
0
0
0
0
0
0
0
0
0
0
0
0
0
0
0
0
0
0
0
0
0
0
0
0
0
0
0
0
0
0
0
0
0
0
0
0
0
0
0
0
0
0
-1.760984572e-09
-2.102993263e-09
-2.020445431e-09
-1.719879369e-09
-1.32527774e-09
-9.225546354e-10
-5.517037324e-10
-2.299092926e-10
3.768476784e-11
2.517189907e-10
4.152605983e-10
5.318361415e-10
6.045986402e-10
6.356402386e-10
6.256961204e-10
5.736951738e-10
4.767888601e-10
3.303382467e-10
1.284202739e-10
-1.359777686e-10
-4.710441894e-10
-8.867585509e-10
-1.395774818e-09
-2.013933748e-09
-2.760023856e-09
-3.654896133e-09
-4.720610147e-09
-5.980377638e-09
-7.459165304e-09
-9.184590703e-09
-1.118662731e-08
-1.349645514e-08
-1.614469674e-08
-1.916078907e-08
-2.257331386e-08
-2.641118395e-08
-3.070368239e-08
-3.547929455e-08
-4.076323629e-08
-4.657551959e-08
-5.293027539e-08
-5.983751423e-08
-6.730663581e-08
-7.53518312e-08
-8.399740881e-08
-9.328284353e-08
-1.03266209e-07
-1.140296637e-07
-1.256917764e-07
-1.384349803e-07
-1.525605273e-07
-1.686300246e-07
-1.878602827e-07
-2.130546217e-07
-2.506850118e-07
-3.126655744e-07
-4.02165789e-07
-2.584746852e-07
-4.357994489e-07
-0.007658738702
3038.152609
0
0
0
0
0
0
0
0
0
0
0
0
0
0
0
0
0
0
0
0
0
0
0
0
0
0
0
0
0
0
0
0
0
0
0
0
0
0
0
0
0
0
0
0
0
0
0
0
0
0
0
0
0
0
0
0
0
0
0
-3.80691479e-09
-3.887976677e-09
-3.41450972e-09
-2.750347324e-09
-2.069790479e-09
-1.457283349e-09
-9.374412382e-10
-5.109737852e-10
-1.697862384e-10
9.648936282e-11
2.975919468e-10
4.416164028e-10
5.346536282e-10
5.808131661e-10
5.820935281e-10
5.384609402e-10
4.478486555e-10
3.06510556e-10
1.09303973e-10
-1.500156954e-10
-4.791163774e-10
-8.877505839e-10
-1.38862249e-09
-1.997643484e-09
-2.733489527e-09
-3.616432145e-09
-4.667527008e-09
-5.908563014e-09
-7.363097333e-09
-9.057239881e-09
-1.101956598e-08
-1.327951907e-08
-1.586570001e-08
-1.880484746e-08
-2.2122589e-08
-2.584438859e-08
-2.999566054e-08
-3.459958074e-08
-3.967383542e-08
-4.522757174e-08
-5.126095937e-08
-5.776720509e-08
-6.473688884e-08
-7.21616824e-08
-8.00369721e-08
-8.836153187e-08
-9.713679252e-08
-1.063678057e-07
-1.160709849e-07
-1.262866642e-07
-1.370942538e-07
-1.486333338e-07
-1.611601858e-07
-1.750462992e-07
-1.910141764e-07
-2.050269589e-07
-2.130724395e-07
-9.525415162e-07
-1.033166614e-06
-1.727788594e-06
-0.4380379498
0
0
0
0
0
0
0
0
0
0
0
0
0
0
0
0
0
0
0
0
0
0
0
0
0
0
0
0
0
0
0
0
0
0
0
0
0
0
0
0
0
0
0
0
0
0
0
0
0
0
0
0
0
0
0
0
0
0
0
-6.839679794e-09
-6.294692405e-09
-5.090831806e-09
-3.870840387e-09
-2.815183724e-09
-1.959440095e-09
-1.282905511e-09
-7.544050792e-10
-3.453796915e-10
-3.291626223e-11
2.004393943e-10
3.674494341e-10
4.771260525e-10
5.353595875e-10
5.454627082e-10
5.083263446e-10
4.228231747e-10
2.859760155e-10
9.344976473e-11
-1.604714726e-10
-4.831283186e-10
-8.842764153e-10
-1.376715902e-09
-1.976396989e-09
-2.701565449e-09
-3.571607785e-09
-4.606129563e-09
-5.825389506e-09
-7.251351372e-09
-8.908820043e-09
-1.082494264e-08
-1.302759681e-08
-1.554313232e-08
-1.839555908e-08
-2.160705695e-08
-2.519926448e-08
-2.919276061e-08
-3.36044034e-08
-3.844277498e-08
-4.370492503e-08
-4.937573708e-08
-5.543113308e-08
-6.18418577e-08
-6.85761774e-08
-7.559840995e-08
-8.286567161e-08
-9.032519493e-08
-9.791914933e-08