/*--------------------------------*- C++ -*----------------------------------*\
  =========                 |
  \\      /  F ield         | OpenFOAM: The Open Source CFD Toolbox
   \\    /   O peration     | Website:  https://openfoam.org
    \\  /    A nd           | Version:  6
     \\/     M anipulation  |
\*---------------------------------------------------------------------------*/
FoamFile
{
    version     2.0;
    format      ascii;
    class       volScalarField;
    location    "0.0009";
    object      Num_divU;
}
// * * * * * * * * * * * * * * * * * * * * * * * * * * * * * * * * * * * * * //

dimensions      [0 0 -1 0 0 0 0];

internalField   nonuniform List<scalar> 
9600
(
3.389226189e-09
3.297149792e-09
3.386831061e-09
3.558795916e-09
3.943512586e-09
4.375352943e-09
4.724351116e-09
5.073375173e-09
5.315243389e-09
5.547195045e-09
5.672197904e-09
5.796338306e-09
5.824612152e-09
5.864710046e-09
5.819008903e-09
5.7955712e-09
5.695906094e-09
5.629147932e-09
5.494058559e-09
5.396746854e-09
5.229456408e-09
5.095864058e-09
4.888510647e-09
4.716559987e-09
4.475899961e-09
4.273960471e-09
3.993995173e-09
3.726897689e-09
3.341724603e-09
2.92752191e-09
2.35836393e-09
1.720889185e-09
8.591870525e-10
-2.025436695e-10
-1.702393415e-09
-3.698808295e-09
-6.510966734e-09
-1.030064344e-08
-1.554306283e-08
-2.261359423e-08
-3.222971417e-08
-4.500384769e-08
-6.188729379e-08
-8.377196641e-08
-1.119861542e-07
-1.479124096e-07
-1.93430509e-07
-2.504666244e-07
-3.214082514e-07
-4.087191688e-07
-5.154811356e-07
-6.450628367e-07
-8.016203851e-07
-9.897276276e-07
-1.215002508e-06
-1.484052983e-06
-1.805939216e-06
-2.194229809e-06
-2.671408187e-06
-3.266462588e-06
-3.990290626e-06
-4.727835062e-06
-4.974966557e-06
-4.224428297e-06
-2.898055444e-06
-1.039106872e-05
-1.656044454e-05
9.704966297e-11
2.084700211e-10
2.037530463e-10
2.04460427e-10
1.945319577e-10
1.772391853e-10
1.855880661e-10
1.901142876e-10
2.167690766e-10
2.26198348e-10
2.458819493e-10
2.374664141e-10
2.470443951e-10
2.350214314e-10
2.411781332e-10
2.092424391e-10
1.841957143e-10
1.21482516e-10
7.70505848e-11
1.079484484e-11
-1.493825008e-11
-3.78418383e-11
-1.570675961e-11
-1.737628853e-11
-1.200300479e-11
-3.973700794e-11
-5.246861897e-11
-9.205796799e-11
-1.223070976e-10
-1.673816821e-10
-1.931879117e-10
-2.267148943e-10
-2.380298379e-10
-2.422183055e-10
-2.259366463e-10
-2.167764489e-10
-2.025800001e-10
-1.985448644e-10
-1.998124013e-10
-1.929742792e-10
-1.935057337e-10
-1.641041275e-10
-2.453325305e-10
-1.420157425e-10
-1.567007286e-10
-3.815605312e-11
-1.015455197e-05
2.49345317e-06
5.725236648e-06
3.984421965e-06
2.077628465e-07
-2.425410183e-06
7.477870685e-07
3.675138804e-09
3.514642526e-09
3.565645567e-09
3.684212371e-09
4.046219792e-09
4.437617185e-09
4.77751752e-09
5.097631659e-09
5.340721395e-09
5.552339975e-09
5.685900553e-09
5.79467312e-09
5.834791988e-09
5.860423702e-09
5.826985889e-09
5.789641827e-09
5.703276036e-09
5.623198483e-09
5.500804443e-09
5.387097838e-09
5.228753138e-09
5.076570571e-09
4.879765086e-09
4.693530751e-09
4.466495529e-09
4.245678557e-09
3.964442681e-09
3.655443678e-09
3.246528248e-09
2.774953907e-09
2.171302903e-09
1.45544788e-09
5.085764825e-10
-7.244247127e-10
-2.44327776e-09
-4.77844184e-09
-8.011947387e-09
-1.239529106e-08
-1.839007689e-08
-2.647366323e-08
-3.734135853e-08
-5.169056068e-08
-7.043861667e-08
-9.455490253e-08
-1.253064494e-07
-1.640729689e-07
-2.1252846e-07
-2.724050038e-07
-3.456869443e-07
-4.344667532e-07
-5.412312044e-07
-6.687167983e-07
-8.201069309e-07
-9.987567041e-07
-1.208176672e-06
-1.451605096e-06
-1.732986453e-06
-2.061038807e-06
-2.460499422e-06
-2.990843606e-06
-3.755256029e-06
-4.735706357e-06
-5.180565259e-06
-4.970702739e-06
6.529527886e-06
1.146207549e-05
1.248851198e-10
1.228253845e-10
1.194471406e-10
1.241429053e-10
1.224554245e-10
1.231621877e-10
1.186148629e-10
1.243105668e-10
1.295294864e-10
1.465385988e-10
1.539383809e-10
1.646982639e-10
1.59568611e-10
1.614179244e-10
1.51389195e-10
1.505433956e-10
1.320438139e-10
1.169057171e-10
8.115281214e-11
5.236590578e-11
1.238314396e-11
-5.717365928e-12
-1.924033109e-11
-8.173988461e-12
-8.580799559e-12
-8.722735137e-12
-3.040465226e-11
-4.819766139e-11
-7.769180649e-11
-9.779495425e-11
-1.223557424e-10
-1.35480563e-10
-1.500357912e-10
-1.511764562e-10
-1.494556421e-10
-1.411965405e-10
-1.403511148e-10
-1.377057853e-10
-1.387387603e-10
-1.323838316e-10
-1.28105272e-10
-1.177093417e-10
-1.094939579e-10
-1.072271075e-10
-1.165653575e-10
-8.254368707e-11
-1.230808576e-10
-7.35814485e-11
1.768467372e-05
8.601351375e-06
2.734749749e-06
5.135440598e-07
-3.006824647e-06
4.894193622e-07
3.976508803e-09
3.739100552e-09
3.755672744e-09
3.816752962e-09
4.159383928e-09
4.505436175e-09
4.839629129e-09
5.126019069e-09
5.373832465e-09
5.560164169e-09
5.705875806e-09
5.794354308e-09
5.849608355e-09
5.855919784e-09
5.838443506e-09
5.782030732e-09
5.712868126e-09
5.614421118e-09
5.5088803e-09
5.374536622e-09
5.230799143e-09
5.056700124e-09
4.876000205e-09
4.670427892e-09
4.459980885e-09
4.213058023e-09
3.933030439e-09
3.57691589e-09
3.149035107e-09
2.615021282e-09
1.977413899e-09
1.170022572e-09
1.287248224e-10
-1.298220015e-09
-3.255706537e-09
-5.966841117e-09
-9.66358549e-09
-1.470710262e-08
-2.153106011e-08
-3.073354768e-08
-4.297828008e-08
-5.906851356e-08
-7.987418932e-08
-1.064441398e-07
-1.399433926e-07
-1.817237781e-07
-2.331954857e-07
-2.958610899e-07
-3.71233634e-07
-4.609754304e-07
-5.668974756e-07
-6.910894828e-07
-8.358247804e-07
-1.003386404e-06
-1.195146707e-06
-1.41002326e-06
-1.642670921e-06
-1.884115463e-06
-2.130315311e-06
-2.43435192e-06
-2.995864275e-06
-4.305714299e-06
-6.649570423e-06
3.53264899e-06
9.359669891e-06
1.962519275e-05
1.34204422e-10
1.11141928e-10
1.076431994e-10
1.078720061e-10
1.110680235e-10
1.12002586e-10
1.157336305e-10
1.192508384e-10
1.299825927e-10
1.404379089e-10
1.532038811e-10
1.567152133e-10
1.58174008e-10
1.515835523e-10
1.483861697e-10
1.390268802e-10
1.303682858e-10
1.094112779e-10
8.565395099e-11
5.164632682e-11
2.365475519e-11
-6.368178083e-13
-6.629191744e-12
-7.656015157e-12
-4.52013906e-12
-1.538833894e-11
-3.240190287e-11
-5.864484529e-11
-8.008703216e-11
-1.017191695e-10
-1.170910579e-10
-1.327809237e-10
-1.411400418e-10
-1.448367977e-10
-1.409252213e-10
-1.386970296e-10
-1.384438329e-10
-1.413239285e-10
-1.378527635e-10
-1.287743415e-10
-1.166122266e-10
-1.089192306e-10
-9.933834457e-11
-9.530434503e-11
-8.697631909e-11
-1.07801866e-10
-1.487564178e-10
-5.598337721e-11
1.048714542e-05
1.9524316e-05
1.50532692e-05
6.403240305e-07
-3.015505234e-06
1.017219167e-06
4.279545355e-09
3.986653773e-09
3.938982519e-09
3.964165842e-09
4.258637451e-09
4.582499014e-09
4.883225022e-09
5.160292845e-09
5.385794687e-09
5.57254256e-09
5.703244604e-09
5.79725165e-09
5.840301538e-09
5.853584081e-09
5.824464583e-09
5.776144789e-09
5.696678112e-09
5.607529724e-09
5.491461419e-09
5.365211236e-09
5.209174477e-09
5.042747198e-09
4.850970586e-09
4.654540217e-09
4.430856163e-09
4.184483195e-09
3.875401269e-09
3.5008839e-09
3.027243783e-09
2.461411193e-09
1.760275696e-09
8.837805912e-10
-2.929892858e-10
-1.902634904e-09
-4.149862889e-09
-7.237870728e-09
-1.146724473e-08
-1.720030974e-08
-2.496059304e-08
-3.535830729e-08
-4.914242284e-08
-6.711494907e-08
-9.020982565e-08
-1.194364987e-07
-1.559467277e-07
-2.00920564e-07
-2.555655807e-07
-3.209884293e-07
-3.982593918e-07
-4.884040926e-07
-5.925696429e-07
-7.12084382e-07
-8.486150361e-07
-1.003858033e-06
-1.178398035e-06
-1.368533636e-06
-1.559564745e-06
-1.709731575e-06
-1.724977989e-06
-1.39278917e-06
-3.089816973e-07
1.834295507e-06
9.524020848e-07
2.490040769e-06
-5.881439421e-06
1.113439531e-10
1.018376295e-10
9.413340979e-11
9.195341708e-11
9.534995533e-11
9.9239356e-11
1.052333809e-10
1.088842769e-10
1.157372186e-10
1.232041458e-10
1.354714672e-10
1.43599569e-10
1.498058019e-10
1.471979553e-10
1.443464131e-10
1.369385942e-10
1.322841513e-10
1.20650628e-10
1.064969063e-10
8.155128316e-11
5.582166306e-11
2.695382862e-11
8.597722354e-12
-2.8249929e-12
-2.975797957e-12
-7.734869274e-12
-1.796537557e-11
-3.975629248e-11
-6.056288414e-11
-8.109152878e-11
-9.560979569e-11
-1.107790528e-10
-1.225480516e-10
-1.329944075e-10
-1.359465187e-10
-1.353835021e-10
-1.335384882e-10
-1.366574825e-10
-1.38456862e-10
-1.335693792e-10
-1.204386259e-10
-1.072298303e-10
-9.922402661e-11
-9.228729774e-11
-8.545802427e-11
-7.630939914e-11
-1.089924985e-10
-1.036915085e-10
-1.361973667e-10
-4.37688489e-11
1.45801013e-06
2.274004322e-05
8.085595747e-06
1.919138142e-06
2.87949524e-06
4.606727474e-09
4.237841581e-09
4.137697978e-09
4.109815816e-09
4.369461458e-09
4.654331447e-09
4.935850734e-09
5.187766037e-09
5.40574881e-09
5.576827454e-09
5.707308445e-09
5.79031523e-09
5.835842541e-09
5.839474969e-09
5.813960884e-09
5.75762361e-09
5.683992243e-09
5.588221402e-09
5.478425454e-09
5.34468306e-09
5.193809838e-09
5.01941919e-09
4.833390569e-09
4.628755859e-09
4.40693026e-09
4.142714606e-09
3.821098567e-09
3.413191852e-09
2.914020035e-09
2.302238958e-09
1.553503741e-09
5.848432873e-10
-7.22221298e-10
-2.547254311e-09
-5.086692475e-09
-8.593170594e-09
-1.337434623e-08
-1.986643542e-08
-2.86231205e-08
-4.033742568e-08
-5.57840274e-08
-7.583376144e-08
-1.014228177e-07
-1.335812411e-07
-1.733695399e-07
-2.218330908e-07
-2.798741301e-07
-3.482019003e-07
-4.272849698e-07
-5.17424273e-07
-6.188610387e-07
-7.320748093e-07
-8.581464654e-07
-9.990179752e-07
-1.157057607e-06
-1.333084805e-06
-1.519089977e-06
-1.678957125e-06
-1.688755269e-06
-1.214947519e-06
4.756502483e-07
3.925693777e-06
1.187164985e-05
1.053954162e-05
4.51194944e-11
7.508956574e-11
7.971460328e-11
7.79519825e-11
7.953670216e-11
8.422221901e-11
9.179797672e-11
9.848805241e-11
1.048956385e-10
1.104309411e-10
1.185406954e-10
1.268971638e-10
1.352652295e-10
1.384743101e-10
1.380926517e-10
1.329100653e-10
1.278517798e-10
1.20731507e-10
1.12766955e-10
9.845282727e-11
7.966313761e-11
5.521836689e-11
3.248094519e-11
1.351476478e-11
3.636479491e-12
-2.983476526e-12
-1.015109059e-11
-2.518140385e-11
-4.373956728e-11
-6.284932916e-11
-7.673420634e-11
-8.889372579e-11
-1.004223421e-10
-1.138880109e-10
-1.242908584e-10
-1.293568816e-10
-1.284969986e-10
-1.286478894e-10
-1.31609237e-10
-1.333638848e-10
-1.260123093e-10
-1.119847454e-10
-9.966823443e-11
-9.341199633e-11
-8.794415037e-11
-8.159202776e-11
-7.322138846e-11
-8.49326249e-11
-1.213420443e-10
-9.05881826e-11
-2.340263768e-11
-1.470134968e-12
2.160114379e-05
1.507292963e-05
-1.83664598e-06
9.396126666e-07
4.94621268e-09
4.506177959e-09
4.341179875e-09
4.266517365e-09
4.480490654e-09
4.734338173e-09
4.98699059e-09
5.222135379e-09
5.423260476e-09
5.586938891e-09
5.707243608e-09
5.78721297e-09
5.825056119e-09
5.82744287e-09
5.79631498e-09
5.741335848e-09
5.6644997e-09
5.571838265e-09
5.459447577e-09
5.328168412e-09
5.173585721e-09
5.001156509e-09
4.811079668e-09
4.606772844e-09
4.375881647e-09
4.102858292e-09
3.760550773e-09
3.332824191e-09
2.803221959e-09
2.158479511e-09
1.351527816e-09
2.941506933e-10
-1.162705482e-09
-3.205057278e-09
-6.05980454e-09
-9.994007574e-09
-1.536657618e-08
-2.265618978e-08
-3.248996031e-08
-4.561296749e-08
-6.286980351e-08
-8.517244243e-08
-1.135034784e-07
-1.488822652e-07
-1.923125438e-07
-2.44661185e-07
-3.065355796e-07
-3.781599234e-07
-4.593170072e-07
-5.493501786e-07
-6.473192632e-07
-7.523964751e-07
-8.645733756e-07
-9.856465861e-07
-1.120599769e-06
-1.279080874e-06
-1.473885341e-06
-1.699636643e-06
-1.872976801e-06
-1.535033841e-06
-2.448876628e-08
1.190883588e-05
1.674384575e-05
1.058617245e-05
3.092285482e-11
5.392379217e-11
6.168465056e-11
6.491170736e-11
6.913321437e-11
7.67182887e-11
8.573895718e-11
9.43304892e-11
1.006886862e-10
1.063155512e-10
1.121598077e-10
1.192603039e-10
1.25151363e-10
1.283658576e-10
1.270178314e-10
1.230142039e-10
1.17309807e-10
1.116752614e-10
1.039321235e-10
9.273942612e-11
7.594712168e-11
5.586488924e-11
3.499301154e-11
1.812277541e-11
5.698803139e-12
-3.51779634e-12
-1.512811657e-11
-3.043661213e-11
-4.78032653e-11
-6.145244865e-11
-7.095001168e-11
-7.901128403e-11
-9.0788915e-11
-1.05284796e-10
-1.182271254e-10
-1.239003588e-10
-1.237394327e-10
-1.230807205e-10
-1.256814567e-10
-1.261755543e-10
-1.187185449e-10
-1.055156851e-10
-9.577261845e-11
-9.13562738e-11
-8.793088257e-11
-8.216240663e-11
-7.725189044e-11
-8.014251766e-11
-8.614401196e-11
-6.324495467e-11
-1.859506034e-11
-6.631092522e-12
5.604367399e-08
3.92402673e-05
7.931351839e-06
-9.27883217e-08
5.304539526e-09
4.78392725e-09
4.554890257e-09
4.427496465e-09
4.598360572e-09
4.816086599e-09
5.043369505e-09
5.257373153e-09
5.444990267e-09
5.596457333e-09
5.709484293e-09
5.781342836e-09
5.814933561e-09
5.811733201e-09
5.779182012e-09
5.721768699e-09
5.646374955e-09
5.553211243e-09
5.442516262e-09
5.309732839e-09
5.15571909e-09
4.980886432e-09
4.79050224e-09
4.581689095e-09
4.345850655e-09
4.060947652e-09
3.705391986e-09
3.258554437e-09
2.708071698e-09
2.029124666e-09
1.167247658e-09
1.234628139e-11
-1.596812626e-09
-3.867250315e-09
-7.039866038e-09
-1.14167398e-08
-1.739823422e-08
-2.552874471e-08
-3.649900079e-08
-5.112777994e-08
-7.032311112e-08
-9.506637387e-08
-1.263888261e-07
-1.653326196e-07
-2.128499093e-07
-2.696576295e-07
-3.360593326e-07
-4.117785097e-07
-4.958145546e-07
-5.863626839e-07
-6.809091865e-07
-7.766351125e-07
-8.71217273e-07
-9.642083079e-07
-1.059781728e-06
-1.171853324e-06
-1.325551564e-06
-1.55052977e-06
-1.711528871e-06
-1.000838189e-06
7.137487289e-07
1.081670662e-05
1.193834899e-05
-2.244876203e-12
2.322125588e-11
4.206679188e-11
5.150599281e-11
5.654730827e-11
6.265727736e-11
7.139843143e-11
8.169507569e-11
9.076109129e-11
9.749928817e-11
1.022611145e-10
1.068333602e-10
1.116126244e-10
1.160223552e-10
1.180674389e-10
1.170866288e-10
1.132526733e-10
1.082845994e-10
1.027074738e-10
9.605760513e-11
8.625668299e-11
7.237004124e-11
5.49055933e-11
3.683439793e-11
2.059231221e-11
7.315257708e-12
-5.354456248e-12
-1.956350826e-11
-3.559374342e-11
-4.947214809e-11
-5.829282076e-11
-6.299450519e-11
-6.967439164e-11
-8.249482374e-11
-9.99820607e-11
-1.143011752e-10
-1.197540781e-10
-1.1767726e-10
-1.159641783e-10
-1.18186972e-10
-1.19574118e-10
-1.133161846e-10
-1.023158656e-10
-9.464031406e-11
-9.213892887e-11
-8.861465705e-11
-8.314917802e-11
-7.875218414e-11
-7.862946127e-11
-7.781144588e-11
-5.013048286e-11
-2.696802012e-11
4.643940136e-11
2.432089754e-11
2.565731637e-05
1.934349446e-05
1.353118202e-06
5.676909507e-09
5.073971671e-09
4.775462912e-09
4.594866431e-09
4.719406806e-09
4.902094419e-09
5.101801626e-09
5.295869791e-09
5.467485223e-09
5.607627263e-09
5.710636894e-09
5.775448475e-09
5.802418779e-09
5.795772766e-09
5.760383787e-09
5.703163149e-09
5.627827171e-09
5.536033638e-09
5.424970105e-09
5.292238142e-09
5.136477644e-09
4.961006867e-09
4.76827077e-09
4.557138503e-09
4.315447584e-09
4.023357353e-09
3.657272961e-09
3.198871286e-09
2.630553977e-09
1.921476668e-09
1.001875141e-09
-2.515799868e-10
-2.016601686e-09
-4.512534396e-09
-8.003392926e-09
-1.282389873e-08
-1.942874783e-08
-2.842670245e-08
-4.058360342e-08
-5.679286258e-08
-7.804428965e-08
-1.054016324e-07
-1.399766618e-07
-1.828633256e-07
-2.350082454e-07
-2.970239493e-07
-3.689625951e-07
-4.5007652e-07
-5.385637109e-07
-6.313650079e-07
-7.241168578e-07
-8.114069274e-07
-8.873429436e-07
-9.466394217e-07
-9.872750272e-07
-1.016367361e-06
-1.077248178e-06
-1.27949785e-06
-1.891303468e-06
-2.852919908e-06
1.90816344e-06
7.329425075e-06
1.25035137e-05
3.242209069e-12
2.43609889e-11
3.881364493e-11
4.668568281e-11
5.209804365e-11
5.87065968e-11
6.797523018e-11
7.842277468e-11
8.760896204e-11
9.403853537e-11
9.80597467e-11
1.011710015e-10
1.043627123e-10
1.073822664e-10
1.08922633e-10
1.080705172e-10
1.048545299e-10
1.004063641e-10
9.533176614e-11
8.933171987e-11
8.072933413e-11
6.859251839e-11
5.323198845e-11
3.678240057e-11
2.113929051e-11
6.761635327e-12
-7.621458487e-12
-2.294393215e-11
-3.759470096e-11
-4.799678047e-11
-5.244709879e-11
-5.466370054e-11
-6.162900228e-11
-7.730002729e-11
-9.734153134e-11
-1.12303816e-10
-1.156702657e-10
-1.109422385e-10
-1.075543256e-10
-1.105559798e-10
-1.141946941e-10
-1.110246001e-10
-1.023691203e-10
-9.597842543e-11
-9.277143381e-11
-8.814610803e-11
-8.191314256e-11
-7.862180251e-11
-7.632461649e-11
-7.038846806e-11
-5.350410358e-11
7.17888379e-13
3.01685617e-11
7.130568108e-12
-5.079793231e-06
4.173456725e-05
7.30802676e-06
6.06243216e-09
5.371222703e-09
5.00172979e-09
4.765832688e-09
4.843684549e-09
4.990091953e-09
5.162439032e-09
5.33535998e-09
5.491019953e-09
5.618071565e-09
5.71119835e-09
5.767815642e-09
5.789368673e-09
5.778983648e-09
5.742575882e-09
5.685124789e-09
5.610705605e-09
5.518926489e-09
5.407581357e-09
5.273355876e-09
5.116551097e-09
4.939552285e-09
4.746100458e-09
4.533180285e-09
4.289031192e-09
3.992640706e-09
3.621616237e-09
3.155837876e-09
2.574293632e-09
1.836076051e-09
8.595392922e-10
-4.92605201e-10
-2.409046072e-09
-5.123527145e-09
-8.921832799e-09
-1.417934339e-08
-2.140789533e-08
-3.128745714e-08
-4.466021438e-08
-6.250268041e-08
-8.589833005e-08
-1.160194347e-07
-1.540935471e-07
-2.013162226e-07
-2.586936882e-07
-3.268164309e-07
-4.055901688e-07
-4.939089989e-07
-5.892806267e-07
-6.87442698e-07
-7.821384612e-07
-8.651534275e-07
-9.266120932e-07
-9.551721502e-07
-9.360557026e-07
-8.41880018e-07
-5.9330903e-07
1.847204725e-08
1.44803856e-06
-1.953332686e-06
4.811820207e-06
-1.365506005e-06
2.865376385e-12
1.622665626e-11
2.913615907e-11
3.904529214e-11
4.548045189e-11
5.048265232e-11
5.685649366e-11
6.557377157e-11
7.547366412e-11
8.424621308e-11
9.028548473e-11
9.374769603e-11
9.586695387e-11
9.794496401e-11
1.000159553e-10
1.013499157e-10
1.008284471e-10
9.837396538e-11
9.433786467e-11
8.950920113e-11
8.342111795e-11
7.530135965e-11
6.405272267e-11
5.024176179e-11
3.515601866e-11
2.038515845e-11
5.944724775e-12
-8.823400896e-12
-2.382966425e-11
-3.648937676e-11
-4.370350751e-11
-4.558941681e-11
-4.765763421e-11
-5.720245666e-11
-7.622485504e-11
-9.79749711e-11
-1.113128378e-10
-1.108982917e-10
-1.025544568e-10
-9.829345566e-11
-1.032996538e-10
-1.109554449e-10
-1.115130304e-10
-1.047668678e-10
-9.733832385e-11
-9.17229864e-11
-8.548461631e-11
-7.959825064e-11
-7.771740205e-11
-7.648613694e-11
-7.200912639e-11
-5.527181572e-11
-2.277842204e-11
-3.899827395e-12
-1.747880429e-10
-1.005562386e-10
4.44827312e-05
-1.319102341e-10
6.456207596e-09
5.674124842e-09
5.230358993e-09
4.938265333e-09
4.968506494e-09
5.078482128e-09
5.222844075e-09
5.37448828e-09
5.513263504e-09
5.627276672e-09
5.709866935e-09
5.759094138e-09
5.775577441e-09
5.762865907e-09
5.725622906e-09
5.668514598e-09
5.594051334e-09
5.501748568e-09
5.388720513e-09
5.252873243e-09
5.094554454e-09
4.917487829e-09
4.7244009e-09
4.512504816e-09
4.268555901e-09
3.972221692e-09
3.60022211e-09
3.13124854e-09
2.538554697e-09
1.772781044e-09
7.406799028e-10
-7.048226846e-10
-2.762548867e-09
-5.679431535e-09
-9.767794308e-09
-1.544631529e-08
-2.328785991e-08
-3.404392537e-08
-4.86358236e-08
-6.812995806e-08
-9.371938586e-08
-1.267121366e-07
-1.684910023e-07
-2.204125014e-07
-2.836231475e-07
-3.588141353e-07
-4.459050726e-07
-5.436477993e-07
-6.491030611e-07
-7.570549455e-07
-8.594960124e-07
-9.454765521e-07
-1.00186833e-06
-1.016234364e-06
-9.824440507e-07
-8.980848392e-07
-7.326084064e-07
-2.41432116e-07
1.510812685e-06
4.848208601e-06
1.5486059e-05
1.575513917e-05
4.074097774e-11
3.756032703e-11
3.868396683e-11
4.267039741e-11
4.64934422e-11
5.051101181e-11
5.609502523e-11
6.389964272e-11
7.277604933e-11
8.062538557e-11
8.602088485e-11
8.890674422e-11
9.062561493e-11
9.227641848e-11
9.431520659e-11
9.579206326e-11
9.586274998e-11
9.376488802e-11
9.001568323e-11
8.483642922e-11
7.851569609e-11
7.0119641e-11
5.93784105e-11
4.635640876e-11
3.253368224e-11
1.874002998e-11
5.273001221e-12
-8.498803197e-12
-2.170874709e-11
-3.209740836e-11
-3.737477376e-11
-3.924339365e-11
-4.375158867e-11
-5.711196431e-11
-7.893587211e-11
-1.002537388e-10
-1.099346492e-10
-1.046387527e-10
-9.331542083e-11
-8.947659063e-11
-9.805562167e-11
-1.100672691e-10
-1.135829108e-10
-1.069402122e-10
-9.739944524e-11
-8.926211185e-11
-8.172811736e-11
-7.727807977e-11
-7.73873254e-11
-7.923892002e-11
-7.540854162e-11
-6.679587964e-11
-4.390609514e-11
-1.118890199e-10
-1.542220838e-10
-4.280230636e-10
-3.34822593e-10
-2.152538809e-10
6.852338233e-09
5.975164317e-09
5.456222198e-09
5.107383971e-09
5.09000152e-09
5.163398519e-09
5.280113704e-09
5.410113622e-09
5.532240845e-09
5.633184491e-09
5.706365013e-09
5.748991011e-09
5.761862805e-09
5.747472247e-09
5.709865908e-09
5.652391119e-09
5.576936026e-09
5.482583525e-09
5.367285985e-09
5.229497746e-09
5.070939071e-09
4.895293761e-09
4.7053663e-09
4.496875382e-09
4.256508529e-09
3.962878782e-09
3.592844193e-09
3.122709316e-09
2.520896774e-09
1.72971663e-09
6.470323808e-10
-8.824070073e-10
-3.06526754e-09
-6.163045545e-09
-1.051642078e-08
-1.65908603e-08
-2.502090324e-08
-3.662861425e-08
-5.241403632e-08
-7.35380348e-08
-1.013185068e-07
-1.372246806e-07
-1.828366581e-07
-2.397286442e-07
-3.09280958e-07
-3.924216485e-07
-4.893056109e-07
-5.988581173e-07
-7.181272436e-07
-8.413930498e-07
-9.590577951e-07
-1.056376759e-06
-1.112826658e-06
-1.105322539e-06
-1.021868342e-06
-9.049707042e-07
-9.189949567e-07
-1.396546592e-06
-1.591191371e-06
1.208118548e-05
2.313264564e-05
2.75673069e-05
7.490709928e-11
5.415302449e-11
4.671420912e-11
4.601736754e-11
4.801158853e-11
5.1309683e-11
5.617327027e-11
6.270940802e-11
7.006628121e-11
7.666548816e-11
8.130833787e-11
8.410861739e-11
8.595875577e-11
8.800640642e-11
9.025601196e-11
9.214147781e-11
9.235130315e-11
9.047708407e-11
8.636188654e-11
8.0733847e-11
7.354346088e-11
6.482000215e-11
5.409483734e-11
4.206607855e-11
2.952044309e-11
1.751378998e-11
5.734877912e-12
-5.991753961e-12
-1.730117066e-11
-2.615856861e-11
-3.161660578e-11
-3.589457993e-11
-4.451919713e-11
-6.144145733e-11
-8.377188187e-11
-1.017617091e-10
-1.059416735e-10
-9.632048682e-11
-8.413060479e-11
-8.290210906e-11
-9.534853208e-11
-1.104927528e-10
-1.151861674e-10
-1.074742714e-10
-9.536214626e-11
-8.524129684e-11
-7.89420781e-11
-7.724965766e-11
-8.099002966e-11
-8.463562288e-11
-8.345032505e-11
-7.564019186e-11
-6.462699477e-11
-9.337181505e-11
-2.463664286e-10
-3.072226669e-10
-2.776380783e-10
-2.039456808e-10
7.241494232e-09
6.267624209e-09
5.672103609e-09
5.266858945e-09
5.202139138e-09
5.239721882e-09
5.329270585e-09
5.438644985e-09
5.544930797e-09
5.634398686e-09
5.699415364e-09
5.737304742e-09
5.747713702e-09
5.732437436e-09
5.694013225e-09
5.635233121e-09
5.557312326e-09
5.460070688e-09
5.342123059e-09
5.203453788e-09
5.046323979e-09
4.874631385e-09
4.690099754e-09
4.487558365e-09
4.252496831e-09
3.963534182e-09
3.596711293e-09
3.126761478e-09
2.51733077e-09
1.70438079e-09
5.790676238e-10
-1.019712359e-09
-3.306582908e-09
-6.559112016e-09
-1.11486219e-08
-1.758732306e-08
-2.656840254e-08
-3.898045137e-08
-5.589987609e-08
-7.85870848e-08
-1.084951747e-07
-1.472757629e-07
-1.967336887e-07
-2.587116888e-07
-3.349021245e-07
-4.266172093e-07
-5.344889209e-07
-6.580403485e-07
-7.94998465e-07
-9.402129015e-07
-1.083806992e-06
-1.20776751e-06
-1.279586131e-06
-1.241328494e-06
-9.938881821e-07
-3.886986982e-07
8.003894691e-07
2.884701501e-06
2.219310253e-06
7.273499234e-06
2.238580466e-06
8.511055466e-11
7.324533176e-11
5.902158262e-11
5.08479449e-11
4.841311705e-11
4.949293706e-11
5.245044034e-11
5.662689075e-11
6.19152053e-11
6.764684873e-11
7.279432807e-11
7.671978475e-11
7.952655265e-11
8.208602522e-11
8.484028193e-11
8.777241272e-11
8.974393143e-11
8.988716432e-11
8.740664307e-11
8.274700417e-11
7.627628839e-11
6.865715194e-11
5.964975377e-11
4.946245505e-11
3.831416264e-11
2.739317937e-11
1.709103069e-11
7.45353659e-12
-2.402534249e-12
-1.219167155e-11
-2.108948236e-11
-2.85573935e-11
-3.673273503e-11
-4.931666583e-11
-6.779705189e-11
-8.773154311e-11
-1.001506255e-10
-9.872993385e-11
-8.669618606e-11
-7.642400941e-11
-7.958396766e-11
-9.588566314e-11
-1.122095171e-10
-1.153229149e-10
-1.049273978e-10
-9.112127699e-11
-8.211947387e-11
-7.888953091e-11
-8.163498063e-11
-8.841864311e-11
-9.334085695e-11
-9.097702227e-11
-8.628206325e-11
-8.199019822e-11
-1.054797723e-10
-1.717708283e-10
-2.56385299e-10
-2.313130773e-10
-1.674988041e-10
7.611053697e-09
6.537954356e-09
5.866770533e-09
5.40665026e-09
5.296274067e-09
5.300020274e-09
5.364523981e-09
5.4553162e-09
5.548312651e-09
5.628629511e-09
5.688229197e-09
5.723256844e-09
5.732438916e-09
5.716199373e-09
5.67628352e-09
5.614726773e-09
5.533412975e-09
5.432840558e-09
5.313308937e-09
5.175500526e-09
5.022261376e-09
4.856804696e-09
4.679585921e-09
4.483972232e-09
4.254785152e-09
3.970410667e-09
3.607253562e-09
3.13829166e-09
2.524283031e-09
1.695822544e-09
5.391658388e-10
-1.111963396e-09
-3.480014838e-09
-6.859786148e-09
-1.165354544e-08
-1.841817355e-08
-2.790054436e-08
-4.104882159e-08
-5.901204761e-08
-8.31492034e-08
-1.150558098e-07
-1.565737353e-07
-2.097495247e-07
-2.767169739e-07
-3.595346115e-07
-4.599970426e-07
-5.794225644e-07
-7.183403702e-07
-8.760136833e-07
-1.049666882e-06
-1.233053227e-06
-1.413184384e-06
-1.562395756e-06
-1.61862743e-06
-1.440990812e-06
-7.089611792e-07
1.233995427e-06
5.270783475e-06
1.890531167e-06
1.339207099e-05
5.64561207e-06
7.004668142e-11
6.879936098e-11
5.943411006e-11
5.219205592e-11
4.954499796e-11
5.079671689e-11
5.38630393e-11
5.759810401e-11
6.155488076e-11
6.553697407e-11
6.926855833e-11
7.263996106e-11
7.595884949e-11
7.942997944e-11
8.311285416e-11
8.618109114e-11
8.780277582e-11
8.694101196e-11
8.361263974e-11
7.809184567e-11
7.133863482e-11
6.360330323e-11
5.51269206e-11
4.564701224e-11
3.581967135e-11
2.622331213e-11
1.764717316e-11
9.473925776e-12
9.608114356e-13
-8.641929835e-12
-1.88829602e-11
-2.960699731e-11
-4.165822753e-11
-5.64724297e-11
-7.333854864e-11
-8.766853408e-11
-9.326834916e-11
-8.787690531e-11
-7.725715409e-11
-7.253346935e-11
-8.122703175e-11
-9.931290561e-11
-1.132701098e-10
-1.125565118e-10
-9.958505227e-11
-8.606352469e-11
-8.015075519e-11
-8.224994685e-11
-8.879915706e-11
-9.627046514e-11
-9.930536315e-11
-9.552042753e-11
-8.829159455e-11
-8.724146148e-11
-1.047061712e-10
-1.559383583e-10
-1.924287512e-10
-1.79028233e-10
-1.444154816e-10
7.942928835e-09
6.770959013e-09
6.025217761e-09
5.513402377e-09
5.360946263e-09
5.334651623e-09
5.378133306e-09
5.454687871e-09
5.538450826e-09
5.613684576e-09
5.67093268e-09
5.705389773e-09
5.714098002e-09
5.696679192e-09
5.654066482e-09
5.58890438e-09
5.503803433e-09
5.400983243e-09
5.281566762e-09
5.147206924e-09
5.000080672e-09
4.842257088e-09
4.67263129e-09
4.483568561e-09
4.25930972e-09
3.979145498e-09
3.619631581e-09
3.153662997e-09
2.538930589e-09
1.703083884e-09
5.279723264e-10
-1.15700831e-09
-3.583598935e-09
-7.064228097e-09
-1.203085099e-08
-1.907940405e-08
-2.900201138e-08
-4.279865594e-08
-6.168505459e-08
-8.711773925e-08
-1.208313208e-07
-1.64855676e-07
-2.21470454e-07
-2.930985024e-07
-3.821654496e-07
-4.909728172e-07
-6.215749689e-07
-7.756472723e-07
-9.543505537e-07
-1.158322408e-06
-1.387910506e-06
-1.643645922e-06
-1.926268033e-06
-2.232425182e-06
-2.529581919e-06
-2.669747032e-06
-2.128970283e-06
6.844403345e-07
1.61945284e-05
3.28913728e-05
2.964296884e-05
7.976689423e-11
7.293051446e-11
6.122376372e-11
5.32586922e-11
5.078477131e-11
5.230910421e-11
5.549290061e-11
5.868920101e-11
6.148017586e-11
6.399569186e-11
6.661618013e-11
6.977822888e-11
7.36159544e-11
7.799598011e-11
8.20305663e-11
8.479739739e-11
8.519398975e-11
8.303089199e-11
7.849601705e-11
7.263692194e-11
6.607830496e-11
5.930393018e-11
5.185177602e-11
4.365690325e-11
3.475884713e-11
2.619043583e-11
1.826296017e-11
1.074765556e-11
2.188334598e-12
-8.290616581e-12
-2.074705627e-11
-3.4291333e-11
-4.827336586e-11
-6.209951274e-11
-7.425255247e-11
-8.173594909e-11
-8.200399389e-11
-7.627634777e-11
-7.082998703e-11
-7.352204241e-11
-8.701652834e-11
-1.044209572e-10
-1.134279e-10
-1.072741712e-10
-9.219496381e-11
-8.106402257e-11
-8.070977225e-11
-8.761102637e-11
-9.601652069e-11
-1.01885217e-10
-1.020208657e-10
-9.482983359e-11
-8.646360567e-11
-8.57230739e-11
-9.911266005e-11
-1.279313762e-10
-1.573174073e-10
-1.489079078e-10
-1.20111451e-10
8.212784746e-09
6.941779031e-09
6.126129788e-09
5.56873065e-09
5.380774969e-09
5.331441193e-09
5.361133575e-09
5.430167771e-09
5.511131169e-09
5.58633149e-09
5.645308296e-09
5.6810906e-09
5.690154185e-09
5.670941868e-09
5.625119501e-09
5.556144898e-09
5.468384629e-09
5.365238261e-09
5.248720513e-09
5.119886609e-09
4.98013089e-09
4.829782306e-09
4.666680956e-09
4.482276494e-09
4.261623294e-09
3.984883784e-09
3.630123798e-09
3.169777926e-09
2.560511885e-09
1.726248788e-09
5.457335588e-10
-1.157164234e-09
-3.623072227e-09
-7.18149229e-09
-1.228981503e-08
-1.957639507e-08
-2.986924763e-08
-4.421111152e-08
-6.387775652e-08
-9.041626387e-08
-1.256924492e-07
-1.719072092e-07
-2.315517683e-07
-3.0730507e-07
-4.019216583e-07
-5.181422293e-07
-6.586357034e-07
-8.259509463e-07
-1.022569774e-06
-1.251294679e-06
-1.516488576e-06
-1.827096897e-06
-2.203341022e-06
-2.68807778e-06
-3.362695608e-06
-4.312254672e-06
-5.385198429e-06
-5.114833528e-06
1.207506226e-05
3.201640855e-05
3.461529965e-05
9.567725521e-11
7.662808637e-11
6.239586874e-11
5.406699396e-11
5.172526364e-11
5.360313771e-11
5.688054891e-11
5.970451584e-11
6.154102218e-11
6.29618877e-11
6.496363181e-11
6.821321658e-11
7.274062496e-11
7.755766645e-11
8.139853765e-11
8.28983625e-11
8.1649286e-11
7.785355271e-11
7.266559978e-11
6.70376335e-11
6.175888262e-11
5.645954846e-11
5.058055684e-11
4.329605397e-11
3.499072269e-11
2.632437046e-11
1.819829221e-11
1.009368499e-11
8.079658854e-13
-1.094986181e-11
-2.497832211e-11
-3.976062318e-11
-5.311931517e-11
-6.33369081e-11
-6.926906143e-11
-7.070767371e-11
-6.888655594e-11
-6.717707366e-11
-7.013776668e-11
-8.058774593e-11
-9.619523783e-11
-1.090218382e-10
-1.104841754e-10
-9.938686934e-11
-8.46621284e-11
-7.808870894e-11
-8.312109474e-11
-9.358049645e-11
-1.012868526e-10
-1.029529483e-10
-9.844150172e-11