/*--------------------------------*- C++ -*----------------------------------*\
  =========                 |
  \\      /  F ield         | OpenFOAM: The Open Source CFD Toolbox
   \\    /   O peration     | Website:  https://openfoam.org
    \\  /    A nd           | Version:  6
     \\/     M anipulation  |
\*---------------------------------------------------------------------------*/
FoamFile
{
    version     2.0;
    format      ascii;
    class       volScalarField;
    location    "0.0009";
    object      TRHS;
}
// * * * * * * * * * * * * * * * * * * * * * * * * * * * * * * * * * * * * * //

dimensions      [1 -1 -3 0 0 0 0];

internalField   nonuniform List<scalar> 
9600
(
3.277446816e-10
3.190287981e-10
3.282672033e-10
3.456281606e-10
3.841735349e-10
4.273436141e-10
4.621703309e-10
4.969582209e-10
5.210125774e-10
5.440608981e-10
5.564222198e-10
5.687051143e-10
5.714403381e-10
5.753788332e-10
5.707890695e-10
5.684654875e-10
5.585719231e-10
5.520170217e-10
5.386795402e-10
5.291697776e-10
5.127267448e-10
4.997085008e-10
4.793855569e-10
4.626995266e-10
4.392511777e-10
4.198408652e-10
3.928511327e-10
3.674778041e-10
3.307689269e-10
2.918372789e-10
2.383721742e-10
1.794142108e-10
9.988251792e-11
2.833293226e-12
-1.347399076e-10
-3.177254739e-10
-5.769241655e-10
-9.272675158e-10
-1.414927517e-09
-2.076067364e-09
-2.981102885e-09
-4.190082566e-09
-5.797149293e-09
-7.890826219e-09
-1.060357741e-08
-1.407366941e-08
-1.848938903e-08
-2.40439262e-08
-3.097681466e-08
-3.953544222e-08
-5.002930995e-08
-6.279725941e-08
-7.825800536e-08
-9.687393902e-08
-1.192147007e-07
-1.459528046e-07
-1.780107953e-07
-2.167674795e-07
-2.64498593e-07
-3.241350747e-07
-3.968020162e-07
-4.710302024e-07
-4.964424953e-07
-4.223389697e-07
-2.909296574e-07
-1.041291713e-06
-0.001635132554
1294.970118
0
0
0
0
0
0
0
0
0
0
0
0
0
0
0
0
0
0
0
0
0
0
0
0
0
0
0
0
0
0
0
0
0
0
0
0
0
0
0
0
0
0
0
0
771.6914609
-0.000974967025
2.478473209e-07
5.694016577e-07
3.991015857e-07
2.10267752e-08
-2.411381249e-07
-2.457274231e-08
3.55430021e-10
3.399891487e-10
3.454881783e-10
3.576227499e-10
3.939785045e-10
4.331921613e-10
4.671737885e-10
4.991273338e-10
5.233393021e-10
5.443943714e-10
5.576400467e-10
5.684147908e-10
5.723403176e-10
5.748653895e-10
5.715101515e-10
5.678040251e-10
5.592503299e-10
5.513710619e-10
5.393121492e-10
5.281712191e-10
5.126325405e-10
4.977721836e-10
4.785334963e-10
4.604371715e-10
4.384065393e-10
4.171711622e-10
3.901668159e-10
3.607493722e-10
3.218875597e-10
2.77538118e-10
2.210699284e-10
1.549083252e-10
6.77197937e-11
-4.530839943e-11
-2.032860398e-10
-4.18260225e-10
-7.172745932e-10
-1.124249354e-09
-1.684066928e-09
-2.443257377e-09
-3.470312203e-09
-4.834226218e-09
-6.626392341e-09
-8.94390814e-09
-1.191418529e-08
-1.567643496e-08
-2.039974085e-08
-2.625931029e-08
-3.345571144e-08
-4.220030152e-08
-5.274379773e-08
-6.53619007e-08
-8.037535148e-08
-9.812299071e-08
-1.189609759e-07
-1.432209881e-07
-1.713090548e-07
-2.041130356e-07
-2.441274347e-07
-2.973249101e-07
-3.740526415e-07
-4.725400588e-07
-5.176705995e-07
-4.976013806e-07
6.505611936e-07
-0.005374376599
2131.937268
0
0
0
0
0
0
0
0
0
0
0
0
0
0
0
0
0
0
0
0
0
0
0
0
0
0
0
0
0
0
0
0
0
0
0
0
0
0
0
0
0
0
0
0
0
0
1865.889429
-0.004703117368
8.630844235e-07
2.708775694e-07
5.451451591e-08
-2.997017471e-07
-6.724358023e-08
3.845974009e-10
3.616173893e-10
3.638135435e-10
3.702957177e-10
4.048218563e-10
4.395767641e-10
4.73066531e-10
5.017026011e-10
5.264452959e-10
5.450036134e-10
5.594917193e-10
5.682641096e-10
5.737338954e-10
5.743323108e-10
5.725832447e-10
5.669849794e-10
5.601625736e-10
5.504475128e-10
5.400833986e-10
5.268912057e-10
5.12830724e-10
4.957837256e-10
4.781774286e-10
4.581885003e-10
4.378579346e-10
4.140933897e-10
3.87313757e-10
3.533516693e-10
3.128350034e-10
2.625807887e-10
2.032109864e-10
1.285707964e-10
3.286235242e-11
-9.831803118e-11
-2.785629718e-10
-5.29097272e-10
-8.719627426e-10
-1.342039072e-09
-1.981512025e-09
-2.849169632e-09
-4.010656365e-09
-5.546043564e-09
-7.542670646e-09
-1.010648216e-08
-1.335579937e-08
-1.74283489e-08
-2.246827498e-08
-2.862930069e-08
-3.606623843e-08
-4.494855412e-08
-5.546004664e-08
-6.781175625e-08
-8.223259706e-08
-9.895238299e-08
-1.181105173e-07
-1.396025329e-07
-1.629003124e-07
-1.871162864e-07
-2.118599496e-07
-2.424562862e-07
-2.988869037e-07
-4.30250181e-07
-6.651092077e-07
3.526399149e-07
9.348852888e-07
-0.05127557107
5154.293148
0
0
0
0
0
0
0
0
0
0
0
0
0
0
0
0
0
0
0
0
0
0
0
0
0
0
0
0
0
0
0
0
0
0
0
0
0
0
0
0
0
0
0
0
0
0
4637.231481
-0.04872392992
1.952411533e-06
1.508007728e-06
6.436211818e-08
-2.977432266e-07
-3.857964058e-08
4.138896349e-10
3.855267363e-10
3.814167268e-10
3.844406126e-10
4.142602508e-10
4.46875299e-10
4.770966327e-10
5.048645843e-10
5.274239629e-10
5.460728457e-10
5.59091781e-10
5.684516922e-10
5.72712919e-10
5.74027557e-10
5.711251487e-10
5.663548797e-10
5.584984408e-10
5.497290472e-10
5.383178035e-10
5.259443085e-10
5.10659695e-10
4.944023422e-10
4.757096681e-10
4.566690423e-10
4.350670245e-10
4.114337528e-10
3.81860867e-10
3.462352789e-10
3.013956483e-10
2.483301198e-10
1.831227759e-10
1.02298235e-10
-5.966484686e-12
-1.541050672e-10
-3.616071078e-10
-6.476709988e-10
-1.041164435e-09
-1.577102551e-09
-2.306749244e-09
-3.290294082e-09
-4.602257591e-09
-6.323084392e-09
-8.547230754e-09
-1.137763669e-08
-1.493244467e-08
-1.933354488e-08
-2.470627363e-08
-3.116625656e-08
-3.882540542e-08
-4.77906052e-08
-5.817989212e-08
-7.012812275e-08
-8.380263159e-08
-9.937265507e-08
-1.168957992e-07
-1.360015423e-07
-1.552210617e-07
-1.703821526e-07
-1.720861917e-07
-1.390917085e-07
-3.099158493e-08
1.829952034e-07
9.441693655e-08
2.480462563e-07
-2.429233643e-06
15187.05576
0
0
0
0
0
0
0
0
0
0
0
0
0
0
0
0
0
0
0
0
0
0
0
0
0
0
0
0
0
0
0
0
0
0
0
0
0
0
0
0
0
0
0
0
0
0
0
0
14691.51385
-1.792000952e-06
2.27041251e-06
8.084291562e-07
1.886165372e-07
1.103455968e-07
4.455459614e-10
4.097368091e-10
4.005475392e-10
3.984027905e-10
4.248210234e-10
4.536620443e-10
4.820294992e-10
5.073485687e-10
5.2921236e-10
5.463301863e-10
5.593712581e-10
5.676500232e-10
5.72183776e-10
5.725468429e-10
5.700290042e-10
5.644593506e-10
5.571968736e-10
5.47776142e-10
5.370013231e-10
5.238860643e-10
5.091257297e-10
4.920891192e-10
4.739952197e-10
4.541618864e-10
4.328041166e-10
4.074610395e-10
3.767608087e-10
3.379766187e-10
2.908456207e-10
2.335682839e-10
1.641547424e-10
7.488061793e-11
-4.536980452e-11
-2.136499674e-10
-4.485648476e-10
-7.741990125e-10
-1.220079579e-09
-1.828640562e-09
-2.654247921e-09
-3.765577467e-09
-5.240046858e-09
-7.165511036e-09
-9.637370313e-09
-1.276156049e-08
-1.66482602e-08
-2.140722572e-08
-2.713471754e-08
-3.390808547e-08
-4.178041506e-08
-5.078717779e-08
-6.095638857e-08
-7.233791012e-08
-8.503952943e-08
-9.925307363e-08
-1.152114707e-07
-1.329921775e-07
-1.517903463e-07
-1.679923583e-07
-1.692061548e-07
-1.220834653e-07
4.66799207e-08
3.913216115e-07
1.185199987e-06
-0.004185053542
1660.084553
0
0
0
0
0
0
0
0
0
0
0
0
0
0
0
0
0
0
0
0
0
0
0
0
0
0
0
0
0
0
0
0
0
0
0
0
0
0
0
0
0
0
0
0
0
0
0
0
0
0
1129.230412
-0.002845805073
1.500673935e-06
-1.799443553e-07
-1.402463084e-07
4.783982941e-10
4.356634469e-10
4.201326581e-10
4.134276517e-10
4.354360437e-10
4.612423601e-10
4.868125391e-10
5.105283358e-10
5.307610696e-10
5.471874727e-10
5.592371534e-10
5.672422888e-10
5.710359464e-10
5.712987391e-10
5.682247961e-10
5.62797351e-10
5.552279146e-10
5.461271904e-10
5.350909875e-10
5.22238741e-10
5.07110073e-10
4.902961757e-10
4.718064485e-10
4.520518343e-10
4.298334007e-10
4.036913885e-10
3.710450858e-10
3.304610346e-10
2.805669222e-10
2.203939884e-10
1.457240752e-10
4.838262949e-11
-8.575654083e-11
-2.743134508e-10
-5.388630854e-10
-9.048642181e-10
-1.406944657e-09
-2.091789738e-09
-3.021190328e-09
-4.269208383e-09
-5.920599284e-09
-8.067831962e-09
-1.081164648e-08
-1.425783973e-08
-1.851203452e-08
-2.366744347e-08
-2.9792256e-08
-3.691673636e-08
-4.502667911e-08
-5.406278914e-08
-6.393545034e-08
-7.456364064e-08
-8.594523285e-08
-9.82555728e-08
-1.11986175e-07
-1.280933798e-07
-1.478479586e-07
-1.707044953e-07
-1.883213097e-07
-1.548066236e-07
-4.01857343e-09
1.189088201e-06
1.672693667e-06
-0.01653046735
5404.378824
0
0
0
0
0
0
0
0
0
0
0
0
0
0
0
0
0
0
0
0
0
0
0
0
0
0
0
0
0
0
0
0
0
0
0
0
0
0
0
0
0
0
0
0
0
0
0
0
0
0
4327.136675
-0.0109079604
3.926804346e-06
7.923581852e-07
-3.523954307e-07
5.130993429e-10
4.624835568e-10
4.40733356e-10
4.28908543e-10
4.466967891e-10
4.690151046e-10
4.921330984e-10
5.138035881e-10
5.327364782e-10
5.479853861e-10
5.593582276e-10
5.665818044e-10
5.699626058e-10
5.696805465e-10
5.664763725e-10
5.608226176e-10
5.534100973e-10
5.442587675e-10
5.334075181e-10
5.204029577e-10
5.053427246e-10
4.882945735e-10
4.698030769e-10
4.496240814e-10
4.269621038e-10
3.997177773e-10
3.658720051e-10
3.235593302e-10
2.718639983e-10
2.086772044e-10
1.291108938e-10
2.282503065e-11
-1.254061761e-10
-3.352652347e-10
-6.296197809e-10
-1.037392696e-09
-1.597277454e-09
-2.362548527e-09
-3.401417692e-09
-4.795495758e-09
-6.636186221e-09
-9.023370006e-09
-1.206332166e-08
-1.586499157e-08
-2.052992374e-08
-2.613756357e-08
-3.272706697e-08
-4.027995576e-08
-4.8704904e-08
-5.782871587e-08
-6.740488126e-08
-7.715308516e-08
-8.683876285e-08
-9.641100993e-08
-1.06277541e-07
-1.178178186e-07
-1.335315603e-07
-1.563716595e-07
-1.72802305e-07
-1.020478941e-07
6.911120404e-08
1.0789311e-06
8.436347834e-07
1153.460649
0
0
0
0
0
0
0
0
0
0
0
0
0
0
0
0
0
0
0
0
0
0
0
0
0
0
0
0
0
0
0
0
0
0
0
0
0
0
0
0
0
0
0
0
0
0
0
0
0
0
0
0
-0.1846255101
2.103721437e-06
1.937336662e-06
-4.221510253e-07
5.492013902e-10
4.90557096e-10
4.62014727e-10
4.450157057e-10
4.583155409e-10
4.772270423e-10
4.976630275e-10
5.174202315e-10
5.348156071e-10
5.489782569e-10
5.593711342e-10
5.659124451e-10
5.686612848e-10
5.680541446e-10
5.645861502e-10
5.589516189e-10
5.51549784e-10
5.42537266e-10
5.316522844e-10
5.186663648e-10
5.034426637e-10
4.863416829e-10
4.676339755e-10
4.472498216e-10
4.240585842e-10
3.961697464e-10
3.613916331e-10
3.181234582e-10
2.649144496e-10
1.991365345e-10
1.143839782e-10
-9.070802819e-13
-1.635760126e-10
-3.94433077e-10
-7.185877405e-10
-1.168121655e-09
-1.787132894e-09
-2.635292684e-09
-3.788383836e-09
-5.335616969e-09
-7.376847797e-09
-1.002060854e-08
-1.338185422e-08
-1.757550163e-08
-2.270352652e-08
-2.883609312e-08
-3.598843844e-08
-4.409621843e-08
-5.298906776e-08
-6.236919978e-08
-7.180553513e-08
-8.075823782e-08
-8.863493735e-08
-9.489920485e-08
-9.933670945e-08
-1.026437509e-07
-1.091363678e-07
-1.29755563e-07
-1.91304327e-07
-2.877872296e-07
1.880793444e-07
7.304118819e-07
-0.02765249979
4270.465397
0
0
0
0
0
0
0
0
0
0
0
0
0
0
0
0
0
0
0
0
0
0
0
0
0
0
0
0
0
0
0
0
0
0
0
0
0
0
0
0
0
0
0
0
0
0
0
0
0
0
0
0
1533.943332
-0.003867610187
4.173613699e-06
-3.435628544e-07
5.866224893e-10
5.193458386e-10
4.838892463e-10
4.615189211e-10
4.702778012e-10
4.856550084e-10
5.034611743e-10
5.211559799e-10
5.370044268e-10
5.499073043e-10
5.593503186e-10
5.650990133e-10
5.673252695e-10
5.663534111e-10
5.627861219e-10
5.571529754e-10
5.498390281e-10
5.408445912e-10
5.299364542e-10
5.167997365e-10
5.014758504e-10
4.84233825e-10
4.654702549e-10
4.449372097e-10
4.215459798e-10
3.933037439e-10
3.581542573e-10
3.143263175e-10
2.600753439e-10
1.917990432e-10
1.019502022e-10
-2.236888826e-11
-1.990240245e-10
-4.501559993e-10
-8.029819923e-10
-1.293556253e-09
-1.971618967e-09
-2.903917256e-09
-4.173891874e-09
-5.879171368e-09
-8.129186959e-09
-1.104370766e-08
-1.474977608e-08
-1.937318969e-08
-2.502277057e-08
-3.176749115e-08
-3.960907111e-08
-4.844844645e-08
-5.804723374e-08
-6.798809379e-08
-7.765099224e-08
-8.621573802e-08
-9.269083624e-08
-9.593264902e-08
-9.444891491e-08
-8.548297574e-08
-6.108088675e-08
-3.420041257e-10
1.422016545e-07
-1.983238368e-07
4.775205359e-07
-1.903446416e-06
6698.94614
0
0
0
0
0
0
0
0
0
0
0
0
0
0
0
0
0
0
0
0
0
0
0
0
0
0
0
0
0
0
0
0
0
0
0
0
0
0
0
0
0
0
0
0
0
0
0
0
0
0
0
0
0
0
-0.2400292382
4.140105174e-06
-0.05859485617
6.24891214e-10
5.487552012e-10
5.060499459e-10
4.782173404e-10
4.823231738e-10
4.941817567e-10
5.092590306e-10
5.248913537e-10
5.391091522e-10
5.507442655e-10
5.591654204e-10
5.641959324e-10
5.659303903e-10
5.64740411e-10
5.611041719e-10
5.554968273e-10
5.481912632e-10
5.391467375e-10
5.280676889e-10
5.147722174e-10
4.993085664e-10
4.820666413e-10
4.633557217e-10
4.429484233e-10
4.196220597e-10
3.914570973e-10
3.563183682e-10
3.123562306e-10
2.57265309e-10
1.866285683e-10
9.18105606e-11
-4.101145028e-11
-2.306283825e-10
-5.004341422e-10
-8.801790127e-10
-1.410162118e-09
-2.146122686e-09
-3.161918953e-09
-4.548877235e-09
-6.413684577e-09
-8.87688835e-09
-1.207212644e-08
-1.614240926e-08
-2.123022724e-08
-2.745918668e-08
-3.490923027e-08
-4.358442007e-08
-5.3372466e-08
-6.399117808e-08
-7.49285447e-08
-8.538983079e-08
-9.428121012e-08
-1.002852551e-07
-1.021475465e-07
-9.923853255e-08
-9.129571544e-08
-7.523972056e-08
-2.658560795e-08
1.482329749e-07
4.816698606e-07
1.545231351e-06
1.550370638e-06
-0.009267060189
0
0
0
0
0
0
0
0
0
0
0
0
0
0
0
0
0
0
0
0
0
0
0
0
0
0
0
0
0
0
0
0
0
0
0
0
0
0
0
0
0
0
0
0
0
0
0
0
0
0
0
0
0
0
-0.06320962147
-1.59385737e-07
-0.0314333357
6.634774708e-10
5.780411873e-10
5.280161969e-10
4.946499377e-10
4.941359693e-10
5.024140825e-10
5.14801031e-10
5.283414606e-10
5.409280102e-10
5.512904289e-10
5.587859714e-10
5.63174473e-10
5.645621661e-10
5.632039284e-10
5.595448948e-10
5.539103213e-10
5.465081436e-10
5.37252607e-10
5.259565461e-10
5.124660628e-10
4.969785812e-10
4.798798989e-10
4.614963245e-10
4.414632701e-10
4.185269133e-10
3.906992861e-10
3.558738966e-10
3.119523589e-10
2.562119376e-10
1.834217977e-10
8.411764401e-11
-5.629086785e-11
-2.572870369e-10
-5.436322673e-10
-9.478111206e-10
-1.514687113e-09
-2.306073955e-09
-3.402795106e-09
-4.904010056e-09
-6.925862261e-09
-9.601490809e-09
-1.308086015e-08
-1.752704709e-08
-2.310480132e-08
-2.996173023e-08
-3.820220126e-08
-4.785464509e-08
-5.882494923e-08
-7.083044265e-08
-8.330933467e-08
-9.530820077e-08
-1.053536989e-07
-1.113883989e-07
-1.110920774e-07
-1.032471144e-07
-9.208098628e-08
-9.400342515e-08
-1.422456143e-07
-1.621242446e-07
1.204832524e-06
2.310228481e-06
-0.06628733986
18517.92171
0
0
0
0
0
0
0
0
0
0
0
0
0
0
0
0
0
0
0
0
0
0
0
0
0
0
0
0
0
0
0
0
0
0
0
0
0
0
0
0
0
0
0
0
0
0
0
0
0
0
0
0
0
0
12095.21579
-0.03049019452
-8.128528217e-07
7.014679242e-10
6.066006421e-10
5.490927473e-10
5.102378806e-10
5.05097502e-10
5.098903826e-10
5.196301059e-10
5.311437229e-10
5.421812057e-10
5.514091834e-10
5.58111193e-10
5.620328902e-10
5.631774944e-10
5.617437316e-10
5.579900073e-10
5.522283206e-10
5.445780769e-10
5.350412541e-10
5.234696885e-10
5.098998457e-10
4.94547164e-10
4.778625483e-10
4.600218103e-10
4.405960724e-10
4.18231803e-10
3.909235309e-10
3.565171353e-10
3.127802531e-10
2.565139917e-10
1.819179762e-10
7.888439873e-11
-6.767819664e-11
-2.779897092e-10
-5.783108364e-10
-1.004087976e-09
-1.6047448e-09
-2.447845112e-09
-3.620750957e-09
-5.230191729e-09
-7.402230108e-09
-1.028356933e-08
-1.404253204e-08
-1.886492065e-08
-2.4942695e-08
-3.245515841e-08
-4.154568686e-08
-5.229109899e-08
-6.465778067e-08
-7.843162234e-08
-9.310835067e-08
-1.077070039e-07
-1.204274453e-07
-1.280134292e-07
-1.24659068e-07
-1.004346476e-07
-4.045940206e-08
7.790739791e-08
2.858168145e-07
2.187837532e-07
7.234268744e-07
-1.442866952e-06
7778.385768
0
0
0
0
0
0
0
0
0
0
0
0
0
0
0
0
0
0
0
0
0
0
0
0
0
0
0
0
0
0
0
0
0
0
0
0
0
0
0
0
0
0
0
0
0
0
0
0
0
0
0
0
0
0
0
0
1198.276722
-0.01059671338
7.376855594e-10
6.331188573e-10
5.682263878e-10
5.240182862e-10
5.144164427e-10
5.158913849e-10
5.231656843e-10
5.328500175e-10
5.425732668e-10
5.508954008e-10
5.570554792e-10
5.606894175e-10
5.61714321e-10
5.601769669e-10
5.562800399e-10
5.50229779e-10
5.422402864e-10
5.323597982e-10
5.206341639e-10
5.071448554e-10
4.921898588e-10
4.761165679e-10
4.590206613e-10
4.403029063e-10
4.185477375e-10
3.917626608e-10
3.577996272e-10
3.143048753e-10
2.578010276e-10
1.819905852e-10
7.632210156e-11
-7.475104787e-11
-2.921568744e-10
-6.037791549e-10
-1.048066311e-09
-1.678773262e-09
-2.568709205e-09
-3.811083897e-09
-5.51976769e-09
-7.830628373e-09
-1.090457243e-08
-1.492902578e-08
-2.011409058e-08
-2.668108611e-08
-3.484628234e-08
-4.480176584e-08
-5.669351588e-08
-7.058911123e-08
-8.642865114e-08
-1.039458355e-07
-1.225230644e-07
-1.408628289e-07
-1.561930885e-07
-1.622948059e-07
-1.450587987e-07
-7.240597198e-08
1.213483661e-07
5.245275386e-07
1.860888722e-07
1.335808803e-06
-8.555796134e-07
-0.5625962439
0
0
0
0
0
0
0
0
0
0
0
0
0
0
0
0
0
0
0
0
0
0
0
0
0
0
0
0
0
0
0
0
0
0
0
0
0
0
0
0
0
0
0
0
0
0
0
0
0
0
0
0
0
0
0
0
-0.3421671778
-0.001748194708
7.703698811e-10
6.561569034e-10
5.839725804e-10
5.347185408e-10
5.20976039e-10
5.194996924e-10
5.246900961e-10
5.329545665e-10
5.417471057e-10
5.495451389e-10
5.554567317e-10
5.590179305e-10
5.599758514e-10
5.583103718e-10
5.54131373e-10
5.477185661e-10
5.393376147e-10
5.29227856e-10
5.175131301e-10
5.043608662e-10
4.900134606e-10
4.747060687e-10
4.583730159e-10
4.40318666e-10
4.190905228e-10
3.927608423e-10
3.592426086e-10
3.161636671e-10
2.597899235e-10
1.835407067e-10
7.647826132e-11
-7.732707001e-11
-2.996447327e-10
-6.200556626e-10
-1.079838882e-09
-1.736564163e-09
-2.667422882e-09
-3.970673901e-09
-5.766735453e-09
-8.201114835e-09
-1.144857994e-08
-1.571532531e-08
-2.123485047e-08
-2.825750316e-08
-3.703651862e-08
-4.781499373e-08
-6.081293346e-08
-7.621299438e-08
-9.414551997e-08
-1.146859989e-07
-1.378766468e-07
-1.637721482e-07
-1.924409079e-07
-2.235344761e-07
-2.53778268e-07
-2.683448005e-07
-2.14803433e-07
6.605988089e-08
1.61671782e-06
3.286195629e-06
-0.03520215449
13965.70375
0
0
0
0
0
0
0
0
0
0
0
0
0
0
0
0
0
0
0
0
0
0
0
0
0
0
0
0
0
0
0
0
0
0
0
0
0
0
0
0
0
0
0
0
0
0
0
0
0
0
0
0
0
0
0
0
25082.7081
-0.1147723256
7.971966517e-10
6.733002868e-10
5.942881267e-10
5.405588636e-10
5.233101021e-10
5.195381409e-10
5.233316589e-10
5.308140227e-10
5.392873355e-10
5.470536753e-10
5.530902514e-10
5.567594228e-10
5.577269562e-10
5.558533822e-10
5.513367568e-10
5.445279154e-10
5.35874525e-10
5.257240783e-10
5.142903372e-10
5.016870404e-10
4.880671616e-10
4.735051094e-10
4.578249617e-10
4.402496136e-10
4.193938989e-10
3.934446661e-10
3.604612138e-10
3.180544244e-10
2.623925903e-10
1.865591176e-10
7.935199932e-11
-7.56689828e-11
-3.010910297e-10
-6.281143262e-10
-1.100479875e-09
-1.778860798e-09
-2.743921185e-09
-4.09805443e-09
-5.967553963e-09
-8.506854365e-09
-1.190374286e-08
-1.638146327e-08
-2.219465077e-08
-2.961934541e-08
-3.89418003e-08
-5.044925442e-08
-6.44234656e-08
-8.113480199e-08
-1.008461095e-07
-1.238497768e-07
-1.505899457e-07
-1.819630782e-07
-2.199860716e-07
-2.689316084e-07
-3.369179076e-07
-4.324234353e-07
-5.402585436e-07
-5.13707487e-07
1.204918957e-06
3.199116805e-06
-0.06428747884
16739.66293
0
0
0
0
0
0
0
0
0
0
0
0
0
0
0
0
0
0
0
0
0
0
0
0
0
0
0
0
0
0
0
0
0
0
0
0
0
0
0
0
0
0
0
0
0
0
0
0
0
0
0
0
0
0
0
0
-0.1586430943
-2.088435165e-06
8.148751622e-10
6.816913748e-10
5.964843504e-10
5.392422896e-10
5.195438183e-10
5.145763966e-10
5.180396603e-10
5.257249719e-10
5.346892511e-10
5.430543195e-10
5.496133753e-10
5.536219401e-10
5.546186319e-10
5.525621416e-10
5.477174116e-10
5.40639363e-10
5.319299929e-10
5.220206176e-10
5.110937607e-10
4.991712366e-10
4.862320011e-10
4.722455298e-10
4.569512549e-10
4.396435193e-10
4.190327134e-10
3.935225738e-10
3.612714141e-10
3.199417631e-10
2.6552713e-10
1.909075753e-10
8.450819082e-11
-7.055427842e-11
-2.97756935e-10
-6.296541894e-10
-1.111914982e-09
-1.807397993e-09
-2.79928268e-09
-4.193244933e-09
-6.120739646e-09
-8.744264999e-09
-1.226297395e-08
-1.691469776e-08
-2.297160488e-08
-3.073125564e-08
-4.050702606e-08
-5.262145335e-08
-6.739994567e-08
-8.516315792e-08
-1.062200432e-07
-1.308783486e-07
-1.594946292e-07
-1.926074814e-07
-2.31187125e-07
-2.769419288e-07
-3.321520251e-07
-3.907610257e-07
-4.06188565e-07
-5.786202313e-07
6.791338354e-08
-1.630627036e-06
8763.625254
0
0
0
0
0
0
0
0
0
0
0
0
0
0
0
0
0
0
0
0
0
0
0
0
0
0
0
0
0
0
0
0
0
0
0
0
0
0
0
0
0
0
0
0
0
0
0
0
0
0
0
0
0
0
0
0
0
0
-0.4203112882
8.190309361e-10
6.770164863e-10
5.8688511e-10
5.277663658e-10
5.07323268e-10
5.028843738e-10
5.075769745e-10
5.168179149e-10
5.273553801e-10
5.370844808e-10
5.446558977e-10
5.492174012e-10
5.503899806e-10
5.48226933e-10
5.432260964e-10
5.36136946e-10
5.27684685e-10
5.182770294e-10
5.080055163e-10
4.966998579e-10
4.842351128e-10
4.70508157e-10
4.553438546e-10
4.381387305e-10
4.178086268e-10
3.928863119e-10
3.616844124e-10
3.218070524e-10
2.691215153e-10
1.962196648e-10
9.12030116e-11
-6.332090477e-11
-2.914862788e-10
-6.268999464e-10
-1.116401991e-09
-1.824228387e-09
-2.835140187e-09
-4.257372654e-09
-6.226730352e-09
-8.912576743e-09
-1.252341755e-08
-1.730852757e-08
-2.355382254e-08
-3.157390326e-08
-4.170476204e-08
-5.429831178e-08
-6.971635017e-08
-8.831822099e-08
-1.104441321e-07
-1.363991056e-07
-1.664475463e-07
-2.008273125e-07
-2.397492802e-07
-2.834149288e-07
-3.31139722e-07
-3.753233414e-07
-4.040941386e-07
-1.142995028e-06
-1.19273229e-06
-1.816482042e-06
-0.4379376621
0
0
0
0
0
0
0
0
0
0
0
0
0
0
0
0
0
0
0
0
0
0
0
0
0
0
0
0
0
0
0
0
0
0
0
0
0
0
0
0
0
0
0
0
0
0
0
0
0
0
0
0
0
0
0
0
0
0
0
8.035777478e-10
6.538572019e-10
5.607675801e-10
5.022942724e-10
4.837658858e-10
4.823896577e-10
4.905549799e-10
5.031496781e-10
5.166001071e-10
5.286206064e-10
5.377587529e-10
5.432395222e-10
5.448114994e-10
5.428096547e-10
5.379622214e-10
5.312154895e-10
5.233108908e-10
5.14582732e-10
5.049124058e-10
4.940141792e-10
4.816750437e-10
4.679111377e-10
4.526701487e-10
4.355705966e-10
4.156899489e-10
3.916779544e-10
3.618108815e-10
3.236511995e-10
2.728584436e-10
2.017874083e-10
9.81994883e-11
-5.563713825e-11
-2.843687842e-10
-6.220818941e-10
-1.116181652e-09
-1.831369078e-09
-2.853327185e-09
-4.29216089e-09
-6.287250867e-09
-9.013288939e-09
-1.268558814e-08
-1.756138401e-08
-2.393613075e-08
-3.213737884e-08
-4.25195537e-08
-5.546099946e-08
-7.135893479e-08
-9.061963237e-08
-1.136449758e-07
-1.408284456e-07
-1.725818894e-07
-2.094528451e-07
-2.524493067e-07
-3.039027507e-07
-3.688597233e-07
-4.54905945e-07
-5.597431576e-07
-4.174881918e-07
-5.921231328e-07
-0.007664439903
3040.379953
0
0
0
0
0
0
0
0
0
0
0
0
0
0
0
0
0
0
0
0
0
0
0
0
0
0
0
0
0
0
0
0
0
0
0
0
0
0
0
0
0
0
0
0
0
0
0
0
0
0
0
0
0
0
0
0
0
0
0
7.602602229e-10
6.04513002e-10
5.117965835e-10
4.579949286e-10
4.454400253e-10
4.507682324e-10
4.654414536e-10
4.837229619e-10
5.01764124e-10
5.171717426e-10
5.286040424e-10
5.354679201e-10
5.378611121e-10
5.364013197e-10
5.321184308e-10
5.260494414e-10
5.189198387e-10
5.108621578e-10
5.016007664e-10
4.907392085e-10
4.781947637e-10
4.641504616e-10
4.488433472e-10
4.320569863e-10
4.129326167e-10
3.900854355e-10
3.617228703e-10
3.252438848e-10
2.761522804e-10
2.065798809e-10
1.040998083e-10
-4.926121746e-11
-2.782674771e-10
-6.170637778e-10
-1.112874835e-09
-1.830348245e-09
-2.855434643e-09
-4.29961856e-09
-6.304818369e-09
-9.04930875e-09
-1.275224419e-08
-1.767478637e-08
-2.411731553e-08
-3.241515119e-08
-4.293589535e-08
-5.607811248e-08
-7.226857111e-08
-9.195494817e-08
-1.155981584e-07
-1.436715185e-07
-1.766732725e-07
-2.151479573e-07
-2.596639288e-07
-3.105577347e-07
-3.665226665e-07
-4.197771825e-07
-4.430682028e-07
-3.27038473e-07
-5.972376479e-08
-0.003093984849
1227.451359
0
0
0
0
0
0
0
0
0
0
0
0
0
0
0
0
0
0
0
0
0
0
0
0
0
0
0
0
0
0
0
0
0
0
0
0
0
0
0
0
0
0
0
0
0
0
0
0
0
0
0
0
0
0
0
0
0
0
0
6.774133662e-10
5.18782474e-10
4.317778947e-10
3.889817575e-10
3.883669193e-10
4.055565801e-10
4.307533801e-10
4.576628409e-10
4.822894317e-10
5.024201784e-10
5.170064081e-10
5.259098711e-10
5.296421671e-10
5.292382045e-10
5.259313215e-10
5.208265944e-10
5.144882545e-10
5.069191005e-10
4.976935549e-10
4.865323436e-10
4.735190613e-10
4.592084729e-10
4.440332588e-10
4.278850103e-10
4.098188917e-10
3.882826075e-10
3.612888868e-10
3.261048522e-10
2.781181879e-10
2.094118854e-10
1.074678439e-10
-4.563247891e-11
-2.74510214e-10
-6.128558077e-10
-1.107333946e-09
-1.821977536e-09
-2.84276449e-09
-4.281878312e-09
-6.282704777e-09
-9.024817287e-09
-1.272788915e-08
-1.765267893e-08
-2.409926879e-08
-3.240458769e-08
-4.294109602e-08
-5.611620648e-08
-7.236940683e-08
-9.216611921e-08
-1.159908142e-07
-1.443407441e-07
-1.777007439e-07
-2.16429655e-07
-2.603573185e-07
-3.076127842e-07
-3.517161199e-07
-3.756601255e-07
-3.429469951e-07
-1.715832743e-07
2.453675337e-07
-0.001708849239
677.9935184
0
0
0
0
0
0
0
0
0
0
0
0
0
0
0
0
0
0
0
0
0
0
0
0
0
0
0
0
0
0
0
0
0
0
0
0
0
0
0
0
0
0
0
0
0
0
0
0
0
0
0
0
0
0
0
0
0
0
0
5.384630849e-10
3.822169681e-10
3.100611288e-10
2.881742785e-10
3.083867453e-10
3.444854159e-10
3.853825416e-10
4.244723793e-10
4.580329209e-10
4.84370062e-10
5.031358098e-10
5.148141859e-10
5.205097066e-10
5.216318068e-10
5.196249478e-10
5.155474893e-10
5.098730234e-10
5.02435825e-10
4.929012256e-10
4.81143595e-10
4.676637986e-10
4.53278827e-10
4.386192634e-10
4.234483492e-10
4.066002204e-10
3.861896183e-10
3.600758808e-10
3.254483784e-10
2.777681478e-10
2.091817381e-10
1.073318688e-10
-4.550592283e-11
-2.734743113e-10
-6.095794983e-10
-1.099514634e-09
-1.806587482e-09
-2.816357828e-09
-4.241195478e-09
-6.224457807e-09
-8.944665868e-09
-1.261841591e-08
-1.750157137e-08
-2.388847389e-08
-3.211066643e-08
-4.253556949e-08
-5.556423033e-08
-7.162587947e-08
-9.11697598e-08
-1.146584519e-07
-1.425635322e-07
-1.753439616e-07
-2.133361988e-07
-2.563661375e-07
-3.026222396e-07
-3.458370687e-07
-3.695360517e-07
-3.385239445e-07
-1.712016525e-07
2.425857746e-07
-0.001707620774
677.5055455
0
0
0
0
0
0
0
0
0
0
0
0
0
0
0
0
0
0
0
0
0
0
0
0
0
0
0
0
0
0
0
0
0
0
0
0
0
0
0
0
0
0
0
0
0
0
0
0
0
0
0
0
0
0
0
0
0
0
0
3.186614664e-10
1.748408255e-10
1.331415178e-10
1.478740779e-10
2.017566659e-10
2.661782108e-10
3.291325233e-10
3.844468482e-10
4.294225638e-10
4.635402321e-10
4.874994881e-10
5.027206222e-10
5.109203622e-10
5.139361092e-10
5.133265075e-10
5.101593741e-10
5.048003786e-10
4.971449399e-10
4.869947841e-10
4.746221568e-10
4.608596874e-10
4.468078966e-10
4.330251033e-10
4.190415359e-10
4.03227329e-10
3.834463594e-10
3.573934719e-10
3.224166638e-10
2.742084463e-10
2.052158466e-10
1.033240336e-10
-4.877321333e-11
-2.746694442e-10
-6.064417565e-10
-1.088819078e-09
-1.784127796e-09
-2.777337986e-09
-4.180059777e-09
-6.134058823e-09
-8.814094055e-09
-1.243036949e-08
-1.722978924e-08
-2.34962185e-08
-3.15492934e-08
-4.174173328e-08
-5.44531469e-08
-7.007971178e-08
-8.902146059e-08
-1.116745797e-07
-1.384356548e-07
-1.697207939e-07
-2.059973088e-07
-2.478040022e-07
-2.956065434e-07
-3.485855428e-07
-4.011609853e-07
-4.296761682e-07
-3.243488807e-07
-6.924692801e-08
-0.00309040466
1226.028988
0
0
0
0
0
0
0
0
0
0
0
0
0
0
0
0
0
0
0
0
0
0
0
0
0
0
0
0
0
0
0
0
0
0
0
0
0
0
0
0
0
0
0
0
0
0
0
0
0
0
0
0
0
0
0
0
0
0
0
-2.058279635e-11
-1.3220099e-10
-1.153383036e-10
-3.900254703e-11
6.674851445e-11
1.713304849e-10
2.635113753e-10
3.391653082e-10
3.978868502e-10
4.411076895e-10
4.711083003e-10
4.903964939e-10
5.014373097e-10
5.064211995e-10
5.070873976e-10
5.044845859e-10
4.990633938e-10
4.90855685e-10
4.800234017e-10
4.672030211e-10
4.535694102e-10
4.402557465e-10
4.276155132e-10
4.146740687e-10
3.993949423e-10
3.793564573e-10
3.524135193e-10
3.162400183e-10
2.669958233e-10
1.974918044e-10
9.600271704e-11
-5.447122444e-11
-2.768216938e-10
-6.023103493e-10
-1.074516225e-09
-1.754772943e-09
-2.726882312e-09
-4.100806339e-09
-6.014865256e-09
-8.637685473e-09
-1.217002526e-08
-1.684674983e-08
-2.29375083e-08
-3.074543009e-08
-4.060131002e-08
-5.285280493e-08
-6.784753507e-08
-8.5914624e-08
-1.073509027e-07
-1.324223104e-07
-1.613954931e-07
-1.94661848e-07
-2.331239731e-07
-2.791307492e-07
-3.385777628e-07
-4.227077179e-07
-5.339957241e-07
-4.103304986e-07
-6.121880253e-07
-0.00765883674
3038.152609
0
0
0
0
0
0
0
0
0
0
0
0
0
0
0
0
0
0
0
0
0
0
0
0
0
0
0
0
0
0
0
0
0
0
0
0
0
0
0
0
0
0
0
0
0
0
0
0
0
0
0
0
0
0
0
0
0
0
0
-5.441239418e-10
-5.798663669e-10
-4.523025836e-10
-2.753358836e-10
-9.356371295e-11
6.457063657e-11
1.927832235e-10
2.920468442e-10
3.659731953e-10
4.18980656e-10
4.553236842e-10
4.788046035e-10
4.926175151e-10
4.993424482e-10
5.008525018e-10
4.983748324e-10
4.925175097e-10
4.83635206e-10
4.722500445e-10
4.593721958e-10
4.462956835e-10
4.340160218e-10
4.224176154e-10
4.100286771e-10
3.944094093e-10
3.731536893e-10
3.4445478e-10
3.066058444e-10
2.563011979e-10
1.867976539e-10
8.653618973e-11
-6.108184237e-11
-2.785134914e-10
-5.96037009e-10
-1.056186967e-09
-1.718900649e-09
-2.666311286e-09
-4.005391239e-09
-5.869338603e-09
-8.41840955e-09
-1.184196154e-08
-1.636069235e-08
-2.222820918e-08
-2.97280763e-08
-3.916543492e-08
-5.085093332e-08
-6.507985545e-08
-8.210928217e-08
-1.021399549e-07
-1.253029456e-07
-1.516518296e-07
-1.811670061e-07
-2.13805848e-07
-2.495106775e-07
-2.884786646e-07
-3.261207093e-07
-3.580344638e-07
-1.120805399e-06
-1.233221877e-06
-1.842959453e-06
-0.4380379498
0
0
0
0
0
0
0
0
0
0
0
0
0
0
0
0
0
0
0
0
0
0
0
0
0
0
0
0
0
0
0
0
0
0
0
0
0
0
0
0
0
0
0
0
0
0
0
0
0
0
0
0
0
0
0
0
0
0
0
-1.375516382e-09
-1.226840821e-09
-8.87504953e-10
-5.519758821e-10
-2.663622768e-10
-4.314956952e-11
1.250026325e-10
2.485867547e-10
3.374104413e-10
3.996317305e-10
4.417921043e-10
4.689399529e-10
4.849719957e-10
4.928041313e-10
4.945990729e-10
4.917699663e-10
4.85254227e-10
4.757593967e-10
4.641601956e-10
4.516363232e-10
4.394380532e-10
4.281543483e-10
4.171606899e-10
4.044595489e-10
3.874954784e-10
3.641295664e-10
3.33233314e-10
2.937841986e-10
2.430696545e-10
1.744921291e-10
7.661060052e-11
-6.713098329e-11
-2.7859431e-10
-5.8717159e-10
-1.033947689e-09
-1.677161327e-09
-2.59635099e-09
-3.894463337e-09
-5.697930965e-09
-8.157268935e-09
-1.144889815e-08
-1.57786395e-08
-2.138273073e-08
-2.852403542e-08
-3.747964894e-08
-4.852216092e-08
-6.189701035e-08
-7.780376363e-08
-9.638741773e-08
-1.177472881e-07
-1.419738725e-07
-1.692519395e-07
-2.000509605e-07
-2.355134443e-07
-2.771536445e-07
-3.200454847e-07
-3.267613825e-07
-5.305476371e-07
-1.836463652e-08
-1.791711398e-06
8761.177212
0
0
0
0
0
0
0
0
0
0
0
0
0
0
0
0
0
0
0
0
0
0
0
0
0
0
0
0
0
0
0
0
0
0
0
0
0
0
0
0
0
0
0