/*--------------------------------*- C++ -*----------------------------------*\
  =========                 |
  \\      /  F ield         | OpenFOAM: The Open Source CFD Toolbox
   \\    /   O peration     | Website:  https://openfoam.org
    \\  /    A nd           | Version:  6
     \\/     M anipulation  |
\*---------------------------------------------------------------------------*/
FoamFile
{
    version     2.0;
    format      ascii;
    class       volScalarField;
    location    "0.0055";
    object      ViscousDissipation;
}
// * * * * * * * * * * * * * * * * * * * * * * * * * * * * * * * * * * * * * //

dimensions      [1 -1 -3 0 0 0 0];

internalField   nonuniform List<scalar> 
9600
(
5.02594919e-21
2.405711625e-20
4.099054874e-20
5.779964104e-20
7.821005999e-20
1.015017802e-19
1.274118343e-19
1.556192498e-19
1.857637672e-19
2.17437964e-19
2.501950614e-19
2.835377833e-19
3.169264444e-19
3.4976701e-19
3.814219311e-19
4.112012437e-19
4.383803638e-19
4.621977065e-19
4.81880574e-19
4.966488052e-19
5.057475895e-19
5.084590487e-19
5.041475026e-19
4.922872323e-19
4.725265841e-19
4.447335478e-19
4.090734533e-19
3.660655989e-19
3.166699912e-19
2.623569798e-19
2.052062423e-19
1.479887933e-19
9.426458058e-20
4.845267981e-20
1.589541552e-20
2.887268881e-21
1.667769828e-20
6.54317138e-20
1.581335704e-19
3.044314389e-19
5.143848568e-19
7.981424611e-19
1.165493386e-18
1.625360095e-18
2.185153565e-18
2.850106864e-18
3.62248663e-18
4.500861433e-18
5.479305123e-18
6.546779952e-18
7.686543044e-18
8.8758839e-18
1.00859987e-17
1.12823791e-17
1.242547208e-17
1.347201892e-17
1.437670649e-17
1.509448504e-17
1.55830187e-17
1.580558667e-17
1.573381315e-17
1.535056451e-17
1.465231591e-17
1.365127628e-17
1.237647156e-17
1.087407468e-17
9.206297748e-18
7.449367129e-18
5.690204601e-18
4.022538865e-18
2.542250012e-18
1.342668342e-18
5.097440607e-19
1.177909324e-19
2.25871774e-19
8.753912926e-19
2.088902658e-18
3.870261711e-18
6.205911682e-18
9.066996439e-18
1.241203413e-17
1.618963533e-17
2.034114171e-17
2.480260472e-17
2.950622186e-17
3.438070424e-17
3.935101673e-17
4.43371273e-17
4.925255999e-17
5.4002619e-17
5.848335644e-17
6.25812704e-17
6.6174757e-17
6.913710649e-17
7.134164131e-17
7.266846562e-17
7.301291628e-17
7.229497854e-17
7.046921906e-17
6.753437939e-17
6.354174764e-17
5.860189646e-17
5.288924961e-17
4.664520618e-17
4.017940187e-17
3.386980889e-17
2.816009172e-17
2.355513651e-17
2.061404394e-17
1.994356301e-17
2.219113391e-17
2.803929127e-17
3.819895706e-17
5.340019572e-17
7.437884526e-17
1.018369404e-16
1.365506025e-16
1.757688679e-16
2.59274636e-16
8.172950647e-17
1.214961419e-20
3.132290934e-20
4.829589038e-20
6.518998407e-20
8.559648949e-20
1.088739161e-19
1.347661119e-19
1.62962488e-19
1.930951883e-19
2.247676431e-19
2.575255386e-19
2.908841938e-19
3.242964609e-19
3.571825767e-19
3.88897637e-19
4.187675501e-19
4.460604763e-19
4.70031751e-19
4.899010036e-19
5.049051723e-19
5.142812412e-19
5.173286372e-19
5.134036544e-19
5.01998157e-19
4.82752457e-19
4.555507735e-19
4.205493525e-19
3.782811008e-19
3.296967314e-19
2.762782404e-19
2.200977675e-19
1.639362279e-19
1.113490106e-19
6.676345849e-20
3.552320632e-20
2.393176636e-20
3.925056459e-20
8.965680068e-20
1.841614613e-19
3.324304899e-19
5.445719657e-19
8.307654776e-19
1.200882745e-18
1.663899061e-18
2.227348992e-18
2.896537254e-18
3.673886578e-18
4.558038162e-18
5.543235062e-18
6.61849058e-18
7.767224653e-18
8.966736517e-18
1.018836017e-17
1.13975335e-17
1.255478928e-17
1.361671951e-17
1.4538011e-17
1.527334616e-17
1.578029956e-17
1.602179669e-17
1.596934515e-17
1.56054635e-17
1.492657273e-17
1.394462132e-17
1.268868958e-17
1.12048054e-17
9.555339918e-18
7.816477662e-18
6.075357654e-18
4.425703022e-18
2.963553138e-18
1.782129854e-18
9.673172898e-19
5.93065954e-19
7.180177289e-19
1.38289001e-18
2.609457068e-18
4.400655551e-18
6.741992722e-18
9.603786991e-18
1.294390798e-17
1.67107503e-17
2.084581139e-17
2.528593498e-17
2.996447619e-17
3.481185632e-17
3.975483841e-17
4.471540297e-17
4.96087603e-17
5.434169651e-17
5.881104759e-17
6.290355248e-17
6.649698267e-17
6.946337389e-17
7.167414808e-17
7.300718083e-17
7.335555883e-17
7.263722564e-17
7.080538929e-17
6.785800294e-17
6.384663684e-17
5.88826375e-17
5.314223926e-17
4.686870637e-17
4.037430062e-17
3.40391189e-17
2.830941144e-17
2.369167946e-17
2.074695991e-17
2.008287022e-17
2.234826951e-17
2.822658549e-17
3.843075897e-17
5.36946175e-17
7.476106547e-17
1.023531617e-16
1.373013177e-16
1.77001951e-16
2.635800849e-16
8.364719696e-17
2.095093965e-20
4.016204014e-20
5.724156334e-20
7.426664038e-20
9.475900969e-20
1.181007738e-19
1.440617842e-19
1.723321558e-19
2.025605837e-19
2.343465405e-19
2.672516501e-19
3.007867809e-19
3.344222952e-19
3.675744606e-19
3.996177612e-19
4.298748891e-19
4.576350069e-19
4.821503876e-19
5.026619395e-19
5.184025638e-19
5.286298462e-19
5.326383225e-19
5.298043126e-19
5.196141764e-19
5.017262991e-19
4.760168086e-19
4.426549975e-19
4.021617504e-19
3.554951331e-19
3.041230198e-19
2.501204757e-19
1.962544126e-19
1.460793487e-19
1.040114741e-19
7.539259858e-20
6.652447578e-20
8.467190579e-20
1.380285082e-19
2.356213436e-19
3.87162908e-19
6.028035332e-19
8.928194387e-19
1.267169854e-18
1.734995569e-18
2.303971933e-18
2.979636961e-18
3.764591351e-18
4.657753152e-18
5.653546575e-18
6.741268725e-18
7.90448167e-18
9.120730466e-18
1.036140007e-17
1.159207736e-17
1.277318849e-17
1.386130782e-17
1.48107963e-17
1.557611247e-17
1.611429255e-17
1.638789422e-17
1.636780146e-17
1.603618638e-17
1.538894557e-17
1.443786109e-17
1.321171472e-17
1.175661921e-17
1.013490813e-17
8.423080769e-18
6.708431611e-18
5.085078959e-18
3.649191285e-18
2.49416585e-18
1.705657167e-18
1.357236599e-18
1.506688118e-18
2.193628397e-18
3.438333993e-18
5.242093967e-18
7.588672014e-18
1.04468177e-17
1.37732379e-17
1.751579112e-17
2.16163206e-17
2.601290875e-17
3.064113192e-17
3.543432777e-17
4.032274147e-17
4.523191038e-17
5.008041742e-17
5.477773391e-17
5.92224266e-17
6.330170172e-17
6.689239871e-17
6.986434215e-17
7.208557406e-17
7.343008581e-17
7.378680972e-17
7.307026968e-17
7.123095408e-17
6.826579275e-17
6.422640337e-17
5.922609372e-17
5.344373806e-17
4.712672341e-17
4.059127558e-17
3.422225804e-17
2.846966871e-17
2.384400177e-17
2.090881825e-17
2.027449703e-17
2.259160591e-17
2.854630918e-17
3.885506528e-17
5.425887368e-17
7.551587827e-17
1.033801492e-16
1.387659482e-16
1.792091284e-16
2.675848903e-16
8.50313746e-17
3.283946358e-20
5.208523764e-20
6.926613584e-20
8.643544984e-20
1.070640892e-19
1.3053756e-19
1.566314719e-19
1.850514683e-19
2.154526837e-19
2.474479868e-19
2.806044468e-19
3.144464872e-19
3.484508253e-19
3.82048565e-19
4.146223404e-19
4.455113845e-19
4.740146735e-19
4.99401932e-19
5.209241234e-19
5.378308311e-19
5.493888662e-19
5.549084405e-19
5.537747e-19
5.454884394e-19
5.297150783e-19
5.063407164e-19
4.755361525e-19
4.378249164e-19
3.941605504e-19
3.460076014e-19
2.954331397e-19
2.451966735e-19
1.988427161e-19
1.607772437e-19
1.36333507e-19
1.318062416e-19
1.544624811e-19
2.125035573e-19
3.149838442e-19
4.716549442e-19
6.927405061e-19
9.886108618e-19
1.369369282e-18
1.844326071e-18
2.421383805e-18
3.106325818e-18
3.90205173e-18
4.807777151e-18
5.818263188e-18
6.923112148e-18
8.106205555e-18
9.345333845e-18
1.061210563e-17
1.187220608e-17
1.30860969e-17
1.421021255e-17
1.519868231e-17
1.600553733e-17
1.658731647e-17
1.690593453e-17
1.693165831e-17
1.664600645e-17
1.604436604e-17
1.513806681e-17
1.395565216e-17
1.254308745e-17
1.096278011e-17
9.291366613e-18
7.616433122e-18
6.032334394e-18
4.635455273e-18
3.519135189e-18
2.768712106e-18
2.456951729e-18
2.64042075e-18
3.356979185e-18
4.624810959e-18
6.442794227e-18
8.792320923e-18
1.163996934e-17
1.49409492e-17
1.864248972e-17
2.268708996e-17
2.701476244e-17
3.156442688e-17
3.627378116e-17
4.107825399e-17
4.590865119e-17
5.068855721e-17
5.533131077e-17
5.973798548e-17
6.379621682e-17
6.738141577e-17
7.035982331e-17
7.259463343e-17
7.395387782e-17
7.432081974e-17
7.360480939e-17
7.175305934e-17
6.876084832e-17
6.46807595e-17
5.962871693e-17
5.378842723e-17
4.741284776e-17
4.082492428e-17
3.441575295e-17
2.864163033e-17
2.401793104e-17
2.111262177e-17
2.05390719e-17
2.295092299e-17
2.903731961e-17
3.951963852e-17
5.514761193e-17
7.669483378e-17
1.049482915e-16
1.408685293e-16
1.820561162e-16
2.717204125e-16
8.630434591e-17
4.806668698e-20
6.737693161e-20
8.467227977e-20
1.019949854e-19
1.227979214e-19
1.46455856e-19
1.727504105e-19
2.013946181e-19
2.320566349e-19
2.643593464e-19
2.978839421e-19
3.321661312e-19
3.666980184e-19
4.00923943e-19
4.342439401e-19
4.66012915e-19
4.955492052e-19
5.221396898e-19
5.450549045e-19
5.635612113e-19
5.769438855e-19
5.845292995e-19
5.857202199e-19
5.800327751e-19
5.671470371e-19
5.469595405e-19
5.196479241e-19
4.857376794e-19
4.461805913e-19
4.02436697e-19
3.565657852e-19
3.113186445e-19
2.702275232e-19
2.376857721e-19
2.190118201e-19
2.204909472e-19
2.49385399e-19
3.139077493e-19
4.231385434e-19
5.868846919e-19
8.154520051e-19
1.119336359e-18
1.508804578e-18
1.993384834e-18
2.581240658e-18
3.27847327e-18
4.088337588e-18
5.010450789e-18
6.03999029e-18
7.166989518e-18
8.375730567e-18
9.644367576e-18
1.094478306e-17
1.224284157e-17
1.349903671e-17
1.466969036e-17
1.57086294e-17
1.656941854e-17
1.720795235e-17
1.758539679e-17
1.767119461e-17
1.744607333e-17
1.690469507e-17
1.605782329e-17
1.493358798e-17
1.357775039e-17
1.205267474e-17
1.043513685e-17
8.812940428e-18
7.280696964e-18
5.934900541e-18
4.868757746e-18
4.167012553e-18
3.901323778e-18
4.126504646e-18
4.878115675e-18
6.171519975e-18
8.002547671e-18
1.034951097e-17
1.317635835e-17
1.643643564e-17
2.00764276e-17
2.403983286e-17
2.826954935e-17
3.27090863e-17
3.730231445e-17
4.199169921e-17
4.671540987e-17
5.140366141e-17
5.597508121e-17
6.033370397e-17
6.436758634e-17
6.794955565e-17
7.094083755e-17
7.319745644e-17
7.457947585e-17
7.496210834e-17
7.424815731e-17
7.238024574e-17
6.935214971e-17
6.52177029e-17
6.009722446e-17
5.418083506e-17
4.772980328e-17
4.107578374e-17
3.461881775e-17
2.882299886e-17
2.421054303e-17
2.135444792e-17
2.087216107e-17
2.34204135e-17
2.969191111e-17
4.041296514e-17
5.634142717e-17
7.826583393e-17
1.069917604e-16
1.435185729e-16
1.854202805e-16
2.76256686e-16
8.762765602e-17
6.679228623e-20
8.621004333e-20
1.036458317e-19
1.211435245e-19
1.421541471e-19
1.660478679e-19
1.926077379e-19
2.215556064e-19
2.525700258e-19
2.852881057e-19
3.193049622e-19
3.541730687e-19
3.894009222e-19
4.244521407e-19
4.587459587e-19
4.916594209e-19
5.225326567e-19
5.50676405e-19
5.753837823e-19
5.959445687e-19
6.116659919e-19
6.2189715e-19
6.260623214e-19
6.236989368e-19
6.14505349e-19
5.98392953e-19
5.755487749e-19
5.465027098e-19
5.122064887e-19
4.741165883e-19
4.342866429e-19
3.954575582e-19
3.611486304e-19
3.357357e-19
3.245194144e-19
3.337688637e-19
3.707411505e-19
4.436581192e-19
5.616357703e-19
7.345444299e-19
9.727934622e-19
1.287022055e-18
1.687693611e-18
2.1845838e-18
2.786168797e-18
3.498920621e-18
4.326533012e-18
5.269109997e-18
6.322359819e-18
7.476850586e-18
8.71738444e-18
1.002256804e-17
1.13646494e-17
1.270971968e-17
1.401834809e-17
1.524673303e-17
1.634837752e-17
1.727629145e-17
1.798562075e-17
1.843660991e-17
1.859770396e-17
1.844861892e-17
1.798310291e-17
1.721114394e-17
1.616030635e-17
1.487598748e-17
1.342041722e-17
1.187040941e-17
1.031394448e-17
8.845803896e-18
7.562515574e-18
6.556956369e-18
5.913025245e-18
5.70084514e-18
5.972984814e-18
6.76205662e-18
8.079963109e-18
9.918772918e-18
1.225314156e-17
1.504387791e-17
1.824228861e-17
2.179461131e-17
2.564600636e-17
2.974334445e-17
3.403644961e-17
3.847739179e-17
4.301806315e-17
4.760619881e-17
5.218065972e-17
5.666656584e-17
6.097145772e-17
6.49831943e-17
6.85707074e-17
7.158789199e-17
7.388108219e-17
7.529943481e-17
7.570774174e-17
7.500014412e-17
7.311378276e-17
7.00406548e-17
6.583698316e-17
6.06290639e-17
5.461609333e-17
4.807016472e-17
4.133463423e-17
3.482070304e-17
2.900249516e-17
2.441022011e-17
2.162297043e-17
2.126237517e-17
2.398842774e-17
3.049697472e-17
4.151868723e-17
5.781875696e-17
8.019535181e-17
1.094722352e-16
1.466526247e-16
1.89307446e-16
2.812982637e-16
8.907245879e-17
8.922222354e-20
1.087852785e-19
1.263971891e-19
1.441017623e-19
1.653603682e-19
1.89542693e-19
2.164361913e-19
2.457706365e-19
2.772367543e-19
3.104861501e-19
3.451310103e-19
3.807423365e-19
4.168491765e-19
4.529372038e-19
4.884496986e-19
5.227893668e-19
5.553234361e-19
5.853906252e-19
6.123121165e-19
6.35405911e-19
6.540069094e-19
6.674922197e-19
6.753133127e-19
6.770340653e-19
6.723758202e-19
6.612690705e-19
6.439135214e-19
6.208469543e-19
5.930232542e-19
5.618982102e-19
5.295199002e-19
4.986202633e-19
4.727028384e-19
4.561238112e-19
4.541605914e-19
4.730641387e-19
5.200837568e-19
6.03455426e-19
7.323363933e-19
9.166750959e-19
1.166998808e-18
1.494113605e-18
1.908703075e-18
2.420828306e-18
3.039322383e-18
3.771095637e-18
4.620359608e-18
5.587808857e-18
6.669790854e-18
7.857530176e-18
9.136459609e-18
1.048574784e-17
1.187809332e-17
1.327988776e-17
1.465181435e-17
1.594996311e-17
1.712747674e-17
1.813673576e-17
1.893200107e-17
1.947242303e-17
1.972522849e-17
1.966889138e-17
1.929599687e-17
1.861552846e-17
1.765426057e-17
1.645704271e-17
1.508580293e-17
1.36172714e-17
1.213948453e-17
1.07472853e-17
9.537065604e-18
8.601146925e-18
8.022229202e-18
7.868457501e-18
8.189583658e-18
9.014652846e-18
1.035141599e-17
1.21875328e-17
1.449339308e-17
1.722627053e-17
2.03352927e-17
2.376659899e-17
2.746787685e-17
3.139152569e-17
3.549578829e-17
3.97435623e-17
4.409892121e-17
4.85218456e-17
5.296191739e-17
5.735206597e-17
6.160348191e-17
6.560291978e-17
6.921331032e-17
7.227837662e-17
7.463127501e-17
7.610683959e-17
7.655625871e-17
7.586281277e-17
7.395691433e-17
7.082900481e-17
6.653895989e-17
6.122154624e-17
5.508798027e-17
4.842460418e-17
4.158951466e-17
3.500786864e-17
2.916568183e-17
2.460248912e-17
2.190385055e-17
2.169557009e-17
2.464027887e-17
3.14361924e-17
4.281739991e-17
5.95540911e-17
8.245367858e-17
1.123446126e-16
1.502506213e-16
1.936794855e-16
2.869173381e-16
9.066235604e-17
1.155997491e-19
1.353433527e-19
1.531710232e-19
1.711236029e-19
1.926779092e-19
2.172084333e-19
2.445093239e-19
2.743204217e-19
3.06345532e-19
3.402527478e-19
3.75673067e-19
4.121990132e-19
4.49383041e-19
4.867367253e-19
5.237311846e-19
5.597992411e-19
5.943396944e-19
6.267241121e-19
6.563069338e-19
6.824397335e-19
7.044910327e-19
7.218717073e-19
7.340664833e-19
7.406709264e-19
7.414347429e-19
7.363117202e-19
7.25519054e-19
7.09606059e-19
6.895332793e-19
6.667583885e-19
6.433266123e-19
6.219603576e-19
6.061466891e-19
6.002184646e-19
6.09428117e-19
6.40006253e-19
6.991970967e-19
7.952548892e-19
9.373880895e-19
1.135633797e-18
1.400653346e-18
1.743437332e-18
2.174916904e-18
2.705474218e-18
3.344353383e-18
4.098972753e-18
4.974152959e-18
5.971283178e-18
7.087467764e-18
8.314707477e-18
9.639187523e-18
1.104075244e-17
1.249265661e-17
1.396167763e-17
1.54086726e-17
1.678964231e-17
1.805733992e-17
1.916342788e-17
2.006113564e-17
2.070831768e-17
2.107073938e-17
2.112535865e-17
2.086331039e-17
2.029228311e-17
1.943798502e-17
1.834446246e-17
1.707312078e-17
1.570041099e-17
1.43142501e-17
1.300934861e-17
1.188172814e-17
1.102283211e-17
1.051374985e-17
1.042012685e-17
1.078830551e-17
1.164309825e-17
1.298742646e-17
1.480386136e-17
1.705796016e-17
1.970308592e-17
2.268621322e-17
2.595394045e-17
2.945777727e-17
3.315769187e-17
3.702313124e-17
4.103106103e-17
4.516114756e-17
4.938867242e-17
5.367627979e-17
5.796587232e-17
6.217215593e-17
6.617918201e-17
6.984105646e-17
7.298744146e-17
7.5433936e-17
7.6996586e-17
7.750918111e-17
7.684139679e-17
7.49157831e-17
7.172166189e-17
6.732463719e-17
6.187110412e-17
5.558824122e-17
4.878059778e-17
4.182470587e-17
3.516250688e-17
2.929388874e-17
2.476857206e-17
2.21786487e-17
2.215336612e-17
2.535689794e-17
3.248851782e-17
4.428413806e-17
6.151826266e-17
8.500273433e-17
1.155777989e-16
1.542583335e-16
1.985466491e-16
2.931012896e-16
9.241040483e-17
1.461981486e-19
1.661548337e-19
1.842403347e-19
2.024884384e-19
2.243943918e-19
2.493405685e-19
2.771310021e-19
3.075176063e-19
3.402193765e-19
3.749226508e-19
4.112796997e-19
4.48907014e-19
4.87383809e-19
5.262510214e-19
5.650116947e-19
6.031329535e-19
6.400499106e-19
6.751718069e-19
7.078917491e-19
7.376006365e-19
7.637067766e-19
7.856611257e-19
8.029878653e-19
8.15320116e-19
8.22441319e-19
8.243339768e-19
8.212379423e-19
8.137196568e-19
8.027512546e-19
7.897966822e-19
7.769004472e-19
7.667762765e-19
7.62893313e-19
7.695600922e-19
7.920032415e-19
8.3643539e-19
9.10099703e-19
1.021276271e-18
1.179232581e-18
1.394105068e-18
1.676700461e-18
2.038212386e-18
2.489846111e-18
3.042348196e-18
3.705433263e-18
4.487108101e-18
5.392897374e-18
6.42499507e-18
7.581379633e-18
8.854954291e-18
1.023278522e-17
1.169552513e-17
1.321710862e-17
1.476480904e-17
1.629973331e-17
1.777782391e-17
1.915141305e-17
2.037134916e-17
2.138966521e-17
2.21626961e-17
2.265446807e-17
2.284010718e-17
2.270895163e-17
2.22670386e-17
2.153865515e-17
2.056671388e-17
1.941179407e-17
1.814979689e-17
1.686825675e-17
1.566147477e-17
1.462476877e-17
1.384829674e-17
1.341103572e-17
1.337555235e-17
1.378412779e-17
1.46566467e-17
1.599047202e-17
1.776238454e-17
1.993251311e-17
2.244999921e-17
2.525983417e-17
2.830997636e-17
3.155754928e-17
3.49728583e-17
3.854015672e-17
4.225461983e-17
4.611566366e-17
5.011749591e-17
5.423833989e-17
5.843011263e-17
6.261035336e-17
6.665803615e-17
7.041450768e-17
7.369028045e-17
7.627764806e-17
7.79682328e-17
7.857363907e-17
7.794678377e-17
7.60012397e-17
7.272631266e-17
6.819631162e-17
6.257362485e-17
5.610634605e-17
4.912213248e-17
4.202010631e-17
3.526207839e-17
2.936354045e-17
2.488488638e-17
2.242408996e-17
2.261244808e-17
2.611386118e-17
3.362676884e-17
4.588755895e-17
6.367285178e-17
8.780125356e-17
1.191134956e-16
1.586467046e-16
2.038299617e-16
2.998451827e-16
9.430687967e-17
1.813181912e-19
2.015187209e-19
2.199055722e-19
2.385022158e-19
2.608232168e-19
2.862612853e-19
3.146329183e-19
3.457045275e-19
3.792124231e-19
4.148634432e-19
4.523335373e-19
4.912660481e-19
5.312700684e-19
5.719195126e-19
6.127533669e-19
6.53277428e-19
6.929677275e-19
7.312763207e-19
7.676405008e-19
8.014965697e-19
8.322992148e-19
8.595460793e-19
8.828074128e-19
9.017600509e-19
9.162272955e-19
9.262263741e-19
9.320264284e-19
9.342175984e-19
9.337899895e-19
9.322185563e-19
9.315502549e-19
9.344909187e-19
9.444922106e-19
9.658388289e-19
1.003734618e-18
1.064379204e-18
1.155022238e-18
1.28397707e-18
1.460577806e-18
1.695066965e-18
1.998407284e-18
2.382013003e-18
2.85739589e-18
3.435716433e-18
4.127229702e-18
4.94061695e-18
5.882207429e-18
6.955110205e-18
8.158299361e-18
9.485713117e-18
1.092544451e-17
1.245910791e-17
1.406147056e-17
1.570043483e-17
1.733745339e-17
1.892844984e-17
2.042530656e-17
2.177795423e-17
2.293705126e-17
2.385716392e-17
2.450026497e-17
2.483927593e-17
2.486132056e-17
2.457033914e-17
2.398874952e-17
2.315789975e-17
2.213714501e-17
2.100146653e-17
1.983765801e-17
1.873923251e-17
1.780037467e-17
1.71094531e-17
1.674275057e-17
1.675910117e-17
1.719601225e-17
1.806767071e-17
1.936507263e-17
2.105841082e-17
2.310173638e-17
2.543967669e-17
2.801559921e-17
3.07801187e-17
3.369844413e-17
3.675491253e-17
3.995332478e-17
4.331237051e-17
4.685640244e-17
5.060283493e-17
5.454819439e-17
5.865514119e-17
6.284264563e-17
6.698111848e-17
7.089383582e-17
7.436542867e-17
7.715743477e-17
7.902980144e-17
7.976601288e-17
7.9198554e-17
7.723121332e-17
7.385532705e-17
6.915832595e-17
6.332447032e-17
5.662913591e-17
4.94289855e-17
4.215048274e-17
3.527845325e-17
2.934542336e-17
2.492225982e-17
2.26113362e-17
2.304367232e-17
2.688026854e-17
3.481640547e-17
4.758694746e-17
6.597092875e-17
9.07904501e-17
1.229001157e-16
1.633280909e-16
2.09506842e-16
3.070631737e-16
9.63444171e-17
2.212839311e-19
2.417576476e-19
2.604909721e-19
2.794938604e-19
3.023004745e-19
3.283156592e-19
3.573704988e-19
3.892481882e-19
4.237047667e-19
4.604699087e-19
4.992458403e-19
5.397056408e-19
5.814916043e-19
6.242142644e-19
6.674525804e-19
7.107554188e-19
7.536445321e-19
7.956199961e-19
8.361690899e-19
8.747799959e-19
9.109605432e-19
9.442622102e-19
9.743080994e-19
1.000825579e-18
1.023684493e-18
1.042944092e-18
1.058910398e-18
1.072205234e-18
1.083843841e-18
1.095317922e-18
1.108680407e-18
1.126631541e-18
1.152607482e-18
1.190873047e-18
1.246615441e-18
1.326030033e-18
1.436381706e-18
1.586024674e-18
1.784364661e-18
2.041755488e-18
2.369325552e-18
2.778731514e-18
3.281830276e-18
3.89025535e-18
4.614878834e-18
5.46514781e-18
6.448297524e-18
7.568465346e-18
8.82574844e-18
1.021526796e-17
1.172631182e-17
1.334163874e-17
1.503702969e-17
1.678117594e-17
1.853599134e-17
2.025743399e-17
2.189691434e-17
2.340334181e-17
2.472581147e-17
2.581684614e-17
2.663600269e-17
2.715355463e-17
2.735389825e-17
2.723832177e-17
2.682680435e-17
2.615857773e-17
2.529125425e-17
2.429841234e-17
2.326563954e-17
2.22851829e-17
2.144957247e-17
2.084480029e-17
2.05437991e-17
2.060094646e-17
2.104817764e-17
2.189309549e-17
2.311936204e-17
2.468961047e-17
2.655101783e-17
2.864337597e-17
3.090895753e-17
3.330281169e-17
3.580155649e-17
3.840850823e-17
4.115330139e-17
4.408506681e-17
4.725964063e-17
5.072273895e-17
5.449201639e-17
5.854104981e-17
6.278775572e-17
6.708904673e-17
7.124303068e-17
7.499966111e-17
7.808002704e-17
8.020308611e-17
8.111678889e-17
8.062903976e-17
7.863364644e-17
7.51275632e-17
7.021777838e-17
6.411838418e-17
5.714013564e-17
4.967578575e-17
4.218441508e-17
3.517694411e-17
2.920377723e-17
2.484512496e-17
2.270513975e-17
2.341110186e-17
2.761754973e-17
3.60135574e-17
4.933099905e-17
6.834995944e-17
9.390142826e-17
1.26843785e-16
1.682382319e-16
2.154398872e-16
3.146919727e-16
9.849381455e-17
2.664380193e-19
2.872132091e-19
3.063397512e-19
3.258111714e-19
3.491808511e-19
3.758672878e-19
4.057179967e-19
4.38535176e-19
4.740968241e-19
5.121580615e-19
5.524500682e-19
5.946785861e-19
6.385224679e-19
6.836326273e-19
7.296321364e-19
7.761173502e-19
8.226606985e-19
8.688156497e-19
9.141256283e-19
9.581373164e-19
1.000418951e-18
1.040583078e-18
1.078313055e-18
1.113394058e-18
1.145750222e-18
1.175491018e-18
1.202968431e-18
1.228844824e-18
1.25416873e-18
1.280454953e-18
1.309767207e-18
1.34480415e-18
1.388991537e-18
1.446581527e-18
1.522754791e-18
1.623713214e-18
1.756746606e-18
1.930256078e-18
2.153722528e-18
2.437615596e-18
2.793242334e-18
3.232529532e-18
3.767726873e-18
4.411007049e-18
5.173940698e-18
6.06683285e-18
7.097927873e-18
8.272509309e-18
9.591939081e-18
1.105269125e-17
1.264544633e-17
1.435432152e-17
1.615632387e-17
1.802112092e-17
1.991122848e-17
2.178271474e-17
2.358651432e-17
2.527042053e-17
2.678176952e-17
2.807073373e-17
2.909403148e-17
2.981875078e-17
3.022592803e-17
3.031350102e-17
3.009828877e-17
2.961669987e-17
2.892393942e-17
2.809157173e-17
2.72034042e-17
2.634985518e-17
2.562120918e-17
2.51004438e-17
2.485643856e-17
2.493833181e-17
2.53715833e-17
2.615614732e-17
2.726712729e-17
2.865832014e-17
3.02689509e-17
3.203349578e-17
3.389376531e-17
3.581153794e-17
3.777924106e-17
3.982580854e-17
4.201517272e-17
4.443612262e-17
4.718437495e-17
5.033997077e-17
5.394435951e-17
5.798116017e-17
6.236317422e-17
6.692700656e-17
7.143633558e-17
7.559507693e-17
7.907130573e-17
8.153093427e-17
8.267709217e-17
8.228853886e-17
8.025009152e-17
7.657029564e-17
7.138504769e-17
6.49489871e-17
5.761847095e-17
4.983069391e-17
4.208302817e-17
3.491521136e-17
2.889543719e-17
2.461082255e-17
2.266320273e-17
2.367124026e-17
2.827827443e-17
3.71636315e-17
5.10540947e-17
7.073265512e-17
9.703802434e-17
1.30851994e-16
1.732345071e-16
2.215596849e-16
3.225739582e-16
1.007318065e-16
3.171364072e-19
3.382404239e-19
3.578086969e-19
3.77815318e-19
4.01832196e-19
4.292928176e-19
4.600628606e-19
4.939654791e-19
5.308029742e-19
5.703583823e-19
6.123946197e-19
6.566531904e-19
7.02852873e-19
7.506887931e-19
7.998322759e-19
8.499317864e-19
9.006154365e-19
9.514958082e-19
1.002178772e-18
1.05227654e-18
1.10142517e-18
1.149305894e-18
1.195670159e-18
1.240368986e-18
1.28338951e-18
1.324900925e-18
1.36531118e-18
1.405333146e-18
1.446057489e-18
1.489029568e-18
1.536330284e-18
1.590663506e-18
1.655453107e-18
1.734949851e-18
1.834340666e-18
1.959846333e-18
2.11879056e-18
2.31962621e-18
2.571912237e-18
2.886241717e-18
3.274119182e-18
3.747778339e-18
4.319916705e-18
5.003317103e-18
5.810330477e-18
6.752211747e-18
7.838320343e-18
9.075215996e-18
1.046568808e-17
1.200776327e-17
1.369374533e-17
1.550935807e-17
1.743307997e-17
1.94357767e-17
2.148074307e-17
2.352426993e-17
2.551684393e-17
2.740506628e-17
2.913431224e-17
3.065205911e-17
3.191168424e-17
3.287643464e-17
3.352319696e-17
3.384567664e-17
3.38566122e-17
3.358868442e-17
3.309385303e-17
3.244091365e-17
3.171122417e-17
3.099274909e-17
3.037291692e-17
2.993105498e-17
2.973130192e-17
2.981675211e-17
3.020538137e-17
3.088819615e-17
3.1830146e-17
3.297443937e-17
3.425076893e-17
3.558741543e-17
3.692626331e-17
3.823857982e-17
3.953830713e-17
4.088893882e-17
4.24003106e-17
4.421341821e-17
4.647480294e-17
4.930579889e-17
5.277353304e-17
5.686886249e-17
6.149311909e-17
6.645353711e-17
7.146769436e-17
7.617909545e-17
8.018652009e-17
8.308704903e-17
8.452719871e-17
8.425177589e-17
8.213973847e-17
7.82209345e-17
7.267368779e-17
6.580751646e-17
5.803709982e-17
4.985364454e-17
4.179855431e-17
3.444227717e-17
2.836927197e-17
2.416933125e-17
2.243598476e-17
2.377262781e-17
2.880535056e-17
3.819930818e-17
5.2674944e-17
7.301844052e-17
1.000857434e-16
1.347741173e-16
1.781962575e-16
2.276529192e-16
3.305794638e-16
1.030096218e-16
3.737422884e-19
3.952016257e-19
4.152617432e-19
4.358745633e-19
4.606292173e-19
4.889755667e-19
5.207989907e-19
5.559455464e-19
5.942440621e-19
6.355079682e-19
6.795346906e-19
7.261046549e-19
7.749800244e-19
8.25903966e-19
8.786003069e-19
9.327743392e-19
9.881150618e-19
1.044300143e-18
1.101004411e-18
1.157912881e-18
1.214737076e-18
1.271234954e-18
1.327234263e-18
1.382660842e-18
1.437574568e-18
1.492215013e-18
1.547057107e-18
1.602874954e-18
1.660811063e-18
1.722450226e-18
1.789899289e-18
1.865877381e-18
1.953819112e-18
2.057988548e-18
2.18359388e-18
2.336887243e-18
2.525234169e-18
2.757143475e-18
3.042257633e-18
3.391306291e-18
3.816019738e-18
4.328983914e-18
4.943404868e-18
5.672746744e-18
6.530220682e-18
7.528123144e-18
8.677043029e-18
9.984964854e-18
1.14562968e-17
1.309085123e-17
1.488282176e-17
1.681982304e-17
1.88820909e-17
2.104195761e-17
2.326372802e-17
2.550408327e-17
2.771313894e-17
2.983625561e-17
3.181664333e-17
3.359869051e-17
3.513183278e-17
3.637466524e-17
3.729892907e-17
3.789297254e-17
3.816426934e-17
3.814062119e-17
3.786968721e-17
3.741659116e-17
3.685947846e-17
3.62832197e-17
3.577182035e-17
3.540043077e-17
3.522788677e-17
3.529052018e-17
3.559777196e-17
3.613016905e-17
3.684045161e-17
3.765880124e-17
3.85029436e-17
3.929323071e-17
3.997160126e-17
4.052176608e-17
4.098635588e-17
4.147550214e-17
4.216118835e-17
4.325419169e-17
4.496640601e-17
4.746813004e-17
5.085192665e-17
5.510957395e-17
6.012132925e-17
6.565361966e-17
7.136406779e-17
7.681811831e-17
8.152407541e-17
8.49889936e-17
8.678741663e-17
8.66255292e-17
8.43834021e-17
8.012780084e-17
7.40989573e-17
6.66802199e-17
5.836002385e-17
4.969402237e-17
4.127280546e-17
3.36978618e-17
2.756625324e-17
2.346382307e-17
2.196739064e-17
2.365630837e-17
2.913172876e-17
3.903968345e-17
5.409261476e-17
7.508455456e-17
1.028914102e-16
1.384539424e-16
1.829021514e-16
2.335837832e-16
3.384634886e-16
1.052861391e-16
4.36619173e-19
4.58459347e-19
4.790631036e-19
5.003571846e-19
5.259463861e-19
5.552982407e-19
5.883193153e-19
6.248804604e-19
6.648391926e-19
7.080418265e-19
7.543230884e-19
8.03505361e-19
8.553977616e-19
9.097954129e-19
9.664789961e-19
1.025215367e-18
1.08575991e-18
1.147861417e-18
1.211270622e-18
1.275752642e-18
1.341102385e-18
1.407162836e-18
1.473847017e-18
1.541165334e-18
1.609261232e-18
1.678456303e-18
1.749304394e-18
1.822652267e-18
1.899705214e-18
1.982097988e-18
2.071975133e-18
2.172084976e-18
2.285889255e-18
2.417682931e-18
2.572711524e-18
2.757270384e-18
2.978774022e-18
3.245793121e-18
3.56806412e-18
3.956475734e-18
4.423021863e-18
4.980693196e-18
5.643266528e-18
6.424955863e-18
7.339909333e-18
8.401560855e-18
9.621857277e-18
1.101038218e-17
1.257338585e-17
1.431273563e-17
1.622481877e-17
1.829946897e-17
2.051901854e-17
2.285760153e-17
2.528083896e-17
2.77460485e-17
3.020311716e-17
3.259616028e-17
3.486601791e-17
3.695354027e-17
3.880349269e-17
4.036880192e-17
4.161479643e-17
4.252301301e-17
4.309413992e-17
4.334961975e-17
4.333149732e-17
4.310012664e-17
4.272959095e-17
4.230104241e-17
4.189465015e-17
4.158113426e-17
4.1413816e-17
4.142187227e-17
4.160534756e-17
4.193268573e-17
4.234190475e-17
4.274677869e-17
4.304921993e-17
4.315823678e-17
4.301432396e-17
4.261605869e-17
4.204331867e-17
4.146915777e-17
4.115097546e-17
4.139481562e-17
4.249770132e-17
4.468646412e-17
4.807395773e-17
5.264024295e-17
5.823046133e-17
6.455714685e-17
7.120329635e-17
7.763557671e-17
8.324380556e-17
8.741528978e-17
8.963172978e-17
8.955704651e-17
8.708641729e-17
8.234862561e-17
7.56737422e-17
6.754350614e-17
5.853802816e-17
4.928777566e-17
4.043591281e-17
3.261262873e-17
2.642087992e-17
2.243280791e-17
2.119714926e-17
2.325785143e-17
2.918169379e-17
3.958973006e-17
5.518625978e-17
7.677699958e-17
1.052741318e-16
1.416593875e-16
1.871497018e-16
2.390397063e-16
3.460117586e-16
1.074898661e-16
5.061232541e-19
5.283687367e-19
5.495693851e-19
5.716236058e-19
5.981497431e-19
6.286345625e-19
6.630072173e-19
7.011651013e-19
7.429965766e-19
7.883832298e-19
8.371998696e-19
8.893140106e-19
9.445851782e-19
1.002864391e-18
1.063993619e-18
1.127806266e-18
1.19412963e-18
1.262789923e-18
1.333620792e-18
1.40647502e-18
1.481238991e-18
1.557849413e-18
1.636314097e-18
1.716738732e-18
1.799362102e-18
1.884600373e-18
1.973098948e-18
2.065789609e-18
2.163952538e-18
2.269285505e-18
2.383985727e-18
2.510848481e-18
2.653382474e-18
2.815933028e-18
3.003799251e-18
3.223331004e-18
3.481999921e-18
3.788448256e-18
4.152525417e-18
4.585311689e-18
5.099111352e-18
5.707375913e-18
6.424513279e-18