/*--------------------------------*- C++ -*----------------------------------*\
  =========                 |
  \\      /  F ield         | OpenFOAM: The Open Source CFD Toolbox
   \\    /   O peration     | Website:  https://openfoam.org
    \\  /    A nd           | Version:  6
     \\/     M anipulation  |
\*---------------------------------------------------------------------------*/
FoamFile
{
    version     2.0;
    format      ascii;
    class       surfaceScalarField;
    location    "0.0048";
    object      phi;
}
// * * * * * * * * * * * * * * * * * * * * * * * * * * * * * * * * * * * * * //

dimensions      [0 3 -1 0 0 0 0];

internalField   nonuniform List<scalar> 
7080
(
1.75285012e-18
-3.179732997e-21
1.76108799e-18
-9.3073054e-21
1.770675246e-18
-1.468543364e-20
1.779876365e-18
-1.875077689e-20
1.785937813e-18
-2.090785017e-20
1.785394584e-18
-2.052597057e-20
1.77397158e-18
-1.693824442e-20
1.746626469e-18
-9.489058643e-21
1.697682196e-18
2.396803392e-21
1.621095972e-18
1.906504934e-20
1.510959255e-18
4.043907265e-20
1.362258048e-18
6.574815513e-20
1.171852824e-18
9.329633431e-20
9.394128397e-19
1.204034151e-19
6.678736411e-19
1.43889496e-19
3.629509796e-19
1.613393171e-19
3.179002879e-20
1.728853986e-19
-3.178084934e-19
1.815860887e-19
-6.747801867e-19
1.891228287e-19
-1.01799245e-18
1.859231693e-19
-1.312876189e-18
1.493106e-19
-1.520197873e-18
7.030944194e-20
-1.6081062e-18
-3.834580366e-20
-1.554563345e-18
-1.678169948e-19
-1.346702956e-18
-3.175258414e-19
-9.915661709e-19
-4.780474408e-19
-5.411766498e-19
-5.978991413e-19
-1.309908776e-19
-5.958328306e-19
6.506067065e-20
-4.038346834e-19
1.572273024e-20
7.988541083e-33
1.516620287e-20
5.638423451e-22
1.414749283e-20
1.027979565e-21
1.282186763e-20
1.334876162e-21
1.13516783e-20
1.478299307e-21
9.871145235e-21
1.487259795e-21
8.472532347e-21
1.403973187e-21
7.208213738e-21
1.268615203e-21
6.099636672e-21
1.112034272e-21
5.14777986e-21
9.547527081e-22
4.341732186e-21
8.085008e-22
3.665012181e-21
6.788639316e-22
3.099441782e-21
5.674243723e-22
2.627483252e-21
4.735851051e-22
2.233277412e-21
3.95602076e-22
1.903118767e-21
3.313728952e-22
1.625413926e-21
2.787387378e-22
1.390560523e-21
2.35752498e-22
1.19064827e-21
2.00688928e-22
1.019239078e-21
1.721189524e-22
8.710669376e-22
1.488414123e-22
7.418305257e-22
1.298983459e-22
6.279540514e-22
1.145023909e-22
5.264804573e-22
1.020349235e-22
4.349754634e-22
9.199397545e-23
3.514659796e-22
8.399143006e-23
2.742240794e-22
7.771973939e-23
2.018333683e-22
7.298131204e-23
1.326189343e-22
6.948234316e-23
6.604212302e-23
6.744142231e-23
6.617310622e-23
1.744393633e-18
-6.652759917e-21
1.753705409e-18
-1.949665724e-20
1.765048154e-18
-3.087756382e-20
1.776702299e-18
-3.969081577e-20
1.785960131e-18
-4.477299706e-20
1.789389054e-18
-4.486958274e-20
1.782694627e-18
-3.865899788e-20
1.760745661e-18
-2.480534172e-20
1.717628627e-18
-2.113957726e-21
1.646886081e-18
3.02262115e-20
1.541958129e-18
7.222973896e-20
1.39702277e-18
1.225728438e-19
1.208176422e-18
1.779547959e-19
9.748649266e-19
2.327632517e-19
7.008618994e-19
2.797327108e-19
3.937795971e-19
3.127072562e-19
6.201160013e-20
3.315353778e-19
-2.894412743e-19
3.455244965e-19
-6.576159994e-19
3.655095921e-19
-1.026850823e-18
3.745736144e-19
-1.35629818e-18
3.11388044e-19
-1.597547347e-18
1.534577393e-19
-1.719546646e-18
-5.774191006e-20
-1.704007028e-18
-3.015837298e-19
-1.528809968e-18
-5.889208571e-19
-1.176391894e-18
-9.232503866e-19
-6.809366122e-19
-1.196325208e-18
-1.888282438e-19
-1.22125824e-18
5.930881008e-20
-8.406003731e-19
1.628657234e-20
8.526305003e-33
1.563033987e-20
1.227625676e-21
1.445438919e-20
2.213625826e-21
1.296529058e-20
2.833546405e-21
1.136063864e-20
3.091470722e-21
9.787858458e-21
3.067047782e-21
8.337174239e-21
2.860335553e-21
7.051632718e-21
2.558635252e-21
5.942355002e-21
2.224965086e-21
5.001527878e-21
1.898564925e-21
4.212095264e-21
1.600502899e-21
3.553572558e-21
1.339580182e-21
3.00560247e-21
1.117335303e-21
2.549500191e-21
9.31356039e-22
2.169048193e-21
7.775251834e-22
1.850484583e-21
6.511895315e-22
1.582427666e-21
5.478924586e-22
1.355496929e-21
4.636150542e-22
1.162078278e-21
3.949348701e-22
9.95961525e-22
3.38974863e-22
8.521238562e-22
2.933935131e-22
7.2643456e-22
2.562805555e-22
6.154865763e-22
2.261129974e-22
5.164395e-22
2.016661268e-22
4.269729117e-22
1.81973624e-22
3.451942849e-22
1.662730825e-22
2.694856468e-22
1.539787265e-22
1.983343964e-22
1.446208823e-22
1.305780125e-22
1.379529437e-22
6.477380494e-23
1.334145141e-22
1.31476234e-22
1.7295203e-18
-1.06885819e-20
1.740559137e-18
-3.140200627e-20
1.754652033e-18
-5.000538523e-20
1.770146035e-18
-6.490790932e-20
1.784406771e-18
-7.441359201e-20
1.794051057e-18
-7.669030211e-20
1.794799572e-18
-6.97742021e-20
1.78142186e-18
-5.164825634e-20
1.747737942e-18
-2.040890546e-20
1.686726588e-18
2.540732222e-20
1.590891372e-18
8.627932816e-20
1.453051422e-18
1.608148038e-19
1.267820059e-18
2.445265874e-19
1.03381009e-18
3.285856867e-19
7.560332501e-19
3.998556206e-19
4.462432653e-19
4.447730692e-19
1.176369735e-19
4.60024052e-19
-2.275936909e-19
4.664630213e-19
-6.039532056e-19
5.051979372e-19
-1.010998331e-18
5.648822024e-19
-1.39344936e-18
4.972120829e-19
-1.681777289e-18
2.520741664e-19
-1.853252991e-18
-5.003810548e-20
-1.90849908e-18
-3.691347715e-19
-1.816195989e-18
-7.535599972e-19
-1.508130463e-18
-1.284983609e-18
-9.744804251e-19
-1.785405996e-18
-3.692980944e-19
-1.902250596e-18
8.972577762e-21
-1.348301627e-18
1.751419826e-20
9.554821563e-33
1.661634029e-20
2.133136263e-21
1.507430996e-20
3.765235826e-21
1.322321509e-20
4.694178339e-21
1.133621592e-20
4.986890535e-21
9.58114633e-21
4.829161337e-21
8.035474065e-21
4.411656507e-21
6.717962691e-21
3.880658684e-21
5.615954897e-21
3.330567586e-21
4.703465929e-21
2.814017547e-21
3.95117263e-21
2.355278322e-21
3.331327712e-21
1.961578523e-21
2.819623253e-21
1.630904222e-21
2.395669385e-21
1.356950071e-21
2.042712562e-21
1.13189957e-21
1.747187538e-21
9.479514442e-22
1.498150292e-21
7.979888972e-22
1.286816759e-21
6.758695315e-22
1.106118288e-21
5.764322417e-22
9.503801945e-22
4.954426729e-22
8.15010907e-22
4.294565258e-22
6.96267013e-22
3.757097746e-22
5.910397179e-22
3.319873664e-22
4.96747002e-22
2.96531129e-22
4.112723766e-22
2.67947316e-22
3.328999365e-22
2.45143015e-22
2.601278043e-22
2.272638965e-22
1.916664608e-22
2.136913884e-22
1.260395869e-22
2.037930505e-22
6.283552382e-23
1.976947665e-22
1.943149423e-22
1.706829596e-18
-1.55136364e-20
1.720139553e-18
-4.570425257e-20
1.737826351e-18
-7.32378406e-20
1.75833492e-18
-9.609872127e-20
1.779121138e-18
-1.121303003e-19
1.796891565e-18
-1.189803099e-19
1.807415101e-18
-1.141037246e-19
1.80542653e-18
-9.482223696e-20
1.784530208e-18
-5.848240496e-20
1.737166512e-18
-2.754836829e-21
1.654727092e-18
7.378276993e-20
1.528106806e-18
1.705403738e-19
1.349208557e-18
2.829323414e-19
1.1142238e-18
3.994340829e-19
8.288290227e-19
4.989353675e-19
5.124561941e-19
5.532236557e-19
1.923478601e-19
5.449407062e-19
-1.259764843e-19
5.074751629e-19
-4.922039511e-19
5.601845595e-19
-9.481351725e-19
7.508046312e-19
-1.403540848e-18
7.176925217e-19
-1.735224686e-18
3.451017986e-19
-1.949221914e-18
-3.41174058e-20
-2.102102124e-18
-3.520967397e-19
-2.166190345e-18
-7.288428147e-19
-1.973177093e-18
-1.48476431e-18
-1.419424777e-18
-2.339967425e-18
-6.611306349e-19
-2.657585237e-18
-7.604984491e-20
-1.971371664e-18
1.964733452e-20
1.093045007e-32
1.824843992e-20
3.539721981e-21
1.600325242e-20
6.020123372e-21
1.351592728e-20
7.190961432e-21
1.117848679e-20
7.33265297e-21
9.163641424e-21
6.850905812e-21
7.504476242e-21
6.076394761e-21
6.167871639e-21
5.221672083e-21
5.099404804e-21
4.402554319e-21
4.244726704e-21
3.671540482e-21
3.557472858e-21
3.044915842e-21
3.00065338e-21
2.520430052e-21
2.545669102e-21
2.08766389e-21
2.1706189e-21
1.733545271e-21
1.858764418e-21
1.44510798e-21
1.597224991e-21
1.210660399e-21
1.376030935e-21
1.020197995e-21
1.187379458e-21
8.653928899e-22
1.02512872e-21
7.394483688e-22
8.843940532e-22
6.368689248e-22
7.612641489e-22
5.532527686e-22
6.525446048e-22
4.850840307e-22
5.555834847e-22
4.295704568e-22
4.681631845e-22
3.844970404e-22
3.884680756e-22
3.481171319e-22
3.150208212e-22
3.190609879e-22
2.465552927e-22
2.96269705e-22
1.81768123e-22
2.788920857e-22
1.199413058e-22
2.664923145e-22
5.945569664e-23
2.580731106e-22
2.543751911e-22
1.674503371e-18
-2.130792128e-20
1.690482002e-18
-6.295313086e-20
1.712380825e-18
-1.015079809e-19
1.738750378e-18
-1.346160296e-19
1.767150428e-18
-1.597395372e-19
1.794389275e-18
-1.740961988e-19
1.816327339e-18
-1.746492436e-19
1.827754899e-18
-1.58154804e-19
1.822250451e-18
-1.212660962e-19
1.791983602e-18
-6.072245047e-20
1.727452982e-18
2.625716238e-20
1.617343659e-18
1.410057822e-19
1.449305662e-18
2.810236833e-19
1.213675719e-18
4.348683571e-19
9.129763736e-19
5.73632221e-19
5.766133031e-19
6.440825384e-19
2.651761325e-19
5.867031222e-19
1.325707357e-20
4.198021933e-19
-2.914142798e-19
4.33928249e-19
-8.089440192e-19
9.189837679e-19
-1.36639245e-18
9.845204728e-19
-1.701500717e-18
3.745522698e-19
-1.90520486e-18
-6.753531718e-20
-2.155061231e-18
-2.635282969e-19
-2.482537913e-18
-4.102915254e-19
-2.523911387e-18
-1.40734498e-18
-1.99888347e-18
-2.815037122e-18
-1.060751158e-18
-3.475640595e-18
-1.919010241e-19
-2.757204006e-18
2.318705614e-20
1.330913317e-32
2.072884109e-20
6.005733644e-21
1.717409013e-20
9.584339208e-21
1.365761861e-20
1.071656486e-20
1.069673958e-20
1.030145929e-20
8.389130144e-21
9.165103481e-21
6.649753472e-21
7.821084414e-21
5.34875386e-21
6.526901402e-21
4.368390835e-21
5.386267769e-21
3.618102015e-21
4.424534173e-21
3.032987059e-21
3.632265658e-21
2.567887142e-21
2.987437304e-21
2.191550452e-21
2.46565291e-21
1.882181602e-21
2.044363512e-21
1.624316791e-21
1.70423701e-21
1.406762567e-21
1.429316944e-21
1.221225825e-21
1.206686175e-21
1.061434908e-21
1.026007445e-21
9.225492625e-22
8.790518896e-22
8.007778934e-22
7.592939198e-22
6.930953922e-22
6.615633809e-22
5.970310225e-22
5.817706226e-22
5.105100664e-22
5.166807546e-22
4.317832638e-22
4.637403469e-22
3.594119263e-22
4.209382067e-22
2.922295384e-22
3.866976806e-22
2.291776656e-22
3.597860022e-22
1.693683493e-22
3.393059549e-22
1.115221041e-22
3.243508999e-22
5.57577725e-23
3.150901672e-22
3.100136226e-22
1.630415914e-18
-2.819807009e-20
1.649285556e-18
-8.352760644e-20
1.675729783e-18
-1.354544246e-19
1.708399472e-18
-1.81365812e-19
1.744935365e-18
-2.184320379e-19
1.782219976e-18
-2.435316308e-19
1.816188022e-18
-2.532487192e-19
1.841747115e-18
-2.439274147e-19
1.852692336e-18
-2.117543041e-19
1.841487057e-18
-1.528088902e-19
1.798649234e-18
-6.305668827e-20
1.711476955e-18
6.14857804e-20
1.562598151e-18
2.233553139e-19
1.331249132e-18
4.178709652e-19
1.005605128e-18
6.169071372e-19
6.166737178e-19
7.375570656e-19
2.876602004e-19
6.271461731e-19
1.565244693e-19
1.665356529e-19
3.820837521e-20
-2.429049817e-20
-5.600331544e-19
9.234526519e-19
-1.279230407e-18
1.082652026e-18
-1.502097495e-18
3.364249965e-19
-1.587426439e-18
-1.832407939e-19
-1.847208907e-18
-9.112588446e-20
-2.579713269e-18
4.708980368e-20
-3.030997422e-18
-1.006885752e-18
-2.633389041e-18
-3.115043307e-18
-1.553454454e-18
-4.235112253e-18
-3.348071614e-19
-3.721363166e-18
2.91927901e-20
1.740882385e-32
2.430744711e-20
1.090148069e-20
1.83063159e-20
1.559722431e-20
1.324251325e-20
1.579046117e-20
9.560384067e-21
1.399163626e-20
7.045111065e-21
1.168671984e-20
5.355570569e-21
9.515639206e-21
4.208120388e-21
7.678305309e-21
3.406657224e-21
6.190860296e-21
2.82583356e-21
5.007865487e-21
2.388158796e-21
4.072006961e-21
2.046102741e-21
3.331243439e-21
1.77026109e-21
2.743013475e-21
1.542055155e-21
2.273898667e-21
1.349396723e-21
1.898061855e-21
1.184131821e-21
1.595598139e-21
1.040547128e-21
1.351153056e-21
9.144793536e-22
1.152836919e-21
8.027913073e-22
9.914063519e-22
7.030473765e-22
8.596436955e-22
6.133026344e-22
7.518944986e-22
5.319411639e-22
6.637148734e-22
4.575696733e-22
5.916066054e-22
3.889811231e-22
5.328134559e-22
3.251714059e-22
4.851673597e-22
2.653178698e-22
4.469701767e-22
2.086976163e-22
4.169081351e-22
1.54413297e-22
3.939183821e-22
1.022613777e-22
3.774802835e-22
5.068122399e-23
3.662944093e-22
3.61361475e-22
1.572255473e-18
-3.624925493e-20
1.594042485e-18
-1.076202153e-19
1.625054868e-18
-1.753873638e-19
1.664016372e-18
-2.367650202e-19
1.708592136e-18
-2.887059262e-19
1.755635292e-18
-3.278139466e-19
1.80101189e-18
-3.503624136e-19
1.839616629e-18
-3.524189833e-19
1.865512431e-18
-3.300301979e-19
1.87204867e-18
-2.793169728e-19
1.851435321e-18
-1.961702467e-19
1.792667441e-18
-7.51142613e-20
1.676397675e-18
9.256691231e-20
1.46772921e-18
3.181439956e-19
1.119986873e-18
5.986822911e-19
6.240704069e-19
8.480608708e-19
1.815649384e-19
7.771128562e-19
1.711501923e-19
-2.460080615e-19
5.04027906e-19
-7.091075659e-19
-1.626166548e-19
6.520158811e-19
-1.147182685e-18
9.941917806e-19
-9.64867795e-19
-8.56560998e-20
-9.48985387e-19
-2.50010639e-19
-8.78888115e-19
-1.996275613e-19
-2.128342147e-18
6.726087019e-19
-3.122067643e-18
-1.934115016e-19
-3.053667889e-18
-2.931898646e-18
-2.096223728e-18
-4.423560249e-18
-5.072289549e-19
-4.73620492e-18
4.009427081e-20
2.573556599e-32
2.900319099e-20
2.200367485e-20
1.849955253e-20
2.611422998e-20
1.144368834e-20
2.285759856e-20
7.25546781e-21
1.818831148e-20
4.874030238e-21
1.407444688e-20
3.518236672e-21
1.087621227e-20
2.720675457e-21
8.479562804e-21
2.223662313e-21
6.69076314e-21
1.889975034e-21
5.343852591e-21
1.647395319e-21
4.316465813e-21
1.457872722e-21
3.522352636e-21
1.301146283e-21
2.901112561e-21
1.166218368e-21
2.410031451e-21
1.046932975e-21
2.018405487e-21
9.396867382e-22
1.703770699e-21
8.422310071e-22
1.44941309e-21
7.530487683e-22
1.242715361e-21
6.710286509e-22
1.074034745e-21
5.952981901e-22
9.35929178e-22
5.251229972e-22
8.226094361e-22
4.59832896e-22
7.295456831e-22
3.987765313e-22
6.531781579e-22
3.413350186e-22
5.907043656e-22
2.869742229e-22
5.399187975e-22
2.352558342e-22
4.990893371e-22
1.857078569e-22
4.66856525e-22
1.379751983e-22
4.422371514e-22
9.107550895e-23
4.241917188e-22
4.574828422e-23
4.130217265e-22
4.068723936e-22
1.497660117e-18
-4.546588661e-20
1.522189289e-18
-1.352321639e-19
1.557477972e-18
-2.212832494e-19
1.602293793e-18
-3.007392185e-19
1.654251304e-18
-3.703921187e-19
1.7100066e-18
-4.265696804e-19
1.765036716e-18
-4.651685991e-19
1.813713692e-18
-4.819018396e-19
1.849753686e-18
-4.727768594e-19
1.867126175e-18
-4.346855068e-19
1.861081043e-18
-3.656245058e-19
1.827613684e-18
-2.632140864e-19
1.756777651e-18
-1.188033153e-19
1.611783027e-18
9.542331353e-20
1.299086141e-18
4.374140595e-19
6.701969297e-19
9.212500011e-19
-2.573785657e-20
9.769636718e-19
-3.577919138e-19
-1.429194749e-19
5.259846602e-19
-1.46069754e-18
-4.598977243e-33
1.932932438e-19
-1.947586569e-32
1.314250908e-19
-6.326466417e-33
-5.719277036e-20
-1.33430226e-33
-3.641537506e-20
1.207767305e-32
-4.903973489e-20
-5.612921483e-33
1.470497183e-19
-1.621003009e-18
2.11944268e-19
-2.309738582e-18
-1.765594922e-18
-2.697366167e-18
-2.304650414e-18
-7.791417546e-19
-5.019996538e-18
6.209794462e-20
2.621946299e-32
3.311374601e-20
5.0987698e-20
1.524292049e-20
4.399306934e-20
6.77440119e-21
3.133535727e-20
3.141603373e-21
2.182865815e-20
1.675795395e-21
1.554594916e-20
1.121587202e-21
1.143471465e-20
9.318758803e-22
8.67256265e-21
8.767516504e-22
6.748441801e-21
8.625882508e-22
5.3600364e-21
8.532821816e-22
4.327416532e-21
8.366325828e-22
3.540386366e-21
8.100651639e-22
2.928879348e-21
7.745924235e-22
2.446559299e-21
7.322981461e-22
2.061631434e-21
6.853291205e-22
1.751557948e-21
6.355332873e-22
1.499922179e-21
5.843681246e-22
1.294498212e-21
5.329230774e-22
1.126020324e-21
4.819784533e-22
9.873687447e-22
4.320592254e-22
8.730150551e-22
3.834653656e-22
7.786317177e-22
3.363027428e-22
7.008123893e-22
2.905494373e-22
6.36868011e-22
2.461447591e-22
5.846755133e-22
2.030230261e-22
5.425646329e-22
1.610884738e-22
5.092386362e-22
1.199297641e-22
4.836291153e-22
7.990552166e-23
4.652732598e-22
3.959894454e-23
4.526946937e-22
4.471820572e-22
1.404372146e-18
-5.579688228e-20
1.431260907e-18
-1.661818706e-19
1.470222894e-18
-2.72788905e-19
1.520072591e-18
-3.727438619e-19
1.578347595e-18
-4.6274041e-19
1.641363839e-18
-5.387692483e-19
1.703803629e-18
-5.960882705e-19
1.758604956e-18
-6.295468039e-19
1.797420941e-18
-6.34410934e-19
1.812239371e-18
-6.078539092e-19
1.798942405e-18
-5.510555628e-19
1.762724912e-18
-4.7083448e-19
1.720442549e-18
-3.761084135e-19
1.677390744e-18
-2.553999356e-19
1.557960017e-18
-3.703324001e-21
1.027400341e-18
6.315632574e-19
-9.885377189e-20
1.015005771e-18
2.417657057e-33
-5.618461263e-20
-1.383785852e-19
-1.156322596e-19
1.475526313e-21
5.344032835e-20
7.971029041e-20
5.319646254e-20
2.077739529e-20
1.749203768e-21
-1.26243598e-20
-3.001790771e-21
-7.223869839e-20
1.058672454e-20
1.550870523e-21
7.325902751e-20
1.197275608e-19
9.37633521e-20
8.304673172e-33
-1.973577072e-20
-1.872861225e-18
1.311300828e-19
-1.846287875e-18
-3.095254381e-18
1.130856433e-19
-3.030028165e-19
2.611911851e-20
1.379599005e-19
2.585207995e-21
6.753573405e-20
-2.732297758e-21
3.666150269e-20
-3.14110534e-21
2.224432669e-20
-2.435439326e-21
1.484537594e-20
-1.640564758e-21
1.064362288e-20
-9.922448538e-22
8.027100399e-21
-5.116538377e-22
6.270044651e-21
-1.700315971e-22
5.020132687e-21
6.625208187e-23
4.092520729e-21
2.251255238e-22
3.382677733e-21
3.277451304e-22
2.827270078e-21
3.896646013e-22
2.385533721e-21
4.222246405e-22
2.029865328e-21
4.336933633e-22
1.740790998e-21
4.301093493e-22
1.504119994e-21
4.158902258e-22
1.309250093e-21
3.942715073e-22
1.148105984e-21
3.67624784e-22
1.014446442e-21
3.376758814e-22
9.033932537e-22
3.056460435e-22
8.111014303e-22
2.723583791e-22
7.345228578e-22
2.383569345e-22
6.712349236e-22
2.040338826e-22
6.193131404e-22
1.696970401e-22
5.77231501e-22
1.354789478e-22
5.437772944e-22
1.015739106e-22
5.180845948e-22
6.732696351e-23
4.991356364e-22
3.408630185e-23
4.874459364e-22
4.809207087e-22
1.290413417e-18
-6.715463525e-20
1.319049737e-18
-2.001234568e-19
1.360735052e-18
-3.292119222e-19
1.414415687e-18
-4.517388107e-19
1.47767411e-18
-5.644541336e-19
1.546565319e-18
-6.629811775e-19
1.614830258e-18
-7.4157942e-19
1.673183118e-18
-7.933219471e-19
1.708883445e-18
-8.109201349e-19
1.706452625e-18
-7.886613277e-19
1.651744922e-18
-7.263361093e-19
1.544010172e-18
-6.363680014e-19
1.422427928e-18
-5.536470595e-19
1.388616693e-18
-5.340154586e-19
1.40337931e-18
-5.257236139e-19
1.143403026e-18
-1.770579472e-19
1.487998575e-19
1.484705137e-19
6.723970586e-20
2.536732701e-20
-3.264967436e-20
-1.574736407e-20
1.231660426e-21
1.955913543e-20
2.826303118e-20
2.616842014e-20
1.60264007e-20
1.399110332e-20
9.641556485e-22
1.206876467e-20
-9.566394863e-21
2.112233495e-20
2.205519545e-20
4.163704402e-20
6.957211561e-20
4.623072862e-20
2.417850151e-20
2.564532684e-20
8.814950328e-20
6.716379315e-20
-3.030028194e-19
1.87563881e-20
-4.595162154e-20
-5.600543161e-19
-4.430504745e-20
1.362921067e-19
-2.82890246e-20
5.15255783e-20
-1.714947376e-20
2.55285861e-20
-1.054005592e-20
1.564032493e-20
-6.637192636e-21
1.094656864e-20
-4.257087243e-21
8.266524964e-21
-2.749300521e-21
6.521569389e-21
-1.761565905e-21
5.284024595e-21
-1.097643556e-21
4.357539266e-21
-6.435908684e-22
3.639534197e-21
-3.302821857e-22
3.070263405e-21
-1.139912269e-22
2.611761303e-21
3.399623556e-23
2.238246686e-21
1.331502786e-22
1.931342403e-21
1.970223591e-22
1.677483177e-21
2.352394663e-22
1.466400919e-21
2.547460962e-22
1.290177762e-21
2.606119651e-22
1.14262328e-21
2.565716086e-22
1.018845323e-21
2.453840437e-22
9.149458718e-22
2.29067471e-22
8.277991436e-22
2.090704545e-22
7.548887282e-22
1.864351407e-22
6.941869386e-22
1.619522432e-22
6.440633878e-22
1.362428415e-22
6.03214013e-22
1.097862398e-22
5.706137149e-22
8.262495222e-23
5.453791518e-22
5.563727069e-23
5.27236476e-22
2.756106676e-23
5.146519669e-22
5.092197899e-22
1.154313018e-18
-7.947399447e-20
1.183796748e-18
-2.366011344e-19
1.226778402e-18
-3.894798685e-19
1.282536289e-18
-5.360427886e-19
1.349052382e-18
-6.734807892e-19
1.422626427e-18
-7.972316706e-19
1.496699046e-18
-9.004179692e-19
1.560318504e-18
-9.736308783e-19
1.595952373e-18
-1.005117119e-18
1.576477407e-18
-9.816845139e-19
1.462116424e-18
-8.911313825e-19
1.201578046e-18
-7.286321293e-19
7.554640305e-19
-5.143633932e-19
1.319359366e-19
-3.503827064e-19
-4.201259222e-20
-6.342520426e-19
-5.651395658e-20
6.952532491e-33
2.569667332e-20
6.625697602e-20
2.612501432e-20
2.493487711e-20
2.656825208e-21
7.717741346e-21
7.840945006e-21
1.437479036e-20
1.60857141e-20
1.792531851e-20
1.410406186e-20
1.597542356e-20
1.001772578e-20
1.615964017e-20
1.094831407e-20
2.019691011e-20
2.664887973e-20
2.593252171e-20
4.898671298e-20
2.388412526e-20
6.569696689e-20
8.935101514e-21
1.521343381e-19
-1.927977026e-20
3.181864348e-19
-1.473030118e-19
-3.738692394e-19
1.31989167e-19
-1.290715732e-19
-1.085107745e-19
-5.428601676e-20
-2.32570461e-20
-2.703773445e-20
-1.715853964e-21
-1.523381182e-20
3.839837331e-21
-9.317236338e-21
5.032704029e-21
-6.002042715e-21
4.953395715e-21
-3.986845176e-21
4.507931642e-21
-2.688051273e-21
3.986408405e-21
-1.815648593e-21
3.486037833e-21
-1.212861596e-21
3.037462751e-21
-7.887843212e-22
2.646788805e-21
-4.875058346e-22
2.311019227e-21
-2.729080141e-22
2.024142826e-21
-1.207089748e-22
1.779600555e-21
-1.405989634e-23
1.57125274e-21
5.901632751e-23
1.393699987e-21
1.071915929e-22
1.242333765e-21
1.368340067e-22
1.113277024e-21
1.526721693e-22
1.003291287e-21
1.582372995e-22
9.09679459e-22
1.561570537e-22
8.301988238e-22
1.483686731e-22
7.629878592e-22
1.363115776e-22
7.065086474e-22
1.211028669e-22
6.59498783e-22
1.036425504e-22
6.209264183e-22
8.455166683e-23
5.899423512e-22
6.448227557e-23
5.659582046e-22
4.305276869e-23
5.481026478e-22
2.212888175e-23
5.371615851e-22
5.309027904e-22
9.954468867e-19
-9.290349262e-20
1.024485798e-18
-2.75208177e-19
1.066594715e-18
-4.520817196e-19
1.121707993e-18
-6.230283757e-19
1.18874757e-18
-7.864310514e-19
1.265152304e-18
-9.380539345e-19
1.345642231e-18
-1.070291025e-18
1.420495582e-18
-1.171625868e-18
1.472628498e-18
-1.226154659e-18
1.472116582e-18
-1.213082131e-18
1.36544817e-18
-1.105892087e-18
1.055285709e-18
-8.705045974e-19
3.958362196e-19
-4.625305897e-19
-4.717322069e-19
1.445623586e-19
-1.386696821e-18
4.765473313e-19
-1.169443376e-19
-1.407604038e-19
-1.562542535e-20
-3.506366263e-20
8.907878921e-21
3.980233053e-22
9.313874301e-21
7.309314899e-21
1.139147326e-20
1.229674857e-20
1.413581939e-20
1.51815594e-20
1.42882787e-20
1.58234122e-20
1.405499585e-20
1.639375419e-20
1.668392584e-20
1.756926085e-20
2.460048372e-20
1.801469314e-20
3.40376899e-20
1.444090171e-20
3.748209606e-20
5.487667347e-21
2.411109829e-20
-5.91328052e-21
-1.149136023e-19
-8.288360752e-21
-1.436920892e-20
3.143984033e-20
-4.381784702e-20
-7.907231409e-20
-3.274482509e-20
-3.433022598e-20
-2.14820436e-20
-1.297737937e-20
-1.404094528e-20
-3.599799511e-21
-9.396544867e-21
3.895589942e-22
-6.447506874e-21
2.005341814e-21
-4.508368413e-21
2.569533214e-21
-3.188421945e-21
2.667005014e-21
-2.264223698e-21
2.562237454e-21
-1.603535522e-21
2.377083292e-21
-1.124553951e-21
2.168073791e-21
-7.743822404e-22
1.961104406e-21
-5.174502625e-22
1.76747052e-21
-3.290568186e-22
1.591469233e-21
-1.916126474e-22
1.43406426e-21
-9.234987544e-23
1.294677389e-21
-2.186516473e-23
1.172067821e-21
2.684827248e-23
1.064766022e-21
5.906035687e-23
9.712832107e-22
7.875665307e-23
8.9021081e-22
8.894609193e-23
8.202633578e-22
9.18894741e-23
7.602963134e-22
8.930170458e-23
7.093113522e-22
8.253050432e-23
6.664522055e-22
7.265849369e-23
6.309952585e-22
6.056751265e-23
6.023491735e-22
4.662671982e-23
5.799394784e-22
3.211171474e-23
5.637623466e-22
1.587007929e-23
5.523260815e-22
5.475167778e-22
8.146103255e-19
-1.084047976e-19
8.413311371e-19
-3.159983497e-19
8.792602638e-19
-5.150454333e-19
9.294557712e-19
-7.087591546e-19
9.922769891e-19
-8.978014575e-19
1.067045933e-18
-1.078935048e-18
1.151236931e-18
-1.244588344e-18
1.239597233e-18
-1.382415643e-18
1.323183934e-18
-1.474880102e-18
1.388691644e-18
-1.49926973e-18
1.419156759e-18
-1.428723782e-18
1.395021072e-18
-1.234596875e-18
1.187530984e-18
-8.885722075e-19
7.081623717e-19
-3.519656771e-19
1.909114274e-19
-2.852568228e-33
5.209608187e-20
-1.946383795e-21
1.983626096e-20
-2.807309288e-21
1.581917058e-20
4.410810918e-21
1.430130804e-20
8.823826703e-21
1.42762841e-20
1.231995409e-20
1.477767219e-20
1.467887792e-20
1.485862072e-20
1.574081788e-20
1.52305025e-20
1.602043557e-20
1.712935814e-20
1.566996301e-20
2.102669227e-20
1.41162728e-20
2.508445542e-20
1.038080733e-20
2.608114809e-20
4.488678614e-21
2.173601802e-20
-1.573044662e-21
1.74068248e-20
-3.964527442e-21
5.08545697e-20
-2.015772116e-21
9.242409089e-22
-2.914935571e-20
-1.13919778e-20
-2.201648001e-20
-1.210446374e-20
-1.226600576e-20
-1.005158674e-20
-5.653144928e-21
-7.78076204e-21
-1.88148187e-21
-5.883315474e-21
1.077679318e-22
-4.410896572e-21
1.097010942e-21
-3.293189546e-21
1.549189904e-21
-2.44937786e-21
1.718311807e-21
-1.812544991e-21
1.740145629e-21
-1.33152337e-21
1.686978993e-21
-9.68016126e-22
1.597570025e-21
-6.934515277e-22
1.49292844e-21
-4.864618159e-22
1.384542825e-21
-3.309995188e-22
1.278692498e-21
-2.14959427e-22
1.178739926e-21
-1.291669821e-22
1.08638064e-21
-6.663453871e-23
1.002341465e-21
-2.20120311e-23
9.267844264e-22
8.809186981e-24
8.595454005e-22
2.897904754e-23
8.002812909e-22
4.090452318e-23
7.485636137e-22
4.644254693e-23
7.039396261e-22
4.707355726e-23
6.659688711e-22
4.401241759e-23
6.342391746e-22
3.815780829e-23
6.083636035e-22
3.0449588e-23
5.881054332e-22
2.067545792e-23
5.728114126e-22
1.106076725e-23
5.635523201e-22
5.58043841e-22
6.150712374e-19
-1.297472937e-19
6.364636793e-19
-3.603078358e-19
6.652437858e-19
-5.759281971e-19
7.04298444e-19
-7.87742681e-19
7.555286572e-19
-9.995570349e-19
8.200611522e-19
-1.209419987e-18
8.979129058e-19
-1.410262921e-18
9.875107629e-19
-1.589672817e-18
1.08514371e-18
-1.72946642e-18
1.185150913e-18
-1.806124296e-18
1.283162225e-18
-1.794177576e-18
1.379487262e-18
-1.676476018e-18
1.271705868e-18
-1.46748794e-18
1.019405862e-18
-1.219678165e-18
1.256213636e-19
-1.60632935e-32
5.12351556e-20
7.243630854e-20
2.705438078e-20
2.136779545e-20
2.023218606e-20
1.122659829e-20
1.779743518e-20
1.125287888e-20
1.663520767e-20
1.347757616e-20
1.583961191e-20
1.547037225e-20
1.513823822e-20
1.643817527e-20
1.488002969e-20
1.62757472e-20
1.55756677e-20
1.497394234e-20
1.729122655e-20
1.24020591e-20
1.919232639e-20
8.480913581e-21
2.001942451e-20
3.662507617e-21
1.934453494e-20
-8.992453333e-22
1.935557985e-20
-3.97962565e-21
2.37209859e-20
-6.385159808e-21
8.057116166e-21
-1.349512252e-20
-1.641503202e-21
-1.232216569e-20
-5.491602878e-21
-8.418884428e-21
-6.27992361e-21
-4.866987904e-21
-5.791512124e-21
-2.371532514e-21
-4.894072398e-21
-7.909418618e-22
-3.958717528e-21
1.606571135e-22
-3.124067619e-21
7.137335526e-22
-2.427544001e-21
1.021125249e-21
-1.865711574e-21
1.177768013e-21
-1.420932342e-21
1.241765065e-21
-1.072657694e-21
1.248967185e-21
-8.018371104e-22
1.221877354e-21
-5.923121551e-22
1.174869511e-21
-4.309520834e-22
1.117245959e-21
-3.073186921e-22
1.055062823e-21
-2.132061695e-22
9.922520464e-22
-1.421915749e-22
9.313341495e-22
-8.925104281e-23
8.738814582e-22
-5.04549347e-23
8.208287876e-22
-2.273862899e-23
7.726845557e-22
-3.71945372e-24
7.296794202e-22
8.471781158e-24
6.918687553e-22
1.534386087e-23
6.592020577e-22
1.813685526e-23
6.315679381e-22
1.789962864e-23
6.088408595e-22
1.515556729e-23
5.907814209e-22
1.141637368e-23
5.776872006e-22
5.552279685e-24
5.681553964e-22
5.643230163e-22
4.048199264e-19
-1.683761379e-19
4.143590722e-19
-4.109370571e-19
4.26715871e-19
-6.313657235e-19
4.46748613e-19
-8.528845739e-19
4.770945943e-19
-1.081519864e-18
5.198363754e-19
-1.315973289e-18
5.765576508e-19
-1.549648331e-18
6.474034654e-19
-1.770170835e-18
7.283722458e-19
-1.957813104e-18
8.05105711e-19
-2.083347475e-18
8.403627264e-19
-2.105752198e-18
7.571403047e-19
-1.970683204e-18
5.470641077e-19
-1.612008076e-18
-7.673090364e-20
-9.632406478e-19
-7.027048021e-20
2.092392247e-33
1.666431611e-22
1.993984327e-21
1.691318398e-20
4.613189446e-21
2.025846696e-20
7.872153656e-21
2.002213275e-20
1.148094133e-20
1.862800399e-20
1.486456361e-20
1.680741517e-20
1.728434184e-20
1.49758104e-20
1.826436755e-20
1.357822502e-20
1.767108018e-20
1.300378469e-20
1.555006891e-20
1.33700813e-20
1.204033902e-20
1.437392069e-20
7.482977992e-21
1.545767185e-20
2.582903405e-21
1.62641549e-20
-1.703936371e-21
1.695004598e-20
-4.66568668e-21
1.661102361e-20
-6.051745428e-21
9.230072936e-21
-6.120572128e-21
2.261778217e-21
-5.359223906e-21
-1.939706463e-21
-4.221851297e-21
-3.78446835e-21
-3.025860394e-21
-4.210921523e-21
-1.948024785e-21
-3.942473503e-21
-1.06174112e-21
-3.405641138e-21
-3.780438407e-22
-2.816675981e-21
1.232778569e-22
-2.270901275e-21
4.741431493e-22
-1.801714531e-21
7.075971692e-22
-1.413730262e-21
8.529826396e-22
-1.099747541e-21
9.343510983e-22
-8.488449476e-22
9.704860614e-22
-6.49935734e-22
9.755935729e-22
-4.931352252e-22
9.601757402e-22
-3.701294582e-22
9.318599237e-22
-2.741240845e-22
8.961034226e-22
-1.996442679e-22
8.567550131e-22
-1.423037024e-22
8.1648729e-22
-9.859917967e-23
7.771227615e-22
-6.574376455e-23
7.398769672e-22
-4.153010834e-23
7.055387764e-22
-2.419492665e-23
6.746024934e-22
-1.229025827e-23
6.473602648e-22
-4.590213977e-24
6.239656449e-22
-1.598188512e-25
6.044563944e-22
2.061347346e-24
5.889400718e-22
1.884578146e-24
5.769873074e-22
1.719891174e-24
5.699195088e-22
5.654328688e-22
2.014536973e-19
-2.845234747e-19
1.797229065e-19
-4.745942931e-19
1.665164801e-19
-6.767099159e-19
1.596953791e-19
-8.958919133e-19
1.598184196e-19
-1.132483757e-18
1.687283971e-19
-1.38381563e-18
1.894414521e-19
-1.64365682e-18
2.25460636e-19
-1.900524638e-18
2.786802817e-19
-2.13478887e-18
3.439735529e-19
-2.313920319e-18
3.972217725e-19
-2.384246075e-18
3.776532508e-19
-2.256304235e-18
2.872545261e-19
-1.78051737e-18