/*--------------------------------*- C++ -*----------------------------------*\
  =========                 |
  \\      /  F ield         | OpenFOAM: The Open Source CFD Toolbox
   \\    /   O peration     | Website:  https://openfoam.org
    \\  /    A nd           | Version:  6
     \\/     M anipulation  |
\*---------------------------------------------------------------------------*/
FoamFile
{
    version     2.0;
    format      ascii;
    class       volVectorField;
    location    "0.0048";
    object      U;
}
// * * * * * * * * * * * * * * * * * * * * * * * * * * * * * * * * * * * * * //

dimensions      [0 1 -1 0 0 0 0];

internalField   nonuniform List<vector> 
3600
(
(0 2.624224664e-10 -2.334921972e-13)
(0 2.634412299e-10 -6.828576091e-13)
(0 2.648532606e-10 -1.075447163e-12)
(0 2.663529913e-10 -1.368565441e-12)
(0 2.676101376e-10 -1.517283122e-12)
(0 2.681667137e-10 -1.473995373e-12)
(0 2.674416997e-10 -1.188764381e-12)
(0 2.647333513e-10 -6.127121417e-13)
(0 2.592305254e-10 2.961669085e-13)
(0 2.500401491e-10 1.561938267e-12)
(0 2.362425285e-10 3.175893149e-12)
(0 2.16985837e-10 5.077412806e-12)
(0 1.916216597e-10 7.138469543e-12)
(0 1.598608293e-10 9.163350347e-12)
(8.889857479e-53 1.218958048e-10 1.092719385e-11)
(5.918655287e-53 7.841053555e-11 1.226645681e-11)
(0 3.042217312e-11 1.319068914e-11)
(0 -2.09570359e-11 1.38791089e-11)
(0 -7.448611675e-11 1.435986622e-11)
(0 -1.280214731e-10 1.389819223e-11)
(0 -1.773081907e-10 1.099372176e-11)
(0 -2.16308873e-10 5.032143248e-12)
(0 -2.394003204e-10 -3.220511648e-12)
(0 -2.425989409e-10 -1.313264301e-11)
(0 -2.231808473e-10 -2.448761592e-11)
(0 -1.800079562e-10 -3.629831957e-11)
(0 -1.165363384e-10 -4.478782568e-11)
(0 -4.506202585e-11 -4.423456263e-11)
(0 1.58644558e-11 -2.988175035e-11)
(0 1.179204762e-12 1.168789733e-24)
(0 2.316669972e-12 4.228817567e-14)
(0 2.198527166e-12 7.709846814e-14)
(0 2.022702024e-12 1.001157116e-13)
(0 1.813015936e-12 1.108724474e-13)
(0 1.591711757e-12 1.115444857e-13)
(0 1.375775812e-12 1.052979885e-13)
(0 1.17605595e-12 9.514613978e-14)
(0 9.980887758e-13 8.340257126e-14)
(0 8.435562357e-13 7.160645275e-14)
(0 7.117133998e-13 6.06375597e-14)
(0 6.005058245e-13 5.091479538e-14)
(0 5.073340447e-13 4.255682771e-14)
(0 4.295193754e-13 3.55188827e-14)
(0 3.64557048e-13 2.9670156e-14)
(0 3.102297119e-13 2.485296702e-14)
(0 2.646399506e-13 2.090540523e-14)
(0 2.261980825e-13 1.768143752e-14)
(0 1.935906586e-13 1.505166952e-14)
(0 1.657415503e-13 1.290892137e-14)
(0 1.417729505e-13 1.116310603e-14)
(0 1.209673091e-13 9.742375891e-15)
(0 1.027338428e-13 8.587679275e-15)
(0 8.658258772e-14 7.652619336e-15)
(0 7.21091937e-14 6.899548124e-15)
(0 5.898310793e-14 6.299357223e-15)
(0 4.692675419e-14 5.828980513e-15)
(0 3.570430839e-14 5.473598375e-15)
(0 2.508392257e-14 5.211175711e-15)
(0 1.489957923e-14 5.058106724e-15)
(0 4.953159202e-15 4.962982941e-15)
(0 2.610965298e-10 -7.210319955e-13)
(0 2.622304459e-10 -2.110512713e-12)
(0 2.638528228e-10 -3.332068448e-12)
(0 2.656659809e-10 -4.259267189e-12)
(0 2.67345699e-10 -4.758974876e-12)
(0 2.684397528e-10 -4.688903016e-12)
(0 2.683693098e-10 -3.8995736e-12)
(0 2.664262024e-10 -2.242454085e-12)
(0 2.617769869e-10 4.123046683e-13)
(0 2.534816921e-10 4.145361635e-12)
(0 2.405409798e-10 8.942353901e-12)
(0 2.219892343e-10 1.463481589e-11)
(0 1.970474697e-10 2.084222415e-11)
(0 1.653313284e-10 2.695629985e-11)
(0 1.270627087e-10 3.224176967e-11)
(0 8.315267065e-11 3.613027317e-11)
(0 3.495231241e-11 3.864881779e-11)
(0 -1.640670351e-11 4.056160617e-11)
(0 -7.056902656e-11 4.239273687e-11)
(0 -1.268887558e-10 4.200211071e-11)
(0 -1.811368534e-10 3.395826682e-11)
(0 -2.254601931e-10 1.615545583e-11)
(0 -2.534626314e-10 -8.203672638e-12)
(0 -2.620746288e-10 -3.705366692e-11)
(0 -2.486551778e-10 -7.05326731e-11)
(0 -2.091206644e-10 -1.069845412e-10)
(0 -1.426684299e-10 -1.347145841e-10)
(0 -6.065492515e-11 -1.349403489e-10)
(0 1.389725147e-11 -9.187038347e-11)
(0 1.221492938e-12 1.226440683e-24)
(0 2.39376844e-12 1.343601009e-13)
(0 2.256354702e-12 2.431204067e-13)
(0 2.056476003e-12 3.126316909e-13)
(0 1.82444471e-12 3.427327504e-13)
(0 1.586137298e-12 3.415730717e-13)
(0 1.359377466e-12 3.198231539e-13)
(0 1.154160533e-12 2.870437827e-13)
(0 9.745490888e-13 2.502749544e-13)
(0 8.207912242e-13 2.139988214e-13)
(0 6.910217426e-13 1.806752765e-13)
(0 5.824250925e-13 1.5138331e-13)
(0 4.91938132e-13 1.26356975e-13)
(0 4.166327038e-13 1.053705853e-13)
(0 3.538911323e-13 8.798454533e-14)
(0 3.014649612e-13 7.369218164e-14)
(0 2.574684212e-13 6.199733942e-14)
(0 2.203443468e-13 5.245256694e-14)
(0 1.888181424e-13 4.467178463e-14)
(0 1.618529868e-13 3.833203596e-14)
(0 1.38606405e-13 3.316761973e-14)
(0 1.183918824e-13 2.896341746e-14)
(0 1.006440862e-13 2.554615399e-14)
(0 8.489445657e-14 2.2777579e-14)
(0 7.075593159e-14 2.054756986e-14)
(0 5.791254033e-14 1.876983835e-14)
(0 4.610099534e-14 1.737738512e-14)
(0 3.508650359e-14 1.63201645e-14)
(0 2.466843092e-14 1.555764644e-14)
(0 1.465138646e-14 1.506419538e-14)
(0 4.858035419e-15 1.482370044e-14)
(0 2.587729629e-10 -1.275258615e-12)
(0 2.60093161e-10 -3.740499266e-12)
(0 2.620481766e-10 -5.934634565e-12)
(0 2.643531943e-10 -7.653381707e-12)
(0 2.666938408e-10 -8.680225764e-12)
(0 2.686280378e-10 -8.781883317e-12)
(0 2.695832857e-10 -7.710670234e-12)
(0 2.688473958e-10 -5.21525179e-12)
(0 2.655627351e-10 -1.0661871e-12)
(0 2.587311375e-10 4.898983502e-12)
(0 2.472439465e-10 1.270174773e-11)
(0 2.299608702e-10 2.211560223e-11)
(0 2.058722958e-10 3.253527226e-11)
(0 1.743797297e-10 4.288341202e-11)
(1.001492413e-52 1.356830456e-10 5.170593018e-11)
(6.889088253e-53 9.109661042e-11 5.76962375e-11)
(0 4.281147487e-11 6.076342323e-11)
(0 -7.515874805e-12 6.29829055e-11)
(0 -6.101177068e-11 6.725164495e-11)
(0 -1.206847582e-10 7.069995117e-11)
(0 -1.826776373e-10 5.98829199e-11)
(0 -2.347859894e-10 3.002833533e-11)
(0 -2.693205671e-10 -9.055209548e-12)
(0 -2.865612667e-10 -5.312625721e-11)
(0 -2.85831008e-10 -1.055298127e-10)
(0 -2.579055282e-10 -1.696249583e-10)
(0 -1.92714778e-10 -2.245169496e-10)
(0 -9.799594014e-11 -2.324042925e-10)
(0 -1.8584381e-12 -1.61653521e-10)
(0 1.313564863e-12 1.339109744e-24)
(0 2.559790378e-12 2.520571442e-13)
(0 2.376798756e-12 4.484146283e-13)
(0 2.122314368e-12 5.64579353e-13)
(0 1.841957316e-12 6.058770912e-13)
(0 1.568802161e-12 5.922156899e-13)
(0 1.321246523e-12 5.453994018e-13)
(0 1.106507751e-12 4.829470428e-13)
(0 9.250438145e-13 4.166649546e-13)
(0 7.739565581e-13 3.534436836e-13)
(0 6.490978887e-13 2.966835901e-13)
(0 5.46187523e-13 2.475869053e-13)
(0 4.613213201e-13 2.061179634e-13)
(0 3.911469459e-13 1.716229574e-13)
(0 3.328786444e-13 1.43206858e-13)
(0 2.842425061e-13 1.199355726e-13)
(0 2.43400336e-13 1.009411012e-13)
(0 2.088725278e-13 8.546134478e-14)
(0 1.794701276e-13 7.285253303e-14)
(0 1.542373854e-13 6.258131488e-14)
(0 1.324043319e-13 5.421375346e-14)
(0 1.133458434e-13 4.739927452e-14)
(0 9.654800434e-14 4.185752707e-14)
(0 8.158400359e-14 3.736479455e-14)
(0 6.810145306e-14 3.374407034e-14)
(0 5.581292321e-14 3.085620716e-14)
(0 4.447708034e-14 2.859319701e-14)
(0 3.388456972e-14 2.687342017e-14)
(0 2.382795346e-14 2.563094944e-14)
(0 1.416563323e-14 2.483319629e-14)
(0 4.712664263e-15 2.44343381e-14)
(0 2.552473393e-10 -1.932218591e-12)
(0 2.568135406e-10 -5.682962259e-12)
(0 2.592043068e-10 -9.072185787e-12)
(0 2.62151828e-10 -1.182660772e-11)
(0 2.653547897e-10 -1.365451356e-11)
(0 2.683854516e-10 -1.42392574e-11)
(0 2.706829883e-10 -1.324011323e-11)
(0 2.715384616e-10 -1.030313325e-11)
(0 2.700795091e-10 -5.08727895e-12)
(0 2.652583735e-10 2.685361413e-12)
(0 2.558522759e-10 1.31391579e-11)
(0 2.40499723e-10 2.608951007e-11)
(0 2.178299236e-10 4.080377952e-11)
(0 1.867961093e-10 5.571816124e-11)
(-1.130350266e-52 1.473368199e-10 6.83306697e-11)
(-7.570092939e-53 1.012809543e-10 7.58169269e-11)
(0 5.264710619e-11 7.716555427e-11)
(0 5.349072945e-12 7.658897481e-11)
(0 -4.348748894e-11 8.403905273e-11)
(0 -1.05731674e-10 9.953759625e-11)
(0 -1.790535177e-10 9.034047647e-11)
(0 -2.403784977e-10 4.559925958e-11)
(0 -2.794934334e-10 -6.221631429e-12)
(0 -3.058018348e-10 -5.725678288e-11)
(0 -3.25887072e-10 -1.18968745e-10)
(0 -3.22335842e-10 -2.148160346e-10)
(0 -2.661799752e-10 -3.116468892e-10)
(0 -1.567381948e-10 -3.401502507e-10)
(0 -2.861245301e-11 -2.45461509e-10)
(0 1.473550082e-12 1.509917365e-24)
(0 2.842183069e-12 4.254643662e-13)
(0 2.568876913e-12 7.339019472e-13)
(0 2.213938467e-12 8.913854784e-13)
(0 1.852081046e-12 9.239657582e-13)
(0 1.525659609e-12 8.76005045e-13)
(0 1.250108819e-12 7.866038411e-13)
(0 1.025426086e-12 6.826748042e-13)
(0 8.45045729e-13 5.799841487e-13)
(0 7.008098596e-13 4.864168497e-13)
(0 5.851649642e-13 4.050145603e-13)
(0 4.918594654e-13 3.361506464e-13)
(0 4.15974184e-13 2.78892607e-13)
(0 3.537215983e-13 2.317871495e-13)
(0 3.022037473e-13 1.932755682e-13)
(0 2.591992044e-13 1.618958875e-13)
(0 2.229941934e-13 1.363640162e-13)
(0 1.922557786e-13 1.155946828e-13)
(0 1.659381125e-13 9.869104529e-14)
(0 1.432142072e-13 8.49233694e-14)
(0 1.234243645e-13 7.370319782e-14)
(0 1.06035656e-13 6.455953507e-14)
(0 9.060960626e-14 5.711683646e-14)
(0 7.67809998e-14 5.107711321e-14)
(0 6.424734418e-14 4.620483337e-14)
(0 5.2761667e-14 4.23153e-14)
(0 4.211820834e-14 3.92650205e-14)
(0 3.212425602e-14 3.694376037e-14)
(0 2.262820705e-14 3.52714022e-14)
(0 1.345477512e-14 3.418259112e-14)
(0 4.459177225e-15 3.365175984e-14)
(0 2.502543992e-10 -2.722925178e-12)
(0 2.521108821e-10 -8.031970145e-12)
(0 2.550129159e-10 -1.290549718e-11)
(0 2.587125281e-10 -1.70124783e-11)
(0 2.629226171e-10 -1.999758364e-11)
(0 2.6723134e-10 -2.147229932e-11)
(0 2.71092852e-10 -2.101412253e-11)
(0 2.738102145e-10 -1.817447261e-11)
(0 2.745163933e-10 -1.249887582e-11)
(0 2.721500118e-10 -3.566726256e-12)
(0 2.65419271e-10 8.9268378e-12)
(0 2.527570333e-10 2.499761348e-11)
(0 2.323230821e-10 4.402248037e-11)
(0 2.022517309e-10 6.413962653e-11)
(0 1.615616969e-10 8.153087286e-11)
(0 1.121780898e-10 9.044943811e-11)
(0 6.127680146e-11 8.633571498e-11)
(0 1.959654382e-11 7.464423531e-11)
(0 -1.549446864e-11 8.25180198e-11)
(0 -7.694293991e-11 1.276402451e-10)
(0 -1.671424854e-10 1.279585583e-10)
(0 -2.371806852e-10 5.699609595e-11)
(0 -2.720117342e-10 -5.514144014e-12)
(0 -3.013955694e-10 -4.856342417e-11)
(0 -3.506143079e-10 -9.547313781e-11)
(0 -3.910975135e-10 -2.278181448e-10)
(0 -3.587524149e-10 -3.914134102e-10)
(0 -2.357941017e-10 -4.603154774e-10)
(0 -6.564451943e-11 -3.5097002e-10)
(0 1.739029228e-12 1.770857636e-24)
(0 3.293692325e-12 7.159091683e-13)
(0 2.84271987e-12 1.170334705e-12)
(0 2.312378179e-12 1.343064465e-12)
(0 1.826576882e-12 1.322558413e-12)
(0 1.431440243e-12 1.201200709e-12)
(0 1.127916282e-12 1.042310933e-12)
(0 8.998880589e-13 8.81143007e-13)
(0 7.287858595e-13 7.341616639e-13)
(0 5.989869698e-13 6.072055961e-13)
(0 4.988316856e-13 5.0078861e-13)
(0 4.200655693e-13 4.130900558e-13)
(0 3.569578231e-13 3.414987583e-13)
(0 3.055299072e-13 2.833431573e-13)
(0 2.629873821e-13 2.362008767e-13)
(0 2.273309541e-13 1.979982997e-13)
(0 1.970991314e-13 1.670163119e-13)
(0 1.711995567e-13 1.418550265e-13)
(0 1.487988143e-13 1.213875188e-13)
(0 1.29249538e-13 1.047122128e-13)
(0 1.120404975e-13 9.111121213e-14)
(0 9.675948207e-14 8.001409859e-14)
(0 8.306558249e-14 7.09688405e-14)
(0 7.067200047e-14 6.361780468e-14)
(0 5.933963985e-14 5.767915011e-14)
(0 4.887311034e-14 5.293189987e-14)
(0 3.910554069e-14 4.920417853e-14)
(0 2.989095142e-14 4.636485282e-14)
(0 2.106678422e-14 4.431324086e-14)
(0 1.254599087e-14 4.298724626e-14)
(0 4.181832979e-15 4.232916082e-14)
(0 2.434847978e-10 -3.670697949e-12)
(0 2.456568653e-10 -1.085808842e-11)
(0 2.491117161e-10 -1.755410164e-11)
(0 2.536219237e-10 -2.338291639e-11)
(0 2.589122686e-10 -2.793887721e-11)
(0 2.645826725e-10 -3.077606486e-11)
(0 2.700976561e-10 -3.140673506e-11)
(0 2.747728515e-10 -2.930737509e-11)
(0 2.777649103e-10 -2.393045335e-11)
(0 2.780551455e-10 -1.472113582e-11)
(0 2.743967834e-10 -1.152121295e-12)
(0 2.65174915e-10 1.716563174e-11)
(0 2.481558874e-10 4.013661143e-11)
(0 2.203013969e-10 6.627564572e-11)
(0 1.784204447e-10 9.087367485e-11)
(0 1.225006706e-10 1.036960549e-10)
(0 6.302599876e-11 9.053694329e-11)
(0 2.765024374e-11 4.908722248e-11)
(0 2.385309438e-11 4.09785057e-11)
(0 -2.957021041e-11 1.520593541e-10)
(0 -1.442767289e-10 1.761222164e-10)
(0 -2.186858348e-10 5.010347535e-11)
(0 -2.313161521e-10 -1.934542387e-11)
(0 -2.475511054e-10 -3.432461123e-11)
(0 -3.286645761e-10 -1.610716385e-11)
(0 -4.365123663e-10 -1.888609978e-10)
(0 -4.551150222e-10 -4.562792863e-10)
(0 -3.280953579e-10 -5.874103373e-10)
(0 -1.128361846e-10 -4.859564142e-10)
(0 2.189459246e-12 2.208254812e-24)
(0 4.01251777e-12 1.268041069e-12)
(0 3.196032209e-12 1.888617282e-12)
(0 2.366162174e-12 1.988026942e-12)
(0 1.71021729e-12 1.821982157e-12)
(0 1.245412129e-12 1.563886765e-12)
(0 9.30051118e-13 1.300254265e-12)
(0 7.172768182e-13 1.065390498e-12)
(0 5.711083181e-13 8.682846136e-13)
(0 4.674368065e-13 7.07429971e-13)
(0 3.910494247e-13 5.778204435e-13)
(0 3.325696136e-13 4.739010605e-13)
(0 2.862272859e-13 3.906499769e-13)
(0 2.484237171e-13 3.238696618e-13)
(0 2.168588897e-13 2.701724176e-13)
(0 1.900146398e-13 2.2686863e-13)
(0 1.668509204e-13 1.918379414e-13)
(0 1.466269854e-13 1.634133289e-13)
(0 1.287952989e-13 1.402843674e-13)
(0 1.129379007e-13 1.214203205e-13)
(0 9.872625032e-14 1.06009342e-13)
(0 8.589328444e-14 9.341141173e-14)
(0 7.421331242e-14 8.312155159e-14)
(0 6.349130941e-14 7.474153595e-14)
(0 5.356143941e-14 6.795791714e-14)
(0 4.428669545e-14 6.252508899e-14)
(0 3.555116128e-14 5.825206088e-14)
(0 2.723331836e-14 5.4991825e-14)
(0 1.925060051e-14 5.263733849e-14)
(0 1.147069507e-14 5.110384375e-14)
(0 3.80109178e-15 5.035313207e-14)
(0 2.346021672e-10 -4.790030324e-12)
(0 2.37094113e-10 -1.420458044e-11)
(0 2.411058095e-10 -2.308981288e-11)
(0 2.464290923e-10 -3.103798569e-11)
(0 2.527946825e-10 -3.76059408e-11)
(0 2.598026065e-10 -4.230349107e-11)
(0 2.669086881e-10 -4.459411723e-11)
(0 2.734175013e-10 -4.390588618e-11)
(0 2.784952309e-10 -3.964544435e-11)
(0 2.811984531e-10 -3.119858407e-11)
(0 2.80476623e-10 -1.789593186e-11)
(0 2.750287085e-10 1.052300588e-12)
(0 2.627870132e-10 2.651254309e-11)
(0 2.398249848e-10 5.870941982e-11)
(0 1.992571496e-10 9.440273246e-11)
(0 1.339755049e-10 1.19781493e-10)
(0 5.125073677e-11 1.022843101e-10)
(0 1.429368416e-11 -1.258181337e-12)
(0 6.653003016e-11 -7.629267017e-11)
(0 2.549542815e-11 1.823786365e-10)
(0 -1.006740501e-10 2.608381706e-10)
(0 -1.628457663e-10 -6.603335002e-12)
(0 -1.423663129e-10 -6.458369598e-11)
(0 -1.307734764e-10 -4.350670927e-11)
(0 -2.195225434e-10 1.584211774e-10)
(0 -3.81687091e-10 -6.668321322e-11)
(0 -5.108739312e-10 -4.91956622e-10)
(0 -4.069871307e-10 -6.871900028e-10)
(0 -1.734509034e-10 -6.516816512e-10)
(0 3.007070296e-12 3.015208039e-24)
(0 5.182309609e-12 2.467886653e-12)
(0 3.562705746e-12 3.128359103e-12)
(0 2.245743054e-12 2.898604465e-12)
(0 1.402436704e-12 2.413496068e-12)
(0 9.097123491e-13 1.932087524e-12)
(0 6.294200152e-13 1.529388853e-12)
(0 4.679184074e-13 1.211840102e-12)
(0 3.708253309e-13 9.661217674e-13)
(0 3.085227995e-13 7.763788519e-13)
(0 2.653027751e-13 6.291354549e-13)
(0 2.328951019e-13 5.140197108e-13)
(0 2.069264243e-13 4.233094506e-13)
(0 1.850523479e-13 3.512947571e-13)
(0 1.6598635e-13 2.937350536e-13)
(0 1.489964778e-13 2.474526616e-13)
(0 1.336438302e-13 2.100424599e-13)
(0 1.196459826e-13 1.796664228e-13)
(0 1.068058059e-13 1.549080815e-13)
(0 9.49745126e-14 1.346679648e-13)
(0 8.403158862e-14 1.180877963e-13)
(0 7.387169162e-14 1.044945412e-13)
(0 6.439570672e-14 9.335885678e-14)
(0 5.550836596e-14 8.426383745e-14)
(0 4.712319288e-14 7.688146141e-14)
(0 3.916725409e-14 7.095446318e-14)
(0 3.157227667e-14 6.628235017e-14)
(0 2.427622902e-14 6.27116647e-14)
(0 1.717880296e-14 6.012539987e-14)
(0 1.026178444e-14 5.844871077e-14)
(0 3.4311213e-15 5.761753986e-14)
(0 2.232631007e-10 -6.086062311e-12)
(0 2.260573627e-10 -1.808586264e-11)
(0 2.305912663e-10 -2.953400516e-11)
(0 2.366744245e-10 -4.000267536e-11)
(0 2.440369465e-10 -4.902096297e-11)
(0 2.522627256e-10 -5.606011923e-11)
(0 2.607644561e-10 -6.053856461e-11)
(0 2.687738482e-10 -6.184872264e-11)
(0 2.753756388e-10 -5.94002542e-11)
(0 2.796108647e-10 -5.265321219e-11)
(0 2.80648967e-10 -4.107268961e-11)
(0 2.779190565e-10 -2.387376902e-11)
(0 2.707691243e-10 5.786960905e-13)
(0 2.565802775e-10 3.542867375e-11)
(0 2.257405501e-10 8.389211111e-11)
(0 1.568583552e-10 1.378055364e-10)
(0 2.737648158e-11 1.473982014e-10)
(0 -2.349733919e-11 -5.119167142e-11)
(0 9.861661706e-11 -3.553231606e-10)
(0 1.616655853e-24 1.44969933e-11)
(0 -3.368825695e-24 9.856881804e-12)
(0 -1.670456646e-24 -4.289457775e-12)
(0 -5.998464679e-25 -2.731153132e-12)
(0 5.397905188e-25 -3.677980115e-12)
(0 2.263621664e-24 1.102872886e-11)
(0 -3.518102668e-24 1.589582012e-11)
(0 -4.398680223e-10 -4.882082521e-10)
(0 -3.924068209e-10 -6.685114084e-10)
(0 -2.772176455e-10 -8.211947999e-10)
(0 4.657345893e-12 4.166767258e-24)
(0 7.140876869e-12 5.474352936e-12)
(0 3.626750024e-12 5.258047502e-12)
(0 1.651299143e-12 4.064471667e-12)
(0 7.437003496e-13 3.001272708e-12)
(0 3.613049112e-13 2.221529725e-12)
(0 2.098036969e-13 1.673319511e-12)
(0 1.540097327e-13 1.286409403e-12)
(0 1.356470662e-13 1.007940381e-12)
(0 1.304504939e-13 8.027916703e-13)
(0 1.286902837e-13 6.482911726e-13)
(0 1.267436086e-13 5.297054304e-13)
(0 1.235023322e-13 4.37249391e-13)
(0 1.188493202e-13 3.642443044e-13)
(0 1.130167938e-13 3.060027721e-13)
(0 1.063220461e-13 2.591496473e-13)
(0 9.906468158e-14 2.21200144e-13)
(0 9.14926068e-14 1.902910199e-13)
(0 8.379684098e-14 1.650041293e-13)
(0 7.611761556e-14 1.442473435e-13)
(0 6.855282659e-14 1.271718381e-13)
(0 6.116434493e-14 1.131133045e-13)
(0 5.398260867e-14 1.015492905e-13)
(0 4.701391398e-14 9.206792916e-14)
(0 4.025206513e-14 8.434457289e-14)
(0 3.368758422e-14 7.812404735e-14)
(0 2.730836277e-14 7.320713782e-14)
(0 2.107636806e-14 6.943996965e-14)
(0 1.498764658e-14 6.670987307e-14)
(0 8.962835055e-15 6.492873217e-14)
(0 2.96992087e-15 6.405408349e-14)
(0 2.091400368e-10 -7.554935215e-12)
(0 2.12196673e-10 -2.248793825e-11)
(0 2.171784508e-10 -3.685825518e-11)
(0 2.239145662e-10 -5.022994421e-11)
(0 2.32134745e-10 -6.211143738e-11)
(0 2.413978391e-10 -7.192939029e-11)
(0 2.510389162e-10 -7.903309291e-11)
(0 2.601279059e-10 -8.274159815e-11)
(0 2.674805213e-10 -8.24440712e-11)
(0 2.717909826e-10 -7.774799583e-11)
(0 2.720031052e-10 -6.86100163e-11)
(0 2.680502428e-10 -5.521423998e-11)
(0 2.618080562e-10 -3.698248635e-11)
(0 2.567289153e-10 -9.642057309e-12)
(0 2.497648503e-10 4.011832094e-11)
(0 2.081900488e-10 1.309430879e-10)
(0 4.297964863e-12 2.631481366e-10)
(0 3.087047394e-24 -4.213845945e-12)
(0 -1.037839384e-11 -8.672419469e-12)
(0 -1.026772936e-11 1.850501793e-11)
(0 6.088936224e-12 1.384661649e-11)
(0 7.53657639e-12 -4.158267492e-12)
(0 6.114776588e-13 -2.95628744e-12)
(0 -6.364729333e-12 -2.883975774e-12)
(0 -5.301587064e-12 1.652315593e-11)
(0 9.095882305e-12 2.292807153e-11)
(0 8.979567017e-12 -1.480182803e-12)
(0 -3.202276998e-24 9.834756208e-12)
(0 -5.551057179e-10 -8.402535945e-10)
(0 8.481423204e-12 -2.272521122e-11)
(0 1.044035708e-11 1.417106982e-11)
(0 2.152824477e-12 8.364660338e-12)
(0 -1.103173219e-14 5.099764472e-12)
(0 -4.405052302e-13 3.305473847e-12)
(0 -4.182408478e-13 2.279349405e-12)
(0 -3.057003047e-13 1.655875307e-12)
(0 -1.974607199e-13 1.252474722e-12)
(0 -1.127924013e-13 9.763864937e-13)
(0 -5.112640736e-14 7.785126777e-13)
(0 -7.783463605e-15 6.314952914e-13)
(0 2.185332032e-14 5.192298126e-13)
(0 4.146529886e-14 4.317112048e-13)
(0 5.380572961e-14 3.624069747e-13)
(0 6.089169283e-14 3.068622602e-13)
(0 6.419384996e-14 2.619261697e-13)
(0 6.478520312e-14 2.253031618e-13)
(0 6.344996782e-14 1.952811248e-13)
(0 6.076212968e-14 1.705594722e-13)
(0 5.714222156e-14 1.501361382e-13)
(0 5.289754964e-14 1.332306245e-13)
(0 4.824914412e-14 1.192299855e-13)
(0 4.335033147e-14 1.07650143e-13)
(0 3.830364832e-14 9.810772108e-14)
(0 3.317931112e-14 9.029914857e-14)
(0 2.802981906e-14 8.398470962e-14)
(0 2.288819897e-14 7.897619558e-14)
(0 1.777896429e-14 7.512852788e-14)
(0 1.266756549e-14 7.233066686e-14)
(0 7.605994864e-15 7.051054796e-14)
(0 2.556472626e-15 6.960770709e-14)
(0 1.919480592e-10 -9.185181503e-12)
(0 1.952033733e-10 -2.737020662e-11)
(0 2.00513656e-10 -4.498494597e-11)
(0 2.077369633e-10 -6.160336881e-11)
(0 2.166199419e-10 -7.672524554e-11)
(0 2.267153352e-10 -8.972054439e-11)
(0 2.372846089e-10 -9.981544669e-11)
(0 2.471858572e-10 -1.061402186e-10)
(0 2.547715478e-10 -1.078724413e-10)
(0 2.578652164e-10 -1.045275e-10)
(0 2.540188422e-10 -9.645267709e-11)
(0 2.415781904e-10 -8.548634979e-11)
(0 2.226226386e-10 -7.525749227e-11)
(0 2.092055035e-10 -6.914338747e-11)
(0 2.258714116e-10 -6.019633199e-11)
(0 3.03882875e-10 -2.418321695e-11)
(0 1.115998926e-11 1.113528854e-11)
(0 1.620296717e-11 -2.31129642e-12)
(0 2.594252349e-12 -9.853471773e-12)
(0 -2.356351033e-12 5.474959788e-12)
(0 2.212101859e-12 5.952366198e-12)
(0 3.321707374e-12 1.180523031e-12)
(0 1.27429172e-12 6.800230431e-13)
(0 -6.451679379e-13 2.378179461e-12)
(0 9.366600393e-13 8.61720536e-12)
(0 6.872048295e-12 1.049955606e-11)
(0 7.031296249e-12 4.432167091e-13)
(0 8.424600317e-12 1.487204069e-11)
(0 -1.611399863e-11 1.406729109e-12)
(0 -2.617158294e-11 -6.472928491e-11)
(0 -6.769250141e-12 2.056890044e-11)
(0 -5.444555377e-12 8.929598515e-12)
(0 -3.40788736e-12 4.664256636e-12)
(0 -2.076714716e-12 2.841348858e-12)
(0 -1.288293635e-12 1.934395863e-12)
(0 -8.170709868e-13 1.418261082e-12)
(0 -5.254790796e-13 1.091150229e-12)
(0 -3.383149802e-13 8.665552021e-13)
(0 -2.144407085e-13 7.03325393e-13)
(0 -1.305925812e-13 5.799041165e-13)
(0 -7.304047869e-14 4.839705902e-13)
(0 -3.332050577e-14 4.079273516e-13)
(0 -5.999624318e-15 3.467835288e-13)
(0 1.25359885e-14 2.970905827e-13)
(0 2.47629477e-14 2.563705618e-13)
(0 3.241963674e-14 2.227890674e-13)
(0 3.6748917e-14 1.949570911e-13)
(0 3.86518544e-14 1.718046939e-13)
(0 3.878876783e-14 1.524968816e-13)
(0 3.764667374e-14 1.363754358e-13)
(0 3.558386342e-14 1.229175424e-13)
(0 3.286034425e-14 1.117058684e-13)
(0 2.966291949e-14 1.024066407e-13)
(0 2.612905367e-14 9.475323914e-14)
(0 2.236463124e-14 8.853341311e-14)
(0 1.8452181e-14 8.357932654e-14)
(0 1.443083933e-14 7.97597806e-14)
(0 1.036966667e-14 7.697790805e-14)
(0 6.239875277e-15 7.51573435e-14)
(0 2.067079996e-15 7.426053702e-14)
(0 1.714795101e-10 -1.096193537e-11)
(0 1.748435181e-10 -3.266945293e-11)
(0 1.803029391e-10 -5.37837637e-11)
(0 1.877646417e-10 -7.392710057e-11)
(0 1.970340573e-10 -9.262513441e-11)
(0 2.077220489e-10 -1.091952653e-10)
(0 2.19104793e-10 -1.226884802e-10)
(0 2.299322532e-10 -1.318927306e-10)
(0 2.381543703e-10 -1.354285213e-10)
(0 2.405212892e-10 -1.320140923e-10)
(0 2.320449845e-10 -1.210660079e-10)
(0 2.055669732e-10 -1.039460555e-10)
(0 1.526335566e-10 -8.61110818e-11)
(0 7.116568565e-11 -7.88914646e-11)
(1.908146279e-52 -1.790613516e-11 -7.905193884e-11)
(3.892490471e-52 -4.238546786e-12 3.566420164e-24)
(0 -2.311296268e-12 1.610456174e-11)
(0 3.886626612e-12 3.772665308e-12)
(0 2.158637986e-12 -6.022217041e-13)
(0 7.873327739e-13 2.545044437e-12)
(0 1.794499451e-12 3.307030397e-12)
(0 2.264233219e-12 2.247489515e-12)
(0 1.809134091e-12 2.117130365e-12)
(0 1.572453005e-12 3.098943378e-12)
(0 2.819789563e-12 5.067717427e-12)
(0 5.67266951e-12 5.258614047e-12)
(0 8.601276077e-12 2.593532125e-12)
(0 1.633734804e-11 3.591301715e-12)
(0 3.527405832e-11 -9.64099679e-12)
(0 -4.176210386e-12 -3.210488617e-11)
(0 -3.772056132e-11 2.083599904e-12)
(0 -1.375181938e-11 2.120139936e-12)
(0 -6.099281402e-12 1.785954901e-12)
(0 -3.170366002e-12 1.461012162e-12)
(0 -1.84132863e-12 1.198445462e-12)
(0 -1.14894594e-12 9.91494046e-13)
(0 -7.491665993e-13 8.272125732e-13)
(0 -5.006172387e-13 6.952824819e-13)
(0 -3.377774933e-13 5.882682795e-13)
(0 -2.271382664e-13 5.007747686e-13)
(0 -1.501234453e-13 4.2877892e-13)
(0 -9.572176264e-14 3.692085379e-13)
(0 -5.703103922e-14 3.196792118e-13)
(0 -2.952127446e-14 2.783207246e-13)
(0 -1.010766543e-14 2.436551925e-13)
(0 3.371732372e-15 2.145075669e-13)
(0 1.246559416e-14 1.899383664e-13)
(0 1.830192016e-14 1.69192522e-13)
(0 2.171296342e-14 1.51660245e-13)
(0 2.331821039e-14 1.368469012e-13)
(0 2.357957672e-14 1.243498469e-13)
(0 2.283942974e-14 1.138407435e-13)
(0 2.135101901e-14 1.0505217e-13)
(0 1.930608353e-14 9.776716232e-14)
(0 1.685590646e-14 9.181053189e-14)
(0 1.411456643e-14 8.704170583e-14)
(0 1.117754579e-14 8.335030132e-14)
(0 8.0651284e-15 8.065043388e-14)
(0 4.888623831e-15 7.888601719e-14)
(0 1.659666147e-15 7.800919314e-14)
(0 1.476549326e-10 -1.288047842e-11)
(0 1.510089251e-10 -3.831183408e-11)
(0 1.563491168e-10 -6.30627424e-11)
(0 1.636668623e-10 -8.689149328e-11)
(0 1.728895092e-10 -1.094308918e-10)
(0 1.83785768e-10 -1.299966087e-10)
(0 1.958169127e-10 -1.474777087e-10)
(0 2.079346266e-10 -1.602690876e-10)
(0 2.182593542e-10 -1.662336927e-10)
(0 2.235023744e-10 -1.627014442e-10)
(0 2.178060875e-10 -1.465341596e-10)
(0 1.902905896e-10 -1.144000503e-10)
(0 1.195689385e-10 -6.380243569e-11)
(0 -2.757497701e-11 1.745925508e-12)
(0 -3.333118887e-10 7.942605594e-11)
(0 -8.770825274e-12 -1.055703028e-11)
(0 -9.94273217e-12 2.339498505e-12)
(0 -5.038159798e-13 1.899967531e-12)
(0 1.366631485e-12 1.127029218e-12)
(0 1.552901059e-12 2.000365422e-12)
(0 1.914546939e-12 2.483015842e-12)
(0 2.131807346e-12 2.384912681e-12)
(0 2.125745581e-12 2.44150458e-12)
(0 2.305419116e-12 2.83246282e-12)
(0 3.096330702e-12 3.296041112e-12)
(0 4.397862999e-12 2.874377026e-12)
(0 5.36398392e-12 1.081707664e-12)
(0 4.619489553e-12 -1.889478808e-12)
(0 -6.810187769e-12 -1.166935296e-11)
(0 -9.696210796e-12 1.225717554e-11)
(0 -4.364029174e-12 -1.406873158e-11)
(0 -5.742200379e-12 -4.319045449e-12)
(0 -4.067015131e-12 -1.101992495e-12)
(0 -2.664224153e-12 1.800283638e-14)
(0 -1.757811752e-12 4.066697308e-13)
(0 -1.188303875e-12 5.219053121e-13)
(0 -8.216906424e-13 5.308098616e-13)
(0 -5.77259274e-13 4.990060114e-13)
(0 -4.089484212e-13 4.536206442e-13)
(0 -2.9008194e-13 4.060909512e-13)
(0 -2.046067094e-13 3.611146983e-13)
(0 -1.424202136e-13 3.204092709e-13)
(0 -9.688743723e-14 2.843709996e-13)
(0 -6.348803077e-14 2.528302366e-13)
(0 -3.905020976e-14 2.253987739e-13)
(0 -2.129718911e-14 2.016283022e-13)
(0 -8.56612797e-15 1.810801208e-13)
(0 3.737330798e-16 1.633532277e-13)
(0 6.443147169e-15 1.480930866e-13)
(0 1.033627569e-14 1.349917715e-13)
(0 1.257770581e-14 1.23784663e-13)
(0 1.356266738e-14 1.142463124e-13)
(0 1.358933833e-14 1.06186501e-13)
(0 1.28874156e-14 9.944632364e-14)
(0 1.163917479e-14 9.389412529e-14)
(0 9.991950426e-15 8.942186525e-14)
(0 8.039567395e-15 8.59423258e-14)
(0 5.905382562e-15 8.338987416e-14)
(0 3.598634534e-15 8.171157582e-14)
(0 1.190255941e-15 8.088146721e-14)
(0 1.206111373e-10 -1.499001454e-11)
(0 1.238007666e-10 -4.424909443e-11)
(0 1.286145807e-10 -7.256014226e-11)
(0 1.352029241e-10 -1.00017057e-10)
(0 1.436827754e-10 -1.265033028e-10)
(0 1.540619374e-10 -1.514353236e-10)
(0 1.661309478e-10 -1.736478492e-10)
(0 1.793467166e-10 -1.913053257e-10)
(0 1.926918337e-10 -2.018135688e-10)
(0 2.045459071e-10 -2.017329031e-10)
(0 2.126835072e-10 -1.866915723e-10)
(0 2.146855101e-10 -1.514032447e-10)
(0 2.072328267e-10 -9.095694719e-11)
(0 2.013425658e-10 -1.403683217e-11)
(0 1.431835699e-11 1.516984448e-24)
(0 1.822556311e-11 -1.070300907e-11)
(0 5.394925685e-12 -2.840322896e-12)
(0 2.674157352e-12 3.606625666e-13)
(0 2.259035885e-12 1.20998562e-12)
(0 2.143319399e-12 1.846252701e-12)
(0 2.179046711e-12 2.239532798e-12)
(0 2.222721958e-12 2.367317254e-12)
(0 2.256684231e-12 2.431064235e-12)
(0 2.426989536e-12 2.492941788e-12)
(0 2.861703767e-12 2.409822445e-12)
(0 3.45833606e-12 1.86162818e-12)
(0 3.837420245e-12 7.482259467e-13)
(0 3.586287441e-12 -5.614743884e-13)
(0 2.935713197e-12 -9.189666155e-13)
(0 5.119604562e-12 2.206805115e-12)
(0 3.883410776e-12 -8.116625194e-12)
(0 -7.850802629e-13 -4.226002991e-12)
(0 -1.762233107e-12 -1.893253875e-12)
(0 -1.661703778e-12 -6.939708295e-13)
(0 -1.337426151e-12 -1.118942168e-13)
(0 -1.024805808e-12 1.584832302e-13)
(0 -7.720658996e-13 2.749908103e-13)
(0 -5.77806456e-13 3.16214622e-13)
(0 -4.306925533e-13 3.21041193e-13)
(0 -3.196442122e-13 3.087921675e-13)
(0 -2.358051259e-13 2.891289617e-13)
(0 -1.724654613e-13 2.66900581e-13)
(0 -1.246100734e-13 2.445299208e-13)
(0 -8.849350032e-14 2.232009065e-13)
(0 -6.130959979e-14 2.034567558e-13)
(0 -4.094692073e-14 1.855062977e-13)
(0 -2.580948055e-14 1.693836362e-13)
(0 -1.468511399e-14 1.550330608e-13)
(0 -6.648492703e-15 1.423550721e-13)
(0 -9.902133038e-16 1.312317171e-13)
(0 2.834117575e-15 1.21540848e-13)
(0 5.241267778e-15 1.13164494e-13)
(0 6.551030225e-15 1.059938244e-13)
(0 7.013707779e-15 9.993158024e-14)
(0 6.83144808e-15 9.489258201e-14)
(0 6.16276691e-15 9.080345918e-14)
(0 5.145554696e-15 8.760336793e-14)
(0 3.834378425e-15 8.524303151e-14)
(0 2.380216876e-15 8.369088096e-14)
(0 8.295575399e-16 8.2917046e-14)
(0 9.089128536e-11 -1.752989444e-11)
(0 9.36557237e-11 -5.054549123e-11)
(0 9.730096333e-11 -8.194591866e-11)
(0 1.023104164e-10 -1.126017209e-10)
(0 1.090290509e-10 -1.428292774e-10)
(0 1.176961714e-10 -1.722426166e-10)
(0 1.284131551e-10 -1.997386345e-10)
(0 1.410912846e-10 -2.234535723e-10)
(0 1.553664135e-10 -2.407293939e-10)
(0 1.705498689e-10 -2.482162356e-10)
(0 1.85857897e-10 -2.423313647e-10)
(0 2.016380246e-10 -2.202929684e-10)
(0 2.201932307e-10 -1.812212908e-10)
(0 2.699070821e-10 -1.188207112e-10)
(0 9.421602367e-12 -2.746595326e-24)
(0 1.326423908e-11 5.286744355e-12)
(0 5.871715287e-12 1.392036463e-12)
(0 3.546492549e-12 1.17280569e-12)
(0 2.852221622e-12 1.505752918e-12)
(0 2.582448239e-12 1.93481477e-12)
(0 2.435611493e-12 2.261193761e-12)
(0 2.323338783e-12 2.413424485e-12)
(0 2.251370116e-12 2.42221371e-12)
(0 2.284177327e-12 2.2982929e-12)