/*--------------------------------*- C++ -*----------------------------------*\
  =========                 |
  \\      /  F ield         | OpenFOAM: The Open Source CFD Toolbox
   \\    /   O peration     | Website:  https://openfoam.org
    \\  /    A nd           | Version:  6
     \\/     M anipulation  |
\*---------------------------------------------------------------------------*/
FoamFile
{
    version     2.0;
    format      ascii;
    class       volVectorField;
    location    "0.0048";
    object      gradT;
}
// * * * * * * * * * * * * * * * * * * * * * * * * * * * * * * * * * * * * * //

dimensions      [0 -1 0 1 0 0 0];

internalField   nonuniform List<vector> 
9600
(
(0 3.049318488e-08 -0.0001133355449)
(0 8.385626346e-08 -0.0001132212023)
(0 1.410309801e-07 -0.0001129963082)
(0 1.943940536e-07 -0.0001126570715)
(0 2.47757142e-07 -0.0001122073038)
(0 3.049318488e-07 -0.0001116546081)
(0 3.582949224e-07 -0.0001109990046)
(0 4.002230756e-07 -0.00011023287)
(0 4.535861251e-07 -0.0001093752425)
(0 5.031375505e-07 -0.0001084223305)
(0 5.374424158e-07 -0.0001073779454)
(0 5.908054571e-07 -0.0001062496911)
(0 6.289219382e-07 -0.000105026152)
(0 6.670384593e-07 -0.0001037340095)
(0 6.975316042e-07 -0.0001023579984)
(0 7.356480853e-07 -0.000100921007)
(0 7.585180194e-07 -9.941922362e-05)
(0 7.928228069e-07 -9.786406523e-05)
(0 8.195043437e-07 -9.625173808e-05)
(0 8.461859312e-07 -9.458224188e-05)
(0 8.614324729e-07 -9.28784295e-05)
(0 8.804907135e-07 -9.113650631e-05)
(0 8.88114063e-07 -8.936028366e-05)
(0 9.033606021e-07 -8.756118039e-05)
(0 9.224188427e-07 -8.573921259e-05)
(0 9.262305463e-07 -8.388675664e-05)
(0 9.376654351e-07 -8.202285568e-05)
(0 9.300421389e-07 -8.015133646e-05)
(0 9.414771397e-07 -7.827601029e-05)
(0 9.452887313e-07 -7.638923978e-05)
(0 9.414770832e-07 -7.450247396e-05)
(0 9.300421947e-07 -7.263477075e-05)
(0 9.262304908e-07 -7.076705881e-05)
(0 9.300421389e-07 -6.891078618e-05)
(0 9.147956013e-07 -6.706214087e-05)
(0 9.147955464e-07 -6.523635741e-05)
(0 8.957373059e-07 -6.342201291e-05)
(0 8.919257113e-07 -6.163435364e-05)
(0 8.804907135e-07 -5.986193357e-05)
(0 8.614324729e-07 -5.811619874e-05)
(0 8.499975796e-07 -5.640096047e-05)
(0 8.423742323e-07 -5.470858533e-05)
(0 8.271276399e-07 -5.30428951e-05)
(0 8.042577995e-07 -5.140770115e-05)
(0 7.96634455e-07 -4.980680586e-05)
(0 7.813878626e-07 -4.822878354e-05)
(0 7.623296678e-07 -4.668506885e-05)
(0 7.432713815e-07 -4.51756534e-05)
(0 7.28024789e-07 -4.370435723e-05)
(0 7.165898877e-07 -4.226355678e-05)
(0 6.975316042e-07 -4.08494328e-05)
(0 6.784733636e-07 -3.946961618e-05)
(0 6.670384593e-07 -3.813172998e-05)
(0 6.479801787e-07 -3.681289745e-05)
(0 6.327335863e-07 -3.553218368e-05)
(0 6.136753826e-07 -3.428196516e-05)
(0 5.946171052e-07 -3.307367065e-05)
(0 5.793705127e-07 -3.189587139e-05)
(0 5.641239542e-07 -3.07523788e-05)
(0 5.488773279e-07 -2.96393757e-05)
(0 5.336307354e-07 -2.856067929e-05)
(0 5.183841741e-07 -2.750104276e-05)
(0 5.031375505e-07 -2.648333107e-05)
(0 4.917026062e-07 -2.549230256e-05)
(0 4.688327457e-07 -2.452795706e-05)
(0 4.612094213e-07 -2.35941018e-05)
(0 4.49774477e-07 -2.269455285e-05)
(0 4.307162623e-07 -2.181787509e-05)
(0 4.15469644e-07 -2.096787625e-05)
(0 4.078463478e-07 -2.014074861e-05)
(0 3.925997789e-07 -1.934411532e-05)
(0 3.773531629e-07 -1.857797289e-05)
(0 3.659182186e-07 -1.783088986e-05)
(0 3.506716472e-07 -1.710667774e-05)
(0 3.430483299e-07 -1.641676841e-05)
(0 3.354250337e-07 -1.57344834e-05)
(0 3.163668121e-07 -1.508269248e-05)
(0 3.087434969e-07 -1.446139293e-05)
(0 2.973085526e-07 -1.385152923e-05)
(0 2.896852738e-07 -1.326453622e-05)
(0 2.858736083e-07 -1.269278821e-05)
(0 2.668153677e-07 -1.214009923e-05)
(0 2.59192087e-07 -1.161028084e-05)
(0 2.553804234e-07 -1.10995193e-05)
(0 2.477571272e-07 -1.060400504e-05)
(0 2.325105487e-07 -1.011992634e-05)
(0 2.248872385e-07 -9.662527959e-06)
(0 2.248872385e-07 -9.21656513e-06)
(0 2.096406586e-07 -8.778226124e-06)
(0 2.058289979e-07 -8.358944306e-06)
(0 1.982057017e-07 -7.954909606e-06)
(0 1.867707686e-07 -7.566121953e-06)
(0 1.867707574e-07 -7.192579984e-06)
(0 1.829591093e-07 -6.826661765e-06)
(0 1.753358236e-07 -6.468367231e-06)
(0 1.71524165e-07 -6.125318513e-06)
(0 1.600892206e-07 -5.797516776e-06)
(0 1.562775819e-07 -5.477338663e-06)
(0 1.562775725e-07 -5.164783189e-06)
(0 1.486542763e-07 -4.867474637e-06)
(0 1.410309885e-07 -4.577789655e-06)
(0 1.37219332e-07 -4.291915772e-06)
(0 1.37219332e-07 -4.017477108e-06)
(0 1.295960435e-07 -3.750661965e-06)
(0 1.334076839e-07 -3.487658021e-06)
(0 1.295960357e-07 -3.232277597e-06)
(0 1.181610985e-07 -2.980709001e-06)
(0 1.219727395e-07 -2.736763343e-06)
(0 1.181610914e-07 -2.50044116e-06)
(0 1.181610985e-07 -2.260307465e-06)
(0 1.143494433e-07 -2.027796795e-06)
(0 1.143494433e-07 -1.802909556e-06)
(0 1.067261535e-07 -1.581834061e-06)
(0 1.067261471e-07 -1.368381672e-06)
(0 1.105377952e-07 -1.147306081e-06)
(0 1.067261535e-07 -9.300421947e-07)
(0 1.067261471e-07 -7.28024789e-07)
(0 1.02914499e-07 -5.107608468e-07)
(0 1.029145051e-07 -3.049318671e-07)
(0 9.910285086e-08 -1.02914499e-07)
(0 8.766791179e-08 -0.0001135337574)
(0 2.55380454e-07 -0.0001134194148)
(0 4.230929656e-07 -0.0001131868974)
(0 5.908054925e-07 -0.0001128476607)
(0 7.470831192e-07 -0.0001124017046)
(0 9.071723047e-07 -0.0001118451972)
(0 1.071073183e-06 -0.0001111781587)
(0 1.215915893e-06 -0.0001104120241)
(0 1.360758457e-06 -0.0001095505849)
(0 1.501789446e-06 -0.0001085938612)
(0 1.627573938e-06 -0.000107549476)
(0 1.764793181e-06 -0.0001064021634)
(0 1.886765928e-06 -0.0001051824359)
(0 1.997303849e-06 -0.0001038826701)
(0 2.107841531e-06 -0.0001025104704)
(0 2.206944388e-06 -0.0001010658557)
(0 2.294612438e-06 -9.955644894e-05)
(0 2.382280212e-06 -9.798604385e-05)
(0 2.458513179e-06 -9.63660933e-05)
(0 2.527123e-06 -9.470040866e-05)
(0 2.584297574e-06 -9.299278452e-05)
(0 2.641472299e-06 -9.124323794e-05)
(0 2.683400592e-06 -8.945939188e-05)
(0 2.721516914e-06 -8.76450419e-05)
(0 2.752010101e-06 -8.58154507e-05)
(0 2.782503454e-06 -8.39668063e-05)
(0 2.805373177e-06 -8.210290522e-05)
(0 2.816808122e-06 -8.021995094e-05)
(0 2.816808291e-06 -7.833700136e-05)
(0 2.832054716e-06 -7.645404238e-05)
(0 2.816808122e-06 -7.45710881e-05)
(0 2.801561697e-06 -7.269194983e-05)
(0 2.793938232e-06 -7.081661449e-05)
(0 2.778691639e-06 -6.89565301e-05)
(0 2.755821914e-06 -6.710788468e-05)
(0 2.732951859e-06 -6.52744778e-05)
(0 2.702458672e-06 -6.346013319e-05)
(0 2.664342349e-06 -6.166485053e-05)
(0 2.637660651e-06 -5.989243035e-05)
(0 2.599544167e-06 -5.815050706e-05)
(0 2.55380454e-06 -5.642383375e-05)
(0 2.515687904e-06 -5.473527015e-05)
(0 2.481383069e-06 -5.306576817e-05)
(0 2.431831786e-06 -5.143057412e-05)
(0 2.382280212e-06 -4.981824379e-05)
(0 2.34035208e-06 -4.824403303e-05)
(0 2.290800789e-06 -4.66965066e-05)
(0 2.237437575e-06 -4.518709106e-05)
(0 2.184074498e-06 -4.37081715e-05)
(0 2.138334846e-06 -4.226737097e-05)
(0 2.096406586e-06 -4.085705854e-05)
(0 2.04304351e-06 -3.947724185e-05)
(0 1.989680552e-06 -3.812792062e-05)
(0 1.947752301e-06 -3.681671131e-05)
(0 1.898200873e-06 -3.553218582e-05)
(0 1.844837907e-06 -3.428959051e-05)
(0 1.791474719e-06 -3.307367264e-05)
(0 1.745734939e-06 -3.189206165e-05)
(0 1.684748667e-06 -3.074856899e-05)
(0 1.646632082e-06 -2.962794254e-05)
(0 1.600892302e-06 -2.854543441e-05)
(0 1.555152616e-06 -2.750104442e-05)
(0 1.517036039e-06 -2.647570936e-05)
(0 1.463672962e-06 -2.548086915e-05)
(0 1.421744916e-06 -2.452414688e-05)
(0 1.372193402e-06 -2.359029157e-05)
(0 1.334076919e-06 -2.269074256e-05)
(0 1.292148864e-06 -2.18178764e-05)
(0 1.257843952e-06 -2.096406586e-05)
(0 1.219727468e-06 -2.014456147e-05)
(0 1.173987759e-06 -1.934411648e-05)
(0 1.135871205e-06 -1.857035071e-05)
(0 1.10156637e-06 -1.782707928e-05)
(0 1.06344995e-06 -1.710667877e-05)
(0 1.029145051e-06 -1.64015228e-05)
(0 9.910285681e-07 -1.573829599e-05)
(0 9.60535439e-07 -1.508650503e-05)
(0 9.262305463e-07 -1.44537705e-05)
(0 8.957373596e-07 -1.384390677e-05)
(0 8.690558734e-07 -1.325691372e-05)
(0 8.423742829e-07 -1.269278897e-05)
(0 8.156927445e-07 -1.214009996e-05)
(0 7.775763078e-07 -1.160646989e-05)
(0 7.547063711e-07 -1.109189667e-05)
(0 7.318364811e-07 -1.059638238e-05)
(0 7.05154985e-07 -1.01237386e-05)
(0 6.822850527e-07 -9.658716891e-06)
(0 6.63226811e-07 -9.208942387e-06)
(0 6.403569594e-07 -8.774415003e-06)
(0 6.174870309e-07 -8.355133159e-06)
(0 5.946171409e-07 -7.954910083e-06)
(0 5.717472851e-07 -7.566122407e-06)
(0 5.565006575e-07 -7.188768767e-06)
(0 5.412540641e-07 -6.822850527e-06)
(0 5.221958538e-07 -6.472179268e-06)
(0 5.031375807e-07 -6.129130529e-06)
(0 4.917026357e-07 -5.797517123e-06)
(0 4.726444224e-07 -5.473527343e-06)
(0 4.573978007e-07 -5.164783499e-06)
(0 4.421512073e-07 -4.867474929e-06)
(0 4.269046396e-07 -4.573978281e-06)
(0 4.230929656e-07 -4.288104381e-06)
(0 4.078463723e-07 -4.013665701e-06)
(0 3.96411451e-07 -3.743038893e-06)
(0 3.887881306e-07 -3.48765823e-06)
(0 3.811648339e-07 -3.228466143e-06)
(0 3.697299111e-07 -2.98070918e-06)
(0 3.582949439e-07 -2.736763507e-06)
(0 3.621065922e-07 -2.496629662e-06)
(0 3.506716682e-07 -2.260307601e-06)
(0 3.430483505e-07 -2.031608565e-06)
(0 3.354250538e-07 -1.802909664e-06)
(0 3.239901282e-07 -1.581834156e-06)
(0 3.278017571e-07 -1.364570105e-06)
(0 3.278017571e-07 -1.151117798e-06)
(0 3.163668311e-07 -9.338538991e-07)
(0 3.163668121e-07 -7.20401536e-07)
(0 3.125551638e-07 -5.183841741e-07)
(0 3.08743534e-07 -3.08743534e-07)
(0 3.049318671e-07 -1.029145051e-07)
(0 1.486542763e-07 -0.0001139263504)
(0 4.307162623e-07 -0.0001138120078)
(0 7.127781966e-07 -0.0001135794904)
(0 9.834052124e-07 -0.0001132402537)
(0 1.254032303e-06 -0.0001127828627)
(0 1.520847596e-06 -0.000112218732)
(0 1.783851316e-06 -0.0001115516936)
(0 2.031608565e-06 -0.000110785559)
(0 2.275553922e-06 -0.0001099126849)
(0 2.508064456e-06 -0.0001089445263)
(0 2.725328562e-06 -0.0001078772713)
(0 2.950215637e-06 -0.0001067337704)
(0 3.156044635e-06 -0.0001054987964)
(0 3.339003945e-06 -0.000104183784)
(0 3.521962854e-06 -0.0001028001495)
(0 3.685863723e-06 -0.0001013479116)
(0 3.834518229e-06 -9.982707e-05)
(0 3.983172275e-06 -9.824904169e-05)
(0 4.108956663e-06 -9.66176563e-05)
(0 4.215683063e-06 -9.494053682e-05)
(0 4.318597309e-06 -9.321385453e-05)
(0 4.410076863e-06 -9.145287311e-05)
(0 4.490121743e-06 -8.966140388e-05)
(0 4.547296195e-06 -8.78394307e-05)
(0 4.600659269e-06 -8.599078137e-05)
(0 4.642587677e-06 -8.413070214e-05)
(0 4.676892231e-06 -8.225536622e-05)
(0 4.695950472e-06 -8.03762237e-05)
(0 4.711197347e-06 -7.8474216e-05)
(0 4.71882036e-06 -7.657601053e-05)
(0 4.69976212e-06 -7.468924472e-05)
(0 4.68070416e-06 -7.280248327e-05)
(0 4.665457287e-06 -7.091952474e-05)
(0 4.63877575e-06 -6.904800552e-05)
(0 4.596847897e-06 -6.719554857e-05)
(0 4.55873114e-06 -6.53545185e-05)
(0 4.509179714e-06 -6.353636235e-05)
(0 4.45200526e-06 -6.17334565e-05)
(0 4.398641919e-06 -5.996484807e-05)
(0 4.333843901e-06 -5.820767829e-05)
(0 4.265234491e-06 -5.648481673e-05)
(0 4.200436217e-06 -5.477719499e-05)
(0 4.128014903e-06 -5.310769312e-05)
(0 4.055593833e-06 -5.146868752e-05)
(0 3.979360627e-06 -4.986016893e-05)
(0 3.903127665e-06 -4.827452332e-05)
(0 3.815459987e-06 -4.673080863e-05)
(0 3.735415148e-06 -4.521376988e-05)
(0 3.647747241e-06 -4.373485042e-05)
(0 3.567702845e-06 -4.228642667e-05)
(0 3.487658021e-06 -4.087230269e-05)
(0 3.40761341e-06 -3.949629772e-05)
(0 3.323757352e-06 -3.814316493e-05)
(0 3.24752419e-06 -3.682433239e-05)
(0 3.159856283e-06 -3.554743028e-05)
(0 3.072188561e-06 -3.429721175e-05)
(0 2.988332118e-06 -3.30851056e-05)
(0 2.908287508e-06 -3.190730633e-05)
(0 2.828243067e-06 -3.07523788e-05)
(0 2.748198287e-06 -2.963556406e-05)
(0 2.668153677e-06 -2.854924435e-05)
(0 2.588109222e-06 -2.749723112e-05)
(0 2.515687753e-06 -2.647570777e-05)
(0 2.443266439e-06 -2.548849091e-05)
(0 2.367033618e-06 -2.452414541e-05)
(0 2.290800514e-06 -2.35941018e-05)
(0 2.222190848e-06 -2.268692955e-05)
(0 2.153581311e-06 -2.18102518e-05)
(0 2.092594812e-06 -2.096406461e-05)
(0 2.027796795e-06 -2.014837191e-05)
(0 1.959187246e-06 -1.935173862e-05)
(0 1.898200759e-06 -1.857797289e-05)
(0 1.833402741e-06 -1.783088986e-05)
(0 1.772416478e-06 -1.710667774e-05)
(0 1.71524165e-06 -1.641295676e-05)
(0 1.658066928e-06 -1.57344834e-05)
(0 1.597080654e-06 -1.508269248e-05)
(0 1.547529133e-06 -1.444995799e-05)
(0 1.494166059e-06 -1.384009429e-05)
(0 1.44461472e-06 -1.325691292e-05)
(0 1.402686505e-06 -1.268516491e-05)
(0 1.353135079e-06 -1.214391088e-05)
(0 1.30739538e-06 -1.160646919e-05)
(0 1.261655524e-06 -1.10995193e-05)
(0 1.215915747e-06 -1.060400504e-05)
(0 1.173987688e-06 -1.011992634e-05)
(0 1.139682785e-06 -9.658716311e-06)
(0 1.101566304e-06 -9.205130186e-06)
(0 1.063449887e-06 -8.778226124e-06)
(0 1.02914499e-06 -8.358944306e-06)
(0 9.948401568e-07 -7.954909606e-06)
(0 9.491004364e-07 -7.566121953e-06)
(0 9.33853787e-07 -7.188768336e-06)
(0 8.99548954e-07 -6.822850117e-06)
(0 8.652441729e-07 -6.472178879e-06)
(0 8.423742323e-07 -6.132941809e-06)
(0 8.156926956e-07 -5.801328424e-06)
(0 7.890112061e-07 -5.48496196e-06)
(0 7.585179739e-07 -5.176218134e-06)
(0 7.394597334e-07 -4.867474637e-06)
(0 7.20401536e-07 -4.570166358e-06)
(0 7.013432523e-07 -4.291915772e-06)
(0 6.822850117e-07 -4.009853812e-06)
(0 6.594151626e-07 -3.743038669e-06)
(0 6.403568825e-07 -3.480034725e-06)
(0 6.365452344e-07 -3.232277597e-06)
(0 6.174870309e-07 -2.984520649e-06)
(0 6.022404014e-07 -2.740574991e-06)
(0 5.946171052e-07 -2.496629512e-06)
(0 5.831821958e-07 -2.267930762e-06)
(0 5.755588646e-07 -2.035420091e-06)
(0 5.603122722e-07 -1.810532852e-06)
(0 5.450657125e-07 -1.585645709e-06)
(0 5.412540316e-07 -1.364570023e-06)
(0 5.412540316e-07 -1.151117729e-06)
(0 5.298191191e-07 -9.414771397e-07)
(0 5.260074392e-07 -7.28024789e-07)
(0 5.18384143e-07 -5.18384143e-07)
(0 5.145725257e-07 -3.087435154e-07)
(0 5.145724949e-07 -9.910285086e-08)
(0 2.096406461e-07 -0.0001145133442)
(0 6.060520859e-07 -0.0001143951899)
(0 9.986518049e-07 -0.0001141588609)
(0 1.379816616e-06 -0.0001138120009)
(0 1.768604829e-06 -0.0001133546099)
(0 2.142146238e-06 -0.0001127904792)
(0 2.504252808e-06 -0.0001121120059)
(0 2.854924606e-06 -0.000111326813)
(0 3.201784413e-06 -0.0001104463156)
(0 3.533397798e-06 -0.0001094590988)
(0 3.842141526e-06 -0.0001083842205)
(0 4.143261496e-06 -0.0001072178497)
(0 4.429135104e-06 -0.0001059752524)
(0 4.699762402e-06 -0.0001046488051)
(0 4.943707599e-06 -0.0001032384891)
(0 5.180029782e-06 -0.0001017710045)
(0 5.397294048e-06 -0.0001002311047)
(0 5.58787613e-06 -9.863401815e-05)
(0 5.770835239e-06 -9.698738616e-05)
(0 5.927113167e-06 -9.528739682e-05)
(0 6.075767088e-06 -9.354546792e-05)
(0 6.193928179e-06 -9.17692399e-05)
(0 6.300654704e-06 -8.995871245e-05)
(0 6.388322233e-06 -8.812149266e-05)
(0 6.460743547e-06 -8.625759673e-05)
(0 6.517918659e-06 -8.437845928e-05)
(0 6.563658046e-06 -8.24840651e-05)
(0 6.594151231e-06 -8.05820527e-05)
(0 6.60939822e-06 -7.868004501e-05)
(0 6.617021119e-06 -7.677421624e-05)
(0 6.597962879e-06 -7.486458053e-05)
(0 6.571281736e-06 -7.29625725e-05)
(0 6.544599805e-06 -7.107199066e-05)
(0 6.502671676e-06 -6.918522485e-05)
(0 6.449308989e-06 -6.732133296e-05)
(0 6.392133881e-06 -6.546886794e-05)
(0 6.323524215e-06 -6.363927685e-05)
(0 6.243479979e-06 -6.1836371e-05)
(0 6.159623346e-06 -6.004489268e-05)
(0 6.083390384e-06 -5.82877229e-05)
(0 5.984287892e-06 -5.654961476e-05)
(0 5.892807978e-06 -5.484580466e-05)
(0 5.786081831e-06 -5.317249114e-05)
(0 5.679356025e-06 -5.15220506e-05)
(0 5.576441185e-06 -4.990590871e-05)
(0 5.46590339e-06 -4.832407474e-05)
(0 5.351554268e-06 -4.677654841e-05)
(0 5.237204503e-06 -4.525188636e-05)
(0 5.115231764e-06 -4.376153195e-05)
(0 4.997070972e-06 -4.230929656e-05)
(0 4.886532877e-06 -4.089517257e-05)
(0 4.772183434e-06 -3.950773266e-05)
(0 4.665457567e-06 -3.815459987e-05)
(0 4.543484547e-06 -3.683957898e-05)
(0 4.41770016e-06 -3.555505357e-05)
(0 4.299539326e-06 -3.431245835e-05)
(0 4.189001273e-06 -3.309654054e-05)
(0 4.078463478e-06 -3.191111798e-05)
(0 3.960302624e-06 -3.076000209e-05)
(0 3.849764591e-06 -2.9646999e-05)
(0 3.739226796e-06 -2.855686764e-05)
(0 3.628689219e-06 -2.750104277e-05)
(0 3.521962854e-06 -2.647951942e-05)
(0 3.415236707e-06 -2.549230256e-05)
(0 3.316134055e-06 -2.452414541e-05)
(0 3.213219357e-06 -2.35941018e-05)
(0 3.114116506e-06 -2.26831179e-05)
(0 3.018825484e-06 -2.180644015e-05)
(0 2.923534101e-06 -2.095644131e-05)
(0 2.832054546e-06 -2.013312532e-05)
(0 2.740575156e-06 -1.934411532e-05)
(0 2.656718733e-06 -1.857416124e-05)
(0 2.569050826e-06 -1.782326656e-05)
(0 2.485194717e-06 -1.710667774e-05)
(0 2.401338309e-06 -1.640533347e-05)
(0 2.325105347e-06 -1.573067175e-05)
(0 2.237437575e-06 -1.507888083e-05)
(0 2.168827775e-06 -1.444614634e-05)
(0 2.088783164e-06 -1.384009429e-05)
(0 2.02017362e-06 -1.325310127e-05)
(0 1.959187129e-06 -1.268516491e-05)
(0 1.890577463e-06 -1.213628758e-05)
(0 1.825779554e-06 -1.161028084e-05)
(0 1.768604723e-06 -1.109570765e-05)
(0 1.703806705e-06 -1.059638175e-05)
(0 1.646632082e-06 -1.011992634e-05)
(0 1.59326891e-06 -9.654904663e-06)
(0 1.547529133e-06 -9.208941834e-06)
(0 1.490354501e-06 -8.778226124e-06)
(0 1.440802986e-06 -8.358944306e-06)
(0 1.387439912e-06 -7.954909606e-06)
(0 1.337888567e-06 -7.566121953e-06)
(0 1.299772006e-06 -7.188768336e-06)
(0 1.257843876e-06 -6.826661765e-06)
(0 1.212104172e-06 -6.468367231e-06)
(0 1.173987618e-06 -6.132941809e-06)
(0 1.143494433e-06 -5.801328424e-06)
(0 1.10156637e-06 -5.481150311e-06)
(0 1.071073119e-06 -5.168594837e-06)
(0 1.040579934e-06 -4.867474637e-06)
(0 1.006275161e-06 -4.573978007e-06)
(0 9.834052124e-07 -4.288104124e-06)
(0 9.529120275e-07 -4.017477108e-06)
(0 9.262305463e-07 -3.746850317e-06)
(0 9.033606021e-07 -3.483846373e-06)
(0 8.804907135e-07 -3.224654301e-06)
(0 8.576208762e-07 -2.976897353e-06)
(0 8.499975286e-07 -2.732951695e-06)
(0 8.30939288e-07 -2.496629512e-06)
(0 8.118810962e-07 -2.264119113e-06)
(0 8.004461031e-07 -2.035420091e-06)
(0 7.851995107e-07 -1.810532852e-06)
(0 7.661413161e-07 -1.593269006e-06)
(0 7.62329622e-07 -1.364570023e-06)
(0 7.547063258e-07 -1.151117729e-06)
(0 7.432714261e-07 -9.376654914e-07)
(0 7.356480853e-07 -7.242131409e-07)
(0 7.28024789e-07 -5.145724949e-07)
(0 7.20401536e-07 -3.125551638e-07)
(0 7.204014928e-07 -1.067261471e-07)
(0 2.782503287e-07 -0.0001152985506)
(0 7.813879564e-07 -0.0001151765848)
(0 1.292148787e-06 -0.0001149402557)
(0 1.791474719e-06 -0.0001145857724)
(0 2.279365843e-06 -0.0001141207581)
(0 2.767256694e-06 -0.0001135375691)
(0 3.243712736e-06 -0.0001128514724)
(0 3.697299111e-06 -0.0001120586562)
(0 4.139450096e-06 -0.0001111514772)
(0 4.570166358e-06 -0.0001101528253)
(0 4.970389732e-06 -0.0001090588888)
(0 5.362989213e-06 -0.0001078734596)
(0 5.725095805e-06 -0.0001066041807)
(0 6.075767817e-06 -0.0001052510519)
(0 6.395945913e-06 -0.0001038254891)
(0 6.693254483e-06 -0.0001023236997)
(0 6.97150523e-06 -0.0001007685532)
(0 7.226885251e-06 -9.914859659e-05)
(0 7.455584151e-06 -9.747147132e-05)
(0 7.653790324e-06 -9.575242367e-05)
(0 7.840560633e-06 -9.399143639e-05)
(0 7.996838215e-06 -9.218852672e-05)
(0 8.137869692e-06 -9.035131765e-05)
(0 8.252218654e-06 -8.849122784e-05)
(0 8.336074917e-06 -8.660827356e-05)
(0 8.416120037e-06 -8.470626612e-05)
(0 8.469482609e-06 -8.279281357e-05)
(0 8.507599092e-06 -8.086793116e-05)
(0 8.522846197e-06 -7.895067678e-05)
(0 8.530468982e-06 -7.702197798e-05)
(0 8.507599092e-06 -7.509709557e-05)
(0 8.477106414e-06 -7.31760292e-05)
(0 8.442801071e-06 -7.126638899e-05)
(0 8.385626346e-06 -6.937581142e-05)
(0 8.313205526e-06 -6.748904954e-05)
(0 8.23697206e-06 -6.56289611e-05)
(0 8.1454925e-06 -6.37841233e-05)
(0 8.050201775e-06 -6.196215911e-05)
(0 7.93966349e-06 -6.016305738e-05)
(0 7.829125688e-06 -5.839445255e-05)
(0 7.707153404e-06 -5.665253266e-05)
(0 7.585180194e-06 -5.493347586e-05)
(0 7.455584151e-06 -5.324491565e-05)
(0 7.314553601e-06 -5.159066336e-05)
(0 7.18114547e-06 -4.996689807e-05)
(0 7.036302834e-06 -4.837362907e-05)
(0 6.887648962e-06 -4.681466771e-05)
(0 6.74661756e-06 -4.529381721e-05)
(0 6.58652833e-06 -4.379965106e-05)
(0 6.434062782e-06 -4.234360394e-05)
(0 6.293031407e-06 -4.091804492e-05)
(0 6.144377122e-06 -3.952298163e-05)
(0 5.991911548e-06 -3.81736604e-05)
(0 5.843256903e-06 -3.685863944e-05)
(0 5.694602618e-06 -3.557411395e-05)
(0 5.53451372e-06 -3.43200837e-05)
(0 5.385859103e-06 -3.309654253e-05)
(0 5.244828114e-06 -3.191493154e-05)
(0 5.096174135e-06 -3.076381559e-05)
(0 4.947519544e-06 -2.964318913e-05)
(0 4.810300204e-06 -2.8560681e-05)
(0 4.669269495e-06 -2.750485606e-05)
(0 4.528238227e-06 -2.648333266e-05)
(0 4.394830535e-06 -2.548468079e-05)
(0 4.265234747e-06 -2.452414688e-05)
(0 4.131826799e-06 -2.358647992e-05)
(0 4.009854052e-06 -2.267930762e-05)
(0 3.880258242e-06 -2.180262981e-05)
(0 3.76209691e-06 -2.095263092e-05)
(0 3.636312515e-06 -2.012931488e-05)
(0 3.525774925e-06 -1.933268153e-05)
(0 3.411425263e-06 -1.856272741e-05)
(0 3.308510758e-06 -1.781945598e-05)
(0 3.190349851e-06 -1.709524383e-05)
(0 3.087435154e-06 -1.64015228e-05)
(0 2.988332298e-06 -1.57230494e-05)
(0 2.881606317e-06 -1.507125844e-05)
(0 2.782503287e-06 -1.444233556e-05)
(0 2.694835376e-06 -1.383628347e-05)
(0 2.599544323e-06 -1.324166712e-05)
(0 2.511876255e-06 -1.267754238e-05)
(0 2.428019992e-06 -1.212866501e-05)
(0 2.347975518e-06 -1.160265824e-05)
(0 2.27174241e-06 -1.108808502e-05)
(0 2.199321092e-06 -1.058875909e-05)
(0 2.115464955e-06 -1.0108492e-05)
(0 2.04304351e-06 -9.647281946e-06)
(0 1.985868785e-06 -9.205130738e-06)
(0 1.913447581e-06 -8.774415003e-06)
(0 1.852461093e-06 -8.362756455e-06)
(0 1.783851423e-06 -7.954910083e-06)
(0 1.722865153e-06 -7.562310758e-06)
(0 1.669501972e-06 -7.177333822e-06)
(0 1.616138896e-06 -6.81522723e-06)
(0 1.558964264e-06 -6.472179268e-06)
(0 1.513224391e-06 -6.125318881e-06)
(0 1.463672962e-06 -5.793705475e-06)
(0 1.417933267e-06 -5.477338992e-06)
(0 1.379816699e-06 -5.164783499e-06)
(0 1.334076919e-06 -4.86366328e-06)
(0 1.295960513e-06 -4.573978281e-06)
(0 1.2616556e-06 -4.29191603e-06)
(0 1.227350765e-06 -4.013665701e-06)
(0 1.193046002e-06 -3.743038893e-06)
(0 1.162552743e-06 -3.480034933e-06)
(0 1.135871205e-06 -3.228466143e-06)
(0 1.105378085e-06 -2.973085883e-06)
(0 1.086319777e-06 -2.732951859e-06)
(0 1.067261535e-06 -2.496629662e-06)
(0 1.040580059e-06 -2.264119249e-06)
(0 1.025333403e-06 -2.035420213e-06)
(0 1.006275161e-06 -1.810532961e-06)
(0 9.948402761e-07 -1.585645804e-06)
(0 9.795936231e-07 -1.368381754e-06)
(0 9.681586781e-07 -1.14730615e-06)
(0 9.567237905e-07 -9.376655476e-07)
(0 9.45288788e-07 -7.242131844e-07)
(0 9.376654914e-07 -5.145725257e-07)
(0 9.262306019e-07 -3.049318854e-07)
(0 9.300421947e-07 -1.029145051e-07)
(0 3.354250337e-07 -0.0001162895722)
(0 9.643470297e-07 -0.0001161637948)
(0 1.585645614e-06 -0.0001159274656)
(0 2.206944256e-06 -0.0001155653591)
(0 2.809184826e-06 -0.0001150889099)
(0 3.40761341e-06 -0.0001144904743)
(0 3.994607219e-06 -0.0001137853194)
(0 4.554919765e-06 -0.0001129658218)
(0 5.10379682e-06 -0.0001120472078)
(0 5.625992611e-06 -0.0001110256862)
(0 6.121507232e-06 -0.0001099050682)
(0 6.601774527e-06 -0.0001086929575)
(0 7.051549004e-06 -0.0001073893739)
(0 7.474642393e-06 -0.0001060095636)
(0 7.871053348e-06 -0.0001045573193)
(0 8.240783214e-06 -0.0001030288484)
(0 8.572397114e-06 -0.0001014355856)
(0 8.884951745e-06 -9.978894752e-05)
(0 9.163202057e-06 -9.808514082e-05)
(0 9.414771397e-06 -9.633560012e-05)
(0 9.635846423e-06 -9.454030808e-05)
(0 9.826428828e-06 -9.271071698e-05)
(0 9.997953593e-06 -9.084301486e-05)
(0 1.013517232e-05 -8.89562436e-05)
(0 1.024952177e-05 -8.704279624e-05)
(0 1.0329567e-05 -8.511410741e-05)
(0 1.040198769e-05 -8.317397341e-05)
(0 1.044010417e-05 -8.123384452e-05)
(0 1.045916304e-05 -7.928228545e-05)
(0 1.046297406e-05 -7.733071686e-05)
(0 1.044391582e-05 -7.538677632e-05)
(0 1.039817667e-05 -7.344665184e-05)
(0 1.034862462e-05 -7.151795349e-05)
(0 1.02838266e-05 -6.960450614e-05)
(0 1.019615931e-05 -6.77024978e-05)
(0 1.010086749e-05 -6.581953957e-05)
(0 9.982706401e-06 -6.395945529e-05)
(0 9.864545901e-06 -6.212224463e-05)
(0 9.734949273e-06 -6.03155197e-05)
(0 9.593918293e-06 -5.852023344e-05)
(0 9.445264584e-06 -5.675925541e-05)
(0 9.288986445e-06 -5.503638706e-05)
(0 9.125085576e-06 -5.334782695e-05)
(0 8.961185245e-06 -5.168595148e-05)
(0 8.797283838e-06 -5.004312804e-05)
(0 8.614324729e-06 -4.844985913e-05)
(0 8.431366126e-06 -4.687946292e-05)
(0 8.252218159e-06 -4.534336592e-05)
(0 8.069259049e-06 -4.384538821e-05)
(0 7.882488765e-06 -4.238171788e-05)
(0 7.699529183e-06 -4.0944724e-05)
(0 7.520381721e-06 -3.955728409e-05)
(0 7.329799756e-06 -3.820033965e-05)
(0 7.146840207e-06 -3.687769547e-05)
(0 6.956257801e-06 -3.55893584e-05)
(0 6.773299098e-06 -3.433913988e-05)
(0 6.594151231e-06 -3.311941043e-05)
(0 6.411192121e-06 -3.192636457e-05)
(0 6.228233386e-06 -3.077143704e-05)
(0 6.052897199e-06 -2.965081065e-05)
(0 5.885184682e-06 -2.856449094e-05)
(0 5.709849212e-06 -2.750485441e-05)
(0 5.538324704e-06 -2.647951942e-05)
(0 5.374423835e-06 -2.548086762e-05)
(0 5.210523279e-06 -2.451652212e-05)
(0 5.054245394e-06 -2.358266686e-05)
(0 4.90177947e-06 -2.267549461e-05)
(0 4.74931383e-06 -2.17950052e-05)
(0 4.596847621e-06 -2.094500637e-05)
(0 4.452004993e-06 -2.012550202e-05)
(0 4.303350975e-06 -1.932886873e-05)
(0 4.169943033e-06 -1.8555103e-05)
(0 4.036535349e-06 -1.781564327e-05)
(0 3.899316251e-06 -1.709143115e-05)
(0 3.777343277e-06 -1.639008687e-05)
(0 3.65155889e-06 -1.571923681e-05)
(0 3.521963065e-06 -1.506744588e-05)
(0 3.411425059e-06 -1.443471139e-05)
(0 3.289452319e-06 -1.382103605e-05)
(0 3.175103066e-06 -1.323785468e-05)
(0 3.072188377e-06 -1.266610667e-05)
(0 2.96546223e-06 -1.212104099e-05)
(0 2.866359551e-06 -1.159503425e-05)
(0 2.778691472e-06 -1.107664941e-05)
(0 2.68340027e-06 -1.05849468e-05)
(0 2.588109222e-06 -1.010849139e-05)
(0 2.50044116e-06 -9.647281367e-06)
(0 2.416584902e-06 -9.201318538e-06)
(0 2.336540432e-06 -8.770602828e-06)
(0 2.260307329e-06 -8.351321009e-06)
(0 2.184074367e-06 -7.951097958e-06)
(0 2.11165318e-06 -7.558498656e-06)
(0 2.043043387e-06 -7.18114504e-06)
(0 1.970622073e-06 -6.819038469e-06)
(0 1.905824169e-06 -6.464555583e-06)
(0 1.844837685e-06 -6.125318513e-06)
(0 1.791474612e-06 -5.797516776e-06)
(0 1.734299994e-06 -5.469715366e-06)
(0 1.684748465e-06 -5.160971541e-06)
(0 1.631385391e-06 -4.863662989e-06)
(0 1.581834061e-06 -4.573978007e-06)
(0 1.543717485e-06 -4.291915772e-06)
(0 1.497977707e-06 -4.017477108e-06)
(0 1.456049665e-06 -3.746850317e-06)
(0 1.421744745e-06 -3.487658021e-06)
(0 1.39125156e-06 -3.224654301e-06)
(0 1.35313516e-06 -2.976897353e-06)
(0 1.322641894e-06 -2.732951695e-06)
(0 1.299772006e-06 -2.50044116e-06)
(0 1.276902194e-06 -2.260307465e-06)
(0 1.254032228e-06 -2.035420091e-06)
(0 1.227350691e-06 -1.806721204e-06)
(0 1.21591582e-06 -1.585645709e-06)
(0 1.200669155e-06 -1.368381672e-06)
(0 1.181610914e-06 -1.151117729e-06)
(0 1.162552743e-06 -9.414771397e-07)
(0 1.162552674e-06 -7.318364372e-07)
(0 1.143494433e-06 -5.18384143e-07)
(0 1.135871205e-06 -3.163668121e-07)
(0 1.132059489e-06 -1.02914499e-07)
(0 4.002230516e-07 -0.0001174711831)
(0 1.143494502e-06 -0.0001173492174)
(0 1.890577463e-06 -0.0001171052649)
(0 2.630037196e-06 -0.0001167317234)
(0 3.358062187e-06 -0.0001162400277)
(0 4.063216885e-06 -0.0001156301571)
(0 4.764560138e-06 -0.0001149059439)
(0 5.43922218e-06 -0.0001140635765)
(0 6.087202032e-06 -0.0001131144693)
(0 6.708500674e-06 -0.0001120662661)
(0 7.303118217e-06 -0.000110915155)
(0 7.874864996e-06 -0.0001096725511)
(0 8.404684083e-06 -0.0001083384742)
(0 8.907822168e-06 -0.0001069281709)
(0 9.376654351e-06 -0.00010543781)
(0 9.814993884e-06 -0.0001038750343)
(0 1.02114059e-05 -0.0001022474667)
(0 1.058113515e-05 -0.0001005589004)
(0 1.090893689e-05 -9.88207889e-05)
(0 1.119862282e-05 -9.703313176e-05)
(0 1.146543752e-05 -9.51997232e-05)
(0 1.169794805e-05 -9.333201563e-05)
(0 1.188471952e-05 -9.144144365e-05)
(0 1.205243132e-05 -8.950893257e-05)
(0 1.218583901e-05 -8.756118039e-05)
(0 1.22773193e-05 -8.559818675e-05)
(0 1.235355153e-05 -8.363137119e-05)
(0 1.240310295e-05 -8.165312582e-05)
(0 1.241835029e-05 -7.967488523e-05)
(0 1.242216119e-05 -7.770425837e-05)
(0 1.240310295e-05 -7.572982465e-05)
(0 1.234592897e-05 -7.375920701e-05)
(0 1.228494186e-05 -7.180763875e-05)
(0 1.22010856e-05 -6.986369821e-05)
(0 1.209054853e-05 -6.795025494e-05)
(0 1.198001001e-05 -6.60520501e-05)
(0 1.184279068e-05 -6.417290758e-05)
(0 1.169794875e-05 -6.231282704e-05)
(0 1.154167048e-05 -6.048704386e-05)
(0 1.137776961e-05 -5.86841343e-05)
(0 1.119099952e-05 -5.691172135e-05)
(0 1.100422809e-05 -5.516979475e-05)
(0 1.081364569e-05 -5.345836475e-05)
(0 1.061544062e-05 -5.177743104e-05)
(0 1.041723429e-05 -5.013460759e-05)
(0 1.020759364e-05 -4.852228044e-05)
(0 9.986518648e-06 -4.694426094e-05)
(0 9.773065754e-06 -4.540816394e-05)
(0 9.551990164e-06 -4.389875128e-05)
(0 9.330915134e-06 -4.242364601e-05)
(0 9.121273928e-06 -4.099427542e-05)
(0 8.900198337e-06 -3.959158892e-05)
(0 8.663876674e-06 -3.822702119e-05)
(0 8.45042386e-06 -3.6904377e-05)
(0 8.233159918e-06 -3.561222829e-05)
(0 8.00827316e-06 -3.435438648e-05)
(0 7.802443682e-06 -3.313084537e-05)
(0 7.585179739e-06 -3.193779952e-05)
(0 7.367916239e-06 -3.078287198e-05)
(0 7.162086799e-06 -2.965843395e-05)
(0 6.952446153e-06 -2.856067929e-05)
(0 6.750429208e-06 -2.750485441e-05)
(0 6.552223101e-06 -2.647570777e-05)
(0 6.357829048e-06 -2.548086762e-05)
(0 6.163435364e-06 -2.451271047e-05)
(0 5.980475885e-06 -2.357504356e-05)
(0 5.789893479e-06 -2.267168296e-05)
(0 5.606934706e-06 -2.179119355e-05)
(0 5.435410205e-06 -2.094119472e-05)
(0 5.256262744e-06 -2.011787873e-05)
(0 5.096173829e-06 -1.931743378e-05)
(0 4.928461006e-06 -1.85474797e-05)
(0 4.772183434e-06 -1.780039667e-05)
(0 4.61209449e-06 -1.707999621e-05)
(0 4.455816641e-06 -1.638246358e-05)
(0 4.314785661e-06 -1.571161351e-05)
(0 4.166131634e-06 -1.505219929e-05)