/*--------------------------------*- C++ -*----------------------------------*\
  =========                 |
  \\      /  F ield         | OpenFOAM: The Open Source CFD Toolbox
   \\    /   O peration     | Website:  https://openfoam.org
    \\  /    A nd           | Version:  6
     \\/     M anipulation  |
\*---------------------------------------------------------------------------*/
FoamFile
{
    version     2.0;
    format      ascii;
    class       volVectorField;
    location    "0.0024";
    object      Marangoni;
}
// * * * * * * * * * * * * * * * * * * * * * * * * * * * * * * * * * * * * * //

dimensions      [1 -2 -2 0 0 0 0];

internalField   nonuniform List<vector> 
600
(
(-0 0 0)
(-0 0 0)
(-0 0 0)
(-0 0 0)
(-0 0 0)
(-0 0 0)
(-0 0 0)
(-0 0 0)
(-0 0 0)
(-0 0 0)
(-0 0 0)
(-0 0 -0)
(-0 0 -0)
(-0 0 -0)
(-0 0 -0)
(-0 0 -0)
(-0 3.435423401e-07 3.435423121e-07)
(-0 6.636360446e-07 6.636360411e-07)
(-0 1.008562129e-06 8.400538968e-14)
(-0 0 0)
(-0 -0 0)
(-0 -0 0)
(-0 -0 0)
(-0 -5.524509708e-23 5.872651363e-22)
(-0 -0 0)
(-0 -0 0)
(-0 -1.162576541e-06 8.371320143e-14)
(-0 -5.554389039e-07 5.554389135e-07)
(-0 -1.899034189e-06 1.89903393e-06)
(-0 -1.819309296e-13 -4.367076867e-06)
(-0 0 0)
(-0 0 0)
(-0 0 0)
(-0 0 0)
(-0 0 0)
(-0 0 0)
(-0 0 0)
(-0 0 0)
(-0 0 0)
(-0 0 0)
(-0 0 0)
(-0 0 0)
(-0 0 -0)
(-0 0 -0)
(-0 0 -0)
(-0 0 -0)
(-0 0 -0)
(-0 2.30106823e-06 1.474676932e-14)
(-0 3.562571346e-06 3.562571279e-06)
(-0 2.029214226e-06 2.029214302e-06)
(-0 -1.93507853e-06 5.757857978e-14)
(-0 -1.339246439e-06 4.641299019e-14)
(-0 -5.976188024e-07 3.885605141e-14)
(-0 1.517988919e-07 4.436767193e-14)
(-0 8.403255045e-07 5.260888111e-14)
(-0 -2.184005375e-06 2.184005426e-06)
(-0 -3.381754276e-06 3.381754209e-06)
(-0 -3.971356319e-06 -4.457744828e-15)
(-0 -0 -0)
(-0 -1.320541344e-13 -1.009920026e-06)
(-0 0 0)
(-0 0 0)
(-0 0 0)
(-0 0 0)
(-0 0 0)
(-0 0 0)
(-0 0 0)
(-0 0 0)
(-0 0 0)
(-0 0 0)
(-0 0 0)
(-0 0 0)
(-0 0 0)
(-0 0 0)
(-0 0 0)
(-0 0 0)
(-0 0 0)
(-0 0 0)
(-0 0 0)
(-0 2.129694071e-21 2.30468713e-22)
(-0 -6.233349547e-21 1.281899078e-22)
(-0 -0 0)
(-0 -2.318626984e-21 2.250240115e-22)
(-0 0 0)
(-0 1.933915372e-21 2.119709157e-22)
(-0 -3.732901478e-21 4.943150418e-22)
(-0 -0 0)
(-0 -0 0)
(-0 -0 0)
(-0 -1.227190922e-13 6.675149005e-08)
(-0 0 0)
(-0 0 0)
(-0 0 0)
(-0 0 0)
(-0 0 0)
(-0 0 0)
(-0 0 0)
(-0 0 0)
(-0 0 0)
(-0 0 0)
(-0 0 0)
(-0 0 0)
(-0 0 0)
(-0 0 0)
(-0 0 0)
(-0 0 0)
(-0 0 0)
(-0 2.310144717e-06 -1.221696789e-14)
(-0 3.486009619e-06 -3.486009551e-06)
(-0 1.943353914e-06 -1.943353987e-06)
(-0 -1.929861337e-06 -5.332811373e-14)
(-0 -1.322379895e-06 -4.155816902e-14)
(-0 -5.703178717e-07 -3.338438815e-14)
(-0 1.899630201e-07 -3.823920945e-14)
(-0 8.920686296e-07 -4.573121744e-14)
(-0 -1.953865372e-06 -1.953865419e-06)
(-0 -3.077023442e-06 -3.077023371e-06)
(-0 -4.00044396e-06 1.453449571e-14)
(-0 -0 0)
(-0 -1.355504049e-13 1.150498378e-06)
(-0 0 0)
(-0 0 0)
(-0 0 0)
(-0 0 0)
(-0 0 0)
(-0 0 0)
(-0 0 0)
(-0 0 0)
(-0 0 0)
(-0 0 0)
(-0 0 0)
(-0 0 0)
(-0 0 0)
(-0 0 0)
(-0 0 0)
(-0 0 0)
(-0 3.088747863e-07 -3.088747569e-07)
(-0 6.237633042e-07 -6.237632991e-07)
(-0 1.039222074e-06 -8.076384762e-14)
(-0 0 -0)
(-0 -0 -0)
(-0 -0 -0)
(-0 -0 -0)
(-0 -0 -0)
(-0 -0 -0)
(-0 -0 -0)
(-0 -1.098683787e-06 -7.884089877e-14)
(-0 -4.839307559e-07 -4.839307653e-07)
(-0 -1.881144524e-06 -1.881144253e-06)
(-0 -1.879919646e-13 4.586270464e-06)
(-0 0 0)
(-0 0 0)
(-0 0 0)
(-0 0 0)
(-0 0 0)
(-0 0 0)
(-0 0 0)
(-0 0 0)
(-0 0 0)
(-0 0 0)
(-0 0 0)
(-0 0 0)
(-0 0 0)
(-0 0 0)
(-0 0 0)
(-0 3.134156728e-14 5.782508649e-07)
(-0 -7.605637531e-08 7.605636419e-08)
(-0 -0 -0)
(-0 0 -0)
(-0 -0 -0)
(-0 -0 -0)
(-0 -0 -0)
(-0 -0 -0)
(-0 -0 -0)
(-0 -0 -0)
(-0 -0 -0)
(-0 -0 -0)
(-0 0 -0)
(-0 -2.113356348e-06 -2.113356381e-06)
(-0 -1.078839707e-14 5.082485419e-15)
(-0 0 0)
(-0 0 0)
(-0 0 0)
(-0 0 0)
(-0 0 0)
(-0 0 0)
(-0 0 0)
(-0 0 0)
(-0 0 0)
(-0 0 0)
(-0 0 0)
(-0 0 0)
(-0 0 0)
(-0 0 0)
(-0 0 0)
(-0 2.156867801e-07 -2.156867548e-07)
(-0 -2.301295167e-14 -4.73692588e-07)
(-0 -0 -0)
(-0 -0 -0)
(-0 -0 -0)
(-0 -0 -0)
(-0 -0 -0)
(-0 -0 -0)
(-0 -0 -0)
(-0 -0 -0)
(-0 -0 -0)
(-0 -0 -0)
(-0 -0 -0)
(-0 -6.700102866e-14 -3.45957108e-06)
(-0 -2.761467702e-06 -1.023915053e-13)
(-0 0 0)
(-0 0 0)
(-0 0 0)
(-0 0 0)
(-0 0 0)
(-0 0 0)
(-0 0 0)
(-0 0 0)
(-0 0 0)
(-0 0 0)
(-0 0 0)
(-0 0 0)
(-0 0 0)
(-0 0 0)
(-0 5.149756658e-14 8.669117512e-08)
(-0 -9.500731353e-08 9.500727046e-08)
(-0 -0 -0)
(-0 -0 -0)
(-0 -0 -0)
(-0 -0 -0)
(-0 -0 -0)
(-0 -0 -0)
(-0 -0 -0)
(-0 -0 -0)
(-0 -0 -0)
(-0 -0 -0)
(-0 -0 -0)
(-0 -0 -0)
(-0 -0 -0)
(-0 -1.960163939e-06 -3.651105282e-14)
(-0 0 0)
(-0 0 0)
(-0 0 0)
(-0 0 0)
(-0 0 0)
(-0 0 0)
(-0 0 0)
(-0 0 0)
(-0 0 0)
(-0 0 0)
(-0 0 0)
(-0 0 0)
(-0 0 0)
(-0 0 -0)
(-0 3.17661145e-14 -6.948873014e-07)
(-0 -1.430973552e-14 -6.952446434e-07)
(-0 -0 -0)
(-0 -0 -0)
(-0 -0 -0)
(-0 -0 -0)
(-0 -0 -0)
(-0 -0 -0)
(-0 -0 -0)
(-0 -0 -0)
(-0 -0 -0)
(-0 -0 -0)
(-0 -0 -0)
(-0 -0 -0)
(-0 -0 -0)
(-0 -0 -0)
(-0 0 0)
(-0 0 0)
(-0 0 0)
(-0 0 0)
(-0 0 0)
(-0 0 0)
(-0 0 0)
(-0 0 0)
(-0 0 0)
(-0 0 0)
(-0 0 0)
(-0 0 0)
(-0 0 0)
(-0 0 -0)
(-0 3.185102379e-14 -1.951087454e-08)
(-0 -1.843283731e-14 -1.943940614e-08)
(-0 -0 -0)
(-0 -0 -0)
(-0 -0 -0)
(-0 -0 -0)
(-0 -0 -0)
(-0 -0 -0)
(-0 -0 -0)
(-0 -0 -0)
(-0 -0 -0)
(-0 -0 -0)
(-0 -0 -0)
(-0 -0 -0)
(-0 -0 -0)
(-0 -0 -0)
(-0 0 0)
(-0 0 0)
(-0 0 0)
(-0 0 0)
(-0 0 0)
(-0 0 0)
(-0 0 0)
(-0 0 0)
(-0 0 0)
(-0 0 0)
(-0 0 0)
(-0 0 0)
(-0 0 0)
(-0 0 0)
(-0 3.161377689e-14 4.095139602e-08)
(-0 -1.840286924e-14 4.095139602e-08)
(-0 -0 0)
(-0 -0 0)
(-0 -0 0)
(-0 -0 0)
(-0 -0 0)
(-0 -0 0)
(-0 -0 0)
(-0 -0 0)
(-0 -0 0)
(-0 -0 0)
(-0 -0 0)
(-0 -0 0)
(-0 -0 0)
(-0 -0 0)
(-0 0 0)
(-0 0 0)
(-0 0 0)
(-0 0 0)
(-0 0 0)
(-0 0 0)
(-0 0 0)
(-0 0 0)
(-0 0 0)
(-0 0 0)
(-0 0 0)
(-0 0 0)
(-0 0 0)
(-0 0 0)
(-0 3.098694549e-14 7.146125812e-07)
(-0 -1.420984207e-14 7.148269864e-07)
(-0 -0 0)
(-0 -0 0)
(-0 -0 0)
(-0 -0 0)
(-0 -0 0)
(-0 -0 0)
(-0 -0 0)
(-0 -0 0)
(-0 -0 0)
(-0 -0 0)
(-0 -0 0)
(-0 -0 0)
(-0 -0 0)
(-0 -0 0)
(-0 0 0)
(-0 0 0)
(-0 0 0)
(-0 0 0)
(-0 0 0)
(-0 0 0)
(-0 0 0)
(-0 0 0)
(-0 0 0)
(-0 0 0)
(-0 0 -0)
(-0 0 -0)
(-0 0 -0)
(-0 0 -0)
(-0 4.990176871e-14 -2.172639508e-08)
(-0 -7.661228485e-08 -7.661224132e-08)
(-0 -0 0)
(-0 -0 0)
(-0 -0 0)
(-0 -0 0)
(-0 -0 0)
(-0 -0 0)
(-0 -0 0)
(-0 -0 0)
(-0 -0 0)
(-0 -0 0)
(-0 -0 0)
(-0 -0 0)
(-0 -0 0)
(-0 -1.964023233e-06 3.754245257e-14)
(-0 0 0)
(-0 0 0)
(-0 0 0)
(-0 0 0)
(-0 0 0)
(-0 0 0)
(-0 0 0)
(-0 0 0)
(-0 0 0)
(-0 0 -0)
(-0 0 -0)
(-0 0 -0)
(-0 0 -0)
(-0 0 -0)
(-0 0 -0)
(-0 2.160405294e-07 2.160405066e-07)
(-0 -2.228123209e-14 5.027802288e-07)
(-0 -0 0)
(-0 -0 0)
(-0 -0 0)
(-0 -0 0)
(-0 -0 0)
(-0 -0 0)
(-0 -0 0)
(-0 -0 0)
(-0 -0 0)
(-0 -0 0)
(-0 -0 0)
(-0 -6.763285459e-14 3.494662067e-06)
(-0 -2.76332588e-06 1.039304628e-13)
(-0 0 -0)
(-0 0 -0)
(-0 0 -0)
(-0 0 -0)
(-0 0 0)
(-0 0 0)
(-0 0 0)
(-0 0 0)
(-0 0 0)
(-0 0 -0)
(-0 0 -0)
(-0 0 -0)
(-0 0 -0)
(-0 0 -0)
(-0 0 -0)
(-0 2.850209617e-14 -4.415318062e-07)
(-0 -4.563382768e-08 -4.563381602e-08)
(-0 -0 0)
(-0 0 0)
(-0 -0 0)
(-0 -0 0)
(-0 -0 0)
(-0 -0 0)
(-0 -0 0)
(-0 -0 0)
(-0 -0 0)
(-0 -0 0)
(-0 0 0)
(-0 -2.147821759e-06 2.147821792e-06)
(-0 -1.077117107e-14 -4.914809647e-15)
(-0 0 -0)
(-0 0 -0)
(-0 0 -0)
(-0 0 -0)
(-0 0 -0)
(-0 0 -0)
(-0 0 0)
(-0 0 0)
(-0 0 0)
(-0 0 0)
(-0 0 -0)
(-0 0 -0)
(-0 0 -0)
(-0 0 -0)
(-0 0 -0)
(-0 0 -0)
(-0 3.787152487e-07 3.787152285e-07)
(-0 6.673756947e-07 6.673756885e-07)
(-0 1.115550331e-06 8.370321186e-14)
(-0 0 0)
(-0 -0 0)
(-0 -0 0)
(-0 -0 0)
(-0 -0 0)
(-0 -0 0)
(-0 -0 0)
(-0 -1.163720036e-06 8.190263242e-14)
(-0 -5.339106563e-07 5.339106648e-07)
(-0 -1.949064629e-06 1.949064361e-06)
(-0 -1.876023796e-13 -4.524879104e-06)
(-0 0 -0)
(-0 0 -0)
(-0 0 -0)
(-0 0 -0)
(-0 0 -0)
(-0 0 -0)
(-0 0 -0)
(-0 0 0)
(-0 0 0)
(-0 0 0)
(-0 0 0)
(-0 0 0)
(-0 0 0)
(-0 0 0)
(-0 0 -0)
(-0 0 -0)
(-0 0 0)
(-0 2.247466926e-06 2.557521835e-14)
(-0 3.819343711e-06 3.81934365e-06)
(-0 2.190827693e-06 2.190827772e-06)
(-0 -1.878475554e-06 6.167421057e-14)
(-0 -1.296222459e-06 4.94622374e-14)
(-0 -5.672447303e-07 4.102373908e-14)
(-0 1.725961978e-07 4.578865618e-14)
(-0 8.549765275e-07 5.341552041e-14)
(-0 -2.175111075e-06 2.175111127e-06)
(-0 -3.361742101e-06 3.361742036e-06)
(-0 -4.034748794e-06 -5.194458949e-15)
(-0 -0 -0)
(-0 -1.363620394e-13 -1.07245488e-06)
(-0 0 -0)
(-0 0 -0)
(-0 0 -0)
(-0 0 -0)
(-0 0 -0)
(-0 0 -0)
(-0 0 -0)
(-0 0 0)
(-0 0 0)
(-0 0 0)
(-0 0 0)
(-0 0 0)
(-0 0 0)
(-0 0 0)
(-0 0 0)
(-0 0 0)
(-0 0 0)
(-0 0 0)
(-0 0 0)
(-0 8.038294687e-22 7.567425559e-22)
(-0 -6.438855988e-21 9.660797945e-22)
(-0 -2.142108694e-21 4.056657245e-22)
(-0 -7.321083856e-23 2.78442385e-23)
(-0 2.751081697e-22 3.576654498e-22)
(-0 7.394152791e-22 1.703907775e-22)
(-0 -7.104005207e-22 1.480178437e-22)
(-0 -0 0)
(-0 -0 0)
(-0 -0 0)
(-0 -1.268971354e-13 3.716357048e-08)
(-0 0 -0)
(-0 0 -0)
(-0 0 -0)
(-0 0 -0)
(-0 0 -0)
(-0 0 -0)
(-0 0 -0)
(-0 0 -0)
(-0 0 0)
(-0 0 0)
(-0 0 0)
(-0 0 0)
(-0 0 0)
(-0 0 0)
(-0 0 0)
(-0 0 0)
(-0 0 0)
(-0 2.270050942e-06 -8.540889219e-16)
(-0 3.127761379e-06 -3.127761308e-06)
(-0 1.709019441e-06 -1.709019509e-06)
(-0 -1.965738476e-06 -4.69124574e-14)
(-0 -1.360043745e-06 -3.654851284e-14)
(-0 -6.127701043e-07 -2.950352797e-14)
(-0 1.44223241e-07 -3.528985551e-14)
(-0 8.479726238e-07 -4.354854592e-14)
(-0 -1.943404464e-06 -1.943404509e-06)
(-0 -3.08066202e-06 -3.080661947e-06)
(-0 -4.121940248e-06 1.576817975e-14)
(-0 -0 0)
(-0 -1.406224945e-13 1.150998657e-06)
(-0 0 -0)
(-0 0 -0)
(-0 0 -0)
(-0 0 -0)
(-0 0 -0)
(-0 0 -0)
(-0 0 -0)
(-0 0 -0)
(-0 0 0)
(-0 0 0)
(-0 0 0)
(-0 0 0)
(-0 0 0)
(-0 0 0)
(-0 0 0)
(-0 0 0)
(-0 1.762183316e-07 -1.762182943e-07)
(-0 4.985861422e-07 -4.985861391e-07)
(-0 9.034321053e-07 -7.570674202e-14)
(-0 0 -0)
(-0 -0 -0)
(-0 -0 -0)
(-0 -0 -0)
(-0 -0 -0)
(-0 -0 -0)
(-0 -0 -0)
(-0 -1.138706094e-06 -7.906815635e-14)
(-0 -5.23247604e-07 -5.232476122e-07)
(-0 -2.013952595e-06 -2.013952314e-06)
(-0 -1.952392334e-13 4.698904669e-06)
)
;

boundaryField
{
    lowerWall
    {
        type            calculated;
        value           nonuniform 0();
    }
    atmosphere
    {
        type            calculated;
        value           uniform (-0 -0 0);
    }
    rightWall
    {
        type            empty;
    }
    leftWall
    {
        type            empty;
    }
    frontAndBack
    {
        type            calculated;
        value           nonuniform 0();
    }
    procBoundary2to0
    {
        type            processor;
        value           nonuniform List<vector> 
30
(
(-0 0 0)
(-0 0 0)
(-0 0 0)
(-0 0 0)
(-0 0 0)
(-0 0 0)
(-0 0 0)
(-0 0 0)
(-0 0 0)
(-0 0 0)
(-0 0 0)
(-0 0 -0)
(-0 0 -0)
(-0 0 -0)
(-0 0 -0)
(-0 3.281499562e-14 -4.982062513e-07)
(-0 -6.109778172e-08 -6.109776782e-08)
(-0 -0 0)
(-0 0 0)
(-0 -0 0)
(-0 -0 0)
(-0 -0 0)
(-0 -0 0)
(-0 -0 0)
(-0 -0 0)
(-0 -0 0)
(-0 -0 0)
(-0 0 0)
(-0 -2.140291923e-06 2.140291961e-06)
(-0 -1.047157559e-14 -4.316619231e-15)
)
;
    }
    procBoundary2to3
    {
        type            processor;
        value           nonuniform List<vector> 
20
(
(-0 -3.104188676e-14 -2.584583374e-06)
(-0 -1.695940886e-14 -1.009348274e-06)
(-0 -1.367790942e-14 6.668002134e-08)
(-0 -1.712173572e-14 1.149926626e-06)
(-0 -3.147142852e-14 2.749746857e-06)
(-0 -1.411344477e-13 6.507198224e-07)
(-0 -7.890832614e-14 -1.74454375e-06)
(-0 -0 -0)
(-0 -0 -0)
(-0 -0 -0)
(-0 -0 0)
(-0 -0 0)
(-0 -0 0)
(-0 -7.876348071e-14 1.789497376e-06)
(-0 -1.412068705e-13 -6.01692497e-07)
(-0 -3.162376599e-14 -2.691285702e-06)
(-0 -1.730903592e-14 -1.071954597e-06)
(-0 -1.397009767e-14 3.709210191e-08)
(-0 -1.746387079e-14 1.150498373e-06)
(-0 -3.202084242e-14 2.78498078e-06)
)
;
    }
    procBoundary2to4
    {
        type            processor;
        value           nonuniform List<vector> 
30
(
(-0 0 -0)
(-0 0 -0)
(-0 0 -0)
(-0 0 -0)
(-0 0 -0)
(-0 0 -0)
(-0 0 -0)
(-0 0 -0)
(-0 0 0)
(-0 0 0)
(-0 0 0)
(-0 0 0)
(-0 0 0)
(-0 0 0)
(-0 0 0)
(-0 3.364660846e-14 8.721289463e-07)
(-0 -2.06135507e-07 2.061354992e-07)
(-0 -0 -0)
(-0 -1.037508247e-23 -3.150832737e-22)
(-0 -0 -0)
(-0 -0 -0)
(-0 -0 -0)
(-0 -0 -0)
(-0 -1.056307542e-22 -4.518392753e-22)
(-0 -0 -0)
(-0 -0 -0)
(-0 -0 -0)
(-0 1.814841349e-22 -3.982435501e-22)
(-0 -2.21306347e-06 -2.2130635e-06)
(-0 -1.124239567e-14 5.429602517e-15)
)
;
    }
}


// ************************************************************************* //
