/*--------------------------------*- C++ -*----------------------------------*\
  =========                 |
  \\      /  F ield         | OpenFOAM: The Open Source CFD Toolbox
   \\    /   O peration     | Website:  https://openfoam.org
    \\  /    A nd           | Version:  6
     \\/     M anipulation  |
\*---------------------------------------------------------------------------*/
FoamFile
{
    version     2.0;
    format      ascii;
    class       volScalarField;
    location    "0.0058";
    object      Num_divU;
}
// * * * * * * * * * * * * * * * * * * * * * * * * * * * * * * * * * * * * * //

dimensions      [0 0 -1 0 0 0 0];

internalField   nonuniform List<scalar> 
3600
(
-1.252478414e-09
-8.382407491e-09
-2.23709893e-08
-3.76789776e-08
-5.538746131e-08
-7.572102724e-08
-9.898757941e-08
-1.253547281e-07
-1.547986371e-07
-1.871322931e-07
-2.219249508e-07
-2.585405335e-07
-2.961823944e-07
-3.341544596e-07
-3.718748058e-07
-4.0818751e-07
-4.39327992e-07
-4.567985645e-07
-4.49451772e-07
-4.162690601e-07
-3.782502259e-07
-3.454223996e-07
-3.061820144e-07
-2.632730934e-07
-2.366803829e-07
-2.507195333e-07
-2.915232104e-07
-3.649896953e-07
-4.024351972e-07
-7.391601021e-08
1.645868026e-11
2.085643528e-11
2.081465655e-11
1.82474562e-11
1.51351386e-11
1.206067354e-11
9.667338253e-12
7.778715067e-12
6.515764488e-12
5.519533286e-12
4.823834853e-12
4.171440642e-12
3.659794657e-12
3.141530877e-12
2.732063114e-12
2.326265959e-12
2.022965365e-12
1.747518929e-12
1.596959597e-12
1.505862096e-12
1.489351418e-12
1.408312409e-12
1.262991048e-12
1.100208458e-12
1.08437906e-12
1.075138093e-12
1.328852076e-12
6.027957402e-13
1.945374776e-12
2.947121817e-13
-1.055091124e-09
-7.98395517e-09
-2.190074931e-08
-3.723383056e-08
-5.506300073e-08
-7.56594606e-08
-9.947467704e-08
-1.267748813e-07
-1.577640145e-07
-1.923787719e-07
-2.303325753e-07
-2.708385971e-07
-3.1278158e-07
-3.548027266e-07
-3.959612209e-07
-4.357025708e-07
-4.726717776e-07
-5.003302412e-07
-5.026897909e-07
-4.678446829e-07
-4.263361861e-07
-3.919186393e-07
-3.39430951e-07
-2.716117219e-07
-2.062068707e-07
-1.83254595e-07
-1.922075467e-07
-2.488024334e-07
-3.619067516e-07
-6.144953444e-08
1.698943098e-11
2.181506972e-11
2.153615628e-11
1.91688296e-11
1.576756107e-11
1.277582824e-11
1.007668699e-11
8.219470265e-12
6.716457877e-12
5.78134272e-12
4.935474339e-12
4.366897218e-12
3.754472777e-12
3.309995978e-12
2.819308287e-12
2.467808447e-12
2.096595471e-12
1.861403233e-12
1.663105502e-12
1.607471822e-12
1.559055272e-12
1.490901292e-12
1.314285885e-12
1.154385566e-12
1.131807726e-12
1.238285337e-12
1.098719845e-12
1.606987431e-12
3.799893903e-13
1.190976356e-12
-9.76766355e-10
-8.146149168e-09
-2.269433089e-08
-3.878007321e-08
-5.755073052e-08
-7.943221756e-08
-1.049754909e-07
-1.346933748e-07
-1.689522266e-07
-2.079212424e-07
-2.512946228e-07
-2.98125838e-07
-3.466188576e-07
-3.945771761e-07
-4.404107455e-07
-4.852926455e-07
-5.328903425e-07
-5.819376164e-07
-6.020062266e-07
-5.47163857e-07
-4.900176789e-07
-4.610480302e-07
-3.882125333e-07
-2.810129106e-07
-1.525395776e-07
-9.63303098e-08
-8.748017959e-08
-1.227779933e-07
-2.333738027e-07
5.1636396e-08
1.721838544e-11
2.155426162e-11
2.145838878e-11
1.894645386e-11
1.584892752e-11
1.27095483e-11
1.015213179e-11
8.08809093e-12
6.668220009e-12
5.584779009e-12
4.845200918e-12
4.195035235e-12
3.690369924e-12
3.189518219e-12
2.782999758e-12
2.383182734e-12
2.07212445e-12
1.797527656e-12
1.641861258e-12
1.560881643e-12
1.541981463e-12
1.455916374e-12
1.287644081e-12
1.12289986e-12
1.11935786e-12
1.154335036e-12
1.37061561e-12
4.797740591e-13
2.421426122e-12
7.165237536e-15
-9.999634731e-10
-8.73714997e-09
-2.444296598e-08
-4.182033063e-08
-6.219746867e-08
-8.612440356e-08
-1.143734753e-07
-1.476753326e-07
-1.866937424e-07
-2.318226858e-07
-2.829455403e-07
-3.389597808e-07
-3.973665183e-07
-4.541267634e-07
-5.054281781e-07
-5.529684207e-07
-6.106211096e-07
-6.991138751e-07
-7.668941332e-07
-6.636762888e-07
-5.727469251e-07
-5.680930157e-07
-4.630960412e-07
-3.092008074e-07
-7.863658644e-08
7.292262008e-09
3.184585788e-08
4.938100101e-08
-3.433283542e-08
2.436144246e-07
1.730500087e-11
2.18251137e-11
2.128039257e-11
1.872437531e-11
1.552299166e-11
1.253941184e-11
9.919790942e-12
7.91976908e-12
6.400879842e-12
5.363266259e-12
4.572115232e-12
3.994624801e-12
3.476244661e-12
3.046337896e-12
2.631439846e-12
2.283844064e-12
1.961732587e-12
1.722123906e-12
1.556067439e-12
1.49926166e-12
1.473102054e-12
1.3994332e-12
1.227625241e-12
1.068090754e-12
1.059116758e-12
1.215629953e-12
9.304370157e-13
1.963005313e-12
-2.41346568e-13
1.360242347e-12
-1.127327802e-09
-9.771012198e-09
-2.707960343e-08
-4.624862828e-08
-6.878886082e-08
-9.544884846e-08
-1.272131292e-07
-1.650927453e-07
-2.100421309e-07
-2.628366733e-07
-3.23800819e-07
-3.922472681e-07
-4.653328196e-07
-5.363467959e-07
-5.949818605e-07
-6.36728944e-07
-6.8617413e-07
-8.359071295e-07
-1.031803592e-06
-8.373033872e-07
-6.931290715e-07
-7.145734747e-07
-5.478825716e-07
-3.650223537e-07
-1.067642486e-08
1.008524063e-07
1.411203969e-07
3.062286567e-07
2.294235252e-07
5.070888498e-07
1.754237386e-11
2.129598725e-11
2.05467858e-11
1.783638497e-11
1.482353198e-11
1.195420759e-11
9.516840563e-12
7.538458341e-12
6.08595947e-12
5.028434692e-12
4.291503823e-12
3.717744834e-12
3.26113006e-12
2.84449142e-12
2.480221152e-12
2.140737734e-12
1.853184636e-12
1.615219421e-12
1.470658307e-12
1.413250214e-12
1.399999786e-12
1.326018794e-12
1.162133778e-12
1.011909056e-12
1.022185767e-12
1.044954955e-12
1.360244202e-12
2.776549513e-14
2.818631323e-12
-2.685174308e-13
-1.376122337e-09
-1.123151468e-08
-3.052630869e-08
-5.188515667e-08
-7.70604049e-08
-1.070095771e-07
-1.429579697e-07
-1.861496195e-07
-2.378077633e-07
-2.991255957e-07
-3.712621464e-07
-4.550368454e-07
-5.491222175e-07
-6.454222253e-07
-7.215877724e-07
-7.476449678e-07
-7.256639848e-07
-9.318900306e-07
-1.353145839e-06
-1.380505155e-06
-1.429833452e-06
-6.084245772e-07
-4.628008689e-07
-1.970246244e-07
-6.104280388e-07
-9.835316096e-08
2.418167919e-07
7.490274524e-07
6.053395599e-07
8.362583557e-07
2.340911737e-11
2.644624946e-11
2.271075047e-11
1.810751307e-11
1.427255763e-11
1.128216628e-11
8.89588263e-12
7.04106578e-12
5.64221012e-12
4.649714457e-12
3.937680454e-12
3.417555523e-12
2.990745257e-12
2.624428471e-12
2.286659762e-12
1.984921796e-12
1.713823433e-12
1.49943623e-12
1.363150874e-12
1.31934497e-12
1.311255811e-12
1.247310284e-12
1.090257373e-12
9.437305791e-13
9.426599524e-13
1.129228823e-12
7.382425553e-13
2.199294744e-12
-8.45801227e-13
1.499914083e-12
-1.757952593e-09
-1.311275992e-08
-3.46823587e-08
-5.853543271e-08
-8.669582963e-08
-1.203768651e-07
-1.610352046e-07
-2.100830066e-07
-2.688347823e-07
-3.386606222e-07
-4.215512142e-07
-5.209142751e-07
-6.411017869e-07
-7.806621365e-07
-9.088664575e-07
-9.478827285e-07
-7.306607391e-07
-1.011962122e-06
-8.390235764e-07
-2.147162493e-06
-2.437955141e-06
-5.536695401e-07
-1.20283643e-07
-8.464369706e-08
-1.395768265e-06
-3.936446452e-07
5.797884717e-07
1.749152163e-06
1.314003922e-06
1.242623283e-06
2.500726449e-11
3.007622547e-11
2.536468971e-11
1.902307578e-11
1.415130597e-11
1.075387991e-11
8.316630235e-12
6.501824456e-12
5.174604882e-12
4.228057825e-12
3.569849216e-12
3.088456601e-12
2.710955795e-12
2.381038014e-12
2.084227323e-12
1.809681735e-12
1.566457475e-12
1.368619147e-12
1.248798875e-12
1.214425265e-12
1.21659438e-12
1.159172352e-12
1.011143388e-12
8.789446109e-13
9.01736099e-13
9.009283927e-13
1.318748949e-12
-4.235714916e-13
3.150208238e-12
-5.340726305e-13
-2.295584286e-09
-1.541462602e-08
-3.944760286e-08
-6.595767784e-08
-9.730341057e-08
-1.350170577e-07
-1.808341583e-07
-2.362873483e-07
-3.025217817e-07
-3.803793576e-07
-4.713263201e-07
-5.80204883e-07
-7.200344531e-07
-9.13430246e-07
-1.150463743e-06
-1.328412148e-06
-1.184329831e-06
-5.667734919e-07
2.62723615e-07
-2.232511269e-06
-1.945170406e-06
6.212647495e-08
4.808275537e-07
3.411498787e-07
-1.178287255e-06
-2.737647001e-06
1.073565104e-06
3.905137985e-06
3.689372277e-06
1.898335831e-06
-3.947732662e-13
1.803114545e-11
2.078866934e-11
1.69849234e-11
1.281217496e-11
9.661906522e-12
7.399179229e-12
5.747469243e-12
4.545923101e-12
3.700462371e-12
3.11429669e-12
2.698576743e-12
2.373991373e-12
2.096255675e-12
1.841003049e-12
1.604825473e-12
1.38979871e-12
1.216197216e-12
1.113621094e-12
1.094379739e-12
1.107393384e-12
1.061119442e-12
9.232648382e-13
7.92084541e-13
7.955163928e-13
1.00700749e-12
5.24822041e-13
2.378921741e-12
-1.425622475e-12
1.599117802e-12
-3.032261451e-09
-1.818309001e-08
-4.473928189e-08
-7.38666044e-08
-1.083406061e-07
-1.50150467e-07
-2.01469133e-07
-2.641295384e-07
-3.391256469e-07
-4.260413668e-07
-5.229303867e-07
-6.29154914e-07
-7.575955122e-07
-9.70539702e-07
-1.343564579e-06
-1.921185225e-06
-2.51733916e-06
3.816823237e-07
2.711206368e-06
2.691152297e-12
1.380567007e-11
2.042777192e-11
2.661568241e-11
2.727189296e-11
-2.524148335e-12
-9.50772086e-12
3.66200443e-06
1.268903506e-06
4.393332633e-06
3.728294809e-06
1.277488763e-11
1.969692405e-11
1.943924748e-11
1.543714989e-11
1.145878698e-11
8.511311098e-12
6.429719145e-12
4.936200267e-12
3.866686944e-12
3.122720274e-12
2.620819469e-12
2.273258464e-12
2.011260189e-12
1.786348688e-12
1.578988744e-12
1.381053061e-12
1.198704323e-12
1.050618742e-12
9.696912513e-13
9.659160047e-13
9.897178606e-13
9.513091601e-13
8.223032398e-13
7.077941328e-13
7.425574855e-13
7.212733823e-13
1.238495134e-12
-8.652835824e-13
3.398807324e-12
-7.822133868e-13
-4.0783347e-09
-2.15857475e-08
-5.056894233e-08
-8.19481377e-08
-1.190587823e-07
-1.645294038e-07
-2.212734654e-07
-2.919755637e-07
-3.784604803e-07
-4.801479547e-07
-5.906450877e-07
-6.921596418e-07
-7.530449694e-07
-7.840063655e-07
-1.221405781e-06
-2.476884635e-06
-4.225119414e-06
-1.847707317e-11
-1.009046253e-11
3.192027659e-13
7.488783103e-12
1.185542056e-11
1.869836769e-11
1.138477084e-11
-8.84652718e-13
-3.533243946e-11
-2.816222995e-11
1.060216049e-11
6.127427985e-06
-6.788986459e-13
-4.774429139e-11
1.320096029e-11
1.492706238e-11
1.218618319e-11
9.125973533e-12
6.766815206e-12
5.075352305e-12
3.857757586e-12
2.990087407e-12
2.398850166e-12
2.012297789e-12
1.759913656e-12
1.575960621e-12
1.420016194e-12
1.26958261e-12
1.120573082e-12
9.771731898e-13
8.621205488e-13
8.066794577e-13
8.213697344e-13
8.575663248e-13
8.299212979e-13
7.125775991e-13
6.01537432e-13
6.144982414e-13
8.545923182e-13
2.998562812e-13
2.504605505e-12
-1.95789019e-12
1.660532691e-12
-5.728998337e-09
-2.610773585e-08
-5.721327456e-08
-8.998966173e-08
-1.285511249e-07
-1.763355205e-07
-2.372069442e-07
-3.153647018e-07
-4.154099449e-07
-5.419105517e-07
-6.96191676e-07
-8.652515911e-07
-9.893034011e-07
-1.065738827e-06
-7.201637702e-07
3.203236936e-07
-6.542611751e-12
-9.245001758e-12
-6.938320903e-12
-5.068515713e-13
3.751789036e-12
6.003019776e-12
1.021371355e-11
1.161773982e-11
-8.902463854e-12
-1.973274985e-11
6.43153037e-14
-1.39324765e-11
-1.643219553e-11
-2.743028901e-11
-1.173370755e-11
6.597026062e-12
8.645039283e-12
7.728812621e-12
6.099458388e-12
4.644840563e-12
3.509531269e-12
2.649856772e-12
2.027805167e-12
1.609989833e-12
1.356018262e-12
1.206922218e-12
1.111412049e-12
1.02868122e-12
9.419433925e-13
8.444069096e-13
7.453536366e-13
6.663564283e-13
6.392862913e-13
6.721141407e-13
7.187274256e-13
6.991884693e-13
5.953800233e-13
5.100401438e-13
5.671995884e-13
5.349437934e-13
1.146738588e-12
-1.2675039e-12
3.567895477e-12
-1.003232883e-12
-8.823510426e-09
-3.295736535e-08
-6.552212966e-08
-9.81016683e-08
-1.360405777e-07
-1.835800381e-07
-2.452364178e-07
-3.261931987e-07
-4.335572514e-07
-5.789985786e-07
-7.833114839e-07
-1.079243195e-06
-1.430252634e-06
-9.003774823e-07
3.942444628e-07
2.509703747e-06
-3.884455946e-12
-7.986457766e-12
-5.469901474e-12
-9.963835215e-13
1.320787646e-12
1.007890229e-12
1.870124337e-12
2.881648664e-12
-2.859045144e-12
-1.3539072e-11
-6.813016049e-12
-1.014306187e-11
-2.261146562e-11
-1.109974086e-11
-2.289970961e-11
-3.55399454e-13
2.826177465e-12
3.288339977e-12
2.824594173e-12
2.214208382e-12
1.66507141e-12
1.221924649e-12
8.952031379e-13
6.946129697e-13
5.997549369e-13
5.780014792e-13
5.842622738e-13
5.897733391e-13
5.753068022e-13
5.403904832e-13
4.922246865e-13
4.554780178e-13
4.590174874e-13
5.122061987e-13
5.714387637e-13
5.66631738e-13
4.836043475e-13
4.100000833e-13
4.428664193e-13
7.106428191e-13
9.108200898e-14
2.575560758e-12
-2.42356287e-12
1.673793254e-12
-1.589318652e-08
-4.497660689e-08
-7.735400498e-08
-1.069654957e-07
-1.412909652e-07
-1.85224438e-07
-2.430764869e-07
-3.190591173e-07
-4.177112633e-07
-5.445046138e-07
-7.070125031e-07
-9.237235671e-07
-1.477227788e-06
-2.256412093e-06
-2.260160304e-06
-2.982549744e-12
-7.802018246e-12
-9.681233933e-12
-7.539156065e-12
-4.091432027e-12
-2.910127907e-12
-3.703023344e-12
-3.232892431e-12
-9.949442242e-13
-2.443972804e-12
-5.245260215e-12
-5.166150208e-12
-1.101197617e-11
-1.205979452e-11
-1.770198869e-11
-1.658344468e-11
-5.563650669e-12
-2.502759195e-12
-1.053916785e-12
-4.863803213e-13
-2.864625291e-13
-2.32582093e-13
-2.431914052e-13
-2.564097203e-13
-2.357869042e-13
-1.64648695e-13
-6.105867458e-14
5.066631001e-14
1.424341404e-13
2.037018373e-13
2.309140751e-13
2.368433632e-13
2.427452484e-13
2.783774812e-13
3.50569272e-13
4.225358375e-13
4.337457937e-13
3.741697958e-13
3.322707096e-13
4.112471683e-13
3.595964132e-13
1.029902687e-12
-1.631394048e-12
3.625982708e-12
-1.200834078e-12
-3.5519922e-08
-6.874544726e-08
-9.594497876e-08
-1.176303759e-07
-1.445223084e-07
-1.816595629e-07
-2.326991617e-07
-3.009554121e-07
-3.896767569e-07
-5.014282866e-07
-6.366120683e-07
-8.110020569e-07
-1.577651579e-06
-2.554765626e-06
-2.030434907e-06
-7.910346114e-12
-1.275769736e-11
-1.441652597e-11
-1.282208447e-11
-1.036225709e-11
-9.228204046e-12
-9.036683265e-12
-6.518021498e-12
-8.610042372e-13
3.026588576e-12
2.713681243e-12
2.086023679e-12
-2.453030414e-12
-9.119923019e-12
-8.958703609e-12
-2.168220534e-11
-9.686360316e-12
-6.701267445e-12
-4.868343494e-12
-3.688104715e-12
-2.857653048e-12
-2.247655531e-12
-1.814495039e-12
-1.491616141e-12
-1.226674103e-12
-9.780649982e-13
-7.384328715e-13
-5.186324103e-13
-3.338070764e-13
-1.945515517e-13
-9.835125572e-14
-3.615911424e-14
1.637741644e-14
8.451879178e-14
1.788644012e-13
2.69033743e-13
3.037090926e-13
2.70818996e-13
2.368493056e-13
2.739552162e-13
5.400661925e-13
-1.531657892e-13
2.557337385e-12
-2.837289851e-12
1.635515067e-12
-9.410906352e-08
-1.177578846e-07
-1.250188449e-07
-1.30202799e-07
-1.451021478e-07
-1.725371814e-07
-2.144523304e-07
-2.73899835e-07
-3.565562207e-07
-4.728608716e-07
-6.39486212e-07
-8.626159068e-07
-8.070974584e-07
-8.328807759e-07
1.21527573e-08
-1.170188206e-11
-1.814667807e-11
-2.061369172e-11
-1.861147469e-11
-1.606793319e-11
-1.489325126e-11
-1.217809075e-11
-5.06790096e-12
3.794048904e-12
1.02971878e-11
1.328355427e-11
9.330634629e-12
4.03203342e-12
-3.823844371e-13
-1.261799221e-11
-1.440062372e-11
-1.204411132e-11
-1.001598298e-11
-8.177349087e-12
-6.627252043e-12
-5.290284923e-12
-4.204323538e-12
-3.353712598e-12
-2.716634788e-12
-2.214227197e-12
-1.795851872e-12
-1.425070014e-12
-1.099573543e-12
-8.251298367e-13
-6.068464919e-13
-4.435472772e-13
-3.223125703e-13
-2.234695144e-13
-1.206061524e-13
-3.382656346e-15
1.076097309e-13
1.642778089e-13
1.550697048e-13
1.414697176e-13
2.199398982e-13
1.033426806e-13
8.54588628e-13
-1.972490291e-12
3.598707284e-12
-1.372586925e-12
-3.531589662e-07
-2.373238655e-07
-1.660394447e-07
-1.412163172e-07
-1.403716366e-07
-1.560194388e-07
-1.854552325e-07
-2.290608673e-07
-2.904053665e-07
-3.778178521e-07
-5.057393369e-07
-6.779803869e-07
-5.662030412e-07
-5.041831886e-07
2.257596114e-07
-1.355392913e-11
-1.928726367e-11
-1.997008902e-11
-2.281882727e-11
-2.23539493e-11
-1.888100492e-11
-1.227484948e-11
-4.44528546e-13
1.110790754e-11
1.699328737e-11
1.367454031e-11
1.640892592e-11
1.131107964e-11
7.847398079e-13
-2.622121501e-13
-1.972500737e-11
-1.63259372e-11
-1.457554491e-11
-1.230466549e-11
-1.006778433e-11
-8.026157931e-12
-6.344866501e-12
-5.012346789e-12
-4.021563998e-12
-3.259351667e-12
-2.660125584e-12
-2.151187485e-12
-1.718582655e-12
-1.350742766e-12
-1.052247811e-12
-8.174004895e-13
-6.352616398e-13
-4.878601338e-13
-3.47991162e-13
-2.032916577e-13
-6.756307403e-14
1.445974231e-14
2.551240907e-14
1.368410479e-14
2.037040269e-14
2.729345895e-13
-3.9353801e-13
2.525855703e-12
-3.194892738e-12
1.647731002e-12
-4.042022168e-07
-2.580817553e-07
-1.672582311e-07
-1.331438912e-07
-1.247644187e-07
-1.312677704e-07
-1.473875395e-07
-1.701596896e-07
-1.972400649e-07
-2.252862172e-07
-2.478737319e-07
-2.730436268e-07
-8.696389641e-07
-1.546560949e-06
-1.295171322e-06
-1.019590102e-11
-1.392447261e-11
-2.5287365e-11
-2.387432011e-11
-2.305341479e-11
-2.028398754e-11
-9.059081894e-12
4.977785076e-12
1.525045296e-11
1.675080122e-11
2.682699004e-11
1.501765671e-11
1.434938762e-11
1.944265581e-11
-1.015667264e-11
-4.19652449e-12
-1.68371878e-11
-1.749743966e-11
-1.573916202e-11
-1.313975108e-11
-1.063783402e-11
-8.404804444e-12
-6.671588644e-12
-5.315843146e-12
-4.32172953e-12
-3.524486151e-12
-2.887073279e-12
-2.336199872e-12
-1.87817502e-12
-1.494652383e-12
-1.188214269e-12
-9.44608073e-13
-7.459679141e-13
-5.695280844e-13
-3.943328563e-13
-2.372563279e-13
-1.318208836e-13
-1.03970323e-13
-9.771329458e-14
-7.668484776e-14
-1.213358098e-13
7.386013587e-13
-2.244704707e-12
3.721378919e-12
-1.437984642e-12
-1.646928405e-07
-1.446210949e-07
-1.175061471e-07
-1.027214676e-07
-9.84642034e-08
-1.01084364e-07
-1.070410037e-07
-1.130761579e-07
-1.160166144e-07
-1.128958245e-07
-1.021149257e-07
-9.014318391e-08
-3.315996494e-07
-5.201923633e-07
-2.089944796e-06
-4.695752179e-12
-1.103627663e-11
-8.072760575e-12
-3.564002336e-11
-3.455076545e-11
-2.179663984e-11
-3.519401715e-12
1.329854191e-11
1.87060834e-11
1.949109928e-11
-3.530322748e-12
4.30767018e-11
3.670015073e-11
-3.179810651e-11
1.947114607e-11
-2.818476932e-11
-3.076193716e-11
-2.715282186e-11
-2.194777532e-11
-1.730510934e-11
-1.350803802e-11
-1.056335426e-11
-8.283308247e-12
-6.60591884e-12
-5.330920342e-12
-4.375045703e-12
-3.58282074e-12
-2.939795142e-12
-2.377050629e-12
-1.923668075e-12
-1.537421694e-12
-1.240294674e-12
-9.859382226e-13
-7.748990521e-13
-5.666164016e-13
-3.862339187e-13
-2.560061822e-13
-2.056707921e-13
-2.274122122e-13
-1.996163539e-13
1.386322654e-13
-5.103060377e-13
2.722740245e-12
-3.329789585e-12
1.550367422e-12
-3.658857906e-08
-5.876718806e-08
-6.413658907e-08
-6.634316629e-08
-6.835486587e-08
-6.973132193e-08
-6.82882595e-08
-6.140971207e-08
-4.694557689e-08
-2.590961213e-08
-7.243512874e-09
-1.322120927e-08
-2.25820923e-08
6.769203628e-07
1.503529596e-06
3.833444327e-06
5.383111978e-12
-6.369491209e-11
-6.225078258e-11
-4.901457782e-11
-2.387591932e-11
-1.182233228e-13
1.330224376e-11
7.281010063e-12
-1.376156047e-11
9.258140143e-11
8.467160265e-11
-5.297292671e-12
4.134882186e-11
-4.341859004e-11
3.681636365e-11
-1.847552126e-11
-2.621158238e-11
-2.339806336e-11
-1.878916724e-11
-1.467638955e-11
-1.145983001e-11
-9.012658142e-12
-7.182261541e-12
-5.833827603e-12
-4.777098747e-12
-3.953488727e-12
-3.233276083e-12
-2.653865875e-12
-2.133736759e-12
-1.735414266e-12
-1.38159832e-12
-1.120342915e-12
-8.697663302e-13
-6.634589601e-13
-4.58569637e-13
-3.296099871e-13
-2.669724758e-13
-2.848019499e-13
-1.635611736e-13
-1.696470758e-13
8.754846822e-13
-2.401118252e-12
3.608743925e-12
-2.438537e-12
5.258180029e-08
7.655645913e-09
-1.749514454e-08
-3.216084828e-08
-3.974661673e-08
-4.053711571e-08
-3.26343402e-08
-1.222630673e-08
2.621836158e-08
9.121124865e-08
1.984625017e-07
3.848939627e-07
7.487733211e-07
1.411700312e-06
3.202855685e-06
2.263980667e-06
-3.953467009e-11
-4.854855367e-11
-7.138070021e-11
-6.150942311e-11
-1.445840227e-11
1.562639855e-11
2.058736656e-11
4.508269189e-12
7.108886814e-11
1.019989643e-10
1.075936983e-10
5.031876649e-11
-2.4281712e-11
9.72044786e-11
-4.202293239e-11
-3.472091532e-11
-3.432687951e-11
-2.756786574e-11
-2.095453021e-11
-1.603827192e-11
-1.245527123e-11
-9.83923211e-12
-7.906221154e-12
-6.445126415e-12
-5.341711133e-12
-4.421777754e-12
-3.680068752e-12
-3.009483331e-12
-2.473750366e-12
-1.99020944e-12
-1.625359514e-12
-1.295778453e-12
-1.045298099e-12
-7.944134562e-13
-5.960787403e-13
-4.274443767e-13
-3.731622251e-13
-3.200885625e-13
-2.758863e-13
1.645790931e-13
-7.892545571e-13
2.996373111e-12
-6.085149664e-12
3.642750659e-12
1.130407027e-07
5.499889877e-08
1.816465403e-08
-4.781544864e-09
-1.640815398e-08
-1.698408286e-08
-4.09427257e-09
2.727026177e-08
8.563033073e-08
1.849309889e-07
3.493823491e-07
6.222002195e-07
1.076834389e-06
1.773626783e-06
2.331458516e-06
2.424682637e-06
-1.222490169e-06
-7.674564424e-11
-8.107608531e-11
-4.466798751e-11
3.604978552e-12
3.601422359e-11
3.200379521e-11
6.925535963e-12
2.853248469e-11
1.498170835e-10
8.992091796e-11
2.491469951e-11
1.550669059e-06
-4.155813153e-11
5.707936867e-11
-4.922950572e-11
-5.427572503e-11
-4.464706713e-11
-3.425689536e-11
-2.62199337e-11
-2.040772015e-11
-1.614460129e-11
-1.298437188e-11
-1.062169018e-11
-8.783038424e-12
-7.316423725e-12
-6.061282863e-12
-5.008323816e-12
-4.085404349e-12
-3.331505708e-12
-2.687266313e-12
-2.180587642e-12
-1.739169106e-12
-1.365191745e-12
-1.012544171e-12
-7.498986462e-13
-5.934820477e-13
-5.622201368e-13
-3.900469354e-13
-5.08760388e-13
1.287449241e-12
-4.60163944e-12
6.847505114e-12
-3.576345107e-12
1.494646087e-07
8.465624979e-08
4.149364858e-08
1.363043002e-08
-8.338878892e-10
-1.852581455e-09
1.330305764e-08
5.010533085e-08
1.174413043e-07
2.280900519e-07
3.99268059e-07
6.505939723e-07
9.971960534e-07
1.428046448e-06
2.000002155e-06
2.925248784e-06
5.881259944e-06
5.954373798e-06
-7.058519242e-07
1.23975985e-11
-6.636864575e-13
2.665350795e-11
4.509852857e-12
-2.461745682e-11
4.68335116e-11
7.788641255e-18
-1.325497307e-06
-1.234770448e-06
-1.378275069e-07
9.414164326e-07
-4.721979718e-11
-4.977252757e-11
-4.155388126e-11
-3.160611232e-11
-2.373023177e-11
-1.821078743e-11
-1.440214548e-11
-1.165525253e-11
-9.589918967e-12
-7.991202868e-12
-6.69633656e-12
-5.62796908e-12
-4.700059172e-12
-3.910413003e-12
-3.216477276e-12
-2.639607833e-12
-2.144187122e-12
-1.744785539e-12
-1.397045458e-12
-1.103554525e-12
-8.406258645e-13
-6.517162815e-13
-5.316710261e-13
-4.781215463e-13
-3.741671918e-13
2.060481997e-14
-6.415164837e-13
1.626439432e-12
-3.276177959e-12
1.197084824e-12
1.642539094e-07
9.804693988e-08
5.270288447e-08
2.25127229e-08
6.060081197e-09
3.682009043e-09
1.816513432e-08
5.500803144e-08
1.226393535e-07
2.322149295e-07
3.955077063e-07
6.186284227e-07
8.885523868e-07
1.157559692e-06
1.415727544e-06
1.757253272e-06
2.189652788e-06
2.654061352e-06
7.158031958e-06
1.642446578e-05
-2.49546079e-11
2.050390245e-11
-5.687254614e-12
8.02517475e-11
6.645840632e-12
9.999817707e-06
-1.808921369e-06
-2.042005935e-06
-3.123520143e-06
-1.756023694e-06
-4.098817236e-11
-4.405264605e-11
-3.754962095e-11
-2.939556211e-11
-2.264797558e-11
-1.783564246e-11
-1.442219746e-11
-1.192194885e-11
-9.984002943e-12
-8.434065343e-12
-7.146139158e-12
-6.048407309e-12
-5.093740016e-12
-4.258239336e-12
-3.533251376e-12
-2.908792983e-12
-2.382332417e-12
-1.938778985e-12
-1.56611125e-12
-1.243155226e-12
-9.727586785e-13
-7.698001588e-13
-6.467671589e-13
-5.431791681e-13
-3.744031102e-13
-4.150919338e-13
5.177303938e-13
-2.634800019e-12
2.686470908e-12
-1.518714182e-12
1.598647746e-07
9.701391911e-08
5.288398429e-08
2.236446608e-08
4.497501561e-09
-2.640138063e-10
1.08083774e-08
4.30189713e-08
1.049026286e-07
2.088705591e-07
3.716652801e-07
6.127985713e-07
9.47230559e-07
1.365023627e-06
1.920272638e-06
2.806659358e-06
5.716555412e-06
5.800238516e-06
-8.687139752e-07
-7.170829391e-11
-9.34087164e-12
1.871562702e-11
5.060125751e-11
2.005398422e-11
1.11897531e-10
3.393656814e-11
-1.783701358e-06
-1.393148815e-06
-2.49398716e-07
8.537423852e-07
-2.631415274e-11
-3.250055204e-11
-2.967664969e-11
-2.459535174e-11
-1.996747309e-11
-1.638149627e-11
-1.372356144e-11
-1.166186777e-11
-1.000656241e-11
-8.607235759e-12
-7.399820168e-12
-6.327998637e-12
-5.374869149e-12
-4.525639334e-12
-3.778968435e-12
-3.129927282e-12
-2.574627695e-12
-2.105538396e-12
-1.708927206e-12
-1.372863271e-12
-1.093089443e-12
-8.803246422e-13
-7.341403677e-13
-6.316793047e-13
-5.213923247e-13
-1.535397778e-13
-7.711078777e-13
1.822035139e-12
-3.361150882e-12
9.828273269e-13
1.397019586e-07
8.418097696e-08
4.39154225e-08
1.45994917e-08
-4.341798917e-09
-1.245564629e-08
-7.434379322e-09
1.527638887e-08
6.342785807e-08
1.500897314e-07
2.985519211e-07
5.512562094e-07
9.810024656e-07
1.649374178e-06
2.174428321e-06
2.249523805e-06
-1.412545363e-06
-4.887426984e-11
-5.658235024e-11
-4.8256662e-11
-8.095329875e-12
1.531476803e-11
2.750577867e-11
7.9747352e-11
6.447009831e-11
4.563734298e-11
6.079186128e-11
3.217049192e-11
1.517063172e-06
2.555059803e-11
1.715055749e-11
-1.48347442e-11
-1.925907359e-11
-1.868846636e-11
-1.667773274e-11
-1.461466207e-11
-1.279404625e-11
-1.125338859e-11
-9.895887963e-12
-8.68489272e-12
-7.567311361e-12
-6.542131188e-12
-5.59673837e-12
-4.743969677e-12
-3.980363969e-12
-3.312330898e-12
-2.733803602e-12
-2.242984033e-12
-1.827972493e-12
-1.480971655e-12
-1.196419391e-12
-9.766641824e-13
-8.187256891e-13
-6.870125361e-13
-5.204995136e-13
-5.712288805e-13
2.808143613e-13
-2.417438607e-12
2.344950418e-12
-1.460293461e-12
1.083239143e-07
6.290485399e-08
2.833470679e-08
1.26755151e-09
-1.849018775e-08
-3.063226091e-08
-3.364733782e-08
-2.475915051e-08
3.60218312e-10
4.874086202e-08
1.34649359e-07
2.932450195e-07
6.213372944e-07
1.245736514e-06
2.977905851e-06
2.07557158e-06
-2.94475371e-11
-3.449701982e-11
-5.523276986e-11
-3.590963597e-11
-2.480405583e-12
1.9841256e-11
3.142249635e-11
4.719547173e-11
6.438205917e-11
6.713303308e-11
6.149369158e-11
9.883418812e-11
7.725150196e-11
4.641459285e-11
4.672616861e-11
-3.400000578e-12
-1.12807558e-11
-1.383082693e-11
-1.39705918e-11
-1.311800666e-11
-1.20010028e-11
-1.084841338e-11
-9.753530429e-12
-8.691497269e-12
-7.672869587e-12
-6.687091382e-12
-5.762047509e-12
-4.903709996e-12
-4.132286072e-12
-3.446063315e-12
-2.852419395e-12
-2.343900323e-12
-1.9181578e-12
-1.564017657e-12
-1.276105664e-12
-1.046828792e-12
-8.698258627e-13
-7.352875523e-13
-6.359358206e-13
-2.979002665e-13
-9.209433905e-13
1.599407172e-12
-3.206648116e-12
7.852649572e-13
7.110395964e-08
3.706364413e-08
9.063023273e-09
-1.518963635e-08
-3.549964912e-08
-5.169389292e-08
-6.304450663e-08
-6.864582954e-08
-6.835364294e-08
-6.523335221e-08
-7.034735861e-08
-1.086776927e-07
-1.541799314e-07
4.676013687e-07
1.313513407e-06
3.655353476e-06
-4.067278867e-11
-4.193038191e-11
-3.925885959e-11
-2.589405464e-11
-2.670538863e-12
1.648678614e-11
2.838633503e-11
4.532901472e-11
5.007563568e-11
5.53878019e-11
7.794926754e-11
8.55869556e-11
7.266047106e-11
4.866457082e-11
5.180571925e-11
5.207308807e-12
-4.300926925e-12
-9.399988615e-12
-1.140263899e-11
-1.170554157e-11
-1.121029686e-11
-1.044230555e-11
-9.569021226e-12
-8.664970571e-12
-7.728618512e-12
-6.796421986e-12
-5.884875752e-12
-5.032406448e-12
-4.24942337e-12
-3.554263952e-12
-2.944675532e-12
-2.425332206e-12
-1.988145408e-12
-1.630105004e-12
-1.339398082e-12
-1.105986582e-12
-9.174847529e-13
-7.602368521e-13
-6.015028549e-13
-6.790388522e-13
1.280497881e-13
-2.347900727e-12
1.930948787e-12
-1.377542758e-12
3.368133342e-08
1.065226854e-08
-1.091692314e-08
-3.231808609e-08
-5.298439049e-08
-7.27564991e-08
-9.125557241e-08
-1.079942848e-07
-1.225954896e-07
-1.354945509e-07
-1.495187213e-07
-1.78210541e-07
-4.963986781e-07
-8.417085755e-07
-2.181176871e-06
-3.972197309e-11
-3.679444657e-11
-3.598882827e-11
-3.617672892e-11
-2.541252686e-11
-6.260569691e-12
1.154837876e-11
2.351830776e-11
3.525660209e-11
4.736421395e-11
5.743202101e-11
7.150694724e-11
8.333184973e-11
7.156637739e-11
4.938104886e-11
5.813739001e-11
1.201063239e-11
7.872084849e-13
-6.348487668e-12
-9.831818817e-12
-1.092279865e-11
-1.082783601e-11
-1.023539703e-11
-9.482041431e-12
-8.646656125e-12
-7.771502207e-12
-6.865754914e-12
-5.973821668e-12
-5.118545777e-12
-4.33365715e-12
-3.626498173e-12
-3.009997533e-12
-2.480080444e-12
-2.038734079e-12
-1.677034667e-12
-1.38629993e-12
-1.146651595e-12
-9.460361442e-13
-7.877456581e-13
-6.906504108e-13
-3.818858558e-13
-9.806087381e-13
1.313352407e-12
-2.991931322e-12
5.879590861e-13
1.217578387e-09
-1.269529018e-08
-2.890879241e-08
-4.794323671e-08
-6.898679836e-08
-9.201933216e-08
-1.172057245e-07
-1.450381266e-07
-1.762718183e-07
-2.11528333e-07
-2.501012519e-07
-3.094207836e-07
-9.957574116e-07
-1.853694092e-06
-1.500747768e-06
-2.770784082e-11
-3.266228792e-11
-3.604166618e-11
-3.569296335e-11
-2.660735248e-11
-1.179528376e-11
3.531467075e-12
1.839629876e-11
3.479932678e-11
5.124097831e-11
6.555614728e-11
7.71177596e-11
8.22002999e-11
7.024058238e-11
4.932388359e-11
6.313183243e-11
1.707871536e-11
4.887915283e-12
-3.899326659e-12
-8.534564976e-12
-1.027096082e-11
-1.045608387e-11
-1.000952795e-11
-9.331319297e-12
-8.57024866e-12
-7.743045539e-12
-6.881767584e-12
-6.007823213e-12
-5.166698392e-12
-4.380116784e-12
-3.673916877e-12
-3.050811112e-12
-2.517930071e-12
-2.070825387e-12
-1.709967923e-12
-1.420577419e-12
-1.182112259e-12
-9.757607228e-13
-7.998440144e-13
-6.412933646e-13
-7.280448846e-13
2.934554578e-14
-2.204350779e-12
1.521584834e-12
-1.255661764e-12
-2.226259094e-08
-3.012774385e-08
-4.276152495e-08
-6.023884257e-08
-8.167065161e-08
-1.072794982e-07
-1.380964377e-07
-1.767524122e-07
-2.29092836e-07
-3.068762523e-07
-4.303146372e-07
-6.141168998e-07
-5.779907079e-07
-6.900755871e-07
9.392523669e-08
-3.011229691e-11
-3.332499072e-11
-3.582827143e-11
-3.615629278e-11
-3.175963154e-11
-1.904793092e-11
-3.521386079e-12
1.626865174e-11
3.984379154e-11
6.059928292e-11
7.714296666e-11
8.497174514e-11
7.793863693e-11
7.132467603e-11
5.074117154e-11
6.577643268e-11
2.014293677e-11
6.998088478e-12
-2.822171191e-12
-8.164424623e-12
-1.020483263e-11
-1.046240159e-11