/*--------------------------------*- C++ -*----------------------------------*\
  =========                 |
  \\      /  F ield         | OpenFOAM: The Open Source CFD Toolbox
   \\    /   O peration     | Website:  https://openfoam.org
    \\  /    A nd           | Version:  6
     \\/     M anipulation  |
\*---------------------------------------------------------------------------*/
FoamFile
{
    version     2.0;
    format      ascii;
    class       volVectorField;
    location    "0.0058";
    object      U;
}
// * * * * * * * * * * * * * * * * * * * * * * * * * * * * * * * * * * * * * //

dimensions      [0 1 -1 0 0 0 0];

internalField   nonuniform List<vector> 
3600
(
(0 3.152179684e-10 -2.910654431e-13)
(0 3.162311336e-10 -8.52859023e-13)
(0 3.175405391e-10 -1.349373086e-12)
(0 3.187994304e-10 -1.732122937e-12)
(0 3.19612221e-10 -1.950892017e-12)
(0 3.194411075e-10 -1.953560253e-12)
(0 3.176158647e-10 -1.686821659e-12)
(0 3.133432272e-10 -1.099993069e-12)
(0 3.057266226e-10 -1.512286727e-13)
(0 2.93803006e-10 1.181114692e-12)
(0 2.7660783e-10 2.883546308e-12)
(0 2.53278561e-10 4.888483432e-12)
(0 2.231975327e-10 7.059245949e-12)
(0 1.861522692e-10 9.190556258e-12)
(8.889857881e-53 1.42458591e-10 1.104804044e-11)
(5.918655086e-53 9.296691411e-11 1.245970271e-11)
(0 3.889612933e-11 1.342860313e-11)
(0 -1.841593177e-11 1.413013078e-11)
(0 -7.749265764e-11 1.459172813e-11)
(0 -1.359594812e-10 1.408127563e-11)
(0 -1.893495356e-10 1.110423182e-11)
(0 -2.31445709e-10 5.054631706e-12)
(0 -2.564891915e-10 -3.291155892e-12)
(0 -2.604155502e-10 -1.328993094e-11)
(0 -2.404836833e-10 -2.471310039e-11)
(0 -1.95607898e-10 -3.656234629e-11)
(0 -1.29368273e-10 -4.505167669e-11)
(0 -5.425037222e-11 -4.445422852e-11)
(0 1.091854231e-11 -3.001295327e-11)
(0 1.179204762e-12 1.412589712e-24)
(0 2.316669972e-12 4.228817567e-14)
(0 2.198527166e-12 7.709846814e-14)
(0 2.022702024e-12 1.001157116e-13)
(0 1.813015936e-12 1.108724474e-13)
(0 1.591711757e-12 1.115444857e-13)
(0 1.375775812e-12 1.052979885e-13)
(0 1.17605595e-12 9.514613978e-14)
(0 9.980887758e-13 8.340257126e-14)
(0 8.435562357e-13 7.160645275e-14)
(0 7.117133998e-13 6.06375597e-14)
(0 6.005058245e-13 5.091479538e-14)
(0 5.073340447e-13 4.255682771e-14)
(0 4.295193754e-13 3.55188827e-14)
(0 3.64557048e-13 2.9670156e-14)
(0 3.102297119e-13 2.485296702e-14)
(0 2.646399506e-13 2.090540523e-14)
(0 2.261980825e-13 1.768143752e-14)
(0 1.935906586e-13 1.505166952e-14)
(0 1.657415503e-13 1.290892137e-14)
(0 1.417729505e-13 1.116310603e-14)
(0 1.209673091e-13 9.742375891e-15)
(0 1.027338428e-13 8.587679275e-15)
(0 8.658258772e-14 7.652619336e-15)
(0 7.21091937e-14 6.899548124e-15)
(0 5.898310793e-14 6.299357223e-15)
(0 4.692675419e-14 5.828980513e-15)
(0 3.570430839e-14 5.473598375e-15)
(0 2.508392257e-14 5.211175711e-15)
(0 1.489957923e-14 5.058106724e-15)
(0 4.953159202e-15 4.962982941e-15)
(0 3.135074257e-10 -8.966516906e-13)
(0 3.146477631e-10 -2.629134726e-12)
(0 3.161878148e-10 -4.16804304e-12)
(0 3.177884231e-10 -5.369502151e-12)
(0 3.190591347e-10 -6.084411975e-12)
(0 3.194666604e-10 -6.156813704e-12)
(0 3.18341401e-10 -5.426982965e-12)
(0 3.14881884e-10 -3.740831062e-12)
(0 3.081674011e-10 -9.688723362e-13)
(0 2.971863947e-10 2.962350946e-12)
(0 2.808936174e-10 8.024123417e-12)
(0 2.583126061e-10 1.402701051e-11)
(0 2.286961734e-10 2.05644071e-11)
(0 1.917389596e-10 2.699921984e-11)
(0 1.477895253e-10 3.25675864e-11)
(0 9.79290055e-11 3.667586026e-11)
(0 4.371306746e-11 3.933178206e-11)
(0 -1.350029844e-11 4.128834308e-11)
(0 -7.312256255e-11 4.306775277e-11)
(0 -1.342829997e-10 4.253803167e-11)
(0 -1.925498977e-10 3.428517771e-11)
(0 -2.399011783e-10 1.622786471e-11)
(0 -2.698149653e-10 -8.401263918e-12)
(0 -2.791482034e-10 -3.750322878e-11)
(0 -2.652464936e-10 -7.118158161e-11)
(0 -2.240787607e-10 -1.077474676e-10)
(0 -1.549636185e-10 -1.354791816e-10)
(0 -6.944366129e-11 -1.355778629e-10)
(0 9.183852209e-12 -9.225059353e-11)
(0 1.221492938e-12 1.472791104e-24)
(0 2.39376844e-12 1.343601009e-13)
(0 2.256354702e-12 2.431204067e-13)
(0 2.056476003e-12 3.126316909e-13)
(0 1.82444471e-12 3.427327504e-13)
(0 1.586137298e-12 3.415730717e-13)
(0 1.359377466e-12 3.198231539e-13)
(0 1.154160533e-12 2.870437827e-13)
(0 9.745490888e-13 2.502749544e-13)
(0 8.207912242e-13 2.139988214e-13)
(0 6.910217426e-13 1.806752765e-13)
(0 5.824250925e-13 1.5138331e-13)
(0 4.91938132e-13 1.26356975e-13)
(0 4.166327038e-13 1.053705853e-13)
(0 3.538911323e-13 8.798454533e-14)
(0 3.014649612e-13 7.369218164e-14)
(0 2.574684212e-13 6.199733942e-14)
(0 2.203443468e-13 5.245256694e-14)
(0 1.888181424e-13 4.467178463e-14)
(0 1.618529868e-13 3.833203596e-14)
(0 1.38606405e-13 3.316761973e-14)
(0 1.183918824e-13 2.896341746e-14)
(0 1.006440862e-13 2.554615399e-14)
(0 8.489445657e-14 2.2777579e-14)
(0 7.075593159e-14 2.054756986e-14)
(0 5.791254033e-14 1.876983835e-14)
(0 4.610099534e-14 1.737738512e-14)
(0 3.508650359e-14 1.63201645e-14)
(0 2.466843092e-14 1.555764644e-14)
(0 1.465138646e-14 1.506419538e-14)
(0 4.858035419e-15 1.482370044e-14)
(0 3.105058334e-10 -1.578357663e-12)
(0 3.118501511e-10 -4.635827902e-12)
(0 3.137510216e-10 -7.37894863e-12)
(0 3.158818716e-10 -9.574104152e-12)
(0 3.17860918e-10 -1.097782097e-11)
(0 3.191635514e-10 -1.133360852e-11)
(0 3.191247953e-10 -1.037622285e-11)
(0 3.169373599e-10 -7.844584999e-12)
(0 3.116547296e-10 -3.509454172e-12)
(0 3.022060834e-10 2.779860453e-12)
(0 2.874367947e-10 1.102091619e-11)
(0 2.661971353e-10 2.09520031e-11)
(0 2.375125137e-10 3.192395044e-11)
(0 2.008684935e-10 4.281097648e-11)
(1.001492531e-52 1.565979958e-10 5.211118904e-11)
(6.889087265e-53 1.061919207e-10 5.847617695e-11)
(0 5.205034115e-11 6.17837653e-11)
(0 -3.944176132e-12 6.409185307e-11)
(0 -6.269217792e-11 6.829522955e-11)
(0 -1.269930804e-10 7.153855265e-11)
(0 -1.928093551e-10 6.040630469e-11)
(0 -2.4779299e-10 3.016453756e-11)
(0 -2.841513928e-10 -9.332123653e-12)
(0 -3.021068152e-10 -5.379134657e-11)
(0 -3.009761131e-10 -1.065056627e-10)
(0 -2.715855322e-10 -1.707836202e-10)
(0 -2.03975504e-10 -2.2568662e-10)
(0 -1.060526241e-10 -2.333843158e-10)
(0 -6.180802636e-12 -1.62239115e-10)
(0 1.313564863e-12 1.59067154e-24)
(0 2.559790378e-12 2.520571442e-13)
(0 2.376798756e-12 4.484146283e-13)
(0 2.122314368e-12 5.64579353e-13)
(0 1.841957316e-12 6.058770912e-13)
(0 1.568802161e-12 5.922156899e-13)
(0 1.321246523e-12 5.453994018e-13)
(0 1.106507751e-12 4.829470428e-13)
(0 9.250438145e-13 4.166649546e-13)
(0 7.739565581e-13 3.534436836e-13)
(0 6.490978887e-13 2.966835901e-13)
(0 5.46187523e-13 2.475869053e-13)
(0 4.613213201e-13 2.061179634e-13)
(0 3.911469459e-13 1.716229574e-13)
(0 3.328786444e-13 1.43206858e-13)
(0 2.842425061e-13 1.199355726e-13)
(0 2.43400336e-13 1.009411012e-13)
(0 2.088725278e-13 8.546134478e-14)
(0 1.794701276e-13 7.285253303e-14)
(0 1.542373854e-13 6.258131488e-14)
(0 1.324043319e-13 5.421375346e-14)
(0 1.133458434e-13 4.739927452e-14)
(0 9.654800434e-14 4.185752707e-14)
(0 8.158400359e-14 3.736479455e-14)
(0 6.810145306e-14 3.374407034e-14)
(0 5.581292321e-14 3.085620716e-14)
(0 4.447708034e-14 2.859319701e-14)
(0 3.388456972e-14 2.687342017e-14)
(0 2.382795346e-14 2.563094944e-14)
(0 1.416563323e-14 2.483319629e-14)
(0 4.712664263e-15 2.44343381e-14)
(0 3.059752803e-10 -2.377147208e-12)
(0 3.075876261e-10 -6.99775983e-12)
(0 3.099583286e-10 -1.119528207e-11)
(0 3.127775669e-10 -1.465482607e-11)
(0 3.156752801e-10 -1.704626049e-11)
(0 3.181396187e-10 -1.801963233e-11)
(0 3.195155013e-10 -1.720869934e-11)
(0 3.189970931e-10 -1.424492287e-11)
(0 3.156216369e-10 -8.786742567e-12)
(0 3.082679393e-10 -5.722627119e-13)
(0 2.956677749e-10 1.048934695e-11)
(0 2.764526756e-10 2.416361987e-11)
(0 2.4929182e-10 3.965548714e-11)
(0 2.132301652e-10 5.533231894e-11)
(-1.130350404e-52 1.683492638e-10 6.862468618e-11)
(-7.570091359e-53 1.166653085e-10 7.665016313e-11)
(0 6.241449275e-11 7.83553693e-11)
(0 9.738419833e-12 7.7930945e-11)
(0 -4.402155677e-11 8.532794271e-11)
(0 -1.10550971e-10 1.005906087e-10)
(0 -1.873764172e-10 9.101847185e-11)
(0 -2.513233845e-10 4.581115533e-11)
(0 -2.921120137e-10 -6.510776629e-12)
(0 -3.191131987e-10 -5.80213134e-11)
(0 -3.389154172e-10 -1.201209928e-10)
(0 -3.341518807e-10 -2.162070731e-10)
(0 -2.759451026e-10 -3.130696059e-10)
(0 -1.63749586e-10 -3.41353528e-10)
(0 -3.238521988e-11 -2.461857248e-10)
(0 1.473550082e-12 1.769715023e-24)
(0 2.842183069e-12 4.254643662e-13)
(0 2.568876913e-12 7.339019472e-13)
(0 2.213938467e-12 8.913854784e-13)
(0 1.852081046e-12 9.239657582e-13)
(0 1.525659609e-12 8.76005045e-13)
(0 1.250108819e-12 7.866038411e-13)
(0 1.025426086e-12 6.826748042e-13)
(0 8.45045729e-13 5.799841487e-13)
(0 7.008098596e-13 4.864168497e-13)
(0 5.851649642e-13 4.050145603e-13)
(0 4.918594654e-13 3.361506464e-13)
(0 4.15974184e-13 2.78892607e-13)
(0 3.537215983e-13 2.317871495e-13)
(0 3.022037473e-13 1.932755682e-13)
(0 2.591992044e-13 1.618958875e-13)
(0 2.229941934e-13 1.363640162e-13)
(0 1.922557786e-13 1.155946828e-13)
(0 1.659381125e-13 9.869104529e-14)
(0 1.432142072e-13 8.49233694e-14)
(0 1.234243645e-13 7.370319782e-14)
(0 1.06035656e-13 6.455953507e-14)
(0 9.060960626e-14 5.711683646e-14)
(0 7.67809998e-14 5.107711321e-14)
(0 6.424734418e-14 4.620483337e-14)
(0 5.2761667e-14 4.23153e-14)
(0 4.211820834e-14 3.92650205e-14)
(0 3.212425602e-14 3.694376037e-14)
(0 2.262820705e-14 3.52714022e-14)
(0 1.345477512e-14 3.418259112e-14)
(0 4.459177225e-15 3.365175984e-14)
(0 2.996077651e-10 -3.327957599e-12)
(0 3.015349733e-10 -9.820645162e-12)
(0 3.044541702e-10 -1.57968281e-11)
(0 3.080751968e-10 -2.087103958e-11)
(0 3.120408642e-10 -2.463745502e-11)
(0 3.158537072e-10 -2.66634268e-11)
(0 3.188719332e-10 -2.649214026e-11)
(0 3.202999712e-10 -2.365469928e-11)
(0 3.191788741e-10 -1.769462935e-11)
(0 3.143729759e-10 -8.211155686e-12)
(0 3.045454977e-10 5.057340381e-12)
(0 2.881249464e-10 2.20613949e-11)
(0 2.633167719e-10 4.2095601e-11)
(0 2.283565924e-10 6.320731647e-11)
(0 1.824198866e-10 8.148991841e-11)
(0 1.276360231e-10 9.112198455e-11)
(0 7.141550853e-11 8.749242018e-11)
(0 2.47346028e-11 7.603311446e-11)
(0 -1.482990356e-11 8.388995061e-11)
(0 -8.007908448e-11 1.287801417e-10)
(0 -1.733152454e-10 1.287188474e-10)
(0 -2.455974508e-10 5.727910642e-11)
(0 -2.818663739e-10 -5.747762659e-12)
(0 -3.118831521e-10 -4.929286967e-11)
(0 -3.609502947e-10 -9.66178807e-11)
(0 -4.005402258e-10 -2.292374904e-10)
(0 -3.666241169e-10 -3.928988792e-10)
(0 -2.414907289e-10 -4.615915889e-10)
(0 -6.872993792e-11 -3.517479295e-10)
(0 1.739029228e-12 2.042637526e-24)
(0 3.293692325e-12 7.159091683e-13)
(0 2.84271987e-12 1.170334705e-12)
(0 2.312378179e-12 1.343064465e-12)
(0 1.826576882e-12 1.322558413e-12)
(0 1.431440243e-12 1.201200709e-12)
(0 1.127916282e-12 1.042310933e-12)
(0 8.998880589e-13 8.81143007e-13)
(0 7.287858595e-13 7.341616639e-13)
(0 5.989869698e-13 6.072055961e-13)
(0 4.988316856e-13 5.0078861e-13)
(0 4.200655693e-13 4.130900558e-13)
(0 3.569578231e-13 3.414987583e-13)
(0 3.055299072e-13 2.833431573e-13)
(0 2.629873821e-13 2.362008767e-13)
(0 2.273309541e-13 1.979982997e-13)
(0 1.970991314e-13 1.670163119e-13)
(0 1.711995567e-13 1.418550265e-13)
(0 1.487988143e-13 1.213875188e-13)
(0 1.29249538e-13 1.047122128e-13)
(0 1.120404975e-13 9.111121213e-14)
(0 9.675948207e-14 8.001409859e-14)
(0 8.306558249e-14 7.09688405e-14)
(0 7.067200047e-14 6.361780468e-14)
(0 5.933963985e-14 5.767915011e-14)
(0 4.887311034e-14 5.293189987e-14)
(0 3.910554069e-14 4.920417853e-14)
(0 2.989095142e-14 4.636485282e-14)
(0 2.106678422e-14 4.431324086e-14)
(0 1.254599087e-14 4.298724626e-14)
(0 4.181832979e-15 4.232916082e-14)
(0 2.910452549e-10 -4.456653667e-12)
(0 2.933130628e-10 -1.318250238e-11)
(0 2.968220948e-10 -2.131499342e-11)
(0 3.013027131e-10 -2.84102854e-11)
(0 3.064084982e-10 -3.399941539e-11)
(0 3.11652598e-10 -3.758067427e-11)
(0 3.164022716e-10 -3.862222382e-11)
(0 3.198730269e-10 -3.657342947e-11)
(0 3.211280349e-10 -3.08822999e-11)
(0 3.190729944e-10 -2.101705618e-11)
(0 3.124156801e-10 -6.503455387e-12)
(0 2.995381824e-10 1.296581751e-11)
(0 2.782570777e-10 3.71909909e-11)
(0 2.456449099e-10 6.457109899e-11)
(0 1.986838803e-10 9.028445299e-11)
(0 1.375904259e-10 1.040028384e-10)
(0 7.311491466e-11 9.145917636e-11)
(0 3.317813719e-11 5.032666e-11)
(0 2.548163029e-11 4.224608777e-11)
(0 -3.110058883e-11 1.531144224e-10)
(0 -1.481895346e-10 1.768497682e-10)
(0 -2.24306707e-10 5.041812594e-11)
(0 -2.38026369e-10 -1.947814473e-11)
(0 -2.54770272e-10 -3.489106092e-11)
(0 -3.358498498e-10 -1.705018813e-11)
(0 -4.43167018e-10 -1.900830886e-10)
(0 -4.607922081e-10 -4.576195036e-10)
(0 -3.322824456e-10 -5.885925116e-10)
(0 -1.151373097e-10 -4.866927733e-10)
(0 2.189459246e-12 2.496982966e-24)
(0 4.01251777e-12 1.268041069e-12)
(0 3.196032209e-12 1.888617282e-12)
(0 2.366162174e-12 1.988026942e-12)
(0 1.71021729e-12 1.821982157e-12)
(0 1.245412129e-12 1.563886765e-12)
(0 9.30051118e-13 1.300254265e-12)
(0 7.172768182e-13 1.065390498e-12)
(0 5.711083181e-13 8.682846136e-13)
(0 4.674368065e-13 7.07429971e-13)
(0 3.910494247e-13 5.778204435e-13)
(0 3.325696136e-13 4.739010605e-13)
(0 2.862272859e-13 3.906499769e-13)
(0 2.484237171e-13 3.238696618e-13)
(0 2.168588897e-13 2.701724176e-13)
(0 1.900146398e-13 2.2686863e-13)
(0 1.668509204e-13 1.918379414e-13)
(0 1.466269854e-13 1.634133289e-13)
(0 1.287952989e-13 1.402843674e-13)
(0 1.129379007e-13 1.214203205e-13)
(0 9.872625032e-14 1.06009342e-13)
(0 8.589328444e-14 9.341141173e-14)
(0 7.421331242e-14 8.312155159e-14)
(0 6.349130941e-14 7.474153595e-14)
(0 5.356143941e-14 6.795791714e-14)
(0 4.428669545e-14 6.252508899e-14)
(0 3.555116128e-14 5.825206088e-14)
(0 2.723331836e-14 5.4991825e-14)
(0 1.925060051e-14 5.263733849e-14)
(0 1.147069507e-14 5.110384375e-14)
(0 3.80109178e-15 5.035313207e-14)
(0 2.799008145e-10 -5.778709348e-12)
(0 2.825116232e-10 -1.712926209e-11)
(0 2.866105723e-10 -2.782524578e-11)
(0 2.919475073e-10 -3.737639122e-11)
(0 2.981814105e-10 -4.526268589e-11)
(0 3.048252201e-10 -5.092570356e-11)
(0 3.1123708e-10 -5.3774017e-11)
(0 3.16620613e-10 -5.320051599e-11)
(0 3.200470665e-10 -4.860367659e-11)
(0 3.204953088e-10 -3.939468408e-11)
(0 3.168669385e-10 -2.496696491e-11)
(0 3.078560531e-10 -4.63010724e-12)
(0 2.914454979e-10 2.235327456e-11)
(0 2.638249104e-10 5.606249079e-11)
(0 2.182968664e-10 9.311455868e-11)
(0 1.480121775e-10 1.19579628e-10)
(0 6.056142486e-11 1.028188188e-10)
(0 1.948974632e-11 -3.402450661e-13)
(0 6.854917312e-11 -7.532145986e-11)
(0 2.51592563e-11 1.83124321e-10)
(0 -1.02463787e-10 2.613642123e-10)
(0 -1.65607204e-10 -6.347869754e-12)
(0 -1.457341579e-10 -6.461546081e-11)
(0 -1.344392412e-10 -4.381701613e-11)
(0 -2.232213608e-10 1.578584432e-10)
(0 -3.852177949e-10 -6.747690792e-11)
(0 -5.142054534e-10 -4.929480742e-10)
(0 -4.095884206e-10 -6.881107444e-10)
(0 -1.749370356e-10 -6.522811259e-10)
(0 3.007070296e-12 3.328210624e-24)
(0 5.182309609e-12 2.467886653e-12)
(0 3.562705746e-12 3.128359103e-12)
(0 2.245743054e-12 2.898604465e-12)
(0 1.402436704e-12 2.413496068e-12)
(0 9.097123491e-13 1.932087524e-12)
(0 6.294200152e-13 1.529388853e-12)
(0 4.679184074e-13 1.211840102e-12)
(0 3.708253309e-13 9.661217674e-13)
(0 3.085227995e-13 7.763788519e-13)
(0 2.653027751e-13 6.291354549e-13)
(0 2.328951019e-13 5.140197108e-13)
(0 2.069264243e-13 4.233094506e-13)
(0 1.850523479e-13 3.512947571e-13)
(0 1.6598635e-13 2.937350536e-13)
(0 1.489964778e-13 2.474526616e-13)
(0 1.336438302e-13 2.100424599e-13)
(0 1.196459826e-13 1.796664228e-13)
(0 1.068058059e-13 1.549080815e-13)
(0 9.49745126e-14 1.346679648e-13)
(0 8.403158862e-14 1.180877963e-13)
(0 7.387169162e-14 1.044945412e-13)
(0 6.439570672e-14 9.335885678e-14)
(0 5.550836596e-14 8.426383745e-14)
(0 4.712319288e-14 7.688146141e-14)
(0 3.916725409e-14 7.095446318e-14)
(0 3.157227667e-14 6.628235017e-14)
(0 2.427622902e-14 6.27116647e-14)
(0 1.717880296e-14 6.012539987e-14)
(0 1.026178444e-14 5.844871077e-14)
(0 3.4311213e-15 5.761753986e-14)
(0 2.657833513e-10 -7.298667275e-12)
(0 2.687153704e-10 -2.167307833e-11)
(0 2.733617331e-10 -3.534395206e-11)
(0 2.794906534e-10 -4.77854204e-11)
(0 2.867610411e-10 -5.843570682e-11)
(0 2.946709643e-10 -6.6684891e-11)
(0 3.025367539e-10 -7.188478639e-11)
(0 3.094897961e-10 -7.338324054e-11)
(0 3.145191066e-10 -7.057645314e-11)
(0 3.165852331e-10 -6.295081026e-11)
(0 3.148046678e-10 -5.004326786e-11)
(0 3.085944225e-10 -3.118661399e-11)
(0 2.973448261e-10 -4.902293912e-12)
(0 2.785471227e-10 3.177324031e-11)
(0 2.427804779e-10 8.187410223e-11)
(0 1.689354095e-10 1.370807827e-10)
(0 3.484899931e-11 1.475012486e-10)
(0 -1.984237619e-11 -5.070143146e-11)
(0 1.001269075e-10 -3.548113388e-10)
(0 1.869944494e-24 1.44969933e-11)
(0 -3.464204848e-24 9.856881804e-12)
(0 -1.795358547e-24 -4.289457775e-12)
(0 -7.463906504e-25 -2.731153132e-12)
(0 3.806391563e-25 -3.677980115e-12)
(0 2.10721387e-24 1.102872886e-11)
(0 -4.092847491e-24 1.589582012e-11)
(0 -4.409871315e-10 -4.886360425e-10)
(0 -3.935267433e-10 -6.690175404e-10)
(0 -2.779571713e-10 -8.215778021e-10)
(0 4.657345893e-12 4.51522638e-24)
(0 7.140876869e-12 5.474352936e-12)
(0 3.626750024e-12 5.258047502e-12)
(0 1.651299143e-12 4.064471667e-12)
(0 7.437003496e-13 3.001272708e-12)
(0 3.613049112e-13 2.221529725e-12)
(0 2.098036969e-13 1.673319511e-12)
(0 1.540097327e-13 1.286409403e-12)
(0 1.356470662e-13 1.007940381e-12)
(0 1.304504939e-13 8.027916703e-13)
(0 1.286902837e-13 6.482911726e-13)
(0 1.267436086e-13 5.297054304e-13)
(0 1.235023322e-13 4.37249391e-13)
(0 1.188493202e-13 3.642443044e-13)
(0 1.130167938e-13 3.060027721e-13)
(0 1.063220461e-13 2.591496473e-13)
(0 9.906468158e-14 2.21200144e-13)
(0 9.14926068e-14 1.902910199e-13)
(0 8.379684098e-14 1.650041293e-13)
(0 7.611761556e-14 1.442473435e-13)
(0 6.855282659e-14 1.271718381e-13)
(0 6.116434493e-14 1.131133045e-13)
(0 5.398260867e-14 1.015492905e-13)
(0 4.701391398e-14 9.206792916e-14)
(0 4.025206513e-14 8.434457289e-14)
(0 3.368758422e-14 7.812404735e-14)
(0 2.730836277e-14 7.320713782e-14)
(0 2.107636806e-14 6.943996965e-14)
(0 1.498764658e-14 6.670987307e-14)
(0 8.962835055e-15 6.492873217e-14)
(0 2.96992087e-15 6.405408349e-14)
(0 2.483259048e-10 -9.010748525e-12)
(0 2.51532885e-10 -2.679328814e-11)
(0 2.566405368e-10 -4.382942792e-11)
(0 2.634377824e-10 -5.956882264e-11)
(0 2.715855031e-10 -7.341537577e-11)
(0 2.8056066e-10 -8.470194912e-11)
(0 2.896062617e-10 -9.269910127e-11)
(0 2.976952632e-10 -9.667061203e-11)
(0 3.035486959e-10 -9.598496227e-11)
(0 3.05777669e-10 -9.027476262e-11)
(0 3.03265422e-10 -7.957573919e-11)
(0 2.95919337e-10 -6.420714326e-11)
(0 2.856365224e-10 -4.377594913e-11)
(0 2.759523883e-10 -1.422931882e-11)
(0 2.639834918e-10 3.751430903e-11)
(0 2.172686242e-10 1.298970396e-10)
(0 8.593337398e-12 2.630192881e-10)
(0 3.346865503e-24 -4.213845945e-12)
(0 -1.037839384e-11 -8.672419469e-12)
(0 -1.026772936e-11 1.850501793e-11)
(0 6.088936224e-12 1.384661649e-11)
(0 7.53657639e-12 -4.158267492e-12)
(0 6.114776588e-13 -2.95628744e-12)
(0 -6.364729333e-12 -2.883975774e-12)
(0 -5.301587064e-12 1.652315593e-11)
(0 9.095882305e-12 2.292807153e-11)
(0 8.979567017e-12 -1.480182803e-12)
(0 -4.181904769e-24 9.834756208e-12)
(0 -5.553004886e-10 -8.403864657e-10)
(0 8.481423204e-12 -2.272521122e-11)
(0 1.044035708e-11 1.417106982e-11)
(0 2.152824477e-12 8.364660338e-12)
(0 -1.103173219e-14 5.099764472e-12)
(0 -4.405052302e-13 3.305473847e-12)
(0 -4.182408478e-13 2.279349405e-12)
(0 -3.057003047e-13 1.655875307e-12)
(0 -1.974607199e-13 1.252474722e-12)
(0 -1.127924013e-13 9.763864937e-13)
(0 -5.112640736e-14 7.785126777e-13)
(0 -7.783463605e-15 6.314952914e-13)
(0 2.185332032e-14 5.192298126e-13)
(0 4.146529886e-14 4.317112048e-13)
(0 5.380572961e-14 3.624069747e-13)
(0 6.089169283e-14 3.068622602e-13)
(0 6.419384996e-14 2.619261697e-13)
(0 6.478520312e-14 2.253031618e-13)
(0 6.344996782e-14 1.952811248e-13)
(0 6.076212968e-14 1.705594722e-13)
(0 5.714222156e-14 1.501361382e-13)
(0 5.289754964e-14 1.332306245e-13)
(0 4.824914412e-14 1.192299855e-13)
(0 4.335033147e-14 1.07650143e-13)
(0 3.830364832e-14 9.810772108e-14)
(0 3.317931112e-14 9.029914857e-14)
(0 2.802981906e-14 8.398470962e-14)
(0 2.288819897e-14 7.897619558e-14)
(0 1.777896429e-14 7.512852788e-14)
(0 1.266756549e-14 7.233066686e-14)
(0 7.605994864e-15 7.051054796e-14)
(0 2.556472626e-15 6.960770709e-14)
(0 2.272184997e-10 -1.090098809e-11)
(0 2.306290247e-10 -3.243976853e-11)
(0 2.360629499e-10 -5.3184034e-11)
(0 2.433400283e-10 -7.257718234e-11)
(0 2.521433795e-10 -9.000302294e-11)
(0 2.619519996e-10 -1.047269679e-10)
(0 2.719442483e-10 -1.158847915e-10)
(0 2.80889051e-10 -1.225397463e-10)
(0 2.870488956e-10 -1.238392953e-10)
(0 2.881636745e-10 -1.193197635e-10)
(0 2.817165228e-10 -1.094113079e-10)
(0 2.660081055e-10 -9.610130086e-11)
(0 2.431050647e-10 -8.322935788e-11)
(0 2.250885186e-10 -7.443177396e-11)
(0 2.365895005e-10 -6.304695518e-11)
(0 3.090194528e-10 -2.506880513e-11)
(0 1.115998926e-11 1.113528854e-11)
(0 1.620296717e-11 -2.31129642e-12)
(0 2.594252349e-12 -9.853471773e-12)
(0 -2.356351033e-12 5.474959788e-12)
(0 2.212101859e-12 5.952366198e-12)
(0 3.321707374e-12 1.180523031e-12)
(0 1.27429172e-12 6.800230431e-13)
(0 -6.451679379e-13 2.378179461e-12)
(0 9.366600393e-13 8.61720536e-12)
(0 6.872048295e-12 1.049955606e-11)
(0 7.031296249e-12 4.432167091e-13)
(0 8.424600317e-12 1.487204069e-11)
(0 -1.611399863e-11 1.406729109e-12)
(0 -2.617158294e-11 -6.472928491e-11)
(0 -6.769250141e-12 2.056890044e-11)
(0 -5.444555377e-12 8.929598515e-12)
(0 -3.40788736e-12 4.664256636e-12)
(0 -2.076714716e-12 2.841348858e-12)
(0 -1.288293635e-12 1.934395863e-12)
(0 -8.170709868e-13 1.418261082e-12)
(0 -5.254790796e-13 1.091150229e-12)
(0 -3.383149802e-13 8.665552021e-13)
(0 -2.144407085e-13 7.03325393e-13)
(0 -1.305925812e-13 5.799041165e-13)
(0 -7.304047869e-14 4.839705902e-13)
(0 -3.332050577e-14 4.079273516e-13)
(0 -5.999624318e-15 3.467835288e-13)
(0 1.25359885e-14 2.970905827e-13)
(0 2.47629477e-14 2.563705618e-13)
(0 3.241963674e-14 2.227890674e-13)
(0 3.6748917e-14 1.949570911e-13)
(0 3.86518544e-14 1.718046939e-13)
(0 3.878876783e-14 1.524968816e-13)
(0 3.764667374e-14 1.363754358e-13)
(0 3.558386342e-14 1.229175424e-13)
(0 3.286034425e-14 1.117058684e-13)
(0 2.966291949e-14 1.024066407e-13)
(0 2.612905367e-14 9.475323914e-14)
(0 2.236463124e-14 8.853341311e-14)
(0 1.8452181e-14 8.357932654e-14)
(0 1.443083933e-14 7.97597806e-14)
(0 1.036966667e-14 7.697790805e-14)
(0 6.239875277e-15 7.51573435e-14)
(0 2.067079996e-15 7.426053702e-14)
(0 2.022496328e-10 -1.295319276e-11)
(0 2.057658674e-10 -3.854017661e-11)
(0 2.113270308e-10 -6.325356468e-11)
(0 2.188054955e-10 -8.657224728e-11)
(0 2.27953383e-10 -1.079005864e-10)
(0 2.383221849e-10 -1.264450634e-10)
(0 2.491204504e-10 -1.411562851e-10)
(0 2.590231795e-10 -1.507428435e-10)
(0 2.659010014e-10 -1.537834122e-10)
(0 2.664249299e-10 -1.490094482e-10)
(0 2.55533178e-10 -1.359193924e-10)
(0 2.260034758e-10 -1.160311753e-10)
(0 1.693300316e-10 -9.502737402e-11)
(0 8.338336257e-11 -8.452054478e-11)
(1.908145993e-52 -1.096339711e-11 -8.15863154e-11)
(3.892490471e-52 -4.238546786e-12 3.876039132e-24)
(0 -2.311296268e-12 1.610456174e-11)
(0 3.886626612e-12 3.772665308e-12)
(0 2.158637986e-12 -6.022217041e-13)
(0 7.873327739e-13 2.545044437e-12)
(0 1.794499451e-12 3.307030397e-12)
(0 2.264233219e-12 2.247489515e-12)
(0 1.809134091e-12 2.117130365e-12)
(0 1.572453005e-12 3.098943378e-12)
(0 2.819789563e-12 5.067717427e-12)
(0 5.67266951e-12 5.258614047e-12)
(0 8.601276077e-12 2.593532125e-12)
(0 1.633734804e-11 3.591301715e-12)
(0 3.527405832e-11 -9.64099679e-12)
(0 -4.176210386e-12 -3.210488617e-11)
(0 -3.772056132e-11 2.083599904e-12)
(0 -1.375181938e-11 2.120139936e-12)
(0 -6.099281402e-12 1.785954901e-12)
(0 -3.170366002e-12 1.461012162e-12)
(0 -1.84132863e-12 1.198445462e-12)
(0 -1.14894594e-12 9.91494046e-13)
(0 -7.491665993e-13 8.272125732e-13)
(0 -5.006172387e-13 6.952824819e-13)
(0 -3.377774933e-13 5.882682795e-13)
(0 -2.271382664e-13 5.007747686e-13)
(0 -1.501234453e-13 4.2877892e-13)
(0 -9.572176264e-14 3.692085379e-13)
(0 -5.703103922e-14 3.196792118e-13)
(0 -2.952127446e-14 2.783207246e-13)
(0 -1.010766543e-14 2.436551925e-13)
(0 3.371732372e-15 2.145075669e-13)
(0 1.246559416e-14 1.899383664e-13)
(0 1.830192016e-14 1.69192522e-13)
(0 2.171296342e-14 1.51660245e-13)
(0 2.331821039e-14 1.368469012e-13)
(0 2.357957672e-14 1.243498469e-13)
(0 2.283942974e-14 1.138407435e-13)
(0 2.135101901e-14 1.0505217e-13)
(0 1.930608353e-14 9.776716232e-14)
(0 1.685590646e-14 9.181053189e-14)
(0 1.411456643e-14 8.704170583e-14)
(0 1.117754579e-14 8.335030132e-14)
(0 8.0651284e-15 8.065043388e-14)
(0 4.888623831e-15 7.888601719e-14)
(0 1.659666147e-15 7.800919314e-14)
(0 1.733656396e-10 -1.516661501e-11)
(0 1.768628179e-10 -4.501821182e-11)
(0 1.822576782e-10 -7.382288204e-11)
(0 1.895162889e-10 -1.011953362e-10)
(0 1.985312221e-10 -1.266549318e-10)
(0 2.090347011e-10 -1.494078331e-10)
(0 2.204438844e-10 -1.682356552e-10)
(0 2.316576271e-10 -1.814413736e-10)
(0 2.407358458e-10 -1.868323188e-10)
(0 2.443234818e-10 -1.817405635e-10)
(0 2.364926747e-10 -1.631043311e-10)
(0 2.062911745e-10 -1.277494091e-10)
(0 1.322611958e-10 -7.341348978e-11)
(0 -1.885610191e-11 -3.918629983e-12)
(0 -3.292414325e-10 7.751436293e-11)
(0 -8.770825274e-12 -1.055703028e-11)
(0 -9.94273217e-12 2.339498505e-12)
(0 -5.038159798e-13 1.899967531e-12)
(0 1.366631485e-12 1.127029218e-12)
(0 1.552901059e-12 2.000365422e-12)
(0 1.914546939e-12 2.483015842e-12)
(0 2.131807346e-12 2.384912681e-12)
(0 2.125745581e-12 2.44150458e-12)
(0 2.305419116e-12 2.83246282e-12)
(0 3.096330702e-12 3.296041112e-12)
(0 4.397862999e-12 2.874377026e-12)
(0 5.36398392e-12 1.081707664e-12)
(0 4.619489553e-12 -1.889478808e-12)
(0 -6.810187769e-12 -1.166935296e-11)
(0 -9.696210796e-12 1.225717554e-11)
(0 -4.364029174e-12 -1.406873158e-11)
(0 -5.742200379e-12 -4.319045449e-12)
(0 -4.067015131e-12 -1.101992495e-12)
(0 -2.664224153e-12 1.800283638e-14)
(0 -1.757811752e-12 4.066697308e-13)
(0 -1.188303875e-12 5.219053121e-13)
(0 -8.216906424e-13 5.308098616e-13)
(0 -5.77259274e-13 4.990060114e-13)
(0 -4.089484212e-13 4.536206442e-13)
(0 -2.9008194e-13 4.060909512e-13)
(0 -2.046067094e-13 3.611146983e-13)
(0 -1.424202136e-13 3.204092709e-13)
(0 -9.688743723e-14 2.843709996e-13)
(0 -6.348803077e-14 2.528302366e-13)
(0 -3.905020976e-14 2.253987739e-13)
(0 -2.129718911e-14 2.016283022e-13)
(0 -8.56612797e-15 1.810801208e-13)
(0 3.737330798e-16 1.633532277e-13)
(0 6.443147169e-15 1.480930866e-13)
(0 1.033627569e-14 1.349917715e-13)
(0 1.257770581e-14 1.23784663e-13)
(0 1.356266738e-14 1.142463124e-13)
(0 1.358933833e-14 1.06186501e-13)
(0 1.28874156e-14 9.944632364e-14)
(0 1.163917479e-14 9.389412529e-14)
(0 9.991950426e-15 8.942186525e-14)
(0 8.039567395e-15 8.59423258e-14)
(0 5.905382562e-15 8.338987416e-14)
(0 3.598634534e-15 8.171157582e-14)
(0 1.190255941e-15 8.088146721e-14)
(0 1.407719201e-10 -1.761029185e-11)
(0 1.440920023e-10 -5.184155266e-11)
(0 1.488766045e-10 -8.461387831e-11)
(0 1.552767482e-10 -1.159138861e-10)
(0 1.63406699e-10 -1.455437991e-10)
(0 1.732703938e-10 -1.728224597e-10)
(0 1.846456722e-10 -1.964729708e-10)
(0 1.969668653e-10 -2.145548955e-10)
(0 2.091840868e-10 -2.244028125e-10)
(0 2.196337203e-10 -2.225653064e-10)
(0 2.260332877e-10 -2.047372299e-10)
(0 2.258854148e-10 -1.657826495e-10)
(0 2.157499934e-10 -1.010068764e-10)
(0 2.064694854e-10 -1.930743522e-11)
(0 1.431835699e-11 1.709015127e-24)
(0 1.822556311e-11 -1.070300907e-11)
(0 5.394925685e-12 -2.840322896e-12)
(0 2.674157352e-12 3.606625666e-13)
(0 2.259035885e-12 1.20998562e-12)
(0 2.143319399e-12 1.846252701e-12)
(0 2.179046711e-12 2.239532798e-12)
(0 2.222721958e-12 2.367317254e-12)
(0 2.256684231e-12 2.431064235e-12)
(0 2.426989536e-12 2.492941788e-12)
(0 2.861703767e-12 2.409822445e-12)
(0 3.45833606e-12 1.86162818e-12)
(0 3.837420245e-12 7.482259467e-13)
(0 3.586287441e-12 -5.614743884e-13)
(0 2.935713197e-12 -9.189666155e-13)
(0 5.119604562e-12 2.206805115e-12)
(0 3.883410776e-12 -8.116625194e-12)
(0 -7.850802629e-13 -4.226002991e-12)
(0 -1.762233107e-12 -1.893253875e-12)
(0 -1.661703778e-12 -6.939708295e-13)
(0 -1.337426151e-12 -1.118942168e-13)
(0 -1.024805808e-12 1.584832302e-13)
(0 -7.720658996e-13 2.749908103e-13)
(0 -5.77806456e-13 3.16214622e-13)
(0 -4.306925533e-13 3.21041193e-13)
(0 -3.196442122e-13 3.087921675e-13)
(0 -2.358051259e-13 2.891289617e-13)
(0 -1.724654613e-13 2.66900581e-13)
(0 -1.246100734e-13 2.445299208e-13)
(0 -8.849350032e-14 2.232009065e-13)
(0 -6.130959979e-14 2.034567558e-13)
(0 -4.094692073e-14 1.855062977e-13)
(0 -2.580948055e-14 1.693836362e-13)
(0 -1.468511399e-14 1.550330608e-13)
(0 -6.648492703e-15 1.423550721e-13)
(0 -9.902133038e-16 1.312317171e-13)
(0 2.834117575e-15 1.21540848e-13)
(0 5.241267778e-15 1.13164494e-13)
(0 6.551030225e-15 1.059938244e-13)
(0 7.013707779e-15 9.993158024e-14)
(0 6.83144808e-15 9.489258201e-14)
(0 6.16276691e-15 9.080345918e-14)
(0 5.145554696e-15 8.760336793e-14)
(0 3.834378425e-15 8.524303151e-14)
(0 2.380216876e-15 8.369088096e-14)
(0 8.295575399e-16 8.2917046e-14)
(0 1.05153576e-10 -2.058836363e-11)
(0 1.080198064e-10 -5.912918081e-11)
(0 1.114841947e-10 -9.529213895e-11)
(0 1.161003561e-10 -1.299689476e-10)
(0 1.222586686e-10 -1.634619887e-10)
(0 1.302329573e-10 -1.953075841e-10)
(0 1.401474657e-10 -2.242865761e-10)
(0 1.51927383e-10 -2.484157599e-10)
(0 1.652136611e-10 -2.649488969e-10)
(0 1.793111812e-10 -2.705095299e-10)
(0 1.934127511e-10 -2.615719895e-10)
(0 2.078179697e-10 -2.355044664e-10)
(0 2.247487252e-10 -1.916635547e-10)
(0 2.724963847e-10 -1.240540498e-10)
(0 9.421602367e-12 -2.731962805e-24)
(0 1.326423908e-11 5.286744355e-12)
(0 5.871715287e-12 1.392036463e-12)
(0 3.546492549e-12 1.17280569e-12)
(0 2.852221622e-12 1.505752918e-12)
(0 2.582448239e-12 1.93481477e-12)
(0 2.435611493e-12 2.261193761e-12)
(0 2.323338783e-12 2.413424485e-12)
(0 2.251370116e-12 2.42221371e-12)
(0 2.284177327e-12 2.2982929e-12)