/*--------------------------------*- C++ -*----------------------------------*\
  =========                 |
  \\      /  F ield         | OpenFOAM: The Open Source CFD Toolbox
   \\    /   O peration     | Website:  https://openfoam.org
    \\  /    A nd           | Version:  6
     \\/     M anipulation  |
\*---------------------------------------------------------------------------*/
FoamFile
{
    version     2.0;
    format      ascii;
    class       volVectorField;
    location    "0.003";
    object      gradT;
}
// * * * * * * * * * * * * * * * * * * * * * * * * * * * * * * * * * * * * * //

dimensions      [0 -1 0 1 0 0 0];

internalField   nonuniform List<vector> 
9600
(
(0 1.110714279e-05 0.0001895456406)
(0 3.242188135e-05 0.000186206648)
(0 5.246352553e-05 0.000179921229)
(0 7.053454955e-05 0.000171318339)
(0 8.62919083e-05 0.0001610840733)
(0 9.964410669e-05 0.0001499159345)
(0 0.0001106712049 0.0001383552056)
(0 0.0001195561639 0.0001268364124)
(0 0.0001265429079 0.0001156415941)
(0 0.000131871592 0.0001049689792)
(0 0.0001357861629 9.493291524e-05)
(0 0.0001385076715 8.559818315e-05)
(0 0.0001402114783 7.697242332e-05)
(0 0.0001410691076 6.905944585e-05)
(0 0.000141221565 6.183255676e-05)
(0 0.0001407641672 5.52460287e-05)
(0 0.0001398112636 4.926174402e-05)
(0 0.0001384504968 4.3845389e-05)
(0 0.0001367390668 3.893598615e-05)
(0 0.0001347265246 3.450685303e-05)
(0 0.0001324852674 3.051605532e-05)
(0 0.0001300381893 2.691785944e-05)
(0 0.0001274272179 2.367414826e-05)
(0 0.0001247056935 2.076967093e-05)
(0 0.0001218736389 1.815869192e-05)
(0 0.0001189501119 1.581834089e-05)
(0 0.0001159846424 1.37104985e-05)
(0 0.0001129696287 1.183135595e-05)
(0 0.0001099203168 1.015041971e-05)
(0 0.0001068709916 8.641006421e-06)
(0 0.0001038140498 7.303117911e-06)
(0 0.0001007723606 6.110072397e-06)
(0 9.774209425e-05 5.050433837e-06)
(0 9.474232713e-05 4.105145089e-06)
(0 9.176543541e-05 3.266582685e-06)
(0 8.883427245e-05 2.530934391e-06)
(0 8.594885478e-05 1.879142552e-06)
(0 8.309393528e-05 1.307395404e-06)
(0 8.030380383e-05 8.042577657e-07)
(0 7.756322879e-05 3.62106577e-07)
(0 7.487602132e-05 -1.905824204e-08)
(0 7.224216793e-05 -3.544832806e-07)
(0 6.967311706e-05 -6.40356894e-07)
(0 6.715362164e-05 -8.843024305e-07)
(0 6.471035113e-05 -1.10918962e-06)
(0 6.231663608e-05 -1.280713788e-06)
(0 5.999153429e-05 -1.429368153e-06)
(0 5.773122332e-05 -1.547529161e-06)
(0 5.552427902e-05 -1.65425531e-06)
(0 5.338975924e-05 -1.730488377e-06)
(0 5.131621943e-05 -1.787662996e-06)
(0 4.929985754e-05 -1.837214422e-06)
(0 4.733686157e-05 -1.86770772e-06)
(0 4.544628124e-05 -1.890577497e-06)
(0 4.361669011e-05 -1.898200793e-06)
(0 4.182902962e-05 -1.898200907e-06)
(0 4.011378543e-05 -1.8829542e-06)
(0 3.844428353e-05 -1.863895959e-06)
(0 3.683195856e-05 -1.841026181e-06)
(0 3.528061554e-05 -1.818156181e-06)
(0 3.378644946e-05 -1.780039699e-06)
(0 3.233040179e-05 -1.745734971e-06)
(0 3.094295992e-05 -1.711430032e-06)
(0 2.958982481e-05 -1.661878606e-06)
(0 2.829005448e-05 -1.616138925e-06)
(0 2.704364383e-05 -1.578022346e-06)
(0 2.583535136e-05 -1.52847092e-06)
(0 2.466898849e-05 -1.486542879e-06)
(0 2.355598574e-05 -1.433179715e-06)
(0 2.24925359e-05 -1.387439937e-06)
(0 2.145576889e-05 -1.330265294e-06)
(0 2.046473907e-05 -1.280713788e-06)
(0 1.951563868e-05 -1.238785658e-06)
(0 1.859703258e-05 -1.181611006e-06)
(0 1.773178733e-05 -1.135871157e-06)
(0 1.688941308e-05 -1.093943027e-06)
(0 1.607753298e-05 -1.044391664e-06)
(0 1.530757909e-05 -1.002463471e-06)
(0 1.457574264e-05 -9.567236929e-07)
(0 1.387058855e-05 -9.109839694e-07)
(0 1.319592599e-05 -8.766790811e-07)
(0 1.25479458e-05 -8.423742475e-07)
(0 1.192283622e-05 -8.004461656e-07)
(0 1.133203004e-05 -7.585179876e-07)
(0 1.076790611e-05 -7.204015058e-07)
(0 1.022284103e-05 -6.822850649e-07)
(0 9.71207956e-06 -6.479801904e-07)
(0 9.228000241e-06 -6.17487005e-07)
(0 8.762979689e-06 -5.869938548e-07)
(0 8.317016326e-06 -5.565006341e-07)
(0 7.905358323e-06 -5.260074487e-07)
(0 7.505135714e-06 -4.993259414e-07)
(0 7.11634715e-06 -4.68832726e-07)
(0 6.765675517e-06 -4.459628369e-07)
(0 6.418815918e-06 -4.192813248e-07)
(0 6.098637086e-06 -3.964114106e-07)
(0 5.789893584e-06 -3.697298733e-07)
(0 5.5040203e-06 -3.506716535e-07)
(0 5.241016246e-06 -3.239900952e-07)
(0 4.974200873e-06 -3.087435025e-07)
(0 4.734067322e-06 -2.89685279e-07)
(0 4.509179796e-06 -2.706270207e-07)
(0 4.299539146e-06 -2.515687798e-07)
(0 4.101333686e-06 -2.363222013e-07)
(0 3.910751031e-06 -2.13452298e-07)
(0 3.74685016e-06 -2.020173535e-07)
(0 3.582949503e-06 -1.86770772e-07)
(0 3.445729954e-06 -1.677125199e-07)
(0 3.304698971e-06 -1.600892235e-07)
(0 3.18272642e-06 -1.372193427e-07)
(0 3.079811728e-06 -1.219727417e-07)
(0 2.984520524e-06 -1.029145008e-07)
(0 2.893041141e-06 -8.766791337e-08)
(0 2.816808004e-06 -7.623296358e-08)
(0 2.752009985e-06 -6.479801904e-08)
(0 2.691023776e-06 -5.33630777e-08)
(0 2.652907132e-06 -4.955142632e-08)
(0 2.618602299e-06 -3.049318543e-08)
(0 2.595732565e-06 -2.668153885e-08)
(0 2.588109113e-06 -7.623296358e-09)
(0 9.677774726e-06 0.0001633939225)
(0 2.828624283e-05 0.0001608782443)
(0 4.601040517e-05 0.0001560984279)
(0 6.228614289e-05 0.0001494356668)
(0 7.6819962e-05 0.0001413854744)
(0 8.947462935e-05 0.0001324166577)
(0 0.0001002272889 0.0001229713935)
(0 0.0001091770453 0.0001133851052)
(0 0.0001164687218 0.0001039322109)
(0 0.0001222586153 9.478806691e-05)
(0 0.0001267411212 8.608989093e-05)
(0 0.0001300724941 7.790627713e-05)
(0 0.0001324090344 7.029441571e-05)
(0 0.0001338955853 6.324287038e-05)
(0 0.0001346540952 5.675544138e-05)
(0 0.0001347722563 5.081689352e-05)
(0 0.0001343606064 4.540435583e-05)
(0 0.0001335067891 4.046064542e-05)
(0 0.0001322603802 3.59895821e-05)
(0 0.0001306861773 3.193399036e-05)
(0 0.0001288337084 2.82595596e-05)
(0 0.0001267487369 2.494723733e-05)
(0 0.0001244693787 2.197034142e-05)
(0 0.0001220413514 1.928693978e-05)
(0 0.0001194799238 1.686654319e-05)
(0 0.0001168117771 1.469390461e-05)
(0 0.0001140521368 1.275377481e-05)
(0 0.0001112467637 1.100041664e-05)
(0 0.0001083842225 9.437641457e-06)
(0 0.0001054949866 8.042577657e-06)
(0 0.0001025905107 6.799980351e-06)
(0 9.967460586e-05 5.679356127e-06)
(0 9.677012396e-05 4.68832726e-06)
(0 9.3877083e-05 3.811648179e-06)
(0 9.100310573e-05 3.030260484e-06)
(0 8.816342238e-05 2.347975278e-06)
(0 8.535042602e-05 1.730488273e-06)
(0 8.257173945e-05 1.193045952e-06)
(0 7.984640605e-05 7.204015058e-07)
(0 7.715919408e-05 3.087435025e-07)
(0 7.452534966e-05 -5.33630777e-08)
(0 7.195248267e-05 -3.62106577e-07)
(0 6.941011334e-05 -6.251103013e-07)
(0 6.693254604e-05 -8.576208917e-07)
(0 6.451214543e-05 -1.055826546e-06)
(0 6.216417015e-05 -1.227350714e-06)
(0 5.985812659e-05 -1.368381778e-06)
(0 5.762068552e-05 -1.478919493e-06)
(0 5.544042276e-05 -1.57039905e-06)
(0 5.332114957e-05 -1.646632112e-06)
(0 5.1266668e-05 -1.707618384e-06)
(0 4.925792941e-05 -1.753358162e-06)
(0 4.731399168e-05 -1.783851455e-06)
(0 4.543103464e-05 -1.802909589e-06)
(0 4.360906681e-05 -1.806721237e-06)
(0 4.183284127e-05 -1.802909697e-06)
(0 4.012903203e-05 -1.791474644e-06)
(0 3.846334177e-05 -1.780039699e-06)
(0 3.68586401e-05 -1.757169916e-06)
(0 3.531110873e-05 -1.722864977e-06)
(0 3.381694264e-05 -1.699995088e-06)
(0 3.236470663e-05 -1.665690354e-06)
(0 3.098488805e-05 -1.635197069e-06)
(0 2.963556459e-05 -1.589457291e-06)
(0 2.833579426e-05 -1.547529253e-06)
(0 2.708938361e-05 -1.505601031e-06)
(0 2.587727949e-05 -1.456049604e-06)
(0 2.471472827e-05 -1.410309911e-06)
(0 2.360553717e-05 -1.364570048e-06)
(0 2.253446403e-05 -1.31883027e-06)
(0 2.150532032e-05 -1.273090568e-06)
(0 2.05142905e-05 -1.227350714e-06)
(0 1.95651901e-05 -1.181610935e-06)
(0 1.864658401e-05 -1.132059577e-06)
(0 1.777371546e-05 -1.090131379e-06)
(0 1.693896451e-05 -1.036768305e-06)
(0 1.611946112e-05 -9.986518828e-07)
(0 1.535331886e-05 -9.567236929e-07)
(0 1.461385912e-05 -9.147955629e-07)
(0 1.390870504e-05 -8.766791337e-07)
(0 1.323023083e-05 -8.385625993e-07)
(0 1.258606229e-05 -8.004461175e-07)
(0 1.19609527e-05 -7.661413299e-07)
(0 1.137014652e-05 -7.318364503e-07)
(0 1.080602259e-05 -6.937199685e-07)
(0 1.026095751e-05 -6.594151745e-07)
(0 9.746384393e-06 -6.251103013e-07)
(0 9.258493426e-06 -5.869938195e-07)
(0 8.789661228e-06 -5.641239643e-07)
(0 8.355132808e-06 -5.33630745e-07)
(0 7.928228212e-06 -5.069492078e-07)
(0 7.528005605e-06 -4.840793478e-07)
(0 7.146840335e-06 -4.535861333e-07)
(0 6.788545406e-06 -4.230929478e-07)
(0 6.445497457e-06 -4.002230828e-07)
(0 6.121506975e-06 -3.811648179e-07)
(0 5.816575121e-06 -3.506716324e-07)
(0 5.519266894e-06 -3.316134115e-07)
(0 5.256262839e-06 -3.20178447e-07)
(0 4.997070762e-06 -2.973085579e-07)
(0 4.753125564e-06 -2.782503337e-07)
(0 4.528238036e-06 -2.630037243e-07)
(0 4.314785738e-06 -2.439454834e-07)
(0 4.120391928e-06 -2.24887256e-07)
(0 3.929809272e-06 -2.096406498e-07)
(0 3.758285104e-06 -1.905824089e-07)
(0 3.598196097e-06 -1.753358267e-07)
(0 3.457164898e-06 -1.639008717e-07)
(0 3.323757212e-06 -1.448426308e-07)
(0 3.201784662e-06 -1.295960459e-07)
(0 3.098869969e-06 -1.181610935e-07)
(0 2.999767117e-06 -1.029145008e-07)
(0 2.908287735e-06 -8.766791337e-08)
(0 2.8244313e-06 -7.623296358e-08)
(0 2.76344493e-06 -6.479801904e-08)
(0 2.706270369e-06 -5.33630777e-08)
(0 2.660530429e-06 -3.811648179e-08)
(0 2.626225595e-06 -2.286988907e-08)
(0 2.607167511e-06 -1.524659363e-08)
(0 2.603355706e-06 -7.623296358e-09)
(0 8.576208454e-06 0.000139811256)
(0 2.51225748e-05 0.0001378901936)
(0 4.10171463e-05 0.0001342005099)
(0 5.582539956e-05 0.000129009045)
(0 6.927289857e-05 0.0001226397882)
(0 8.123384647e-05 0.000115454824)
(0 9.163583442e-05 0.0001077667296)
(0 0.0001005207924 9.984994228e-05)
(0 0.0001079458771 9.193695462e-05)
(0 0.0001140330792 8.420312042e-05)
(0 0.0001189081844 7.676659939e-05)
(0 0.0001227122022 6.970361066e-05)
(0 0.0001255404452 6.307134279e-05)
(0 0.0001275339448 5.688885282e-05)
(0 0.0001287955927 5.116756546e-05)
(0 0.0001294054564 4.5896056e-05)
(0 0.0001294588273 4.106670019e-05)
(0 0.0001290433499 3.66604324e-05)
(0 0.0001282009756 3.26353319e-05)
(0 0.0001270041257 2.897996302e-05)
(0 0.000125498517 2.566763899e-05)
(0 0.0001237489705 2.267549515e-05)
(0 0.0001217631091 1.997303778e-05)
(0 0.0001196018973 1.752977008e-05)
(0 0.0001172806035 1.533426072e-05)
(0 0.0001148373439 1.33560161e-05)
(0 0.000112291156 1.158359888e-05)
(0 0.0001096573071 9.986518288e-06)
(0 0.0001069586666 8.560962375e-06)
(0 0.0001042295201 7.287871362e-06)
(0 0.0001014546402 6.140565253e-06)
(0 9.866451962e-05 5.126667139e-06)
(0 9.587819886e-05 4.223306207e-06)
(0 9.308044908e-05 3.415236789e-06)
(0 9.029795132e-05 2.702458737e-06)
(0 8.75383126e-05 2.069724974e-06)
(0 8.479392589e-05 1.509412688e-06)
(0 8.20876606e-05 1.013898482e-06)
(0 7.941950193e-05 5.831821749e-07)
(0 7.679327632e-05 2.058290029e-07)
(0 7.420135999e-05 -1.181611013e-07)
(0 7.166660949e-05 -4.078463576e-07)
(0 6.917379156e-05 -6.632267871e-07)
(0 6.672290577e-05 -8.690558421e-07)
(0 6.434062164e-05 -1.052014904e-06)
(0 6.201170459e-05 -1.200669184e-06)
(0 5.973996585e-05 -1.330265302e-06)
(0 5.752158301e-05 -1.436991372e-06)
(0 5.535656683e-05 -1.520847632e-06)
(0 5.325254022e-05 -1.589457395e-06)
(0 5.121330524e-05 -1.642820375e-06)
(0 4.922743652e-05 -1.684748505e-06)
(0 4.729112208e-05 -1.707618497e-06)
(0 4.542341162e-05 -1.722864987e-06)
(0 4.360525543e-05 -1.730488284e-06)
(0 4.184046482e-05 -1.726676739e-06)
(0 4.014046721e-05 -1.719053339e-06)
(0 3.848240024e-05 -1.699995098e-06)
(0 3.688151021e-05 -1.677125309e-06)
(0 3.534541377e-05 -1.650443671e-06)
(0 3.384362438e-05 -1.619950486e-06)
(0 3.240282331e-05 -1.589457395e-06)
(0 3.101156977e-05 -1.551340818e-06)
(0 2.96774929e-05 -1.517035984e-06)
(0 2.838153421e-05 -1.475107943e-06)
(0 2.712750025e-05 -1.436991372e-06)
(0 2.592683107e-05 -1.395063242e-06)
(0 2.47604682e-05 -1.345511896e-06)
(0 2.365127709e-05 -1.299772037e-06)
(0 2.258401559e-05 -1.254032258e-06)
(0 2.154724858e-05 -1.212104201e-06)
(0 2.05600304e-05 -1.16636435e-06)
(0 1.960711835e-05 -1.124436219e-06)
(0 1.86923239e-05 -1.082508154e-06)
(0 1.781945534e-05 -1.036768311e-06)
(0 1.698089274e-05 -9.986518288e-07)
(0 1.616138934e-05 -9.529121076e-07)
(0 1.539143544e-05 -9.147955684e-07)
(0 1.465197569e-05 -8.766790864e-07)
(0 1.394682161e-05 -8.423743031e-07)
(0 1.327597069e-05 -8.004461223e-07)
(0 1.26127439e-05 -7.661412885e-07)
(0 1.199525761e-05 -7.318364986e-07)
(0 1.140826307e-05 -6.975316209e-07)
(0 1.084032749e-05 -6.594151389e-07)
(0 1.029526241e-05 -6.28921991e-07)
(0 9.780689285e-06 -5.946171195e-07)
(0 9.285175019e-06 -5.717472302e-07)
(0 8.820154468e-06 -5.412540771e-07)
(0 8.378002747e-06 -5.069492108e-07)
(0 7.958721445e-06 -4.802676734e-07)
(0 7.554687189e-06 -4.535861632e-07)
(0 7.173521916e-06 -4.307162468e-07)
(0 6.815226985e-06 -4.040347094e-07)
(0 6.464555738e-06 -3.81164843e-07)
(0 6.148188549e-06 -3.621065792e-07)
(0 5.835633397e-06 -3.468599864e-07)
(0 5.542136818e-06 -3.201784681e-07)
(0 5.267697815e-06 -2.973085597e-07)
(0 5.016129033e-06 -2.858736151e-07)
(0 4.768372186e-06 -2.668153901e-07)
(0 4.543484656e-06 -2.477571331e-07)
(0 4.337655653e-06 -2.363221885e-07)
(0 4.135638547e-06 -2.21075609e-07)
(0 3.948867537e-06 -2.058290029e-07)
(0 3.77353172e-06 -1.829591137e-07)
(0 3.613442712e-06 -1.677125309e-07)
(0 3.472411512e-06 -1.524659281e-07)
(0 3.342815473e-06 -1.372193353e-07)
(0 3.213219627e-06 -1.181611013e-07)
(0 3.106493284e-06 -1.105377978e-07)
(0 3.015013728e-06 -9.910285324e-08)
(0 2.919722698e-06 -9.147956233e-08)
(0 2.83967791e-06 -7.242131583e-08)
(0 2.774879891e-06 -6.098637123e-08)
(0 2.717705331e-06 -4.573978116e-08)
(0 2.675777038e-06 -3.811648202e-08)
(0 2.641472204e-06 -3.049318561e-08)
(0 2.614790823e-06 -1.905824215e-08)
(0 2.610979018e-06 -3.811648202e-09)
(0 7.733834155e-06 0.0001182144566)
(0 2.267168473e-05 0.0001167317325)
(0 3.712926491e-05 0.0001138691777)
(0 5.073303726e-05 0.0001098097724)
(0 6.326574027e-05 0.000104789838)
(0 7.459395486e-05 9.904948957e-05)
(0 8.462621287e-05 9.283269139e-05)
(0 9.33548928e-05 8.637195291e-05)
(0 0.0001008142827 7.983115946e-05)
(0 0.0001070882556 7.337041579e-05)
(0 0.000112237799 6.710788186e-05)
(0 0.0001163772422 6.11083436e-05)
(0 0.0001195980849 5.542898782e-05)
(0 0.0001219879956 5.010792996e-05)
(0 0.0001236613019 4.514897268e-05)
(0 0.0001246713886 4.056355992e-05)
(0 0.0001251249823 3.634025592e-05)
(0 0.0001250754233 3.246761919e-05)
(0 0.0001245875324 2.893040968e-05)
(0 0.0001237146724 2.570575686e-05)
(0 0.0001225254307 2.277840952e-05)
(0 0.0001210541345 2.012169074e-05)
(0 0.000119327465 1.77165418e-05)
(0 0.0001174025756 1.554390127e-05)
(0 0.0001153061691 1.358471411e-05)
(0 0.0001130573034 1.182754501e-05)
(0 0.0001106864515 1.023427536e-05)
(0 0.0001082241267 8.808718941e-06)
(0 0.0001056779521 7.53944055e-06)
(0 0.0001030822133 6.395945644e-06)
(0 0.0001004293062 5.370612284e-06)
(0 9.775353506e-05 4.459628637e-06)
(0 9.505869393e-05 3.647747307e-06)
(0 9.236004702e-05 2.927345801e-06)
(0 8.965378219e-05 2.286989044e-06)
(0 8.696656485e-05 1.71524168e-06)
(0 8.429841112e-05 1.212104121e-06)
(0 8.164932054e-05 7.737646267e-07)
(0 7.903452499e-05 3.887881142e-07)
(0 7.645403917e-05 4.192812997e-08)
(0 7.390786262e-05 -2.553804433e-07)
(0 7.140741698e-05 -5.145725041e-07)
(0 6.89565272e-05 -7.318364503e-07)
(0 6.653994625e-05 -9.300422114e-07)
(0 6.418053203e-05 -1.082508083e-06)
(0 6.188210818e-05 -1.223539065e-06)
(0 5.962561604e-05 -1.330265294e-06)
(0 5.743010311e-05 -1.425556419e-06)
(0 5.528795683e-05 -1.501789382e-06)
(0 5.319536517e-05 -1.558964199e-06)
(0 5.116756515e-05 -1.604703883e-06)
(0 4.91931314e-05 -1.639008717e-06)
(0 4.727968685e-05 -1.658067057e-06)
(0 4.54119764e-05 -1.669501902e-06)
(0 4.360906681e-05 -1.669501902e-06)
(0 4.184427622e-05 -1.669502002e-06)
(0 4.014809027e-05 -1.658066958e-06)
(0 3.85052699e-05 -1.642820365e-06)
(0 3.691200318e-05 -1.619950573e-06)
(0 3.536828345e-05 -1.589457291e-06)
(0 3.387792901e-05 -1.558964105e-06)
(0 3.243712795e-05 -1.524659363e-06)
(0 3.104968606e-05 -1.48654279e-06)
(0 2.971179755e-05 -1.456049604e-06)
(0 2.841965053e-05 -1.417933208e-06)
(0 2.716942822e-05 -1.376004993e-06)
(0 2.596494739e-05 -1.337888511e-06)
(0 2.481001948e-05 -1.295960459e-06)
(0 2.369701673e-05 -1.250220603e-06)
(0 2.262213194e-05 -1.208292473e-06)
(0 2.159298823e-05 -1.162552764e-06)
(0 2.060195841e-05 -1.120624565e-06)
(0 1.964904636e-05 -1.078696435e-06)
(0 1.873425192e-05 -1.040580015e-06)
(0 1.786138337e-05 -9.948401747e-07)
(0 1.701900912e-05 -9.567236929e-07)
(0 1.620331738e-05 -9.224189146e-07)
(0 1.543336348e-05 -8.728674329e-07)
(0 1.469009208e-05 -8.385625993e-07)
(0 1.398493801e-05 -8.04257814e-07)
(0 1.330265214e-05 -7.661412839e-07)
(0 1.265467195e-05 -7.318364503e-07)
(0 1.202956237e-05 -7.01343307e-07)
(0 1.144256783e-05 -6.670384313e-07)
(0 1.087082061e-05 -6.40356894e-07)
(0 1.032194389e-05 -6.098637452e-07)
(0 9.811182412e-06 -5.793705232e-07)
(0 9.315668149e-06 -5.450656896e-07)
(0 8.850647602e-06 -5.14572535e-07)
(0 8.408495882e-06 -4.878909669e-07)
(0 7.981591286e-06 -4.650210778e-07)
(0 7.581368682e-06 -4.383395669e-07)
(0 7.20020341e-06 -4.116580033e-07)
(0 6.838096833e-06 -3.887881142e-07)
(0 6.483613941e-06 -3.697298955e-07)
(0 6.163435105e-06 -3.430483361e-07)
(0 5.858503251e-06 -3.316133916e-07)
(0 5.561195027e-06 -3.125551694e-07)
(0 5.290567672e-06 -2.934969098e-07)
(0 5.035187244e-06 -2.782503171e-07)
(0 4.783618751e-06 -2.591920917e-07)
(0 4.558731222e-06 -2.439454834e-07)
(0 4.349090572e-06 -2.286988907e-07)
(0 4.147073467e-06 -2.096406624e-07)
(0 3.967925754e-06 -1.982057053e-07)
(0 3.796401586e-06 -1.791474644e-07)
(0 3.632500932e-06 -1.639008815e-07)
(0 3.483846435e-06 -1.48654279e-07)
(0 3.358062046e-06 -1.372193344e-07)
(0 3.224654553e-06 -1.181611006e-07)
(0 3.121739858e-06 -1.06726149e-07)
(0 3.018825358e-06 -9.910285265e-08)
(0 2.931157625e-06 -8.385626496e-08)
(0 2.858736134e-06 -7.24213154e-08)
(0 2.786314819e-06 -5.717472268e-08)
(0 2.72914026e-06 -4.573978089e-08)
(0 2.683400318e-06 -3.430483361e-08)
(0 2.649095484e-06 -2.668153725e-08)
(0 2.626225753e-06 -1.524659363e-08)
(0 2.626225595e-06 -7.623296358e-09)
(0 7.089665613e-06 9.812325907e-05)
(0 2.078110712e-05 9.698358208e-05)
(0 3.409519296e-05 9.477282032e-05)
(0 4.673842997e-05 9.161296398e-05)
(0 5.85126147e-05 8.767934832e-05)
(0 6.928432895e-05 8.313967008e-05)
(0 7.895829202e-05 7.818452744e-05)
(0 8.750782414e-05 7.297400876e-05)
(0 9.494815613e-05 6.765675517e-05)
(0 0.0001013136086 6.236999915e-05)
(0 0.0001066461108 5.718997271e-05)
(0 0.0001110294998 5.220052181e-05)
(0 0.0001145476511 4.744739653e-05)
(0 0.0001172539283 4.29687125e-05)
(0 0.0001192512249 3.877589692e-05)
(0 0.0001205929251 3.487276919e-05)
(0 0.0001213666969 3.127076354e-05)
(0 0.0001216296934 2.795843939e-05)
(0 0.0001214429226 2.491674414e-05)
(0 0.0001208483128 2.214567725e-05)
(0 0.0001199144517 1.961474153e-05)
(0 0.0001186909126 1.731631768e-05)
(0 0.0001171853186 1.522753539e-05)
(0 0.0001154700699 1.334839192e-05)
(0 0.0001135604342 1.164458519e-05)
(0 0.0001114869043 1.010849158e-05)
(0 0.0001092761416 8.728674329e-06)
(0 0.0001069586595 7.489888671e-06)
(0 0.0001045458925 6.373076137e-06)
(0 0.0001020606916 5.374423932e-06)
(0 9.952213395e-05 4.486309906e-06)
(0 9.69454656e-05 3.689675658e-06)
(0 9.433829243e-05 2.976897228e-06)
(0 9.171969013e-05 2.347975278e-06)
(0 8.908965823e-05 1.783851455e-06)
(0 8.646342729e-05 1.288337084e-06)
(0 8.384863664e-05 8.499975439e-07)
(0 8.12605324e-05 4.650211057e-07)
(0 7.869147665e-05 1.257843899e-07)
(0 7.615673061e-05 -1.639008717e-07)
(0 7.364867053e-05 -4.3071627e-07)
(0 7.118634139e-05 -6.517918386e-07)
(0 6.87583215e-05 -8.423742475e-07)
(0 6.637604537e-05 -1.002463531e-06)
(0 6.40433127e-05 -1.147306102e-06)
(0 6.176775874e-05 -1.261655547e-06)
(0 5.953032483e-05 -1.356946833e-06)
(0 5.735387015e-05 -1.436991363e-06)
(0 5.522697046e-05 -1.497977734e-06)
(0 5.314962539e-05 -1.539905957e-06)
(0 5.113326032e-05 -1.578022346e-06)
(0 4.917026151e-05 -1.604703883e-06)
(0 4.72606286e-05 -1.623762222e-06)
(0 4.540816475e-05 -1.631385421e-06)
(0 4.360906681e-05 -1.627573772e-06)
(0 4.185571116e-05 -1.619950573e-06)
(0 4.016333686e-05 -1.608515531e-06)
(0 3.852432814e-05 -1.585645642e-06)
(0 3.693868472e-05 -1.558964199e-06)
(0 3.539877664e-05 -1.52847092e-06)
(0 3.39084222e-05 -1.501789382e-06)
(0 3.247143278e-05 -1.467484637e-06)
(0 3.108780255e-05 -1.433179715e-06)
(0 2.974991404e-05 -1.395063233e-06)
(0 2.845395536e-05 -1.360758481e-06)
(0 2.72075447e-05 -1.31883027e-06)
(0 2.600687552e-05 -1.284525436e-06)
(0 2.484813597e-05 -1.246409029e-06)
(0 2.374275651e-05 -1.200669176e-06)
(0 2.266406007e-05 -1.158741046e-06)
(0 2.163491636e-05 -1.12443628e-06)
(0 2.064388654e-05 -1.078696435e-06)
(0 1.969478614e-05 -1.036768305e-06)
(0 1.877618006e-05 -9.910285859e-07)
(0 1.789187655e-05 -9.567236929e-07)
(0 1.706093725e-05 -9.224188593e-07)
(0 1.624905716e-05 -8.804907821e-07)
(0 1.546766831e-05 -8.423742475e-07)
(0 1.472439691e-05 -8.042577657e-07)
(0 1.401924284e-05 -7.661413299e-07)
(0 1.334076863e-05 -7.356480985e-07)
(0 1.268516514e-05 -7.013432649e-07)
(0 1.206005556e-05 -6.708501197e-07)
(0 1.146924937e-05 -6.365452459e-07)
(0 1.090131379e-05 -6.098637086e-07)
(0 1.035624872e-05 -5.755589095e-07)
(0 9.845487246e-06 -5.488773377e-07)
(0 9.346161334e-06 -5.183841523e-07)
(0 8.877329141e-06 -4.917026446e-07)
(0 8.431365771e-06 -4.650210778e-07)
(0 8.004461175e-06 -4.421511887e-07)
(0 7.608050221e-06 -4.154696764e-07)
(0 7.223073299e-06 -3.964114106e-07)
(0 6.857155074e-06 -3.773531697e-07)
(0 6.514107128e-06 -3.506716535e-07)
(0 6.178681698e-06 -3.354250397e-07)
(0 5.869938195e-06 -3.125551507e-07)
(0 5.580253269e-06 -3.011202242e-07)
(0 5.305814265e-06 -2.858736134e-07)
(0 5.046622189e-06 -2.630037243e-07)
(0 4.802676993e-06 -2.515687949e-07)
(0 4.577789463e-06 -2.363221871e-07)
(0 4.364337165e-06 -2.13452298e-07)
(0 4.166131709e-06 -2.020173656e-07)
(0 3.983172347e-06 -1.829591126e-07)
(0 3.807836531e-06 -1.71524168e-07)
(0 3.643935878e-06 -1.600892331e-07)
(0 3.502904676e-06 -1.410309826e-07)
(0 3.36949699e-06 -1.295960381e-07)
(0 3.239901146e-06 -1.257843974e-07)
(0 3.129363155e-06 -1.06726149e-07)
(0 3.037883598e-06 -9.147955629e-08)
(0 2.946404219e-06 -8.004461656e-08)
(0 2.870171079e-06 -6.479801904e-08)
(0 2.797749763e-06 -5.33630745e-08)
(0 2.736763557e-06 -4.573978089e-08)
(0 2.694835262e-06 -3.811648179e-08)
(0 2.660530429e-06 -2.286988907e-08)
(0 2.637660698e-06 -1.524659363e-08)
(0 2.633848892e-06 -3.811648179e-09)
(0 6.582716444e-06 7.921367293e-05)
(0 1.932505754e-05 7.834462184e-05)
(0 3.175484117e-05 7.665986863e-05)
(0 4.364337191e-05 7.424709532e-05)
(0 5.479625783e-05 7.121302762e-05)
(0 6.509151634e-05 6.769106041e-05)
(0 7.445673597e-05 6.381461419e-05)
(0 8.283093204e-05 5.970947266e-05)
(0 9.021790129e-05 5.550522111e-05)
(0 9.661384697e-05 5.127810326e-05)
(0 0.000102075945 4.711578625e-05)
(0 0.0001066308584 4.308305962e-05)
(0 0.0001103586504 3.921804835e-05)
(0 0.0001133164962 3.555505656e-05)
(0 0.0001155653618 3.211694775e-05)
(0 0.0001171738774 2.890753996e-05)
(0 0.0001182068411 2.593064427e-05)
(0 0.0001187214065 2.317863271e-05)
(0 0.0001187747696 2.06553216e-05)
(0 0.0001184126701 1.834165225e-05)
(0 0.0001176960732 1.622618639e-05)
(0 0.0001166669282 1.42974924e-05)
(0 0.0001153595397 1.255175828e-05)
(0 0.0001138196269 1.096992352e-05)
(0 0.0001120662688 9.536743801e-06)
(0 0.000110141393 8.240783906e-06)
(0 0.0001080678498 7.07823071e-06)
(0 0.0001058685288 6.037650751e-06)
(0 0.0001035701111 5.092362303e-06)
(0 0.0001011878248 4.253799393e-06)
(0 9.874074666e-05 3.499093049e-06)
(0 9.624412287e-05 2.828243135e-06)
(0 9.372461763e-05 2.22600255e-06)
(0 9.116319004e-05 1.69618345e-06)
(0 8.859795612e-05 1.227350795e-06)
(0 8.603271156e-05 8.004461223e-07)
(0 8.347128397e-05 4.383395432e-07)
(0 8.092891947e-05 1.143494529e-07)
(0 7.839798021e-05 -1.715241691e-07)
(0 7.589753899e-05 -4.230929504e-07)
(0 7.342378371e-05 -6.365452879e-07)
(0 7.09957594e-05 -8.195043634e-07)
(0 6.860204433e-05 -9.83405236e-07)
(0 6.623882642e-05 -1.120624639e-06)
(0 6.392896364e-05 -1.231162369e-06)
(0 6.166484461e-05 -1.322641926e-06)
(0 5.945409222e-05 -1.402686622e-06)
(0 5.728907247e-05 -1.459861261e-06)
(0 5.517741937e-05 -1.513224336e-06)
(0 5.311532088e-05 -1.551340911e-06)
(0 5.110276744e-05 -1.574210707e-06)
(0 4.915501521e-05 -1.593268948e-06)
(0 4.725300559e-05 -1.597080692e-06)
(0 4.540816503e-05 -1.593268948e-06)
(0 4.361287872e-05 -1.593268948e-06)
(0 4.187095801e-05 -1.574210802e-06)
(0 4.018620699e-05 -1.558964114e-06)
(0 3.854719826e-05 -1.532282577e-06)
(0 3.696155483e-05 -1.509412778e-06)
(0 3.542927003e-05 -1.486542799e-06)
(0 3.394272724e-05 -1.452237965e-06)
(0 3.250192617e-05 -1.421744865e-06)
(0 3.112210757e-05 -1.379816649e-06)
(0 2.97880307e-05 -1.345511815e-06)
(0 2.849207202e-05 -1.31120706e-06)
(0 2.724566135e-05 -1.273090499e-06)
(0 2.604499216e-05 -1.234974017e-06)
(0 2.48938759e-05 -1.18923431e-06)
(0 2.378087313e-05 -1.151117757e-06)
(0 2.270598834e-05 -1.113001275e-06)
(0 2.167303298e-05 -1.06726156e-06)
(0 2.068962644e-05 -1.032956663e-06)
(0 1.973290274e-05 -9.872168842e-07)
(0 1.8810485e-05 -9.529121076e-07)
(0 1.793761644e-05 -9.147955684e-07)
(0 1.709524218e-05 -8.766790864e-07)
(0 1.627955045e-05 -8.423743031e-07)
(0 1.550959653e-05 -8.11881067e-07)
(0 1.476251349e-05 -7.737645849e-07)
(0 1.404973611e-05 -7.394597955e-07)
(0 1.337888519e-05 -7.051549173e-07)
(0 1.27156584e-05 -6.708500835e-07)
(0 1.209054882e-05 -6.327336394e-07)
(0 1.149974262e-05 -6.098637123e-07)
(0 1.093561869e-05 -5.755588785e-07)
(0 1.038293032e-05 -5.48877374e-07)
(0 9.864545546e-06 -5.221958036e-07)
(0 9.376654576e-06 -4.993259144e-07)
(0 8.904010733e-06 -4.726444054e-07)
(0 8.454235711e-06 -4.459628396e-07)
(0 8.034954409e-06 -4.192813022e-07)
(0 7.627108509e-06 -4.040347336e-07)
(0 7.245943231e-06 -3.77353172e-07)
(0 6.876213356e-06 -3.544832828e-07)
(0 6.529353761e-06 -3.392367103e-07)
(0 6.197739976e-06 -3.201784489e-07)
(0 5.89280812e-06 -3.011202079e-07)
(0 5.591688247e-06 -2.858736323e-07)
(0 5.328684186e-06 -2.630037259e-07)
(0 5.061868812e-06 -2.515687813e-07)
(0 4.817923616e-06 -2.325105543e-07)
(0 4.589224435e-06 -2.172639475e-07)
(0 4.38720708e-06 -2.058290029e-07)
(0 4.17756668e-06 -1.905824215e-07)
(0 3.994607315e-06 -1.753358173e-07)
(0 3.823083146e-06 -1.639008727e-07)
(0 3.662994142e-06 -1.486542888e-07)
(0 3.514339642e-06 -1.334076871e-07)
(0 3.377120307e-06 -1.219727425e-07)
(0 3.251336111e-06 -1.105378045e-07)
(0 3.144609766e-06 -9.910285324e-08)
(0 3.049318561e-06 -8.766790864e-08)
(0 2.96165083e-06 -7.242132018e-08)
(0 2.877794392e-06 -6.860966763e-08)
(0 2.809184725e-06 -5.717472302e-08)
(0 2.74438687e-06 -4.573978116e-08)
(0 2.706270223e-06 -3.049318561e-08)
(0 2.671965389e-06 -2.286988921e-08)
(0 2.649095659e-06 -1.143494529e-08)
(0 2.641472204e-06 -3.811648202e-09)
(0 6.209174883e-06 6.119601151e-05)
(0 1.822730268e-05 6.055565825e-05)
(0 2.999767117e-05 5.931686896e-05)
(0 4.129158472e-05 5.752158267e-05)
(0 5.195276779e-05 5.525746696e-05)
(0 6.188591983e-05 5.261599146e-05)
(0 7.098051239e-05 4.97000806e-05)
(0 7.919843061e-05 4.659359013e-05)
(0 8.650916707e-05 4.338417957e-05)
(0 9.292417095e-05 4.014427862e-05)
(0 9.845487837e-05 3.693487307e-05)
(0 0.0001031393881 3.381694264e-05)
(0 0.0001070158343 3.081336388e-05)
(0 0.000110156639 2.795081777e-05)
(0 0.0001125998988 2.525216918e-05)
(0 0.0001144104317 2.272504644e-05)
(0 0.0001156339777 2.036563744e-05)
(0 0.0001163543723 1.818537346e-05)
(0 0.0001166021294 1.618425817e-05)
(0 0.0001164191773 1.433942131e-05)
(0 0.0001158779163 1.265467195e-05)
(0 0.0001150126721 1.111857774e-05)
(0 0.0001138577496 9.715891791e-06)
(0 0.0001124550562 8.442800716e-06)
(0 0.0001108351057 7.295494614e-06)
(0 0.000109028391 6.254915037e-06)
(0 0.0001070691973 5.317249209e-06)
(0 0.0001049727908 4.474874962e-06)
(0 0.0001027620411 3.712545549e-06)
(0 0.0001004674227 3.03407195e-06)
(0 9.810038918e-05 2.431831538e-06)
(0 9.567237503e-05 1.89057761e-06)
(0 9.320623292e-05 1.410309826e-06)
(0 9.071341501e-05 9.795935819e-07)
(0 8.819392085e-05 6.022404484e-07)
(0 8.567822776e-05 2.668153725e-07)
(0 8.315872832e-05 -3.049318543e-08)
(0 8.064685701e-05 -2.89685279e-07)
(0 7.815784591e-05 -5.183841523e-07)
(0 7.568789789e-05 -7.165898576e-07)
(0 7.324844745e-05 -8.957373758e-07)
(0 7.083566975e-05 -1.036768305e-06)
(0 6.846482459e-05 -1.162552695e-06)
(0 6.612828822e-05 -1.26927892e-06)
(0 6.38374837e-05 -1.349323455e-06)
(0 6.159623457e-05 -1.421744771e-06)
(0 5.939691713e-05 -1.475107934e-06)
(0 5.72395207e-05 -1.520847623e-06)
(0 5.51431142e-05 -1.551340809e-06)
(0 5.308863902e-05 -1.574210792e-06)
(0 5.109133219e-05 -1.589457291e-06)
(0 4.914739162e-05 -1.593268939e-06)
(0 4.725300531e-05 -1.589457386e-06)
(0 4.541578805e-05 -1.585645642e-06)
(0 4.362812505e-05 -1.566587401e-06)
(0 4.188620435e-05 -1.551340902e-06)
(0 4.020526499e-05 -1.52847092e-06)
(0 3.857769122e-05 -1.509412679e-06)
(0 3.698823615e-05 -1.471296285e-06)
(0 3.545595136e-05 -1.44461466e-06)
(0 3.397322022e-05 -1.410309826e-06)
(0 3.254004245e-05 -1.376005075e-06)
(0 3.116022386e-05 -1.349323455e-06)
(0 2.982233535e-05 -1.303583677e-06)
(0 2.852637668e-05 -1.26927892e-06)
(0 2.728377766e-05 -1.231162362e-06)
(0 2.609073178e-05 -1.19304588e-06)
(0 2.493199223e-05 -1.154929467e-06)
(0 2.382280112e-05 -1.113001268e-06)
(0 2.274410468e-05 -1.071073138e-06)
(0 2.171496098e-05 -1.032956718e-06)
(0 2.072393115e-05 -9.948401747e-07)
(0 1.97710191e-05 -9.567236929e-07)
(0 1.884860138e-05 -9.224189146e-07)
(0 1.797192116e-05 -8.804907293e-07)
(0 1.712954692e-05 -8.499975439e-07)
(0 1.631766683e-05 -8.156927592e-07)
(0 1.554008962e-05 -7.775762285e-07)
(0 1.479681823e-05 -7.432713949e-07)
(0 1.408785251e-05 -7.127782522e-07)
(0 1.340937829e-05 -6.82285024e-07)
(0 1.275377481e-05 -6.479801904e-07)
(0 1.212104194e-05 -6.17487042e-07)