/*--------------------------------*- C++ -*----------------------------------*\
  =========                 |
  \\      /  F ield         | OpenFOAM: The Open Source CFD Toolbox
   \\    /   O peration     | Website:  https://openfoam.org
    \\  /    A nd           | Version:  6
     \\/     M anipulation  |
\*---------------------------------------------------------------------------*/
FoamFile
{
    version     2.0;
    format      ascii;
    class       volVectorField;
    location    "0.0011";
    object      gradT;
}
// * * * * * * * * * * * * * * * * * * * * * * * * * * * * * * * * * * * * * //

dimensions      [0 -1 0 1 0 0 0];

internalField   nonuniform List<vector> 
600
(
(0 3.996608479e-05 -2.519499492e-06)
(0 3.936003331e-05 -6.289219703e-07)
(0 2.264119059e-05 1.486542816e-07)
(0 1.566110974e-05 4.021288901e-07)
(0 1.176751123e-05 4.240458739e-07)
(0 9.114603872e-06 3.611536714e-07)
(0 7.108723981e-06 2.811090582e-07)
(0 5.521172569e-06 2.058290084e-07)
(0 4.25189362e-06 1.448426334e-07)
(0 3.237042274e-06 1.000557665e-07)
(0 2.428972882e-06 6.765675741e-08)
(0 1.800050885e-06 4.478686691e-08)
(0 1.314065733e-06 2.954027392e-08)
(0 9.452887795e-07 1.905824152e-08)
(0 6.718030036e-07 1.334076887e-08)
(0 4.697856465e-07 8.576208557e-09)
(0 3.220842817e-07 5.717472457e-09)
(0 2.201226863e-07 3.811648247e-09)
(0 1.467484575e-07 1.905824124e-09)
(0 9.529120761e-08 0)
(0 6.098637196e-08 0)
(0 3.811648247e-08 0)
(0 2.38228019e-08 0)
(0 1.429368093e-08 0)
(0 8.576208557e-09 9.529120618e-10)
(0 4.764560381e-09 9.529120761e-10)
(0 4.764560309e-09 0)
(0 3.811648247e-09 9.529120618e-10)
(0 9.529120761e-10 0)
(0 0 0)
(0 1.751833532e-05 2.777357491e-05)
(0 2.235436436e-05 9.947449148e-06)
(0 1.844551875e-05 4.181378121e-06)
(0 1.441279491e-05 2.044949282e-06)
(0 1.127866732e-05 1.128247896e-06)
(0 8.864940898e-06 6.746617388e-07)
(0 6.957210953e-06 4.240458669e-07)
(0 5.421116793e-06 2.763445017e-07)
(0 4.181378121e-06 1.829591156e-07)
(0 3.188443754e-06 1.200669196e-07)
(0 2.39752678e-06 8.099752635e-08)
(0 1.778133905e-06 5.336307538e-08)
(0 1.29977205e-06 3.525774624e-08)
(0 9.367125694e-07 2.477571394e-08)
(0 6.651326182e-07 1.524659297e-08)
(0 4.640681734e-07 9.529120604e-09)
(0 3.201784571e-07 5.717472448e-09)
(0 2.182168618e-07 2.858736181e-09)
(0 1.448426332e-07 9.529120604e-10)
(0 9.43382954e-08 2.858736224e-09)
(0 6.098637187e-08 1.905824121e-09)
(0 3.906939448e-08 1.905824121e-09)
(0 2.382280187e-08 1.905824149e-09)
(0 1.429368091e-08 9.529120604e-10)
(0 8.576208544e-09 0)
(0 4.764560374e-09 9.529120747e-10)
(0 4.764560302e-09 9.529120604e-10)
(0 2.858736181e-09 -9.529120604e-10)
(0 9.529120747e-10 0)
(0 0 0)
(0 1.347036489e-05 1.389441075e-05)
(0 1.576497736e-05 8.316063676e-06)
(0 1.473869084e-05 4.484404156e-06)
(0 1.260893238e-05 2.403244216e-06)
(0 1.039722365e-05 1.324547784e-06)
(0 8.411354757e-06 7.613767363e-07)
(0 6.709453817e-06 4.545390528e-07)
(0 5.279132894e-06 2.81109062e-07)
(0 4.096568948e-06 1.810532915e-07)
(0 3.132221943e-06 1.172081834e-07)
(0 2.362269033e-06 7.718587805e-08)
(0 1.754311103e-06 5.05043392e-08)
(0 1.286431282e-06 3.525774624e-08)
(0 9.252776245e-07 2.382280187e-08)
(0 6.584622338e-07 1.524659297e-08)
(0 4.593036131e-07 9.529120604e-09)
(0 3.163668088e-07 6.670384523e-09)
(0 2.163110377e-07 2.858736181e-09)
(0 1.448426332e-07 2.858736181e-09)
(0 9.43382954e-08 1.905824149e-09)
(0 6.098637187e-08 9.529120604e-10)
(0 3.811648242e-08 -9.529120604e-10)
(0 2.286988979e-08 0)
(0 1.429368091e-08 9.529120604e-10)
(0 8.576208544e-09 9.529120604e-10)
(0 5.717472448e-09 1.905824149e-09)
(0 2.858736181e-09 9.529120604e-10)
(0 3.811648242e-09 9.529120604e-10)
(0 9.529120747e-10 0)
(0 0 9.529120604e-10)
(0 1.203718517e-05 6.819038715e-06)
(0 1.294626347e-05 4.835075874e-06)
(0 1.253365235e-05 2.965462336e-06)
(0 1.125293854e-05 1.714288799e-06)
(0 9.634894002e-06 9.795936143e-07)
(0 7.993979287e-06 5.679355889e-07)
(0 6.477896196e-06 3.420954302e-07)
(0 5.147631035e-06 2.134523051e-07)
(0 4.018430165e-06 1.372193369e-07)
(0 3.085529256e-06 9.243247e-08)
(0 2.330822938e-06 6.289219703e-08)
(0 1.735252865e-06 4.478686691e-08)
(0 1.273090515e-06 2.954027392e-08)
(0 9.167014172e-07 2.096406568e-08)
(0 6.517918503e-07 1.334076887e-08)
(0 4.545390535e-07 8.576208557e-09)
(0 3.135080731e-07 4.764560381e-09)
(0 2.134523019e-07 3.811648247e-09)
(0 1.438897213e-07 9.529120618e-10)
(0 9.338538346e-08 0)
(0 6.00334599e-08 0)
(0 3.716357041e-08 0)
(0 2.477571398e-08 0)
(0 1.429368093e-08 0)
(0 9.529120618e-09 9.529120618e-10)
(0 4.764560381e-09 0)
(0 2.858736186e-09 0)
(0 2.858736186e-09 0)
(0 1.905824152e-09 0)
(0 -9.529120618e-10 9.529120618e-10)
(0 1.131964237e-05 1.508459792e-06)
(0 1.191235385e-05 1.190187181e-06)
(0 1.16150451e-05 7.871053619e-07)
(0 1.062211074e-05 4.812205905e-07)
(0 9.252776245e-06 2.925440069e-07)
(0 7.774809501e-06 1.867707638e-07)
(0 6.354017619e-06 1.26737304e-07)
(0 5.07520971e-06 9.338538332e-08)
(0 3.974596204e-06 7.051549247e-08)
(0 3.058847714e-06 5.431598744e-08)
(0 2.313670517e-06 4.192813129e-08)
(0 1.721912093e-06 3.239901005e-08)
(0 1.261655568e-06 2.382280151e-08)
(0 9.100310314e-07 1.715241734e-08)
(0 6.451214649e-07 1.238785679e-08)
(0 4.526332287e-07 8.576208544e-09)
(0 3.106493364e-07 4.764560374e-09)
(0 2.115464774e-07 2.858736181e-09)
(0 1.429368091e-07 2.858736181e-09)
(0 9.243247125e-08 0)
(0 6.003345981e-08 0)
(0 3.716357036e-08 0)
(0 2.477571394e-08 0)
(0 1.429368091e-08 -9.529120604e-10)
(0 9.529120604e-09 0)
(0 4.764560374e-09 0)
(0 2.858736181e-09 0)
(0 3.811648242e-09 9.529120604e-10)
(0 9.529120747e-10 9.529120747e-10)
(0 -9.529120604e-10 -9.529120604e-10)
(0 1.176369933e-05 -3.452400379e-06)
(0 1.222395604e-05 -2.387997648e-06)
(0 1.182754444e-05 -1.494166104e-06)
(0 1.075933003e-05 -8.681028831e-07)
(0 9.339491202e-06 -4.716914749e-07)
(0 7.828172541e-06 -2.391809261e-07)
(0 6.384510776e-06 -1.048203262e-07)
(0 5.089503368e-06 -3.430483454e-08)
(0 3.979360746e-06 2.858736168e-09)
(0 3.0588477e-06 1.905824112e-08)
(0 2.308905947e-06 2.382280176e-08)
(0 1.716194613e-06 2.286988935e-08)
(0 1.257843914e-06 2.001115318e-08)
(0 9.052664669e-07 1.61995052e-08)
(0 6.422627258e-07 1.238785673e-08)
(0 4.488215784e-07 1.048203262e-08)
(0 3.087435108e-07 7.623296563e-09)
(0 2.096406523e-07 5.717472337e-09)
(0 1.410309843e-07 2.858736168e-09)
(0 9.052664669e-08 9.529120704e-10)
(0 6.003345954e-08 9.529120561e-10)
(0 3.811648225e-08 9.529120561e-10)
(0 2.286988969e-08 9.529120704e-10)
(0 1.52465929e-08 9.529120561e-10)
(0 8.576208505e-09 -9.529120561e-10)
(0 5.717472423e-09 -9.529120704e-10)
(0 3.811648225e-09 0)
(0 1.905824112e-09 -1.905824112e-09)
(0 9.529120704e-10 -9.529120704e-10)
(0 0 -1.905824112e-09)
(0 1.342462525e-05 -8.414213582e-06)
(0 1.386868248e-05 -5.755588992e-06)
(0 1.313493998e-05 -3.475270321e-06)
(0 1.164363259e-05 -1.957281393e-06)
(0 9.881698319e-06 -1.052014942e-06)
(0 8.14168073e-06 -5.393482319e-07)
(0 6.558893781e-06 -2.582391711e-07)
(0 5.182888829e-06 -1.086319777e-07)
(0 4.027959322e-06 -3.144609832e-08)
(0 3.0788589e-06 3.811648282e-09)
(0 2.31748219e-06 2.001115378e-08)
(0 1.719053375e-06 2.286988969e-08)
(0 1.254985197e-06 2.191697762e-08)
(0 9.024077442e-07 1.810532961e-08)
(0 6.394039993e-07 1.524659313e-08)
(0 4.45962849e-07 1.143494485e-08)
(0 3.058847792e-07 8.576208762e-09)
(0 2.086877434e-07 5.717472423e-09)
(0 1.381722502e-07 2.858736211e-09)
(0 8.957373596e-08 9.529120847e-10)
(0 6.003346044e-08 0)
(0 3.811648282e-08 0)
(0 2.382280212e-08 0)
(0 1.334076899e-08 9.529120704e-10)
(0 8.576208634e-09 0)
(0 3.811648339e-09 0)
(0 2.858736211e-09 -9.529120704e-10)
(0 3.811648282e-09 -9.529120704e-10)
(0 9.529120847e-10 -9.529120847e-10)
(0 0 0)
(0 1.590696095e-05 -1.447473413e-05)
(0 1.716480512e-05 -8.667688193e-06)
(0 1.562489898e-05 -4.626388033e-06)
(0 1.31835383e-05 -2.380374316e-06)
(0 1.075742436e-05 -1.194951736e-06)
(0 8.622901196e-06 -5.727001457e-07)
(0 6.815227025e-06 -2.496629587e-07)
(0 5.316296441e-06 -8.480917427e-08)
(0 4.093710193e-06 -6.670384393e-09)
(0 3.110304951e-06 2.954027374e-08)
(0 2.327964188e-06 4.002230696e-08)
(0 1.719053349e-06 4.002230636e-08)
(0 1.252126442e-06 3.525774608e-08)
(0 8.976431703e-07 2.763445004e-08)
(0 6.365452535e-07 2.191697729e-08)
(0 4.41198282e-07 1.52465929e-08)
(0 3.030260384e-07 1.048203277e-08)
(0 2.048760921e-07 7.623296449e-09)
(0 1.36266424e-07 2.858736168e-09)
(0 8.862082255e-08 2.858736211e-09)
(0 5.812763542e-08 0)
(0 3.716357019e-08 -9.529120561e-10)
(0 2.382280176e-08 -1.905824141e-09)
(0 1.429368084e-08 -9.529120561e-10)
(0 8.576208505e-09 0)
(0 4.764560352e-09 -9.529120704e-10)
(0 2.858736168e-09 0)
(0 1.905824112e-09 0)
(0 9.529120704e-10 -1.905824141e-09)
(0 1.905824112e-09 0)
(0 2.149769599e-05 -2.728663673e-05)
(0 2.371702852e-05 -9.663481306e-06)
(0 1.942225353e-05 -3.860246739e-06)
(0 1.507506873e-05 -1.651396593e-06)
(0 1.168937237e-05 -6.946728993e-07)
(0 9.086016455e-06 -2.477571346e-07)
(0 7.044878831e-06 -3.621065813e-08)
(0 5.427787153e-06 5.908054837e-08)
(0 4.141355796e-06 9.33853815e-08)
(0 3.125551544e-06 9.719702973e-08)
(0 2.327964188e-06 8.766791048e-08)
(0 1.713335877e-06 7.337422832e-08)
(0 1.243550233e-06 5.622181131e-08)
(0 8.890669617e-07 4.288104317e-08)
(0 6.270161329e-07 3.04931858e-08)
(0 4.354808097e-07 2.191697729e-08)
(0 2.97308566e-07 1.524659313e-08)
(0 2.010644438e-07 9.529120561e-09)
(0 1.334076879e-07 7.623296449e-09)
(0 8.671499841e-08 2.858736211e-09)
(0 5.622181131e-08 1.905824112e-09)
(0 3.716357019e-08 9.529120561e-10)
(0 2.382280176e-08 0)
(0 1.429368084e-08 -9.529120561e-10)
(0 8.576208505e-09 -1.905824112e-09)
(0 3.811648282e-09 -9.529120704e-10)
(0 4.764560281e-09 -1.905824112e-09)
(0 1.905824112e-09 -9.529120561e-10)
(0 0 0)
(0 2.858736168e-09 9.529120561e-10)
(0 4.737974105e-05 3.456212079e-06)
(0 4.059119607e-05 1.374099226e-06)
(0 2.363793682e-05 6.63226801e-07)
(0 1.634815948e-05 4.612094421e-07)
(0 1.216011111e-05 4.097521964e-07)
(0 9.281363566e-06 3.849764765e-07)
(0 7.123017726e-06 3.525774661e-07)
(0 5.445892564e-06 3.087435154e-07)
(0 4.131826737e-06 2.582391711e-07)
(0 3.103634613e-06 2.077348314e-07)
(0 2.303188509e-06 1.610421423e-07)
(0 1.689513101e-06 1.21972745e-07)
(0 1.221633274e-06 9.147955876e-08)
(0 8.719145575e-07 6.575093385e-08)
(0 6.146282854e-07 4.478686731e-08)
(0 4.269046076e-07 3.144609832e-08)
(0 2.896852738e-07 2.191697795e-08)
(0 1.962998865e-07 1.429368106e-08)
(0 1.295960416e-07 8.576208634e-09)
(0 8.480917554e-08 6.670384593e-09)
(0 5.526890008e-08 3.811648282e-09)
(0 3.621065868e-08 2.858736211e-09)
(0 2.191697795e-08 9.529120847e-10)
(0 1.334076899e-08 0)
(0 7.623296563e-09 0)
(0 5.717472508e-09 -9.529120847e-10)
(0 2.858736211e-09 0)
(0 2.858736211e-09 0)
(0 1.905824169e-09 0)
(0 9.529120704e-10 -9.529120704e-10)
(0 1.072502519e-05 3.137748818e-05)
(0 2.092404324e-05 1.131201919e-05)
(0 1.850841087e-05 4.873192255e-06)
(0 1.482159412e-05 2.566192167e-06)
(0 1.161409231e-05 1.602798102e-06)
(0 9.029794644e-06 1.118718754e-06)
(0 6.969598779e-06 8.242689286e-07)
(0 5.331543034e-06 6.193928458e-07)
(0 4.04130003e-06 4.650210834e-07)
(0 3.028354514e-06 3.478129005e-07)
(0 2.243155014e-06 2.563333469e-07)
(0 1.641867473e-06 1.86770763e-07)
(0 1.18637551e-06 1.35313512e-07)
(0 8.433271823e-07 9.433829497e-08)
(0 5.927112989e-07 6.479801982e-08)
(0 4.116580082e-07 4.288104253e-08)
(0 2.801561487e-07 2.858736211e-08)
(0 1.896294992e-07 1.905824112e-08)
(0 1.257843914e-07 1.238785673e-08)
(0 8.099752599e-08 8.576208634e-09)
(0 5.241016309e-08 5.717472337e-09)
(0 3.335192196e-08 3.811648225e-09)
(0 2.096406555e-08 1.905824141e-09)
(0 1.429368084e-08 0)
(0 7.623296449e-09 0)
(0 2.858736211e-09 0)
(0 4.764560281e-09 -9.529120561e-10)
(0 1.905824112e-09 0)
(0 9.529120704e-10 0)
(0 3.811648225e-09 -1.905824112e-09)
(0 6.333053525e-06 1.173034741e-05)
(0 1.408689914e-05 7.903452712e-06)
(0 1.489306253e-05 5.165736256e-06)
(0 1.307871797e-05 3.491469774e-06)
(0 1.071168458e-05 2.450889845e-06)
(0 8.501881365e-06 1.76574604e-06)
(0 6.62273879e-06 1.289290012e-06)
(0 5.088550456e-06 9.452887739e-07)
(0 3.860246739e-06 6.937199769e-07)
(0 2.893993914e-06 5.040904777e-07)
(0 2.142146334e-06 3.640124109e-07)
(0 1.56658742e-06 2.582391672e-07)
(0 1.131106611e-06 1.810532907e-07)
(0 8.023519633e-07 1.257843933e-07)
(0 5.631710252e-07 8.671499711e-08)
(0 3.90693943e-07 5.812763542e-08)
(0 2.658624676e-07 3.811648282e-08)
(0 1.781945545e-07 2.286988935e-08)
(0 1.200669191e-07 1.52465929e-08)
(0 7.813878977e-08 9.529120704e-09)
(0 5.050433897e-08 6.670384393e-09)
(0 3.144609785e-08 3.811648225e-09)
(0 1.905824141e-08 2.858736211e-09)
(0 1.334076879e-08 1.905824112e-09)
(0 6.670384393e-09 9.529120561e-10)
(0 3.811648282e-09 9.529120704e-10)
(0 3.811648225e-09 9.529120561e-10)
(0 2.858736168e-09 0)
(0 9.529120704e-10 0)
(0 2.858736168e-09 0)
(0 6.887648445e-06 -3.805930809e-06)
(0 1.436038512e-05 3.648700372e-06)
(0 1.409547535e-05 4.600659476e-06)
(0 1.210674785e-05 3.954585092e-06)
(0 9.890274527e-06 3.083623506e-06)
(0 7.868194966e-06 2.321293804e-06)
(0 6.14914159e-06 1.720006287e-06)
(0 4.735973061e-06 1.262608512e-06)
(0 3.598195978e-06 9.186072359e-07)
(0 2.699599896e-06 6.613209769e-07)
(0 1.99730373e-06 4.716914819e-07)
(0 1.460814204e-06 3.316134005e-07)
(0 1.052967838e-06 2.30604721e-07)
(0 7.480359865e-07 1.581834061e-07)
(0 5.260074629e-07 1.07679064e-07)
(0 3.630594988e-07 7.337422942e-08)
(0 2.458513179e-07 4.764560424e-08)
(0 1.658067003e-07 3.049318625e-08)
(0 1.114907122e-07 1.905824141e-08)
(0 7.432714261e-08 1.334076919e-08)
(0 4.573977938e-08 7.623296563e-09)
(0 3.049318625e-08 4.764560352e-09)
(0 1.810532961e-08 2.858736254e-09)
(0 1.048203277e-08 9.529120704e-10)
(0 7.623296563e-09 1.905824141e-09)
(0 4.764560424e-09 9.529120847e-10)
(0 1.905824141e-09 9.529120704e-10)
(0 2.858736211e-09 0)
(0 9.529120847e-10 0)
(0 2.858736211e-09 0)
(0 1.378577872e-05 3.829753554e-06)
(0 2.249444233e-05 6.11197802e-06)
(0 1.519990021e-05 5.828010135e-06)
(0 1.155977615e-05 4.822687916e-06)
(0 9.079346207e-06 3.761143942e-06)
(0 7.138264212e-06 2.848254136e-06)
(0 5.564053496e-06 2.118323501e-06)
(0 4.286198493e-06 1.556105411e-06)
(0 3.260865056e-06 1.129200787e-06)
(0 2.44707816e-06 8.118810718e-07)
(0 1.811485846e-06 5.765118026e-07)
(0 1.326453582e-06 4.049876239e-07)
(0 9.576766164e-07 2.801561445e-07)
(0 6.794263062e-07 1.934411503e-07)
(0 4.774089401e-07 1.315018637e-07)
(0 3.287546594e-07 8.766790916e-08)
(0 2.248872486e-07 5.717472423e-08)
(0 1.505601049e-07 3.811648225e-08)
(0 1.010086779e-07 2.477571346e-08)
(0 6.575093286e-08 1.524659313e-08)
(0 4.288104253e-08 9.529120561e-09)
(0 2.763444963e-08 5.717472337e-09)
(0 1.61995052e-08 4.764560352e-09)
(0 1.048203262e-08 2.858736168e-09)
(0 7.623296449e-09 1.905824112e-09)
(0 2.858736211e-09 1.905824141e-09)
(0 2.858736168e-09 1.905824112e-09)
(0 9.529120561e-10 0)
(0 9.529120704e-10 0)
(0 2.858736168e-09 0)
(0 1.890101063e-05 1.908492266e-05)
(0 1.635673569e-05 1.13444182e-05)
(0 1.280618512e-05 7.97110935e-06)
(0 1.003988142e-05 5.928065901e-06)
(0 7.914887657e-06 4.453911017e-06)
(0 6.224421551e-06 3.330427636e-06)
(0 4.85699275e-06 2.468995137e-06)
(0 3.747803173e-06 1.810532934e-06)
(0 2.85492452e-06 1.315018637e-06)
(0 2.146910862e-06 9.462416717e-07)
(0 1.590410246e-06 6.718030097e-07)
(0 1.163505621e-06 4.716914678e-07)
(0 8.414213456e-07 3.268488353e-07)
(0 5.993816923e-07 2.239343366e-07)
(0 4.192813047e-07 1.515130169e-07)
(0 2.906381771e-07 1.000557659e-07)
(0 1.972527986e-07 6.7656757e-08)
(0 1.324547758e-07 4.478686664e-08)
(0 8.957373328e-08 2.858736168e-08)
(0 5.717472423e-08 1.810532934e-08)
(0 3.811648225e-08 1.143494467e-08)
(0 2.38228014e-08 7.623296449e-09)
(0 1.524659313e-08 3.811648282e-09)
(0 9.529120561e-09 3.811648225e-09)
(0 5.717472337e-09 1.905824112e-09)
(0 2.858736211e-09 9.529120704e-10)
(0 1.905824112e-09 0)
(0 9.529120561e-10 1.905824112e-09)
(0 0 0)
(0 3.811648225e-09 9.529120561e-10)
(0 1.172653594e-05 1.754406413e-05)
(0 1.138062903e-05 1.241453864e-05)
(0 9.782595315e-06 8.997395769e-06)
(0 8.044483699e-06 6.660855372e-06)
(0 6.480755088e-06 4.972295258e-06)
(0 5.154301389e-06 3.707780866e-06)
(0 4.044158827e-06 2.749151323e-06)
(0 3.132222022e-06 2.018267795e-06)
(0 2.394668033e-06 1.467484588e-06)
(0 1.802909637e-06 1.05392075e-06)
(0 1.338841479e-06 7.508947228e-07)
(0 9.824523446e-07 5.27913287e-07)
(0 7.089665804e-07 3.668711471e-07)
(0 5.031375807e-07 2.496629662e-07)
(0 3.554362023e-07 1.686654365e-07)
(0 2.458513142e-07 1.133965364e-07)
(0 1.677125269e-07 7.528005469e-08)
(0 1.124436243e-07 4.955142766e-08)
(0 7.432714149e-08 3.239901039e-08)
(0 4.859851632e-08 2.001115378e-08)
(0 3.239901039e-08 1.238785692e-08)
(0 2.001115348e-08 8.576208634e-09)
(0 1.23878571e-08 4.764560424e-09)
(0 7.623296563e-09 2.858736211e-09)
(0 4.764560352e-09 9.529120704e-10)
(0 3.811648339e-09 9.529120847e-10)
(0 9.529120704e-10 0)
(0 9.529120704e-10 0)
(0 9.529120847e-10 0)
(0 1.905824141e-09 9.529120704e-10)
(0 7.829125453e-06 1.544289278e-05)
(0 7.809114417e-06 1.201907994e-05)
(0 7.052502127e-06 9.176543101e-06)
(0 6.016686722e-06 6.966740042e-06)
(0 4.960860239e-06 5.266745013e-06)
(0 4.002230636e-06 3.954585033e-06)
(0 3.167479675e-06 2.944498253e-06)
(0 2.465183526e-06 2.172639521e-06)
(0 1.891530431e-06 1.583739837e-06)
(0 1.430320996e-06 1.141588643e-06)
(0 1.062496959e-06 8.128339961e-07)
(0 7.794820619e-07 5.736530578e-07)
(0 5.641239372e-07 3.983172395e-07)
(0 4.011759816e-07 2.734857642e-07)
(0 2.830148807e-07 1.848649389e-07)
(0 1.962998836e-07 1.238785673e-07)
(0 1.334076899e-07 8.290335013e-08)
(0 9.052664533e-08 5.43159872e-08)
(0 5.908054748e-08 3.525774608e-08)
(0 3.906939489e-08 2.191697762e-08)
(0 2.477571346e-08 1.429368084e-08)
(0 1.619950495e-08 8.576208505e-09)
(0 9.529120704e-09 5.717472423e-09)
(0 6.670384393e-09 1.905824112e-09)
(0 3.811648225e-09 2.858736168e-09)
(0 1.905824141e-09 9.529120704e-10)
(0 9.529120561e-10 9.529120561e-10)
(0 1.905824112e-09 1.905824112e-09)
(0 9.529120704e-10 9.529120704e-10)
(0 9.529120561e-10 9.529120561e-10)
(0 5.121902302e-06 1.389250487e-05)
(0 5.115231994e-06 1.133870073e-05)
(0 4.731208359e-06 8.991678162e-06)
(0 4.132779587e-06 7.004856525e-06)
(0 3.468599936e-06 5.381094462e-06)
(0 2.832054631e-06 4.085133985e-06)
(0 2.263166133e-06 3.064565173e-06)
(0 1.769557715e-06 2.270789464e-06)
(0 1.363617152e-06 1.660925714e-06)
(0 1.033909581e-06 1.200669191e-06)
(0 7.71858777e-07 8.576208634e-07)
(0 5.660297613e-07 6.050991556e-07)
(0 4.087992721e-07 4.211871288e-07)
(0 2.906381815e-07 2.887323573e-07)
(0 2.058290041e-07 1.962998836e-07)
(0 1.429368084e-07 1.324547758e-07)
(0 9.719703118e-08 8.671499841e-08)
(0 6.575093187e-08 5.622181131e-08)
(0 4.383395458e-08 3.716357019e-08)
(0 2.668153797e-08 2.477571383e-08)
(0 1.810532907e-08 1.52465929e-08)
(0 1.238785673e-08 9.529120561e-09)
(0 6.670384493e-09 5.717472423e-09)
(0 4.764560281e-09 4.764560281e-09)
(0 3.811648225e-09 2.858736168e-09)
(0 9.529120704e-10 2.858736211e-09)
(0 1.905824112e-09 2.858736168e-09)
(0 9.529120561e-10 9.529120561e-10)
(0 -9.529120704e-10 1.905824141e-09)
(0 9.529120561e-10 -9.529120561e-10)
(0 2.923534232e-06 1.29157702e-05)
(0 2.908287683e-06 1.07793415e-05)
(0 2.718658137e-06 8.743921158e-06)
(0 2.405150066e-06 6.934341136e-06)
(0 2.043996422e-06 5.402058608e-06)
(0 1.683795628e-06 4.140402946e-06)
(0 1.35313514e-06 3.127457415e-06)
(0 1.063449887e-06 2.327011311e-06)
(0 8.214102047e-07 1.711430078e-06)
(0 6.251103182e-07 1.239738604e-06)
(0 4.669269215e-07 8.862082388e-07)
(0 3.430483454e-07 6.241574061e-07)
(0 2.487100504e-07 4.33574992e-07)
(0 1.762887357e-07 2.982614825e-07)
(0 1.257843933e-07 2.02970271e-07)
(0 8.766791048e-08 1.35313514e-07)
(0 5.812763717e-08 8.957373596e-08)
(0 4.002230696e-08 5.81276363e-08)
(0 2.477571383e-08 3.716357075e-08)
(0 1.715241752e-08 2.286989003e-08)
(0 1.143494485e-08 1.524659313e-08)
(0 7.623296563e-09 8.576208634e-09)
(0 3.811648339e-09 5.717472508e-09)
(0 2.858736211e-09 2.858736211e-09)
(0 1.905824141e-09 1.905824141e-09)
(0 9.529120847e-10 9.529120847e-10)
(0 1.905824141e-09 9.529120704e-10)
(0 0 0)
(0 0 -9.529120847e-10)
(0 0 0)
(0 9.51006232e-07 1.244407854e-05)
(0 9.443358618e-07 1.048107986e-05)
(0 8.871611243e-07 8.591455098e-06)
(0 7.890111825e-07 6.877166309e-06)
(0 6.746617459e-07 5.395388143e-06)
(0 5.584064649e-07 4.159461125e-06)
(0 4.488215784e-07 3.153185994e-06)
(0 3.554362023e-07 2.357504462e-06)
(0 2.744386722e-07 1.735252854e-06)
(0 2.086877403e-07 1.26070265e-06)
(0 1.553246675e-07 9.014548186e-07)
(0 1.153023588e-07 6.365452535e-07)
(0 8.290334888e-08 4.440570182e-07)
(0 5.908054837e-08 3.068376867e-07)
(0 4.383395458e-08 2.067819162e-07)
(0 2.858736168e-08 1.381722481e-07)
(0 2.001115348e-08 9.052664669e-08)
(0 1.334076879e-08 5.908054748e-08)
(0 8.576208505e-09 3.811648225e-08)
(0 4.764560352e-09 2.477571383e-08)
(0 3.811648225e-09 1.52465929e-08)
(0 2.858736168e-09 9.529120561e-09)
(0 9.529120704e-10 6.670384493e-09)
(0 9.529120561e-10 4.764560281e-09)
(0 9.529120561e-10 1.905824112e-09)
(0 9.529120704e-10 1.905824141e-09)
(0 0 0)
(0 -9.529120561e-10 0)
(0 -9.529120704e-10 9.529120704e-10)
(0 1.905824112e-09 9.529120561e-10)
)
;

boundaryField
{
    lowerWall
    {
        type            calculated;
        value           nonuniform List<vector> 
20
(
(0 0 0)
(0 0 0)
(0 0 9.529120604e-10)
(0 -3.410605115e-09 9.529120618e-10)
(0 -3.410605115e-09 -9.529120604e-10)
(0 0 -1.905824112e-09)
(0 1.705302557e-09 0)
(0 1.705302557e-09 0)
(0 1.705302557e-09 9.529120561e-10)
(0 0 -9.529120704e-10)
(0 5.115907672e-09 -1.905824112e-09)
(0 5.115907672e-09 0)
(0 5.115907672e-09 0)
(0 5.115907672e-09 0)
(0 5.115907672e-09 9.529120561e-10)
(0 1.705302557e-09 9.529120704e-10)
(0 0 9.529120561e-10)
(0 1.705302557e-09 -9.529120561e-10)
(0 1.705302557e-09 0)
(0 1.705302557e-09 9.529120561e-10)
)
;
    }
    atmosphere
    {
        type            calculated;
        value           nonuniform 0();
    }
    rightWall
    {
        type            empty;
    }
    leftWall
    {
        type            empty;
    }
    frontAndBack
    {
        type            calculated;
        value           nonuniform List<vector> 
30
(
(0 9.51006232e-07 1.232763219e-05)
(0 9.443358618e-07 1.04040509e-05)
(0 8.871611243e-07 8.550387022e-06)
(0 7.890111825e-07 6.860432188e-06)
(0 6.746617459e-07 5.390461384e-06)
(0 5.584064649e-07 4.162643542e-06)
(0 4.488215784e-07 3.158220336e-06)
(0 3.554362023e-07 2.363549344e-06)
(0 2.744386722e-07 1.739408608e-06)
(0 2.086877403e-07 1.265334498e-06)
(0 1.553246675e-07 9.055156579e-07)
(0 1.153023588e-07 6.411937615e-07)
(0 8.290334888e-08 4.4678927e-07)
(0 5.908054837e-08 3.086597629e-07)
(0 4.383395458e-08 2.08046912e-07)
(0 2.858736168e-08 1.381295071e-07)
(0 2.001115348e-08 9.038103554e-08)
(0 1.334076879e-08 5.968558951e-08)
(0 8.576208505e-09 3.751665626e-08)
(0 4.764560352e-09 2.38742358e-08)
(0 3.811648225e-09 1.534772302e-08)
(0 2.858736168e-09 1.023181534e-08)
(0 9.529120704e-10 6.821210229e-09)
(0 9.529120561e-10 5.115907672e-09)
(0 9.529120561e-10 3.410605115e-09)
(0 9.529120704e-10 1.705302557e-09)
(0 0 -1.705302557e-09)
(0 -9.529120561e-10 0)
(0 -9.529120704e-10 3.410605115e-09)
(0 1.905824112e-09 1.705302557e-09)
)
;
    }
    procBoundary5to3
    {
        type            processor;
        value           nonuniform List<vector> 
30
(
(0 1.012373773e-05 -3.076190713e-05)
(0 1.968621055e-05 -1.027048634e-05)
(0 1.74144679e-05 -3.462882428e-06)
(0 1.413835624e-05 -1.074884804e-06)
(0 1.131964254e-05 -2.353692825e-07)
(0 9.008830619e-06 4.192813066e-08)
(0 7.112535619e-06 1.10537799e-07)
(0 5.555477396e-06 1.105378007e-07)
(0 4.289057184e-06 8.766790956e-08)
(0 3.265629631e-06 6.479802011e-08)
(0 2.450889856e-06 4.573977959e-08)
(0 1.817203299e-06 3.144609799e-08)
(0 1.325500676e-06 2.191697739e-08)
(0 9.529120747e-07 1.429368112e-08)
(0 6.756146508e-07 9.529120604e-09)
(0 4.72644382e-07 6.670384423e-09)
(0 3.258959296e-07 3.811648299e-09)
(0 2.220285101e-07 1.905824121e-09)
(0 1.477013694e-07 1.905824121e-09)
(0 9.624411955e-08 9.529120747e-10)
(0 6.003345981e-08 1.905824121e-09)
(0 3.906939448e-08 0)
(0 2.477571394e-08 -1.905824149e-09)
(0 1.429368091e-08 -1.905824121e-09)
(0 7.623296483e-09 -9.529120604e-10)
(0 4.764560374e-09 0)
(0 3.811648242e-09 0)
(0 2.858736181e-09 9.529120604e-10)
(0 1.905824149e-09 9.529120747e-10)
(0 9.529120604e-10 0)
)
;
    }
    procBoundary5to4
    {
        type            processor;
        value           nonuniform List<vector> 
20
(
(0 2.847491836e-05 -8.021613773e-06)
(0 2.005117567e-05 3.644412191e-05)
(0 1.360949011e-05 1.379721378e-05)
(0 1.091084316e-05 6.985798357e-06)
(0 1.005703393e-05 1.462720019e-06)
(0 1.057637096e-05 -4.491074541e-06)
(0 1.266896603e-05 -9.899803544e-06)
(0 1.738397472e-05 -1.674171199e-05)
(0 2.797654518e-05 -4.113626074e-05)
(0 4.198911766e-05 1.214677022e-05)
(0 6.991801661e-05 5.235775316e-05)
(0 4.518994864e-05 1.17408295e-05)
(0 1.817679783e-05 -3.80307209e-06)
(0 5.21242897e-06 -5.900431478e-06)
(0 1.128152588e-05 1.340175522e-05)
(0 8.965949711e-06 2.348642391e-05)
(0 6.80760376e-06 1.862371331e-05)
(0 4.740737501e-06 1.624333898e-05)
(0 2.785361994e-06 1.495023754e-05)
(0 9.176543142e-07 1.43565731e-05)
)
;
    }
}


// ************************************************************************* //
