/*--------------------------------*- C++ -*----------------------------------*\
  =========                 |
  \\      /  F ield         | OpenFOAM: The Open Source CFD Toolbox
   \\    /   O peration     | Website:  https://openfoam.org
    \\  /    A nd           | Version:  6
     \\/     M anipulation  |
\*---------------------------------------------------------------------------*/
FoamFile
{
    version     2.0;
    format      ascii;
    class       volVectorField;
    location    "0.0011";
    object      U;
}
// * * * * * * * * * * * * * * * * * * * * * * * * * * * * * * * * * * * * * //

dimensions      [0 1 -1 0 0 0 0];

internalField   nonuniform List<vector> 
600
(
(0 -3.464406723e-11 5.542448077e-12)
(0 -1.078320627e-11 3.644966209e-12)
(0 -3.656906593e-12 2.208426321e-12)
(0 -1.302041378e-12 1.3089659e-12)
(0 -4.654174279e-13 7.790096861e-13)
(0 -1.574028597e-13 4.723379102e-13)
(0 -4.495629603e-14 2.94732302e-13)
(0 -7.018538078e-15 1.908656927e-13)
(0 2.672109456e-15 1.293256964e-13)
(0 2.230322159e-15 9.237362183e-14)
(0 -1.254412201e-15 6.993650041e-14)
(0 -5.101888218e-15 5.619778184e-14)
(0 -8.393551731e-15 4.775274284e-14)
(0 -1.090136373e-14 4.256246811e-14)
(0 -1.264903312e-14 3.939544754e-14)
(0 -1.373926861e-14 3.748936473e-14)
(0 -1.428536737e-14 3.637399223e-14)
(0 -1.438996974e-14 3.575068551e-14)
(0 -1.41386766e-14 3.54337635e-14)
(0 -1.360201379e-14 3.530284178e-14)
(0 -1.283619786e-14 3.528332802e-14)
(0 -1.188535013e-14 3.532583898e-14)
(0 -1.078276276e-14 3.540016453e-14)
(0 -9.556339684e-15 3.548667405e-14)
(0 -8.229682107e-15 3.557370741e-14)
(0 -6.82970374e-15 3.565414203e-14)
(0 -5.359384452e-15 3.572132209e-14)
(0 -3.859593852e-15 3.577702054e-14)
(0 -2.333868416e-15 3.580434456e-14)
(0 -7.759583834e-16 3.582838955e-14)
(0 -3.134242107e-12 -1.110257801e-11)
(0 -4.082663854e-12 -2.626274204e-12)
(0 -2.43911956e-12 -2.940739099e-13)
(0 -1.257409873e-12 2.710197893e-13)
(0 -6.19198163e-13 3.388132642e-13)
(0 -3.015621443e-13 2.842518743e-13)
(0 -1.482877546e-13 2.150801848e-13)
(0 -7.5488625e-14 1.582473434e-13)
(0 -4.143280511e-14 1.17017431e-13)
(0 -2.589128465e-14 8.864145011e-14)
(0 -1.912508e-14 6.960962034e-14)
(0 -1.644358519e-14 5.702580259e-14)
(0 -1.557979785e-14 4.877563546e-14)
(0 -1.543873707e-14 4.340214113e-14)
(0 -1.549495908e-14 3.992197756e-14)
(0 -1.550399033e-14 3.76846481e-14)
(0 -1.535936856e-14 3.625910505e-14)
(0 -1.502392921e-14 3.536382825e-14)
(0 -1.449410175e-14 3.481247078e-14)
(0 -1.378311144e-14 3.448397723e-14)
(0 -1.291025667e-14 3.429779282e-14)
(0 -1.189576128e-14 3.420198364e-14)
(0 -1.075763056e-14 3.416179609e-14)
(0 -9.513730776e-15 3.415472027e-14)
(0 -8.182635406e-15 3.416587818e-14)
(0 -6.780124532e-15 3.418479699e-14)
(0 -5.324382907e-15 3.420749068e-14)
(0 -3.831301724e-15 3.421835772e-14)
(0 -2.313732198e-15 3.423691769e-14)
(0 -7.755478842e-16 3.423623296e-14)
(0 4.150173772e-12 -5.904190663e-12)
(0 2.529785794e-14 -2.752537784e-12)
(0 -7.596125954e-13 -1.028628672e-12)
(0 -6.691542068e-13 -2.690006211e-13)
(0 -4.521853428e-13 2.143623836e-14)
(0 -2.811359388e-13 1.111116049e-13)
(0 -1.709608267e-13 1.233529341e-13)
(0 -1.050812921e-13 1.102255566e-13)
(0 -6.693378382e-14 9.202080558e-14)
(0 -4.517748843e-14 7.569677373e-14)
(0 -3.287005981e-14 6.295061991e-14)
(0 -2.593587309e-14 5.361639708e-14)
(0 -2.201721317e-14 4.700836695e-14)
(0 -1.975502166e-14 4.242025055e-14)
(0 -1.836652615e-14 3.926909106e-14)
(0 -1.740214112e-14 3.7119422e-14)
(0 -1.660618723e-14 3.565805104e-14)
(0 -1.583660401e-14 3.466758604e-14)
(0 -1.501852761e-14 3.399737953e-14)
(0 -1.411669174e-14 3.354535337e-14)
(0 -1.311819145e-14 3.324128551e-14)
(0 -1.202134686e-14 3.303803818e-14)
(0 -1.083002614e-14 3.290320588e-14)
(0 -9.552257593e-15 3.281498531e-14)
(0 -8.199605385e-15 3.275826655e-14)
(0 -6.788091238e-15 3.272217874e-14)
(0 -5.325823719e-15 3.269839594e-14)
(0 -3.830166848e-15 3.268178678e-14)
(0 -2.315993176e-15 3.267102238e-14)
(0 -7.766431115e-16 3.266714639e-14)
(0 2.187682377e-12 -1.686972611e-12)
(0 7.928981513e-13 -1.450824e-12)
(0 4.441760392e-14 -7.986339916e-13)
(0 -2.073449657e-13 -3.39619361e-13)
(0 -2.39085936e-13 -9.501977635e-14)
(0 -1.996454484e-13 1.551967874e-14)
(0 -1.49173803e-13 5.708562123e-14)
(0 -1.068207536e-13 6.73515477e-14)
(0 -7.596158796e-14 6.520405148e-14)
(0 -5.496147027e-14 5.922322343e-14)
(0 -4.12054567e-14 5.292310905e-14)
(0 -3.238583815e-14 4.751619777e-14)
(0 -2.677594436e-14 4.325228696e-14)
(0 -2.317801299e-14 4.002614005e-14)
(0 -2.079578763e-14 3.763581546e-14)
(0 -1.911503033e-14 3.588199374e-14)
(0 -1.781120452e-14 3.45993667e-14)
(0 -1.668460073e-14 3.366069145e-14)
(0 -1.561633442e-14 3.297171395e-14)
(0 -1.453920545e-14 3.246389204e-14)
(0 -1.341757186e-14 3.208790279e-14)
(0 -1.223384092e-14 3.180840804e-14)
(0 -1.098068343e-14 3.160024286e-14)
(0 -9.658670107e-15 3.144543798e-14)
(0 -8.275441972e-15 3.133084367e-14)
(0 -6.839995138e-15 3.124615825e-14)
(0 -5.364774865e-15 3.11840128e-14)
(0 -3.858675289e-15 3.113739797e-14)
(0 -2.328372595e-15 3.110958363e-14)
(0 -7.794238768e-16 3.109554507e-14)
(0 1.54805086e-12 -5.440124612e-13)
(0 9.136364798e-13 -5.649101076e-13)
(0 3.515920422e-13 -3.752018949e-13)
(0 3.446000661e-14 -1.955901926e-13)
(0 -9.704630221e-14 -7.722945578e-14)
(0 -1.290305412e-13 -1.095122505e-14)
(0 -1.191289579e-13 2.223433635e-14)
(0 -9.696286183e-14 3.698579322e-14)
(0 -7.506210806e-14 4.229830571e-14)
(0 -5.745843085e-14 4.313464459e-14)
(0 -4.457708549e-14 4.20572564e-14)
(0 -3.560669517e-14 4.03196837e-14)
(0 -2.950727087e-14 3.849720631e-14)
(0 -2.537149317e-14 3.682871769e-14)
(0 -2.251067245e-14 3.539244307e-14)
(0 -2.043858987e-14 3.419499516e-14)
(0 -1.882748952e-14 3.321382519e-14)
(0 -1.746425675e-14 3.241775214e-14)
(0 -1.621532703e-14 3.177536521e-14)
(0 -1.500050291e-14 3.125875595e-14)
(0 -1.377367545e-14 3.084422697e-14)
(0 -1.250900679e-14 3.051250299e-14)
(0 -1.119299619e-14 3.024815783e-14)
(0 -9.821656784e-15 3.003907935e-14)
(0 -8.398885113e-15 2.987550722e-14)
(0 -6.934922102e-15 2.974912395e-14)
(0 -5.434584001e-15 2.965286945e-14)
(0 -3.904596023e-15 2.958263313e-14)
(0 -2.357846078e-15 2.953552982e-14)
(0 -7.906816697e-16 2.951469145e-14)
(0 1.549850907e-12 2.846607698e-15)
(0 9.61708718e-13 1.105872061e-13)
(0 4.137375186e-13 5.857033613e-14)
(0 9.062747294e-14 9.92083975e-15)
(0 -5.444696795e-14 -7.162511466e-15)
(0 -1.001816563e-13 -4.175923387e-15)
(0 -1.012367849e-13 5.939361675e-15)
(0 -8.67567842e-14 1.61569305e-14)
(0 -6.981273657e-14 2.394991161e-14)
(0 -5.520251957e-14 2.902719439e-14)
(0 -4.402041759e-14 3.190858096e-14)
(0 -3.594588824e-14 3.325558431e-14)
(0 -3.026691038e-14 3.362803933e-14)
(0 -2.628277625e-14 3.343185934e-14)
(0 -2.342951016e-14 3.293727338e-14)
(0 -2.129364821e-14 3.231344782e-14)
(0 -1.958844754e-14 3.166073706e-14)
(0 -1.812306071e-14 3.103490185e-14)
(0 -1.677533061e-14 3.046408463e-14)
(0 -1.54703437e-14 2.995982068e-14)
(0 -1.416382483e-14 2.952422537e-14)
(0 -1.282991006e-14 2.915440354e-14)
(0 -1.145410707e-14 2.884524159e-14)
(0 -1.003132072e-14 2.85908967e-14)
(0 -8.565397371e-15 2.838537073e-14)
(0 -7.062632904e-15 2.822253838e-14)
(0 -5.531265686e-15 2.809703008e-14)
(0 -3.976014923e-15 2.800382456e-14)
(0 -2.396314278e-15 2.794370282e-14)
(0 -8.002622438e-16 2.791389031e-14)
(0 2.220043252e-12 1.005758514e-12)
(0 9.693602085e-13 9.459378156e-13)
(0 2.509256765e-13 4.891730281e-13)
(0 -3.127284032e-14 1.840810897e-13)
(0 -1.111430651e-13 4.302344539e-14)
(0 -1.15928668e-13 -4.376911776e-15)
(0 -9.879610399e-14 -1.033796519e-14)
(0 -7.895231184e-14 -2.151089429e-15)
(0 -6.219184418e-14 8.395862821e-15)
(0 -4.949976153e-14 1.718130348e-14)
(0 -4.034869557e-14 2.33490723e-14)
(0 -3.38872368e-14 2.721189995e-14)
(0 -2.933099585e-14 2.936541594e-14)
(0 -2.606225913e-14 3.036466734e-14)
(0 -2.362908397e-14 3.063671188e-14)
(0 -2.171512619e-14 3.048131858e-14)
(0 -2.01060355e-14 3.009709916e-14)
(0 -1.866090918e-14 2.960994682e-14)
(0 -1.729040819e-14 2.909621759e-14)
(0 -1.594036218e-14 2.859986828e-14)
(0 -1.45790926e-14 2.814428637e-14)
(0 -1.318799057e-14 2.774031508e-14)
(0 -1.175650303e-14 2.739144726e-14)
(0 -1.028152764e-14 2.709711037e-14)
(0 -8.767243435e-15 2.685451078e-14)
(0 -7.223262754e-15 2.665965614e-14)
(0 -5.653297821e-15 2.650782285e-14)
(0 -4.057923278e-15 2.639614515e-14)
(0 -2.447780326e-15 2.632151319e-14)
(0 -8.204941846e-16 2.628589004e-14)
(0 4.33494782e-12 4.913169177e-12)
(0 4.45123232e-13 2.178474021e-12)
(0 -3.48119205e-13 7.683884022e-13)
(0 -3.555221075e-13 1.944692588e-13)
(0 -2.429049694e-13 -2.358204866e-16)
(0 -1.535430668e-13 -4.585613616e-14)
(0 -9.901096246e-14 -4.064162247e-14)
(0 -6.802295619e-14 -2.27251173e-14)
(0 -5.048034372e-14 -5.32099021e-15)
(0 -4.024931016e-14 8.015412752e-15)
(0 -3.398982113e-14 1.714653278e-14)
(0 -2.992954461e-14 2.29207658e-14)
(0 -2.711414301e-14 2.629284868e-14)
(0 -2.501148031e-14 2.805394488e-14)
(0 -2.331285891e-14 2.878737813e-14)
(0 -2.183326092e-14 2.889711321e-14)
(0 -2.045981931e-14 2.865162377e-14)
(0 -1.912394227e-14 2.822350134e-14)
(0 -1.778540914e-14 2.772020303e-14)
(0 -1.642227492e-14 2.720615509e-14)
(0 -1.502337803e-14 2.6718085e-14)
(0 -1.358274917e-14 2.627531343e-14)
(0 -1.209731177e-14 2.588657164e-14)
(0 -1.05682572e-14 2.555439941e-14)
(0 -9.002851598e-15 2.52778451e-14)
(0 -7.409320835e-15 2.505398295e-14)
(0 -5.794776678e-15 2.487932328e-14)
(0 -4.162324582e-15 2.474979129e-14)
(0 -2.506569389e-15 2.466504897e-14)
(0 -8.358853942e-16 2.462324288e-14)
(0 -2.414913901e-12 9.654090056e-12)
(0 -3.175420594e-12 2.086582304e-12)
(0 -1.733079092e-12 2.117863255e-13)
(0 -7.99897062e-13 -1.740302379e-13)
(0 -3.514684609e-13 -1.923285647e-13)
(0 -1.5633447e-13 -1.379901115e-13)
(0 -7.566508499e-14 -8.351924913e-14)
(0 -4.36316794e-14 -4.269224336e-14)
(0 -3.145131408e-14 -1.489666217e-14)
(0 -2.703223854e-14 3.114416474e-15)
(0 -2.544334246e-14 1.435019212e-14)
(0 -2.474092088e-14 2.107277587e-14)
(0 -2.419781678e-14 2.486510291e-14)
(0 -2.356772967e-14 2.679862468e-14)
(0 -2.278591563e-14 2.7584259e-14)
(0 -2.185088054e-14 2.768628692e-14)
(0 -2.077964737e-14 2.740324221e-14)
(0 -1.959232991e-14 2.692362507e-14)
(0 -1.830775444e-14 2.636377621e-14)
(0 -1.694248022e-14 2.579326793e-14)
(0 -1.550993426e-14 2.525181148e-14)
(0 -1.401950392e-14 2.476035618e-14)
(0 -1.247741705e-14 2.432838459e-14)
(0 -1.089025419e-14 2.39586608e-14)
(0 -9.267659901e-15 2.36502723e-14)
(0 -7.621784578e-15 2.340044569e-14)
(0 -5.957489477e-15 2.320523177e-14)
(0 -4.272197592e-15 2.306173953e-14)
(0 -2.574328735e-15 2.296687107e-14)
(0 -8.623002689e-16 2.292077384e-14)
(0 -3.235234642e-11 -7.157341946e-12)
(0 -8.997180525e-12 -3.69786165e-12)
(0 -2.608731755e-12 -1.833453301e-12)
(0 -7.596369981e-13 -9.097141257e-13)
(0 -2.068648438e-13 -4.567986011e-13)
(0 -4.473375166e-14 -2.300726832e-13)
(0 -3.713094544e-15 -1.126255956e-13)
(0 5.996309561e-16 -4.953674415e-14)
(0 -4.673683879e-15 -1.461881083e-14)
(0 -1.100245591e-14 5.0439201e-15)
(0 -1.603146167e-14 1.611253272e-14)
(0 -1.941463381e-14 2.219299177e-14)
(0 -2.13882942e-14 2.532769216e-14)
(0 -2.229232421e-14 2.671725507e-14)
(0 -2.242519667e-14 2.708608881e-14)
(0 -2.201427771e-14 2.687789397e-14)
(0 -2.122248116e-14 2.636539193e-14)
(0 -2.016340827e-14 2.57151094e-14)
(0 -1.891576629e-14 2.502680196e-14)
(0 -1.753423965e-14 2.435826187e-14)
(0 -1.605628978e-14 2.374096581e-14)
(0 -1.450617606e-14 2.319014941e-14)
(0 -1.289900715e-14 2.271127279e-14)
(0 -1.124636949e-14 2.230431454e-14)
(0 -9.56106671e-15 2.19664828e-14)
(0 -7.854361358e-15 2.169370736e-14)
(0 -6.133482832e-15 2.148174064e-14)
(0 -4.400685283e-15 2.132584058e-14)
(0 -2.647535087e-15 2.122392069e-14)
(0 -8.819826308e-16 2.11743291e-14)
(0 5.565319459e-12 -2.290630697e-11)
(0 2.148468051e-12 -7.886582104e-12)
(0 1.055068426e-12 -2.93754065e-12)
(0 5.767576305e-13 -1.174213874e-12)
(0 3.281729816e-13 -4.948227054e-13)
(0 1.878385347e-13 -2.127013806e-13)
(0 1.048708532e-13 -8.725488785e-14)
(0 5.437510532e-14 -2.812711791e-14)
(0 2.312935002e-14 9.762722397e-16)
(0 3.699104856e-15 1.561663783e-14)
(0 -8.294270782e-15 2.290363134e-14)
(0 -1.552576147e-14 2.629305223e-14)
(0 -1.967355351e-14 2.756414219e-14)
(0 -2.180933302e-14 2.768063545e-14)
(0 -2.262527672e-14 2.718493001e-14)
(0 -2.257157743e-14 2.639024818e-14)
(0 -2.194243194e-14 2.547874584e-14)
(0 -2.093091988e-14 2.455548228e-14)
(0 -1.966460197e-14 2.367885268e-14)
(0 -1.822831636e-14 2.287909979e-14)
(0 -1.667804671e-14 2.216929298e-14)
(0 -1.504919694e-14 2.155242182e-14)
(0 -1.336325192e-14 2.102575061e-14)
(0 -1.163504417e-14 2.058386693e-14)
(0 -9.878267084e-15 2.022045079e-14)
(0 -8.106526737e-15 1.99292573e-14)
(0 -6.325356251e-15 1.970400412e-14)
(0 -4.530017547e-15 1.953978103e-14)
(0 -2.725840216e-15 1.943237737e-14)
(0 -9.118918536e-16 1.937974215e-14)
(0 3.177634019e-11 -4.565403299e-12)
(0 1.097158586e-11 -2.004114837e-12)
(0 4.103636485e-12 -8.555481115e-13)
(0 1.683080941e-12 -3.545107663e-13)
(0 7.54647653e-13 -1.353822126e-13)
(0 3.628340662e-13 -3.851842602e-14)
(0 1.808611678e-13 4.531421684e-15)
(0 8.883079131e-14 2.337568711e-14)
(0 3.907007187e-14 3.108681405e-14)
(0 1.092490313e-14 3.358400914e-14)
(0 -5.355047255e-15 3.362712263e-14)
(0 -1.475412296e-14 3.254069602e-14)
(0 -2.000071098e-14 3.098050887e-14)
(0 -2.26715364e-14 2.927752792e-14)
(0 -2.371558395e-14 2.760096045e-14)
(0 -2.372046189e-14 2.603448744e-14)
(0 -2.305724706e-14 2.461646698e-14)
(0 -2.196330144e-14 2.335950263e-14)
(0 -2.059214877e-14 2.226258081e-14)
(0 -1.904379935e-14 2.131692503e-14)
(0 -1.738296775e-14 2.05102882e-14)
(0 -1.564971844e-14 1.982884382e-14)
(0 -1.386756205e-14 1.925902502e-14)
(0 -1.20516693e-14 1.878828304e-14)
(0 -1.021567633e-14 1.840575154e-14)
(0 -8.370808035e-15 1.810196991e-14)
(0 -6.522959103e-15 1.786898439e-14)
(0 -4.67231203e-15 1.769933491e-14)
(0 -2.807573968e-15 1.758849123e-14)
(0 -9.346178497e-16 1.753474616e-14)
(0 1.320300467e-11 1.629128745e-11)
(0 5.858323305e-12 5.291131911e-12)
(0 2.704672515e-12 1.874032843e-12)
(0 1.296923534e-12 7.471812762e-13)
(0 6.441653251e-13 3.464055332e-13)
(0 3.277521699e-13 1.895549462e-13)
(0 1.667649665e-13 1.205846078e-13)
(0 8.093049795e-14 8.606151387e-14)
(0 3.333767214e-14 6.644985729e-14)
(0 6.239413479e-15 5.403811672e-14)
(0 -9.337583874e-15 4.55070271e-14)
(0 -1.817237521e-14 3.928604548e-14)
(0 -2.29367216e-14 3.455992158e-14)
(0 -2.518888145e-14 3.086601682e-14)
(0 -2.58683172e-14 2.79219482e-14)
(0 -2.555607088e-14 2.554331385e-14)
(0 -2.461741676e-14 2.360378597e-14)
(0 -2.328480605e-14 2.201253813e-14)
(0 -2.170717957e-14 2.07023694e-14)
(0 -1.998060899e-14 1.962180222e-14)
(0 -1.816612793e-14 1.87307551e-14)
(0 -1.630046012e-14 1.7997353e-14)
(0 -1.44038127e-14 1.73963404e-14)
(0 -1.248831765e-14 1.690768039e-14)
(0 -1.056458021e-14 1.65155916e-14)
(0 -8.643293892e-15 1.620734242e-14)
(0 -6.727991249e-15 1.597207381e-14)
(0 -4.810510704e-15 1.580165057e-14)
(0 -2.890428963e-15 1.569066609e-14)
(0 -9.656369216e-16 1.563526141e-14)
(0 -1.636824125e-11 1.100264912e-11)
(0 -3.445668747e-12 5.003135897e-12)
(0 -4.403141412e-13 2.313233803e-12)
(0 1.554536399e-13 1.122735231e-12)
(0 1.97021323e-13 5.842554065e-13)
(0 1.370131414e-13 3.297674006e-13)
(0 7.736773593e-14 2.022183978e-13)
(0 3.469604075e-14 1.338664604e-13)
(0 7.046674806e-15 9.463883531e-14)
(0 -1.001792696e-14 7.063517245e-14)
(0 -2.010711849e-14 5.509617954e-14)
(0 -2.570122844e-14 4.455428807e-14)
(0 -2.842073961e-14 3.712196462e-14)
(0 -2.930950978e-14 3.171818314e-14)
(0 -2.903828691e-14 2.768868392e-14)
(0 -2.80386241e-14 2.462285556e-14)
(0 -2.658802278e-14 2.225073355e-14)
(0 -2.4864718e-14 2.039122902e-14)
(0 -2.298288468e-14 1.891781698e-14)
(0 -2.101541365e-14 1.774135015e-14)
(0 -1.900741697e-14 1.679654252e-14)
(0 -1.698413313e-14 1.603578559e-14)
(0 -1.495723466e-14 1.542334124e-14)
(0 -1.29324181e-14 1.493281769e-14)
(0 -1.09160143e-14 1.454390598e-14)
(0 -8.914325822e-15 1.424074473e-14)
(0 -6.928650944e-15 1.401076315e-14)
(0 -4.953719753e-15 1.384404943e-14)
(0 -2.97396313e-15 1.373461643e-14)
(0 -9.900225252e-16 1.368141206e-14)
(0 -5.133841282e-12 -6.245433772e-13)
(0 -2.831092011e-12 1.40517897e-12)
(0 -1.175728147e-12 1.252762502e-12)
(0 -4.320548577e-13 8.460854008e-13)
(0 -1.488025084e-13 5.380224295e-13)
(0 -5.428483929e-14 3.429990441e-13)
(0 -2.913597351e-14 2.246509775e-13)
(0 -2.664906495e-14 1.525506959e-13)
(0 -2.989361588e-14 1.076165628e-13)
(0 -3.330324229e-14 7.877683402e-14)
(0 -3.541846836e-14 5.970018059e-14)
(0 -3.614659015e-14 4.672134836e-14)
(0 -3.577282653e-14 3.766523354e-14)
(0 -3.46221622e-14 3.120314711e-14)
(0 -3.296364479e-14 2.649936612e-14)
(0 -3.099402125e-14 2.301413767e-14)
(0 -2.884904333e-14 2.039050922e-14)
(0 -2.661772262e-14 1.838757642e-14)
(0 -2.435705843e-14 1.683973647e-14)
(0 -2.210188345e-14 1.563121126e-14)
(0 -1.987169249e-14 1.467988293e-14)
(0 -1.767366139e-14 1.392690322e-14)
(0 -1.55067806e-14 1.332983597e-14)
(0 -1.33677529e-14 1.285772335e-14)
(0 -1.125665318e-14 1.248730243e-14)
(0 -9.176436721e-15 1.22005614e-14)
(0 -7.124686547e-15 1.198326051e-14)
(0 -5.086657431e-15 1.182597147e-14)
(0 -3.053066331e-15 1.172407138e-14)
(0 -1.018841286e-15 1.16731787e-14)
(0 -1.632090401e-12 -1.574697901e-12)
(0 -1.568362863e-12 -1.094084016e-14)
(0 -9.994077131e-13 4.46246867e-13)
(0 -5.592864336e-13 4.705889726e-13)
(0 -3.060650363e-13 3.786038436e-13)
(0 -1.763583111e-13 2.794735904e-13)
(0 -1.130806121e-13 2.007961326e-13)
(0 -8.233837441e-14 1.440503901e-13)
(0 -6.672718712e-14 1.044930346e-13)
(0 -5.793430913e-14 7.715291749e-14)
(0 -5.216260427e-14 5.82067422e-14)
(0 -4.773617551e-14 4.496697537e-14)
(0 -4.393894084e-14 3.561685013e-14)
(0 -4.047537724e-14 2.893238307e-14)
(0 -3.722729635e-14 2.40943989e-14)
(0 -3.414748099e-14 2.054653113e-14)
(0 -3.121458405e-14 1.791218251e-14)
(0 -2.841549075e-14 1.593100596e-14)
(0 -2.573924984e-14 1.442405257e-14)
(0 -2.31752672e-14 1.326502172e-14)
(0 -2.071172501e-14 1.236579338e-14)
(0 -1.833418008e-14 1.166322377e-14)
(0 -1.602641453e-14 1.111295082e-14)
(0 -1.377495164e-14 1.068236709e-14)
(0 -1.157317625e-14 1.034731008e-14)
(0 -9.418367745e-15 1.008890669e-14)
(0 -7.30324088e-15 9.893598411e-15)
(0 -5.212908881e-15 9.75258748e-15)
(0 -3.126755895e-15 9.660640144e-15)
(0 -1.040915206e-15 9.617578807e-15)
(0 -5.423405866e-13 -1.06084593e-12)
(0 -8.101472431e-13 -3.207256566e-13)
(0 -6.941983345e-13 7.228000662e-14)
(0 -4.996978812e-13 2.111836376e-13)
(0 -3.399178906e-13 2.261490927e-13)
(0 -2.320925497e-13 1.953910254e-13)
(0 -1.645591732e-13 1.549390898e-13)
(0 -1.22952163e-13 1.183289081e-13)
(0 -9.679108833e-14 8.912787485e-14)
(0 -7.958953449e-14 6.712665193e-14)
(0 -6.760441049e-14 5.099869367e-14)
(0 -5.873648215e-14 3.932281545e-14)
(0 -5.180741876e-14 3.090149705e-14)
(0 -4.614461343e-14 2.481838415e-14)
(0 -4.13494967e-14 2.040125854e-14)
(0 -3.717623762e-14 1.716984595e-14)
(0 -3.34645685e-14 1.478389476e-14)
(0 -3.010585255e-14 1.300457829e-14)
(0 -2.702304265e-14 1.166356655e-14)
(0 -2.416014264e-14 1.064265404e-14)
(0 -2.147349043e-14 9.858199723e-15)
(0 -1.892650396e-14 9.251448065e-15)
(0 -1.648763729e-14 8.780549887e-15)
(0 -1.413339364e-14 8.415149232e-15)
(0 -1.185011358e-14 8.132249334e-15)
(0 -9.630148387e-15 7.914546892e-15)
(0 -7.461005754e-15 7.749999992e-15)
(0 -5.319615696e-15 7.631918086e-15)
(0 -3.188075003e-15 7.55749165e-15)
(0 -1.061902624e-15 7.522575665e-15)
(0 -1.988923602e-13 -5.938458902e-13)
(0 -4.352369242e-13 -2.835872093e-13)
(0 -4.674984183e-13 -4.781838805e-14)
(0 -4.054173478e-13 7.549945882e-14)
(0 -3.218576483e-13 1.192586991e-13)
(0 -2.475683139e-13 1.208936784e-13)
(0 -1.901427294e-13 1.051775852e-13)
(0 -1.481495895e-13 8.516215823e-14)
(0 -1.179294433e-13 6.654784772e-14)
(0 -9.606349027e-14 5.122173216e-14)
(0 -7.996644084e-14 3.93418201e-14)
(0 -6.783337214e-14 3.043030416e-14)
(0 -5.844337213e-14 2.385772496e-14)
(0 -5.097561578e-14 1.904862384e-14)
(0 -4.487583455e-14 1.553391007e-14)
(0 -3.976484477e-14 1.29586478e-14)
(0 -3.537985172e-14 1.106007192e-14)
(0 -3.153581896e-14 9.649903469e-15)
(0 -2.810117408e-14 8.592573146e-15)
(0 -2.498063404e-14 7.792589451e-15)
(0 -2.210293099e-14 7.181791763e-15)
(0 -1.941182992e-14 6.712727825e-15)
(0 -1.686271336e-14 6.351224896e-15)
(0 -1.44232522e-14 6.072370793e-15)
(0 -1.207377859e-14 5.856916457e-15)
(0 -9.800617088e-15 5.690937149e-15)
(0 -7.585869686e-15 5.56604891e-15)
(0 -5.405417223e-15 5.477794197e-15)
(0 -3.236098316e-15 5.42259422e-15)
(0 -1.075831191e-15 5.399809813e-15)
(0 -8.791534684e-14 -2.92756768e-13)
(0 -2.641197381e-13 -1.72056859e-13)
(0 -3.351116656e-13 -5.559859475e-14)
(0 -3.326207943e-13 1.923701275e-14)
(0 -2.945236708e-13 5.440040185e-14)
(0 -2.461736637e-13 6.368021436e-14)
(0 -2.002906935e-13 5.968596911e-14)
(0 -1.615819006e-13 5.057869193e-14)
(0 -1.307315145e-13 4.068385008e-14)
(0 -1.067955621e-13 3.18785038e-14)
(0 -8.839583858e-14 2.473325696e-14)
(0 -7.422057731e-14 1.921471966e-14)
(0 -6.318909908e-14 1.506972481e-14)
(0 -5.446842835e-14 1.200142406e-14)
(0 -4.743947274e-14 9.744917943e-15)
(0 -4.165007577e-14 8.086125819e-15)
(0 -3.677331285e-14 6.862917797e-15)
(0 -3.257335133e-14 5.955137661e-15)
(0 -2.888035667e-14 5.276177143e-15)
(0 -2.557092403e-14 4.763696115e-15)
(0 -2.255335206e-14 4.373991001e-15)
(0 -1.975707082e-14 4.076201615e-15)
(0 -1.712799432e-14 3.848227814e-15)
(0 -1.462770208e-14 3.672907944e-15)
(0 -1.223154722e-14 3.53691173e-15)
(0 -9.921015936e-15 3.431434479e-15)
(0 -7.674148707e-15 3.352445772e-15)
(0 -5.463070386e-15 3.298498476e-15)
(0 -3.266059388e-15 3.268599326e-15)
(0 -1.084687031e-15 3.255331047e-15)
(0 -5.387687467e-14 -8.790866213e-14)
(0 -1.980787509e-13 -5.635551282e-14)
(0 -2.762045471e-13 -2.186767497e-14)
(0 -2.954183518e-13 2.551605915e-15)
(0 -2.774144467e-13 1.533476771e-14)
(0 -2.422827466e-13 1.966083001e-14)
(0 -2.032442518e-13 1.922568479e-14)
(0 -1.671517085e-13 1.670727176e-14)
(0 -1.366296313e-13 1.365587683e-14)
(0 -1.120140833e-13 1.080915484e-14)
(0 -9.263022498e-14 8.437355606e-15)
(0 -7.749690426e-14 6.574768441e-15)
(0 -6.56566677e-14 5.161028646e-15)
(0 -5.630042265e-14 4.107199813e-15)
(0 -4.879113278e-14 3.32903435e-15)
(0 -4.26468449e-14 2.755539773e-15)
(0 -3.751083988e-14 2.332265212e-15)
(0 -3.312255961e-14 2.018012737e-15)
(0 -2.929261562e-14 1.783056928e-15)
(0 -2.588282018e-14 1.605753786e-15)
(0 -2.279042549e-14 1.471160781e-15)
(0 -1.99375931e-14 1.368680355e-15)
(0 -1.726600703e-14 1.290638503e-15)
(0 -1.473456828e-14 1.230667644e-15)
(0 -1.231525205e-14 1.183772304e-15)
(0 -9.985083047e-15 1.146962811e-15)
(0 -7.718805688e-15 1.119705193e-15)
(0 -5.489263668e-15 1.102305829e-15)
(0 -3.279265746e-15 1.093511911e-15)
(0 -1.089099471e-15 1.089099471e-15)
)
;

boundaryField
{
    lowerWall
    {
        type            slip;
    }
    atmosphere
    {
        type            pressureInletOutletVelocity;
        value           nonuniform 0();
    }
    rightWall
    {
        type            empty;
    }
    leftWall
    {
        type            empty;
    }
    frontAndBack
    {
        type            slip;
    }
    procBoundary5to3
    {
        type            processor;
        value           nonuniform List<vector> 
30
(
(0 -5.367744461e-13 2.338190868e-11)
(0 -7.486420905e-13 9.455278185e-12)
(0 -1.03119252e-13 4.173987461e-12)
(0 1.720067586e-13 1.977513923e-12)
(0 2.174298288e-13 9.959553631e-13)
(0 1.827152395e-13 5.31394058e-13)
(0 1.331844622e-13 3.00664215e-13)
(0 8.991798094e-14 1.811902298e-13)
(0 5.705926571e-14 1.170662983e-13)
(0 3.34979112e-14 8.161886222e-14)
(0 1.705076007e-14 6.158211415e-14)
(0 5.74017236e-15 5.009788627e-14)
(0 -1.944484158e-15 4.348818369e-14)
(0 -7.08144176e-15 3.971540687e-14)
(0 -1.04218557e-14 3.761690129e-14)
(0 -1.248253502e-14 3.651397366e-14)
(0 -1.362068934e-14 3.600218567e-14)
(0 -1.408370048e-14 3.583775921e-14)
(0 -1.404625802e-14 3.587192571e-14)
(0 -1.363267596e-14 3.601391935e-14)
(0 -1.293325387e-14 3.620777348e-14)
(0 -1.201259779e-14 3.641918759e-14)
(0 -1.091846563e-14 3.662696287e-14)
(0 -9.687273664e-15 3.681901829e-14)
(0 -8.350103386e-15 3.698916916e-14)
(0 -6.927739206e-15 3.713507667e-14)
(0 -5.447261419e-15 3.72517485e-14)
(0 -3.914324195e-15 3.734465231e-14)
(0 -2.365101209e-15 3.739983917e-14)
(0 -7.995928761e-16 3.743145111e-14)
)
;
    }
    procBoundary5to4
    {
        type            processor;
        value           nonuniform List<vector> 
20
(
(0 -2.307395969e-12 -2.557737111e-11)
(0 -9.780932345e-12 1.675967765e-11)
(0 4.341001806e-12 5.105732781e-12)
(0 2.259194497e-12 1.151298921e-12)
(0 1.540643345e-12 7.292136414e-14)
(0 1.469696784e-12 -5.614051891e-13)
(0 2.026049445e-12 -1.839159113e-12)
(0 3.91037572e-12 -6.366763778e-12)
(0 -1.028669306e-11 -1.940631654e-11)
(0 -1.741159849e-12 2.014171009e-11)
(0 -1.113003673e-11 4.980453311e-11)
(0 2.373761388e-11 1.523358698e-11)
(0 9.179947034e-12 -1.168889675e-11)
(0 -2.509570875e-11 -2.166001656e-11)
(0 2.971019275e-13 -1.333097175e-11)
(0 7.167934694e-13 -4.602441552e-12)
(0 4.72217461e-13 -1.753923699e-12)
(0 2.702007424e-13 -7.380124472e-13)
(0 1.654039217e-13 -3.170723447e-13)
(0 1.243973876e-13 -9.0393985e-14)
)
;
    }
}


// ************************************************************************* //
