/*--------------------------------*- C++ -*----------------------------------*\
  =========                 |
  \\      /  F ield         | OpenFOAM: The Open Source CFD Toolbox
   \\    /   O peration     | Website:  https://openfoam.org
    \\  /    A nd           | Version:  10
     \\/     M anipulation  |
\*---------------------------------------------------------------------------*/
FoamFile
{
    format      ascii;
    class       volScalarField;
    location    "0.0003";
    object      p_rgh;
}
// * * * * * * * * * * * * * * * * * * * * * * * * * * * * * * * * * * * * * //

dimensions      [1 -1 -2 0 0 0 0];

internalField   nonuniform List<scalar> 
3600
(
-916.3986075
-821.6475557
-722.5635502
-620.2297161
-515.6122736
-409.5650996
-302.8360542
-196.0744048
-89.83884028
15.39430845
119.2229251
221.3112404
321.3823773
419.2113928
514.6188615
607.4650135
697.6444299
785.081276
869.7250457
951.5467782
1030.535712
1106.696344
1180.045847
1250.611818
1318.430325
1383.544209
1446.001623
1505.85477
1563.158812
1617.970948
1670.349631
1720.353911
1768.042876
1813.475179
1856.708638
1897.799903
1936.804198
1973.775103
2008.764383
2041.821831
2072.995158
2102.32991
2129.869405
2155.654698
2179.724545
2202.115368
2222.861252
2241.993943
2259.54286
2275.535096
2289.995413
2302.94625
2314.407744
2324.397755
2332.931888
2340.023494
2345.683666
2349.921245
2352.742816
2354.152677
-921.9333337
-825.9801898
-725.8130213
-622.5129494
-517.0416173
-410.2465749
-302.8682554
-195.5479084
-88.83600059
16.79928053
120.9636836
223.3288924
323.624988
421.6334448
517.1806957
610.1322743
700.3875295
787.8748868
872.5476252
954.3801281
1033.364576
1109.508041
1182.829949
1253.359858
1321.135535
1386.201286
1448.606522
1508.40452
1565.65137
1620.40506
1672.724713
1722.669937
1770.300285
1815.674797
1858.851619
1899.887679
1938.838425
1975.757615
2010.697143
2043.706908
2074.834707
2104.126155
2131.624622
2157.371195
2181.404644
2203.761403
2224.475561
2243.578867
2261.100729
2277.068223
2291.506096
2304.43678
2315.88041
2325.854842
2334.375663
2341.4562
2347.107531
2351.338506
2354.155759
2355.563739
-932.8851562
-834.5262294
-732.1947277
-626.9667527
-519.7939692
-411.5106112
-302.8417467
-194.4122078
-86.75573934
19.6759552
124.5044894
227.416538
328.1561423
426.5176267
522.3391389
615.4968057
705.8994862
793.484091
878.2114277
960.0625294
1039.035426
1115.142315
1188.407092
1258.863202
1326.551768
1391.519997
1453.819796
1513.506591
1570.638301
1625.274466
1677.475516
1727.30216
1774.814883
1820.073508
1863.136833
1904.062314
1942.905822
1979.721448
2014.561362
2047.475686
2078.512388
2107.717211
2135.133612
2160.802737
2184.763397
2207.052049
2227.702783
2246.747332
2264.215083
2280.133094
2294.526104
2307.416533
2318.82449
2328.767791
2337.261977
2344.320342
2349.95396
2354.171685
2356.980147
2358.38375
-949.0146566
-847.0443194
-741.4723418
-633.364784
-523.6563005
-413.1595363
-302.5752683
-192.5027668
-83.4500083
24.15651268
129.9625279
233.6773944
335.066199
433.9425786
530.1622397
623.6171471
714.2303495
801.9513982
886.7523059
968.6239902
1047.573159
1123.619599
1196.79382
1267.13501
1334.689273
1399.508103
1461.64709
1521.164804
1578.12185
1632.580058
1684.6018
1734.249421
1781.584769
1826.668795
1869.561227
1910.320288
1949.002481
1985.662406
2020.352634
2053.123597
2084.023504
2113.098275
2140.391498
2165.944407
2189.795862
2211.982342
2232.537938
2251.494368
2268.880996
2284.724849
2299.05063
2311.880717
2323.235176
2333.131772
2341.586004
2348.611133
2354.218212
2358.416074
2361.211313
2362.608304
-969.9508251
-863.1635423
-753.2849898
-641.3631803
-528.3063332
-414.89536
-301.7963886
-189.5729188
-78.69734656
30.43829457
137.5124532
242.265067
344.4894522
444.0250382
540.7508958
634.5800009
725.4541794
813.3396713
898.2232477
980.1088187
1059.014483
1134.969977
1208.01447
1278.194665
1345.563153
1410.177016
1472.096634
1531.384679
1588.105257
1642.323172
1694.103308
1743.510111
1790.60718
1835.456922
1878.120272
1918.656451
1957.122766
1993.574465
2028.06462
2060.644058
2091.361288
2120.262456
2147.391309
2172.789178
2196.494979
2218.545215
2238.973979
2257.812965
2275.091496
2290.836543
2305.072748
2317.822434
2329.105609
2338.939985
2347.341002
2354.321876
2359.893615
2364.065006
2366.842609
2368.230784
-995.1775336
-882.3735389
-767.1403637
-650.4960622
-533.3099137
-416.318572
-300.1413661
-185.2945026
-72.20405682
38.78227893
147.3846623
253.3817247
356.6022784
456.918016
554.2371055
648.49859
739.6675131
827.7306887
912.6930354
994.5744041
1073.406841
1149.232237
1222.100323
1292.066943
1359.192579
1423.5411
1485.178701
1544.173019
1600.592382
1654.505167
1705.979272
1755.081675
1801.878083
1846.432654
1888.807762
1929.063804
1967.259039
2003.449472
2037.688772
2070.028222
2100.516681
2129.200546
2156.123732
2181.327676
2204.851348
2226.731268
2247.001522
2265.693767
2282.837264
2298.458906
2312.583255
2325.232554
2336.426737
2346.183439
2354.518032
2361.443664
2366.971281
2371.109619
2373.865203
2375.242374
-1024.016444
-904.012228
-782.4063368
-660.170238
-538.1181052
-416.927036
-297.1553588
-179.2589981
-63.60595976
49.51093713
159.862933
267.2756469
371.6206907
472.8084252
570.7817128
665.5105408
756.987406
845.2233641
930.2446499
1012.089786
1090.807112
1166.452693
1239.088542
1308.781118
1375.600048
1439.617049
1500.905027
1559.537333
1615.587142
1669.12693
1720.228046
1768.960361
1815.391987
1859.589066
1901.615596
1941.533293
1979.401484
2015.277019
2049.214225
2081.264886
2111.478228
2139.90091
2166.577021
2191.548095
2214.853145
2236.528697
2256.608805
2275.125068
2292.106663
2307.580382
2321.570678
2334.099688
2345.187245
2354.85089
2363.105905
2369.965358
2375.440123
2379.53887
2382.268081
2383.632075
-1055.607355
-927.2521041
-798.3019896
-669.6598952
-542.0646543
-416.1154992
-292.2933969
-170.9795041
-52.47102676
63.00521419
175.2812192
284.2379831
389.7971669
491.9140488
590.5715609
685.7752488
777.5490161
865.9315421
950.9732653
1032.733842
1111.280004
1186.683769
1259.020943
1328.369874
1394.810402
1458.422992
1519.288013
1577.485159
1633.092971
1686.188449
1736.84674
1785.140882
1831.141619
1874.917252
1916.533538
1956.05362
1993.537961
2029.044308
2062.627679
2094.340369
2124.231976
2152.349416
2178.736938
2203.436158
2226.48611
2247.923289
2267.781687
2286.092813
2302.885731
2318.187102
2332.021245
2344.41016
2355.373553
2364.928846
2373.091215
2379.87363
2385.286871
2389.339536
2392.038055
2393.386712
-1088.887372
-951.086348
-813.8890904
-678.1021454
-544.3645392
-413.1763034
-284.9225911
-159.8939328
-38.30316909
79.70043703
194.0194702
304.5986334
411.4166916
514.479805
613.8160133
709.4706713
801.5026748
889.9813469
974.9838714
1056.593173
1134.896169
1209.982329
1281.942504
1350.867974
1416.849658
1479.977483
1540.339872
1598.023342
1653.112191
1705.688252
1755.830711
1803.61597
1849.117548
1892.406016
1933.548972
1972.61103
2009.653818
2044.735994
2077.91326
2109.238415
2138.76141
2166.529389
2192.586734
2216.975107
2239.733518
2260.898391
2280.503609
2298.580553
2315.158136
2330.262862
2343.918879
2356.148023
2366.969838
2376.401603
2384.458362
2391.152965
2396.496085
2400.49623
2403.15977
2404.49095
-1122.570754
-974.3163237
-828.0653437
-684.4945016
-544.1144745
-407.3019788
-274.3261001
-145.3698078
-20.54746757
100.0809417
216.4983162
328.7211264
436.7919122
540.773234
640.7428004
736.7895454
829.0104722
917.5081197
1002.388537
1083.759665
1161.730038
1236.407755
1307.899676
1376.310793
1441.743737
1504.298403
1564.071667
1621.157187
1675.645264
1727.622753
1777.173015
1824.375909
1869.307791
1912.04154
1952.646603
1991.189059
2027.731685
2062.334013
2095.052401
2125.940108
2155.047387
2182.421564
2208.107096
2232.145639
2254.576128
2275.434859
2294.755556
2312.56942
2328.905177
2343.789129
2357.245218
2369.295076
2379.958054
2389.251251
2397.189555
2403.785675
2409.050155
2412.991408
2415.615728
2416.927311
-1155.131751
-995.542354
-839.5609291
-687.69549
-540.2963007
-397.590434
-259.7093928
-126.7110712
1.402853042
124.6731925
243.1724555
356.9963866
466.2573528
571.0791892
671.5931954
767.9350378
860.2423583
948.6529415
1033.303326
1114.32776
1191.857423
1266.019854
1336.938556
1404.732721
1469.517065
1531.401724
1590.49223
1646.889521
1700.689994
1751.985576
1800.863822
1847.408036
1891.697383
1933.807003
1973.808138
2011.768268
2047.751245
2081.817407
2114.023689
2144.423735
2173.068022
2200.003976
2225.276058
2248.925848
2270.992141
2291.511042
2310.516056
2328.038149
2344.105798
2358.745059
2371.979623
2383.830872
2394.317926
2403.457676
2411.264823
2417.751907
2422.929333
2426.805396
2429.386307
2430.676201
-1184.793145
-1013.159921
-846.9399992
-686.4296766
-531.7842293
-383.0534646
-240.2093394
-103.1672814
28.19744162
154.0372247
274.5226493
389.8353484
500.1626726
605.6937373
706.6165332
803.115847
895.3717887
983.5587798
1067.844897
1148.391476
1225.352908
1298.876573
1369.102886
1436.165413
1500.191046
1561.300196
1619.607033
1675.219726
1728.240692
1778.766837
1826.889802
1872.696215
1916.267922
1957.682202
1997.011965
2034.325967
2069.689011
2103.162121
2134.80269
2164.664635
2192.798549
2219.251856
2244.068925
2267.291176
2288.957181
2309.102783
2327.761194
2344.963073
2360.736591
2375.107494
2388.099171
2399.732714
2410.026968
2418.99858
2426.662034
2433.029677
2438.111751
2441.916419
2444.44979
2445.715933
-1209.523646
-1025.363688
-848.6089389
-679.2984385
-517.3569056
-362.6292635
-214.9066009
-73.94551137
60.51763885
188.7563029
311.0462733
427.6604069
538.8649876
644.9173027
746.0641183
842.5408124
934.5709703
1022.366309
1106.126841
1186.041196
1262.287038
1335.031544
1404.431924
1470.635949
1533.782479
1594.001976
1651.417006
1706.142718
1758.287301
1807.952392
1855.233481
1900.220286
1942.997115
1983.64317
2022.232835
2058.835953
2093.518099
2126.340809
2157.361783
2186.635061
2214.211219
2240.13755
2264.458217
2287.21437
2308.444265
2328.183392
2346.464584
2363.318118
2378.771784
2392.850959
2405.578672
2416.975675
2427.0605
2435.849509
2443.356932
2449.594896
2454.573456
2458.300624
2460.782393
2462.022755
-1227.047453
-1030.161753
-842.8331033
-664.7976884
-495.7151264
-335.1994968
-182.8416802
-38.2251686
99.06297695
229.4247471
353.2464261
470.895731
582.7202985
689.0471117
790.1825856
886.4130943
978.0057693
1065.209462
1148.255802
1227.360293
1302.723389
1374.531551
1442.95825
1508.164935
1570.301922
1629.509224
1685.917327
1739.647908
1790.814499
1839.523073
1885.872594
1929.955528
1971.858318
2011.661798
2049.441547
2085.268246
2119.208008
2151.322668
2181.670031
2210.304084
2237.275224
2262.630465
2286.41362
2308.665446
2329.423769
2348.723618
2366.597355
2383.074788
2398.18325
2411.94768
2424.390689
2435.532635
2445.391689
2453.983886
2461.323165
2467.421401
2472.288437
2475.932113
2478.358294
2479.570882
-1234.869107
-1025.402287
-827.7635106
-641.343541
-465.5058504
-299.6113341
-143.0348501
4.824168668
144.5353412
276.6339534
401.6196459
519.9565102
632.0741009
738.3690117
839.2067862
934.9239962
1025.830354
1112.210788
1194.327459
1272.421655
1346.71557
1417.413933
1484.705529
1548.764585
1609.752037
1667.816678
1723.096201
1775.718156
1825.800812
1873.45393
1918.779445
1961.872108
2002.820082
2041.705442
2078.604623
2113.588825
2146.724414
2178.073263
2207.69305
2235.637499
2261.956632
2286.697013
2309.90195
2331.611657
2351.863398
2370.69163
2388.12814
2404.202172
2418.94052
2432.367608
2444.505566
2455.374302
2464.991573
2473.373041
2480.532316
2486.480988
2491.22866
2494.782982
2497.149673
2498.332541
-1230.316311
-1008.814312
-801.4745903
-607.3065679
-425.3528364
-254.7045586
-94.50995289
56.02197979
197.6209187
330.9567538
456.6423899
575.2372827
687.2513225
793.1488018
893.3523229
988.2465413
1078.181666
1163.476701
1244.422436
1321.284173
1394.304198
1463.704001
1529.68629
1592.436805
1652.125952
1708.910257
1762.933672
1814.328762
1863.217761
1909.713512
1953.920292
1995.93457
2035.845708
2073.736561
2109.683998
2143.759369
2176.028955
2206.554369
2235.392883
2262.597718
2288.218306
2312.300562
2334.88711
2356.017465
2375.728186
2394.05303
2411.023098
2426.666969
2441.010809
2454.078448
2465.891463
2476.469249
2485.829096
2493.986247
2500.953941
2506.74345
2511.364112
2514.823363
2517.126763
2518.278012
-1210.602463
-978.0636041
-762.0134533
-561.0547606
-373.8938089
-199.3435344
-36.32178469
116.1534075
258.9702479
392.9304211
518.7565629
637.0996141
748.5458273
853.6232888
952.8079239
1046.528965
1135.173869
1219.092731
1298.602249
1373.989271
1445.513941
1513.412496
1577.899757
1639.171352
1697.405692
1752.765725
1805.40049
1855.446513
1903.029052
1948.263187
1991.254782
2032.101351
2070.892851
2107.712377
2142.636748
2175.737036
2207.079055
2236.723812
2264.727875
2291.143682
2316.019834
2339.401381
2361.330069
2381.844541
2400.9805
2418.770867
2435.245936
2450.433518
2464.359052
2477.04569
2488.514381
2498.783944
2507.871145
2515.790759
2522.555614
2528.176629
2532.662849
2536.021475
2538.257891
2539.375678
-1172.909477
-930.823734
-707.4603456
-501.0046738
-309.8235479
-132.4534106
32.41353449
185.9438006
329.1768805
463.0387743
588.3544966
705.8594727
816.2097894
919.9913259
1017.727872
1109.888308
1196.892914
1279.118917
1356.905393
1430.557583
1500.350686
1566.533193
1629.329819
1688.944107
1745.560718
1799.347459
1850.457071
1899.028805
1945.189843
1989.056527
2030.735441
2070.324371
2107.913186
2143.58461
2177.414875
2209.474291
2239.827784
2268.535377
2295.652593
2321.230793
2345.317483
2367.956612
2389.188844
2409.051764
2427.580055
2444.80566
2460.757942
2475.463831
2488.947938
2501.232653
2512.338215
2522.282803
2531.082603
2538.751871
2545.302983
2550.74647
2555.091054
2558.34368
2560.509537
2561.592078
-1114.489951
-864.8610459
-635.9990089
-425.6795032
-231.9417391
-53.05951475
112.486127
266.0319891
408.75533
541.6939489
665.7638463
781.7746844
890.4432424
992.4050827
1088.224691
1178.404275
1263.391373
1343.585453
1419.343663
1490.985849
1558.798923
1623.040686
1683.943156
1741.715496
1796.546594
1848.607328
1898.052554
1945.022853
1989.646089
2032.038771
2072.307231
2110.548672
2146.852121
2181.299261
2213.96514
2244.918788
2274.223776
2301.938738
2328.117793
2352.810904
2376.0642
2397.920286
2418.418522
2437.595243
2455.483943
2472.115435
2487.518022
2501.717636
2514.737962
2526.600532
2537.324805
2546.928248
2555.426408
2562.832975
2569.159829
2574.417078
2578.613092
2581.754536
2583.846389
2584.891962
-1032.785967
-778.1310165
-545.9946248
-333.7720494
-139.2038248
39.67155245
204.5591002
356.9433121
498.1191363
629.2185002
751.2329356
865.032886
971.3841406
1070.961814
1164.362305
1252.113531
1334.683676
1412.488696
1485.898808
1555.244097
1620.819372
1682.8884
1741.687569
1797.429092
1850.303822
1900.483715
1948.123991
1993.365019
2036.333987
2077.146367
2115.907185
2152.712131
2187.64857
2220.796426
2252.228929
2282.013264
2310.211163
2336.879431
2362.070406
2385.83232
2408.209633
2429.243348
2448.971296
2467.428363
2484.646677
2500.655772
2515.482751
2529.152434
2541.687477
2553.108466
2563.434
2572.680766
2580.863616
2587.995622
2594.088127
2599.15078
2603.191571
2606.216862
2608.231405
2609.238359
-925.5599245
-668.8819513
-436.075903
-224.2096992
-30.7724931
146.3910429
309.1360134
459.0636379
597.5600384
725.8286322
844.9171877
955.7404956
1059.09935
1155.696468
1246.14995
1331.004667
1410.741924
1485.787683
1556.519629
1623.273226
1686.346966
1746.006899
1802.490572
1856.010443
1906.756867
1954.900722
2000.595699
2043.980293
2085.179556
2124.306644
2161.464145
2196.745251
2230.234797
2262.010187
2292.142167
2320.695495
2347.729541
2373.29884
2397.453551
2420.239832
2441.700174
2461.873716
2480.79653
2498.501852
2515.020267
2530.379875
2544.606447
2557.723573
2569.752776
2580.713609
2590.623731
2599.498986
2607.353472
2614.199594
2620.048117
2624.908196
2628.787415
2631.691808
2633.625886
2634.592647
-791.0307165
-535.7604884
-305.2168112
-96.21780351
93.93307625
267.5296883
426.5308696
572.6157976
707.2293761
831.6194421
946.8673531
1053.913264
1153.57702
1246.575498
1333.53712
1415.014056
1491.492485
1563.401322
1631.119648
1694.983079
1755.289252
1812.30257
1866.258311
1917.366185
1965.813442
2011.767594
2055.378802
2096.781932
2136.09837
2173.437609
2208.898623
2242.57107
2274.53636
2304.868587
2333.635325
2360.898302
2386.714006
2411.13424
2434.206583
2455.974771
2476.479021
2495.756347
2513.840832
2530.76386
2546.5543
2561.238663
2574.841259
2587.38433
2598.888169
2609.371208
2618.850092
2627.339756
2634.853488
2641.402982
2646.998381
2651.648317
2655.359938
2658.138932
2659.989553
2660.914626
-628.0066169
-377.9120086
-152.8125228
50.62276866
235.1934779
403.2643484
556.8425709
697.6399182
827.1228599
946.553048
1057.020187
1159.468899
1254.720707
1343.492134
1426.409752
1504.022746
1576.813458
1645.206312
1709.575417
1770.251056
1827.525276
1881.656727
1932.874845
1981.383484
2027.364074
2070.978391
2112.370991
2151.6713
2188.995453
2224.447897
2258.122784
2290.105186
2320.472161
2349.293698
2376.633502
2402.549665
2427.095263
2450.31891
2472.265208
2492.97512
2512.486292
2530.833348
2548.048159
2564.160063
2579.19604
2593.180867
2606.137261
2618.086011
2629.046082
2639.0347
2648.067429
2656.158231
2663.319532
2669.562269
2674.895929
2679.328587
2682.86693
2685.516284
2687.280627
2688.162604
-436.0043944
-195.0679414
21.25649114
216.3284774
392.9542926
553.4922491
699.9357494
833.9790737
957.0697507
1070.450359
1175.192128
1272.22216
1362.345522
1446.263343
1524.587789
1597.854514
1666.533096
1731.035881
1791.725501
1848.921315
1902.904954
1953.925128
2002.201796
2047.929784
2091.28194
2132.411892
2171.456485
2208.537868
2243.765319
2277.236841
2309.040549
2339.255864
2367.954577
2395.201768
2421.056582
2445.572872
2468.799787
2490.782298
2511.56164
2531.17567
2549.659167
2567.044116
2583.359956
2598.633792
2612.890554
2626.153145
2638.44257
2649.778059
2660.177158
2669.655816
2678.228442
2685.907972
2692.705922
2698.632428
2703.69629
2707.904995
2711.264748
2713.780491
2715.455917
2716.29348
-215.3429315
12.38862128
216.5784936
400.4809245
566.8035588
717.8152149
855.4297174
981.2715178
1096.72737
1202.987162
1301.076481
1391.882797
1476.176604
1554.628676
1627.824317
1696.275203
1760.429325
1820.679428
1877.370227
1930.804607
1981.248984
2028.937957
2074.078378
2116.852886
2157.422983
2195.931749
2232.506213
2267.259415
2300.292183
2331.694692
2361.547812
2389.924271
2416.889683
2442.50344
2466.819446
2489.886736
2511.750027
2532.450218
2552.024803
2570.508209
2587.932074
2604.325506
2619.715311
2634.126183
2647.580855
2660.100223
2671.703472
2682.408175
2692.230381
2701.184688
2709.284293
2716.541053
2722.965529
2728.567022
2733.35361
2737.332169
2740.508402
2742.88685
2744.470909
2745.262836
32.80057981
243.3873509
432.1884865
602.2137398
755.9644007
895.5359413
1022.696991
1138.95054
1245.581692
1343.695075
1434.244492
1518.056631
1595.850133
1668.25118
1735.806368
1798.993442
1858.230368
1913.883089
1966.272205
2015.678761
2062.349299
2106.500255
2148.321827
2187.981368
2225.626336
2261.386899
2295.37822
2327.702435
2358.450366
2387.703008
2415.532821
2442.004827
2467.177594
2491.104071
2513.832278
2535.405876
2555.864677
2575.245099
2593.580552
2610.901735
2627.23689
2642.61203
2657.051142
2670.576354
2683.208063
2694.965046
2705.864567
2715.92246
2725.153203
2733.569979
2741.184725
2748.008171
2754.049886
2759.318303
2763.820751
2767.563476
2770.551657
2772.789423
2774.279862
2775.025026
306.3824811
496.1722019
666.5749024
820.2217077
959.304946
1085.667748
1200.872351
1306.252577
1402.954414
1491.967586
1574.150444
1650.249789
1720.91683
1786.720292
1848.157313
1905.662623
1959.616416
2010.351165
2058.157563
2103.289777
2145.970065
2186.392833
2224.728237
2261.125376
2295.715062
2328.61228
2359.918347
2389.722778
2418.104896
2445.135231
2470.876717
2495.38572
2518.712937
2540.904174
2562.000964
2582.041083
2601.059004
2619.086295
2636.151966
2652.282722
2667.503183
2681.836074
2695.302404
2707.921593
2719.711588
2730.688949
2740.868932
2750.26556
2758.891681
2766.759014
2773.878186
2780.258767
2785.909299
2790.837324
2795.049399
2798.551119
2801.347129
2803.441133
2804.835902
2805.53328
602.539933
768.3445508
917.7177358
1052.793786
1175.366494
1286.958325
1388.872666
1482.233613
1568.016427
1647.071051
1720.140579
1787.875937
1850.847811
1909.556579
1964.440724
2015.884093
2064.222293
2109.748375
2152.717903
2193.353548
2231.849208
2268.373656
2303.073833
2336.077784
2367.497222
2397.429804
2425.961135
2453.166488
2479.112288
2503.857397
2527.454195
2549.949507
2571.385411
2591.799928
2611.227567
2629.69976
2647.245254
2663.890447
2679.659676
2694.575422
2708.65849
2721.92816
2734.40232
2746.097577
2757.029328
2767.211836
2776.658284
2785.380826
2793.390632
2800.697915
2807.311961
2813.241148
2818.49297
2823.074054
2826.990171
2830.246251
2832.846394
2834.79387
2836.091129
2836.739801
917.6959386
1056.94879
1183.158203
1297.869723
1402.409467
1497.926949
1585.426944
1665.79338
1739.807242
1808.160251
1871.465546
1930.266238
1985.04258
2036.218197
2084.165641
2129.211484
2171.641062
2211.70292
2249.612922
2285.558142
2319.700432
2352.179644
2383.116582
2412.615656
2440.767205
2467.649576
2493.330931
2517.870811
2541.321462
2563.728982
2585.134268
2605.573817
2625.080424
2643.683768
2661.410862
2678.286407
2694.333098
2709.571894
2724.022238
2737.702203
2750.628628
2762.817219
2774.282644
2785.038605
2795.097883
2804.472384
2813.173168
2821.210482
2828.593783
2835.331752
2841.432307
2846.902618
2851.749114
2855.977493
2859.59273
2862.599083
2865.000095
2866.798601
2867.996723
2868.595877
1247.718056
1358.596899
1460.097039
1553.117927
1638.475227
1716.913593
1789.115346
1855.706302
1917.259507
1974.297795
2027.295768
2076.681556
2122.838768
2166.10871
2206.792908
2245.155912
2281.428352
2315.810121
2348.473534
2379.56651
2409.215605
2437.5288
2464.598119
2490.501993
2515.307325
2539.071347
2561.843222
2583.665415
2604.574854
2624.60391
2643.781189
2662.132184
2679.679849
2696.445057
2712.446945
2727.70317
2742.230122
2756.043118
2769.156539
2781.58392
2793.338025
2804.430899
2814.873925
2824.677844
2833.852779
2842.408241
2850.353142
2857.695798
2864.443936
2870.604689
2876.184599
2881.189615
2885.625095
2889.495802
2892.805909
2895.558997
2897.758054
2899.405473
2900.50305
2901.051981
1588.12015
1669.624114
1745.515593
1816.030198
1881.460446
1942.137376
1998.415101
2050.657549
2099.227278
2144.476288
2186.738836
2226.326135
2263.522942
2298.585713
2331.742127
2363.191672
2393.107102
2421.63646
2448.905364
2475.019574
2500.067518
2524.1227
2547.246012
2569.487805
2590.889708
2611.486244
2631.306205
2650.373817
2668.709714
2686.33173
2703.255509
2719.495002
2735.062879
2749.970858
2764.229921
2777.850457
2790.842382
2803.215234
2814.978233
2826.1403
2836.710066
2846.695878
2856.105798
2864.947591
2873.228703
2880.956245
2888.136973
2894.777271
2900.883133
2906.460145
2911.513472
2916.047846
2920.067552
2923.576421
2926.577825
2929.07467
2931.069388
2932.563932
2933.559771
2934.057883
1934.290869
1986.264232
2036.31149
2084.027305
2129.199472
2171.760897
2211.750695
2249.282106
2284.516384
2317.641899
2348.857814
2378.361885
2406.341848
2432.969789
2458.398928
2482.762261
2506.17267
2528.723992
2550.492646
2571.539703
2591.913019
2611.649339
2630.776344
2649.314461
2667.278438
2684.678713
2701.522551
2717.814978
2733.559542
2748.758902
2763.41524
2777.530564
2791.106964
2804.146775
2816.652655
2828.627608
2840.074993
2850.998518
2861.40221
2871.290362
2880.667471
2889.538191
2897.907278
2905.779533
2913.159745
2920.052642
2926.462841
2932.394811
2937.852829
2942.840949
2947.362974
2951.422427
2955.022532
2958.166198
2960.856003
2963.094183
2964.882618
2966.222827
2967.115953
2967.562759
2281.729086
2304.830838
2329.439257
2354.568539
2379.549715
2403.95659
2427.545256
2450.204389
2471.914883
2492.717764
2512.689295
2531.922403
2550.513454
2568.55337
2586.122242
2603.286494
2620.098082
2636.594957
2652.802318
2668.734398
2684.396353
2699.786167
2714.896487
2729.716217
2744.231857
2758.428623
2772.29132
2785.805031
2798.955643
2811.730203
2824.117101
2836.106182
2847.688803
2858.857829
2869.607552
2879.933586
2889.832748
2899.302952
2908.343079
2916.952843
2925.13267
2932.883575
2940.207063
2947.105024
2953.579642
2959.633305
2965.268536
2970.487922
2975.29406
2979.689501
2983.67671
2987.258024
2990.435626
2993.211518
2995.587496
2997.565138
2999.145785
3000.330523
3001.120175
3001.515294
2626.266502
2621.89118
2622.046582
2625.258356
2630.474724
2636.971
2644.269921
2652.075914
2660.22163
2668.625629
2677.259855
2686.125661
2695.236907
2704.608758
2714.250941
2724.164158
2734.338997
2744.756224
2755.388081
2766.200041
2777.152643
2788.203322
2799.3081
2810.42299
2821.505122
2832.513596
2843.410075
2854.159201
2864.728858
2875.09026
2885.21789
2895.089389
2904.685404
2913.989394
2922.987381
2931.667699
2940.020751
2948.038783
2955.715657
2963.046639
2970.028192
2976.657806
2982.933837
2988.855357
2994.422023
2999.633961
3004.491662
3008.995893
3013.147618
3016.947928
3020.39799
3023.498988
3026.252092
3028.658417
3030.719
3032.434777
3033.806556
3034.835007
3035.520639
3035.863795
2964.261023
2934.421215
2911.598
2893.944028
2880.120337
2869.183275
2860.488051
2853.608289
2848.270727
2844.303929
2841.599522
2840.084191
2839.700484
2840.394588
2842.109357
2844.780961
2848.338272
2852.703616
2857.794537
2863.525854
2869.811661
2876.567198
2883.710457
2891.163429
2898.853009
2906.711555
2914.67718
2922.693861
2930.711393
2938.685185
2946.575925
2954.349217
2961.975206
2969.428177
2976.686125
2983.730347
2990.545067
2997.11709
3003.435477
3009.491234
3015.277048
3020.787047
3026.01658
3030.962033
3035.620654
3039.990405
3044.069837
3047.857972
3051.354208
3054.558236
3057.469972
3060.089491
3062.416984
3064.452712
3066.196975
3067.650085
3068.81234
3069.683999
3070.265269
3070.55629
3292.75138
3239.935069
3195.980719
3158.799887
3126.87979
3099.154221
3074.891275
3053.599072
3034.9497
3018.720501
3004.750791
2992.911778
2983.086939
2975.160483
2969.011644
2964.512799
2961.530254
2959.926199
2959.561431
2960.29804
2962.001807
2964.544206
2967.803967
2971.66817
2976.032885
2980.803413
2985.894218
2991.228685
2996.738732
3002.364263
3008.052528
3013.757493
3019.439213
3025.063209
3030.599847
3036.023768
3041.313373
3046.450357
3051.41927
3056.207138
3060.803113
3065.198172
3069.384854
3073.357025
3077.109668
3080.638714
3083.940881
3087.013542
3089.854614
3092.462458
3094.835799
3096.973654
3098.875277
3100.540111
3101.967751
3103.157909
3104.110388
3104.825055
3105.301822
3105.540637
3609.571955
3536.587373
3473.590387
3418.395538
3369.445233
3325.663064
3286.324309
3250.947618
3219.209135
3190.878222
3165.77202
3143.725854
3124.575692
3108.149511
3094.26468
3082.729129
3073.34452
3065.910289
3060.227788
3056.103939
3053.354187
3051.804702
3051.293893
3051.673295
3052.807894
3054.575958
3056.868563
3059.588932
3062.651644
3065.981697
3069.513546
3073.190161
3076.962136
3080.786829
3084.627541
3088.452779
3092.2356
3095.953013
3099.585453
3103.116302
3106.531482
3109.819091
3112.969087
3115.97302
3118.823788
3121.51544
3124.042993
3126.402286
3128.589849
3130.602795
3132.438729
3134.095669
3135.571981
3136.866332
3137.977643
3138.905057
3139.647901
3140.205668
3140.577988
3140.764622
3913.435176
3823.252563
3743.398363
3671.747115
3606.843029
3547.728999
3493.79583
3444.658521
3400.061624
3359.811861
3323.733884
3291.644635
3263.341203
3238.597952
3217.169215
3198.79528
3183.209138
3170.143384
3159.336268
3150.536564
3143.507146
3138.027368
3133.894466
3130.924131
3128.950389
3127.824929
3127.416116
3127.607845
3128.298265
3129.398421
3130.830909
3132.528614
3134.433532
3136.495658
3138.671961
3140.925484
3143.224531
3145.541964
3147.854567
3150.142499
3152.388812
3154.579036
3156.700827
3158.743651
3160.698527
3162.557795
3164.314921
3165.964335
3167.501291
3168.921746
3170.222261
3171.39992
3172.452258
3173.377208
3174.173057
3174.838405
3175.372133
3175.773371
3176.041485
3176.176058
4203.997072
4099.589761
4005.00384
3918.351992
3838.451231
3764.61457
3696.472014
3633.829555
3576.567605
3524.574364
3477.707687
3435.778292
3398.54727
3365.73257
3337.019716
3312.074379
3290.554089
3272.118581
3256.438131
3243.199752
3232.111326
3222.90401
3215.333335
3209.179286
3204.245554
3200.358212
3197.364099
3195.129077
3193.536205
3192.483895
3191.884159
3191.660998
3191.748911
3192.091534
3192.640416
3193.353938
3194.196374
3195.137063
3196.149695
3197.21168
3198.303616
3199.408828
3200.512971
3201.603699
3202.670372
3203.703814
3204.696106
3205.64041
3206.530818
3207.362229
3208.130248
3208.831092
3209.461523
3210.01879
3210.500585
3210.904996
3211.23048
3211.47583
3211.640158
3211.722875
4481.928411
4366.105935
4258.675643
4158.206222
4063.995766
3975.806527
3893.648584
3817.620612
3747.805462
3684.210911
3626.744854
3575.214213
3529.337737
3488.766024
3453.103502
3421.92928
3394.815078
3371.339502
3351.098722
3333.713832
3318.835252
3306.14485
3295.356433
3286.215031
3278.495273
3271.999217
3266.553958
3262.009167
3258.23463
3255.117867
3252.561938
3250.483451
3248.810766
3247.482377
3246.445482
3245.654753
3245.071258
3244.661539
3244.39681
3244.252271
3244.206529
3244.241096
3244.339966
3244.489262
3244.676934
3244.892496
3245.126818
3245.371938
3245.620913
3245.86769
3246.107
3246.334269
3246.545545
3246.737443
3246.907099
3247.052124
3247.170578
3247.260933
3247.322061
3247.353216
4749.018263
4624.23028
4505.386934
4391.801859
4283.519492
4180.967676
4084.695613
3995.199372
3912.823295
3837.719496
3769.847201
3708.996596
3654.824147
3606.891045
3564.699756
3527.724952
3495.438226
3467.326389
3442.904225
3421.722462
3403.371869
3387.484559
3373.733393
3361.830054
3351.522232
3342.59037
3334.844313
3328.120009
3322.27632
3317.192071
3312.76337
3308.901242
3305.529513
3302.582945
3300.00563
3297.749604
3295.773661
3294.042341
3292.52507
3291.195424
3290.030514
3289.010461
3288.117958
3287.337902
3286.657083
3286.063923
3285.548259
3285.101159
3284.714771
3284.382195
3284.097377
3283.855023