/*--------------------------------*- C++ -*----------------------------------*\
  =========                 |
  \\      /  F ield         | OpenFOAM: The Open Source CFD Toolbox
   \\    /   O peration     | Website:  https://openfoam.org
    \\  /    A nd           | Version:  10
     \\/     M anipulation  |
\*---------------------------------------------------------------------------*/
FoamFile
{
    format      ascii;
    class       volScalarField;
    location    "0.0003";
    object      pVap;
}
// * * * * * * * * * * * * * * * * * * * * * * * * * * * * * * * * * * * * * //

dimensions      [1 -1 -2 0 0 0 0];

internalField   nonuniform List<scalar> 
3600
(
1.417223691e-63
1.355113614e-63
1.300467959e-63
1.252443463e-63
1.210285301e-63
1.173320735e-63
1.140951683e-63
1.112647053e-63
1.087935361e-63
1.066397898e-63
1.047662585e-63
1.031398529e-63
1.017311264e-63
1.005138604e-63
9.946470581e-64
9.85628717e-64
9.778985424e-64
9.712920039e-64
9.656629985e-64
9.608820089e-64
9.568344602e-64
9.534192424e-64
9.505473733e-64
9.481407817e-64
9.461311945e-64
9.444591168e-64
9.43072895e-64
9.41927857e-64
9.40985523e-64
9.402128837e-64
9.39581742e-64
9.390681146e-64
9.386516907e-64
9.383153454e-64
9.380447034e-64
9.378277515e-64
9.376544948e-64
9.375166546e-64
9.374074044e-64
9.373211403e-64
9.372532819e-64
9.372001025e-64
9.371585827e-64
9.371262874e-64
9.371012609e-64
9.370819396e-64
9.370670786e-64
9.370556911e-64
9.370469985e-64
9.370403886e-64
9.37035383e-64
9.370316089e-64
9.370287777e-64
9.370266673e-64
9.370251078e-64
9.370239708e-64
9.370231607e-64
9.370226081e-64
9.370222647e-64
9.370221003e-64
1.451091956e-63
1.383426973e-63
1.324146018e-63
1.272245656e-63
1.226839789e-63
1.187148259e-63
1.152485081e-63
1.122247154e-63
1.095903872e-63
1.072987852e-63
1.053086806e-63
1.035836494e-63
1.020914687e-63
1.008035991e-63
9.969474322e-64
9.874246845e-64
9.792688271e-64
9.72303551e-64
9.663727327e-64
9.613383104e-64
9.570784107e-64
9.534856826e-64
9.504658036e-64
9.47936133e-64
9.458244898e-64
9.4406804e-64
9.426122815e-64
9.414101166e-64
9.404210046e-64
9.396101899e-64
9.38948e-64
9.384092083e-64
9.37972461e-64
9.376197602e-64
9.373360031e-64
9.371085726e-64
9.36926974e-64
9.367825172e-64
9.366680382e-64
9.36577657e-64
9.365065689e-64
9.364508651e-64
9.364073795e-64
9.36373559e-64
9.363473535e-64
9.363271242e-64
9.363115665e-64
9.362996464e-64
9.362905481e-64
9.362836305e-64
9.362783923e-64
9.362744433e-64
9.362714811e-64
9.362692733e-64
9.362676419e-64
9.362664527e-64
9.362656054e-64
9.362650274e-64
9.362646683e-64
9.362644964e-64
1.524184771e-63
1.444384115e-63
1.375049278e-63
1.314796951e-63
1.262433881e-63
1.21693163e-63
1.177403322e-63
1.143082959e-63
1.11330747e-63
1.087501361e-63
1.065163755e-63
1.045857506e-63
1.029200104e-63
1.014856087e-63
1.002530707e-63
9.919646309e-64
9.829294798e-64
9.752240678e-64
9.686711931e-64
9.631148872e-64
9.58418031e-64
9.544602735e-64
9.511361969e-64
9.483536867e-64
9.460324747e-64
9.441028285e-64
9.425043685e-64
9.411849979e-64
9.400999329e-64
9.392108254e-64
9.384849689e-64
9.378945834e-64
9.374161718e-64
9.370299445e-64
9.367193057e-64
9.364703987e-64
9.362717044e-64
9.361136886e-64
9.359884949e-64
9.358896775e-64
9.358119717e-64
9.357510957e-64
9.357035826e-64
9.356666374e-64
9.356380166e-64
9.356159271e-64
9.355989421e-64
9.35585931e-64
9.355760018e-64
9.355684538e-64
9.355627393e-64
9.355584319e-64
9.355552015e-64
9.355527941e-64
9.355510156e-64
9.355497193e-64
9.355487958e-64
9.355481659e-64
9.355477746e-64
9.355475873e-64
1.645874455e-63
1.545095849e-63
1.458595682e-63
1.38424333e-63
1.320254051e-63
1.265130534e-63
1.217613253e-63
1.176639007e-63
1.141306699e-63
1.110849328e-63
1.084611149e-63
1.062029125e-63
1.042617857e-63
1.025957338e-63
1.011682978e-63
9.994774518e-64
9.890640008e-64
9.80200894e-64
9.72676819e-64
9.663070113e-64
9.60929974e-64
9.564046729e-64
9.526081143e-64
9.494332347e-64
9.467870467e-64
9.445889989e-64
9.427695168e-64
9.412686989e-64
9.400351487e-64
9.39024927e-64
9.382006125e-64
9.375304598e-64
9.369876479e-64
9.365496093e-64
9.361974353e-64
9.359153506e-64
9.356902498e-64
9.35511293e-64
9.353695531e-64
9.352577099e-64
9.351697869e-64
9.351009264e-64
9.350471963e-64
9.350054282e-64
9.349730797e-64
9.349481196e-64
9.349289322e-64
9.349142376e-64
9.349030263e-64
9.348945058e-64
9.348880565e-64
9.348831964e-64
9.348795522e-64
9.348768371e-64
9.348748316e-64
9.348733701e-64
9.348723292e-64
9.348716193e-64
9.348711783e-64
9.348709672e-64
1.833098068e-63
1.698206078e-63
1.584277747e-63
1.487751502e-63
1.405741042e-63
1.335897826e-63
1.276301476e-63
1.225373029e-63
1.181806561e-63
1.144515383e-63
1.11258972e-63
1.085263377e-63
1.061887438e-63
1.041909441e-63
1.024856835e-63
1.010323758e-63
9.979604283e-64
9.874645678e-64
9.785744134e-64
9.710629815e-64
9.64733313e-64
9.594144962e-64
9.549583045e-64
9.51236328e-64
9.481375024e-64
9.455659624e-64
9.434391631e-64
9.416862265e-64
9.402464789e-64
9.390681544e-64
9.38107243e-64
9.373264668e-64
9.366943722e-64
9.36184525e-64
9.357747999e-64
9.354467546e-64
9.351850809e-64
9.349771267e-64
9.348124788e-64
9.346826043e-64
9.345805403e-64
9.345006302e-64
9.344382978e-64
9.343898572e-64
9.34352352e-64
9.343234214e-64
9.34301188e-64
9.342841652e-64
9.342711813e-64
9.342613161e-64
9.34253851e-64
9.342482268e-64
9.342440108e-64
9.342408703e-64
9.342385512e-64
9.342368615e-64
9.342356582e-64
9.342348377e-64
9.342343281e-64
9.342340842e-64
2.115051477e-63
1.925024373e-63
1.76776696e-63
1.636931574e-63
1.527557442e-63
1.435741292e-63
1.35838929e-63
1.293030223e-63
1.237674555e-63
1.190707784e-63
1.150809439e-63
1.11689129e-63
1.088049963e-63
1.063530421e-63
1.042697647e-63
1.025014561e-63
1.010024675e-63
9.973383803e-64
9.866220167e-64
9.775890902e-64
9.699931489e-64
9.6362195e-64
9.582926361e-64
9.53847703e-64
9.501515972e-64
9.47087816e-64
9.44556414e-64
9.424718446e-64
9.407610772e-64
9.393619498e-64
9.382217209e-64
9.372957957e-64
9.365466042e-64
9.359426138e-64
9.354574626e-64
9.350691995e-64
9.34759621e-64
9.345136936e-64
9.343190537e-64
9.341655765e-64
9.340450058e-64
9.339506373e-64
9.338770507e-64
9.33819882e-64
9.337756325e-64
9.337415096e-64
9.337152935e-64
9.336952272e-64
9.336799261e-64
9.336683035e-64
9.336595109e-64
9.336528882e-64
9.33647925e-64
9.336442289e-64
9.336415001e-64
9.336395123e-64
9.336380971e-64
9.336371322e-64
9.33636533e-64
9.336362462e-64
2.542399304e-63
2.261486022e-63
2.034806292e-63
1.850401508e-63
1.699291056e-63
1.574663694e-63
1.471301096e-63
1.38516451e-63
1.313096388e-63
1.252603458e-63
1.201697788e-63
1.158779462e-63
1.122549275e-63
1.091943274e-63
1.066083287e-63
1.044239253e-63
1.025800311e-63
1.010252421e-63
9.97160924e-64
9.861568027e-64
9.769257803e-64
9.691995764e-64
9.627488255e-64
9.573772807e-64
9.529170191e-64
9.492244359e-64
9.461768627e-64
9.436696881e-64
9.416138876e-64
9.399338895e-64
9.385657232e-64
9.374554066e-64
9.365575391e-64
9.358340722e-64
9.352532374e-64
9.347886116e-64
9.34418304e-64
9.341242519e-64
9.338916122e-64
9.337082379e-64
9.335642302e-64
9.334515555e-64
9.333637224e-64
9.332955068e-64
9.33242723e-64
9.332020308e-64
9.331707766e-64
9.331468608e-64
9.331286293e-64
9.331147846e-64
9.331043137e-64
9.33096429e-64
9.330905215e-64
9.330861231e-64
9.330828767e-64
9.330805123e-64
9.330788293e-64
9.33077682e-64
9.330769695e-64
9.330766286e-64
3.2058395e-63
2.769723966e-63
2.428512141e-63
2.158448041e-63
1.942462174e-63
1.76812252e-63
1.626253283e-63
1.509993381e-63
1.414147336e-63
1.334732602e-63
1.268660313e-63
1.213507624e-63
1.167353613e-63
1.128659778e-63
1.096182135e-63
1.068905937e-63
1.045996733e-63
1.026763351e-63
1.01062963e-63
9.971126404e-64
9.858057475e-64
9.763653009e-64
9.685000763e-64
9.619628067e-64
9.565433166e-64
9.520628954e-64
9.483696376e-64
9.453345438e-64
9.4284823e-64
9.408181263e-64
9.391660787e-64
9.378262836e-64
9.367435037e-64
9.358715227e-64
9.35171807e-64
9.346123456e-64
9.341666465e-64
9.338128709e-64
9.335330873e-64
9.333126321e-64
9.331395632e-64
9.330041949e-64
9.328987047e-64
9.328168008e-64
9.327534438e-64
9.327046147e-64
9.326671212e-64
9.32638439e-64
9.326165798e-64
9.325999846e-64
9.325874367e-64
9.325779903e-64
9.325709145e-64
9.325656475e-64
9.325617608e-64
9.325589307e-64
9.325569166e-64
9.325555437e-64
9.325546913e-64
9.325542834e-64
4.275285065e-63
3.561441969e-63
3.023539443e-63
2.611739216e-63
2.291956498e-63
2.04046108e-63
1.840446537e-63
1.679813768e-63
1.549715657e-63
1.44358633e-63
1.356483769e-63
1.28463811e-63
1.225136964e-63
1.175703311e-63
1.134536753e-63
1.100198741e-63
1.071528645e-63
1.047581731e-63
1.027582846e-63
1.010891488e-63
9.969751942e-64
9.853890576e-64
9.757597966e-64
9.677732329e-64
9.611643387e-64
9.55709237e-64
9.512186999e-64
9.475328068e-64
9.445165099e-64
9.420559197e-64
9.400551674e-64
9.384337372e-64
9.371241865e-64
9.3607019e-64
9.352248582e-64
9.345492906e-64
9.340113307e-64
9.335844963e-64
9.332470624e-64
9.329812767e-64
9.327726915e-64
9.326095964e-64
9.324825383e-64
9.32383918e-64
9.32307652e-64
9.322488903e-64
9.322037823e-64
9.321692841e-64
9.321429992e-64
9.321230492e-64
9.321079683e-64
9.320966178e-64
9.320881177e-64
9.320817919e-64
9.320771249e-64
9.320737273e-64
9.320713096e-64
9.32069662e-64
9.320686391e-64
9.320681497e-64
6.087407168e-63
4.84755426e-63
3.954799231e-63
3.298250342e-63
2.806174274e-63
2.431091236e-63
2.140887421e-63
1.913395817e-63
1.733020376e-63
1.588589789e-63
1.471966375e-63
1.377127843e-63
1.299550662e-63
1.23578928e-63
1.183184595e-63
1.139659122e-63
1.103571144e-63
1.073609572e-63
1.048717245e-63
1.028034341e-63
1.010856175e-63
9.966013756e-64
9.847876267e-64
9.750129761e-64
9.669412657e-64
9.602906454e-64
9.548244127e-64
9.50343622e-64
9.466810558e-64
9.436962543e-64
9.412713805e-64
9.393077498e-64
9.377228993e-64
9.364480999e-64
9.354262347e-64
9.346099879e-64
9.339602957e-64
9.334450221e-64
9.330378282e-64
9.327172094e-64
9.324656764e-64
9.322690625e-64
9.321159383e-64
9.319971205e-64
9.319052608e-64
9.318345035e-64
9.317802015e-64
9.317386823e-64
9.317070559e-64
9.316830577e-64
9.316649208e-64
9.316512734e-64
9.316410555e-64
9.31633453e-64
9.316278452e-64
9.316237634e-64
9.316208595e-64
9.316188807e-64
9.316176524e-64
9.316170647e-64
9.354520856e-63
7.049937414e-63
5.478765994e-63
4.377684916e-63
3.586770981e-63
3.006037451e-63
2.571260487e-63
2.240140989e-63
1.984164923e-63
1.783691859e-63
1.624919779e-63
1.497967024e-63
1.395634704e-63
1.312592511e-63
1.244833326e-63
1.189301706e-63
1.143636821e-63
1.105991998e-63
1.074906296e-63
1.049211942e-63
1.02796679e-63
1.010404458e-63
9.958970961e-64
9.839272451e-64
9.740663401e-64
9.659580798e-64
9.593054121e-64
9.538602261e-64
9.494150886e-64
9.45796547e-64
9.428596404e-64
9.404833603e-64
9.38566864e-64
9.370262956e-64
9.357921014e-64
9.34806757e-64
9.340228354e-64
9.334013668e-64
9.329104435e-64
9.325240365e-64
9.322209931e-64
9.319841904e-64
9.317998221e-64
9.316568013e-64
9.315462602e-64
9.314611356e-64
9.313958243e-64
9.313458998e-64
9.3130788e-64
9.312790372e-64
9.312572441e-64
9.312408491e-64
9.312285767e-64
9.312194475e-64
9.312127149e-64
9.312078153e-64
9.312043301e-64
9.312019556e-64
9.312004818e-64
9.311997767e-64
1.570144869e-62
1.107015377e-62
8.112245954e-63
6.155206705e-63
4.818866044e-63
3.880390197e-63
3.204740655e-63
2.707538502e-63
2.334555192e-63
2.050026166e-63
1.829795886e-63
1.657187328e-63
1.520450348e-63
1.411148658e-63
1.323118152e-63
1.251780802e-63
1.193684424e-63
1.146188702e-63
1.107247597e-63
1.075256342e-63
1.048942361e-63
1.027286487e-63
1.009465344e-63
9.94808689e-64
9.827674448e-64
9.728894486e-64
9.648008263e-64
9.581915095e-64
9.528038318e-64
9.484234418e-64
9.448719754e-64
9.420010845e-64
9.396875227e-64
9.378290683e-64
9.36341118e-64
9.35153827e-64
9.342096995e-64
9.334615527e-64
9.32870797e-64
9.324059823e-64
9.32041571e-64
9.317569049e-64
9.315353379e-64
9.313635094e-64
9.31230739e-64
9.311285227e-64
9.310501176e-64
9.309901987e-64
9.309445784e-64
9.309099777e-64
9.308838397e-64
9.308641805e-64
9.308494677e-64
9.308385254e-64
9.308304571e-64
9.308245866e-64
9.308204114e-64
9.308175671e-64
9.308158019e-64
9.308149575e-64
2.91653524e-62
1.898517465e-62
1.296774195e-62
9.248835095e-63
6.8572814e-63
5.264026529e-63
4.168871532e-63
3.395026335e-63
2.834790041e-63
2.42049156e-63
2.108393688e-63
1.869487675e-63
1.684071119e-63
1.538466455e-63
1.422984703e-63
1.330632495e-63
1.256273465e-63
1.196073583e-63
1.147127606e-63
1.107203275e-63
1.074563372e-63
1.047840156e-63
1.025945494e-63
1.008005712e-63
9.933137253e-64
9.812934372e-64
9.714728994e-64
9.634638299e-64
9.569457738e-64
9.516536973e-64
9.473681492e-64
9.439073655e-64
9.41120864e-64
9.388841966e-64
9.370946157e-64
9.356674702e-64
9.345331944e-64
9.336347829e-64
9.329256685e-64
9.323679381e-64
9.319308333e-64
9.315894914e-64
9.313238915e-64
9.311179735e-64
9.309589052e-64
9.308364746e-64
9.307425872e-64
9.306708537e-64
9.306162508e-64
9.305748465e-64
9.305435759e-64
9.305200611e-64
9.305024666e-64
9.304893836e-64
9.304797386e-64
9.304727222e-64
9.304677327e-64
9.304643342e-64
9.304622252e-64
9.304612164e-64
6.079567025e-62
3.600348507e-62
2.262533235e-62
1.499489025e-62
1.042242788e-62
7.559569946e-63
5.696103417e-63
4.440809475e-63
3.569261001e-63
2.94788686e-63
2.494488566e-63
2.156919804e-63
1.901168261e-63
1.704478692e-63
1.55126773e-63
1.430631425e-63
1.33478678e-63
1.258075048e-63
1.196310939e-63
1.146349469e-63
1.10579253e-63
1.072786811e-63
1.04588248e-63
1.02393291e-63
1.006022516e-63
9.914141316e-64
9.795100977e-64
9.698231131e-64
9.619541003e-64
9.555751711e-64
9.504163437e-64
9.462550524e-64
9.429077615e-64
9.402231885e-64
9.380767737e-64
9.363661311e-64
9.35007281e-64
9.339315163e-64
9.330827861e-64
9.324155073e-64
9.318927342e-64
9.31484627e-64
9.311671737e-64
9.309211246e-64
9.307311072e-64
9.305848935e-64
9.304727955e-64
9.303871686e-64
9.303220052e-64
9.302726039e-64
9.302353016e-64
9.30207257e-64
9.301862774e-64
9.301706802e-64
9.301591839e-64
9.30150822e-64
9.301448767e-64
9.301408277e-64
9.301383152e-64
9.301371134e-64
1.44310185e-61
7.649424435e-62
4.359111186e-62
2.650314217e-62
1.707445857e-62
1.158443328e-62
8.231705481e-63
6.096089565e-63
4.684241581e-63
3.719864572e-63
3.041993692e-63
2.553444476e-63
2.193607151e-63
1.923549733e-63
1.717581351e-63
1.558324624e-63
1.433755094e-63
1.335375805e-63
1.257064707e-63
1.194330799e-63
1.143824309e-63
1.103008101e-63
1.069933402e-63
1.043084246e-63
1.021267913e-63
1.003536628e-63
9.891308001e-64
9.774372944e-64
9.67958319e-64
9.602879079e-64
9.540938935e-64
9.491039003e-64
9.450943189e-64
9.418815224e-64
9.393147895e-64
9.372705493e-64
9.356476635e-64
9.343635342e-64
9.333508783e-64
9.325550467e-64
9.319317916e-64
9.314454072e-64
9.31067183e-64
9.307741173e-64
9.305478521e-64
9.303737916e-64
9.302403771e-64
9.301384914e-64
9.300609725e-64
9.300022172e-64
9.299578613e-64
9.299245205e-64
9.298995837e-64
9.298810482e-64
9.298673885e-64
9.298574548e-64
9.298503929e-64
9.29845584e-64
9.298426004e-64
9.298411733e-64
3.959205486e-61
1.845680024e-61
9.388292231e-62
5.163024101e-62
3.04445936e-62
1.910639089e-62
1.267720002e-62
8.840178678e-63
6.444297536e-63
4.887479375e-63
3.839835952e-63
3.112890993e-63
2.594809818e-63
2.216919365e-63
1.935715478e-63
1.722843877e-63
1.559337298e-63
1.432200936e-63
1.332333552e-63
1.25322984e-63
1.190151707e-63
1.139587763e-63
1.098893874e-63
1.06604977e-63
1.039491442e-63
1.01799387e-63
1.000587701e-63
9.864991641e-64
9.751061059e-64
9.659053434e-64
9.584880751e-64
9.525210909e-64
9.477322153e-64
9.438988789e-64
9.408390362e-64
9.384038688e-64
9.364718677e-64
9.349439966e-64
9.337397159e-64
9.32793699e-64
9.320531139e-64
9.314753692e-64
9.310262455e-64
9.306783471e-64
9.304098221e-64
9.30203306e-64
9.30045054e-64
9.299242291e-64
9.298323211e-64
9.29762675e-64
9.297101083e-64
9.296706037e-64
9.296410627e-64
9.296191089e-64
9.29602933e-64
9.295911713e-64
9.295828111e-64
9.295771188e-64
9.295735874e-64
9.295718984e-64
1.274175595e-60
5.127355742e-61
2.288914595e-61
1.121297035e-61
5.969093233e-62
3.422699855e-62
2.097372859e-62
1.363822937e-62
9.351021365e-63
6.72199263e-63
5.040075225e-63
3.92331351e-63
3.157292805e-63
2.6167625e-63
2.225873242e-63
1.937164811e-63
1.720042432e-63
1.554238933e-63
1.425988881e-63
1.325725367e-63
1.246656946e-63
1.1838672e-63
1.133732363e-63
1.093536974e-63
1.061215416e-63
1.03517504e-63
1.014173091e-63
9.972297015e-64
9.835654131e-64
9.72555638e-64
9.636969507e-64
9.565817678e-64
9.508790458e-64
9.463193583e-64
9.426832032e-64
9.397917293e-64
9.374993014e-64
9.356874848e-64
9.342601425e-64
9.331394161e-64
9.322624188e-64
9.315785074e-64
9.310470295e-64
9.306354641e-64
9.303178876e-64
9.30073712e-64
9.298866484e-64
9.297438598e-64
9.296352694e-64
9.295529995e-64
9.294909177e-64
9.294442719e-64
9.294093974e-64
9.293834848e-64
9.293643954e-64
9.293505175e-64
9.293406543e-64
9.293339397e-64
9.293297743e-64
9.293277823e-64
4.879217777e-60
1.662406759e-60
6.397956442e-61
2.746784616e-61
1.30064054e-61
6.723495978e-62
3.759602018e-62
2.255299881e-62
1.440612946e-62
9.733120562e-63
6.913205927e-63
5.133800154e-63
3.966093348e-63
3.17311415e-63
2.618339381e-63
2.220097658e-63
1.92783381e-63
1.709266142e-63
1.543188221e-63
1.415302348e-63
1.315735834e-63
1.237519961e-63
1.175635219e-63
1.126398225e-63
1.087059734e-63
1.055535885e-63
1.030225228e-63
1.009882e-63
9.935268842e-64
9.80383158e-64
9.698302735e-64
9.61369585e-64
9.545986511e-64
9.491916765e-64
9.448844109e-64
9.414623333e-64
9.387512938e-64
9.366100241e-64
9.34924089e-64
9.336009691e-64
9.325660413e-64
9.317592812e-64
9.311325531e-64
9.306473811e-64
9.302731162e-64
9.299854321e-64
9.297650924e-64
9.295969438e-64
9.294690963e-64
9.293722579e-64
9.292991979e-64
9.292443145e-64
9.292032891e-64
9.291728118e-64
9.291503635e-64
9.291340463e-64
9.291224512e-64
9.291145583e-64
9.291096626e-64
9.291073213e-64
2.252828584e-59
6.373224421e-60
2.076149708e-60
7.679267191e-61
3.183958286e-61
1.462662247e-61
7.366750507e-62
4.029294832e-62
2.372812472e-62
1.492761006e-62
9.961707923e-63
7.00645941e-63
5.163483157e-63
3.966025073e-63
3.159646153e-63
2.599503197e-63
2.199848999e-63
1.908087646e-63
1.690900358e-63
1.526550294e-63
1.400469899e-63
1.302652377e-63
1.226066146e-63
1.165666214e-63
1.11776315e-63
1.079611524e-63
1.049136047e-63
1.02474591e-63
1.005206636e-63
9.895501291e-64
9.77010456e-64
9.669772638e-64
9.589614291e-64
9.525693326e-64
9.474832954e-64
9.43446484e-64
9.402511085e-64
9.377290847e-64
9.357445695e-64
9.341879436e-64
9.3297093e-64
9.320226132e-64
9.312861845e-64
9.307162761e-64
9.302767766e-64
9.299390422e-64
9.296804352e-64
9.294831313e-64
9.293331505e-64
9.292195722e-64
9.291339005e-64
9.29069556e-64
9.290214677e-64
9.289857498e-64
9.289594461e-64
9.289403294e-64
9.289267469e-64
9.289175023e-64
9.289117686e-64
9.289090267e-64
1.269091546e-58
2.92443282e-59
7.916064344e-60
2.478741098e-60
8.852411885e-61
3.5593879e-61
1.592365228e-61
7.841376008e-62
4.208903694e-62
2.440581387e-62
1.516437781e-62
1.002142967e-62
6.996105389e-63
5.127567971e-63
3.923217931e-63
3.117609162e-63
2.56113281e-63
2.165979064e-63
1.878683771e-63
1.665592218e-63
1.504867034e-63
1.381940632e-63
1.286845279e-63
1.212600026e-63
1.154210301e-63
1.108032372e-63
1.071360558e-63
1.042153559e-63
1.018849478e-63
1.000238486e-63
9.853736108e-64
9.735071577e-64
9.64044623e-64
9.565107401e-64
9.505240538e-64
9.457775866e-64
9.420239241e-64
9.390635559e-64
9.367356552e-64
9.349107164e-64
9.334846284e-64
9.323738751e-64
9.315116325e-64
9.308445869e-64
9.303303367e-64
9.29935272e-64
9.29632846e-64
9.294021671e-64
9.292268569e-64
9.290941261e-64
9.289940288e-64
9.289188647e-64
9.288627011e-64
9.288209928e-64
9.287902827e-64
9.287679671e-64
9.28752114e-64
9.287413252e-64
9.287346343e-64
9.287314349e-64
8.809802134e-58
1.623747698e-58
3.586538339e-59
9.340982337e-60
2.825431572e-60
9.787010631e-61
3.832315623e-61
1.676259888e-61
8.100853241e-62
4.282071414e-62
2.452946041e-62
1.509857352e-62
9.908394484e-63
6.883022365e-63
5.028282642e-63
3.840018828e-63
3.049072799e-63
2.504936207e-63
2.119858276e-63
1.840709347e-63
1.634201497e-63
1.478819105e-63
1.36025505e-63
1.268745344e-63
1.197466231e-63
1.141544029e-63
1.097428304e-63
1.06248593e-63
1.034732643e-63
1.01265195e-63
9.950706681e-64
9.810718184e-64
9.69932578e-64
9.610793141e-64
9.540544436e-64
9.484916068e-64
9.440967783e-64
9.406336878e-64
9.379124219e-64
9.357804115e-64
9.341152398e-64
9.328188611e-64
9.318129275e-64
9.310349978e-64
9.304354555e-64
9.299750012e-64
9.296226135e-64
9.293538929e-64
9.291497199e-64
9.289951706e-64
9.288786437e-64
9.287911599e-64
9.287258033e-64
9.286772769e-64
9.286415526e-64
9.286155974e-64
9.285971612e-64
9.285846159e-64
9.285768364e-64
9.285731167e-64
7.59460793e-57
1.10109893e-57
1.950562149e-58
4.152698282e-59
1.045938296e-59
3.070795297e-60
1.036432693e-60
3.969719828e-61
1.704827195e-61
8.117932591e-62
4.241769243e-62
2.408839752e-62
1.473553313e-62
9.630752527e-63
6.674518824e-63
4.871384041e-63
3.720762076e-63
2.957253119e-63
2.433297224e-63
2.063263219e-63
1.795499636e-63
1.597741471e-63
1.44918295e-63
1.336013574e-63
1.248820672e-63
1.181032206e-63
1.127957402e-63
1.086180726e-63
1.053170138e-63
1.027018371e-63
1.006268577e-63
9.897945611e-64
9.767169578e-64
9.663435055e-64
9.581257293e-64
9.516269809e-64
9.464984688e-64
9.424609992e-64
9.392908695e-64
9.368088329e-64
9.348713735e-64
9.333637462e-64
9.321943896e-64
9.312904168e-64
9.305939673e-64
9.30059249e-64
9.296501397e-64
9.293382445e-64
9.291013239e-64
9.289220263e-64
9.287868682e-64
9.286854173e-64
9.286096406e-64
9.285533875e-64
9.28511982e-64
9.284819038e-64
9.284605418e-64
9.284460074e-64
9.284369951e-64
9.284326862e-64
8.173004857e-56
9.186972013e-57
1.284569826e-57
2.198606636e-58
4.534374865e-59
1.109930492e-59
3.178413813e-60
1.050290603e-60
3.953369788e-61
1.674496724e-61
7.890087395e-62
4.091658084e-62
2.312011428e-62
1.410317344e-62
9.207651279e-63
6.383450312e-63
4.665517626e-63
3.571329605e-63
2.846216129e-63
2.349076241e-63
1.998241947e-63
1.744546097e-63
1.55731546e-63
1.416786392e-63
1.309845073e-63
1.227554037e-63
1.163671762e-63
1.113741777e-63
1.074517798e-63
1.043592356e-63
1.019151596e-63
9.998100196e-64
9.844969107e-64
9.723767724e-64
9.627925647e-64
9.552244686e-64
9.492594075e-64
9.445681446e-64
9.408878082e-64
9.380083721e-64
9.357620709e-64
9.340150287e-64
9.326605853e-64
9.316139435e-64
9.308078589e-64
9.301891589e-64
9.297159303e-64
9.293552461e-64
9.290813309e-64
9.288740833e-64
9.287178893e-64
9.286006721e-64
9.285131359e-64
9.284481647e-64
9.284003501e-64
9.283656214e-64
9.283409601e-64
9.283241826e-64
9.283137804e-64
9.283088072e-64
1.100767394e-54
9.4803848e-56
1.031670877e-56
1.397688986e-57
2.322365789e-58
4.662810822e-59
1.114908319e-59
3.130151997e-60
1.017903113e-60
3.784308473e-61
1.588525561e-61
7.440436888e-62
3.845583258e-62
2.170468289e-62
1.324806989e-62
8.666762588e-63
6.026711023e-63
4.421301594e-63
3.398590349e-63
2.720529662e-63
2.255390224e-63
1.926972386e-63
1.689403472e-63
1.514054692e-63
1.382466319e-63
1.282377526e-63
1.20542223e-63
1.145750305e-63
1.099179175e-63
1.062658235e-63
1.033922667e-63
1.011264682e-63
9.933791741e-64
9.792574769e-64
9.681128057e-64
9.593269437e-64
9.524114195e-64
9.469787381e-64
9.427207111e-64
9.393918869e-64
9.367967095e-64
9.347794552e-64
9.332162702e-64
9.320088259e-64
9.31079237e-64
9.30365975e-64
9.298205782e-64
9.294050001e-64
9.290894745e-64
9.288507987e-64
9.286709571e-64
9.285360207e-64
9.284352712e-64
9.283605063e-64
9.283054933e-64
9.282655424e-64
9.282371764e-64
9.282178808e-64
9.282059183e-64
9.282001995e-64
1.854942372e-53
1.213486085e-54
1.015680185e-55
1.074096874e-56
1.416038891e-57
2.295206621e-58
4.509795949e-59
1.05912253e-59
2.931686263e-60
9.43449376e-61
3.483110963e-61
1.456446983e-61
6.813690977e-62
3.525284118e-62
1.99526099e-62
1.222906315e-62
8.040873293e-63
5.6233748e-63
4.150286433e-63
3.209801721e-63
2.5849095e-63
2.155397812e-63
1.851628407e-63
1.631604252e-63
1.469062391e-63
1.347031326e-63
1.254212563e-63
1.182878384e-63
1.127612371e-63
1.084533371e-63
1.05080488e-63
1.024317392e-63
1.0034781e-63
9.870686951e-64
9.741472396e-64
9.639791138e-64
9.559874859e-64
9.497171298e-64
9.448075279e-64
9.409725512e-64
9.379848836e-64
9.356639279e-64
9.338663174e-64
9.324784065e-64
9.31410289e-64
9.305910133e-64
9.299647429e-64
9.294876722e-64
9.291255497e-64
9.2885169e-64
9.286453821e-64
9.284906195e-64
9.283750889e-64
9.282893704e-64
9.282263082e-64
9.281805188e-64
9.281480117e-64
9.281259016e-64
9.281121954e-64
9.281056433e-64
3.898925505e-52
1.927385529e-53
1.229540081e-54
1.002839113e-55
1.034427196e-56
1.33318672e-57
2.119181027e-58
4.09863094e-59
9.511783483e-60
2.611817549e-60
8.367960694e-61
3.085607059e-61
1.292207153e-61
6.06815304e-62
3.156888915e-62
1.798893133e-62
1.110974891e-62
7.364190429e-63
5.192802449e-63
3.863947005e-63
3.01205277e-63
2.4439009e-63
2.052111178e-63
1.774265262e-63
1.572586919e-63
1.423367639e-63
1.311231324e-63
1.225905004e-63
1.160337937e-63
1.109571844e-63
1.07004299e-63
1.039139789e-63
1.014915581e-63
9.958979234e-64
9.809592231e-64
9.692271611e-64
9.60021421e-64
9.528081321e-64
9.47166459e-64
9.427636738e-64
9.393362608e-64
9.366753926e-64
9.346156321e-64
9.330260569e-64
9.318032335e-64
9.308656252e-64
9.30149124e-64
9.296034728e-64
9.291894005e-64
9.28876327e-64
9.286405299e-64
9.284636821e-64
9.283316901e-64
9.282337756e-64
9.281617528e-64
9.28109465e-64
9.280723495e-64
9.280471077e-64
9.280314615e-64
9.280239824e-64
1.016241299e-50
3.790434555e-52
1.831730073e-53
1.141130597e-54
9.096634669e-56
9.191682866e-57
1.164301405e-57
1.826083207e-58
3.499239173e-59
8.07900635e-60
2.215411713e-60
7.112284786e-61
2.635352114e-61
1.111531664e-61
5.265942904e-62
2.767056988e-62
1.593705795e-62
9.951318715e-63
6.668994903e-63
4.752998045e-63
3.572837191e-63
2.811810531e-63
2.301625409e-63
1.948249508e-63
1.69673191e-63
1.51364183e-63
1.377891015e-63
1.275735162e-63
1.197947951e-63
1.13816851e-63
1.091904983e-63
1.055916663e-63
1.027820854e-63
1.005836664e-63
9.886142136e-64
9.751182981e-64
9.645474819e-64
9.562766911e-64
9.498156888e-64
9.447784842e-64
9.408604143e-64
9.378207087e-64
9.354690508e-64
9.336551015e-64
9.322602627e-64
9.311911546e-64
9.303744296e-64
9.297526339e-64
9.292809028e-64
9.289243202e-64
9.286558131e-64
9.284544743e-64
9.283042322e-64
9.281927994e-64
9.281108465e-64
9.280513585e-64
9.280091377e-64
9.279804269e-64
9.279626319e-64
9.279541261e-64
3.256826391e-49
9.186388767e-51
3.353181659e-52
1.584247304e-53
9.659102868e-55
7.555306323e-56
7.518724661e-57
9.420609989e-58
1.468204523e-58
2.808248299e-59
6.498374889e-60
1.792447114e-60
5.80543938e-61
2.175209549e-61
9.292709203e-62
4.463916279e-62
2.379626093e-62
1.39054848e-62
8.806933439e-63
5.983111061e-63
4.319406e-63
3.285988226e-63
2.614604765e-63
2.161608475e-63
1.84614096e-63
1.620613201e-63
1.455875989e-63
1.33342247e-63
1.241116361e-63
1.170763391e-63
1.116683612e-63
1.074846167e-63
1.042330142e-63
1.016979866e-63
9.971791829e-64
9.81700228e-64
9.695999044e-64
9.601475033e-64
9.527730753e-64
9.470298875e-64
9.425666302e-64
9.391064997e-64
9.364312268e-64
9.343687306e-64
9.327834766e-64
9.315688881e-64
9.306413392e-64
9.299353819e-64
9.29399945e-64
9.289953064e-64
9.286906815e-64
9.284623075e-64
9.282919243e-64
9.281655757e-64
9.280726685e-64
9.28005239e-64
9.27957388e-64
9.279248523e-64
9.279046883e-64
9.278950505e-64
1.269319165e-47
2.723894887e-49
7.513274757e-51
2.680480665e-52
1.239816702e-53
7.4246669e-55
5.72952409e-56
5.653687084e-57
7.060912564e-58
1.102435496e-58
2.122142519e-59
4.961587058e-60
1.387128434e-60
4.564549723e-61
1.740467085e-61
7.573859386e-62
3.707204641e-62
2.013357169e-62
1.197928022e-62
7.718273903e-63
5.32841459e-63
3.904226128e-63
3.01057678e-63
2.424858937e-63
2.026689359e-63
1.747672599e-63
1.547200961e-63
1.400195736e-63
1.290610649e-63
1.207846358e-63
1.144697849e-63
1.096139837e-63
1.058586102e-63
1.029425199e-63
1.006721895e-63
9.890205022e-64
9.752123621e-64
9.644445736e-64
9.560557972e-64
9.495301859e-64
9.444636913e-64
9.40538986e-64
9.375065026e-64
9.351699023e-64
9.333748093e-64
9.319999999e-64
9.309504625e-64
9.301519067e-64
9.295464053e-64
9.290889319e-64
9.2874461e-64
9.284865297e-64
9.282940209e-64
9.281512906e-64
9.280463548e-64
9.279702067e-64
9.279161756e-64
9.278794418e-64
9.278566778e-64
9.27845798e-64
5.93707205e-46
9.78643963e-48
2.047527588e-49
5.508545525e-51
1.921952111e-52
8.731887409e-54
5.164675645e-55
3.960479242e-56
3.907579297e-57
4.908243252e-58
7.747776928e-59
1.514496509e-59
3.608224375e-60
1.030547691e-60
3.470050231e-61
1.35501457e-61
6.039270654e-62
3.026220071e-62
1.680978703e-62
1.021679715e-62
6.714330233e-63
4.720359598e-63
3.51621909e-63
2.751841261e-63
2.245852802e-63
1.89900386e-63
1.654282183e-63
1.47749e-63
1.347304797e-63
1.249961963e-63
1.176294134e-63
1.120022338e-63
1.076737017e-63
1.043272122e-63
1.017310033e-63
9.971257665e-64
9.814173433e-64
9.691907146e-64
9.596799586e-64
9.522907702e-64
9.465596377e-64
9.421238016e-64
9.386987691e-64
9.36061236e-64
9.340359479e-64
9.324854908e-64
9.313022935e-64
9.304023277e-64
9.297201258e-64
9.292048343e-64
9.288170846e-64
9.285265155e-64
9.283098147e-64
9.281491767e-64
9.280310947e-64
9.279454195e-64
9.278846363e-64
9.278433163e-64
9.278177125e-64
9.27805476e-64
3.282181072e-44
4.209688889e-46
6.727881107e-48
1.367172242e-49
3.58721084e-51
1.227849339e-52
5.51113082e-54
3.244683149e-55
2.495263361e-56
2.486206654e-57
3.173011252e-58
5.114897067e-59
1.025040135e-59
2.510591686e-60
7.383894954e-61
2.562070214e-61
1.030815157e-61
4.729932698e-62
2.436868171e-62
1.389376654e-62
8.650818477e-63
5.812038909e-63
4.168329143e-63
3.16090189e-63
2.513193361e-63
2.079787719e-63
1.780023573e-63
1.566982386e-63
1.412193439e-63
1.297714247e-63
1.211847259e-63
1.146730825e-63
1.09693568e-63
1.058620719e-63
1.029010158e-63
1.006060887e-63
9.882454451e-64
9.744069878e-64
9.636601521e-64
9.553217816e-64
9.488615075e-64
9.438657952e-64
9.400113147e-64
9.370448982e-64
9.347682463e-64
9.330261228e-64
9.316971616e-64