/*--------------------------------*- C++ -*----------------------------------*\
  =========                 |
  \\      /  F ield         | OpenFOAM: The Open Source CFD Toolbox
   \\    /   O peration     | Website:  https://openfoam.org
    \\  /    A nd           | Version:  6
     \\/     M anipulation  |
\*---------------------------------------------------------------------------*/
FoamFile
{
    version     2.0;
    format      ascii;
    class       surfaceScalarField;
    location    "0.0041";
    object      phi;
}
// * * * * * * * * * * * * * * * * * * * * * * * * * * * * * * * * * * * * * //

dimensions      [0 3 -1 0 0 0 0];

internalField   nonuniform List<scalar> 
19000
(
-1.31741332e-19
1.432310669e-20
-1.318419548e-19
1.442032978e-20
-1.320084857e-19
1.463259143e-20
-1.322445156e-19
1.494672792e-20
-1.325484013e-19
1.534641773e-20
-1.329235618e-19
1.581502245e-20
-1.333755566e-19
1.633521759e-20
-1.33908306e-19
1.688972219e-20
-1.345274564e-19
1.746088633e-20
-1.352368824e-19
1.803147446e-20
-1.360421797e-19
1.858419415e-20
-1.369472574e-19
1.910246845e-20
-1.379580175e-19
1.956990482e-20
-1.3907903e-19
1.997103857e-20
-1.403173275e-19
2.029078605e-20
-1.416790751e-19
2.051518861e-20
-1.431734397e-19
2.063086533e-20
-1.448092718e-19
2.062576052e-20
-1.465991029e-19
2.048856034e-20
-1.485559077e-19
2.020939909e-20
-1.506972021e-19
1.977924662e-20
-1.530417541e-19
1.919063329e-20
-1.556136515e-19
1.843707245e-20
-1.584389121e-19
1.751383929e-20
-1.615496095e-19
1.641735755e-20
-1.649805932e-19
1.514587319e-20
-1.687737931e-19
1.369866086e-20
-1.729749287e-19
1.207656378e-20
-1.776375714e-19
1.02811863e-20
-1.828193455e-19
8.315545954e-21
-1.885855299e-19
6.183351892e-21
-1.950050161e-19
3.889553537e-21
-2.021539539e-19
1.439223498e-21
-2.101116312e-19
-1.162394715e-21
-2.189634887e-19
-3.911318315e-21
-2.287956791e-19
-6.804705867e-21
-2.396964661e-19
-9.841956662e-21
-2.517494351e-19
-1.302432254e-20
-2.650338563e-19
-1.635598389e-20
-2.796165336e-19
-1.984362714e-20
-2.9554973e-19
-2.349698203e-20
-3.128595095e-19
-2.732702488e-20
-3.31540039e-19
-3.134445702e-20
-3.515394118e-19
-3.555549784e-20
-3.727527813e-19
-3.99576837e-20
-3.950078289e-19
-4.453236955e-20
-4.180573454e-19
-4.923615448e-20
-4.415641824e-19
-5.398797162e-20
-4.650949666e-19
-5.865510779e-20
-4.881103531e-19
-6.30371918e-20
-5.099694433e-19
-6.685462533e-20
-5.299334964e-19
-6.974408689e-20
-5.471813018e-19
-7.127249151e-20
-5.608149979e-19
-7.097855065e-20
-5.698618436e-19
-6.845803889e-20
-5.732436192e-19
-6.349471139e-20
-5.697296755e-19
-5.622245649e-20
-5.579096001e-19
-4.725561354e-20
-5.36338151e-19
-3.766502104e-20
-5.039424732e-19
-2.863360849e-20
-4.604024067e-19
-2.089633236e-20
-4.037677808e-19
-1.52340689e-20
-3.167334043e-19
-1.735098489e-20
-1.468568089e-19
-4.981060638e-20
1.718401086e-19
-9.857133811e-20
5.120519487e-19
-1.032227756e-19
-3.346285364e-20
7.097304534e-19
1.424621512e-20
-8.116922695e-20
1.648380949e-20
-1.59295223e-20
1.44672978e-20
2.145351505e-21
1.580327842e-20
9.307594953e-21
2.120006135e-20
1.243603808e-20
2.444207326e-20
1.147670365e-20
2.526655995e-20
8.98256696e-21
2.582267415e-20
6.764234096e-21
2.686175216e-20
4.836543827e-21
2.823050869e-20
2.751599576e-21
2.95139423e-20
1.960561282e-22
3.029403337e-20
-2.920712261e-21
3.022520706e-20
-6.507940965e-21
2.912836824e-20
-1.033205878e-20
2.703173885e-20
-1.409248917e-20
2.410986081e-20
-1.751414872e-20
2.060995122e-20
-2.040024821e-20
1.679268315e-20
-2.264848615e-20
1.288551333e-20
-2.424701863e-20
9.046033452e-21
-2.525538268e-20
5.35008324e-21
-2.577358337e-20
1.797070167e-21
-2.590907328e-20
-1.668078704e-21
-2.574849068e-20
-5.129917714e-21
-2.533906974e-20
-8.671945725e-21
-2.467932462e-20
-1.234918001e-20
-2.371965156e-20
-1.61602646e-20
-2.237180807e-20
-2.002920261e-20
-2.052848004e-20
-2.379810218e-20
-1.809132013e-20
-2.724326257e-20
-1.500438935e-20
-3.011050184e-20
-1.128418973e-20
-3.216526463e-20
-7.038144273e-21
-3.324891595e-20
-2.466887916e-21
-3.3353379e-20
2.152633384e-21
-3.267804752e-20
6.520577974e-21
-3.158969889e-20
1.040551791e-20
-3.052597909e-20
1.371891232e-20
-2.992223736e-20
1.65513106e-20
-2.995282958e-20
1.921148704e-20
-2.989252619e-20
2.213575772e-20
-2.762739868e-20
2.528952898e-20
-2.345250023e-20
2.683787926e-20
-2.356591931e-20
2.419677859e-20
-2.718354163e-20
1.735063338e-20
-2.653920468e-20
-7.115230914e-22
1.994099956e-20
-6.64222637e-20
-7.547999707e-19
7.234796361e-19
-8.800277383e-19
-7.083106857e-19
-7.921921296e-19
-1.903183557e-18
-5.224365072e-19
-2.68528966e-18
-1.925865344e-19
-2.813918052e-18
3.924201015e-20
-1.982280423e-18
1.962186054e-31
-1.301534909e-19
1.528938444e-20
-1.302677708e-19
1.539556805e-20
-1.304573564e-19
1.562636325e-20
-1.307263049e-19
1.596755789e-20
-1.310729964e-19
1.640131599e-20
-1.315012519e-19
1.690964934e-20
-1.320164923e-19
1.747359459e-20
-1.326229452e-19
1.807445211e-20
-1.333260086e-19
1.869288984e-20
-1.341297705e-19
1.931024161e-20
-1.350394719e-19
1.990754944e-20
-1.360591592e-19
2.046683642e-20
-1.371943107e-19
2.09700908e-20
-1.384495607e-19
2.140051988e-20
-1.398314307e-19
2.17415077e-20
-1.413460522e-19
2.197788541e-20
-1.430019747e-19
2.209487961e-20
-1.448079331e-19
2.207939362e-20
-1.467757952e-19
2.191890887e-20
-1.48918399e-19
2.160274162e-20
-1.512525584e-19
2.112092126e-20
-1.537968426e-19
2.046547542e-20
-1.565745365e-19
1.962934997e-20
-1.596114012e-19
1.860773815e-20
-1.62938755e-19
1.7396953e-20
-1.665914074e-19
1.599563952e-20
-1.70610872e-19
1.440347704e-20
-1.750431857e-19
1.262228094e-20
-1.799417727e-19
1.065470252e-20
-1.853647841e-19
8.505422398e-21
-1.913776758e-19
6.179859933e-21
-1.98050565e-19
3.685140098e-21
-2.054609449e-19
1.028300643e-21
-2.136908113e-19
-1.783322443e-21
-2.228284251e-19
-4.744262928e-21
-2.329639124e-19
-7.850588932e-21
-2.441894874e-19
-1.110197885e-20
-2.565939373e-19
-1.450148394e-20
-2.702618234e-19
-1.805796993e-20
-2.852662016e-19
-2.178622348e-20
-3.016647006e-19
-2.570921903e-20
-3.194881889e-19
-2.985732107e-20
-3.387329487e-19
-3.426902375e-20
-3.593465965e-19
-3.898823771e-20
-3.812185456e-19
-4.406249091e-20
-4.041646235e-19
-4.95364722e-20
-4.279161384e-19
-5.544458466e-20
-4.521042224e-19
-6.179688135e-20
-4.762525725e-19
-6.856283095e-20
-4.997730126e-19
-7.564922264e-20
-5.219789217e-19
-8.287934516e-20
-5.421098599e-19
-8.997382699e-20
-5.59379093e-19
-9.654767904e-20
-5.730301198e-19
-1.021357877e-19
-5.823977211e-19
-1.062741424e-19
-5.869360412e-19
-1.086534761e-19
-5.862063899e-19
-1.093516262e-19
-5.798747976e-19
-1.090713058e-19
-5.680165415e-19
-1.091273118e-19
-5.525519404e-19
-1.104970241e-19
-5.413621364e-19
-1.108302836e-19
-5.546774307e-19
-9.806373185e-20
-6.22475641e-19
-4.706905711e-20
-7.751313711e-19
2.384708392e-20
-3.743128783e-19
-2.328672258e-19
-1.102074279e-19
5.530888446e-31
2.489500689e-19
3.505764257e-19
7.948592034e-20
8.829833342e-20
3.455868334e-20
2.900103268e-20
2.162954139e-20
1.507794186e-20
1.893172158e-20
1.20088163e-20
2.024072705e-20
1.113045378e-20
2.194793677e-20
9.772788788e-21
2.304822718e-20
7.885729625e-21
2.389498405e-20
5.921075272e-21
2.477680809e-20
3.958790297e-21
2.567496539e-20
1.857718341e-21
2.63971741e-20
-5.215776271e-22
2.670680481e-20
-3.225910509e-21
2.640108947e-20
-6.197741791e-21
2.536793803e-20
-9.294702088e-21
2.361007936e-20
-1.233044873e-20
2.122376157e-20
-1.512416305e-20
1.836171341e-20
-1.753495267e-20
1.519415063e-20
-1.947866912e-20
1.18771495e-20
-2.09285629e-20
8.527832812e-21
-2.190572201e-20
5.214593205e-21
-2.246050258e-20
1.957652933e-21
-2.265266746e-20
-1.258657772e-21
-2.253240703e-20
-4.470172774e-21
-2.212779309e-20
-7.712272564e-21
-2.143746713e-20
-1.10013366e-20
-2.043143209e-20
-1.431693678e-20
-1.905754672e-20
-1.759204271e-20
-1.725553222e-20
-2.071117155e-20
-1.497490782e-20
-2.352306318e-20
-1.219589649e-20
-2.58644565e-20
-8.946559758e-21
-2.759400848e-20
-5.312759953e-21
-2.862939484e-20
-1.435700904e-21
-2.898543462e-20
2.504521626e-21
-2.879310779e-20
6.324329017e-21
-2.82763046e-20
9.884816073e-21
-2.769358107e-20
1.313236363e-20
-2.726206111e-20
1.611593678e-20
-2.702855896e-20
1.897430756e-20
-2.673875524e-20
2.184239552e-20
-2.607904857e-20
2.462655261e-20
-2.609360089e-20
2.684939008e-20
-3.041206481e-20
2.851226398e-20
-4.524569821e-20
3.218102885e-20
-9.224994586e-20
4.629043168e-20
-2.634697033e-19
1.047940748e-19
9.645824352e-20
3.635496453e-19
-1.184497255e-19
5.951065297e-31
-1.845418574e-19
-1.59572426e-18
-3.577172498e-19
-2.437500158e-18
-1.664394745e-19
-2.996721532e-18
5.39251105e-20
-2.29201445e-18
2.507713102e-31
-1.284407614e-19
1.631721333e-20
-1.285699119e-19
1.643350085e-20
-1.287843213e-19
1.668550974e-20
-1.290889866e-19
1.705735429e-20
-1.294819319e-19
1.75300581e-20
-1.299678258e-19
1.8083665e-20
-1.305515356e-19
1.869794363e-20
-1.312380418e-19
1.93521362e-20
-1.320320686e-19
2.002560525e-20
-1.329383576e-19
2.069761031e-20
-1.339613705e-19
2.13479096e-20
-1.351057316e-19
2.195648245e-20
-1.363760542e-19
2.250409683e-20
-1.377774737e-19
2.297199355e-20
-1.393155308e-19
2.334244712e-20
-1.409967437e-19
2.35984491e-20
-1.428285432e-19
2.372428224e-20
-1.448199496e-19
2.370518937e-20
-1.469816249e-19
2.352792162e-20
-1.493266278e-19
2.318037919e-20
-1.51870471e-19
2.265215798e-20
-1.546318202e-19
2.193422196e-20
-1.576325009e-19
2.101950675e-20
-1.608982657e-19
1.990260961e-20
-1.644589793e-19
1.858035346e-20
-1.683496088e-19
1.705135548e-20
-1.726104774e-19
1.53164523e-20
-1.772880522e-19
1.33781822e-20
-1.824347681e-19
1.124122964e-20
-1.88109419e-19
8.911954672e-21
-1.943769114e-19
6.398758667e-21
-2.013089249e-19
3.711274866e-21
-2.089838808e-19
8.601497711e-22
-2.174872129e-19
-2.144383812e-21
-2.269101288e-19
-5.29313365e-21
-2.373482693e-19
-8.579559753e-21
-2.488991434e-19
-1.200059975e-20
-2.616599604e-19
-1.555876622e-20
-2.757241016e-19
-1.926377013e-20
-2.911768268e-19
-2.31353592e-20
-3.080881038e-19
-2.720522857e-20
-3.265038368e-19
-3.151952462e-20
-3.464345686e-19
-3.613993504e-20
-3.678435064e-19
-4.11448912e-20
-3.906325502e-19
-4.662843312e-20
-4.146274082e-19
-5.269734739e-20
-4.395606184e-19
-5.946324824e-20
-4.650555379e-19
-6.702970295e-20
-4.906140945e-19
-7.547127915e-20
-5.156158834e-19
-8.480527426e-20
-5.393349334e-19
-9.495436358e-20
-5.609840375e-19
-1.05704429e-19
-5.797940637e-19
-1.166646591e-19
-5.951316665e-19
-1.272503288e-19
-6.066367398e-19
-1.3671929e-19
-6.143287281e-19
-1.443148508e-19
-6.185830266e-19
-1.495797385e-19
-6.198463616e-19
-1.52876123e-19
-6.180537221e-19
-1.559159448e-19
-6.128196546e-19
-1.615010856e-19
-6.074579432e-19
-1.692232183e-19
-6.261505056e-19
-1.600537275e-19
-7.55316063e-19
-5.520570121e-20
-9.386344912e-19
3.581906739e-19
-1.629846238e-18
7.728530639e-19
-2.663804473e-19
-7.848970613e-19
-1.332802367e-20
9.752773001e-20
2.01886189e-20
5.478477813e-20
2.063559252e-20
2.855704914e-20
1.85604159e-20
1.715611494e-20
1.805335899e-20
1.251895843e-20
1.888306206e-20
1.030386189e-20
2.006087765e-20
8.598188021e-21
2.108357277e-20
6.866347027e-21
2.193269907e-20
5.075559602e-21
2.267573614e-20
3.219654281e-21
2.329566941e-20
1.242040739e-21
2.369284122e-20
-9.143962381e-22
2.373497348e-20
-3.263649051e-21
2.33041292e-20
-5.762686852e-21
2.233219139e-20
-8.318642445e-21
2.081636494e-20
-1.081076042e-20
1.881297204e-20
-1.311714881e-20
1.641799695e-20
-1.513693838e-20
1.374425672e-20
-1.680254962e-20
1.089999051e-20
-1.808286207e-20
7.973052241e-21
-1.897812666e-20
5.022428185e-21
-1.950989622e-20
2.077913498e-21
-1.970833692e-20
-8.540438316e-22
-1.960066237e-20
-3.779846938e-21
-1.920211555e-20
-6.706237393e-21
-1.851150413e-20
-9.62745123e-21
-1.751111831e-20
-1.251492238e-20
-1.617170459e-20
-1.53114182e-20
-1.446126104e-20
-1.793216023e-20
-1.235699132e-20
-2.027372648e-20
-9.857582767e-21
-2.223065663e-20
-6.993317973e-21
-2.371694943e-20
-3.830387707e-21
-2.468917228e-20
-4.675012974e-22
-2.516562724e-20
2.977061993e-21
-2.523262073e-20
6.387469821e-21
-2.502875695e-20
9.677106623e-21
-2.4710008e-20
1.280968902e-20
-2.440369033e-20
1.580578987e-20
-2.416047086e-20
1.872751102e-20
-2.395459827e-20
2.16332837e-20
-2.38562111e-20
2.45251399e-20
-2.443072682e-20
2.742114641e-20
-2.674330009e-20
3.08221899e-20
-3.113629538e-20
3.657160813e-20
-3.374630189e-20
4.88974437e-20
-4.714132661e-21
7.575777349e-20
2.396580407e-19
1.191759169e-19
1.292297308e-18
-7.592877698e-19
1.546628523e-20
2.244171104e-19
-3.485807593e-19
-1.656357155e-18
-2.358486359e-19
-3.094428829e-18
5.13641102e-20
-2.665790102e-18
3.356275012e-31
-1.265910034e-19
1.740685303e-20
-1.267359409e-19
1.753485332e-20
-1.269773329e-19
1.781080854e-20
-1.273202743e-19
1.821762714e-20
-1.277633506e-19
1.873448548e-20
-1.283112275e-19
1.933989003e-20
-1.289691258e-19
2.001161916e-20
-1.297419001e-19
2.07272883e-20
-1.306345164e-19
2.146421815e-20
-1.316514737e-19
2.22000357e-20
-1.327973812e-19
2.291247333e-20
-1.340765248e-19
2.357992788e-20
-1.354935787e-19
2.418120628e-20
-1.370532356e-19
2.469606209e-20
-1.387609718e-19
2.510493023e-20
-1.406227092e-19
2.53894692e-20
-1.426456625e-19
2.553229312e-20
-1.448381146e-19
2.551750689e-20
-1.472103881e-19
2.533041371e-20
-1.497746789e-19
2.495803981e-20
-1.525460032e-19
2.438884959e-20
-1.555419587e-19
2.3613316e-20
-1.587836614e-19
2.262368892e-20
-1.622956201e-19
2.141459103e-20
-1.661069278e-19
1.998273555e-20
-1.702513682e-19
1.832742558e-20
-1.747686266e-19
1.645016878e-20
-1.797041068e-19
1.435513069e-20
-1.851096949e-19
1.204876892e-20
-1.910432989e-19
9.540292437e-21
-1.975697811e-19
6.841128311e-21
-2.047609904e-19
3.964950523e-21
-2.126969551e-19
9.26525112e-22
-2.214653735e-19
-2.25886505e-21
-2.311614494e-19
-5.577010763e-21
-2.418858409e-19
-9.015675842e-21
-2.537434879e-19
-1.256667768e-20
-2.668410956e-19
-1.622769051e-20
-2.812850725e-19
-2.000553991e-20
-2.971766546e-19
-2.391918314e-20
-3.146058457e-19
-2.800379287e-20
-3.336418436e-19
-3.231410599e-20
-3.543226286e-19
-3.692854619e-20
-3.7664157e-19
-4.195216405e-20
-4.005329126e-19
-4.751919593e-20
-4.258532352e-19
-5.379218197e-20
-4.523611728e-19
-6.095723039e-20
-4.796950898e-19
-6.921139158e-20
-5.073553822e-19
-7.87407661e-20
-5.346964243e-19
-8.968423232e-20
-5.609405946e-19
-1.02080305e-19
-5.85227027e-19
-1.157931888e-19
-6.067161412e-19
-1.304223147e-19
-6.247640257e-19
-1.452071044e-19
-6.391669177e-19
-1.589617838e-19
-6.504220089e-19
-1.701139191e-19
-6.598207658e-19
-1.770000052e-19
-6.688132265e-19
-1.786698803e-19
-6.765407861e-19
-1.765505174e-19
-6.73094709e-19
-1.766290029e-19
-6.259344765e-19
-1.899741656e-19
-4.693548955e-19
-2.223890586e-19
-2.036057221e-19
-2.430321984e-19
3.841088734e-19
-1.058052875e-19
2.884155393e-19
7.341155002e-19
-2.038935316e-19
-2.925848975e-19
-5.607097489e-20
-5.029199791e-20
-6.039110382e-21
4.75552844e-21
9.234658301e-21
1.328583472e-20
1.392325939e-20
1.247016246e-20
1.583826228e-20
1.060671219e-20
1.717738809e-20
8.967659222e-21
1.832903659e-20
7.449564089e-21
1.929278519e-20
5.905813349e-21
2.007679364e-20
4.294973494e-21
2.069812248e-20
2.602088532e-21
2.113923229e-20
8.049198017e-22
2.134358828e-20
-1.114590954e-21
2.123593552e-20
-3.151907455e-21
2.074817351e-20
-5.270915225e-21
1.984007331e-20
-7.40673839e-21
1.850997635e-20
-9.476988899e-21
1.679318245e-20
-1.13970035e-20
1.475238562e-20
-1.309318331e-20
1.246394409e-20
-1.451184278e-20
1.000472597e-20
-1.562209334e-20
7.441282642e-21
-1.641393462e-20
4.823987332e-21
-1.689236208e-20
2.185588153e-21
-1.707001621e-20
-4.554970052e-22
-1.695965987e-20
-3.089235614e-21
-1.65685918e-20
-5.705851425e-21
-1.589538736e-20
-8.288037469e-21
-1.493003661e-20
-1.080447885e-20
-1.365694552e-20
-1.320714831e-20
-1.206084412e-20
-1.543275159e-20
-1.013404387e-20
-1.740946163e-20
-7.883949923e-21
-1.90677262e-20
-5.33845751e-21
-2.035406291e-20
-2.547745291e-21
-2.124460884e-20
4.192683471e-22
-2.175521929e-20
3.483911791e-21
-2.194298381e-20
6.571524934e-21
-2.189617434e-20
9.626501112e-21
-2.171390709e-20
1.262357574e-20
-2.148196907e-20
1.557014159e-20
-2.125469792e-20
1.849689435e-20
-2.106274206e-20
2.143834924e-20
-2.096020448e-20
2.44198461e-20
-2.102968302e-20
2.748806141e-20
-2.099388192e-20
3.078401497e-20
-1.881045974e-20
3.438606624e-20
-6.885971604e-21
3.696992799e-20
3.870401006e-20
3.016491151e-20
1.81132233e-19
-2.325608935e-20
-3.140248316e-19
-2.64131921e-19
-8.10394423e-19
7.615496983e-19
-8.564121035e-19
-9.79212226e-19
-5.053636961e-19
-3.222269019e-18
1.894488122e-20
-3.140152191e-18
4.758648752e-31
-1.245907178e-19
1.855805022e-20
-1.247527182e-19
1.869933072e-20
-1.250229909e-19
1.90025904e-20
-1.254071578e-19
1.944904763e-20
-1.259040296e-19
2.001620084e-20
-1.265186834e-19
2.068053122e-20
-1.272563354e-19
2.141798298e-20
-1.281221226e-19
2.220404791e-20
-1.291208797e-19
2.301416741e-20
-1.302572756e-19
2.382383656e-20
-1.315356816e-19
2.460893582e-20
-1.329604581e-19
2.534578154e-20
-1.345359359e-19
2.601141542e-20
-1.362667595e-19
2.658362431e-20
-1.381579071e-19
2.704121767e-20
-1.402150813e-19
2.736404711e-20
-1.424448189e-19
2.753328174e-20
-1.448550096e-19
2.753142035e-20
-1.474551246e-19
2.734254579e-20
-1.502567798e-19
2.695233926e-20
-1.532739064e-19
2.634837149e-20
-1.56523242e-19
2.552016441e-20
-1.60024517e-19
2.445954157e-20
-1.63801123e-19
2.316071538e-20
-1.678805934e-19
2.162060038e-20
-1.722955059e-19
1.983883517e-20
-1.770839278e-19
1.781803815e-20
-1.82289979e-19
1.556381688e-20
-1.879638506e-19
1.308505431e-20
-1.941622482e-19
1.039387026e-20
-2.009488204e-19
7.505665617e-21
-2.083952703e-19
4.438610201e-21
-2.165820472e-19
1.213077268e-21
-2.255988099e-19
-2.149428052e-21
-2.355437173e-19
-5.627265618e-21
-2.465225662e-19
-9.200200311e-21
-2.586475273e-19
-1.285119719e-20
-2.720362076e-19
-1.656923387e-20
-2.868096385e-19
-2.035270116e-20
-3.030888588e-19
-2.421378347e-20
-3.209888009e-19
-2.818319786e-20
-3.406101808e-19
-3.231573861e-20
-3.620289507e-19
-3.669612295e-20
-3.852836873e-19
-4.144532926e-20
-4.103592957e-19
-4.672611493e-20
-4.371664574e-19
-5.274662268e-20
-4.655157488e-19
-5.975938704e-20
-4.950883236e-19
-6.805306147e-20
-5.254062326e-19
-7.793204016e-20
-5.558095025e-19
-8.96778978e-20
-5.854508527e-19
-1.034837636e-19
-6.133281475e-19
-1.193525619e-19
-6.383837157e-19
-1.369507473e-19
-6.59709672e-19
-1.554145439e-19
-6.769048764e-19
-1.731206817e-19
-6.906228638e-19
-1.87478372e-19
-7.032355661e-19
-1.949060424e-19
-7.191867133e-19
-1.914094652e-19
-7.434391211e-19
-1.74489072e-19
-7.743645212e-19
-1.474787702e-19
-7.859955981e-19
-1.253228308e-19
-7.101464706e-19
-1.406471942e-19
-3.085301403e-19
-2.502690054e-19
-8.582237714e-20
1.335339725e-30
3.350277451e-19
3.132666312e-19
3.839936675e-20
4.045566688e-21
-1.023448843e-21
-1.086696802e-20
2.491195833e-21
1.243049098e-21
8.418986102e-21
7.360253803e-21
1.205980926e-20
8.831678807e-21
1.419920934e-20
8.469862064e-21
1.565929307e-20
7.510311268e-21
1.6785286e-20
6.32648493e-21
1.768194541e-20
5.012221456e-21
1.83839088e-20
3.596302907e-21
1.890095388e-20
2.088568371e-21
1.921972166e-20
4.899093884e-22
1.930627192e-20
-1.197294701e-21
1.911692784e-20
-2.958727476e-21
1.86123505e-20
-4.762645938e-21
1.776982292e-20
-6.560659372e-21
1.658996179e-20
-8.293774111e-21
1.509700281e-20
-9.900912113e-21
1.333372625e-20
-1.132717194e-20
1.135369351e-20
-1.252959717e-20
9.212884848e-21
-1.347975083e-20
6.962855225e-21
-1.416300274e-20
4.646333123e-21
-1.457546457e-20
2.295944608e-21
-1.471952669e-20
-6.44289301e-23
-1.459936921e-20
-2.41603129e-21
-1.421727141e-20
-4.740500611e-21
-1.357161752e-20
-7.014946435e-21
-1.265680577e-20
-9.208377592e-21
-1.146526017e-20
-1.128034806e-20
-9.991005162e-21
-1.318265774e-20
-8.234203458e-21
-1.486396935e-20
-6.205427822e-21
-1.627701407e-20
-3.92857635e-21
-1.73870494e-20
-1.441162481e-21
-1.817996551e-20
1.208591207e-21
-1.86676063e-20
3.967983225e-21
-1.888800777e-20
6.788352853e-21
-1.889909977e-20
9.633937295e-21
-1.876734144e-20
1.248811287e-20
-1.855521645e-20
1.535451626e-20
-1.831324302e-20
1.825181023e-20
-1.808124547e-20
2.120358312e-20
-1.78919893e-20
2.422799515e-20
-1.773372939e-20
2.732735861e-20
-1.739183096e-20
3.04398501e-20
-1.622659811e-20
3.321879945e-20
-1.369098795e-20
3.44319586e-20
-1.471699074e-20
3.118754368e-20
-5.974359679e-20
2.176800036e-20
-3.61655813e-19
3.777964512e-20
5.838817006e-20
3.415056744e-19
-3.20886748e-19
1.554208985e-30
-2.730058822e-19
-2.853454034e-18
1.048365478e-19
-3.568690357e-18
7.433357417e-31
-1.224255778e-19
1.976936544e-20
-1.226057685e-19
1.992588292e-20
-1.229070214e-19
2.026012029e-20
-1.233352803e-19
2.075164085e-20
-1.238898677e-19
2.137590448e-20
-1.245760725e-19
2.210735018e-20
-1.253993716e-19
2.291972125e-20
-1.263649708e-19
2.378636832e-20
-1.274778393e-19
2.468048011e-20
-1.287425962e-19
2.557541047e-20
-1.301636393e-19
2.644482857e-20
-1.317451678e-19
2.726298841e-20
-1.334914184e-19
2.800482254e-20
-1.35406732e-19
2.864618637e-20
-1.374958193e-19
2.91639367e-20
-1.397638857e-19
2.953616371e-20
-1.422169939e-19
2.97422651e-20
-1.448623302e-19
2.976316774e-20
-1.477086716e-19
2.958139767e-20
-1.507666682e-19
2.918132289e-20
-1.540492444e-19
2.854927019e-20
-1.575718032e-19
2.767383597e-20
-1.613526737e-19
2.654606855e-20
-1.65413543e-19
2.515981077e-20
-1.697802209e-19
2.351186872e-20
-1.744832948e-19
2.160232281e-20
-1.795588163e-19
1.943469031e-20
-1.850485848e-19
1.701626394e-20
-1.91000482e-19
1.435829702e-20
-1.974688097e-19
1.147626945e-20
-2.045152428e-19
8.389785298e-21
-2.12209961e-19
5.122357413e-21
-2.206328413e-19
1.700764032e-21
-2.298738701e-19
-1.845646188e-21
-2.40033028e-19
-5.486015796e-21
-2.512197436e-19
-9.189274756e-21
-2.635527439e-19
-1.292625695e-20
-2.771598742e-19
-1.667259197e-20
-2.921773758e-19
-2.041271847e-20
-3.087472995e-19
-2.414468401e-20
-3.270128611e-19
-2.788601189e-20
-3.471115097e-19
-3.168051116e-20
-3.691660287e-19
-3.560646237e-20
-3.932726429e-19
-3.978577723e-20
-4.194848234e-19
-4.439369209e-20
-4.477906312e-19
-4.966737683e-20
-4.78082483e-19
-5.591154538e-20
-5.101189356e-19
-6.349757052e-20
-5.434800475e-19
-7.28509536e-20
-5.775200824e-19
-8.441846699e-20
-6.11327105e-19
-9.860258676e-20
-6.437084538e-19
-1.156468286e-19
-6.73234594e-19
-1.354518201e-19
-6.983942369e-19
-1.572977359e-19
-7.179544025e-19
-1.794476289e-19
-7.316832446e-19
-1.986162426e-19
-7.416339905e-19
-2.093422541e-19
-7.539181272e-19
-2.034857837e-19
-7.798469011e-19
-1.711144962e-19
-8.292162462e-19
-1.044670976e-19
-9.041242231e-19
-8.161397206e-21
-7.964883713e-19
1.310741651e-19
-6.592736425e-19
1.244273898e-19
-2.793051938e-19
-5.961946767e-20
2.580667921e-20
8.155617141e-21
2.348683202e-20
6.36691176e-21
1.108656832e-20
1.535009134e-21
8.608400549e-21
3.723019974e-21
9.890411105e-21
6.080163614e-21
1.169799257e-20
7.026228406e-21
1.323965849e-20
6.930577786e-21
1.447546673e-20
6.277123314e-21
1.547102255e-20
5.333726019e-21
1.626602683e-20
4.220170384e-21
1.687617426e-20
2.989271025e-21
1.73022949e-20
1.665760526e-21
1.753251756e-20
2.63163147e-22
1.754483914e-20
-1.206050562e-21
1.731300935e-20
-2.72336941e-21
1.681433709e-20
-4.26055662e-21
1.603670819e-20
-5.779771861e-21
1.498282372e-20
-7.236787555e-21
1.367074304e-20
-8.585944428e-21
1.213130102e-20
-9.785153822e-21
1.040353977e-20
-1.079972629e-20
8.529633014e-21
-1.160429227e-20
6.550393404e-21
-1.218279111e-20
4.502270914e-21
-1.252683867e-20
2.416102172e-21
-1.263319964e-20
3.176688704e-22
-1.250103363e-20
-1.77037748e-21
-1.212964529e-20
-3.825688776e-21
-1.151715169e-20
-5.82340084e-21
-1.066042157e-20
-7.734122635e-21
-9.556245391e-21
-9.523546291e-21
-8.20355234e-21
-1.11538821e-20
-6.606062402e-21
-1.258711789e-20
-4.774713947e-21
-1.378960017e-20
-2.729018656e-21
-1.473729571e-20
-4.967510233e-22
-1.542057346e-20
1.888427276e-21
-1.584723669e-20
4.391209252e-21
-1.604242333e-20
6.980120586e-21
-1.604492411e-20
9.632946924e-21
-1.590093811e-20
1.234062199e-20
-1.565792249e-20
1.51082029e-20
-1.536146998e-20
1.795242673e-20
-1.505683356e-20
2.089628635e-20
-1.479262584e-20
2.396124975e-20
-1.462123772e-20
2.715352797e-20
-1.461288178e-20
3.042921187e-20
-1.501343896e-20
3.361721075e-20
-1.69354027e-20
3.635169615e-20
-2.413653428e-20
3.838628237e-20
-4.373195204e-20
4.136166132e-20
-5.79297807e-20
5.197695725e-20
2.236319448e-19
5.994376479e-20
2.227252536e-19
2.602432632e-21
-3.938074898e-19
-1.146190003e-18
1.93060673e-19
-3.935662973e-18
1.313024982e-30
-1.200799619e-19
2.103825031e-20
-1.202795899e-19
2.121214976e-20
-1.206138758e-19
2.15816263e-20
-1.210892438e-19
2.212430461e-20
-1.21705486e-19
2.281347295e-20
-1.224682324e-19
2.362123682e-20
-1.233831618e-19
2.451898166e-20
-1.244556767e-19
2.547761456e-20
-1.256908146e-19
2.646792958e-20
-1.270932665e-19
2.746085611e-20
-1.286673808e-19
2.842773379e-20
-1.304173123e-19
2.934049241e-20
-1.323471112e-19
3.017187056e-20
-1.344609124e-19
3.089555589e-20
-1.367630533e-19
3.148637975e-20
-1.392583226e-19
3.192043558e-20
-1.419521868e-19
3.217526505e-20
-1.448511738e-19
3.222997337e-20
-1.479631885e-19
3.206542319e-20
-1.512978946e-19
3.166439249e-20
-1.548669423e-19
3.10118368e-20
-1.586842808e-19
3.009513051e-20
-1.627664613e-19
2.89044019e-20
-1.671332081e-19
2.743282041e-20
-1.718080546e-19
2.567694666e-20
-1.768191092e-19
2.363703287e-20
-1.821995782e-19
2.131741386e-20
-1.879881708e-19
1.872687176e-20
-1.942293539e-19
1.587906196e-20
-2.00973997e-19
1.279277622e-20
-2.082804152e-19
9.492082073e-21
-2.162158624e-19
6.006159702e-21
-2.248577778e-19
2.368999833e-21
-2.342945446e-19
-1.3811228e-21
-2.446256471e-19
-5.202352965e-21
-2.559619459e-19
-9.050484458e-21
-2.684263863e-19
-1.28809237e-20
-2.821550648e-19
-1.665170177e-20
-2.972976101e-19
-2.032749914e-20
-3.140161063e-19
-2.388478067e-20
-3.324820859e-19
-2.731812129e-20
-3.528718801e-19
-3.064817027e-20
-3.753600065e-19
-3.393156082e-20
-4.001095856e-19
-3.727295023e-20
-4.272575235e-19
-4.083876334e-20
-4.568919768e-19
-4.487177987e-20
-4.890195178e-19
-4.970499322e-20
-5.235197946e-19
-5.577195751e-20
-5.60085607e-19
-6.360843012e-20
-5.981477346e-19
-7.383604894e-20
-6.367885212e-19
-8.711372784e-20
-6.746559617e-19
-1.04035963e-19
-7.099002691e-19
-1.249498274e-19
-7.401725503e-19
-1.496534674e-19
-7.627690689e-19
-1.769285742e-19
-7.750966407e-19
-2.03827626e-19
-7.757109409e-19
-2.245104928e-19
-7.665535013e-19
-2.283531778e-19
-7.548442624e-19
-1.964638933e-19
-7.46392387e-19
-1.000883442e-19
-7.600720337e-19
7.290702608e-20
-2.949361059e-19
2.5281999e-20
1.937552478e-19
6.94090181e-31
4.184462223e-20
9.229109558e-20
2.401797368e-20
2.598291072e-20
1.865492928e-20
1.173112468e-20
1.327457911e-20
6.91679003e-21
1.09655441e-20
6.033625738e-21
1.083647583e-20
6.210972364e-21
1.160234192e-20
6.262345603e-21
1.25862039e-20
5.94898512e-21
1.353206936e-20
5.333778994e-21
1.435746685e-20
4.511036839e-21
1.503512736e-20
3.545350465e-21
1.555266367e-20
2.474702302e-21
1.589969742e-20
1.321827128e-21
1.606330376e-20
1.027796563e-22
1.60275202e-20
-1.166987356e-21
1.577582202e-20
-2.468418821e-21
1.529512178e-20
-3.776710478e-21
1.457969241e-20
-5.061334579e-21
1.363366672e-20
-6.287908877e-21
1.247153362e-20
-7.42114307e-21
1.111672849e-20
-8.427952664e-21
9.598973658e-21
-9.279961182e-21
7.951134202e-21
-9.954927662e-21
6.206345808e-21
-1.043697953e-20
4.395909834e-21
-1.071583068e-20
2.548268251e-21
-1.078535486e-20
6.89057205e-22
-1.064197131e-20
-1.157883941e-21
-1.028324757e-20
-2.968958579e-21
-9.707065763e-21
-4.719224631e-21
-8.911529748e-21
-6.381429594e-21
-7.895659673e-21
-7.926056256e-21
-6.660675525e-21
-9.322533599e-21
-5.211520459e-21
-1.054142256e-20
-3.558116512e-21
-1.155733245e-20
-1.715886044e-21
-1.235211734e-20
2.948588407e-22
-1.291779138e-20
2.450774807e-21
-1.32583253e-20
4.728474364e-21
-1.338959692e-20
7.108170977e-21
-1.333724889e-20
9.577315925e-21
-1.31333572e-20
1.213340879e-20
-1.281369859e-20
1.478539662e-20
-1.241761017e-20
1.755349619e-20
-1.199187021e-20
2.046791749e-20
-1.160034756e-20
2.356716769e-20
-1.134555356e-20
2.689627246e-20
-1.142488303e-20
3.050623164e-20
-1.227895349e-20
3.446909364e-20
-1.490081616e-20
3.897137468e-20
-2.116115543e-20
4.464446022e-20
-3.311665594e-20
5.331576931e-20
-4.99629725e-20
6.88225247e-20
-8.708411271e-20
9.706619499e-20
-2.559771472e-19
1.714961427e-19
-6.897738322e-19
1.20676988e-30
2.725472806e-19
-4.35989209e-18
1.069547347e-30
-1.175371226e-19
2.236061244e-20
-1.17757402e-19
2.255440469e-20
-1.181268506e-19
2.296394304e-20
-1.186523765e-19
2.356474412e-20
-1.193343435e-19
2.432764442e-20
-1.201787262e-19
2.522218183e-20
-1.211914872e-19
2.621708483e-20
-1.22378214e-19
2.728058892e-20
-1.237440911e-19
2.83808058e-20
-1.252938655e-19
2.948604648e-20
-1.27031911e-19
3.056507175e-20
-1.289623078e-19
3.158733995e-20
-1.310889854e-19
3.252318174e-20
-1.334158345e-19
3.334399401e-20
-1.359468794e-19
3.402237853e-20
-1.38686448e-19
3.453230468e-20
-1.416394542e-19
3.484923639e-20
-1.448116924e-19
3.495030098e-20
-1.482101876e-19
3.481444517e-20
-1.518434676e-19
3.442266434e-20
-1.557218091e-19
3.375825379e-20
-1.598574559e-19
3.280713081e-20
-1.642649606e-19
3.155817386e-20
-1.689616804e-19
3.000361036e-20
-1.7396845e-19
2.8139399e-20
-1.793102422e-19
2.596567955e-20
-1.850167e-19
2.348724613e-20
-1.911224627e-19
2.071409546e-20
-1.976675457e-19
1.766195118e-20
-2.046980556e-19
1.435272557e-20
-2.122674735e-19
1.081479077e-20
-2.204382277e-19
7.083103834e-21
-2.292831218e-19
3.199179235e-21
-2.388862386e-19
-7.890281984e-22
-2.493435867e-19
-4.827504859e-21
-2.607640786e-19
-8.857064371e-21
-2.732712867e-19
-1.281508298e-20
-2.870056157e-19
-1.663822277e-20
-3.021260232e-19
-2.026622e-20
-3.188105321e-19
-2.364678395e-20
-3.372554641e-19
-2.674197046e-20
-3.57673631e-19
-2.953659077e-20
-3.802911785e-19
-3.20492945e-20
-4.053416669e-19
-3.434673932e-20
-4.330548812e-19
-3.656091606e-20
-4.636373483e-19
-3.890950054e-20
-4.972409492e-19
-4.171865934e-20
-5.33915233e-19
-4.544690736e-20
-5.735374378e-19
-5.070607251e-20
-6.15714411e-19
-5.827145026e-20
-6.596531624e-19