/*--------------------------------*- C++ -*----------------------------------*\
  =========                 |
  \\      /  F ield         | OpenFOAM: The Open Source CFD Toolbox
   \\    /   O peration     | Website:  https://openfoam.org
    \\  /    A nd           | Version:  6
     \\/     M anipulation  |
\*---------------------------------------------------------------------------*/
FoamFile
{
    version     2.0;
    format      ascii;
    class       volVectorField;
    location    "0.0041";
    object      U;
}
// * * * * * * * * * * * * * * * * * * * * * * * * * * * * * * * * * * * * * //

dimensions      [0 1 -1 0 0 0 0];

internalField   nonuniform List<vector> 
9600
(
(0 -7.903216182e-11 8.313175798e-12)
(0 -7.905695907e-11 8.368934753e-12)
(0 -7.914396295e-11 8.491096953e-12)
(0 -7.92660607e-11 8.671891891e-12)
(0 -7.942746837e-11 8.902167418e-12)
(0 -7.963049005e-11 9.172132854e-12)
(0 -7.987793421e-11 9.472063926e-12)
(0 -8.01726453e-11 9.79180123e-12)
(0 -8.05175056e-11 1.012143949e-11)
(0 -8.091537382e-11 1.045084401e-11)
(0 -8.136908191e-11 1.077032486e-11)
(0 -8.188146317e-11 1.107012763e-11)
(0 -8.24554332e-11 1.134109117e-11)
(0 -8.309410099e-11 1.157411011e-11)
(0 -8.380091048e-11 1.176078833e-11)
(0 -8.457978238e-11 1.189289041e-11)
(0 -8.543527241e-11 1.196300578e-11)
(0 -8.637273588e-11 1.196398958e-11)
(0 -8.739852924e-11 1.18896169e-11)
(0 -8.85202429e-11 1.173399267e-11)
(0 -8.974696227e-11 1.149219366e-11)
(0 -9.108951613e-11 1.115967624e-11)
(0 -9.256070694e-11 1.07329457e-11)
(0 -9.417551005e-11 1.020898248e-11)
(0 -9.595128651e-11 9.585906187e-12)
(0 -9.790803835e-11 8.862337428e-12)
(0 -1.000687256e-10 8.037968697e-12)
(0 -1.024595894e-10 7.112840507e-12)
(0 -1.051103953e-10 6.087900739e-12)
(0 -1.080545109e-10 4.964335615e-12)
(0 -1.113288302e-10 3.744196606e-12)
(0 -1.1497363e-10 2.429697189e-12)
(0 -1.190324609e-10 1.023660218e-12)
(0 -1.235520435e-10 -4.714417063e-13)
(0 -1.285819771e-10 -2.053199567e-12)
(0 -1.341740288e-10 -3.720169972e-12)
(0 -1.403809082e-10 -5.471347545e-12)
(0 -1.472546402e-10 -7.306808767e-12)
(0 -1.548446673e-10 -9.227030755e-12)
(0 -1.631955822e-10 -1.123338043e-11)
(0 -1.723441236e-10 -1.332701143e-11)
(0 -1.82315058e-10 -1.550845386e-11)
(0 -1.931159112e-10 -1.7775173e-11)
(0 -2.047309221e-10 -2.011956833e-11)
(0 -2.171146876e-10 -2.252483349e-11)
(0 -2.301857409e-10 -2.496104586e-11)
(0 -2.438199402e-10 -2.737876562e-11)
(0 -2.578435768e-10 -2.970252757e-11)
(0 -2.720266651e-10 -3.182211022e-11)
(0 -2.860777701e-10 -3.358525257e-11)
(0 -2.996421722e-10 -3.479156064e-11)
(0 -3.123043756e-10 -3.519336483e-11)
(0 -3.235943633e-10 -3.450550884e-11)
(0 -3.32995167e-10 -3.243232754e-11)
(0 -3.39946961e-10 -2.871460631e-11)
(0 -3.43839575e-10 -2.319931649e-11)
(0 -3.439863106e-10 -1.591877314e-11)
(0 -3.395891555e-10 -7.155761821e-12)
(0 -3.297494881e-10 2.544956852e-12)
(0 -3.13637488e-10 1.242339159e-11)
(0 -2.909051064e-10 2.144649401e-11)
(0 -2.616737437e-10 2.761879658e-11)
(0 -2.228427808e-10 2.618824289e-11)
(0 -1.517902609e-10 8.497178181e-12)
(0 1.852068406e-11 -1.769486132e-11)
(0 3.8908659e-10 1.270082656e-11)
(0 -1.003885613e-11 2.129191356e-10)
(0 -5.764991578e-12 -3.438962443e-11)
(0 9.219007419e-12 -8.888172304e-12)
(0 9.285332224e-12 6.805594545e-13)
(0 9.081172903e-12 5.983647344e-12)
(0 1.110100198e-11 9.07903661e-12)
(0 1.369264044e-11 7.857148753e-12)
(0 1.491259002e-11 5.635339637e-12)
(0 1.532677029e-11 4.223790426e-12)
(0 1.580532796e-11 3.211843284e-12)
(0 1.652767832e-11 2.059701724e-12)
(0 1.732333537e-11 5.006147443e-13)
(0 1.794239277e-11 -1.520378921e-12)
(0 1.81557722e-11 -3.927471191e-12)
(0 1.780607266e-11 -6.530245408e-12)
(0 1.68480322e-11 -9.08649212e-12)
(0 1.534247996e-11 -1.138679638e-11)
(0 1.341594366e-11 -1.329165674e-11)
(0 1.122079036e-11 -1.473528443e-11)
(0 8.903458979e-12 -1.572100428e-11)
(0 6.57946406e-12 -1.630516349e-11)
(0 4.318835025e-12 -1.657281057e-11)
(0 2.144146031e-12 -1.661103261e-11)
(0 3.869743903e-14 -1.648850815e-11)
(0 -2.039398934e-12 -1.624184871e-11)
(0 -4.140559048e-12 -1.587010321e-11)
(0 -6.306337745e-12 -1.533463005e-11)
(0 -8.552833416e-12 -1.456597295e-11)
(0 -1.085684021e-11 -1.347700233e-11)
(0 -1.314819149e-11 -1.19844427e-11)
(0 -1.531240948e-11 -1.003478686e-11)
(0 -1.720612939e-11 -7.62907575e-12)
(0 -1.868273001e-11 -4.8374261e-12)
(0 -1.962425425e-11 -1.803244561e-12)
(0 -1.998068856e-11 1.262259607e-12)
(0 -1.980942804e-11 4.116829025e-12)
(0 -1.9280324e-11 6.571621793e-12)
(0 -1.863470347e-11 8.552151532e-12)
(0 -1.813446501e-11 1.01135634e-11)
(0 -1.796252016e-11 1.151937964e-11)
(0 -1.79536068e-11 1.330115382e-11)
(0 -1.725597753e-11 1.585486815e-11)
(0 -1.532396973e-11 1.735656459e-11)
(0 -1.410552592e-11 1.448608593e-11)
(0 -1.522483834e-11 9.326276775e-12)
(0 -1.611682396e-11 -2.323069314e-13)
(0 -1.979461544e-12 -2.590897908e-11)
(0 5.982299893e-12 2.170438904e-10)
(0 -6.872444982e-10 -6.681222107e-10)
(0 -5.635820648e-10 -1.256523962e-09)
(0 -4.156589687e-10 -1.609463272e-09)
(0 -2.142994842e-10 -1.608354562e-09)
(0 9.808216138e-12 -1.101354759e-09)
(0 1.663989642e-11 1.04261059e-22)
(0 -7.807670455e-11 8.874591507e-12)
(0 -7.810705367e-11 8.935421915e-12)
(0 -7.820494138e-11 9.067994226e-12)
(0 -7.834377393e-11 9.264059081e-12)
(0 -7.852787179e-11 9.513437484e-12)
(0 -7.875964408e-11 9.805707172e-12)
(0 -7.904197791e-11 1.013005283e-11)
(0 -7.937776873e-11 1.047564661e-11)
(0 -7.976991695e-11 1.083146573e-11)
(0 -8.022126962e-11 1.118670529e-11)
(0 -8.073461587e-11 1.153056246e-11)
(0 -8.131272278e-11 1.185263457e-11)
(0 -8.195842032e-11 1.214267216e-11)
(0 -8.267471037e-11 1.239095914e-11)
(0 -8.346490396e-11 1.258805528e-11)
(0 -8.433275815e-11 1.272518038e-11)
(0 -8.528263211e-11 1.279395596e-11)
(0 -8.631965896e-11 1.278679052e-11)
(0 -8.744996037e-11 1.269659959e-11)
(0 -8.868088675e-11 1.2517168e-11)
(0 -9.002127444e-11 1.224285537e-11)
(0 -9.148168263e-11 1.186897185e-11)
(0 -9.307461091e-11 1.139150848e-11)
(0 -9.481470877e-11 1.080753946e-11)
(0 -9.671902356e-11 1.011492996e-11)
(0 -9.880731071e-11 9.312667244e-12)
(0 -1.011023923e-10 8.400462361e-12)
(0 -1.036304835e-10 7.379006591e-12)
(0 -1.064214027e-10 6.24956946e-12)
(0 -1.095086211e-10 5.014316868e-12)
(0 -1.129292195e-10 3.675941159e-12)
(0 -1.167238652e-10 2.237878085e-12)
(0 -1.209368592e-10 7.036644577e-13)
(0 -1.256161348e-10 -9.231739505e-13)
(0 -1.308129593e-10 -2.639973154e-12)
(0 -1.365811437e-10 -4.445033844e-12)
(0 -1.429757712e-10 -6.338339525e-12)
(0 -1.500516101e-10 -8.321602231e-12)
(0 -1.57861274e-10 -1.039907823e-11)
(0 -1.664528829e-10 -1.257769971e-11)
(0 -1.75866765e-10 -1.486766398e-11)
(0 -1.861308705e-10 -1.728186246e-11)
(0 -1.972549611e-10 -1.983537694e-11)
(0 -2.09223973e-10 -2.254359412e-11)
(0 -2.219909098e-10 -2.542012944e-11)
(0 -2.354693562e-10 -2.847283246e-11)
(0 -2.495254871e-10 -3.16987281e-11)
(0 -2.639697941e-10 -3.507618873e-11)
(0 -2.785496827e-10 -3.855581877e-11)
(0 -2.929452853e-10 -4.204969746e-11)
(0 -3.067714763e-10 -4.542233507e-11)
(0 -3.195887983e-10 -4.848539595e-11)
(0 -3.30925188e-10 -5.100327372e-11)
(0 -3.403084653e-10 -5.271695094e-11)
(0 -3.473045203e-10 -5.339770629e-11)
(0 -3.515477626e-10 -5.293524006e-11)
(0 -3.527456679e-10 -5.145255648e-11)
(0 -3.506554208e-10 -4.940138208e-11)
(0 -3.45109764e-10 -4.752452866e-11)
(0 -3.364149921e-10 -4.648906126e-11)
(0 -3.269207031e-10 -4.607783371e-11)
(0 -3.247563459e-10 -4.441715585e-11)
(0 -3.489296011e-10 -4.022680578e-11)
(0 -4.147332571e-10 -4.640697878e-11)
(0 -4.696913256e-10 -6.768217753e-11)
(0 -3.30622283e-11 1.453858654e-21)
(0 4.162279222e-11 3.180920631e-10)
(0 9.853079657e-11 2.13873195e-12)
(0 3.421338104e-11 3.921453104e-12)
(0 1.685646739e-11 5.166988e-12)
(0 1.216837887e-11 6.394923402e-12)
(0 1.175173457e-11 7.069947544e-12)
(0 1.265659912e-11 6.374847718e-12)
(0 1.349884916e-11 5.060488996e-12)
(0 1.408296334e-11 3.805592803e-12)
(0 1.460153761e-11 2.638600232e-12)
(0 1.513553201e-11 1.382795381e-12)
(0 1.562164182e-11 -9.765644949e-14)
(0 1.593119364e-11 -1.843986828e-12)
(0 1.593236825e-11 -3.811704842e-12)
(0 1.553070822e-11 -5.888028248e-12)
(0 1.469340519e-11 -7.926881355e-12)
(0 1.345015225e-11 -9.791493572e-12)
(0 1.187564247e-11 -1.138056024e-11)
(0 1.006675919e-11 -1.263814656e-11)
(0 8.121390023e-12 -1.355267451e-11)
(0 6.121494682e-12 -1.414833138e-11)
(0 4.122727797e-12 -1.447022576e-11)
(0 2.151673837e-12 -1.456852228e-11)
(0 2.096985477e-13 -1.448426929e-11)
(0 -1.718649161e-12 -1.424005882e-11)
(0 -3.654733594e-12 -1.383503758e-11)
(0 -5.614082739e-12 -1.324532507e-11)
(0 -7.595482e-12 -1.242880641e-11)
(0 -9.572693827e-12 -1.133520372e-11)
(0 -1.149096425e-11 -9.919868365e-12)
(0 -1.327027039e-11 -8.160085737e-12)
(0 -1.481625587e-11 -6.06922487e-12)
(0 -1.603753946e-11 -3.70527126e-12)
(0 -1.686702096e-11 -1.170776644e-12)
(0 -1.72844488e-11 1.397146509e-12)
(0 -1.733356269e-11 3.853472089e-12)
(0 -1.712082368e-11 6.087100183e-12)
(0 -1.679096567e-11 8.055382817e-12)
(0 -1.648669262e-11 9.800174194e-12)
(0 -1.628718599e-11 1.145573836e-11)
(0 -1.613019423e-11 1.319344602e-11)
(0 -1.584534111e-11 1.497482445e-11)
(0 -1.565179481e-11 1.610618077e-11)
(0 -1.695169968e-11 1.581271283e-11)
(0 -2.269732886e-11 1.485949864e-11)
(0 -4.124869314e-11 1.367367255e-11)
(0 -1.067158945e-10 1.151154339e-11)
(0 -5.010343784e-11 3.261087838e-10)
(0 2.8937473e-11 1.615589708e-21)
(0 -7.3653225e-11 -1.011942005e-09)
(0 -2.263888475e-10 -1.595625902e-09)
(0 -1.816814747e-10 -1.768621627e-09)
(0 1.927317611e-11 -1.285221372e-09)
(0 1.943112781e-11 1.309174034e-22)
(0 -7.704612555e-11 9.472700429e-12)
(0 -7.708247555e-11 9.53924337e-12)
(0 -7.7192126e-11 9.683683441e-12)
(0 -7.734905726e-11 9.897012686e-12)
(0 -7.755771531e-11 1.016820026e-11)
(0 -7.782063277e-11 1.048588835e-11)
(0 -7.814078444e-11 1.083833354e-11)
(0 -7.852112546e-11 1.121372557e-11)
(0 -7.896458025e-11 1.160008867e-11)
(0 -7.947398869e-11 1.198562815e-11)
(0 -8.005210182e-11 1.235859872e-11)
(0 -8.070162538e-11 1.27076272e-11)
(0 -8.142530435e-11 1.302155375e-11)
(0 -8.222603217e-11 1.328973696e-11)
(0 -8.310697774e-11 1.350188472e-11)
(0 -8.407171949e-11 1.364836578e-11)
(0 -8.512439622e-11 1.372004115e-11)
(0 -8.626988899e-11 1.370857396e-11)
(0 -8.75140431e-11 1.360624011e-11)
(0 -8.886391465e-11 1.340622112e-11)
(0 -9.032801856e-11 1.310240595e-11)
(0 -9.191655335e-11 1.268970388e-11)
(0 -9.364160676e-11 1.216387481e-11)
(0 -9.551737951e-11 1.152186024e-11)
(0 -9.756047067e-11 1.076158715e-11)
(0 -9.979023993e-11 9.882225166e-12)
(0 -1.022291993e-10 8.883894785e-12)
(0 -1.049033388e-10 7.767865676e-12)
(0 -1.078423061e-10 6.536269873e-12)
(0 -1.110794508e-10 5.192343064e-12)
(0 -1.146518491e-10 3.740118526e-12)
(0 -1.186004347e-10 2.184495947e-12)
(0 -1.229702285e-10 5.306033803e-13)
(0 -1.278104604e-10 -1.216498928e-12)
(0 -1.331743033e-10 -3.052694832e-12)
(0 -1.39118085e-10 -4.97517653e-12)
(0 -1.457000918e-10 -6.983348362e-12)
(0 -1.529791666e-10 -9.079362899e-12)
(0 -1.610130757e-10 -1.126937226e-11)
(0 -1.698562613e-10 -1.356438701e-11)
(0 -1.795564573e-10 -1.598155008e-11)
(0 -1.901498938e-10 -1.854460311e-11)
(0 -2.016552251e-10 -2.128443084e-11)
(0 -2.140665224e-10 -2.423853123e-11)
(0 -2.273455035e-10 -2.745009291e-11)
(0 -2.414128751e-10 -3.09650797e-11)
(0 -2.561386266e-10 -3.482752941e-11)
(0 -2.71331727e-10 -3.907133254e-11)
(0 -2.867309297e-10 -4.370906616e-11)
(0 -3.019998189e-10 -4.87170281e-11)
(0 -3.167303109e-10 -5.401841442e-11)
(0 -3.30459644e-10 -5.946628136e-11)
(0 -3.427066021e-10 -6.483339381e-11)
(0 -3.53031361e-10 -6.981925387e-11)
(0 -3.611161701e-10 -7.409208657e-11)
(0 -3.668485087e-10 -7.738468768e-11)
(0 -3.703631306e-10 -7.965781135e-11)
(0 -3.719654584e-10 -8.12968103e-11)
(0 -3.71856287e-10 -8.315916434e-11)
(0 -3.69791859e-10 -8.593176122e-11)
(0 -3.656419158e-10 -8.74194467e-11)
(0 -3.649064167e-10 -7.552398978e-11)
(0 -4.033122514e-10 -1.63109623e-11)
(0 -5.784814225e-10 1.420985858e-10)
(0 -1.250944177e-09 4.104893874e-10)
(0 -7.991413402e-11 -2.354691184e-10)
(0 -8.391254111e-11 1.344312465e-10)
(0 2.058178566e-12 4.292493363e-11)
(0 1.22472634e-11 1.726742451e-11)
(0 1.17588025e-11 9.670217021e-12)
(0 1.098413244e-11 7.35833245e-12)
(0 1.108092629e-11 6.430294689e-12)
(0 1.168318189e-11 5.511293032e-12)
(0 1.23433351e-11 4.425623013e-12)
(0 1.290488153e-11 3.298990455e-12)
(0 1.338253054e-11 2.153533369e-12)
(0 1.379142164e-11 9.299277276e-13)
(0 1.409655316e-11 -4.307921587e-13)
(0 1.422834438e-11 -1.946867864e-12)
(0 1.411173078e-11 -3.588128607e-12)
(0 1.369089615e-11 -5.28400335e-12)
(0 1.294456687e-11 -6.942362731e-12)
(0 1.188880107e-11 -8.472393593e-12)
(0 1.056929068e-11 -9.801567294e-12)
(0 9.048676084e-12 -1.08843656e-11)
(0 7.393274156e-12 -1.170342754e-11)
(0 5.661912815e-12 -1.226515458e-11)
(0 3.89864412e-12 -1.259111961e-11)
(0 2.130102501e-12 -1.270830137e-11)
(0 3.671608993e-13 -1.26399208e-11)
(0 -1.390167228e-12 -1.239897257e-11)
(0 -3.145825293e-12 -1.198469143e-11)
(0 -4.900106577e-12 -1.13827651e-11)
(0 -6.642712069e-12 -1.056877537e-11)
(0 -8.347902155e-12 -9.515038016e-12)
(0 -9.973073506e-12 -8.199569725e-12)
(0 -1.146176599e-11 -6.616043765e-12)
(0 -1.275131491e-11 -4.781963338e-12)
(0 -1.378428179e-11 -2.742944292e-12)
(0 -1.452183648e-11 -5.709606592e-13)
(0 -1.495643982e-11 1.644475092e-12)
(0 -1.511947436e-11 3.813539644e-12)
(0 -1.507841327e-11 5.868576797e-12)
(0 -1.492162945e-11 7.782615827e-12)
(0 -1.473410947e-11 9.576517977e-12)
(0 -1.456924833e-11 1.131054555e-11)
(0 -1.443452071e-11 1.304270382e-11)
(0 -1.434324278e-11 1.474550772e-11)
(0 -1.448608135e-11 1.628116091e-11)
(0 -1.535220804e-11 1.780033623e-11)
(0 -1.736387861e-11 2.062579105e-11)
(0 -1.946477914e-11 2.855636256e-11)
(0 -1.153813034e-11 5.416555472e-11)
(0 7.048317227e-11 1.448176684e-10)
(0 7.189741207e-11 -2.277863305e-10)
(0 8.367248578e-10 -2.559766791e-10)
(0 -8.974247851e-11 -1.268464669e-09)
(0 -2.281750432e-10 -1.836189393e-09)
(0 -2.734965696e-12 -1.480306975e-09)
(0 2.343267139e-11 1.701702343e-22)
(0 -7.593302645e-11 1.010793208e-11)
(0 -7.597584294e-11 1.018099182e-11)
(0 -7.60981694e-11 1.033892287e-11)
(0 -7.627460768e-11 1.057186176e-11)
(0 -7.650975189e-11 1.086787917e-11)
(0 -7.680627763e-11 1.121457393e-11)
(0 -7.716726323e-11 1.159922264e-11)
(0 -7.759573263e-11 1.200891772e-11)
(0 -7.809464417e-11 1.243067644e-11)
(0 -7.866683708e-11 1.285159998e-11)
(0 -7.931503286e-11 1.325894701e-11)
(0 -8.004188041e-11 1.364026385e-11)
(0 -8.085004215e-11 1.398343258e-11)
(0 -8.174229893e-11 1.427678315e-11)
(0 -8.272166851e-11 1.450913494e-11)
(0 -8.379153177e-11 1.466991297e-11)
(0 -8.495578273e-11 1.474919135e-11)
(0 -8.621901568e-11 1.473780286e-11)
(0 -8.758675308e-11 1.462736786e-11)
(0 -8.906569275e-11 1.441039156e-11)
(0 -9.066394448e-11 1.408029341e-11)
(0 -9.23912386e-11 1.36315292e-11)
(0 -9.425912605e-11 1.305965211e-11)
(0 -9.628121456e-11 1.236144666e-11)
(0 -9.847349011e-11 1.153496251e-11)
(0 -1.008547214e-10 1.057958113e-11)
(0 -1.034468742e-10 9.49597452e-12)
(0 -1.062754287e-10 8.286133385e-12)
(0 -1.093695412e-10 6.953336749e-12)
(0 -1.127621069e-10 5.502195896e-12)
(0 -1.16489885e-10 3.93854919e-12)
(0 -1.205938063e-10 2.269270612e-12)
(0 -1.251193918e-10 5.017965317e-13)
(0 -1.301170086e-10 -1.35643722e-12)
(0 -1.356416774e-10 -3.298724812e-12)
(0 -1.417523781e-10 -5.319806266e-12)
(0 -1.485110576e-10 -7.416803048e-12)
(0 -1.559815567e-10 -9.590351991e-12)
(0 -1.642283332e-10 -1.1846146e-11)
(0 -1.733144854e-10 -1.419664361e-11)
(0 -1.83298523e-10 -1.666292489e-11)
(0 -1.942296656e-10 -1.927639346e-11)
(0 -2.06141826e-10 -2.208036951e-11)
(0 -2.190464952e-10 -2.513123191e-11)
(0 -2.329244442e-10 -2.849880167e-11)
(0 -2.477158425e-10 -3.226501637e-11)
(0 -2.63308477e-10 -3.651995108e-11)
(0 -2.795245403e-10 -4.135381001e-11)
(0 -2.961078246e-10 -4.684376567e-11)
(0 -3.127147335e-10 -5.303421486e-11)
(0 -3.289142293e-10 -5.990956553e-11)
(0 -3.442042444e-10 -6.73598491e-11)
(0 -3.580550944e-10 -7.514353422e-11)
(0 -3.699915923e-10 -8.285836802e-11)
(0 -3.797210558e-10 -8.994240894e-11)
(0 -3.872986434e-10 -9.574571953e-11)
(0 -3.932760875e-10 -9.973904161e-11)
(0 -3.986578317e-10 -1.019356494e-10)
(0 -4.04218313e-10 -1.035269913e-10)
(0 -4.080560359e-10 -1.072857721e-10)
(0 -3.993038196e-10 -1.159268931e-10)
(0 -3.455217854e-10 -1.242749947e-10)
(0 -1.83047628e-10 -9.866468492e-11)
(0 2.00010947e-10 3.276284147e-11)
(0 8.652466214e-11 2.202346501e-10)
(0 2.53566024e-11 -3.232445876e-10)
(0 -7.798935227e-11 1.41707196e-11)
(0 -1.863302566e-11 1.786209204e-11)
(0 9.586643795e-13 1.255286513e-11)
(0 6.947375334e-12 8.887883202e-12)
(0 8.928456534e-12 6.937701216e-12)
(0 9.90469515e-12 5.781456322e-12)
(0 1.065192745e-11 4.814325623e-12)
(0 1.128654658e-11 3.831648128e-12)
(0 1.181087369e-11 2.811159923e-12)
(0 1.223247488e-11 1.74652284e-12)
(0 1.255120648e-11 6.140881646e-13)
(0 1.274484622e-11 -6.086961565e-13)
(0 1.277385719e-11 -1.924666948e-12)
(0 1.259523276e-11 -3.310080636e-12)
(0 1.21764741e-11 -4.717614241e-12)
(0 1.150501494e-11 -6.086324783e-12)
(0 1.059094768e-11 -7.354245724e-12)
(0 9.46367046e-12 -8.469036489e-12)
(0 8.164898948e-12 -9.3943177e-12)
(0 6.740601046e-12 -1.011148666e-11)
(0 5.233802604e-12 -1.061761836e-11)
(0 3.679581007e-12 -1.092067747e-11)
(0 2.102872654e-12 -1.103350598e-11)
(0 5.190273464e-13 -1.096809665e-11)
(0 -1.06341979e-12 -1.073121218e-11)
(0 -2.638526122e-12 -1.032206749e-11)
(0 -4.198166685e-12 -9.732346454e-12)
(0 -5.727754918e-12 -8.948595015e-12)
(0 -7.203488176e-12 -7.956631581e-12)
(0 -8.591970003e-12 -6.747310543e-12)
(0 -9.852664003e-12 -5.322459796e-12)
(0 -1.094315639e-11 -3.69953266e-12)
(0 -1.182653678e-11 -1.913439896e-12)
(0 -1.247960158e-11 -1.446988508e-14)
(0 -1.289994849e-11 1.938292143e-12)
(0 -1.310946098e-11 3.887698419e-12)
(0 -1.31517475e-11 5.791082309e-12)
(0 -1.308302448e-11 7.629979459e-12)
(0 -1.29587629e-11 9.412779421e-12)
(0 -1.282100015e-11 1.116732159e-11)
(0 -1.269523205e-11 1.292148993e-11)
(0 -1.260688401e-11 1.468349577e-11)
(0 -1.25969663e-11 1.647276231e-11)
(0 -1.260706953e-11 1.848186154e-11)
(0 -1.194130255e-11 2.128730227e-11)
(0 -7.708929434e-12 2.576021146e-11)
(0 9.545411575e-12 3.177680562e-11)
(0 6.595087319e-11 2.87759482e-11)
(0 -3.986777971e-11 -3.070259066e-10)
(0 -9.420744984e-11 2.284649104e-10)
(0 -7.156861944e-10 -9.871829763e-10)
(0 -5.105466059e-10 -1.954645635e-09)
(0 -7.862604736e-11 -1.750178036e-09)
(0 2.948422228e-11 2.316368885e-22)
(0 -7.472940105e-11 1.0780309e-11)
(0 -7.477916644e-11 1.086082898e-11)
(0 -7.49151053e-11 1.103407702e-11)
(0 -7.511249692e-11 1.128930644e-11)
(0 -7.537610621e-11 1.161355109e-11)
(0 -7.570877336e-11 1.199332706e-11)
(0 -7.611369724e-11 1.241478486e-11)
(0 -7.659398485e-11 1.286387745e-11)
(0 -7.715263937e-11 1.332646679e-11)
(0 -7.779251079e-11 1.378850952e-11)
(0 -7.851629994e-11 1.423612161e-11)
(0 -7.932660706e-11 1.46557342e-11)
(0 -8.022601535e-11 1.503413165e-11)
(0 -8.121718995e-11 1.53585908e-11)
(0 -8.23029863e-11 1.561691214e-11)
(0 -8.348657046e-11 1.579756212e-11)
(0 -8.477156721e-11 1.588970271e-11)
(0 -8.616224947e-11 1.588332791e-11)
(0 -8.766376793e-11 1.576928131e-11)
(0 -8.928239397e-11 1.553938871e-11)
(0 -9.102574118e-11 1.518648788e-11)
(0 -9.290295736e-11 1.470459045e-11)
(0 -9.49249173e-11 1.408894431e-11)
(0 -9.71044722e-11 1.33362088e-11)
(0 -9.945679968e-11 1.244449152e-11)
(0 -1.019998364e-10 1.141347246e-11)
(0 -1.04754702e-10 1.024439161e-11)
(0 -1.077460044e-10 8.940156378e-12)
(0 -1.110019934e-10 7.505343345e-12)
(0 -1.145546672e-10 5.946291361e-12)
(0 -1.184400207e-10 4.270977924e-12)
(0 -1.226985361e-10 2.488834712e-12)
(0 -1.273757823e-10 6.102479952e-13)
(0 -1.325228057e-10 -1.353979507e-12)
(0 -1.381960507e-10 -3.393391418e-12)
(0 -1.444568456e-10 -5.498655626e-12)
(0 -1.513707415e-10 -7.662717358e-12)
(0 -1.590069019e-10 -9.882236718e-12)
(0 -1.674373286e-10 -1.215959499e-11)
(0 -1.767353386e-10 -1.450516151e-11)
(0 -1.869727512e-10 -1.693993634e-11)
(0 -1.982156189e-10 -1.949826349e-11)
(0 -2.105186485e-10 -2.223079047e-11)
(0 -2.239183477e-10 -2.520724295e-11)
(0 -2.384245043e-10 -2.851872332e-11)
(0 -2.540092484e-10 -3.22783729e-11)
(0 -2.70593078e-10 -3.6619306e-11)
(0 -2.880279884e-10 -4.168787558e-11)
(0 -3.060790749e-10 -4.763025114e-11)
(0 -3.244074629e-10 -5.456903495e-11)
(0 -3.42559654e-10 -6.256642849e-11)
(0 -3.599723088e-10 -7.157038042e-11)
(0 -3.760070475e-10 -8.134297059e-11)
(0 -3.900356905e-10 -9.137528475e-11)
(0 -4.016024918e-10 -1.008062872e-10)
(0 -4.106950073e-10 -1.083930256e-10)
(0 -4.181400828e-10 -1.12643343e-10)
(0 -4.260507322e-10 -1.123362016e-10)
(0 -4.378685565e-10 -1.077902274e-10)
(0 -4.56498198e-10 -1.030496729e-10)
(0 -4.773613737e-10 -1.076627246e-10)
(0 -4.711365879e-10 -1.324249288e-10)
(0 -3.704213941e-10 -1.497717891e-10)
(0 -2.574671309e-11 1.173834618e-21)
(0 7.476161024e-11 3.142146395e-10)
(0 1.120281333e-10 -8.656179923e-11)
(0 1.121277535e-11 -1.834768974e-11)
(0 4.403240962e-13 1.799573268e-12)
(0 3.273054574e-12 6.193826544e-12)
(0 6.143638597e-12 6.390552368e-12)
(0 7.877705564e-12 5.7229723e-12)
(0 8.957550703e-12 4.943391137e-12)
(0 9.7333737e-12 4.132814697e-12)
(0 1.03401694e-11 3.275410455e-12)
(0 1.081975624e-11 2.367382916e-12)
(0 1.118545878e-11 1.407197068e-12)
(0 1.143620264e-11 3.884487586e-13)
(0 1.155779805e-11 -6.935656953e-13)
(0 1.152695991e-11 -1.833190476e-12)
(0 1.131878348e-11 -3.010068361e-12)
(0 1.091465201e-11 -4.19021932e-12)
(0 1.030793539e-11 -5.331228892e-12)
(0 9.506089362e-12 -6.389374711e-12)
(0 8.529218702e-12 -7.32610656e-12)
(0 7.406225913e-12 -8.112431969e-12)
(0 6.169973495e-12 -8.730553287e-12)
(0 4.852722012e-12 -9.17308119e-12)
(0 3.482756497e-12 -9.440347975e-12)
(0 2.082683315e-12 -9.536862908e-12)
(0 6.694547021e-13 -9.467708707e-12)
(0 -7.441380646e-13 -9.235758943e-12)
(0 -2.146959566e-12 -8.840101499e-12)
(0 -3.526634107e-12 -8.276052696e-12)
(0 -4.866997198e-12 -7.536661692e-12)
(0 -6.146617683e-12 -6.615554812e-12)
(0 -7.338901725e-12 -5.510474187e-12)
(0 -8.41398811e-12 -4.226813315e-12)
(0 -9.342295006e-12 -2.780110169e-12)
(0 -1.009921902e-11 -1.196672329e-12)
(0 -1.067010445e-11 4.883578653e-13)
(0 -1.105427152e-11 2.235568514e-12)
(0 -1.12666842e-11 4.007963328e-12)
(0 -1.133613224e-11 5.778131511e-12)
(0 -1.129993234e-11 7.533506612e-12)
(0 -1.119676735e-11 9.277397338e-12)
(0 -1.106053782e-11 1.102461135e-11)
(0 -1.091834652e-11 1.279257976e-11)
(0 -1.079197041e-11 1.459435234e-11)
(0 -1.068771559e-11 1.644462597e-11)
(0 -1.053766809e-11 1.836715959e-11)
(0 -1.00855287e-11 2.028145967e-11)
(0 -8.9752758e-12 2.142056594e-11)
(0 -8.522393592e-12 1.840573663e-11)
(0 -2.233817622e-11 -4.464266944e-13)
(0 -1.264198227e-10 -6.790568262e-11)
(0 -9.098029269e-11 3.309166131e-10)
(0 1.751645098e-11 1.41154457e-21)
(0 -2.911260942e-10 -1.838674199e-09)
(0 2.735988027e-12 -2.0347891e-09)
(0 3.933080626e-11 3.393491893e-22)
(0 -7.342659909e-11 1.148934888e-11)
(0 -7.348380185e-11 1.157838875e-11)
(0 -7.363430695e-11 1.176904767e-11)
(0 -7.385413279e-11 1.204958858e-11)
(0 -7.414823744e-11 1.240592482e-11)
(0 -7.451964946e-11 1.282336612e-11)
(0 -7.49717076e-11 1.328684719e-11)
(0 -7.550761749e-11 1.378105541e-11)
(0 -7.613044245e-11 1.429060709e-11)
(0 -7.684305733e-11 1.480018992e-11)
(0 -7.76481559e-11 1.529469337e-11)
(0 -7.854829887e-11 1.575931764e-11)
(0 -7.95459944e-11 1.617967628e-11)
(0 -8.064379024e-11 1.654188833e-11)
(0 -8.184437209e-11 1.683267236e-11)
(0 -8.315067743e-11 1.703943691e-11)
(0 -8.456604014e-11 1.71503717e-11)
(0 -8.609438129e-11 1.715453149e-11)
(0 -8.774043487e-11 1.704192103e-11)
(0 -8.950997842e-11 1.68035849e-11)
(0 -9.141003756e-11 1.643171604e-11)
(0 -9.344905944e-11 1.591978194e-11)
(0 -9.563709677e-11 1.526266898e-11)
(0 -9.798606598e-11 1.44568243e-11)
(0 -1.005101141e-10 1.350038555e-11)
(0 -1.032260643e-10 1.239329198e-11)
(0 -1.061538359e-10 1.113739385e-11)
(0 -1.093167325e-10 9.736569445e-12)
(0 -1.127415996e-10 8.196848656e-12)
(0 -1.164589921e-10 6.526490761e-12)
(0 -1.205035545e-10 4.735945584e-12)
(0 -1.249146829e-10 2.837637697e-12)
(0 -1.297372825e-10 8.455758823e-13)
(0 -1.350222832e-10 -1.225178134e-12)
(0 -1.408267058e-10 -3.359158876e-12)
(0 -1.472134104e-10 -5.541353274e-12)
(0 -1.542508717e-10 -7.758413992e-12)
(0 -1.620131422e-10 -1.00003886e-11)
(0 -1.705796998e-10 -1.226299785e-11)
(0 -1.800345535e-10 -1.45504211e-11)
(0 -1.904641117e-10 -1.687853819e-11)
(0 -2.019537193e-10 -1.927866358e-11)
(0 -2.145829714e-10 -2.180179932e-11)
(0 -2.28419642e-10 -2.452326756e-11)
(0 -2.435115007e-10 -2.754722833e-11)
(0 -2.598748924e-10 -3.101016995e-11)
(0 -2.774790048e-10 -3.508198185e-11)
(0 -2.962252896e-10 -3.996261269e-11)
(0 -3.159222527e-10 -4.587125783e-11)
(0 -3.362569216e-10 -5.302342544e-11)
(0 -3.567665721e-10 -6.15893861e-11)
(0 -3.768187701e-10 -7.162612912e-11)
(0 -3.956143366e-10 -8.297415835e-11)
(0 -4.122371101e-10 -9.511091114e-11)
(0 -4.257918272e-10 -1.069579518e-10)
(0 -4.357056005e-10 -1.166596089e-10)
(0 -4.423219028e-10 -1.214105412e-10)
(0 -4.479429703e-10 -1.175736311e-10)
(0 -4.581822412e-10 -1.016922503e-10)
(0 -4.820414376e-10 -7.309441164e-11)
(0 -5.266526096e-10 -3.80120478e-11)
(0 -5.704721969e-10 -5.808568355e-12)
(0 -5.890627958e-10 8.679176386e-12)
(0 -8.379155798e-11 -1.78858403e-11)
(0 -7.604955423e-11 9.642667454e-11)
(0 1.478805334e-11 3.123743534e-12)
(0 1.037202008e-11 -2.799587661e-12)
(0 5.90849065e-12 1.489820728e-12)
(0 5.549643485e-12 4.032125217e-12)
(0 6.47652109e-12 4.757372154e-12)
(0 7.481295302e-12 4.620131974e-12)
(0 8.314537548e-12 4.136230366e-12)
(0 8.983946766e-12 3.498063278e-12)
(0 9.521114795e-12 2.769717563e-12)
(0 9.942660308e-12 1.975672176e-12)
(0 1.025354073e-11 1.126298667e-12)
(0 1.045044372e-11 2.259217615e-13)
(0 1.052320699e-11 -7.210035775e-13)
(0 1.045735453e-11 -1.704629062e-12)
(0 1.023820391e-11 -2.706960778e-12)
(0 9.855313564e-12 -3.702129363e-12)
(0 9.305859554e-12 -4.65916849e-12)
(0 8.596070011e-12 -5.546056985e-12)
(0 7.740613201e-12 -6.333697716e-12)
(0 6.760452222e-12 -6.998797025e-12)
(0 5.679951824e-12 -7.525212962e-12)
(0 4.524007916e-12 -7.90373814e-12)
(0 3.315799289e-12 -8.130690954e-12)
(0 2.075511922e-12 -8.205817932e-12)
(0 8.201313111e-13 -8.130120835e-12)
(0 -4.358125819e-13 -7.904074993e-12)
(0 -1.678819873e-12 -7.526630792e-12)
(0 -2.894726879e-12 -6.995168189e-12)
(0 -4.067257034e-12 -6.306451657e-12)
(0 -5.177300667e-12 -5.458367272e-12)
(0 -6.203228506e-12 -4.452079749e-12)
(0 -7.122299986e-12 -3.294042524e-12)
(0 -7.913015403e-12 -1.99727851e-12)
(0 -8.558068746e-12 -5.813740502e-13)
(0 -9.047360732e-12 9.291055432e-13)
(0 -9.380343025e-12 2.507757753e-12)
(0 -9.566897987e-12 4.130542023e-12)
(0 -9.626204214e-12 5.780065254e-12)
(0 -9.583758649e-12 7.448620486e-12)
(0 -9.467658162e-12 9.13881573e-12)
(0 -9.305817724e-12 1.086127106e-11)
(0 -9.125491045e-12 1.262996089e-11)
(0 -8.9548378e-12 1.445677344e-11)
(0 -8.824159048e-12 1.634426594e-11)
(0 -8.770235833e-12 1.826071866e-11)
(0 -8.887896205e-12 2.005080302e-11)
(0 -9.584652477e-12 2.123509638e-11)
(0 -1.232158107e-11 2.08721479e-11)
(0 -2.036054585e-11 1.893889847e-11)
(0 -3.049851976e-11 2.692698066e-11)
(0 4.971064912e-11 1.204348323e-10)
(0 6.708958329e-11 7.807297872e-13)
(0 3.142421419e-11 -1.459664784e-09)
(0 1.555784182e-11 -2.322495447e-09)
(0 5.701791853e-11 5.51498141e-22)
(0 -7.201527212e-11 1.223389841e-11)
(0 -7.208041225e-11 1.233267899e-11)
(0 -7.224645533e-11 1.25431217e-11)
(0 -7.249022696e-11 1.285241067e-11)
(0 -7.281690731e-11 1.324520598e-11)
(0 -7.322973764e-11 1.370550518e-11)
(0 -7.37322174e-11 1.42168856e-11)
(0 -7.432767127e-11 1.476265932e-11)
(0 -7.501924112e-11 1.532605753e-11)
(0 -7.580984345e-11 1.589039662e-11)
(0 -7.670217913e-11 1.643921115e-11)
(0 -7.769878168e-11 1.695638196e-11)
(0 -7.880209167e-11 1.742623801e-11)
(0 -8.001454107e-11 1.783366483e-11)
(0 -8.133864336e-11 1.816419411e-11)
(0 -8.277710029e-11 1.840410414e-11)
(0 -8.433294346e-11 1.854050419e-11)
(0 -8.600972005e-11 1.856142958e-11)
(0 -8.781170914e-11 1.845592871e-11)
(0 -8.974413586e-11 1.821417553e-11)
(0 -9.181335233e-11 1.782759045e-11)
(0 -9.402699013e-11 1.728899976e-11)
(0 -9.639413314e-11 1.659279659e-11)
(0 -9.892557558e-11 1.573512209e-11)
(0 -1.016341942e-10 1.471402794e-11)
(0 -1.04535389e-10 1.352965057e-11)
(0 -1.076474848e-10 1.218438297e-11)
(0 -1.109920003e-10 1.068307765e-11)
(0 -1.145938137e-10 9.03323353e-12)
(0 -1.184813993e-10 7.245142509e-12)
(0 -1.226873324e-10 5.331900077e-12)
(0 -1.272490936e-10 3.309272753e-12)
(0 -1.322099471e-10 1.195408263e-12)
(0 -1.376195618e-10 -9.895528862e-13)
(0 -1.435342476e-10 -3.224016985e-12)
(0 -1.500170261e-10 -5.485723581e-12)
(0 -1.571379165e-10 -7.752992138e-12)
(0 -1.64974541e-10 -1.000654022e-11)
(0 -1.736126737e-10 -1.223193835e-11)
(0 -1.831461135e-10 -1.442265807e-11)
(0 -1.936754828e-10 -1.658378971e-11)
(0 -2.053059486e-10 -1.873655396e-11)
(0 -2.181439467e-10 -2.092379582e-11)
(0 -2.322925535e-10 -2.321640934e-11)
(0 -2.478444947e-10 -2.572038088e-11)
(0 -2.648713091e-10 -2.858369358e-11)
(0 -2.834071061e-10 -3.200193962e-11)
(0 -3.034254569e-10 -3.62206748e-11)
(0 -3.248080086e-10 -4.153120919e-11)
(0 -3.473037144e-10 -4.82542303e-11)
(0 -3.704792907e-10 -5.670290225e-11)
(0 -3.936651636e-10 -6.711387334e-11)
(0 -4.15906103e-10 -7.953085322e-11)
(0 -4.35932952e-10 -9.362053854e-11)
(0 -4.521880819e-10 -1.083949918e-10)
(0 -4.629760804e-10 -1.218063052e-10)
(0 -4.669029953e-10 -1.301733793e-10)
(0 -4.639484614e-10 -1.274955402e-10)
(0 -4.571722696e-10 -1.051010018e-10)
(0 -4.534160103e-10 -5.383156046e-11)
(0 -4.499461038e-10 2.327398568e-11)
(0 -3.955538364e-10 1.010762038e-10)
(0 5.812657458e-11 1.564601928e-22)
(0 7.06799613e-11 9.80148837e-12)
(0 1.975877885e-11 1.024155836e-11)
(0 1.280187094e-11 5.429410932e-12)
(0 9.578852554e-12 2.535539744e-12)
(0 7.272036991e-12 2.926993725e-12)
(0 6.540606005e-12 3.687340786e-12)
(0 6.731645353e-12 3.986572195e-12)
(0 7.256563775e-12 3.863868887e-12)