/*--------------------------------*- C++ -*----------------------------------*\
  =========                 |
  \\      /  F ield         | OpenFOAM: The Open Source CFD Toolbox
   \\    /   O peration     | Website:  https://openfoam.org
    \\  /    A nd           | Version:  6
     \\/     M anipulation  |
\*---------------------------------------------------------------------------*/
FoamFile
{
    version     2.0;
    format      ascii;
    class       surfaceScalarField;
    location    "0.0045";
    object      phi;
}
// * * * * * * * * * * * * * * * * * * * * * * * * * * * * * * * * * * * * * //

dimensions      [0 3 -1 0 0 0 0];

internalField   nonuniform List<scalar> 
19000
(
3.219173713e-20
-7.833970975e-21
3.16758293e-20
-2.265621671e-20
3.055759132e-20
-3.648735266e-20
2.884569852e-20
-4.95719494e-20
2.656086589e-20
-6.217491706e-20
2.372421895e-20
-7.448921225e-20
2.0344465e-20
-8.664117229e-20
1.642160304e-20
-9.870928559e-20
1.194545735e-20
-1.107411457e-19
6.90135624e-21
-1.227637818e-19
1.26803763e-21
-1.347913322e-19
-4.977710995e-21
-1.468287289e-19
-1.186410408e-20
-1.588750899e-19
-1.942034662e-20
-1.709247336e-19
-2.768015359e-20
-1.829689158e-19
-3.667797127e-20
-1.949957448e-19
-4.645265924e-20
-2.069912217e-19
-5.704375126e-20
-2.189386791e-19
-6.849518971e-20
-2.308194655e-19
-8.085157535e-20
-2.42612156e-19
-9.416188965e-20
-2.54293074e-19
-1.084756667e-19
-2.658353327e-19
-1.238466045e-19
-2.772092465e-19
-1.403286016e-19
-2.88381277e-19
-1.579792481e-19
-2.993143413e-19
-1.768557491e-19
-3.099667211e-19
-1.970182467e-19
-3.202923466e-19
-2.185254799e-19
-3.302396356e-19
-2.414376684e-19
-3.397517145e-19
-2.658116534e-19
-3.487651942e-19
-2.917032428e-19
-3.572103274e-19
-3.191619545e-19
-3.650098892e-19
-3.482329831e-19
-3.720795953e-19
-3.789515769e-19
-3.783273438e-19
-4.113442636e-19
-3.836541035e-19
-4.454221689e-19
-3.879536378e-19
-4.811806617e-19
-3.911138013e-19
-5.185910518e-19
-3.930169213e-19
-5.575985722e-19
-3.935421589e-19
-5.981128008e-19
-3.925675993e-19
-6.400042633e-19
-3.899750773e-19
-6.83093344e-19
-3.856553057e-19
-7.27144587e-19
-3.79515928e-19
-7.718531255e-19
-3.714901575e-19
-8.168365214e-19
-3.615486732e-19
-8.616198545e-19
-3.497127448e-19
-9.056270786e-19
-3.360713752e-19
-9.481668446e-19
-3.208000677e-19
-9.884250723e-19
-3.041829116e-19
-1.025453325e-18
-2.866345939e-19
-1.058164652e-18
-2.687223139e-19
-1.085326239e-18
-2.51182773e-19
-1.105558618e-18
-2.349328051e-19
-1.117330675e-18
-2.210686347e-19
-1.118960613e-18
-2.108538931e-19
-1.108619482e-18
-2.0569567e-19
-1.08436264e-18
-2.071123997e-19
-1.044203577e-18
-2.166883146e-19
-9.862196327e-19
-2.359892113e-19
-9.08482056e-19
-2.663674148e-19
-8.08085433e-19
-3.085683355e-19
-6.780782522e-19
-3.62375493e-19
-5.025660505e-19
-4.276599013e-19
-2.627213715e-19
-5.106390296e-19
3.016807502e-20
-6.368249732e-19
1.076478643e-19
-8.249928285e-19
-1.382010251e-19
-8.419909479e-19
-6.937769886e-21
-3.329623061e-19
1.250725135e-21
6.937766047e-21
2.57256846e-21
3.538065328e-23
7.281071686e-21
-1.380450264e-20
2.303046942e-20
-3.196368065e-20
2.811186201e-20
-1.810716754e-20
2.655370843e-20
-6.487445658e-21
2.611623463e-20
-5.059523354e-21
2.751896723e-20
-5.397310297e-21
2.983257364e-20
-4.499425923e-21
3.215875608e-20
-1.822706981e-21
3.382467257e-20
2.499910993e-21
3.424581604e-20
8.216434078e-21
3.313700636e-20
1.462615694e-20
3.061155914e-20
2.082351055e-20
2.699912403e-20
2.617069117e-20
2.269951014e-20
3.033056668e-20
1.811233473e-20
3.318741464e-20
1.356985289e-20
3.483206163e-20
9.281902518e-21
3.551496559e-20
5.322021585e-21
3.555607852e-20
1.646698669e-21
3.525603205e-20
-1.866491546e-21
3.483734377e-20
-5.379867351e-21
3.441496001e-20
-9.055064373e-21
3.39861547e-20
-1.301332707e-20
3.34310927e-20
-1.72936648e-20
3.252452816e-20
-2.181833351e-20
3.096601792e-20
-2.637471426e-20
2.843946685e-20
-3.063146923e-20
2.470368199e-20
-3.419453915e-20
1.96828769e-20
-3.667773516e-20
1.351171171e-20
-3.777160768e-20
6.542477954e-21
-3.738595215e-20
-5.779301585e-22
-3.582898111e-20
-6.945029895e-21
-3.370492464e-20
-1.186273687e-20
-3.17038468e-20
-1.508594088e-20
-3.073738544e-20
-1.648501018e-20
-3.17473118e-20
-1.660015252e-20
-3.40270389e-20
-1.841268974e-20
-2.985562475e-20
-3.028938087e-20
-1.528603091e-20
-4.42223801e-20
-1.19604295e-20
-2.611183485e-20
-1.213181159e-20
-1.231899336e-20
-5.430470461e-21
-5.430474263e-21
-1.504191982e-19
-6.889437484e-20
-1.015454147e-18
2.880439222e-19
-1.254144448e-18
1.156445312e-18
-1.045281339e-18
2.07440415e-18
-6.643475447e-19
2.537928778e-18
-2.569763212e-19
2.407486016e-18
9.087747908e-21
1.578219355e-18
-1.404344873e-31
2.057923587e-20
-8.791630422e-21
2.007527501e-20
-2.390197196e-20
1.88399016e-20
-3.72335536e-20
1.6977499e-20
-4.956783299e-20
1.455190972e-20
-6.137366087e-20
1.159860433e-20
-7.290941093e-20
8.128228982e-21
-8.43162557e-20
4.137781702e-21
-9.567063372e-20
-3.861236246e-22
-1.070137558e-19
-5.461443479e-21
-1.183654947e-19
-1.111137255e-20
-1.297337209e-19
-1.736086473e-20
-1.41117751e-19
-2.423866855e-20
-1.525121599e-19
-3.177457835e-20
-1.63907189e-19
-4.000189474e-20
-1.752908366e-19
-4.895486766e-20
-1.866481841e-19
-5.867126713e-20
-1.979628369e-19
-6.918983437e-20
-2.092158142e-19
-8.055288498e-20
-2.203866838e-19
-9.28037301e-20
-2.314522527e-19
-1.059892456e-19
-2.423875716e-19
-1.201572032e-19
-2.531644807e-19
-1.353587146e-19
-2.637525287e-19
-1.516454425e-19
-2.741174532e-19
-1.690719318e-19
-2.842220175e-19
-1.876927028e-19
-2.940244746e-19
-2.075644047e-19
-3.034793982e-19
-2.287425997e-19
-3.125360809e-19
-2.512834659e-19
-3.211393295e-19
-2.752401042e-19
-3.292278521e-19
-3.006637959e-19
-3.36735057e-19
-3.276000382e-19
-3.435876434e-19
-3.560895459e-19
-3.497067406e-19
-3.861639479e-19
-3.550069276e-19
-4.178460372e-19
-3.593978692e-19
-4.511443842e-19
-3.627838618e-19
-4.860521703e-19
-3.650659555e-19
-5.225405499e-19
-3.66142337e-19
-5.605564681e-19
-3.659117716e-19
-6.000153992e-19
-3.642759898e-19
-6.407983488e-19
-3.611457972e-19
-6.827433963e-19
-3.564465951e-19
-7.256407135e-19
-3.501276724e-19
-7.692221091e-19
-3.421712268e-19
-8.131544643e-19
-3.326055761e-19
-8.570289018e-19
-3.215189358e-19
-9.00354514e-19
-3.090781815e-19
-9.425481662e-19
-2.955485452e-19
-9.829283381e-19
-2.813176234e-19
-1.020704822e-18
-2.669189932e-19
-1.054971763e-18
-2.530578353e-19
-1.08469583e-18
-2.406332414e-19
-1.108705814e-18
-2.30758882e-19
-1.125675778e-18
-2.247766593e-19
-1.134108383e-18
-2.242654185e-19
-1.132313335e-18
-2.31040907e-19
-1.11839003e-18
-2.471484141e-19
-1.09020598e-18
-2.748380264e-19
-1.045346919e-18
-3.165072279e-19
-9.80938156e-19
-3.745820621e-19
-8.932359793e-19
-4.513474856e-19
-7.771879989e-19
-5.48875579e-19
-6.283222886e-19
-6.694967951e-19
-4.53228511e-19
-8.165703765e-19
-2.949349827e-19
-9.9108418e-19
-2.600472627e-19
-1.163549188e-18
-3.08903956e-19
-1.215784631e-18
-1.45700414e-19
-8.482421039e-19
-5.651660258e-21
-3.011676037e-19
-1.126731495e-20
5.651664094e-21
-1.08781063e-20
-1.419195535e-20
3.688698253e-20
-7.972688465e-20
3.973158389e-20
-2.09512809e-20
2.798163078e-20
5.263239993e-21
2.577844768e-20
-2.855703949e-21
2.841685158e-20
-8.033475918e-21
3.250929262e-20
-8.588428491e-21
3.648137405e-20
-5.790194268e-21
3.954119572e-20
-5.553899517e-22
4.065553887e-20
7.106638373e-21
3.933435998e-20
1.595028856e-20
3.595873993e-20
2.420180663e-20
3.115899939e-20
3.097221292e-20
2.555635809e-20
3.593516775e-20
1.975698194e-20
3.898890487e-20
1.425275665e-20
4.033819127e-20
9.323015441e-21
4.044535305e-20
5.021975327e-21
3.985635376e-20
1.228010173e-21
3.904837228e-20
-2.288875305e-21
3.835313818e-20
-5.808672461e-21
3.793441751e-20
-9.610126573e-21
3.778773527e-20
-1.391989161e-20
3.774114495e-20
-1.885217486e-20
3.745813365e-20
-2.434488476e-20
3.645980759e-20
-3.011049912e-20
3.420433753e-20
-3.565227422e-20
3.024224434e-20
-4.036570448e-20
2.439401717e-20
-4.364696892e-20
1.678979097e-20
-4.489201582e-20
7.784683912e-21
-4.37530519e-20
-1.720312941e-21
-4.074668808e-20
-9.954051081e-21
-3.692812875e-20
-1.568482816e-20
-3.310291601e-20
-1.891393061e-20
-3.085252778e-20
-1.873868121e-20
-3.355984914e-20
-1.389473218e-20
-4.590372996e-20
-6.071962445e-21
-4.378862398e-20
-3.240951916e-20
2.824514243e-21
-9.083874769e-20
1.832412182e-21
-2.512125358e-20
-5.24329249e-21
-5.243288687e-21
-1.680107798e-19
-8.68943546e-20
-5.929218313e-19
-4.422665469e-20
-1.017791748e-18
2.775271825e-19
-1.15703423e-18
1.012116277e-18
-9.585177668e-19
1.693103256e-18
-5.921063492e-19
2.046047917e-18
-2.148340334e-19
1.925522161e-18
1.710144925e-20
1.252738501e-18
-1.168024372e-31
1.014963285e-20
-1.134358539e-20
9.384013005e-21
-2.640724002e-20
7.811251965e-21
-3.872346152e-20
5.675038592e-21
-4.998762292e-20
3.052205767e-21
-6.082098483e-20
-3.742868511e-23
-7.148356762e-20
-3.59893798e-21
-8.209325386e-20
-7.64827739e-21
-9.270543163e-20
-1.220632166e-20
-1.033444078e-19
-1.729697132e-20
-1.140181508e-19
-2.294594302e-20
-1.247248863e-19
-2.918079753e-20
-1.354572372e-19
-3.603054081e-20
-1.462038136e-19
-4.352601689e-20
-1.569508072e-19
-5.169964076e-20
-1.676821743e-19
-6.058584419e-20
-1.783803989e-19
-7.022079729e-20
-1.890261578e-19
-8.064282493e-20
-1.995987667e-19
-9.189210897e-20
-2.100756089e-19
-1.04011064e-19
-2.204324392e-19
-1.170439726e-19
-2.3064272e-19
-1.310372632e-19
-2.406778183e-19
-1.460390135e-19
-2.505062816e-19
-1.620991132e-19
-2.600939967e-19
-1.79268666e-19
-2.694034103e-19
-1.976000297e-19
-2.783936871e-19
-2.171460188e-19
-2.870199302e-19
-2.379596154e-19
-2.952332894e-19
-2.600927375e-19
-3.029801772e-19
-2.835955237e-19
-3.102024116e-19
-3.085147927e-19
-3.168365203e-19
-3.348931621e-19
-3.228141433e-19
-3.62767379e-19
-3.280617411e-19
-3.921670925e-19
-3.325014258e-19
-4.231124637e-19
-3.360511724e-19
-4.556118663e-19
-3.386261624e-19
-4.896583759e-19
-3.401395888e-19
-5.252266711e-19
-3.405049787e-19
-5.622692396e-19
-3.39638563e-19
-6.007132554e-19
-3.374637498e-19
-6.404565121e-19
-3.339162386e-19
-6.81363331e-19
-3.289514842e-19
-7.232589788e-19
-3.225528998e-19
-7.659242164e-19
-3.147427582e-19
-8.090893506e-19
-3.055945614e-19
-8.524295583e-19
-2.95249035e-19
-8.955602375e-19
-2.839325165e-19
-9.380331739e-19
-2.719792163e-19
-9.793317226e-19
-2.598554262e-19
-1.018865835e-18
-2.481867774e-19
-1.055965095e-18
-2.377863808e-19
-1.089870184e-18
-2.296847087e-19
-1.119720482e-18
-2.251587072e-19
-1.14453848e-18
-2.257603553e-19
-1.1632098e-18
-2.333416471e-19
-1.174460627e-18
-2.500753811e-19
-1.176832355e-18
-2.784659908e-19
-1.168655574e-18
-3.213421283e-19
-1.148024939e-18
-3.818112626e-19
-1.112796955e-18
-4.631495373e-19
-1.060737216e-18
-5.685917131e-19
-9.902813811e-19
-7.0096954e-19
-9.031462377e-19
-8.61965684e-19
-8.102451196e-19
-1.049890181e-18
-7.37618545e-19
-1.25260716e-18
-7.136887454e-19
-1.429670454e-18
-6.90142769e-19
-1.488760971e-18
-5.207143518e-19
-1.298892121e-18
-1.897029e-19
-8.952458449e-19
-3.11109343e-20
-3.138778126e-19
-7.641303505e-20
3.11109343e-20
9.566258553e-20
-2.518027947e-19
6.594610442e-20
8.765906424e-21
1.986268669e-20
5.134684374e-20
2.060067561e-20
-3.591660654e-21
2.786189879e-20
-1.529137426e-20
3.530752668e-20
-1.602970579e-20
4.17161781e-20
-1.219477462e-20
4.72032238e-20
-6.037808198e-21
4.949918871e-20
4.814032388e-21
4.758587774e-20
1.786741656e-20
4.272914615e-20
2.906024532e-20
3.612195383e-20
3.758133591e-20
2.861009503e-20
4.344932566e-20
2.110626845e-20
4.649517098e-20
1.435991811e-20
4.708607004e-20
8.734016097e-21
4.607111272e-20
4.213994054e-21
4.437461338e-20
5.327758355e-22
4.272763483e-20
-2.707595957e-21
4.159247544e-20
-5.955354436e-21
4.118206078e-20
-9.656717059e-21
4.148938328e-20
-1.420290283e-20
4.228890951e-20
-1.985050059e-20
4.310836149e-20
-2.660035488e-20
4.321103481e-20
-3.407259209e-20
4.167475977e-20
-4.1500501e-20
3.76686696e-20
-4.796993053e-20
3.085972439e-20
-5.265207564e-20
2.146905466e-20
-5.439701235e-20
9.52572821e-21
-5.198678972e-20
-4.133893788e-21
-4.647746486e-20
-1.546784586e-20
-4.015723108e-20
-2.200793154e-20
-3.292766631e-20
-2.614661863e-20
-2.600857861e-20
-2.565820878e-20
-2.573707928e-20
-1.417380431e-20
-7.224128621e-20
4.042998359e-20
-1.022178517e-19
-2.434185695e-21
6.854200778e-20
-2.615997225e-19
2.17103771e-20
2.17103771e-20
-5.218274953e-20
-2.205946569e-19
-2.97378855e-19
-2.824846983e-19
-5.674216589e-19
-1.964972794e-19
-8.139789936e-19
1.636867963e-19
-8.601709049e-19
7.333344806e-19
-6.90469291e-19
1.261688663e-18
-3.94568074e-19
1.546299265e-18
-1.007994982e-19
1.461709017e-18
4.697917649e-20
9.464496754e-19
-9.711246946e-32
1.833337367e-21
-2.007533867e-20
-4.255436868e-22
-3.097238706e-20
-2.702652159e-21
-4.102024177e-20
-5.215840019e-21
-5.0776059e-20
-8.047973036e-21
-6.04621144e-20
-1.125761962e-20
-7.017307193e-20
-1.488732078e-20
-7.994820198e-20
-1.897149358e-20
-8.979995718e-20
-2.354108047e-20
-9.972723932e-20
-2.862512847e-20
-1.097212011e-19
-3.425252671e-20
-1.197688445e-19
-4.045214897e-20
-1.298543292e-19
-4.725388724e-20
-1.399602949e-19
-5.468841879e-20
-1.500679475e-19
-6.278802328e-20
-1.601576888e-19
-7.158618732e-20
-1.702087533e-19
-8.111832031e-20
-1.801995751e-19
-9.142127227e-20
-1.901072456e-19
-1.025339929e-19
-1.999077507e-19
-1.144969934e-19
-2.095753548e-19
-1.27352918e-19
-2.190827912e-19
-1.41145895e-19
-2.284005813e-19
-1.559219781e-19
-2.374971935e-19
-1.717283885e-19
-2.46338352e-19
-1.886138599e-19
-2.548871631e-19
-2.066277485e-19
-2.631034314e-19
-2.258201669e-19
-2.709437953e-19
-2.462407656e-19
-2.783610122e-19
-2.679384631e-19
-2.853041173e-19
-2.909598912e-19
-2.917178003e-19
-3.153489263e-19
-2.975427059e-19
-3.411450921e-19
-3.027151233e-19
-3.683830251e-19
-3.071676898e-19
-3.970905544e-19
-3.108294837e-19
-4.272874637e-19
-3.136271843e-19
-4.58982645e-19
-3.154856791e-19
-4.92172076e-19
-3.163298808e-19
-5.268357543e-19
-3.160864644e-19
-5.629360382e-19
-3.146873753e-19
-6.00415146e-19
-3.120737678e-19
-6.391935917e-19
-3.08202098e-19
-6.791670639e-19
-3.030508102e-19
-7.202038929e-19
-2.966292835e-19
-7.621416062e-19
-2.889879445e-19
-8.047854091e-19
-2.802315718e-19
-8.479069652e-19
-2.705348489e-19
-8.912452594e-19
-2.601619299e-19
-9.345069526e-19
-2.494884742e-19
-9.773676565e-19
-2.390273905e-19
-1.019471914e-18
-2.294568555e-19
-1.060433379e-18
-2.21652004e-19
-1.099832526e-18
-2.167188192e-19
-1.137212995e-18
-2.160311493e-19
-1.172074643e-18
-2.212682568e-19
-1.203865961e-18
-2.344521089e-19
-1.231975702e-18
-2.579792434e-19
-1.255727998e-18
-2.946409545e-19
-1.274386217e-18
-3.476163324e-19
-1.287185769e-18
-4.20413232e-19
-1.293442208e-18
-5.167107986e-19
-1.292847993e-18
-6.400247046e-19
-1.286163922e-18
-7.930367063e-19
-1.276500688e-18
-9.762384167e-19
-1.27052586e-18
-1.185095506e-18
-1.275684874e-18
-1.404469017e-18
-1.284776501e-18
-1.600119066e-18
-1.241816038e-18
-1.714599556e-18
-1.03208051e-18
-1.689394872e-18
-6.749849947e-19
-1.539559775e-18
-2.604992522e-21
-1.271579573e-18
7.139858386e-19
-9.166895858e-19
3.562312864e-19
1.05952041e-19
1.085270424e-19
2.564701972e-19
-3.50758179e-20
1.94951707e-19
8.900962156e-21
-4.756572329e-20
2.712356733e-20
-3.351128276e-20
3.914245816e-20
-2.804690117e-20
4.787314475e-20
-2.092165562e-20
5.80550647e-20
-1.621722759e-20
6.255257315e-20
3.200875791e-22
5.877870676e-20
2.164326997e-20
5.125023721e-20
3.659217434e-20
4.198994357e-20
4.68448058e-20
3.165594051e-20
5.378649429e-20
2.169716792e-20
5.645689295e-20
1.33449606e-20
5.543974603e-20
7.03751681e-21
5.237770522e-20
2.567015793e-21
4.884272366e-20
-6.023838076e-22
4.589476609e-20
-3.118010635e-21
4.410718906e-20
-5.648031727e-21
4.37121931e-20
-8.857191133e-21
4.469957371e-20
-1.338345093e-20
4.681779026e-20
-1.974782714e-20
4.947619437e-20
-2.813663034e-20
5.160038859e-20
-3.807868245e-20
5.161565466e-20
-4.830944627e-20
4.789611424e-20
-5.736060074e-20
3.990937524e-20
-6.459540237e-20
2.869930152e-20
-6.80566347e-20
1.29818354e-20
-6.332074208e-20
-8.874340716e-21
-5.30175508e-20
-2.57706157e-20
-4.429591856e-20
-3.073302593e-20
-3.24392565e-20
-3.800422683e-20
-1.452417433e-20
-4.357800944e-20
2.886670871e-20
-5.756668053e-20
-1.151054562e-19
1.844014326e-19
-3.613833884e-19
2.438434385e-19
-7.214604953e-19
9.847738437e-20
-3.438313647e-19
-7.395577643e-19
-1.859697575e-19
-9.03515648e-19
-2.178020164e-19
-7.737733643e-19
-3.104095442e-19
-4.955204286e-19
-4.223001022e-19
-8.854830434e-20
-4.338502329e-19
4.033942117e-19
-3.160603138e-19
8.413333024e-19
-1.204424927e-19
1.088553423e-18
5.675900105e-20
1.049252982e-18
9.286102488e-20
6.822900094e-19
-8.062300849e-32
-8.13088684e-21
-3.072065319e-20
-1.083308239e-20
-3.626953771e-20
-1.334347926e-20
-4.363764314e-20
-1.599006007e-20
-5.172355103e-20
-1.889620631e-20
-6.019284397e-20
-2.214334631e-20
-6.892133866e-20
-2.57857083e-20
-7.784884999e-20
-2.986432153e-20
-8.693653161e-20
-3.441348251e-20
-9.615350158e-20
-3.94643256e-20
-1.054724355e-19
-4.504648268e-20
-1.148677432e-19
-5.118930632e-20
-1.243149354e-19
-5.792236381e-20
-1.337900831e-19
-6.52760512e-20
-1.432696587e-19
-7.328173112e-20
-1.527301629e-19
-8.197212021e-20
-1.621480003e-19
-9.138127444e-20
-1.714991194e-19
-1.015448839e-19
-1.807588904e-19
-1.125001816e-19
-1.899017212e-19
-1.242861752e-19
-1.989009457e-19
-1.369434622e-19
-2.077284425e-19
-1.505143397e-19
-2.163544924e-19
-1.650424988e-19
-2.247474043e-19
-1.805730303e-19
-2.32873388e-19
-1.971520203e-19
-2.406961599e-19
-2.148264206e-19
-2.481768346e-19
-2.336434319e-19
-2.552735522e-19
-2.536500578e-19
-2.619413517e-19
-2.748921457e-19
-2.681318564e-19
-2.974136898e-19
-2.737932803e-19
-3.212557866e-19
-2.788703013e-19
-3.464559735e-19
-2.83304386e-19
-3.730471624e-19
-2.870340416e-19
-4.010566714e-19
-2.899954801e-19
-4.305045257e-19
-2.921232653e-19
-4.61401773e-19
-2.933514707e-19
-4.937484301e-19
-2.936150469e-19
-5.275321463e-19
-2.928521941e-19
-5.627271039e-19
-2.910074503e-19
-5.992936683e-19
-2.880361305e-19
-6.371777088e-19
-2.839096982e-19
-6.763100151e-19
-2.786225599e-19
-7.166054486e-19
-2.722000212e-19
-7.579633134e-19
-2.647084373e-19
-8.002691137e-19
-2.562676314e-19
-8.433986125e-19
-2.4706654e-19
-8.872231788e-19
-2.373817889e-19
-9.316164986e-19
-2.275995818e-19
-9.764618163e-19
-2.182404403e-19
-1.021660465e-18
-2.099875996e-19
-1.06714092e-18
-2.037189638e-19
-1.112868483e-18
-2.005433902e-19
-1.158854358e-18
-2.018404691e-19
-1.205165148e-18
-2.093029907e-19
-1.25193344e-18
-2.249786701e-19
-1.299371981e-18
-2.513061209e-19
-1.347793185e-18
-2.911341741e-19
-1.397639881e-18
-3.477065574e-19
-1.449539666e-18
-4.245792083e-19
-1.504407703e-18
-5.254161589e-19
-1.563626243e-18
-6.535721626e-19
-1.629287107e-18
-8.113105967e-19
-1.70427029e-18
-9.98412185e-19
-1.791277172e-18
-1.209845861e-18
-1.888719219e-18
-1.432392693e-18
-1.981280947e-18
-1.641426525e-18
-2.02849638e-18
-1.802329382e-18
-1.974170141e-18
-1.883310733e-18
-1.774122462e-18
-1.87549268e-18
-1.384349938e-18
-1.759010774e-18
-8.305678939e-19
-1.270321164e-18
5.29009985e-31
-1.809166392e-19
-7.729293266e-19
1.288073634e-18
-2.775932501e-19
-3.003832748e-19
2.295540268e-20
-3.481139535e-19
3.258794877e-20
-4.314426424e-20
4.62677039e-20
-4.172227739e-20
5.257757278e-20
-2.722848762e-20
7.459237992e-20
-3.82268383e-20
8.38757556e-20
-8.958919737e-21
7.372761113e-20
3.179792469e-20
6.150286898e-20
4.881945864e-20
4.89316318e-20
5.94186347e-20
3.432633918e-20
6.839535886e-20
2.068002133e-20
7.01063504e-20
1.028291944e-20
6.583783935e-20
3.50253525e-21
5.915645422e-20
-3.809415127e-22
5.272321393e-20
-2.389961112e-21
4.790155297e-20
-3.513006601e-21
4.522954642e-20
-4.66065084e-21
4.486017557e-20
-6.738974845e-21
4.677984698e-20
-1.072504682e-20
5.080790933e-20
-1.76236326e-20
5.63775599e-20
-2.812136458e-20
6.209854311e-20
-4.179822288e-20
6.529021331e-20
-5.629618505e-20
6.239358e-20
-6.857067473e-20
5.217949355e-20
-8.031286849e-20
4.043716977e-20
-8.991281094e-20
2.257686372e-20
-8.021701706e-20
-1.856884036e-20
-5.797996103e-20
-4.801549872e-20
-5.156711972e-20
-3.715211019e-20
-3.80130389e-20
-5.156130741e-20
-2.851284541e-20
-5.30793585e-20
2.708348236e-19
-3.569151368e-19
7.642744288e-19
-3.090381726e-19
-7.892441701e-31
1.322161785e-18
3.920744975e-19
6.37449468e-20
5.800587814e-19
-9.602291253e-19
5.255705224e-19
-1.238542449e-18
4.121947408e-19
-1.072825174e-18
2.665060028e-19
-7.468245039e-19
1.407976846e-19
-3.318499763e-19
9.016054379e-20
1.078628341e-19
1.208552066e-19
4.834327106e-19
1.947038947e-19
7.021485501e-19
2.400170307e-19
7.050108433e-19
1.488636978e-19
4.638467248e-19
-6.531629886e-32
-2.068414663e-20
-3.694375773e-20
-2.22529471e-20
-4.041440409e-20
-2.431310175e-20
-4.592474598e-20
-2.675229599e-20
-5.256571707e-20
-2.955191776e-20
-5.988855869e-20
-3.273133276e-20
-6.766271916e-20
-3.631919626e-20
-7.575873415e-20
-4.034529948e-20
-8.409477801e-20
-4.483873445e-20
-9.261294597e-20
-4.982778888e-20
-1.012681434e-19
-5.534042057e-20
-1.10022732e-19
-6.140462638e-20
-1.188436032e-19
-6.80489035e-20
-1.277006046e-19
-7.530247866e-20
-1.365654457e-19
-8.319562449e-20
-1.454110635e-19
-9.175975875e-20
-1.542110104e-19
-1.01027659e-19
-1.629391031e-19
-1.110334962e-19
-1.715689878e-19
-1.218129972e-19
-1.800738802e-19
-1.334034124e-19
-1.884262048e-19
-1.458435868e-19
-1.965973941e-19
-1.591738157e-19
-2.045575437e-19
-1.734357994e-19
-2.122752401e-19
-1.886723946e-19
-2.197172501e-19
-2.049274743e-19
-2.268483537e-19
-2.222455451e-19
-2.336310588e-19
-2.406713947e-19
-2.400254583e-19
-2.602494303e-19
-2.45988952e-19
-2.810230522e-19
-2.514761891e-19
-3.030338293e-19
-2.564389503e-19
-3.263208664e-19
-2.608262939e-19
-3.509200705e-19
-2.645847451e-19
-3.768635055e-19
-2.676587584e-19
-4.041783776e-19
-2.699911652e-19
-4.328858743e-19
-2.715239607e-19
-4.629997184e-19
-2.72199222e-19
-4.945251077e-19
-2.719606379e-19
-5.274581375e-19
-2.707556494e-19
-5.617861383e-19
-2.68538605e-19
-5.974883699e-19
-2.652746794e-19
-6.345370327e-19
-2.609448696e-19
-6.728982373e-19
-2.555518037e-19
-7.125338449e-19
-2.491269929e-19
-7.534048413e-19
-2.417398327e-19
-7.954773546e-19
-2.335091849e-19
-8.387310794e-19
-2.246175506e-19
-8.83170031e-19
-2.153282049e-19
-9.288349949e-19
-2.060048857e-19
-9.758183099e-19
-1.971345542e-19
-1.02428125e-18
-1.893534706e-19
-1.074474579e-18
-1.834775138e-19
-1.126761477e-18
-1.805367971e-19
-1.181642765e-18
-1.818146376e-19
-1.239784331e-18
-1.888890507e-19
-1.302048121e-18
-2.036737686e-19
-1.369526859e-18
-2.284518572e-19
-1.44358208e-18
-2.658904533e-19
-1.525883348e-18
-3.190161553e-19
-1.618447027e-18
-3.911187602e-19
-1.723667134e-18
-4.855313853e-19
-1.844307867e-18
-6.052101726e-19
-1.983355279e-18
-7.520064483e-19
-2.143464517e-18
-9.255096955e-19
-2.325457052e-18
-1.121393956e-18
-2.525140404e-18
-1.329482532e-18
-2.728597599e-18
-1.532443834e-18
-2.909154785e-18
-1.706858666e-18
-3.033642547e-18
-1.827214423e-18
-3.071591256e-18
-1.865788535e-18
-2.987476718e-18
-1.762890952e-18
-2.598646165e-18
-1.389453021e-18
-1.967471479e-18
-4.620123796e-19
9.14625024e-20
-1.43020647e-20
7.479886719e-19
-7.795033474e-19
3.279250891e-19
7.194919656e-20
3.400993516e-20
2.507735567e-19
6.076149355e-20
-6.846946351e-20
4.157922189e-20
-8.03859079e-21
1.038602978e-19
-1.005015081e-19
1.246325993e-19
-2.972553535e-20
9.074914449e-20
6.567755299e-20
7.210204495e-20
6.747404721e-20
5.790835526e-20
7.361484354e-20
3.60373305e-20
9.026785309e-20
1.641151058e-20
8.973345641e-20
3.601533897e-21
7.864735228e-20
-2.930705008e-21
6.568589336e-20
-5.202602155e-21
5.499152909e-20
-5.061967913e-21
4.775859163e-20
-3.882377428e-21
4.404944739e-20
-2.740979135e-21
4.371971028e-20
-2.710912753e-21
4.67523315e-20
-5.155396238e-21
5.325595718e-20
-1.190264895e-20
6.312757345e-20
-2.492969461e-20
7.51249545e-20
-4.46948559e-20
8.505586929e-20
-6.651027079e-20
8.42091616e-20
-8.031299834e-20
6.598910515e-20
-9.81731739e-20
5.828565033e-20
-1.310585143e-19
5.546096448e-20
-1.096636746e-19
-3.996926e-20
-4.711657225e-20
-1.105717844e-19
-6.597631685e-20
-1.830192745e-20
-3.953108945e-20
-7.800904654e-20
-3.323486208e-19
2.397378839e-19
-7.546008129e-19
6.533705547e-20
-3.326572924e-19
-7.266359078e-19
1.308672808e-18
1.942285641e-19
1.723222017e-18
-1.120563309e-19
1.764802911e-18
-9.314906943e-19
1.535802227e-18
-1.209808761e-18
1.260216905e-18
-1.117247457e-18
1.002451791e-18
-8.371453218e-19
7.914935092e-19
-4.746740497e-19
6.516532498e-19
-9.992895595e-20
5.706893284e-19
2.151597531e-19
5.181315493e-19
4.080286276e-19
4.274365415e-19
4.398847309e-19
2.068640115e-19
2.960631146e-19
-5.127905906e-32
-3.238864479e-20
-4.09693912e-20
-3.347540146e-20
-4.339151562e-20
-3.515553296e-20
-4.764349886e-20
-3.733099632e-20
-5.312792431e-20
-3.994967628e-20
-5.944266613e-20
-4.299762904e-20
-6.633429191e-20
-4.648086599e-20
-7.364085258e-20
-5.041527169e-20
-8.125351277e-20
-5.482147691e-20
-8.909433386e-20
-5.972254183e-20
-9.710383813e-20
-6.514292893e-20
-1.052339636e-19
-7.110819182e-20
-1.134440061e-19
-7.764486656e-20
-1.216981068e-19
-8.478056179e-20
-1.299636922e-19
-9.254400387e-20
-1.382103725e-19
-1.009651646e-19
-1.464091779e-19
-1.100753065e-19
-1.545319526e-19
-1.199071039e-19
-1.625509085e-19
-1.30494663e-19
-1.704382028e-19
-1.418736038e-19
-1.781656414e-19
-1.540810006e-19
-1.857043538e-19
-1.671553526e-19
-1.930245411e-19
-1.811364218e-19
-2.000952166e-19
-1.960651087e-19
-2.068840061e-19
-2.119831894e-19
-2.13356902e-19
-2.289330582e-19
-2.194781008e-19
-2.469572744e-19
-2.252097944e-19
-2.66098069e-19
-2.305120279e-19
-2.863966862e-19
-2.353425943e-19
-3.078928008e-19
-2.396570712e-19
-3.30623914e-19
-2.434089156e-19
-3.546248697e-19
-2.465497572e-19
-3.799272316e-19
-2.49029735e-19
-4.06558561e-19
-2.507979637e-19
-4.345414363e-19
-2.518031205e-19
-4.638926242e-19
-2.51994345e-19
-4.946226364e-19
-2.513225498e-19
-5.267361924e-19
-2.497424643e-19
-5.602334358e-19
-2.472153287e-19
-5.951118136e-19
-2.437123072e-19
-6.313681951e-19
-2.392184887e-19
-6.690016433e-19
-2.337376866e-19
-7.080174916e-19
-2.272983189e-19
-7.484339717e-19
-2.199610953e-19
-7.902918314e-19
-2.118287668e-19
-8.336670852e-19
-2.030582097e-19
-8.786863629e-19
-1.938746221e-19
-9.255451836e-19
-1.845879267e-19
-9.745298015e-19
-1.756115563e-19
-1.026043908e-18
-1.674844555e-19
-1.080640432e-18
-1.608968197e-19
-1.139058269e-18
-1.567201214e-19
-1.202263129e-18
-1.56041046e-19
-1.271492538e-18
-1.601980764e-19
-1.348304494e-18
-1.708171894e-19
-1.434628131e-18
-1.898404071e-19
-1.532810567e-18
-2.195355857e-19
-1.645650303e-18
-2.624695936e-19
-1.776400476e-18
-3.21416543e-19
-1.928713723e-18
-3.991606455e-19
-2.106471779e-18
-4.981381631e-19
-2.31339072e-18
-6.198551185e-19
-2.552213354e-18
-7.640307748e-19
-2.823235195e-18
-9.274865804e-19
-3.12201865e-18
-1.102970346e-18
-3.436768062e-18
-1.27835656e-18
-3.746865848e-18
-1.43665951e-18
-4.023994013e-18
-1.556217196e-18
-4.230183192e-18
-1.607736533e-18
-4.299950663e-18
-1.543816307e-18
-4.082901605e-18
-1.301841755e-18
-3.369055451e-18
-8.57329859e-19
-2.105549187e-18
-5.719066011e-19
-1.014951268e-18
-8.265742335e-19
1.397318297e-30
-1.543955835e-19
-3.185835983e-20
3.398989843e-19
1.21192367e-19
-2.215163551e-19
-5.088369487e-20
1.640407168e-19
1.74636271e-19
-3.260202687e-19
2.200356886e-19
-7.513329582e-20
9.254563926e-20
1.931798553e-19
7.824284215e-20
8.177758664e-20
7.456136472e-20
7.730163924e-20
3.550293403e-20
1.293286016e-19
5.325407015e-21
1.199117897e-19
-9.359925472e-21
9.333113882e-20
-1.362506926e-20
6.994721721e-20
-1.243553936e-20
5.379793412e-20
-8.77111247e-21
4.409192316e-20
-4.212114561e-21
3.949006006e-20
2.91642349e-22
3.921692366e-20
3.792712627e-21
4.325400784e-20
4.716219971e-21
5.233636308e-20
9.473247349e-23
6.775208544e-20
-1.499878041e-20
9.022055228e-20
-4.554156386e-20
1.156030993e-19
-8.473032724e-20
1.234143761e-19
-8.801645404e-20
6.925169016e-20
-1.009978603e-19
7.126327458e-20
-2.264887398e-19
1.809550466e-19
-1.802661995e-19
-8.619384685e-20
4.515328416e-20
-3.359982639e-19
-1.256834368e-19
1.52532403e-19
2.484111577e-20
-2.285335991e-19
-1.596730993e-30
3.441417875e-19
7.255374803e-19
-8.496665898e-20
1.300170642e-18
-6.637526436e-19
2.235050913e-18
-3.036325418e-19
2.741258569e-18
-4.686837489e-19
2.732823452e-18
-8.58787834e-19
2.447512157e-18
-1.036425534e-18
2.082433592e-18
-9.791787757e-19
1.730127207e-18
-7.724271061e-19
1.426013346e-18
-4.906215318e-19
1.186767737e-18
-1.967429328e-19
9.924195446e-19
5.051786202e-20
8.181961315e-19
2.10726425e-19
6.040987665e-19
2.566440874e-19
2.612520155e-19
1.781686224e-19
-3.777456799e-32
-4.333169167e-20
-4.347589721e-20
-4.419241524e-20
-4.531397214e-20
-4.561946522e-20
-4.872108471e-20
-4.75685582e-20
-5.331538672e-20
-4.999981575e-20
-5.878100693e-20
-5.289348674e-20
-6.48855362e-20
-5.624550005e-20
-7.146292163e-20
-6.006254075e-20
-7.839316275e-20
-6.435814339e-20
-8.558687559e-20
-6.915012448e-20
-9.297481847e-20
-7.445910866e-20
-1.005011454e-19
-8.030771958e-20
-1.081190572e-19
-8.67201851e-20
-1.157879778e-19
-9.372215317e-20
-1.234716556e-19
-1.013406264e-19
-1.311368583e-19
-1.096039481e-19
-1.387524097e-19
-1.185418289e-19
-1.462884955e-19
-1.281853799e-19
-1.537161074e-19
-1.385671597e-19
-1.610066061e-19
-1.497211815e-19
-1.681313527e-19
-1.616828954e-19
-1.750614098e-19
-1.74489107e-19
-1.817672511e-19
-1.881778589e-19
-1.882185412e-19
-2.027882588e-19
-1.943839201e-19
-2.183602642e-19
-2.002308103e-19
-2.349343817e-19
-2.057252427e-19
-2.525512847e-19
-2.108317115e-19
-2.712513251e-19
-2.155130348e-19
-2.910740146e-19
-2.197303263e-19
-3.120575004e-19
-2.234430285e-19
-3.342381176e-19
-2.266090567e-19
-3.57649953e-19
-2.291850356e-19
-3.823243623e-19
-2.311265967e-19
-4.082893474e-19
-2.323887024e-19
-4.355689081e-19
-2.329261245e-19
-4.641826396e-19
-2.326941453e-19
-4.941459965e-19
-2.316496882e-19
-5.254714444e-19
-2.297529783e-19
-5.581704797e-19
-2.269697205e-19
-5.922562155e-19
-2.232736282e-19
-6.277465373e-19
-2.18649343e-19
-6.6466827e-19
-2.130958295e-19
-7.030634334e-19
-2.066307443e-19