/*--------------------------------*- C++ -*----------------------------------*\
  =========                 |
  \\      /  F ield         | OpenFOAM: The Open Source CFD Toolbox
   \\    /   O peration     | Website:  https://openfoam.org
    \\  /    A nd           | Version:  6
     \\/     M anipulation  |
\*---------------------------------------------------------------------------*/
FoamFile
{
    version     2.0;
    format      ascii;
    class       volVectorField;
    location    "0.0017";
    object      U;
}
// * * * * * * * * * * * * * * * * * * * * * * * * * * * * * * * * * * * * * //

dimensions      [0 1 -1 0 0 0 0];

internalField   nonuniform List<vector> 
9600
(
(0 -3.344151624e-11 2.121871501e-12)
(0 -3.343655801e-11 2.167277516e-12)
(0 -3.346353013e-11 2.261551348e-12)
(0 -3.349451109e-11 2.396933903e-12)
(0 -3.353268685e-11 2.565513775e-12)
(0 -3.357911863e-11 2.75944453e-12)
(0 -3.363515856e-11 2.971583591e-12)
(0 -3.370196609e-11 3.194938425e-12)
(0 -3.378048321e-11 3.423274768e-12)
(0 -3.387133759e-11 3.65055268e-12)
(0 -3.397478906e-11 3.87151401e-12)
(0 -3.409069582e-11 4.081084717e-12)
(0 -3.421852284e-11 4.274944835e-12)
(0 -3.435736703e-11 4.448902024e-12)
(0 -3.450600249e-11 4.59945806e-12)
(0 -3.46629181e-11 4.723175405e-12)
(0 -3.482636226e-11 4.817253914e-12)
(0 -3.499438687e-11 4.878888003e-12)
(0 -3.516492867e-11 4.905831037e-12)
(0 -3.533592073e-11 4.895715983e-12)
(0 -3.550543547e-11 4.846598674e-12)
(0 -3.567182968e-11 4.756261037e-12)
(0 -3.583388522e-11 4.622765104e-12)
(0 -3.599094433e-11 4.443748797e-12)
(0 -3.614309366e-11 4.216947951e-12)
(0 -3.629143261e-11 3.939395677e-12)
(0 -3.643845882e-11 3.607816489e-12)
(0 -3.65885253e-11 3.217706941e-12)
(0 -3.674829854e-11 2.763686159e-12)
(0 -3.692714269e-11 2.238608333e-12)
(0 -3.713745279e-11 1.633972769e-12)
(0 -3.739503954e-11 9.39011346e-13)
(0 -3.771967753e-11 1.40959629e-13)
(0 -3.81357954e-11 -7.760320846e-13)
(0 -3.867312472e-11 -1.830660265e-12)
(0 -3.936707734e-11 -3.045309273e-12)
(0 -4.025876156e-11 -4.445313223e-12)
(0 -4.139474034e-11 -6.059203035e-12)
(0 -4.282665494e-11 -7.917398406e-12)
(0 -4.461060135e-11 -1.005180681e-11)
(0 -4.680586424e-11 -1.249353751e-11)
(0 -4.947260282e-11 -1.527100365e-11)
(0 -5.266840711e-11 -1.84056928e-11)
(0 -5.64440455e-11 -2.190811508e-11)
(0 -6.083880538e-11 -2.577141529e-11)
(0 -6.587558866e-11 -2.996512454e-11)
(0 -7.155554658e-11 -3.442647503e-11)
(0 -7.785205438e-11 -3.905184514e-11)
(0 -8.470436762e-11 -4.36864327e-11)
(0 -9.201218528e-11 -4.811605857e-11)
(0 -9.963278405e-11 -5.206107649e-11)
(0 -1.073815976e-10 -5.51783623e-11)
(0 -1.150355197e-10 -5.707352576e-11)
(0 -1.22336402e-10 -5.733169e-11)
(0 -1.289898937e-10 -5.556961404e-11)
(0 -1.346515131e-10 -5.15118129e-11)
(0 -1.388929058e-10 -4.507704205e-11)
(0 -1.411585663e-10 -3.645127807e-11)
(0 -1.407674803e-10 -2.610707351e-11)
(0 -1.370736264e-10 -1.476407787e-11)
(0 -1.298717682e-10 -3.453117568e-12)
(0 -1.193832601e-10 5.788990537e-12)
(0 -1.025750387e-10 8.118721807e-12)
(0 -5.690067074e-11 -5.27019394e-12)
(0 8.459289199e-11 -2.683491609e-11)
(0 4.225663958e-10 8.856277398e-12)
(0 -1.003885613e-11 2.129191356e-10)
(0 -5.764991578e-12 -3.438962443e-11)
(0 9.219007419e-12 -8.888172304e-12)
(0 9.285332224e-12 6.805594545e-13)
(0 9.081172903e-12 5.983647344e-12)
(0 1.110100198e-11 9.07903661e-12)
(0 1.369264044e-11 7.857148753e-12)
(0 1.491259002e-11 5.635339637e-12)
(0 1.532677029e-11 4.223790426e-12)
(0 1.580532796e-11 3.211843284e-12)
(0 1.652767832e-11 2.059701724e-12)
(0 1.732333537e-11 5.006147443e-13)
(0 1.794239277e-11 -1.520378921e-12)
(0 1.81557722e-11 -3.927471191e-12)
(0 1.780607266e-11 -6.530245408e-12)
(0 1.68480322e-11 -9.08649212e-12)
(0 1.534247996e-11 -1.138679638e-11)
(0 1.341594366e-11 -1.329165674e-11)
(0 1.122079036e-11 -1.473528443e-11)
(0 8.903458979e-12 -1.572100428e-11)
(0 6.57946406e-12 -1.630516349e-11)
(0 4.318835025e-12 -1.657281057e-11)
(0 2.144146031e-12 -1.661103261e-11)
(0 3.869743903e-14 -1.648850815e-11)
(0 -2.039398934e-12 -1.624184871e-11)
(0 -4.140559048e-12 -1.587010321e-11)
(0 -6.306337745e-12 -1.533463005e-11)
(0 -8.552833416e-12 -1.456597295e-11)
(0 -1.085684021e-11 -1.347700233e-11)
(0 -1.314819149e-11 -1.19844427e-11)
(0 -1.531240948e-11 -1.003478686e-11)
(0 -1.720612939e-11 -7.62907575e-12)
(0 -1.868273001e-11 -4.8374261e-12)
(0 -1.962425425e-11 -1.803244561e-12)
(0 -1.998068856e-11 1.262259607e-12)
(0 -1.980942804e-11 4.116829025e-12)
(0 -1.9280324e-11 6.571621793e-12)
(0 -1.863470347e-11 8.552151532e-12)
(0 -1.813446501e-11 1.01135634e-11)
(0 -1.796252016e-11 1.151937964e-11)
(0 -1.79536068e-11 1.330115382e-11)
(0 -1.725597753e-11 1.585486815e-11)
(0 -1.532396973e-11 1.735656459e-11)
(0 -1.410552592e-11 1.448608593e-11)
(0 -1.522483834e-11 9.326276775e-12)
(0 -1.611682396e-11 -2.323069314e-13)
(0 -1.979461543e-12 -2.590897908e-11)
(0 5.982299893e-12 2.170438904e-10)
(0 -6.882760346e-10 -6.681394344e-10)
(0 -5.654136987e-10 -1.257022883e-09)
(0 -4.174763984e-10 -1.60998885e-09)
(0 -2.158411213e-10 -1.608749398e-09)
(0 8.961573589e-12 -1.10171032e-09)
(0 1.663989642e-11 8.832907143e-23)
(0 -3.303724726e-11 2.28036908e-12)
(0 -3.303456637e-11 2.329421678e-12)
(0 -3.306576733e-11 2.430983224e-12)
(0 -3.310336535e-11 2.57687172e-12)
(0 -3.315057226e-11 2.758296433e-12)
(0 -3.320848419e-11 2.966995379e-12)
(0 -3.327846949e-11 3.195010618e-12)
(0 -3.33616865e-11 3.435012207e-12)
(0 -3.345905667e-11 3.680025439e-12)
(0 -3.357116803e-11 3.92375437e-12)
(0 -3.369822495e-11 4.160273469e-12)
(0 -3.384002079e-11 4.384327828e-12)
(0 -3.399595106e-11 4.590991598e-12)
(0 -3.416503985e-11 4.775953671e-12)
(0 -3.434598138e-11 4.935164905e-12)
(0 -3.453717638e-11 5.065131551e-12)
(0 -3.473677786e-11 5.162565206e-12)
(0 -3.494274967e-11 5.22467679e-12)
(0 -3.515296626e-11 5.248801676e-12)
(0 -3.536534105e-11 5.232666442e-12)
(0 -3.557797853e-11 5.173989901e-12)
(0 -3.578931985e-11 5.070747122e-12)
(0 -3.599829105e-11 4.920778205e-12)
(0 -3.620446912e-11 4.722052555e-12)
(0 -3.640832681e-11 4.472226336e-12)
(0 -3.66115874e-11 4.168804348e-12)
(0 -3.681768688e-11 3.808556049e-12)
(0 -3.703227693e-11 3.387569218e-12)
(0 -3.726369523e-11 2.900630744e-12)
(0 -3.752337244e-11 2.341321006e-12)
(0 -3.782625558e-11 1.701419316e-12)
(0 -3.819137012e-11 9.709097565e-13)
(0 -3.864258288e-11 1.37158657e-13)
(0 -3.920945159e-11 -8.153240979e-13)
(0 -3.992791612e-11 -1.905780148e-12)
(0 -4.084063674e-11 -3.157236343e-12)
(0 -4.199698434e-11 -4.59699888e-12)
(0 -4.345283848e-11 -6.256282297e-12)
(0 -4.52702355e-11 -8.170374975e-12)
(0 -4.751660219e-11 -1.037784872e-11)
(0 -5.026307863e-11 -1.291992829e-11)
(0 -5.358156412e-11 -1.583838902e-11)
(0 -5.754050056e-11 -1.917321712e-11)
(0 -6.219973747e-11 -2.295862091e-11)
(0 -6.760476375e-11 -2.721865329e-11)
(0 -7.378032497e-11 -3.196082514e-11)
(0 -8.072321506e-11 -3.716871416e-11)
(0 -8.83943705e-11 -4.279204818e-11)
(0 -9.671132269e-11 -4.873596392e-11)
(0 -1.055432487e-10 -5.484932317e-11)
(0 -1.147115073e-10 -6.09156777e-11)
(0 -1.239982715e-10 -6.664915211e-11)
(0 -1.331650648e-10 -7.170249325e-11)
(0 -1.419811082e-10 -7.569480528e-11)
(0 -1.502563834e-10 -7.827051229e-11)
(0 -1.578659951e-10 -7.919397116e-11)
(0 -1.647477333e-10 -7.847178055e-11)
(0 -1.7087095e-10 -7.645612331e-11)
(0 -1.762540269e-10 -7.381494627e-11)
(0 -1.813536433e-10 -7.117203852e-11)
(0 -1.886262416e-10 -6.830352401e-11)
(0 -2.062604831e-10 -6.336728596e-11)
(0 -2.532899811e-10 -5.515300267e-11)
(0 -3.451336757e-10 -5.667367599e-11)
(0 -4.296328933e-10 -7.292180203e-11)
(0 -3.30622283e-11 1.453795139e-21)
(0 4.162279222e-11 3.180920631e-10)
(0 9.853079657e-11 2.13873195e-12)
(0 3.421338104e-11 3.921453104e-12)
(0 1.685646739e-11 5.166988e-12)
(0 1.216837887e-11 6.394923402e-12)
(0 1.175173457e-11 7.069947544e-12)
(0 1.265659912e-11 6.374847718e-12)
(0 1.349884916e-11 5.060488996e-12)
(0 1.408296334e-11 3.805592803e-12)
(0 1.460153761e-11 2.638600232e-12)
(0 1.513553201e-11 1.382795381e-12)
(0 1.562164182e-11 -9.765644949e-14)
(0 1.593119364e-11 -1.843986828e-12)
(0 1.593236825e-11 -3.811704842e-12)
(0 1.553070822e-11 -5.888028248e-12)
(0 1.469340519e-11 -7.926881355e-12)
(0 1.345015225e-11 -9.791493572e-12)
(0 1.187564247e-11 -1.138056024e-11)
(0 1.006675919e-11 -1.263814656e-11)
(0 8.121390023e-12 -1.355267451e-11)
(0 6.121494682e-12 -1.414833138e-11)
(0 4.122727797e-12 -1.447022576e-11)
(0 2.151673837e-12 -1.456852228e-11)
(0 2.096985477e-13 -1.448426929e-11)
(0 -1.718649161e-12 -1.424005882e-11)
(0 -3.654733594e-12 -1.383503758e-11)
(0 -5.614082739e-12 -1.324532507e-11)
(0 -7.595482e-12 -1.242880641e-11)
(0 -9.572693827e-12 -1.133520372e-11)
(0 -1.149096425e-11 -9.919868365e-12)
(0 -1.327027039e-11 -8.160085737e-12)
(0 -1.481625587e-11 -6.06922487e-12)
(0 -1.603753946e-11 -3.70527126e-12)
(0 -1.686702096e-11 -1.170776644e-12)
(0 -1.72844488e-11 1.397146509e-12)
(0 -1.733356269e-11 3.853472089e-12)
(0 -1.712082368e-11 6.087100183e-12)
(0 -1.679096567e-11 8.055382817e-12)
(0 -1.648669262e-11 9.800174194e-12)
(0 -1.628718599e-11 1.145573836e-11)
(0 -1.613019423e-11 1.319344602e-11)
(0 -1.584534111e-11 1.497482445e-11)
(0 -1.565179481e-11 1.610618077e-11)
(0 -1.695169968e-11 1.581271283e-11)
(0 -2.269732886e-11 1.485949864e-11)
(0 -4.124869314e-11 1.367367255e-11)
(0 -1.067158945e-10 1.151154339e-11)
(0 -5.010343784e-11 3.261087838e-10)
(0 2.8937473e-11 1.546268184e-21)
(0 -7.446907174e-11 -1.01226932e-09)
(0 -2.274070857e-10 -1.59601736e-09)
(0 -1.82863256e-10 -1.768826201e-09)
(0 1.863949882e-11 -1.285446443e-09)
(0 1.943112781e-11 1.125914847e-22)
(0 -3.260181996e-11 2.45185706e-12)
(0 -3.260160796e-11 2.504823139e-12)
(0 -3.263739315e-11 2.614399111e-12)
(0 -3.268216832e-11 2.771715022e-12)
(0 -3.273917929e-11 2.967297305e-12)
(0 -3.280956302e-11 3.192191281e-12)
(0 -3.289470247e-11 3.437820633e-12)
(0 -3.299575398e-11 3.696238534e-12)
(0 -3.311361514e-11 3.959932639e-12)
(0 -3.324883303e-11 4.22207146e-12)
(0 -3.340155389e-11 4.476271097e-12)
(0 -3.357150667e-11 4.716814211e-12)
(0 -3.375801476e-11 4.938385432e-12)
(0 -3.396002534e-11 5.136277623e-12)
(0 -3.417614377e-11 5.306119815e-12)
(0 -3.440466853e-11 5.444092095e-12)
(0 -3.464363821e-11 5.546658969e-12)
(0 -3.48909054e-11 5.610782948e-12)
(0 -3.514425212e-11 5.633634829e-12)
(0 -3.540153387e-11 5.612784724e-12)
(0 -3.566083526e-11 5.545894158e-12)
(0 -3.592061899e-11 5.430911035e-12)
(0 -3.617988012e-11 5.265770819e-12)
(0 -3.643834968e-11 5.048585519e-12)
(0 -3.669680278e-11 4.777287733e-12)
(0 -3.695749657e-11 4.44971352e-12)
(0 -3.722470176e-11 4.063117429e-12)
(0 -3.750524577e-11 3.614161854e-12)
(0 -3.780899889e-11 3.098407648e-12)
(0 -3.814932581e-11 2.510326987e-12)
(0 -3.854362981e-11 1.842769068e-12)
(0 -3.901412568e-11 1.086816604e-12)
(0 -3.958883909e-11 2.309675725e-13)
(0 -4.030263081e-11 -7.392836982e-13)
(0 -4.119796517e-11 -1.842362885e-12)
(0 -4.2325281e-11 -3.100900735e-12)
(0 -4.374307124e-11 -4.542401929e-12)
(0 -4.551785406e-11 -6.199349326e-12)
(0 -4.772398504e-11 -8.109786452e-12)
(0 -5.044289737e-11 -1.031723394e-11)
(0 -5.376120971e-11 -1.287072072e-11)
(0 -5.776737701e-11 -1.582369197e-11)
(0 -6.254697095e-11 -1.923269287e-11)
(0 -6.817686785e-11 -2.315470757e-11)
(0 -7.471845208e-11 -2.764390898e-11)
(0 -8.220963869e-11 -3.274632794e-11)
(0 -9.065548018e-11 -3.849279711e-11)
(0 -1.000177297e-10 -4.488862527e-11)
(0 -1.102049905e-10 -5.190079331e-11)
(0 -1.210665083e-10 -5.944205656e-11)
(0 -1.323937523e-10 -6.735413358e-11)
(0 -1.439347608e-10 -7.539183617e-11)
(0 -1.554269544e-10 -8.321540803e-11)
(0 -1.666527885e-10 -9.040144854e-11)
(0 -1.775154651e-10 -9.649017666e-11)
(0 -1.881163859e-10 -1.010877887e-10)
(0 -1.987908278e-10 -1.040373027e-10)
(0 -2.100243536e-10 -1.056231905e-10)
(0 -2.221697933e-10 -1.066269204e-10)
(0 -2.350980072e-10 -1.076916746e-10)
(0 -2.487415176e-10 -1.066168993e-10)
(0 -2.685808441e-10 -9.134020863e-11)
(0 -3.301533159e-10 -2.800580723e-11)
(0 -5.30541485e-10 1.351459057e-10)
(0 -1.22837453e-09 4.082357126e-10)
(0 -7.991413402e-11 -2.354691184e-10)
(0 -8.391254111e-11 1.344312465e-10)
(0 2.058178566e-12 4.292493363e-11)
(0 1.22472634e-11 1.726742451e-11)
(0 1.17588025e-11 9.670217021e-12)
(0 1.098413244e-11 7.35833245e-12)
(0 1.108092629e-11 6.430294689e-12)
(0 1.168318189e-11 5.511293032e-12)
(0 1.23433351e-11 4.425623013e-12)
(0 1.290488153e-11 3.298990455e-12)
(0 1.338253054e-11 2.153533369e-12)
(0 1.379142164e-11 9.299277276e-13)
(0 1.409655316e-11 -4.307921587e-13)
(0 1.422834438e-11 -1.946867864e-12)
(0 1.411173078e-11 -3.588128607e-12)
(0 1.369089615e-11 -5.28400335e-12)
(0 1.294456687e-11 -6.942362731e-12)
(0 1.188880107e-11 -8.472393593e-12)
(0 1.056929068e-11 -9.801567294e-12)
(0 9.048676084e-12 -1.08843656e-11)
(0 7.393274156e-12 -1.170342754e-11)
(0 5.661912815e-12 -1.226515458e-11)
(0 3.89864412e-12 -1.259111961e-11)
(0 2.130102501e-12 -1.270830137e-11)
(0 3.671608993e-13 -1.26399208e-11)
(0 -1.390167228e-12 -1.239897257e-11)
(0 -3.145825293e-12 -1.198469143e-11)
(0 -4.900106577e-12 -1.13827651e-11)
(0 -6.642712069e-12 -1.056877537e-11)
(0 -8.347902155e-12 -9.515038016e-12)
(0 -9.973073506e-12 -8.199569725e-12)
(0 -1.146176599e-11 -6.616043765e-12)
(0 -1.275131491e-11 -4.781963338e-12)
(0 -1.378428179e-11 -2.742944292e-12)
(0 -1.452183648e-11 -5.709606592e-13)
(0 -1.495643982e-11 1.644475092e-12)
(0 -1.511947436e-11 3.813539644e-12)
(0 -1.507841327e-11 5.868576797e-12)
(0 -1.492162945e-11 7.782615827e-12)
(0 -1.473410947e-11 9.576517977e-12)
(0 -1.456924833e-11 1.131054555e-11)
(0 -1.443452071e-11 1.304270382e-11)
(0 -1.434324278e-11 1.474550772e-11)
(0 -1.448608135e-11 1.628116091e-11)
(0 -1.535220804e-11 1.780033623e-11)
(0 -1.736387861e-11 2.062579105e-11)
(0 -1.946477914e-11 2.855636256e-11)
(0 -1.153813034e-11 5.416555472e-11)
(0 7.048317227e-11 1.448176684e-10)
(0 7.189741207e-11 -2.277863305e-10)
(0 8.363716219e-10 -2.56180193e-10)
(0 -9.044735646e-11 -1.268776908e-09)
(0 -2.291098777e-10 -1.836318401e-09)
(0 -3.386234505e-12 -1.480677516e-09)
(0 2.343267139e-11 1.491794127e-22)
(0 -3.213243233e-11 2.636922096e-12)
(0 -3.213489051e-11 2.694169446e-12)
(0 -3.217563406e-11 2.812533549e-12)
(0 -3.222816612e-11 2.98237861e-12)
(0 -3.229577436e-11 3.193527695e-12)
(0 -3.237964198e-11 3.436258445e-12)
(0 -3.248117082e-11 3.701361751e-12)
(0 -3.260151437e-11 3.98020182e-12)
(0 -3.274154731e-11 4.264717736e-12)
(0 -3.290177473e-11 4.547473718e-12)
(0 -3.308228757e-11 4.821619262e-12)
(0 -3.32827496e-11 5.080907256e-12)
(0 -3.350241124e-11 5.319629553e-12)
(0 -3.374013586e-11 5.532620502e-12)
(0 -3.399442938e-11 5.715191631e-12)
(0 -3.426347124e-11 5.863142587e-12)
(0 -3.45451644e-11 5.972703127e-12)
(0 -3.483722229e-11 6.040540004e-12)
(0 -3.513729832e-11 6.063680968e-12)
(0 -3.544314105e-11 6.039504033e-12)
(0 -3.575275248e-11 5.965652481e-12)
(0 -3.606453612e-11 5.840033689e-12)
(0 -3.63774648e-11 5.66074376e-12)
(0 -3.66913201e-11 5.426054608e-12)
(0 -3.700706385e-11 5.134281139e-12)
(0 -3.732734848e-11 4.783668601e-12)
(0 -3.765710801e-11 4.372151116e-12)
(0 -3.80041332e-11 3.897166234e-12)
(0 -3.837958297e-11 3.355398146e-12)
(0 -3.879850338e-11 2.742588975e-12)
(0 -3.928052405e-11 2.053204589e-12)
(0 -3.985085813e-11 1.280029918e-12)
(0 -4.054154083e-11 4.135187531e-13)
(0 -4.139263326e-11 -5.588898081e-13)
(0 -4.245310156e-11 -1.653534038e-12)
(0 -4.378130418e-11 -2.891157677e-12)
(0 -4.544528005e-11 -4.297602484e-12)
(0 -4.752302582e-11 -5.904498226e-12)
(0 -5.010260917e-11 -7.750123963e-12)
(0 -5.328158624e-11 -9.880163683e-12)
(0 -5.716512044e-11 -1.234830805e-11)
(0 -6.186253309e-11 -1.521638967e-11)
(0 -6.748238507e-11 -1.85541076e-11)
(0 -7.412624384e-11 -2.243803408e-11)
(0 -8.188098704e-11 -2.694966825e-11)
(0 -9.080917586e-11 -3.217169548e-11)
(0 -1.009371177e-10 -3.818165605e-11)
(0 -1.122410266e-10 -4.504183511e-11)
(0 -1.246330581e-10 -5.278446656e-11)
(0 -1.379505907e-10 -6.139105714e-11)
(0 -1.519538289e-10 -7.076517955e-11)
(0 -1.663392399e-10 -8.069924217e-11)
(0 -1.807793614e-10 -9.0839773e-11)
(0 -1.950006963e-10 -1.006621249e-10)
(0 -2.089069403e-10 -1.094767403e-10)
(0 -2.227390568e-10 -1.165072869e-10)
(0 -2.37218403e-10 -1.211066987e-10)
(0 -2.534971263e-10 -1.231869274e-10)
(0 -2.724699358e-10 -1.238626267e-10)
(0 -2.923234336e-10 -1.258622875e-10)
(0 -3.022424815e-10 -1.318977152e-10)
(0 -2.697992247e-10 -1.368406749e-10)
(0 -1.312432791e-10 -1.071369993e-10)
(0 2.254964319e-10 2.917906842e-11)
(0 8.652466214e-11 2.202346501e-10)
(0 2.53566024e-11 -3.232445876e-10)
(0 -7.798935227e-11 1.41707196e-11)
(0 -1.863302566e-11 1.786209204e-11)
(0 9.586643795e-13 1.255286513e-11)
(0 6.947375334e-12 8.887883202e-12)
(0 8.928456534e-12 6.937701216e-12)
(0 9.90469515e-12 5.781456322e-12)
(0 1.065192745e-11 4.814325623e-12)
(0 1.128654658e-11 3.831648128e-12)
(0 1.181087369e-11 2.811159923e-12)
(0 1.223247488e-11 1.74652284e-12)
(0 1.255120648e-11 6.140881646e-13)
(0 1.274484622e-11 -6.086961565e-13)
(0 1.277385719e-11 -1.924666948e-12)
(0 1.259523276e-11 -3.310080636e-12)
(0 1.21764741e-11 -4.717614241e-12)
(0 1.150501494e-11 -6.086324783e-12)
(0 1.059094768e-11 -7.354245724e-12)
(0 9.46367046e-12 -8.469036489e-12)
(0 8.164898948e-12 -9.3943177e-12)
(0 6.740601046e-12 -1.011148666e-11)
(0 5.233802604e-12 -1.061761836e-11)
(0 3.679581007e-12 -1.092067747e-11)
(0 2.102872654e-12 -1.103350598e-11)
(0 5.190273464e-13 -1.096809665e-11)
(0 -1.06341979e-12 -1.073121218e-11)
(0 -2.638526122e-12 -1.032206749e-11)
(0 -4.198166685e-12 -9.732346454e-12)
(0 -5.727754918e-12 -8.948595015e-12)
(0 -7.203488176e-12 -7.956631581e-12)
(0 -8.591970003e-12 -6.747310543e-12)
(0 -9.852664003e-12 -5.322459796e-12)
(0 -1.094315639e-11 -3.69953266e-12)
(0 -1.182653678e-11 -1.913439896e-12)
(0 -1.247960158e-11 -1.446988508e-14)
(0 -1.289994849e-11 1.938292143e-12)
(0 -1.310946098e-11 3.887698419e-12)
(0 -1.31517475e-11 5.791082309e-12)
(0 -1.308302448e-11 7.629979459e-12)
(0 -1.29587629e-11 9.412779421e-12)
(0 -1.282100015e-11 1.116732159e-11)
(0 -1.269523205e-11 1.292148993e-11)
(0 -1.260688401e-11 1.468349577e-11)
(0 -1.25969663e-11 1.647276231e-11)
(0 -1.260706953e-11 1.848186154e-11)
(0 -1.194130255e-11 2.128730227e-11)
(0 -7.708929434e-12 2.576021146e-11)
(0 9.545411575e-12 3.177680562e-11)
(0 6.595087319e-11 2.87759482e-11)
(0 -3.986777971e-11 -3.070259066e-10)
(0 -9.420744984e-11 2.284649104e-10)
(0 -7.165281843e-10 -9.873151228e-10)
(0 -5.113405774e-10 -1.954696053e-09)
(0 -7.893252771e-11 -1.75050998e-09)
(0 2.948422228e-11 2.076378866e-22)
(0 -3.162607097e-11 2.836133636e-12)
(0 -3.163141064e-11 2.898097818e-12)
(0 -3.167749582e-11 3.026090128e-12)
(0 -3.173837786e-11 3.209705097e-12)
(0 -3.181739293e-11 3.43795584e-12)
(0 -3.191577757e-11 3.700352437e-12)
(0 -3.203495621e-11 3.986952901e-12)
(0 -3.217608332e-11 4.288439066e-12)
(0 -3.234001236e-11 4.596104674e-12)
(0 -3.252721028e-11 4.901919664e-12)
(0 -3.273771612e-11 5.198471339e-12)
(0 -3.297113075e-11 5.478998012e-12)
(0 -3.322663023e-11 5.737305568e-12)
(0 -3.350298793e-11 5.967791648e-12)
(0 -3.379859783e-11 6.165362608e-12)
(0 -3.41115022e-11 6.325466439e-12)
(0 -3.443944568e-11 6.444014836e-12)
(0 -3.477997278e-11 6.517411291e-12)
(0 -3.513056832e-11 6.542461505e-12)
(0 -3.548881937e-11 6.516390223e-12)
(0 -3.585257151e-11 6.436753755e-12)
(0 -3.622007948e-11 6.301472184e-12)
(0 -3.659018627e-11 6.108750869e-12)
(0 -3.696259934e-11 5.857100937e-12)
(0 -3.733831725e-11 5.545206584e-12)
(0 -3.77202002e-11 5.171861594e-12)
(0 -3.811360595e-11 4.73575326e-12)
(0 -3.852699101e-11 4.235350693e-12)
(0 -3.897245799e-11 3.668676674e-12)
(0 -3.946636333e-11 3.033165752e-12)
(0 -4.003018359e-11 2.325309533e-12)
(0 -4.069174591e-11 1.540261046e-12)
(0 -4.148669218e-11 6.711590178e-13)
(0 -4.245985632e-11 -2.915260704e-13)
(0 -4.36662834e-11 -1.360783081e-12)
(0 -4.517191316e-11 -2.553744318e-12)
(0 -4.705419173e-11 -3.892588393e-12)
(0 -4.940277879e-11 -5.405527762e-12)
(0 -5.232009779e-11 -7.128130771e-12)
(0 -5.592109928e-11 -9.104631545e-12)
(0 -6.033164327e-11 -1.138931958e-11)
(0 -6.568527757e-11 -1.404769095e-11)
(0 -7.211849668e-11 -1.715754823e-11)
(0 -7.976445243e-11 -2.080965401e-11)
(0 -8.874466146e-11 -2.510771756e-11)
(0 -9.915790059e-11 -3.016666165e-11)
(0 -1.110656151e-10 -3.610822567e-11)
(0 -1.244739355e-10 -4.305214592e-11)
(0 -1.39313639e-10 -5.110111002e-11)
(0 -1.554208893e-10 -6.031644113e-11)
(0 -1.725238403e-10 -7.068125589e-11)
(0 -1.902441414e-10 -8.204773771e-11)
(0 -2.081279624e-10 -9.406793674e-11)
(0 -2.257270179e-10 -1.061124316e-10)
(0 -2.427562295e-10 -1.171943273e-10)
(0 -2.593597749e-10 -1.259457524e-10)
(0 -2.765021721e-10 -1.307576961e-10)
(0 -2.9641048e-10 -1.303077679e-10)
(0 -3.226131099e-10 -1.248357776e-10)
(0 -3.58074553e-10 -1.183353508e-10)
(0 -3.982630397e-10 -1.20334877e-10)
(0 -4.139679058e-10 -1.416386923e-10)
(0 -3.380299268e-10 -1.54683687e-10)
(0 -2.574671309e-11 1.172703991e-21)
(0 7.476161024e-11 3.142146395e-10)
(0 1.120281333e-10 -8.656179923e-11)
(0 1.121277535e-11 -1.834768974e-11)
(0 4.403240962e-13 1.799573268e-12)
(0 3.273054574e-12 6.193826544e-12)
(0 6.143638597e-12 6.390552368e-12)
(0 7.877705564e-12 5.7229723e-12)
(0 8.957550703e-12 4.943391137e-12)
(0 9.7333737e-12 4.132814697e-12)
(0 1.03401694e-11 3.275410455e-12)
(0 1.081975624e-11 2.367382916e-12)
(0 1.118545878e-11 1.407197068e-12)
(0 1.143620264e-11 3.884487586e-13)
(0 1.155779805e-11 -6.935656953e-13)
(0 1.152695991e-11 -1.833190476e-12)
(0 1.131878348e-11 -3.010068361e-12)
(0 1.091465201e-11 -4.19021932e-12)
(0 1.030793539e-11 -5.331228892e-12)
(0 9.506089362e-12 -6.389374711e-12)
(0 8.529218702e-12 -7.32610656e-12)
(0 7.406225913e-12 -8.112431969e-12)
(0 6.169973495e-12 -8.730553287e-12)
(0 4.852722012e-12 -9.17308119e-12)
(0 3.482756497e-12 -9.440347975e-12)
(0 2.082683315e-12 -9.536862908e-12)
(0 6.694547021e-13 -9.467708707e-12)
(0 -7.441380646e-13 -9.235758943e-12)
(0 -2.146959566e-12 -8.840101499e-12)
(0 -3.526634107e-12 -8.276052696e-12)
(0 -4.866997198e-12 -7.536661692e-12)
(0 -6.146617683e-12 -6.615554812e-12)
(0 -7.338901725e-12 -5.510474187e-12)
(0 -8.41398811e-12 -4.226813315e-12)
(0 -9.342295006e-12 -2.780110169e-12)
(0 -1.009921902e-11 -1.196672329e-12)
(0 -1.067010445e-11 4.883578653e-13)
(0 -1.105427152e-11 2.235568514e-12)
(0 -1.12666842e-11 4.007963328e-12)
(0 -1.133613224e-11 5.778131511e-12)
(0 -1.129993234e-11 7.533506612e-12)
(0 -1.119676735e-11 9.277397338e-12)
(0 -1.106053782e-11 1.102461135e-11)
(0 -1.091834652e-11 1.279257976e-11)
(0 -1.079197041e-11 1.459435234e-11)
(0 -1.068771559e-11 1.644462597e-11)
(0 -1.053766809e-11 1.836715959e-11)
(0 -1.00855287e-11 2.028145967e-11)
(0 -8.9752758e-12 2.142056594e-11)
(0 -8.522393592e-12 1.840573663e-11)
(0 -2.233817622e-11 -4.464266944e-13)
(0 -1.264198227e-10 -6.790568262e-11)
(0 -9.098029269e-11 3.309166131e-10)
(0 1.751645098e-11 1.31798901e-21)
(0 -2.914401394e-10 -1.838376044e-09)
(0 2.504123518e-12 -2.034809431e-09)
(0 3.933080626e-11 3.11875515e-22)
(0 -3.107949409e-11 3.0500239e-12)
(0 -3.108792661e-11 3.117172455e-12)
(0 -3.11397401e-11 3.25574162e-12)
(0 -3.120957582e-11 3.454478319e-12)
(0 -3.130082253e-11 3.701541405e-12)
(0 -3.141477657e-11 3.985599407e-12)
(0 -3.155289128e-11 4.29594099e-12)
(0 -3.171632693e-11 4.622497904e-12)
(0 -3.190592222e-11 4.955887769e-12)
(0 -3.212211239e-11 5.287420791e-12)
(0 -3.236489033e-11 5.609095182e-12)
(0 -3.263379839e-11 5.913573007e-12)
(0 -3.292793753e-11 6.19415323e-12)
(0 -3.324598466e-11 6.444740834e-12)
(0 -3.358620943e-11 6.65982165e-12)
(0 -3.394650011e-11 6.834438411e-12)
(0 -3.432442175e-11 6.964169357e-12)
(0 -3.471732053e-11 7.045100448e-12)
(0 -3.512247234e-11 7.073797233e-12)
(0 -3.553724489e-11 7.047277763e-12)
(0 -3.595925079e-11 6.962996175e-12)
(0 -3.638649768e-11 6.818835735e-12)
(0 -3.681757995e-11 6.613106949e-12)
(0 -3.725198615e-11 6.344529053e-12)
(0 -3.769057087e-11 6.012184616e-12)
(0 -3.813616884e-11 5.615436803e-12)
(0 -3.859426089e-11 5.153830318e-12)
(0 -3.907359694e-11 4.626984583e-12)
(0 -3.958678653e-11 4.034483264e-12)
(0 -4.015101122e-11 3.375714005e-12)
(0 -4.078906582e-11 2.649598226e-12)
(0 -4.153080207e-11 1.854162513e-12)
(0 -4.241478879e-11 9.859743714e-13)
(0 -4.348984521e-11 3.94977672e-14)
(0 -4.481622643e-11 -9.935804831e-13)
(0 -4.646657344e-11 -2.125110242e-12)
(0 -4.852694377e-11 -3.371436493e-12)
(0 -5.109804903e-11 -4.754678614e-12)
(0 -5.429634876e-11 -6.304323919e-12)
(0 -5.825432636e-11 -8.059062577e-12)
(0 -6.311939022e-11 -1.006878612e-11)
(0 -6.905124555e-11 -1.239677665e-11)
(0 -7.621778139e-11 -1.512212174e-11)
(0 -8.47892441e-11 -1.834225458e-11)
(0 -9.492991366e-11 -2.217519214e-11)
(0 -1.067861011e-10 -2.676066495e-11)
(0 -1.204693517e-10 -3.22588906e-11)
(0 -1.36034288e-10 -3.884517308e-11)
(0 -1.534512965e-10 -4.66974799e-11)
(0 -1.725753728e-10 -5.597257148e-11)
(0 -1.931147344e-10 -6.676441459e-11)
(0 -2.146073114e-10 -7.90372074e-11)
(0 -2.364197926e-10 -9.252450597e-11)
(0 -2.577932014e-10 -1.065863161e-10)
(0 -2.779764285e-10 -1.200212735e-10)
(0 -2.96523305e-10 -1.308514158e-10)
(0 -3.138821756e-10 -1.361566948e-10)
(0 -3.324337324e-10 -1.322001036e-10)
(0 -3.578378873e-10 -1.154467917e-10)
(0 -3.991009822e-10 -8.517431092e-11)
(0 -4.632927171e-10 -4.759920778e-11)
(0 -5.286263437e-10 -1.21321889e-11)
(0 -5.700143555e-10 6.387538736e-12)
(0 -8.379155798e-11 -1.78858403e-11)
(0 -7.604955423e-11 9.642667454e-11)
(0 1.478805334e-11 3.123743534e-12)
(0 1.037202008e-11 -2.799587661e-12)
(0 5.90849065e-12 1.489820728e-12)
(0 5.549643485e-12 4.032125217e-12)
(0 6.47652109e-12 4.757372154e-12)
(0 7.481295302e-12 4.620131974e-12)
(0 8.314537548e-12 4.136230366e-12)
(0 8.983946766e-12 3.498063278e-12)
(0 9.521114795e-12 2.769717563e-12)
(0 9.942660308e-12 1.975672176e-12)
(0 1.025354073e-11 1.126298667e-12)
(0 1.045044372e-11 2.259217615e-13)
(0 1.052320699e-11 -7.210035775e-13)
(0 1.045735453e-11 -1.704629062e-12)
(0 1.023820391e-11 -2.706960778e-12)
(0 9.855313564e-12 -3.702129363e-12)
(0 9.305859554e-12 -4.65916849e-12)
(0 8.596070011e-12 -5.546056985e-12)
(0 7.740613201e-12 -6.333697716e-12)
(0 6.760452222e-12 -6.998797025e-12)
(0 5.679951824e-12 -7.525212962e-12)
(0 4.524007916e-12 -7.90373814e-12)
(0 3.315799289e-12 -8.130690954e-12)
(0 2.075511922e-12 -8.205817932e-12)
(0 8.201313111e-13 -8.130120835e-12)
(0 -4.358125819e-13 -7.904074993e-12)
(0 -1.678819873e-12 -7.526630792e-12)
(0 -2.894726879e-12 -6.995168189e-12)
(0 -4.067257034e-12 -6.306451657e-12)
(0 -5.177300667e-12 -5.458367272e-12)
(0 -6.203228506e-12 -4.452079749e-12)
(0 -7.122299986e-12 -3.294042524e-12)
(0 -7.913015403e-12 -1.99727851e-12)
(0 -8.558068746e-12 -5.813740502e-13)
(0 -9.047360732e-12 9.291055432e-13)
(0 -9.380343025e-12 2.507757753e-12)
(0 -9.566897987e-12 4.130542023e-12)
(0 -9.626204214e-12 5.780065254e-12)
(0 -9.583758649e-12 7.448620486e-12)
(0 -9.467658162e-12 9.13881573e-12)
(0 -9.305817724e-12 1.086127106e-11)
(0 -9.125491045e-12 1.262996089e-11)
(0 -8.9548378e-12 1.445677344e-11)
(0 -8.824159048e-12 1.634426594e-11)
(0 -8.770235833e-12 1.826071866e-11)
(0 -8.887896205e-12 2.005080302e-11)
(0 -9.584652477e-12 2.123509638e-11)
(0 -1.232158107e-11 2.08721479e-11)
(0 -2.036054585e-11 1.893889847e-11)
(0 -3.049851976e-11 2.692698066e-11)
(0 4.971064912e-11 1.204348323e-10)
(0 6.708958329e-11 7.807297873e-13)
(0 3.121307524e-11 -1.459334418e-09)
(0 1.515846441e-11 -2.322468343e-09)
(0 5.701791853e-11 5.198919113e-22)
(0 -3.048919816e-11 3.279010695e-12)
(0 -3.050094056e-11 3.351873036e-12)
(0 -3.055887389e-11 3.502059364e-12)
(0 -3.063827315e-11 3.717416834e-12)
(0 -3.074258677e-11 3.985168126e-12)
(0 -3.08731794e-11 4.293092278e-12)
(0 -3.103154035e-11 4.629634122e-12)
(0 -3.121884379e-11 4.983935091e-12)
(0 -3.143592293e-11 5.345865995e-12)
(0 -3.168319087e-11 5.706042943e-12)
(0 -3.196060303e-11 6.055809701e-12)
(0 -3.226764779e-11 6.387223192e-12)
(0 -3.260335144e-11 6.693018241e-12)
(0 -3.296628919e-11 6.966583499e-12)
(0 -3.335459717e-11 7.201929412e-12)
(0 -3.376599636e-11 7.393669134e-12)
(0 -3.41978541e-11 7.536986806e-12)
(0 -3.464729439e-11 7.62761886e-12)
(0 -3.511134573e-11 7.661822775e-12)
(0 -3.558710068e-11 7.636371088e-12)
(0 -3.60718621e-11 7.548542206e-12)
(0 -3.656328997e-11 7.396141691e-12)
(0 -3.705960315e-11 7.177512692e-12)
(0 -3.755991121e-11 6.891551155e-12)
(0 -3.806471882e-11 6.537686074e-12)
(0 -3.857656612e-11 6.115855668e-12)
(0 -3.910070936e-11 5.626463052e-12)
(0 -3.964576093e-11 5.070350969e-12)
(0 -4.022432764e-11 4.448749314e-12)
(0 -4.085382999e-11 3.763179924e-12)
(0 -4.155770833e-11 3.015232502e-12)
(0 -4.236704533e-11 2.206218557e-12)
(0 -4.332237836e-11 1.336706733e-12)
(0 -4.447536272e-11 4.060216485e-13)
(0 -4.58901374e-11 -5.883191125e-13)
(0 -4.764459328e-11 -1.651294732e-12)
(0 -4.983188716e-11 -2.791373404e-12)
(0 -5.256226648e-11 -4.021883996e-12)
(0 -5.596477799e-11 -5.362793868e-12)
(0 -6.018818408e-11 -6.842818241e-12)
(0 -6.540062463e-11 -8.501912704e-12)
(0 -7.178795632e-11 -1.03942657e-11)
(0 -7.955078231e-11 -1.259198618e-11)
(0 -8.889975417e-11 -1.51894739e-11)
(0 -1.000480768e-10 -1.830822537e-11)
(0 -1.131996894e-10 -2.210141993e-11)
(0 -1.285315278e-10 -2.675727054e-11)
(0 -1.461683953e-10 -3.249934781e-11)
(0 -1.661490377e-10 -3.958077018e-11)
(0 -1.88382347e-10 -4.826687529e-11)
(0 -2.125943635e-10 -5.879823748e-11)
(0 -2.382704212e-10 -7.132266101e-11)
(0 -2.646017489e-10 -8.578096895e-11)
(0 -2.904530677e-10 -1.017264508e-10)
(0 -3.143839742e-10 -1.180520591e-10)
(0 -3.347957818e-10 -1.325910437e-10)
(0 -3.503673022e-10 -1.415505481e-10)
(0 -3.611240145e-10 -1.388323366e-10)
(0 -3.701423841e-10 -1.156875745e-10)
(0 -3.842517864e-10 -6.290432991e-11)
(0 -4.00703761e-10 1.651162161e-11)
(0 -3.682683474e-10 9.746641088e-11)
(0 5.812657458e-11 1.554725092e-22)
(0 7.06799613e-11 9.80148837e-12)
(0 1.975877885e-11 1.024155836e-11)
(0 1.280187094e-11 5.429410932e-12)
(0 9.578852554e-12 2.535539744e-12)
(0 7.272036991e-12 2.926993725e-12)
(0 6.540606005e-12 3.687340786e-12)
(0 6.731645353e-12 3.986572195e-12)
(0 7.256563775e-12 3.863868887e-12)