/*--------------------------------*- C++ -*----------------------------------*\
  =========                 |
  \\      /  F ield         | OpenFOAM: The Open Source CFD Toolbox
   \\    /   O peration     | Website:  https://openfoam.org
    \\  /    A nd           | Version:  10
     \\/     M anipulation  |
\*---------------------------------------------------------------------------*/
FoamFile
{
    format      ascii;
    class       surfaceScalarField;
    location    "0.0002";
    object      phi;
}
// * * * * * * * * * * * * * * * * * * * * * * * * * * * * * * * * * * * * * //

dimensions      [0 3 -1 0 0 0 0];

internalField   nonuniform List<scalar> 
7080
(
5.500605991e-11
-9.697132366e-14
5.523396773e-11
-2.85122831e-13
5.560620181e-11
-4.696163313e-13
5.611760909e-11
-6.501033542e-13
5.676330726e-11
-8.261906554e-13
5.753851806e-11
-9.973917755e-13
5.843841e-11
-1.163023079e-12
5.94579361e-11
-1.32214709e-12
6.059166396e-11
-1.473524303e-12
6.183359767e-11
-1.615567404e-12
6.317699145e-11
-1.746299404e-12
6.461415513e-11
-1.8633161e-12
6.613625258e-11
-1.963752777e-12
6.773309617e-11
-2.044255514e-12
6.939294214e-11
-2.100958679e-12
7.110229428e-11
-2.129472197e-12
7.284572886e-11
-2.124884929e-12
7.460575795e-11
-2.081796186e-12
7.636275278e-11
-1.994397146e-12
7.809495975e-11
-1.856635707e-12
7.977864678e-11
-1.66251385e-12
8.138842741e-11
-1.406581771e-12
8.28978162e-11
-1.084703529e-12
8.428006384e-11
-6.951665968e-13
8.550931604e-11
-2.401774204e-13
8.656211427e-11
2.722853962e-13
8.741925761e-11
8.263747107e-13
8.806797878e-11
1.39635483e-12
8.850442771e-11
1.944996515e-12
8.873644989e-11
2.422888962e-12
8.878664852e-11
2.769111213e-12
8.869554922e-11
2.913648657e-12
8.852415018e-11
2.781919014e-12
8.835395269e-11
2.302103468e-12
8.828063574e-11
1.416756949e-12
8.83954452e-11
1.009385877e-13
8.874789409e-11
-1.611536038e-12
8.928668534e-11
-3.594961677e-12
8.978753632e-11
-5.602992713e-12
8.979374766e-11
-7.260969596e-12
8.861189313e-11
-8.097369191e-12
8.536162784e-11
-7.552576536e-12
7.905669433e-11
-4.962986582e-12
6.889375435e-11
1.331297436e-13
5.445267978e-11
7.835597798e-12
3.664694303e-11
1.665768922e-11
1.880459757e-11
2.29480223e-11
8.341255194e-12
1.616038259e-11
2.207034259e-11
-1.890152e-11
2.428481207e-11
-2.090237592e-11
5.801755169e-12
2.027459459e-11
1.552112238e-13
7.233822197e-12
2.222158969e-14
-3.486037626e-13
1.41816027e-19
9.902458974e-16
3.47593601e-20
1.653106722e-20
8.858375478e-21
-8.910791443e-21
1.701737994e-21
-1.222894533e-20
-5.038111137e-22
-1.121383268e-20
-1.178673245e-21
-9.530181644e-21
-7.956699404e-21
5.474477657e-11
-1.742626437e-13
5.497070207e-11
-5.110481459e-13
5.533971006e-11
-8.386240464e-13
5.584670864e-11
-1.157101745e-12
5.648688375e-11
-1.466365683e-12
5.725553139e-11
-1.766039474e-12
5.814790035e-11
-2.055392142e-12
5.915902985e-11
-2.333276696e-12
6.028357889e-11
-2.598073428e-12
6.151564653e-11
-2.847635e-12
6.284858188e-11
-3.079234517e-12
6.427478289e-11
-3.289516899e-12
6.578548389e-11
-3.474453866e-12
6.737053241e-11
-3.629304332e-12
6.901815686e-11
-3.748583265e-12
7.071472884e-11
-3.82604418e-12
7.244452837e-11
-3.854684448e-12
7.418952257e-11
-3.826790239e-12
7.592917474e-11
-3.734049268e-12
7.764031243e-11
-3.567773533e-12
7.929709194e-11
-3.319293548e-12
8.087111331e-11
-2.98060319e-12
8.233175515e-11
-2.545345141e-12
8.364681012e-11
-2.010221632e-12
8.47835103e-11
-1.376877848e-12
8.571002466e-11
-6.54228997e-13
8.639747417e-11
1.389252446e-13
8.682254807e-11
9.71280957e-13
8.697065494e-11
1.796889436e-12
8.683971431e-11
2.553829514e-12
8.644461292e-11
3.164212663e-12
8.582233448e-11
3.535927083e-12
8.503735501e-11
3.566898429e-12
8.418567394e-11
3.153784585e-12
8.339338527e-11
2.209045708e-12
8.280232331e-11
6.920006482e-13
8.253307156e-11
-1.342284257e-12
8.261766523e-11
-3.679555294e-12
8.291108735e-11
-5.896414866e-12
8.302098004e-11
-7.370862377e-12
8.234103072e-11
-7.417419852e-12
8.015933657e-11
-5.370882369e-12
7.574558101e-11
-5.492311136e-13
6.878020525e-11
7.098505531e-12
5.979385078e-11
1.682195212e-11
5.051685835e-11
2.593468191e-11
4.037844251e-11
3.308643802e-11
3.911632852e-11
1.742249673e-11
3.307987292e-11
-1.286506437e-11
7.930281136e-12
4.247215864e-12
-5.905171045e-12
3.411004676e-11
-3.442853048e-12
4.771504203e-12
-9.901957712e-16
-3.790466614e-12
3.113118305e-21
4.626967722e-20
9.309388364e-21
1.033479716e-20
5.540221594e-21
-5.141647767e-21
2.716850633e-21
-9.405629918e-21
1.179839925e-21
-9.676940897e-21
3.948089947e-22
-8.745384114e-21
-7.57129076e-21
5.42584459e-11
-2.5024478e-13
5.448057401e-11
-7.33176262e-13
5.484339183e-11
-1.201441818e-12
5.534190042e-11
-1.655610304e-12
5.597137423e-11
-2.095839454e-12
5.672719258e-11
-2.52185774e-12
5.760468255e-11
-2.932882086e-12
5.859895687e-11
-3.32755108e-12
5.970474238e-11
-3.703858984e-12
6.091619769e-11
-4.059090259e-12
6.222671817e-11
-4.389754902e-12
6.362872605e-11
-4.691524724e-12
6.511344348e-11
-4.95917133e-12
6.667064681e-11
-5.186507711e-12
6.828840039e-11
-5.366336819e-12
6.995276942e-11
-5.490413242e-12
7.1647514e-11
-5.549429096e-12
7.335376817e-11
-5.53304439e-12
7.504971498e-11
-5.429996074e-12
7.671027972e-11
-5.22833827e-12
7.830687648e-11
-4.915890434e-12
7.980726628e-11
-4.480993258e-12
8.117560854e-11
-3.913687529e-12
8.237281328e-11
-3.20742622e-12
8.335732011e-11
-2.3613848e-12
8.408643612e-11
-1.383345058e-12
8.451834503e-11
-2.929837307e-13
8.461486545e-11
8.747605276e-13
8.434505727e-11
2.066697631e-12
8.36898038e-11
3.20908296e-12
8.264774052e-11
4.206276058e-12
8.124308269e-11
4.94058491e-12
7.953586097e-11
5.274120037e-12
7.763385279e-11
5.05579277e-12
7.570201379e-11
4.14088484e-12
7.395922534e-11
2.434789233e-12
7.264561435e-11
-2.867337562e-14
7.194010377e-11
-2.974044887e-12
7.183086877e-11
-5.787179708e-12
7.199675803e-11
-7.536751588e-12
7.189457858e-11
-7.31524059e-12
7.094003017e-11
-4.416333942e-12
6.836866628e-11
2.022132722e-12
6.402308486e-11
1.144408691e-11
5.778260499e-11
2.30624318e-11
5.111073967e-11
3.260654756e-11
3.540775552e-11
4.878942184e-11
-1.96022061e-11
7.243245784e-11
-4.571265436e-11
1.324538415e-11
-3.670492981e-11
-4.760508702e-12
-1.395122054e-11
1.135633749e-11
-3.732005121e-12
-5.447711217e-12
-1.381174223e-19
-7.522471599e-12
-3.605622643e-20
-5.448618818e-20
-6.188355998e-21
-1.953307031e-20
1.276239434e-21
-1.260623784e-20
2.44553965e-21
-1.057492668e-20
2.111396706e-21
-9.342820664e-21
1.568902348e-21
-8.20302403e-21
-7.121517999e-21
5.354949054e-11
-3.242990469e-13
5.376602017e-11
-9.497058571e-13
5.411970794e-11
-1.555129589e-12
5.46056796e-11
-2.141581876e-12
5.521931791e-11
-2.709477709e-12
5.595609436e-11
-3.258634148e-12
5.681141331e-11
-3.788201007e-12
5.778045075e-11
-4.29658845e-12
5.885798249e-11
-4.781390619e-12
6.003819971e-11
-5.239307419e-12
6.131450898e-11
-5.666064188e-12
6.267931301e-11
-6.056328815e-12
6.41237683e-11
-6.403626669e-12
6.563751533e-11
-6.700254691e-12
6.7208376e-11
-6.937197382e-12
6.882201318e-11
-7.104050424e-12
7.046154758e-11
-7.188963499e-12
7.210712798e-11
-7.178624751e-12
7.373545798e-11
-7.058326105e-12
7.531929251e-11
-6.81217285e-12
7.682693392e-11
-6.423531956e-12
7.822178567e-11
-5.875845058e-12
7.946205257e-11
-5.153954699e-12
8.050071681e-11
-4.246090457e-12
8.128594301e-11
-3.146611051e-12
8.17620837e-11
-1.859485818e-12
8.187143293e-11
-4.023328597e-13
8.155684351e-11
1.18934985e-12
8.076533864e-11
2.858202575e-12
7.945304335e-11
4.521378344e-12
7.759219247e-11
6.067126935e-12
7.518174258e-11
7.351034755e-12
7.226377147e-11
8.192091156e-12
6.894699014e-11
8.372574183e-12
6.543395603e-11
7.653918998e-12
6.203842499e-11
5.830320243e-12
5.916750951e-11
2.842241974e-12
5.721164371e-11
-1.018179195e-12
5.633785193e-11
-4.913387807e-12
5.623096061e-11
-7.429860362e-12
5.629618892e-11
-7.380468934e-12
5.606802831e-11
-4.188173155e-12
5.430102945e-11
3.789131456e-12
5.142986446e-11
1.431525191e-11
4.806015376e-11
2.643214243e-11
4.955260969e-11
3.111409173e-11
4.339847833e-11
5.494355377e-11
4.798870065e-11
6.78422357e-11
9.984842736e-12
5.124924199e-11
-1.195203087e-11
1.717636491e-11
-3.98681585e-12
3.391122464e-12
-2.771327087e-13
-9.157394356e-12
-1.933813971e-20
-7.799604288e-12
-6.14373158e-21
-6.567128086e-20
7.524651676e-22
-2.642926724e-20
3.307550603e-21
-1.516132071e-20
3.677645668e-21
-1.094501442e-20
3.251193341e-21
-8.916362626e-21
2.650408379e-21
-7.602303767e-21
-6.570665762e-21
5.262141353e-11
-3.958164223e-13
5.283057385e-11
-1.158866108e-12
5.317224365e-11
-1.896799327e-12
5.364170458e-11
-2.61104271e-12
5.423446689e-11
-3.302240064e-12
5.494610281e-11
-3.970270104e-12
5.577209355e-11
-4.614191707e-12
5.670767069e-11
-5.232165496e-12
5.774764581e-11
-5.821365652e-12
5.888622541e-11
-6.377887016e-12
6.01168073e-11
-6.896646155e-12
6.143175352e-11
-7.371275109e-12
6.28221342e-11
-7.794007353e-12
6.427743553e-11
-8.1555559e-12
6.578522287e-11
-8.444984569e-12
6.733074861e-11
-8.649576151e-12
6.889649274e-11
-8.754707637e-12
7.046162331e-11
-8.74375529e-12
7.200136971e-11
-8.598072459e-12
7.348631056e-11
-8.297113704e-12
7.488159709e-11
-7.818818751e-12
7.614616493e-11
-7.140413019e-12
7.723202527e-11
-6.239815136e-12
7.808377787e-11
-5.097843026e-12
7.863852172e-11
-3.701354864e-12
7.882635509e-11
-2.047319485e-12
7.857162647e-11
-1.476041886e-13
7.779503483e-11
1.965941714e-12
7.641670591e-11
4.236531517e-12
7.436065529e-11
6.577428962e-12
7.156181498e-11
8.865967189e-12
6.797837505e-11
1.093447469e-11
6.361417174e-11
1.255629459e-11
5.8556225e-11
1.343052101e-11
5.302710116e-11
1.318304282e-11
4.743643269e-11
1.142098873e-11
4.239852347e-11
7.880151204e-12
3.859448232e-11
2.785861938e-12
3.643520905e-11
-2.75411461e-12
3.544175411e-11
-6.436405499e-12
3.464104163e-11
-6.579756296e-12
3.390407859e-11
-3.451210053e-12
3.041580228e-11
7.277407813e-12
2.385327269e-11
2.087778195e-11
1.518115849e-11
3.510425628e-11
1.893908019e-11
2.735617004e-11
2.467644191e-11
4.920619186e-11
2.310388309e-11
6.941479453e-11
1.814084071e-11
5.621228436e-11
8.655530316e-12
2.66616753e-11
8.083588225e-12
3.963064558e-12
4.766718959e-12
-5.84052509e-12
9.999989525e-20
-3.032885436e-12
2.823796304e-20
3.374296459e-21
1.203804373e-20
-1.022934889e-20
7.523856896e-21
-1.064713491e-20
5.706297467e-21
-9.127453176e-21
4.5652522e-21
-7.775310481e-21
3.682046385e-21
-6.719127744e-21
-5.861145273e-21
5.147881134e-11
-4.642032439e-13
5.167887981e-11
-1.358934518e-12
5.200572545e-11
-2.223644874e-12
5.245481614e-11
-3.060133383e-12
5.302180738e-11
-3.869231387e-12
5.370237941e-11
-4.65084219e-12
5.449208998e-11
-5.403902258e-12
5.538622096e-11
-6.126296418e-12
5.637961192e-11
-6.814756554e-12
5.746647697e-11
-7.464752096e-12
5.864020048e-11
-8.070369718e-12
5.989310545e-11
-8.624180071e-12
6.121618792e-11
-9.117089704e-12
6.259880807e-11
-9.538175868e-12
6.402832579e-11
-9.874502193e-12
6.548966499e-11
-1.011091536e-11
6.69647867e-11
-1.022982932e-11
6.843204899e-11
-1.021101758e-11
6.986543438e-11
-1.003145789e-11
7.123363252e-11
-9.665311849e-12
7.249898612e-11
-9.084172488e-12
7.361634327e-11
-8.257770346e-12
7.453190587e-11
-7.155377801e-12
7.518222186e-11
-5.748159128e-12
7.549351568e-11
-4.012648581e-12
7.538155665e-11
-1.935360457e-12
7.475221669e-11
4.817356576e-13
7.35027218e-11
3.215436797e-12
7.15236357e-11
6.215617648e-12
6.870181363e-11
9.399250904e-12
6.492570186e-11
1.264207891e-11
6.009685785e-11
1.576331876e-11
5.415565389e-11
1.849749859e-11
4.713227336e-11
2.045390166e-11
3.922955967e-11
2.10857567e-11
3.092355761e-11
1.972699077e-11
2.306265262e-11
1.574105619e-11
1.671167773e-11
9.136836872e-12
1.269645002e-11
1.261112983e-12
1.007891673e-11
-3.818872117e-12
6.881008411e-12
-3.38184782e-12
3.676311664e-12
-2.465133614e-13
-4.617694459e-12
1.557141396e-11
-1.819385358e-11
3.445394133e-11
-5.381310334e-11
7.072350623e-11
-5.599420418e-11
2.953727078e-11
-5.334739947e-11
4.655938712e-11
-2.767413014e-11
4.374152519e-11
-5.099524884e-12
3.36376791e-11
4.584163658e-12
1.697798676e-11
5.900571558e-12
2.646656657e-12
3.032885357e-12
-2.972838885e-12
-7.063414783e-21
-6.383963505e-20
1.224189148e-20
-1.59310098e-20
1.160607568e-20
-9.593533567e-21
9.043538628e-21
-8.084599347e-21
7.058440162e-21
-7.14235574e-21
5.621434937e-21
-6.338301957e-21
4.540028856e-21
-5.637735863e-21
-5.021260514e-21
5.012738576e-11
-5.288879524e-13
5.031670812e-11
-1.548256835e-12
5.062603772e-11
-2.532974336e-12
5.105105704e-11
-3.48515271e-12
5.158758167e-11
-4.405756029e-12
5.223140473e-11
-5.294665257e-12
5.29781592e-11
-6.150656713e-12
5.382317322e-11
-6.971310395e-12
5.476131092e-11
-7.752894218e-12
5.57867948e-11
-8.490236007e-12
5.689300464e-11
-9.176579586e-12
5.807224656e-11
-9.803421879e-12
5.931548434e-11
-1.036032729e-11
6.061202266e-11
-1.083471402e-11
6.19491265e-11
-1.121160601e-11
6.33115563e-11
-1.147334521e-11
6.46809916e-11
-1.159926456e-11
6.603531117e-11
-1.156533709e-11
6.734769688e-11
-1.134384367e-11
6.85855334e-11
-1.090314856e-11
6.970909572e-11
-1.020773493e-11
7.067005326e-11
-9.218727975e-12
7.140987664e-11
-7.895201121e-12
7.185829923e-11
-6.196581846e-12
7.193204601e-11
-4.086395594e-12
7.153404509e-11
-1.537359378e-12
7.055323925e-11
1.462541611e-12
6.886490581e-11
4.903770209e-12
6.633121147e-11
8.749311928e-12
6.280182889e-11
1.292863342e-11
5.811551441e-11
1.732839346e-11
5.210693227e-11
2.177190098e-11
4.462999099e-11
2.597443986e-11
3.561709274e-11
2.946679989e-11
2.519009133e-11
3.15127582e-11
1.380972334e-11
3.110735867e-11
2.559524196e-12
2.699125532e-11
-6.985796305e-12
1.868215742e-11
-1.322956874e-11
7.504885429e-12
-1.823607211e-11
1.18763144e-12
-2.478859479e-11
3.17067517e-12
-2.999701949e-11
4.96191122e-12
-4.843198802e-11
3.400638249e-11
-4.913806369e-11
3.516001672e-11
-6.477772688e-11
8.636316973e-11
-7.240348081e-11
3.716302469e-11
-5.628010201e-11
3.043600833e-11
-2.848394719e-11
1.594537038e-11
-8.705636152e-12
1.385936806e-11
4.333910009e-13
7.838959608e-12
2.091422398e-12
9.88625257e-13
1.163670398e-19
-8.814166109e-13
3.412398098e-20
1.6803961e-20
1.861561612e-20
-4.226450077e-22
1.31150099e-20
-4.092927929e-21
9.985782237e-21
-4.955373102e-21
7.862493945e-21
-5.01906917e-21
6.32200103e-21
-4.797808244e-21
5.156504206e-21
-4.472246204e-21
-4.114060802e-21
4.857395337e-11
-5.893288512e-13
4.875096616e-11
-1.725269591e-12
4.904023815e-11
-2.822246189e-12
4.943769105e-11
-3.882605634e-12
4.993931048e-11
-4.907375433e-12
5.054100317e-11
-5.896357924e-12
5.123847342e-11
-6.848126953e-12
5.202709137e-11
-7.759928302e-12
5.290174503e-11
-8.627547882e-12
5.385667229e-11
-9.445163347e-12
5.48852678e-11
-1.020517508e-11
5.597985852e-11
-1.089801246e-11
5.713144073e-11
-1.151190933e-11
5.832936663e-11
-1.203263984e-11
5.95609631e-11
-1.244320253e-11
6.08110581e-11
-1.272344025e-11
6.206138102e-11
-1.284958745e-11
6.328979544e-11
-1.27937515e-11
6.446931735e-11
-1.252336565e-11
6.556687398e-11
-1.200070539e-11
6.654177707e-11
-1.11826381e-11
6.734392235e-11
-1.002087336e-11
6.791179516e-11
-8.463074032e-12
6.817044394e-11
-6.455230592e-12
6.802966352e-11
-3.945615269e-12
6.738265127e-11
-8.903471237e-13
6.610526059e-11
2.739932422e-12
6.405567238e-11
6.953358333e-12
6.107388469e-11
1.173109955e-11
5.698001224e-11
1.702250588e-11
5.157101568e-11
2.273738995e-11
4.461884588e-11
2.872407065e-11
3.588363649e-11
3.470964942e-11
2.517211784e-11
4.017831882e-11
1.246387348e-11
4.422100251e-11
-1.971054704e-12
4.554228687e-11
-1.684777057e-11
4.186797118e-11
-2.983104325e-11
3.166543007e-11
-3.813471349e-11
1.580855576e-11
-4.630985054e-11
9.362768576e-12
-6.275822777e-11
1.961905259e-11
-6.205163899e-11
4.255322804e-12
-7.60115976e-11
4.79663411e-11
-7.458396269e-11
3.373238185e-11
-3.710012748e-11
4.887933447e-11
-2.802636966e-11
2.808926687e-11
-1.814575007e-11
2.055538874e-11
-1.162020702e-11
9.419827331e-12
-4.355201942e-12
6.59436298e-12
1.508185768e-13
3.332939094e-12
8.814165926e-13
2.580272463e-13
1.873384551e-21
-1.38120819e-20
1.611655825e-20
2.560787301e-21
1.493713869e-20
7.567742927e-22
1.225256473e-20
-1.408354796e-21
9.922086167e-21
-2.624895836e-21
8.08375487e-21
-3.180739682e-21
6.647563071e-21
-3.361617e-21
5.514689608e-21
-3.339376428e-21
-3.209070239e-21
4.682645096e-11
-6.450229676e-13
4.698970709e-11
-1.888525693e-12
4.725657044e-11
-3.089109526e-12
4.762322014e-11
-4.249255401e-12
4.808581428e-11
-5.369969583e-12
4.864036738e-11
-6.450911033e-12
4.928264664e-11
-7.490406227e-12
5.000805801e-11
-8.485339648e-12
5.081151359e-11
-9.43100352e-12
5.168727726e-11
-1.03209271e-11
5.262878408e-11
-1.114668186e-11
5.362842898e-11
-1.189765723e-11
5.467731843e-11
-1.256079872e-11
5.57649735e-11
-1.312029495e-11
5.687896607e-11
-1.355719519e-11
5.800446133e-11
-1.384893551e-11
5.912362765e-11
-1.396875374e-11
6.02148638e-11
-1.388498775e-11
6.125178301e-11
-1.3560285e-11
6.220189102e-11
-1.295081357e-11
6.302491157e-11
-1.200565867e-11
6.367075168e-11
-1.066671347e-11
6.407717676e-11
-8.869499346e-12
6.416737326e-11
-6.545427198e-12
6.38476924e-11
-3.625934309e-12
6.300595227e-11
-4.860701138e-14
6.151049643e-11
4.235388208e-12
5.921001385e-11
9.253840853e-12
5.593317979e-11
1.500793359e-11
5.148632861e-11
2.146935707e-11
4.564653591e-11
2.857718272e-11
3.814950553e-11
3.622110118e-11
2.868601333e-11
4.417314166e-11
1.694853129e-11
5.191580093e-11
2.760234555e-12
5.840929916e-11
-1.398828064e-11
6.229080213e-11
-3.174813736e-11
5.962782796e-11
-4.725641459e-11
4.717370729e-11
-5.848419574e-11
2.703633704e-11
-6.050979718e-11
1.138837009e-11
-7.996372392e-11
3.907297929e-11
-8.753070417e-11
1.182230305e-11
-6.569413554e-11
2.612977252e-11
-5.63984977e-11
2.443674401e-11
-3.015604316e-11
2.263687993e-11
-1.873958902e-11
1.667281273e-11
-1.008503046e-11
1.190083017e-11
-5.982690685e-12
5.317487559e-12
-2.288114763e-12
2.899787059e-12
-2.432211356e-13
1.288045467e-12
4.076065573e-20
1.480606073e-14
1.697914934e-20
1.10108533e-20
1.432814294e-20
5.211793511e-21
1.277200961e-20
2.312906999e-21
1.103602369e-20
3.276302157e-22
9.366242321e-21
-9.55115735e-22
7.902877553e-21
-1.717376871e-21
6.669803643e-21
-2.128544549e-21
5.644995796e-21
-2.314571066e-21
-2.359773e-21
4.489393508e-11
-6.955164076e-13
4.504213326e-11
-2.036723832e-12
4.528447299e-11
-3.331449375e-12
4.561739853e-11
-4.582181021e-12
4.603723198e-11
-5.789803058e-12
4.654008044e-11
-6.953759548e-12
4.712175916e-11
-8.072084985e-12
4.777770034e-11
-9.141280844e-12
4.850283964e-11
-1.01561429e-11
4.929147838e-11
-1.110956591e-11
5.013711938e-11
-1.19923228e-11
5.103227443e-11
-1.279281221e-11
5.196823931e-11
-1.349676364e-11
5.293482626e-11
-1.4086882e-11
5.392003665e-11
-1.454240565e-11
5.490964617e-11
-1.483854504e-11
5.588666088e-11
-1.49457685e-11
5.683058666e-11
-1.482891368e-11
5.771643933e-11
-1.444613782e-11
5.85134147e-11
-1.374778905e-11
5.918314755e-11
-1.267539162e-11
5.967752672e-11
-1.116109269e-11
5.993611803e-11
-9.128090766e-12
5.988338409e-11
-6.49269334e-12
5.94260657e-11
-3.168615836e-12
5.845124072e-11
9.262179833e-13
5.682563627e-11
5.86099261e-12
5.439640156e-11
1.168307565e-11
5.099287082e-11
1.841146437e-11
4.642690606e-11
2.603532169e-11
4.048659698e-11
3.451749168e-11
3.291715048e-11
4.379054788e-11
2.340264366e-11
5.368764864e-11
1.159247794e-11
6.372596661e-11
-2.830581684e-12
7.283235889e-11
-2.021493056e-11
7.967515114e-11
-3.6686597e-11
7.609949442e-11
-5.511528301e-11
6.560239327e-11
-6.520179425e-11
3.71228483e-11
-7.170101795e-11
1.788759387e-11
-5.489969145e-11
2.22716528e-11
-5.64541981e-11
1.33768097e-11
-4.441183245e-11
1.408740686e-11
-3.296576233e-11
1.299067389e-11
-2.149249176e-11
1.116360937e-11
-1.287999134e-11
8.060312308e-12
-6.212230548e-12
5.233069384e-12
-3.003607931e-12
2.108864945e-12
-9.812669455e-13
8.77446077e-13
-1.480604865e-14
3.21584571e-13
7.252815162e-21
6.87198858e-21
1.116793902e-20
7.095729438e-21
1.142800443e-20
4.95172765e-21
1.078673282e-20
2.954177868e-21
9.753277734e-21
1.361084371e-21
8.603981185e-21
1.941794199e-22
7.491709874e-21
-6.051074583e-22
6.483777126e-21
-1.120613511e-21
5.599793862e-21
-1.430589963e-21
-1.597056049e-21
4.278657335e-11
-7.404168576e-13
4.291859265e-11
-2.168743065e-12
4.313458177e-11
-3.54743864e-12
4.343124188e-11
-4.878841161e-12
4.380503502e-11
-6.163596189e-12
4.425213327e-11
-7.400857872e-12
4.476837711e-11
-8.588328864e-12
4.534921146e-11
-9.722115237e-12
4.598959348e-11
-1.079652503e-11
4.668387263e-11
-1.180384511e-11
4.742564473e-11
-1.273409485e-11
4.820758206e-11
-1.357474954e-11
4.902123843e-11
-1.431042012e-11
4.985682242e-11
-1.49224661e-11
5.070292379e-11
-1.538850707e-11
5.154616708e-11
-1.568178837e-11
5.23707497e-11
-1.577035128e-11
5.315780263e-11
-1.56159668e-11
5.38844901e-11
-1.517282538e-11
5.452274918e-11
-1.438604814e-11
5.503756875e-11
-1.319021126e-11
5.538473715e-11
-1.150826119e-11
5.550807078e-11
-9.251424384e-12
5.533629319e-11
-6.320915719e-12
5.47799718e-11
-2.612294458e-12
5.372920414e-11
1.976985639e-12
5.205298636e-11
7.537210387e-12
4.960124704e-11
1.413481495e-11
4.620982736e-11
2.1802884e-11
4.170678555e-11
3.053836359e-11
3.591362001e-11
4.031065728e-11
2.862868363e-11
5.107548431e-11
1.961431576e-11
6.270201678e-11
8.673361897e-12
7.466692046e-11
-4.484109502e-12
8.598983033e-11
-1.945687442e-11
9.464791601e-11
-3.404640255e-11
9.068902255e-11
-3.340743438e-11
6.496342523e-11
-3.761721856e-11
4.13326324e-11
-5.578065009e-11
3.605102541e-11
-4.643516171e-11
1.292616442e-11
-3.741544781e-11
4.357095791e-12
-2.790937073e-11
4.581329793e-12
-1.963198668e-11
4.713289839e-12
-1.2236583e-11
3.768205681e-12
-6.591442491e-12
2.415171797e-12
-2.769154733e-12
1.410781626e-12
-1.093762409e-12
4.334726233e-13
-3.21584557e-13
1.052682173e-13
7.139022749e-21
7.430843396e-21
7.704464653e-21
6.306546676e-21
9.026783503e-21
5.773410282e-21
9.430454652e-21
4.548055962e-21
9.193639326e-21
3.190992414e-21
8.586372783e-21
1.96834982e-21
7.804694306e-21
9.758563624e-22
6.976203821e-21
2.233812596e-22
6.173800674e-21
-3.182120834e-22
5.433327776e-21
-6.901189826e-22
-9.322731945e-22
4.051562545e-11
-7.794088798e-13
4.063056659e-11
-2.283684218e-12
4.081872623e-11
-3.735598365e-12
4.107703032e-11
-5.137145228e-12
4.140203504e-11
-6.488600879e-12
4.178993442e-11
-7.788757325e-12
4.223656287e-11
-9.034957351e-12
4.273736154e-11
-1.022291397e-11
4.328730675e-11
-1.134647035e-11
4.388080604e-11
-1.239734445e-11
4.451156933e-11
-1.336485814e-11
4.517246234e-11
-1.423564263e-11
4.585534554e-11
-1.499330346e-11
4.655089578e-11
-1.561801642e-11
4.724840004e-11
-1.608601136e-11
4.793549839e-11
-1.63688868e-11
4.859783553e-11
-1.643268861e-11
4.921855719e-11
-1.623668858e-11
4.977755981e-11
-1.573182803e-11
5.025037565e-11
-1.485886402e-11
5.060655684e-11
-1.354639252e-11
5.080743081e-11
-1.17091352e-11
5.080316164e-11
-9.247155178e-12
5.052919874e-11
-6.046952796e-12
4.99024559e-11
-1.985551692e-12
4.881794629e-11
3.061495294e-12
4.714704151e-11
9.208115299e-12
4.473891841e-11
1.654293809e-11
4.142615646e-11
2.511564593e-11
3.703445321e-11
3.493006689e-11
3.13943266e-11
4.595078398e-11
2.433752913e-11
5.813228172e-11
1.562206684e-11
7.14174791e-11
4.873595409e-12
8.541539197e-11
-7.178875177e-12
9.804230095e-11
-3.473965659e-11
1.222086975e-10
-3.603759397e-11
9.198695982e-11
-3.818279071e-11
6.710862195e-11
-4.279453625e-11
4.594437795e-11
-2.979136753e-11
2.304785669e-11
-2.319220795e-11
6.327004852e-12
-1.929114598e-11
4.560338225e-13
-1.411738542e-11
-5.924307697e-13
-9.057418394e-12
-3.466771912e-13
-4.829397639e-12
-4.598150732e-13
-1.971953642e-12
-4.422721979e-13
-5.387408203e-13
-2.243119544e-14
-1.052682018e-13
7.815143682e-21
5.288879946e-21
6.176756598e-21
6.584068404e-21
6.135654938e-21
7.169618688e-21
5.720996153e-21
7.801429185e-21
5.141599356e-21
8.073391104e-21
4.276093495e-21
7.970996732e-21
3.293385969e-21
7.593879325e-21
2.345466059e-21
7.052219203e-21
1.517515047e-21
6.434610478e-21
8.409884299e-22
5.801893775e-21
3.145029462e-22
5.191173564e-21
-7.940066461e-23
-3.635872093e-22
3.809341103e-11
-8.122732991e-13
3.819064749e-11
-2.380920806e-12
3.834991773e-11
-3.89486866e-12
3.856830476e-11
-5.355532222e-12
3.884238342e-11
-6.762679553e-12
3.916830873e-11
-8.114682702e-12
3.95418709e-11
-9.408519581e-12
3.995849164e-11
-1.063953476e-11
4.041316768e-11
-1.180114645e-11
4.090037656e-11
-1.288455337e-11
4.141395985e-11
-1.387844148e-11
4.194699694e-11
-1.476867981e-11
4.249167746e-11
-1.553798406e-11
4.303917456e-11
-1.616551354e-11
4.357951338e-11
-1.662635021e-11
4.410141695e-11
-1.689079047e-11
4.459209351e-11
-1.692336533e-11
4.503690396e-11
-1.668149906e-11
4.541881341e-11
-1.611373744e-11
4.571749198e-11
-1.515754265e-11
4.590788839e-11
-1.3736789e-11
4.595807348e-11
-1.175932025e-11
4.582616454e-11
-9.115246186e-12
4.545622834e-11
-5.677016611e-12
4.4773266e-11
-1.302589368e-12
4.367773685e-11
4.157024505e-12
4.204055136e-11
1.084530082e-11
3.969983547e-11
1.888365403e-11
3.645989962e-11
2.835558188e-11
3.209236463e-11
3.929760192e-11
2.63500085e-11
5.169314026e-11
1.902040164e-11
6.546188876e-11
9.828374128e-12
8.060950664e-11
-2.834281281e-12
9.807804754e-11
-2.608170727e-11
1.212897269e-10
-3.657253947e-11
1.326995297e-10
-6.6345646e-11
1.217600664e-10
-4.061669704e-11
4.137967299e-11
-2.130929025e-11
2.663697115e-11
-1.296679035e-11
1.470535679e-11
-8.415599191e-12
1.775813688e-12
-6.540321651e-12
-1.419243715e-12
-3.898978139e-12
-3.233774287e-12
-1.698346209e-12
-2.547309125e-12
-2.232661838e-13
-1.934895098e-12
2.243119979e-14
-6.879695771e-13
3.085010552e-21
1.870305856e-21
4.987092926e-21
4.926985223e-21
5.625781588e-21
5.538067936e-21
6.168080894e-21
5.593355306e-21
6.590221892e-21
5.298854757e-21
6.935923324e-21
4.795897359e-21
7.090683578e-21
4.121332531e-21
7.023076822e-21
3.360991797e-21
6.765928314e-21
2.602613253e-21
6.375692586e-21
1.907749252e-21
5.908124995e-21
1.308554372e-21
5.407990164e-21
8.146358861e-22
4.906987019e-21
4.216003122e-22
1.179715662e-22
3.553326238e-11
-8.389135117e-13
3.561250626e-11
-2.460164813e-12
3.57423318e-11
-4.024694259e-12
3.591985736e-11
-5.533057754e-12
3.614156169e-11
-6.984383939e-12
3.640348118e-11
-8.376602268e-12
3.670132251e-11
-9.706360982e-12
3.703048077e-11
-1.096869305e-11
3.738598552e-11
-1.215665123e-11
3.776240421e-11
-1.326097209e-11
3.815372795e-11
-1.426976526e-11
3.855325893e-11
-1.516821082e-11
3.895351222e-11
-1.593823731e-11
3.934613847e-11
-1.655813979e-11
3.972186742e-11
-1.700207921e-11
4.007046045e-11
-1.723938359e-11
4.038064414e-11
-1.723354908e-11
4.063997009e-11
-1.6940825e-11
4.083450713e-11
-1.630827446e-11
4.09482197e-11
-1.527125527e-11
4.09618204e-11
-1.37503897e-11
4.085081399e-11
-1.164831379e-11
4.058239333e-11
-8.846825514e-12
4.011083126e-11
-5.20545461e-12
3.937108007e-11
-5.628381961e-13
3.827046656e-11
5.257638037e-12
3.667855991e-11
1.243720751e-11
3.441513242e-11
2.114708159e-11
3.123401683e-11
3.153669756e-11
2.679533904e-11
4.373627974e-11
2.060558276e-11
5.788289654e-11
1.184077834e-11
7.422669321e-11
-1.222890823e-12
9.367317564e-11
-2.211522866e-11
1.189703855e-10
-3.692637873e-11
1.36100877e-10
-3.690674985e-11
1.326799008e-10
-1.933704793e-11
1.041903645e-10
-1.367594399e-12
2.341021946e-11
3.217875984e-12
2.205150077e-11
2.407799273e-12
1.55154335e-11
-6.979573312e-13
4.881570293e-12
5.324541032e-13
-2.649655151e-12
1.79925648e-12
-4.500576666e-12
1.498331432e-12
-2.246384081e-12
6.879695866e-13
-1.124533257e-12
8.830472449e-21
2.822206576e-21
6.04111109e-21
4.659667215e-21
5.653512513e-21
5.314583686e-21
5.682697247e-21
5.508882788e-21
5.873580344e-21
5.402471818e-21
6.087264494e-21
5.085170103e-21
6.261358496e-21
4.621802631e-21
6.330342844e-21
4.05234729e-21
6.264698278e-21
3.426635234e-21
6.071064313e-21
2.796245778e-21
5.776497706e-21
2.202314295e-21
5.414206508e-21
1.670843836e-21
5.01495459e-21
1.213885578e-21
4.603358273e-21
8.331941074e-22
5.241057131e-22
3.284945996e-11
-8.593945246e-13
3.291085207e-11
-2.521556952e-12
3.301128863e-11
-4.12513087e-12
3.314771948e-11
-5.669488561e-12
3.331636257e-11
-7.153027063e-12
3.351304173e-11
-8.573281498e-12
3.373335148e-11
-9.926670778e-12
3.397267518e-11
-1.120801676e-11
3.422611052e-11
-1.241008657e-11
3.448835164e-11
-1.352321323e-11
3.47535642e-11
-1.453497784e-11
3.501527723e-11
-1.542992378e-11
3.526630705e-11
-1.618926705e-11
3.549872297e-11
-1.679055571e-11
3.570385851e-11
-1.720721483e-11
3.587236406e-11
-1.740788917e-11
3.599428265e-11
-1.735546768e-11
3.605910624e-11
-1.700564862e-11
3.605572834e-11
-1.63048966e-11
3.597214781e-11
-1.518767475e-11
3.579469279e-11
-1.357293467e-11
3.55064227e-11
-1.136004368e-11
3.508424059e-11
-8.424643407e-12
3.449413439e-11
-4.615348433e-12
3.368391748e-11
2.473786651e-13
3.257297072e-11
6.368584783e-12
3.103886551e-11
1.39713128e-11
2.890173048e-11
2.328421668e-11
2.590845429e-11
3.452997376e-11
2.171705022e-11
4.792768382e-11
1.586940435e-11
6.373054237e-11
7.746270899e-12
8.234982659e-11
-3.475563051e-12
1.048950096e-10
-2.037759996e-11
1.358724223e-10
-2.889026376e-11
1.446135408e-10
-2.521337425e-11
1.290030113e-10
1.009710251e-12
7.796727995e-11
2.657817429e-11
-2.158244582e-12
1.910908544e-11
2.952058962e-11
1.083910829e-11
2.378541065e-11
6.022030527e-12
9.698648054e-12
5.367814951e-12
-1.995439577e-12
3.370917341e-12
-2.503679052e-12
1.12453329e-12
-2.906144213e-20
1.491596533e-20
1.444792047e-20
8.884249673e-21
8.853922236e-21
6.696817012e-21
6.847099543e-21
5.847627345e-21
6.163773052e-21
5.576286277e-21
5.780223513e-21
5.556278629e-21
5.422478927e-21
5.623897022e-21
5.017550899e-21
5.691903155e-21
4.553795588e-21
5.704630787e-21
4.039618584e-21
5.634308823e-21
3.49695587e-21
5.47713283e-21
2.953420263e-21
5.245027248e-21
2.43441825e-21
4.95724825e-21
1.95862091e-21
4.63426312e-21
1.536868251e-21
4.294269879e-21
1.173184665e-21
8.66614365e-22
3.0057151e-11
-8.740067247e-13
3.010139252e-11
-2.565798484e-12
3.017324242e-11
-4.196980773e-12
3.026915411e-11
-5.765400197e-12
3.038486244e-11
-7.268735389e-12
3.051588558e-11
-8.704304672e-12
3.06577106e-11
-1.00684958e-11
3.080576693e-11
-1.135607308e-11
3.095529391e-11
-1.255961355e-11
3.110117674e-11