/*--------------------------------*- C++ -*----------------------------------*\
  =========                 |
  \\      /  F ield         | OpenFOAM: The Open Source CFD Toolbox
   \\    /   O peration     | Website:  https://openfoam.org
    \\  /    A nd           | Version:  6
     \\/     M anipulation  |
\*---------------------------------------------------------------------------*/
FoamFile
{
    version     2.0;
    format      ascii;
    class       volScalarField;
    location    "0.0038";
    object      TRHS;
}
// * * * * * * * * * * * * * * * * * * * * * * * * * * * * * * * * * * * * * //

dimensions      [1 -1 -3 0 0 0 0];

internalField   nonuniform List<scalar> 
600
(
8.003038111e-09
3.645662298e-09
7.875965434e-10
-1.284689485e-09
-2.842852467e-09
-3.962827459e-09
-4.457962587e-09
-3.852811881e-09
-1.255336596e-09
4.865930223e-09
1.71869512e-08
4.040663601e-08
8.23535976e-08
1.496382644e-07
2.047460594e-07
2.173788663e-07
-1.742531543e-07
21.92721345
18.22874913
0
0
0
0
0
0
0
-0.005972238653
20.34657071
-5.117060024e-05
-2.519401748e-10
1.011725447e-08
5.231856605e-09
1.92288656e-09
-4.903031981e-10
-2.247991387e-09
-3.406879458e-09
-3.747296786e-09
-2.736727723e-09
5.72371307e-10
7.623464611e-09
2.043468546e-08
4.140437162e-08
7.26128317e-08
1.13637511e-07
1.709077805e-07
2.668186888e-07
5.680121876e-07
-5.470906216e-05
-4.6046263e-05
441.0458492
132.9583696
126.7899674
66.44120738
117.6990121
105.8928943
360.0707085
-1.78781099e-07
-1.467256538e-07
-1.342520619e-08
7.174362873e-08
1.081159364e-08
5.825899592e-09
2.377658599e-09
-1.861521507e-10
-2.084380691e-09
-3.360140475e-09
-3.794519701e-09
-2.852467769e-09
3.731087283e-10
7.174471148e-09
1.904330729e-08
3.705324172e-08
6.050436156e-08
8.534271974e-08
1.113570233e-07
1.48815135e-07
1.984497478e-07
2.54231808e-07
7.119179314e-07
-0.002211537056
-0.0006554113317
-0.0006224748264
-0.0003180323844
-0.0005775872143
-0.0005205318966
-0.001805470878
-1.81419134e-07
-2.034633847e-07
-3.147902924e-07
-1.950871137e-07
1.024836679e-08
5.552139579e-09
2.229831418e-09
-3.336725897e-10
-2.331911357e-09
-3.812276169e-09
-4.57346732e-09
-4.108899514e-09
-1.50836034e-09
4.639056288e-09
1.631482999e-08
3.592407109e-08
6.555398746e-08
1.049188214e-07
1.602018418e-07
2.519720692e-07
5.486457634e-07
-4.39079723e-05
-2.758756555e-05
436.8921333
127.0402084
120.1428564
59.72073683
111.4271103
100.5996502
356.5225472
-2.257089585e-07
-1.623303583e-07
-2.368251693e-08
6.342244742e-08
8.655627516e-09
4.579842405e-09
1.594793477e-09
-8.489276418e-10
-2.922879217e-09
-4.689968217e-09
-6.005923439e-09
-6.454697146e-09
-5.222140514e-09
-8.532532237e-10
9.259699429e-09
2.977540362e-08
6.850714859e-08
1.322419552e-07
1.834205393e-07
1.930336266e-07
-1.965466972e-07
17.63588928
10.89959331
0
0
0
0
0
0
0
-0.006186229415
17.08496159
-4.295139224e-05
-2.154444654e-10
6.344852506e-09
3.121736188e-09
6.217361293e-10
-1.619220408e-09
-3.747948407e-09
-5.856496242e-09
-7.896376585e-09
-9.648320344e-09
-1.066400393e-08
-1.01227883e-08
-6.360106329e-09
4.495669593e-09
3.255204802e-08
9.092568416e-08
2.58869527e-07
-0.0001045820694
41.55317049
0
0
0
0
0
0
0
0
0
0
0
391.8050893
-0.002065114083
3.686737751e-09
1.423051087e-09
-5.219111372e-10
-2.514612408e-09
-4.673811216e-09
-7.117605531e-09
-9.891217873e-09
-1.298146252e-08
-1.638254474e-08
-2.031393718e-08
-2.567937815e-08
-3.464594145e-08
-4.407100299e-08
1.432915485e-08
1.007215296e-07
-0.000662758938
106.5547472
0
0
0
0
0
0
0
0
0
0
0
-0.005417580673
-2.511078054e-05
1.073258867e-09
-2.639999031e-10
-1.668229344e-09
-3.411179296e-09
-5.582477843e-09
-8.311784417e-09
-1.169208844e-08
-1.57685075e-08
-2.053373859e-08
-2.597612142e-08
-3.223351923e-08
-4.048325363e-08
-7.801876109e-08
-1.213885161e-07
-2.629108494e-07
156.4892919
0
0
0
0
0
0
0
0
0
0
0
0
0
-0.002528705261
-1.136927675e-09
-1.711175677e-09
-2.668020945e-09
-4.204857077e-09
-6.392042894e-09
-9.380171963e-09
-1.332556562e-08
-1.838199554e-08
-2.466657094e-08
-3.219325399e-08
-4.073451664e-08
-5.177217157e-08
-1.254493415e-07
-2.170533775e-07
-1.833033114e-07
-0.006212997051
0
0
0
0
0
0
0
0
0
0
0
0
0
0
-2.665749347e-09
-2.740601044e-09
-3.402320129e-09
-4.804209838e-09
-7.011304932e-09
-1.020231176e-08
-1.462541075e-08
-2.065438419e-08
-2.892086283e-08
-4.05534529e-08
-5.740355342e-08
-8.06332994e-08
-8.16309308e-08
-9.76954147e-08
-0.0001753753544
69.5680886
0
0
0
0
0
0
0
0
0
0
0
0
0
0
-3.35738098e-09
-3.250137873e-09
-3.797880817e-09
-5.142402516e-09
-7.343672317e-09
-1.057847902e-08
-1.509603935e-08
-2.127988952e-08
-2.977940255e-08
-4.17616838e-08
-5.911569323e-08
-8.310016692e-08
-8.506981394e-08
-1.028298851e-07
-0.0001753072659
69.53973364
0
0
0
0
0
0
0
0
0
0
0
0
0
0
-3.19569405e-09
-3.226344011e-09
-3.843454123e-09
-5.209010887e-09
-7.379272688e-09
-1.049672782e-08
-1.472341316e-08
-2.023614481e-08
-2.720710556e-08
-3.574172349e-08
-4.576671231e-08
-5.894110132e-08
-1.355995676e-07
-2.326039875e-07
-1.944083044e-07
-0.006215769986
0
0
0
0
0
0
0
0
0
0
0
0
0
0
-2.30477234e-09
-2.744330916e-09
-3.588935267e-09
-5.051362168e-09
-7.195976731e-09
-1.013916668e-08
-1.398085082e-08
-1.88017245e-08
-2.466927298e-08
-3.170200814e-08
-4.021663302e-08
-5.16961721e-08
-9.438419622e-08
-1.477852647e-07
-2.707599894e-07
156.406716
0
0
0
0
0
0
0
0
0
0
0
0
0
-0.00247837817
-9.206604721e-10
-1.948165058e-09
-3.12642756e-09
-4.739357222e-09
-6.868977673e-09
-9.614102567e-09
-1.302843657e-08
-1.714166978e-08
-2.203370881e-08
-2.805328906e-08
-3.626371624e-08
-4.899471103e-08
-6.307567478e-08
-9.264986671e-09
8.03917975e-08
-0.0006619048914
106.2901468
0
0
0
0
0
0
0
0
0
0
0
-0.005430656131
-2.640565848e-05
6.493952689e-10
-1.024422676e-09
-2.57246545e-09
-4.353501789e-09
-6.46528094e-09
-8.975092535e-09
-1.184472801e-08
-1.490362376e-08
-1.779528128e-08
-1.982578447e-08
-1.949035287e-08
-1.309478166e-08
9.103716823e-09
5.866238452e-08
2.09915937e-07
-0.0001040955737
41.34922237
0
0
0
0
0
0
0
0
0
0
0
391.1475364
-0.002065608438
2.085694292e-09
-1.692924989e-10
-2.052747124e-09
-3.988805171e-09
-6.08515539e-09
-8.377888856e-09
-1.073289918e-08
-1.279101354e-08
-1.382495898e-08
-1.249221123e-08
-6.276015194e-09
9.413984796e-09
4.245836186e-08
9.935182285e-08
1.399514628e-07
1.479215659e-07
-2.275218057e-07
17.2768163
10.02012392
0
0
0
0
0
0
0
-0.006133422172
18.12055558
-4.555892996e-05
-8.500694533e-11
3.110352367e-09
4.470872192e-10
-1.680586703e-09
-3.735627335e-09
-5.83852896e-09
-8.001711157e-09
-1.004523904e-08
-1.151995376e-08
-1.161447104e-08
-9.012976731e-09
-1.810055998e-09
1.239589261e-08
3.580104853e-08
6.847039668e-08
1.173632591e-07
2.028001075e-07
4.949452159e-07
-4.303527946e-05
-2.536520679e-05
435.2302211
128.5608766
122.6369614
62.44464494
113.9959277
102.5664572
357.0164545
-1.903166167e-07
-1.537769032e-07
-2.364971922e-08
8.193531902e-08
3.542831685e-09
7.09947386e-10
-1.531182407e-09
-3.659195452e-09
-5.798074638e-09
-7.95939944e-09
-9.951383901e-09
-1.131545604e-08
-1.1250981e-08
-8.573714096e-09
-1.860086764e-09
9.989697116e-09
2.646302903e-08
4.404596075e-08
6.359112326e-08
9.484676365e-08
1.433278445e-07
2.256118712e-07
6.756634488e-07
-0.002192592329
-0.0006481286377
-0.0006184153561
-0.0003150798948
-0.000575085263
-0.0005175344094
-0.001799387674
-1.94494733e-07
-2.086936215e-07
-3.266758403e-07
-1.794299434e-07
3.327164471e-09
5.842022568e-10
-1.628498736e-09
-3.780233679e-09
-5.987201231e-09
-8.281361693e-09
-1.048344066e-08
-1.216690579e-08
-1.251218827e-08
-1.021851889e-08
-3.36609624e-09
1.041226159e-08
3.331827627e-08
6.550666783e-08
1.139335371e-07
1.967139554e-07
4.904744695e-07
-4.248242375e-05
-2.471099001e-05
435.1811727
128.5486931
122.6854901
62.54606192
114.1376788
102.736998
357.160159
-2.121329567e-07
-1.724954777e-07
8.66998608e-09
7.421271162e-08
2.544698612e-09
1.24733185e-10
-1.944102337e-09
-4.070074601e-09
-6.383601486e-09
-8.928267687e-09
-1.160608825e-08
-1.406731526e-08
-1.561295344e-08
-1.488264804e-08
-9.385250895e-09
5.48892724e-09
3.76095145e-08
9.33330236e-08
1.305662567e-07
1.365130697e-07
-2.360926909e-07
17.05672269
9.759568854
0
0
0
0
0
0
0
-0.006121988256
18.3328613
-4.610266643e-05
-8.18533442e-11
)
;

boundaryField
{
    lowerWall
    {
        type            calculated;
        value           nonuniform 0();
    }
    atmosphere
    {
        type            calculated;
        value           nonuniform List<scalar> 
20
(
8.003038111e-09
1.011725447e-08
1.081159364e-08
1.024836679e-08
8.655627516e-09
6.344852506e-09
3.686737751e-09
1.073258867e-09
-1.136927675e-09
-2.665749347e-09
-3.35738098e-09
-3.19569405e-09
-2.30477234e-09
-9.206604721e-10
6.493952689e-10
2.085694292e-09
3.110352367e-09
3.542831685e-09
3.327164471e-09
2.544698612e-09
)
;
    }
    rightWall
    {
        type            empty;
    }
    leftWall
    {
        type            empty;
    }
    frontAndBack
    {
        type            calculated;
        value           nonuniform 0();
    }
    procBoundary2to0
    {
        type            processor;
        value           nonuniform List<scalar> 
30
(
4.306858813e-09
9.559673717e-10
-1.068740256e-09
-2.559410067e-09
-3.832290208e-09
-4.964369874e-09
-5.836022417e-09
-6.114624654e-09
-5.237889446e-09
-2.25955598e-09
4.588307908e-09
1.929128666e-08
5.20124044e-08
1.151967187e-07
2.896863024e-07
-0.0001163613994
46.23581439
0
0
0
0
0
0
0
0
0
0
0
393.7128196
-0.002066295491
)
;
    }
    procBoundary2to3
    {
        type            processor;
        value           nonuniform List<scalar> 
20
(
-9.828763159e-05
-0.008773702983
-0.007212221876
-0.008774500233
-8.647299967e-05
427.410757
9.95338304
0
0
0
0
0
0
10.46709155
428.2645126
-3.379468263e-05
-0.008695011692
-0.007138562331
-0.008690896168
-2.985053753e-05
)
;
    }
    procBoundary2to4
    {
        type            processor;
        value           nonuniform List<scalar> 
30
(
1.405751743e-09
-5.504225816e-10
-2.390973884e-09
-4.472959314e-09
-6.907366422e-09
-9.796507204e-09
-1.313385002e-08
-1.679569978e-08
-2.043975582e-08
-2.338957922e-08
-2.41359629e-08
-1.903845469e-08
1.604433814e-09
4.942948916e-08
1.975083857e-07
-0.0001032198817
40.9977723
0
0
0
0
0
0
0
0
0
0
0
391.0692514
-0.002065449672
)
;
    }
}


// ************************************************************************* //
