/*--------------------------------*- C++ -*----------------------------------*\
  =========                 |
  \\      /  F ield         | OpenFOAM: The Open Source CFD Toolbox
   \\    /   O peration     | Website:  https://openfoam.org
    \\  /    A nd           | Version:  6
     \\/     M anipulation  |
\*---------------------------------------------------------------------------*/
FoamFile
{
    version     2.0;
    format      ascii;
    class       volScalarField;
    location    "0.0036";
    object      Num_divU;
}
// * * * * * * * * * * * * * * * * * * * * * * * * * * * * * * * * * * * * * //

dimensions      [0 0 -1 0 0 0 0];

internalField   nonuniform List<scalar> 
9600
(
3.228467388e-08
6.848810599e-08
6.725961948e-08
6.839878228e-08
6.748196003e-08
6.658099649e-08
6.566009725e-08
6.471940809e-08
6.373732813e-08
6.273448615e-08
6.170222738e-08
6.066900874e-08
5.962861787e-08
5.860848583e-08
5.759755011e-08
5.661711898e-08
5.564925153e-08
5.471108756e-08
5.378190862e-08
5.287883746e-08
5.197927819e-08
5.109741311e-08
5.020414508e-08
4.93075284e-08
4.83742365e-08
4.74142152e-08
4.639974039e-08
4.534867393e-08
4.423649443e-08
4.307940495e-08
4.184479848e-08
4.054102676e-08
3.913097042e-08
3.762659129e-08
3.59984109e-08
3.426754681e-08
3.240732019e-08
3.043589197e-08
2.831720347e-08
2.606124546e-08
2.362735742e-08
2.103036789e-08
1.824066545e-08
1.529070192e-08
1.216803027e-08
8.921779744e-09
5.549253683e-09
2.104206028e-09
-1.420354667e-09
-4.978489684e-09
-8.588452474e-09
-1.220990903e-08
-1.586107058e-08
-1.949100046e-08
-2.310548572e-08
-2.664352192e-08
-3.011597205e-08
-3.348028601e-08
-3.67786031e-08
-3.999505945e-08
-4.318711333e-08
-4.633270701e-08
-4.94740106e-08
-5.257342062e-08
-5.567637226e-08
-5.876459047e-08
-6.191506667e-08
-6.513015919e-08
-6.848939056e-08
-7.197300816e-08
-7.56334459e-08
-7.943382223e-08
-8.344120874e-08
-8.766211698e-08
-9.222991311e-08
-9.72171657e-08
-1.028141736e-07
-1.091351462e-07
-1.164124063e-07
-1.248170244e-07
-1.346728814e-07
-1.462810681e-07
-1.601305936e-07
-1.767047123e-07
-1.966729451e-07
-2.20679712e-07
-2.495301258e-07
-2.839837714e-07
-3.249537805e-07
-3.733170495e-07
-4.301199401e-07
-4.963873879e-07
-5.733129067e-07
-6.620565956e-07
-7.639209926e-07
-8.801526403e-07
-1.012116161e-06
-1.161103211e-06
-1.328498673e-06
-1.515592085e-06
-1.723738199e-06
-1.954193518e-06
-2.20828361e-06
-2.487250908e-06
-2.792371255e-06
-3.124742523e-06
-3.485332773e-06
-3.874789119e-06
-4.293565951e-06
-4.741838995e-06
-5.219640189e-06
-5.726751385e-06
-6.262737268e-06
-6.826808794e-06
-7.417471998e-06
-8.032111815e-06
-8.670208733e-06
-9.35849282e-06
-1.049674445e-05
-5.613047661e-06
3.17159644e-08
6.738895125e-08
6.729058378e-08
6.828424339e-08
6.747255456e-08
6.658819731e-08
6.571118648e-08
6.477124434e-08
6.382877248e-08
6.282547472e-08
6.183440219e-08
6.080220787e-08
5.980593568e-08
5.878905393e-08
5.782566388e-08
5.685103489e-08
5.593488138e-08
5.500615887e-08
5.413418289e-08
5.324486111e-08
5.240767567e-08
5.154252864e-08
5.071507236e-08
4.983678862e-08
4.897262569e-08
4.803347929e-08
4.7091865e-08
4.606236255e-08
4.502210919e-08
4.388012977e-08
4.270851241e-08
4.140649272e-08
4.004591928e-08
3.852625385e-08
3.692880988e-08
3.515650157e-08
3.329433944e-08
3.12375857e-08
2.906610042e-08
2.666510998e-08
2.411638611e-08
2.13077773e-08
1.833653718e-08
1.510279048e-08
1.172346208e-08
8.109187725e-09
4.39056409e-09
4.795300198e-10
-3.489716382e-09
-7.612966562e-09
-1.175667989e-08
-1.602207827e-08
-2.026608394e-08
-2.458229714e-08
-2.880901945e-08
-3.303534562e-08
-3.709847949e-08
-4.110963406e-08
-4.492724226e-08
-4.869029266e-08
-5.226265796e-08
-5.578255491e-08
-5.909619147e-08
-6.233914571e-08
-6.536322696e-08
-6.833648817e-08
-7.114188772e-08
-7.397805172e-08
-7.673046431e-08
-7.958877055e-08
-8.241776848e-08
-8.540647387e-08
-8.843979998e-08
-9.175809293e-08
-9.530682262e-08
-9.938805425e-08
-1.039926793e-07
-1.094593299e-07
-1.158157564e-07
-1.234570534e-07
-1.325000963e-07
-1.434634787e-07
-1.56618109e-07
-1.726470151e-07
-1.919871652e-07
-2.154686222e-07
-2.436640835e-07
-2.775207952e-07
-3.17737057e-07
-3.653880015e-07
-4.213258203e-07
-4.867786016e-07
-5.62761533e-07
-6.506372585e-07
-7.515459355e-07
-8.669357892e-07
-9.980258013e-07
-1.146303293e-06
-1.313017304e-06
-1.499633694e-06
-1.707373348e-06
-1.937643293e-06
-2.191638725e-06
-2.470732482e-06
-2.77607953e-06
-3.108889105e-06
-3.4700132e-06
-3.860188249e-06
-4.279770291e-06
-4.729023051e-06
-5.207919389e-06
-5.716330991e-06
-6.253862718e-06
-6.819860092e-06
-7.413187652e-06
-8.031665647e-06
-8.677166475e-06
-9.377124813e-06
-1.057974354e-05
-5.678698966e-06
3.159881743e-08
6.713742637e-08
6.70381311e-08
6.815421753e-08
6.738444464e-08
6.656465743e-08
6.56918872e-08
6.47966066e-08
6.384777862e-08
6.288534525e-08
6.188581058e-08
6.089493901e-08
5.989004616e-08
5.891554395e-08
5.794313861e-08
5.701222198e-08
5.608758141e-08
5.520531742e-08
5.43267441e-08
5.348698491e-08
5.264349218e-08
5.182790341e-08
5.099105839e-08
5.016071175e-08
4.928453204e-08
4.839327507e-08
4.743745219e-08
4.645257794e-08
4.538794852e-08
4.427617154e-08
4.305901583e-08
4.176517366e-08
4.033379191e-08
3.879763589e-08
3.709879188e-08
3.527344872e-08
3.326022947e-08
3.109109053e-08
2.869691668e-08
2.610842114e-08
2.325780722e-08
2.018597534e-08
1.683572592e-08
1.326325956e-08
9.422344666e-09
5.3821234e-09
1.103566102e-09
-3.335183987e-09
-7.970332348e-09
-1.271856681e-08
-1.761503144e-08
-2.256909117e-08
-2.760889593e-08
-3.262890447e-08
-3.764707245e-08
-4.254904576e-08
-4.735911464e-08
-5.197520743e-08
-5.644361404e-08
-6.067555672e-08
-6.472492004e-08
-6.849571115e-08
-7.203757781e-08
-7.525532994e-08
-7.82210502e-08
-8.087216385e-08
-8.332128166e-08
-8.553182308e-08
-8.762879951e-08
-8.957038054e-08
-9.147961651e-08
-9.332379463e-08
-9.526015089e-08
-9.73051355e-08
-9.967234611e-08
-1.024248466e-07
-1.058125088e-07
-1.099280065e-07
-1.150607978e-07
-1.213660551e-07
-1.292261671e-07
-1.389181889e-07
-1.509643381e-07
-1.657904064e-07
-1.840630785e-07
-2.063488626e-07
-2.334463728e-07
-2.660571431e-07
-3.051169886e-07
-3.514799954e-07
-4.062394512e-07
-4.704165467e-07
-5.452591615e-07
-6.319345365e-07
-7.318092501e-07
-8.461555852e-07
-9.764149348e-07
-1.123917182e-06
-1.290118631e-06
-1.476335718e-06
-1.683969227e-06
-1.914281307e-06
-2.168622789e-06
-2.448233562e-06
-2.754405305e-06
-3.088226864e-06
-3.450662192e-06
-3.842338675e-06
-4.263708122e-06
-4.714966041e-06
-5.196193771e-06
-5.707269323e-06
-6.247951802e-06
-6.817784074e-06
-7.415974225e-06
-8.04121284e-06
-8.696238981e-06
-9.411101228e-06
-1.063940547e-05
-5.718153836e-06
3.151561228e-08
6.693478967e-08
6.68661589e-08
6.801003725e-08
6.729624339e-08
6.649740713e-08
6.566437341e-08
6.477568576e-08
6.385848797e-08
6.289767826e-08
6.192775258e-08
6.093698858e-08
5.996106366e-08
5.898534241e-08
5.80412301e-08
5.710779708e-08
5.621184095e-08
5.532765553e-08
5.447931867e-08
5.36375087e-08
5.2823073e-08
5.200114111e-08
5.118833865e-08
5.034550178e-08
4.948932679e-08
4.858115477e-08
4.7640534e-08
4.662852213e-08
4.55630548e-08
4.439982802e-08
4.315310461e-08
4.177490931e-08
4.028072498e-08
3.862340804e-08
3.681992786e-08
3.481966284e-08
3.263534375e-08
3.02096326e-08
2.755353164e-08
2.46111901e-08
2.140244425e-08
1.788143896e-08
1.408075422e-08
9.96337636e-09
5.571807291e-09
8.759322047e-10
-4.071326738e-09
-9.290652706e-09
-1.471589283e-08
-2.035697991e-08
-2.613451713e-08
-3.204805448e-08
-3.80043669e-08
-4.399248492e-08
-4.99079226e-08
-5.573707556e-08
-6.137706703e-08
-6.682520562e-08
-7.198776003e-08
-7.68707371e-08
-8.137985961e-08
-8.55211906e-08
-8.920233016e-08
-9.244705693e-08
-9.51926294e-08
-9.750525177e-08
-9.936067072e-08
-1.00855905e-07
-1.019811956e-07
-1.028436454e-07
-1.034454909e-07
-1.039220497e-07
-1.043167378e-07
-1.048148175e-07
-1.055038335e-07
-1.066028362e-07
-1.082235427e-07
-1.106133008e-07
-1.139289153e-07
-1.184892476e-07
-1.245487949e-07
-1.325415008e-07
-1.428463532e-07
-1.560228791e-07
-1.725789427e-07
-1.932057011e-07
-2.185535069e-07
-2.494634707e-07
-2.867480727e-07
-3.314132242e-07
-3.844417722e-07
-4.470023437e-07
-5.202362734e-07
-6.054538307e-07
-7.039287093e-07
-8.170803681e-07
-9.462751508e-07
-1.092987189e-06
-1.258602315e-06
-1.444561954e-06
-1.652191661e-06
-1.88285678e-06
-2.137833896e-06
-2.418452305e-06
-2.72593556e-06
-3.061446613e-06
-3.425883134e-06
-3.819930228e-06
-4.243990405e-06
-4.698328446e-06
-5.183027244e-06
-5.698069358e-06
-6.243312534e-06
-6.818488521e-06
-7.423182118e-06
-8.056287937e-06
-8.721750814e-06
-9.448317202e-06
-1.069524236e-05
-5.750558339e-06
3.146043282e-08
6.681173939e-08
6.672168488e-08
6.788692775e-08
6.718939984e-08
6.642261057e-08
6.560181543e-08
6.473927191e-08
6.382896837e-08
6.289093546e-08
6.1925178e-08
6.095553196e-08
5.998173532e-08
5.902523032e-08
5.808068006e-08
5.716474907e-08
5.626695101e-08
5.540002467e-08
5.454926542e-08
5.372316808e-08
5.290190838e-08
5.208918258e-08
5.126088972e-08
5.041941249e-08
4.954008736e-08
4.862634568e-08
4.765242934e-08
4.661925575e-08
4.549634299e-08
4.428053556e-08
4.293845404e-08
4.146740479e-08
3.98343864e-08
3.803675384e-08
3.603722706e-08
3.38265923e-08
3.135956959e-08
2.862316157e-08
2.557341404e-08
2.220607295e-08
1.848891274e-08
1.443057859e-08
1.000769956e-08
5.235668272e-09
9.522414697e-11
-5.390971038e-09
-1.123160307e-08
-1.738674379e-08
-2.384528518e-08
-3.054503126e-08
-3.745531983e-08
-4.449574563e-08
-5.162203089e-08
-5.87418958e-08
-6.580415778e-08
-7.271192243e-08
-7.941425347e-08
-8.581444923e-08
-9.186271542e-08
-9.74603977e-08
-1.025580802e-07
-1.070617302e-07
-1.109394485e-07
-1.141270617e-07
-1.166352112e-07
-1.184444833e-07
-1.196071345e-07
-1.2013458e-07
-1.201040719e-07
-1.195509131e-07
-1.185858771e-07
-1.172878116e-07
-1.158179698e-07
-1.143003956e-07
-1.129292238e-07
-1.118480574e-07
-1.112685547e-07
-1.1136388e-07
-1.123995194e-07
-1.146280128e-07
-1.18411504e-07
-1.241058226e-07
-1.321754306e-07
-1.430808952e-07
-1.574008971e-07
-1.757307897e-07
-1.988050041e-07
-2.273933001e-07
-2.624103728e-07
-3.048056081e-07
-3.55663774e-07
-4.160978541e-07
-4.873473467e-07
-5.706768033e-07
-6.674669121e-07
-7.791110657e-07
-9.070887056e-07
-1.052854484e-06
-1.217894244e-06
-1.403619929e-06
-1.611435211e-06
-1.842668093e-06
-2.098658729e-06
-2.38069904e-06
-2.690064585e-06
-3.027878696e-06
-3.395075282e-06
-3.792301267e-06
-4.219994972e-06
-4.678412777e-06
-5.167702123e-06
-5.68789332e-06
-6.238948724e-06
-6.820753047e-06
-7.432981123e-06
-8.074995882e-06
-8.750072533e-06
-9.488899951e-06
-1.074867081e-05
-5.781586745e-06
3.141696951e-08
6.670091162e-08
6.660061648e-08
6.77631372e-08
6.708161625e-08
6.632570477e-08
6.552391503e-08
6.467115705e-08
6.377750564e-08
6.28468284e-08
6.189579042e-08
6.093122992e-08
5.996968357e-08
5.901501533e-08
5.807963535e-08
5.716259077e-08
5.627190278e-08
5.540204111e-08
5.455629099e-08
5.372304723e-08
5.290002551e-08
5.207089055e-08
5.123065477e-08
5.036237734e-08
4.946137759e-08
4.850938526e-08
4.749844724e-08
4.64043004e-08
4.521336085e-08
4.389772681e-08
4.244336353e-08
4.082368495e-08
3.902536544e-08
3.701790006e-08
3.477981794e-08
3.22698615e-08
2.94587299e-08
2.630346544e-08
2.278187372e-08
1.88639853e-08
1.454277219e-08
9.79973894e-09
4.634451605e-09
-9.696146276e-10
-7.010096004e-09
-1.349607312e-08
-2.040878875e-08
-2.773335904e-08
-3.542125542e-08
-4.342762894e-08
-5.16767142e-08
-6.010231585e-08
-6.861233571e-08
-7.712945661e-08
-8.555270779e-08
-9.379772957e-08
-1.017552222e-07
-1.093317126e-07
-1.164076365e-07
-1.22883128e-07
-1.28640187e-07
-1.335949982e-07
-1.376606627e-07
-1.407981571e-07
-1.429708779e-07
-1.441893356e-07
-1.44459369e-07
-1.438289712e-07
-1.423406103e-07
-1.40086586e-07
-1.371633262e-07
-1.337238658e-07
-1.299206931e-07
-1.259479007e-07
-1.219796713e-07
-1.182203831e-07
-1.14858777e-07
-1.121340025e-07
-1.102957562e-07
-1.09664032e-07
-1.105759336e-07
-1.13433974e-07
-1.186535886e-07
-1.267226887e-07
-1.381668613e-07
-1.536186851e-07
-1.737818739e-07
-1.994849907e-07
-2.316287435e-07
-2.712258837e-07
-3.193473165e-07
-3.771668484e-07
-4.459176025e-07
-5.269379422e-07
-6.216242813e-07
-7.314596824e-07
-8.579503302e-07
-1.002634277e-06
-1.16701183e-06
-1.352556677e-06
-1.5606709e-06
-1.79272748e-06
-2.050057335e-06
-2.333985597e-06
-2.645770445e-06
-2.986552845e-06
-3.357240754e-06
-3.758490818e-06
-4.190726284e-06
-4.654231166e-06
-5.149174308e-06
-5.675641978e-06
-6.233665305e-06
-6.823175768e-06
-7.444040641e-06
-8.095316823e-06
-8.781144592e-06
-9.529672405e-06
-1.080419272e-05
-5.813571865e-06
3.13704115e-08
6.659324206e-08
6.647900302e-08
6.763914001e-08
6.696116764e-08
6.621614471e-08
6.542242036e-08
6.458168436e-08
6.369570341e-08
6.277572013e-08
6.183043591e-08
6.087426444e-08
5.991526182e-08
5.896522481e-08
5.802836778e-08
5.711245942e-08
5.621715724e-08
5.534535225e-08
5.449057067e-08
5.364901291e-08
5.280799335e-08
5.195939961e-08
5.108902612e-08
5.018912935e-08
4.924481471e-08
4.824539305e-08
4.716943164e-08
4.599849118e-08
4.470473633e-08
4.326711601e-08
4.165874483e-08
3.986037014e-08
3.784328036e-08
3.558087129e-08
3.303223957e-08
3.015852425e-08
2.691180266e-08
2.325586989e-08
1.915423893e-08
1.45871324e-08
9.532943692e-09
3.981229513e-09
-2.087257783e-09
-8.68288004e-09
-1.582175453e-08
-2.350186707e-08
-3.171597935e-08
-4.042921595e-08
-4.95968791e-08
-5.914730335e-08
-6.900425145e-08
-7.907081134e-08
-8.925186533e-08
-9.943531969e-08
-1.095124223e-07
-1.193554793e-07
-1.288373936e-07
-1.378097196e-07
-1.461272928e-07
-1.536327365e-07
-1.601888277e-07
-1.656657776e-07
-1.699721612e-07
-1.73034131e-07
-1.748182535e-07
-1.753035865e-07
-1.745048688e-07
-1.724486514e-07
-1.692048855e-07
-1.648670702e-07
-1.595821673e-07
-1.535199353e-07
-1.468889153e-07
-1.398958232e-07
-1.327636306e-07
-1.257051679e-07
-1.189601918e-07
-1.127818551e-07
-1.074726762e-07
-1.033582903e-07
-1.008074055e-07
-1.002005311e-07
-1.019596328e-07
-1.065388896e-07
-1.14475202e-07
-1.263867443e-07
-1.430118334e-07
-1.651837045e-07
-1.938458945e-07
-2.3001644e-07
-2.748076258e-07
-3.294055502e-07
-3.951008148e-07
-4.732709064e-07
-5.653950843e-07
-6.730143435e-07
-7.97719676e-07
-9.410966923e-07
-1.104709195e-06
-1.290057073e-06
-1.49858552e-06
-1.731679699e-06
-1.990698435e-06
-2.276964164e-06
-2.591743739e-06
-2.936157936e-06
-3.311107987e-06
-3.717227709e-06
-4.154940603e-06
-4.624529762e-06
-5.126187802e-06
-5.660030534e-06
-6.226117678e-06
-6.824454903e-06
-7.454793001e-06
-8.116548742e-06
-8.812680181e-06
-9.574179724e-06
-1.086173125e-05
-5.847606688e-06
3.132055229e-08
6.647553635e-08
6.635148954e-08
6.750428102e-08
6.682914565e-08
6.608803103e-08
6.530152913e-08
6.446665176e-08
6.358810649e-08
6.267337965e-08
6.173391296e-08
6.078003892e-08
5.982327677e-08
5.887133462e-08
5.793229641e-08
5.701013884e-08
5.610854928e-08
5.522585594e-08
5.435838897e-08
5.349714425e-08
5.263237752e-08
5.175139257e-08
5.084386665e-08
4.989713447e-08
4.889915952e-08
4.783162742e-08
4.667388927e-08
4.539852604e-08
4.397882645e-08
4.238566722e-08
4.059353489e-08
3.857345428e-08
3.62949189e-08
3.3717627e-08
3.079650386e-08
2.747913937e-08
2.371659524e-08
1.946310683e-08
1.46846473e-08
9.352081424e-09
3.443837273e-09
-3.064368194e-09
-1.01946556e-08
-1.797125961e-08
-2.64084402e-08
-3.551041039e-08
-4.525899413e-08
-5.561757507e-08
-6.652462906e-08
-7.790289218e-08
-8.965563971e-08
-1.016762601e-07
-1.138429243e-07
-1.260257206e-07
-1.38078436e-07
-1.498437774e-07
-1.611446159e-07
-1.717928538e-07
-1.815876978e-07
-1.903337083e-07
-1.978455811e-07
-2.039673712e-07
-2.085708392e-07
-2.115652071e-07
-2.128861943e-07
-2.125028596e-07
-2.104094644e-07
-2.066404334e-07
-2.012688963e-07
-1.944231867e-07
-1.862771451e-07
-1.770509913e-07
-1.669861248e-07
-1.563387668e-07
-1.453629865e-07
-1.343227539e-07
-1.23494281e-07
-1.131844884e-07
-1.037249288e-07
-9.547298315e-08
-8.879391186e-08
-8.406639719e-08
-8.168638134e-08
-8.210227844e-08
-8.583911769e-08
-9.353273624e-08
-1.05931055e-07
-1.238967768e-07
-1.483850761e-07
-1.804424385e-07
-2.211991253e-07
-2.718885929e-07
-3.338522052e-07
-4.085507621e-07
-4.975444292e-07
-6.024705556e-07
-7.24996625e-07
-8.667851475e-07
-1.02945248e-06
-1.214552171e-06
-1.423563265e-06
-1.657905714e-06
-1.918951411e-06
-2.208030996e-06
-2.526395471e-06
-2.87514732e-06
-3.255156096e-06
-3.667033617e-06
-4.11118239e-06
-4.587881663e-06
-5.097326522e-06
-5.639644153e-06
-6.214922378e-06
-6.823131837e-06
-7.464170198e-06
-8.136962123e-06
-8.84560884e-06
-9.618136635e-06
-1.09234587e-05
-5.88405061e-06
3.126405527e-08
6.634534333e-08
6.621069524e-08
6.735601581e-08
6.668021627e-08
6.594160541e-08
6.515818334e-08
6.432775703e-08
6.345292041e-08
6.254182836e-08
6.160419005e-08
6.065102045e-08
5.96918813e-08
5.873601046e-08
5.778975957e-08
5.68588766e-08
5.594481943e-08
5.504676567e-08
5.415838419e-08
5.327106166e-08
5.237264038e-08
5.145169296e-08
5.049555708e-08
4.949199672e-08
4.842459784e-08
4.727336311e-08
4.601145449e-08
4.460975798e-08
4.303585771e-08
4.12592352e-08
3.924751829e-08
3.696717545e-08
3.437667965e-08
3.142796712e-08
2.806422e-08
2.42274842e-08
1.986127025e-08
1.491788357e-08
9.356412394e-09
3.143321503e-09
-3.755300428e-09
-1.137273347e-08
-1.974470542e-08
-2.890067991e-08
-3.886034703e-08
-4.96230311e-08
-6.116711621e-08
-7.344507913e-08
-8.638881292e-08
-9.990776432e-08
-1.138946636e-07
-1.282224208e-07
-1.427478473e-07
-1.573070018e-07
-1.717175014e-07
-1.857731477e-07
-1.992479804e-07
-2.118961954e-07
-2.234651845e-07
-2.337046171e-07
-2.4238492e-07
-2.493039931e-07
-2.542977205e-07
-2.572359066e-07
-2.580263269e-07
-2.566100419e-07
-2.529717292e-07
-2.471430192e-07
-2.392178305e-07
-2.293524842e-07
-2.177672482e-07
-2.047276694e-07
-1.905295335e-07
-1.754785147e-07
-1.598875723e-07
-1.440778516e-07
-1.283901482e-07
-1.131845629e-07
-9.883660833e-08
-8.572017597e-08
-7.420071392e-08
-6.463603036e-08
-5.740380319e-08
-5.293467944e-08
-5.175472343e-08
-5.450471981e-08
-6.194932065e-08
-7.496072064e-08
-9.4509953e-08
-1.216581249e-07
-1.575718243e-07
-2.035374745e-07
-2.609807905e-07
-3.314609721e-07
-4.166507523e-07
-5.182918968e-07
-6.381503006e-07
-7.77969222e-07
-9.394386867e-07
-1.124172299e-06
-1.333702583e-06
-1.569484901e-06
-1.832909887e-06
-2.125301452e-06
-2.447886288e-06
-2.801726491e-06
-3.18764882e-06
-3.606222872e-06
-4.057819496e-06
-4.542694433e-06
-5.06103114e-06
-5.612956932e-06
-6.198548736e-06
-6.817834031e-06
-7.470536231e-06
-8.15604686e-06
-8.877069595e-06
-9.665588583e-06
-1.098727512e-05
-5.922988457e-06
3.120026544e-08
6.619844157e-08
6.605388026e-08
6.718996048e-08
6.651286545e-08
6.577419838e-08
6.499230592e-08
6.416353739e-08
6.329051365e-08
6.238026561e-08
6.144218149e-08
6.048635307e-08
5.952238412e-08
5.85587529e-08
5.760248792e-08
5.665825306e-08
5.57278178e-08
5.480817359e-08
5.389288565e-08
5.297142853e-08
5.203200212e-08
5.106179964e-08
5.004795424e-08
4.897532648e-08
4.782496915e-08
4.657183573e-08
4.518620625e-08
4.363399262e-08
4.188056523e-08
3.988979112e-08
3.762430189e-08
3.50407151e-08
3.208817517e-08
2.870677787e-08
2.483142926e-08
2.039615472e-08
1.534019167e-08
9.60982365e-09
3.157861136e-09
-4.061254566e-09
-1.209396669e-08
-2.098955633e-08
-3.079464237e-08
-4.15471559e-08
-5.326698906e-08
-6.595147281e-08
-7.957187585e-08
-9.407556e-08
-1.093860023e-07
-1.254049072e-07
-1.420100241e-07
-1.590546419e-07
-1.763647843e-07
-1.937388409e-07
-2.109455721e-07
-2.277249803e-07
-2.43789455e-07
-2.588314656e-07
-2.725340382e-07
-2.845871385e-07
-2.947011532e-07
-3.026195929e-07
-3.081232987e-07
-3.110347655e-07
-3.112181607e-07
-3.085862069e-07
-3.031070836e-07
-2.948179006e-07
-2.838335303e-07
-2.703510734e-07
-2.546412737e-07
-2.370302102e-07
-2.17877468e-07
-1.975593596e-07
-1.764645845e-07
-1.549963134e-07
-1.335743659e-07
-1.126265439e-07
-9.257134141e-08
-7.379882297e-08
-5.666373338e-08
-4.150050831e-08
-2.865920832e-08
-1.855359374e-08
-1.170055261e-08
-8.742130577e-09
-1.044214793e-08
-1.767480457e-08
-3.141349263e-08
-5.273986299e-08
-8.286430023e-08
-1.231536094e-07
-1.751417314e-07
-2.405181126e-07
-3.210875972e-07
-4.187183388e-07
-5.352877049e-07
-6.726406364e-07
-8.325583499e-07
-1.016738248e-06
-1.226781171e-06
-1.464187318e-06
-1.730360857e-06
-2.026606906e-06
-2.35410609e-06
-2.713858829e-06
-3.106625002e-06
-3.532911731e-06
-3.993035987e-06
-4.487211028e-06
-5.015591584e-06
-5.578286683e-06
-6.175390137e-06
-6.806883835e-06
-7.472695275e-06
-8.171669716e-06
-8.908053105e-06
-9.710414108e-06
-1.105461366e-05
-5.96409851e-06
3.112792364e-08
6.603347439e-08
6.587812537e-08
6.700416528e-08
6.632441163e-08
6.558473915e-08
6.480237005e-08
6.397367043e-08
6.310031179e-08
6.218868957e-08
6.124761682e-08
6.028655071e-08
5.931470771e-08
5.834058963e-08
5.737082187e-08
5.640979532e-08
5.545795388e-08
5.451162191e-08
5.356280582e-08
5.260053956e-08
5.161228183e-08
5.058481147e-08
4.950344909e-08
4.835033212e-08
4.710226147e-08
4.573036725e-08
4.420038476e-08
4.247530147e-08
4.051592589e-08
3.828129502e-08
3.572538613e-08
3.279509789e-08
2.942742444e-08
2.555189158e-08
2.109412865e-08
1.598189825e-08
1.014832481e-08
3.532658419e-09
-3.923905353e-09
-1.228152619e-08
-2.160496153e-08
-3.19594566e-08
-4.340472858e-08
-5.598450022e-08
-6.972012948e-08
-8.460606186e-08
-1.006109536e-07
-1.176783898e-07
-1.357281392e-07
-1.546530755e-07
-1.743158278e-07
-1.945440493e-07
-2.151282832e-07
-2.358201837e-07
-2.56333178e-07
-2.763431385e-07
-2.954934389e-07
-3.134030465e-07
-3.296811277e-07
-3.439423382e-07
-3.558233969e-07
-3.649935017e-07
-3.711636292e-07
-3.74091122e-07
-3.735880215e-07
-3.695298533e-07
-3.618693986e-07
-3.506503834e-07
-3.360173161e-07
-3.182166193e-07
-2.975823376e-07
-2.745151384e-07
-2.494564991e-07
-2.228757202e-07
-1.952625288e-07
-1.67126851e-07
-1.389874421e-07
-1.113512537e-07
-8.468390687e-08
-5.938842204e-08
-3.580439758e-08
-1.423483636e-08
5.003826247e-09
2.15276299e-08
3.484164975e-08
4.432356219e-08
4.92269662e-08
4.869406949e-08
4.175406173e-08
2.730267387e-08
4.065778661e-09
-2.942930927e-08
-7.48588357e-08
-1.34070874e-07
-2.090293868e-07
-3.017491465e-07
-4.142427796e-07
-5.484827982e-07
-7.063744145e-07
-8.897285517e-07
-1.100235518e-06
-1.33944818e-06
-1.608775145e-06
-1.909481869e-06
-2.242675228e-06
-2.609263239e-06
-3.009908096e-06
-3.445024221e-06
-3.914845263e-06
-4.419517044e-06
-4.959145459e-06
-5.533821887e-06
-6.143627374e-06
-6.788637843e-06
-7.4686228e-06
-8.183079279e-06
-8.93467356e-06
-9.757081737e-06
-1.112198176e-05
-6.006941236e-06
3.104635441e-08
6.584790536e-08
6.568160955e-08
6.679649581e-08
6.611336574e-08
6.537152869e-08
6.458757794e-08
6.37572239e-08
6.288177262e-08
6.196682513e-08
6.102048593e-08
6.005165142e-08
5.906945355e-08
5.808193348e-08
5.709561091e-08
5.611402466e-08
5.51364706e-08
5.415812687e-08
5.316985885e-08
5.216024433e-08
5.111615683e-08
5.002335584e-08
4.886487857e-08
4.76193067e-08
4.625933344e-08
4.475145432e-08
4.305790668e-08
4.113744994e-08
3.894654575e-08
3.643686102e-08
3.355331427e-08
3.023056551e-08
2.639394456e-08
2.196198306e-08
1.685198704e-08
1.09845735e-08
4.285338254e-09
-3.317731544e-09
-1.189853396e-08
-2.153723919e-08
-3.231840013e-08
-4.432545406e-08
-5.762972216e-08
-7.228165197e-08
-8.830446468e-08
-1.056939335e-07
-1.244197088e-07
-1.444268844e-07
-1.656330815e-07
-1.879227751e-07
-2.111399057e-07
-2.350823353e-07
-2.594985922e-07
-2.840875888e-07
-3.084991769e-07
-3.323369978e-07
-3.551640128e-07
-3.765135733e-07
-3.959042158e-07
-4.128578042e-07
-4.269151576e-07
-4.376507376e-07
-4.446837469e-07
-4.476903944e-07
-4.464172441e-07
-4.406964682e-07
-4.304642475e-07
-4.157748354e-07
-3.968119319e-07
-3.738818351e-07
-3.473983398e-07
-3.17852892e-07
-2.857934517e-07
-2.518075987e-07
-2.165172829e-07
-1.805657247e-07
-1.445936938e-07
-1.092014785e-07
-7.491017768e-08
-4.213857528e-08
-1.120903319e-08
1.761370756e-08
4.40626611e-08
6.780577646e-08
8.839974725e-08
1.052699096e-07
1.177126404e-07
1.249018727e-07
1.258764262e-07
1.195020661e-07
1.044217332e-07
7.902535372e-08
4.146007949e-08
-1.031549471e-08
-7.845354903e-08
-1.651443054e-07
-2.725677291e-07
-4.028647464e-07
-5.581096598e-07
-7.402679561e-07
-9.511468494e-07
-1.192355835e-06
-1.465294476e-06
-1.771158078e-06
-2.110941491e-06
-2.485418323e-06
-2.89511082e-06
-3.340297906e-06
-3.821092482e-06
-4.337540313e-06
-4.889682234e-06
-5.477577484e-06
-6.101345885e-06
-6.761053544e-06
-7.456785032e-06
-8.187480994e-06
-8.957793486e-06
-9.79750196e-06
-1.119032677e-05
-6.050663149e-06
3.095468431e-08
6.564058508e-08
6.546266184e-08
6.656520921e-08
6.587823987e-08
6.513331929e-08
6.434676642e-08
6.351364074e-08
6.263444721e-08
6.171431146e-08
6.076048525e-08
5.978180456e-08
5.878668683e-08
5.778329857e-08
5.677746117e-08
5.577168846e-08
5.476422384e-08
5.374881881e-08
5.271560165e-08
5.165261225e-08
5.05459437e-08
4.937989707e-08
4.813464838e-08
4.678495426e-08
4.529868175e-08
4.363857655e-08
4.176237774e-08
3.962496538e-08
3.7176484e-08
3.436051794e-08
3.111056215e-08
2.734917226e-08
2.298936597e-08
1.793963502e-08
1.210856925e-08
5.408656689e-09
-2.245530556e-09
-1.094114625e-08
-2.077275488e-08
-3.18430967e-08
-4.42592648e-08
-5.812195703e-08
-7.35149631e-08
-9.049595311e-08
-1.090944016e-07
-1.293124696e-07
-1.511274083e-07
-1.744897711e-07
-1.993172351e-07
-2.254845551e-07
-2.528142846e-07
-2.810701029e-07
-3.099543214e-07
-3.391071002e-07
-3.681076585e-07
-3.96476808e-07
-4.236842038e-07
-4.491599181e-07
-4.723120512e-07
-4.925448213e-07
-5.092780108e-07
-5.219644118e-07
-5.301080562e-07
-5.332844083e-07
-5.311603004e-07
-5.235182676e-07
-5.102755635e-07
-4.915047208e-07
-4.674363266e-07
-4.384530923e-07
-4.050622325e-07
-3.678691646e-07
-3.275523095e-07
-2.848508071e-07
-2.405509122e-07
-1.954615946e-07
-1.503725846e-07
-1.060001919e-07
-6.293906948e-08
-2.163574785e-08
1.760040221e-08
5.45529564e-08
8.903127669e-08
1.207977812e-07
1.495080893e-07
1.746751975e-07
1.95665346e-07
2.116986065e-07
2.218297646e-07
2.248892691e-07
2.194201489e-07
2.036439689e-07
1.75492216e-07
1.3268836e-07
7.285276785e-08
-6.418702676e-09
-1.075184263e-07
-2.328135397e-07
-3.846118978e-07
-5.650893131e-07
-7.762015453e-07
-1.019618068e-06
-1.29670468e-06
-1.608545011e-06
-1.955969389e-06
-2.339559956e-06
-2.759640247e-06
-3.216297825e-06
-3.709473013e-06
-4.239075897e-06
-4.805057483e-06
-5.407457077e-06
-6.046407879e-06
-6.722145798e-06
-7.4346517e-06
-8.183748127e-06
-8.972335616e-06
-9.836576934e-06
-1.125472217e-05
-6.09428619e-06
3.085214244e-08
6.54094023e-08
6.52195588e-08
6.630890823e-08
6.561768058e-08
6.486904453e-08
6.407904599e-08
6.324189457e-08
6.235779836e-08
6.143072947e-08
6.046769845e-08
5.94769218e-08
5.846689064e-08
5.744517421e-08
5.641694172e-08
5.538355696e-08
5.434206202e-08
5.32848856e-08
5.220169897e-08
5.107963043e-08
4.990409062e-08
4.865696853e-08
4.731547682e-08
4.584965469e-08
4.422366738e-08
4.239525503e-08
4.031854895e-08
3.79426347e-08
3.521076714e-08
3.20562963e-08
2.840098212e-08
2.415455563e-08
1.921866639e-08
1.349151616e-08
6.872799595e-09
-7.36190503e-10
-9.435485182e-09
-1.933295331e-08
-3.054729878e-08
-4.320721368e-08
-5.744206654e-08
-7.33706796e-08
-9.108962959e-08
-1.106681768e-07
-1.32147544e-07
-1.555441342e-07
-1.808489942e-07
-2.080227432e-07
-2.369842258e-07
-2.675979541e-07
-2.996630735e-07
-3.329071449e-07
-3.669827569e-07
-4.014666697e-07
-4.358589615e-07
-4.695859512e-07
-5.020067214e-07
-5.324274052e-07
-5.601189379e-07
-5.843389263e-07
-6.043542724e-07
-6.194652761e-07
-6.290340644e-07
-6.325120888e-07
-6.294733237e-07
-6.196402322e-07
-6.029136892e-07
-5.793864821e-07
-5.493491628e-07
-5.132704533e-07
-4.717703627e-07
-4.255892663e-07
-3.755671469e-07
-3.226295373e-07
-2.677649401e-07
-2.119859978e-07
-1.562682409e-07
-1.014823605e-07
-4.833192612e-08
2.67919422e-09
5.124279163e-08
9.720563261e-08
1.405007999e-07
1.810590513e-07
2.187090866e-07
2.531052552e-07
2.837049995e-07
3.097864915e-07
3.304272864e-07
3.444312726e-07
3.502317075e-07
3.458547715e-07
3.289663074e-07
2.969975319e-07
2.472842603e-07
1.771581999e-07
8.395584915e-08
-3.499393593e-08
-1.823228106e-07
-3.604941106e-07
-5.716526055e-07
-8.175271442e-07
-1.09941305e-06
-1.418222748e-06
-1.774548699e-06
-2.168703372e-06
-2.600731966e-06
-3.070455582e-06
-3.577580341e-06
-4.121832861e-06
-4.70305656e-06
-5.321256294e-06
-5.976648816e-06
-6.669523988e-06
-7.400325557e-06
-8.168342664e-06
-8.978970774e-06
-9.864033373e-06
-1.131552568e-05
-6.136308388e-06
3.073790911e-08
6.515340304e-08
6.495104031e-08
6.602618693e-08
6.533028222e-08
6.457767974e-08
6.378343634e-08
6.29415818e-08
6.205103453e-08
6.111569878e-08
6.014176632e-08
5.913715895e-08
5.811025738e-08
5.706794845e-08
5.6014589e-08
5.495035214e-08
5.387082785e-08
5.276770096e-08
5.162970958e-08
5.044341551e-08
4.91926131e-08
4.78570064e-08
4.640956088e-08
4.481670104e-08
4.303748148e-08
4.10260109e-08
3.873102459e-08
3.609580342e-08
3.305445461e-08
2.952958819e-08
2.543017572e-08
2.065381949e-08
1.509087729e-08
8.629720109e-09
1.158834345e-09
-7.434493779e-09
-1.727048405e-08
-2.848162038e-08
-4.121508488e-08
-5.562592835e-08
-7.186683466e-08
-9.007475701e-08
-1.103627785e-07
-1.328170606e-07
-1.574994961e-07
-1.844485998e-07
-2.136763526e-07
-2.451570063e-07
-2.78812733e-07
-3.144981262e-07
-3.519897716e-07
-3.909787555e-07
-4.310668364e-07
-4.717620123e-07
-5.124764825e-07
-5.525268007e-07
-5.911420381e-07
-6.274776924e-07
-6.606366477e-07
-6.89694436e-07
-7.137276373e-07
-7.318500487e-07
-7.432490738e-07
-7.472303114e-07
-7.432540915e-07
-7.309764747e-07
-7.102751788e-07
-6.812688289e-07
-6.443109737e-07
-5.999682298e-07
-5.489888311e-07
-4.922735016e-07
-4.30858621e-07
-3.658950227e-07
-2.986179186e-07
-2.302900102e-07
-1.621291429e-07
-9.522132308e-08
-3.044360566e-08
3.158962225e-08
9.054602438e-08
1.463571332e-07
1.991600146e-07
2.49174936e-07
2.965247191e-07
3.410680917e-07
3.823659887e-07
4.197468181e-07
4.523341566e-07
4.789341133e-07
4.978895681e-07
5.070046761e-07
5.036125781e-07
4.847575689e-07
4.474075415e-07