/*--------------------------------*- C++ -*----------------------------------*\
  =========                 |
  \\      /  F ield         | OpenFOAM: The Open Source CFD Toolbox
   \\    /   O peration     | Website:  https://openfoam.org
    \\  /    A nd           | Version:  6
     \\/     M anipulation  |
\*---------------------------------------------------------------------------*/
FoamFile
{
    version     2.0;
    format      ascii;
    class       volScalarField;
    location    "0.0036";
    object      TRHS;
}
// * * * * * * * * * * * * * * * * * * * * * * * * * * * * * * * * * * * * * //

dimensions      [1 -1 -3 0 0 0 0];

internalField   nonuniform List<scalar> 
9600
(
3.226609497e-09
6.844184919e-09
6.719465465e-09
6.831509583e-09
6.738007324e-09
6.646176851e-09
6.5524325e-09
6.45682397e-09
6.35718168e-09
6.255589248e-09
6.151185482e-09
6.046826277e-09
5.941896575e-09
5.839145742e-09
5.737473392e-09
5.639021033e-09
5.541981156e-09
5.448096976e-09
5.355278791e-09
5.265259692e-09
5.175780803e-09
5.088272448e-09
4.99982059e-09
4.91125339e-09
4.819240456e-09
4.724800133e-09
4.625168877e-09
4.522137231e-09
4.413292396e-09
4.300261031e-09
4.179798824e-09
4.052763516e-09
3.915468148e-09
3.7691217e-09
3.610799459e-09
3.442619518e-09
3.261936691e-09
3.070569115e-09
2.864916968e-09
2.645977819e-09
2.409675442e-09
2.15748451e-09
1.886411168e-09
1.59967551e-09
1.295989301e-09
9.802174447e-10
6.520262186e-10
3.167237962e-10
-2.647061007e-11
-3.730464584e-10
-7.249297607e-10
-1.078190332e-09
-1.434754489e-09
-1.789646129e-09
-2.143558962e-09
-2.490507441e-09
-2.831695209e-09
-3.162975724e-09
-3.4886686e-09
-3.807282244e-09
-4.124645626e-09
-4.438621719e-09
-4.753479943e-09
-5.065490431e-09
-5.379208166e-09
-5.692790118e-09
-6.01389129e-09
-6.342681474e-09
-6.687010277e-09
-7.044765872e-09
-7.42103008e-09
-7.811914065e-09
-8.223887921e-09
-8.657337155e-09
-9.125291975e-09
-9.634672432e-09
-1.020414241e-08
-1.084472579e-08
-1.157922976e-08
-1.242430828e-08
-1.341188811e-08
-1.457158886e-08
-1.595182719e-08
-1.760043096e-08
-1.958386993e-08
-2.196611027e-08
-2.482722718e-08
-2.824274502e-08
-3.230363467e-08
-3.709726243e-08
-4.272802427e-08
-4.929826504e-08
-5.692726069e-08
-6.573105791e-08
-7.58400799e-08
-8.73792275e-08
-1.004853972e-07
-1.152882824e-07
-1.31927063e-07
-1.505314982e-07
-1.712380324e-07
-1.941733926e-07
-2.194713505e-07
-2.472574611e-07
-2.7766071e-07
-3.107923827e-07
-3.467507908e-07
-3.856022141e-07
-4.273936367e-07
-4.721441893e-07
-5.198585198e-07
-5.705162297e-07
-6.240750775e-07
-6.804573821e-07
-7.395148001e-07
-8.009869002e-07
-8.648223607e-07
-9.337015877e-07
-1.047523585e-06
-5.726704159e-07
3.169737639e-09
6.734261471e-09
6.722553628e-09
6.820030903e-09
6.737042917e-09
6.646861681e-09
6.557507945e-09
6.461958123e-09
6.3662773e-09
6.264619858e-09
6.164327297e-09
6.060058914e-09
5.959531678e-09
5.857101483e-09
5.76016629e-09
5.662278476e-09
5.570406623e-09
5.477446463e-09
5.390350079e-09
5.30168868e-09
5.218444788e-09
5.132587512e-09
5.050716817e-09
4.963981465e-09
4.878878894e-09
4.78652719e-09
4.69418136e-09
4.593321075e-09
4.491684397e-09
4.380176806e-09
4.266049215e-09
4.139232023e-09
4.006927308e-09
3.85911839e-09
3.703940035e-09
3.531701687e-09
3.350929261e-09
3.151143868e-09
2.94034783e-09
2.707061055e-09
2.459450229e-09
2.186284529e-09
1.897269951e-09
1.582383368e-09
1.253277608e-09
9.009634077e-10
5.384391616e-10
1.568268588e-10
-2.305340509e-10
-6.333203581e-10
-1.038269949e-09
-1.455617873e-09
-1.871170424e-09
-2.294401655e-09
-2.709267792e-09
-3.124797726e-09
-3.524831801e-09
-3.920609291e-09
-4.298081606e-09
-4.671247842e-09
-5.02658285e-09
-5.37798107e-09
-5.710117295e-09
-6.036584935e-09
-6.342574818e-09
-6.644878406e-09
-6.931750429e-09
-7.222980072e-09
-7.507012576e-09
-7.802679131e-09
-8.096288129e-09
-8.40653833e-09
-8.721677927e-09
-9.065473097e-09
-9.432158618e-09
-9.851603556e-09
-1.032251878e-08
-1.087836699e-08
-1.152149307e-08
-1.229095141e-08
-1.319796377e-08
-1.429389706e-08
-1.560534552e-08
-1.7200127e-08
-1.912143806e-08
-2.145181651e-08
-2.424807827e-08
-2.760453922e-08
-3.159065463e-08
-3.631362828e-08
-4.185843799e-08
-4.834772849e-08
-5.588294792e-08
-6.460040126e-08
-7.461425222e-08
-8.606959396e-08
-9.908871824e-08
-1.138209128e-07
-1.303917405e-07
-1.489486273e-07
-1.696145933e-07
-1.925314301e-07
-2.178198664e-07
-2.456184991e-07
-2.760442145e-07
-3.09219428e-07
-3.452308569e-07
-3.841537199e-07
-4.260251522e-07
-4.708730715e-07
-5.186962406e-07
-5.694832148e-07
-6.231957962e-07
-6.797696721e-07
-7.390923544e-07
-8.009467572e-07
-8.655203799e-07
-9.355631632e-07
-1.055811314e-06
-5.792416267e-07
3.158018929e-09
6.709104344e-09
6.697287235e-09
6.807017773e-09
6.728212883e-09
6.644487837e-09
6.555551558e-09
6.464459941e-09
6.368130276e-09
6.270570442e-09
6.169425654e-09
6.069293504e-09
5.967892445e-09
5.869691319e-09
5.771865577e-09
5.678338438e-09
5.585617146e-09
5.49731277e-09
5.409550541e-09
5.325854035e-09
5.241978945e-09
5.161106087e-09
5.078298529e-09
4.996381469e-09
4.91010512e-09
4.822576925e-09
4.728861502e-09
4.632515218e-09
4.528505373e-09
4.420102734e-09
4.301508578e-09
4.175614657e-09
4.036363107e-09
3.887040824e-09
3.721883283e-09
3.544535472e-09
3.348860648e-09
3.138076903e-09
2.905269214e-09
2.653513312e-09
2.376019447e-09
2.07686851e-09
1.750312473e-09
1.401940491e-09
1.027081111e-09
6.325982289e-10
2.145241016e-10
-2.194081219e-10
-6.729000328e-10
-1.137716697e-09
-1.617484083e-09
-2.103247834e-09
-2.597943366e-09
-3.091147216e-09
-3.584779067e-09
-4.067535659e-09
-4.541973811e-09
-4.998009486e-09
-5.440389553e-09
-5.860342372e-09
-6.263350553e-09
-6.639892579e-09
-6.994992992e-09
-7.319170523e-09
-7.619646636e-09
-7.890150175e-09
-8.141902437e-09
-8.371170012e-09
-8.590350125e-09
-8.795120095e-09
-8.997609808e-09
-9.19433957e-09
-9.400789108e-09
-9.618314698e-09
-9.867971635e-09
-1.015571058e-08
-1.050613647e-08
-1.092810787e-08
-1.145013104e-08
-1.208726272e-08
-1.287726194e-08
-1.384734037e-08
-1.504921833e-08
-1.65249677e-08
-1.834077264e-08
-2.055278777e-08
-2.324043363e-08
-2.647342932e-08
-3.034499022e-08
-3.494020766e-08
-4.036815516e-08
-4.673078859e-08
-5.415281782e-08
-6.275100221e-08
-7.266214008e-08
-8.401371985e-08
-9.695029734e-08
-1.116053687e-07
-1.281252588e-07
-1.466424101e-07
-1.672978576e-07
-1.902188895e-07
-2.155417982e-07
-2.433918789e-07
-2.738996966e-07
-3.071756227e-07
-3.433175711e-07
-3.823898509e-07
-4.244391822e-07
-4.694866524e-07
-5.175418623e-07
-5.685940024e-07
-6.226202651e-07
-6.795760723e-07
-7.393831733e-07
-8.019114332e-07
-8.674347639e-07
-9.389641777e-07
-1.061775409e-06
-5.832179139e-07
3.149686599e-09
6.688816424e-09
6.680091165e-09
6.792576335e-09
6.719387264e-09
6.637745493e-09
6.552783859e-09
6.462355241e-09
6.369186171e-09
6.271789252e-09
6.173590317e-09
6.073469472e-09
5.974972025e-09
5.876650407e-09
5.781647672e-09
5.687889378e-09
5.598035749e-09
5.509542231e-09
5.424820522e-09
5.340937283e-09
5.260000366e-09
5.178504843e-09
5.098157703e-09
5.015023068e-09
4.930804771e-09
4.841651912e-09
4.749524037e-09
4.650561924e-09
4.546578424e-09
4.433155615e-09
4.311751981e-09
4.177592348e-09
4.032252998e-09
3.871034724e-09
3.695665349e-09
3.501099165e-09
3.288625761e-09
3.052523252e-09
2.793899795e-09
2.50717151e-09
2.194312378e-09
1.850721235e-09
1.479629874e-09
1.077306936e-09
6.479526466e-10
1.884941612e-10
-2.958413411e-10
-8.072040726e-10
-1.339071727e-09
-1.892543595e-09
-2.459792333e-09
-3.040894686e-09
-3.626662847e-09
-4.216129377e-09
-4.798990007e-09
-5.374021774e-09
-5.931076402e-09
-6.470018768e-09
-6.981602101e-09
-7.466543733e-09
-7.915517823e-09
-8.329216435e-09
-8.698464812e-09
-9.025683451e-09
-9.304615197e-09
-9.541869653e-09
-9.734979006e-09
-9.893571386e-09
-1.001656376e-08
-1.011451874e-08
-1.018748647e-08
-1.024877366e-08
-1.030247637e-08
-1.036682614e-08
-1.045025099e-08
-1.057429761e-08
-1.07497476e-08
-1.10009027e-08
-1.134300997e-08
-1.180747278e-08
-1.241925094e-08
-1.322123015e-08
-1.42508078e-08
-1.556341215e-08
-1.720932484e-08
-1.92571775e-08
-2.177153455e-08
-2.48360785e-08
-2.853167247e-08
-3.295857944e-08
-3.821483123e-08
-4.441710991e-08
-5.167947051e-08
-6.013295433e-08
-6.990507493e-08
-8.113803563e-08
-9.396885256e-08
-1.085454814e-07
-1.250071624e-07
-1.434988506e-07
-1.641540428e-07
-1.871103552e-07
-2.124966346e-07
-2.404471265e-07
-2.710855922e-07
-3.045298074e-07
-3.408710457e-07
-3.801793882e-07
-4.224966482e-07
-4.678508149e-07
-5.162516565e-07
-5.676988115e-07
-6.22179311e-07
-6.796674182e-07
-7.401225764e-07
-8.034348895e-07
-8.699988345e-07
-9.426951098e-07
-1.067364644e-06
-5.865113224e-07
3.144164541e-09
6.676504945e-09
6.665619614e-09
6.780257883e-09
6.708686102e-09
6.630258655e-09
6.546512254e-09
6.458705811e-09
6.366228494e-09
6.271099714e-09
6.173338421e-09
6.075317819e-09
5.977045153e-09
5.880650112e-09
5.785615828e-09
5.693607687e-09
5.603598148e-09
5.516848284e-09
5.431901245e-09
5.349628519e-09
5.268029882e-09
5.187512882e-09
5.105660339e-09
5.022734283e-09
4.93628437e-09
4.846666896e-09
4.751325892e-09
4.650378366e-09
4.540788893e-09
4.42229024e-09
4.291552011e-09
4.148336882e-09
3.98937662e-09
3.814425048e-09
3.619783675e-09
3.404549351e-09
3.164213045e-09
2.897494915e-09
2.599996698e-09
2.271305944e-09
1.908181659e-09
1.511478168e-09
1.078829135e-09
6.117370779e-10
1.082218951e-10
-4.295099102e-10
-1.002402549e-09
-1.606553532e-09
-2.240948988e-09
-2.899488423e-09
-3.579223909e-09
-4.272252423e-09
-4.974285571e-09
-5.676245568e-09
-6.373166701e-09
-7.055510556e-09
-7.718336882e-09
-8.352121893e-09
-8.952024852e-09
-9.50830786e-09
-1.001614228e-08
-1.04662195e-08
-1.085542261e-08
-1.117738401e-08
-1.143318887e-08
-1.162088542e-08
-1.174566166e-08
-1.180857902e-08
-1.181725565e-08
-1.177506967e-08
-1.16929114e-08
-1.157844345e-08
-1.144752288e-08
-1.131225275e-08
-1.119171366e-08
-1.109988586e-08
-1.105753106e-08
-1.108153299e-08
-1.119796599e-08
-1.143160887e-08
-1.181815785e-08
-1.239268659e-08
-1.320110854e-08
-1.428895599e-08
-1.571357579e-08
-1.753399847e-08
-1.982319013e-08
-2.265768382e-08
-2.612854695e-08
-3.033039405e-08
-3.537141391e-08
-4.136273319e-08
-4.842820656e-08
-5.669428742e-08
-6.629918151e-08
-7.738247913e-08
-9.009250727e-08
-1.045752473e-07
-1.209799461e-07
-1.394486017e-07
-1.601225145e-07
-1.831355658e-07
-2.086229713e-07
-2.36715224e-07
-2.675412857e-07
-3.012149554e-07
-3.378311728e-07
-3.774561713e-07
-4.20135345e-07
-4.658958607e-07
-5.147539367e-07
-5.667139652e-07
-6.217734485e-07
-6.799219297e-07
-7.411278083e-07
-8.053280627e-07
-8.728501355e-07
-9.467690409e-07
-1.072720046e-06
-5.896886059e-07
3.139807923e-09
6.665402431e-09
6.653501154e-09
6.767868706e-09
6.697894075e-09
6.620565725e-09
6.538722321e-09
6.451897811e-09
6.361083785e-09
6.266705476e-09
6.170415054e-09
6.072918825e-09
5.975872615e-09
5.879674048e-09
5.785569548e-09
5.693471619e-09
5.604186388e-09
5.517179062e-09
5.432764454e-09
5.349816744e-09
5.268103171e-09
5.18599694e-09
5.103031684e-09
5.017512114e-09
4.928994666e-09
4.835672603e-09
4.736773827e-09
4.629895598e-09
4.513707951e-09
4.385444731e-09
4.243734609e-09
4.085952837e-09
3.910788406e-09
3.715224077e-09
3.497137087e-09
3.252435877e-09
2.978199512e-09
2.670153219e-09
2.326083033e-09
1.942994092e-09
1.520178584e-09
1.055765316e-09
5.49679631e-10
2.327272342e-13
-5.923967522e-10
-1.229182605e-09
-1.908339084e-09
-2.628464436e-09
-3.384826573e-09
-4.173058724e-09
-4.985724742e-09
-5.816347398e-09
-6.655876862e-09
-7.496741991e-09
-8.329016013e-09
-9.14442855e-09
-9.932219977e-09
-1.068320226e-08
-1.13855743e-08
-1.202949058e-08
-1.260327626e-08
-1.30986559e-08
-1.350702178e-08
-1.382452848e-08
-1.404754272e-08
-1.41771093e-08
-1.421377148e-08
-1.416225276e-08
-1.40266828e-08
-1.381613772e-08
-1.35400654e-08
-1.321353157e-08
-1.28515105e-08
-1.247309636e-08
-1.20953526e-08
-1.173833156e-08
-1.14204788e-08
-1.116525752e-08
-1.099715451e-08
-1.094766591e-08
-1.104997512e-08
-1.134380078e-08
-1.187013253e-08
-1.267722722e-08
-1.381710129e-08
-1.535249367e-08
-1.735327951e-08
-1.990185843e-08
-2.308788915e-08
-2.701228808e-08
-3.178187283e-08
-3.751381698e-08
-4.433132043e-08
-5.236823705e-08
-6.176429778e-08
-7.266807047e-08
-8.523052787e-08
-9.960600284e-08
-1.159451728e-07
-1.34396197e-07
-1.55100232e-07
-1.781956387e-07
-2.038166997e-07
-2.320972424e-07
-2.631644822e-07
-2.97133995e-07
-3.340981168e-07
-3.741240616e-07
-4.172557169e-07
-4.635230259e-07
-5.129443246e-07
-5.655296267e-07
-6.212832997e-07
-6.801995772e-07
-7.422660787e-07
-8.073891988e-07
-8.759829367e-07
-9.508682953e-07
-1.078291306e-06
-5.929830311e-07
3.135135303e-09
6.654609073e-09
6.64133357e-09
6.755465152e-09
6.685855935e-09
6.609611873e-09
6.528589696e-09
6.4429658e-09
6.352925357e-09
6.259618124e-09
6.16391899e-09
6.067270376e-09
5.970494001e-09
5.874774568e-09
5.780543779e-09
5.688576897e-09
5.598868034e-09
5.511695553e-09
5.426434041e-09
5.34270408e-09
5.259247822e-09
5.175281179e-09
5.089392445e-09
5.000817182e-09
4.908103078e-09
4.810189535e-09
4.704965408e-09
4.590613135e-09
4.464379683e-09
4.324188995e-09
4.167391405e-09
3.992087375e-09
3.795439323e-09
3.574829286e-09
3.326186121e-09
3.045655092e-09
2.728465953e-09
2.371018076e-09
1.969667295e-09
1.522439274e-09
1.027168612e-09
4.827828837e-10
-1.126635525e-10
-7.602638096e-10
-1.461682892e-09
-2.216799798e-09
-3.024981104e-09
-3.88284195e-09
-4.786039265e-09
-5.727543204e-09
-6.699877363e-09
-7.693514686e-09
-8.699119958e-09
-9.705659895e-09
-1.070244522e-08
-1.167689469e-08
-1.261648228e-08
-1.350654524e-08
-1.433273659e-08
-1.507947663e-08
-1.573318267e-08
-1.628099507e-08
-1.671386526e-08
-1.702447311e-08
-1.720950836e-08
-1.72668761e-08
-1.719801093e-08
-1.700548782e-08
-1.669618314e-08
-1.627928435e-08
-1.576928448e-08
-1.518290933e-08
-1.454072418e-08
-1.386306994e-08
-1.317187556e-08
-1.248800928e-08
-1.183501051e-08
-1.123771677e-08
-1.072588199e-08
-1.033153187e-08
-1.009100704e-08
-1.004178747e-08
-1.022551186e-08
-1.068702665e-08
-1.147947194e-08
-1.266412435e-08
-1.43142976e-08
-1.651283822e-08
-1.935367167e-08
-2.293823141e-08
-2.737743978e-08
-3.278969662e-08
-3.930393881e-08
-4.705788826e-08
-5.619959416e-08
-6.688335006e-08
-7.926865563e-08
-9.351453747e-08
-1.097780449e-07
-1.282099426e-07
-1.489556865e-07
-1.721548627e-07
-1.979445309e-07
-2.264582713e-07
-2.578241358e-07
-2.921557162e-07
-3.295446515e-07
-3.700558955e-07
-4.137333696e-07
-4.60606909e-07
-5.106972486e-07
-5.64017375e-07
-6.205745023e-07
-6.803702876e-07
-7.433807394e-07
-8.09548251e-07
-8.791686483e-07
-9.553473426e-07
-1.084070505e-06
-5.96504294e-07
3.130143293e-09
6.642825903e-09
6.628566916e-09
6.741984515e-09
6.67264788e-09
6.596805712e-09
6.516513365e-09
6.431488805e-09
6.342216855e-09
6.249430063e-09
6.154328687e-09
6.057929626e-09
5.961387018e-09
5.865501526e-09
5.771075948e-09
5.678527937e-09
5.588222113e-09
5.500000051e-09
5.413525999e-09
5.327892508e-09
5.242141842e-09
5.155027549e-09
5.065535938e-09
4.972412718e-09
4.874481059e-09
4.769937263e-09
4.656744865e-09
4.532191342e-09
4.39364146e-09
4.238214868e-09
4.063403249e-09
3.86633812e-09
3.644011237e-09
3.392424954e-09
3.107112277e-09
2.782850867e-09
2.414784983e-09
1.998346958e-09
1.530148714e-09
1.007281452e-09
4.275750761e-10
-2.114229511e-10
-9.119559421e-10
-1.676500176e-09
-2.506545201e-09
-3.402601274e-09
-4.362948698e-09
-5.384043882e-09
-6.459871741e-09
-7.58285769e-09
-8.743492487e-09
-9.931300362e-09
-1.113428455e-08
-1.233965855e-08
-1.353300434e-08
-1.469880013e-08
-1.581954035e-08
-1.68766147e-08
-1.785013343e-08
-1.872072906e-08
-1.947002775e-08
-2.008256847e-08
-2.054563437e-08
-2.085022245e-08
-2.098994464e-08
-2.096171236e-08
-2.076491051e-08
-2.040290276e-08
-1.98828792e-08
-1.921750032e-08
-1.842393655e-08
-1.75239495e-08
-1.654137441e-08
-1.550148225e-08
-1.442929086e-08
-1.335076973e-08
-1.229307298e-08
-1.12863991e-08
-1.036336697e-08
-9.559179747e-09
-8.909778292e-09
-8.452459164e-09
-8.2262272e-09
-8.275329656e-09
-8.651693014e-09
-9.418337852e-09
-1.064951589e-08
-1.243101145e-08
-1.48578732e-08
-1.803437215e-08
-2.20732045e-08
-2.70974887e-08
-3.324121273e-08
-4.06504289e-08
-4.948123087e-08
-5.989757623e-08
-7.206654194e-08
-8.615489356e-08
-1.023248907e-07
-1.207326649e-07
-1.415270516e-07
-1.648511039e-07
-1.908432145e-07
-2.196377369e-07
-2.513611886e-07
-2.861253039e-07
-3.24018566e-07
-3.651037517e-07
-4.094226663e-07
-4.570047863e-07
-5.078711094e-07
-5.620357389e-07
-6.195087403e-07
-6.802882831e-07
-7.443650772e-07
-8.116323398e-07
-8.825002601e-07
-9.597776223e-07
-1.090274724e-06
-6.002889707e-07
3.124473782e-09
6.629781789e-09
6.614476797e-09
6.727143175e-09
6.657775837e-09
6.58218938e-09
6.502208798e-09
6.417642121e-09
6.328741172e-09
6.236351804e-09
6.141432249e-09
6.045126287e-09
5.948375e-09
5.852113754e-09
5.757000927e-09
5.663615973e-09
5.572103689e-09
5.482412813e-09
5.393906345e-09
5.305742295e-09
5.21672661e-09
5.125725699e-09
5.031496955e-09
4.932843304e-09
4.828148158e-09
4.71544038e-09
4.592070779e-09
4.455165593e-09
4.301509932e-09
4.128104107e-09
3.931743509e-09
3.709119091e-09
3.456120279e-09
3.167983707e-09
2.839057882e-09
2.463586748e-09
2.035944869e-09
1.551387641e-09
1.005837487e-09
3.959351484e-10
-2.817114964e-10
-1.030463611e-09
-1.85392732e-09
-2.755104037e-09
-3.736042778e-09
-4.796764193e-09
-5.935218649e-09
-7.146788366e-09
-8.424808353e-09
-9.760394698e-09
-1.114300522e-08
-1.256012792e-08
-1.399766037e-08
-1.543942708e-08
-1.686742041e-08
-1.826125027e-08
-1.959855019e-08
-2.085496092e-08
-2.200543568e-08
-2.302513646e-08
-2.38912818e-08
-2.45838124e-08
-2.508643697e-08
-2.53862228e-08
-2.547399736e-08
-2.53438733e-08
-2.499428296e-08
-2.442830913e-08
-2.365521074e-08
-2.269044592e-08
-2.155581071e-08
-2.027758505e-08
-1.888502871e-08
-1.740833679e-08
-1.587839692e-08
-1.432686727e-08
-1.278734108e-08
-1.129530294e-08
-9.887756453e-09
-8.601503777e-09
-7.472504158e-09
-6.535925785e-09
-5.828919349e-09
-5.393941428e-09
-5.282983527e-09
-5.559541553e-09
-6.299520479e-09
-7.589609264e-09
-9.526447333e-09
-1.221572321e-08
-1.577375719e-08
-2.032892326e-08
-2.602364672e-08
-3.301377594e-08
-4.146667306e-08
-5.155668217e-08
-6.346075166e-08
-7.735367122e-08
-9.340506528e-08
-1.117770709e-07
-1.326238591e-07
-1.560920274e-07
-1.823218209e-07
-2.114469435e-07
-2.435914715e-07
-2.788631111e-07
-3.173460763e-07
-3.590989101e-07
-4.041602814e-07
-4.525573266e-07
-5.043098771e-07
-5.594321021e-07
-6.17932944e-07
-6.798163207e-07
-7.450555158e-07
-8.135904679e-07
-8.856916816e-07
-9.645636473e-07
-1.096693893e-06
-6.043463987e-07
3.118088979e-09
6.615070433e-09
6.598786421e-09
6.71054664e-09
6.641048458e-09
6.565478441e-09
6.48566125e-09
6.401273742e-09
6.312574508e-09
6.220273096e-09
6.125348229e-09
6.028780966e-09
5.931580699e-09
5.834579445e-09
5.738503099e-09
5.643821469e-09
5.550729676e-09
5.458941416e-09
5.36781538e-09
5.276327906e-09
5.183316648e-09
5.087508154e-09
4.987663413e-09
4.882273206e-09
4.76948352e-09
4.646824561e-09
4.511351222e-09
4.359703689e-09
4.188450633e-09
3.994042936e-09
3.772762374e-09
3.520341047e-09
3.231723548e-09
2.900973177e-09
2.521617264e-09
2.087092383e-09
1.591365731e-09
1.029077745e-09
3.955260299e-10
-3.13838645e-10
-1.103679671e-09
-1.97894674e-09
-2.944344686e-09
-4.003733563e-09
-5.159180055e-09
-6.410521899e-09
-7.755009335e-09
-9.187523437e-09
-1.070057703e-08
-1.228452938e-08
-1.392735639e-08
-1.561461588e-08
-1.732913847e-08
-1.905101157e-08
-2.075736525e-08
-2.242245621e-08
-2.401777709e-08
-2.551282258e-08
-2.68761316e-08
-2.807691921e-08
-2.908642074e-08
-2.987915585e-08
-3.043334595e-08
-3.073133969e-08
-3.075961251e-08
-3.050944891e-08
-2.997763743e-08
-2.916779928e-08
-2.809129321e-08
-2.67676359e-08
-2.522366862e-08
-2.349170365e-08
-2.160736128e-08
-1.960788025e-08
-1.753169794e-08
-1.541865187e-08
-1.331020816e-08
-1.124859605e-08
-9.275083514e-09
-7.428074904e-09
-5.74241422e-09
-4.250908812e-09
-2.987922803e-09
-1.994183567e-09
-1.320756834e-09
-1.031221976e-09
-1.20137256e-09
-1.918085838e-09
-3.278193777e-09
-5.389422789e-09
-8.372437625e-09
-1.236364683e-08
-1.751624596e-08
-2.399911721e-08
-3.19927778e-08
-4.168422566e-08
-5.326151449e-08
-6.690959139e-08
-8.280719748e-08
-1.011248359e-07
-1.220234924e-07
-1.456542569e-07
-1.721587183e-07
-2.016687021e-07
-2.343036873e-07
-2.701652047e-07
-3.093308023e-07
-3.518527905e-07
-3.977644355e-07
-4.470886665e-07
-4.998424593e-07
-5.560381273e-07
-6.156863991e-07
-6.787865781e-07
-7.453324444e-07
-8.152092959e-07
-8.888419337e-07
-9.690932317e-07
-1.103471287e-06
-6.086454496e-07
3.110831974e-09
6.598563406e-09
6.58121431e-09
6.691975209e-09
6.622227994e-09
6.546564664e-09
6.466728218e-09
6.382356213e-09
6.293638524e-09
6.201230772e-09
6.106012631e-09
6.008965586e-09
5.910998896e-09
5.812991398e-09
5.7155982e-09
5.619297657e-09
5.524118546e-09
5.429735344e-09
5.335339216e-09
5.239872343e-09
5.14209419e-09
5.040711544e-09
4.934265629e-09
4.821026083e-09
4.698683991e-09
4.56440721e-09
4.414804756e-09
4.246207743e-09
4.054761324e-09
3.83640612e-09
3.586604256e-09
3.300077893e-09
2.970597858e-09
2.591151825e-09
2.154352977e-09
1.653024505e-09
1.080506727e-09
4.307479719e-10
-3.021093703e-10
-1.124083827e-09
-2.041658667e-09
-3.061393522e-09
-4.189304481e-09
-5.429834312e-09
-6.785209648e-09
-8.254984754e-09
-9.836167021e-09
-1.152327086e-08
-1.330846111e-08
-1.518122767e-08
-1.71280618e-08
-1.913197072e-08
-2.117227434e-08
-2.322440872e-08
-2.525999473e-08
-2.72469054e-08
-2.91497607e-08
-3.093073118e-08
-3.255099595e-08
-3.397226462e-08
-3.51584275e-08
-3.607659426e-08
-3.669801541e-08
-3.699854042e-08
-3.695944144e-08
-3.656829156e-08
-3.582033727e-08
-3.471986823e-08
-3.328119178e-08
-3.152875711e-08
-2.949571278e-08
-2.722181845e-08
-2.47508608e-08
-2.212935493e-08
-1.940582104e-08
-1.663073594e-08
-1.385543944e-08
-1.113003944e-08
-8.50048958e-09
-6.006453672e-09
-3.681235849e-09
-1.554472754e-09
3.428798891e-10
1.973085843e-09
3.287321605e-09
4.224002927e-09
4.709105015e-09
4.657432641e-09
3.97242839e-09
2.544138408e-09
2.455453338e-10
-3.070304397e-09
-7.570833503e-09
-1.344073022e-08
-2.08764377e-08
-3.007956403e-08
-4.125167848e-08
-5.459047948e-08
-7.028707748e-08
-8.852331248e-08
-1.094691425e-07
-1.332808675e-07
-1.60100559e-07
-1.900560727e-07
-2.232594845e-07
-2.598031337e-07
-2.997547855e-07
-3.431574883e-07
-3.90036223e-07
-4.404071417e-07
-4.94282385e-07
-5.516725341e-07
-6.125870019e-07
-6.770346145e-07
-7.44993284e-07
-8.164136055e-07
-8.915623798e-07
-9.73813178e-07
-1.110257606e-06
-6.131434103e-07
3.10267161e-09
6.579971833e-09
6.561557192e-09
6.671217023e-09
6.601157855e-09
6.525284895e-09
6.445309524e-09
6.360791109e-09
6.271890701e-09
6.179170719e-09
6.083453542e-09
5.985658391e-09
5.886686419e-09
5.787384582e-09
5.688392384e-09
5.590077763e-09
5.492403774e-09
5.394890194e-09
5.29665672e-09
5.196558642e-09
5.093331018e-09
4.9855614e-09
4.871592146e-09
4.749313117e-09
4.616029104e-09
4.4684365e-09
4.302796884e-09
4.115050296e-09
3.900876093e-09
3.655512708e-09
3.37349438e-09
3.048352602e-09
2.672673529e-09
2.238367166e-09
1.737216886e-09
1.161323611e-09
5.032918458e-10
-2.440521866e-10
-1.088085587e-09
-2.036817361e-09
-3.098721648e-09
-4.28217152e-09
-5.594350068e-09
-7.040384291e-09
-8.62268567e-09
-1.034096474e-08
-1.219233149e-08
-1.417147753e-08
-1.627036145e-08
-1.847766129e-08
-2.077802305e-08
-2.315149732e-08
-2.557322772e-08
-2.801340665e-08
-3.043732754e-08
-3.280567057e-08
-3.507503986e-08
-3.719907806e-08
-3.912992798e-08
-4.082004591e-08
-4.222375803e-08
-4.329872124e-08
-4.400702956e-08
-4.431643092e-08
-4.42016643e-08
-4.364597319e-08
-4.264294912e-08
-4.119793008e-08
-3.932913945e-08
-3.706699988e-08
-3.445262704e-08
-3.153483555e-08
-2.836804108e-08
-2.501056655e-08
-2.15241169e-08
-1.797247851e-08
-1.441915982e-08
-1.092356958e-08
-7.537178118e-09
-4.301193419e-09
-1.247163812e-09
1.599140292e-09
4.211722091e-09
6.558092119e-09
8.594604571e-09
1.026447843e-08
1.149799818e-08
1.221317081e-08
1.23144345e-08
1.168887089e-08
1.020119802e-08
7.690753771e-09
3.972492671e-09
-1.157601273e-09
-7.9147344e-09
-1.651805761e-08
-2.718584408e-08
-4.013261065e-08
-5.556637009e-08
-7.368441557e-08
-9.466834316e-08
-1.186801647e-07
-1.458610037e-07
-1.763317142e-07
-2.101932009e-07
-2.475243219e-07
-2.883788916e-07
-3.327864129e-07
-3.807597924e-07
-4.323052312e-07
-4.874283394e-07
-5.461365331e-07
-6.084431351e-07
-6.743559687e-07
-7.438845454e-07
-8.169237888e-07
-8.939391739e-07
-9.779144492e-07
-1.117147534e-06
-6.177563729e-07
3.093481898e-09
6.559234856e-09
6.539663767e-09
6.64811594e-09
6.577682366e-09
6.501529518e-09
6.421305734e-09
6.336530306e-09
6.247282526e-09
6.154067374e-09
6.057638015e-09
5.95888363e-09
5.858666936e-09
5.757812831e-09
5.656921179e-09
5.556260094e-09
5.455665837e-09
5.354536078e-09
5.251903253e-09
5.14659468e-09
5.037255771e-09
4.922329188e-09
4.799880531e-09
4.667404908e-09
4.521769561e-09
4.359251312e-09
4.175713304e-09
3.966663236e-09
3.727201349e-09
3.451730915e-09
3.133663654e-09
2.765332793e-09
2.338090788e-09
1.842842663e-09
1.270519494e-09
6.124048806e-10
-1.399971351e-10
-9.953626448e-10
-1.963138726e-09
-3.05359103e-09
-4.277446614e-09
-5.644810009e-09
-7.164114244e-09
-8.841212149e-09
-1.067916188e-08
-1.26783138e-08
-1.483655936e-08
-1.714914448e-08
-1.960806455e-08
-2.220103917e-08
-2.491060028e-08
-2.771341415e-08
-3.058002615e-08
-3.347478234e-08
-3.635594787e-08
-3.917594659e-08
-4.188208925e-08
-4.441771853e-08
-4.67239636e-08
-4.874154614e-08
-5.041271412e-08
-5.168298144e-08
-5.250294414e-08
-5.283029467e-08
-5.263180899e-08
-5.188577598e-08
-5.058389746e-08
-4.873333782e-08
-4.635700428e-08
-4.349295285e-08
-4.019161928e-08
-3.651320508e-08
-3.252514548e-08
-2.830089042e-08
-2.391855449e-08
-1.945846674e-08
-1.499899084e-08
-1.06111213e-08
-6.353637006e-09
-2.270495034e-09
1.608099703e-09
5.261230795e-09
8.670576368e-09
1.181312488e-08
1.465515656e-08
1.714869165e-08
1.923103132e-08
2.082482842e-08
2.183616206e-08
2.214860193e-08
2.161691587e-08
2.006363756e-08
1.7282186e-08
1.304506744e-08
7.114361093e-09
-7.504589418e-10
-1.078886759e-08
-2.323799028e-08
-3.832916829e-08
-5.62807156e-08
-7.728909255e-08
-1.015222646e-07
-1.291180196e-07
-1.601860049e-07
-1.948106956e-07
-2.330518187e-07
-2.749433162e-07
-3.204955741e-07
-3.697042608e-07
-4.225620142e-07
-4.790655133e-07
-5.392201646e-07
-6.030406802e-07
-6.705518862e-07
-7.417529382e-07
-8.16626995e-07
-8.954644115e-07
-9.818871274e-07
-1.123648326e-06
-6.223881949e-07
3.083223828e-09
6.536090944e-09
6.515368079e-09
6.622511577e-09
6.551665025e-09
6.475171173e-09
6.394615681e-09
6.309480478e-09
6.219744637e-09
6.125874825e-09
6.028561615e-09
5.928634248e-09
5.826976098e-09
5.724334257e-09
5.621261776e-09
5.517907473e-09
5.413989708e-09
5.308778688e-09
5.201261471e-09
5.090175702e-09
4.974099316e-09
4.851247462e-09
4.719379933e-09
4.575555119e-09
4.416215584e-09
4.237204812e-09
4.033980947e-09
3.801520768e-09
3.534210467e-09
3.225449248e-09
2.867489229e-09
2.451357776e-09
1.967308162e-09
1.405209244e-09
7.551052665e-10
7.176268682e-12
-8.485362121e-10
-1.822783286e-09
-2.927414214e-09
-4.175292607e-09
-5.579374376e-09
-7.151575359e-09
-8.901623334e-09
-1.083652635e-08
-1.296053155e-08
-1.527542429e-08
-1.778049297e-08
-2.047201071e-08
-2.334210199e-08
-2.637749491e-08
-2.955839866e-08
-3.285790032e-08
-3.624160153e-08
-3.966754091e-08
-4.30861003e-08
-4.644028936e-08
-4.966639391e-08
-5.269539597e-08
-5.545474094e-08
-5.787051846e-08
-5.986971686e-08
-6.138262568e-08
-6.23456722e-08
-6.270416583e-08
-6.24156086e-08
-6.145229326e-08
-5.980428524e-08
-5.74807765e-08
-5.45106627e-08
-5.094058858e-08
-4.683226074e-08
-4.225934878e-08
-3.730542734e-08
-3.206255916e-08
-2.662904778e-08
-2.110556476e-08
-1.558902484e-08
-1.016581177e-08
-4.905575899e-09
1.420361317e-10
4.946956038e-09
9.494637157e-09
1.377915863e-08
1.779436889e-08
2.152390355e-08
2.493393994e-08
2.797094795e-08
3.05634117e-08
3.261972496e-08
3.402084344e-08
3.461059633e-08
3.419200058e-08
3.253196256e-08
2.937379027e-08
2.445114394e-08
1.749711903e-08
8.24514079e-09
-3.57227791e-09
-1.821885051e-08
-3.594160945e-08
-5.695591579e-08
-8.143567804e-08
-1.095116036e-07
-1.412762503e-07
-1.767902955e-07
-2.160865005e-07
-2.591710093e-07
-3.060275575e-07
-3.566284208e-07
-4.109479017e-07
-4.689719437e-07
-5.307025549e-07
-5.961628011e-07
-6.653829388e-07
-7.38408439e-07
-8.151691571e-07
-8.962049476e-07
-9.847037226e-07
-1.129795619e-06
-6.268905871e-07
3.071780193e-09
6.510490737e-09
6.4885205e-09
6.594272673e-09
6.522988265e-09
6.446111292e-09
6.365166437e-09
6.27956944e-09
6.189235318e-09
6.094562085e-09
5.996189737e-09
5.894929828e-09
5.791616343e-09
5.686977391e-09
5.581460195e-09
5.47509277e-09
5.367466613e-09
5.257760216e-09
5.144876462e-09
5.027514132e-09
4.904072741e-09
4.772558819e-09
4.630327087e-09
4.474048161e-09
4.299694989e-09
4.10272086e-09
3.87806968e-09
3.620133294e-09
3.322396508e-09
2.977184992e-09
2.575475773e-09
2.10711272e-09
1.561188373e-09
9.266296068e-10
1.923466871e-10
-6.528709317e-10
-1.620993873e-09
-2.725237995e-09
-3.980291053e-09
-5.40165061e-09
-7.004612821e-09
-8.802908239e-09
-1.080791117e-08
-1.302833739e-08
-1.547050939e-08
-1.813843081e-08
-2.103350672e-08
-2.415338631e-08
-2.749055137e-08
-3.103075943e-08
-3.475199821e-08
-3.862372488e-08
-4.260649741e-08
-4.6651507e-08
-5.070038405e-08
-5.468519717e-08
-5.852926465e-08
-6.214853805e-08
-6.545369394e-08
-6.835264438e-08
-7.075337538e-08
-7.256755278e-08
-7.3714154e-08
-7.412392163e-08
-7.374300866e-08
-7.253707656e-08
-7.049388004e-08
-6.762519378e-08
-6.396620811e-08
-5.957334646e-08
-5.452112109e-08
-4.889921978e-08
-4.281082823e-08
-3.637051515e-08
-2.97012264e-08
-2.292860772e-08
-1.617376508e-08
-9.544591629e-09
-3.128039502e-09
3.015221281e-09
8.852748604e-09
1.437849824e-08
1.960699243e-08
2.456105822e-08
2.925377756e-08
3.367180859e-08
3.77719808e-08
4.148787668e-08
4.473250162e-08
4.73870863e-08
4.928644338e-08
5.021144764e-08
4.989575694e-08
4.804404321e-08
4.435319888e-08