/*--------------------------------*- C++ -*----------------------------------*\
  =========                 |
  \\      /  F ield         | OpenFOAM: The Open Source CFD Toolbox
   \\    /   O peration     | Website:  https://openfoam.org
    \\  /    A nd           | Version:  6
     \\/     M anipulation  |
\*---------------------------------------------------------------------------*/
FoamFile
{
    version     2.0;
    format      ascii;
    class       surfaceScalarField;
    location    "0.0045";
    object      phi;
}
// * * * * * * * * * * * * * * * * * * * * * * * * * * * * * * * * * * * * * //

dimensions      [0 3 -1 0 0 0 0];

internalField   nonuniform List<scalar> 
1150
(
-6.49259934e-21
-1.523014457e-19
-1.195072914e-21
-6.653012324e-20
1.356137247e-21
-2.99387617e-20
1.748357353e-21
-1.413023601e-20
1.351841732e-21
-7.049618904e-21
8.156802278e-22
-3.70702925e-21
3.591408746e-22
-2.020700289e-21
2.746701649e-23
-1.102343141e-21
-1.915680189e-22
-5.610879285e-22
-3.236058927e-22
-2.183073297e-22
-3.931647614e-22
1.151831842e-23
-4.199223748e-22
1.717595672e-22
-4.185519295e-22
2.859934236e-22
-3.995987266e-22
3.680733692e-22
-3.704242114e-22
4.268052511e-22
-3.360666215e-22
4.681890547e-22
-2.998654785e-22
4.965458785e-22
-2.639743239e-22
5.151093138e-22
-2.296912217e-22
5.263628132e-22
-1.977378748e-22
5.322403546e-22
-1.684327051e-22
5.342597318e-22
-1.418551396e-22
5.336126343e-22
-1.179208747e-22
5.312365639e-22
-9.643796889e-23
5.278723822e-22
-7.705471433e-23
5.241090706e-22
-5.95170683e-23
5.203725267e-22
-4.289110109e-23
5.171508255e-22
-2.904279759e-23
5.140151114e-22
-1.319321162e-23
5.131239257e-22
5.112119559e-22
7.927872194e-20
-3.499123244e-20
3.539628958e-20
-2.2669812e-20
1.716466279e-20
-1.17256033e-20
8.828974344e-21
-5.808594728e-21
4.694431487e-21
-2.925622816e-21
2.502009174e-21
-1.522700621e-21
1.277498004e-21
-8.025900717e-22
5.68722245e-22
-3.987474944e-22
1.512125768e-22
-1.478404465e-22
-9.378024469e-23
2.313384599e-23
-2.32923513e-22
1.476854372e-22
-3.056885194e-22
2.420232541e-22
-3.364719786e-22
3.146879676e-22
-3.408668504e-22
3.707302796e-22
-3.290404081e-22
4.135492634e-22
-3.077097903e-22
4.456852779e-22
-2.813020507e-22
4.691851668e-22
-2.527208246e-22
4.857526275e-22
-2.238136723e-22
4.968347517e-22
-1.957185056e-22
5.036547193e-22
-1.690798026e-22
5.072474172e-22
-1.44231202e-22
5.084743821e-22
-1.212850644e-22
5.080541281e-22
-1.002012804e-22
5.065760997e-22
-8.079125051e-23
5.045327442e-22
-6.273877729e-23
5.023292111e-22
-4.60268151e-23
5.001537448e-22
-2.993397563e-23
4.986451339e-22
-1.510518908e-23
4.968390601e-22
4.966388046e-22
9.160014188e-20
3.500909802e-20
4.634049852e-20
2.25702524e-20
2.308167127e-20
1.151653523e-20
1.171194619e-20
5.548065657e-21
6.097353712e-21
2.678903894e-21
3.222119712e-21
1.344606426e-21
1.681340572e-21
7.317792033e-22
8.19629297e-22
4.576651365e-22
3.221868672e-22
3.451646486e-22
3.077134836e-23
3.108008913e-22
-1.385856983e-22
3.13866422e-22
-2.330238062e-22
3.337731809e-22
-2.804296607e-22
3.598299376e-22
-2.980478718e-22
3.8645594e-22
-2.969043935e-22
4.108354511e-22
-2.84209894e-22
4.316979815e-22
-2.647345967e-22
4.486510551e-22
-2.416387001e-22
4.617950513e-22
-2.169936968e-22
4.71493699e-22
-1.92125815e-22
4.782343241e-22
-1.678528375e-22
4.825421026e-22
-1.446514481e-22
4.849308593e-22
-1.227631003e-22
4.858783282e-22
-1.022446357e-22
4.85816222e-22
-8.299477594e-23
4.851164831e-22
-6.491425102e-23
4.840642009e-22
-4.753542591e-23
4.830050221e-22
-3.174004202e-23
4.816787278e-22
-1.5305452e-23
4.815984571e-22
4.806583685e-22
7.916129677e-20
1.524638934e-19
3.528678111e-20
6.643032338e-20
1.711320179e-20
2.967692493e-20
8.842784491e-21
1.380755168e-20
4.763056217e-21
6.749757736e-21
2.6092925e-21
3.491089478e-21
1.407226515e-21
1.927745828e-21
7.071288037e-22
1.152579796e-21
2.878231106e-22
7.600229806e-22
3.383688383e-23
5.6096168e-22
-1.186789444e-22
4.630934413e-22
-2.069670502e-22
4.19248843e-22
-2.538036529e-22
4.042777095e-22
-2.736683671e-22
4.043092589e-22
-2.760418637e-22
4.115294062e-22
-2.672568141e-22
4.215218531e-22
-2.515906076e-22
4.318405696e-22
-2.319400529e-22
4.412087018e-22
-2.102530649e-22
4.490471878e-22
-1.878180439e-22
4.551891416e-22
-1.654640811e-22
4.597023223e-22
-1.437039721e-22
4.627794948e-22
-1.22825214e-22
4.646732855e-22
-1.029443747e-22
4.656546364e-22
-8.404705104e-23
4.659874295e-22
-6.597343717e-23
4.659223471e-22
-4.886172026e-23
4.655505906e-22
-3.182030557e-23
4.654471065e-22
-1.624554787e-23
4.645298546e-22
4.648496327e-22
-6.8722721e-21
1.612815615e-19
-1.466618277e-21
6.101807633e-20
1.243828678e-21
2.695791839e-20
1.784990654e-21
1.325808372e-20
1.504387863e-21
7.022948201e-21
1.045948864e-21
3.943033071e-21
6.320605012e-22
2.335947948e-21
3.145719721e-22
1.465066819e-21
8.876181179e-23
9.814349685e-22
-6.40313478e-23
7.098948872e-22
-1.625235496e-22
5.582223936e-22
-2.219381835e-22
4.75755863e-22
-2.537720975e-22
4.336241842e-22
-2.664482258e-22
4.148769563e-22
-2.660494169e-22
4.093615466e-22
-2.569380912e-22
4.109383803e-22
-2.422224818e-22
4.159099363e-22
-2.24101567e-22
4.220909052e-22
-2.041111043e-22
4.282442929e-22
-1.833048701e-22
4.337246978e-22
-1.623869086e-22
4.382526188e-22
-1.418101744e-22
4.417686876e-22
-1.218438701e-22
4.443431031e-22
-1.026115816e-22
4.461170091e-22
-8.411212645e-23
4.472566413e-22
-6.63452007e-23
4.479015419e-22
-4.896520433e-23
4.482954006e-22
-3.273755057e-23
4.481450356e-22
-1.592577667e-23
4.487602808e-22
4.482748368e-22
-1.07135756e-19
-8.49880483e-20
-3.552677701e-20
-1.059241374e-20
-1.245600584e-20
3.882133552e-21
-4.450144742e-21
5.246075595e-21
-1.575527364e-21
4.142121671e-21
-5.611362422e-22
2.922811724e-21
-2.388206037e-22
2.00829853e-21
-1.690598987e-22
1.390484597e-21
-1.827782665e-22
9.908184338e-22
-2.157038325e-22
7.389575655e-22
-2.449900879e-22
5.840984848e-22
-2.640698616e-22
4.918635961e-22
-2.725193186e-22
4.395127312e-22
-2.719636414e-22
4.121418524e-22
-2.644725828e-22
4.000339165e-22
-2.519665286e-22
3.969007424e-22
-2.360415189e-22
3.987171846e-22
-2.17948179e-22
4.029558318e-22
-1.986306926e-22
4.08074292e-22
-1.787769553e-22
4.131758415e-22
-1.588708396e-22
4.177793451e-22
-1.392357521e-22
4.216683428e-22
-1.200699706e-22
4.247907324e-22
-1.014719492e-22
4.271921932e-22
-8.346721901e-23
4.289692729e-22
-6.595134859e-23
4.302532714e-22
-4.911556926e-23
4.310503131e-22
-3.212229856e-23
4.318626125e-22
-1.641122745e-23
4.316240328e-22
4.32212616e-22
-3.27401219e-20
-6.045535823e-20
-2.105222964e-20
-2.227799165e-20
-1.109206383e-20
-6.079943782e-21
-5.554098608e-21
-2.960673965e-22
-2.794837373e-21
1.377792597e-21
-1.475649428e-21
1.598421316e-21
-8.566345154e-22
1.384301264e-21
-5.687260819e-22
1.097935139e-21
-4.346391327e-22
8.524785863e-22
-3.705629044e-22
6.710302391e-22
-3.372249855e-22
5.473256243e-22
-3.164207264e-22
4.68038705e-22
-2.998901916e-22
4.203666961e-22
-2.840715839e-22
3.940866197e-22
-2.676057572e-22
3.816794572e-22
-2.501500808e-22
3.778653932e-22
-2.31802878e-22
3.790612371e-22
-2.128297192e-22
3.829047476e-22
-1.935291372e-22
3.878900898e-22
-1.741734582e-22
3.930956715e-22
-1.549818422e-22
3.979924411e-22
-1.361133563e-22
4.023083073e-22
-1.176685163e-22
4.059381213e-22
-9.969486968e-23
4.088806636e-22
-8.218321426e-23
4.111902829e-22
-6.515431339e-23
4.129225754e-22
-4.83032699e-23
4.142561806e-22
-3.236087187e-23
4.148767031e-22
-1.582265081e-23
4.159440112e-22
4.157777239e-22
5.437244282e-21
-1.548240378e-20
-4.854181458e-21
-1.198122785e-20
-5.308187492e-21
-5.625587878e-21
-3.880238596e-21
-1.726837843e-21
-2.574208674e-21
6.73929768e-23
-1.689769478e-21
7.091275438e-22
-1.143000624e-21
8.327200375e-22
-8.141826502e-22
7.645680998e-22
-6.160874783e-22
6.501691737e-22
-4.942675107e-22
5.453673132e-22
-4.165119129e-22
4.661160255e-22
-3.640927348e-22
4.125680803e-22
-3.26170262e-22
3.797891914e-22
-2.964787522e-22
3.621202007e-22
-2.714198213e-22
3.546944565e-22
-2.489542312e-22
3.537880261e-22
-2.279593732e-22
3.567286024e-22
-2.07844377e-22
3.616874934e-22
-1.883235495e-22
3.674631582e-22
-1.692766946e-22
3.733034679e-22
-1.506659761e-22
3.787655892e-22
-1.324835362e-22
3.836162444e-22
-1.147259801e-22
3.877601047e-22
-9.738525039e-23
3.911898247e-22
-8.045091553e-23
3.939489923e-22
-6.382071439e-23
3.961226472e-22
-4.768274746e-23
3.976823876e-22
-3.12935575e-23
3.990712253e-22
-1.598894436e-23
3.993096508e-22
4.000500947e-22
8.93842001e-21
-3.866014403e-21
1.501458681e-21
-4.536675983e-21
-1.409437493e-21
-2.712519297e-21
-2.086007777e-21
-1.052000592e-21
-1.932474107e-21
-8.993383349e-23
-1.566176984e-21
3.382655494e-22
-1.211152549e-21
4.730484535e-22
-9.285815865e-22
4.775484586e-22
-7.208893371e-22
4.383296713e-22
-5.735187907e-22
3.941877674e-22
-4.700598646e-22
3.592157459e-22
-3.96871623e-22
3.363212753e-22
-3.438392469e-22
3.240866716e-22
-3.039045015e-22
3.198891449e-22
-2.723262514e-22
3.211694878e-22
-2.460136493e-22
3.258425721e-22
-2.230004873e-22
3.323595243e-22
-2.020687121e-22
3.396366382e-22
-1.824832341e-22
3.469573135e-22
-1.638145787e-22
3.538748266e-22
-1.458153208e-22
3.601349637e-22
-1.2833967e-22
3.656152104e-22
-1.112962657e-22
3.702830289e-22
-9.462608274e-23
3.741641556e-22
-7.827725458e-23
3.773151449e-22
-6.226097991e-23
3.797827971e-22
-4.629390973e-23
3.817283599e-22
-3.105512594e-23
3.8285273e-22
-1.524850646e-23
3.841792913e-22
3.842435163e-22
8.26775837e-21
4.650904263e-22
3.325615431e-21
4.144193722e-22
2.510811938e-22
3.651252025e-22
-1.123941024e-21
3.217673275e-22
-1.504274725e-21
2.867712345e-22
-1.431394083e-21
2.608494256e-22
-1.206652537e-21
2.436569517e-22
-9.678003815e-22
2.342613954e-22
-7.650312409e-22
2.314391443e-22
-6.084908071e-22
2.338701991e-22
-4.929543408e-22
2.402607409e-22
-4.091062269e-22
2.494294775e-22
-3.480367689e-22
2.603511008e-22
-3.026241636e-22
2.721800272e-22
-2.676531674e-22
2.84246845e-22
-2.394966923e-22
2.960481333e-22
-2.157233785e-22
3.072238417e-22
-1.94748037e-22
3.175370249e-22
-1.755657158e-22
3.268486592e-22
-1.57554447e-22
3.350967713e-22
-1.403350743e-22
3.422749097e-22
-1.23671846e-22
3.484172797e-22
-1.074151447e-22
3.535863015e-22
-9.147509352e-23
3.578624014e-22
-7.580959675e-23
3.613332816e-22
-6.031542281e-23
3.641018574e-22
-4.516953963e-23
3.66148162e-22
-2.972855896e-23
3.678784635e-22
-1.518428718e-23
3.684363961e-22
3.692406465e-22
8.217087322e-21
4.799580643e-21
3.276321255e-21
5.363277793e-21
2.077233193e-22
3.436380398e-21
-1.158937113e-21
1.686955606e-21
-1.530196538e-21
6.542553674e-22
-1.448586556e-21
1.745999243e-22
-1.21604809e-21
6.419050158e-24
-9.70622636e-22
-1.55988149e-23
-7.626001861e-22
1.933210866e-23
-6.021002616e-22
6.964090677e-23
-4.837856079e-22
1.185746072e-22
-3.981846037e-22
1.608197739e-22
-3.362078385e-22
1.957337031e-22
-2.905573498e-22
2.242478399e-22
-2.558518793e-22
2.475992882e-22
-2.283209792e-22
2.668832856e-22
-2.054102e-22
2.82953242e-22
-1.854364027e-22
2.964395399e-22
-1.673175987e-22
3.078034811e-22
-1.503763137e-22
3.173853887e-22
-1.341927043e-22
3.254441575e-22
-1.18502819e-22
3.321842699e-22
-1.0313905e-22
3.377762133e-22
-8.80042134e-23
3.423670522e-22
-7.304101547e-23
3.46081569e-22
-5.826912372e-23
3.490022333e-22
-4.343923815e-23
3.513008557e-22
-2.917062082e-23
3.527185191e-22
-1.43800423e-23
3.541484817e-22
3.543666552e-22
8.780784546e-21
1.642442362e-20
1.349423785e-21
1.27977817e-20
-1.541701454e-21
6.327407455e-21
-2.191637338e-21
2.333991142e-21
-2.009851989e-21
4.679225772e-22
-1.616767428e-21
-2.23565312e-22
-1.238065954e-21
-3.772242915e-22
-9.356917118e-22
-3.225128068e-22
-7.122913881e-22
-2.081711763e-22
-5.531665592e-22
-9.318166309e-23
-4.415404428e-22
3.625193605e-24
-3.632706747e-22
7.95915618e-23
-3.076936981e-22
1.375573092e-22
-2.672059048e-22
1.815115304e-22
-2.36567882e-22
2.150426875e-22
-2.122510185e-22
2.409505051e-22
-1.919239062e-22
2.612788955e-22
-1.740724616e-22
2.774743742e-22
-1.577356863e-22
2.905461331e-22
-1.423175496e-22
3.01199006e-22
-1.274525919e-22
3.099296655e-22
-1.129108705e-22
3.170969692e-22
-9.854821613e-23
3.229684893e-22
-8.428969655e-23
3.277495241e-22
-7.012034591e-23
3.315991146e-22
-5.597050661e-23
3.346566457e-22
-4.202157471e-23
3.369256406e-22
-2.774065292e-23
3.387831191e-22
-1.416187407e-23
3.395176474e-22
3.403083488e-22
5.154142829e-21
6.140889783e-20
-5.120950633e-21
2.307132997e-20
-5.535117731e-21
6.738873161e-21
-4.057705894e-21
8.523673255e-22
-2.701339885e-21
-8.936741533e-22
-1.770426408e-21
-1.159938937e-21
-1.183354476e-21
-9.694399673e-22
-8.213500776e-22
-6.891388318e-22
-5.973018767e-22
-4.363211709e-22
-4.563597032e-22
-2.377746823e-22
-3.655740753e-22
-9.041647869e-23
-3.053049282e-22
1.6431059e-23
-2.637394746e-22
9.345260359e-23
-2.336747508e-22
1.49246517e-22
-2.106600648e-22
1.901480094e-22
-1.919226244e-22
2.20626232e-22
-1.757284317e-22
2.437606689e-22
-1.610007031e-22
2.616503338e-22
-1.470828091e-22
2.757203067e-22
-1.335868947e-22
2.86941611e-22
-1.202852884e-22
2.959816776e-22
-1.070393456e-22
3.033081863e-22
-9.376718633e-23
3.092565424e-22
-8.044010612e-23
3.140733843e-22
-6.706280987e-23
3.179384739e-22
-5.370151685e-23
3.209641341e-22
-4.016409628e-23
3.233299198e-22
-2.700611953e-23
3.248253024e-22
-1.337117779e-23
3.262126324e-22
3.265155245e-22
-3.318342462e-20
8.595848681e-20
-2.145340777e-20
1.133837433e-20
-1.142162351e-20
-3.297608391e-21
-5.803747384e-21
-4.771012435e-21
-2.967604655e-21
-3.735751636e-21
-1.57992744e-21
-2.553462431e-21
-9.030533512e-22
-1.651649939e-21
-5.685324067e-22
-1.02835519e-21
-3.987553898e-22
-6.101858297e-22
-3.090015012e-22
-3.311169026e-22
-2.587265364e-22
-1.438582804e-22
-2.282833843e-22
-1.68117359e-23
-2.07945559e-22
7.066194133e-23
-1.927732608e-22
1.319470691e-22
-1.801818425e-22
1.757381321e-22
-1.687881839e-22
2.076950003e-22
-1.578387704e-22
2.315278053e-22
-1.469307303e-22
2.496776779e-22
-1.358615005e-22
2.637678079e-22
-1.245468324e-22
2.748830506e-22
-1.129587798e-22
2.837617024e-22
-1.010909848e-22
2.909117347e-22
-8.895034905e-23
2.966927612e-22
-7.657501657e-23
3.013596997e-22
-6.403714485e-23
3.05096282e-22
-5.133573604e-23
3.080513731e-22
-3.866871371e-23
3.102369004e-22
-2.561878463e-23
3.120028791e-22
-1.306829059e-23
3.127745944e-22
3.134887782e-22
-1.078035366e-19
-1.603558213e-19
-3.608939057e-20
-6.038247608e-20
-1.289502752e-20
-2.649873463e-20
-4.768486636e-21
-1.290409214e-20
-1.785315394e-21
-6.725369619e-21
-6.781149554e-22
-3.666724438e-21
-2.797586188e-22
-2.05542815e-21
-1.503630315e-22
-1.162431567e-21
-1.196864653e-22
-6.448877018e-22
-1.217428814e-22
-3.325426834e-22
-1.316799898e-22
-1.369740753e-22
-1.408097077e-22
-1.036179291e-23
-1.466604291e-22
7.416493617e-23
-1.489821997e-22
1.322371804e-22
-1.482249744e-22
1.732396726e-22
-1.449553753e-22
2.029549008e-22
-1.39688901e-22
2.250309645e-22
-1.328406003e-22
2.418102498e-22
-1.247462535e-22
2.548250103e-22
-1.156681846e-22
2.650909456e-22
-1.058087473e-22
2.732951034e-22
-9.530995385e-23
2.799091066e-22
-8.428341486e-23
2.852642838e-22
-7.283843423e-23
2.895944707e-22
-6.108204899e-23
2.930667018e-22
-4.915021329e-23
2.957787044e-22
-3.690273501e-23
2.979029928e-22
-2.484706462e-23
2.992636774e-22
-1.23541114e-23
3.004825467e-22
3.008014687e-22
-7.830192647e-21
-1.517795865e-19
-2.205648355e-21
-6.601926289e-20
6.996148194e-22
-2.941382798e-20
1.410235761e-21
-1.362265218e-20
1.273329878e-21
-6.595429928e-21
9.331813163e-22
-3.332723933e-21
6.132379443e-22
-1.740845677e-21
3.671808497e-22
-9.209182175e-22
1.926585499e-22
-4.7424262e-22
7.382572402e-23
-2.170251578e-22
-5.067705826e-24
-6.097803878e-23
-5.628297966e-23
3.832737721e-23
-8.858818329e-23
1.04253988e-22
-1.079797097e-22
1.497170399e-22
-1.185097468e-22
1.821258358e-22
-1.228793085e-22
2.059399242e-22
-1.229096193e-22
2.238991837e-22
-1.198258402e-22
2.377668995e-22
-1.144803144e-22
2.486779097e-22
-1.07464031e-22
2.574026322e-22
-9.91947443e-23
2.64454244e-22
-8.995477249e-23
2.701994239e-22
-7.995323243e-23
2.748883714e-22
-6.936620321e-23
2.787055775e-22
-5.837004208e-23
2.817785861e-22
-4.702592943e-23
2.842185202e-22
-3.554205045e-23
2.860352154e-22
-2.362819083e-23
2.875202115e-22
-1.203519399e-23
2.881948673e-22
2.887912516e-22
7.793012988e-20
-3.487847604e-20
3.439978749e-20
-2.250641548e-20
1.649079048e-20
-1.15186596e-20
8.437457899e-21
-5.579749274e-21
4.536035967e-21
-2.702132408e-21
2.525059558e-21
-1.328465109e-21
1.433165389e-21
-6.544528137e-22
8.138564603e-22
-3.062037248e-22
4.498760098e-22
-1.140544827e-22
2.298728419e-22
-2.70100259e-25
9.423771093e-23
7.188404774e-23
9.643630495e-24
1.204826314e-22
-4.312512919e-23
1.549192229e-22
-7.557091612e-23
1.803254047e-22
-9.469565855e-23
1.996926455e-22
-1.049200456e-22
2.148338807e-22
-1.090419068e-22
2.269200454e-22
-1.089148301e-22
2.367174043e-22
-1.057555881e-22
2.447597336e-22
-1.004124231e-22
2.514142719e-22
-9.344956448e-23
2.569521793e-22
-8.526582086e-23
2.615661401e-22
-7.613603047e-23
2.654028925e-22
-6.629319462e-23
2.685697754e-22
-5.593010371e-23
2.711449164e-22
-4.520923847e-23
2.731866637e-22
-3.40570544e-23
2.748223642e-22
-2.295353068e-23
2.75871468e-22
-1.143881407e-23
2.768373036e-22
2.771040957e-22
9.030218995e-20
3.478625126e-20
4.538754361e-20
2.239634754e-20
2.242970072e-20
1.142605083e-20
1.13150747e-20
5.523872355e-21
5.909703295e-21
2.694484754e-21
3.199071842e-21
1.375126876e-21
1.78141447e-21
7.575534861e-22
1.006005705e-21
4.646076305e-22
5.636603903e-22
3.245250286e-22
3.020269903e-22
2.581879003e-22
1.428362932e-22
2.283643915e-22
4.408022155e-23
2.168788007e-22
-1.771894471e-23
2.146751097e-22
-5.620367803e-23
2.170365558e-22
-7.955442335e-23
2.215299816e-22
-9.283387737e-23
2.268266619e-22
-9.924455126e-23
2.322575725e-22
-1.008725007e-22
2.374497184e-22
-9.910104585e-23
2.422451644e-22
-9.487451937e-23
2.465587717e-22
-8.883560361e-23
2.503825758e-22
-8.142906437e-23
2.537160174e-22
-7.296915142e-23
2.565867131e-22
-6.371805352e-23
2.590129871e-22
-5.388835221e-23
2.610266424e-22
-4.357354203e-23
2.626761825e-22
-3.30079506e-23
2.639247625e-22
-2.198769089e-23
2.65004878e-22
-1.117202613e-23
2.654846063e-22
2.658890322e-22
7.791228673e-20
1.516119653e-19
3.441724665e-20
6.58737641e-20
1.652752234e-20
2.930053719e-20
8.485687164e-21
1.355407254e-20
4.590345389e-21
6.580750881e-21
2.581498462e-21
3.377104358e-21
1.488468625e-21
1.845110305e-21
8.659230981e-22
1.08293007e-21
4.973232635e-22
6.896249934e-22
2.722034854e-22
4.804739316e-22
1.313506993e-22
3.667370531e-22
4.18765306e-23
3.042632144e-22
-1.535749534e-23
2.700454598e-22
-5.171025564e-23
2.518177196e-22
-7.425774321e-23
2.426939873e-22
-8.740296342e-23
2.388276461e-22
-9.405240898e-23
2.379208899e-22
-9.607705489e-23
2.386738272e-22
-9.478743501e-23
2.402676842e-22
-9.105071915e-23
2.422548731e-22
-8.550216222e-23
2.443368255e-22
-7.85583649e-23
2.463643731e-22
-7.054288136e-23
2.482293783e-22
-6.170439835e-23
2.498860776e-22
-5.223880827e-23
2.513130128e-22
-4.232496609e-23
2.524945686e-22
-3.192783517e-23
2.53506931e-22
-2.150795859e-23
2.541172214e-22
-1.076760421e-23
2.547517317e-22
2.548581014e-22
-7.825913348e-21
-2.155981196e-21
7.81057836e-22
1.512365613e-21
1.386698772e-21
1.049504423e-21
7.262884069e-22
4.726180063e-22
2.881722036e-22
1.584666126e-22
6.887685516e-23
7.658776344e-24
-3.35852318e-23
-6.083399172e-23
-7.812408437e-23
-8.830971598e-23
-9.329947526e-23
-9.448319795e-23
-9.280024247e-23
-8.896877037e-23
-8.347461462e-23
-7.669335604e-23
-6.888618574e-23
-6.027746319e-23
-5.105724869e-23
-4.131260744e-23
-3.131754484e-23
-2.087344445e-23
-1.066123835e-23
)
;

boundaryField
{
    lowerWall
    {
        type            calculated;
        value           uniform 0;
    }
    atmosphere
    {
        type            calculated;
        value           nonuniform 0();
    }
    rightWall
    {
        type            empty;
        value           nonuniform 0();
    }
    leftWall
    {
        type            empty;
        value           nonuniform 0();
    }
    frontAndBack
    {
        type            calculated;
        value           nonuniform 0();
    }
    procBoundary3to1
    {
        type            processor;
        value           nonuniform List<scalar> 
30
(
1.610219413e-19
6.121071704e-20
2.736342899e-20
1.371817277e-20
7.430909238e-21
4.231537451e-21
2.468169544e-21
1.426841621e-21
7.743521318e-22
3.456244524e-22
5.413697768e-23
-1.482536977e-22
-2.900577724e-22
-3.892524937e-22
-4.577955016e-22
-5.040273137e-22
-5.339413621e-22
-5.519696185e-22
-5.614188794e-22
-5.648004534e-22
-5.640149212e-22
-5.60523488e-22
-5.554345987e-22
-5.496051636e-22
-5.436656794e-22
-5.381362884e-22
-5.33204593e-22
-5.29908588e-22
-5.259301761e-22
-5.259946543e-22
)
;
    }
    procBoundary3to2
    {
        type            processor;
        value           nonuniform List<scalar> 
20
(
-2.202527666e-21
-1.966099217e-19
-1.616186893e-19
-1.966277873e-19
-1.937773564e-21
3.53426133e-19
8.230456594e-21
-5.038435989e-20
-2.052675079e-20
-1.256962923e-20
-1.252598012e-20
-2.039093339e-20
-5.013381437e-20
8.655242373e-21
3.541321038e-19
-7.573050877e-22
-1.948465285e-19
-1.599680525e-19
-1.947543037e-19
-6.689207349e-22
)
;
    }
    procBoundary3to5
    {
        type            processor;
        value           nonuniform List<scalar> 
30
(
1.601468186e-19
6.019661044e-20
2.635262924e-20
1.28127799e-20
6.698653828e-21
3.708149785e-21
2.163745915e-21
1.332939638e-21
8.712589911e-22
6.077775702e-22
4.54357794e-22
3.637086058e-22
3.097969923e-22
2.777210334e-22
2.588646991e-22
2.480253384e-22
2.421082475e-22
2.391629646e-22
2.38024661e-22
2.379307134e-22
2.384334899e-22
2.392247971e-22
2.401301218e-22
2.410341687e-22
2.418759118e-22
2.426397821e-22
2.431830514e-22
2.438114786e-22
2.439127856e-22
2.442279159e-22
)
;
    }
}


// ************************************************************************* //
