/*--------------------------------*- C++ -*----------------------------------*\
  =========                 |
  \\      /  F ield         | OpenFOAM: The Open Source CFD Toolbox
   \\    /   O peration     | Website:  https://openfoam.org
    \\  /    A nd           | Version:  6
     \\/     M anipulation  |
\*---------------------------------------------------------------------------*/
FoamFile
{
    version     2.0;
    format      ascii;
    class       volVectorField;
    location    "0.0016";
    object      gradT;
}
// * * * * * * * * * * * * * * * * * * * * * * * * * * * * * * * * * * * * * //

dimensions      [0 -1 0 1 0 0 0];

internalField   nonuniform List<vector> 
3600
(
(0 -2.954027387e-08 -5.638380662e-06)
(0 -8.671499763e-08 -5.754635942e-06)
(0 -1.477013694e-07 -5.990005212e-06)
(0 -2.077348292e-07 -6.343535586e-06)
(0 -2.696741135e-07 -6.820944539e-06)
(0 -3.335192211e-07 -7.421279127e-06)
(0 -3.964114171e-07 -8.151209765e-06)
(0 -4.612094379e-07 -9.009783545e-06)
(0 -5.260074574e-07 -1.000081207e-05)
(0 -5.888996533e-07 -1.111953083e-05)
(0 -6.422627297e-07 -1.235926944e-05)
(0 -6.918141559e-07 -1.370954581e-05)
(0 -7.242131659e-07 -1.514272555e-05)
(0 -7.404126717e-07 -1.663308003e-05)
(-1.239779192e-25 -7.299306386e-07 -1.813391652e-05)
(1.239779192e-25 -6.860966838e-07 -1.95861545e-05)
(0 -6.070049831e-07 -2.09202314e-05)
(0 -4.897967991e-07 -2.205705546e-05)
(0 -3.382837814e-07 -2.291753505e-05)
(0 -1.639008746e-07 -2.343782507e-05)
(0 2.001115327e-08 -2.358266767e-05)
(0 2.105935654e-07 -2.335301586e-05)
(0 3.992701539e-07 -2.27526813e-05)
(0 6.108166307e-07 -2.176546437e-05)
(0 8.490446458e-07 -2.033704919e-05)
(0 1.122530409e-06 -1.839120279e-05)
(0 1.413168586e-06 -1.58574096e-05)
(0 1.693324731e-06 -1.272137601e-05)
(0 1.935364398e-06 -9.026935962e-06)
(0 1.023427553e-06 -4.892250518e-06)
(0 3.90693943e-08 -4.891297584e-06)
(0 1.114907122e-07 -4.729302606e-06)
(0 1.715241701e-07 -4.427229413e-06)
(0 2.124993885e-07 -4.021288877e-06)
(0 2.315576331e-07 -3.555314935e-06)
(0 2.363221899e-07 -3.068376821e-06)
(0 2.267930694e-07 -2.590967881e-06)
(0 2.077348314e-07 -2.146910895e-06)
(0 1.848649389e-07 -1.748593623e-06)
(0 1.591363134e-07 -1.401733635e-06)
(0 1.343606019e-07 -1.107283826e-06)
(0 1.095848865e-07 -8.623854108e-07)
(0 8.957373328e-08 -6.641797031e-07)
(0 7.051549321e-08 -5.059963094e-07)
(0 5.526889926e-08 -3.811648225e-07)
(0 4.383395458e-08 -2.830148807e-07)
(0 3.239901039e-08 -2.077348314e-07)
(0 2.477571346e-08 -1.505601049e-07)
(0 1.905824112e-08 -1.076790623e-07)
(0 1.334076899e-08 -7.71858777e-08)
(0 9.529120561e-09 -5.43159872e-08)
(0 7.623296449e-09 -3.811648225e-08)
(0 4.764560352e-09 -2.668153797e-08)
(0 2.858736168e-09 -1.715241701e-08)
(0 3.811648225e-09 -1.143494467e-08)
(0 9.529120704e-10 -7.623296563e-09)
(0 1.905824112e-09 -4.764560281e-09)
(0 0 -2.858736168e-09)
(0 0 -2.858736211e-09)
(0 9.529120561e-10 0)
(0 -8.67149988e-08 -5.606934648e-06)
(0 -2.63003733e-07 -5.723189929e-06)
(0 -4.411982906e-07 -5.957606291e-06)
(0 -6.241574089e-07 -6.311136671e-06)
(0 -8.080694406e-07 -6.786639806e-06)
(0 -9.986518543e-07 -7.389833139e-06)
(0 -1.192093005e-06 -8.120716701e-06)
(0 -1.387439983e-06 -8.985960878e-06)
(0 -1.583739868e-06 -9.983659807e-06)
(0 -1.771463547e-06 -1.111667226e-05)
(0 -1.942987723e-06 -1.237642204e-05)
(0 -2.092594916e-06 -1.375337997e-05)
(0 -2.201226893e-06 -1.52313466e-05)
(0 -2.250778323e-06 -1.677601709e-05)
(0 -2.225049695e-06 -1.834546327e-05)
(0 -2.100218214e-06 -1.98786988e-05)
(0 -1.861990196e-06 -2.129949072e-05)
(0 -1.50655399e-06 -2.252017106e-05)
(0 -1.04248581e-06 -2.345021325e-05)
(0 -5.012317521e-07 -2.400766685e-05)
(0 6.289219693e-08 -2.415441527e-05)
(0 6.212986727e-07 -2.391809308e-05)
(0 1.187328447e-06 -2.333014636e-05)
(0 1.805768382e-06 -2.238676337e-05)
(0 2.525216998e-06 -2.102314619e-05)
(0 3.356156332e-06 -1.912685119e-05)
(0 4.25761115e-06 -1.659210504e-05)
(0 5.137148995e-06 -1.338269718e-05)
(0 5.891855367e-06 -9.545320267e-06)
(0 3.11411666e-06 -5.2086174e-06)
(0 1.257843933e-07 -5.207664465e-06)
(0 3.506716472e-07 -5.020893774e-06)
(0 5.364894956e-07 -4.676892442e-06)
(0 6.603680648e-07 -4.221400472e-06)
(0 7.20401536e-07 -3.705875097e-06)
(0 7.289777339e-07 -3.176055931e-06)
(0 6.937199873e-07 -2.664342149e-06)
(0 6.336865363e-07 -2.195509443e-06)
(0 5.622181216e-07 -1.779086835e-06)
(0 4.821735076e-07 -1.418886073e-06)
(0 4.04987636e-07 -1.116812963e-06)
(0 3.325663126e-07 -8.681028962e-07)
(0 2.677682918e-07 -6.670384493e-07)
(0 2.13452307e-07 -5.05996317e-07)
(0 1.667596123e-07 -3.79259004e-07)
(0 1.305489536e-07 -2.811090608e-07)
(0 9.814994473e-08 -2.067819224e-07)
(0 7.432714149e-08 -1.496071951e-07)
(0 5.622181216e-08 -1.067261519e-07)
(0 4.002230756e-08 -7.623296678e-08)
(0 2.763445004e-08 -5.431598801e-08)
(0 2.286988969e-08 -3.716357075e-08)
(0 1.429368127e-08 -2.572862629e-08)
(0 1.048203277e-08 -1.905824141e-08)
(0 7.623296563e-09 -1.238785692e-08)
(0 5.717472508e-09 -8.576208762e-09)
(0 3.811648282e-09 -4.764560352e-09)
(0 1.905824141e-09 -1.905824141e-09)
(0 1.905824169e-09 -9.529120847e-10)
(0 1.905824141e-09 -9.529120704e-10)
(0 -1.457955452e-07 -5.542136543e-06)
(0 -4.383395485e-07 -5.659344735e-06)
(0 -7.346951986e-07 -5.89185527e-06)
(0 -1.038674146e-06 -6.244432732e-06)
(0 -1.348370568e-06 -6.721841684e-06)
(0 -1.666643194e-06 -7.325035008e-06)
(0 -1.991586206e-06 -8.059730207e-06)
(0 -2.323199607e-06 -8.931644756e-06)
(0 -2.657671737e-06 -9.946496087e-06)
(0 -2.980708925e-06 -1.110428424e-05)
(0 -3.281829141e-06 -1.240500922e-05)
(0 -3.546738689e-06 -1.384104768e-05)
(0 -3.746850222e-06 -1.539810598e-05)
(0 -3.853576376e-06 -1.705045551e-05)
(-1.239779192e-25 -3.830706485e-06 -1.875521518e-05)
(1.239779192e-25 -3.641076985e-06 -2.045235156e-05)
(0 -3.248477217e-06 -2.205896131e-05)
(0 -2.640519319e-06 -2.346450658e-05)
(0 -1.82673242e-06 -2.454796759e-05)
(0 -8.690558004e-07 -2.519023035e-05)
(0 1.114907111e-07 -2.531315597e-05)
(0 1.033909586e-06 -2.503204692e-05)
(0 1.931552749e-06 -2.445839389e-05)
(0 2.917816729e-06 -2.361411377e-05)
(0 4.108956805e-06 -2.241153875e-05)
(0 5.552618584e-06 -2.06591335e-05)
(0 7.157322486e-06 -1.81329636e-05)
(0 8.74106233e-06 -1.478347771e-05)
(0 1.010944406e-05 -1.064402773e-05)
(0 5.36013034e-06 -5.870891204e-06)
(0 2.267930694e-07 -5.870891178e-06)
(0 6.422627355e-07 -5.626945776e-06)
(0 9.710173852e-07 -5.187653234e-06)
(0 1.183516774e-06 -4.621623472e-06)
(0 1.277855086e-06 -4.002230696e-06)
(0 1.275949243e-06 -3.386649447e-06)
(0 1.207339575e-06 -2.810137654e-06)
(0 1.093943057e-06 -2.288894793e-06)
(0 9.624411767e-07 -1.837214444e-06)
(0 8.204572803e-07 -1.456049622e-06)
(0 6.841908666e-07 -1.1368241e-06)
(0 5.60312289e-07 -8.814436519e-07)
(0 4.507274026e-07 -6.727559116e-07)
(0 3.573420264e-07 -5.098079577e-07)
(0 2.801561445e-07 -3.821177345e-07)
(0 2.172639488e-07 -2.830148807e-07)
(0 1.639008761e-07 -2.077348314e-07)
(0 1.248314794e-07 -1.505601049e-07)
(0 9.33853815e-08 -1.086319744e-07)
(0 6.670384493e-08 -7.528005356e-08)
(0 4.764560281e-08 -5.241016309e-08)
(0 3.525774608e-08 -3.716357019e-08)
(0 2.382280176e-08 -2.57286259e-08)
(0 1.810532907e-08 -1.619950495e-08)
(0 1.238785673e-08 -1.238785673e-08)
(0 8.576208634e-09 -7.623296563e-09)
(0 6.670384393e-09 -5.717472337e-09)
(0 5.717472337e-09 -2.858736168e-09)
(0 1.905824141e-09 -9.529120704e-10)
(0 2.858736168e-09 -9.529120561e-10)
(0 -2.039231809e-07 -5.445892425e-06)
(0 -6.117695437e-07 -5.560241881e-06)
(0 -1.028192113e-06 -5.790846591e-06)
(0 -1.45223798e-06 -6.142471141e-06)
(0 -1.886765882e-06 -6.616068445e-06)
(0 -2.338446196e-06 -7.220214682e-06)
(0 -2.799655634e-06 -7.960627353e-06)
(0 -3.274205845e-06 -8.843976846e-06)
(0 -3.756379342e-06 -9.876933506e-06)
(0 -4.229976636e-06 -1.106902649e-05)
(0 -4.679751136e-06 -1.242406746e-05)
(0 -5.085691666e-06 -1.394110344e-05)
(0 -5.408728855e-06 -1.56125112e-05)
(0 -5.608840394e-06 -1.742304413e-05)
(1.239779192e-25 -5.628851543e-06 -1.933744445e-05)
(-1.239779192e-25 -5.403011385e-06 -2.129472582e-05)
(0 -4.874145194e-06 -2.320054996e-05)
(0 -3.996513181e-06 -2.492436785e-05)
(0 -2.766303711e-06 -2.628798501e-05)
(0 -1.26642013e-06 -2.709605448e-05)
(0 2.20122686e-07 -2.707890202e-05)
(0 1.477966606e-06 -2.664723286e-05)
(0 2.605261577e-06 -2.605356868e-05)
(0 3.851670548e-06 -2.539129476e-05)
(0 5.478291435e-06 -2.4532721e-05)
(0 7.636637264e-06 -2.313098739e-05)
(0 1.013421976e-05 -2.063340484e-05)
(0 1.262513189e-05 -1.708571324e-05)
(0 1.480444179e-05 -1.245741938e-05)
(0 7.888206036e-06 -6.941011448e-06)
(0 3.668711416e-07 -6.939105593e-06)
(0 1.035815421e-06 -6.586528231e-06)
(0 1.540858795e-06 -5.971899856e-06)
(0 1.843884829e-06 -5.220052243e-06)
(0 1.956328481e-06 -4.432946952e-06)
(0 1.922023617e-06 -3.678240537e-06)
(0 1.792427578e-06 -2.998814241e-06)
(0 1.605656839e-06 -2.409914626e-06)
(0 1.394110338e-06 -1.910588673e-06)
(0 1.182563862e-06 -1.497977752e-06)
(0 9.795936084e-07 -1.163505638e-06)
(0 7.97587391e-07 -8.909727725e-07)
(0 6.394039897e-07 -6.78473384e-07)
(0 5.050433973e-07 -5.107608697e-07)
(0 3.935526792e-07 -3.792589983e-07)
(0 3.04931858e-07 -2.811090566e-07)
(0 2.30604721e-07 -2.048760951e-07)
(0 1.743829063e-07 -1.486542808e-07)
(0 1.295960396e-07 -1.057732382e-07)
(0 9.33853829e-08 -7.71858777e-08)
(0 6.860966804e-08 -5.336307514e-08)
(0 4.859851486e-08 -3.621065813e-08)
(0 3.430483454e-08 -2.477571383e-08)
(0 2.38228014e-08 -1.619950495e-08)
(0 1.715241701e-08 -1.143494467e-08)
(0 1.238785692e-08 -7.623296563e-09)
(0 9.529120561e-09 -4.764560281e-09)
(0 6.670384393e-09 -2.858736168e-09)
(0 2.858736211e-09 -2.858736211e-09)
(0 3.811648225e-09 -9.529120561e-10)
(0 -2.601449964e-07 -5.312484817e-06)
(0 -7.842466387e-07 -5.425881362e-06)
(0 -1.316924487e-06 -5.654580251e-06)
(0 -1.863896018e-06 -6.001440247e-06)
(0 -2.426114146e-06 -6.471225909e-06)
(0 -3.010249244e-06 -7.072513419e-06)
(0 -3.615348411e-06 -7.813879013e-06)
(0 -4.240458739e-06 -8.704851816e-06)
(0 -4.882721471e-06 -9.757819645e-06)
(0 -5.526890033e-06 -1.09851704e-05)
(0 -6.153906188e-06 -1.240119776e-05)
(0 -6.736135456e-06 -1.401352497e-05)
(0 -7.229743911e-06 -1.58307283e-05)
(0 -7.577556826e-06 -1.784518444e-05)
(0 -7.701435391e-06 -2.003783512e-05)
(0 -7.504182592e-06 -2.235817602e-05)
(0 -6.879072275e-06 -2.471282177e-05)
(0 -5.728907393e-06 -2.693977726e-05)
(0 -3.997466153e-06 -2.879223834e-05)
(0 -1.659972837e-06 -3.003674155e-05)
(0 5.593593879e-07 -2.94754763e-05)
(0 2.059242993e-06 -2.863691367e-05)
(0 3.186537983e-06 -2.792699422e-05)
(0 4.439617356e-06 -2.756965215e-05)
(0 6.371170132e-06 -2.738383429e-05)
(0 9.450981971e-06 -2.686926181e-05)
(0 1.320164388e-05 -2.434309186e-05)
(0 1.691704806e-05 -2.05895712e-05)
(0 2.025509909e-05 -1.524564031e-05)
(0 1.087749133e-05 -8.531421805e-06)
(0 5.81276363e-07 -8.531421767e-06)
(0 1.610421423e-06 -7.973968325e-06)
(0 2.338446221e-06 -7.056313882e-06)
(0 2.723422697e-06 -6.002393132e-06)
(0 2.818713947e-06 -4.963719049e-06)
(0 2.709129016e-06 -4.021288937e-06)
(0 2.475665559e-06 -3.212266589e-06)
(0 2.184074498e-06 -2.534746145e-06)
(0 1.871519306e-06 -1.982057106e-06)
(0 1.56944618e-06 -1.536094258e-06)
(0 1.291195875e-06 -1.180658073e-06)
(0 1.045344541e-06 -8.995489945e-07)
(0 8.309393254e-07 -6.803792183e-07)
(0 6.556035143e-07 -5.098079653e-07)
(0 5.098079577e-07 -3.773531799e-07)
(0 3.916468609e-07 -2.782503246e-07)
(0 2.973085704e-07 -2.02017362e-07)
(0 2.229814245e-07 -1.467484588e-07)
(0 1.648537882e-07 -1.048203277e-07)
(0 1.210198348e-07 -7.432714261e-08)
(0 8.862082255e-08 -5.14572518e-08)
(0 6.384510872e-08 -3.525774661e-08)
(0 4.38339559e-08 -2.47757142e-08)
(0 3.049318625e-08 -1.61995052e-08)
(0 2.191697762e-08 -9.529120704e-09)
(0 1.524659336e-08 -7.623296678e-09)
(0 1.143494485e-08 -2.858736211e-09)
(0 6.670384493e-09 -2.858736211e-09)
(0 4.764560424e-09 -1.905824169e-09)
(0 4.764560352e-09 0)
(0 -3.173197161e-07 -5.14763095e-06)
(0 -9.529120618e-07 -5.258168757e-06)
(0 -1.602798086e-06 -5.481150172e-06)
(0 -2.268883616e-06 -5.821339777e-06)
(0 -2.958791952e-06 -6.282549224e-06)
(0 -3.680146377e-06 -6.87716634e-06)
(0 -4.432946905e-06 -7.612814451e-06)
(0 -5.219099363e-06 -8.505693064e-06)
(0 -6.035744991e-06 -9.570095823e-06)
(0 -6.873354692e-06 -1.082793974e-05)
(0 -7.708105668e-06 -1.230209472e-05)
(0 -8.51426926e-06 -1.401543058e-05)
(0 -9.241341162e-06 -1.598986437e-05)
(0 -9.816900057e-06 -1.82425485e-05)
(0 -1.013993724e-05 -2.077253001e-05)
(0 -1.007895087e-05 -2.356456235e-05)
(0 -9.455746385e-06 -2.654717712e-05)
(0 -8.073070976e-06 -2.953074475e-05)
(0 -5.867079556e-06 -3.211694808e-05)
(0 -1.949658079e-06 -3.501570662e-05)
(0 1.622809239e-06 -3.237709308e-05)
(0 3.02454288e-06 -3.072188483e-05)
(0 3.672523086e-06 -2.967463452e-05)
(0 4.394830423e-06 -2.978993683e-05)
(0 6.1786818e-06 -3.077715373e-05)
(0 1.067737965e-05 -3.282019723e-05)
(0 1.641391024e-05 -2.944974723e-05)
(0 2.172163042e-05 -2.582772849e-05)
(0 2.686259102e-05 -1.950515699e-05)
(0 1.460242441e-05 -1.086224458e-05)
(0 9.262305186e-07 -1.085938579e-05)
(0 2.509970394e-06 -9.896944763e-06)
(0 3.512433839e-06 -8.44851829e-06)
(0 3.937432616e-06 -6.921953176e-06)
(0 3.936479763e-06 -5.535466217e-06)
(0 3.674428888e-06 -4.360525569e-06)
(0 3.278970385e-06 -3.402848952e-06)
(0 2.835866322e-06 -2.637660611e-06)
(0 2.392762173e-06 -2.032561416e-06)
(0 1.983962901e-06 -1.5570583e-06)
(0 1.615185959e-06 -1.186375528e-06)
(0 1.298819133e-06 -8.976431569e-07)
(0 1.029145021e-06 -6.737088237e-07)
(0 8.071165237e-07 -5.021846611e-07)
(0 6.260632209e-07 -3.725886139e-07)
(0 4.793147642e-07 -2.725328481e-07)
(0 3.611536747e-07 -2.001115348e-07)
(0 2.725328481e-07 -1.438897205e-07)
(0 2.020173559e-07 -1.029145021e-07)
(0 1.477013709e-07 -7.146840528e-08)
(0 1.067261503e-07 -5.050433897e-08)
(0 7.623296449e-08 -3.525774608e-08)
(0 5.241016387e-08 -2.286988969e-08)
(0 4.002230636e-08 -1.619950495e-08)
(0 2.572862552e-08 -1.048203262e-08)
(0 1.810532934e-08 -5.717472423e-09)
(0 1.334076879e-08 -4.764560281e-09)
(0 8.576208505e-09 -2.858736168e-09)
(0 5.717472423e-09 -1.905824141e-09)
(0 6.670384393e-09 -1.905824112e-09)
(0 -3.716357036e-07 -4.949425242e-06)
(0 -1.117765849e-06 -5.0561514e-06)
(0 -1.880095495e-06 -5.270556606e-06)
(0 -2.665295033e-06 -5.599311267e-06)
(0 -3.481940674e-06 -6.049085769e-06)
(0 -4.340514435e-06 -6.62750338e-06)
(0 -5.243875068e-06 -7.34885781e-06)
(0 -6.19774005e-06 -8.230301478e-06)
(0 -7.205921001e-06 -9.293751325e-06)
(0 -8.257935916e-06 -1.056493601e-05)
(0 -9.34044403e-06 -1.208197203e-05)
(0 -1.042485794e-05 -1.38820229e-05)
(0 -1.145590879e-05 -1.601082844e-05)
(0 -1.236117526e-05 -1.850745806e-05)
(0 -1.302440205e-05 -2.141383983e-05)
(0 -1.327787666e-05 -2.476046699e-05)
(0 -1.28462075e-05 -2.85683036e-05)
(0 -1.12986783e-05 -3.273919966e-05)
(0 -9.481475001e-06 -3.535208453e-05)
(0 -1.920117805e-06 -4.577598963e-05)
(0 4.853181124e-06 -3.45440151e-05)
(0 4.76360739e-06 -3.244379692e-05)
(0 4.118485931e-06 -3.04950918e-05)
(0 3.337098036e-06 -3.137653541e-05)
(0 3.340909684e-06 -3.334620464e-05)
(0 1.077743542e-05 -4.441141955e-05)
(0 2.019315947e-05 -3.500522454e-05)
(0 2.68635439e-05 -3.392843391e-05)
(0 3.522153563e-05 -2.619936423e-05)
(0 1.952135647e-05 -1.434894981e-05)
(0 1.544670443e-06 -1.434799683e-05)
(0 4.022241849e-06 -1.249363016e-05)
(0 5.312484713e-06 -1.00932445e-05)
(0 5.637427724e-06 -7.867241935e-06)
(0 5.38014155e-06 -6.03860379e-06)
(0 4.841746157e-06 -4.61114144e-06)
(0 4.199483431e-06 -3.515292575e-06)
(0 3.553409111e-06 -2.675777094e-06)
(0 2.953074462e-06 -2.035420152e-06)
(0 2.415632062e-06 -1.544670443e-06)
(0 1.949658096e-06 -1.168270198e-06)
(0 1.556105388e-06 -8.795378278e-07)
(0 1.22830364e-06 -6.565564067e-07)
(0 9.576766308e-07 -4.86938068e-07)
(0 7.394597556e-07 -3.592478452e-07)
(0 5.641239372e-07 -2.630037275e-07)
(0 4.249987834e-07 -1.915353262e-07)
(0 3.192255388e-07 -1.391251602e-07)
(0 2.391809261e-07 -9.814994178e-08)
(0 1.724770847e-07 -6.860966907e-08)
(0 1.248314794e-07 -4.859851486e-08)
(0 9.052664533e-08 -3.239900991e-08)
(0 6.289219665e-08 -2.286988969e-08)
(0 4.383395458e-08 -1.619950495e-08)
(0 3.239900991e-08 -9.529120561e-09)
(0 2.096406555e-08 -5.717472423e-09)
(0 1.429368084e-08 -2.858736168e-09)
(0 1.048203262e-08 -1.905824112e-09)
(0 5.717472423e-09 -9.529120704e-10)
(0 7.623296449e-09 9.529120561e-10)
(0 -4.230929612e-07 -4.717867682e-06)
(0 -1.274996358e-06 -4.818876369e-06)
(0 -2.145957992e-06 -5.02470537e-06)
(0 -3.047412815e-06 -5.33726053e-06)
(0 -3.986984127e-06 -5.765118061e-06)
(0 -4.979918502e-06 -6.317807055e-06)
(0 -6.034792169e-06 -7.010574134e-06)
(0 -7.162087164e-06 -7.863430452e-06)
(0 -8.371332576e-06 -8.903057514e-06)
(0 -9.662528438e-06 -1.016280728e-05)
(0 -1.102614563e-05 -1.169032535e-05)
(0 -1.244312587e-05 -1.354469223e-05)
(0 -1.38658236e-05 -1.579070599e-05)
(0 -1.521895876e-05 -1.850745833e-05)
(0 -1.639294643e-05 -2.177213509e-05)
(0 -1.723436779e-05 -2.567049839e-05)
(0 -1.743352643e-05 -3.042457675e-05)
(0 -1.485875798e-05 -3.771911865e-05)
(0 -1.890196391e-05 -3.100966474e-05)
(0 -1.141588667e-06 -2.66786794e-05)
(0 1.495404919e-05 -1.758218069e-05)
(0 7.071560506e-06 -1.657590554e-05)
(0 4.741690491e-06 -1.527327476e-05)
(0 1.542764649e-06 -1.595270104e-05)
(0 -6.85715529e-06 -1.706665526e-05)
(0 9.020265713e-06 -2.615648358e-05)
(0 2.689689622e-05 -3.245523235e-05)
(0 3.052749123e-05 -4.887295449e-05)
(0 4.644112294e-05 -3.716071223e-05)
(0 2.645474502e-05 -1.990728615e-05)
(0 2.782503246e-06 -1.990538024e-05)
(0 6.763769977e-06 -1.584406923e-05)
(0 8.140727818e-06 -1.175131165e-05)
(0 7.991120623e-06 -8.581926106e-06)
(0 7.190674591e-06 -6.294937232e-06)
(0 6.19964593e-06 -4.663551673e-06)
(0 5.213381937e-06 -3.481940705e-06)
(0 4.313833008e-06 -2.617649497e-06)
(0 3.525774661e-06 -1.971575074e-06)
(0 2.851112915e-06 -1.488448654e-06)
(0 2.282224443e-06 -1.118718787e-06)
(0 1.810532934e-06 -8.38562622e-07)
(0 1.420791897e-06 -6.260632303e-07)
(0 1.102519282e-06 -4.631152732e-07)
(0 8.499975668e-07 -3.420954333e-07)
(0 6.470272958e-07 -2.506158745e-07)
(0 4.878909874e-07 -1.80100384e-07)
(0 3.64965323e-07 -1.286431295e-07)
(0 2.70627028e-07 -9.243247083e-08)
(0 1.972528015e-07 -6.575093385e-08)
(0 1.429368106e-07 -4.573977938e-08)
(0 1.029145036e-07 -3.239901039e-08)
(0 7.051549427e-08 -2.096406586e-08)
(0 5.050433973e-08 -1.334076899e-08)
(0 3.716357075e-08 -8.576208634e-09)
(0 2.47757142e-08 -5.717472508e-09)
(0 1.715241727e-08 -3.811648282e-09)
(0 1.048203277e-08 -9.529120704e-10)
(0 7.623296678e-09 0)
(0 7.623296563e-09 -9.529120704e-10)
(0 -4.73597294e-07 -4.458675531e-06)
(0 -1.42365062e-06 -4.553966744e-06)
(0 -2.397526744e-06 -4.745502061e-06)
(0 -3.405707704e-06 -5.034234415e-06)
(0 -4.462487186e-06 -5.433504577e-06)
(0 -5.58692341e-06 -5.949982905e-06)
(0 -6.78949843e-06 -6.598916018e-06)
(0 -8.091176317e-06 -7.402220896e-06)
(0 -9.504344891e-06 -8.387531956e-06)
(0 -1.10461566e-05 -9.594871536e-06)
(0 -1.272137603e-05 -1.108332019e-05)
(0 -1.452523854e-05 -1.292911084e-05)
(0 -1.641962771e-05 -1.523229929e-05)
(0 -1.834165136e-05 -1.810342334e-05)
(0 -2.018744201e-05 -2.164730329e-05)
(0 -2.192936526e-05 -2.590300855e-05)
(0 -2.489578052e-05 -2.993954406e-05)
(0 -1.188281339e-05 -2.047522144e-05)
(0 1.558011219e-06 -1.258796832e-05)
(0 1.150546023e-05 9.105074751e-06)
(0 1.495881352e-05 5.389670614e-06)
(0 7.0715604e-06 6.698018873e-06)
(0 4.740737508e-06 6.133894942e-06)
(0 1.543717538e-06 6.299701631e-06)
(0 -6.861919747e-06 5.281038639e-06)
(0 -4.611141467e-06 9.156532002e-06)
(0 -2.522358224e-06 -1.089940815e-05)
(0 2.215615832e-05 -2.943640646e-05)
(0 6.418720357e-05 -5.385287226e-05)
(0 3.677764097e-05 -2.978136062e-05)
(0 5.608840362e-06 -2.977469011e-05)
(0 1.217535752e-05 -1.945465283e-05)
(0 1.257462749e-05 -1.269278859e-05)
(0 1.109380216e-05 -8.59717257e-06)
(0 9.299468895e-06 -6.054803295e-06)
(0 7.653789635e-06 -4.393877491e-06)
(0 6.245385616e-06 -3.251335936e-06)
(0 5.063774742e-06 -2.436596164e-06)
(0 4.082275248e-06 -1.83530862e-06)
(0 3.268488353e-06 -1.383628306e-06)
(0 2.597638304e-06 -1.043438717e-06)
(0 2.048760921e-06 -7.842466222e-07)
(0 1.604703903e-06 -5.860409145e-07)
(0 1.241644428e-06 -4.354808162e-07)
(0 9.548178802e-07 -3.201784509e-07)
(0 7.251660747e-07 -2.344163658e-07)
(0 5.460186164e-07 -1.705712606e-07)
(0 4.06893448e-07 -1.219727432e-07)
(0 3.030260338e-07 -8.671499711e-08)
(0 2.182168641e-07 -6.193928458e-08)
(0 1.591363134e-07 -4.478686664e-08)
(0 1.153023588e-07 -3.04931858e-08)
(0 8.004461392e-08 -2.096406555e-08)
(0 5.717472337e-08 -1.238785673e-08)
(0 4.002230636e-08 -9.529120561e-09)
(0 2.668153797e-08 -5.717472423e-09)
(0 1.905824112e-08 -3.811648225e-09)
(0 1.238785673e-08 -1.905824112e-09)
(0 7.623296563e-09 -9.529120704e-10)
(0 8.576208505e-09 0)
(0 -5.174312488e-07 -4.171849001e-06)
(0 -1.561822869e-06 -4.255705268e-06)
(0 -2.628131463e-06 -4.430088169e-06)
(0 -3.736368189e-06 -4.695950634e-06)
(0 -4.900826734e-06 -5.0561514e-06)
(0 -6.14628279e-06 -5.524984126e-06)
(0 -7.487030059e-06 -6.114836692e-06)
(0 -8.951655909e-06 -6.840955692e-06)
(0 -1.05639831e-05 -7.734787194e-06)
(0 -1.235641069e-05 -8.839212272e-06)
(0 -1.436038477e-05 -1.021426439e-05)
(0 -1.65921048e-05 -1.196190509e-05)
(0 -1.903918297e-05 -1.421649503e-05)
(0 -2.163586835e-05 -1.715241711e-05)
(0 -2.419348431e-05 -2.096215951e-05)
(0 -2.552660829e-05 -2.651668392e-05)
(0 -1.200478615e-05 -1.51293848e-05)
(0 2.493770862e-06 5.362989076e-06)
(0 1.067737964e-05 9.577719119e-06)
(0 1.683605031e-05 1.653302427e-05)
(0 1.254413436e-05 1.113668325e-05)
(0 7.817690544e-06 1.223348503e-05)
(0 4.34432609e-06 1.148735491e-05)
(0 6.908612438e-07 1.175798191e-05)
(0 -4.003183566e-06 1.096325326e-05)
(0 -7.159228321e-06 1.610230802e-05)
(0 -1.169508972e-05 9.416676981e-06)
(0 -1.242692618e-05 6.948634745e-06)
(0 4.60980739e-05 -3.628689132e-05)
(0 5.053292656e-05 -5.77417063e-05)
(0 1.310730533e-05 -4.244270298e-05)
(0 2.384567165e-05 -1.977197255e-05)
(0 1.899630184e-05 -1.118623463e-05)
(0 1.46300588e-05 -7.246896187e-06)
(0 1.139587545e-05 -5.09045628e-06)
(0 9.001207282e-06 -3.736368172e-06)
(0 7.171616134e-06 -2.807278917e-06)
(0 5.730813192e-06 -2.132617214e-06)
(0 4.576836606e-06 -1.627573792e-06)
(0 3.643935703e-06 -1.237832761e-06)
(0 2.882559013e-06 -9.405242135e-07)
(0 2.266977782e-06 -7.108723939e-07)
(0 1.771463512e-06 -5.317249273e-07)
(0 1.368381733e-06 -3.973643334e-07)
(0 1.048203262e-06 -2.925440012e-07)
(0 7.98540303e-07 -2.144052126e-07)
(0 5.993816923e-07 -1.562775795e-07)
(0 4.488215784e-07 -1.124436226e-07)
(0 3.306604835e-07 -8.099752477e-08)
(0 2.391809297e-07 -5.717472423e-08)
(0 1.753358183e-07 -3.90693943e-08)
(0 1.248314794e-07 -2.763444963e-08)
(0 8.957373462e-08 -1.905824141e-08)
(0 6.193928365e-08 -1.334076879e-08)
(0 4.383395458e-08 -8.576208505e-09)
(0 2.954027418e-08 -4.764560352e-09)
(0 2.096406523e-08 -3.811648225e-09)
(0 1.334076879e-08 -1.905824112e-09)
(0 8.576208634e-09 0)
(0 9.529120561e-09 0)
(0 -5.584064758e-07 -3.863105551e-06)
(0 -1.682842726e-06 -3.939338523e-06)
(0 -2.835866334e-06 -4.091804449e-06)
(0 -4.0327239e-06 -4.325267907e-06)
(0 -5.292473671e-06 -4.643540547e-06)
(0 -6.643702985e-06 -5.05233982e-06)
(0 -8.104517195e-06 -5.56214778e-06)
(0 -9.711126968e-06 -6.190116847e-06)
(0 -1.150260165e-05 -6.954352321e-06)
(0 -1.35265869e-05 -7.895829451e-06)
(0 -1.584597491e-05 -9.071722965e-06)
(0 -1.852651656e-05 -1.058780606e-05)
(0 -2.161204585e-05 -1.263275537e-05)
(0 -2.508445748e-05 -1.544479892e-05)
(6.198896052e-26 -2.955075636e-05 -1.866278299e-05)
(-6.198896052e-26 -1.609659077e-05 -1.674075934e-05)
(0 6.981986779e-06 -1.532282618e-06)
(0 1.282333779e-05 8.957373502e-06)
(0 1.272995241e-05 1.508555105e-05)
(0 1.306537748e-05 1.270517671e-05)
(0 1.065927447e-05 1.037149502e-05)
(0 7.421279238e-06 9.867404534e-06)
(0 4.263328629e-06 9.613929936e-06)
(0 1.020568832e-06 9.934108379e-06)
(0 -2.517593701e-06 1.072407249e-05)
(0 -6.155812012e-06 1.319592643e-05)
(0 -1.167793748e-05 1.482350023e-05)
(0 -2.354645737e-05 1.982342989e-05)
(0 -5.031375762e-07 2.197034083e-05)
(0 3.06199237e-05 -1.363998344e-05)
(0 4.357952772e-05 -6.932435312e-06)
(0 4.343277991e-05 -6.295890144e-06)
(0 2.509970394e-05 -5.264839189e-06)
(0 1.718862793e-05 -4.301445086e-06)
(0 1.280999715e-05 -3.477176197e-06)
(0 9.937919982e-06 -2.78917363e-06)
(0 7.848183812e-06 -2.220285124e-06)
(0 6.244432891e-06 -1.754311148e-06)
(0 4.977059744e-06 -1.374099206e-06)
(0 3.954585092e-06 -1.066308607e-06)
(0 3.12650455e-06 -8.204573049e-07)
(0 2.45756023e-06 -6.251103182e-07)
(0 1.915353262e-06 -4.745502111e-07)
(0 1.481778292e-06 -3.554362076e-07)
(0 1.1368241e-06 -2.639566435e-07)
(0 8.614325117e-07 -1.943940624e-07)
(0 6.489331297e-07 -1.410309885e-07)
(0 4.840793318e-07 -1.019615915e-07)
(0 3.563891143e-07 -7.337422942e-08)
(0 2.601449991e-07 -5.241016466e-08)
(0 1.886765899e-07 -3.716357075e-08)
(0 1.362664261e-07 -2.477571383e-08)
(0 9.529120847e-08 -1.619950544e-08)
(0 6.7656757e-08 -1.143494485e-08)
(0 4.669269145e-08 -8.576208634e-09)
(0 3.239901088e-08 -4.764560424e-09)
(0 2.286988969e-08 -1.905824141e-09)
(0 1.524659313e-08 -9.529120704e-10)
(0 9.529120847e-09 0)
(0 8.576208634e-09 9.529120704e-10)
(0 -5.936642136e-07 -3.541021217e-06)
(0 -1.789568852e-06 -3.606772154e-06)
(0 -3.015966671e-06 -3.737321101e-06)
(0 -4.286198448e-06 -3.93552681e-06)
(0 -5.628851549e-06 -4.203295105e-06)
(0 -7.064890016e-06 -4.544437616e-06)
(0 -8.625759971e-06 -4.965624747e-06)
(0 -1.034290752e-05 -5.472573971e-06)
(0 -1.22706486e-05 -6.078626033e-06)
(0 -1.447282837e-05 -6.799980463e-06)
(0 -1.705140843e-05 -7.668083362e-06)
(0 -2.015218425e-05 -8.772508428e-06)
(0 -2.389712865e-05 -1.037816525e-05)
(0 -2.766589588e-05 -1.343129551e-05)
(0 -2.549039763e-05 -2.160632807e-05)
(0 -8.396108168e-06 -5.520219568e-06)
(0 1.369429923e-05 5.384906059e-06)
(0 1.911446302e-05 7.721446426e-06)
(0 1.442422986e-05 9.430970662e-06)
(0 1.212104143e-05 8.796331243e-06)
(0 9.706362247e-06 7.742410491e-06)
(0 7.06203128e-06 7.231649627e-06)
(0 4.410077022e-06 7.15446376e-06)
(0 1.800050882e-06 7.631872692e-06)
(0 -7.404126709e-07 8.815389471e-06)
(0 -3.060753543e-06 1.116431772e-05)
(0 -5.068539249e-06 1.491974413e-05)
(0 -5.280085727e-06 2.285273703e-05)
(0 1.263370812e-05 4.107908607e-05)
(0 2.163110377e-05 3.420191967e-05)
(0 2.045235146e-05 2.554852514e-05)
(0 2.551136195e-05 6.506483617e-06)
(0 2.09926526e-05 5.012317415e-07)
(0 1.64167689e-05 -1.39506325e-06)
(0 1.290719399e-05 -1.877236779e-06)
(0 1.026000411e-05 -1.845790653e-06)
(0 8.205525715e-06 -1.634244176e-06)
(0 6.576046198e-06 -1.373146293e-06)
(0 5.265792022e-06 -1.118718754e-06)
(0 4.195671783e-06 -8.947844207e-07)
(0 3.32280439e-06 -7.022961959e-07)
(0 2.614790682e-06 -5.43159872e-07)
(0 2.041137624e-06 -4.154696565e-07)
(0 1.578975301e-06 -3.135080712e-07)
(0 1.211151223e-06 -2.353692779e-07)
(0 9.205130462e-07 -1.734299942e-07)
(0 6.908612511e-07 -1.267373054e-07)
(0 5.164783344e-07 -9.147955739e-08)
(0 3.802119104e-07 -6.670384393e-08)
(0 2.772974125e-07 -4.669269145e-08)
(0 2.010644438e-07 -3.239900991e-08)
(0 1.457955446e-07 -2.286988935e-08)
(0 1.010086795e-07 -1.61995052e-08)
(0 7.146840421e-08 -1.238785673e-08)
(0 5.241016309e-08 -7.623296449e-09)
(0 3.525774661e-08 -4.764560352e-09)
(0 2.38228014e-08 -3.811648225e-09)
(0 1.619950495e-08 -3.811648225e-09)
(0 9.529120704e-09 -1.905824141e-09)
(0 9.529120561e-09 -9.529120561e-10)
(0 -6.232044875e-07 -3.210360732e-06)
(0 -1.879142586e-06 -3.263723812e-06)
(0 -3.165573865e-06 -3.370449958e-06)
(0 -4.496792013e-06 -3.530539184e-06)
(0 -5.901384399e-06 -3.745897315e-06)
(0 -7.406032534e-06 -4.015571423e-06)
(0 -9.034559245e-06 -4.342420259e-06)
(0 -1.082412811e-05 -4.721679266e-06)
(0 -1.282905507e-05 -5.152395511e-06)
(0 -1.511699693e-05 -5.620275332e-06)
(0 -1.781850264e-05 -6.102448844e-06)
(0 -2.123564527e-05 -6.531259262e-06)
(0 -2.626987968e-05 -6.75233486e-06)
(0 -3.631452575e-05 -6.379746251e-06)
(0 -2.163872708e-05 -4.359572678e-06)
(0 1.089464359e-05 6.433109323e-06)
(0 2.022365268e-05 1.080125822e-05)
(0 1.686654347e-05 7.069654576e-06)
(0 1.380483702e-05 6.070049825e-06)
(0 1.137872293e-05 5.261980406e-06)
(0 9.094592705e-06 4.530143935e-06)
(0 6.832379473e-06 4.123250485e-06)
(0 4.664504543e-06 4.115627195e-06)
(0 2.680541626e-06 4.605423988e-06)
(0 1.016757168e-06 5.733671868e-06)
(0 -5.336307546e-08 7.735740118e-06)
(0 1.048203266e-08 1.086129166e-05)
(0 2.614790694e-06 1.5636334e-05)
(0 1.084413926e-05 2.135475931e-05)
(0 1.509031539e-05 1.234878739e-05)
(0 1.588409106e-05 1.219060393e-05)
(0 1.838453257e-05 6.030980494e-06)
(0 1.720006261e-05 1.967763396e-06)
(0 1.481015918e-05 -6.003345954e-08)
(0 1.235926955e-05 -9.2051306e-07)
(0 1.017900658e-05 -1.193045894e-06)
(0 8.320828074e-06 -1.188281334e-06)
(0 6.759958228e-06 -1.065355695e-06)
(0 5.456374433e-06 -9.043135413e-07)
(0 4.372913426e-06 -7.413655797e-07)
(0 3.478129057e-06 -5.917583957e-07)
(0 2.74343381e-06 -4.650210834e-07)
(0 2.14595795e-06 -3.57342021e-07)
(0 1.660925739e-06 -2.725328521e-07)
(0 1.275949243e-06 -2.048760921e-07)
(0 9.710173852e-07 -1.515130169e-07)
(0 7.299306459e-07 -1.114907122e-07)
(0 5.441127841e-07 -8.099752477e-08)
(0 4.030817997e-07 -5.812763542e-08)
(0 2.925440056e-07 -4.097521903e-08)
(0 2.124993885e-07 -2.858736168e-08)
(0 1.52465929e-07 -2.001115318e-08)
(0 1.067261519e-07 -1.429368106e-08)
(0 7.528005243e-08 -1.048203262e-08)
(0 5.43159872e-08 -5.717472337e-09)
(0 3.716357075e-08 -4.764560352e-09)
(0 2.477571346e-08 -4.764560281e-09)
(0 1.715241701e-08 -9.529120561e-10)
(0 1.143494485e-08 -1.905824141e-09)
(0 1.048203262e-08 0)
(0 -6.470272987e-07 -2.877794466e-06)
(0 -1.949658108e-06 -2.919722601e-06)
(0 -3.281829185e-06 -3.002625947e-06)
(0 -4.663551694e-06 -3.126504517e-06)
(0 -6.113883881e-06 -3.289452487e-06)
(0 -7.661413081e-06 -3.49051693e-06)
(0 -9.329962124e-06 -3.721121652e-06)
(0 -1.115383585e-05 -3.97936083e-06)
(0 -1.317019778e-05 -4.246176205e-06)
(0 -1.542383484e-05 -4.492980432e-06)
(0 -1.79595339e-05 -4.652116756e-06)