/*--------------------------------*- C++ -*----------------------------------*\
  =========                 |
  \\      /  F ield         | OpenFOAM: The Open Source CFD Toolbox
   \\    /   O peration     | Website:  https://openfoam.org
    \\  /    A nd           | Version:  6
     \\/     M anipulation  |
\*---------------------------------------------------------------------------*/
FoamFile
{
    version     2.0;
    format      ascii;
    class       volScalarField;
    location    "0.0049";
    object      Num_divU;
}
// * * * * * * * * * * * * * * * * * * * * * * * * * * * * * * * * * * * * * //

dimensions      [0 0 -1 0 0 0 0];

internalField   nonuniform List<scalar> 
600
(
1.005764002e-07
4.715755424e-08
1.249510381e-08
-1.066368623e-08
-2.48900338e-08
-3.052207298e-08
-2.517869365e-08
-3.740386287e-09
4.266216319e-08
1.286253061e-07
2.793383453e-07
5.393032539e-07
9.834971364e-07
1.674009792e-06
2.231507688e-06
2.338163416e-06
-1.264383364e-06
-7.674564424e-11
-8.107608531e-11
-4.466798751e-11
3.604978552e-12
3.601422359e-11
3.200379521e-11
6.925535963e-12
2.853248469e-11
1.498170835e-10
8.992091796e-11
2.491469952e-11
1.546057024e-06
-4.155813154e-11
1.30410954e-07
7.07227625e-08
3.040276066e-08
2.897500051e-09
-1.384571186e-08
-1.989826644e-08
-1.255226908e-08
1.382656981e-08
6.855592465e-08
1.651805313e-07
3.220509848e-07
5.602808401e-07
8.968102919e-07
1.322699422e-06
1.897054483e-06
2.83583692e-06
5.812369127e-06
5.924374789e-06
-7.055226958e-07
1.23975985e-11
-6.636864566e-13
2.665350795e-11
4.509852857e-12
-2.461745682e-11
4.68335116e-11
7.789724591e-18
-1.319787195e-06
-1.233589205e-06
-1.364641184e-07
9.305439374e-07
1.415431466e-07
8.056940767e-08
3.834608069e-08
8.803022107e-09
-9.742051474e-09
-1.713191122e-08
-1.062185135e-08
1.545720193e-08
6.999649506e-08
1.649712044e-07
3.133649294e-07
5.228853444e-07
7.824478563e-07
1.04655073e-06
1.307638611e-06
1.66251377e-06
2.118333533e-06
2.615521552e-06
7.144716304e-06
1.642029543e-05
-2.49546079e-11
2.050390245e-11
-5.687254614e-12
8.02517475e-11
6.645840632e-12
1.001130216e-05
-1.817849311e-06
-2.037563599e-06
-3.099544073e-06
-1.776788226e-06
1.360932146e-07
7.830298161e-08
3.729938096e-08
7.517668951e-09
-1.235178383e-08
-2.209904956e-08
-1.908005072e-08
2.153993322e-09
5.058530136e-08
1.394359496e-07
2.866528846e-07
5.13335618e-07
8.363672471e-07
1.248017112e-06
1.804747839e-06
2.704117885e-06
5.635361114e-06
5.766906641e-06
-8.690432032e-07
-7.170829391e-11
-9.34087164e-12
1.871562702e-11
5.060125751e-11
2.005398422e-11
1.11897531e-10
3.393656814e-11
-1.792236606e-06
-1.397403089e-06
-2.437316188e-07
8.550379166e-07
1.170349574e-07
6.618865599e-08
2.886494761e-08
2.420378032e-10
-2.067377013e-08
-3.373441506e-08
-3.677160161e-08
-2.513808664e-08
9.311928679e-09
8.039827026e-08
2.125368618e-07
4.496467067e-07
8.662831805e-07
1.526002978e-06
2.048801397e-06
2.133432597e-06
-1.465066532e-06
-4.887426984e-11
-5.658235024e-11
-4.8256662e-11
-8.095329875e-12
1.531476803e-11
2.750577867e-11
7.9747352e-11
6.447009831e-11
4.563734298e-11
6.079186128e-11
3.217049192e-11
1.519909462e-06
2.555059803e-11
8.838744651e-08
4.71163272e-08
1.518235751e-08
-1.131996025e-08
-3.305735178e-08
-5.00858834e-08
-6.10942362e-08
-6.327904796e-08
-5.199357007e-08
-1.955121825e-08
4.931656079e-08
1.91065543e-07
5.039238025e-07
1.11605893e-06
2.832015652e-06
1.993461122e-06
-2.94475371e-11
-3.449701982e-11
-5.523276986e-11
-3.590963597e-11
-2.480405583e-12
1.9841256e-11
3.142249635e-11
4.719547173e-11
6.438205917e-11
6.713303308e-11
6.149369158e-11
9.883418812e-11
7.725150196e-11
4.641459285e-11
5.490867734e-08
2.44265114e-08
-1.3007268e-09
-2.515563969e-08
-4.746014619e-08
-6.845464587e-08
-8.766990471e-08
-1.042411993e-07
-1.177866175e-07
-1.308140008e-07
-1.534970121e-07
-2.095971937e-07
-2.712350951e-07
3.388521606e-07
1.194188684e-06
3.605332906e-06
-4.067278867e-11
-4.193038191e-11
-3.925885959e-11
-2.589405464e-11
-2.670538863e-12
1.648678614e-11
2.838633503e-11
4.532901472e-11
5.007563568e-11
5.53878019e-11
7.794926754e-11
8.55869556e-11
7.266047106e-11
4.866457082e-11
2.16054181e-08
1.559518612e-09
-1.809711388e-08
-3.926829146e-08
-6.193671347e-08
-8.639800523e-08
-1.125822673e-07
-1.401033386e-07
-1.6842161e-07
-1.97522965e-07
-2.295485618e-07
-2.773944508e-07
-6.153736511e-07
-9.923475384e-07
-2.269903685e-06
-3.972197309e-11
-3.679444657e-11
-3.598882827e-11
-3.617672892e-11
-2.541252686e-11
-6.260569691e-12
1.154837876e-11
2.351830776e-11
3.525660209e-11
4.736421395e-11
5.743202101e-11
7.150694724e-11
8.333184973e-11
7.156637739e-11
4.938104886e-11
-6.942056736e-09
-1.836202191e-08
-3.297131482e-08
-5.191373931e-08
-7.494896509e-08
-1.025413445e-07
-1.35200799e-07
-1.735607054e-07
-2.182516529e-07
-2.694629565e-07
-3.257425735e-07
-4.035368584e-07
-1.107439086e-06
-1.985941664e-06
-1.572652767e-06
-2.770784082e-11
-3.266228792e-11
-3.604166618e-11
-3.569296335e-11
-2.660735248e-11
-1.179528376e-11
3.531467075e-12
1.839629876e-11
3.479932678e-11
5.124097831e-11
6.555614728e-11
7.71177596e-11
8.22002999e-11
7.024058238e-11
4.932388359e-11
-2.717445743e-08
-3.289889112e-08
-4.414654971e-08
-6.161873517e-08
-8.500907918e-08
-1.150420349e-07
-1.531159906e-07
-2.020271664e-07
-2.675152839e-07
-3.609050385e-07
-5.016056995e-07
-7.031520796e-07
-6.831836294e-07
-8.125113506e-07
2.830716311e-08
-3.011229691e-11
-3.332499072e-11
-3.582827143e-11
-3.615629278e-11
-3.175963154e-11
-1.904793092e-11
-3.521386079e-12
1.626865174e-11
3.984379154e-11
6.059928292e-11
7.714296666e-11
8.497174514e-11
7.793863693e-11
7.132467603e-11
5.074117154e-11
-3.706269449e-08
-4.062616705e-08
-5.052956991e-08
-6.737126001e-08
-9.079744457e-08
-1.215097912e-07
-1.609061446e-07
-2.118628967e-07
-2.802741926e-07
-3.778234624e-07
-5.242682635e-07
-7.340820959e-07
-7.244951152e-07
-8.715457385e-07
-9.333529233e-09
-3.01775297e-11
-3.8290623e-11
-4.017164546e-11
-4.197128815e-11
-3.171281498e-11
-2.145568558e-11
-2.978427418e-12
2.219883837e-11
4.853964466e-11
7.639945751e-11
8.50754124e-11
7.330162373e-11
7.868294952e-11
4.853485538e-11
4.104858569e-11
-3.632810658e-08
-4.13013416e-08
-5.190928846e-08
-6.897563815e-08
-9.212709819e-08
-1.217334511e-07
-1.583271977e-07
-2.027177593e-07
-2.56015633e-07
-3.192451438e-07
-3.92420481e-07
-4.937054596e-07
-1.229470741e-06
-2.164676189e-06
-1.695179836e-06
-3.441991659e-11
-5.244476087e-11
-4.436485777e-11
-3.286222257e-11
-3.630203892e-11
-2.007173433e-11
5.304283971e-12
3.339460289e-11
6.361532698e-11
7.360583567e-11
7.473140417e-11
6.515577804e-11
1.700160404e-11
5.025187519e-11
2.717547683e-11
-2.643932592e-08
-3.585609126e-08
-4.894233844e-08
-6.706177027e-08
-8.995034322e-08
-1.177414771e-07
-1.503699168e-07
-1.877074557e-07
-2.298366407e-07
-2.779056571e-07
-3.357222542e-07
-4.192207956e-07
-8.123315598e-07
-1.296869624e-06
-2.371720166e-06
-3.151605363e-11
-4.134318131e-11
-4.468268639e-11
-5.501408624e-11
-2.431896866e-11
-6.730454568e-12
1.841516091e-11
4.695624339e-11
5.753954081e-11
8.076497298e-11
4.670376714e-11
-5.695112866e-12
8.158100185e-11
4.778142725e-11
3.761302395e-11
-1.026769823e-08
-2.614814672e-08
-4.291760363e-08
-6.268742992e-08
-8.540510251e-08
-1.110623484e-07
-1.391709701e-07
-1.691440512e-07
-2.012630971e-07
-2.391028186e-07
-2.941914872e-07
-3.916732932e-07
-5.030632378e-07
5.90637351e-08
9.502299035e-07
3.377660633e-06
-4.72350774e-11
-4.858299264e-11
6.784155513e-12
-6.03090058e-11
-2.265100015e-12
4.058222644e-11
5.05202411e-11
6.637704576e-11
1.169178242e-11
5.25257971e-11
7.787438795e-11
6.67061458e-11
7.903303498e-11
3.081278579e-11
8.426379997e-09
-1.460846868e-08
-3.549948784e-08
-5.714163066e-08
-7.967526339e-08
-1.028139139e-07
-1.251956621e-07
-1.442933851e-07
-1.561137272e-07
-1.539303568e-07
-1.237470492e-07
-3.05785369e-08
2.203554946e-07
7.416675427e-07
2.285341414e-06
1.68393851e-06
-1.64446005e-11
3.322335266e-11
-1.007688285e-10
-2.091933684e-11
-2.440743004e-11
2.446873684e-11
3.808066616e-11
-1.625162551e-11
1.609996879e-10
6.066438194e-11
4.261247569e-11
5.52797241e-11
3.375649101e-11
1.593432563e-11
2.571294524e-08
-3.802943088e-09
-2.847830199e-08
-5.188957634e-08
-7.430628161e-08
-9.516207658e-08
-1.121776291e-07
-1.20999198e-07
-1.140145797e-07
-7.814455696e-08
1.052753288e-08
1.956400662e-07
5.527734012e-07
1.142837305e-06
1.560106122e-06
1.630844477e-06
-1.797827843e-06
-4.630433192e-11
-1.325611936e-11
-1.01295109e-10
-3.620692682e-11
1.400110665e-11
9.217281067e-14
1.586521121e-10
7.527276079e-11
3.026211578e-11
1.065315423e-11
5.4503372e-17
1.555554073e-06
1.898767548e-12
3.817136417e-08
4.036536877e-09
-2.345613365e-08
-4.828689777e-08
-7.087048937e-08
-9.042366417e-08
-1.042357641e-07
-1.070939453e-07
-9.06084823e-08
-4.206505072e-08
5.61908866e-08
2.256878843e-07
4.848324789e-07
8.298087714e-07
1.325245183e-06
2.167284737e-06
5.061626785e-06
5.427820284e-06
-8.142044743e-07
-3.540532452e-11
7.992372064e-12
3.108818106e-11
6.859786083e-11
5.833200112e-11
1.33545476e-11
9.015410482e-18
-1.429322341e-06
-1.306982429e-06
-2.330028962e-07
1.037811821e-06
4.356080241e-08
7.3994451e-09
-2.150754639e-08
-4.729647141e-08
-7.041735945e-08
-9.008023519e-08
-1.034605775e-07
-1.052616546e-07
-8.722046328e-08
-3.797266513e-08
5.526236522e-08
2.009103594e-07
3.901711223e-07
5.833168202e-07
7.838056238e-07
1.08382769e-06
1.538001943e-06
2.313577919e-06
6.776637028e-06
1.614056926e-05
2.651704546e-11
3.299335964e-11
2.72696228e-11
-1.381727089e-11
-2.317571117e-12
9.915982375e-06
-1.950293484e-06
-2.075986654e-06
-3.27930284e-06
-1.604636687e-06
4.116710303e-08
5.800043235e-09
-2.299630699e-08
-4.924606428e-08
-7.330347712e-08
-9.456432268e-08
-1.103088479e-07
-1.155359393e-07
-1.017621145e-07
-5.641773324e-08
3.829178538e-08
2.035329739e-07
4.577324835e-07
7.979181376e-07
1.288623009e-06
2.103883204e-06
5.014334472e-06
5.407689114e-06
-8.402890612e-07
-2.710452632e-11
1.265003745e-11
2.29191474e-11
6.640631767e-12
-2.074407469e-12
4.402949187e-11
2.918652868e-11
-1.646565338e-06
-1.498891884e-06
8.859309049e-08
9.627199499e-07
3.194778691e-08
-1.063717238e-10
-2.755207191e-08
-5.376810678e-08
-7.921649836e-08
-1.033739957e-07
-1.24291866e-07
-1.376823537e-07
-1.36193136e-07
-1.065548182e-07
-2.51134448e-08
1.519292479e-07
4.99975034e-07
1.078434924e-06
1.461907939e-06
1.511310504e-06
-1.885077857e-06
-9.069950639e-11
-6.832242736e-11
-3.549201993e-11
-3.471857438e-12
1.790893064e-11
1.213303274e-11
2.748152061e-11
2.129314493e-11
1.353250277e-10
6.68511154e-11
1.335017352e-11
1.467431935e-06
-6.599761767e-11
)
;

boundaryField
{
    lowerWall
    {
        type            calculated;
        value           nonuniform 0();
    }
    atmosphere
    {
        type            calculated;
        value           nonuniform List<scalar> 
20
(
1.005764002e-07
1.30410954e-07
1.415431466e-07
1.360932146e-07
1.170349574e-07
8.838744651e-08
5.490867734e-08
2.16054181e-08
-6.942056736e-09
-2.717445743e-08
-3.706269449e-08
-3.632810658e-08
-2.643932592e-08
-1.026769823e-08
8.426379997e-09
2.571294524e-08
3.817136417e-08
4.356080241e-08
4.116710303e-08
3.194778691e-08
)
;
    }
    rightWall
    {
        type            empty;
    }
    leftWall
    {
        type            empty;
    }
    frontAndBack
    {
        type            calculated;
        value           nonuniform 0();
    }
    procBoundary2to0
    {
        type            processor;
        value           nonuniform List<scalar> 
30
(
4.997471535e-08
8.583237522e-09
-1.567173811e-08
-3.151337791e-08
-4.218467001e-08
-4.804108085e-08
-4.728945368e-08
-3.610974048e-08
-8.750090699e-09
4.379061562e-08
1.37991182e-07
3.117674839e-07
6.644102768e-07
1.31826036e-06
3.094969941e-06
2.206278401e-06
-3.953467009e-11
-4.854855367e-11
-7.138070021e-11
-6.150942311e-11
-1.445840227e-11
1.562639855e-11
2.058736656e-11
4.508269189e-12
7.108886814e-11
1.019989643e-10
1.075936983e-10
5.031876649e-11
-2.428171201e-11
9.72044786e-11
)
;
    }
    procBoundary2to3
    {
        type            processor;
        value           nonuniform List<scalar> 
20
(
5.707936867e-11
-4.721979718e-11
-4.098817237e-11
-2.631415274e-11
1.715055749e-11
4.672616861e-11
5.180571924e-11
5.813739001e-11
6.313183243e-11
6.577643268e-11
5.759418548e-11
3.306180553e-11
1.080599958e-11
4.816514462e-11
3.208285527e-11
-2.53416226e-11
-3.439822361e-11
-2.554206781e-12
-3.668161038e-11
9.0043293e-11
)
;
    }
    procBoundary2to4
    {
        type            processor;
        value           nonuniform List<scalar> 
30
(
1.840612033e-08
-8.826757231e-09
-3.403951267e-08
-6.005152857e-08
-8.708478804e-08
-1.151571762e-07
-1.431803125e-07
-1.690557314e-07
-1.888998054e-07
-1.961431795e-07
-1.767516399e-07
-9.631796508e-08
1.394410643e-07
6.438184543e-07
2.155985538e-06
1.577956355e-06
-4.11558829e-11
-5.502617556e-11
-9.737386659e-11
-6.715522141e-11
-1.536198587e-11
2.300217997e-11
3.407642074e-11
4.155113905e-12
7.903356925e-11
8.891926585e-11
1.175502103e-10
5.739457561e-11
-2.646991937e-11
1.151070177e-10
)
;
    }
}


// ************************************************************************* //
