/*--------------------------------*- C++ -*----------------------------------*\
  =========                 |
  \\      /  F ield         | OpenFOAM: The Open Source CFD Toolbox
   \\    /   O peration     | Website:  https://openfoam.org
    \\  /    A nd           | Version:  6
     \\/     M anipulation  |
\*---------------------------------------------------------------------------*/
FoamFile
{
    version     2.0;
    format      ascii;
    class       surfaceScalarField;
    location    "0.0049";
    object      phi;
}
// * * * * * * * * * * * * * * * * * * * * * * * * * * * * * * * * * * * * * //

dimensions      [0 3 -1 0 0 0 0];

internalField   nonuniform List<scalar> 
1150
(
-1.04290883e-18
-3.622479054e-19
-1.099811118e-18
-4.033444956e-19
-1.198600653e-18
-4.766346759e-19
-1.343618744e-18
-5.744266874e-19
-1.539667408e-18
-6.906563757e-19
-1.791876726e-18
-8.206100356e-19
-2.104763872e-18
-9.603562763e-19
-2.480638513e-18
-1.106005679e-18
-2.916776989e-18
-1.252735703e-18
-3.400263607e-18
-1.393389428e-18
-3.897488383e-18
-1.51659034e-18
-4.331999266e-18
-1.605212351e-18
-4.539341535e-18
-1.639648005e-18
-4.208350232e-18
-1.618721712e-18
-3.028630909e-18
-1.625804203e-18
-5.935790962e-19
-1.85168423e-18
1.868459531e-19
-1.509119113e-18
1.297525123e-19
1.81385166e-20
1.290073179e-19
1.507336024e-20
4.748976704e-20
1.506056246e-19
1.496528607e-20
1.045090585e-19
-4.838965296e-21
8.550240569e-20
-1.502077822e-20
6.697157917e-20
-3.495069349e-20
7.065588743e-20
-6.365493336e-20
6.758969518e-20
-1.243882111e-19
7.327537447e-20
-5.807173082e-20
-1.338319036e-19
1.683205816e-20
-2.024475286e-19
-2.532911435e-19
8.449195739e-19
2.532911433e-19
-1.199869783e-18
-2.847537239e-19
-1.260842614e-18
-3.109393254e-19
-1.36709134e-18
-3.568736124e-19
-1.524030799e-18
-4.161994503e-19
-1.73780457e-18
-4.830362544e-19
-2.015212014e-18
-5.520462659e-19
-2.362822959e-18
-6.183241177e-19
-2.785414766e-18
-6.772687293e-19
-3.283220763e-18
-7.244604065e-19
-3.847542102e-18
-7.556545198e-19
-4.453948528e-18
-7.670501433e-19
-5.053397747e-18
-7.567494247e-19
-5.564604778e-18
-7.298586217e-19
-5.882822548e-18
-7.126375327e-19
-5.885747175e-18
-7.797442494e-19
-5.428007543e-18
-1.049051897e-18
-3.055201924e-18
-1.298649565e-18
5.290439727e-32
-4.040079433e-19
2.154910131e-19
-5.139832957e-19
1.393200721e-21
3.64708947e-19
-4.041366761e-21
1.09943331e-19
-2.336979173e-20
1.048426767e-19
-1.133647006e-20
5.494026189e-20
-3.801688574e-20
9.732536201e-20
-5.796925396e-20
8.75628783e-20
-2.824469198e-19
2.977530403e-19
-6.716121625e-32
-1.002850911e-18
-5.922210861e-19
-1.584883118e-19
-4.702563053e-19
6.623040738e-19
-1.517807113e-33
-1.308527168e-18
-2.023348962e-19
-1.369377321e-18
-2.142805473e-19
-1.475418633e-18
-2.337895975e-19
-1.632308132e-18
-2.553974975e-19
-1.846567744e-18
-2.731064422e-19
-2.125522839e-18
-2.807053539e-19
-2.476522493e-18
-2.720452864e-19
-2.905502929e-18
-2.414184261e-19
-3.414633694e-18
-1.842200882e-19
-3.998984872e-18
-9.7982806e-20
-4.643089341e-18
1.632762692e-20
-5.321137723e-18
1.53692444e-19
-6.011199153e-18
3.07957411e-19
-6.743071978e-18
4.843689491e-19
-7.669797514e-18
7.281540022e-19
-9.10851507e-18
1.128560667e-18
-1.089533725e-17
1.429654188e-18
-1.058163642e-17
4.447452464e-19
-8.516344391e-18
5.961541416e-19
-4.924520148e-19
-3.612743643e-19
-2.774701736e-19
-1.050496011e-19
-7.32722063e-20
-9.934617784e-20
3.104862993e-20
-4.938310201e-20
2.205487832e-19
-9.213912378e-20
3.913005077e-19
-8.318589255e-20
5.43334034e-18
-2.948191725e-19
2.401998788e-18
1.220557614e-18
1.115653499e-18
2.222731566e-19
9.513023448e-19
-5.50919913e-19
4.708304425e-33
-1.369477069e-18
-1.237564485e-19
-1.425750621e-18
-1.232056701e-19
-1.523506853e-18
-1.194558631e-19
-1.667822892e-18
-1.077402716e-19
-1.864525719e-18
-8.189329749e-20
-2.120154322e-18
-3.489855007e-20
-2.44123286e-18
4.055322844e-20
-2.832925144e-18
1.512311885e-19
-3.296611698e-18
3.019488224e-19
-3.825812595e-18
4.931896236e-19
-4.399684281e-18
7.176005955e-19
-4.974049375e-18
9.562067011e-19
-5.473205066e-18
1.178831879e-18
-5.79610278e-18
1.361940935e-18
-5.817644659e-18
1.551806032e-18
-5.373248141e-18
1.885994321e-18
-3.022405017e-18
1.583416003e-18
5.287204685e-32
-1.45901498e-20
2.189255958e-19
-9.01287824e-21
2.852347967e-21
-1.452329869e-19
-3.438597869e-21
-9.876280676e-20
-2.330913065e-20
-7.9467327e-20
-1.170739173e-20
-6.096235148e-20
-3.882613821e-20
-6.501146442e-20
-5.941237189e-20
-6.254992663e-20
-2.853807876e-19
-6.883567385e-20
-6.729722352e-32
1.386272228e-19
-6.039393384e-19
2.05144455e-19
-4.362351408e-19
-8.269492745e-19
-2.528460759e-19
-1.387580064e-18
-5.63096835e-20
-1.435301255e-18
-4.606729869e-20
-1.517580188e-18
-2.434806418e-20
-1.638171414e-18
1.295852684e-20
-1.801229746e-18
7.197669158e-20
-2.011268889e-18
1.601475204e-19
-2.272539824e-18
2.854812286e-19
-2.587905959e-18
4.554248411e-19
-2.956672119e-18
6.748536175e-19
-3.3701298e-18
9.423798692e-19
-3.801711004e-18
1.243642626e-18
-4.185168224e-18
1.539506902e-18
-4.369080061e-18
1.747758463e-18
-4.054805631e-18
1.725890052e-18
-2.936024309e-18
1.343603108e-18
-5.712631624e-19
4.694254401e-19
1.903943199e-19
1.706178399e-19
1.322646275e-19
4.351782075e-20
1.317540563e-19
-8.527454805e-21
4.932252832e-20
-6.282290628e-20
1.585688189e-20
-6.530075826e-20
-4.804155211e-21
-5.879948333e-20
-1.575650458e-20
-4.999777732e-20
-3.636460042e-20
-4.436792532e-20
-6.569811921e-20
-3.318775446e-20
-1.269664603e-19
-7.547049531e-21
-6.017012367e-20
7.185790482e-20
1.413513174e-20
1.308534976e-19
-2.528460761e-19
1.155472497e-19
-5.076185698e-19
-1.371468175e-18
-5.149236889e-21
-1.407787268e-18
1.11923838e-20
-1.469432639e-18
4.404502207e-20
-1.558296546e-18
9.679134028e-20
-1.676119439e-18
1.751074276e-19
-1.824427964e-18
2.861956527e-19
-2.004064189e-18
4.379644603e-19
-2.214578758e-18
6.378153882e-19
-2.453375054e-18
8.905416605e-19
-2.714190929e-18
1.194506314e-18
-2.983079358e-18
1.534449527e-18
-3.225733674e-18
1.867079238e-18
-3.344135085e-18
2.090126008e-18
-3.090931378e-18
1.968712535e-18
-1.38977479e-18
9.011201428e-19
-3.436662974e-20
8.601463676e-33
6.329430106e-20
7.294382131e-20
8.021935182e-20
2.657743798e-20
7.745860463e-20
-5.791255508e-21
4.684467637e-20
-3.222493786e-20
2.235815679e-20
-4.081534108e-20
3.997550718e-21
-4.043005893e-20
-1.012665249e-20
-3.585960855e-20
-2.518442953e-20
-2.928917252e-20
-4.005741424e-20
-1.828615549e-20
-4.756150583e-20
-1.312103851e-23
-1.174530907e-21
2.549826043e-20
1.112211302e-19
1.850176286e-20
3.239880543e-19
-9.718534043e-20
1.698162462e-19
-1.332459006e-18
2.718083858e-20
-1.356114286e-18
4.570389082e-20
-1.394857667e-18
8.221030269e-20
-1.448475507e-18
1.392288952e-19
-1.515932033e-18
2.214705559e-19
-1.595219535e-18
3.350588673e-19
-1.682917064e-18
4.866975876e-19
-1.773889026e-18
6.824579283e-19
-1.861483046e-18
9.257860725e-19
-1.939302518e-18
1.214186229e-18
-2.006935126e-18
1.533861241e-18
-2.084043725e-18
1.851033528e-18
-2.210003527e-18
2.095536879e-18
-2.183369211e-18
2.092679179e-18
-1.81988887e-18
1.068390328e-18
-8.811016471e-20
-1.29408524e-19
1.692791775e-20
-3.211233795e-20
4.785065848e-20
-4.363938473e-21
5.102492234e-20
-8.982967752e-21
3.825427326e-20
-1.946579725e-20
2.274343898e-20
-2.53056937e-20
8.568001041e-21
-2.624729353e-20
-3.55621642e-21
-2.372277494e-20
-1.418141254e-20
-1.864383017e-20
-2.178437985e-20
-1.066093235e-20
-2.205012443e-20
2.772403466e-22
-8.171028472e-21
1.165380859e-20
-4.465973113e-21
1.483474615e-20
-1.214025721e-19
1.978355208e-20
5.666575941e-20
-1.283018811e-18
4.091921245e-20
-1.29454463e-18
5.79228295e-20
-1.311398192e-18
9.102070352e-20
-1.33139257e-18
1.417706989e-19
-1.350885383e-18
2.134359407e-19
-1.364504458e-18
3.102788281e-19
-1.364584196e-18
4.367407624e-19
-1.34058163e-18
5.961872119e-19
-1.278359054e-18
7.887094478e-19
-1.15913026e-18
1.007169451e-18
-9.575222575e-19
1.230231656e-18
-6.406318033e-19
1.410856651e-18
-2.783617739e-19
1.459767449e-18
1.427190615e-19
1.230554993e-18
2.022633072e-19
-3.901840938e-33
7.252969929e-20
3.074296229e-22
4.467631728e-20
-4.275309019e-21
4.32316292e-20
-2.935245433e-21
4.054209281e-20
-6.309509907e-21
3.241437683e-20
-1.134937573e-20
2.180183915e-20
-1.46959385e-20
1.109251959e-20
-1.553284135e-20
1.522728394e-21
-1.414253116e-20
-6.198514729e-21
-1.090691745e-20
-1.084620714e-20
-5.992189186e-21
-1.067355617e-20
1.301147274e-22
-4.990090914e-21
6.002124199e-21
4.828328512e-22
9.398858765e-21
8.071858805e-21
1.222633341e-20
1.437520546e-20
-1.235025062e-18
3.886745689e-20
-1.236651749e-18
5.138861809e-20
-1.235729815e-18
7.544485103e-20
-1.228604687e-18
1.115727986e-19
-1.209766751e-18
1.612873533e-19
-1.171596316e-18
2.265344626e-19
-1.103979489e-18
3.090346915e-19
-9.941773141e-19
4.092469454e-19
-8.269305503e-19
5.244619494e-19
-5.845089817e-19
6.449865682e-19
-2.453613831e-19
7.463095801e-19
2.127649429e-19
7.733806099e-19
5.684663195e-19
6.118709232e-19
8.381838437e-19
7.819673025e-20
1.392270586e-19
-1.723133301e-32
6.794696057e-20
7.157521305e-20
4.601638082e-20
1.764075416e-20
3.985736469e-20
3.207752182e-21
3.550222694e-20
-1.970235695e-21
2.906781404e-20
-4.926788317e-21
2.096493628e-20
-6.598303101e-21
1.248282975e-20
-7.049165275e-21
4.758342129e-21
-6.409867413e-21
-1.283786471e-21
-4.849322478e-21
-4.723903216e-21
-2.529298673e-21
-4.801546696e-21
2.368942727e-22
-1.593356348e-21
2.828208411e-21
3.31030751e-21
4.531728374e-21
1.022073083e-20
5.34712813e-21
4.091107217e-21
-1.198122251e-18
2.58133908e-20
-1.193378742e-18
3.202337984e-20
-1.181150925e-18
4.359634594e-20
-1.157050772e-18
6.008654087e-20
-1.114732682e-18
8.118745041e-20
-1.045777787e-18
1.064497738e-19
-9.397878783e-19
1.349932317e-19
-7.855390523e-19
1.652082679e-19
-5.744065548e-19
1.944337701e-19
-3.084408725e-19
2.186186464e-19
-1.703038559e-20
2.31963227e-19
2.171717288e-19
2.2666646e-19
3.325434755e-19
1.928620077e-19
-7.010684272e-20
1.197308928e-19
-5.752588134e-20
3.355801353e-34
1.401250174e-20
2.344672806e-23
3.158337886e-20
5.506593942e-23
3.467937684e-20
9.583052178e-23
3.254567433e-20
1.473973515e-22
2.739629928e-20
2.084713429e-22
2.051407412e-20
2.754563055e-22
1.312212761e-20
3.412161818e-22
6.318887076e-21
4.006036294e-22
1.03623733e-21
4.510356201e-22
-1.957710274e-21
4.915819455e-22
-2.210232562e-21
5.237023237e-22
1.101636125e-22
5.455774569e-22
4.125707275e-21
5.508241064e-22
8.964709911e-21
5.398253495e-22
5.087395308e-22
-1.178465236e-18
7.666579307e-21
-1.171578402e-18
7.08047156e-21
-1.155754535e-18
5.314892079e-21
-1.126667109e-18
1.056331968e-21
-1.078131757e-18
-7.702321161e-21
-1.002012682e-18
-2.36736525e-20
-8.883519135e-19
-5.018137896e-20
-7.265865005e-19
-9.071843254e-20
-5.09052845e-19
-1.476661933e-19
-2.391925472e-19
-2.191631903e-19
5.172058667e-20
-2.919580238e-19
2.78522245e-19
-3.263939079e-19
3.772885568e-19
-2.279021332e-19
-5.33541994e-20
1.630199877e-19
-5.750243461e-20
1.787513998e-32
1.404412095e-20
-7.153652107e-20
3.162414344e-20
-1.75419746e-20
3.473094367e-20
-3.028823774e-21
3.260674832e-20
2.252938794e-21
2.746328424e-20
5.337840839e-21
2.0579834e-20
7.149370685e-21
1.318151505e-20
7.738211382e-21
6.369319066e-21
7.222665768e-21
1.076783656e-21
5.765144206e-21
-1.925589895e-21
3.52791081e-21
-2.188357429e-21
8.242811527e-22
1.15410262e-22
-1.725611735e-21
4.114708519e-21
-3.41350395e-21
8.933624091e-21
-4.257519177e-21
-3.065372684e-21
-1.178050536e-18
-9.534166673e-21
-1.173261713e-18
-1.606450277e-20
-1.161565667e-18
-2.945194869e-20
-1.139476801e-18
-5.168837315e-20
-1.10194915e-18
-8.617534909e-20
-1.042176104e-18
-1.375504552e-19
-9.513189399e-19
-2.11406186e-19
-8.185369748e-19
-3.135971794e-19
-6.31338895e-19
-4.486489989e-19
-3.759377653e-19
-6.164510505e-19
-3.629726836e-20
-8.060076232e-19
4.025535103e-19
-9.846693352e-19
7.109472915e-19
-1.082727355e-18
8.927024576e-19
-9.808134836e-19
1.392891973e-19
4.71058958e-33
6.803866736e-20
-3.012888701e-22
4.613729425e-20
4.336089731e-21
4.001270621e-20
3.076046553e-21
3.569165035e-20
6.559389217e-21
2.927481406e-20
1.173854289e-20
2.116867468e-20
1.524658929e-20
1.266596945e-20
1.624327408e-20
4.911797491e-21
1.499167977e-20
-1.160449737e-21
1.186566491e-20
-4.629219547e-21
7.029394326e-21
-4.738250314e-21
9.66525877e-22
-1.57248195e-21
-4.862421975e-21
3.270693284e-21
-8.249122917e-21
1.012577058e-20
-1.109026231e-20
-1.33184575e-20
-1.194717076e-18
-2.060721993e-20
-1.195606475e-18
-3.111114464e-20
-1.194562537e-18
-5.224803633e-20
-1.189636787e-18
-8.641935533e-20
-1.17789086e-18
-1.378992057e-19
-1.155209366e-18
-2.125614953e-19
-1.115902073e-18
-3.175445524e-19
-1.052361951e-18
-4.605628379e-19
-9.546806696e-19
-6.484798982e-19
-8.100393306e-19
-8.846060151e-19
-6.01268593e-19
-1.163988251e-18
-3.067697818e-19
-1.4654885e-18
-1.411320248e-20
-1.736420183e-18
2.550038635e-19
-1.826317049e-18
2.023315866e-19
-1.001425575e-18
7.267604604e-20
1.293402446e-19
4.487725111e-20
3.211650991e-20
4.349604891e-20
4.437389784e-21
4.087080408e-20
9.160183342e-21
3.278286047e-20
1.981567807e-20
2.216535949e-20
2.586109895e-20
1.141437517e-20
2.700244292e-20
1.785782616e-21
2.464114176e-20
-5.996720322e-21
1.967374098e-20
-1.0692088e-20
1.176065755e-20
-1.056719817e-20
8.623932802e-22
-4.959182892e-21
-1.047296842e-20
4.295538786e-22
-1.360160146e-20
7.897575419e-21
-1.853704766e-20
-5.553797955e-20
-1.222807973e-18
-2.20319211e-20
-1.23171476e-18
-3.382575648e-20
-1.245573276e-18
-5.74640104e-20
-1.26442128e-18
-9.5432431e-20
-1.288084225e-18
-1.52194084e-19
-1.316136299e-18
-2.338704653e-19
-1.347667295e-18
-3.478673214e-19
-1.381268565e-18
-5.021367015e-19
-1.415602025e-18
-7.035967033e-19
-1.451599929e-18
-9.54876031e-19
-1.498636779e-18
-1.247703173e-18
-1.589130263e-18
-1.549072036e-18
-1.778374972e-18
-1.770759136e-18
-1.882466207e-18
-1.695975265e-18
-1.718414116e-18
-7.431532647e-19
-8.789136654e-20
-7.556675168e-33
1.719813094e-20
-7.299398093e-20
4.821884247e-20
-2.660491419e-20
5.152629885e-20
5.855742142e-21
3.882828133e-20
3.248689159e-20
2.330670346e-20
4.138167012e-20
9.053074051e-21
4.127410887e-20
-3.18161821e-21
3.689828747e-20
-1.390980375e-20
3.043142743e-20
-2.159035228e-20
1.944640242e-20
-2.190255988e-20
1.197945686e-21
-8.087815937e-21
-2.425310153e-20
-4.505892348e-21
-1.715387788e-20
-1.2169558e-19
9.868776582e-20
-1.685646226e-19
-1.25440438e-18
-1.245453022e-20
-1.272059831e-18
-2.266295896e-20
-1.302105611e-18
-4.319578011e-20
-1.346634818e-18
-7.629950388e-20
-1.408313574e-18
-1.259265565e-19
-1.490453798e-18
-1.97425314e-19
-1.596783903e-18
-2.97179733e-19
-1.731161993e-18
-4.318890051e-19
-1.897098601e-18
-6.070439732e-19
-2.096624496e-18
-8.237636282e-19
-2.326676668e-18
-1.07264969e-18
-2.56688545e-18
-1.322453714e-18
-2.737574921e-18
-1.50213389e-18
-2.620638617e-18
-1.48328155e-18
-1.195462259e-18
-1.152622329e-18
-3.419799118e-20
-4.128471536e-19
6.358719765e-20
-1.707864785e-19
8.067949865e-20
-4.368244926e-20
7.815744822e-20
8.333006425e-21
4.772305974e-20
6.291198259e-20
2.319914218e-20
6.589473993e-20
4.677252696e-21
5.980687335e-20
-9.648478289e-21
5.124094319e-20
-2.489482871e-20
4.567055491e-20
-3.983880895e-20
3.446193807e-20
-4.735360703e-20
8.739705708e-21
-9.885922914e-22
-7.059917738e-20
1.113357513e-19
-1.294536527e-19
3.234442445e-19
-1.134057245e-19
5.090188076e-19
-1.280916992e-18
7.214688093e-21
-1.30637987e-18
1.109721831e-21
-1.350817667e-18
-1.141500631e-20
-1.418070813e-18
-3.210839129e-20
-1.513190542e-18
-6.383184212e-20
-1.642565789e-18
-1.103443232e-19
-1.813569561e-18
-1.76032685e-19
-2.033796223e-18
-2.654397646e-19
-2.309242872e-18
-3.822704703e-19
-2.640154482e-18
-5.275829324e-19
-3.011242871e-18
-6.968823974e-19
-3.369760329e-18
-8.769851154e-19
-3.579331021e-18
-1.046886131e-18
-3.358949526e-18
-1.195735354e-18
-2.433571983e-18
-1.384619373e-18
-3.514571473e-19
-1.770142221e-18
1.906912265e-19
-1.511969449e-18
1.326949544e-19
1.429324316e-20
1.327364246e-19
8.285644636e-21
5.070581705e-20
1.448975701e-19
1.711127564e-20
9.947318937e-20
-3.888677378e-21
8.081304908e-20
-1.521886666e-20
6.257117344e-20
-3.610344558e-20
6.662564588e-20
-6.556104136e-20
6.395298842e-20
-1.266924902e-19
6.988460438e-20
-5.98430676e-20
-1.374438652e-19
1.499143324e-20
-2.042881535e-19
-2.541311733e-19
8.470742473e-19
2.541311731e-19
-1.294742974e-18
3.410438503e-20
-1.325639714e-18
3.380047837e-20
-1.380051356e-18
3.25716872e-20
-1.462954808e-18
2.933421731e-20
-1.580962078e-18
2.267743262e-20
-1.742455959e-18
1.09612623e-20
-1.957213055e-18
-7.602594941e-21
-2.235443598e-18
-3.480653056e-20
-2.585796082e-18
-7.21884231e-20
-3.011501882e-18
-1.205727105e-19
-3.503838791e-18
-1.795717611e-19
-4.032655693e-18
-2.478624867e-19
-4.537144016e-18
-3.269167058e-19
-4.9303064e-18
-4.337690721e-19
-5.098087202e-18
-6.278407111e-19
-4.899301464e-18
-1.005690297e-18
-2.841591503e-18
-1.320067506e-18
5.548286123e-32
-4.149336865e-19
2.202997809e-19
-5.738827918e-19
5.281436083e-21
3.599001792e-19
-1.548864652e-21
1.063070423e-19
-2.213055294e-20
1.014085543e-19
-1.116439431e-20
5.163550275e-20
-3.877610304e-20
9.426327994e-20
-5.96294253e-20
8.481224603e-20
-2.849723905e-19
2.952275696e-19
-6.819471556e-32
-1.05767063e-18
-6.712251327e-19
-1.13944101e-19
-5.205343432e-19
5.928266151e-19
-3.57866125e-33
-1.290675227e-18
6.405395898e-20
-1.323697936e-18
7.011182964e-20
-1.381940686e-18
8.125552746e-20
-1.470731344e-18
9.71042214e-20
-1.597157076e-18
1.178065606e-19
-1.77024067e-18
1.440091961e-19
-2.000564502e-18
1.767387581e-19
-2.299354942e-18
2.172009525e-19
-2.676643106e-18
2.6633509e-19
-3.138270144e-18
3.241775877e-19
-3.682381343e-18
3.891004889e-19
-4.298872055e-18
4.57921719e-19
-4.981849578e-18
5.294702041e-19
-5.773856019e-18
6.17489289e-19
-6.831147262e-18
7.778085862e-19
-8.456279801e-18
1.101143437e-18
-1.044539473e-17
1.352603843e-18
-1.023296136e-17
4.008897916e-19
-8.380737424e-18
5.857319514e-19
-4.873913004e-19
-3.598596225e-19
-2.747755051e-19
-1.062969677e-19
-7.190360433e-20
-1.014486827e-19
3.146338275e-20
-5.17193645e-20
2.201010157e-19
-9.438049397e-20
3.89865498e-19
-8.49532663e-20
5.387542731e-18
-2.953463945e-19
2.309226971e-18
1.153848026e-18
1.005292453e-18
2.673296826e-19
8.731399132e-19
-7.32488771e-19
2.721840392e-33
-1.266838111e-18
9.249960909e-20
-1.298392775e-18
1.042442912e-19
-1.353794494e-18
1.264366648e-19
-1.437863174e-18
1.592857622e-19
-1.556982696e-18
2.043467589e-19
-1.719324573e-18
2.643224852e-19
-1.934466813e-18
3.428548444e-19
-2.212549105e-18
4.439339382e-19
-2.562247195e-18
5.708055728e-19
-2.987000225e-18
7.238560697e-19
-3.478365779e-18
8.974846148e-19
-4.006539648e-18
1.076554687e-18
-4.510812783e-18
1.237179999e-18
-4.903521061e-18
1.36482785e-18
-5.069773054e-18
1.516781917e-18
-4.885258663e-18
1.851688249e-18
-2.818418432e-18
1.51435671e-18
5.418916761e-32
-1.411125438e-20
2.203403376e-19
-8.070191544e-21
5.250953948e-21
-1.447822853e-19
-1.599067615e-21
-9.944132389e-20
-2.21742863e-20
-8.086327775e-20
-1.11977466e-20
-6.26929528e-20
-3.879990929e-20
-6.677925324e-20
-5.96072299e-20
-6.412637703e-20
-2.848535657e-19
-7.008708696e-20
-6.873887626e-32
1.371876426e-19
-6.029570928e-19
2.041126043e-19
-4.874238648e-19
-8.086472922e-19
-2.543026348e-19
-1.224970347e-18
-1.25187851e-18
-1.298538288e-18
-1.368427078e-18
-1.466157955e-18
-1.597618835e-18
-1.769784785e-18
-1.990015901e-18
-2.264409666e-18
-2.593616788e-18
-2.963156937e-18
-3.321155386e-18
-3.531594387e-18
-3.312951008e-18
-2.396270703e-18
-3.145940323e-19
1.908732153e-19
1.327284187e-19
1.32676813e-19
5.05919156e-20
1.697897853e-20
-4.003961425e-21
-1.528404695e-20
-3.614703308e-20
-6.556793994e-20
-1.266274054e-19
-5.976239416e-20
1.516698245e-20
-2.54302635e-19
)
;

boundaryField
{
    lowerWall
    {
        type            calculated;
        value           nonuniform 0();
    }
    atmosphere
    {
        type            calculated;
        value           nonuniform List<scalar> 
20
(
1.024652358e-18
1.180336026e-18
1.289016406e-18
1.351384494e-18
1.372148836e-18
1.359591038e-18
1.324532787e-18
1.278882845e-18
1.233991459e-18
1.19909878e-18
1.180139739e-18
1.179105456e-18
1.194039318e-18
1.219669253e-18
1.248572047e-18
1.27267575e-18
1.284818328e-18
1.28008601e-18
1.256688951e-18
1.216229206e-18
)
;
    }
    rightWall
    {
        type            empty;
        value           nonuniform 0();
    }
    leftWall
    {
        type            empty;
        value           nonuniform 0();
    }
    frontAndBack
    {
        type            calculated;
        value           nonuniform 0();
    }
    procBoundary2to0
    {
        type            processor;
        value           nonuniform List<scalar> 
30
(
4.252049998e-19
4.812056972e-19
5.809775904e-19
7.147053615e-19
8.756428028e-19
1.059253988e-18
1.262052892e-18
1.480217926e-18
1.707835141e-18
1.934042848e-18
2.137965492e-18
2.27941357e-18
2.284100113e-18
2.03173476e-18
1.437866075e-18
4.558161588e-19
1.667459026e-19
3.892081507e-20
-1.436419971e-20
-6.910792615e-20
-7.198297533e-20
-6.568214801e-20
-5.677554234e-20
-5.072289415e-20
-3.887277421e-20
-1.247551138e-20
6.755538816e-20
1.275548129e-19
1.123400826e-19
-5.088032848e-19
)
;
    }
    procBoundary2to3
    {
        type            processor;
        value           nonuniform List<scalar> 
20
(
2.202527666e-21
1.966099217e-19
1.616186893e-19
1.966277873e-19
1.937773564e-21
-3.53426133e-19
-8.230456594e-21
5.038435989e-20
2.052675079e-20
1.256962923e-20
1.252598012e-20
2.039093339e-20
5.013381437e-20
-8.655242373e-21
-3.541321038e-19
7.573050877e-22
1.948465285e-19
1.599680525e-19
1.947543037e-19
6.689207349e-22
)
;
    }
    procBoundary2to4
    {
        type            processor;
        value           nonuniform List<scalar> 
30
(
1.154397663e-19
1.311051782e-19
1.608510768e-19
2.05277616e-19
2.668703037e-19
3.498393669e-19
4.59779965e-19
6.029728967e-19
7.84669055e-19
1.005705495e-18
1.255863233e-18
1.502077246e-18
1.669830125e-18
1.625488882e-18
1.249838474e-18
4.417051353e-19
1.710770819e-19
4.399323133e-20
-8.048951359e-21
-6.271316209e-20
-6.582992988e-20
-5.987237828e-20
-5.140747482e-20
-4.59040531e-20
-3.469600655e-20
-8.967477061e-21
7.035234299e-20
1.291891611e-19
1.13014296e-19
-5.093035228e-19
)
;
    }
}


// ************************************************************************* //
