/*--------------------------------*- C++ -*----------------------------------*\
  =========                 |
  \\      /  F ield         | OpenFOAM: The Open Source CFD Toolbox
   \\    /   O peration     | Website:  https://openfoam.org
    \\  /    A nd           | Version:  6
     \\/     M anipulation  |
\*---------------------------------------------------------------------------*/
FoamFile
{
    version     2.0;
    format      ascii;
    class       volScalarField;
    location    "0.0049";
    object      TRHS;
}
// * * * * * * * * * * * * * * * * * * * * * * * * * * * * * * * * * * * * * //

dimensions      [1 -1 -3 0 0 0 0];

internalField   nonuniform List<scalar> 
600
(
1.002583655e-08
4.697428128e-09
1.238573978e-09
-1.075872189e-09
-2.503149091e-09
-3.077436182e-09
-2.560947024e-09
-4.417189439e-10
4.167828614e-09
1.272885357e-08
2.776279793e-08
5.372334503e-08
9.811248766e-08
1.671441806e-07
2.228901601e-07
2.335882298e-07
-1.663282034e-07
21.92721345
18.22874913
0
0
0
0
0
0
0
-0.005972238653
20.34657071
-5.117054594e-05
-2.519401748e-10
1.299417068e-08
7.040213583e-09
3.017344909e-09
2.697054537e-10
-1.408444625e-09
-2.024721566e-09
-1.30864431e-09
1.303347999e-09
6.743864537e-09
1.636917938e-08
3.201725853e-08
5.580348741e-08
8.942692243e-08
1.319994647e-07
1.894381056e-07
2.833493015e-07
5.810548064e-07
-5.470336316e-05
-4.60463097e-05
441.0458492
132.9583696
126.7899674
66.44120738
117.6990121
105.8928943
360.0707085
-1.78984982e-07
-1.465978168e-07
-1.325651183e-08
7.089362866e-08
1.40994937e-08
8.017352338e-09
3.804906363e-09
8.542653737e-10
-1.003537338e-09
-1.753405101e-09
-1.121233814e-09
1.460019438e-09
6.880387894e-09
1.633930991e-08
3.113822953e-08
5.20521964e-08
7.797811578e-08
1.04372047e-07
1.304851436e-07
1.660049114e-07
2.116465226e-07
2.614507571e-07
7.144364766e-07
-0.002211536262
-0.0006554113317
-0.0006224748264
-0.0003180323844
-0.0005775872143
-0.0005205318966
-0.001805470108
-1.80165325e-07
-2.061549815e-07
-3.095721407e-07
-1.959652084e-07
1.355301086e-08
7.788805788e-09
3.69838408e-09
7.241765204e-10
-1.26571923e-09
-2.251101333e-09
-1.968032873e-09
1.284159202e-10
4.937317611e-09
1.378275453e-08
2.846246132e-08
5.109061928e-08
8.336082218e-08
1.245061766e-07
1.801795919e-07
2.701474511e-07
5.633253058e-07
-4.390183285e-05
-2.758751885e-05
436.8921333
127.0402084
120.1428564
59.72073683
111.4271103
100.5996502
356.5225472
-2.268454069e-07
-1.620060305e-07
-2.533991772e-08
6.349794039e-08
1.16510121e-08
6.580183922e-09
2.857301928e-09
-1.057718252e-12
-2.095366298e-09
-3.411759524e-09
-3.734027856e-09
-2.597536577e-09
8.129886798e-10
7.881218373e-09
2.105155206e-08
4.471979087e-08
8.634627434e-08
1.522921667e-07
2.0456244e-07
2.130471011e-07
-1.872557698e-07
17.63588928
10.89959331
0
0
0
0
0
0
0
-0.006186229415
17.08496159
-4.295196776e-05
-2.154444654e-10
8.79401931e-09
4.679289362e-09
1.494599794e-09
-1.15194177e-09
-3.328246332e-09
-5.041008466e-09
-6.159873191e-09
-6.404774813e-09
-5.310556874e-09
-2.107138405e-09
4.734791808e-09
1.88642051e-08
5.010778407e-08
1.112860927e-07
2.828359571e-07
-0.0001045683907
41.55317049
0
0
0
0
0
0
0
0
0
0
0
391.8050893
-0.002065114083
5.456240823e-09
2.418790424e-09
-1.46163091e-10
-2.528308813e-09
-4.76118809e-09
-6.870049864e-09
-8.808908944e-09
-1.049173976e-08
-1.1880093e-08
-1.322360577e-08
-1.553749817e-08
-2.119473752e-08
-2.740244792e-08
3.357319325e-08
1.191264798e-07
-0.000662750752
106.5547472
0
0
0
0
0
0
0
0
0
0
0
-0.005417580673
-2.511078054e-05
2.136704083e-09
1.413095862e-10
-1.81752998e-09
-3.931666792e-09
-6.200796686e-09
-8.655806697e-09
-1.129076463e-08
-1.406766744e-08
-1.693249903e-08
-1.988298932e-08
-2.313163317e-08
-2.796628556e-08
-6.181659067e-08
-9.959562524e-08
-2.499582158e-07
156.4892919
0
0
0
0
0
0
0
0
0
0
0
0
0
-0.002528705261
-7.080552644e-10
-1.842205313e-09
-3.297121862e-09
-5.188685953e-09
-7.494353478e-09
-1.026194513e-08
-1.354361271e-08
-1.740340776e-08
-2.190444185e-08
-2.706484495e-08
-3.273766422e-08
-4.056496419e-08
-1.1100158e-07
-1.989053008e-07
-1.730992941e-07
-0.006212997051
0
0
0
0
0
0
0
0
0
0
0
0
0
0
-2.72330629e-09
-3.288861896e-09
-4.40819185e-09
-6.15293275e-09
-8.493957224e-09
-1.150514467e-08
-1.532754548e-08
-2.024155967e-08
-2.682126479e-08
-3.619833499e-08
-5.031181791e-08
-7.051216408e-08
-6.855787098e-08
-8.153540152e-08
-0.0001753664105
69.5680886
0
0
0
0
0
0
0
0
0
0
0
0
0
0
-3.706882285e-09
-4.056827857e-09
-5.042015085e-09
-6.723767712e-09
-9.068223029e-09
-1.21469892e-08
-1.61010879e-08
-2.121896761e-08
-2.809018989e-08
-3.788233889e-08
-5.256932964e-08
-7.359551238e-08
-7.267856638e-08
-8.742747094e-08
-0.0001752986913
69.53973364
0
0
0
0
0
0
0
0
0
0
0
0
0
0
-3.63115204e-09
-4.122075209e-09
-5.177689466e-09
-6.881828315e-09
-9.198651422e-09
-1.216656955e-08
-1.584006341e-08
-2.030089308e-08
-2.56602733e-08
-3.201995487e-08
-3.937970444e-08
-4.955339193e-08
-1.231737822e-07
-2.167444274e-07
-1.853424804e-07
-0.006215769986
0
0
0
0
0
0
0
0
0
0
0
0
0
0
-2.64271649e-09
-3.577561415e-09
-4.880704369e-09
-6.689938839e-09
-8.980302308e-09
-1.176653916e-08
-1.504332284e-08
-1.879861549e-08
-2.304082313e-08
-2.788409818e-08
-3.370774435e-08
-4.210341428e-08
-8.14622312e-08
-1.299877466e-07
-2.601113184e-07
156.406716
0
0
0
0
0
0
0
0
0
0
0
0
0
-0.00247837817
-1.02803498e-09
-2.608506107e-09
-4.279465545e-09
-6.253408702e-09
-8.52649416e-09
-1.109923297e-08
-1.392394914e-08
-1.694266534e-08
-2.018357106e-08
-2.400330477e-08
-2.955284087e-08
-3.934366753e-08
-5.052267184e-08
5.659546663e-09
9.479224399e-08
-0.0006618983329
106.2901468
0
0
0
0
0
0
0
0
0
0
0
-0.005430656131
-2.640565848e-05
8.377927045e-10
-1.457226754e-09
-3.539714963e-09
-5.700495274e-09
-7.954951237e-09
-1.027572921e-08
-1.252771006e-08
-1.445880053e-08
-1.566958694e-08
-1.548643231e-08
-1.250765173e-08
-3.231645315e-09
2.182333933e-08
7.392240414e-08
2.282509056e-07
-0.0001040851953
41.34922237
0
0
0
0
0
0
0
0
0
0
0
391.1475364
-0.002065608438
2.562775823e-09
-3.794548541e-10
-2.8397406e-09
-5.177004762e-09
-7.41950983e-09
-9.511870217e-09
-1.122715667e-08
-1.213053586e-08
-1.146058484e-08
-7.90819932e-09
9.206040828e-10
1.939313616e-08
5.507190512e-08
1.140531661e-07
1.55769779e-07
1.628622748e-07
-2.205509916e-07
17.2768163
10.02012392
0
0
0
0
0
0
0
-0.006133422172
18.12055558
-4.555872615e-05
-8.500694533e-11
3.805753993e-09
4.0236592e-10
-2.339073375e-09
-4.817864542e-09
-7.076769975e-09
-9.038673412e-09
-1.043348323e-08
-1.074039361e-08
-9.120139767e-09
-4.299982608e-09
5.488042797e-09
2.240054064e-08
4.828304135e-08
8.275974216e-08
1.32299703e-07
2.165263438e-07
5.06002779e-07
-4.30305941e-05
-2.536519908e-05
435.2302211
128.5608766
122.6369614
62.44464494
113.9959277
102.5664572
357.0164545
-1.907992974e-07
-1.537062801e-07
-2.32236645e-08
8.187170622e-08
4.343259334e-09
7.377256652e-10
-2.144702652e-09
-4.718923359e-09
-7.031230769e-09
-9.003843971e-09
-1.035526915e-08
-1.055629619e-08
-8.78030776e-09
-3.889511892e-09
5.396735682e-09
1.992486605e-08
3.881988063e-08
5.811492084e-08
7.816211455e-08
1.081869915e-07
1.536512028e-07
2.312768809e-07
6.776357637e-07
-0.002192591707
-0.0006481286377
-0.0006184153561
-0.0003150798948
-0.000575085263
-0.0005175344094
-0.001799388164
-1.941360932e-07
-2.076529158e-07
-3.283913544e-07
-1.784364816e-07
4.104127926e-09
5.782558213e-10
-2.29279891e-09
-4.912761027e-09
-7.318369265e-09
-9.45044598e-09
-1.103800586e-08
-1.158143226e-08
-1.02320966e-08
-5.7317217e-09
3.70167364e-09
2.018852177e-08
4.55764177e-08
7.957400553e-08
1.28640899e-07
2.101899169e-07
5.012773488e-07
-4.247780882e-05
-2.471099773e-05
435.1811727
128.5486931
122.6854901
62.54606192
114.1376788
102.736998
357.160159
-2.12157029e-07
-1.727174692e-07
8.337007344e-09
7.449357002e-08
3.183952103e-09
-1.061503277e-11
-2.74641738e-09
-5.362699432e-09
-7.907032423e-09
-1.032839008e-08
-1.24329474e-08
-1.379249748e-08
-1.367162197e-08
-1.074219667e-08
-2.636484813e-09
1.502887134e-08
4.979861736e-08
1.076192899e-07
1.459564539e-07
1.509169747e-07
-2.293261124e-07
17.05672269
9.759568854
0
0
0
0
0
0
0
-0.006121988256
18.3328613
-4.610270935e-05
-8.18533442e-11
)
;

boundaryField
{
    lowerWall
    {
        type            calculated;
        value           nonuniform 0();
    }
    atmosphere
    {
        type            calculated;
        value           nonuniform List<scalar> 
20
(
1.002583655e-08
1.299417068e-08
1.40994937e-08
1.355301086e-08
1.16510121e-08
8.79401931e-09
5.456240823e-09
2.136704083e-09
-7.080552644e-10
-2.72330629e-09
-3.706882285e-09
-3.63115204e-09
-2.64271649e-09
-1.02803498e-09
8.377927045e-10
2.562775823e-09
3.805753993e-09
4.343259334e-09
4.104127926e-09
3.183952103e-09
)
;
    }
    rightWall
    {
        type            empty;
    }
    leftWall
    {
        type            empty;
    }
    frontAndBack
    {
        type            calculated;
        value           nonuniform 0();
    }
    procBoundary2to0
    {
        type            processor;
        value           nonuniform List<scalar> 
30
(
4.988793631e-09
8.602438376e-10
-1.561081858e-09
-3.146201196e-09
-4.219150261e-09
-4.815831573e-09
-4.757424994e-09
-3.662148256e-09
-9.544749095e-10
4.266820721e-09
1.36515905e-08
3.099413912e-08
6.622649387e-08
1.315850671e-07
3.09215781e-07
-0.0001163507513
46.23581439
0
0
0
0
0
0
0
0
0
0
0
393.7128196
-0.002066295491
)
;
    }
    procBoundary2to3
    {
        type            processor;
        value           nonuniform List<scalar> 
20
(
-9.828763159e-05
-0.008773702983
-0.007212221876
-0.008774500233
-8.647299967e-05
427.410757
9.95338304
0
0
0
0
0
0
10.46709155
428.2645126
-3.379468263e-05
-0.008695011692
-0.007138562331
-0.008690896168
-2.985053753e-05
)
;
    }
    procBoundary2to4
    {
        type            processor;
        value           nonuniform List<scalar> 
30
(
1.832564872e-09
-8.799775669e-10
-3.392354901e-09
-5.987941643e-09
-8.690376535e-09
-1.15028145e-08
-1.431754492e-08
-1.692538629e-08
-1.89379166e-08
-1.969719577e-08
-1.779771028e-08
-9.795603e-09
1.374127549e-08
6.41462096e-08
2.153234923e-07
-0.0001032098758
40.9977723
0
0
0
0
0
0
0
0
0
0
0
391.0692514
-0.002065449672
)
;
    }
}


// ************************************************************************* //
