/*--------------------------------*- C++ -*----------------------------------*\
  =========                 |
  \\      /  F ield         | OpenFOAM: The Open Source CFD Toolbox
   \\    /   O peration     | Website:  https://openfoam.org
    \\  /    A nd           | Version:  6
     \\/     M anipulation  |
\*---------------------------------------------------------------------------*/
FoamFile
{
    version     2.0;
    format      ascii;
    class       volScalarField;
    location    "0.0049";
    object      ViscousDissipation;
}
// * * * * * * * * * * * * * * * * * * * * * * * * * * * * * * * * * * * * * //

dimensions      [1 -1 -3 0 0 0 0];

internalField   nonuniform List<scalar> 
600
(
3.574438142e-19
5.973749058e-19
9.372867861e-19
1.421790249e-18
2.117052636e-18
3.107904196e-18
4.491344736e-18
6.354045554e-18
8.715654876e-18
1.1400628e-17
1.37804237e-17
1.441407641e-17
1.140410741e-17
8.13804984e-18
3.755674198e-17
9.950611261e-17
7.399631541e-17
2.261041983e-17
1.137739427e-16
4.012742193e-16
7.867314288e-17
3.1115964e-17
1.002791916e-17
2.281885123e-17
5.143572361e-17
5.013065155e-16
4.09153908e-16
1.167376957e-17
5.980726486e-18
5.772200898e-20
2.43541229e-19
4.188103662e-19
6.954844751e-19
1.122144396e-18
1.770647743e-18
2.736932129e-18
4.137771268e-18
6.090848274e-18
8.662696723e-18
1.176216286e-17
1.49740555e-17
1.744318859e-17
1.834482923e-17
1.983693357e-17
3.687868178e-17
1.262003872e-16
2.347539973e-16
2.334049496e-16
4.15012248e-16
3.508944712e-16
1.301371505e-15
2.144432839e-16
2.649722982e-17
1.257073431e-16
8.787138787e-16
1.436770233e-16
1.31171263e-16
3.572793518e-17
6.337743189e-18
7.872253246e-18
1.541533001e-19
2.770462474e-19
4.938962406e-19
8.535649265e-19
1.4297511e-18
2.324516337e-18
3.668348901e-18
5.604636756e-18
8.244547342e-18
1.157834784e-17
1.536328477e-17
1.913685863e-17
2.277201245e-17
2.834504382e-17
4.458602159e-17
9.725792209e-17
1.37018594e-16
8.684807996e-17
3.675379904e-16
5.44169376e-16
1.826591654e-19
6.2358191e-19
3.903200249e-19
4.996646825e-19
1.030795303e-19
1.664264162e-16
3.00804815e-17
1.707129702e-16
3.579245533e-17
3.903746896e-18
9.30945301e-20
1.784813312e-19
3.44537965e-19
6.37075144e-19
1.127204039e-18
1.916990535e-18
3.14240839e-18
4.961086794e-18
7.506689175e-18
1.07825661e-17
1.448501912e-17
1.787838626e-17
2.028826473e-17
2.405166339e-17
4.359915645e-17
1.33731886e-16
2.32422585e-16
2.28482774e-16
4.152013569e-16
3.558224833e-16
1.314240483e-15
2.152005406e-16
2.586927747e-17
1.279706141e-16
8.921381701e-16
1.478252457e-16
1.303918107e-16
3.432307506e-17
6.294595077e-18
7.470764957e-18
5.782640678e-20
1.19222815e-19
2.450436269e-19
4.757869472e-19
8.76350787e-19
1.543476978e-18
2.611724386e-18
4.245728972e-18
6.595124165e-18
9.660540469e-18
1.298774657e-17
1.518903957e-17
1.408360186e-17
1.205167499e-17
3.931088923e-17
9.8138815e-17
7.431180462e-17
2.331147669e-17
1.106805732e-16
4.091967357e-16
8.264785792e-17
3.314081789e-17
1.073574563e-17
2.414112741e-17
5.284892551e-17
5.020292614e-16
4.00977447e-16
1.009837305e-17
5.477429851e-18
5.830573616e-20
4.052549095e-20
8.719469943e-20
1.819141153e-19
3.587554278e-19
6.741858257e-19
1.215993006e-18
2.112772821e-18
3.534683621e-18
5.664197497e-18
8.580212333e-18
1.192177211e-17
1.412384036e-17
1.154906399e-17
3.68397475e-18
3.444614709e-17
3.123553485e-17
1.14589842e-16
2.566016725e-16
9.418460761e-17
8.425904403e-17
3.296326721e-17
1.992880844e-17
1.329159987e-17
1.652216843e-17
2.732581947e-17
8.650795959e-17
2.029781961e-16
5.604978959e-16
2.173774157e-16
1.678811276e-18
3.183518751e-20
6.810242819e-20
1.382215008e-19
2.69727404e-19
5.099148748e-19
9.356380589e-19
1.665623861e-18
2.870412086e-18
4.769666198e-18
7.592311671e-18
1.144104267e-17
1.593978221e-17
1.932157664e-17
2.259619123e-17
2.581679493e-17
2.920200041e-17
2.2383094e-16
7.047618274e-17
1.976524239e-17
1.857940098e-17
1.402907914e-17
1.118189447e-17
9.280762699e-18
9.434626553e-18
1.121421791e-17
1.515001317e-17
1.631785479e-17
8.756429141e-17
7.055533873e-17
1.634707329e-19
2.48075029e-20
5.162003719e-20
1.015480498e-19
1.962811766e-19
3.74552594e-19
7.020196892e-19
1.284077722e-18
2.277950678e-18
3.897283867e-18
6.404000057e-18
1.010311371e-17
1.529772389e-17
2.189836531e-17
1.662262887e-17
1.144010271e-17
1.393705362e-16
1.41968296e-16
4.266651693e-18
2.352096098e-18
5.743291962e-18
6.610839585e-18
6.318030737e-18
5.545973323e-18
4.827365895e-18
4.280102012e-18
4.040510051e-18
3.819826711e-18
2.357935273e-18
5.198702018e-17
8.040239034e-17
1.691840958e-20
3.446366527e-20
6.800462915e-20
1.346292847e-19
2.662248224e-19
5.190256554e-19
9.85168672e-19
1.799517359e-18
3.123762202e-18
5.078056037e-18
7.631983099e-18
1.060348423e-17
1.63014849e-17
7.870857372e-18
5.119288842e-18
1.499116381e-16
4.783517324e-17
4.354355863e-18
2.02846159e-18
2.848933068e-18
3.742648509e-18
3.955367363e-18
3.440754825e-18
2.508248536e-18
1.547681771e-18
1.033150191e-18
1.197789791e-18
1.571987958e-18
2.685917268e-18
1.268398302e-17
9.373735842e-21
1.914387965e-20
4.075808466e-20
8.819971727e-20
1.888008028e-19
3.925840014e-19
7.827623811e-19
1.476914216e-18
2.585332843e-18
4.050128408e-18
5.279279134e-18
4.938479906e-18
3.455598081e-18
6.216151836e-18
5.247399178e-20
1.000235391e-16
3.829876944e-17
2.12726364e-18
4.849997708e-19
1.525979667e-18
2.614780906e-18
3.002535251e-18
2.56417538e-18
1.59303636e-18
5.886450064e-19
1.044887395e-19
3.571685474e-19
9.011412555e-19
1.291653549e-18
1.157415057e-18
4.60107176e-21
9.861812298e-21
2.492751917e-20
6.217543853e-20
1.467218508e-19
3.259847515e-19
6.810820334e-19
1.33054469e-18
2.394352247e-18
3.842770044e-18
5.135104735e-18
4.95832405e-18
3.47402583e-18
4.763551179e-18
1.945660321e-20
1.00227952e-16
3.845222519e-17
2.180714062e-18
5.084985349e-19
1.539704117e-18
2.623454351e-18
3.007517285e-18
2.565493276e-18
1.590339554e-18
5.824237339e-19
9.713282224e-20
3.505144795e-19
8.952051378e-19
1.282884461e-18
1.133928042e-18
3.756045589e-21
8.496482138e-21
2.257224498e-20
5.811575702e-20
1.400870772e-19
3.162884787e-19
6.709817014e-19
1.337437081e-18
2.493853386e-18
4.312547984e-18
6.853212283e-18
9.951333128e-18
1.52689262e-17
6.824425303e-18
5.303550243e-18
1.499651545e-16
4.789154548e-17
4.386871157e-18
2.068154205e-18
2.88718922e-18
3.771313126e-18
3.97327217e-18
3.447404915e-18
2.502074973e-18
1.529731025e-18
1.009111257e-18
1.174605674e-18
1.547508684e-18
2.651795061e-18
1.255378938e-17
5.773121436e-21
1.311144753e-20
3.078647917e-20
7.183989818e-20
1.627417018e-19
3.536702511e-19
7.336075729e-19
1.448698362e-18
2.718416912e-18
4.842415389e-18
8.202395132e-18
1.319162435e-17
1.97071497e-17
1.529175171e-17
9.898394188e-18
1.391525795e-16
1.415354203e-16
4.206849035e-18
2.419400314e-18
5.823080121e-18
6.672001872e-18
6.361118999e-18
5.571146428e-18
4.830400288e-18
4.256971552e-18
3.996584052e-18
3.760897488e-18
2.301107472e-18
5.220193024e-17
8.022771344e-17
8.305665862e-21
1.95121259e-20
4.358499866e-20
9.533273201e-20
2.039294437e-19
4.231056962e-19
8.461290822e-19
1.623309009e-18
2.9736825e-18
5.16770509e-18
8.426592084e-18
1.264318294e-17
1.66765685e-17
2.306274352e-17
1.831350695e-17
2.531387447e-17
2.242290567e-16
7.091719055e-17
2.009155031e-17
1.877305699e-17
1.415161085e-17
1.127650473e-17
9.361277465e-18
9.496231075e-18
1.122739416e-17
1.507423283e-17
1.617805131e-17
8.784331199e-17
7.076279992e-17
1.637808376e-19
9.615558462e-21
2.435673954e-20
5.580360322e-20
1.209660042e-19
2.522646781e-19
5.073148085e-19
9.825526053e-19
1.825542157e-18
3.229108526e-18
5.356462107e-18
8.06763424e-18
1.021843098e-17
8.676848734e-18
2.287323193e-18
2.598770697e-17
2.37300657e-17
1.148749314e-16
2.57071399e-16
9.473824739e-17
8.444770509e-17
3.309443838e-17
2.010898588e-17
1.35080673e-17
1.677674028e-17
2.751227617e-17
8.640946499e-17
2.024856843e-16
5.596612277e-16
2.183881722e-16
1.681556597e-18
9.900266578e-21
2.738118856e-20
6.598182289e-20
1.448463052e-19
2.9944526e-19
5.908836676e-19
1.118200196e-18
2.0266351e-18
3.493015758e-18
5.639186817e-18
8.278087974e-18
1.042184692e-17
1.011045504e-17
8.60636026e-18
3.146298593e-17
7.517393486e-17
6.231983474e-17
2.345121934e-17
1.101277907e-16
4.073544067e-16
8.181049209e-17
3.336508175e-17
1.106129017e-17
2.482934523e-17
5.338395139e-17
5.013066444e-16
4.015297572e-16
1.066279057e-17
6.141210303e-18
5.775384601e-20
1.104255875e-20
3.108057912e-20
7.608424617e-20
1.66764912e-19
3.407096875e-19
6.613878171e-19
1.229847069e-18
2.192154863e-18
3.727161751e-18
5.983405077e-18
8.929888489e-18
1.21728036e-17
1.519149451e-17
1.980624111e-17
3.907684741e-17
1.255481683e-16
2.00041498e-16
2.10444066e-16
4.000426675e-16
3.465604889e-16
1.292490961e-15
2.110631818e-16
2.499979148e-17
1.265903107e-16
8.847902457e-16
1.454065432e-16
1.281060606e-16
3.479124443e-17
5.358968913e-18
8.695573302e-18
1.497701846e-20
3.814757438e-20
8.841486607e-20
1.870667673e-19
3.722690344e-19
7.078977794e-19
1.295181073e-18
2.280406563e-18
3.845736255e-18
6.16088322e-18
9.286953526e-18
1.312774063e-17
1.781998564e-17
2.552463967e-17
4.537785972e-17
1.040265936e-16
1.439381669e-16
9.595164616e-17
3.455224151e-16
5.236852318e-16
1.77152374e-19
6.122936708e-19
3.841367088e-19
4.933314542e-19
1.009975384e-19
1.626364495e-16
2.834495768e-17
1.732235582e-16
3.306136948e-17
3.102633168e-18
2.188766307e-20
4.862848228e-20
1.021784587e-19
2.031947669e-19
3.885891487e-19
7.203383966e-19
1.297300668e-18
2.26287781e-18
3.793201416e-18
6.03396351e-18
8.950542435e-18
1.214180613e-17
1.50661028e-17
1.946678576e-17
3.813757812e-17
1.231968396e-16
1.967072546e-16
2.087847513e-16
4.000241217e-16
3.462066223e-16
1.291565432e-15
2.106952014e-16
2.500849214e-17
1.267474006e-16
8.84803299e-16
1.453304118e-16
1.276952027e-16
3.3050072e-17
5.348040888e-18
7.892088914e-18
2.958045533e-20
5.894777249e-20
1.124001991e-19
2.087999877e-19
3.821618685e-19
6.907891725e-19
1.229864725e-18
2.140580724e-18
3.596088455e-18
5.714352751e-18
8.300387012e-18
1.034956595e-17
9.886490384e-18
8.231178653e-18
3.147642166e-17
7.367551328e-17
6.021758105e-17
2.354784731e-17
1.104799214e-16
4.082888834e-16
8.169461845e-17
3.318550238e-17
1.095959345e-17
2.470046639e-17
5.321486848e-17
5.008308896e-16
4.016345636e-16
1.076302836e-17
5.894044869e-18
5.778604474e-20
)
;

boundaryField
{
    lowerWall
    {
        type            calculated;
        value           nonuniform 0();
    }
    atmosphere
    {
        type            calculated;
        value           nonuniform List<scalar> 
20
(
2.796428162e-19
1.969433415e-19
1.296599195e-19
8.105869338e-20
5.03533294e-20
3.317365044e-20
2.376685965e-20
1.743108543e-20
1.190437175e-20
7.177464189e-21
4.186301003e-21
3.409121826e-21
4.265410767e-21
5.554818288e-21
6.434037887e-21
7.098599304e-21
8.606995884e-21
1.195213151e-20
1.706137647e-20
2.247041747e-20
)
;
    }
    rightWall
    {
        type            empty;
    }
    leftWall
    {
        type            empty;
    }
    frontAndBack
    {
        type            calculated;
        value           nonuniform 0();
    }
    procBoundary2to0
    {
        type            processor;
        value           nonuniform List<scalar> 
30
(
4.892666933e-19
7.997368995e-19
1.195784518e-18
1.716317742e-18
2.420562392e-18
3.379531681e-18
4.667648888e-18
6.343827388e-18
8.40893751e-18
1.070823309e-17
1.269658431e-17
1.294235752e-17
8.769357712e-18
2.096661273e-18
4.109846952e-17
3.378476884e-17
1.20823716e-16
2.659533667e-16
9.839569195e-17
8.244103316e-17
3.00185676e-17
1.764320684e-17
1.190038348e-17
1.56417746e-17
2.77579789e-17
8.986399774e-17
2.067169158e-16
5.563406155e-16
2.133259355e-16
1.686080287e-18
)
;
    }
    procBoundary2to3
    {
        type            processor;
        value           nonuniform List<scalar> 
20
(
1.435056316e-16
1.860922253e-16
2.418357159e-16
1.863852562e-16
1.417982993e-16
4.899696499e-16
1.062582801e-16
3.404919444e-17
1.392487135e-17
1.468325068e-18
1.447623802e-18
1.383512301e-17
3.403067464e-17
1.069677908e-16
4.919882178e-16
1.437198117e-16
1.84909449e-16
2.396791533e-16
1.846538006e-16
1.441246421e-16
)
;
    }
    procBoundary2to4
    {
        type            processor;
        value           nonuniform List<scalar> 
30
(
3.455064938e-20
6.365610611e-20
1.122468894e-19
1.965099109e-19
3.465786636e-19
6.16321991e-19
1.09801014e-18
1.936406884e-18
3.324290952e-18
5.424849651e-18
8.087487902e-18
1.013251972e-17
8.403988726e-18
1.945980924e-18
2.631710385e-17
2.391629843e-17
1.139550637e-16
2.566741968e-16
9.511959694e-17
8.514787487e-17
3.317724104e-17
1.993753527e-17
1.331026027e-17
1.659779309e-17
2.742735891e-17
8.645528476e-17
2.02471496e-16
5.595177932e-16
2.186749777e-16
1.681227337e-18
)
;
    }
}


// ************************************************************************* //
