/*--------------------------------*- C++ -*----------------------------------*\
  =========                 |
  \\      /  F ield         | OpenFOAM: The Open Source CFD Toolbox
   \\    /   O peration     | Website:  https://openfoam.org
    \\  /    A nd           | Version:  6
     \\/     M anipulation  |
\*---------------------------------------------------------------------------*/
FoamFile
{
    version     2.0;
    format      ascii;
    class       volScalarField;
    location    "0.0059";
    object      Num_divU;
}
// * * * * * * * * * * * * * * * * * * * * * * * * * * * * * * * * * * * * * //

dimensions      [0 0 -1 0 0 0 0];

internalField   nonuniform List<scalar> 
9600
(
3.402926629e-08
7.26403539e-08
7.279751243e-08
7.533774421e-08
7.574802603e-08
7.608894884e-08
7.630774266e-08
7.638792473e-08
7.62911178e-08
7.602134145e-08
7.555310563e-08
7.489829782e-08
7.403380409e-08
7.297007044e-08
7.167895868e-08
7.016438847e-08
6.839065407e-08
6.635693112e-08
6.40241801e-08
6.139061864e-08
5.841473036e-08
5.509117071e-08
5.13713913e-08
4.724379594e-08
4.265563534e-08
3.75979199e-08
3.202448595e-08
2.593599637e-08
1.929215628e-08
1.209528703e-08
4.301468328e-09
-4.089345801e-09
-1.311885664e-08
-2.277562794e-08
-3.308457643e-08
-4.401468492e-08
-5.557624968e-08
-6.772811906e-08
-8.047594515e-08
-9.377149661e-08
-1.076088262e-07
-1.219180485e-07
-1.366648463e-07
-1.517441817e-07
-1.670870509e-07
-1.82554709e-07
-1.980521814e-07
-2.134209815e-07
-2.285569536e-07
-2.432978503e-07
-2.57541665e-07
-2.711254737e-07
-2.839440936e-07
-2.958244129e-07
-3.066532542e-07
-3.162559613e-07
-3.245374299e-07
-3.313591169e-07
-3.366795747e-07
-3.404141581e-07
-3.425687362e-07
-3.430891613e-07
-3.42007232e-07
-3.392987219e-07
-3.350480759e-07
-3.293032977e-07
-3.222362214e-07
-3.13973803e-07
-3.047504551e-07
-2.947319996e-07
-2.84187115e-07
-2.733251872e-07
-2.624886027e-07
-2.519868422e-07
-2.422817004e-07
-2.337973097e-07
-2.270954916e-07
-2.226782932e-07
-2.211780928e-07
-2.231735626e-07
-2.293983848e-07
-2.40560076e-07
-2.575445111e-07
-2.812155063e-07
-3.126002266e-07
-3.52670213e-07
-4.025202206e-07
-4.631541874e-07
-5.356771439e-07
-6.210983132e-07
-7.205296064e-07
-8.349890534e-07
-9.655844648e-07
-1.113307193e-06
-1.279204279e-06
-1.464176947e-06
-1.669154482e-06
-1.894902853e-06
-2.142193096e-06
-2.411616587e-06
-2.703751107e-06
-3.019004367e-06
-3.357790674e-06
-3.720389009e-06
-4.107071865e-06
-4.517907443e-06
-4.952821803e-06
-5.41142349e-06
-5.893146973e-06
-6.397182538e-06
-6.922625063e-06
-7.46838167e-06
-8.033213508e-06
-8.61560415e-06
-9.213402697e-06
-9.823351076e-06
-1.044462087e-05
-1.109813278e-05
-1.224896848e-05
-6.489070643e-06
3.34603593e-08
7.154589991e-08
7.283685756e-08
7.523666171e-08
7.575764514e-08
7.61211604e-08
7.638989059e-08
7.647691308e-08
7.642608783e-08
7.616198802e-08
7.574127701e-08
7.509363376e-08
7.42793039e-08
7.322454351e-08
7.198643003e-08
7.048243684e-08
6.876467799e-08
6.674358438e-08
6.447011691e-08
6.185097143e-08
5.893631145e-08
5.562617448e-08
5.196629687e-08
4.784822074e-08
4.331677721e-08
3.82633711e-08
3.274154828e-08
2.664799197e-08
2.004348193e-08
1.282235426e-08
5.044726378e-09
-3.399179503e-09
-1.244316084e-08
-2.218861554e-08
-3.255057434e-08
-4.361659823e-08
-5.528595987e-08
-6.764079038e-08
-8.057099367e-08
-9.415322393e-08
-1.082590533e-07
-1.229452597e-07
-1.380501672e-07
-1.536001453e-07
-1.693959467e-07
-1.854358399e-07
-2.014900595e-07
-2.175398869e-07
-2.333378732e-07
-2.48861035e-07
-2.638528938e-07
-2.782890972e-07
-2.919002081e-07
-3.046543758e-07
-3.162676728e-07
-3.267122784e-07
-3.357161386e-07
-3.43291365e-07
-3.49209821e-07
-3.535389852e-07
-3.560886928e-07
-3.569629858e-07
-3.559959832e-07
-3.533353831e-07
-3.488711909e-07
-3.428373793e-07
-3.352119537e-07
-3.263186437e-07
-3.161989447e-07
-3.052296033e-07
-2.934934808e-07
-2.814280763e-07
-2.691961582e-07
-2.573437361e-07
-2.461476714e-07
-2.36264627e-07
-2.280600583e-07
-2.222636708e-07
-2.193063181e-07
-2.199937693e-07
-2.248557749e-07
-2.348202269e-07
-2.505577029e-07
-2.731346372e-07
-3.033482547e-07
-3.423583547e-07
-3.910298831e-07
-4.505569461e-07
-5.218324979e-07
-6.060663686e-07
-7.041791894e-07
-8.173946129e-07
-9.46644988e-07
-1.093127113e-06
-1.257728248e-06
-1.441554486e-06
-1.645392128e-06
-1.870205534e-06
-2.116632788e-06
-2.385444214e-06
-2.677085967e-06
-2.992118645e-06
-3.330827902e-06
-3.693624929e-06
-4.0806626e-06
-4.492121183e-06
-4.927811526e-06
-5.387431954e-06
-5.870318946e-06
-6.375751086e-06
-6.902766231e-06
-7.450364529e-06
-8.017355617e-06
-8.60237573e-06
-9.20367405e-06
-9.818525759e-06
-1.04487542e-05
-1.111660616e-05
-1.23389981e-05
-6.561636393e-06
3.334735617e-08
7.13008425e-08
7.258806814e-08
7.510937479e-08
7.567167043e-08
7.609899309e-08
7.637127401e-08
7.6501948e-08
7.64430795e-08
7.62177322e-08
7.578542839e-08
7.517503321e-08
7.434651423e-08
7.332731557e-08
7.207120939e-08
7.059999432e-08
6.886008501e-08
6.686908393e-08
6.456902386e-08
6.197551895e-08
5.902615477e-08
5.573208049e-08
5.202350443e-08
4.790756405e-08
4.331101729e-08
3.824436788e-08
3.263839191e-08
2.65096231e-08
1.979021953e-08
1.249730832e-08
4.559705143e-09
-4.003880898e-09
-1.326037222e-08
-2.31789891e-08
-3.381439818e-08
-4.512140304e-08
-5.714606622e-08
-6.983385507e-08
-8.322374416e-08
-9.724647446e-08
-1.119227166e-07
-1.271551269e-07
-1.429353485e-07
-1.591320922e-07
-1.757073417e-07
-1.924984999e-07
-2.094427162e-07
-2.263521102e-07
-2.431461146e-07
-2.596189046e-07
-2.756786439e-07
-2.911048787e-07
-3.057947532e-07
-3.195127421e-07
-3.321497709e-07
-3.434698574e-07
-3.533833818e-07
-3.616846395e-07
-3.683290984e-07
-3.731525005e-07
-3.761511412e-07
-3.771917377e-07
-3.76309279e-07
-3.734186835e-07
-3.686288223e-07
-3.619423089e-07
-3.53566681e-07
-3.435910569e-07
-3.322976862e-07
-3.198336205e-07
-3.065424097e-07
-2.926428377e-07
-2.785733958e-07
-2.646600883e-07
-2.514522067e-07
-2.393719124e-07
-2.290485327e-07
-2.209707523e-07
-2.158362839e-07
-2.142162831e-07
-2.169112089e-07
-2.246129074e-07
-2.382485087e-07
-2.586325905e-07
-2.867974114e-07
-3.236446092e-07
-3.702702625e-07
-4.276282007e-07
-4.968539416e-07
-5.789416302e-07
-6.750581765e-07
-7.862253625e-07
-9.13613399e-07
-1.058228418e-06
-1.221189121e-06
-1.403430021e-06
-1.605964216e-06
-1.829602884e-06
-2.075194922e-06
-2.343364664e-06
-2.63474112e-06
-2.949742697e-06
-3.288812687e-06
-3.652230926e-06
-4.040288224e-06
-4.453045361e-06
-4.890425668e-06
-5.352018796e-06
-5.837257671e-06
-6.345354244e-06
-6.875457466e-06
-7.426580225e-06
-7.997698836e-06
-8.587670587e-06
-9.195133977e-06
-9.818319962e-06
-1.046007546e-05
-1.114549933e-05
-1.239730386e-05
-6.602155503e-06
3.326930724e-08
7.110489469e-08
7.241663883e-08
7.496028758e-08
7.557359333e-08
7.601669794e-08
7.632294953e-08
7.645386303e-08
7.641917937e-08
7.618689149e-08
7.577388744e-08
7.515146475e-08
7.433765799e-08
7.330011942e-08
7.205230617e-08
7.055487086e-08
6.881583258e-08
6.679013258e-08
6.448228588e-08
6.184254289e-08
5.887099311e-08
5.551150654e-08
5.175932818e-08
4.755331213e-08
4.28885708e-08
3.770494113e-08
3.200109403e-08
2.571827362e-08
1.885584753e-08
1.135302686e-08
3.209952333e-09
-5.632165178e-09
-1.516507219e-08
-2.543850313e-08
-3.643304063e-08
-4.819075329e-08
-6.068384847e-08
-7.394705028e-08
-8.793895931e-08
-1.02676199e-07
-1.180907045e-07
-1.341706579e-07
-1.508159356e-07
-1.679862352e-07
-1.855519069e-07
-2.034465023e-07
-2.215113669e-07
-2.396532517e-07
-2.576845935e-07
-2.754877729e-07
-2.928509054e-07
-3.096379815e-07
-3.256188421e-07
-3.40646255e-07
-3.544824972e-07
-3.669860503e-07
-3.779339702e-07
-3.872139834e-07
-3.946358647e-07
-4.001249084e-07
-4.035244776e-07
-4.047991841e-07
-4.038384613e-07
-4.006734205e-07
-3.95276132e-07
-3.877768287e-07
-3.78245875e-07
-3.669065504e-07
-3.539076954e-07
-3.395475604e-07
-3.240519601e-07
-3.07811328e-07
-2.911549169e-07
-2.745825797e-07
-2.585231367e-07
-2.435608551e-07
-2.301934357e-07
-2.190709786e-07
-2.10765821e-07
-2.06020004e-07
-2.055136937e-07
-2.101030651e-07
-2.205799584e-07
-2.37900293e-07
-2.629453878e-07
-2.967493305e-07
-3.402678343e-07
-3.946019378e-07
-4.607717175e-07
-5.399308411e-07
-6.33143177e-07
-7.415854067e-07
-8.663285214e-07
-1.008528587e-06
-1.169217797e-06
-1.349484573e-06
-1.550272502e-06
-1.772542509e-06
-2.017077913e-06
-2.284632247e-06
-2.575763105e-06
-2.890994899e-06
-3.230699197e-06
-3.595247163e-06
-3.984862452e-06
-4.39968101e-06
-4.839559893e-06
-5.304147016e-06
-5.792826479e-06
-6.304880593e-06
-6.839462985e-06
-7.395696847e-06
-7.972667699e-06
-8.569440718e-06
-9.185062113e-06
-9.818013772e-06
-1.047240694e-05
-1.117209214e-05
-1.244510722e-05
-6.631667506e-06
3.322048624e-08
7.09888531e-08
7.226877621e-08
7.482477259e-08
7.544473587e-08
7.590999697e-08
7.621783799e-08
7.636301242e-08
7.632201293e-08
7.609710929e-08
7.567104712e-08
7.504961095e-08
7.421453459e-08
7.316913376e-08
7.188942658e-08
7.037305682e-08
6.858992609e-08
6.6532853e-08
6.416636069e-08
6.147783688e-08
5.842552055e-08
5.49908874e-08
5.112710713e-08
4.681359832e-08
4.200268652e-08
3.667501404e-08
3.078250932e-08
2.430496786e-08
1.719192403e-08
9.422446078e-09
9.478590049e-10
-8.246759708e-09
-1.820248711e-08
-2.892572408e-08
-4.045175948e-08
-5.278188007e-08
-6.594631831e-08
-7.99355219e-08
-9.476229409e-08
-1.103908205e-07
-1.268036879e-07
-1.439325277e-07
-1.617308449e-07
-1.801028025e-07
-1.989770184e-07
-2.18229991e-07
-2.37759999e-07
-2.574078102e-07
-2.770350774e-07
-2.964456621e-07
-3.154696881e-07
-3.338839531e-07
-3.514998003e-07
-3.680810329e-07
-3.834354632e-07
-3.973305122e-07
-4.095875682e-07
-4.199929468e-07
-4.283933478e-07
-4.346028698e-07
-4.385038138e-07
-4.399554701e-07
-4.389033551e-07
-4.352870986e-07
-4.291495839e-07
-4.205338314e-07
-4.095862031e-07
-3.964448896e-07
-3.81347317e-07
-3.64522545e-07
-3.463084646e-07
-3.270436583e-07
-3.071805553e-07
-2.871639907e-07
-2.675363413e-07
-2.488140322e-07
-2.31602691e-07
-2.164870513e-07
-2.041569377e-07
-1.952975094e-07
-1.907061299e-07
-1.91170852e-07
-1.975787253e-07
-2.107970953e-07
-2.317881338e-07
-2.615005076e-07
-3.009841778e-07
-3.512793044e-07
-4.135182003e-07
-4.888081135e-07
-5.783248193e-07
-6.831991295e-07
-8.046093183e-07
-9.436748076e-07
-1.101543514e-06
-1.279285404e-06
-1.477965059e-06
-1.698530177e-06
-1.941870233e-06
-2.208714378e-06
-2.499702672e-06
-2.815325759e-06
-3.15602145e-06
-3.522125253e-06
-3.913914207e-06
-4.331484796e-06
-4.774730733e-06
-5.243261178e-06
-5.736495886e-06
-6.253709207e-06
-6.794120524e-06
-7.356903769e-06
-7.94125557e-06
-8.546403221e-06
-9.171496339e-06
-9.81549895e-06
-1.048185225e-05
-1.119634396e-05
-1.248431996e-05
-6.65659762e-06
3.318401399e-08
7.088455846e-08
7.214015604e-08
7.468014961e-08
7.530238989e-08
7.576416575e-08
7.607543262e-08
7.621320047e-08
7.61696736e-08
7.593069886e-08
7.549469353e-08
7.485025305e-08
7.399531523e-08
7.291476332e-08
7.160160147e-08
7.003517177e-08
6.820304057e-08
6.607854089e-08
6.364320495e-08
6.086327436e-08
5.771319551e-08
5.415311843e-08
5.015390998e-08
4.567416364e-08
4.068468584e-08
3.514280995e-08
2.901680436e-08
2.225945782e-08
1.48358753e-08
6.69849467e-09
-2.18327122e-09
-1.184962496e-08
-2.232326884e-08
-3.363934846e-08
-4.581816605e-08
-5.889347141e-08
-7.287968437e-08
-8.779685655e-08
-1.03635279e-07
-1.203836212e-07
-1.379974626e-07
-1.564331375e-07
-1.756182004e-07
-1.954850882e-07
-2.15936284e-07
-2.368750935e-07
-2.58166591e-07
-2.796701442e-07
-3.012030555e-07
-3.22578866e-07
-3.435744808e-07
-3.639724301e-07
-3.835272724e-07
-4.020087248e-07
-4.191655312e-07
-4.347684584e-07
-4.485714374e-07
-4.603552313e-07
-4.698884357e-07
-4.769761312e-07
-4.8142495e-07
-4.830981359e-07
-4.81880881e-07
-4.777336694e-07
-4.706489741e-07
-4.606977522e-07
-4.479791536e-07
-4.326684523e-07
-4.149699608e-07
-3.951727339e-07
-3.736043641e-07
-3.506829519e-07
-3.268583992e-07
-3.026529498e-07
-2.785971387e-07
-2.552771358e-07
-2.332853994e-07
-2.13282809e-07
-1.959543409e-07
-1.820637579e-07
-1.723951142e-07
-1.677949211e-07
-1.691135742e-07
-1.772580276e-07
-1.931499195e-07
-2.177878631e-07
-2.522036773e-07
-2.975090359e-07
-3.548349613e-07
-4.253644307e-07
-5.102717039e-07
-6.10760229e-07
-7.280135005e-07
-8.632359328e-07
-1.017601288e-06
-1.192279303e-06
-1.388369729e-06
-1.606912034e-06
-1.848817059e-06
-2.114881908e-06
-2.405749854e-06
-2.721960508e-06
-3.063945484e-06
-3.432075144e-06
-3.826610227e-06
-4.247665063e-06
-4.69510666e-06
-5.168552879e-06
-5.667407222e-06
-6.190970061e-06
-6.73848133e-06
-7.309170704e-06
-7.902303714e-06
-8.5171553e-06
-9.153066387e-06
-9.808688316e-06
-1.048830085e-05
-1.121514566e-05
-1.25198437e-05
-6.679626332e-06
3.314497701e-08
7.078235028e-08
7.200615207e-08
7.45265512e-08
7.513462995e-08
7.5588208e-08
7.588716692e-08
7.601459549e-08
7.595386235e-08
7.569768834e-08
7.523597587e-08
7.456412062e-08
7.367089689e-08
7.254828409e-08
7.118034857e-08
6.955400593e-08
6.764734944e-08
6.54411174e-08
6.290596204e-08
6.001422639e-08
5.672870422e-08
5.301625232e-08
4.883681404e-08
4.415650445e-08
3.893422715e-08
3.313293027e-08
2.670563312e-08
1.960914691e-08
1.179232129e-08
3.212943117e-09
-6.174313182e-09
-1.640378987e-08
-2.751490175e-08
-3.953989882e-08
-5.251957028e-08
-6.648546376e-08
-8.147082862e-08
-9.748847962e-08
-1.145420988e-07
-1.326086274e-07
-1.516559659e-07
-1.71629721e-07
-1.924724827e-07
-2.141063095e-07
-2.364470262e-07
-2.593809784e-07
-2.827780381e-07
-3.064702346e-07
-3.302704885e-07
-3.539567992e-07
-3.772962062e-07
-4.00030638e-07
-4.219014122e-07
-4.426329394e-07
-4.619555192e-07
-4.795859551e-07
-4.952499036e-07
-5.08663028e-07
-5.195586391e-07
-5.276752981e-07
-5.327921854e-07
-5.347192852e-07
-5.333310365e-07
-5.285480596e-07
-5.203622152e-07
-5.088105911e-07
-4.940002136e-07
-4.760852975e-07
-4.552995054e-07
-4.319362286e-07
-4.063783384e-07
-3.790664346e-07
-3.50513702e-07
-3.212632328e-07
-2.919037351e-07
-2.630400892e-07
-2.353268552e-07
-2.094507885e-07
-1.861622291e-07
-1.662435263e-07
-1.505239028e-07
-1.398418134e-07
-1.350684182e-07
-1.370914226e-07
-1.468586498e-07
-1.653690927e-07
-1.937042761e-07
-2.329955182e-07
-2.844316228e-07
-3.492157355e-07
-4.285779836e-07
-5.237483241e-07
-6.35981601e-07
-7.665340447e-07
-9.166751288e-07
-1.087643353e-06
-1.280634197e-06
-1.496743859e-06
-1.736954837e-06
-2.002097187e-06
-2.292863325e-06
-2.609809004e-06
-2.95339693e-06
-3.32399687e-06
-3.721878457e-06
-4.147135818e-06
-4.599627769e-06
-5.078947328e-06
-5.584495326e-06
-6.11556836e-06
-6.671426216e-06
-7.251324589e-06
-7.85455242e-06
-8.480452912e-06
-9.128240241e-06
-9.796908711e-06
-1.048951982e-05
-1.123217412e-05
-1.255188148e-05
-6.702036154e-06
3.310287739e-08
7.066866919e-08
7.186081901e-08
7.435303776e-08
7.49418139e-08
7.537608509e-08
7.565703883e-08
7.576296542e-08
7.567926505e-08
7.539422438e-08
7.490012242e-08
7.418727093e-08
7.324700172e-08
7.20665553e-08
7.063256308e-08
6.89271612e-08
6.693127636e-08
6.461969725e-08
6.196442231e-08
5.893111582e-08
5.548391783e-08
5.158326762e-08
4.719115688e-08
4.226687283e-08
3.677004122e-08
3.06541974e-08
2.387083517e-08
1.636582093e-08
8.087074471e-09
-1.017706393e-09
-1.09942667e-08
-2.188846495e-08
-3.374285762e-08
-4.660476326e-08
-6.051976293e-08
-7.553376605e-08
-9.168080639e-08
-1.089827738e-07
-1.274398275e-07
-1.470363977e-07
-1.677380072e-07
-1.89500677e-07
-2.122658979e-07
-2.359645763e-07
-2.605050064e-07
-2.857729697e-07
-3.116199129e-07
-3.378677613e-07
-3.643033836e-07
-3.906892941e-07
-4.167614624e-07
-4.422409933e-07
-4.668309355e-07
-4.902260049e-07
-5.12107065e-07
-5.321492762e-07
-5.500164851e-07
-5.653732246e-07
-5.778862375e-07
-5.872458261e-07
-5.931737527e-07
-5.954455453e-07
-5.938917242e-07
-5.884101871e-07
-5.789575615e-07
-5.655580935e-07
-5.482969851e-07
-5.273366503e-07
-5.029158023e-07
-4.753661747e-07
-4.451024509e-07
-4.126223161e-07
-3.784796137e-07
-3.432761823e-07
-3.07642152e-07
-2.722450703e-07
-2.377883494e-07
-2.050258376e-07
-1.747507618e-07
-1.477921889e-07
-1.249909224e-07
-1.071994383e-07
-9.527900656e-08
-9.012819835e-08
-9.269967911e-08
-1.040271991e-07
-1.25219198e-07
-1.574537389e-07
-2.019484426e-07
-2.599522373e-07
-3.327297983e-07
-4.215752228e-07
-5.278096956e-07
-6.527881669e-07
-7.978749355e-07
-9.644184342e-07
-1.153702374e-06
-1.366910588e-06
-1.605087483e-06
-1.86912465e-06
-2.159754148e-06
-2.477571858e-06
-2.823056326e-06
-3.196587257e-06
-3.598419152e-06
-4.028626465e-06
-4.487034513e-06
-4.973210885e-06
-5.486531352e-06
-6.026283402e-06
-6.591723673e-06
-7.182111702e-06
-7.796756113e-06
-8.434953951e-06
-9.096051023e-06
-9.778528017e-06
-1.04865529e-05
-1.124329751e-05
-1.258282226e-05
-6.724308062e-06
3.305414598e-08
7.054059745e-08
7.16965412e-08
7.415649711e-08
7.471871168e-08
7.512790167e-08
7.538230661e-08
7.546007119e-08
7.534419827e-08
7.502300666e-08
7.448575836e-08
7.372311314e-08
7.272322292e-08
7.147374529e-08
6.995865725e-08
6.816043788e-08
6.605656444e-08
6.362115735e-08
6.08219038e-08
5.762314067e-08
5.398477395e-08
4.986653973e-08
4.522607665e-08
4.002103685e-08
3.420432346e-08
2.772554011e-08
2.052782777e-08
1.255286388e-08
3.740749085e-09
-5.964391762e-09
-1.661736454e-08
-2.827015498e-08
-4.097825845e-08
-5.479784753e-08
-6.978733647e-08
-8.599852829e-08
-1.034731435e-07
-1.222342649e-07
-1.422877745e-07
-1.636204997e-07
-1.86207424e-07
-2.100100075e-07
-2.349787956e-07
-2.610444135e-07
-2.881142589e-07
-3.160617325e-07
-3.447265609e-07
-3.739104328e-07
-4.033834847e-07
-4.328839798e-07
-4.621256764e-07
-4.907968331e-07
-5.185663997e-07
-5.450818941e-07
-5.699747423e-07
-5.928579079e-07
-6.133332884e-07
-6.309949874e-07
-6.454458256e-07
-6.56309823e-07
-6.632540741e-07
-6.659986858e-07
-6.643303236e-07
-6.581009228e-07
-6.472342082e-07
-6.31723059e-07
-6.116415288e-07
-5.871493384e-07
-5.585079008e-07
-5.260806428e-07
-4.903340188e-07
-4.518179572e-07
-4.111493779e-07
-3.689894138e-07
-3.260385117e-07
-2.830337661e-07
-2.40756913e-07
-2.00029424e-07
-1.617039876e-07
-1.266421893e-07
-9.570194102e-08
-6.973228173e-08
-4.959403907e-08
-3.61864193e-08
-3.048195618e-08
-3.353845458e-08
-4.650039723e-08
-7.057477223e-08
-1.070148213e-07
-1.571031286e-07
-2.221602783e-07
-3.035516514e-07
-4.027010484e-07
-5.210790546e-07
-6.60178845e-07
-8.214681228e-07
-1.006342685e-06
-1.21607915e-06
-1.451805867e-06
-1.714483109e-06
-2.004903576e-06
-2.323703187e-06
-2.671382806e-06
-3.048316968e-06
-3.454735703e-06
-3.890671594e-06
-4.35590401e-06
-4.84995401e-06
-5.372160167e-06
-5.921779691e-06
-6.498049045e-06
-7.10021878e-06
-7.727574881e-06
-8.379456824e-06
-9.055018784e-06
-9.753185646e-06
-1.047669201e-05
-1.125272767e-05
-1.261075304e-05
-6.746618233e-06
3.299792325e-08
7.039353161e-08
7.151018155e-08
7.393244277e-08
7.446349088e-08
7.48409264e-08
7.506260248e-08
7.510482943e-08
7.494984133e-08
7.458363738e-08
7.399494194e-08
7.317189464e-08
7.210233576e-08
7.077145372e-08
6.916293825e-08
6.72566702e-08
6.502889987e-08
6.245013893e-08
5.94860003e-08
5.609723247e-08
5.224195251e-08
4.787643635e-08
4.295590183e-08
3.743263429e-08
3.125472399e-08
2.436427336e-08
1.66988192e-08
8.192910339e-09
-1.218351054e-09
-1.15985563e-08
-2.300986798e-08
-3.551619748e-08
-4.918388953e-08
-6.40826113e-08
-8.02799832e-08
-9.783640088e-08
-1.167977089e-07
-1.371925177e-07
-1.590314622e-07
-1.823112749e-07
-2.070164021e-07
-2.331204069e-07
-2.605796966e-07
-2.893276143e-07
-3.192644386e-07
-3.502538079e-07
-3.821191401e-07
-4.146469052e-07
-4.47587834e-07
-4.806604376e-07
-5.135507798e-07
-5.459141547e-07
-5.773747215e-07
-6.075280751e-07
-6.359422463e-07
-6.62161921e-07
-6.857130409e-07
-7.061140626e-07
-7.228901628e-07
-7.355932001e-07
-7.438187903e-07
-7.472224358e-07
-7.455269414e-07
-7.385296709e-07
-7.261051312e-07
-7.082140652e-07
-6.849120901e-07
-6.563643321e-07
-6.228550758e-07
-5.847922283e-07
-5.426983733e-07
-4.971913922e-07
-4.489610023e-07
-3.987496864e-07
-3.47345697e-07
-2.955815952e-07
-2.443326712e-07
-1.945037222e-07
-1.470070554e-07
-1.027378347e-07
-6.256139306e-08
-2.732216299e-08
2.12700062e-09
2.488383256e-08
3.996439289e-08
4.628860826e-08
4.269153486e-08
2.794251047e-08
7.642626999e-10
-4.01680868e-08
-9.624016519e-08
-1.689189469e-07
-2.597566627e-07
-3.703735981e-07
-5.024132194e-07
-6.574865994e-07
-8.371160163e-07
-1.042693316e-06
-1.275449526e-06
-1.536438209e-06
-1.826527564e-06
-2.146404014e-06
-2.496585199e-06
-2.877428034e-06
-3.289116313e-06
-3.731618384e-06
-4.204642963e-06
-4.707643348e-06
-5.239896718e-06
-5.800609887e-06
-6.388980653e-06
-7.004229228e-06
-7.645645523e-06
-8.312507316e-06
-9.004153554e-06
-9.718941398e-06
-1.046111359e-05
-1.125452344e-05
-1.263728573e-05
-6.768724428e-06
3.293274404e-08
7.022567226e-08
7.129875796e-08
7.36787905e-08
7.417339939e-08
7.451405742e-08
7.469691702e-08
7.469729346e-08
7.449573308e-08
7.407728343e-08
7.342832268e-08
7.253606549e-08
7.138613115e-08
6.996311474e-08
6.824859582e-08
6.6220807e-08
6.385311564e-08
6.111337621e-08
5.796398462e-08
5.436307699e-08
5.026596089e-08
4.562620887e-08
4.039467818e-08
3.451854734e-08
2.793906458e-08
2.059170987e-08
1.240704278e-08
3.313640912e-09
-6.760323709e-09
-1.788593851e-08
-3.013627718e-08
-4.358721794e-08
-5.831928926e-08
-7.441396527e-08
-9.194948543e-08
-1.109928825e-07
-1.315963011e-07
-1.537945698e-07
-1.776084344e-07
-2.030470236e-07
-2.301097492e-07
-2.587819024e-07
-2.890278047e-07
-3.207800719e-07
-3.539331523e-07
-3.883390109e-07
-4.238087878e-07
-4.601143796e-07
-4.969909304e-07
-5.341352946e-07
-5.712048036e-07
-6.078146456e-07
-6.43538619e-07
-6.779101646e-07
-7.104263804e-07
-7.405522029e-07
-7.677291122e-07
-7.913871005e-07
-8.109630854e-07
-8.259201387e-07
-8.357677957e-07
-8.400761316e-07
-8.384884431e-07
-8.30728951e-07
-8.166138309e-07
-7.96062339e-07
-7.69112328e-07
-7.359353329e-07
-6.968469593e-07
-6.523082746e-07
-6.029109222e-07
-5.49355044e-07
-4.924217233e-07
-4.329576463e-07
-3.718647306e-07
-3.100964803e-07
-2.486424437e-07
-1.885031078e-07
-1.306554047e-07
-7.60258723e-08
-2.548405377e-08
2.013699951e-08
5.999742381e-08
9.320309301e-08
1.187700275e-07
1.35615047e-07
1.425674138e-07
1.383892302e-07
1.217820286e-07
9.137438424e-08
4.569311799e-08
-1.685782649e-08
-9.799570045e-08
-1.995210171e-07
-3.232567688e-07
-4.7097931e-07
-6.443632128e-07
-8.4494262e-07
-1.074085035e-06
-1.332967805e-06
-1.622556838e-06
-1.943596435e-06
-2.296612055e-06
-2.681922456e-06
-3.099636068e-06
-3.549626327e-06
-4.031499318e-06
-4.544608855e-06
-5.08814113e-06
-5.661225077e-06
-6.26299863e-06
-6.892651571e-06
-7.549445511e-06
-8.232736051e-06
-8.941684431e-06
-9.675278933e-06
-1.043614935e-05
-1.125335373e-05
-1.265911279e-05
-6.790264952e-06
3.285768436e-08
7.003400416e-08
7.105984073e-08
7.339299066e-08
7.38470066e-08
7.414579694e-08
7.428456984e-08
7.423705669e-08
7.398261387e-08
7.350439003e-08
7.27874504e-08
7.181694347e-08
7.057757309e-08
6.90519104e-08
6.721998791e-08
6.505754012e-08
6.253521936e-08
5.961778891e-08
5.626454863e-08
5.243088758e-08
4.806934071e-08
4.312974207e-08
3.755856949e-08
3.129649946e-08
2.427788908e-08
1.643088788e-08
7.679399012e-09
-2.054699377e-09
-1.285056752e-08
-2.478939613e-08
-3.795588011e-08
-5.24403686e-08
-6.8337018e-08
-8.574019288e-08
-1.047373137e-07
-1.25403486e-07
-1.477982065e-07
-1.719668165e-07
-1.979438398e-07
-2.257557142e-07
-2.554184775e-07
-2.869310577e-07
-3.202637883e-07
-3.553493281e-07
-3.920760968e-07
-4.302882565e-07
-4.697877019e-07
-5.103363629e-07
-5.516546404e-07
-5.934175566e-07
-6.352491539e-07
-6.767196395e-07
-7.17344844e-07
-7.565891717e-07
-7.938695626e-07
-8.285620777e-07
-8.600113418e-07
-8.875457189e-07
-9.104961608e-07
-9.2821847e-07
-9.401129778e-07
-9.456430428e-07
-9.443497654e-07
-9.358675262e-07
-9.199402136e-07
-8.964389104e-07
-8.65382159e-07
-8.269513828e-07
-7.815030165e-07
-7.295616991e-07
-6.718046726e-07
-6.090306646e-07
-5.421370247e-07
-4.721002053e-07
-3.999675533e-07
-3.268404032e-07
-2.538463873e-07
-1.820964356e-07
-1.126412569e-07
-4.644220534e-08
1.562825668e-08
7.275437129e-08
1.241237478e-07
1.688717614e-07
2.060422966e-07
2.345756513e-07
2.533188159e-07
2.610401344e-07
2.564248565e-07
2.380453057e-07
2.043194532e-07
1.534881231e-07
8.363241416e-08
-7.265648415e-09
-1.212397238e-07
-2.602623989e-07
-4.261940721e-07
-6.207536094e-07
-8.454914007e-07
-1.101750249e-06
-1.390621152e-06
-1.712911025e-06
-2.069139552e-06
-2.45955571e-06
-2.884155018e-06
-3.342672184e-06
-3.834567737e-06
-4.359052547e-06
-4.915182408e-06
-5.501975582e-06
-6.118492161e-06
-6.763875495e-06
-7.437410952e-06
-8.138425867e-06
-8.866378359e-06
-9.619679469e-06
-1.040291388e-05
-1.124135436e-05
-1.267738307e-05
-6.810469041e-06
3.277155262e-08
6.981715255e-08
7.079163027e-08
7.307341951e-08
7.348272931e-08
7.373529152e-08
7.382481261e-08
7.372403244e-08
7.341067225e-08
7.286605851e-08
7.207366913e-08
7.101712708e-08
6.967938563e-08
6.804152363e-08
6.60814539e-08
6.377235936e-08
6.10818311e-08
5.797125007e-08
5.439707606e-08
5.031187048e-08
4.566504073e-08
4.040250754e-08
3.446483223e-08
2.778617871e-08
2.029345563e-08
1.190759742e-08
2.545579704e-09
-7.878160262e-09
-1.945176224e-08
-3.22674505e-08
-4.642391357e-08
-6.202616834e-08
-7.918277849e-08
-9.799989399e-08
-1.18574963e-07
-1.40991924e-07
-1.653212744e-07
-1.916229272e-07
-2.199503229e-07
-2.503501801e-07
-2.828574094e-07
-3.17483607e-07
-3.542058638e-07
-3.929570482e-07
-4.336236119e-07
-4.760466107e-07
-5.200247743e-07
-5.653135589e-07
-6.11620369e-07
-6.585961664e-07
-7.058285433e-07
-7.528374817e-07
-7.990759641e-07
-8.439324054e-07
-8.86735713e-07
-9.267615722e-07
-9.632439991e-07
-9.953911506e-07
-1.022407288e-06
-1.043515261e-06
-1.057980187e-06
-1.06513098e-06
-1.064382398e-06
-1.055258694e-06
-1.037416578e-06
-1.010672147e-06
-9.750218402e-07
-9.306644447e-07
-8.780045428e-07
-8.176468251e-07
-7.503676425e-07
-6.770876115e-07
-5.98844352e-07
-5.167776337e-07
-4.321124663e-07
-3.46130971e-07
-2.601259437e-07
-1.753420182e-07
-9.292191104e-08
-1.387458961e-08
6.091999536e-08
1.306727976e-07
1.946252446e-07
2.5198354e-07
3.018658372e-07
3.432745137e-07
3.750997623e-07
3.9612855e-07
4.050342157e-07
4.00325454e-07
3.802918505e-07
3.429776569e-07
2.862206768e-07
2.077413141e-07
1.052534306e-07
-2.345226993e-08
-1.804691231e-07
-3.677596643e-07
-5.871225478e-07
-8.401225776e-07
-1.128008155e-06
-1.451651779e-06
-1.811542439e-06
-2.207817848e-06
-2.640306406e-06
-3.108547326e-06
-3.611795341e-06
-4.149061401e-06
-4.71921844e-06
-5.321136696e-06
-5.953773169e-06
-6.616236387e-06
-7.307808138e-06
-8.027968934e-06
-8.776053432e-06
-9.551336098e-06
-1.035661852e-05
-1.122368256e-05
-1.26873957e-05
-6.828450927e-06
3.267339332e-08
6.95725115e-08
7.049213167e-08
7.271855547e-08
7.307926191e-08
7.328145471e-08
7.331741685e-08
7.315841663e-08
7.278043861e-08
7.216328454e-08
7.128869411e-08
7.013865147e-08
6.869468477e-08
6.693589215e-08
6.483797872e-08
6.237118745e-08
5.949975345e-08
5.618221668e-08
5.237188112e-08
4.801839637e-08
4.306765702e-08
3.74606443e-08
3.113210495e-08
2.400883093e-08
1.601040969e-08
7.050313193e-09
-2.961789357e-09
-1.411993536e-08
-2.652248235e-08
-4.027479854e-08
-5.54902406e-08
-7.228905596e-08
-9.079363572e-08
-1.111220517e-07
-1.333821671e-07
-1.576697863e-07
-1.840702532e-07
-2.126634598e-07
-2.435254163e-07
-2.76726242e-07
-3.123196322e-07
-3.503305737e-07
-3.907430361e-07
-4.334942792e-07
-4.784740622e-07
-5.255279094e-07
-5.744573016e-07
-6.250153783e-07
-6.768971397e-07
-7.297286703e-07
-7.830583463e-07
-8.363535145e-07
-8.890000369e-07
-9.403051564e-07
-9.895004114e-07
-1.035748763e-06
-1.078155568e-06
-1.115787312e-06
-1.147694094e-06
-1.172936042e-06
-1.190610462e-06
-1.199880265e-06
-1.200006415e-06
-1.190379105e-06
-1.170554149e-06
-1.14028163e-06
-1.099537974e-06
-1.048540821e-06
-9.877557519e-07
-9.178766843e-07
-8.397984051e-07
-7.545841524e-07
-6.634429877e-07
-5.677127478e-07
-4.688341921e-07
-3.683081392e-07
-2.676296388e-07
-1.682153375e-07
-7.133565169e-08
2.192337873e-08
1.106620664e-07
1.941329551e-07
2.716781729e-07
3.426480475e-07
4.06308459e-07
4.617760375e-07
5.080043229e-07
5.438090631e-07
5.678563836e-07
5.785978388e-07
5.741823655e-07
5.524279462e-07
5.108763837e-07
4.46926625e-07
3.579803802e-07
2.415386981e-07
9.521527355e-08
-8.327575608e-08
-2.960721648e-07
-5.45038726e-07
-8.316214652e-07
-1.156758271e-06
-1.520870057e-06
-1.923923031e-06
-2.365504936e-06
-2.844879402e-06
-3.361015625e-06
-3.912647902e-06
-4.498403504e-06
-5.116956494e-06
-5.767141586e-06
-6.448017231e-06
-7.158932689e-06
-7.89940385e-06
-8.669210412e-06
-9.467074771e-06
-1.029826264e-05
-1.119035547e-05
-1.268976485e-05
-6.842814044e-06
3.256209915e-08
6.92987541e-08
7.016001602e-08
7.232684538e-08
7.26356125e-08
7.278376012e-08
7.27619634e-08
7.254015445e-08
7.209249977e-08
7.139732525e-08
7.043434709e-08
6.918437724e-08
6.762688375e-08
6.573935479e-08
6.349463286e-08
6.086012749e-08
5.77968318e-08
5.42599662e-08
5.020002989e-08
4.556348642e-08
4.029204918e-08
3.432176062e-08
2.758037355e-08
1.998768292e-08
1.145551397e-08
1.890117301e-09
-8.807291391e-09
-2.073989271e-08
-3.401821719e-08
-4.876170184e-08
-6.509915191e-08
-8.316585948e-08
-1.030977195e-07
-1.250247179e-07
-1.490673047e-07
-1.753361581e-07
-2.039370169e-07
-2.349738037e-07
-2.685494315e-07
-3.047579846e-07
-3.436728348e-07
-3.853323614e-07
-4.297311233e-07
-4.768159413e-07
-5.264886925e-07
-5.786071032e-07
-6.329822227e-07
-6.893683121e-07
-7.474497357e-07
-8.06827667e-07
-8.670118349e-07
-9.274159975e-07
-9.873574681e-07
-1.046056258e-06
-1.102637373e-06
-1.156135146e-06
-1.205506174e-06
-1.249647993e-06
-1.287424967e-06
-1.317698358e-06
-1.339359565e-06
-1.351370807e-06
-1.352805777e-06
-1.342898135e-06
-1.321081366e-06
-1.287032696e-06
-1.240701145e-06
-1.182328368e-06
-1.112443445e-06
-1.031841126e-06
-9.415496165e-07
-8.428000092e-07
-7.370073449e-07
-6.257462842e-07
-5.107176545e-07
-3.93687219e-07
-2.76408673e-07
-1.605314897e-07
-4.751817225e-08
6.14152668e-08
1.653245936e-07
2.635253068e-07
3.555409152e-07
4.409868556e-07
5.19396975e-07