/*--------------------------------*- C++ -*----------------------------------*\
  =========                 |
  \\      /  F ield         | OpenFOAM: The Open Source CFD Toolbox
   \\    /   O peration     | Website:  https://openfoam.org
    \\  /    A nd           | Version:  6
     \\/     M anipulation  |
\*---------------------------------------------------------------------------*/
FoamFile
{
    version     2.0;
    format      ascii;
    class       volScalarField;
    location    "0.0046";
    object      Num_divU;
}
// * * * * * * * * * * * * * * * * * * * * * * * * * * * * * * * * * * * * * //

dimensions      [0 0 -1 0 0 0 0];

internalField   nonuniform List<scalar> 
9600
(
3.647230273e-08
3.368451591e-08
3.117049649e-08
2.880574013e-08
2.668729334e-08
2.461054191e-08
2.24020949e-08
2.009612559e-08
1.753176473e-08
1.474735184e-08
1.158214308e-08
8.073105191e-09
4.050956882e-09
-4.567520033e-10
-5.632876819e-09
-1.146100964e-08
-1.81368608e-08
-2.565475858e-08
-3.422560029e-08
-4.385891127e-08
-5.47837676e-08
-6.702346266e-08
-8.081717664e-08
-9.619126504e-08
-1.133883949e-07
-1.324405919e-07
-1.536032367e-07
-1.769203966e-07
-2.026511168e-07
-2.308226806e-07
-2.616610526e-07
-2.951558787e-07
-3.315075575e-07
-3.706948271e-07
-4.129050557e-07
-4.580786889e-07
-5.063337972e-07
-5.575309685e-07
-6.117257586e-07
-6.687369137e-07
-7.285707024e-07
-7.909579116e-07
-8.557847985e-07
-9.226866588e-07
-9.915390457e-07
-1.062076776e-06
-1.134341371e-06
-1.208237688e-06
-1.283957212e-06
-1.361600773e-06
-1.441726444e-06
-1.525025334e-06
-1.612832083e-06
-1.706777408e-06
-1.809458617e-06
-1.924465417e-06
-2.05797036e-06
-2.220968688e-06
-2.433913427e-06
-2.724528965e-06
-3.103291561e-06
-3.455210739e-06
-3.275038776e-06
-2.054455181e-06
-1.968663218e-07
-7.299384064e-06
-1.488207458e-05
9.704966296e-11
2.084700211e-10
2.037530463e-10
2.04460427e-10
1.945319577e-10
1.772391853e-10
1.855880661e-10
1.901142876e-10
2.167690766e-10
2.26198348e-10
2.458819493e-10
2.374664141e-10
2.470443951e-10
2.350214314e-10
2.411781332e-10
2.092424391e-10
1.841957143e-10
1.21482516e-10
7.70505848e-11
1.079484484e-11
-1.493825008e-11
-3.78418383e-11
-1.570675961e-11
-1.737628853e-11
-1.200300479e-11
-3.973700794e-11
-5.246861897e-11
-9.205796799e-11
-1.223070976e-10
-1.673816821e-10
-1.931879117e-10
-2.267148943e-10
-2.380298379e-10
-2.422183055e-10
-2.259366463e-10
-2.167764489e-10
-2.025800001e-10
-1.985448644e-10
-1.998124013e-10
-1.929742792e-10
-1.935057337e-10
-1.641041275e-10
-2.453325305e-10
-1.420157425e-10
-1.567007286e-10
-3.815605322e-11
-1.00079798e-05
2.677766935e-06
5.712120967e-06
3.795433658e-06
-1.213191285e-07
-2.769767631e-06
5.830284994e-07
3.87169887e-08
3.558782925e-08
3.278540743e-08
3.014110579e-08
2.779584248e-08
2.549557532e-08
2.311399038e-08
2.063233099e-08
1.793764724e-08
1.501483722e-08
1.17515372e-08
8.13006591e-09
4.030372292e-09
-5.744893198e-10
-5.81614989e-09
-1.173169088e-08
-1.846412154e-08
-2.60619469e-08
-3.468322644e-08
-4.439184024e-08
-5.536141103e-08
-6.766649838e-08
-8.148682324e-08
-9.689991318e-08
-1.140910532e-07
-1.331476826e-07
-1.542680524e-07
-1.775461192e-07
-2.031709868e-07
-2.31208691e-07
-2.618112259e-07
-2.950136822e-07
-3.309524341e-07
-3.696517823e-07
-4.112184559e-07
-4.556128922e-07
-5.028521489e-07
-5.528096502e-07
-6.054358478e-07
-6.605456845e-07
-7.180032151e-07
-7.774925942e-07
-8.387277225e-07
-9.012826051e-07
-9.648430225e-07
-1.029035462e-06
-1.093629095e-06
-1.158325642e-06
-1.222981317e-06
-1.287489935e-06
-1.352093342e-06
-1.417256268e-06
-1.48388093e-06
-1.553051623e-06
-1.626050644e-06
-1.70398754e-06
-1.788874766e-06
-1.887845173e-06
-2.024603353e-06
-2.258366079e-06
-2.692850969e-06
-3.310379826e-06
-3.351636491e-06
-2.676858415e-06
9.790968706e-06
1.333529955e-05
1.248851198e-10
1.228253844e-10
1.194471406e-10
1.241429053e-10
1.224554245e-10
1.231621877e-10
1.186148629e-10
1.243105668e-10
1.295294864e-10
1.465385988e-10
1.539383809e-10
1.646982639e-10
1.59568611e-10
1.614179244e-10
1.51389195e-10
1.505433956e-10
1.320438139e-10
1.169057171e-10
8.115281214e-11
5.236590578e-11
1.238314396e-11
-5.717365928e-12
-1.924033109e-11
-8.173988461e-12
-8.580799559e-12
-8.722735137e-12
-3.040465226e-11
-4.819766139e-11
-7.769180649e-11
-9.779495425e-11
-1.223557424e-10
-1.35480563e-10
-1.500357912e-10
-1.511764562e-10
-1.494556421e-10
-1.411965405e-10
-1.403511148e-10
-1.377057853e-10
-1.387387603e-10
-1.323838316e-10
-1.28105272e-10
-1.177093417e-10
-1.094939579e-10
-1.072271075e-10
-1.165653575e-10
-8.254368707e-11
-1.230808573e-10
-7.358144809e-11
1.775805651e-05
8.703357929e-06
2.58914534e-06
3.018970093e-07
-3.182096367e-06
3.919966122e-07
4.097261743e-08
3.74747867e-08
3.43731543e-08
3.143302857e-08
2.885541241e-08
2.632034028e-08
2.376510936e-08
2.110087824e-08
1.827896701e-08
1.5213588e-08
1.185726833e-08
8.120476679e-09
3.949414562e-09
-7.548907482e-10
-6.05541259e-09
-1.206056738e-08
-1.884286361e-08
-2.652305607e-08
-3.518786755e-08
-4.497371302e-08
-5.598008611e-08
-6.835148683e-08
-8.219085349e-08
-9.764565812e-08
-1.148259117e-07
-1.338917958e-07
-1.549651761e-07
-1.782067599e-07
-2.037186843e-07
-2.316245815e-07
-2.619876451e-07
-2.949072548e-07
-3.304378268e-07
-3.686656759e-07
-4.096000289e-07
-4.532403602e-07
-4.994884003e-07
-5.482478437e-07
-5.993474944e-07
-6.526134148e-07
-7.077544612e-07
-7.64425007e-07
-8.221486888e-07
-8.804365013e-07
-9.387407093e-07
-9.965527317e-07
-1.053312249e-06
-1.108485856e-06
-1.161533584e-06
-1.212095265e-06
-1.260031568e-06
-1.305587455e-06
-1.349320596e-06
-1.391944786e-06
-1.433428404e-06
-1.471483906e-06
-1.499827013e-06
-1.508940155e-06
-1.494883272e-06
-1.512013769e-06
-1.763700635e-06
-2.751025376e-06
-4.78408989e-06
5.592156982e-06
1.146418965e-05
2.089674989e-05
1.342044219e-10
1.11141928e-10
1.076431994e-10
1.078720061e-10
1.110680235e-10
1.12002586e-10
1.157336305e-10
1.192508384e-10
1.299825927e-10
1.404379089e-10
1.532038811e-10
1.567152133e-10
1.58174008e-10
1.515835523e-10
1.483861697e-10
1.390268802e-10
1.303682858e-10
1.094112779e-10
8.565395099e-11
5.164632682e-11
2.365475519e-11
-6.368178083e-13
-6.629191744e-12
-7.656015157e-12
-4.52013906e-12
-1.538833894e-11
-3.240190287e-11
-5.864484529e-11
-8.008703216e-11
-1.017191695e-10
-1.170910579e-10
-1.327809237e-10
-1.411400418e-10
-1.448367977e-10
-1.409252213e-10
-1.386970296e-10
-1.384438329e-10
-1.413239285e-10
-1.378527635e-10
-1.287743415e-10
-1.166122266e-10
-1.089192306e-10
-9.933834457e-11
-9.530434503e-11
-8.697631909e-11
-1.07801866e-10
-1.487564178e-10
-5.598338161e-11
1.055851268e-05
1.953746569e-05
1.50702227e-05
5.385900832e-07
-3.104327618e-06
9.643615631e-07
4.319452025e-08
3.93308155e-08
3.588550608e-08
3.266045932e-08
2.981463693e-08
2.706338886e-08
2.430474245e-08
2.14825598e-08
1.850830684e-08
1.532878832e-08
1.185636684e-08
8.034709968e-09
3.769381225e-09
-1.003128734e-09
-6.38541798e-09
-1.24484157e-08
-1.930390862e-08
-2.703452709e-08
-3.576672827e-08
-4.559751717e-08
-5.66644548e-08
-6.906980408e-08
-8.295280884e-08
-9.841866071e-08
-1.156158179e-07
-1.346631065e-07
-1.557188176e-07
-1.788951697e-07
-2.043213799e-07
-2.320668702e-07
-2.62223159e-07
-2.948421654e-07
-3.300119177e-07
-3.677656287e-07
-4.081291158e-07
-4.510286425e-07
-4.963688017e-07
-5.439747293e-07
-5.936702177e-07
-6.451831442e-07
-6.981825233e-07
-7.521844801e-07
-8.066326028e-07
-8.60855282e-07
-9.141595655e-07
-9.657591454e-07
-1.014827659e-06
-1.06043474e-06
-1.101679669e-06
-1.137750616e-06
-1.168150817e-06
-1.192804416e-06
-1.212242653e-06
-1.2273086e-06
-1.238018145e-06
-1.24038899e-06
-1.219746954e-06
-1.134716256e-06
-8.920860897e-07
-2.808744409e-07
1.10033295e-06
3.551199385e-06
2.970799944e-06
4.615954878e-06
-4.759057277e-06
1.113439531e-10
1.018376295e-10
9.413340979e-11
9.195341708e-11
9.534995533e-11
9.9239356e-11
1.052333809e-10
1.088842769e-10
1.157372186e-10
1.232041458e-10
1.354714672e-10
1.43599569e-10
1.498058019e-10
1.471979553e-10
1.443464131e-10
1.369385942e-10
1.322841513e-10
1.20650628e-10
1.064969063e-10
8.155128316e-11
5.582166306e-11
2.695382862e-11
8.597722354e-12
-2.8249929e-12
-2.975797957e-12
-7.734869274e-12
-1.796537557e-11
-3.975629248e-11
-6.056288414e-11
-8.109152878e-11
-9.560979569e-11
-1.107790528e-10
-1.225480516e-10
-1.329944075e-10
-1.359465187e-10
-1.353835021e-10
-1.335384882e-10
-1.366574825e-10
-1.38456862e-10
-1.335693792e-10
-1.204386259e-10
-1.072298303e-10
-9.922402661e-11
-9.228729774e-11
-8.545802427e-11
-7.630939914e-11
-1.089924985e-10
-1.036915085e-10
-1.361973671e-10
-4.376884639e-11
1.466129747e-06
2.270121341e-05
8.053712764e-06
1.858161231e-06
2.855035836e-06
4.53681172e-08
4.109934443e-08
3.730869263e-08
3.377283984e-08
3.066614405e-08
2.768035894e-08
2.47333039e-08
2.174042623e-08
1.863319256e-08
1.532971134e-08
1.176233176e-08
7.846315571e-09
3.508736679e-09
-1.341568425e-09
-6.783366669e-09
-1.291401747e-08
-1.982043699e-08
-2.761197175e-08
-3.638952623e-08
-4.627632734e-08
-5.7382233e-08
-6.98334145e-08
-8.374009967e-08
-9.923189789e-08
-1.164289027e-07
-1.35474899e-07
-1.564964049e-07
-1.796237321e-07
-2.04947366e-07
-2.325516562e-07
-2.624933355e-07
-2.948463974e-07
-3.296661599e-07
-3.669993921e-07
-4.068217741e-07
-4.490565452e-07
-4.935507715e-07
-5.401249302e-07
-5.885392762e-07
-6.384953917e-07
-6.89564503e-07
-7.411959402e-07
-7.926934596e-07
-8.432648308e-07
-8.919970704e-07
-9.378664848e-07
-9.7968244e-07
-1.01612131e-06
-1.045768504e-06
-1.067279332e-06
-1.079564351e-06
-1.082145449e-06
-1.075553007e-06
-1.061592805e-06
-1.042895914e-06
-1.020914385e-06
-9.886076172e-07
-9.111192862e-07
-6.659103315e-07
7.974820319e-08
2.062794483e-06
5.838269168e-06
1.438947182e-05
1.193386541e-05
4.511949441e-11
7.508956572e-11
7.971460328e-11
7.79519825e-11
7.953670216e-11
8.422221901e-11
9.179797672e-11
9.848805241e-11
1.048956385e-10
1.104309411e-10
1.185406954e-10
1.268971638e-10
1.352652295e-10
1.384743101e-10
1.380926517e-10
1.329100653e-10
1.278517798e-10
1.20731507e-10
1.12766955e-10
9.845282727e-11
7.966313761e-11
5.521836689e-11
3.248094519e-11
1.351476478e-11
3.636479491e-12
-2.983476526e-12
-1.015109059e-11
-2.518140385e-11
-4.373956728e-11
-6.284932916e-11
-7.673420634e-11
-8.889372579e-11
-1.004223421e-10
-1.138880109e-10
-1.242908584e-10
-1.293568816e-10
-1.284969986e-10
-1.286478894e-10
-1.31609237e-10
-1.333638848e-10
-1.260123093e-10
-1.119847454e-10
-9.966823443e-11
-9.341199633e-11
-8.794415037e-11
-8.159202776e-11
-7.322138846e-11
-8.49326249e-11
-1.213420443e-10
-9.05881826e-11
-2.340263719e-11
-1.470133795e-12
2.158295126e-05
1.504611542e-05
-1.88833279e-06
9.421934292e-07
4.743681979e-08
4.275015797e-08
3.858970784e-08
3.474169308e-08
3.136148867e-08
2.814976222e-08
2.500913361e-08
2.186030379e-08
1.861911777e-08
1.52090077e-08
1.154706872e-08
7.554656474e-09
3.144779457e-09
-1.765216626e-09
-7.266772783e-09
-1.344715423e-08
-2.040554862e-08
-2.82408584e-08
-3.706621397e-08
-4.699300561e-08
-5.814132309e-08
-7.062384057e-08
-8.455995158e-08
-1.000656891e-07
-1.172712711e-07
-1.363055344e-07
-1.573012518e-07
-1.803680312e-07
-2.055981757e-07
-2.330559341e-07
-2.628051182e-07
-2.949053521e-07
-3.294176488e-07
-3.663633213e-07
-4.057085621e-07
-4.473407653e-07
-4.910959263e-07
-5.3676153e-07
-5.840806684e-07
-6.32701548e-07
-6.821455587e-07
-7.31772392e-07
-7.8079481e-07
-8.282742386e-07
-8.731175547e-07
-9.140260098e-07
-9.494611471e-07
-9.776241161e-07
-9.965075563e-07
-1.004004932e-06
-9.981603395e-07
-9.776343705e-07
-9.424480222e-07
-8.949691101e-07
-8.412606493e-07
-7.925032051e-07
-7.634313514e-07
-7.510468787e-07
-6.751351583e-07
-8.199900219e-08
1.676460243e-06
1.381694807e-05
1.857487484e-05
1.160126419e-05
3.09228546e-11
5.392379217e-11
6.168465056e-11
6.491170736e-11
6.913321437e-11
7.67182887e-11
8.573895718e-11
9.43304892e-11
1.006886862e-10
1.063155512e-10
1.121598077e-10
1.192603039e-10
1.25151363e-10
1.283658576e-10
1.270178314e-10
1.230142039e-10
1.17309807e-10
1.116752614e-10
1.039321235e-10
9.273942612e-11
7.594712168e-11
5.586488924e-11
3.499301154e-11
1.812277541e-11
5.698803139e-12
-3.51779634e-12
-1.512811657e-11
-3.043661213e-11
-4.78032653e-11
-6.145244865e-11
-7.095001168e-11
-7.901128403e-11
-9.0788915e-11
-1.05284796e-10
-1.182271254e-10
-1.239003588e-10
-1.237394327e-10
-1.230807205e-10
-1.256814567e-10
-1.261755543e-10
-1.187185449e-10
-1.055156851e-10
-9.577261845e-11
-9.13562738e-11
-8.793088257e-11
-8.216240663e-11
-7.725189044e-11
-8.014251766e-11
-8.614401196e-11
-6.324495467e-11
-1.859506034e-11
-6.631098778e-12
6.285861378e-08
3.926943265e-05
7.92190933e-06
-9.916701885e-08
4.935428096e-08
4.422302751e-08
3.968356252e-08
3.551351594e-08
3.186261427e-08
2.842531521e-08
2.510281628e-08
2.180478591e-08
1.844538978e-08
1.493746895e-08
1.119747407e-08
7.137416244e-09
2.671786003e-09
-2.28973705e-09
-7.834886351e-09
-1.405786102e-08
-2.105353625e-08
-2.892741826e-08
-3.778772686e-08
-4.775109368e-08
-5.893088807e-08
-7.144310042e-08
-8.539957792e-08
-1.00919856e-07
-1.181265398e-07
-1.371501206e-07
-1.581120199e-07
-1.811193624e-07
-2.062509647e-07
-2.335715885e-07
-2.631379395e-07
-2.950135785e-07
-3.29248125e-07
-3.658546892e-07
-4.047756591e-07
-4.458866631e-07
-4.890065752e-07
-5.339172904e-07
-5.803401397e-07
-6.27897351e-07
-6.760607638e-07
-7.241354863e-07
-7.712535584e-07
-8.163716509e-07
-8.582301963e-07
-8.952919012e-07
-9.256688701e-07
-9.470774737e-07
-9.568238687e-07
-9.518501493e-07
-9.289393657e-07
-8.851994157e-07
-8.189033747e-07
-7.30860621e-07
-6.271033171e-07
-5.239057909e-07
-4.491205003e-07
-4.353271999e-07
-3.50094063e-07
6.131675867e-07
2.5873649e-06
1.311903291e-05
1.321480102e-05
-2.244876051e-12
2.322125589e-11
4.206679188e-11
5.150599281e-11
5.654730827e-11
6.265727736e-11
7.139843143e-11
8.169507569e-11
9.076109129e-11
9.749928817e-11
1.022611145e-10
1.068333602e-10
1.116126244e-10
1.160223552e-10
1.180674389e-10
1.170866288e-10
1.132526733e-10
1.082845994e-10
1.027074738e-10
9.605760513e-11
8.625668299e-11
7.237004124e-11
5.49055933e-11
3.683439793e-11
2.059231221e-11
7.315257708e-12
-5.354456248e-12
-1.956350826e-11
-3.559374342e-11
-4.947214809e-11
-5.829282076e-11
-6.299450519e-11
-6.967439164e-11
-8.249482374e-11
-9.99820607e-11
-1.143011752e-10
-1.197540781e-10
-1.1767726e-10
-1.159641783e-10
-1.18186972e-10
-1.19574118e-10
-1.133161846e-10
-1.023158656e-10
-9.464031406e-11
-9.213892887e-11
-8.861465705e-11
-8.314917802e-11
-7.875218414e-11
-7.862946127e-11
-7.781144588e-11
-5.013048286e-11
-2.696802012e-11
4.643940141e-11
2.43209029e-11
2.565910674e-05
1.930469964e-05
1.345914689e-06
5.105278489e-08
4.545947552e-08
4.052790787e-08
3.603453751e-08
3.211514204e-08
2.84633108e-08
2.497037345e-08
2.154053022e-08
1.8078199e-08
1.449169806e-08
1.06891384e-08
6.580319672e-09
2.073626239e-09
-2.921410127e-09
-8.497116301e-09
-1.474658935e-08
-2.176901424e-08
-2.966825781e-08
-3.855586949e-08
-4.854494728e-08
-5.975025757e-08
-7.228290853e-08
-8.625534919e-08
-1.017823042e-07
-1.189860553e-07
-1.37990848e-07
-1.589145738e-07
-1.818550196e-07
-2.068886363e-07
-2.340751623e-07
-2.634741882e-07
-2.95145505e-07
-3.291344438e-07
-3.654393342e-07
-4.039916527e-07
-4.446563971e-07
-4.872533342e-07
-5.315629485e-07
-5.773031685e-07
-6.24078747e-07
-6.713388163e-07
-7.183568471e-07
-7.642260346e-07
-8.078379102e-07
-8.47823051e-07
-8.824610987e-07
-9.095753526e-07
-9.264329496e-07
-9.296380519e-07
-9.150733451e-07
-8.779776483e-07
-8.1329152e-07
-7.162676273e-07
-5.835393638e-07
-4.156963975e-07
-2.230179236e-07
-5.237495332e-08
-1.720722196e-08
-3.904294418e-07
-1.123865525e-06
3.828762108e-06
9.128679718e-06
1.340741881e-05
3.242208797e-12
2.43609889e-11
3.881364493e-11
4.668568281e-11
5.209804365e-11
5.87065968e-11
6.797523018e-11
7.842277468e-11
8.760896204e-11
9.403853537e-11
9.80597467e-11
1.011710015e-10
1.043627123e-10
1.073822664e-10
1.08922633e-10
1.080705172e-10
1.048545299e-10
1.004063641e-10
9.533176614e-11
8.933171987e-11
8.072933413e-11
6.859251839e-11
5.323198845e-11
3.678240057e-11
2.113929051e-11
6.761635327e-12
-7.621458487e-12
-2.294393215e-11
-3.759470096e-11
-4.799678047e-11
-5.244709879e-11
-5.466370054e-11
-6.162900228e-11
-7.730002729e-11
-9.734153134e-11
-1.12303816e-10
-1.156702657e-10
-1.109422385e-10
-1.075543256e-10
-1.105559798e-10
-1.141946941e-10
-1.110246001e-10
-1.023691203e-10
-9.597842543e-11
-9.277143381e-11
-8.814610803e-11
-8.191314256e-11
-7.862180251e-11
-7.632461649e-11
-7.038846806e-11
-5.350410358e-11
7.17888379e-13
3.01685617e-11
7.130559695e-12
-5.075268071e-06
4.179214391e-05
7.289694455e-06
5.245714318e-08
4.638169661e-08
4.105209277e-08
3.623728964e-08
3.20601577e-08
2.820860397e-08
2.456590671e-08
2.102558721e-08
1.74843207e-08
1.384169139e-08
1.000037115e-08
5.864081459e-09
1.338343148e-09
-3.671130227e-09
-9.25797277e-09
-1.551841412e-08
-2.255207854e-08
-3.04652009e-08
-3.936786195e-08
-4.937364135e-08
-6.059405189e-08
-7.313903084e-08
-8.71175685e-08
-1.026431278e-07
-1.19834257e-07
-1.388120165e-07
-1.596879198e-07
-1.825557019e-07
-2.074872707e-07
-2.345436368e-07
-2.637842547e-07
-2.952683216e-07
-3.290333528e-07
-3.650680153e-07
-4.032952499e-07
-4.435821108e-07
-4.857575407e-07
-5.296143203e-07
-5.748758925e-07
-6.211474465e-07
-6.678776457e-07
-7.143456388e-07
-7.59653544e-07
-8.026899712e-07
-8.420529714e-07
-8.759323397e-07
-9.019764591e-07
-9.17121206e-07
-9.173808002e-07
-8.976248594e-07
-8.514933589e-07
-7.715334654e-07
-6.495406191e-07
-4.767275648e-07
-2.416481156e-07
7.918589655e-08
5.610695843e-07
1.409602249e-06
3.080871966e-06
-6.592126435e-08
7.179376967e-06
-1.325926649e-08
2.865376581e-12
1.622665628e-11
2.913615907e-11
3.904529214e-11
4.548045189e-11
5.048265232e-11
5.685649366e-11
6.557377157e-11
7.547366412e-11
8.424621308e-11
9.028548473e-11
9.374769603e-11
9.586695387e-11
9.794496401e-11
1.000159553e-10
1.013499157e-10
1.008284471e-10
9.837396538e-11
9.433786467e-11
8.950920113e-11
8.342111795e-11
7.530135965e-11
6.405272267e-11
5.024176179e-11
3.515601866e-11
2.038515845e-11
5.944724775e-12
-8.823400896e-12
-2.382966425e-11
-3.648937676e-11
-4.370350751e-11
-4.558941681e-11
-4.765763421e-11
-5.720245666e-11
-7.622485504e-11
-9.79749711e-11
-1.113128378e-10
-1.108982917e-10
-1.025544568e-10
-9.829345566e-11
-1.032996538e-10
-1.109554449e-10
-1.115130304e-10
-1.047668678e-10
-9.733832385e-11
-9.17229864e-11
-8.548461631e-11
-7.959825064e-11
-7.771740205e-11
-7.648613694e-11
-7.200912639e-11
-5.527181572e-11
-2.277842204e-11
-3.899827395e-12
-1.747880428e-10
-1.005562317e-10
4.44676047e-05
-1.31910233e-10
5.347454529e-08
4.690266484e-08
4.117204647e-08
3.60448657e-08
3.162696603e-08
2.760024011e-08
2.383529985e-08
2.021514316e-08
1.662541666e-08
1.295745404e-08
9.106486448e-09
4.971073285e-09
4.5216006e-10
-4.547317969e-09
-1.012427912e-08
-1.637654743e-08
-2.340586159e-08
-3.131818772e-08
-4.022396366e-08
-5.023417453e-08
-6.145857448e-08
-7.400395074e-08
-8.797740539e-08
-1.034896709e-07
-1.206568972e-07
-1.395954564e-07
-1.604131346e-07
-1.831988664e-07
-2.080237781e-07
-2.349488042e-07
-2.640348269e-07
-2.953378669e-07
-3.288891796e-07
-3.646698506e-07
-4.026025825e-07
-4.425643249e-07
-4.844029931e-07
-5.279314475e-07
-5.728901795e-07
-6.189015442e-07
-6.654412903e-07
-7.118343308e-07
-7.572442413e-07
-8.006301288e-07
-8.406510563e-07
-8.755412735e-07
-9.029429101e-07
-9.196810838e-07
-9.214217995e-07
-9.022629395e-07
-8.543724313e-07
-7.67948312e-07
-6.320335102e-07
-4.373651406e-07
-1.81897837e-07
1.319185645e-07
5.290518242e-07
1.247437587e-06
3.21318604e-06
6.729716721e-06
1.753237038e-05
1.687410934e-05
4.074097765e-11
3.756032703e-11
3.868396683e-11
4.267039741e-11
4.64934422e-11
5.051101181e-11
5.609502523e-11
6.389964272e-11
7.277604933e-11
8.062538557e-11
8.602088485e-11
8.890674422e-11
9.062561493e-11
9.227641848e-11
9.431520659e-11
9.579206326e-11
9.586274998e-11
9.376488802e-11
9.001568323e-11
8.483642922e-11
7.851569609e-11
7.0119641e-11
5.93784105e-11
4.635640876e-11
3.253368224e-11
1.874002998e-11
5.273001221e-12
-8.498803197e-12
-2.170874709e-11
-3.209740836e-11
-3.737477376e-11
-3.924339365e-11
-4.375158867e-11
-5.711196431e-11
-7.893587211e-11
-1.002537388e-10
-1.099346492e-10
-1.046387527e-10
-9.331542083e-11
-8.947659063e-11
-9.805562167e-11
-1.100672691e-10
-1.135829108e-10
-1.069402122e-10
-9.739944524e-11
-8.926211185e-11
-8.172811736e-11
-7.727807977e-11
-7.73873254e-11
-7.923892002e-11
-7.540854162e-11
-6.679587964e-11
-4.390609514e-11
-1.118890199e-10
-1.542220838e-10
-4.280230655e-10
-3.348226191e-10
-2.152538733e-10
5.399591747e-08
4.691446245e-08
4.078786761e-08
3.536589039e-08
3.073483199e-08
2.656691879e-08
2.271876245e-08
1.905886082e-08
1.546120494e-08
1.180683307e-08
7.983452843e-09
3.883181058e-09
-5.974024065e-10
-5.559241529e-09
-1.110186408e-08
-1.732544432e-08
-2.433236504e-08
-3.222876967e-08
-4.112305435e-08
-5.112411222e-08
-6.233842701e-08
-7.487054261e-08
-8.88247525e-08
-1.043099151e-07
-1.214391333e-07
-1.40325492e-07
-1.610719932e-07
-1.837649018e-07
-2.084736089e-07
-2.35260224e-07
-2.641852131e-07
-2.953016497e-07
-3.286344018e-07
-3.641612712e-07
-4.018106713e-07
-4.414775807e-07
-4.830358719e-07
-5.263248658e-07
-5.71110869e-07
-6.170485132e-07
-6.636678382e-07
-7.103779894e-07
-7.564603492e-07
-8.010150318e-07
-8.428690199e-07
-8.804483963e-07
-9.116183715e-07
-9.334114813e-07
-9.415759035e-07
-9.298750871e-07
-8.891437585e-07
-8.061396119e-07
-6.629679357e-07
-4.402756033e-07
-1.307931951e-07
2.174195883e-07
4.336759261e-07
1.776470014e-07
1.803921436e-07
1.399461131e-05
2.487504724e-05
2.832057701e-05
7.490709899e-11
5.415302449e-11
4.671420912e-11
4.601736754e-11
4.801158853e-11
5.1309683e-11
5.617327027e-11
6.270940802e-11
7.006628121e-11
7.666548816e-11
8.130833787e-11
8.410861739e-11
8.595875577e-11
8.800640642e-11
9.025601196e-11
9.214147781e-11
9.235130315e-11
9.047708407e-11
8.636188654e-11
8.0733847e-11
7.354346088e-11
6.482000215e-11
5.409483734e-11
4.206607855e-11
2.952044309e-11
1.751378998e-11
5.734877912e-12
-5.991753961e-12
-1.730117066e-11
-2.615856861e-11
-3.161660578e-11
-3.589457993e-11
-4.451919713e-11
-6.144145733e-11
-8.377188187e-11
-1.017617091e-10
-1.059416735e-10
-9.632048682e-11
-8.413060479e-11
-8.290210906e-11
-9.534853208e-11
-1.104927528e-10
-1.151861674e-10
-1.074742714e-10
-9.536214626e-11
-8.524129684e-11
-7.89420781e-11
-7.724965766e-11
-8.099002966e-11
-8.463562288e-11
-8.345032505e-11
-7.564019186e-11
-6.462699477e-11
-9.337181505e-11
-2.463664286e-10
-3.072226816e-10
-2.77638081e-10
-2.03945666e-10
5.388928375e-08
4.629255169e-08
3.978193785e-08
3.409415429e-08
2.929007151e-08
2.502925943e-08
2.114964801e-08
1.750307512e-08
1.394930527e-08
1.035780408e-08
6.60736423e-09
2.583603819e-09
-1.822275728e-09
-6.71500107e-09
-1.219677809e-08
-1.836912559e-08
-2.533449554e-08
-3.319741948e-08
-4.206399074e-08
-5.203976616e-08
-6.322832314e-08
-7.573108172e-08
-8.965070006e-08
-1.050933477e-07
-1.221696315e-07
-1.409885088e-07
-1.616493645e-07
-1.842347297e-07
-2.088131112e-07
-2.354458393e-07
-2.641923412e-07
-2.951014102e-07
-3.281939596e-07
-3.634483873e-07
-4.008048146e-07
-4.401808271e-07
-4.814790233e-07
-5.245683912e-07
-5.69247446e-07
-6.152183385e-07
-6.620877354e-07
-7.093831275e-07
-7.565448076e-07
-8.028783736e-07
-8.47469984e-07
-8.890949516e-07
-9.260899719e-07
-9.561204115e-07
-9.757014542e-07
-9.793199017e-07
-9.577624235e-07
-8.948358022e-07
-7.610706668e-07
-5.027609607e-07
-2.605257043e-08
8.117820442e-07
2.231594273e-06
4.544126155e-06
4.110211791e-06
9.593814587e-06
3.593868141e-06
8.511055493e-11
7.324533182e-11
5.902158262e-11
5.08479449e-11
4.841311705e-11
4.949293706e-11
5.245044034e-11
5.662689075e-11
6.19152053e-11
6.764684873e-11
7.279432807e-11
7.671978475e-11
7.952655265e-11
8.208602522e-11
8.484028193e-11
8.777241272e-11
8.974393143e-11
8.988716432e-11
8.740664307e-11
8.274700417e-11
7.627628839e-11
6.865715194e-11
5.964975377e-11
4.946245505e-11
3.831416264e-11
2.739317937e-11
1.709103069e-11
7.45353659e-12
-2.402534249e-12
-1.219167155e-11
-2.108948236e-11
-2.85573935e-11
-3.673273503e-11
-4.931666583e-11
-6.779705189e-11
-8.773154311e-11
-1.001506255e-10
-9.872993385e-11
-8.669618606e-11
-7.642400941e-11
-7.958396766e-11
-9.588566314e-11
-1.122095171e-10
-1.153229149e-10
-1.049273978e-10
-9.112127699e-11
-8.211947387e-11
-7.888953091e-11
-8.163498063e-11
-8.841864311e-11
-9.334085695e-11
-9.097702227e-11
-8.628206325e-11
-8.199019822e-11
-1.054797723e-10
-1.717708283e-10
-2.563853032e-10
-2.313130608e-10
-1.674988061e-10
5.299735347e-08
4.48836376e-08
3.801458301e-08
3.210505214e-08
2.718569758e-08
2.289775765e-08
1.905608843e-08
1.549172741e-08
1.204739706e-08
8.579512345e-09
4.956781904e-09
1.057341986e-09
-3.232674692e-09
-8.021762129e-09
-1.341391219e-08
-1.951078155e-08
-2.641344784e-08
-3.422394233e-08
-4.304451947e-08
-5.297736547e-08
-6.412258365e-08
-7.657938926e-08
-9.044793321e-08
-1.058324447e-07
-1.228399012e-07
-1.415755441e-07
-1.621333601e-07
-1.845925775e-07
-2.090189511e-07
-2.354727218e-07
-2.640105842e-07
-2.946778658e-07
-3.274926037e-07
-3.624374068e-07
-3.994672297e-07
-4.385242056e-07
-4.795398623e-07
-5.224125575e-07
-5.669770146e-07
-6.129918382e-07
-6.601579094e-07
-7.081412639e-07
-7.56570611e-07
-8.049925148e-07
-8.528173505e-07
-8.992776021e-07
-9.43395352e-07
-9.838761015e-07
-1.018850598e-06
-1.045314852e-06
-1.057886005e-06
-1.045672989e-06
-9.844227233e-07
-8.168154549e-07
-4.079898508e-07
5.553383797e-07
2.721308676e-06
6.963959676e-06
3.756893784e-06
1.547498121e-05
6.779331966e-06
7.004668129e-11
6.879936098e-11
5.943411006e-11
5.219205592e-11
4.954499796e-11
5.079671689e-11
5.38630393e-11
5.759810401e-11
6.155488076e-11
6.553697407e-11
6.926855833e-11
7.263996106e-11
7.595884949e-11
7.942997944e-11
8.311285416e-11
8.618109114e-11
8.780277582e-11
8.694101196e-11
8.361263974e-11
7.809184567e-11
7.133863482e-11
6.360330323e-11
5.51269206e-11
4.564701224e-11
3.581967135e-11
2.622331213e-11
1.764717316e-11
9.473925776e-12
9.608114356e-13
-8.641929835e-12
-1.88829602e-11
-2.960699731e-11
-4.165822753e-11
-5.64724297e-11
-7.333854864e-11
-8.766853408e-11
-9.326834916e-11
-8.787690531e-11
-7.725715409e-11
-7.253346935e-11
-8.122703175e-11
-9.931290561e-11
-1.132701098e-10
-1.125565118e-10
-9.958505227e-11
-8.606352469e-11
-8.015075519e-11
-8.224994685e-11
-8.879915706e-11
-9.627046514e-11
-9.930536315e-11
-9.552042753e-11
-8.829159455e-11
-8.724146148e-11
-1.047061712e-10
-1.559383583e-10
-1.924287512e-10
-1.790282262e-10
-1.444154816e-10
5.112853628e-08
4.250781235e-08
3.531994398e-08
2.925392204e-08
2.430035443e-08
2.007489096e-08
1.636226697e-08
1.296835849e-08
9.715297327e-09
6.444560004e-09
3.013442237e-09
-7.069740185e-10
-4.835895885e-09
-9.484134188e-09
-1.475598882e-08
-2.075164902e-08
-2.756910946e-08
-3.530611456e-08
-4.406119751e-08
-5.393239168e-08
-6.501696715e-08
-7.741127964e-08
-9.121333748e-08
-1.065241481e-07
-1.234468397e-07
-1.420810296e-07
-1.625155905e-07
-1.848245696e-07
-2.090706338e-07
-2.35310808e-07
-2.635987882e-07
-2.939761443e-07
-3.264603351e-07
-3.610403202e-07
-3.976865594e-07
-4.363635588e-07
-4.770273364e-07
-5.196032773e-07
-5.63963168e-07
-6.099288829e-07
-6.573020975e-07
-7.058951543e-07
-7.555280122e-07
-8.059965967e-07
-8.570468424e-07
-9.083996612e-07
-9.598159966e-07
-1.011178886e-06
-1.062584897e-06
-1.114556251e-06
-1.168467186e-06
-1.22716403e-06
-1.295077464e-06
-1.373964594e-06
-1.437879152e-06
-1.347194691e-06
-5.89153896e-07
2.410947522e-06
1.804443805e-05
3.479180625e-05
3.059571058e-05
7.976689416e-11
7.293051447e-11
6.122376372e-11
5.32586922e-11
5.078477131e-11
5.230910421e-11
5.549290061e-11
5.868920101e-11
6.148017586e-11
6.399569186e-11
6.661618013e-11
6.977822888e-11
7.36159544e-11
7.799598011e-11
8.20305663e-11
8.479739739e-11
8.519398975e-11
8.303089199e-11
7.849601705e-11
7.263692194e-11
6.607830496e-11
5.930393018e-11
5.185177602e-11
4.365690325e-11
3.475884713e-11
2.619043583e-11
1.826296017e-11
1.074765556e-11
2.188334598e-12
-8.290616581e-12
-2.074705627e-11
-3.4291333e-11
-4.827336586e-11
-6.209951274e-11
-7.425255247e-11
-8.173594909e-11
-8.200399389e-11
-7.627634777e-11
-7.082998703e-11
-7.352204241e-11
-8.701652834e-11
-1.044209572e-10
-1.134279e-10
-1.072741712e-10
-9.219496381e-11
-8.106402257e-11
-8.070977225e-11
-8.761102637e-11
-9.601652069e-11
-1.01885217e-10
-1.020208657e-10
-9.482983359e-11
-8.646360567e-11
-8.57230739e-11
-9.911266005e-11
-1.279313762e-10
-1.573174073e-10
-1.489079078e-10
-1.20111451e-10
4.805014951e-08
3.894234065e-08
3.149999142e-08
2.53723361e-08
2.049787373e-08
1.645553355e-08
1.299158389e-08
9.879522503e-09
6.918066569e-09
3.931273079e-09
7.654101079e-10
-2.715832419e-09
-6.634877355e-09
-1.110294266e-08
-1.622251301e-08
-2.208987987e-08
-2.8798171e-08
-3.644041608e-08
-4.511006967e-08
-5.490179791e-08
-6.59093213e-08
-7.822645089e-08
-9.194770907e-08
-1.071701011e-07
-1.239912892e-07
-1.42504528e-07
-1.627917689e-07
-1.849215802e-07
-2.089516401e-07
-2.349355747e-07
-2.629230146e-07
-2.929526481e-07
-3.250415293e-07
-3.591848914e-07
-3.953661404e-07
-4.335670574e-07
-4.73762152e-07
-5.158984689e-07
-5.598836575e-07
-6.056021269e-07
-6.529557035e-07
-7.018948053e-07
-7.524175373e-07
-8.045454088e-07
-8.583289109e-07
-9.139154422e-07
-9.716847298e-07
-1.032421281e-06
-1.097600135e-06
-1.169999784e-06
-1.255135813e-06
-1.364420891e-06
-1.521919936e-06
-1.7756899e-06
-2.21361774e-06
-2.928680097e-06
-3.779587916e-06
-3.318643267e-06
1.399502295e-05
3.375440226e-05
3.529329661e-05
9.567725486e-11
7.662808637e-11
6.239586874e-11
5.406699396e-11
5.172526364e-11
5.360313771e-11
5.688054891e-11
5.970451584e-11
6.154102218e-11
6.29618877e-11
6.496363181e-11
6.821321658e-11
7.274062496e-11
7.755766645e-11
8.139853765e-11
8.28983625e-11
8.1649286e-11
7.785355271e-11
7.266559978e-11
6.70376335e-11
6.175888262e-11
5.645954846e-11
5.058055684e-11
4.329605397e-11
3.499072269e-11
2.632437046e-11
1.819829221e-11
1.009368499e-11
8.079658854e-13
-1.094986181e-11
-2.497832211e-11
-3.976062318e-11
-5.311931517e-11
-6.33369081e-11