/*--------------------------------*- C++ -*----------------------------------*\
  =========                 |
  \\      /  F ield         | OpenFOAM: The Open Source CFD Toolbox
   \\    /   O peration     | Website:  https://openfoam.org
    \\  /    A nd           | Version:  6
     \\/     M anipulation  |
\*---------------------------------------------------------------------------*/
FoamFile
{
    version     2.0;
    format      ascii;
    class       volVectorField;
    location    "0.0046";
    object      U;
}
// * * * * * * * * * * * * * * * * * * * * * * * * * * * * * * * * * * * * * //

dimensions      [0 1 -1 0 0 0 0];

internalField   nonuniform List<vector> 
9600
(
(0 -8.861659821e-11 9.920141977e-12)
(0 -8.865270023e-11 9.976274051e-12)
(0 -8.876342088e-11 1.010026144e-11)
(0 -8.892194022e-11 1.028438594e-11)
(0 -8.913289291e-11 1.051936251e-11)
(0 -8.939911979e-11 1.079515745e-11)
(0 -8.972408506e-11 1.110170551e-11)
(0 -9.01114011e-11 1.142842121e-11)
(0 -9.056482826e-11 1.176489952e-11)
(0 -9.108821306e-11 1.210045249e-11)
(0 -9.168548078e-11 1.242479896e-11)
(0 -9.236066064e-11 1.272757431e-11)
(0 -9.311796305e-11 1.299900706e-11)
(0 -9.396188326e-11 1.322940121e-11)
(0 -9.489733427e-11 1.340980775e-11)
(0 -9.592977768e-11 1.353149791e-11)
(0 -9.706536538e-11 1.358664367e-11)
(0 -9.831108456e-11 1.35677795e-11)
(0 -9.96749379e-11 1.346847211e-11)
(0 -1.011661454e-10 1.328274791e-11)
(0 -1.027953711e-10 1.300574832e-11)
(0 -1.045749334e-10 1.263315006e-11)
(0 -1.065189887e-10 1.216184327e-11)
(0 -1.086436795e-10 1.158936359e-11)
(0 -1.109672906e-10 1.09145583e-11)
(0 -1.135104424e-10 1.013694394e-11)
(0 -1.162963408e-10 9.257270209e-12)
(0 -1.193510279e-10 8.276781133e-12)
(0 -1.227035532e-10 7.197754513e-12)
(0 -1.263859741e-10 6.022806428e-12)
(0 -1.304332031e-10 4.755486095e-12)
(0 -1.348827898e-10 3.399532362e-12)
(0 -1.397747396e-10 1.959277886e-12)
(0 -1.451513435e-10 4.386390482e-13)
(0 -1.51056829e-10 -1.158650278e-12)
(0 -1.575366005e-10 -2.829995602e-12)
(0 -1.646359804e-10 -4.573470816e-12)
(0 -1.723985632e-10 -6.388517173e-12)
(0 -1.808643179e-10 -8.275312415e-12)
(0 -1.900673437e-10 -1.023530463e-11)
(0 -2.000329102e-10 -1.227014652e-11)
(0 -2.107734123e-10 -1.43813101e-11)
(0 -2.222832e-10 -1.656765775e-11)
(0 -2.345326609e-10 -1.882343832e-11)
(0 -2.474620229e-10 -2.113412728e-11)
(0 -2.60975118e-10 -2.347247958e-11)
(0 -2.749329852e-10 -2.579207295e-11)
(0 -2.891472185e-10 -2.802072647e-11)
(0 -3.033735197e-10 -3.00516815e-11)
(0 -3.173068073e-10 -3.173621529e-11)
(0 -3.305796763e-10 -3.28774342e-11)
(0 -3.427652118e-10 -3.32310116e-11)
(0 -3.533835495e-10 -3.251485636e-11)
(0 -3.61909747e-10 -3.04359742e-11)
(0 -3.677781673e-10 -2.67373219e-11)
(0 -3.703752604e-10 -2.12674548e-11)
(0 -3.690136192e-10 -1.405961959e-11)
(0 -3.628973928e-10 -5.396844904e-12)
(0 -3.511331308e-10 4.176559037e-12)
(0 -3.328992295e-10 1.390172138e-11)
(0 -3.078587171e-10 2.27473619e-11)
(0 -2.761462129e-10 2.872052199e-11)
(0 -2.346745226e-10 2.707296081e-11)
(0 -1.608304226e-10 9.153481724e-12)
(0 1.241998742e-11 -1.726632465e-11)
(0 3.860977075e-10 1.285956199e-11)
(0 -1.003885613e-11 2.129191356e-10)
(0 -5.764991578e-12 -3.438962443e-11)
(0 9.219007419e-12 -8.888172304e-12)
(0 9.285332224e-12 6.805594545e-13)
(0 9.081172903e-12 5.983647344e-12)
(0 1.110100198e-11 9.07903661e-12)
(0 1.369264044e-11 7.857148753e-12)
(0 1.491259002e-11 5.635339637e-12)
(0 1.532677029e-11 4.223790426e-12)
(0 1.580532796e-11 3.211843284e-12)
(0 1.652767832e-11 2.059701724e-12)
(0 1.732333537e-11 5.006147443e-13)
(0 1.794239277e-11 -1.520378921e-12)
(0 1.81557722e-11 -3.927471191e-12)
(0 1.780607266e-11 -6.530245408e-12)
(0 1.68480322e-11 -9.08649212e-12)
(0 1.534247996e-11 -1.138679638e-11)
(0 1.341594366e-11 -1.329165674e-11)
(0 1.122079036e-11 -1.473528443e-11)
(0 8.903458979e-12 -1.572100428e-11)
(0 6.57946406e-12 -1.630516349e-11)
(0 4.318835025e-12 -1.657281057e-11)
(0 2.144146031e-12 -1.661103261e-11)
(0 3.869743903e-14 -1.648850815e-11)
(0 -2.039398934e-12 -1.624184871e-11)
(0 -4.140559048e-12 -1.587010321e-11)
(0 -6.306337745e-12 -1.533463005e-11)
(0 -8.552833416e-12 -1.456597295e-11)
(0 -1.085684021e-11 -1.347700233e-11)
(0 -1.314819149e-11 -1.19844427e-11)
(0 -1.531240948e-11 -1.003478686e-11)
(0 -1.720612939e-11 -7.62907575e-12)
(0 -1.868273001e-11 -4.8374261e-12)
(0 -1.962425425e-11 -1.803244561e-12)
(0 -1.998068856e-11 1.262259607e-12)
(0 -1.980942804e-11 4.116829025e-12)
(0 -1.9280324e-11 6.571621793e-12)
(0 -1.863470347e-11 8.552151532e-12)
(0 -1.813446501e-11 1.01135634e-11)
(0 -1.796252016e-11 1.151937964e-11)
(0 -1.79536068e-11 1.330115382e-11)
(0 -1.725597753e-11 1.585486815e-11)
(0 -1.532396973e-11 1.735656459e-11)
(0 -1.410552592e-11 1.448608593e-11)
(0 -1.522483834e-11 9.326276775e-12)
(0 -1.611682396e-11 -2.323069314e-13)
(0 -1.979461544e-12 -2.590897908e-11)
(0 5.982299893e-12 2.170438904e-10)
(0 -6.869988776e-10 -6.677298923e-10)
(0 -5.633574618e-10 -1.256232457e-09)
(0 -4.157918291e-10 -1.609179487e-09)
(0 -2.145010967e-10 -1.608038811e-09)
(0 9.843123441e-12 -1.101488605e-09)
(0 1.663989642e-11 1.06046019e-22)
(0 -8.754704251e-11 1.05744062e-11)
(0 -8.758943105e-11 1.063589828e-11)
(0 -8.771252545e-11 1.077088093e-11)
(0 -8.789004162e-11 1.097114372e-11)
(0 -8.812673184e-11 1.12263468e-11)
(0 -8.842555202e-11 1.152578488e-11)
(0 -8.879004798e-11 1.185824942e-11)
(0 -8.922388109e-11 1.221242495e-11)
(0 -8.973082225e-11 1.257672143e-11)
(0 -9.031468884e-11 1.293970562e-11)
(0 -9.097933929e-11 1.328990736e-11)
(0 -9.172870366e-11 1.361623373e-11)
(0 -9.256686238e-11 1.390774608e-11)
(0 -9.349814916e-11 1.415406008e-11)
(0 -9.452727755e-11 1.434510875e-11)
(0 -9.565946488e-11 1.447154747e-11)
(0 -9.690057117e-11 1.452451722e-11)
(0 -9.825725079e-11 1.449604818e-11)
(0 -9.973714232e-11 1.437879832e-11)
(0 -1.013490778e-10 1.416643512e-11)
(0 -1.031033043e-10 1.385335349e-11)
(0 -1.050116814e-10 1.343506706e-11)
(0 -1.070878513e-10 1.290794792e-11)
(0 -1.093473964e-10 1.226963518e-11)
(0 -1.118080317e-10 1.151874541e-11)
(0 -1.144898524e-10 1.065520098e-11)
(0 -1.174156262e-10 9.679824352e-12)
(0 -1.206110514e-10 8.594580099e-12)
(0 -1.241048943e-10 7.402151591e-12)
(0 -1.279289662e-10 6.106233213e-12)
(0 -1.321180082e-10 4.711125625e-12)
(0 -1.367095971e-10 3.221912179e-12)
(0 -1.417441271e-10 1.643770164e-12)
(0 -1.472647489e-10 -1.819436084e-14)
(0 -1.533170198e-10 -1.759852375e-12)
(0 -1.599480739e-10 -3.578214835e-12)
(0 -1.672053252e-10 -5.472210198e-12)
(0 -1.751348706e-10 -7.442789559e-12)
(0 -1.837796591e-10 -9.493797166e-12)
(0 -1.931771842e-10 -1.163215184e-11)
(0 -2.033562395e-10 -1.386847649e-11)
(0 -2.143324115e-10 -1.621655692e-11)
(0 -2.261023739e-10 -1.869285354e-11)
(0 -2.386373842e-10 -2.131461603e-11)
(0 -2.518763358e-10 -2.40977893e-11)
(0 -2.65718458e-10 -2.705298286e-11)
(0 -2.80015536e-10 -3.018035645e-11)
(0 -2.94563872e-10 -3.346171795e-11)
(0 -3.090971358e-10 -3.685131608e-11)
(0 -3.232824459e-10 -4.026497659e-11)
(0 -3.367226644e-10 -4.357093944e-11)
(0 -3.489676083e-10 -4.658445605e-11)
(0 -3.59536057e-10 -4.907323589e-11)
(0 -3.679485184e-10 -5.078118212e-11)
(0 -3.737656771e-10 -5.14819859e-11)
(0 -3.766190849e-10 -5.106715749e-11)
(0 -3.762159242e-10 -4.966084039e-11)
(0 -3.723158395e-10 -4.771519602e-11)
(0 -3.647569503e-10 -4.597277782e-11)
(0 -3.538539905e-10 -4.509977771e-11)
(0 -3.419681619e-10 -4.487775298e-11)
(0 -3.372434479e-10 -4.343166527e-11)
(0 -3.587031069e-10 -3.948015797e-11)
(0 -4.216429526e-10 -4.592127101e-11)
(0 -4.735661755e-10 -6.745836568e-11)
(0 -3.30622283e-11 1.452032979e-21)
(0 4.162279222e-11 3.180920631e-10)
(0 9.853079657e-11 2.13873195e-12)
(0 3.421338104e-11 3.921453104e-12)
(0 1.685646739e-11 5.166988e-12)
(0 1.216837887e-11 6.394923402e-12)
(0 1.175173457e-11 7.069947544e-12)
(0 1.265659912e-11 6.374847718e-12)
(0 1.349884916e-11 5.060488996e-12)
(0 1.408296334e-11 3.805592803e-12)
(0 1.460153761e-11 2.638600232e-12)
(0 1.513553201e-11 1.382795381e-12)
(0 1.562164182e-11 -9.765644949e-14)
(0 1.593119364e-11 -1.843986828e-12)
(0 1.593236825e-11 -3.811704842e-12)
(0 1.553070822e-11 -5.888028248e-12)
(0 1.469340519e-11 -7.926881355e-12)
(0 1.345015225e-11 -9.791493572e-12)
(0 1.187564247e-11 -1.138056024e-11)
(0 1.006675919e-11 -1.263814656e-11)
(0 8.121390023e-12 -1.355267451e-11)
(0 6.121494682e-12 -1.414833138e-11)
(0 4.122727797e-12 -1.447022576e-11)
(0 2.151673837e-12 -1.456852228e-11)
(0 2.096985477e-13 -1.448426929e-11)
(0 -1.718649161e-12 -1.424005882e-11)
(0 -3.654733594e-12 -1.383503758e-11)
(0 -5.614082739e-12 -1.324532507e-11)
(0 -7.595482e-12 -1.242880641e-11)
(0 -9.572693827e-12 -1.133520372e-11)
(0 -1.149096425e-11 -9.919868365e-12)
(0 -1.327027039e-11 -8.160085737e-12)
(0 -1.481625587e-11 -6.06922487e-12)
(0 -1.603753946e-11 -3.70527126e-12)
(0 -1.686702096e-11 -1.170776644e-12)
(0 -1.72844488e-11 1.397146509e-12)
(0 -1.733356269e-11 3.853472089e-12)
(0 -1.712082368e-11 6.087100183e-12)
(0 -1.679096567e-11 8.055382817e-12)
(0 -1.648669262e-11 9.800174194e-12)
(0 -1.628718599e-11 1.145573836e-11)
(0 -1.613019423e-11 1.319344602e-11)
(0 -1.584534111e-11 1.497482445e-11)
(0 -1.565179481e-11 1.610618077e-11)
(0 -1.695169968e-11 1.581271283e-11)
(0 -2.269732886e-11 1.485949864e-11)
(0 -4.124869314e-11 1.367367255e-11)
(0 -1.067158945e-10 1.151154339e-11)
(0 -5.010343784e-11 3.261087838e-10)
(0 2.8937473e-11 1.625615877e-21)
(0 -7.343307173e-11 -1.011866895e-09)
(0 -2.264867852e-10 -1.595696282e-09)
(0 -1.820308245e-10 -1.768686809e-09)
(0 1.921852835e-11 -1.285455598e-09)
(0 1.943112781e-11 1.33075464e-22)
(0 -8.639277888e-11 1.126934937e-11)
(0 -8.644195912e-11 1.13369392e-11)
(0 -8.657842133e-11 1.148456079e-11)
(0 -8.677647597e-11 1.170322753e-11)
(0 -8.704101698e-11 1.198171362e-11)
(0 -8.737513544e-11 1.230832987e-11)
(0 -8.778247156e-11 1.267088002e-11)
(0 -8.826674533e-11 1.305699385e-11)
(0 -8.883174449e-11 1.345405024e-11)
(0 -8.948126375e-11 1.38495426e-11)
(0 -9.021909906e-11 1.423096907e-11)
(0 -9.104908584e-11 1.458617845e-11)
(0 -9.197517513e-11 1.490323213e-11)
(0 -9.300153679e-11 1.517073288e-11)
(0 -9.413267441e-11 1.53776779e-11)
(0 -9.537354449e-11 1.551379224e-11)
(0 -9.672968917e-11 1.556938236e-11)
(0 -9.820739708e-11 1.553566624e-11)
(0 -9.981389763e-11 1.540460403e-11)
(0 -1.015575765e-10 1.516920988e-11)
(0 -1.034481867e-10 1.482336989e-11)
(0 -1.054970305e-10 1.436216922e-11)
(0 -1.077171196e-10 1.378173409e-11)
(0 -1.101233454e-10 1.307957009e-11)
(0 -1.12732708e-10 1.22543689e-11)
(0 -1.155646167e-10 1.130626431e-11)
(0 -1.186412169e-10 1.023653253e-11)
(0 -1.219876485e-10 9.047776775e-12)
(0 -1.256321567e-10 7.743619435e-12)
(0 -1.296060655e-10 6.328916514e-12)
(0 -1.339437352e-10 4.809415537e-12)
(0 -1.386826284e-10 3.191783308e-12)
(0 -1.438634793e-10 1.482918444e-12)
(0 -1.495303632e-10 -3.103983463e-13)
(0 -1.557303874e-10 -2.182440449e-12)
(0 -1.625128714e-10 -4.128961562e-12)
(0 -1.699281345e-10 -6.148163451e-12)
(0 -1.780260931e-10 -8.241294679e-12)
(0 -1.868546466e-10 -1.041396177e-11)
(0 -1.964574698e-10 -1.267704202e-11)
(0 -2.068706918e-10 -1.504800242e-11)
(0 -2.18118187e-10 -1.755139956e-11)
(0 -2.302056152e-10 -2.021944455e-11)
(0 -2.431135523e-10 -2.309147597e-11)
(0 -2.567898827e-10 -2.62130231e-11)
(0 -2.711413282e-10 -2.963285603e-11)
(0 -2.860239511e-10 -3.339822992e-11)
(0 -3.012330792e-10 -3.754658976e-11)
(0 -3.164943556e-10 -4.20943105e-11)
(0 -3.31459041e-10 -4.702162179e-11)
(0 -3.457077785e-10 -5.225566229e-11)
(0 -3.587678465e-10 -5.765330913e-11)
(0 -3.701496416e-10 -6.299089093e-11)
(0 -3.794067726e-10 -6.79710838e-11)
(0 -3.862169738e-10 -7.226477537e-11)
(0 -3.904654696e-10 -7.560680962e-11)
(0 -3.922872044e-10 -7.795929823e-11)
(0 -3.919904016e-10 -7.970821614e-11)
(0 -3.8978144e-10 -8.171091928e-11)
(0 -3.854252199e-10 -8.46534511e-11)
(0 -3.788040185e-10 -8.633919773e-11)
(0 -3.754367061e-10 -7.46682631e-11)
(0 -4.110840568e-10 -1.570532849e-11)
(0 -5.834346388e-10 1.424252673e-10)
(0 -1.253220033e-09 4.105467264e-10)
(0 -7.991413402e-11 -2.354691184e-10)
(0 -8.391254111e-11 1.344312465e-10)
(0 2.058178566e-12 4.292493363e-11)
(0 1.22472634e-11 1.726742451e-11)
(0 1.17588025e-11 9.670217021e-12)
(0 1.098413244e-11 7.35833245e-12)
(0 1.108092629e-11 6.430294689e-12)
(0 1.168318189e-11 5.511293032e-12)
(0 1.23433351e-11 4.425623013e-12)
(0 1.290488153e-11 3.298990455e-12)
(0 1.338253054e-11 2.153533369e-12)
(0 1.379142164e-11 9.299277276e-13)
(0 1.409655316e-11 -4.307921587e-13)
(0 1.422834438e-11 -1.946867864e-12)
(0 1.411173078e-11 -3.588128607e-12)
(0 1.369089615e-11 -5.28400335e-12)
(0 1.294456687e-11 -6.942362731e-12)
(0 1.188880107e-11 -8.472393593e-12)
(0 1.056929068e-11 -9.801567294e-12)
(0 9.048676084e-12 -1.08843656e-11)
(0 7.393274156e-12 -1.170342754e-11)
(0 5.661912815e-12 -1.226515458e-11)
(0 3.89864412e-12 -1.259111961e-11)
(0 2.130102501e-12 -1.270830137e-11)
(0 3.671608993e-13 -1.26399208e-11)
(0 -1.390167228e-12 -1.239897257e-11)
(0 -3.145825293e-12 -1.198469143e-11)
(0 -4.900106577e-12 -1.13827651e-11)
(0 -6.642712069e-12 -1.056877537e-11)
(0 -8.347902155e-12 -9.515038016e-12)
(0 -9.973073506e-12 -8.199569725e-12)
(0 -1.146176599e-11 -6.616043765e-12)
(0 -1.275131491e-11 -4.781963338e-12)
(0 -1.378428179e-11 -2.742944292e-12)
(0 -1.452183648e-11 -5.709606592e-13)
(0 -1.495643982e-11 1.644475092e-12)
(0 -1.511947436e-11 3.813539644e-12)
(0 -1.507841327e-11 5.868576797e-12)
(0 -1.492162945e-11 7.782615827e-12)
(0 -1.473410947e-11 9.576517977e-12)
(0 -1.456924833e-11 1.131054555e-11)
(0 -1.443452071e-11 1.304270382e-11)
(0 -1.434324278e-11 1.474550772e-11)
(0 -1.448608135e-11 1.628116091e-11)
(0 -1.535220804e-11 1.780033623e-11)
(0 -1.736387861e-11 2.062579105e-11)
(0 -1.946477914e-11 2.855636256e-11)
(0 -1.153813034e-11 5.416555472e-11)
(0 7.048317227e-11 1.448176684e-10)
(0 7.189741207e-11 -2.277863305e-10)
(0 8.366776488e-10 -2.562111997e-10)
(0 -8.992406553e-11 -1.268425836e-09)
(0 -2.285789087e-10 -1.836275256e-09)
(0 -3.038393553e-12 -1.480496722e-09)
(0 2.343267139e-11 1.727449287e-22)
(0 -8.514535173e-11 1.200512626e-11)
(0 -8.520184697e-11 1.207973066e-11)
(0 -8.535270865e-11 1.224183203e-11)
(0 -8.557289297e-11 1.248156437e-11)
(0 -8.586746195e-11 1.278676339e-11)
(0 -8.623966417e-11 1.314463762e-11)
(0 -8.66932524e-11 1.354193989e-11)
(0 -8.723201738e-11 1.396512063e-11)
(0 -8.785977341e-11 1.440046092e-11)
(0 -8.858030063e-11 1.483425443e-11)
(0 -8.939734129e-11 1.525290394e-11)
(0 -9.031464016e-11 1.564307689e-11)
(0 -9.133602259e-11 1.599177709e-11)
(0 -9.24654897e-11 1.628648101e-11)
(0 -9.370732525e-11 1.651520361e-11)
(0 -9.506620553e-11 1.666663666e-11)
(0 -9.654732972e-11 1.673021622e-11)
(0 -9.815658407e-11 1.669625353e-11)
(0 -9.990074101e-11 1.655598481e-11)
(0 -1.017876728e-10 1.630168821e-11)
(0 -1.038265502e-10 1.592673155e-11)
(0 -1.060280082e-10 1.54257088e-11)
(0 -1.084042969e-10 1.479451393e-11)
(0 -1.109694656e-10 1.403048367e-11)
(0 -1.137396275e-10 1.313243475e-11)
(0 -1.167333016e-10 1.210073141e-11)
(0 -1.199717648e-10 1.093723535e-11)
(0 -1.234793034e-10 9.645321743e-12)
(0 -1.272833065e-10 8.229828067e-12)
(0 -1.314142647e-10 6.697070578e-12)
(0 -1.359058311e-10 5.054702773e-12)
(0 -1.407950685e-10 3.311481843e-12)
(0 -1.46122815e-10 1.476745487e-12)
(0 -1.519338949e-10 -4.402081756e-13)
(0 -1.58276891e-10 -2.430911139e-12)
(0 -1.652034274e-10 -4.488506715e-12)
(0 -1.727671709e-10 -6.608752369e-12)
(0 -1.810227669e-10 -8.791220338e-12)
(0 -1.900245917e-10 -1.10409029e-11)
(0 -1.998248261e-10 -1.336997978e-11)
(0 -2.104702981e-10 -1.579972388e-11)
(0 -2.219978772e-10 -1.836224229e-11)
(0 -2.344285771e-10 -2.110209384e-11)
(0 -2.477605843e-10 -2.407743877e-11)
(0 -2.619611265e-10 -2.736041206e-11)
(0 -2.769567791e-10 -3.103576605e-11)
(0 -2.926218914e-10 -3.519683975e-11)
(0 -3.087655998e-10 -3.993747729e-11)
(0 -3.251192566e-10 -4.533877362e-11)
(0 -3.413276872e-10 -5.144921918e-11)
(0 -3.569493831e-10 -5.825735981e-11)
(0 -3.714731569e-10 -6.565727189e-11)
(0 -3.843617892e-10 -7.341123299e-11)
(0 -3.95134361e-10 -8.112042213e-11)
(0 -4.034944574e-10 -8.822582106e-11)
(0 -4.094956748e-10 -9.407979495e-11)
(0 -4.13690489e-10 -9.815468407e-11)
(0 -4.170864838e-10 -1.004646068e-10)
(0 -4.204636532e-10 -1.022010732e-10)
(0 -4.219283723e-10 -1.061360051e-10)
(0 -4.106234037e-10 -1.149824372e-10)
(0 -3.541206047e-10 -1.235615778e-10)
(0 -1.887771106e-10 -9.820213153e-11)
(0 1.972717724e-10 3.292763838e-11)
(0 8.652466214e-11 2.202346501e-10)
(0 2.53566024e-11 -3.232445876e-10)
(0 -7.798935227e-11 1.41707196e-11)
(0 -1.863302566e-11 1.786209204e-11)
(0 9.586643795e-13 1.255286513e-11)
(0 6.947375334e-12 8.887883202e-12)
(0 8.928456534e-12 6.937701216e-12)
(0 9.90469515e-12 5.781456322e-12)
(0 1.065192745e-11 4.814325623e-12)
(0 1.128654658e-11 3.831648128e-12)
(0 1.181087369e-11 2.811159923e-12)
(0 1.223247488e-11 1.74652284e-12)
(0 1.255120648e-11 6.140881646e-13)
(0 1.274484622e-11 -6.086961565e-13)
(0 1.277385719e-11 -1.924666948e-12)
(0 1.259523276e-11 -3.310080636e-12)
(0 1.21764741e-11 -4.717614241e-12)
(0 1.150501494e-11 -6.086324783e-12)
(0 1.059094768e-11 -7.354245724e-12)
(0 9.46367046e-12 -8.469036489e-12)
(0 8.164898948e-12 -9.3943177e-12)
(0 6.740601046e-12 -1.011148666e-11)
(0 5.233802604e-12 -1.061761836e-11)
(0 3.679581007e-12 -1.092067747e-11)
(0 2.102872654e-12 -1.103350598e-11)
(0 5.190273464e-13 -1.096809665e-11)
(0 -1.06341979e-12 -1.073121218e-11)
(0 -2.638526122e-12 -1.032206749e-11)
(0 -4.198166685e-12 -9.732346454e-12)
(0 -5.727754918e-12 -8.948595015e-12)
(0 -7.203488176e-12 -7.956631581e-12)
(0 -8.591970003e-12 -6.747310543e-12)
(0 -9.852664003e-12 -5.322459796e-12)
(0 -1.094315639e-11 -3.69953266e-12)
(0 -1.182653678e-11 -1.913439896e-12)
(0 -1.247960158e-11 -1.446988508e-14)
(0 -1.289994849e-11 1.938292143e-12)
(0 -1.310946098e-11 3.887698419e-12)
(0 -1.31517475e-11 5.791082309e-12)
(0 -1.308302448e-11 7.629979459e-12)
(0 -1.29587629e-11 9.412779421e-12)
(0 -1.282100015e-11 1.116732159e-11)
(0 -1.269523205e-11 1.292148993e-11)
(0 -1.260688401e-11 1.468349577e-11)
(0 -1.25969663e-11 1.647276231e-11)
(0 -1.260706953e-11 1.848186154e-11)
(0 -1.194130255e-11 2.128730227e-11)
(0 -7.708929434e-12 2.576021146e-11)
(0 9.545411575e-12 3.177680562e-11)
(0 6.595087319e-11 2.87759482e-11)
(0 -3.986777971e-11 -3.070259066e-10)
(0 -9.420744984e-11 2.284649104e-10)
(0 -7.159919312e-10 -9.86815591e-10)
(0 -5.106127782e-10 -1.954381626e-09)
(0 -7.859109557e-11 -1.750004393e-09)
(0 2.948422228e-11 2.346862854e-22)
(0 -8.379561239e-11 1.278137375e-11)
(0 -8.385996376e-11 1.286406851e-11)
(0 -8.402628285e-11 1.304272979e-11)
(0 -8.427023142e-11 1.330657923e-11)
(0 -8.459706685e-11 1.36423642e-11)
(0 -8.50102213e-11 1.403614182e-11)
(0 -8.551357837e-11 1.447345465e-11)
(0 -8.61110153e-11 1.493951867e-11)
(0 -8.680638647e-11 1.541935509e-11)
(0 -8.760346864e-11 1.589800327e-11)
(0 -8.850596096e-11 1.636061131e-11)
(0 -8.951752661e-11 1.679261905e-11)
(0 -9.064186733e-11 1.717982093e-11)
(0 -9.188281323e-11 1.750853234e-11)
(0 -9.324441816e-11 1.776564467e-11)
(0 -9.473106136e-11 1.79387922e-11)
(0 -9.634757408e-11 1.80164057e-11)
(0 -9.809940599e-11 1.798787127e-11)
(0 -9.99928229e-11 1.784357059e-11)
(0 -1.020351148e-10 1.757503326e-11)
(0 -1.042347781e-10 1.717498542e-11)
(0 -1.066016627e-10 1.663752879e-11)
(0 -1.091471154e-10 1.595821591e-11)
(0 -1.118841765e-10 1.513423484e-11)
(0 -1.148278705e-10 1.416445267e-11)
(0 -1.179955795e-10 1.304953874e-11)
(0 -1.214074041e-10 1.179194669e-11)
(0 -1.250864047e-10 1.039600943e-11)
(0 -1.290586906e-10 8.867921277e-12)
(0 -1.333534647e-10 7.215802845e-12)
(0 -1.380032123e-10 5.449542438e-12)
(0 -1.430441373e-10 3.58056799e-12)
(0 -1.485167154e-10 1.621296358e-12)
(0 -1.544660469e-10 -4.154631353e-13)
(0 -1.609417502e-10 -2.517334211e-12)
(0 -1.679974347e-10 -4.673220439e-12)
(0 -1.756900426e-10 -6.874528421e-12)
(0 -1.840792589e-10 -9.116675675e-12)
(0 -1.932267759e-10 -1.140116548e-11)
(0 -2.031948308e-10 -1.373791694e-11)
(0 -2.140434748e-10 -1.614796232e-11)
(0 -2.258264096e-10 -1.866620428e-11)
(0 -2.385855356e-10 -2.134440523e-11)
(0 -2.523442485e-10 -2.425397534e-11)
(0 -2.670990903e-10 -2.748826493e-11)
(0 -2.82809001e-10 -3.116320005e-11)
(0 -2.993815523e-10 -3.541516813e-11)
(0 -3.166562968e-10 -4.039421323e-11)
(0 -3.343866002e-10 -4.625052163e-11)
(0 -3.522228042e-10 -5.311092631e-11)
(0 -3.697018037e-10 -6.104194445e-11)
(0 -3.862520534e-10 -6.999578365e-11)
(0 -4.012285766e-10 -7.973857596e-11)
(0 -4.139983941e-10 -8.97651021e-11)
(0 -4.24102919e-10 -9.921752175e-11)
(0 -4.315289554e-10 -1.068554558e-10)
(0 -4.371047791e-10 -1.111886124e-10)
(0 -4.42947055e-10 -1.109970822e-10)
(0 -4.525031697e-10 -1.065999421e-10)
(0 -4.686851911e-10 -1.02041392e-10)
(0 -4.869219656e-10 -1.068693701e-10)
(0 -4.778897637e-10 -1.318790911e-10)
(0 -3.741660448e-10 -1.49506347e-10)
(0 -2.574671309e-11 1.172363848e-21)
(0 7.476161024e-11 3.142146395e-10)
(0 1.120281333e-10 -8.656179923e-11)
(0 1.121277535e-11 -1.834768974e-11)
(0 4.403240962e-13 1.799573268e-12)
(0 3.273054574e-12 6.193826544e-12)
(0 6.143638597e-12 6.390552368e-12)
(0 7.877705564e-12 5.7229723e-12)
(0 8.957550703e-12 4.943391137e-12)
(0 9.7333737e-12 4.132814697e-12)
(0 1.03401694e-11 3.275410455e-12)
(0 1.081975624e-11 2.367382916e-12)
(0 1.118545878e-11 1.407197068e-12)
(0 1.143620264e-11 3.884487586e-13)
(0 1.155779805e-11 -6.935656953e-13)
(0 1.152695991e-11 -1.833190476e-12)
(0 1.131878348e-11 -3.010068361e-12)
(0 1.091465201e-11 -4.19021932e-12)
(0 1.030793539e-11 -5.331228892e-12)
(0 9.506089362e-12 -6.389374711e-12)
(0 8.529218702e-12 -7.32610656e-12)
(0 7.406225913e-12 -8.112431969e-12)
(0 6.169973495e-12 -8.730553287e-12)
(0 4.852722012e-12 -9.17308119e-12)
(0 3.482756497e-12 -9.440347975e-12)
(0 2.082683315e-12 -9.536862908e-12)
(0 6.694547021e-13 -9.467708707e-12)
(0 -7.441380646e-13 -9.235758943e-12)
(0 -2.146959566e-12 -8.840101499e-12)
(0 -3.526634107e-12 -8.276052696e-12)
(0 -4.866997198e-12 -7.536661692e-12)
(0 -6.146617683e-12 -6.615554812e-12)
(0 -7.338901725e-12 -5.510474187e-12)
(0 -8.41398811e-12 -4.226813315e-12)
(0 -9.342295006e-12 -2.780110169e-12)
(0 -1.009921902e-11 -1.196672329e-12)
(0 -1.067010445e-11 4.883578653e-13)
(0 -1.105427152e-11 2.235568514e-12)
(0 -1.12666842e-11 4.007963328e-12)
(0 -1.133613224e-11 5.778131511e-12)
(0 -1.129993234e-11 7.533506612e-12)
(0 -1.119676735e-11 9.277397338e-12)
(0 -1.106053782e-11 1.102461135e-11)
(0 -1.091834652e-11 1.279257976e-11)
(0 -1.079197041e-11 1.459435234e-11)
(0 -1.068771559e-11 1.644462597e-11)
(0 -1.053766809e-11 1.836715959e-11)
(0 -1.00855287e-11 2.028145967e-11)
(0 -8.9752758e-12 2.142056594e-11)
(0 -8.522393592e-12 1.840573663e-11)
(0 -2.233817622e-11 -4.464266944e-13)
(0 -1.264198227e-10 -6.790568262e-11)
(0 -9.098029269e-11 3.309166131e-10)
(0 1.751645098e-11 1.425474956e-21)
(0 -2.909707343e-10 -1.838379582e-09)
(0 3.127406156e-12 -2.034319004e-09)
(0 3.933080626e-11 3.429468253e-22)
(0 -8.233368178e-11 1.359709843e-11)
(0 -8.240643783e-11 1.368909694e-11)
(0 -8.258929224e-11 1.388670899e-11)
(0 -8.285868045e-11 1.417812725e-11)
(0 -8.322008236e-11 1.454891594e-11)
(0 -8.367713936e-11 1.498384393e-11)
(0 -8.423388884e-11 1.546713802e-11)
(0 -8.48943128e-11 1.598263658e-11)
(0 -8.566232209e-11 1.651399526e-11)
(0 -8.65417056e-11 1.704485966e-11)
(0 -8.753613213e-11 1.755902442e-11)
(0 -8.86491933e-11 1.804057281e-11)
(0 -8.988447382e-11 1.847400508e-11)
(0 -9.124563171e-11 1.884435913e-11)
(0 -9.273648415e-11 1.913732942e-11)
(0 -9.436110064e-11 1.933938419e-11)
(0 -9.612392562e-11 1.94378789e-11)
(0 -9.802994221e-11 1.942116515e-11)
(0 -1.000848659e-10 1.927869801e-11)
(0 -1.022953386e-10 1.900114678e-11)
(0 -1.046690911e-10 1.858052332e-11)
(0 -1.072150699e-10 1.801032616e-11)
(0 -1.099435724e-10 1.728569903e-11)
(0 -1.128664481e-10 1.640358409e-11)
(0 -1.159974091e-10 1.536285896e-11)
(0 -1.193524152e-10 1.416444786e-11)
(0 -1.229500313e-10 1.281142772e-11)
(0 -1.268116538e-10 1.130913306e-11)
(0 -1.309616059e-10 9.665261321e-12)
(0 -1.354272476e-10 7.889922754e-12)
(0 -1.402392996e-10 5.995567372e-12)
(0 -1.454324582e-10 3.996725023e-12)
(0 -1.510461119e-10 1.909562834e-12)
(0 -1.571248267e-10 -2.487041384e-13)
(0 -1.637183942e-10 -2.460528348e-12)
(0 -1.708815774e-10 -4.708955298e-12)
(0 -1.786738972e-10 -6.978911545e-12)
(0 -1.871596277e-10 -9.259006631e-12)
(0 -1.964076934e-10 -1.15438845e-11)
(0 -2.064908464e-10 -1.383707686e-11)
(0 -2.174836275e-10 -1.615430538e-11)
(0 -2.29459018e-10 -1.85272652e-11)
(0 -2.424838904e-10 -2.100791322e-11)
(0 -2.566130942e-10 -2.367312069e-11)
(0 -2.718814499e-10 -2.662918997e-11)
(0 -2.882925216e-10 -3.001532459e-11)
(0 -3.058030939e-10 -3.400465816e-11)
(0 -3.243028105e-10 -3.880084603e-11)
(0 -3.435891879e-10 -4.462716346e-11)
(0 -3.633393071e-10 -5.170346096e-11)
(0 -3.830817574e-10 -6.020448455e-11)
(0 -4.021768842e-10 -7.019168626e-11)
(0 -4.198199381e-10 -8.150986395e-11)
(0 -4.350909957e-10 -9.364041923e-11)
(0 -4.470929665e-10 -1.05508394e-10)
(0 -4.552531621e-10 -1.152609663e-10)
(0 -4.599173462e-10 -1.20094909e-10)
(0 -4.633922175e-10 -1.16374436e-10)
(0 -4.712980666e-10 -1.006435182e-10)
(0 -4.92646638e-10 -7.223019162e-11)
(0 -5.345858204e-10 -3.736590234e-11)
(0 -5.756067865e-10 -5.411310488e-12)
(0 -5.913528258e-10 8.782187632e-12)
(0 -8.379155798e-11 -1.78858403e-11)
(0 -7.604955423e-11 9.642667454e-11)
(0 1.478805334e-11 3.123743534e-12)
(0 1.037202008e-11 -2.799587661e-12)
(0 5.90849065e-12 1.489820728e-12)
(0 5.549643485e-12 4.032125217e-12)
(0 6.47652109e-12 4.757372154e-12)
(0 7.481295302e-12 4.620131974e-12)
(0 8.314537548e-12 4.136230366e-12)
(0 8.983946766e-12 3.498063278e-12)
(0 9.521114795e-12 2.769717563e-12)
(0 9.942660308e-12 1.975672176e-12)
(0 1.025354073e-11 1.126298667e-12)
(0 1.045044372e-11 2.259217615e-13)
(0 1.052320699e-11 -7.210035775e-13)
(0 1.045735453e-11 -1.704629062e-12)
(0 1.023820391e-11 -2.706960778e-12)
(0 9.855313564e-12 -3.702129363e-12)
(0 9.305859554e-12 -4.65916849e-12)
(0 8.596070011e-12 -5.546056985e-12)
(0 7.740613201e-12 -6.333697716e-12)
(0 6.760452222e-12 -6.998797025e-12)
(0 5.679951824e-12 -7.525212962e-12)
(0 4.524007916e-12 -7.90373814e-12)
(0 3.315799289e-12 -8.130690954e-12)
(0 2.075511922e-12 -8.205817932e-12)
(0 8.201313111e-13 -8.130120835e-12)
(0 -4.358125819e-13 -7.904074993e-12)
(0 -1.678819873e-12 -7.526630792e-12)
(0 -2.894726879e-12 -6.995168189e-12)
(0 -4.067257034e-12 -6.306451657e-12)
(0 -5.177300667e-12 -5.458367272e-12)
(0 -6.203228506e-12 -4.452079749e-12)
(0 -7.122299986e-12 -3.294042524e-12)
(0 -7.913015403e-12 -1.99727851e-12)
(0 -8.558068746e-12 -5.813740502e-13)
(0 -9.047360732e-12 9.291055432e-13)
(0 -9.380343025e-12 2.507757753e-12)
(0 -9.566897987e-12 4.130542023e-12)
(0 -9.626204214e-12 5.780065254e-12)
(0 -9.583758649e-12 7.448620486e-12)
(0 -9.467658162e-12 9.13881573e-12)
(0 -9.305817724e-12 1.086127106e-11)
(0 -9.125491045e-12 1.262996089e-11)
(0 -8.9548378e-12 1.445677344e-11)
(0 -8.824159048e-12 1.634426594e-11)
(0 -8.770235833e-12 1.826071866e-11)
(0 -8.887896205e-12 2.005080302e-11)
(0 -9.584652477e-12 2.123509638e-11)
(0 -1.232158107e-11 2.08721479e-11)
(0 -2.036054585e-11 1.893889847e-11)
(0 -3.049851976e-11 2.692698066e-11)
(0 4.971064912e-11 1.204348323e-10)
(0 6.708958329e-11 7.807297871e-13)
(0 3.148462595e-11 -1.459435274e-09)
(0 1.553824013e-11 -2.322040568e-09)
(0 5.701791853e-11 5.557464239e-22)
(0 -8.07488982e-11 1.44504914e-11)
(0 -8.083061908e-11 1.455319333e-11)
(0 -8.103110816e-11 1.47724754e-11)
(0 -8.132764792e-11 1.509540088e-11)
(0 -8.172597399e-11 1.550620529e-11)
(0 -8.222996699e-11 1.598824441e-11)
(0 -8.284384199e-11 1.65242694e-11)
(0 -8.357170643e-11 1.709661161e-11)
(0 -8.441754719e-11 1.768740323e-11)
(0 -8.538518301e-11 1.827877572e-11)
(0 -8.647826854e-11 1.885302672e-11)
(0 -8.770033652e-11 1.939277869e-11)
(0 -8.905486221e-11 1.9881112e-11)
(0 -9.054533579e-11 2.030170003e-11)
(0 -9.217533717e-11 2.06389256e-11)
(0 -9.394862206e-11 2.087800806e-11)
(0 -9.586923888e-11 2.100511095e-11)
(0 -9.794168586e-11 2.100746229e-11)
(0 -1.001710934e-10 2.087346362e-11)
(0 -1.025633992e-10 2.059282489e-11)
(0 -1.051254854e-10 2.015670682e-11)
(0 -1.07865283e-10 1.955789696e-11)
(0 -1.107918936e-10 1.879098829e-11)
(0 -1.139157905e-10 1.785257197e-11)
(0 -1.17249133e-10 1.674140762e-11)
(0 -1.208061472e-10 1.545860217e-11)
(0 -1.246034655e-10 1.400777653e-11)
(0 -1.286603355e-10 1.23952597e-11)
(0 -1.329987265e-10 1.063025803e-11)
(0 -1.376435104e-10 8.724975375e-12)
(0 -1.426229167e-10 6.694589594e-12)
(0 -1.479692937e-10 4.557076749e-12)
(0 -1.537199533e-10 2.332869058e-12)
(0 -1.599177699e-10 4.440739536e-14)
(0 -1.666114061e-10 -2.284465187e-12)
(0 -1.73855391e-10 -4.629362197e-12)
(0 -1.817104284e-10 -6.96667653e-12)
(0 -1.902440433e-10 -9.275475844e-12)
(0 -1.995311937e-10 -1.154003424e-11)
(0 -2.096542255e-10 -1.37529532e-11)
(0 -2.207017746e-10 -1.591894483e-11)
(0 -2.327666144e-10 -1.805939931e-11)
(0 -2.45942525e-10 -2.021792073e-11)
(0 -2.603198323e-10 -2.246677811e-11)
(0 -2.759785991e-10 -2.49139551e-11)
(0 -2.92977988e-10 -2.771004044e-11)
(0 -3.113402289e-10 -3.105380259e-11)
(0 -3.310277284e-10 -3.519448317e-11)
(0 -3.519119037e-10 -4.042750312e-11)
(0 -3.737326302e-10 -4.707797754e-11)
(0 -3.960489062e-10 -5.546368631e-11)
(0 -4.181849879e-10 -6.582593414e-11)
(0 -4.391811895e-10 -7.821296565e-11)
(0 -4.577657416e-10 -9.229572021e-11)
(0 -4.723803335e-10 -1.070900365e-10)
(0 -4.813308363e-10 -1.205511497e-10)
(0 -4.832265256e-10 -1.290003258e-10)
(0 -4.780521332e-10 -1.264383885e-10)
(0 -4.688742952e-10 -1.041942308e-10)
(0 -4.625428668e-10 -5.310998727e-11)
(0 -4.563306617e-10 2.377458949e-11)
(0 -3.990334565e-10 1.013151437e-10)
(0 5.812657458e-11 1.551069276e-22)
(0 7.06799613e-11 9.80148837e-12)
(0 1.975877885e-11 1.024155836e-11)
(0 1.280187094e-11 5.429410932e-12)
(0 9.578852554e-12 2.535539744e-12)
(0 7.272036991e-12 2.926993725e-12)
(0 6.540606005e-12 3.687340786e-12)
(0 6.731645353e-12 3.986572195e-12)
(0 7.256563775e-12 3.863868887e-12)