/*--------------------------------*- C++ -*----------------------------------*\
  =========                 |
  \\      /  F ield         | OpenFOAM: The Open Source CFD Toolbox
   \\    /   O peration     | Website:  https://openfoam.org
    \\  /    A nd           | Version:  10
     \\/     M anipulation  |
\*---------------------------------------------------------------------------*/
FoamFile
{
    format      ascii;
    class       volVectorField;
    location    "0.0004";
    object      Marangoni;
}
// * * * * * * * * * * * * * * * * * * * * * * * * * * * * * * * * * * * * * //

dimensions      [1 -2 -2 0 0 0 0];

internalField   nonuniform List<vector> 
16000
(
(-7142624.41 -6281498.284 -7157460.552)
(-16544184.92 -10541150.83 -10844026.92)
(-3638535.863 -1888565.628 -2535695.147)
(-398968.5365 -62205.38613 -229550.5379)
(-7111.543717 -6931.669398 -12700.18727)
(-41544.74099 -2129.602808 -20952.20801)
(-7832.915649 -32.60062708 -2039.528752)
(-10239.19553 1695.34059 -2109.292021)
(-13003.9308 2076.827373 -2138.674931)
(-12912.92698 -27.7202994 -1062.664282)
(-9358.815957 -3249.865021 -52.80972237)
(-4689.496615 -3091.294367 -1438.553252)
(-4841.973138 -1156.279463 -1802.585051)
(-4648.644231 178.2951073 -2044.221564)
(-1052.132714 673.6051105 -816.4617463)
(-4724.195 -948.5636281 -11053.12938)
(-1128.848948 -365.9908289 -2042.085176)
(-2352.071352 256.564385 -2806.68313)
(-1326.744506 -545.6085318 -1798.840486)
(105.8679326 -613.4069666 -1016.479081)
(-106.3736109 -613.2893016 -1016.410982)
(1326.428683 -545.1946399 -1796.663986)
(2353.396004 258.618915 -2807.086121)
(1130.608879 -364.579689 -2042.469042)
(4698.314423 -948.3895194 -11000.10254)
(1054.836945 674.5675196 -825.1845876)
(4635.486796 185.9227719 -2041.080461)
(4798.8677 -1192.851723 -1799.167612)
(4736.11155 -3099.462826 -1405.269577)
(9376.439138 -3203.028022 -66.76393749)
(12855.2321 -33.53031807 -1058.442259)
(12975.99813 2069.328452 -2128.395116)
(10210.88302 1705.300032 -2107.339136)
(7809.279965 -31.68532643 -2033.473454)
(42149.41858 -2124.703127 -21265.2876)
(7141.532351 -6935.986978 -12706.04827)
(397305.582 -62318.49268 -228479.9452)
(3645080.596 -1907228.461 -2560444.675)
(16580976.79 -10464423.64 -10860414.24)
(7153189.093 -6202311.882 -7172628.072)
(-6089280.049 -8162814.47 -6112964.176)
(-40471506.64 -35948107.96 -19272359.98)
(-38309839.2 -18450077.44 -25923512.1)
(-16253363.4 -2124438.691 -17166996.09)
(-9359044.731 -189216.059 -10982949.87)
(-10438470.71 -38796.58777 -6685148.003)
(-17280839.28 -45476.51229 -7719378.161)
(-27382256.72 -507.6615701 -9073223.037)
(-36755929.31 -699.6855585 -9097202.82)
(-37934810.17 30.20740357 -7344723.468)
(-35518411.95 703.9388703 -6987414.61)
(-32029361.45 5512.85868 -6450937.59)
(-27063314.36 2765.669478 -6028052.066)
(-20450447.22 5516.872181 -6726582.149)
(-8703295.756 14561.80817 -7954757.799)
(-866626.4444 -3167.10501 -9650183.447)
(1731965.405 5356.511951 -9286652.668)
(709615.3219 2191.943061 -8535593.557)
(-413455.7486 -926.9738625 -7600156.217)
(-140512.5719 -1460.183304 -6261645.316)
(141176.3836 -1461.093411 -6261172.481)
(414759.6926 -928.9956844 -7597407.762)
(-706589.8423 2190.092715 -8533589.197)
(-1730703.2 5345.07947 -9284635.768)
(861947.1323 -3108.969775 -9649513.787)
(8692844.8 14483.73326 -7956291.177)
(20446061.93 5512.960005 -6726368.093)
(27059223.38 2769.277326 -6027144.793)
(32038939.9 5500.819345 -6452046.426)
(35543168.11 707.2638867 -6992064.966)
(37943047.71 29.53024366 -7348874.165)
(36754784.79 -705.516922 -9110468.388)
(27397072.8 -510.0419651 -9087405.382)
(17322829.49 -46068.70863 -7752017.224)
(10477747.6 -39166.64336 -6694132.884)
(9381472.879 -188248.6239 -10975809.8)
(16269716.27 -2133233.976 -17166398.55)
(38309129.93 -18630243.12 -26121300.43)
(40324079.26 -36114049.97 -19417143.66)
(5973620.054 -7974905.39 -6002908.579)
(496795.5935 3026250.626 430561.5922)
(-22302282.62 21183548.91 -12568696.84)
(-28110360.83 -9885953.691 -22316770.87)
(-5120123.076 -6447478.738 -29679418.54)
(-16540174.73 -6152696.527 -30925627.74)
(-36609979.5 -522389.9091 -19008260.56)
(-52779630.53 8634539.559 -15069017.94)
(-65437215.33 10992056.93 -12697780.26)
(-74325718.15 6326336.252 -8846849.445)
(-77903877.97 792749.3178 -5255277.179)
(-74887445.04 -2642928.818 -3773289.106)
(-77994087.79 -4826862.613 -4667530.065)
(-75655805.31 -4279771.968 -6804734.923)
(-62614596.97 -6655181.469 -13931609.15)
(-32897518.02 -7317063.202 -29178246.16)
(-2511306.614 -6041216.792 -39874769.44)
(10639316.7 -4215456.383 -41779878.51)
(7246523.645 -4065250.652 -45929828.95)
(-879962.5557 -4114504.704 -49238638.84)
(-216472.5282 -3269479.642 -48451223.71)
(224568.5489 -3269358.379 -48450295.46)
(892030.7238 -4113281.552 -49237314.91)
(-7228875.348 -4065749.976 -45931564.32)
(-10637622.84 -4214265.566 -41784303.04)
(2491469.014 -6039394.151 -39878241.16)
(32871295.69 -7318102.171 -29199207.54)
(62608738.41 -6657664.604 -13937836.92)
(75662245.19 -4286121.72 -6806099.384)
(77992585.23 -4849783.713 -4659182.353)
(74916210.5 -2634872.977 -3765820.834)
(77912977.46 809935.4288 -5259778.905)
(74304140.72 6300514.437 -8862171.019)
(65427282.26 10954210.92 -12711547.48)
(52924894.67 8629446.006 -15151288.99)
(36727226.82 -492238.2816 -19017636.17)
(16537998.79 -6165762.394 -30852053.33)
(5138209.348 -6459848.259 -29599655.16)
(27932655.54 -9906675.105 -22463603.77)
(22084842.04 21353432.15 -12566134.06)
(-491517.1201 2886871.698 418099.6742)
(419219.4301 20775877.07 401636.5073)
(13218469.43 42682622.91 9884198.93)
(14081593.58 13643609.01 -8624338.348)
(-1051286.178 14016681.94 -9925693.026)
(-5650450.574 10652528.15 -30268128.27)
(-8848997.556 10193260.12 -32318262.69)
(-17653003.86 14531377.97 -34434558.97)
(-32639481.16 19555211 -36924976.65)
(-51783067.26 32808937.16 -37931141.19)
(-60971231.28 31776024.54 -34349659.87)
(-66865134.24 31072027.64 -35313851.74)
(-77033347.22 25942785.71 -32446288.61)
(-82970548.83 15409970.69 -29325735.71)
(-82985699.9 11507980.23 -23102392.15)
(-38605574.96 3044232.957 -22529395.07)
(7057606.477 2926869.642 -39335530.89)
(18876781.12 2467875.885 -32682482.4)
(13875806.19 1780791.316 -43200603.53)
(-216784.6994 375517.9026 -48469026.16)
(-57165.20959 -516166.8186 -48530778.82)
(64943.16736 -516675.9394 -48529651.91)
(228408.7171 373581.5017 -48469095.28)
(-13853588.09 1777812.636 -43203492.65)
(-18876503.39 2467117.568 -32692130.91)
(-7077864.197 2926693.55 -39333172.85)
(38569932.75 3042037.864 -22559873.51)
(82977725.58 11505606.68 -23090102.39)
(82991540.81 15407532.39 -29331057.91)
(77030353.42 25939596.3 -32442625.33)
(66908494.32 31165914.73 -35303207.72)
(60997427.62 31822466.72 -34386009.08)
(51727298.6 32751617.39 -37952417.53)
(32455351.88 19351516.9 -36932855.97)
(17684364.63 14478983.24 -34265310.16)
(9228932.165 10247142.04 -32322414.07)
(5657741.029 10795593.18 -30321147.95)
(1039218.011 14050156.19 -9977067.715)
(-14085292.88 13818959.36 -8745430.824)
(-13301489.73 42767546.95 9745404.818)
(-422993.4383 20409403.95 372327.5452)
(-30166381.6 1581076.351 -30199469.98)
(-42381741.05 1779026.406 -24729365.48)
(-27332422.67 1230699.216 -30099499.87)
(-54794859.24 6191781.626 -59836268.26)
(-59628583.09 10158393.69 -55906796.84)
(-58621836.36 27200032.02 -83120414.94)
(-85610695.9 35912567.98 -79703476.7)
(-99797942.42 34344943.89 -70444379.84)
(-101338989.7 25373821.98 -63854829.06)
(-94621567.49 20131307.11 -61101673.51)
(-93492565.6 22890919.88 -64836059.07)
(-86746325.54 27770813.52 -66633662.33)
(-81020883 33024906.16 -72522581.82)
(-70397646.09 38496663.19 -80603587.02)
(-49571418.71 45664474.11 -90930050.6)
(-30628930.12 50221801.11 -94969840.74)
(-19928156.07 54426848.98 -95827201.19)
(-14582071.03 54758996.37 -94638364.92)
(-10294508.88 58173185.08 -97693738.71)
(-3502348.88 60006998.42 -99756076.65)
(3503980.881 60007206.78 -99756240.25)
(10297536.72 58172608.8 -97696160.13)
(14586834.68 54758917.31 -94639437.31)
(19930244.32 54424581.11 -95825213.11)
(30624173.38 50223070.71 -94970705.27)
(49563652.53 45667445.6 -90934675.49)
(70400313.6 38503134.97 -80608392.41)
(81025606.66 33029350.24 -72530571.99)
(86748420.37 27772812.73 -66629904.46)
(93519689.46 22902170.18 -64844321.99)
(94676021.78 20134580.19 -61121979.98)
(101288873.7 25341576.83 -63876530.91)
(99970076.42 34465924.75 -70408034.41)
(85792001.53 36173579.89 -79863645.93)
(58564887.75 27083594.09 -83087207.97)
(59459298.83 10088873.92 -55656533.08)
(54693135.7 6179891.01 -59950852)
(27327823.08 1232644.333 -30081538.02)
(42324916.68 1785002.051 -24857576.9)
(30093245.11 1584875.826 -30190434.92)
(-9078271.04 6.57812158 -9078674.687)
(-21572369.15 17.66411787 -10996612.65)
(-30873834.83 19.76172273 -13135191.02)
(-41407261.25 7.83960981 -18034627.27)
(-47853346.51 3.494042056 -17791786.83)
(-52680484.45 9.989013395 -20149485.53)
(-58040334.35 12.38006595 -22002350.53)
(-61600848.57 10.68315719 -22958559.14)
(-64247771.29 9.421205153 -24190733.98)
(-67006549.08 11.92348374 -26140998.4)
(-66837228.36 13.27345455 -30738045.47)
(-62255605.93 12.10147251 -32680717.78)
(-55719374.49 12.86689871 -34070489.77)
(-47323572.19 14.40556981 -35088347.34)
(-38098425.99 15.44433333 -36914696.2)
(-30039355.3 15.97780229 -39074800.67)
(-23508766.89 16.01712463 -40765851.03)
(-17256990.48 15.74508588 -41961925.25)
(-10585806.52 15.57823229 -42660345.67)
(-3539856.081 15.39922088 -42968168.22)
(3539932.783 15.36433168 -42968225.58)
(10586109.33 15.76051303 -42660555.99)
(17257719.78 16.0555921 -41962274.02)
(23509520.6 16.4218455 -40766599.5)
(30039195.28 16.8739664 -39075566.89)
(38097703.35 16.4438213 -36915776.71)
(47323390.12 15.61856012 -35088614.99)
(55721794.55 15.2239862 -34071703.44)
(62257238.39 14.22431885 -32680235.71)
(66845778.57 9.047388081 -30739869.12)
(67015270.5 7.576309837 -26143947.79)
(64257976.33 9.773043933 -24196936.44)
(61610212.64 10.53370056 -22961369.24)
(58151088.79 11.60853434 -22047190.1)
(52672718.24 11.14430581 -20170398.89)
(47834525.57 7.292428763 -17753453.06)
(41405987.47 4.343481189 -18040427.19)
(30845766.65 5.839541034 -13151210.66)
(21559710.71 7.619735267 -11005486.28)
(9076372.666 5.938952223 -9074707.767)
(-2.870389426 1.710207331 -2.870749553)
(-6.366450628 1.947522158 -2.659304693)
(-3.380852562 1.916247192 -1.04734877)
(-1.061802189 1.248191871 -0.2988775548)
(-4.092273382 2.441552295 -1.076422757)
(-6.15459087 2.980275969 -1.625170596)
(-4.497518169 2.954431893 -1.240765538)
(-3.340660211 2.853106877 -0.9720191926)
(-2.379681044 2.619777643 -0.7387932072)
(-2.742475455 3.188325654 -0.9194014783)
(-1.176104672 2.012108928 -0.4446196779)
(-0.7087211265 1.517721353 -0.3071102579)
(-0.8704757612 2.137932121 -0.4404914721)
(-0.8522752989 2.483223882 -0.5133498569)
(-0.868667789 2.976887245 -0.640064422)
(-0.7924322892 3.259444661 -0.7305732364)
(-0.696917132 3.558861596 -0.8314633413)
(-0.4966863091 3.517357886 -0.8280432229)
(-0.3136528094 3.644000235 -0.869722573)
(-0.1080423608 3.734547585 -0.8987660861)
(0.1050841978 3.654145028 -0.8741495602)
(0.3472966324 3.94287565 -0.9630058284)
(0.6351558513 4.242627281 -1.058879179)
(0.9364171617 4.436072862 -1.117191715)
(1.360524683 4.843974751 -1.254317238)
(1.800861436 5.045845954 -1.326945255)
(2.357312639 5.171451266 -1.419882309)
(3.059330179 5.195558905 -1.548125571)
(4.477205115 5.438672167 -1.94007954)
(4.966326605 4.930884544 -1.877436892)
(3.499659567 3.641743933 -1.17321204)
(3.264693124 3.121285134 -1.013536396)
(3.264801293 2.821689243 -0.9499265852)
(4.238337016 2.890441996 -1.169416042)
(5.032811966 2.820979286 -1.32954563)
(5.161546439 2.600395933 -1.357998942)
(2.503431527 1.879594316 -0.7051452247)
(2.315287954 1.736383792 -0.7178060119)
(0.9294723621 1.289489411 -0.3883541649)
(1.218915219 1.566701581 -1.21878692)
(-3.324522747e-08 1.992779553e-07 -3.324782189e-08)
(-1.434024038e-07 3.282825323e-07 -5.416077029e-08)
(-1.827795374e-07 2.993976379e-07 -4.931382732e-08)
(-3.577010817e-07 5.164909683e-07 -8.470436264e-08)
(-7.661081775e-07 1.076848902e-06 -1.73706934e-07)
(-6.286525448e-07 9.010923714e-07 -1.444919698e-07)
(-6.412806721e-07 9.58110432e-07 -1.54909052e-07)
(-7.208403798e-07 1.146977619e-06 -1.862099914e-07)
(-9.66467051e-07 1.67615083e-06 -2.70024212e-07)
(-1.536418438e-06 2.969784215e-06 -4.695655872e-07)
(-1.285871261e-06 2.836202295e-06 -4.393286942e-07)
(-2.042718443e-06 5.223840772e-06 -7.94728715e-07)
(-1.097818463e-06 3.285762755e-06 -4.94033686e-07)
(-6.585451649e-07 2.324034726e-06 -3.476466432e-07)
(-9.766345042e-07 4.107957909e-06 -6.167642836e-07)
(-1.318246411e-06 6.764299011e-06 -1.023465509e-06)
(-8.93847082e-07 5.861815831e-06 -8.922991299e-07)
(-6.408674892e-07 5.851811162e-06 -8.933609805e-07)
(-4.318004594e-07 6.549842423e-06 -1.000699893e-06)
(-1.277133307e-07 5.803417027e-06 -8.867026187e-07)
(1.068412387e-07 4.854848968e-06 -7.417710289e-07)
(2.080713998e-07 3.156137104e-06 -4.822016657e-07)
(5.940769233e-07 5.424516708e-06 -8.281283656e-07)
(4.679256378e-07 3.068611273e-06 -4.671115126e-07)
(9.475708458e-07 4.862216253e-06 -7.356742148e-07)
(8.990806285e-07 3.781726933e-06 -5.677854442e-07)
(1.068687965e-06 3.771440758e-06 -5.641604192e-07)
(1.258045091e-06 3.765322684e-06 -5.661367325e-07)
(1.394134852e-06 3.565218018e-06 -5.423913131e-07)
(1.270416915e-06 2.80208958e-06 -4.340437099e-07)
(8.195443103e-07 1.584073972e-06 -2.50468073e-07)
(3.036041282e-07 5.265106472e-07 -8.482329541e-08)
(1.312940321e-06 2.088821977e-06 -3.391583042e-07)
(6.90717891e-07 1.031663584e-06 -1.668586979e-07)
(6.704304466e-07 9.605502098e-07 -1.541173585e-07)
(1.00477446e-06 1.411924374e-06 -2.278758692e-07)
(2.653855816e-07 3.831393652e-07 -6.28636422e-08)
(1.430597947e-07 2.343323459e-07 -3.860701754e-08)
(1.711181458e-07 3.91750417e-07 -6.463380275e-08)
(8.00237973e-08 4.796641229e-07 -8.002692485e-08)
(-2.774254231e-08 1.630887613e-07 -2.774339783e-08)
(-1.775478957e-07 3.908482751e-07 -6.507852165e-08)
(-2.44045107e-07 3.896530793e-07 -6.301601312e-08)
(-2.322204354e-07 3.341215292e-07 -5.213733598e-08)
(-4.237351039e-07 6.063318795e-07 -9.127757196e-08)
(-3.663717446e-07 5.470807779e-07 -7.993858611e-08)
(-3.989586856e-07 6.372534045e-07 -9.104968536e-08)
(-7.45016913e-07 1.295411071e-06 -1.81276556e-07)
(-6.592987983e-07 1.267381814e-06 -1.733373689e-07)
(-4.791081445e-07 1.033027415e-06 -1.378408211e-07)
(-1.28094304e-06 3.142298846e-06 -4.098219686e-07)
(-9.401936699e-07 2.653667536e-06 -3.399543751e-07)
(-6.899723476e-07 2.260991516e-06 -2.861394142e-07)
(-6.454676199e-07 2.480439263e-06 -3.116242031e-07)
(-8.878026856e-07 4.064758765e-06 -5.091726559e-07)
(-9.506482934e-07 5.331963646e-06 -6.674244063e-07)
(-7.802765789e-07 5.623343427e-06 -7.035346406e-07)
(-7.149782682e-07 7.20335564e-06 -9.00350766e-07)
(-1.779070342e-07 2.983519444e-06 -3.724872861e-07)
(-1.024249273e-07 5.149213746e-06 -6.423829999e-07)
(1.115608382e-07 5.608267609e-06 -6.996514605e-07)
(3.16706967e-07 5.311131151e-06 -6.630851815e-07)
(4.914333232e-07 4.95110837e-06 -6.188407816e-07)
(8.631548998e-07 6.220585979e-06 -7.782548681e-07)
(8.03897686e-07 4.508841252e-06 -5.643905427e-07)
(9.171454333e-07 4.199076569e-06 -5.259981299e-07)
(8.966198281e-07 3.445564207e-06 -4.328755662e-07)
(9.383208728e-07 3.074801529e-06 -3.891309896e-07)
(4.729853053e-07 1.334982153e-06 -1.710209592e-07)
(9.049199051e-07 2.219859416e-06 -2.895165133e-07)
(6.653032994e-07 1.434474798e-06 -1.914083615e-07)
(8.48935058e-07 1.631883527e-06 -2.231929838e-07)
(6.627788428e-07 1.152358667e-06 -1.612653376e-07)
(6.781066369e-07 1.083021404e-06 -1.547579381e-07)
(4.343915856e-07 6.485488502e-07 -9.478358989e-08)
(2.518154383e-07 3.602754953e-07 -5.424841146e-08)
(3.836602145e-07 5.519640356e-07 -8.614627106e-08)
(3.236626039e-07 5.167448479e-07 -8.358030702e-08)
(1.116602133e-07 2.457949054e-07 -4.092951605e-08)
(5.140635032e-08 3.021803455e-07 -5.140901846e-08)
(-4.146469714e-08 2.663584275e-07 -4.146512263e-08)
(-1.227196948e-07 2.93782768e-07 -4.460328514e-08)
(-1.587140007e-07 2.764918824e-07 -4.038067515e-08)
(-3.302492756e-07 5.200216534e-07 -7.269268536e-08)
(-1.395273644e-07 2.191282641e-07 -2.936779604e-08)
(-5.939319649e-07 9.768563873e-07 -1.260778072e-07)
(-6.3166037e-07 1.116888363e-06 -1.394673269e-07)
(-5.858441527e-07 1.132379602e-06 -1.372156174e-07)
(-6.110752575e-07 1.308009072e-06 -1.540760766e-07)
(-8.905165936e-07 2.135052445e-06 -2.45007116e-07)
(-4.180733735e-07 1.134972894e-06 -1.273519016e-07)
(-7.39910956e-07 2.297239365e-06 -2.533132821e-07)
(-9.860694424e-07 3.53656624e-06 -3.851435593e-07)
(-7.939430195e-07 3.330501413e-06 -3.596768179e-07)
(-7.815678693e-07 3.906230423e-06 -4.196960298e-07)
(-5.410810874e-07 3.318086667e-06 -3.55420608e-07)
(-3.93555175e-07 3.10661879e-06 -3.321094099e-07)
(-3.498043185e-07 3.865015038e-06 -4.125706204e-07)
(-2.977738758e-07 5.480098395e-06 -5.84306964e-07)
(-7.921066467e-08 4.371231904e-06 -4.657741348e-07)
(9.581853489e-08 5.287428057e-06 -5.633987659e-07)
(2.864837033e-07 5.27221594e-06 -5.621414511e-07)
(3.499448672e-07 3.866521485e-06 -4.127310228e-07)
(4.945801597e-07 3.904047772e-06 -4.173571546e-07)
(6.346856142e-07 3.892071362e-06 -4.169032256e-07)
(7.06775411e-07 3.532399377e-06 -3.79530369e-07)
(8.45774086e-07 3.547907216e-06 -3.831554312e-07)
(6.348035967e-07 2.276730472e-06 -2.479433865e-07)
(5.930726441e-07 1.841335075e-06 -2.030414743e-07)
(5.178433334e-07 1.405818675e-06 -1.577428893e-07)
(9.676905978e-07 2.320064803e-06 -2.662389492e-07)
(5.88529059e-07 1.259734749e-06 -1.483906911e-07)
(5.367044703e-07 1.037376521e-06 -1.257057484e-07)
(4.942097718e-07 8.738202668e-07 -1.091190441e-07)
(3.580094411e-07 5.887978471e-07 -7.599760999e-08)
(2.571493142e-07 4.038313415e-07 -5.412594814e-08)
(3.079310286e-07 4.848552254e-07 -6.778155275e-08)
(2.424838482e-07 4.224048779e-07 -6.169476231e-08)
(1.20959497e-07 2.89553508e-07 -4.396414644e-08)
(2.568030189e-08 1.64953374e-07 -2.568098624e-08)
(-1.003193641e-08 7.292448916e-08 -1.003196979e-08)
(-6.328366808e-08 1.706692935e-07 -2.290403701e-08)
(-1.297780583e-07 2.537291968e-07 -3.273742523e-08)
(-2.211676396e-07 3.891672348e-07 -4.805927414e-08)
(-2.424819663e-07 4.239932451e-07 -5.018163939e-08)
(-2.30432859e-07 4.208654948e-07 -4.789855329e-08)
(-4.293969414e-07 8.417613985e-07 -9.245497712e-08)
(-3.060404044e-07 6.548589828e-07 -6.964429638e-08)
(-3.485704194e-07 8.241752007e-07 -8.513990768e-08)
(-2.421596868e-07 6.392683244e-07 -6.437852172e-08)
(-3.720477382e-07 1.10733552e-06 -1.091860205e-07)
(-7.008429723e-07 2.374989812e-06 -2.303917305e-07)
(-4.321582112e-07 1.685736685e-06 -1.616108414e-07)
(-5.514244941e-07 2.51075291e-06 -2.387724437e-07)
(-4.216644957e-07 2.286221088e-06 -2.163063043e-07)
(-2.751624328e-07 1.831144124e-06 -1.727188025e-07)
(-2.575597736e-07 2.207746721e-06 -2.078701075e-07)
(-1.283951346e-07 1.541421206e-06 -1.449783121e-07)
(-1.815537397e-07 3.631888037e-06 -3.413730915e-07)
(-3.407234803e-08 2.044298726e-06 -1.920863138e-07)
(5.404284541e-08 3.242268123e-06 -3.046498119e-07)
(1.350499029e-07 2.701537496e-06 -2.539262587e-07)
(2.75145792e-07 3.303157653e-06 -3.106781284e-07)
(3.260586653e-07 2.794875042e-06 -2.631508623e-07)
(2.600696838e-07 1.730690898e-06 -1.632436229e-07)
(3.21440752e-07 1.742806293e-06 -1.648920768e-07)
(5.803939887e-07 2.642641473e-06 -2.513149673e-07)
(3.004347595e-07 1.171911702e-06 -1.123506864e-07)
(4.230734434e-07 1.433688311e-06 -1.390785689e-07)
(6.018789368e-07 1.791379776e-06 -1.766347431e-07)
(3.799522647e-07 1.003016403e-06 -1.010106117e-07)
(2.921258954e-07 6.907103695e-07 -7.135289383e-08)
(2.824544185e-07 6.043838818e-07 -6.42767844e-08)
(3.112235729e-07 6.100926767e-07 -6.701055797e-08)
(2.509757543e-07 4.583756234e-07 -5.216867695e-08)
(1.544817155e-07 2.701130305e-07 -3.197006288e-08)
(1.454547178e-07 2.559352849e-07 -3.160709094e-08)
(5.51449478e-08 1.078101618e-07 -1.391072708e-08)
(7.202032603e-08 1.942228658e-07 -2.60661511e-08)
(1.416136165e-08 1.029373336e-07 -1.416149096e-08)
(-3.29868104e-08 2.693990943e-07 -3.298685726e-08)
(-9.075619816e-08 2.735925313e-07 -3.271679297e-08)
(-8.960504247e-08 1.948538382e-07 -2.243159932e-08)
(-8.036609407e-08 1.565153672e-07 -1.726613527e-08)
(-1.959536459e-07 3.776656583e-07 -3.995887892e-08)
(-2.028591735e-07 4.070598819e-07 -4.142660382e-08)
(-2.16444734e-07 4.649534379e-07 -4.566934387e-08)
(-2.416282454e-07 5.652013229e-07 -5.377310593e-08)
(-2.744564459e-07 7.075557241e-07 -6.545125806e-08)
(-2.812874544e-07 8.072470848e-07 -7.290667064e-08)
(-4.104177405e-07 1.323615682e-06 -1.17241965e-07)
(-3.001361438e-07 1.098621663e-06 -9.587728853e-08)
(-4.160875186e-07 1.748766218e-06 -1.509948211e-07)
(-3.635279121e-07 1.780664739e-06 -1.526476306e-07)
(-3.057012408e-07 1.78198639e-06 -1.520798847e-07)
(-3.932930715e-07 2.81397831e-06 -2.395504388e-07)
(-2.933963402e-07 2.704977839e-06 -2.299841501e-07)
(-2.014900204e-07 2.602986718e-06 -2.211930701e-07)
(-1.34782089e-07 2.902556026e-06 -2.465978939e-07)
(-3.816148787e-08 2.465419648e-06 -2.094446285e-07)
(3.071819472e-08 1.9843776e-06 -1.685786794e-07)
(1.10063198e-07 2.370163382e-06 -2.013663576e-07)
(2.331773604e-07 3.012294762e-06 -2.559745872e-07)
(3.217478241e-07 2.966329776e-06 -2.522048443e-07)
(3.904556675e-07 2.793650972e-06 -2.378199017e-07)
(3.224883244e-07 1.879826997e-06 -1.604298521e-07)
(4.061888452e-07 1.98961755e-06 -1.705601482e-07)
(4.857969647e-07 2.041735311e-06 -1.762909374e-07)
(4.318449983e-07 1.580722248e-06 -1.379506168e-07)
(3.321866596e-07 1.071311744e-06 -9.489380142e-08)
(3.460451126e-07 9.93085477e-07 -8.969094162e-08)
(2.9080347e-07 7.496942972e-07 -6.934948582e-08)
(2.339568116e-07 5.472526142e-07 -5.206576519e-08)
(2.323766278e-07 4.991722877e-07 -4.903084609e-08)
(1.361877898e-07 2.732725869e-07 -2.78113546e-08)
(1.762950656e-07 3.397715886e-07 -3.595005373e-08)
(1.167673875e-07 2.274032471e-07 -2.508668486e-08)
(8.905913594e-08 1.936615539e-07 -2.229491097e-08)
(5.683497788e-08 1.713284064e-07 -2.048849161e-08)
(1.200048472e-08 9.800283151e-08 -1.200051175e-08)
(-2.201662461e-08 1.98365566e-07 -2.20166516e-08)
(-5.384039759e-08 1.780734151e-07 -1.931688885e-08)
(-3.391047252e-08 8.057916931e-08 -8.42306819e-09)
(-5.310985473e-08 1.126100461e-07 -1.12898087e-08)
(-9.397408522e-08 1.965929136e-07 -1.891697891e-08)
(-1.453275536e-07 3.157658873e-07 -2.924584193e-08)
(-1.388932764e-07 3.224100136e-07 -2.884475633e-08)
(-2.591604244e-07 6.538116779e-07 -5.672160676e-08)
(-2.047824301e-07 5.68252025e-07 -4.800261557e-08)
(-3.053003396e-07 9.410573575e-07 -7.774313116e-08)
(-2.914239629e-07 1.007235356e-06 -8.174120739e-08)
(-2.437066632e-07 9.540506722e-07 -7.638857526e-08)
(-2.242632558e-07 1.006400508e-06 -7.981151626e-08)
(-1.756645089e-07 9.178045426e-07 -7.23253591e-08)
(-2.521158713e-07 1.566935635e-06 -1.230075905e-07)
(-9.071889562e-08 6.921095981e-07 -5.422291999e-08)
(-2.220452393e-07 2.183617536e-06 -1.709310772e-07)
(-1.773206479e-07 2.444551884e-06 -1.913195141e-07)
(-7.982520682e-08 1.83518553e-06 -1.436371166e-07)
(-2.031123069e-08 1.401174215e-06 -1.096768564e-07)
(2.646738179e-08 1.825685777e-06 -1.429054795e-07)
(9.524721449e-08 2.189669923e-06 -1.713820508e-07)
(1.704225007e-07 2.349410027e-06 -1.838733592e-07)
(1.678487229e-07 1.650621317e-06 -1.292087468e-07)
(1.718032683e-07 1.310702595e-06 -1.02686241e-07)
(2.09638899e-07 1.302924647e-06 -1.02282238e-07)
(2.027279438e-07 1.059197201e-06 -8.346752442e-08)
(1.709211116e-07 7.670185487e-07 -6.08276561e-08)
(2.655802851e-07 1.039674926e-06 -8.324444586e-08)
(2.456632143e-07 8.490703175e-07 -6.890563501e-08)
(3.003847728e-07 9.25900909e-07 -7.64912488e-08)
(1.227940869e-07 3.407401423e-07 -2.878385151e-08)
(1.495640616e-07 3.773186664e-07 -3.273454897e-08)
(1.657754078e-07 3.848076365e-07 -3.442746086e-08)
(1.440144763e-07 3.12909435e-07 -2.89815441e-08)
(1.203463847e-07 2.517600432e-07 -2.422567767e-08)
(4.14231189e-08 8.782886006e-08 -8.805489436e-09)
(6.443301208e-08 1.531044508e-07 -1.600457809e-08)
(2.977392379e-08 9.847257619e-08 -1.068229374e-08)
(5.390916518e-09 4.85696793e-08 -5.390919916e-09)
(-1.449839182e-08 1.41916142e-07 -1.449841725e-08)
(-2.581223475e-08 9.210262655e-08 -9.200785766e-09)
(-4.51387516e-08 1.15357833e-07 -1.111242741e-08)
(-6.541202183e-08 1.488032427e-07 -1.375779858e-08)
(-6.664662238e-08 1.49302288e-07 -1.325909916e-08)
(-1.16422906e-07 2.70479532e-07 -2.314189779e-08)
(-8.795249123e-08 2.18022556e-07 -1.803929367e-08)
(-1.130745409e-07 3.042627257e-07 -2.444502446e-08)
(-1.424688129e-07 4.211366144e-07 -3.299452955e-08)
(-1.548862684e-07 5.07903566e-07 -3.897426999e-08)
(-1.627971364e-07 5.977921846e-07 -4.512403008e-08)
(-1.223668489e-07 5.083202523e-07 -3.789930451e-08)
(-1.219012562e-07 5.799422624e-07 -4.286347512e-08)
(-7.834316811e-08 4.337036623e-07 -3.187198057e-08)
(-1.475380234e-07 9.714345632e-07 -7.114677126e-08)
(-1.053831809e-07 8.518775619e-07 -6.228332737e-08)
(-1.132396082e-07 1.180364695e-06 -8.624506709e-08)
(-8.408548083e-08 1.229200724e-06 -8.980903876e-08)
(-3.088452103e-08 7.531726875e-07 -5.503825713e-08)
(-1.252766954e-08 9.169103394e-07 -6.701293595e-08)
(1.412412627e-08 1.033653784e-06 -7.554520361e-08)
(4.683947228e-08 1.142224318e-06 -8.346830232e-08)
(7.591655925e-08 1.10976194e-06 -8.108251122e-08)
(7.732241666e-08 8.059670628e-07 -5.888918478e-08)
(8.766810361e-08 7.086681484e-07 -5.181289146e-08)
(1.37290791e-07 9.039560539e-07 -6.620478405e-08)
(1.590066726e-07 8.802463644e-07 -6.468755956e-08)
(1.824153876e-07 8.67831492e-07 -6.414145015e-08)
(1.661570547e-07 6.902240126e-07 -5.146178585e-08)
(1.387692676e-07 5.095590983e-07 -3.846390809e-08)
(1.309836119e-07 4.295197146e-07 -3.295955193e-08)
(1.313848799e-07 3.883704734e-07 -3.04275462e-08)
(1.218241115e-07 3.278041186e-07 -2.633651631e-08)
(9.221412689e-08 2.285848058e-07 -1.89133398e-08)
(5.254556632e-08 1.220753064e-07 -1.044469913e-08)
(5.86879017e-08 1.31471496e-07 -1.16757222e-08)
(7.054937988e-08 1.604875712e-07 -1.483829141e-08)
(2.406864824e-08 6.150933911e-08 -5.925301989e-09)
(3.476994997e-08 1.240625565e-07 -1.239375451e-08)
(1.333681227e-09 1.305428995e-08 -1.333682458e-09)
(-5.142223288e-09 5.428980223e-08 -5.142238323e-09)
(-1.797195824e-08 6.841986499e-08 -6.341305929e-09)
(-1.188363614e-08 3.230705819e-08 -2.890542279e-09)
(-3.417753621e-08 8.256108128e-08 -7.098725453e-09)
(-5.226598273e-08 1.241838998e-07 -1.026988541e-08)
(-6.242944072e-08 1.536983075e-07 -1.226327569e-08)
(-6.946457061e-08 1.823478404e-07 -1.409112835e-08)
(-5.251298921e-08 1.495392997e-07 -1.123817696e-08)
(-7.757619272e-08 2.425191995e-07 -1.780007268e-08)
(-7.369059421e-08 2.553803445e-07 -1.838418987e-08)
(-8.232227037e-08 3.192423897e-07 -2.263339761e-08)
(-6.317567572e-08 2.76982714e-07 -1.94139629e-08)
(-7.370235424e-08 3.699078561e-07 -2.571847062e-08)
(-8.595071437e-08 5.018648817e-07 -3.47084187e-08)
(-6.031117443e-08 4.18858584e-07 -2.887676688e-08)
(-5.652417195e-08 4.820574283e-07 -3.318086491e-08)
(-6.628495196e-08 7.291872849e-07 -5.016194143e-08)
(-3.889282633e-08 6.002526001e-07 -4.129106041e-08)
(-2.921099555e-08 7.52299813e-07 -5.175927939e-08)
(-6.989057175e-09 5.403036342e-07 -3.717901147e-08)
(9.597186039e-09 7.418560035e-07 -5.104810317e-08)
(3.598810744e-08 9.26806677e-07 -6.376561535e-08)
(5.193267767e-08 8.014873756e-07 -5.513392379e-08)
(6.754818848e-08 7.430735766e-07 -5.111724073e-08)
(5.717015119e-08 4.875613955e-07 -3.35597479e-08)
(1.021214601e-07 7.092232493e-07 -4.889502871e-08)
(9.059753632e-08 5.289938734e-07 -3.658469329e-08)
(6.716335432e-08 3.370869557e-07 -2.343659241e-08)
(1.109158565e-07 4.862885849e-07 -3.408448523e-08)
(7.246158946e-08 2.810016696e-07 -1.992229885e-08)
(8.601661906e-08 2.980956485e-07 -2.145923563e-08)
(7.836392065e-08 2.449805199e-07 -1.79808017e-08)
(7.301159113e-08 2.079111794e-07 -1.562501878e-08)
(5.057789229e-08 1.327684618e-07 -1.025988997e-08)
(6.096016515e-08 1.50079719e-07 -1.197464567e-08)
(5.113368566e-08 1.214922603e-07 -1.004738436e-08)
(3.348430347e-08 8.088540156e-08 -6.954730993e-09)
(1.434999273e-08 3.901151029e-08 -3.490447712e-09)
(1.794325303e-08 6.830929443e-08 -6.331170663e-09)
(4.11588246e-09 4.345316023e-08 -4.115891082e-09)
(-3.153872233e-09 3.605765278e-08 -3.153888531e-09)
(-4.95132341e-09 2.002317483e-08 -1.716471399e-09)
(-1.042553252e-08 2.998471791e-08 -2.487714914e-09)
(-2.046601161e-08 5.22029334e-08 -4.174040685e-09)
(-1.297591767e-08 3.251992454e-08 -2.507891883e-09)
(-3.632771707e-08 9.427746202e-08 -7.032604395e-09)
(-3.793603287e-08 1.049295508e-07 -7.59845097e-09)
(-3.39573339e-08 1.018557804e-07 -7.18811719e-09)
(-5.343110879e-08 1.758875356e-07 -1.214488786e-08)
(-3.404881863e-08 1.242097916e-07 -8.424886418e-09)
(-3.754062556e-08 1.531942133e-07 -1.024603572e-08)
(-6.032749356e-08 2.782531119e-07 -1.841549041e-08)
(-5.833021456e-08 3.079357799e-07 -2.022867864e-08)
(-3.72824723e-08 2.289767077e-07 -1.496812146e-08)
(-5.079348228e-08 3.710942651e-07 -2.418735644e-08)
(-2.91490716e-08 2.615783542e-07 -1.702376009e-08)
(-2.940663632e-08 3.404970666e-07 -2.214740302e-08)
(-2.613390374e-08 4.246613843e-07 -2.762059346e-08)
(-1.234819319e-08 3.3490778e-07 -2.178619582e-08)
(-6.576013762e-09 5.354462745e-07 -3.483603482e-08)
(7.165807422e-09 5.834124988e-07 -3.795671349e-08)
(1.066585546e-08 2.892700051e-07 -1.881740552e-08)
(2.657580979e-08 4.318337935e-07 -2.808711644e-08)
(2.938740392e-08 3.402697766e-07 -2.213264057e-08)
(3.829346714e-08 3.43634928e-07 -2.236410612e-08)
(3.056882195e-08 2.233322251e-07 -1.455647634e-08)
(5.908183054e-08 3.62858749e-07 -2.371998744e-08)
(3.987871886e-08 2.105257695e-07 -1.382972872e-08)
(5.644810822e-08 2.603585941e-07 -1.723123459e-08)
(6.532556284e-08 2.665765621e-07 -1.782940609e-08)
(4.334437861e-08 1.581191823e-07 -1.072492812e-08)
(4.102244934e-08 1.3503936e-07 -9.32439462e-09)
(3.754554695e-08 1.126181014e-07 -7.947668863e-09)
(3.079175895e-08 8.516824042e-08 -6.167474616e-09)
(2.439706403e-08 6.331462816e-08 -4.722971114e-09)
(1.671413794e-08 4.188817436e-08 -3.230384979e-09)