/*--------------------------------*- C++ -*----------------------------------*\
  =========                 |
  \\      /  F ield         | OpenFOAM: The Open Source CFD Toolbox
   \\    /   O peration     | Website:  https://openfoam.org
    \\  /    A nd           | Version:  10
     \\/     M anipulation  |
\*---------------------------------------------------------------------------*/
FoamFile
{
    format      ascii;
    class       volScalarField;
    location    "0.0004";
    object      T;
}
// * * * * * * * * * * * * * * * * * * * * * * * * * * * * * * * * * * * * * //

dimensions      [0 0 0 1 0 0 0];

internalField   nonuniform List<scalar> 
16000
(
588.759957
627.0916737
680.2866354
740.4867884
783.698955
823.6886267
870.4658068
919.4861064
973.9628132
1031.16232
1086.473803
1138.996111
1187.094946
1227.312062
1255.942078
1269.686783
1275.706772
1277.269034
1280.376084
1282.619289
1282.618264
1280.372054
1277.260404
1275.693581
1269.679288
1255.941839
1227.317347
1187.098302
1138.997579
1086.472953
1031.145766
973.929471
919.4490854
870.4077231
823.5807469
783.5169868
740.2599346
679.8882212
626.9209217
588.8296382
588.5993849
642.2803139
690.9610987
724.9746491
747.28914
777.4136399
816.6291301
865.2513206
923.4986917
986.6803005
1043.926142
1099.453823
1152.113802
1197.865673
1230.902227
1238.415361
1235.957504
1227.964661
1229.940481
1231.433737
1231.431777
1229.934114
1227.948843
1235.930297
1238.396814
1230.898082
1197.876121
1152.120236
1099.449332
1043.914112
986.6517133
923.4474061
865.2280189
816.5681632
777.2892208
747.0136529
724.7153704
690.5849955
641.925849
588.464382
578.9283505
655.3862357
700.1347647
725.6245993
745.0014673
775.3955102
815.1629529
863.9420937
922.4668236
985.8901193
1043.10306
1098.611092
1151.313951
1197.163107
1230.370895
1237.480251
1234.560309
1225.193971
1226.474147
1227.166298
1227.164063
1226.466519
1225.177037
1234.531826
1237.461427
1230.366596
1197.173975
1151.320337
1098.60652
1043.091121
985.8608631
922.4146434
863.9203126
815.1036306
775.2696422
744.7194119
725.3956221
699.8276114
655.2240781
577.9915011
549.5434903
602.9751279
644.7200841
663.8305741
687.4532521
710.3903854
736.4593314
772.9894551
823.5421426
884.3169339
943.4882194
1010.338073
1083.483194
1167.256374
1238.149592
1237.451698
1231.284974
1213.612207
1216.803056
1219.048022
1219.046453
1216.797942
1213.597523
1231.248281
1237.434007
1238.141345
1167.302285
1083.49653
1010.346881
943.482389
884.2636936
823.4772258
772.9487119
736.4064012
710.1035613
686.7505135
663.4905917
644.0017088
601.3419168
549.0670697
431.7747521
459.0100291
474.3190157
492.0382881
537.0274139
556.1745993
588.300922
626.7425426
675.2272118
731.8333891
793.6891314
859.0689387
924.1252105
987.4267444
1039.810693
1069.524191
1088.123815
1099.616967
1109.794605
1114.97329
1114.972911
1109.792817
1099.612331
1088.115585
1069.518699
1039.815366
987.4401046
924.1324861
859.0747466
793.6847094
731.8028059
675.1914524
626.721537
588.2530162
555.9227815
536.8936868
491.9600397
474.2239351
458.9535073
431.7640819
366.4910261
375.8372161
389.2184597
408.1786432
433.1745105
460.1844259
491.51343
528.7883348
572.3930537
621.427484
674.7255857
728.2558122
779.5617647
826.729503
867.1211874
899.6165777
925.9671262
946.4755131
960.82259
968.0804765
968.08046
960.8224287
946.47492
925.9656014
899.6150195
867.1208249
826.7308267
779.5630081
728.2569669
674.7239485
621.4198997
572.3815393
528.7728992
491.4720693
460.1111756
433.1554406
408.1460056
389.2013079
375.8349438
366.4917973
343.253054
348.5953327
358.20295
372.5383117
391.350245
414.2457321
441.0006581
472.0362564
507.2966293
546.0731763
587.1875875
628.3286277
667.8011114
704.3813516
737.1646431
765.6793274
789.6605082
808.4973851
821.4880642
828.0927313
828.0927232
821.4880133
808.4972146
789.6600622
765.6786436
737.1639253
704.3808372
667.8007228
628.3282632
587.1866254
546.0707555
507.2924688
472.0289594
440.9850687
414.2214799
391.3323091
372.5261429
358.1972416
348.5935769
343.2514344
330.2050252
333.7867447
340.7951262
351.3564988
365.3933466
382.8113143
403.4499595
427.2239076
453.8595588
482.76775
513.0675027
543.5047054
573.0130398
600.778245
626.194083
648.7258434
667.7967598
682.7782896
693.1013164
698.3630827
698.3630519
693.1012165
682.7780996
667.7964378
648.7253661
626.193471
600.7775633
573.0123353
543.5039854
513.0666536
482.7665589
453.8578139
427.2211106
403.4450664
382.8044494
365.3871015
351.3523804
340.7926687
333.7851274
330.2034169
321.6831229
324.2080427
329.2472007
336.8293314
346.935895
359.5250735
374.5005527
391.7096054
410.8798324
431.573702
453.1985668
475.0278618
496.3798612
516.6713485
535.4019847
552.0862786
566.2249817
577.3330739
584.9917155
588.899736
588.8996953
584.9915918
577.3328632
566.2246761
552.0858716
535.4014791
516.6707623
496.3792207
475.0271876
453.1978514
431.5729056
410.8788955
391.708414
374.4989282
359.523077
346.9339506
336.8278268
329.2459944
324.2069701
321.6820556
315.3243275
317.0737484
320.5764691
325.8385437
332.8535693
341.5956896
351.9989859
363.9394801
377.2126925
391.520277
406.4785482
421.6419815
436.5649074
450.8309351
464.0525586
475.8516482
485.8561808
493.7181639
499.1410934
501.9094551
501.9094149
499.1409732
493.717965
485.855905
475.8512985
464.0521409
450.8304598
436.5643896
421.6414369
406.4779866
391.5196984
377.2120887
363.9388316
351.9982666
341.5949167
332.8528075
325.8378557
320.5758223
317.0731162
315.3236972
310.4450414
311.6151161
313.9599554
317.4818075
322.1773374
328.0289951
334.9917396
342.9798595
351.8561726
361.4277265
371.4514532
381.648275
391.7272279
401.4010604
410.390921
418.4246466
425.2402573
430.5972622
434.2928241
436.179511
436.1794766
434.2927218
430.5970949
425.2400292
418.4243636
410.3905904
401.4006916
391.726832
381.6478636
371.4510362
361.4273105
351.8557603
342.9794492
334.9913278
328.0285851
322.1769381
317.4814261
313.9595838
311.6147485
310.444676
306.8342209
307.5887895
309.102649
311.3777812
314.4126518
318.1960264
322.6988203
327.8660664
333.6110289
339.8133088
346.3219174
352.9626579
359.5487541
365.889374
371.7946051
377.0784869
381.5637754
385.0897134
387.5220564
388.7637453
388.7637188
387.5219778
385.0895854
381.5636025
377.0782748
371.7943607
365.8891051
359.5484693
352.9623657
346.3216253
339.8130228
333.6107524
327.8658005
322.6985643
318.1957803
314.4124161
311.3775558
309.1024312
307.5885767
306.8340108
304.3041379
304.774318
305.7192359
307.1408105
309.0387222
311.4064107
314.2261827
317.4645013
321.068625
324.9654998
329.0632339
333.2547867
337.4230684
341.4457351
345.199048
348.5613158
351.4170609
353.6623893
355.2112691
356.0018901
356.0018714
355.2112138
353.6622996
351.4169404
348.5611689
345.1988803
341.4455524
337.4228769
333.2545924
329.063042
324.9653144
321.0684486
317.464335
314.2260262
311.4062634
309.0385836
307.1406797
305.7191116
304.7741983
304.3040206
302.6227805
302.9064436
303.4780032
304.3390754
305.4899392
306.9270496
308.6401379
310.609478
312.8039369
315.1802568
317.6837
320.2498668
322.8072727
325.280087
327.590772
329.6627717
331.4235778
332.8082947
333.7635184
334.2510848
334.2510726
333.7634825
332.8082365
331.4234999
329.6626773
327.590665
325.2799713
322.8071525
320.249746
317.6835819
315.180144
312.803831
310.6093796
308.6400469
306.9269655
305.4898613
304.3390031
303.4779355
302.9063793
302.622718
301.5550617
301.7209325
302.056544
302.5630831
303.2409759
304.0883926
305.0995574
306.2631798
307.5613274
308.9689615
310.4541976
311.9791992
313.5015181
314.9756585
316.3547546
317.5923909
318.6446394
319.4723119
320.0432964
320.3347346
320.3347272
320.0432746
319.4722768
318.6445926
317.5923344
316.3546909
314.97559
313.5014475
311.9791288
310.4541295
308.9688971
307.5612675
306.2631249
305.0995074
304.0883471
303.2409345
302.5630453
302.0565091
301.7208997
301.5550301
300.9019591
300.9958954
301.1873234
301.4770174
301.8653283
302.3513152
302.9317837
303.600402
304.3470595
305.1575788
306.0138108
306.894076
307.7738696
308.6267439
309.4253194
310.1424188
310.7523285
311.2321553
311.563192
311.7321583
311.7321541
311.5631797
311.2321354
310.7523021
310.142387
309.4252837
308.6267059
307.7738307
306.8940375
306.0137738
305.1575441
304.3470277
303.6003731
302.9317578
302.351292
301.8653075
301.4769987
301.1873064
300.9958796
300.9019439
300.5146925
300.5660125
300.6719759
300.8330359
301.0494097
301.3205927
301.6448271
302.0186162
302.4363692
302.8902297
303.3701072
303.8638948
304.3578394
304.8370306
305.2859827
305.6893016
306.0324239
306.3024
306.4886677
306.5837423
306.58374
306.4886611
306.3023894
306.0324099
305.6892848
305.2859639
304.8370107
304.3578191
303.8638748
303.3700883
302.8902121
302.4363532
302.0186019
301.6448143
301.3205815
301.0493998
300.8330271
300.671968
300.5660052
300.5146856
300.2911443
300.31792
300.3746427
300.4615487
300.5787407
300.7259261
300.9021334
301.1054536
301.3328488
301.5800564
301.8415963
302.1108792
302.3803985
302.6419943
302.8871755
303.1074943
303.2949599
303.4424731
303.5442509
303.5962002
303.596199
303.5442476
303.4424678
303.2949529
303.1074859
302.8871661
302.6419844
302.3803885
302.1108694
301.8415871
301.5800479
301.3328412
301.1054468
300.9021275
300.7259209
300.5787362
300.4615447
300.3746392
300.3179169
300.2911413
300.16526
300.1782784
300.2073953
300.2527158
300.314267
300.391863
300.4849591
300.5925195
300.712918
300.8438865
300.9825161
301.1253093
301.2682788
301.4070854
301.5372102
301.6541562
301.7536709
301.831979
301.8860078
301.9135849
301.9135843
301.8860063
301.8319764
301.7536675
301.6541522
301.5372057
301.4070807
301.2682741
301.1253048
300.9825118
300.8438826
300.7129145
300.5925164
300.4849565
300.3918607
300.3142651
300.2527141
300.2073938
300.1782771
300.1652587
300.0960777
300.1015892
300.1156417
300.1382676
300.1694517
300.2090645
300.2567919
300.3120701
300.3740364
300.4415032
300.5129576
300.5865868
300.6603266
300.7319324
300.7990671
300.8594057
300.9107512
300.9511541
300.9790294
300.993257
300.9932568
300.9790287
300.951153
300.9107496
300.8594039
300.7990651
300.7319303
300.6603245
300.5865848
300.5129558
300.4415015
300.3740349
300.3120688
300.2567908
300.2090635
300.1694509
300.138267
300.1156411
300.1015886
300.0960772
627.1610918
677.9634748
745.2258289
798.4615991
834.2929376
868.3184253
912.260327
959.6387422
1011.488136
1066.379043
1120.604962
1172.604306
1221.188075
1263.042638
1296.282316
1317.216898
1329.413128
1336.823109
1343.738736
1347.508279
1347.507465
1343.736023
1336.817326
1329.404551
1317.211948
1296.290102
1263.051981
1221.196489
1172.610426
1120.607124
1066.37456
1011.453088
959.5843699
912.2126321
868.2674273
834.1664659
798.3232482
745.1817954
677.7595045
627.0121041
642.5044227
691.5159833
742.3135916
782.6983364
807.1768168
820.7364692
855.1963629
900.4341617
953.6065643
1010.196721
1066.452368
1121.631861
1174.232384
1223.458416
1265.652819
1287.213022
1290.614057
1292.42235
1300.979447
1304.100577
1304.098416
1300.97441
1292.412395
1290.59647
1287.201204
1265.671608
1223.469816
1174.240976
1121.628129
1066.445263
1010.184937
953.5961026
900.4475159
855.2504296
820.6660993
806.9296533
782.5126444
742.3557619
691.6418245
642.1732715
656.0899535
721.4409113
747.3903898
784.287357
805.4854143
818.0786905
852.5248733
898.3995705
952.0003128
1008.633971
1064.58801
1119.31541
1171.663607
1220.712828
1263.767013
1285.74039
1286.076525
1284.574064
1291.341234
1291.997797
1291.994581
1291.333442
1284.560832
1286.056038
1285.726349
1263.787865
1220.724864
1171.67108
1119.311549
1064.58163
1008.622756
951.9924974
898.4222417
852.5869333
818.0123579
805.2275232
784.0272497
747.5401384
722.4027487
655.9712811
603.2693223
645.2083135
689.8315545
744.6634613
791.2259602
789.8283484
808.8134494
844.1674277
892.1780564
946.0055282
1005.64673
1068.231075
1131.64077
1195.986022
1261.156327
1294.044597
1277.987566
1277.161325
1287.095932
1289.425908
1289.423074
1287.090265
1277.151145
1277.966408
1294.021447
1261.206213
1196.007474
1131.64988
1068.239688
1005.65797
945.982804
892.1741088
844.1912076
808.8963861
789.7066594
790.6186843
744.4107161
689.6474738
644.9010894
602.1055587
459.0112376
479.4814476
508.7747185
557.5334093
579.5705296
604.4404333
635.7735371
676.5266558
726.7506178
785.2138469
849.9599546
916.2404016
980.751756
1041.803162
1095.390431
1133.685434
1156.250877
1172.163998
1184.761183
1190.27482
1190.274281
1184.759376
1172.160891
1156.244459
1133.682107
1095.39941
1041.811001
980.757564
916.2452363
849.9618829
785.2019155
726.7459587
676.5335334
635.7804208
604.3021633
579.2495309
557.5461211
508.6034579
479.5171861
458.9347876
375.8377186
387.2893632
403.0274183
427.3078427
452.4326774
482.6230857
517.5562013
558.9601915
607.3092066
661.3921827
723.8804132
783.2723422
839.6856918
891.4569957
937.4799396
976.0425862
1007.303878
1031.412248
1048.044859
1056.315123
1056.31513
1048.044801
1031.41203
1007.302968
976.0415864
937.4802795
891.4578232
839.6865203
783.2727405
723.87945
661.3878009
607.3040985
558.9549192
517.5401488
482.5677997
452.3628282
427.2795163
403.0244491
387.2944503
375.8335946
348.5959892
354.8361918
365.6394909
381.8942586
402.3415572
427.3933787
456.9744047
491.3495033
530.2971968
572.8616203
618.2726123
663.2265138
706.2244457
746.0774059
782.2515784
814.0298226
840.7268616
861.5521353
875.8164913
883.0274288
883.0274323
875.8164781
861.5520519
840.7265633
814.0293028
782.2510186
746.0768657
706.2239082
663.2258611
618.2715293
572.8595547
530.2941972
491.3451519
456.9655751
427.3756009
402.3226781
381.8848337
365.6363811
354.8346111
348.5930844
333.7870246
337.7915082
345.5436973
357.190966
372.5339678
391.5674191
414.1861865
440.2504496
469.377963
500.8570065
533.805061
566.8043151
598.7564124
628.8175975
656.4405542
680.9972275
701.7658774
718.0296444
729.1969808
734.8736185
734.8735872
729.1968799
718.0294571
701.7655678
680.9967731
656.4399683
628.8169152
598.7556693
566.803515
533.804135
500.8558044
469.3763791
440.2482791
414.1827649
391.5621995
372.5287686
357.1877952
345.5417695
337.7899147
333.7852703
324.208122
326.9840845
332.5097809
340.8038784
351.8270755
365.5408387
381.8461899
400.5604327
421.3576094
443.743446
467.0927863
490.6299422
513.6360795
535.495583
555.6977855
573.7113229
588.9741762
600.9512815
609.1953633
613.396365
613.3963197
609.1952265
600.9510513
588.9738483
573.7108946
555.6972608
535.4949765
513.6354136
490.6292359
467.0920376
443.742626
421.3566829
400.5593454
381.8448268
365.5391609
351.8254273
340.802596
332.5087011
326.9830655
324.2071002
317.0737667
318.9856045
322.8090443
328.5429657
336.1715301
345.6605469
356.9324769
369.8443505
384.1653378
399.5695517
415.6503395
431.9373614
447.9598563
463.2770934
477.4816548
490.1668136
500.9261637
509.3798807
515.2077024
518.1811241
518.1810795
515.2075694
509.3796619
500.9258633
490.1664371
477.4812101
463.2765921
447.9593136
431.936793
415.6497558
399.5689544
384.1647229
369.8437083
356.9317901
345.6598181
336.1708159
328.5423128
322.8084221
318.9849936
317.0731627
311.6151199
312.890139
315.4424851
319.2696723
324.361903
330.6940451
338.2118559
346.8181842
356.3622262
366.6367129
377.3846411
388.3121004
399.1120118
409.4802238
419.1210044
427.7426176
435.0614269
440.8159384
444.7859598
446.8126296
446.8125921
444.7858483
440.8157566
435.0611803
427.7423136
419.1206519
409.4798332
399.111595
388.3116696
377.3842065
366.6362813
356.3618008
346.8177647
338.2114398
330.6936333
324.3615036
319.26929
315.4421132
312.8897736
311.6147591
307.5887903
308.4094618
310.0539367
312.5211323
315.8053056
319.8901885
324.7409243
330.2959928
336.4613345
343.1086941
350.0787592
357.1881292
364.2396653
371.0311229
377.3603613
383.0280041
387.8426081
391.6296242
394.2430133
395.5773628
395.5773343
394.2429289
391.629487
387.8424232
383.027778
377.3601018
371.0308387
364.2393655
357.1878228
350.078454
343.1083961
336.4610473
330.2957175
324.7406604
319.8899355
315.805064
312.5209017
310.0537147
308.409246
307.5885782
304.7743184
305.2849894
306.3099147
307.8491766
309.8999592
312.4527455
315.4865335
318.9641352
322.8287747
327.002936
331.3897254
335.8763581
340.3391098
344.6481275
348.6714112
352.2783591
355.344287
357.7564548
359.4212154
360.2712249
360.271205
359.4211566
357.7563594
355.3441591
352.2782035
348.671234
344.647935
340.3389087
335.8761545
331.3895247
327.0027425
322.8285908
318.963962
315.4863709
312.4525928
309.8998157
307.8490416
306.3097867
305.2848666
304.7741983
302.9064439
303.2142745
303.8336229
304.7650849
306.0075607
307.555878
309.3979521
311.5120488
313.8647825
316.4103183
319.0909121
321.8386133
324.5777656
327.2277516
329.70572
331.9294278
333.8205746
335.3087645
336.3358758
336.860295
336.8602822
336.3358378
335.3087031
333.8204924
331.9293284
329.7056074
327.2276301
324.5776396
321.8384868
319.0907886
316.4102003
313.8646717
311.5119459
309.3978571
307.5557902
306.0074796
304.7650098
303.8335527
303.214208
302.9063793
301.7209327
301.9008797
302.2643567
302.8120149
303.5435548
304.4562846
305.5434546
306.7926772
308.1847571
309.6931658
311.284231
312.9179652
314.5493679
316.1299978
317.6097134
318.9386125
320.0692497
320.9591292
321.5733196
321.8869038
321.8868961
321.5732967
320.9590922
320.0692004
318.9385531
317.6096465
316.129926
314.549294
312.9178915
311.2841596
309.6930984
308.1846945
306.7926197
305.5434022
304.456237
303.5435115
302.8119753
302.2643203
301.9008456
301.7208998
300.9958956
301.0978347
301.3051237
301.6182663
302.0372435
302.560668
303.1848304
303.9028037
304.7037733
305.5727095
306.4904213
307.433961
308.377311
309.2922752
310.1495323
310.9198473
311.5754458
312.0915108
312.4477053
312.629563
312.6295586
312.4476924
312.0914899
311.5754181
310.919814
310.1494949
309.2922354
308.3772702
307.4339206
306.4903825
305.5726732
304.7037399
303.9027734
303.1848032
302.5606436
302.0372216
301.6182467
301.3051058
301.0978181
300.9958797
300.5660127
300.6217715
300.7365419
300.9106433
301.144108
301.4362038
301.7849036
302.1863912
302.6346883
303.1214606
303.6360255
304.1655505
304.6954155
305.2097082
305.6918331
306.1252249
306.4941536
306.784587
306.98505
307.0873963
307.087394
306.9850431
306.7845758
306.4941389
306.1252073
305.6918134
305.2096873
304.6953942
304.1655296
303.6360056
303.1214421
302.6346715
302.1863761
301.7848902
301.4361919
301.1440975
300.910634
300.7365336
300.6217639
300.5660054
300.3179202
300.3470961
300.408585
300.5025582
300.6290272
300.7875847
300.97712
301.195555
301.4396429
301.7048591
301.9853967
302.2742641
302.5634739
302.8443113
303.1076727
303.3444661
303.5460617
303.7047701
303.8143128
303.8702386
303.8702374
303.8143093
303.7047645
303.5460543
303.3444573
303.1076629
302.8443009
302.5634634
302.2742538
301.985387
301.7048501
301.4396349
301.1955479
300.9771137
300.7875792
300.6290225
300.502554
300.4085813
300.3470928
300.3179171
300.1782786
300.1925612
300.2241902
300.2732396
300.3396917
300.4233035
300.5234594
300.6390359
300.7682965
300.9088334
301.0575625
301.2107702
301.3642111
301.5132487
301.6530369
301.7787357
301.8857537
301.9700039
302.0281525
302.0578387
302.0578381
302.0281508
301.9700012
301.8857502
301.7787315
301.6530322
301.5132437
301.3642061
301.2107654
301.057558
300.9088294
300.7682928
300.6390327
300.5234566
300.4233011
300.3396897
300.2732378
300.2241887
300.1925598
300.1782773
300.1015894
300.1077491
300.1230905
300.1476311
300.1813338
300.2240414
300.2754041
300.3348136
300.4013502
300.4737541
300.5504212
300.629426
300.7085703
300.7854551
300.8575739
300.9224249
300.9776368
301.0211002
301.0510966
301.0664099
301.0664096
301.0510958
301.021099
300.9776351
300.922423
300.8575718
300.7854529
300.7085681
300.6294238
300.5504192
300.4737523
300.4013486
300.3348122
300.275403
300.2240404
300.181333
300.1476304
300.1230899
300.1077486
300.1015888
680.3178736
745.193998
813.843977
861.6969167
895.4924888
931.9727155
980.3527341
1033.294914
1087.922345
1143.82365
1196.647374
1248.011677
1296.196947
1337.729322
1371.049662
1398.107532
1421.226837
1436.516429
1448.146871
1454.650932
1454.651197
1448.14658
1436.513344
1421.222232
1398.104927
1371.05476
1337.737127
1296.206893
1248.025118
1196.654876
1143.792552
1087.829438
1033.127166
980.2805146
932.0555033
895.5137957
861.6689341
813.8403716
745.1756325
679.9991441
690.9696276
742.285072
802.8803123
848.5030062
869.9044329
888.5867119
929.5804823
972.8502418
1023.251638
1086.099515
1145.204314
1200.743705
1249.80475
1291.945948
1323.847593
1352.718415
1385.597861
1403.396144
1421.331672
1431.363837
1431.364972
1421.333399
1403.392428
1385.589829
1352.709779
1323.853818
1291.947944
1249.803391
1200.746324
1145.202522
1085.991692
1023.081457
972.4804814
929.6817086
889.129411
870.0691001
848.5848578
802.9949894
742.3523339
690.6714718
700.0869062
747.370285
807.5869658
847.2860092
868.4871384
882.4996629
909.4166341
942.4673561
1006.103397
1077.988048
1139.634626
1196.039694
1243.702671
1285.085059
1315.47345
1342.99084
1378.427468
1393.338262
1408.282296
1412.978719
1412.976793
1408.278326
1393.33063
1378.416908
1342.980091
1315.47485
1285.084684
1243.693639
1196.035066
1139.627547
1077.854168
1005.97353
942.5252301
909.9937384
883.1815219
868.6877
847.3907931
807.6249348
747.5407446
699.881918
644.8453067
689.8202494
761.1397035
868.6111672
887.571077
895.4305668
925.6821488
953.4925662
1010.847679
1086.246263
1145.509201
1204.393704
1244.359806
1283.143873
1313.210887
1342.78994
1381.472254
1395.133423
1410.697375
1414.792323
1414.790402
1410.692471
1395.123777
1381.459974
1342.776382
1313.214019
1283.141517
1244.320944
1204.367217
1145.506888
1086.034112
1010.729796
953.4097155
926.4630384
896.6198662
888.6246889
869.4379917
761.0528546
689.6758418
644.4777398
474.3058288
508.7907017
547.3700424
608.2147836
637.2289877
670.0437395
713.9178313
764.9926945
824.1914809
890.0270647
957.7120856
1025.800087
1091.552394
1151.231425
1199.660132
1239.616161
1274.958416
1297.431531
1312.081349
1318.224857
1318.224475
1312.079946
1297.429233
1274.954504
1239.612191
1199.659799
1151.232598
1091.551817
1025.801074
957.7202265
890.0088318
824.1774961
765.0167819
714.0055722
670.1602606
637.2404689
608.3716395
547.255115
508.5801822
474.2956956
389.2192161
403.0294096
424.2684715
450.8262716
480.0212157
515.8452812
559.7045347
612.0195705
674.3215586
738.3007479
805.011949
870.9066532
933.2720529
988.6436868
1039.68118
1084.9622
1123.091532
1151.399721
1170.411784
1179.616658
1179.616696
1170.411812
1151.399683
1123.091169
1084.96165
1039.680872
988.6434844
933.2714437
870.905744
805.0110089
738.2970351
674.31783
612.0167301
559.7055673
515.8388101
480.009679
450.8362274
424.2778798
403.0246795
389.2094084
358.2048118
365.6408655
378.8456695
397.5960563
421.4101647
450.9813947
486.5070845
527.8536045
574.341834
623.7433784
674.9720616
725.767158
774.1982098
818.631184
859.7103433
896.4535094
927.4246186
951.2381156
967.3685518
975.4499482
975.4499673
967.3685786
951.2381018
927.4244741
896.4532032
859.7098776
818.6305493
774.197349
725.7660591
674.9706646
623.7413202
574.3392764
527.8505435
486.5032828
450.9750353
421.404101
397.5946074
378.844795
365.6380841
358.2003523
340.7959234
345.5442443
354.7400016
368.3301248
386.220779
408.4896017
435.0477008
465.5894006
499.4773123
535.6808974
573.1898679
610.6691406
646.8881032
680.8705807
712.301271
740.4054101
764.1696822
782.6758011
795.3121767
801.7071273
801.7070932
795.3120665
782.6756006
764.1693699
740.4049736
712.3007003
680.8698788
646.8872829
610.6682166
573.1888203
535.679647
499.4758268
465.5876449
435.0455361
408.4868237
386.2181967
368.3285227
354.7385999
345.5425747
340.7940038
329.2474301
332.5099384
338.9890378
348.6593692
361.4805237
377.4104607
396.3181674
417.939147
441.8349658
467.3989259
493.9348167
520.6315122
546.7003274
571.4583587
594.3999312
614.9097669
632.2949246
645.9125977
655.2607263
660.0132646
660.0132103
655.260563
645.9123267
632.2945481
614.9092904
594.3993604
571.4577047
546.6996082
520.6307471
493.9340125
467.39807
441.8340442
417.9381453
396.3170541
377.4092272
361.4793403
348.6583675
338.9880837
332.5089623
329.2464462
320.5765228
322.8090816
327.264975
333.9261374
342.761246
353.716103
366.6826727
381.473986
397.8070013
415.3054278
433.5211256
451.9477267
470.0707453
487.4045225
503.5074673
517.9162555
530.1517172
539.7653774
546.3872767
549.7626908
549.7626377
546.3871192
539.7651204
530.1513686
517.9158258
503.5069684
487.4039681
470.0701518
451.9471111
433.5205
415.3047971
397.8063654
381.4733419
366.682014
353.7154319
342.7605923
333.9255198
327.2643721
322.8084854
320.5759378
313.9599665
315.4424928
318.4044896
322.8333254
328.7059508
335.9806695
344.5828457
354.3912082
365.2287332
376.8622715
389.0101644
401.3533807
413.5560942
425.2825966
436.204612
445.9905249
454.3108601
460.8589603
465.3776816
467.6843196
467.6842761
465.3775528
460.8587511
454.3105784
445.9901807
436.204217
425.2821635
413.5556367
401.3529121
389.0096958
376.8618102
365.228283
354.3907696
344.5824173
335.9802511
328.7055463
322.8329365
318.4041119
315.4421237
313.9596046
309.1026513
310.0539382
311.9562452
314.8020742
318.5769379
323.2540117
328.7864247
335.099494
342.0852554
349.601147
357.4728995
365.500605
373.4679995
381.1510024
388.3232315
394.7578034
400.2334162
404.5461081
407.5247017
409.0461308
409.0460985
407.5246063
404.5459534
400.2332086
394.757551
388.3229436
381.1506891
373.4676712
365.5002715
357.4725693
349.6008262
342.0849476
335.0992006
328.7861452
323.2537453
318.5766845
314.801833
311.9560141
310.053715
309.1024328
305.7192367
306.3099151
307.4928315
309.264282
311.6163273
314.5334067
317.9878493
321.9353138
326.311399
331.0303561
335.986104
341.0552111
346.1013843
350.9801529
355.5429941
359.6410571
363.130446
365.8797266
367.7790908
368.7494643
368.7494422
367.7790254
365.8796208
363.1303043
359.6408855
355.5427992
350.9799422
346.1011649
341.0549898
335.9858866
331.0301469
326.3112007
321.9351275
317.9876748
314.5332435
311.6161744
309.2641388
307.4926963
306.309786
305.7191109
303.4780036
303.8336231
304.5474313
305.6179443
307.0412669
308.8089561
310.9053327
313.3047741
315.96963
318.8492456
321.8802455
324.987954
328.088675
331.0923776
333.9055502
336.434335
338.5884263
340.2858989
341.4586783
342.0578557
342.0578415
341.4586365
340.2858314
338.5883361
336.4342261
333.9054271
331.0922451
328.088538
324.9878167
321.8801117
318.8491179
315.9695102
313.3046628
310.90523
308.8088615
307.0411797
305.6178637
304.5473564
303.8335523
303.477935
302.0565444
302.2643569
302.6829825
303.3119896
304.1496215
305.1914721
306.4288826
307.8473498
309.4252763
311.1333124
312.9343867
314.7843797
316.6333189
318.4269362
320.1085121
321.6210426
322.9098321
323.9254984
324.6271995
324.9856846
324.9856761
324.6271744
323.925458
322.9097783
321.6209778
320.1084391
318.4268582
316.6332386
314.7842998
312.9343094
311.1332393
309.4252083
307.8472874
306.4288256
305.1914204
304.1495746
303.3119468
302.6829433
302.2643202
302.056509
301.1873238
301.3051239
301.5438438
301.9034431
302.3831646
302.9807393
303.6914532
304.5072313
305.4159115
306.4008347
307.4408068
308.5104203
309.580691
310.6199522
311.5949817
312.4723645
313.220096
313.8093771
314.2164746
314.4244395
314.4244347
314.2164605
313.8093543
313.2200658
312.4723282
311.594941
310.6199089
309.5806467
308.5103765
307.4407647
306.4007953
305.4158751
304.5071983
303.6914235
302.9807127
302.3831407
301.9034216
301.5438243
301.3051058
301.1873065
300.6719763
300.7365421
300.8687842
301.0687553
301.3361201
301.6696986
302.0669392
302.5234082
303.0323816
303.5846038
304.1682449
304.7690561
305.370709
305.9552984
306.5039995
306.9978727
307.4188022
307.7505251
307.979675
308.0967279
308.0967253
307.9796675
307.750513
307.4187861
306.9978535
306.503978
305.9552757
305.3706859
304.7690334
304.1682232
303.5845837
303.0323632
302.5233917
302.0669245
301.6696856
301.3361086
301.0687451
300.8687751
300.7365336
300.6719683
300.3746431
300.4085851
300.4795382
300.5875444
300.7324343
300.9135755
301.1295864
301.3780614
301.6553491
301.9564172
302.2748215
302.6027816
302.9313598
303.2507361
303.5505765
303.8204851
304.0505297
304.23181
304.3570252
304.4209824
304.4209811
304.3570214
304.2318039
304.0505216
303.8204754
303.5505657
303.2507248
302.9313483
302.6027705
302.2748109
301.9564074
301.6553402
301.3780536
301.1295795
300.9135694
300.732429
300.5875397
300.4795341
300.4085814
300.3746395
300.2073956
300.2241904
300.2608114
300.3172705
300.393462
300.4890309
300.6032237
300.7347462
300.8816475
301.0412479
301.21012
301.3841251
301.5585063
301.7280345
301.8872064
302.0304892
302.1526023
302.2488208
302.3152749
302.3492157
302.3492151
302.3152731
302.2488179
302.1525985
302.0304846
301.8872013
301.7280291
301.5585009
301.3841199
301.2101151
301.0412434
300.8816435
300.7347427
300.6032206
300.4890282
300.3934597
300.3172685
300.2608096
300.2241888
300.2073941
300.115642
300.1230907
300.1409947
300.169342
300.2080531
300.2569158
300.3155114
300.3831442
300.4587842
300.5410297
300.6280975
300.7178401
300.807793
300.8952491
300.9773622
301.0512735
301.1142577
301.1638799
301.1981481
301.2156489
301.2156486
301.1981472
301.1638785
301.114256
301.0512714
300.9773599
300.8952467
300.8077905
300.7178378
300.6280953
300.5410277
300.4587824
300.3831427
300.3155101
300.2569147
300.2080522
300.1693411
300.1409939
300.1230901
300.1156414
740.3576241
798.3618825
861.6114174
904.4219759
943.4595475
993.2827473
1060.105059
1131.091791
1195.05411
1250.690847
1300.225233
1353.056645
1404.772104
1449.280609
1484.224338
1514.146912
1540.318406
1558.207396
1569.924957
1575.618125
1575.618268
1569.924886
1558.206059
1540.316508
1514.146669
1484.230399
1449.2898
1404.784325
1353.070877
1300.231932
1250.664475
1194.95981
1130.907057
1060.010468
993.3394064
943.5876309
904.4561474
861.5955217
798.2464918
740.2060967
724.8913268
782.5966182
848.3659649
878.7597904
900.8425511
942.4845937
1002.199088
1084.672182
1160.366106
1217.106636
1252.345671
1311.586021
1378.243746
1432.831493
1468.564798
1501.639098
1535.502323
1555.651055
1569.487622
1575.815217
1575.815258
1569.487247
1555.648295
1535.498448
1501.636457
1468.578237