/*--------------------------------*- C++ -*----------------------------------*\
  =========                 |
  \\      /  F ield         | OpenFOAM: The Open Source CFD Toolbox
   \\    /   O peration     | Website:  https://openfoam.org
    \\  /    A nd           | Version:  10
     \\/     M anipulation  |
\*---------------------------------------------------------------------------*/
FoamFile
{
    format      ascii;
    class       volScalarField;
    location    "0.0004";
    object      TLiquidus;
}
// * * * * * * * * * * * * * * * * * * * * * * * * * * * * * * * * * * * * * //

dimensions      [0 0 0 1 0 0 0];

internalField   nonuniform List<scalar> 
16000
(
183.373001
36.60601756
10.97815936
10.34421177
10.1002802
10.08000898
10.07986072
10.08827405
10.11142233
10.12335048
10.11799875
10.07295097
10.05425206
10.05431987
10.06497609
10.06656769
10.06060769
10.08707385
10.11212119
10.10799991
10.10800013
10.11213384
10.0870885
10.06058866
10.06652767
10.06499499
10.05415771
10.05416504
10.07362387
10.11771895
10.12293767
10.11124184
10.08800097
10.07958986
10.0797608
10.09991684
10.34332957
10.97668329
36.90048543
182.5866934
517.5091432
331.7806087
61.99349781
16.23449864
10.39629802
10.81379669
10.03284384
10.03115674
10.02703419
10.02339754
10.0280289
10.03435524
10.0374689
10.04163612
10.04878151
10.43450916
10.13421509
10.1712091
10.1849305
10.16221489
10.16220868
10.18489166
10.17119051
10.13417575
10.43278768
10.04863229
10.04149909
10.03732077
10.03415847
10.02783811
10.023176
10.02686236
10.03099394
10.03270051
10.82295394
10.39597726
16.19850832
62.15798151
333.9677853
519.1728925
461.469942
663.9977123
688.3763702
450.3018675
282.4711609
239.4949944
307.7466426
394.9577834
463.2859883
481.5628416
481.8165023
453.569426
422.5220154
403.7988214
342.5493247
303.3413087
263.2028887
208.2711783
170.6258884
139.309504
139.3001289
170.5640181
208.2067149
263.1021617
303.2812348
342.3961077
403.7664513
422.3985869
453.6267025
482.0373982
481.5070171
463.2966839
395.1356591
308.1423133
239.6518618
282.3684471
449.8721199
687.7079615
663.7997037
461.2052151
455.319028
610.771612
836.3591569
803.8123624
792.3103448
775.8045072
772.7476087
795.0693507
844.1019144
951.3252354
1019.41194
1128.667101
1183.466563
1227.544185
1259.71005
1248.895769
1235.834198
1202.053143
1176.025146
1155.371594
1155.367255
1175.985814
1202.018217
1235.785866
1248.876163
1259.691689
1227.570249
1183.446299
1128.735602
1019.422345
950.9236843
844.037545
795.0915043
774.2471604
775.4084338
791.8653846
803.5472775
836.1781453
608.6417061
455.2040154
455.319031
493.7522312
489.2461223
504.997563
544.1056875
572.6160586
654.0619175
781.4708351
884.3619278
942.8404221
986.5993617
1034.112831
1075.725945
1113.211571
1140.134371
1160.216871
1175.310614
1185.966134
1193.302982
1196.48102
1196.480246
1193.300241
1185.963217
1175.302529
1160.207305
1140.119107
1113.199388
1075.689666
1034.113185
986.5550208
942.8071163
884.2857112
781.7226002
652.7196582
572.3387144
543.5629284
504.9073584
489.148653
493.4611425
455.2040167
1928.149186
1928.149356
1928.149787
1928.149952
1928.149852
1928.149813
1928.149883
1928.149924
1928.149952
1928.149948
1928.149978
1928.149987
1928.149983
1928.149981
1928.149979
1928.149977
1928.149976
1928.149977
1928.149976
1928.149975
1928.149976
1928.149973
1928.14997
1928.149967
1928.149961
1928.149956
1928.149949
1928.149939
1928.149916
1928.149909
1928.149934
1928.149934
1928.149926
1928.14989
1928.149847
1928.149814
1928.149886
1928.149854
1928.149906
1928.149655
1928.15
1928.15
1928.15
1928.15
1928.15
1928.15
1928.15
1928.15
1928.15
1928.15
1928.15
1928.15
1928.15
1928.15
1928.15
1928.15
1928.15
1928.15
1928.15
1928.15
1928.15
1928.15
1928.15
1928.15
1928.15
1928.15
1928.15
1928.15
1928.15
1928.15
1928.15
1928.15
1928.15
1928.15
1928.15
1928.15
1928.15
1928.15
1928.15
1928.15
1928.15
1928.15
1928.15
1928.15
1928.15
1928.15
1928.15
1928.15
1928.15
1928.15
1928.15
1928.15
1928.15
1928.15
1928.15
1928.15
1928.15
1928.15
1928.15
1928.15
1928.15
1928.15
1928.15
1928.15
1928.15
1928.15
1928.15
1928.15
1928.15
1928.15
1928.15
1928.15
1928.15
1928.15
1928.15
1928.15
1928.15
1928.15
1928.15
1928.15
1928.15
1928.15
1928.15
1928.15
1928.15
1928.15
1928.15
1928.15
1928.15
1928.15
1928.15
1928.15
1928.15
1928.15
1928.15
1928.15
1928.15
1928.15
1928.15
1928.15
1928.15
1928.15
1928.15
1928.15
1928.15
1928.15
1928.15
1928.15
1928.15
1928.15
1928.15
1928.15
1928.15
1928.15
1928.15
1928.15
1928.15
1928.15
1928.15
1928.15
1928.15
1928.15
1928.15
1928.15
1928.15
1928.15
1928.15
1928.15
1928.15
1928.15
1928.15
1928.15
1928.15
1928.15
1928.15
1928.15
1928.15
1928.15
1928.15
1928.15
1928.15
1928.15
1928.15
1928.15
1928.15
1928.15
1928.15
1928.15
1928.15
1928.15
1928.15
1928.15
1928.15
1928.15
1928.15
1928.15
1928.15
1928.15
1928.15
1928.15
1928.15
1928.15
1928.15
1928.15
1928.15
1928.15
1928.15
1928.15
1928.15
1928.15
1928.15
1928.15
1928.15
1928.15
1928.15
1928.15
1928.15
1928.15
1928.15
1928.15
1928.15
1928.15
1928.15
1928.15
1928.15
1928.15
1928.15
1928.15
1928.15
1928.15
1928.15
1928.15
1928.15
1928.15
1928.15
1928.15
1928.15
1928.15
1928.15
1928.15
1928.15
1928.15
1928.15
1928.15
1928.15
1928.15
1928.15
1928.15
1928.15
1928.15
1928.15
1928.15
1928.15
1928.15
1928.15
1928.15
1928.15
1928.15
1928.15
1928.15
1928.15
1928.15
1928.15
1928.15
1928.15
1928.15
1928.15
1928.15
1928.15
1928.15
1928.15
1928.15
1928.15
1928.15
1928.15
1928.15
1928.15
1928.15
1928.15
1928.15
1928.15
1928.15
1928.15
1928.15
1928.15
1928.15
1928.15
1928.15
1928.15
1928.15
1928.15
1928.15
1928.15
1928.15
1928.15
1928.15
1928.15
1928.15
1928.15
1928.15
1928.15
1928.15
1928.15
1928.15
1928.15
1928.15
1928.15
1928.15
1928.15
1928.15
1928.15
1928.15
1928.15
1928.15
1928.15
1928.15
1928.15
1928.15
1928.15
1928.15
1928.15
1928.15
1928.15
1928.15
1928.15
1928.15
1928.15
1928.15
1928.15
1928.15
1928.15
1928.15
1928.15
1928.15
1928.15
1928.15
1928.15
1928.15
1928.15
1928.15
1928.15
1928.15
1928.15
1928.15
1928.15
1928.15
1928.15
1928.15
1928.15
1928.15
1928.15
1928.15
1928.15
1928.15
1928.15
1928.15
1928.15
1928.15
1928.15
1928.15
1928.15
1928.15
1928.15
1928.15
1928.15
1928.15
1928.15
1928.15
1928.15
1928.15
1928.15
1928.15
1928.15
1928.15
1928.15
1928.15
1928.15
1928.15
1928.15
1928.15
1928.15
1928.15
1928.15
1928.15
1928.15
1928.15
1928.15
1928.15
1928.15
1928.15
1928.15
1928.15
1928.15
1928.15
1928.15
1928.15
1928.15
1928.15
1928.15
1928.15
1928.15
1928.15
1928.15
1928.15
1928.15
1928.15
1928.15
1928.15
1928.15
1928.15
1928.15
1928.15
1928.15
1928.15
1928.15
1928.15
1928.15
1928.15
1928.15
1928.15
1928.15
1928.15
1928.15
1928.15
1928.15
1928.15
1928.15
1928.15
1928.15
1928.15
1928.15
1928.15
1928.15
1928.15
1928.15
1928.15
1928.15
1928.15
1928.15
1928.15
1928.15
1928.15
1928.15
1928.15
1928.15
1928.15
1928.15
1928.15
1928.15
1928.15
1928.15
1928.15
1928.15
1928.15
1928.15
1928.15
1928.15
1928.15
1928.15
1928.15
1928.15
1928.15
1928.15
1928.15
1928.15
1928.15
1928.15
1928.15
1928.15
1928.15
1928.15
1928.15
1928.15
1928.15
1928.15
1928.15
1928.15
1928.15
1928.15
1928.15
1928.15
1928.15
1928.15
1928.15
1928.15
1928.15
1928.15
1928.15
1928.15
1928.15
1928.15
1928.15
1928.15
1928.15
1928.15
1928.15
1928.15
1928.15
1928.15
1928.15
1928.15
1928.15
1928.15
1928.15
1928.15
1928.15
1928.15
1928.15
1928.15
1928.15
1928.15
1928.15
1928.15
1928.15
1928.15
1928.15
1928.15
1928.15
1928.15
1928.15
1928.15
1928.15
1928.15
1928.15
1928.15
1928.15
1928.15
1928.15
1928.15
1928.15
1928.15
1928.15
1928.15
1928.15
1928.15
1928.15
1928.15
1928.15
1928.15
1928.15
1928.15
1928.15
1928.15
1928.15
1928.15
1928.15
1928.15
1928.15
1928.15
1928.15
1928.15
1928.15
1928.15
1928.15
1928.15
1928.15
1928.15
1928.15
1928.15
1928.15
1928.15
1928.15
1928.15
1928.15
1928.15
1928.15
1928.15
1928.15
1928.15
1928.15
1928.15
1928.15
1928.15
1928.15
1928.15
1928.15
1928.15
1928.15
1928.15
1928.15
1928.15
1928.15
1928.15
1928.15
1928.15
1928.15
1928.15
1928.15
1928.15
1928.15
1928.15
1928.15
1928.15
1928.15
1928.15
1928.15
1928.15
1928.15
1928.15
1928.15
36.59262534
12.68977407
10.66604827
10.27376479
10.08652362
10.04582352
10.04614763
10.03092026
10.03245154
10.03918831
10.04977175
10.04976241
10.04531747
10.03823668
10.03581518
10.03679793
10.03597663
10.05148544
10.07443342
10.07460314
10.07460791
10.07444722
10.05151291
10.03596879
10.03677134
10.03579021
10.03821023
10.04528407
10.04967609
10.0497057
10.03922055
10.03237157
10.03079292
10.04602594
10.04570418
10.08630996
10.27088805
10.65971382
12.66778944
36.82531317
331.1671604
118.099363
46.19589384
10.64030274
10.32301108
10.04983707
10.03115674
10.02703419
10.02339751
10.02005008
10.0197
10.36634818
10.19389727
10.33008785
10.22752357
10.3305362
10.23106316
10.2262567
10.16578329
10.13253607
10.13251243
10.16570326
10.22617359
10.2310284
10.33062534
10.22604549
10.32971529
10.19369972
10.36508913
10.01959664
10.01988358
10.02317597
10.02686236
10.03099394
10.04827295
10.32089271
10.63734546
45.53536338
117.0890176
333.327549
664.8930523
731.5854087
614.5180813
349.2348412
239.6555272
169.7905131
200.2691438
272.9773948
332.126427
348.8605218
330.3889433
287.5559801
237.8596707
181.6245586
142.4328509
120.7057636
115.323888
88.17141835
74.4377609
62.17092449
62.16813448
74.42145316
88.1433118
115.2813585
120.6781515
142.3243633
181.5622329
237.7348582
287.4858428
330.425222
348.7863913
332.0582897
273.0723601
200.2822635
170.0867741
238.8791098
348.4034389
612.3681549
732.4727379
664.7199884
611.2336985
836.3591569
836.5295046
885.7169373
889.6181065
886.2280466
909.0163023
936.6909144
994.9974842
1066.863353
1127.772659
1203.351475
1246.958948
1307.050315
1330.894248
1308.369977
1277.652442
1223.144647
1184.157089
1144.151867
1144.139338
1184.088394
1223.07708
1277.569154
1308.336169
1330.832527
1307.075329
1246.967946
1203.413779
1127.815345
1066.717315
994.944663
936.3199106
909.6915376
885.9101903
890.1119721
885.6659849
836.3407491
836.1781453
609.8446346
494.0366965
530.3785683
523.6749209
571.1049003
678.3701409
872.157145
950.3256182
1007.636628
1059.029977
1106.352801
1175.823487
1251.283488
1326.467707
1391.571053
1450.194979
1508.074131
1563.169396
1603.322875
1640.05877
1661.224389
1661.226902
1640.063386
1603.333098
1563.178474
1508.080286
1450.197587
1391.565573
1326.467495
1251.278198
1175.822276
1106.309295
1058.951358
1007.580599
950.4435685
871.1526451
677.4985965
571.1919863
523.4952518
530.4159312
494.3933009
1928.149357
1928.14976
1928.149905
1928.149938
1928.149926
1928.149918
1928.149873
1928.14988
1928.149925
1928.149972
1928.149979
1928.149988
1928.149986
1928.149986
1928.149983
1928.149989
1928.149991
1928.149992
1928.149991
1928.149988
1928.149988
1928.14999
1928.149989
1928.149984
1928.149979
1928.149964
1928.149954
1928.14994
1928.149926
1928.149902
1928.149926
1928.149965
1928.149941
1928.14992
1928.149912
1928.149915
1928.14984
1928.149894
1928.149786
1928.14964
1928.15
1928.15
1928.15
1928.15
1928.15
1928.15
1928.15
1928.15
1928.15
1928.15
1928.15
1928.15
1928.15
1928.15
1928.15
1928.15
1928.15
1928.15
1928.15
1928.15
1928.15
1928.15
1928.15
1928.15
1928.15
1928.15
1928.15
1928.15
1928.15
1928.15
1928.15
1928.15
1928.15
1928.15
1928.15
1928.15
1928.15
1928.15
1928.15
1928.15
1928.15
1928.15
1928.15
1928.15
1928.15
1928.15
1928.15
1928.15
1928.15
1928.15
1928.15
1928.15
1928.15
1928.15
1928.15
1928.15
1928.15
1928.15
1928.15
1928.15
1928.15
1928.15
1928.15
1928.15
1928.15
1928.15
1928.15
1928.15
1928.15
1928.15
1928.15
1928.15
1928.15
1928.15
1928.15
1928.15
1928.15
1928.15
1928.15
1928.15
1928.15
1928.15
1928.15
1928.15
1928.15
1928.15
1928.15
1928.15
1928.15
1928.15
1928.15
1928.15
1928.15
1928.15
1928.15
1928.15
1928.15
1928.15
1928.15
1928.15
1928.15
1928.15
1928.15
1928.15
1928.15
1928.15
1928.15
1928.15
1928.15
1928.15
1928.15
1928.15
1928.15
1928.15
1928.15
1928.15
1928.15
1928.15
1928.15
1928.15
1928.15
1928.15
1928.15
1928.15
1928.15
1928.15
1928.15
1928.15
1928.15
1928.15
1928.15
1928.15
1928.15
1928.15
1928.15
1928.15
1928.15
1928.15
1928.15
1928.15
1928.15
1928.15
1928.15
1928.15
1928.15
1928.15
1928.15
1928.15
1928.15
1928.15
1928.15
1928.15
1928.15
1928.15
1928.15
1928.15
1928.15
1928.15
1928.15
1928.15
1928.15
1928.15
1928.15
1928.15
1928.15
1928.15
1928.15
1928.15
1928.15
1928.15
1928.15
1928.15
1928.15
1928.15
1928.15
1928.15
1928.15
1928.15
1928.15
1928.15
1928.15
1928.15
1928.15
1928.15
1928.15
1928.15
1928.15
1928.15
1928.15
1928.15
1928.15
1928.15
1928.15
1928.15
1928.15
1928.15
1928.15
1928.15
1928.15
1928.15
1928.15
1928.15
1928.15
1928.15
1928.15
1928.15
1928.15
1928.15
1928.15
1928.15
1928.15
1928.15
1928.15
1928.15
1928.15
1928.15
1928.15
1928.15
1928.15
1928.15
1928.15
1928.15
1928.15
1928.15
1928.15
1928.15
1928.15
1928.15
1928.15
1928.15
1928.15
1928.15
1928.15
1928.15
1928.15
1928.15
1928.15
1928.15
1928.15
1928.15
1928.15
1928.15
1928.15
1928.15
1928.15
1928.15
1928.15
1928.15
1928.15
1928.15
1928.15
1928.15
1928.15
1928.15
1928.15
1928.15
1928.15
1928.15
1928.15
1928.15
1928.15
1928.15
1928.15
1928.15
1928.15
1928.15
1928.15
1928.15
1928.15
1928.15
1928.15
1928.15
1928.15
1928.15
1928.15
1928.15
1928.15
1928.15
1928.15
1928.15
1928.15
1928.15
1928.15
1928.15
1928.15
1928.15
1928.15
1928.15
1928.15
1928.15
1928.15
1928.15
1928.15
1928.15
1928.15
1928.15
1928.15
1928.15
1928.15
1928.15
1928.15
1928.15
1928.15
1928.15
1928.15
1928.15
1928.15
1928.15
1928.15
1928.15
1928.15
1928.15
1928.15
1928.15
1928.15
1928.15
1928.15
1928.15
1928.15
1928.15
1928.15
1928.15
1928.15
1928.15
1928.15
1928.15
1928.15
1928.15
1928.15
1928.15
1928.15
1928.15
1928.15
1928.15
1928.15
1928.15
1928.15
1928.15
1928.15
1928.15
1928.15
1928.15
1928.15
1928.15
1928.15
1928.15
1928.15
1928.15
1928.15
1928.15
1928.15
1928.15
1928.15
1928.15
1928.15
1928.15
1928.15
1928.15
1928.15
1928.15
1928.15
1928.15
1928.15
1928.15
1928.15
1928.15
1928.15
1928.15
1928.15
1928.15
1928.15
1928.15
1928.15
1928.15
1928.15
1928.15
1928.15
1928.15
1928.15
1928.15
1928.15
1928.15
1928.15
1928.15
1928.15
1928.15
1928.15
1928.15
1928.15
1928.15
1928.15
1928.15
1928.15
1928.15
1928.15
1928.15
1928.15
1928.15
1928.15
1928.15
1928.15
1928.15
1928.15
1928.15
1928.15
1928.15
1928.15
1928.15
1928.15
1928.15
1928.15
1928.15
1928.15
1928.15
1928.15
1928.15
1928.15
1928.15
1928.15
1928.15
1928.15
1928.15
1928.15
1928.15
1928.15
1928.15
1928.15
1928.15
1928.15
1928.15
1928.15
1928.15
1928.15
1928.15
1928.15
1928.15
1928.15
1928.15
1928.15
1928.15
1928.15
1928.15
1928.15
1928.15
1928.15
1928.15
1928.15
1928.15
1928.15
1928.15
1928.15
1928.15
1928.15
1928.15
1928.15
1928.15
1928.15
1928.15
1928.15
1928.15
1928.15
1928.15
1928.15
1928.15
1928.15
1928.15
1928.15
1928.15
1928.15
1928.15
1928.15
1928.15
1928.15
1928.15
1928.15
1928.15
1928.15
1928.15
1928.15
1928.15
1928.15
1928.15
1928.15
1928.15
1928.15
1928.15
1928.15
1928.15
1928.15
1928.15
1928.15
1928.15
1928.15
1928.15
1928.15
1928.15
1928.15
1928.15
1928.15
1928.15
1928.15
1928.15
1928.15
1928.15
1928.15
1928.15
1928.15
1928.15
1928.15
1928.15
1928.15
1928.15
1928.15
1928.15
1928.15
1928.15
1928.15
1928.15
1928.15
1928.15
1928.15
1928.15
1928.15
1928.15
1928.15
1928.15
1928.15
1928.15
1928.15
1928.15
1928.15
1928.15
1928.15
1928.15
1928.15
1928.15
1928.15
1928.15
1928.15
1928.15
1928.15
1928.15
1928.15
1928.15
1928.15
1928.15
1928.15
1928.15
1928.15
1928.15
1928.15
1928.15
1928.15
1928.15
1928.15
1928.15
1928.15
1928.15
1928.15
1928.15
10.98219682
10.66760582
10.5681841
10.29203151
10.14181691
10.05409922
10.02811884
10.01870841
10.01723394
10.01723521
10.01510624
10.01232978
10.01235297
10.01211349
10.00869222
10.00560828
10.001686
10.00330774
10.0040745
10.00475079
10.00475125
10.00407602
10.00331095
10.00168771
10.00560595
10.00868201
10.01210754
10.01234473
10.01229407
10.0150645
10.0171942
10.01717768
10.01863541
10.0280226
10.05384709
10.13989771
10.28792338
10.5598902
10.66146908
10.97945609
62.22257142
46.24951831
12.27583816
11.22090663
10.55325486
10.18756969
10.64417256
10.40058932
10.25671004
10.01635257
10.01530074
10.30233391
10.11558012
10.02075511
10.01680377
10.05962882
10.02933362
10.05114883
10.0751895
10.07625459
10.07626014
10.07520502
10.05117654
10.02934565
10.05961562
10.01678766
10.02073572
10.11555107
10.30040632
10.01525267
10.01630425
10.25400838
10.39814379
10.64452721
10.18549833
10.55340314
11.24554413
12.19180166
45.60817013
62.39420361
688.5158435
614.6859309
436.0941984
332.969817
242.4299359
103.8751372
36.68781822
31.24566899
52.67940291
83.32898905
97.84924587
104.9774223
101.8227373
102.6735377
90.20898305
75.91870122
73.21316695
54.51091967
35.09315886
22.75144605
22.74757672
35.07648519
54.49353119
73.1940044
75.91459784
90.16562241
102.6596882
101.7846704
104.9172637
97.78685763
83.16541557
52.77827925
31.72750451
36.99887721
103.2800727
241.0138858
331.2228221
434.3510763
612.6556325
688.0505027
836.0803013
836.2514445
868.4802711
890.0615903
895.6312544
899.1595775
931.808173
958.6870173
1019.95585
1100.604584
1158.927727
1215.615252
1244.503196
1260.06743
1241.317533
1164.734604
1083.56191
975.8607455
911.4771028
861.3637766
861.3514708
911.4122642
975.7864578
1083.434752
1164.634356
1241.207886
1260.0299
1244.457792
1215.58525
1158.917292
1100.361289
1019.853887
958.4507793
932.7807011
900.5542097
896.8575095
890.9083465
868.5097414
836.3190461
836.1554314
489.2314052
523.6932493
548.3214088
782.5117022
755.072782
753.8287315
805.6810414
890.8759749
972.6314064
1073.588803
1168.463299
1273.681896
1367.387371
1458.490812
1540.820615
1631.69281
1697.588043
1731.06124
1796.110776
1809.367875
1809.36669
1796.107666
1731.055917
1697.582622
1631.686689
1540.816311
1458.491501
1367.391298
1273.69936
1168.481592
1073.583305
972.6289042
890.8880998
805.6739555
753.8236616
755.0754395
783.1342768
548.0457746
523.4673213
489.2205637
1928.14979
1928.149907
1928.149851
1928.149942
1928.149961
1928.149899
1928.149869
1928.149912
1928.149927
1928.14992
1928.14994
1928.149956
1928.149966
1928.149973
1928.14998
1928.149977
1928.14998
1928.149987
1928.14999
1928.149992
1928.149991
1928.149987
1928.149982
1928.149977
1928.149972
1928.149972
1928.149965
1928.149949
1928.149934
1928.149924
1928.149914
1928.149929
1928.149957
1928.149937
1928.149941
1928.149955
1928.149891
1928.149886
1928.149716
1928.149874
1928.15
1928.15
1928.15
1928.15
1928.15
1928.15
1928.15
1928.15
1928.15
1928.15
1928.15
1928.15
1928.15
1928.15
1928.15
1928.15
1928.15
1928.15
1928.15
1928.15
1928.15
1928.15
1928.15
1928.15
1928.15
1928.15
1928.15
1928.15
1928.15
1928.15
1928.15
1928.15
1928.15
1928.15
1928.15
1928.15
1928.15
1928.15
1928.15
1928.15
1928.15
1928.15
1928.15
1928.15
1928.15
1928.15
1928.15
1928.15
1928.15
1928.15
1928.15
1928.15
1928.15
1928.15
1928.15
1928.15
1928.15
1928.15
1928.15
1928.15
1928.15
1928.15
1928.15
1928.15
1928.15
1928.15
1928.15
1928.15
1928.15
1928.15
1928.15
1928.15
1928.15
1928.15
1928.15
1928.15
1928.15
1928.15
1928.15
1928.15
1928.15
1928.15
1928.15
1928.15
1928.15
1928.15
1928.15
1928.15
1928.15
1928.15
1928.15
1928.15
1928.15
1928.15
1928.15
1928.15
1928.15
1928.15
1928.15
1928.15
1928.15
1928.15
1928.15
1928.15
1928.15
1928.15
1928.15
1928.15
1928.15
1928.15
1928.15
1928.15
1928.15
1928.15
1928.15
1928.15
1928.15
1928.15
1928.15
1928.15
1928.15
1928.15
1928.15
1928.15
1928.15
1928.15
1928.15
1928.15
1928.15
1928.15
1928.15
1928.15
1928.15
1928.15
1928.15
1928.15
1928.15
1928.15
1928.15
1928.15
1928.15
1928.15
1928.15
1928.15
1928.15
1928.15
1928.15
1928.15
1928.15
1928.15
1928.15
1928.15
1928.15
1928.15
1928.15
1928.15
1928.15
1928.15
1928.15
1928.15
1928.15
1928.15
1928.15
1928.15
1928.15
1928.15
1928.15
1928.15
1928.15
1928.15
1928.15
1928.15
1928.15
1928.15
1928.15
1928.15
1928.15
1928.15
1928.15
1928.15
1928.15
1928.15
1928.15
1928.15
1928.15
1928.15
1928.15
1928.15
1928.15
1928.15
1928.15
1928.15
1928.15
1928.15
1928.15
1928.15
1928.15
1928.15
1928.15
1928.15
1928.15
1928.15
1928.15
1928.15
1928.15
1928.15
1928.15
1928.15
1928.15
1928.15
1928.15
1928.15
1928.15
1928.15
1928.15
1928.15
1928.15
1928.15
1928.15
1928.15
1928.15
1928.15
1928.15
1928.15
1928.15
1928.15
1928.15
1928.15
1928.15
1928.15
1928.15
1928.15
1928.15
1928.15
1928.15
1928.15
1928.15
1928.15
1928.15
1928.15
1928.15
1928.15
1928.15
1928.15
1928.15
1928.15
1928.15
1928.15
1928.15
1928.15
1928.15
1928.15
1928.15
1928.15
1928.15
1928.15
1928.15
1928.15
1928.15
1928.15
1928.15
1928.15
1928.15
1928.15
1928.15
1928.15
1928.15
1928.15
1928.15
1928.15
1928.15
1928.15
1928.15
1928.15
1928.15
1928.15
1928.15
1928.15
1928.15
1928.15
1928.15
1928.15
1928.15
1928.15
1928.15
1928.15
1928.15
1928.15
1928.15
1928.15
1928.15
1928.15
1928.15
1928.15
1928.15
1928.15
1928.15
1928.15
1928.15
1928.15
1928.15
1928.15
1928.15
1928.15
1928.15
1928.15
1928.15
1928.15
1928.15
1928.15
1928.15
1928.15
1928.15
1928.15
1928.15
1928.15
1928.15
1928.15
1928.15
1928.15
1928.15
1928.15
1928.15
1928.15
1928.15
1928.15
1928.15
1928.15
1928.15
1928.15
1928.15
1928.15
1928.15
1928.15
1928.15
1928.15
1928.15
1928.15
1928.15
1928.15
1928.15
1928.15
1928.15
1928.15
1928.15
1928.15
1928.15
1928.15
1928.15
1928.15
1928.15
1928.15
1928.15
1928.15
1928.15
1928.15
1928.15
1928.15
1928.15
1928.15
1928.15
1928.15
1928.15
1928.15
1928.15
1928.15
1928.15
1928.15
1928.15
1928.15
1928.15
1928.15
1928.15
1928.15
1928.15
1928.15
1928.15
1928.15
1928.15
1928.15
1928.15
1928.15
1928.15
1928.15
1928.15
1928.15
1928.15
1928.15
1928.15
1928.15
1928.15
1928.15
1928.15
1928.15
1928.15
1928.15
1928.15
1928.15
1928.15
1928.15
1928.15
1928.15
1928.15
1928.15
1928.15
1928.15
1928.15
1928.15
1928.15
1928.15
1928.15
1928.15
1928.15
1928.15
1928.15
1928.15
1928.15
1928.15
1928.15
1928.15
1928.15
1928.15
1928.15
1928.15
1928.15
1928.15
1928.15
1928.15
1928.15
1928.15
1928.15
1928.15
1928.15
1928.15
1928.15
1928.15
1928.15
1928.15
1928.15
1928.15
1928.15
1928.15
1928.15
1928.15
1928.15
1928.15
1928.15
1928.15
1928.15
1928.15
1928.15
1928.15
1928.15
1928.15
1928.15
1928.15
1928.15
1928.15
1928.15
1928.15
1928.15
1928.15
1928.15
1928.15
1928.15
1928.15
1928.15
1928.15
1928.15
1928.15
1928.15
1928.15
1928.15
1928.15
1928.15
1928.15
1928.15
1928.15
1928.15
1928.15
1928.15
1928.15
1928.15
1928.15
1928.15
1928.15
1928.15
1928.15
1928.15
1928.15
1928.15
1928.15
1928.15
1928.15
1928.15
1928.15
1928.15
1928.15
1928.15
1928.15
1928.15
1928.15
1928.15
1928.15
1928.15
1928.15
1928.15
1928.15
1928.15
1928.15
1928.15
1928.15
1928.15
1928.15
1928.15
1928.15
1928.15
1928.15
1928.15
1928.15
1928.15
1928.15
1928.15
1928.15
1928.15
1928.15
1928.15
1928.15
1928.15
1928.15
1928.15
1928.15
1928.15
1928.15
1928.15
1928.15
1928.15
1928.15
1928.15
1928.15
1928.15
1928.15
1928.15
1928.15
1928.15
1928.15
1928.15
1928.15
1928.15
1928.15
1928.15
1928.15
1928.15
1928.15
1928.15
1928.15
1928.15
1928.15
1928.15
1928.15
10.34437368
10.27441557
10.29391549
10.57054988
10.28644173
10.09746179
10.02224734
10.01698757
10.01625064
10.01423353
10.00674994
10.003873
10.00016654
10
10
10
10
10
10
10
10
10
10
10
10
10
10
10.0001639
10.00386684
10.00672409
10.01404602
10.01608083
10.01682507
10.02216977
10.09776422
10.28303684
10.56196309
10.28932741
10.27167601
10.34319343
16.31360879
10.64165242
11.21745898
12.39663903
10.75197786
10.3673899
10.10675012
10.03022488
10.13424218
10.17341049
10.09737894
10.06674043
10.00457351
10.0001271
10.0057748
10.00276625
10
9.99999999
9.999999999
10.00011549
10.00011524
9.999999999
9.99999999
10
10.00276794
10.0057706
10.00012677
10.00456659
10.06689493
10.09715923
10.17293448
10.133288
10.03016609
10.10689024
10.36615485
10.74972068
12.40336388
11.24265442
10.63905803
16.24306672
451.0830879
349.855932
333.7121727
275.0443889
229.3565127
114.1423968
51.53048723
18.01045727
10.14087361
10.16650109
27.94107408
27.11873866
22.11016689
14.26732019
12.94400913
10.09535245
10.00413202
10.11574154
10.15502009
10.15641878
10.15636827
10.15503403
10.11590782
10.00412881
10.0954428
12.93318295
14.25639131
22.09473698
27.09986379
27.94329781
10.16592868
10.14000292
18.17135809
51.9004264
114.4923658
229.4553816
274.533001
331.7591942
348.9981022
450.5419133
803.9152097
885.5130318
889.5950793
887.0864008
864.3579141
786.1782848
728.6979147
730.4365117
807.854054
865.9003857
888.8749968
858.9166051
830.3367861
825.9748867
811.3942626
723.0052872
655.5535748
544.207422
489.1857307
440.72385
440.7062261
489.1226745
544.1255861
655.4678544
722.9314195
811.2946388
825.9062185
830.172864
858.7355308
888.7148361
865.7593405
808.1879114
730.6146586
729.4428021
786.6741685
864.2470367
887.4796437
890.5558471
885.4293191
803.8137582
504.9011908
571.1644927
782.3022307
743.9220336
787.7884705
929.9667517
947.6412413
989.2498109
1022.706684
1211.071062
1385.001411
1582.362027
1741.939656
1853.374096
1911.847539
1928.149997
1928.15
1928.15
1928.150002
1928.150002
1928.150001
1928.15
1928.149998
1928.149996
1928.149995
1911.846374
1853.372492
1741.928807
1582.357232
1384.976207
1211.032793
1022.641424
989.2215547
947.5972343
930.035259
787.7374029
743.9817605
782.9558312
571.0537151
505.0711009
1928.149952
1928.149939
1928.149944
1928.149954
1928.149917
1928.149887
1928.149938
1928.149956
1928.149951
1928.149966
1928.149989
1928.149995
1928.15
1928.15
1928.149995
1928.15
1928.15
1928.149995
1928.149982
1928.149986
1928.149995
1928.149995
1928.149992
1928.149991
1928.149997
1928.149998
1928.15
1928.15
1928.149985
1928.149971
1928.149956
1928.149951
1928.149953
1928.149979
1928.149963
1928.149967
1928.149918
1928.149879
1928.149769
1928.149881
1928.15
1928.15
1928.15
1928.15
1928.15
1928.15
1928.15
1928.15
1928.15
1928.15
1928.15
1928.15
1928.15
1928.15
1928.15
1928.15
1928.15
1928.15
1928.15
1928.15
1928.15
1928.15
1928.15
1928.15
1928.15
1928.15
1928.15
1928.15
1928.15
1928.15
1928.15
1928.15
1928.15
1928.15
1928.15
1928.15
1928.15
1928.15
1928.15
1928.15
1928.15
1928.15
1928.15
1928.15
1928.15
1928.15
1928.15
1928.15
1928.15
1928.15
1928.15
1928.15
1928.15
1928.15
1928.15
1928.15
1928.15
1928.15
1928.15
1928.15
1928.15
1928.15
1928.15
1928.15
1928.15
1928.15
1928.15
1928.15
1928.15
1928.15
1928.15
1928.15
1928.15
1928.15
1928.15
1928.15
1928.15
1928.15
1928.15
1928.15
1928.15
1928.15
1928.15
1928.15
1928.15
1928.15
1928.15
1928.15
1928.15
1928.15
1928.15
1928.15
1928.15
1928.15
1928.15
1928.15
1928.15
1928.15
1928.15
1928.15
1928.15
1928.15
1928.15
1928.15
1928.15
1928.15
1928.15
1928.15
1928.15
1928.15
1928.15
1928.15
1928.15
1928.15
1928.15
1928.15
1928.15
1928.15
1928.15
1928.15
1928.15
1928.15
1928.15
1928.15
1928.15
1928.15
1928.15
1928.15
1928.15
1928.15
1928.15
1928.15
1928.15
1928.15
1928.15
1928.15
1928.15
1928.15
1928.15
1928.15
1928.15
1928.15
1928.15
1928.15
1928.15
1928.15
1928.15
1928.15
1928.15
1928.15
1928.15
1928.15
1928.15
1928.15
1928.15
1928.15
1928.15
1928.15
1928.15
1928.15
1928.15
1928.15
1928.15
1928.15
1928.15
1928.15
1928.15
1928.15
1928.15
1928.15
1928.15
1928.15
1928.15
1928.15
1928.15
1928.15
1928.15
1928.15
1928.15
1928.15
1928.15
1928.15
1928.15
1928.15
1928.15
1928.15
1928.15
1928.15
1928.15
1928.15
1928.15
1928.15
1928.15
1928.15
1928.15
1928.15
1928.15
1928.15
1928.15
1928.15
1928.15
1928.15
1928.15
1928.15
1928.15
1928.15
1928.15
1928.15
1928.15
1928.15
1928.15
1928.15
1928.15
1928.15
1928.15
1928.15
1928.15
1928.15
1928.15
1928.15
1928.15
1928.15
1928.15
1928.15
1928.15
1928.15
1928.15
1928.15
1928.15
1928.15
1928.15
1928.15
1928.15
1928.15
1928.15
1928.15
1928.15
1928.15
1928.15
1928.15
1928.15
1928.15
1928.15
1928.15
1928.15
1928.15
1928.15
1928.15
1928.15
1928.15
1928.15
1928.15
1928.15
1928.15
1928.15
1928.15
1928.15
1928.15
1928.15
1928.15
1928.15
1928.15
1928.15
1928.15
1928.15
1928.15
1928.15
1928.15
1928.15
1928.15
1928.15
1928.15
1928.15
1928.15
1928.15
1928.15
1928.15
1928.15
1928.15
1928.15
1928.15
1928.15
1928.15
1928.15
1928.15
1928.15
1928.15
1928.15
1928.15
1928.15
1928.15
1928.15
1928.15
1928.15
1928.15
1928.15
1928.15
1928.15
1928.15
1928.15
1928.15
1928.15
1928.15
1928.15
1928.15
1928.15
1928.15
1928.15
1928.15
1928.15
1928.15
1928.15
1928.15
1928.15
1928.15
1928.15
1928.15
1928.15
1928.15
1928.15
1928.15
1928.15
1928.15
1928.15
1928.15
1928.15
1928.15
1928.15
1928.15
1928.15
1928.15
1928.15
1928.15
1928.15
1928.15
1928.15
1928.15
1928.15
1928.15
1928.15
1928.15
1928.15
1928.15
1928.15
1928.15
1928.15
1928.15
1928.15
1928.15
1928.15
1928.15
1928.15
1928.15
1928.15
1928.15
1928.15
1928.15
1928.15
1928.15
1928.15
1928.15
1928.15
1928.15
1928.15
1928.15
1928.15
1928.15
1928.15
1928.15
1928.15
1928.15
1928.15
1928.15
1928.15
1928.15
1928.15
1928.15
1928.15
1928.15
1928.15
1928.15
1928.15
1928.15
1928.15
1928.15
1928.15
1928.15
1928.15
1928.15
1928.15
1928.15
1928.15
1928.15
1928.15
1928.15
1928.15
1928.15
1928.15
1928.15
1928.15
1928.15
1928.15
1928.15
1928.15
1928.15
1928.15
1928.15
1928.15
1928.15
1928.15
1928.15
1928.15
1928.15
1928.15
1928.15
1928.15
1928.15
1928.15
1928.15
1928.15
1928.15
1928.15
1928.15
1928.15
1928.15
1928.15
1928.15
1928.15
1928.15
1928.15
1928.15
1928.15
1928.15
1928.15
1928.15
1928.15
1928.15
1928.15
1928.15
1928.15
1928.15
1928.15
1928.15
1928.15
1928.15
1928.15
1928.15
1928.15
1928.15
1928.15
1928.15
1928.15
1928.15
1928.15
1928.15
1928.15
1928.15
1928.15
1928.15
1928.15
1928.15
1928.15
1928.15
1928.15
1928.15
1928.15
1928.15
1928.15
1928.15
1928.15
1928.15
1928.15
1928.15
1928.15
1928.15
1928.15
1928.15
1928.15
1928.15
1928.15
1928.15
1928.15
1928.15
1928.15
1928.15
1928.15
1928.15
1928.15
1928.15
1928.15
1928.15
1928.15
1928.15
1928.15
1928.15
1928.15
1928.15
1928.15
1928.15
1928.15
1928.15
1928.15
1928.15
1928.15
1928.15
1928.15
1928.15
1928.15
1928.15
1928.15
1928.15
1928.15
1928.15
1928.15
1928.15
1928.15
1928.15
1928.15
1928.15
1928.15
1928.15
1928.15
1928.15
1928.15
1928.15
1928.15
1928.15
1928.15
1928.15
1928.15
1928.15
1928.15
1928.15
1928.15
1928.15
1928.15
1928.15
1928.15
1928.15
1928.15
1928.15
1928.15
1928.15
1928.15
1928.15
1928.15
1928.15
1928.15
1928.15
1928.15
1928.15
1928.15
1928.15
1928.15
1928.15
1928.15
1928.15
1928.15
1928.15
1928.15
10.09888136
10.08633454
10.14286047
10.28824893
10.37397414
10.10744629
10.03061994
10.01102448
10.00290689
10.00128441
10.00066379
10
10
10
10
10
10
10
10
10
10