/*--------------------------------*- C++ -*----------------------------------*\
  =========                 |
  \\      /  F ield         | OpenFOAM: The Open Source CFD Toolbox
   \\    /   O peration     | Website:  https://openfoam.org
    \\  /    A nd           | Version:  10
     \\/     M anipulation  |
\*---------------------------------------------------------------------------*/
FoamFile
{
    format      ascii;
    class       volScalarField;
    location    "0.0004";
    object      TRHS;
}
// * * * * * * * * * * * * * * * * * * * * * * * * * * * * * * * * * * * * * //

dimensions      [1 -1 -3 0 0 0 0];

internalField   nonuniform List<scalar> 
16000
(
-347.0039765
-164.5172164
0.08880163557
-0.2776925837
-0.006413428918
-0.0595851144
0.008741987972
0.07326997779
-0.04273513438
-0.08494297832
-0.01707949791
0.06706589447
0.07420998459
0.0281676044
0.006680562615
-0.008480443486
-0.02319655565
-0.04911307678
-0.02717183736
0.02329135397
0.05770017423
0.05493385605
-0.92973173
-2.354456521
-2.028987842
-0.2902891165
-0.03026784448
-0.03137082648
-0.03587667503
-0.005537191822
0.0327294312
0.04291707005
0.001217285393
-0.05210211467
-0.06055195703
-0.06772042609
-6.582958676
-29.10316174
-87718.43457
-928929.3879
-232.417003
-1.335605439e+12
-246.7697527
-0.01751355175
-0.1478883979
-0.1057088886
0.007088903031
0.1043269996
-0.00698478378
0.01210768114
0.0384987911
-0.01794451874
-0.0790681014
-0.07973348508
-0.06438174719
-0.03639077681
-0.0254878875
-0.03850898512
-0.03519180635
-0.03191932185
-0.002573609032
0.01106787088
-0.71470208
-1.932439911
-2.472119509
-0.8808635358
-0.2614717595
-0.4185076637
-0.3123594317
-0.02346696722
-0.0105709712
-0.01591964893
-0.01363354136
-0.06992749883
-0.05289315706
-0.08718516931
-3.108825667
-220703.6579
-1.31197088e+12
-26918.04452
-2.822788954e+12
-6.573223827e+12
-3.012158941e+12
-3.205989941e+10
2.680314557e+11
2.329153606e+10
12101.37261
6.467614147e+10
7.502205732e+10
-2.40821941e+11
11892.96149
6148.405986
19610.70539
2.077359184e+11
9.820749648e+10
6.425986322e+10
3.246835386e+10
-459.0158776
41.5749766
262.0657481
370.6891711
631.4848305
-832.7996054
3.241289313e+10
6.433665337e+10
9.814100681e+10
2.078394417e+11
7827.253432
6427.262096
13751.72881
-2.404499027e+11
7.59271076e+10
6.398109729e+10
8190.240122
2.403325353e+10
2.679135959e+11
-3.595220371e+10
-2.991573731e+12
-6.358181591e+12
-2.770561202e+12
2.79438367e+12
-1.28512307e+13
-2.365590121e+12
-4.256175093e+10
6.516862559e+11
7.592556226e+10
27205.75247
1.199252507e+11
3.897159095e+11
-4.648097495e+11
25937.17643
18218.86633
59811.06524
4.0246191e+11
-1.525716053e+13
-9.490724052e+12
-1.036203045e+13
-2.443576906e+11
75505.38747
75202.45451
69445.47298
67328.49943
-2.440413629e+11
-1.036026725e+13
-9.495671216e+12
-1.525392271e+13
4.02344025e+11
56506.40178
17339.84737
29326.66565
-4.639737289e+11
3.875200274e+11
1.185795711e+11
23584.5928
7.821453772e+10
6.468246091e+11
-4.770353724e+10
-2.194368086e+12
-1.232741895e+13
2.628716932e+12
1431981.627
-4.042541817e+11
3.388223738e+11
3.448719531e+12
-4.004480888e+12
5.596278718e+11
5046.153546
0
181.1609798
0
0
0
0
0
3410.475569
12091.77245
29342.14869
52521.42669
76672.09785
77858.9252
71842.04676
68255.64549
46098.88884
26305.88661
11280.80453
6470.367031
0
0
0
0
0
217.2779761
0
805.4367473
5.593423414e+11
-4.01560536e+12
3.446846852e+12
3.24031002e+11
-4.217284072e+11
663895.0186
0
0
-28797.4183
-524604.161
-1044930.962
-14161.17605
0
0
0
0
0
0
0
0
0
0
0
0
0
0
0
0
0
0
0
0
0
0
0
0
0
0
0
0
17502.96837
-25045.24185
-1122441.924
236949.1139
0
0
0
0
0
0
0
0
0
0
0
0
0
0
0
0
0
0
0
0
0
0
0
0
0
0
0
0
0
0
0
0
0
0
0
0
0
0
0
0
0
0
0
0
0
0
0
0
0
0
0
0
0
0
0
0
0
0
0
0
0
0
0
0
0
0
0
0
0
0
0
0
0
0
0
0
0
0
0
0
0
0
0
0
0
0
0
0
0
0
0
0
0
0
0
0
0
0
0
0
0
0
0
0
0
0
0
0
0
0
0
0
0
0
0
0
0
0
0
0
0
0
0
0
0
0
0
0
0
0
0
0
0
0
0
0
0
0
0
0
0
0
0
0
0
0
0
0
0
0
0
0
0
0
0
0
0
0
0
0
0
0
0
0
0
0
0
0
0
0
0
0
0
0
0
0
0
0
0
0
0
0
0
0
0
0
0
0
0
0
0
0
0
0
0
0
0
0
0
0
0
0
0
0
0
0
0
0
0
0
0
0
0
0
0
0
0
0
0
0
0
0
0
0
0
0
0
0
0
0
0
0
0
0
0
0
0
0
0
0
0
0
0
0
0
0
0
0
0
0
0
0
0
0
0
0
0
0
0
0
0
0
0
0
0
0
0
0
0
0
0
0
0
0
0
0
0
0
0
0
0
0
0
0
0
0
0
0
0
0
0
0
0
0
0
0
0
0
0
0
0
0
0
0
0
0
0
0
0
0
0
0
0
0
0
0
0
0
0
0
0
0
0
0
0
0
0
0
0
0
0
0
0
0
0
0
0
0
0
0
0
0
0
0
0
0
0
0
0
0
0
0
0
0
0
0
0
0
0
0
0
0
0
0
0
0
0
0
0
0
0
0
0
0
0
0
0
0
0
0
0
0
0
0
0
0
0
0
0
0
0
0
0
0
0
0
0
0
0
0
0
0
0
0
0
0
0
0
0
0
0
0
0
0
0
0
0
0
0
0
0
0
0
0
0
0
0
0
0
0
0
0
0
0
0
0
0
0
0
0
0
0
0
0
0
0
0
0
0
0
0
0
0
0
0
0
0
0
0
0
0
0
0
0
0
0
0
0
0
0
0
0
0
0
0
0
0
0
0
0
0
0
0
0
0
0
0
0
0
0
0
0
0
0
0
0
0
0
0
0
0
0
0
0
0
0
0
0
0
0
0
0
0
0
0
0
0
0
0
0
0
0
0
0
0
0
0
0
0
0
0
0
0
0
0
0
0
0
0
0
0
0
0
0
0
0
0
0
0
0
0
0
0
0
0
0
0
0
0
0
0
0
-162.6072284
-0.003115497791
-0.009184695446
-0.3277058185
-0.1151153459
0.001573143642
0.1995440651
0.1525923004
-0.03703611699
-0.05494402208
0.01734018598
0.01194165995
-0.03537141631
-0.07776823396
-0.09972273808
-0.09509639839
-0.1029998125
-0.05634348264
0.01186766314
0.06419899342
0.09328813389
0.08668187624
-0.2609427222
-0.8727345806
-0.96835915
-0.5634065582
-0.178492135
-0.2474446542
-0.2753420874
-0.03939969154
-0.02960609524
-0.07326540017
-0.1090914232
-0.1303924294
-0.6746206857
-2.998397079
-32.0674716
-67.06520022
-93.38163699
-342080.39
-1.374707236e+12
1.586380614e+11
-120.383626
-0.02987503613
-0.02409226458
0.116293298
0.2632090302
0.1648790323
0.00213643791
-0.02006437622
0.04133665179
-0.03392037754
-0.1303227322
-0.1755415886
-0.1671057262
-0.1294516167
-0.1104048506
-0.0495095697
0.01538436268
0.07179913088
0.09426210445
0.09350490698
0.06666349109
-0.2963821467
-1.57877969
-1.806343152
-0.6500849082
-1.133566344
-1.373321918
0.08318996465
-0.05727467807
-0.1036705633
-0.0781940073
-0.05741153311
-0.4385608822
-6.850988923
-49.90241309
-537907.274
1.618504519e+11
-1.34971824e+12
-6.776420267e+12
-2.547128978e+13
-3.889901067e+10
1.298908586e+11
3.993820773e+11
4.141602801e+10
-2.844156694e+11
-3.781838602e+11
-3.34702667e+11
-2.092864238e+11
-3.350340403e+11
-2.177997053e+11
-5.566196439e+10
-2.99434452e+10
2.584614859e+10
3032016527
-49.14804697
-18.0067192
37.82884023
185.6652276
285.0930244
361.4238173
204.559425
-87.73453622
3021185622
2.561960122e+10
-3.006775407e+10
-5.565255151e+10
-2.182082009e+11
-3.365960833e+11
-2.133913935e+11
-3.375352647e+11
-3.783957527e+11
-2.856743948e+11
4.13399711e+10
3.862815244e+11
1.4166758e+11
-4.573840203e+10
-2.603923333e+13
-6.525766295e+12
-1.290136197e+13
4.732942656e+11
-7.543411227e+11
3.115838662e+11
-1.306238692e+11
-1.081855388e+11
-1.152872369e+11
-2.005095054e+11
-6.162734827e+11
-3.496284648e+11
-5.232577015e+11
-2.62978305e+11
1.05337766e+11
1.322875361e+11
8.831082929e+11
-1.542991011e+13
-1.391356974e+12
-84377.62747
-74335.31675
-88646.93586
-159771.7489
-160382.7051
-124902.3749
-1.389241237e+12
-1.542238541e+13
8.821960381e+11
1.329376773e+11
1.055673533e+11
-2.633830082e+11
-5.253239221e+11
-3.557181059e+11
-6.205371742e+11
-1.912687159e+11
-1.2899618e+11
-1.045504024e+11
-1.55921692e+11
3.408571702e+11
-7.124535819e+11
5.607195718e+11
-1.246409375e+13
-3.999085698e+11
2049023.863
1.669710318e+11
-2.167933317e+12
6.033674436e+10
285.0856916
0
0
0
0
0
0
0
0
0
-48830.01257
-118458.6789
-122623.3225
-199547.2929
-230663.898
-232981.0937
-222941.0587
-164120.2439
-160296.8722
-53671.17693
0
0
0
0
0
0
0
0
0
9123.801077
6.53781714e+10
-2.173958948e+12
2.202263513e+11
1441584.329
-4.073473099e+11
0
0
-126142.6897
-98583.95827
0
0
0
0
0
0
0
0
0
0
0
0
0
0
0
0
0
0
0
0
0
0
0
0
0
0
0
0
0
0
0
0
-455567.1907
-11433.04804
0
0
0
0
0
0
0
0
0
0
0
0
0
0
0
0
0
0
0
0
0
0
0
0
0
0
0
0
0
0
0
0
0
0
0
0
0
0
0
0
0
0
0
0
0
0
0
0
0
0
0
0
0
0
0
0
0
0
0
0
0
0
0
0
0
0
0
0
0
0
0
0
0
0
0
0
0
0
0
0
0
0
0
0
0
0
0
0
0
0
0
0
0
0
0
0
0
0
0
0
0
0
0
0
0
0
0
0
0
0
0
0
0
0
0
0
0
0
0
0
0
0
0
0
0
0
0
0
0
0
0
0
0
0
0
0
0
0
0
0
0
0
0
0
0
0
0
0
0
0
0
0
0
0
0
0
0
0
0
0
0
0
0
0
0
0
0
0
0
0
0
0
0
0
0
0
0
0
0
0
0
0
0
0
0
0
0
0
0
0
0
0
0
0
0
0
0
0
0
0
0
0
0
0
0
0
0
0
0
0
0
0
0
0
0
0
0
0
0
0
0
0
0
0
0
0
0
0
0
0
0
0
0
0
0
0
0
0
0
0
0
0
0
0
0
0
0
0
0
0
0
0
0
0
0
0
0
0
0
0
0
0
0
0
0
0
0
0
0
0
0
0
0
0
0
0
0
0
0
0
0
0
0
0
0
0
0
0
0
0
0
0
0
0
0
0
0
0
0
0
0
0
0
0
0
0
0
0
0
0
0
0
0
0
0
0
0
0
0
0
0
0
0
0
0
0
0
0
0
0
0
0
0
0
0
0
0
0
0
0
0
0
0
0
0
0
0
0
0
0
0
0
0
0
0
0
0
0
0
0
0
0
0
0
0
0
0
0
0
0
0
0
0
0
0
0
0
0
0
0
0
0
0
0
0
0
0
0
0
0
0
0
0
0
0
0
0
0
0
0
0
0
0
0
0
0
0
0
0
0
0
0
0
0
0
0
0
0
0
0
0
0
0
0
0
0
0
0
0
0
0
0
0
0
0
0
0
0
0
0
0
0
0
0
0
0
0
0
0
0
0
0
0
0
0
0
0
0
0
0
0
0
0
0
0
0
0
0
0
0
0
0
0
0
0
0
0
0
0
0
0
0
0
0
0
0
0
0
0
0
0
0
0
0
0
0
0
0
0
0
0
0
0
0
0
0
0
0
0
0
0
0
0
0
0
0
0
0
0
0
0
0
0
0
0
0
0
0
0
0
0
0
0
0
0
0
0
0
0
0
0
0
0
0
0
0
0
0
0
0
0
0
0
0
0
0
0
0
0
0
0
0
0.08848567636
-0.008048637406
-0.3516219484
-0.1865098653
0.2211485405
0.1532765821
0.3453186719
0.2631467299
-0.04641028383
-0.2416265991
-0.1291336151
-0.1193709273
-0.1643841799
-0.1608200506
-0.1679906167
-0.1334285476
-0.06593974891
-0.04010436319
-0.001879117805
0.06347080955
0.1172187322
0.129733084
0.09120506884
0.02508623345
-0.5093837995
-0.709032715
-0.2943763684
-0.7125894813
-1.105579733
-0.4189092857
-0.3083394509
-0.2744726798
-0.2349199323
-0.6702938551
-30.75099804
-89.40211948
-247.2015768
-252.894567
-143.7463186
-25.1503503
-254.7251001
-122.03979
0.08376547811
-0.04169028683
0.2573378118
0.3888058079
0.2594206861
0.1284910327
0.04809830683
-0.0259879687
0.001370365906
-0.003502102838
-0.04546858617
-0.09268118799
-0.1238425097
-0.02359075628
0.02619056022
0.05372792194
-0.1054006379
-0.6553475357
0.01024393418
0.02928229203
0.02009159335
0.01967529839
-0.2862660569
-0.4391060308
-2.953873678
-23.5731935
-66.16055233
-19.76979706
-2.652004738
-0.6218367938
-0.6230278719
-1.126845856
-15.43454159
-151.8106312
-323.8597108
-130.1305008
-832811.5798
-200829.8287
-2.963431987e+12
-4.45592662e+10
-4.1045796e+11
8.214088299e+11
3.16878456e+11
5.329571574e+10
5253404040
-2539373534
-2.528713835e+10
-5.058647259e+10
-4.658206811e+10
-1.786604012e+10
-4299706.173
-193.7884313
26.73483419
-98.76003582
301.5464184
4110.719704
15377.33105
2.264450995
0.03988679312
70.31778558
-36.2802134
-85.2963538
-191.8810502
2753.507325
2931.832242
-3945029.488
-1.801407625e+10
-4.680916108e+10
-5.069257844e+10
-2.524564902e+10
-2431410077
5390473360
5.486694072e+10
3.154835226e+11
7.996332297e+11
-3.785497697e+11
-4.911135896e+10
-2.951904794e+12
-2.415916173e+12
-7.585517698e+11
-8.85998832e+11
-2.470233755e+13
-3.002147914e+13
-2.531061496e+13
-1.736084698e+13
-1.619825464e+12
2.743509407e+12
-7.509289955e+12
-1.064688242e+13
-1.541714998e+13
-7.864224318e+12
2.851123469e+11
1.337289641e+12
-1.207471229e+11
-45480.25371
-10192.89378
-62991.2287
-328627.2298
-85766.58392
-66632.67307
-22673.52852
-61830.53778
-1.200975764e+11
1.338015445e+12
2.894703818e+11
-7.844079654e+12
-1.538637817e+13
-1.063680025e+13
-7.422099959e+12
2.725480931e+12
-1.633500646e+12
-1.750153384e+13
-2.541622976e+13
-3.065579637e+13
-2.51802305e+13
-8.27527725e+11
-7.174229141e+11
-2.331040624e+12
3.45282374e+11
1.612337604e+11
1.161381547e+11
2.005215728e+11
-100375.5683
8946.34097
5621.185093
14148.10798
19156.62935
16016.6457
16357.63906
8865.586889
-44370.09091
-75104.63507
-104997.4275
-144267.2999
-71744.71648
-19367.92946
-126114.6178
-181650.2727
-182100.3958
-132921.4556
-40937.18917
-97296.81807
-154995.6019
-107086.4078
-46648.32615
11360.33907
23356.61176
19901.69469
22471.77859
33060.11978
21172.87712
1924.684957
-54886.81901
-183716.3159
2.108334466e+11
2.180853683e+11
2.249619694e+11
3.272631955e+11
-28531.48737
-128285.786
2040456.618
0
0
0
0
0
0
0
0
0
0
0
0
0
0
0
0
0
0
0
0
0
0
0
0
0
0
0
0
0
0
0
0
0
0
-287890.3609
134223.499
104419.4816
0
0
0
0
0
0
0
0
0
0
0
0
0
0
0
0
0
0
0
0
0
0
0
0
0
0
0
0
0
0
0
0
0
0
0
0
0
0
0
0
0
0
0
0
0
0
0
0
0
0
0
0
0
0
0
0
0
0
0
0
0
0
0
0
0
0
0
0
0
0
0
0
0
0
0
0
0
0
0
0
0
0
0
0
0
0
0
0
0
0
0
0
0
0
0
0
0
0
0
0
0
0
0
0
0
0
0
0
0
0
0
0
0
0
0
0
0
0
0
0
0
0
0
0
0
0
0
0
0
0
0
0
0
0
0
0
0
0
0
0
0
0
0
0
0
0
0
0
0
0
0
0
0
0
0
0
0
0
0
0
0
0
0
0
0
0
0
0
0
0
0
0
0
0
0
0
0
0
0
0
0
0
0
0
0
0
0
0
0
0
0
0
0
0
0
0
0
0
0
0
0
0
0
0
0
0
0
0
0
0
0
0
0
0
0
0
0
0
0
0
0
0
0
0
0
0
0
0
0
0
0
0
0
0
0
0
0
0
0
0
0
0
0
0
0
0
0
0
0
0
0
0
0
0
0
0
0
0
0
0
0
0
0
0
0
0
0
0
0
0
0
0
0
0
0
0
0
0
0
0
0
0
0
0
0
0
0
0
0
0
0
0
0
0
0
0
0
0
0
0
0
0
0
0
0
0
0
0
0
0
0
0
0
0
0
0
0
0
0
0
0
0
0
0
0
0
0
0
0
0
0
0
0
0
0
0
0
0
0
0
0
0
0
0
0
0
0
0
0
0
0
0
0
0
0
0
0
0
0
0
0
0
0
0
0
0
0
0
0
0
0
0
0
0
0
0
0
0
0
0
0
0
0
0
0
0
0
0
0
0
0
0
0
0
0
0
0
0
0
0
0
0
0
0
0
0
0
0
0
0
0
0
0
0
0
0
0
0
0
0
0
0
0
0
0
0
0
0
0
0
0
0
0
0
0
0
0
0
0
0
0
0
0
0
0
0
0
0
0
0
0
0
0
0
0
0
0
0
0
0
0
0
0
0
0
0
0
0
0
0
0
0
0
0
0
0
0
0
0
0
0
0
0
0
0
0
0
0
0
0
0
0
0
0
0
0
0
0
0
0
0
0
0
0
0
0
0
0
0
0
0
0
0
0
0
0
0
0
0
0
0
0
0
0
0
0
0
0
0
0
0
0
0
0
0
0
0
0
0
0
0
0
0
0
0
0
0
0
0
0
0
0
0
0
0
0
0
0
0
0
-0.2763359804
-0.3292173017
-0.1847176687
0.3297886721
-0.002388663972
0.000133735226
0.2250814987
0.06312691536
-0.1069020511
-0.04655870362
-0.04035918909
-0.08684967621
-0.03499112418
-0.08314399878
-0.1015678843
-0.03788619657
-0.04391511935
-0.06471431286
-0.03335089895
0.03785879519
0.06341360652
0.0313505426
-0.0196042541
-0.1000423322
-0.1633402887
-0.313385198
-1.494770321
-6.425029864
-15.89123347
-8.957189082
-3.116069024
-2.8984629
-6.582186678
-13.27602747
-92.61255579
-513.0824527
-603.0933764
-272.6479584
-157.261264
-37.09318988
-0.01551511791
-0.02812461735
-0.04063152394
0.166085279
0.483399954
0.5203035255
0.3732332448
-0.04277871008
-0.2127650692
0.01300014255
0.1200469769
0.09437938971
0.007306763602
-0.02275365252
0.004293872846
0.0964583651
0.1481794869
0.1399663027
0.09966318275
0.0685987232
0.07201454366
0.07411852236
0.122269193
0.1356183241
0.09912683182
0.5511399141
-0.1819749584
8.094576862
59.46856387
-23.65288208
-44.26658746
-52.38703506
-82.79343696
-152.827499
-373.0195256
-611.4546241
-496.3402135
-353.6769839
-90.43302543
-46.07403374
-3.203353237e+10
1.328559436e+11
8.250658108e+11
1.393594025e+11
-2245.041858
-602.1751142
32102.69267
3.751915331
1.324562101
0.1300968066
0.07749120789
0.04489214695
0.02860589966
0.003430116689
0.002026735398
-0.02444435839
-0.02450273914
-0.02398363066
-0.007354468707
-0.1731596727
-0.0005438941298
-0.02224708224
-0.04111553638
-0.03796851151
-0.2396443067
-2.106932689
4.598052972
17.5847481
7.606778444
47.92253135
27.99007478
20.39586535
8.263718119
-12916.6076
30911.08685
-537542.5316
1.315523261e+11
8.057514949e+11
1.443631258e+11
-3.651182478e+10
-4.235581464e+10
3.161776467e+11
-2.456837318e+13
-1.798187633e+13
-1.89203029e+12
1.028268101e+11
3.656314621e+11
1.230799159e+11
-7.496951858e+10
1.255614766e+11
8.186362861e+11
5.755959666e+11
-1.377070389e+10
72164.35194
59829.24636
56790.03923
97653.18139
105485.7911
61397.1551
10477.20473
31184.96914
47945.20924
82344.78381
96733.74959
-65981.86695
-736207.5673
-1959630.564
-1.314461132e+10
5.771499672e+11
8.212749427e+11
1.277607327e+11
-7.203893577e+10
1.207932582e+11
3.849955048e+11
1.108155945e+11
-1.940912298e+12
-1.855106763e+13
-2.497009318e+13
3.452860118e+11
-4.861014995e+10
3.460872698e+12
-2.173780626e+12
1.997340934e+11
-149345.7619
30852.08278
75607.08084
15302.44356
8803.853833
26373.36855
51407.13366
45115.7806
43553.2811
3392.345246
161417.5124
141825.1765
151689.6804
289536.9187
378699.0785
239008.2823
129220.2322
137277.1373
191489.1354
296767.7636
288605.3704
152064.7253
145060.5518
180873.1134
30368.95766
63786.83291
52071.35882
45147.08534
25886.16458
22622.47594
36913.49039
-53157.645
-120462.6343
-242624.9763
2.141984728e+11
-2.155018424e+12
3.429944234e+12
-533171.5614
-100329.4589
0
0
0
0
0
0
0
0
0
0
0
0
0
0
0
0
0
0
0
0
0
0
0
0
0
0
0
0
0
0
0
0
0
0
0
0
101865.6857
-275080.5723
0
0
0
0
0
0
0
0
0
0
0
0
0
0
0
0
0
0
0
0
0
0
0
0
0
0
0
0
0
0
0
0
0
0
0
0
0
0
0
0
0
0
0
0
0
0
0
0
0
0
0
0
0
0
0
0
0
0
0
0
0
0
0
0
0
0
0
0
0
0
0
0
0
0
0
0
0
0
0
0
0
0
0
0
0
0
0
0
0
0
0
0
0
0
0
0
0
0
0
0
0
0
0
0
0
0
0
0
0
0
0
0
0
0
0
0
0
0
0
0
0
0
0
0
0
0
0
0
0
0
0
0
0
0
0
0
0
0
0
0
0
0
0
0
0
0
0
0
0
0
0
0
0
0
0
0
0
0
0
0
0
0
0
0
0
0
0
0
0
0
0
0
0
0
0
0
0
0
0
0
0
0
0
0
0
0
0
0
0
0
0
0
0
0
0
0
0
0
0
0
0
0
0
0
0
0
0
0
0
0
0
0
0
0
0
0
0
0
0
0
0
0
0
0
0
0
0
0
0
0
0
0
0
0
0
0
0
0
0
0
0
0
0
0
0
0
0
0
0
0
0
0
0
0
0
0
0
0
0
0
0
0
0
0
0
0
0
0
0
0
0
0
0
0
0
0
0
0
0
0
0
0
0
0
0
0
0
0
0
0
0
0
0
0
0
0
0
0
0
0
0
0
0
0
0
0
0
0
0
0
0
0
0
0
0
0
0
0
0
0
0
0
0
0
0
0
0
0
0
0
0
0
0
0
0
0
0
0
0
0
0
0
0
0
0
0
0
0
0
0
0
0
0
0
0
0
0
0
0
0
0
0
0
0
0
0
0
0
0
0
0
0
0
0
0
0
0
0
0
0
0
0
0
0
0
0
0
0
0
0
0
0
0
0
0
0
0
0
0
0
0
0
0
0
0
0
0
0
0
0
0
0
0
0
0
0
0
0
0
0
0
0
0
0
0
0
0
0
0
0
0
0
0
0
0
0
0
0
0
0
0
0
0
0
0
0
0
0
0
0
0
0
0
0
0
0
0
0
0
0
0
0
0
0
0
0
0
0
0
0
0
0
0
0
0
0
0
0
0
0
0
0
0
0
0
0
0
0
0
0
0
0
0
0
0
0
0
0
0
0
0
0
0
0
0
0
0
0
0
0
0
0
0
0
0
0
0
0
0
0
0
0
0
0
0
0
0
0
0
0
0
0
0
0
0
0
0
0
0
0
0
0
0
0
0
0
0
0
0
0
0
0
0
0
0
0
0
0
0
0
-0.005736811471
-0.110561133
0.2243606665
-0.0009491949932
-0.3039007082
-0.2730435658
0.09863856444
0.2843673053
0.03703718803
-0.01213514464
0.04217690758
0.1622220052
0.1666661676
0.03745294824
0.05142849303
0.0007054527136
-0.04815801868
-0.04208479848
-0.05209136963
-0.04821485248
-0.04323839926
-0.06331241583
-0.06430741102
-0.04278787703
0.003014706161
0.0249319403
0.03802316823
0.08640683164
0.08324130827
-3.340333658
-22.43889636
-43.83561175
-75.68075656
-143.2913134
-383.0890665
-998.3738987
-891.6569193
-307.931952
-68.39055245
-10.78550619
-0.1450960637
-0.0209418061
0.2585180181
0.484355024
0.5637708631
0.5218804771
-0.1077162438
-0.2471114809
-0.1330071189
0.05452527368
0.1175115133
0.1174264728
0.03240856073
0.04514060337
0.06861732971
0.02985407271
0.009753973098
-0.00362759968
-0.0354868715
-0.02165862998
-0.004548666819
-0.003542449131
0.001498535977
0.01830482546
0.03339930283
0.009137686597
0.1225675529
0.04390084488
0.3875711651
24.18974902
30.15645671
10.58847686
-10.0823771
-63.76601375
-173.925111
-338.6456426
-546.0623255
-340.821969
-78.62993095
-17.76508168
2.685355391e+11
4.066718693e+11
3.172245617e+11
-2234.042056
-1180.708771
1272.706989
0.1528952699
0.09102596086
0.1877942281
0.2700943703
0.2500530513
0.18994793
0.1415944406
0.08586328823
0.01494155796
0.00565092153
0.04369878385
0.005758859437
-0.02007383235
-0.02230256661
-0.00602611739
-0.006098670803
-0.0009030066329
-0.00167665966
0.003533832682
-8.020250393
-4.12432448
0.09869813441
53.58271195
23.20282371
11.03386231
68.25933013
62.80395716
63.39261942
414504.9229
945517.931
938404.7986
3.163578563e+11
3.883273697e+11
2.680454131e+11
6.531445274e+11
-1.145599592e+11
-2.990369377e+13
-1.888555406e+12
111029.5887
65401.49712
100612.1014
3871.881128
11644.54486
17438.09852
9877.317777
24880.35737
123241.5464
148516.3805
69603.67427
86877.02147
4.761601279e+12
3.876775726e+12
4.043722094e+12
3.472477712e+12
3.472336151e+12
4.043196329e+12
3.876326743e+12
4.761147457e+12
88116.6493
61324.08676
234502.0238
276194.9761
1203415.586
620717.4464
2858585.362
8790305.558
8239622.527
1749420.904
-1270777.033
-149629.138
-1.937778904e+12
-3.050786144e+13
-1.590721772e+11
6.474748289e+11
-4.01854074e+12
5.994834133e+10
-99977.96554
31100.26553
134696.0508
7488.754518
-9749.049302
2271.227837
20154.08
36111.59783
21984.52109
85762.01953
569464.331
664851.5593
341374.4848
530341.9443
1.753667306e+13
1.70195526e+12
-224598.4197
-227505.7792
-227511.5195
-277021.9217
1.700777167e+12
1.753555331e+13
539998.1585
298432.636
658155.0673
591550.8909
88951.93157
15267.39511
37405.26857
25188.15986
5265.770657
17521.97504
35924.73534
-174134.095
-201360.6436
-70436.68894
6.438122242e+10
-4.017270721e+12
-1051548.028
0
0
0
0
0
0
0
0
0
0
0
0
0
0
0
0
0
0
0
0
0
0
0
0
0
0
0
0
0
0
0
0
0
0
0
0
0
0
-1391693.684
0
0
0
0
0
0
0
0
0
0
0
0
0
0
0
0
0
0
0
0
0
0
0
0
0
0
0
0
0
0
0
0
0
0
0
0
0
0
0
0
0
0
0
0
0
0
0
0
0
0
0
0
0
0
0
0
0
0
0
0
0
0
0
0
0
0
0
0
0
0
0
0
0
0
0
0
0
0
0
0
0
0
0
0
0
0
0
0
0
0
0
0
0
0
0
0
0
0
0
0
0
0
0
0
0
0
0
0
0
0
0
0
0
0
0
0
0
0
0
0
0
0
0
0
0
0
0
0
0
0
0
0
0
0
0
0
0
0
0
0
0
0
0
0
0
0
0
0
0
0
0
0
0
0
0
0
0
0
0
0
0
0
0
0
0
0
0
0
0
0
0
0
0
0
0
0
0
0
0
0
0
0
0
0
0
0
0
0
0
0
0
0
0
0
0
0
0
0
0
0
0
0
0
0
0
0
0
0
0
0
0
0
0
0
0
0
0
0
0
0
0
0
0
0
0
0
0
0
0
0
0
0
0
0
0
0
0
0
0
0
0
0
0
0
0
0
0
0
0
0
0
0
0
0
0
0
0
0
0
0
0
0
0
0
0
0
0
0
0
0
0
0
0
0
0
0
0
0
0
0
0
0
0
0
0
0
0
0
0
0
0
0
0
0
0
0
0
0
0
0
0
0
0
0
0
0
0
0
0
0
0
0
0
0
0
0
0
0
0
0
0
0
0
0
0
0
0
0
0
0
0
0
0
0
0
0
0
0
0
0
0
0
0
0
0
0
0
0
0
0
0
0
0
0
0
0
0
0
0
0
0
0
0
0
0
0
0
0
0
0
0
0
0
0
0
0
0
0
0
0
0
0
0
0
0
0
0
0
0
0
0
0
0
0
0
0
0
0
0
0
0
0
0
0
0
0
0
0
0
0
0
0
0
0
0
0
0
0
0
0
0
0
0
0
0
0
0
0
0
0
0
0
0
0
0
0
0
0
0
0
0
0
0
0
0
0
0
0
0
0
0
0
0
0
0
0
0
0
0
0
0
0
0
0
0
0
0
0
0
0
0
0
0
0
0
0
0
0
0
0
0
0
0
0
0
0
0
0
0
0
0
0
0
0
0
0
0
0
0
0
0
0
0
0
0
0
0
0
0
0
0
0
0
0
0
0
0
0
0
0
0
0
0
0
0
0
0
0
0
0
0
0
0
0
0
0
0
0
0
0
0
0
0
0
0
0
0
0
0
0
0
0
0
0
0
0
0
0
0
0
-0.05700897612
0.006196458465
0.1556906562
0.002143423848
-0.2726594518
0.03765110451
0.5948498392
0.1548422801
-0.2443421869
-0.04627517295
0.1660090062
0.2164716677
0.1152869072
0.1022934705
0.03862029303
0.05740535619
0.06907423784
0.02991350107
-0.01391099757
-0.03427641305
-0.03107445312
-0.01197587451
0.01084512965
0.04884715935
0.05799670732
0.05734046705
0.09792072745
0.1015926539
0.1640013436
0.1887724194
-0.1956224162
-4.340836847
-10.87774799
-34.26176605
-139.3729342
-576.3359765
-858.6513716
-220.1379156
-35.61343057
-1.842005156
-0.1041102728
0.1212417729
0.3923931529
0.523449275
0.5239555243
-0.2643430314
-0.3916678361
-0.2163144088
0.1100047082
0.2767830859
0.3140313199
0.208221273
0.1913741971
0.14143778
0.01268137572
-0.04173138414
-0.0181326461
-0.05637018007
-0.07234119597
-0.05190100748
-0.006285314359
0.01183908595
0.007784805071
-0.004307976001
0.0186998145
0.06708782075
0.0292405516
0.1088984429
0.1494766937
0.1300318971
1.690830627
12.54739431
12.62011405
18.82831163
42.60920463
95.43335232
-106.139448
-141.4376037
-10.20482538
-0.1463791667
2.367801049e+10
4.237778706e+10
5.335447371e+10
-598.8278146
1277.956547
0.1949739987
0.0505778899
0.1665316656
0.2999817395
0.3223167481
0.2727883367
0.2626682139
0.1324790155
-0.001915739313
0.05334127272
-0.04423606972
-0.06955610756
-0.05485795437
-0.04849255619
-0.02448553312
-0.02544321171
-0.05363249985
-0.0533824841
-0.03827177413
-0.02030554474
0.0152137395
-0.01347477587
0.0120130919
0.08580153937
4.111284725
22.96427693
52.53575598
58.59352708
21.01870156
-68.75688302
-7791.996873
46598.24931
5.497773287e+10
4.219780556e+10
2.467675897e+10
7.720462221e+10
-1.110829656e+11
-2.532006189e+13
9.920802825e+10
65821.63323
-49323.69511
-14221.83523
-12240.92512
-8813.676646
4982.600101
43080.82945
71711.59298
96828.84194
4.907723732e+12
3.370851642e+12
1.143471074e+12
4.320283728e+11
2.269006309e+10
-17272.21385
-6946.003982
-90.19517442
-125.4766382
2.266025413e+10
4.318835535e+11
1.14311606e+12
3.370355025e+12
4.907435096e+12
87631.2141
75138.1872
80910.34011
1409001.071
11525960.24
17698257.91
11198916.73
5152771.581
-390332.7013
1.075448072e+11
-2.543710468e+13
-1.070875189e+11
8.02809559e+10
5.480523135e+11
358.5161037
9020.863433
75786.71699
7738.504028
-127119.4819
-71862.32215
-89806.89561
-75606.25458
21493.47549
325924.1189
875488.0049
883955.8906
1.777556199e+13
-157408.5502
-6.844432629e+12
-2.624570613e+13
-1.277703236e+13
-1.720159155e+13
-1.744256823e+13
-1.744299563e+13
-1.720304312e+13
-1.276359374e+13
-2.624429275e+13
-6.845025666e+12
-180151.3729
1.777493478e+13
800391.359
894753.4956
343079.6575
50664.33451
-66881.93658
-78459.93523
-73482.50256
-78133.44059
13530.2058
-23341.55325
-18494.39244
-771.4569128
5.381871875e+11
-15319.84066
0
0
0
0
0
0
0
0
0
0
0
0
0
0
0
8765.765934
1.170658019e+12
-2.148063117e+11
-8.82614841e+11
-8.831506495e+11
-2.163397996e+11
1.169310269e+12
9424.309977
0
0
0
0
0
0
0
0
0
0
0
0
0
0
0
-38519.82042
0
0
0
0
0
0
0
0
0
0
0
0
0
0
0
0
0
0
0
0
0
0
0
0
0
0
0
0
0
0
0
0
0
0
0
0
0
0
0
0
0
0
0
0
0
0
0
0
0
0
0
0
0
0
0
0
0
0
0
0
0
0
0
0
0
0
0
0
0
0
0
0
0
0
0
0
0
0
0
0
0
0
0
0
0
0
0
0
0
0
0
0
0
0
0
0
0
0
0
0
0
0
0
0
0
0
0
0
0
0
0
0
0
0
0
0
0
0
0
0
0
0
0
0
0
0
0
0
0
0
0
0
0
0
0
0
0
0
0
0
0
0
0
0
0
0
0
0
0
0
0
0
0
0
0
0
0
0
0
0
0
0
0
0
0
0
0
0
0
0
0
0
0
0
0
0
0
0
0
0
0
0
0
0
0
0
0
0
0
0
0
0
0
0
0
0
0
0
0
0
0
0
0
0
0
0
0
0
0
0
0
0
0
0
0
0
0
0
0
0
0
0
0
0
0
0
0
0
0
0
0
0
0
0
0
0
0
0
0
0
0
0
0
0
0
0
0
0
0
0
0
0
0
0
0
0
0
0
0
0
0
0
0
0
0
0
0
0
0
0
0
0
0
0
0
0
0
0
0
0
0
0
0
0
0
0
0
0
0
0
0
0
0
0
0
0
0
0
0
0
0
0
0
0
0
0
0
0
0
0
0
0
0
0
0
0
0
0
0
0
0
0
0
0
0
0
0
0
0
0
0
0
0
0
0
0
0
0
0
0
0
0
0
0
0
0
0
0
0
0
0
0
0
0
0
0
0
0
0
0
0
0
0
0
0
0
0
0
0
0
0
0
0
0
0
0
0
0
0
0
0
0
0
0
0
0
0
0
0
0
0
0
0
0
0
0
0
0
0
0
0
0
0
0
0
0
0
0
0
0
0
0
0
0
0
0
0
0
0
0
0
0
0
0
0
0
0
0
0
0
0
0
0
0
0
0
0
0
0
0
0
0
0
0
0
0
0
0
0
0
0
0
0
0
0
0
0
0
0
0
0
0
0
0
0
0
0
0
0
0
0
0
0
0
0
0
0
0
0
0
0
0
0
0
0
0
0
0
0
0
0
0
0
0
0
0
0
0
0
0
0
0
0
0
0
0
0
0
0
0
0
0
0
0
0
0
0
0
0
0
0
0
0
0
0
0
0
0
0
0
0
0
0
0
0
0
0
0
0
0
0
0
0
0
0
0
0
0
0
0
0
0
0
0
0
0
0
0
0
0
0.01105795448
0.20300187
0.3494595307
0.2278309416
0.09925402
0.5972132003
0.2418907874
-0.5267084829
-0.2596033243
0.02025268356
0.07312557986
0.08713121352
0.05680727038
0.06356863822
0.03708129403
0.02295161187
0.02568043059
-0.006442205912
-0.03689305865
-0.05337977992
-0.04560660698
-0.01654888758
0.007205166936
0.03282566692
0.03021051881
0.008070072025
0.009796912082
-0.01506067839
0.03459791162
0.06422882662
0.09160966215
0.003424564908
-0.1135870571
-0.03364674625
-0.07632271425
-48.38033409
-245.4973143
-89.68519037
-6.607288667
-0.1974376459
0.00960157993
0.269676442
0.2627859955
0.3784255575
-0.1050490005
-0.3872461596
-0.1851776767
0.04558681865
0.2554457479
0.3407056284
0.3289644941
0.2884632395
0.2321539591
0.009431957706
-0.08228842525
-0.1266993413
-0.1206726042
-0.1458510338
-0.1318814257
-0.07907448852
-0.03622272653
-0.0372925093
-0.0434292831
-0.03907142353
-0.06903849197
-0.08871734581
-0.01633399958
0.01681095976
0.05029836163
0.185843865
0.05998919172
0.08144784739
-0.001029083592
-0.04587243895
1.221591722
-1.786541033
-38.18359735
-32.96885154
-0.04819784813
-0.1356541842
12104.2023
-2.836389556e+11
5284919924
32179.40858
0.1555110468
0.05256453541
0.1645909639
0.5482305865
0.4992578735
0.3702623991
0.280712213
0.1458147881
0.04198770609
0.01818425001
-0.1213160447
-0.1985778481
-0.1305958732
-0.0651409626
-0.02272915525
0.004879591825
-0.0372733786
-0.0757801652
-0.09636683536
-0.1192761431
-0.1171188725
-0.1138962487
-0.0633807048
-0.02048036584
0.0676827139
0.1478068844
0.152381174
0.09173801126
-0.04305180559
-0.008493842841
38.57743041
-41.10884458
-87527.80526
5420616786
-2.848575441e+11
6913.940505
27061.00594
-1.118882779e+11
-1.735010773e+13
3.611824693e+11
101325.7769
-14149.34445
-18242.83373
-12582.42752
3329.479301
47244.1108
69030.78978
50746.98868
3.812607157e+11
2590712440
0.0133773041
-0.04271632419
-0.009586843895
-0.6295011585
-0.1147977489
0.01174671715
-0.02557195188
-0.04190005525
-0.04564054671
-0.03538135067
-0.01097971479
-0.0364855596
2571353280
3.812497114e+11
31639.03202
69606.24664
49515.08121
439969.7755
8908701.369
13473044.68
9673094.48
558143.4287
3.811905511e+11
-1.750492121e+13
-1.259914217e+11
21813.61052
5172.971419
0
5704.084383
15448.06174
-9418.097056
-71688.4882
-168487.2599
-136774.6245
13202.71896
394570.2337
643873.7219
1027131.563
-6.280013308e+12
-5.683076809e+12
7.118648066e+11
-9.381687107e+12
-1.264134493e+13
4.623309836e+12
2.718713971e+12
1.595334907e+12
1.59480037e+12
2.717530834e+12
4.619861615e+12
-1.264326134e+13
-9.384068959e+12
7.138077354e+11
-5.678145227e+12
-6.280448069e+12
635662.4513
653175.7364
455819.503
35229.35567
-162585.2787
-175386.6978
-74927.73379
-2539.480457
4188.180704
-24559.72104
0
3014.462115
0
0
0
0
0
0
0
0
0
0
0
0
0
32967.50299
4.869077961e+11
-5832.571812
-2.260528995e+11
7.215411589e+12
5.454851565e+12
-1.541313844e+11
-1.555556896e+11
5.449575828e+12
7.210351001e+12
-2.265886253e+11
-5835.893894
4.848162478e+11
31104.88272
0
0
0
0
0
0
0
0
0
0
0
0
0
0
0
0
0
0
0
0
0
0
0
0
0
0
0
0
0
0
4339.688942
11912.5566
-1.207251355e+11
-1.207585475e+11
2889.79765
-3407.86327
0
0
0
0
0
0
0
0
0
0
0
0
0
0
0
0
0
0
0
0
0
0
0
0
0
0
0
0
0
0
0
0
0
0
0
0
0
0
0
0
0
0
0
0
0
0
0
0
0
0
0
0
0
0
0
0
0
0
0
0
0
0
0
0
0
0
0
0
0
0
0
0
0
0
0
0
0
0
0
0
0
0
0
0
0
0
0
0
0
0
0
0
0
0
0
0
0
0
0
0
0
0
0
0
0
0
0
0
0
0
0
0
0
0
0
0
0
0
0
0
0
0
0
0
0
0
0
0
0
0
0
0
0
0
0
0
0
0
0
0
0
0
0
0
0
0
0
0
0
0
0
0
0
0
0
0
0
0
0
0
0
0
0
0
0
0
0
0
0
0
0
0
0
0
0
0
0
0
0
0
0
0
0
0
0
0
0
0
0
0
0
0
0
0
0
0
0
0
0
0
0
0
0
0
0
0
0
0
0
0
0
0
0
0
0
0
0
0
0
0
0
0
0
0
0
0
0
0
0
0
0
0
0
0
0
0
0
0
0
0
0
0
0
0
0
0
0
0
0
0
0
0
0
0
0
0
0
0
0
0
0
0
0
0
0
0
0
0
0
0
0
0
0
0
0
0
0
0
0
0
0
0
0
0
0
0
0
0
0
0
0
0
0
0
0
0
0
0
0
0
0
0
0
0
0
0
0
0
0
0
0
0
0
0
0
0
0
0
0
0
0
0
0
0
0
0
0
0
0
0
0
0
0
0
0
0
0
0
0
0
0
0
0
0
0
0
0
0
0
0
0
0
0
0
0
0
0
0
0
0
0
0
0
0
0
0
0
0
0
0
0
0
0
0
0
0
0
0
0
0
0
0
0
0
0
0
0
0
0
0
0
0
0
0
0
0
0
0
0
0
0
0
0
0
0
0
0
0
0
0
0
0
0
0
0
0
0
0
0
0
0
0
0
0
0
0
0
0
0
0
0
0
0
0
0
0
0
0
0
0
0
0
0
0
0
0
0
0
0
0
0
0
0
0
0
0
0
0
0
0
0
0
0
0
0
0
0
0
0
0
0
0
0
0
0
0
0
0
0
0
0
0
0
0
0
0
0
0
0
0
0
0
0
0
0
0
0
0
0
0
0
0
0
0
0
0
0
0
0
0
0
0
0
0
0
0
0
0
0
0
0
0
0
0
0
0
0
0
0
0
0
0
0
0
0
0
0
0.07544414863
0.1557344224
0.2667653347
0.06784305316
0.2891383912
0.1606452384
-0.5242621296
-0.3626880557
-0.07024029233
0.008276715483
0.04853694323
0.09227706513
0.131144919
0.07509285291
0.009600557008
-0.1263649298
-0.1307766107
-0.08047138585
-0.07695085217
-0.06449904703
-0.05057343045
-0.04660376529
-0.0380107207
-0.02858746299
-0.0383885172
-0.04047902213
-0.1130001711
-0.08550501389
0.01648291335
0.09591772801
0.04705975978
0.01530921925
-0.2341759788
-0.3678442073
-0.143569016
-0.06486917748
-40.05386563
-16.68365102
-0.2599290261
-0.1385162605
0.107812162
0.1694652107
0.1326948869
-0.03543588762
-0.2410746181
-0.2089050384
0.05102245824
0.2258512512
0.3473085854
0.3473250142
0.3274177334
0.2890249171
0.06975934834
-0.04012321987
-0.2012775494
-0.2371418839
-0.2551111599
-0.1757163472
-0.1016892142
-0.04814477085
-0.05270376698
-0.1023340439
-0.1341452503
-0.1446645121
-0.1399225807
-0.1386682416
-0.1361750799
-0.1346958155
0.07706121161
0.1319959947
0.1346298388
-0.05361666109
-0.1357633069