/*--------------------------------*- C++ -*----------------------------------*\
  =========                 |
  \\      /  F ield         | OpenFOAM: The Open Source CFD Toolbox
   \\    /   O peration     | Website:  https://openfoam.org
    \\  /    A nd           | Version:  6
     \\/     M anipulation  |
\*---------------------------------------------------------------------------*/
FoamFile
{
    version     2.0;
    format      ascii;
    class       volVectorField;
    location    "0.0043";
    object      gradT;
}
// * * * * * * * * * * * * * * * * * * * * * * * * * * * * * * * * * * * * * //

dimensions      [0 -1 0 1 0 0 0];

internalField   nonuniform List<vector> 
600
(
(0 -1.178752226e-06 6.882883854e-06)
(0 -3.536256683e-06 6.838096997e-06)
(0 -5.906148986e-06 6.73804122e-06)
(0 -8.285570415e-06 6.579857817e-06)
(0 -1.06840501e-05 6.344488546e-06)
(0 -1.309777635e-05 6.011922225e-06)
(0 -1.552007882e-05 5.551665697e-06)
(0 -1.79404755e-05 4.927508301e-06)
(0 -2.033704932e-05 4.087039852e-06)
(0 -2.267930717e-05 2.954980317e-06)
(0 -2.491007436e-05 1.431273925e-06)
(0 -2.694454158e-05 -6.384510843e-07)
(0 -2.858355034e-05 -3.496234371e-06)
(0 -2.944498287e-05 -7.438431596e-06)
(0 -2.944688868e-05 -1.208864248e-05)
(0 -1.463958808e-05 -1.153214183e-05)
(0 3.795448763e-06 -2.12499391e-07)
(0 5.241969276e-06 8.242689372e-06)
(0 2.578580051e-06 1.774608141e-05)
(0 5.81657526e-06 2.817379819e-05)
(0 1.098231156e-05 2.764016739e-05)
(0 1.281380855e-05 2.597257127e-05)
(0 1.243073792e-05 2.516164314e-05)
(0 1.164553836e-05 2.679779312e-05)
(0 1.215534632e-05 2.975086762e-05)
(0 1.481206518e-05 3.286117265e-05)
(0 1.359043189e-05 2.743147965e-05)
(0 2.096406546e-07 2.617363572e-05)
(0 3.19968814e-05 3.261532134e-05)
(0 7.397361078e-05 -3.884927202e-05)
(0 -1.200669202e-06 7.989214751e-06)
(0 -3.605819258e-06 7.949192456e-06)
(0 -6.030980458e-06 7.863430358e-06)
(0 -8.479011552e-06 7.72144646e-06)
(0 -1.096515915e-05 7.504182521e-06)
(0 -1.349418775e-05 7.19067444e-06)
(0 -1.607086197e-05 6.745664506e-06)
(0 -1.869422891e-05 6.122460025e-06)
(0 -2.136142975e-05 5.264839158e-06)
(0 -2.406865293e-05 4.095616054e-06)
(0 -2.681685137e-05 2.502347086e-06)
(0 -2.961555406e-05 3.058847728e-07)
(0 -3.238376361e-05 -2.898758501e-06)
(0 -3.417904997e-05 -8.287476235e-06)
(0 -2.834246355e-05 -2.002258831e-05)
(0 -8.536186279e-06 -5.392529377e-06)
(0 1.076218887e-05 4.577789564e-06)
(0 1.344654215e-05 8.794425445e-06)
(0 9.613929821e-06 1.393824477e-05)
(0 9.817853017e-06 1.885812979e-05)
(0 1.158074032e-05 2.043901088e-05)
(0 1.272328189e-05 2.07487073e-05)
(0 1.309491761e-05 2.111462556e-05)
(0 1.33483922e-05 2.230004814e-05)
(0 1.418028443e-05 2.406579419e-05)
(0 1.566968602e-05 2.582868155e-05)
(0 1.640723993e-05 2.669297276e-05)
(0 1.657399954e-05 3.221223944e-05)
(0 4.195290662e-05 5.115327262e-05)
(0 5.765975612e-05 3.654227186e-05)
(0 -1.217821619e-06 9.178449007e-06)
(0 -3.663946894e-06 9.149861659e-06)
(0 -6.132942048e-06 9.086969449e-06)
(0 -8.642912427e-06 8.978337474e-06)
(0 -1.121386919e-05 8.806813315e-06)
(0 -1.385820016e-05 8.54285666e-06)
(0 -1.658924613e-05 8.154068538e-06)
(0 -1.942034791e-05 7.591850431e-06)
(0 -2.236484616e-05 6.794263021e-06)
(0 -2.544179922e-05 5.691743763e-06)
(0 -2.86988527e-05 4.209965508e-06)
(0 -3.23437413e-05 2.284130219e-06)
(0 -3.717691129e-05 -8.766790995e-08)
(0 -4.657071848e-05 -2.772974111e-06)
(0 -2.655194178e-05 -5.286756137e-06)
(0 9.961742729e-06 5.742248105e-06)
(0 1.798145068e-05 9.485286702e-06)
(0 1.460147157e-05 8.463764959e-06)
(0 1.264323727e-05 1.040008227e-05)
(0 1.231734137e-05 1.293768712e-05)
(0 1.287193617e-05 1.457479003e-05)
(0 1.34903761e-05 1.553913704e-05)
(0 1.398207875e-05 1.632814825e-05)
(0 1.459670701e-05 1.729916562e-05)
(0 1.568397967e-05 1.847696493e-05)
(0 1.744019663e-05 1.978054867e-05)
(0 1.997208396e-05 2.140145206e-05)
(0 2.467089336e-05 2.493294417e-05)
(0 3.632691379e-05 3.084099902e-05)
(0 4.212919529e-05 1.509793875e-05)
(0 -1.230209477e-06 1.04401046e-05)
(0 -3.697298822e-06 1.042866967e-05)
(0 -6.200598814e-06 1.040008229e-05)
(0 -8.760120624e-06 1.034386048e-05)
(0 -1.139968706e-05 1.024094599e-05)
(0 -1.414693253e-05 1.006751598e-05)
(0 -1.702282115e-05 9.781642359e-06)
(0 -2.005403446e-05 9.33758535e-06)
(0 -2.325963062e-05 8.669593978e-06)
(0 -2.66539034e-05 7.707152791e-06)
(0 -3.022541787e-05 6.394039973e-06)
(0 -3.391318752e-05 4.744549177e-06)
(0 -3.744086799e-05 3.058847732e-06)
(0 -3.937813826e-05 2.58620335e-06)
(0 -1.982628846e-05 7.833890099e-06)
(0 6.235856564e-06 7.836748835e-06)
(0 1.348465866e-05 5.612652075e-06)
(0 1.436133775e-05 5.232440155e-06)
(0 1.408594616e-05 6.324477383e-06)
(0 1.39925608e-05 7.985403126e-06)
(0 1.418314319e-05 9.464322641e-06)
(0 1.447664011e-05 1.058780597e-05)
(0 1.485494622e-05 1.14501914e-05)
(0 1.549720893e-05 1.218298077e-05)
(0 1.666071456e-05 1.285287795e-05)
(0 1.859512609e-05 1.351134021e-05)
(0 2.15596355e-05 1.429749264e-05)
(0 2.601259358e-05 1.537523619e-05)
(0 3.211790124e-05 1.553151379e-05)
(0 3.588952715e-05 9.518638629e-06)
(0 -1.229256563e-06 1.176274653e-05)
(0 -3.701110465e-06 1.17751344e-05)
(0 -6.217751222e-06 1.179323971e-05)
(0 -8.803001654e-06 1.180658048e-05)
(0 -1.149116661e-05 1.180181594e-05)
(0 -1.43194096e-05 1.175035867e-05)
(0 -1.731822386e-05 1.16188568e-05)
(0 -2.053239629e-05 1.135394727e-05)
(0 -2.399432579e-05 1.088702034e-05)
(0 -2.771640031e-05 1.012373778e-05)
(0 -3.166336213e-05 8.957373422e-06)
(0 -3.567893353e-05 7.275483614e-06)
(0 -3.933430421e-05 5.026611141e-06)
(0 -4.179662903e-05 2.248872475e-06)
(0 -2.13013963e-05 -1.52275348e-06)
(0 7.741457617e-06 -1.524659304e-06)
(0 1.537618909e-05 -4.192813089e-08)
(0 1.531329688e-05 5.946171284e-07)
(0 1.539810605e-05 1.758122759e-06)
(0 1.545623371e-05 3.304699045e-06)
(0 1.547433902e-05 4.803629718e-06)
(0 1.547529193e-05 5.995722711e-06)
(0 1.557725355e-05 6.801886328e-06)
(0 1.600034648e-05 7.236414219e-06)
(0 1.701138618e-05 7.346952019e-06)
(0 1.888385841e-05 7.219261813e-06)
(0 2.183788579e-05 7.000092027e-06)
(0 2.590491448e-05 6.834285328e-06)
(0 3.046936331e-05 6.476943314e-06)
(0 3.362636094e-05 5.160971742e-06)
(0 -1.217821613e-06 1.31320811e-05)
(0 -3.668711438e-06 1.317019761e-05)
(0 -6.169152679e-06 1.324357182e-05)
(0 -8.751544363e-06 1.334362758e-05)
(0 -1.145686172e-05 1.345892996e-05)
(0 -1.432798574e-05 1.356946774e-05)
(0 -1.741923246e-05 1.364188906e-05)
(0 -2.078587081e-05 1.362664248e-05)
(0 -2.449174578e-05 1.345035373e-05)
(0 -2.858355016e-05 1.299581468e-05)
(0 -3.307271893e-05 1.208006621e-05)
(0 -3.784394957e-05 1.041914047e-05)
(0 -4.246747888e-05 7.561357199e-06)
(0 -4.592845554e-05 2.935922061e-06)
(0 -2.35998201e-05 -3.120786999e-06)
(0 7.717634781e-06 -3.120786999e-06)
(0 1.560393501e-05 -4.776948164e-06)
(0 1.616138854e-05 -4.482498332e-06)
(0 1.679602798e-05 -3.100775845e-06)
(0 1.703902058e-05 -1.224491999e-06)
(0 1.687416677e-05 5.584064674e-07)
(0 1.647489661e-05 1.903918297e-06)
(0 1.609468472e-05 2.645283884e-06)
(0 1.604036871e-05 2.726281405e-06)
(0 1.664451496e-05 2.187886091e-06)
(0 1.82492189e-05 1.122530409e-06)
(0 2.117465889e-05 -2.52521696e-07)
(0 2.54894447e-05 -1.423650618e-06)
(0 3.044554038e-05 -1.53418842e-06)
(0 3.393033974e-05 2.058290051e-07)
(0 -1.191140093e-06 1.451666255e-05)
(0 -3.590572703e-06 1.458622515e-05)
(0 -6.043368378e-06 1.472249155e-05)
(0 -8.586690705e-06 1.4923556e-05)
(0 -1.126627948e-05 1.51817952e-05)
(0 -1.413645063e-05 1.548196248e-05)
(0 -1.726104932e-05 1.580785841e-05)
(0 -2.072202601e-05 1.611946068e-05)
(0 -2.462610675e-05 1.635006538e-05)
(0 -2.908668817e-05 1.638532312e-05)
(0 -3.423908381e-05 1.600892288e-05)
(0 -4.019764296e-05 1.481397111e-05)
(0 -4.681847605e-05 1.191235385e-05)
(0 -5.247782092e-05 5.089503396e-06)
(0 -2.735619985e-05 -1.236784582e-05)
(0 6.0843436e-06 -1.237451621e-05)
(0 1.401352499e-05 -1.136919398e-05)
(0 1.698756356e-05 -1.05515954e-05)
(0 1.86561126e-05 -8.341792302e-06)
(0 1.911636916e-05 -5.541183723e-06)
(0 1.860370243e-05 -3.118881221e-06)
(0 1.756121662e-05 -1.453190914e-06)
(0 1.640056974e-05 -7.26119002e-07)
(0 1.554294885e-05 -1.033909601e-06)
(0 1.540763534e-05 -2.323199638e-06)
(0 1.644345079e-05 -4.552060988e-06)
(0 1.929075204e-05 -7.609002917e-06)
(0 2.462324801e-05 -1.064974535e-05)
(0 3.20997962e-05 -1.131106634e-05)
(0 3.703397487e-05 -4.592083288e-06)
(0 -1.149211945e-06 1.589552608e-05)
(0 -3.461929521e-06 1.599653478e-05)
(0 -5.832774722e-06 1.620141085e-05)
(0 -8.293193662e-06 1.651015436e-05)
(0 -1.089750234e-05 1.692181239e-05)
(0 -1.37009696e-05 1.744114944e-05)
(0 -1.67817343e-05 1.805863646e-05)
(0 -2.024461675e-05 1.876188559e-05)
(0 -2.422588331e-05 1.9515639e-05)
(0 -2.892564559e-05 2.025128711e-05)
(0 -3.464407092e-05 2.082684602e-05)
(0 -4.194051852e-05 2.097835901e-05)
(0 -5.219099355e-05 2.024556964e-05)
(0 -7.020865486e-05 1.793094626e-05)
(0 -4.106574526e-05 1.342748385e-05)
(0 8.716286621e-06 -1.098040568e-05)
(0 1.742685578e-05 -1.767366e-05)
(0 1.919069598e-05 -1.789664141e-05)
(0 2.180548668e-05 -1.404592377e-05)
(0 2.226193159e-05 -9.338538206e-06)
(0 2.096120659e-05 -5.889949445e-06)
(0 1.886956462e-05 -3.719215772e-06)
(0 1.651396603e-05 -2.905428877e-06)
(0 1.44432881e-05 -3.667758521e-06)
(0 1.312636363e-05 -5.758447581e-06)
(0 1.296055695e-05 -9.272787274e-06)
(0 1.507792753e-05 -1.48854393e-05)
(0 2.178833426e-05 -2.216568744e-05)
(0 3.650224944e-05 -2.839010906e-05)
(0 4.504034145e-05 -1.052586662e-05)
(0 -1.089178485e-06 1.723627335e-05)
(0 -3.284687877e-06 1.736968106e-05)
(0 -5.530701599e-06 1.764126097e-05)
(0 -7.865336147e-06 1.805673063e-05)
(0 -1.033528422e-05 1.86284779e-05)
(0 -1.300057924e-05 1.936698472e-05)
(0 -1.594031295e-05 2.029226233e-05)
(0 -1.926597607e-05 2.142241606e-05)
(0 -2.3134799e-05 2.277650407e-05)
(0 -2.777548074e-05 2.435547935e-05)
(0 -3.351201139e-05 2.614504824e-05)
(0 -4.077891871e-05 2.810614122e-05)
(0 -4.986588812e-05 3.024447589e-05)
(0 -5.929590593e-05 3.303364952e-05)
(0 -5.626850428e-05 3.95277452e-05)
(0 -2.501680033e-05 -1.067166217e-05)
(0 7.097289033e-06 -1.940986578e-05)
(0 2.061625243e-05 -2.919341388e-05)
(0 2.721516845e-05 -2.046092776e-05)
(0 2.727043739e-05 -1.171319506e-05)
(0 2.422207166e-05 -7.211638473e-06)
(0 2.054668985e-05 -4.447240586e-06)
(0 1.645202675e-05 -3.33233348e-06)
(0 1.269088282e-05 -4.801723872e-06)
(0 9.801653453e-06 -7.621390659e-06)
(0 7.317411723e-06 -1.176846396e-05)
(0 6.398804486e-06 -2.038564771e-05)
(0 1.111762501e-05 -3.466027037e-05)
(0 4.373866364e-05 -5.152109645e-05)
(0 6.486281813e-05 -3.053987862e-05)
(0 -1.013898447e-06 1.850841123e-05)
(0 -3.05694194e-06 1.867231213e-05)
(0 -5.144772291e-06 1.900583133e-05)
(0 -7.307882701e-06 1.951849803e-05)
(0 -9.586295486e-06 2.02322292e-05)
(0 -1.203623242e-05 2.117847086e-05)
(0 -1.472725611e-05 2.239533958e-05)
(0 -1.775942236e-05 2.394191591e-05)
(0 -2.129472613e-05 2.588871525e-05)
(0 -2.555519602e-05 2.833388763e-05)
(0 -3.089436242e-05 3.13822534e-05)
(0 -3.78410914e-05 3.515197352e-05)
(0 -4.726443891e-05 3.968878791e-05)
(0 -6.092443356e-05 4.453720459e-05)
(0 -8.476915238e-05 4.653831993e-05)
(0 -5.022227801e-05 2.896280961e-05)
(0 -1.093943063e-06 -3.031213313e-05)
(0 1.813868134e-05 -5.886709633e-05)
(0 3.92857061e-05 -2.673299534e-05)
(0 3.551122143e-05 -9.648234771e-06)
(0 2.822811439e-05 -6.589386997e-06)
(0 2.274791705e-05 -3.314228196e-06)
(0 1.615948299e-05 -9.595824607e-07)
(0 1.015423107e-05 -4.395783401e-06)
(0 6.160576563e-06 -7.973968241e-06)
(0 1.972527998e-07 -9.654905155e-06)
(0 -7.815784837e-06 -2.012550302e-05)
(0 -9.346161629e-06 -4.450289971e-05)
(0 4.062264181e-05 -4.193575465e-05)
(0 8.829969158e-05 5.661917674e-05)
(0 -9.262305227e-07 1.969097482e-05)
(0 -2.788220693e-06 1.987774561e-05)
(0 -4.684515689e-06 2.02589104e-05)
(0 -6.637985413e-06 2.085352753e-05)
(0 -8.675311411e-06 2.168351397e-05)
(0 -1.083746886e-05 2.279651522e-05)
(0 -1.317782088e-05 2.425256485e-05)
(0 -1.577164754e-05 2.61421895e-05)
(0 -1.874282732e-05 2.859689093e-05)
(0 -2.228289562e-05 3.179962837e-05)
(0 -2.669392559e-05 3.600006478e-05)
(0 -3.247143137e-05 4.15441071e-05)
(0 -4.048161015e-05 4.894251634e-05)
(0 -5.244732695e-05 5.9024326e-05)
(0 -7.1842899e-05 7.326654962e-05)
(0 -0.0001018662993 9.541603756e-05)
(0 -8.073166276e-05 4.941039621e-05)
(0 2.419253139e-05 -4.055117273e-05)
(0 7.643402928e-05 5.987146476e-06)
(0 4.741499837e-05 6.673243169e-06)
(0 3.055703104e-05 -5.936642136e-06)
(0 2.617458848e-05 -1.005322224e-06)
(0 1.537047156e-05 7.451772324e-06)
(0 5.676497144e-06 -3.616301269e-06)
(0 4.542531792e-06 -1.002558779e-05)
(0 -4.832217066e-06 1.413168588e-06)
(0 -2.845109539e-05 -2.764397887e-06)
(0 -1.069357914e-05 -2.413535667e-05)
(0 0.0001448626446 6.047656401e-05)
(0 0.0001345559475 0.0001006618184)
(0 -8.280805805e-07 2.075918924e-05)
(0 -2.488053393e-06 2.096311245e-05)
(0 -4.169943176e-06 2.137762916e-05)
(0 -5.883279061e-06 2.202275063e-05)
(0 -7.642354736e-06 2.293278168e-05)
(0 -9.469087144e-06 2.415060326e-05)
(0 -1.138062874e-05 2.575626008e-05)
(0 -1.341414309e-05 2.786600742e-05)
(0 -1.563728691e-05 3.065232225e-05)
(0 -1.815297475e-05 3.437058511e-05)
(0 -2.11489303e-05 3.938480843e-05)
(0 -2.489959214e-05 4.620384707e-05)
(0 -2.978231354e-05 5.565006433e-05)
(0 -3.660039937e-05 6.951779362e-05)
(0 -4.837839242e-05 9.22742865e-05)
(0 -7.407938361e-05 0.0001303212064)
(0 -0.0001370611534 0.0001850393228)
(0 -2.52836157e-05 0.0002548315548)
(0 8.651107432e-05 0.0001907815707)
(0 2.358647935e-05 6.628646885e-05)
(0 2.054859567e-05 3.728744892e-05)
(0 3.613823698e-05 4.04930451e-05)
(0 1.354755078e-05 3.570180331e-05)
(0 -7.322176272e-06 3.143561596e-05)
(0 1.119004633e-05 2.539129476e-05)
(0 7.457489796e-06 4.55053626e-05)
(0 -3.336335706e-05 0.0001256614663)
(0 5.389480031e-05 0.0001630280069)
(0 0.0001654198165 0.0001379568908)
(0 8.435463432e-05 3.195400012e-05)
(0 -7.223073526e-07 2.169780794e-05)
(0 -2.169780797e-06 2.190935445e-05)
(0 -3.622971708e-06 2.234102359e-05)
(0 -5.084738831e-06 2.300996787e-05)
(0 -6.548411787e-06 2.394382174e-05)
(0 -8.013037636e-06 2.519594817e-05)
(0 -9.462416902e-06 2.684067441e-05)
(0 -1.087558553e-05 2.899997321e-05)
(0 -1.223824978e-05 3.187014434e-05)
(0 -1.35504097e-05 3.575230813e-05)
(0 -1.486066383e-05 4.107908669e-05)
(0 -1.620617565e-05 4.836600526e-05)
(0 -1.716766394e-05 5.808856716e-05)
(0 -1.582405793e-05 7.129497568e-05)
(0 -1.103853348e-05 9.621076767e-05)
(0 -9.10126323e-06 0.0001488391487)
(0 4.377773367e-05 0.0001752395778)
(0 2.993573283e-05 0.0002548182179)
(0 -0.0001121110585 0.0001700462068)
(0 -0.0001060772194 0.0001122949707)
(0 4.761701637e-06 8.069164157e-05)
(0 2.458799026e-05 7.387736733e-05)
(0 6.314948329e-06 6.015066898e-05)
(0 -4.634964331e-06 6.572329871e-05)
(0 1.861323156e-05 6.297128863e-05)
(0 9.543700316e-05 8.110329971e-05)
(0 8.907250327e-05 0.0001194913625)
(0 1.600892286e-06 0.0001630175274)
(0 1.378863774e-05 9.087064849e-05)
(0 2.853209334e-05 1.700471597e-05)
(0 -6.15581191e-07 2.250301831e-05)
(0 -1.846743576e-06 2.271456482e-05)
(0 -3.070282659e-06 2.314623395e-05)
(0 -4.279528063e-06 2.380564909e-05)
(0 -5.456374466e-06 2.472425636e-05)
(0 -6.572234481e-06 2.593350172e-05)
(0 -7.57565088e-06 2.74962775e-05)
(0 -8.386579056e-06 2.95154982e-05)
(0 -8.883046227e-06 3.217698154e-05)
(0 -8.944032599e-06 3.580090611e-05)
(0 -8.53618625e-06 4.093805509e-05)
(0 -7.891064772e-06 4.823164394e-05)
(0 -6.852390626e-06 5.720045225e-05)
(0 1.521800562e-06 6.154763714e-05)
(0 2.916577945e-05 7.266621502e-05)
(0 4.950378156e-06 7.492080496e-05)
(0 -3.108113271e-05 7.191627328e-05)
(0 -3.047793934e-05 1.287288902e-05)
(0 -5.601407674e-05 1.74697368e-05)
(0 -6.576617886e-05 9.147384047e-05)
(0 -1.786805404e-05 9.013309306e-05)
(0 1.559631169e-05 7.119873042e-05)
(0 5.39348227e-06 6.582240067e-05)
(0 -4.503462398e-06 6.85896572e-05)
(0 2.657004698e-05 7.712870217e-05)
(0 6.397756292e-05 7.025725341e-05)
(0 4.855086948e-05 1.531710846e-05)
(0 2.527408658e-05 1.139968698e-05)
(0 1.940605414e-05 3.262961482e-05)
(0 7.324082096e-06 8.797284142e-06)
(0 -5.107608644e-07 2.317100966e-05)
(0 -1.526565123e-06 2.337779161e-05)
(0 -2.531887345e-06 2.379326124e-05)
(0 -3.503857646e-06 2.442885358e-05)
(0 -4.422464879e-06 2.529219195e-05)
(0 -5.241016332e-06 2.640042863e-05)
(0 -5.879467413e-06 2.778215112e-05)
(0 -6.196787138e-06 2.948500502e-05)
(0 -5.952841641e-06 3.161190469e-05)
(0 -4.789336016e-06 3.444395934e-05)
(0 -2.429925758e-06 3.875398064e-05)
(0 5.717472363e-08 4.656023618e-05)
(0 -3.851670548e-06 6.109023928e-05)
(0 -3.57342023e-07 4.519376034e-05)
(0 2.333681637e-06 2.796320443e-05)
(0 -9.853110709e-06 8.386579048e-06)
(0 -1.826827713e-05 2.488911013e-05)
(0 -2.450985111e-05 2.954980299e-05)
(0 -3.351105843e-05 3.907701777e-05)
(0 -3.341576727e-05 6.529067574e-05)
(0 -1.551340834e-05 8.58221189e-05)
(0 2.792032337e-07 7.201442314e-05)
(0 3.704922096e-06 6.750047881e-05)
(0 6.672290247e-06 6.909374768e-05)
(0 2.028082738e-05 7.926989557e-05)
(0 3.362540793e-05 5.686883894e-05)
(0 3.021493561e-05 3.544070535e-05)
(0 1.891435149e-05 2.821191446e-05)
(0 1.118623469e-05 2.608596769e-05)
(0 1.471105639e-05 2.160442223e-05)
(0 -4.087992801e-07 2.370845242e-05)
(0 -1.222586194e-06 2.390665817e-05)
(0 -2.019220686e-06 2.430402247e-05)
(0 -2.782503258e-06 2.489959251e-05)
(0 -3.48384655e-06 2.569146248e-05)
(0 -4.082275328e-06 2.66739148e-05)
(0 -4.492980432e-06 2.782979714e-05)
(0 -4.554919724e-06 2.911146393e-05)
(0 -3.924091924e-06 3.043791749e-05)
(0 -1.801003821e-06 3.170624346e-05)
(0 3.579137758e-06 3.318611596e-05)
(0 1.444614705e-05 3.829181881e-05)
(0 -8.219819556e-06 3.294884081e-05)
(0 -3.160523482e-05 3.097821867e-05)
(0 -7.642354843e-06 2.34616482e-05)
(0 1.8781897e-06 2.460514269e-05)
(0 -9.918861796e-06 3.023780599e-05)
(0 -1.629003192e-05 3.577422511e-05)
(0 -2.027225148e-05 4.417223922e-05)
(0 -1.902107795e-05 5.690695628e-05)
(0 -1.114525963e-05 6.623024793e-05)
(0 -2.725328534e-06 6.50286258e-05)
(0 2.47375975e-06 6.340486372e-05)
(0 7.265001658e-06 6.297319446e-05)
(0 1.434418546e-05 6.233093172e-05)
(0 2.014932585e-05 5.243589281e-05)
(0 1.98948983e-05 4.152123783e-05)
(0 1.592030203e-05 3.558936017e-05)
(0 1.279760918e-05 3.474698594e-05)
(0 1.323404289e-05 3.529586325e-05)
(0 -3.116022438e-07 2.412582755e-05)
(0 -9.319479965e-07 2.431545708e-05)
(0 -1.53990589e-06 2.469185731e-05)
(0 -2.116417686e-06 2.525121669e-05)
(0 -2.647189708e-06 2.598019445e-05)
(0 -3.101728757e-06 2.685973225e-05)
(0 -3.441918362e-06 2.783074964e-05)
(0 -3.588666825e-06 2.877985009e-05)
(0 -3.359967925e-06 2.940400745e-05)
(0 -2.039231809e-06 2.885131845e-05)
(0 4.15469659e-06 2.409819313e-05)
(0 -1.810532915e-07 2.040184721e-05)
(0 -1.116622352e-05 1.155691747e-05)
(0 -9.84167577e-06 2.932968034e-05)
(0 -4.040347138e-06 4.043396457e-05)
(0 -3.077905957e-06 3.426385897e-05)
(0 -7.099194858e-06 3.543022336e-05)
(0 -1.057446513e-05 3.928570551e-05)
(0 -1.237832766e-05 4.511180985e-05)
(0 -1.135775887e-05 5.216050044e-05)
(0 -7.391738853e-06 5.742724532e-05)
(0 -2.547133938e-06 5.873464067e-05)
(0 1.648537867e-06 5.839921571e-05)
(0 5.600264179e-06 5.732814247e-05)
(0 9.74447873e-06 5.489821671e-05)
(0 1.28138085e-05 4.923982497e-05)
(0 1.336935621e-05 4.279432772e-05)
(0 1.213914674e-05 3.802500286e-05)
(0 1.089273778e-05 3.529300403e-05)
(0 1.070787282e-05 3.318135086e-05)
(0 -2.20122686e-07 2.443171232e-05)
(0 -6.565564106e-07 2.461276565e-05)
(0 -1.084413925e-06 2.497201346e-05)
(0 -1.493213199e-06 2.55046913e-05)
(0 -1.87628385e-06 2.619650549e-05)
(0 -2.231720046e-06 2.70217273e-05)
(0 -2.570956739e-06 2.793366414e-05)
(0 -2.982614754e-06 2.884464811e-05)
(0 -3.85262346e-06 2.962317722e-05)
(0 -7.108723971e-06 3.027306325e-05)
(0 -4.869380636e-06 3.244951444e-05)
(0 1.906777033e-06 1.570970823e-05)
(0 7.070607488e-07 2.613361326e-05)
(0 -2.730093056e-06 3.362636082e-05)
(0 -2.705317341e-06 3.685292104e-05)
(0 -3.12555156e-06 3.669283182e-05)
(0 -4.898920908e-06 3.805835482e-05)
(0 -6.609398051e-06 4.097235986e-05)
(0 -7.396503413e-06 4.500889535e-05)
(0 -6.706595091e-06 4.940753749e-05)
(0 -4.56921333e-06 5.281610386e-05)
(0 -1.753358191e-06 5.433504569e-05)
(0 1.068214421e-06 5.438840884e-05)
(0 3.762096815e-06 5.329255989e-05)
(0 6.255867677e-06 5.092457342e-05)
(0 8.04638945e-06 4.704240976e-05)
(0 8.679123046e-06 4.257801668e-05)
(0 8.418978054e-06 3.858531515e-05)
(0 7.95395698e-06 3.536733118e-05)
(0 7.750986699e-06 3.247333719e-05)
(0 -1.305489542e-07 2.46299184e-05)
(0 -3.906939512e-07 2.480620717e-05)
(0 -6.460743867e-07 2.515783168e-05)
(0 -8.919257019e-07 2.567621585e-05)
(0 -1.130153722e-06 2.635278347e-05)
(0 -1.365523003e-06 2.71713349e-05)
(0 -1.618997615e-06 2.810804747e-05)
(0 -1.899153768e-06 2.911336975e-05)
(0 -1.931552775e-06 3.003674151e-05)
(0 7.861524616e-07 3.022732392e-05)
(0 -1.04077057e-05 3.509289303e-05)
(0 -6.497907437e-06 3.441346667e-05)
(0 6.752334961e-06 3.357871569e-05)
(0 8.766791097e-07 3.522248905e-05)
(0 -9.748290529e-07 3.674333671e-05)
(0 -1.872472228e-06 3.770196625e-05)
(0 -2.817761008e-06 3.926950664e-05)
(0 -3.624877532e-06 4.168895036e-05)
(0 -3.944103077e-06 4.472588114e-05)
(0 -3.548644572e-06 4.784571534e-05)
(0 -2.464230625e-06 5.032328667e-05)
(0 -9.776877887e-07 5.164021115e-05)
(0 6.079579046e-07 5.17640898e-05)
(0 2.137381784e-06 5.077020243e-05)
(0 3.492422754e-06 4.869190119e-05)
(0 4.467251813e-06 4.563781806e-05)
(0 4.913214657e-06 4.208250304e-05)
(0 4.930367075e-06 3.855386963e-05)
(0 4.779806974e-06 3.528442836e-05)
(0 4.662598782e-06 3.218746406e-05)
(0 -4.288104272e-08 2.472902088e-05)
(0 -1.295960404e-07 2.490340382e-05)
(0 -2.153581257e-07 2.524931086e-05)
(0 -2.982614749e-07 2.576388338e-05)
(0 -3.811648247e-07 2.644045098e-05)
(0 -4.755031181e-07 2.727520191e-05)
(0 -6.30827784e-07 2.828147704e-05)
(0 -1.05392074e-06 2.952407441e-05)
(0 -2.73771635e-06 3.123455152e-05)
(0 -2.050666754e-06 3.419239055e-05)
(0 -6.832379483e-07 3.250001878e-05)
(0 3.916468568e-07 4.528428694e-05)
(0 1.516083088e-06 3.86053263e-05)
(0 4.354808121e-07 3.701586903e-05)
(0 -2.248872464e-07 3.729411933e-05)
(0 -6.003345983e-07 3.821558529e-05)
(0 -9.128897548e-07 3.976597324e-05)
(0 -1.153023593e-06 4.19471889e-05)
(0 -1.239738591e-06 4.454292135e-05)
(0 -1.110142552e-06 4.713103058e-05)
(0 -7.756704172e-07 4.920170842e-05)
(0 -3.106493317e-07 5.03699786e-05)
(0 1.982057089e-07 5.04900456e-05)
(0 6.908612438e-07 4.956572082e-05)
(0 1.123483319e-06 4.766275544e-05)
(0 1.436038477e-06 4.494981487e-05)
(0 1.593268965e-06 4.17575594e-05)
(0 1.620903415e-06 3.844237834e-05)
(0 1.589457319e-06 3.520819486e-05)
(0 1.553246658e-06 3.207311413e-05)
)
;

boundaryField
{
    lowerWall
    {
        type            calculated;
        value           nonuniform 0();
    }
    atmosphere
    {
        type            calculated;
        value           nonuniform List<vector> 
20
(
(0 0 6.882883854e-06)
(0 0 7.989214751e-06)
(0 0 9.178449007e-06)
(0 0 1.04401046e-05)
(0 0 1.176274653e-05)
(0 0 1.31320811e-05)
(0 0 1.451666255e-05)
(0 0 1.589552608e-05)
(0 0 1.723627335e-05)
(0 0 1.850841123e-05)
(0 0 1.969097482e-05)
(0 0 2.075918924e-05)
(0 0 2.169780794e-05)
(0 0 2.250301831e-05)
(0 0 2.317100966e-05)
(0 0 2.370845242e-05)
(0 0 2.412582755e-05)
(0 0 2.443171232e-05)
(0 0 2.46299184e-05)
(0 0 2.472902088e-05)
)
;
    }
    rightWall
    {
        type            empty;
    }
    leftWall
    {
        type            empty;
    }
    frontAndBack
    {
        type            calculated;
        value           nonuniform List<vector> 
30
(
(0 -4.288104272e-08 2.475246662e-05)
(0 -1.295960404e-07 2.492640748e-05)
(0 -2.153581257e-07 2.52708786e-05)
(0 -2.982614749e-07 2.578587997e-05)
(0 -3.811648247e-07 2.646459039e-05)
(0 -4.755031181e-07 2.731042046e-05)
(0 -6.30827784e-07 2.836770804e-05)
(0 -1.05392074e-06 2.983256294e-05)
(0 -2.73771635e-06 3.258492126e-05)
(0 -2.050666754e-06 4.078231066e-05)
(0 -6.832379483e-07 4.078742657e-05)
(0 3.916468568e-07 4.351591066e-05)
(0 1.516083088e-06 3.922025352e-05)
(0 4.354808121e-07 3.745014946e-05)
(0 -2.248872464e-07 3.748084491e-05)
(0 -6.003345983e-07 3.835225451e-05)
(0 -9.128897548e-07 3.98802056e-05)
(0 -1.153023593e-06 4.200160199e-05)
(0 -1.239738591e-06 4.449134372e-05)
(0 -1.110142552e-06 4.695891652e-05)
(0 -7.756704172e-07 4.893536218e-05)
(0 -3.106493317e-07 5.006256717e-05)
(0 1.982057089e-07 5.017511714e-05)
(0 6.908612438e-07 4.927130679e-05)
(0 1.123483319e-06 4.7412527e-05)
(0 1.436038477e-06 4.477612925e-05)
(0 1.593268965e-06 4.166736269e-05)
(0 1.620903415e-06 3.840341359e-05)
(0 1.589457319e-06 3.518380236e-05)
(0 1.553246658e-06 3.204604566e-05)
)
;
    }
    procBoundary4to2
    {
        type            processor;
        value           nonuniform List<vector> 
30
(
(0 -1.154929422e-06 5.863267934e-06)
(0 -3.461929536e-06 5.812763603e-06)
(0 -5.771788376e-06 5.712707828e-06)
(0 -8.084505957e-06 5.551665689e-06)
(0 -1.039722355e-05 5.318202241e-06)
(0 -1.270422365e-05 4.997070867e-06)
(0 -1.498740095e-05 4.563495878e-06)
(0 -1.722579142e-05 3.986984085e-06)
(0 -1.938890178e-05 3.227513163e-06)
(0 -2.141479283e-05 2.23839044e-06)
(0 -2.322341996e-05 9.395712972e-07)
(0 -2.468613995e-05 -7.65188388e-07)
(0 -2.55828302e-05 -2.997861356e-06)
(0 -2.558950061e-05 -5.860409204e-06)
(0 -2.424780041e-05 -9.348067359e-06)
(0 -2.041137644e-05 -1.375528566e-05)
(0 -9.011689405e-06 -5.410634709e-06)
(0 -4.514897363e-06 4.173754843e-06)
(0 -1.031813184e-05 2.864834831e-05)
(0 -7.337422909e-08 4.849655378e-05)
(0 1.378196719e-05 3.602579352e-05)
(0 1.520085326e-05 3.040361234e-05)
(0 1.226874285e-05 2.682542757e-05)
(0 8.758214787e-06 3.005770526e-05)
(0 8.117857879e-06 3.535970799e-05)
(0 1.79900269e-05 4.852609406e-05)
(0 2.309572971e-05 3.502714167e-05)
(0 1.138825209e-05 8.962137969e-06)
(0 0.0001069748615 -4.062073556e-05)
(0 0.0001050032862 -7.937281043e-05)
)
;
    }
    procBoundary4to5
    {
        type            processor;
        value           nonuniform List<vector> 
20
(
(0 7.090046905e-05 -1.472725592e-05)
(0 4.558350132e-05 1.930885708e-05)
(0 3.89131169e-05 9.070769903e-06)
(0 3.591811435e-05 7.02963228e-06)
(0 3.444205351e-05 4.516803166e-06)
(0 3.482893565e-05 1.87247219e-06)
(0 3.728840223e-05 -2.001115348e-07)
(0 4.202628041e-05 -5.622181131e-07)
(0 5.123426961e-05 -8.261747527e-06)
(0 7.855616526e-05 2.775832861e-05)
(0 1.452619138e-05 5.653341355e-05)
(0 8.489493508e-06 3.1932083e-05)
(0 8.232207376e-06 1.3839142e-05)
(0 1.132059523e-05 1.880857816e-05)
(0 2.023604042e-05 3.199592811e-05)
(0 1.47310677e-05 3.074475504e-05)
(0 1.096897068e-05 2.980804203e-05)
(0 7.691906117e-06 2.93239627e-05)
(0 4.573977938e-06 2.908668804e-05)
(0 1.518941817e-06 2.899234931e-05)
)
;
    }
}


// ************************************************************************* //
