/*--------------------------------*- C++ -*----------------------------------*\
  =========                 |
  \\      /  F ield         | OpenFOAM: The Open Source CFD Toolbox
   \\    /   O peration     | Website:  https://openfoam.org
    \\  /    A nd           | Version:  6
     \\/     M anipulation  |
\*---------------------------------------------------------------------------*/
FoamFile
{
    version     2.0;
    format      ascii;
    class       volScalarField;
    location    "0.0043";
    object      p_rgh;
}
// * * * * * * * * * * * * * * * * * * * * * * * * * * * * * * * * * * * * * //

dimensions      [1 -1 -2 0 0 0 0];

internalField   nonuniform List<scalar> 
600
(
1.107498707e-13
3.365027077e-13
5.680712681e-13
8.033014398e-13
1.04433491e-12
1.293950876e-12
1.556452438e-12
1.83869463e-12
2.152758564e-12
2.520487006e-12
2.985080201e-12
3.637636076e-12
4.674830225e-12
6.475155502e-12
9.416534626e-12
1.233416438e-11
972.5106606
334.6170098
-472.245351
-1252.371372
-1727.122851
-1956.488152
-2001.097572
-1903.29132
-1653.901455
-1255.507351
-782.4314979
-773.1757372
-1887.019375
9562.466708
1.045205349e-13
3.1686957e-13
5.32431985e-13
7.470502829e-13
9.595902904e-13
1.167880844e-12
1.368574659e-12
1.556618199e-12
1.725271907e-12
1.866693796e-12
1.978936023e-12
2.097763246e-12
2.437151262e-12
3.98606263e-12
1.095962779e-11
5.602206597e-11
238.8902831
63.89796682
-418.0594035
-930.3158259
-1314.141455
-1542.622483
-1629.589945
-1595.85287
-1456.296889
-1240.909525
-1022.657281
-942.2230382
-897.0933649
7879.747632
9.837313848e-14
2.976307547e-13
4.978291e-13
6.931083541e-13
8.793256622e-13
1.049750851e-12
1.193682058e-12
1.294305246e-12
1.324896764e-12
1.241338202e-12
9.651136988e-13
3.394068528e-13
-9.932361983e-13
-3.705237399e-12
-1.701851941e-11
1286.514393
552.6478559
100.2973785
-333.4105052
-736.5598405
-1056.454645
-1270.307644
-1378.869945
-1394.297994
-1334.636421
-1229.36567
-1125.189776
-1076.05854
-1079.581752
-1157.438129
9.294091964e-14
2.807989629e-13
4.682561027e-13
6.484111919e-13
8.151549259e-13
9.585379507e-13
1.062682982e-12
1.102553802e-12
1.038725074e-12
8.076476132e-13
2.999638934e-13
-7.040460916e-13
-2.759750598e-12
-7.466995084e-12
-3.606640767e-11
1276.7269
584.9840428
118.176601
-279.1869085
-625.9463493
-904.7467719
-1103.289091
-1221.342563
-1267.914595
-1258.714369
-1216.874255
-1172.801995
-1157.36152
-1187.799272
-1286.29789
8.853794154e-14
2.675127267e-13
4.460598671e-13
6.173130393e-13
7.746734088e-13
9.070941887e-13
9.966447853e-13
1.015112353e-12
9.196961476e-13
6.493882443e-13
1.293169735e-13
-6.89072551e-13
-1.648493438e-12
-1.645408108e-12
9.780080064e-12
552.2022075
392.4884637
66.73809355
-275.4417058
-583.1808859
-833.2229572
-1016.740768
-1135.336068
-1197.385081
-1215.552706
-1206.76037
-1191.916097
-1192.903334
-1228.0332
-1310.944652
8.511204978e-14
2.576435833e-13
4.312398456e-13
6.003069707e-13
7.594984289e-13
8.990801724e-13
1.002359907e-12
1.042010741e-12
9.752549627e-13
7.394342613e-13
2.551048602e-13
-5.360149989e-13
-1.491529581e-12
-1.535561695e-12
9.6312697e-12
539.6781316
366.1496763
31.84621007
-306.0269342
-598.015641
-828.1504492
-995.0830763
-1105.89796
-1170.816116
-1199.476762
-1202.835715
-1195.319825
-1194.39388
-1220.530639
-1296.020738
8.213720377e-14
2.496005166e-13
4.210480466e-13
5.933856949e-13
7.642732082e-13
9.278187123e-13
1.072156299e-12
1.175469387e-12
1.19931863e-12
1.076588716e-12
6.858645307e-13
-2.188728338e-13
-2.241399593e-12
-7.053113314e-12
-3.640237602e-11
1240.440669
500.673815
0.6268988543
-382.4080467
-674.6279924
-886.21721
-1029.508981
-1122.372852
-1180.577754
-1208.816452
-1209.904512
-1192.218667
-1168.866649
-1163.691934
-1236.090627
7.868021561e-14
2.404134698e-13
4.100814527e-13
5.880932924e-13
7.766184156e-13
9.760069047e-13
1.183124724e-12
1.388261475e-12
1.569348774e-12
1.680816026e-12
1.630114436e-12
1.22313629e-12
3.197599746e-14
-2.715537859e-12
-1.650440249e-11
1238.172162
395.5546279
-147.5616518
-549.5634628
-831.8290208
-1012.538748
-1114.338117
-1173.522906
-1220.376973
-1245.408428
-1235.823368
-1194.800168
-1125.138396
-1029.207914
-1050.799524
7.347466912e-14
2.260498594e-13
3.908594046e-13
5.723591449e-13
7.781305212e-13
1.016439161e-12
1.295971461e-12
1.624881741e-12
2.008709625e-12
2.446998521e-12
2.93107236e-12
3.459098749e-12
4.14505765e-12
5.758225208e-12
1.199615276e-11
5.093557377e-11
-9.104072322
-436.79633
-836.4392615
-1090.580777
-1217.755286
-1241.770188
-1237.025048
-1282.062352
-1316.68029
-1293.198306
-1225.993004
-1107.574697
-777.1985785
8098.092383
6.514142007e-14
2.020403877e-13
3.549436072e-13
5.322594671e-13
7.469418203e-13
1.015468063e-12
1.359292461e-12
1.806515383e-12
2.39372578e-12
3.167844796e-12
4.188804799e-12
5.538094706e-12
7.346587363e-12
9.829817091e-12
1.304025335e-11
1.46093705e-11
638.3846295
-754.0647245
-1268.775759
-1476.292454
-1526.123358
-1397.956377
-1250.769959
-1354.218738
-1446.10593
-1394.326818
-1308.298138
-1302.01876
-1510.598851
10021.99052
5.241461912e-14
1.642795353e-13
2.944758842e-13
4.545412381e-13
6.616422908e-13
9.390342118e-13
1.319216222e-12
1.848358913e-12
2.59225592e-12
3.642500543e-12
5.118597025e-12
7.157213291e-12
9.87345962e-12
1.323247583e-11
1.650017583e-11
1.583228693e-11
-2.492349315e-11
-1948.947408
-2008.248231
-2019.682222
-2012.482004
-1573.160066
-1013.905362
-1438.000109
-1719.271499
-1529.666972
-1310.871218
-1281.546858
3381.386104
5412.531045
3.443163807e-14
1.0991452e-13
2.038574662e-13
3.294533397e-13
5.058443448e-13
7.598406172e-13
1.130374615e-12
1.675682007e-12
2.484669605e-12
3.691522418e-12
5.485463622e-12
8.096964225e-12
1.175665894e-11
1.676420854e-11
2.417750625e-11
3.768740146e-11
6.945670074e-11
2.201626293e-10
2080.48719
-2581.731709
-2930.971811
-1868.303649
206.2693111
-1664.680003
-2463.36846
-1694.198749
3752.086296
3381.386104
3381.386104
3381.386104
1.094917287e-14
3.810515717e-14
8.122153579e-14
1.532808861e-13
2.724078311e-13
4.643371609e-13
7.669491849e-13
1.239233605e-12
1.978874283e-12
3.153031306e-12
5.034001723e-12
7.987519169e-12
1.229228597e-11
1.789299079e-11
2.571221264e-11
4.176761916e-11
6.693316576e-11
1.164561576e-10
2669.293872
6593.065215
10055.33734
7067.27421
5371.918388
7278.937758
10541.32834
7513.952561
4389.377461
3381.386104
3381.386104
3381.386104
-1.749728773e-14
-4.954610419e-14
-7.071364818e-14
-7.01358101e-14
-3.365655126e-14
5.839524357e-14
2.337340967e-13
5.346352268e-13
1.037679833e-12
1.907341706e-12
3.51043712e-12
6.527947035e-12
1.153737601e-11
1.68009295e-11
1.905030324e-11
3.148921541e-11
6.151627193e-11
-597.0776728
-1313.05106
-2696.569384
-3824.745425
-2260.436554
-94.29249506
-2103.461391
-3480.993851
-2106.655248
-406.6479169
584.0197112
3381.386104
4939.905666
-4.960495816e-14
-1.489689756e-13
-2.446856991e-13
-3.294764475e-13
-3.95049695e-13
-4.307607772e-13
-4.257192062e-13
-3.733584864e-13
-2.709908257e-13
-7.076583374e-14
5.755810567e-13
3.089188678e-12
1.06872853e-11
1.889061766e-11
-2.46195291e-12
711.2708492
-275.2067852
-742.0305142
-1311.114709
-1998.916161
-2397.321751
-1947.360004
-1385.236548
-1874.921794
-2255.24566
-1810.324167
-1176.622592
-1003.631386
-1953.294671
-2413.893022
-8.340231659e-14
-2.539892258e-13
-4.298165364e-13
-6.079445755e-13
-7.861671927e-13
-9.609683662e-13
-1.133602003e-12
-1.33262995e-12
-1.676970556e-12
-2.490225091e-12
-4.18365005e-12
-5.047967448e-12
7.765786845e-12
7.328451971e-11
-775.9057791
-196.372314
-436.5743466
-784.6705207
-1190.449539
-1590.660382
-1818.27078
-1746.458743
-1624.412717
-1755.800326
-1854.789825
-1702.791291
-1485.883426
-1468.544498
-1776.955831
-1965.912764
-1.163611579e-13
-3.568750048e-13
-6.127700945e-13
-8.862463612e-13
-1.18070863e-12
-1.493887076e-12
-1.816169694e-12
-2.146760294e-12
-2.610380582e-12
-3.957396547e-12
-9.326357052e-12
-3.65147909e-11
1086.276863
151.4588492
-223.9531942
-284.2571629
-489.9935369
-769.5934744
-1075.344072
-1355.005442
-1538.642254
-1595.800846
-1610.188129
-1669.126845
-1705.365268
-1660.179812
-1595.554024
-1607.642203
-1719.986213
-1800.23415
-1.455352629e-13
-4.486195168e-13
-7.781813063e-13
-1.143552724e-12
-1.556674289e-12
-2.018335864e-12
-2.490997927e-12
-2.826988549e-12
-2.620636075e-12
-1.114381842e-12
2.698124568e-12
1247.663991
876.9421628
376.9677395
12.92085955
-226.6743557
-469.5118922
-728.3453526
-986.3172028
-1215.373853
-1385.486194
-1487.921517
-1551.4365
-1605.201608
-1637.407388
-1637.02842
-1628.48693
-1646.428594
-1695.055404
-1732.056271
-1.677464232e-13
-5.190769153e-13
-9.078748687e-13
-1.353167034e-12
-1.884350431e-12
-2.532244041e-12
-3.302733541e-12
-4.046395046e-12
-3.852216833e-12
1.520051958e-12
4.858075533e-11
796.9951303
796.864357
466.5753354
125.3766669
-165.8077366
-432.9947864
-687.9294222
-926.1920727
-1134.676554
-1300.00018
-1418.961753
-1502.457517
-1562.879918
-1602.085771
-1622.067838
-1634.933022
-1654.494747
-1681.715232
-1701.83249
-1.79856424e-13
-5.578301042e-13
-9.807882751e-13
-1.476315883e-12
-2.094439324e-12
-2.921653855e-12
-4.135991463e-12
-6.162514078e-12
-9.783601685e-12
-2.888685494e-11
3486.723424
1776.890664
1046.955523
567.1241263
187.8625963
-128.8851793
-408.6844553
-664.1510875
-895.825973
-1097.124944
-1260.865444
-1385.465815
-1476.575786
-1541.823773
-1586.048207
-1614.264224
-1634.694087
-1654.885486
-1675.461615
-1689.779959
)
;

boundaryField
{
    lowerWall
    {
        type            fixedFluxPressure;
        gradient        nonuniform 0();
        value           nonuniform 0();
    }
    atmosphere
    {
        type            totalPressure;
        rho             rho;
        psi             none;
        gamma           1;
        p0              uniform 0;
        value           nonuniform List<scalar> 
20
(
0
0
0
0
0
0
0
0
0
0
0
0
0
-4.328394163e-24
-7.754189358e-23
-2.743802475e-22
-5.895547424e-22
-9.734997604e-22
-1.345925498e-21
-1.616431713e-21
)
;
    }
    rightWall
    {
        type            empty;
    }
    leftWall
    {
        type            empty;
    }
    frontAndBack
    {
        type            fixedFluxPressure;
        gradient        uniform 0;
        value           nonuniform List<scalar> 
30
(
-1.79856424e-13
-5.578301042e-13
-9.807882751e-13
-1.476315883e-12
-2.094439324e-12
-2.921653855e-12
-4.135991463e-12
-6.162514078e-12
-9.783601685e-12
-2.888685494e-11
3486.723424
1776.890664
1046.955523
567.1241263
187.8625963
-128.8851793
-408.6844553
-664.1510875
-895.825973
-1097.124944
-1260.865444
-1385.465815
-1476.575786
-1541.823773
-1586.048207
-1614.264224
-1634.694087
-1654.885486
-1675.461615
-1689.779959
)
;
    }
    procBoundary4to2
    {
        type            processor;
        value           nonuniform List<scalar> 
30
(
1.163375618e-13
3.541796624e-13
6.001677526e-13
8.540724027e-13
1.120776908e-12
1.407474121e-12
1.724757143e-12
2.089181525e-12
2.526382615e-12
3.0766906e-12
3.802080877e-12
4.79360651e-12
6.15687229e-12
7.886697722e-12
9.339982394e-12
7.508988537e-12
-1.755115564e-11
774.5493228
-552.7348645
-1879.502994
-2385.422149
-2555.211935
-2515.17232
-2362.331851
-2000.86152
-1345.182121
-78.90806848
518.7158731
1926.405137
4469.431485
)
;
    }
    procBoundary4to5
    {
        type            processor;
        value           nonuniform List<scalar> 
20
(
-3138.725728
-2276.250627
-1658.381994
-1489.025205
-1433.452312
-1416.49021
-1433.83186
-1550.591345
-2088.921086
-2837.803353
-1134.608829
216.3709112
-525.8883805
-1955.800743
-1992.90826
-1872.528293
-1782.948541
-1731.082169
-1703.769088
-1692.047934
)
;
    }
}


// ************************************************************************* //
