/*--------------------------------*- C++ -*----------------------------------*\
  =========                 |
  \\      /  F ield         | OpenFOAM: The Open Source CFD Toolbox
   \\    /   O peration     | Website:  https://openfoam.org
    \\  /    A nd           | Version:  6
     \\/     M anipulation  |
\*---------------------------------------------------------------------------*/
FoamFile
{
    version     2.0;
    format      ascii;
    class       volVectorField;
    location    "0.0043";
    object      U;
}
// * * * * * * * * * * * * * * * * * * * * * * * * * * * * * * * * * * * * * //

dimensions      [0 1 -1 0 0 0 0];

internalField   nonuniform List<vector> 
600
(
(0 -1.512385118e-10 1.635446494e-11)
(0 -1.529869248e-10 1.887469396e-11)
(0 -1.565265742e-10 2.367049994e-11)
(0 -1.620443889e-10 3.085997257e-11)
(0 -1.698920237e-10 4.088097881e-11)
(0 -1.805230258e-10 5.446309968e-11)
(0 -1.94499595e-10 7.257867376e-11)
(0 -2.124837634e-10 9.632611716e-11)
(0 -2.352099671e-10 1.266532227e-10)
(0 -2.634146245e-10 1.637780235e-10)
(0 -2.976119338e-10 2.060195937e-10)
(0 -3.372476557e-10 2.475425297e-10)
(0 -3.776725516e-10 2.743346516e-10)
(0 -3.988638432e-10 2.586431035e-10)
(0 -3.479681899e-10 1.676252503e-10)
(0 -2.54305408e-12 3.231659018e-24)
(0 2.241148301e-12 1.833293399e-11)
(0 1.083567008e-11 5.329885171e-12)
(0 1.190241286e-11 -1.010065958e-12)
(0 9.411581253e-12 -7.118903761e-12)
(0 5.28087585e-12 -8.034605212e-12)
(0 2.054810405e-12 -7.594420887e-12)
(0 -3.989762394e-13 -6.641867818e-12)
(0 -2.603970875e-12 -5.748592355e-12)
(0 -4.858379773e-12 -4.084234735e-12)
(0 -6.53602468e-12 -7.820444718e-13)
(0 -3.617487102e-12 7.078119098e-12)
(0 8.284409078e-12 1.095704184e-11)
(0 3.260728952e-11 1.051627133e-12)
(0 -2.307395969e-12 -2.557737111e-11)
(0 -1.431718293e-10 1.767311095e-11)
(0 -1.442666675e-10 2.020156072e-11)
(0 -1.463242541e-10 2.498928613e-11)
(0 -1.492623393e-10 3.212495628e-11)
(0 -1.530324008e-10 4.202674247e-11)
(0 -1.575400582e-10 5.542691698e-11)
(0 -1.626424792e-10 7.334426953e-11)
(0 -1.681589855e-10 9.699142141e-11)
(0 -1.73933737e-10 1.275465667e-10)
(0 -1.800463881e-10 1.656703006e-10)
(0 -1.874302432e-10 2.105766453e-10)
(0 -1.995156931e-10 2.582599223e-10)
(0 -2.264425965e-10 2.98094644e-10)
(0 -2.862606624e-10 3.050864964e-10)
(0 -4.347358278e-10 2.498833455e-10)
(0 -6.542452966e-12 -9.648857949e-12)
(0 -5.230010594e-12 3.148971038e-12)
(0 4.927122648e-12 1.757397235e-12)
(0 7.456603444e-12 -1.041261343e-12)
(0 6.720615385e-12 -3.868586488e-12)
(0 4.59229993e-12 -5.030011545e-12)
(0 2.365863676e-12 -5.146353815e-12)
(0 3.992279049e-13 -4.666707203e-12)
(0 -1.299697918e-12 -3.81744995e-12)
(0 -2.66207509e-12 -2.394487757e-12)
(0 -3.252297059e-12 -1.96062605e-13)
(0 -2.240148652e-12 2.570687089e-12)
(0 -9.417293723e-13 2.27162102e-12)
(0 -9.46958816e-12 -6.055782174e-12)
(0 -9.780932345e-12 1.675967765e-11)
(0 -1.352918941e-10 1.782253266e-11)
(0 -1.358490119e-10 1.99580037e-11)
(0 -1.36669945e-10 2.39372307e-11)
(0 -1.374155673e-10 2.974456097e-11)
(0 -1.376473868e-10 3.763942959e-11)
(0 -1.36725727e-10 4.816535267e-11)
(0 -1.337829443e-10 6.214696835e-11)
(0 -1.277076723e-10 8.062352771e-11)
(0 -1.171477524e-10 1.046471828e-10)
(0 -1.005096931e-10 1.348277831e-10)
(0 -7.58878668e-11 1.704458032e-10)
(0 -4.074989778e-11 2.076814672e-10)
(0 6.863978365e-12 2.350501059e-10)
(0 8.175474865e-11 2.128261377e-10)
(0 1.522652938e-11 1.368861213e-24)
(0 2.073052842e-11 -9.575451751e-12)
(0 8.896627612e-12 -2.595703197e-12)
(0 6.645437707e-12 -4.070897565e-13)
(0 6.276429142e-12 -1.041543712e-12)
(0 5.42283105e-12 -2.282771074e-12)
(0 4.003108522e-12 -3.07046012e-12)
(0 2.418114747e-12 -3.295000444e-12)
(0 9.299276262e-13 -3.061855366e-12)
(0 -3.317514298e-13 -2.459537068e-12)
(0 -1.236992428e-12 -1.481868902e-12)
(0 -1.570849832e-12 -1.802645252e-13)
(0 -1.149803475e-12 1.126085352e-12)
(0 -3.420601851e-13 1.613538612e-12)
(0 6.103469197e-13 2.1802943e-12)
(0 4.341001806e-12 5.105732781e-12)
(0 -1.284299988e-10 1.719910815e-11)
(0 -1.287183731e-10 1.863401063e-11)
(0 -1.288884527e-10 2.118074876e-11)
(0 -1.284060207e-10 2.464318048e-11)
(0 -1.265273909e-10 2.899117406e-11)
(0 -1.221831794e-10 3.440444601e-11)
(0 -1.139471731e-10 4.130320621e-11)
(0 -1.00049114e-10 5.03166842e-11)
(0 -7.846531882e-11 6.209236259e-11)
(0 -4.708103524e-11 7.675557571e-11)
(0 -3.787412532e-12 9.269348108e-11)
(0 5.403907404e-11 1.04287924e-10)
(0 1.287207512e-10 9.897060077e-11)
(0 2.458597881e-10 6.188004109e-11)
(0 1.054915973e-11 -2.685217523e-24)
(0 1.573723116e-11 5.507341394e-12)
(0 8.689127244e-12 1.201195441e-12)
(0 6.481282133e-12 2.516946371e-13)
(0 5.580922126e-12 -4.34765996e-13)
(0 4.691698977e-12 -1.15034216e-12)
(0 3.580070559e-12 -1.67423766e-12)
(0 2.374468431e-12 -1.901751564e-12)
(0 1.234691281e-12 -1.826504075e-12)
(0 2.802885456e-13 -1.476846845e-12)
(0 -3.828025469e-13 -8.931278626e-13)
(0 -6.443428035e-13 -1.695397481e-13)
(0 -4.463455144e-13 5.004474075e-13)
(0 1.124795754e-13 8.763359517e-13)
(0 9.670227745e-13 1.113385859e-12)
(0 2.259194497e-12 1.151298921e-12)
(0 -1.230383145e-10 1.644314456e-11)
(0 -1.234415574e-10 1.704117619e-11)
(0 -1.238023437e-10 1.78590883e-11)
(0 -1.234908246e-10 1.845126014e-11)
(0 -1.215949789e-10 1.839488064e-11)
(0 -1.167965125e-10 1.738143768e-11)
(0 -1.073500541e-10 1.531293256e-11)
(0 -9.117475589e-11 1.238638322e-11)
(0 -6.621281176e-11 9.114626857e-12)
(0 -3.134625508e-11 6.154438545e-12)
(0 1.158581016e-11 3.692676395e-12)
(0 5.376613237e-11 1.115518985e-13)
(0 7.308874004e-11 -9.440813327e-12)
(0 2.37346124e-11 -2.341337128e-11)
(0 -4.141516556e-12 -1.357856853e-24)
(0 -2.943663478e-12 5.527865765e-12)
(0 3.640980855e-12 1.641257749e-12)
(0 5.00947627e-12 6.474779316e-13)
(0 4.874392345e-12 2.013001924e-13)
(0 4.183359387e-12 -2.094803124e-13)
(0 3.251699119e-12 -5.744724202e-13)
(0 2.265848331e-12 -8.115451062e-13)
(0 1.354832345e-12 -8.658345211e-13)
(0 6.016247824e-13 -7.282385897e-13)
(0 7.031466842e-14 -4.442820505e-13)
(0 -1.772745622e-13 -1.052890501e-13)
(0 -1.039277756e-13 1.68883727e-13)
(0 2.708782656e-13 2.777427031e-13)
(0 8.853098891e-13 2.454852538e-13)
(0 1.540643345e-12 7.292136414e-14)
(0 -1.190260468e-10 1.630886537e-11)
(0 -1.19980225e-10 1.615783563e-11)
(0 -1.214935295e-10 1.537994407e-11)
(0 -1.229603889e-10 1.32213444e-11)
(0 -1.234610481e-10 8.793192947e-12)
(0 -1.216192634e-10 1.21224222e-12)
(0 -1.15549586e-10 -1.022392384e-11)
(0 -1.029072812e-10 -2.578138998e-11)
(0 -8.120315912e-11 -4.48928136e-11)
(0 -4.869298813e-11 -6.553027049e-11)
(0 -6.419856946e-12 -8.322907079e-11)
(0 3.761450108e-11 -8.97802813e-11)
(0 6.177258412e-11 -7.278739956e-11)
(0 1.982589103e-11 -2.826510276e-11)
(0 -4.047585987e-12 1.936629003e-24)
(0 -2.746122572e-12 -5.161788476e-12)
(0 3.808739412e-12 -8.113901373e-13)
(0 5.041324578e-12 4.958339601e-13)
(0 4.723963882e-12 8.02247558e-13)
(0 3.915926363e-12 6.858532999e-13)
(0 2.978005765e-12 3.974568971e-13)
(0 2.083106329e-12 9.576159501e-14)
(0 1.317997798e-12 -9.722411981e-14)
(0 7.018410163e-13 -1.26054956e-13)
(0 2.40146993e-13 -5.052190396e-14)
(0 -3.117702555e-14 2.358106446e-14)
(0 -6.33137611e-14 2.269271837e-15)
(0 1.890811018e-13 -1.80275136e-13)
(0 7.622014352e-13 -4.825594955e-13)
(0 1.469696784e-12 -5.614051891e-13)
(0 -1.156856253e-10 1.749084758e-11)
(0 -1.176045616e-10 1.692215895e-11)
(0 -1.211901497e-10 1.514843315e-11)
(0 -1.259874413e-10 1.106047773e-11)
(0 -1.312442918e-10 3.262112844e-12)
(0 -1.35745493e-10 -9.76394199e-12)
(0 -1.376892515e-10 -2.944414926e-11)
(0 -1.345756946e-10 -5.676676375e-11)
(0 -1.231611386e-10 -9.167352305e-11)
(0 -9.952024413e-11 -1.320070926e-10)
(0 -5.918195826e-11 -1.717630442e-10)
(0 3.031288411e-12 -1.9847997e-10)
(0 9.117507128e-11 -1.905753289e-10)
(0 2.304775665e-10 -1.237305889e-10)
(0 1.082130646e-11 3.233678893e-24)
(0 1.636955787e-11 -5.238705238e-12)
(0 9.298603279e-12 -2.205371378e-13)
(0 6.623113961e-12 1.345558967e-12)
(0 5.064411684e-12 1.826523969e-12)
(0 3.778568725e-12 1.753600353e-12)
(0 2.661607414e-12 1.382912246e-12)
(0 1.771167314e-12 8.944128075e-13)
(0 1.133015795e-12 5.071870968e-13)
(0 6.483269986e-13 3.717064314e-13)
(0 2.199506894e-13 3.444874948e-13)
(0 -1.244833857e-13 2.474073967e-13)
(0 -3.077839753e-13 -3.897427451e-15)
(0 -2.139505009e-13 -5.194161357e-13)
(0 5.041798362e-13 -1.434920436e-12)
(0 2.026049445e-12 -1.839159113e-12)
(0 -1.117303747e-10 2.042954519e-11)
(0 -1.149292387e-10 2.000240717e-11)
(0 -1.21296608e-10 1.826710829e-11)
(0 -1.306410255e-10 1.372722057e-11)
(0 -1.425520594e-10 4.48736625e-12)
(0 -1.56231806e-10 -1.159211874e-11)
(0 -1.703260226e-10 -3.671096173e-11)
(0 -1.827065559e-10 -7.280531158e-11)
(0 -1.902345053e-10 -1.20950749e-10)
(0 -1.885444016e-10 -1.803262326e-10)
(0 -1.719299959e-10 -2.465322626e-10)
(0 -1.334513009e-10 -3.088532107e-10)
(0 -6.745388171e-11 -3.446410471e-10)
(0 4.133252471e-11 -2.972948394e-10)
(0 1.558909611e-11 -1.939000389e-24)
(0 2.190872761e-11 9.303304977e-12)
(0 1.03930036e-11 3.823334141e-12)
(0 7.088385679e-12 3.280674208e-12)
(0 5.132005266e-12 3.405234103e-12)
(0 3.472314641e-12 3.119645874e-12)
(0 2.118818222e-12 2.486535562e-12)
(0 1.207381182e-12 1.591959047e-12)
(0 7.952914228e-13 8.598914675e-13)
(0 5.391414147e-13 7.611344876e-13)
(0 1.158479586e-13 8.089787815e-13)
(0 -3.79561947e-13 6.247034487e-13)
(0 -8.301372915e-13 2.533075277e-13)
(0 -1.241941903e-12 -4.596896358e-13)
(0 -5.575415387e-13 -2.898700156e-12)
(0 3.91037572e-12 -6.366763778e-12)
(0 -1.054474966e-10 2.512174697e-11)
(0 -1.100814469e-10 2.557762604e-11)
(0 -1.19583698e-10 2.52464263e-11)
(0 -1.340916735e-10 2.222294028e-11)
(0 -1.53661853e-10 1.418471503e-11)
(0 -1.781277047e-10 -1.502712158e-12)
(0 -2.069231764e-10 -2.767886239e-11)
(0 -2.388296078e-10 -6.714379472e-11)
(0 -2.716939144e-10 -1.221146161e-10)
(0 -3.022593474e-10 -1.931564278e-10)
(0 -3.265137731e-10 -2.772692474e-10)
(0 -3.414656212e-10 -3.646838055e-10)
(0 -3.502317584e-10 -4.337963333e-10)
(0 -3.655156193e-10 -4.424182796e-10)
(0 -4.377159322e-10 -3.413870591e-10)
(0 -4.682495231e-12 9.286291171e-12)
(0 -1.474803298e-12 -1.821225039e-12)
(0 6.205013917e-12 4.54877304e-12)
(0 4.903383348e-12 5.394092221e-12)
(0 2.859870182e-12 4.833475746e-12)
(0 1.133920584e-12 3.851884575e-12)
(0 1.445232163e-13 2.127136951e-12)
(0 3.021912332e-13 5.793528999e-13)
(0 5.974143132e-13 1.003813237e-12)
(0 8.351965057e-14 1.505231266e-12)
(0 -6.801546405e-13 1.188775875e-12)
(0 -1.392177061e-12 8.512347703e-13)
(0 -3.365958193e-12 1.326602736e-12)
(0 -1.234731122e-11 3.610432045e-12)
(0 -1.028669306e-11 -1.940631654e-11)
(0 -9.495049607e-11 3.095963386e-11)
(0 -1.009952942e-10 3.31708918e-11)
(0 -1.13550006e-10 3.578568092e-11)
(0 -1.330597122e-10 3.645449215e-11)
(0 -1.600767357e-10 3.255934455e-11)
(0 -1.951539974e-10 2.120732946e-11)
(0 -2.386661952e-10 -7.913021355e-13)
(0 -2.905105448e-10 -3.680715923e-11)
(0 -3.496643754e-10 -8.995829423e-11)
(0 -4.135826163e-10 -1.620422562e-10)
(0 -4.774773226e-10 -2.512881356e-10)
(0 -5.334557632e-10 -3.481630256e-10)
(0 -5.685479311e-10 -4.2865958e-10)
(0 -5.55637281e-10 -4.455863886e-10)
(0 -4.363725429e-10 -3.303526115e-10)
(0 -3.710881448e-14 -2.781446635e-24)
(0 1.040626134e-11 -2.019289179e-11)
(0 1.430370291e-11 1.134113311e-11)
(0 5.416707969e-12 8.788567294e-12)
(0 1.930106994e-12 6.968260858e-12)
(0 -5.87520573e-13 5.9604504e-12)
(0 -2.065150492e-12 2.485424096e-12)
(0 -3.28032293e-13 -1.673397645e-12)
(0 1.465019778e-12 1.169533183e-12)
(0 3.008105962e-13 3.01943408e-12)
(0 -1.033558443e-12 1.773515003e-12)
(0 -6.923104358e-13 6.36586604e-13)
(0 1.517255349e-12 1.30479121e-12)
(0 2.519453865e-11 -1.106477378e-11)
(0 -1.741159849e-12 2.014171009e-11)
(0 -7.847843298e-11 3.661071855e-11)
(0 -8.580565861e-11 4.158694876e-11)
(0 -1.009278061e-10 4.870395494e-11)
(0 -1.244726482e-10 5.5087328e-11)
(0 -1.574181043e-10 5.801463153e-11)
(0 -2.009817015e-10 5.465048764e-11)
(0 -2.564351462e-10 4.183379886e-11)
(0 -3.247858133e-10 1.599924755e-11)
(0 -4.06195557e-10 -2.666663051e-11)
(0 -4.989204294e-10 -8.955168175e-11)
(0 -5.975675824e-10 -1.738284761e-10)
(0 -6.90693331e-10 -2.747799298e-10)
(0 -7.577340375e-10 -3.766909381e-10)
(0 -7.63150454e-10 -4.506938842e-10)
(0 -6.414493428e-10 -4.685936354e-10)
(0 -2.185425634e-10 -3.918957551e-10)
(0 3.474171651e-11 -1.533672652e-11)
(0 3.518647269e-11 5.221983597e-11)
(0 5.305111053e-13 1.145110874e-11)
(0 3.175329397e-14 8.290794404e-12)
(0 -3.348916165e-12 1.053636337e-11)
(0 -7.489324809e-12 3.527604527e-12)
(0 -1.013699677e-12 -1.092779449e-11)
(0 5.290246027e-12 2.328459479e-12)
(0 6.875014673e-13 7.629468953e-12)
(0 -3.063002111e-12 2.249039479e-12)
(0 -1.860900854e-12 -1.382302376e-12)
(0 -2.349673668e-11 2.274979286e-11)
(0 -3.851039104e-11 -1.656527584e-11)
(0 -1.113003673e-11 4.980453311e-11)
(0 -5.463332316e-11 3.989154652e-11)
(0 -6.332618243e-11 4.901340111e-11)
(0 -8.027673299e-11 6.20933405e-11)
(0 -1.06207848e-10 7.567457317e-11)
(0 -1.424308808e-10 8.724076341e-11)
(0 -1.906471972e-10 9.438224418e-11)
(0 -2.527700566e-10 9.438501849e-11)
(0 -3.306850996e-10 8.396596106e-11)
(0 -4.257242285e-10 5.904843508e-11)
(0 -5.374459675e-10 1.470741256e-11)
(0 -6.613089459e-10 -5.398191164e-11)
(0 -7.860650648e-10 -1.483215469e-10)
(0 -8.952429577e-10 -2.581504207e-10)
(0 -9.8500351e-10 -3.539014196e-10)
(0 -1.087376768e-09 -4.246904089e-10)
(0 -1.223142239e-09 -5.43817671e-10)
(0 -1.616855737e-09 -6.464866472e-10)
(0 -1.560365391e-11 4.325821582e-11)
(0 -2.088623574e-11 1.48901506e-12)
(0 -2.663281058e-12 5.290051201e-13)
(0 -5.350710449e-12 2.436674083e-11)
(0 -2.352930841e-11 1.201654648e-11)
(0 -1.527177342e-12 -4.789367818e-11)
(0 2.002228328e-11 1.144276955e-11)
(0 2.213905888e-13 2.292088709e-11)
(0 -6.366687111e-12 -2.702535587e-12)
(0 2.182337165e-12 -6.181284231e-12)
(0 2.780251441e-12 2.290333213e-11)
(0 5.251936693e-10 -5.447566136e-10)
(0 2.373761388e-11 1.523358698e-11)
(0 -2.228446871e-11 3.779997897e-11)
(0 -3.375211407e-11 5.352541409e-11)
(0 -5.160429996e-11 7.375859027e-11)
(0 -7.775185242e-11 9.507849935e-11)
(0 -1.138787022e-10 1.157047211e-10)
(0 -1.618724128e-10 1.339916181e-10)
(0 -2.237638794e-10 1.480060613e-10)
(0 -3.016845112e-10 1.552449602e-10)
(0 -3.976432463e-10 1.52099622e-10)
(0 -5.124636981e-10 1.327782985e-10)
(0 -6.423119921e-10 8.813399627e-11)
(0 -7.719820789e-10 8.404993658e-12)
(0 -8.693333037e-10 -1.011776702e-10)
(0 -9.240929065e-10 -1.70840607e-10)
(0 -1.001526014e-09 -1.227416074e-10)
(0 -1.030778488e-09 -1.566070587e-10)
(0 -1.075375589e-09 -1.759725404e-10)
(0 -2.001970403e-11 1.979570099e-12)
(0 -4.944798911e-11 5.761499503e-13)
(0 -5.539532601e-11 -1.083391072e-11)
(0 -3.556567485e-12 -1.342130923e-11)
(0 6.148603022e-11 2.940996794e-12)
(0 -1.587476608e-12 2.254213552e-12)
(0 -6.513096274e-11 3.29086042e-12)
(0 -1.762611003e-12 -1.24924209e-11)
(0 4.613963161e-11 -8.601769527e-12)
(0 3.099424843e-11 6.315119696e-12)
(0 7.55993518e-12 1.84817434e-11)
(0 -7.027510032e-11 -4.264740665e-10)
(0 9.179947034e-12 -1.168889675e-11)
(0 9.298368165e-12 2.240656595e-11)
(0 -8.944571426e-13 5.328315603e-11)
(0 -1.693776302e-11 8.168386868e-11)
(0 -4.050984438e-11 1.100589554e-10)
(0 -7.305201326e-11 1.384960606e-10)
(0 -1.160311783e-10 1.662876852e-10)
(0 -1.707867478e-10 1.923021419e-10)
(0 -2.385648502e-10 2.150565859e-10)
(0 -3.208514695e-10 2.322911451e-10)
(0 -4.195279648e-10 2.389634357e-10)
(0 -5.333687346e-10 2.21772212e-10)
(0 -6.44020799e-10 1.535803604e-10)
(0 -6.746475658e-10 1.76929984e-12)
(0 -5.697502547e-10 -1.018212041e-10)
(0 -4.591330274e-10 9.585218459e-11)
(0 4.340397567e-24 -5.837556395e-13)
(0 4.47808264e-12 -2.686724821e-12)
(0 9.847883038e-12 3.066716404e-12)
(0 1.574618783e-11 4.977677446e-12)
(0 1.883770774e-11 -1.237994385e-11)
(0 -3.270996218e-12 -4.160505403e-11)
(0 -2.797839697e-11 -9.210046941e-12)
(0 -1.177313717e-12 5.067866208e-11)
(0 2.540026017e-11 -8.165856903e-12)
(0 2.395391738e-14 -3.90256922e-11)
(0 -2.305759451e-11 -6.887728715e-12)
(0 -2.018006219e-11 1.686961348e-11)
(0 -8.285643724e-12 3.038912657e-11)
(0 -1.254453324e-11 -4.989892956e-12)
(0 -2.509570875e-11 -2.166001656e-11)
(0 3.937833866e-11 1.901095399e-11)
(0 3.381580943e-11 5.288449251e-11)
(0 2.180896869e-11 8.533833964e-11)
(0 2.97744575e-12 1.180579505e-10)
(0 -2.3495837e-11 1.514426875e-10)
(0 -5.828704199e-11 1.850518646e-10)
(0 -1.013586123e-10 2.179113024e-10)
(0 -1.515836325e-10 2.489664823e-10)
(0 -2.073816928e-10 2.776313877e-10)
(0 -2.698705909e-10 3.028695613e-10)
(0 -3.454712284e-10 3.136853331e-10)
(0 -4.375383738e-10 2.647299264e-10)
(0 -3.841010592e-10 1.094065365e-12)
(0 -9.957410151e-11 -3.433921359e-10)
(0 1.47900796e-11 5.819293303e-12)
(0 2.218866186e-11 6.223568101e-12)
(0 1.089976023e-11 -1.476468108e-12)
(0 7.769309424e-12 1.406946355e-12)
(0 9.426642348e-12 -9.195114046e-13)
(0 8.146552822e-12 -8.294317493e-12)
(0 -3.866711758e-13 -1.50485598e-11)
(0 -7.590639022e-12 -3.854833571e-12)
(0 -5.432865684e-13 1.147590162e-11)
(0 6.525068333e-12 -2.607457983e-12)
(0 -4.844822076e-13 -1.219653016e-11)
(0 -8.089673007e-12 -3.028979669e-12)
(0 -6.050195862e-12 8.094266294e-12)
(0 5.825040595e-12 1.539423152e-11)
(0 1.057696227e-11 -6.312434262e-12)
(0 2.971019275e-13 -1.333097175e-11)
(0 7.408003942e-11 1.714796614e-11)
(0 7.095977855e-11 5.040236089e-11)
(0 6.297549122e-11 8.346094576e-11)
(0 4.952830204e-11 1.172786815e-10)
(0 2.984321753e-11 1.52056825e-10)
(0 3.54839344e-12 1.86965689e-10)
(0 -2.822909245e-11 2.200221887e-10)
(0 -6.11747101e-11 2.484805981e-10)
(0 -8.649452541e-11 2.707568461e-10)
(0 -9.57402166e-11 2.910853137e-10)
(0 -9.680535286e-11 3.173137824e-10)
(0 -1.876191546e-10 3.526154737e-10)
(0 2.977591286e-24 -3.396300838e-12)
(0 -1.430531776e-11 -5.886717573e-12)
(0 -1.865181875e-11 1.679648906e-12)
(0 -2.544985743e-12 7.466460109e-12)
(0 4.412236551e-12 1.610900642e-12)
(0 5.654063944e-12 2.067222022e-13)
(0 6.044923961e-12 -1.768279778e-12)
(0 4.708659303e-12 -4.8293304e-12)
(0 1.168487707e-12 -6.440096248e-12)
(0 -1.453935471e-12 -2.63669369e-12)
(0 7.006187325e-14 1.687136855e-12)
(0 1.727828313e-12 -1.543462128e-12)
(0 -3.975677638e-13 -4.124102946e-12)
(0 -2.766797994e-12 -1.126082668e-12)
(0 -1.756850949e-12 3.141985747e-12)
(0 2.183043038e-12 4.530081138e-12)
(0 3.730261999e-12 -1.749813444e-12)
(0 7.167934694e-13 -4.602441552e-12)
(0 1.08592271e-10 1.498973519e-11)
(0 1.076873785e-10 4.488598712e-11)
(0 1.036327157e-10 7.533156145e-11)
(0 9.553690385e-11 1.069968728e-10)
(0 8.210598342e-11 1.39890853e-10)
(0 6.204026475e-11 1.726711707e-10)
(0 3.525178882e-11 2.016335205e-10)
(0 6.162034673e-12 2.194366634e-10)
(0 -8.747673784e-12 2.14776113e-10)
(0 2.555029409e-11 1.789365825e-10)
(0 1.821481015e-10 1.110602879e-10)
(0 1.197753473e-11 1.07671312e-11)
(0 1.898866984e-11 -1.826290591e-12)
(0 9.826725433e-12 -7.578034242e-12)
(0 3.267870091e-12 -5.916199791e-12)
(0 1.995302571e-12 2.27265317e-13)
(0 3.640022337e-12 2.470315935e-13)
(0 4.390129014e-12 -4.224387597e-13)
(0 4.390589758e-12 -1.530992523e-12)
(0 3.474736363e-12 -2.814648971e-12)
(0 1.805965527e-12 -3.24588439e-12)
(0 5.365940599e-13 -1.939029198e-12)
(0 5.499449905e-13 -5.473216244e-13)
(0 7.138285475e-13 -1.129490389e-12)
(0 -6.710274658e-14 -1.630368276e-12)
(0 -8.235843308e-13 -4.93221531e-13)
(0 -3.940320691e-13 1.069526279e-12)
(0 9.332414137e-13 1.334130721e-12)
(0 1.444439605e-12 -6.142532053e-13)
(0 4.72217461e-13 -1.753923699e-12)
(0 1.395436977e-10 1.186860542e-11)
(0 1.408323784e-10 3.582703737e-11)
(0 1.406128744e-10 6.069171199e-11)
(0 1.377918081e-10 8.715995994e-11)
(0 1.302962923e-10 1.155070015e-10)
(0 1.146834649e-10 1.449390179e-10)
(0 8.565348417e-11 1.722182082e-10)
(0 3.655057369e-11 1.888112669e-10)
(0 -3.346175533e-11 1.759875467e-10)
(0 -1.079146578e-10 1.130834907e-10)
(0 -4.606704174e-12 -1.910749872e-24)
(0 -1.826290466e-12 1.414714766e-11)
(0 6.530221883e-12 2.170593792e-12)
(0 6.480159775e-12 -2.36337364e-12)
(0 4.527315715e-12 -2.619973951e-12)
(0 3.618245638e-12 -8.883706966e-13)
(0 3.762532477e-12 -4.274906289e-13)
(0 3.876039829e-12 -6.124803909e-13)
(0 3.65271375e-12 -1.118639995e-12)
(0 2.993767435e-12 -1.652466659e-12)
(0 2.044107478e-12 -1.789815552e-12)
(0 1.244627293e-12 -1.326293195e-12)
(0 8.796006824e-13 -8.07979588e-13)
(0 6.447816635e-13 -7.968519489e-13)
(0 2.387010955e-13 -7.745962273e-13)
(0 -6.690343955e-14 -2.858398e-13)
(0 7.050130229e-14 2.953424823e-13)
(0 4.992635537e-13 3.513940813e-13)
(0 6.422075794e-13 -2.870323522e-13)
(0 2.702007424e-13 -7.380124472e-13)
(0 1.64079723e-10 7.683421849e-12)
(0 1.673456448e-10 2.330433393e-11)
(0 1.707007734e-10 3.980029705e-11)
(0 1.73245602e-10 5.790634065e-11)
(0 1.729327299e-10 7.842291262e-11)
(0 1.656269766e-10 1.022382675e-10)
(0 1.42669833e-10 1.302917809e-10)
(0 8.522935144e-11 1.630567449e-10)
(0 -3.756378034e-11 1.956417037e-10)
(0 -3.130118983e-10 2.297427146e-10)
(0 -1.07282394e-11 -6.02581478e-12)
(0 -1.07272586e-11 -3.96920006e-12)
(0 2.478148461e-12 -1.275100201e-12)
(0 5.036157677e-12 -1.426172905e-12)
(0 4.742873041e-12 -1.312063029e-12)
(0 4.1877859e-12 -7.334188252e-13)
(0 3.915912643e-12 -4.562057777e-13)
(0 3.698979647e-12 -4.814569894e-13)
(0 3.350603487e-12 -6.786842255e-13)
(0 2.803560803e-12 -8.868668204e-13)
(0 2.132138992e-12 -9.346556286e-13)
(0 1.518430027e-12 -7.684177616e-13)
(0 1.079386238e-12 -5.614553517e-13)
(0 7.472119076e-13 -4.753337615e-13)
(0 4.439094035e-13 -3.851938572e-13)
(0 2.463543822e-13 -1.707314712e-13)
(0 2.432018141e-13 4.655367966e-14)
(0 3.508665772e-13 6.34266908e-14)
(0 3.55033073e-13 -1.469534129e-13)
(0 1.654039217e-13 -3.170723447e-13)
(0 1.798129571e-10 2.654743025e-12)
(0 1.844223175e-10 8.071069107e-12)
(0 1.903869004e-10 1.385021375e-11)
(0 1.973735236e-10 2.032666822e-11)
(0 2.045839626e-10 2.797319321e-11)
(0 2.108359334e-10 3.757366027e-11)
(0 2.145507174e-10 5.045605227e-11)
(0 2.115572177e-10 6.77576886e-11)
(0 2.182661604e-10 7.850247987e-11)
(0 1.884957309e-11 2.405175546e-24)
(0 3.167331879e-11 -6.02581478e-12)
(0 1.829825926e-11 -7.349216522e-12)
(0 9.073249031e-12 -1.875683746e-12)
(0 6.443196947e-12 -7.541159335e-13)
(0 5.220069793e-12 -4.686444721e-13)
(0 4.474102888e-12 -2.769191802e-13)
(0 4.014494312e-12 -1.823274833e-13)
(0 3.653561381e-12 -1.783375105e-13)
(0 3.24730392e-12 -2.277457487e-13)
(0 2.737796033e-12 -2.816370777e-13)
(0 2.162556537e-12 -2.93510519e-13)
(0 1.617827569e-12 -2.512195325e-13)
(0 1.172684682e-12 -1.941129767e-13)
(0 8.210431575e-13 -1.579210881e-13)
(0 5.433033851e-13 -1.202817266e-13)
(0 3.648440963e-13 -5.852710627e-14)
(0 3.046594637e-13 -1.792012155e-15)
(0 3.057564615e-13 2.93054344e-15)
(0 2.617085447e-13 -4.6902128e-14)
(0 1.243973876e-13 -9.0393985e-14)
)
;

boundaryField
{
    lowerWall
    {
        type            slip;
    }
    atmosphere
    {
        type            pressureInletOutletVelocity;
        tangentialVelocity uniform (0 0 0);
        value           nonuniform List<vector> 
20
(
(0 -1.512385118e-10 1.635446494e-11)
(0 -1.431718293e-10 1.767311095e-11)
(0 -1.352918941e-10 1.782253266e-11)
(0 -1.284299988e-10 1.719910815e-11)
(0 -1.230383145e-10 1.644314456e-11)
(0 -1.190260468e-10 1.630886537e-11)
(0 -1.156856253e-10 1.749084758e-11)
(0 -1.117303747e-10 2.042954519e-11)
(0 -1.054474966e-10 2.512174697e-11)
(0 -9.495049607e-11 3.095963386e-11)
(0 -7.847843298e-11 3.661071855e-11)
(0 -5.463332316e-11 3.989154652e-11)
(0 -2.228446871e-11 3.779997897e-11)
(0 9.298368165e-12 0)
(0 3.937833866e-11 0)
(0 7.408003942e-11 0)
(0 1.08592271e-10 0)
(0 1.395436977e-10 0)
(0 1.64079723e-10 0)
(0 1.798129571e-10 0)
)
;
    }
    rightWall
    {
        type            empty;
    }
    leftWall
    {
        type            empty;
    }
    frontAndBack
    {
        type            slip;
    }
    procBoundary4to2
    {
        type            processor;
        value           nonuniform List<vector> 
30
(
(0 -1.585019229e-10 1.378339057e-11)
(0 -1.608577317e-10 1.588851104e-11)
(0 -1.657668635e-10 1.988815981e-11)
(0 -1.736491737e-10 2.586461938e-11)
(0 -1.851972666e-10 3.415524499e-11)
(0 -2.013213187e-10 4.532166361e-11)
(0 -2.231500336e-10 6.010212213e-11)
(0 -2.519759456e-10 7.930503879e-11)
(0 -2.890971882e-10 1.035828401e-10)
(0 -3.35430682e-10 1.329991593e-10)
(0 -3.905977894e-10 1.662832488e-10)
(0 -4.507540486e-10 1.997318066e-10)
(0 -5.036466582e-10 2.261071569e-10)
(0 -5.183435914e-10 2.349288449e-10)
(0 -4.342059328e-10 2.180475493e-10)
(0 -1.343755788e-10 1.610507957e-10)
(0 1.431549114e-11 1.283078115e-11)
(0 2.427012254e-11 2.24114827e-12)
(0 1.990539237e-11 -1.208935717e-12)
(0 1.374515464e-11 -1.556215857e-11)
(0 5.067817057e-12 -1.239534403e-11)
(0 9.731262823e-13 -1.05551742e-11)
(0 -1.446600627e-12 -8.55753208e-12)
(0 -3.857331e-12 -8.451247971e-12)
(0 -7.628622973e-12 -7.411678765e-12)
(0 -1.441465089e-11 -5.929092307e-12)
(0 -1.397923496e-11 1.556549891e-11)
(0 -3.344655877e-12 2.49976324e-11)
(0 -1.793517393e-11 8.476072208e-12)
(0 -1.902252856e-11 -5.727046179e-11)
)
;
    }
    procBoundary4to5
    {
        type            processor;
        value           nonuniform List<vector> 
20
(
(0 -3.464406723e-11 5.542448077e-12)
(0 -3.134242107e-12 -1.110257801e-11)
(0 4.150173772e-12 -5.904190663e-12)
(0 2.187682377e-12 -1.686972611e-12)
(0 1.54805086e-12 -5.440124612e-13)
(0 1.549850907e-12 2.846607698e-15)
(0 2.220043252e-12 1.005758514e-12)
(0 4.33494782e-12 4.913169177e-12)
(0 -2.414913901e-12 9.654090056e-12)
(0 -3.235234642e-11 -7.157341946e-12)
(0 5.565319459e-12 -2.290630697e-11)
(0 3.177634019e-11 -4.565403299e-12)
(0 1.320300467e-11 1.629128745e-11)
(0 -1.636824125e-11 1.100264912e-11)
(0 -5.133841282e-12 -6.245433772e-13)
(0 -1.632090401e-12 -1.574697901e-12)
(0 -5.423405866e-13 -1.06084593e-12)
(0 -1.988923602e-13 -5.938458902e-13)
(0 -8.791534684e-14 -2.92756768e-13)
(0 -5.387687467e-14 -8.790866213e-14)
)
;
    }
}


// ************************************************************************* //
