/*--------------------------------*- C++ -*----------------------------------*\
  =========                 |
  \\      /  F ield         | OpenFOAM: The Open Source CFD Toolbox
   \\    /   O peration     | Website:  https://openfoam.org
    \\  /    A nd           | Version:  6
     \\/     M anipulation  |
\*---------------------------------------------------------------------------*/
FoamFile
{
    version     2.0;
    format      ascii;
    class       surfaceScalarField;
    location    "0.0049";
    object      phi;
}
// * * * * * * * * * * * * * * * * * * * * * * * * * * * * * * * * * * * * * //

dimensions      [0 3 -1 0 0 0 0];

internalField   nonuniform List<scalar> 
1150
(
1.788474013e-18
-3.25613913e-21
1.796710057e-18
-9.532830388e-21
1.806238008e-18
-1.504845061e-20
1.815283133e-18
-1.923160843e-20
1.821038126e-18
-2.147932497e-20
1.81997435e-18
-2.115436955e-20
1.807747332e-18
-1.758478527e-20
1.779244966e-18
-1.011205288e-20
1.728726489e-18
1.839112768e-21
1.650098582e-18
1.861109261e-20
1.537422723e-18
4.012030943e-20
1.385682162e-18
6.558558816e-20
1.191767138e-18
9.329773208e-20
9.554121201e-19
1.205617127e-19
6.796532806e-19
1.441827303e-19
3.703390904e-19
1.617322069e-19
3.477307893e-20
1.733324238e-19
-3.190690216e-19
1.820357428e-19
-6.799417188e-19
1.89522655e-19
-1.026536467e-18
1.862252711e-19
-1.3241245e-18
1.494769889e-19
-1.53333958e-18
7.031627242e-20
-1.62223474e-18
-3.850468185e-20
-1.568722737e-18
-1.681276464e-19
-1.359941351e-18
-3.179534278e-19
-1.002993837e-18
-4.785375282e-19
-5.50023068e-19
-5.983816701e-19
-1.366682589e-19
-5.962292932e-19
6.30740361e-20
-4.040679516e-19
8.153307636e-33
1.779780321e-18
-6.810270609e-21
1.789102382e-18
-1.996171515e-20
1.800404016e-18
-3.162679922e-20
1.811926002e-18
-4.068468351e-20
1.820906012e-18
-4.59568539e-20
1.823846738e-18
-4.617549721e-20
1.816383029e-18
-4.000868262e-20
1.793312469e-18
-2.611442881e-20
1.748656399e-18
-3.297701582e-21
1.675905739e-18
2.924608606e-20
1.568470082e-18
7.151762219e-20
1.420525013e-18
1.22172164e-19
1.228198068e-18
1.778823721e-19
9.910025992e-19
2.330061066e-19
7.128157178e-19
2.802480654e-19
4.013851176e-19
3.134259311e-19
6.52643315e-20
3.3236822e-19
-2.903713096e-19
3.463710402e-19
-6.62380921e-19
3.662680181e-19
-1.034932727e-18
3.751515769e-19
-1.36702724e-18
3.117129988e-19
-1.61012898e-18
1.5348403e-19
-1.733097264e-18
-5.8026845e-20
-1.717597954e-18
-3.021550836e-19
-1.541518325e-18
-5.897148793e-19
-1.187356167e-18
-9.241662463e-19
-6.894126193e-19
-1.197231354e-18
-1.9425337e-19
-1.222005215e-18
5.741564608e-20
-8.410401929e-19
8.693853766e-33
1.76448832e-18
-1.093627911e-20
1.775555095e-18
-3.213372326e-20
1.789632514e-18
-5.118577693e-20
1.805027364e-18
-6.647720655e-20
1.81904955e-18
-7.628907841e-20
1.82824982e-18
-7.876888361e-20
1.828276629e-18
-7.193667545e-20
1.813826765e-18
-5.376567847e-20
1.778653891e-18
-2.235116589e-20
1.715684549e-18
2.376105353e-20
1.617392252e-18
8.502920703e-20
1.47659557e-18
1.600293926e-19
1.287942359e-18
2.442341467e-19
1.050117718e-18
3.287693734e-19
7.682422901e-19
4.004537924e-19
4.54209907e-19
4.456850088e-19
1.213793234e-19
4.611203718e-19
-2.27885828e-19
4.675992019e-19
-6.079211754e-19
5.06228946e-19
-1.018128448e-18
5.656783617e-19
-1.403094806e-18
4.976742713e-19
-1.69318526e-18
2.521398295e-19
-1.865596712e-18
-5.038768704e-20
-1.920915825e-18
-3.698694858e-19
-1.827830903e-18
-7.545988686e-19
-1.518184914e-18
-1.286196039e-18
-9.822622287e-19
-1.786617173e-18
-3.742822048e-19
-1.903256093e-18
7.232900186e-21
-1.348896516e-18
9.727076479e-33
1.741172637e-18
-1.58640545e-20
1.754532373e-18
-4.674008405e-20
1.77223487e-18
-7.491136222e-20
1.792684077e-18
-9.83293239e-20
1.813278865e-18
-1.148062496e-19
1.830658182e-18
-1.219619289e-19
1.840517033e-18
-1.172288449e-19
1.837515867e-18
-9.791456676e-20
1.815191511e-18
-6.136301851e-20
1.765931829e-18
-5.256412935e-21
1.681099532e-18
7.180022675e-20
1.551591961e-18
1.691743425e-19
1.36935184e-18
2.822256462e-19
1.130650335e-18
3.993683229e-19
8.412815524e-19
4.994317767e-19
5.208256785e-19
5.541519063e-19
1.966915523e-19
5.461344139e-19
-1.254328573e-19
5.087515574e-19
-4.950799493e-19
5.613632228e-19
-9.539201831e-19
7.517282675e-19
-1.411622982e-18
7.182497114e-19
-1.744917567e-18
3.452218312e-19
-1.959789464e-18
-3.445743213e-20
-2.112786701e-18
-3.528677847e-19
-2.176245024e-18
-7.299622546e-19
-1.981901527e-18
-1.486095917e-18
-1.426203386e-18
-2.341320533e-18
-6.654867435e-19
-2.6587225e-18
-7.757353988e-20
-1.972051294e-18
1.11095793e-32
1.707983292e-18
-2.177618059e-20
1.724035933e-18
-6.43381919e-20
1.745984559e-18
-1.037491107e-19
1.77233799e-18
-1.37610811e-19
1.800597632e-18
-1.633458236e-19
1.827502605e-18
-1.78135725e-19
1.848837704e-18
-1.789140774e-19
1.859317234e-18
-1.624175663e-19
1.85245091e-18
-1.252944135e-19
1.820355499e-18
-6.42972439e-20
1.753501941e-18
2.332114673e-20
1.640581348e-18
1.38839832e-19
1.469290117e-18
2.796888546e-19
1.230054589e-18
4.343466564e-19
9.255277516e-19
5.738280341e-19
5.852774085e-19
6.448353143e-19
2.700701592e-19
5.87809635e-19
1.466738014e-20
4.210457317e-19
-2.930646799e-19
4.351002857e-19
-8.13138236e-19
9.199082066e-19
-1.372561226e-18
9.851000556e-19
-1.709048476e-18
3.74721456e-19
-1.913520311e-18
-6.779880264e-20
-2.163531209e-18
-2.642014817e-19
-2.49056505e-18
-4.113065813e-19
-2.530932874e-18
-1.408589974e-18
-2.004385207e-18
-2.816344037e-18
-1.064312621e-18
-3.476762005e-18
-1.931524599e-19
-2.757885672e-18
1.349778651e-32
1.662758078e-18
-2.880081045e-20
1.681726155e-18
-8.531141109e-20
1.708254047e-18
-1.383445195e-19
1.740950252e-18
-1.852365005e-19
1.777395949e-18
-2.231087918e-19
1.814403079e-18
-2.487949626e-19
1.847829165e-18
-2.588413686e-19
1.87250421e-18
-2.495662027e-19
1.882153037e-18
-2.171475762e-19
1.869185373e-18
-1.576790997e-19
1.824092012e-18
-6.716639306e-20
1.734179956e-18
5.830789776e-20
1.582129913e-18
2.21192912e-19
1.347279072e-18
4.167078748e-19
1.017950196e-18
6.166286914e-19
6.253356437e-19
7.379669365e-19
2.928414727e-19
6.279964919e-19
1.586120884e-19
1.675745749e-19
3.770484377e-20
-2.329424394e-20
-5.625821557e-19
9.242100531e-19
-1.283300563e-18
1.083141421e-18
-1.507212655e-18
3.366023854e-19
-1.59313565e-18
-1.833896573e-19
-1.853081669e-18
-9.158588389e-20
-2.585344593e-18
4.635984908e-20
-3.036013768e-18
-1.007828809e-18
-2.637403655e-18
-3.116112978e-18
-1.556097015e-18
-4.236065002e-18
-3.357449216e-19
-3.721960773e-18
1.761227399e-32
1.603146845e-18
-3.700345337e-20
1.625054484e-18
-1.098530462e-19
1.656180585e-18
-1.790083573e-19
1.695206122e-18
-2.416230053e-19
1.739735922e-18
-2.945913639e-19
1.786551712e-18
-3.344629026e-19
1.831441316e-18
-3.574640919e-19
1.869220387e-18
-3.596289409e-19
1.893879913e-18
-3.369905597e-19
1.898713849e-18
-2.856836077e-19
1.875903749e-18
-2.016448765e-19
1.814453876e-18
-7.947748496e-20
1.695073209e-18
8.942720594e-20
1.482975328e-18
3.16215183e-19
1.131651631e-18
5.978262946e-19
6.322198984e-19
8.480338613e-19
1.865123899e-19
7.775978819e-19
1.734556595e-19
-2.453134613e-19
5.043358121e-19
-7.084495452e-19
-1.636878486e-19
6.523290785e-19
-1.149146833e-18
9.943970999e-19
-9.674189327e-19
-8.557314717e-20
-9.518732764e-19
-2.500541318e-19
-8.81895223e-19
-1.997918846e-19
-2.131289485e-18
6.723365032e-19
-3.124866971e-18
-1.937805819e-19
-3.056091383e-18
-2.932544707e-18
-2.097895923e-18
-4.424202269e-18
-5.07837654e-19
-4.736641411e-18
2.59602753e-32
1.526750664e-18
-4.638774427e-20
1.551417875e-18
-1.379614661e-19
1.586842701e-18
-2.257111661e-19
1.631750131e-18
-3.066858658e-19
1.683694556e-18
-3.776096377e-19
1.739261024e-18
-4.34746096e-19
1.793848405e-18
-4.739351858e-19
1.841749087e-18
-4.908470785e-19
1.876605612e-18
-4.814691382e-19
1.892329096e-18
-4.427048942e-19
1.884136898e-18
-3.726014663e-19
1.848028927e-18
-2.688705989e-19
1.774111498e-18
-1.229898965e-19
1.625706385e-18
9.270224192e-20
1.309449281e-18
4.359940818e-19
6.771074708e-19
9.208275883e-19
-2.185960579e-20
9.771104965e-19
-3.560445437e-19
-1.426726687e-19
5.264780855e-19
-1.46047217e-18
-4.545268867e-33
1.932932438e-19
-1.955296402e-32
1.314250908e-19
-6.422593484e-33
-5.719277036e-20
-1.44150055e-33
-3.641537506e-20
1.196732405e-32
-4.903973489e-20
-5.867068897e-33
1.470497183e-19
-1.621461047e-18
2.11944268e-19
-2.310656287e-18
-1.765788791e-18
-2.698130418e-18
-2.304877133e-18
-7.794463526e-19
-5.020224159e-18
2.647665009e-32
1.43128004e-18
-5.690099503e-20
1.458316916e-18
-1.694492683e-19
1.497425875e-18
-2.780878151e-19
1.547379716e-18
-3.798609814e-19
1.605657657e-18
-4.713856322e-19
1.668506989e-18
-5.485791261e-19
1.730534026e-18
-6.066323169e-19
1.784598214e-18
-6.403412698e-19
1.822278198e-18
-6.449433243e-19
1.835499705e-18
-6.176190541e-19
1.820104981e-18
-5.596010293e-19
1.781281693e-18
-4.778102713e-19
1.735922329e-18
-3.813138059e-19
1.689416789e-18
-2.588194416e-19
1.566322434e-18
-5.523721044e-21
1.032181011e-18
6.309848711e-19
-9.732507382e-20
1.015009736e-18
2.401578947e-33
-5.618461263e-20
-1.383785852e-19
-1.156322596e-19
1.475526313e-21
5.344032835e-20
7.971029041e-20
5.319646254e-20
2.077739529e-20
1.749203768e-21
-1.26243598e-20
-3.001790771e-21
-7.223869839e-20
1.058672454e-20
1.550870523e-21
7.325902751e-20
1.197275608e-19
9.37633521e-20
7.97477888e-33
-1.973577072e-20
-1.872941975e-18
1.311300828e-19
-1.846368623e-18
-3.095312631e-18
-3.030028165e-19
1.314734578e-18
-6.845399865e-20
1.343519416e-18
-2.039632494e-19
1.385346721e-18
-3.354292112e-19
1.439123515e-18
-4.600799007e-19
1.502378271e-18
-5.745824794e-19
1.571103009e-18
-6.744795419e-19
1.638968279e-18
-7.539535569e-19
1.69661396e-18
-8.060128061e-19
1.731226556e-18
-8.23329173e-19
1.727262422e-18
-8.001901882e-19
1.670526472e-18
-7.36438229e-19
1.560242784e-18
-6.446062898e-19
1.43559638e-18
-5.597495699e-19
1.398253286e-18
-5.379212636e-19
1.409115293e-18
-5.276092857e-19
1.145257634e-18
-1.77342104e-19
1.487998575e-19
1.484705137e-19
6.723970586e-20
2.536732701e-20
-3.264967436e-20
-1.574736407e-20
1.231660426e-21
1.955913543e-20
2.826303118e-20
2.616842014e-20
1.60264007e-20
1.399110332e-20
9.641556485e-22
1.206876467e-20
-9.566394863e-21
2.112233495e-20
2.205519545e-20
4.163704402e-20
6.957211561e-20
4.623072862e-20
2.417850151e-20
2.564532684e-20
8.814950328e-20
6.716379315e-20
-3.030028194e-19
1.87563881e-20
-5.600543161e-19
1.175635839e-18
-8.098201552e-20
1.205256757e-18
-2.410420364e-19
1.248354954e-18
-3.966438783e-19
1.304174238e-18
-5.456257218e-19
1.370651069e-18
-6.8509609e-19
1.444032617e-18
-8.104086759e-19
1.517699625e-18
-9.146002726e-19
1.580635093e-18
-9.881850078e-19
1.615239392e-18
-1.019357405e-18
1.594324674e-18
-9.949155171e-19
1.478056543e-18
-9.027048886e-19
1.215097508e-18
-7.380116824e-19
7.660126746e-19
-5.211871249e-19
1.389307407e-19
-3.545205338e-19
-3.94785484e-20
-6.358575963e-19
-5.651395658e-20
7.031600628e-33
2.569667332e-20
6.625697602e-20
2.612501432e-20
2.493487711e-20
2.656825208e-21
7.717741346e-21
7.840945006e-21
1.437479036e-20
1.60857141e-20
1.792531851e-20
1.410406186e-20
1.597542356e-20
1.001772578e-20
1.615964017e-20
1.094831407e-20
2.019691011e-20
2.664887973e-20
2.593252171e-20
4.898671298e-20
2.388412526e-20
6.569696689e-20
8.935101514e-21
1.521343381e-19
-1.927977026e-20
3.181864348e-19
-1.473030118e-19
1.31989167e-19
1.013373346e-18
-9.464108866e-20
1.042524481e-18
-2.802811862e-19
1.084697968e-18
-4.602029984e-19
1.139803417e-18
-6.338297733e-19
1.206731868e-18
-7.994754072e-19
1.282886182e-18
-9.528226659e-19
1.362943212e-18
-1.086172803e-18
1.437131346e-18
-1.18791958e-18
1.488311956e-18
-1.242092688e-18
1.486503135e-18
-1.227874749e-18
1.378135287e-18
-1.118788872e-18
1.065815515e-18
-8.808637578e-19
4.037102424e-19
-4.698817693e-19
-4.670264996e-19
1.404820948e-19
-1.385200117e-18
4.758476092e-19
-1.169443376e-19
-1.407604038e-19
-1.562542535e-20
-3.506366263e-20
8.907878921e-21
3.980233053e-22
9.313874301e-21
7.309314899e-21
1.139147326e-20
1.229674857e-20
1.413581939e-20
1.51815594e-20
1.42882787e-20
1.58234122e-20
1.405499585e-20
1.639375419e-20
1.668392584e-20
1.756926085e-20
2.460048372e-20
1.801469314e-20
3.40376899e-20
1.444090171e-20
3.748209606e-20
5.487667347e-21
2.411109829e-20
-5.91328052e-21
-1.149136023e-19
-8.288360752e-21
3.143984033e-20
8.287863584e-19
-1.104214098e-19
8.555769446e-19
-3.217559439e-19
8.934822572e-19
-5.241219631e-19
9.435560975e-19
-7.207098281e-19
1.006149948e-18
-9.121462684e-19
1.080573094e-18
-1.095121482e-18
1.164279752e-18
-1.261964978e-18
1.251989868e-18
-1.400227873e-18
1.334726262e-18
-1.49229148e-18
1.399141358e-18
-1.515408112e-18
1.42821807e-18
-1.442747039e-18
1.402323144e-18
-1.245767776e-18
1.192594868e-18
-8.96326052e-19
7.100669897e-19
-3.559430343e-19
1.909114274e-19
-2.782114094e-33
5.209608187e-20
-1.946383795e-21
1.983626096e-20
-2.807309288e-21
1.581917058e-20
4.410810918e-21
1.430130804e-20
8.823826703e-21
1.42762841e-20
1.231995409e-20
1.477767219e-20
1.467887792e-20
1.485862072e-20
1.574081788e-20
1.52305025e-20
1.602043557e-20
1.712935814e-20
1.566996301e-20
2.102669227e-20
1.41162728e-20
2.508445542e-20
1.038080733e-20
2.608114809e-20
4.488678614e-21
2.173601802e-20
-1.573044662e-21
1.74068248e-20
-3.964527442e-21
-2.015772116e-21
6.252338228e-19
-1.321849773e-19
6.466205468e-19
-3.668611245e-19
6.75232598e-19
-5.85951353e-19
7.139940714e-19
-8.007215015e-19
7.648290911e-19
-1.014994816e-18
8.288789683e-19
-1.226756077e-18
9.06168191e-19
-1.428828907e-18
9.951256319e-19
-1.608682288e-18
1.092036206e-18
-1.74803556e-18
1.191225994e-18
-1.823320304e-18
1.288297865e-18
-1.809089169e-18
1.383514174e-18
-1.688296513e-18
1.274391926e-18
-1.475599307e-18
1.020380498e-18
-1.223725705e-18
1.256213636e-19
-1.605408132e-32
5.12351556e-20
7.243630854e-20
2.705438078e-20
2.136779545e-20
2.023218606e-20
1.122659829e-20
1.779743518e-20
1.125287888e-20
1.663520767e-20
1.347757616e-20
1.583961191e-20
1.547037225e-20
1.513823822e-20
1.643817527e-20
1.488002969e-20
1.62757472e-20
1.55756677e-20
1.497394234e-20
1.729122655e-20
1.24020591e-20
1.919232639e-20
8.480913581e-21
2.001942451e-20
3.662507617e-21
1.934453494e-20
-8.992453333e-22
1.935557985e-20
-3.97962565e-21
-6.385159808e-21
4.10883383e-19
-1.716362785e-19
4.202392328e-19
-4.184934869e-19
4.321912186e-19
-6.42311721e-19
4.516902344e-19
-8.667058218e-19
4.814211869e-19
-1.097757223e-18
5.235036702e-19
-1.334095154e-18
5.795567925e-19
-1.568998565e-18
6.497616758e-19
-1.789958606e-18
7.301511616e-19
-1.977135492e-18
8.063942768e-19
-2.10124083e-18
8.412628129e-19
-2.121266526e-18
7.577447582e-19
-1.982970968e-18
5.47432005e-19
-1.62041822e-18
-7.660157045e-20
-9.674130222e-19
-7.027048021e-20
2.100156315e-33
1.666431611e-22
1.993984327e-21
1.691318398e-20
4.613189446e-21
2.025846696e-20
7.872153656e-21
2.002213275e-20
1.148094133e-20
1.862800399e-20
1.486456361e-20
1.680741517e-20
1.728434184e-20
1.49758104e-20
1.826436755e-20
1.357822502e-20
1.767108018e-20
1.300378469e-20
1.555006891e-20
1.33700813e-20
1.204033902e-20
1.437392069e-20
7.482977992e-21
1.545767185e-20
2.582903405e-21
1.62641549e-20
-1.703936371e-21
1.695004598e-20
-4.66568668e-21
-6.051745428e-21
2.036860889e-19
-2.902877674e-19
1.812219461e-19
-4.835384943e-19
1.672481846e-19
-6.885134767e-19
1.595981982e-19
-9.102887725e-19
1.588537956e-19
-1.149140045e-18
1.669011006e-19
-1.402270778e-18
1.868172705e-19
-1.663297268e-18
2.22178767e-19
-1.920584699e-18
2.749587423e-19
-2.154378838e-18
3.401056293e-19
-2.332080918e-18
3.935617537e-19
-2.400024588e-18
3.745904005e-19
-2.26884317e-18
2.851667195e-19
-1.789144442e-18
-1.62631424e-19
-7.533538842e-19
-6.827649556e-20
1.965729325e-32
2.785848291e-21
-6.907438349e-20
2.017214811e-20
-1.278168249e-20
2.386725456e-20
4.168171619e-21
2.340575498e-20
1.193229921e-20
2.104778212e-20
1.721260138e-20
1.778744081e-20
2.053629159e-20
1.438252299e-20
2.166382988e-20
1.145721366e-20
2.059619194e-20
9.494054728e-21
1.75181647e-20
8.812720208e-21
1.272922611e-20
9.47384601e-21
6.827929764e-21
1.117083199e-20
8.93210276e-22
1.33024045e-20
-3.830481732e-21
1.556398716e-20
-6.926920566e-21
-7.030071663e-21
-4.329671543e-20
-4.197174721e-19
-8.331609752e-20
-5.388208e-19
-1.19814293e-19
-7.130567048e-19
-1.569957245e-19
-9.220421494e-19
-1.951413151e-19
-1.158227767e-18
-2.324141468e-19
-1.416900818e-18
-2.643431942e-19
-1.692400817e-18
-2.829794589e-19
-1.975486606e-18
-2.754643806e-19
-2.250374592e-18
-2.213582275e-19
-2.490562e-18
-8.711506597e-20
-2.652555677e-18
1.770171777e-19
-2.666660074e-18
4.096437098e-19
-2.424979346e-18
7.203349275e-19
-1.773669265e-18
1.30977274e-19
6.68214399e-33
5.907854922e-20
2.819809753e-21
3.712200218e-20
9.168675889e-21
3.163138209e-20
9.64755288e-21
2.868605714e-20
1.486701335e-20
2.437147226e-20
2.151694029e-20
1.891497907e-20
2.598376968e-20
1.331488505e-20
2.725989764e-20
8.379186382e-21
2.553410296e-20
4.705116138e-21
2.119901292e-20
2.911423866e-21
1.453036318e-20
3.539126507e-21
6.21215023e-21
6.44713998e-21
-2.008128683e-21
1.020596564e-20
-7.58292989e-21
1.546083605e-20
-1.217314979e-20
-1.556745517e-20
-3.322090997e-19
-4.659836247e-19
-3.679631443e-19
-5.555951165e-19
-4.196309258e-19
-7.042797794e-19
-4.85835029e-19
-8.942387022e-19
-5.65846673e-19
-1.116664899e-18
-6.580001172e-19
-1.366469458e-18
-7.581886111e-19
-1.639114385e-18
-8.581881419e-19
-1.928184114e-18
-9.43349075e-19
-2.222960908e-18
-9.891889471e-19
-2.505407655e-18
-9.562456486e-19
-2.746179769e-18
-7.846326596e-19
-2.898782997e-18
-4.946593233e-19
-2.888250726e-18
1.953550835e-20
-2.554287781e-18
1.97140762e-19
-1.122921e-18
6.542741545e-20
1.345310693e-19
3.760087922e-20
3.699030711e-20
3.685084261e-20
1.03940016e-20
3.533598415e-20
1.63660318e-20
2.883830166e-20
2.799926689e-20
2.019110705e-20
3.462127689e-20
1.158909043e-20
3.586035008e-20
4.044096321e-21
3.308500753e-20
-1.963533589e-21
2.721495665e-20
-5.406789073e-21
1.798228138e-20
-4.681152411e-21
5.484944535e-21
8.723387876e-22
-7.542474681e-21
5.615745734e-21
-1.231002566e-20
1.206653072e-20
-1.863806727e-20
-5.667093426e-20
-6.012941586e-19
-4.634819775e-19
-6.427522959e-19
-5.347331633e-19
-7.113007424e-19
-6.593388346e-19
-8.071607631e-19
-8.241497458e-19
-9.308986134e-19
-1.021247768e-18
-1.082662766e-18
-1.245864004e-18
-1.260924789e-18
-1.494288013e-18
-1.461188472e-18
-1.761976087e-18
-1.674841924e-18
-2.041344125e-18
-1.889316458e-18
-2.318624879e-18
-2.091987486e-18
-2.568250761e-18
-2.282198008e-18
-2.741284771e-18
-2.473484995e-18
-2.738496104e-18
-2.421731073e-18
-2.339660084e-18
-1.915855231e-18
-9.891228365e-19
-9.545702465e-20
-3.617273684e-33
1.100457365e-20
-6.946889869e-20
4.282287282e-20
-2.145260642e-20
4.696921929e-20
1.219201831e-20
3.546031161e-20
3.948639032e-20
2.143018025e-20
4.864079673e-20
8.813747921e-21
4.847672987e-20
-1.825954614e-21
4.373062217e-20
-1.119620886e-20
3.65884469e-20
-1.790412592e-20
2.468408219e-20
-1.770857164e-20
5.330537551e-21
-3.89521219e-21
-2.131820231e-20
-7.122959081e-22
-1.549529629e-20
-1.185585598e-19
9.922657392e-20
-1.690416403e-19
-8.411284003e-19
-8.908410942e-19
-9.761675553e-19
-1.099617885e-18
-1.263971593e-18
-1.471933201e-18
-1.725185857e-18
-2.022992791e-18
-2.360390705e-18
-2.72551024e-18
-3.094466095e-18
-3.417773971e-18
-3.576876505e-18
-3.298908337e-18
-1.474622903e-18
-3.823856705e-20
5.902086589e-20
7.646749741e-20
7.426359125e-20
4.46147179e-20
2.126611335e-20
4.067640282e-21
-8.968129941e-21
-2.310057352e-20
-3.725767049e-20
-4.435731145e-20
1.927693822e-21
1.140095743e-19
3.25565439e-19
)
;

boundaryField
{
    lowerWall
    {
        type            calculated;
        value           nonuniform 0();
    }
    atmosphere
    {
        type            calculated;
        value           nonuniform List<scalar> 
20
(
-1.785045382e-18
-1.775964976e-18
-1.760048348e-18
-1.73590986e-18
-1.70174989e-18
-1.655470876e-18
-1.594792913e-18
-1.517390773e-18
-1.421050007e-18
-1.303849757e-18
-1.164398609e-18
-1.002180465e-18
-8.181510431e-19
-6.160273393e-19
-4.060923875e-19
-2.176190774e-19
2.15142744e-20
3.18647251e-19
5.874881843e-19
8.250624073e-19
)
;
    }
    rightWall
    {
        type            empty;
        value           nonuniform 0();
    }
    leftWall
    {
        type            empty;
        value           nonuniform 0();
    }
    frontAndBack
    {
        type            calculated;
        value           uniform 0;
    }
    procBoundary0to1
    {
        type            processor;
        value           nonuniform List<scalar> 
20
(
1.572273024e-20
1.628657234e-20
1.751419826e-20
1.964733452e-20
2.318705614e-20
2.91927901e-20
4.009427081e-20
6.209794462e-20
1.130856433e-19
-4.595162154e-20
-3.738692394e-19
-1.436920892e-20
5.08545697e-20
2.37209859e-20
1.661102361e-20
1.654219686e-20
2.399370548e-20
5.317866365e-20
-6.207150958e-21
-3.522362841e-19
)
;
    }
    procBoundary0to2
    {
        type            processor;
        value           nonuniform List<scalar> 
30
(
-4.252049998e-19
-4.812056972e-19
-5.809775904e-19
-7.147053615e-19
-8.756428028e-19
-1.059253988e-18
-1.262052892e-18
-1.480217926e-18
-1.707835141e-18
-1.934042848e-18
-2.137965492e-18
-2.27941357e-18
-2.284100113e-18
-2.03173476e-18
-1.437866075e-18
-4.558161588e-19
-1.667459026e-19
-3.892081507e-20
1.436419971e-20
6.910792615e-20
7.198297533e-20
6.568214801e-20
5.677554234e-20
5.072289415e-20
3.887277421e-20
1.247551138e-20
-6.755538816e-20
-1.275548129e-19
-1.123400826e-19
5.088032848e-19
)
;
    }
}


// ************************************************************************* //
