/*--------------------------------*- C++ -*----------------------------------*\
  =========                 |
  \\      /  F ield         | OpenFOAM: The Open Source CFD Toolbox
   \\    /   O peration     | Website:  https://openfoam.org
    \\  /    A nd           | Version:  6
     \\/     M anipulation  |
\*---------------------------------------------------------------------------*/
FoamFile
{
    version     2.0;
    format      ascii;
    class       volScalarField;
    location    "0.0037";
    object      TRHS;
}
// * * * * * * * * * * * * * * * * * * * * * * * * * * * * * * * * * * * * * //

dimensions      [1 -1 -3 0 0 0 0];

internalField   nonuniform List<scalar> 
9600
(
3.235837658e-09
6.867130702e-09
6.751642597e-09
6.872973383e-09
6.788428987e-09
6.705178444e-09
6.619580928e-09
6.53160185e-09
6.439039013e-09
6.343914046e-09
6.245322209e-09
6.146077584e-09
6.045529008e-09
5.946393789e-09
5.847541092e-09
5.751079489e-09
5.655193474e-09
5.561575481e-09
5.46813127e-09
5.376542731e-09
5.284535469e-09
5.193481731e-09
5.10044312e-09
5.00617236e-09
4.907302769e-09
4.804763932e-09
4.695732805e-09
4.581913993e-09
4.460801379e-09
4.333928984e-09
4.197961193e-09
4.053654913e-09
3.897221375e-09
3.729781714e-09
3.548320431e-09
3.354890686e-09
3.146781949e-09
2.925778056e-09
2.688264465e-09
2.435250564e-09
2.16271243e-09
1.872202583e-09
1.560854356e-09
1.232055595e-09
8.847318965e-10
5.240067813e-10
1.498621195e-10
-2.320405261e-10
-6.220735748e-10
-1.015285753e-09
-1.413105107e-09
-1.811084154e-09
-2.210597629e-09
-2.606093981e-09
-2.99768684e-09
-3.378804521e-09
-3.750075854e-09
-4.106800731e-09
-4.452778345e-09
-4.786045067e-09
-5.112017509e-09
-5.428219884e-09
-5.738670686e-09
-6.039487947e-09
-6.335187587e-09
-6.624010837e-09
-6.913833328e-09
-7.205188812e-09
-7.506444792e-09
-7.816166381e-09
-8.140281925e-09
-8.475911705e-09
-8.830713895e-09
-9.206431495e-09
-9.617619349e-09
-1.007288784e-08
-1.059274921e-08
-1.119021525e-08
-1.189021773e-08
-1.271165252e-08
-1.368876833e-08
-1.485358813e-08
-1.625695905e-08
-1.794913772e-08
-1.999899841e-08
-2.247282417e-08
-2.545287415e-08
-2.901669681e-08
-3.325702625e-08
-3.826272771e-08
-4.413933949e-08
-5.098993324e-08
-5.893407045e-08
-6.808755137e-08
-7.857998215e-08
-9.053486989e-08
-1.040870302e-07
-1.193634617e-07
-1.364999217e-07
-1.556221033e-07
-1.768617085e-07
-2.003401012e-07
-2.261850928e-07
-2.545157747e-07
-2.854542248e-07
-3.19104465e-07
-3.555573134e-07
-3.948714516e-07
-4.37086242e-07
-4.822133409e-07
-5.302501839e-07
-5.811695501e-07
-6.349228334e-07
-6.914265426e-07
-7.50527064e-07
-8.119588255e-07
-8.756674787e-07
-9.442969628e-07
-1.058136416e-06
-5.779372001e-07
3.178972515e-09
6.757246084e-09
6.754792591e-09
6.861589294e-09
6.787588229e-09
6.706028611e-09
6.624848127e-09
6.53698602e-09
6.448417712e-09
6.353274081e-09
6.258839415e-09
6.159735463e-09
6.06364133e-09
5.964870898e-09
5.870815326e-09
5.774976742e-09
5.684306636e-09
5.591668001e-09
5.503992386e-09
5.413816759e-09
5.328084843e-09
5.238735054e-09
5.152294486e-09
5.059885986e-09
4.967928004e-09
4.867470935e-09
4.765695492e-09
4.653996729e-09
4.540009643e-09
4.414545244e-09
4.284752263e-09
4.140465143e-09
3.988769758e-09
3.81955947e-09
3.640880058e-09
3.442949314e-09
3.234235934e-09
3.0042254e-09
2.760885988e-09
2.492760832e-09
2.208053917e-09
1.895621877e-09
1.565288185e-09
1.207208026e-09
8.332478829e-10
4.346895799e-10
2.48428208e-11
-4.047936781e-10
-8.40468672e-10
-1.291386508e-09
-1.743785466e-09
-2.207350741e-09
-2.667315555e-09
-3.132560942e-09
-3.586430291e-09
-4.037343261e-09
-4.468537256e-09
-4.890672181e-09
-5.28915551e-09
-5.677489585e-09
-6.041716337e-09
-6.395373521e-09
-6.722869523e-09
-7.037634729e-09
-7.324813723e-09
-7.601280745e-09
-7.855511281e-09
-8.107664681e-09
-8.346713198e-09
-8.592178587e-09
-8.831233755e-09
-9.08360508e-09
-9.338753881e-09
-9.621822424e-09
-9.928599063e-09
-1.02906642e-08
-1.070860502e-08
-1.121789888e-08
-1.18230382e-08
-1.256533554e-08
-1.345836451e-08
-1.455590575e-08
-1.588700567e-08
-1.752192805e-08
-1.9506292e-08
-2.192495592e-08
-2.483694552e-08
-2.833859498e-08
-3.250115718e-08
-3.743333514e-08
-4.322126333e-08
-4.998832844e-08
-5.78362876e-08
-6.690119187e-08
-7.729644396e-08
-8.916571822e-08
-1.026292909e-07
-1.178337216e-07
-1.349012163e-07
-1.539751228e-07
-1.751737513e-07
-1.986335463e-07
-2.244692884e-07
-2.528131171e-07
-2.837750288e-07
-3.174701866e-07
-3.539778242e-07
-3.933655426e-07
-4.356628796e-07
-4.808902745e-07
-5.29039302e-07
-5.800917044e-07
-6.340029926e-07
-6.907031828e-07
-7.500747737e-07
-8.118963064e-07
-8.763540522e-07
-9.461660477e-07
-1.066483511e-06
-5.845625118e-07
3.167279684e-09
6.732136987e-09
6.729584047e-09
6.848645776e-09
6.778853011e-09
6.703754487e-09
6.623024842e-09
6.539626761e-09
6.450441058e-09
6.359413636e-09
6.264148394e-09
6.169192058e-09
6.07224082e-09
5.977722398e-09
5.882773487e-09
5.791311091e-09
5.699790277e-09
5.611799265e-09
5.52344025e-09
5.438197707e-09
5.35178864e-09
5.267342653e-09
5.179892799e-09
5.092176289e-09
4.99890337e-09
4.903083851e-09
4.799710209e-09
4.692239021e-09
4.575546565e-09
4.452794374e-09
4.318071274e-09
4.174159738e-09
4.014887512e-09
3.843439988e-09
3.653952836e-09
3.449980276e-09
3.22532314e-09
2.983140617e-09
2.71650541e-09
2.428495041e-09
2.112364446e-09
1.77227698e-09
1.40261607e-09
1.009146814e-09
5.87421334e-10
1.445890073e-10
-3.229864357e-10
-8.071827907e-10
-1.311256854e-09
-1.826492768e-09
-2.355968978e-09
-2.890163777e-09
-3.43139951e-09
-3.968621312e-09
-4.503102447e-09
-5.022890484e-09
-5.52990192e-09
-6.013435376e-09
-6.477657032e-09
-6.913265496e-09
-7.325280247e-09
-7.703796108e-09
-8.053549051e-09
-8.364878205e-09
-8.644946257e-09
-8.887559214e-09
-9.104157954e-09
-9.291385942e-09
-9.462180827e-09
-9.612926971e-09
-9.75663603e-09
-9.890892099e-09
-1.003240793e-08
-1.018396108e-08
-1.036818567e-08
-1.059279119e-08
-1.088429397e-08
-1.125360749e-08
-1.173142536e-08
-1.233510428e-08
-1.310478885e-08
-1.407014711e-08
-1.528538274e-08
-1.679505323e-08
-1.866778925e-08
-2.096211446e-08
-2.375966972e-08
-2.713225061e-08
-3.117487225e-08
-3.597416144e-08
-4.164038885e-08
-4.827627712e-08
-5.600685793e-08
-6.494869488e-08
-7.523781991e-08
-8.700035927e-08
-1.003788362e-07
-1.155041066e-07
-1.325190996e-07
-1.51552244e-07
-1.727398521e-07
-1.962038991e-07
-2.220747349e-07
-2.504712137e-07
-2.815170142e-07
-3.153152514e-07
-3.51956369e-07
-3.914970551e-07
-4.339764432e-07
-4.794081354e-07
-5.277945919e-07
-5.791182045e-07
-6.333499888e-07
-6.904398296e-07
-7.503048585e-07
-8.128111087e-07
-8.782324657e-07
-9.495496359e-07
-1.072456982e-06
-5.885558618e-07
3.158980922e-09
6.711926639e-09
6.712448088e-09
6.834268587e-09
6.770085416e-09
6.69709529e-09
6.620335916e-09
6.537613832e-09
6.451595105e-09
6.360727995e-09
6.268419955e-09
6.173474393e-09
6.079424255e-09
5.984774344e-09
5.892640656e-09
5.800904582e-09
5.712222041e-09
5.623988326e-09
5.53859782e-09
5.453076262e-09
5.369481539e-09
5.284271963e-09
5.199086441e-09
5.109931896e-09
5.018435444e-09
4.920655319e-09
4.818477801e-09
4.707921042e-09
4.590702202e-09
4.462281767e-09
4.324006169e-09
4.170969807e-09
4.004632395e-09
3.820187822e-09
3.619239485e-09
3.396654019e-09
3.153647302e-09
2.884440108e-09
2.590108212e-09
2.265079405e-09
1.911373112e-09
1.524470173e-09
1.107745545e-09
6.576437972e-10
1.786145314e-10
-3.321174206e-10
-8.689693426e-10
-1.433675747e-09
-2.019241076e-09
-2.626238622e-09
-3.246263398e-09
-3.878778771e-09
-4.513936241e-09
-5.150091336e-09
-5.776240607e-09
-6.390462451e-09
-6.981916724e-09
-7.54980114e-09
-8.084240982e-09
-8.585379291e-09
-9.04338535e-09
-9.458532088e-09
-9.821326006e-09
-1.013398477e-08
-1.039017577e-08
-1.059657586e-08
-1.075093826e-08
-1.086327211e-08
-1.093304687e-08
-1.097155772e-08
-1.09797645e-08
-1.097206735e-08
-1.095384126e-08
-1.094477885e-08
-1.095494326e-08
-1.10076833e-08
-1.111574854e-08
-1.13055573e-08
-1.159458885e-08
-1.201660753e-08
-1.25990222e-08
-1.3387217e-08
-1.442113315e-08
-1.575872961e-08
-1.745280301e-08
-1.957437591e-08
-2.219031145e-08
-2.538637483e-08
-2.924531908e-08
-3.38689696e-08
-3.935658123e-08
-4.582566308e-08
-5.339063143e-08
-6.218237006e-08
-7.232766073e-08
-8.396737041e-08
-9.723655739e-08
-1.122804962e-07
-1.292351325e-07
-1.482413782e-07
-1.694280625e-07
-1.929274809e-07
-2.188625584e-07
-2.473611199e-07
-2.785400142e-07
-3.12509793e-07
-3.493542391e-07
-3.89135824e-07
-4.318887588e-07
-4.776335926e-07
-5.263729083e-07
-5.780996456e-07
-6.327946952e-07
-6.904269668e-07
-7.509514283e-07
-8.142547865e-07
-8.807318436e-07
-9.532333397e-07
-1.078017612e-06
-5.918429042e-07
3.153503347e-09
6.699685218e-09
6.698038415e-09
6.822014638e-09
6.75943992e-09
6.689652396e-09
6.614104244e-09
6.534000231e-09
6.44865509e-09
6.360061179e-09
6.268163108e-09
6.175314864e-09
6.081454834e-09
5.988697945e-09
5.896482202e-09
5.806447165e-09
5.717516379e-09
5.630929543e-09
5.54519421e-09
5.461125636e-09
5.376678844e-09
5.292210656e-09
5.205239796e-09
5.115947577e-09
5.021812618e-09
4.923087872e-09
4.817124109e-09
4.703917561e-09
4.580326655e-09
4.445941132e-09
4.297304318e-09
4.134052903e-09
3.952778295e-09
3.753105774e-09
3.531219416e-09
3.286117258e-09
3.013197537e-09
2.711117783e-09
2.375455538e-09
2.005794665e-09
1.598945516e-09
1.155853546e-09
6.742966074e-10
1.559833e-10
-4.008138506e-10
-9.935600537e-10
-1.622815357e-09
-2.284222716e-09
-2.97626492e-09
-3.69226007e-09
-4.428640883e-09
-5.176829975e-09
-5.931826077e-09
-6.683810982e-09
-7.427056789e-09
-8.151263339e-09
-8.850735555e-09
-9.515220368e-09
-1.013918865e-08
-1.07122729e-08
-1.122908861e-08
-1.167986326e-08
-1.206112353e-08
-1.236626733e-08
-1.259628522e-08
-1.274927975e-08
-1.283065576e-08
-1.284186472e-08
-1.279109354e-08
-1.268247722e-08
-1.252784934e-08
-1.233601028e-08
-1.212414678e-08
-1.190587158e-08
-1.17019675e-08
-1.152828309e-08
-1.140761193e-08
-1.13590189e-08
-1.141089825e-08
-1.159044975e-08
-1.193589013e-08
-1.248487327e-08
-1.328591598e-08
-1.438716171e-08
-1.584851733e-08
-1.77314956e-08
-2.011140577e-08
-2.306695323e-08
-2.669111883e-08
-3.108015776e-08
-3.634355206e-08
-4.259329381e-08
-4.995365169e-08
-5.855097808e-08
-6.852279258e-08
-8.000739537e-08
-9.31511892e-08
-1.080975364e-07
-1.249923771e-07
-1.439737362e-07
-1.651782456e-07
-1.88734483e-07
-2.147717632e-07
-2.434141482e-07
-2.747837083e-07
-3.089870091e-07
-3.461114821e-07
-3.862157642e-07
-4.293376281e-07
-4.754967906e-07
-5.247023184e-07
-5.769518911e-07
-6.322369441e-07
-6.905417188e-07
-7.518302485e-07
-8.160361876e-07
-8.834873438e-07
-9.572286051e-07
-1.083309633e-06
-5.949956369e-07
3.149201738e-09
6.688667411e-09
6.685999837e-09
6.809664914e-09
6.748684342e-09
6.679967127e-09
6.606317339e-09
6.527163532e-09
6.443481517e-09
6.355589228e-09
6.265145041e-09
6.172773432e-09
6.080092668e-09
5.987471157e-09
5.896112064e-09
5.805881729e-09
5.717568073e-09
5.63057428e-09
5.545189184e-09
5.460228865e-09
5.375407876e-09
5.289034528e-09
5.200563449e-09
5.108227743e-09
5.011488577e-09
4.90843004e-09
4.798173331e-09
4.678186694e-09
4.547008214e-09
4.401718126e-09
4.240825749e-09
4.061531033e-09
3.862394439e-09
3.6402423e-09
3.392836902e-09
3.115956377e-09
2.806590279e-09
2.460395971e-09
2.075121116e-09
1.647780154e-09
1.177705728e-09
6.631315154e-10
1.041416274e-10
-5.007397425e-10
-1.15104491e-09
-1.847397714e-09
-2.587587428e-09
-3.369724747e-09
-4.188508379e-09
-5.038953953e-09
-5.91293405e-09
-6.803238408e-09
-7.700031582e-09
-8.594930139e-09
-9.477169718e-09
-1.033764466e-08
-1.116476121e-08
-1.194852972e-08
-1.267638876e-08
-1.333779612e-08
-1.392046019e-08
-1.44155871e-08
-1.481416725e-08
-1.511208515e-08
-1.530558543e-08
-1.539575349e-08
-1.538334287e-08
-1.527347664e-08
-1.507087034e-08
-1.478538832e-08
-1.442745838e-08
-1.401333757e-08
-1.355938351e-08
-1.308627492e-08
-1.261283853e-08
-1.216108101e-08
-1.175155501e-08
-1.1410001e-08
-1.116330073e-08
-1.104546707e-08
-1.109228664e-08
-1.134614156e-08
-1.185072417e-08
-1.265697783e-08
-1.381956749e-08
-1.540379605e-08
-1.748195843e-08
-2.013869655e-08
-2.346568053e-08
-2.756553203e-08
-3.254641041e-08
-3.852645157e-08
-4.562932953e-08
-5.398883885e-08
-6.37441141e-08
-7.504247471e-08
-8.803300249e-08
-1.028674697e-07
-1.196932892e-07
-1.386546627e-07
-1.598881147e-07
-1.835267036e-07
-2.096988508e-07
-2.385319245e-07
-2.701462698e-07
-3.04650209e-07
-3.421285675e-07
-3.826409201e-07
-4.262235629e-07
-4.728989396e-07
-5.226782332e-07
-5.755647677e-07
-6.315567956e-07
-6.906432777e-07
-7.52807467e-07
-8.179523837e-07
-8.864922103e-07
-9.612176391e-07
-1.088785072e-06
-5.982495768e-07
3.144588896e-09
6.677975532e-09
6.673881362e-09
6.797295136e-09
6.736645598e-09
6.668995982e-09
6.596125737e-09
6.518154746e-09
6.435189461e-09
6.348348235e-09
6.258436802e-09
6.166848761e-09
6.074372871e-09
5.982144158e-09
5.890550374e-09
5.800338027e-09
5.711427228e-09
5.624086716e-09
5.53761563e-09
5.451595485e-09
5.364690072e-09
5.276053838e-09
5.184192606e-09
5.088235328e-09
4.986634719e-09
4.878215623e-09
4.760732073e-09
4.632229496e-09
4.489795308e-09
4.331218096e-09
4.153664871e-09
3.955079988e-09
3.732466088e-09
3.483036165e-09
3.202588502e-09
2.887125444e-09
2.531782246e-09
2.1328694e-09
1.68671102e-09
1.191331659e-09
6.446213813e-10
4.561568255e-11
-6.074604662e-10
-1.315457202e-09
-2.07973127e-09
-2.899769767e-09
-3.774477518e-09
-4.699924488e-09
-5.671155682e-09
-6.680447509e-09
-7.719570863e-09
-8.778182285e-09
-9.846082904e-09
-1.0911345e-08
-1.196235323e-08
-1.298560136e-08
-1.396764315e-08
-1.48929248e-08
-1.574625932e-08
-1.651129003e-08
-1.717374715e-08
-1.772018964e-08
-1.814111271e-08
-1.842888436e-08
-1.858004058e-08
-1.859250659e-08
-1.84679269e-08
-1.820927715e-08
-1.782404719e-08
-1.732223673e-08
-1.67193763e-08
-1.603343043e-08
-1.528641981e-08
-1.45003404e-08
-1.369897559e-08
-1.290523299e-08
-1.214486052e-08
-1.144505945e-08
-1.08380918e-08
-1.035859499e-08
-1.004562505e-08
-9.939420181e-09
-1.008442581e-08
-1.052827416e-08
-1.132685659e-08
-1.254410325e-08
-1.425585205e-08
-1.654728547e-08
-1.951440864e-08
-2.326046824e-08
-2.789782622e-08
-3.354589294e-08
-4.033417826e-08
-4.840043022e-08
-5.789213483e-08
-6.896243786e-08
-8.176897873e-08
-9.64682923e-08
-1.132141907e-07
-1.321535231e-07
-1.534271468e-07
-1.771693557e-07
-2.035113607e-07
-2.32580278e-07
-2.644972894e-07
-2.993687197e-07
-3.372786807e-07
-3.782844787e-07
-4.224223696e-07
-4.697147138e-07
-5.20175047e-07
-5.738096031e-07
-6.306194889e-07
-6.906010276e-07
-7.537257868e-07
-8.199326593e-07
-8.895174244e-07
-9.65555144e-07
-1.094437313e-06
-6.017154621e-07
3.139657612e-09
6.666285521e-09
6.661168627e-09
6.78382748e-09
6.723415274e-09
6.656127461e-09
6.583944377e-09
6.506525083e-09
6.424282293e-09
6.337902031e-09
6.248521418e-09
6.157105415e-09
6.064776707e-09
5.972260732e-09
5.88034098e-09
5.789370045e-09
5.699680919e-09
5.61104352e-09
5.523084605e-09
5.434811926e-09
5.345218857e-09
5.252955148e-09
5.156906223e-09
5.055738197e-09
4.948132462e-09
4.832161966e-09
4.705648213e-09
4.565719225e-09
4.409566157e-09
4.234140353e-09
4.036748373e-09
3.814340615e-09
3.563722893e-09
3.280732e-09
2.960721466e-09
2.598345246e-09
2.188610444e-09
1.726882822e-09
1.209711354e-09
6.342054468e-10
-1.762811926e-12
-7.005149497e-10
-1.464108577e-09
-2.294754794e-09
-3.193602554e-09
-4.160729219e-09
-5.193904458e-09
-6.288989018e-09
-7.439279705e-09
-8.636445489e-09
-9.870138907e-09
-1.112898729e-08
-1.240003566e-08
-1.366950364e-08
-1.492195457e-08
-1.614083488e-08
-1.730762143e-08
-1.8402716e-08
-1.940529116e-08
-2.029511579e-08
-2.105304693e-08
-2.166297035e-08
-2.211165149e-08
-2.238972551e-08
-2.2490616e-08
-2.24112331e-08
-2.215115991e-08
-2.171417626e-08
-2.110809969e-08
-2.034644949e-08
-1.944747384e-08
-1.843424738e-08
-1.73321266e-08
-1.616813124e-08
-1.496922343e-08
-1.376351393e-08
-1.258047408e-08
-1.145278051e-08
-1.041567248e-08
-9.507080166e-09
-8.765779879e-09
-8.231941093e-09
-7.947488033e-09
-7.95958434e-09
-8.323000962e-09
-9.103534594e-09
-1.037806961e-08
-1.223482381e-08
-1.477105201e-08
-1.809291772e-08
-2.231465709e-08
-2.756051179e-08
-3.396512319e-08
-4.167464227e-08
-5.084470955e-08
-6.163816997e-08
-7.422035273e-08
-8.875555212e-08
-1.054028591e-07
-1.243145261e-07
-1.456348001e-07
-1.695014995e-07
-1.960471283e-07
-2.253996312e-07
-2.57678604e-07
-2.929885133e-07
-3.314102954e-07
-3.729990284e-07
-4.177888459e-07
-4.658016662e-07
-5.170512615e-07
-5.715449407e-07
-6.292865852e-07
-6.902689338e-07
-7.544781723e-07
-8.218038526e-07
-8.926558834e-07
-9.698127576e-07
-1.100484193e-06
-6.054303576e-07
3.134050631e-09
6.653355683e-09
6.647124112e-09
6.768989242e-09
6.708484683e-09
6.641402091e-09
6.569487392e-09
6.492460676e-09
6.410524196e-09
6.324466239e-09
6.235185722e-09
6.143769103e-09
6.051107811e-09
5.958087939e-09
5.865313636e-09
5.773306182e-09
5.682178677e-09
5.59179355e-09
5.50146195e-09
5.410262766e-09
5.316917673e-09
5.220197425e-09
5.11875996e-09
5.011280539e-09
4.896009239e-09
4.770820338e-09
4.632907379e-09
4.479214856e-09
4.306356166e-09
4.111110957e-09
3.89008931e-09
3.63976828e-09
3.355843787e-09
3.033351464e-09
2.666466389e-09
2.249261749e-09
1.77598843e-09
1.241804172e-09
6.425775154e-10
-2.504102586e-11
-7.643875509e-10
-1.578683482e-09
-2.471333754e-09
-3.445046871e-09
-4.501487945e-09
-5.640207412e-09
-6.858590265e-09
-8.151355489e-09
-9.51108273e-09
-1.092804664e-08
-1.2390782e-08
-1.388577783e-08
-1.539787568e-08
-1.690979921e-08
-1.840240819e-08
-1.985417114e-08
-2.124159099e-08
-2.253921038e-08
-2.372093991e-08
-2.476097813e-08
-2.563568328e-08
-2.632426165e-08
-2.68098357e-08
-2.707905579e-08
-2.712251848e-08
-2.693431038e-08
-2.651305693e-08
-2.586225662e-08
-2.499182921e-08
-2.39181242e-08
-2.266408019e-08
-2.12573506e-08
-1.97288079e-08
-1.811048511e-08
-1.643531905e-08
-1.473722584e-08
-1.305223266e-08
-1.141842568e-08
-9.87555469e-09
-8.463288073e-09
-7.220532043e-09
-6.185481463e-09
-5.398322785e-09
-4.904542351e-09
-4.75913049e-09
-5.028471885e-09
-5.791217472e-09
-7.136624398e-09
-9.16365164e-09
-1.197999267e-08
-1.570362111e-08
-2.046414358e-08
-2.640474263e-08
-3.368146696e-08
-4.246131071e-08
-5.291760549e-08
-6.522560545e-08
-7.955770917e-08
-9.60804234e-08
-1.149520491e-07
-1.36322217e-07
-1.603322887e-07
-1.871166511e-07
-2.168025777e-07
-2.495072344e-07
-2.853310124e-07
-3.243505585e-07
-3.666166732e-07
-4.121603127e-07
-4.610010036e-07
-5.131512716e-07
-5.686184159e-07
-6.274051218e-07
-6.895097726e-07
-7.549010042e-07
-8.235149399e-07
-8.956215287e-07
-9.743952601e-07
-1.106716041e-06
-6.094038238e-07
3.127730237e-09
6.638740336e-09
6.631466564e-09
6.752360858e-09
6.691677396e-09
6.624548862e-09
6.5527223e-09
6.475804543e-09
6.393996291e-09
6.307944635e-09
6.218540671e-09
6.12675509e-09
6.033500669e-09
5.939570505e-09
5.845646554e-09
5.752118038e-09
5.659124965e-09
5.566316108e-09
5.472986412e-09
5.378001591e-09
5.280113954e-09
5.177961792e-09
5.070143354e-09
4.955052469e-09
4.830655247e-09
4.694327045e-09
4.542931823e-09
4.372930465e-09
4.18065869e-09
3.962357243e-09
3.714091839e-09
3.431347829e-09
3.108865781e-09
2.740473046e-09
2.319508939e-09
1.839229135e-09
1.293456289e-09
6.767195272e-10
-1.572833167e-11
-7.884496304e-10
-1.646030136e-09
-2.593273318e-09
-3.634657784e-09
-4.773719638e-09
-6.012101081e-09
-7.349128444e-09
-8.781419991e-09
-1.030312387e-08
-1.19059243e-08
-1.357924511e-08
-1.531004176e-08
-1.708276971e-08
-1.887908893e-08
-2.06778688e-08
-2.245498565e-08
-2.418342902e-08
-2.583343977e-08
-2.737329211e-08
-2.8770366e-08
-2.999280372e-08
-3.101087934e-08
-3.179828888e-08
-3.233259003e-08
-3.259565352e-08
-3.257367687e-08
-3.225789265e-08
-3.164526754e-08
-3.073985105e-08
-2.955368385e-08
-2.810722204e-08
-2.642850182e-08
-2.45512922e-08
-2.251291835e-08
-2.035254962e-08
-1.811080078e-08
-1.582987602e-08
-1.355381423e-08
-1.132758331e-08
-9.195326342e-09
-7.198458181e-09
-5.374919445e-09
-3.760672715e-09
-2.393262906e-09
-1.316604734e-09
-5.84870384e-10
-2.646815514e-10
-4.347250017e-10
-1.184555102e-09
-2.613463756e-09
-4.831314444e-09
-7.960554246e-09
-1.213894084e-08
-1.75205374e-08
-2.427455134e-08
-3.258123151e-08
-4.262665902e-08
-5.459728011e-08
-6.867571551e-08
-8.503767719e-08
-1.038498631e-07
-1.252687561e-07
-1.494402371e-07
-1.765000553e-07
-2.065735866e-07
-2.397734014e-07
-2.761936745e-07
-3.159043475e-07
-3.589499669e-07
-4.053559885e-07
-4.551376903e-07
-5.083046501e-07
-5.648622393e-07
-6.248148239e-07
-6.881560568e-07
-7.548749231e-07
-8.248527629e-07
-8.985136101e-07
-9.786906727e-07
-1.113276407e-06
-6.136048258e-07
3.120555881e-09
6.62231403e-09
6.613910299e-09
6.73374422e-09
6.672739973e-09
6.605432601e-09
6.533514771e-09
6.456527573e-09
6.374598322e-09
6.288337611e-09
6.198535956e-09
6.106117005e-09
6.011944586e-09
5.916822424e-09
5.821354277e-09
5.72594089e-09
5.630562076e-09
5.534790631e-09
5.437741573e-09
5.338269742e-09
5.235005272e-09
5.12654932e-09
5.011306994e-09
4.887374101e-09
4.752293093e-09
4.603033931e-09
4.435990092e-09
4.2472915e-09
4.032834578e-09
3.788324946e-09
3.50896803e-09
3.18923816e-09
2.82264797e-09
2.401957121e-09
1.919550361e-09
1.368054023e-09
7.40645352e-10
3.116004845e-11
-7.663241991e-10
-1.657829971e-09
-2.649757912e-09
-3.748509515e-09
-4.95985046e-09
-6.287864888e-09
-7.734322494e-09
-9.29819814e-09
-1.097580783e-08
-1.276086698e-08
-1.464461265e-08
-1.661551028e-08
-1.865892596e-08
-2.075664477e-08
-2.288669797e-08
-2.502317234e-08
-2.713630381e-08
-2.919256664e-08
-3.115519026e-08
-3.298499606e-08
-3.464187674e-08
-3.608634862e-08
-3.728123164e-08
-3.819271308e-08
-3.879129697e-08
-3.905228483e-08
-3.895662286e-08
-3.849179705e-08
-3.765322027e-08
-3.644562087e-08
-3.488400941e-08
-3.299382364e-08
-3.080947195e-08
-2.837225337e-08
-2.572774909e-08
-2.292452617e-08
-2.001339229e-08
-1.704733736e-08
-1.408039853e-08
-1.116556764e-08
-8.351838905e-09
-5.682016457e-09
-3.192668006e-09
-9.167241214e-10
1.111510222e-09
2.850985847e-09
4.249598963e-09
5.242592734e-09
5.752903778e-09
5.692497354e-09
4.962229409e-09
3.449861559e-09
1.026455759e-09
-2.456427038e-09
-7.16720712e-09
-1.329103884e-08
-2.102418122e-08
-3.056746605e-08
-4.212093546e-08
-5.588006875e-08
-7.203297906e-08
-9.075779696e-08
-1.122199963e-07
-1.365707088e-07
-1.639461604e-07
-1.944677748e-07
-2.282406794e-07
-2.653498412e-07
-3.058553858e-07
-3.497925012e-07
-3.971783244e-07
-4.480212749e-07
-5.023259953e-07
-5.600960526e-07
-6.213343506e-07
-6.86043964e-07
-7.541978919e-07
-8.257425778e-07
-9.009438785e-07
-9.831461471e-07
-1.119816262e-06
-6.179907015e-07
3.112450512e-09
6.603828609e-09
6.594259148e-09
6.712910105e-09
6.651503728e-09
6.583915893e-09
6.511755384e-09
6.434532145e-09
6.352323705e-09
6.265610592e-09
6.175183909e-09
6.081854408e-09
5.986501897e-09
5.889864551e-09
5.79254925e-09
5.694835131e-09
5.59660854e-09
5.497290255e-09
5.395921464e-09
5.291243818e-09
5.18187001e-09
5.066233252e-09
4.942546283e-09
4.808506079e-09
4.66123322e-09
4.497216665e-09
4.312479796e-09
4.10272567e-09
3.863375394e-09
3.589391205e-09
3.275033534e-09
2.913552196e-09
2.49725444e-09
2.017791044e-09
1.466692972e-09
8.358526637e-10
1.176896991e-10
-6.950996229e-10
-1.60996432e-09
-2.634903464e-09
-3.778321389e-09
-5.048408042e-09
-6.452071859e-09
-7.994046222e-09
-9.676241698e-09
-1.149773112e-08
-1.345487325e-08
-1.554146498e-08
-1.774845585e-08
-2.006339768e-08
-2.246968811e-08
-2.494604142e-08
-2.746617893e-08
-2.999880543e-08
-3.25076872e-08
-3.495196153e-08
-3.728670015e-08
-3.946405108e-08
-4.143473602e-08
-4.314988864e-08
-4.456264553e-08
-4.562963563e-08
-4.63121145e-08
-4.65772091e-08
-4.639927558e-08
-4.576143567e-08
-4.465743472e-08
-4.309304793e-08
-4.108724024e-08
-3.867146143e-08
-3.588816351e-08
-3.278777491e-08
-2.94266201e-08
-2.586518354e-08
-2.216759171e-08
-1.840027678e-08
-1.462959868e-08
-1.091800507e-08
-7.320149971e-09
-3.880561476e-09
-6.341801429e-10
2.38973606e-09
5.161711413e-09
7.645761615e-09
9.794825727e-09
1.15487718e-08
1.283470211e-08
1.356763622e-08
1.36492522e-08
1.29642036e-08
1.13751324e-08
8.719744899e-09
4.81183791e-09
-5.531777887e-10
-7.590506138e-09
-1.651861084e-08
-2.755434513e-08
-4.091012169e-08
-5.679102696e-08
-7.539070316e-08
-9.688631447e-08
-1.214347331e-07
-1.49171257e-07
-1.802102947e-07
-2.146457896e-07
-2.525491848e-07
-2.939665919e-07
-3.389196329e-07
-3.87413252e-07
-4.394458511e-07
-4.950154644e-07
-5.54122338e-07
-6.167732338e-07
-6.829700519e-07
-7.527172557e-07
-8.259055066e-07
-9.029990769e-07
-9.869531382e-07
-1.126430608e-06
-6.224776095e-07
3.103334668e-09
6.583165885e-09
6.57235145e-09
6.689700125e-09
6.627832909e-09
6.559856873e-09
6.487359002e-09
6.409758491e-09
6.327077444e-09
6.239747102e-09
6.148445769e-09
6.053988338e-09
5.957180572e-09
5.858770236e-09
5.759271329e-09
5.658879564e-09
5.557344259e-09
5.453973361e-09
5.347672218e-09
5.237156798e-09
5.120934e-09
4.997291758e-09
4.864118707e-09
4.718726096e-09
4.557750426e-09
4.37725614e-09
4.172832503e-09
3.939735886e-09
3.672758258e-09
3.366020246e-09
3.012623567e-09
2.604583365e-09
2.132958641e-09
1.588363588e-09
9.614482584e-10
2.432618762e-10
-5.748849438e-10
-1.501818188e-09
-2.547056308e-09
-3.720876749e-09
-5.033902925e-09
-6.496058968e-09
-8.11546981e-09
-9.897569342e-09
-1.184485268e-08
-1.395698136e-08
-1.623101374e-08
-1.866123103e-08
-2.123851586e-08
-2.394934461e-08
-2.677489128e-08
-2.969035197e-08
-3.266470825e-08
-3.566067441e-08
-3.863484153e-08
-4.153793124e-08
-4.431557036e-08
-4.690945656e-08
-4.925915066e-08
-5.130391502e-08
-5.298468036e-08
-5.424581866e-08
-5.503699053e-08
-5.531518669e-08
-5.504673975e-08
-5.420977867e-08
-5.27961378e-08
-5.081343348e-08
-4.828532967e-08
-4.525097021e-08
-4.176218914e-08
-3.788089865e-08
-3.367654126e-08
-2.922486333e-08
-2.460652341e-08
-1.99046519e-08
-1.520061548e-08
-1.056860127e-08
-6.070738857e-09
-1.754461613e-09
2.346441309e-09
6.207438583e-09
9.806540004e-09
1.311708886e-08
1.610177121e-08
1.870911095e-08
2.087305459e-08
2.251308494e-08
2.353238381e-08
2.381190825e-08
2.320419896e-08
2.152997213e-08
1.858135483e-08
1.413008418e-08
7.938131722e-09
-2.344903783e-10
-1.062597995e-08
-2.347143293e-08
-3.899939179e-08
-5.742455039e-08
-7.893902239e-08
-1.037056538e-07
-1.318564133e-07
-1.634945165e-07
-1.986974202e-07
-2.375174568e-07
-2.799807525e-07
-3.2608977e-07
-3.758321452e-07
-4.291925931e-07
-4.861601306e-07
-5.467329062e-07
-6.109189008e-07
-6.787369308e-07
-7.501809491e-07
-8.252297306e-07
-9.041722046e-07
-9.906023765e-07
-1.132627223e-06
-6.269695318e-07
3.0931359e-09
6.560096895e-09
6.548015205e-09
6.663952226e-09
6.601576432e-09
6.533153545e-09
6.460204901e-09
6.382123509e-09
6.298828248e-09
6.210683485e-09
6.11832212e-09
6.02250842e-09
5.924028657e-09
5.823567243e-09
5.72158798e-09
5.618154384e-09
5.5128823e-09
5.404931871e-09
5.293179012e-09
5.176216444e-09
5.052460867e-09
4.919980079e-09
4.776310876e-09
4.618326875e-09
4.442207738e-09
4.243562172e-09
4.017546295e-09
3.758854809e-09
3.461549993e-09
3.118706367e-09
2.722232253e-09
2.262830203e-09
1.730395685e-09
1.114503283e-09
4.048810519e-10
-4.085472384e-10
-1.335954042e-09
-2.38825546e-09
-3.577384563e-09
-4.916204402e-09
-6.417578985e-09
-8.093219987e-09
-9.952515922e-09
-1.2002021e-08
-1.424537355e-08
-1.668360927e-08
-1.93151047e-08
-2.213507546e-08
-2.51344356e-08
-2.829856133e-08
-3.160617177e-08
-3.502874563e-08
-3.853018012e-08
-4.206672698e-08
-4.558693015e-08
-4.90319419e-08
-5.233620043e-08
-5.542888171e-08
-5.823571017e-08
-6.068116907e-08
-6.269079529e-08
-6.419361596e-08
-6.512501737e-08
-6.542952198e-08
-6.506412524e-08
-6.400091301e-08
-6.223007041e-08
-5.976123565e-08
-5.662409728e-08
-5.286643432e-08
-4.855142449e-08
-4.375454125e-08
-3.856147934e-08
-3.306671818e-08
-2.737125264e-08
-2.157870314e-08
-1.578914303e-08
-1.009231896e-08
-4.561393617e-09
7.503364588e-10
5.809066259e-09
1.059644772e-08
1.510273645e-08
1.93179624e-08
2.322200515e-08
2.677736691e-08
2.992699777e-08
3.259604729e-08
3.468982697e-08
3.608649957e-08
3.662748662e-08
3.611381844e-08
3.431091273e-08
3.096115695e-08
2.579791798e-08
1.855467168e-08
8.966006752e-09
-3.233683918e-09
-1.830538563e-08
-3.649262622e-08
-5.800644369e-08
-8.301567486e-08
-1.116452348e-07
-1.439812168e-07
-1.800773002e-07
-2.19958755e-07
-2.636239108e-07
-3.110484415e-07
-3.62196548e-07
-4.170345046e-07
-4.755404726e-07
-5.377090686e-07
-6.035565573e-07
-6.731070071e-07
-7.464005776e-07
-8.233625677e-07
-9.045312779e-07
-9.930673759e-07
-1.138442485e-06
-6.313184005e-07
3.081757095e-09
6.53454721e-09
6.521108347e-09
6.635543657e-09
6.572610006e-09
6.503683856e-09
6.430228986e-09
6.351550324e-09
6.267493239e-09
6.178390263e-09
6.084790051e-09
5.987423146e-09
5.887044368e-09
5.784316027e-09
5.67955471e-09
5.572727392e-09
5.463290637e-09
5.350330816e-09
5.232597413e-09
5.108631644e-09
4.976679436e-09
4.834555171e-09
4.679392624e-09
4.507629165e-09
4.314976265e-09
4.096603507e-09
3.847161027e-09
3.560690466e-09
3.230343135e-09
2.848087185e-09
2.404524799e-09
1.889131068e-09
1.290629728e-09
5.976036432e-10
-2.013728455e-10
-1.117782045e-09
-2.163849603e-09
-3.352950597e-09
-4.699876463e-09
-6.220135461e-09
-7.928915076e-09
-9.839717515e-09
-1.196357241e-08
-1.430869108e-08
-1.688073684e-08
-1.968289906e-08
-2.271559591e-08
-2.597532792e-08
-2.9453263e-08
-3.313368281e-08
-3.699295695e-08
-4.099879637e-08
-4.510989738e-08
-4.927550732e-08
-5.343525404e-08
-5.751917782e-08
-6.144858059e-08
-6.513744362e-08
-6.849455759e-08
-7.14260773e-08
-7.38383948e-08
-7.564178583e-08
-7.675407725e-08
-7.710513351e-08
-7.664053109e-08
-7.532567944e-08
-7.314842686e-08
-7.012100015e-08
-6.62794067e-08
-6.168125624e-08
-5.640260694e-08
-5.053504033e-08
-4.418398146e-08
-3.746654214e-08
-3.050850792e-08
-2.343861652e-08
-1.63813055e-08
-9.447991739e-09
-2.729308788e-09
3.71025484e-09
9.83435832e-09
1.563297627e-08
2.111664856e-08
2.630422381e-08
3.120484209e-08
3.580133296e-08
4.004681796e-08
4.387136396e-08
4.718470827e-08
4.986510619e-08
5.174477834e-08
5.260239389e-08
5.216994756e-08
5.015097775e-08
4.624189255e-08
4.014336769e-08