/*--------------------------------*- C++ -*----------------------------------*\
  =========                 |
  \\      /  F ield         | OpenFOAM: The Open Source CFD Toolbox
   \\    /   O peration     | Website:  https://openfoam.org
    \\  /    A nd           | Version:  6
     \\/     M anipulation  |
\*---------------------------------------------------------------------------*/
FoamFile
{
    version     2.0;
    format      ascii;
    class       volScalarField;
    location    "0.0015";
    object      ViscousDissipation;
}
// * * * * * * * * * * * * * * * * * * * * * * * * * * * * * * * * * * * * * //

dimensions      [1 -1 -3 0 0 0 0];

internalField   nonuniform List<scalar> 
9600
(
1.470631224e-19
1.376184006e-19
1.324730927e-19
1.314452557e-19
1.330822962e-19
1.362283163e-19
1.402366988e-19
1.447925711e-19
1.49763609e-19
1.551168263e-19
1.608705264e-19
1.670724025e-19
1.737849542e-19
1.810815944e-19
1.890407972e-19
1.977475243e-19
2.072891778e-19
2.177601089e-19
2.292581674e-19
2.418923743e-19
2.55779242e-19
2.710523224e-19
2.878575192e-19
3.063667609e-19
3.267757767e-19
3.493253701e-19
3.743015057e-19
4.020614857e-19
4.330340014e-19
4.677556795e-19
5.068860019e-19
5.512755875e-19
6.020097038e-19
6.605058878e-19
7.285623763e-19
8.084541019e-19
9.029575442e-19
1.015425109e-18
1.149740065e-18
1.31025068e-18
1.501409978e-18
1.727210615e-18
1.990100472e-18
2.289586963e-18
2.620268287e-18
2.969726388e-18
3.316259267e-18
3.627587119e-18
3.861473769e-18
3.970864537e-18
3.915813644e-18
3.685910285e-18
3.335535422e-18
3.034838369e-18
3.137205928e-18
4.265146051e-18
7.411602083e-18
1.403845235e-17
2.611541221e-17
4.610142608e-17
7.762429495e-17
1.304268019e-16
2.367267304e-16
4.647908689e-16
8.22718308e-16
1.287638596e-15
3.000051134e-16
6.011474413e-16
1.320521684e-15
1.892215642e-15
2.520497171e-15
3.957255732e-15
1.370803023e-15
4.588564523e-16
2.636129374e-17
4.151187279e-17
1.329788441e-16
2.327232131e-16
3.290993767e-16
4.07575232e-16
4.527983845e-16
4.619875723e-16
4.446062348e-16
4.097452004e-16
3.632561804e-16
3.116729229e-16
2.620610738e-16
2.203327103e-16
1.905737042e-16
1.753847355e-16
1.764525307e-16
1.948793424e-16
2.310418509e-16
2.839694404e-16
3.503305965e-16
4.235379642e-16
4.940118248e-16
5.511657951e-16
5.843714862e-16
5.792800957e-16
5.217584141e-16
4.155171097e-16
2.841686119e-16
1.520782766e-16
4.594295776e-17
5.895941582e-17
5.578097696e-16
1.319459393e-15
3.4450791e-15
2.321689303e-15
1.85202367e-15
2.037131553e-15
2.902247213e-16
1.841280576e-15
3.07152532e-15
1.35954006e-15
1.181888995e-15
1.902173591e-15
3.981731321e-15
1.48811862e-15
1.386710169e-19
1.24076767e-19
1.177148366e-19
1.174940894e-19
1.200080859e-19
1.237383263e-19
1.280499067e-19
1.327011088e-19
1.376173968e-19
1.428054371e-19
1.4830547e-19
1.541802394e-19
1.604974637e-19
1.673350015e-19
1.747680907e-19
1.828799514e-19
1.917486305e-19
2.01461461e-19
2.121011187e-19
2.237640268e-19
2.365441587e-19
2.505542379e-19
2.659068743e-19
2.827409454e-19
3.012034742e-19
3.214833505e-19
3.437918904e-19
3.684005036e-19
3.956188884e-19
4.258445021e-19
4.595548973e-19
4.973876997e-19
5.401541859e-19
5.889383805e-19
6.451038547e-19
7.103848095e-19
7.868715141e-19
8.770853272e-19
9.83897806e-19
1.110454049e-18
1.259767016e-18
1.434144239e-18
1.634114736e-18
1.857116641e-18
2.095670506e-18
2.335474208e-18
2.553443644e-18
2.716845325e-18
2.784608681e-18
2.713427025e-18
2.471316625e-18
2.062886816e-18
1.570466399e-18
1.216673525e-18
1.45411324e-18
3.090022857e-18
7.452771649e-18
1.660141165e-17
3.357167317e-17
6.2722202e-17
1.106620795e-16
1.891706461e-16
3.203941952e-16
5.296190045e-16
7.6630319e-16
7.114492046e-16
1.556437415e-17
1.063218866e-15
3.82181985e-16
1.19896719e-15
1.360232004e-14
3.963734412e-14
1.163577629e-14
3.303158224e-15
2.184748802e-16
1.312469703e-16
2.669567711e-16
4.203370803e-16
5.941469606e-16
7.37376166e-16
7.993453156e-16
7.802792452e-16
7.202506016e-16
6.399326528e-16
5.425372932e-16
4.384568247e-16
3.415341148e-16
2.622623354e-16
2.065010511e-16
1.771286018e-16
1.758606149e-16
2.042867796e-16
2.637859812e-16
3.54216371e-16
4.713183991e-16
6.039040247e-16
7.341698448e-16
8.455107917e-16
9.284940874e-16
9.54949866e-16
8.746854313e-16
6.878657778e-16
4.62395736e-16
2.596426975e-16
9.20932251e-17
2.233723619e-16
3.560247756e-15
1.159093246e-14
3.809218095e-14
1.364966924e-14
2.053022718e-15
9.131246636e-17
4.339350384e-16
1.143912515e-15
1.927963788e-15
1.834653657e-15
1.580125925e-15
1.690974751e-15
2.655189333e-15
9.774675526e-16
1.758281158e-19
1.142602955e-19
1.039005223e-19
1.044944326e-19
1.078629281e-19
1.120791392e-19
1.165998744e-19
1.212768827e-19
1.260960061e-19
1.310945069e-19
1.363335576e-19
1.418830906e-19
1.47818743e-19
1.542159932e-19
1.611521699e-19
1.687019796e-19
1.769415194e-19
1.859442028e-19
1.957870474e-19
2.065465557e-19
2.183059233e-19
2.31149558e-19
2.451714594e-19
2.604704347e-19
2.771626316e-19
2.953781255e-19
3.152752842e-19
3.370353352e-19
3.60879412e-19
3.870702336e-19
4.159481889e-19
4.479547244e-19
4.836893126e-19
5.239378792e-19
5.69724246e-19
6.223245612e-19
6.833115524e-19
7.545529995e-19
8.382002261e-19
9.365242465e-19
1.051596056e-18
1.184655627e-18
1.335216228e-18
1.49979931e-18
1.670426359e-18
1.832902453e-18
1.965408386e-18
2.038167809e-18
2.01586901e-18
1.86510194e-18
1.570368405e-18
1.163194416e-18
7.707106503e-19
6.915297902e-19
1.509380567e-18
4.257341853e-18
1.064811167e-17
2.338417427e-17
4.656034975e-17
8.619372018e-17
1.510014997e-16
2.5341666e-16
4.084214524e-16
6.178213228e-16
8.098153985e-16
7.527056557e-16
3.323397915e-16
5.958070467e-16
1.548314404e-15
6.553691735e-16
3.75846185e-14
2.585025952e-13
1.748747959e-13
3.336970136e-14
7.043649952e-15
1.065564955e-15
8.047604138e-16
8.61922081e-16
1.212394361e-15
1.508729148e-15
1.553615392e-15
1.392179468e-15
1.213285856e-15
1.045420285e-15
8.485852637e-16
6.406227059e-16
4.535933252e-16
3.066886979e-16
2.065288095e-16
1.538524506e-16
1.487519531e-16
1.933454905e-16
2.919718775e-16
4.484446933e-16
6.596332925e-16
9.060999544e-16
1.149189168e-15
1.360268506e-15
1.573053596e-15
1.752590924e-15
1.686053779e-15
1.321358964e-15
9.000668865e-16
7.753821753e-16
9.613065967e-16
6.861596418e-15
3.394032377e-14
1.737817811e-13
2.552293201e-13
3.520036661e-14
3.355632707e-16
2.141404838e-16
2.862168799e-16
1.058799119e-15
1.943160383e-15
1.971853678e-15
1.533594295e-15
1.222227638e-15
1.510899353e-15
5.828452127e-16
6.747982986e-20
7.962119659e-20
8.669452133e-20
9.171582673e-20
9.645626948e-20
1.011557577e-19
1.058260053e-19
1.104856035e-19
1.15182427e-19
1.199824076e-19
1.249611959e-19
1.301964924e-19
1.357671754e-19
1.417492868e-19
1.482179595e-19
1.552439586e-19
1.628970745e-19
1.712431569e-19
1.803490557e-19
1.902795771e-19
2.011025132e-19
2.128844236e-19
2.256962752e-19
2.396100269e-19
2.547068991e-19
2.710746788e-19
2.888160883e-19
3.080444915e-19
3.288947713e-19
3.515275968e-19
3.76157504e-19
4.030762309e-19
4.326948981e-19
4.655686266e-19
5.024313124e-19
5.442136612e-19
5.920791769e-19
6.474371392e-19
7.119246779e-19
7.872671399e-19
8.749757361e-19
9.758094277e-19
1.088997622e-18
1.21120605e-18
1.335296755e-18
1.449060324e-18
1.53439996e-18
1.567980158e-18
1.524999616e-18
1.388754135e-18
1.16978676e-18
9.403023099e-19
8.915368832e-19
1.424811098e-18
3.289955471e-18
7.788823015e-18
1.70635969e-17
3.448762908e-17
6.516121638e-17
1.164721824e-16
1.985326109e-16
3.237085214e-16
5.022131704e-16
7.254330193e-16
9.263771168e-16
9.505750947e-16
7.324072422e-16
8.588782594e-16
2.037548718e-15
3.527764822e-15
2.452437353e-15
1.214286735e-13
5.324482289e-13
5.805948967e-13
1.435918265e-13
5.044170274e-15
2.25252759e-15
1.508183114e-15
2.785312803e-15
3.639467518e-15
3.433968473e-15
2.571552176e-15
2.081297107e-15
1.803933087e-15
1.419661751e-15
9.981851929e-16
6.349332832e-16
3.656297713e-16
1.910037444e-16
1.014738001e-16
9.052829394e-17
1.606603196e-16
3.241493695e-16
5.980067625e-16
9.893140095e-16
1.464892607e-15
1.917230717e-15
2.251170321e-15
2.783312597e-15
3.689693446e-15
3.889410529e-15
2.922483201e-15
1.549733868e-15
2.221447656e-15
4.891453762e-15
1.421582716e-13
5.759922178e-13
5.367314608e-13
1.232059142e-13
1.043139771e-15
9.801774881e-16
7.940649109e-16
9.715684001e-16
1.651777487e-15
2.114348024e-15
1.887974565e-15
1.265918426e-15
7.410172341e-16
7.207727278e-16
3.238390239e-16
5.223753152e-20
6.403094235e-20
7.314387664e-20
7.991879034e-20
8.562747245e-20
9.077633361e-20
9.560576419e-20
1.00256696e-19
1.048386422e-19
1.094493508e-19
1.141805587e-19
1.19118881e-19
1.243464136e-19
1.299404568e-19
1.35973761e-19
1.425142016e-19
1.496255481e-19
1.573677887e-19
1.657985823e-19
1.74973458e-19
1.849466917e-19
1.957704623e-19
2.074958294e-19
2.201726612e-19
2.338519239e-19
2.485857556e-19
2.644289393e-19
2.814379967e-19
2.996755826e-19
3.192187039e-19
3.401784543e-19
3.627239139e-19
3.87111451e-19
4.137080766e-19
4.430167073e-19
4.757016397e-19
5.126260876e-19
5.548801058e-19
6.037718165e-19
6.607182594e-19
7.269987771e-19
8.033295552e-19
8.892649028e-19
9.824189976e-19
1.077596437e-18
1.166054337e-18
1.235508395e-18
1.271974786e-18
1.265342254e-18
1.221531465e-18
1.1856821e-18
1.282806413e-18
1.785273824e-18
3.219805526e-18
6.530783079e-18
1.332000808e-17
2.61838746e-17
4.91596699e-17
8.825920704e-17
1.519714796e-16
2.51360889e-16
3.987357764e-16
6.023879891e-16
8.530258447e-16
1.101127568e-15
1.252131573e-15
1.266024563e-15
1.413716411e-15
2.101815278e-15
3.82463224e-15
5.122846735e-15
1.149356319e-15
2.124405498e-15
2.49248214e-13
8.400371444e-13
1.709591752e-13
3.455753382e-15
1.232956113e-15
8.887344657e-15
1.146930839e-14
9.47869824e-15
4.552544831e-15
3.410274296e-15
3.367168621e-15
2.622091562e-15
1.717225866e-15
9.872918915e-16
4.888669745e-16
1.888108233e-16
4.240011762e-17
2.325934671e-17
1.335342687e-16
4.057602413e-16
8.961424299e-16
1.655642059e-15
2.642492237e-15
3.501889505e-15
3.605848862e-15
4.744180575e-15
9.742072438e-15
1.185854753e-14
9.092774204e-15
1.259688093e-15
3.418266143e-15
1.698055748e-13
8.339432289e-13
2.447542947e-13
2.077784464e-15
2.395914992e-16
1.758379648e-15
2.870042856e-15
2.350703857e-15
2.246853234e-15
2.29581216e-15
2.150357316e-15
1.631154709e-15
9.345594459e-16
3.828130827e-16
2.903696616e-16
1.864834742e-16
3.832629534e-20
5.079062893e-20
6.099133887e-20
6.892319174e-20
7.53849613e-20
8.093404479e-20
8.592142022e-20
9.057356676e-20
9.505319377e-20
9.948873248e-20
1.039891258e-19
1.086501432e-19
1.135582672e-19
1.18791798e-19
1.244223711e-19
1.305148523e-19
1.37128859e-19
1.443187786e-19
1.521356571e-19
1.606266027e-19
1.698357739e-19
1.798027207e-19
1.905632195e-19
2.021478661e-19
2.145835404e-19
2.278915055e-19
2.420878077e-19
2.571810039e-19
2.731761334e-19
2.900812725e-19
3.07924767e-19
3.267742012e-19
3.46760287e-19
3.680961125e-19
3.911027475e-19
4.162406696e-19
4.441569665e-19
4.757266233e-19
5.120622821e-19
5.544448245e-19
6.041519048e-19
6.621674582e-19
7.287815912e-19
8.031046773e-19
8.826106768e-19
9.63030461e-19
1.039288652e-18
1.108741197e-18
1.178756865e-18
1.281877293e-18
1.503483423e-18
2.029357006e-18
3.223671539e-18
5.751936079e-18
1.076745766e-17
2.018269119e-17
3.704396781e-17
6.601124679e-17
1.138938571e-16
1.900691539e-16
3.063361975e-16
4.752235659e-16
7.049687228e-16
9.891594297e-16
1.292968319e-15
1.55227708e-15
1.720210441e-15
1.856517558e-15
2.019377535e-15
1.954330622e-15
1.100902493e-15
5.119570715e-15
7.300720168e-15
6.012317793e-15
2.891087431e-13
4.710417451e-13
6.27343947e-14
2.013850122e-14
6.77766334e-14
5.520013363e-14
4.150569908e-14
6.09920387e-15
4.536098697e-15
7.438104951e-15
5.606580169e-15
3.380975588e-15
1.789925522e-15
8.231389732e-16
3.003726897e-16
6.459080461e-17
3.518331408e-17
2.121482714e-16
6.793289414e-16
1.608772957e-15
3.219304584e-15
5.585136483e-15
7.684735867e-15
4.817815643e-15
5.997639557e-15
4.112704453e-14
5.574567356e-14
6.816800537e-14
1.982913702e-14
6.176750058e-14
4.736521065e-13
2.849403886e-13
3.97037501e-15
3.968609409e-15
2.669178409e-15
3.50123965e-16
1.862616022e-15
2.522486291e-15
2.571502206e-15
2.33827773e-15
1.890840467e-15
1.273426628e-15
6.448144269e-16
1.882426285e-16
1.660283827e-16
1.422662627e-16
3.082404551e-20
4.155081995e-20
5.130318096e-20
5.938053197e-20
6.609135422e-20
7.18136535e-20
7.686337766e-20
8.148010537e-20
8.58475463e-20
9.01114876e-20
9.439238644e-20
9.879310255e-20
1.034033971e-19
1.083026054e-19
1.135611887e-19
1.1924189e-19
1.2540073e-19
1.320880725e-19
1.393494365e-19
1.472256953e-19
1.557527043e-19
1.649605149e-19
1.748723836e-19
1.855039554e-19
1.968622245e-19
2.08943897e-19
2.217333209e-19
2.352011774e-19
2.493061816e-19
2.64001924e-19
2.792495179e-19
2.950340206e-19
3.113823134e-19
3.283824706e-19
3.462103713e-19
3.651704028e-19
3.857513973e-19
4.086830455e-19
4.349664267e-19
4.658510941e-19
5.027473955e-19
5.470760334e-19
6.000734373e-19
6.626024213e-19
7.351337653e-19
8.182953865e-19
9.147894829e-19
1.034052625e-18
1.201917107e-18
1.47882272e-18
1.992068756e-18
2.990219439e-18
4.93126895e-18
8.620241377e-18
1.541591153e-17
2.752764557e-17
4.841715961e-17
8.329571469e-17
1.39646086e-16
2.275651079e-16
3.594687935e-16
5.483003605e-16
8.029695661e-16
1.120028672e-15
1.473366023e-15
1.810496142e-15
2.068558567e-15
2.200435231e-15
2.131681914e-15
1.698394109e-15
1.048629458e-15
3.60839995e-15
1.699254395e-14
1.455944644e-14
5.061817259e-15
2.696314162e-15
1.790963078e-14
7.879541923e-14
7.223186701e-13
4.414617452e-13
3.56930887e-13
2.234082503e-14
6.392602015e-15
2.618141501e-14
1.482358903e-14
7.861733628e-15
3.782896792e-15
1.710912381e-15
7.507681094e-16
3.625696754e-16
3.224092455e-16
6.249045505e-16
1.486496951e-15
3.456528857e-15
7.497744392e-15
1.471670392e-14
2.70866539e-14
7.331307401e-15
2.063674193e-14
3.495938209e-13
4.396453505e-13
7.199175851e-13
8.19681642e-14
1.894830262e-14
1.803887699e-15
2.578060601e-15
8.225201883e-15
1.247543733e-14
2.095375907e-15
4.681855825e-16
1.507296838e-15
2.204383973e-15
2.273680511e-15
1.97196406e-15
1.487216027e-15
9.388736774e-16
4.603790598e-16
1.518790591e-16
2.525690096e-16
1.583779267e-16
2.601592022e-20
3.498512926e-20
4.373161674e-20
5.136455569e-20
5.79057743e-20
6.354899136e-20
6.85222981e-20
7.303236771e-20
7.72547982e-20
8.133622186e-20
8.540002463e-20
8.955143622e-20
9.388137103e-20
9.846896135e-20
1.033834677e-19
1.086855408e-19
1.144286045e-19
1.20659759e-19
1.274205859e-19
1.347470774e-19
1.426691685e-19
1.512095016e-19
1.603822269e-19
1.701913039e-19
1.806287033e-19
1.916717489e-19
2.032806199e-19
2.153963939e-19
2.279423192e-19
2.40828866e-19
2.539635533e-19
2.672633578e-19
2.806696313e-19
2.941670035e-19
3.07813884e-19
3.217902641e-19
3.364628121e-19
3.524533038e-19
3.706914415e-19
3.924378075e-19
4.192788488e-19
4.531080849e-19
4.961231398e-19
5.50917402e-19
6.208779115e-19
7.113600284e-19
8.325165284e-19
1.005279581e-18
1.272930365e-18
1.722130597e-18
2.519349336e-18
3.971440431e-18
6.622693933e-18
1.140482073e-17
1.985984466e-17
3.44560191e-17
5.900753978e-17
9.917972577e-17
1.629938092e-16
2.611125019e-16
4.064597763e-16
6.124182623e-16
8.88609503e-16
1.233580819e-15
1.625472081e-15
2.015147374e-15
2.327958688e-15
2.472183101e-15
2.339091861e-15
1.844499423e-15
1.227499953e-15
1.953991606e-15
6.05847447e-15
7.281873189e-15
1.105572192e-14
1.579993293e-14
8.354138618e-15
3.16949333e-15
8.535337874e-13
8.114478735e-13
4.803359695e-13
9.029197179e-14
1.234456811e-13
2.09510417e-13
5.451211882e-14
2.20762513e-14
8.673841893e-15
3.73372769e-15
1.864591016e-15
1.193968898e-15
1.145715398e-15
1.705234732e-15
3.417090442e-15
8.125187002e-15
2.126507191e-14
5.397969903e-14
2.143569059e-13
1.29466316e-13
8.329300116e-14
4.728909982e-13
7.926310933e-13
8.545553088e-13
2.286735373e-15
5.409705122e-15
9.608027888e-15
5.717151739e-15
4.343417573e-15
4.112429665e-15
1.100687959e-15
6.970175781e-16
1.385566651e-15
1.839997516e-15
1.825169897e-15
1.516179423e-15
1.095285319e-15
6.879010712e-16
3.811266927e-16
2.173853738e-16
4.364328329e-16
2.023645437e-16
2.251687896e-20
3.005746739e-20
3.772891547e-20
4.467360408e-20
5.079572004e-20
5.61685749e-20
6.093793629e-20
6.526381364e-20
6.929830601e-20
7.317716395e-20
7.701888848e-20
8.092630067e-20
8.498864373e-20
8.928344275e-20
9.38780969e-20
9.88313119e-20
1.041943018e-19
1.100117999e-19
1.163225253e-19
1.231591098e-19
1.30547332e-19
1.385048187e-19
1.470393395e-19
1.561467047e-19
1.658080267e-19
1.759866598e-19
1.866250771e-19
1.976428047e-19
2.089365856e-19
2.203839035e-19
2.318495565e-19
2.431948786e-19
2.542898767e-19
2.650327097e-19
2.75383311e-19
2.854169291e-19
2.953952778e-19
3.058443418e-19
3.176263097e-19
3.320030955e-19
3.507031124e-19
3.760138163e-19
4.109416573e-19
4.59542658e-19
5.276772487e-19
6.247087011e-19
7.670880211e-19
9.854090761e-19
1.337528775e-18
1.931865235e-18
2.967166246e-18
4.797931344e-18
8.038291069e-18
1.372113167e-17
2.35324207e-17
4.013974893e-17
6.762299038e-17
1.119825062e-16
1.816299538e-16
2.876353135e-16
4.432954451e-16
6.623293665e-16
9.548349644e-16
1.320396985e-15
1.738899595e-15
2.161736869e-15
2.507928782e-15
2.669304449e-15
2.531198422e-15
2.040530547e-15
1.37587243e-15
1.148212969e-15
1.977715648e-15
2.650575748e-15
4.240311818e-15
9.445230656e-15
1.565217399e-14
2.102108507e-14
1.968413628e-14
1.51962928e-14
1.497690007e-14
7.540157702e-13
7.296126933e-13
3.988329748e-13
4.413035196e-13
6.786960877e-14
1.872713095e-14
7.328779722e-15
3.752413825e-15
2.587506392e-15
2.536742409e-15
3.574386473e-15
6.927775411e-15
1.787192788e-14
6.606656133e-14
4.376787176e-13
3.955094059e-13
7.012605573e-13
7.5118164e-13
1.450910595e-14
1.375825998e-14
1.60660325e-14
1.469629793e-14
1.004520685e-14
5.976044227e-15
2.277935909e-15
1.602723012e-15
1.26838656e-15
6.402328941e-16
8.070372555e-16
1.283188784e-15
1.536558402e-15
1.44759222e-15
1.149925602e-15
8.126554745e-16
5.340279333e-16
3.669490172e-16
3.196612321e-16
6.275015703e-16
2.47702828e-16
1.974381747e-20
2.615251575e-20
3.284171827e-20
3.904396017e-20
4.463441711e-20
4.962312872e-20
5.409752426e-20
5.817544567e-20
6.198195925e-20
6.563652171e-20
6.924793005e-20
7.291299444e-20
7.671690582e-20
8.073415504e-20
8.502969305e-20
8.966014373e-20
9.467488969e-20
1.001168727e-19
1.060229272e-19
1.124235644e-19
1.193421171e-19
1.267932879e-19
1.347811654e-19
1.432965701e-19
1.52313848e-19
1.617873366e-19
1.716479886e-19
1.818008581e-19
1.92124322e-19
2.024715705e-19
2.126742695e-19
2.225485485e-19
2.319051719e-19
2.405690392e-19
2.484149587e-19
2.554240078e-19
2.617574239e-19
2.678393342e-19
2.744423988e-19
2.827819816e-19
2.946368791e-19
3.12524594e-19
3.399815983e-19
3.820712751e-19
4.463979764e-19
5.451784753e-19
6.993453668e-19
9.463267041e-19
1.354189305e-18
2.046414656e-18
3.243797426e-18
5.332881608e-18
8.973927755e-18
1.526529925e-17
2.598403683e-17
4.39210894e-17
7.33174558e-17
1.203735264e-16
1.937310495e-16
3.046962099e-16
4.667724935e-16
6.938366929e-16
9.961488976e-16
1.373604108e-15
1.806534785e-15
2.246054057e-15
2.608044231e-15
2.7776845e-15
2.637672674e-15
2.142103355e-15
1.428615838e-15
8.287692795e-16
6.040670073e-16
5.995611374e-16
6.314658703e-16
1.366551525e-15
2.735745041e-15
7.833603279e-15
1.750019808e-14
1.147476789e-14
3.676236441e-14
1.688959516e-14
6.825084438e-16
1.047211548e-15
5.066418117e-16
1.465462084e-13
3.426488654e-14
1.164802278e-14
5.627981224e-15
3.861306755e-15
3.81216418e-15
5.446227142e-15
1.118739089e-14
3.304656435e-14
1.427862461e-13
4.987086356e-16
1.027185446e-15
6.725466993e-16
1.607547902e-14
3.375639583e-14
1.07635306e-14
1.641353125e-14
7.053601157e-15
2.017109377e-15
8.114116847e-16
3.23776553e-16
4.062188371e-16
3.793557723e-16
4.726296693e-16
8.109096596e-16
1.181278568e-15
1.333008704e-15
1.205604293e-15
9.260618344e-16
6.47502383e-16
4.551562339e-16
3.73616931e-16
3.960396319e-16
7.513663246e-16
2.782924038e-16
1.742423627e-20
2.292196235e-20
2.875367719e-20
3.424350731e-20
3.927372623e-20
4.382663973e-20
4.795386947e-20
5.17414708e-20
5.529033513e-20
5.870290723e-20
6.20763634e-20
6.549955949e-20
6.905208679e-20
7.280439666e-20
7.681850153e-20
8.114888077e-20
8.584328545e-20
9.094336298e-20
9.648485026e-20
1.024972601e-19
1.090029842e-19
1.16015801e-19
1.235385452e-19
1.315601047e-19
1.40051825e-19
1.489637549e-19
1.582209967e-19
1.677207388e-19
1.773303163e-19
1.868866125e-19
1.961969227e-19
2.050420315e-19
2.131843679e-19
2.203870007e-19
2.26449732e-19
2.312653236e-19
2.348921418e-19
2.376370121e-19
2.401471008e-19
2.435218892e-19
2.494663254e-19
2.605147967e-19
2.803813742e-19
3.145669611e-19
3.71512935e-19
4.64857935e-19
6.177814703e-19
8.710890244e-19
1.297754092e-18
2.028216507e-18
3.292954509e-18
5.49174509e-18
9.302572393e-18
1.58470067e-17
2.693184893e-17
4.538553001e-17
7.549556334e-17
1.235182355e-16
1.981569081e-16
3.107713055e-16
4.748806114e-16
7.04295111e-16
1.009089557e-15
1.388871026e-15
1.823661333e-15
2.264186425e-15
2.62510329e-15
2.787629072e-15
2.626957201e-15
2.094169207e-15
1.350120252e-15
7.833896435e-16
6.83719331e-16
7.920295308e-16
8.272333879e-16
1.474395514e-15
2.707979517e-15
7.522880035e-15
1.708790436e-14
1.15888533e-14
3.673667431e-14
1.69193127e-14
6.839086087e-16
1.047268385e-15
5.067250714e-16
1.465746561e-13
3.426801109e-14
1.164601642e-14
5.625161002e-15
3.858624163e-15
3.809958316e-15
5.445058106e-15
1.118917444e-14
3.30583143e-14
1.428365347e-13
4.988137852e-16
1.027281151e-15
6.738271642e-16
1.599537411e-14
3.377208949e-14
1.099387045e-14
1.585647032e-14
6.516754399e-15
1.777786018e-15
8.05757821e-16
4.807566253e-16
5.602313519e-16
4.844027544e-16
4.95778874e-16
7.70977227e-16
1.1067125e-15
1.247480021e-15
1.125272594e-15
8.629072372e-16
6.053415172e-16
4.360739315e-16
3.771164234e-16
4.09021883e-16
7.744797738e-16
2.83741597e-16
1.541827017e-20
2.016540203e-20
2.525584929e-20
3.009342796e-20
3.457880644e-20
3.868517565e-20
4.244408037e-20
4.591973813e-20
4.919383542e-20
5.235353704e-20
5.548449649e-20
5.866704753e-20
6.197451976e-20
6.547284552e-20
6.922084861e-20
7.327081783e-20
7.766906878e-20
8.245636809e-20
8.766799991e-20
9.333350127e-20
9.94757622e-20
1.061093935e-19
1.132382349e-19
1.208520508e-19
1.28922756e-19
1.374005205e-19
1.462099514e-19
1.552465518e-19
1.643735556e-19
1.734192881e-19
1.82175358e-19
1.903970771e-19
1.978096392e-19
2.04125689e-19
2.090798726e-19
2.124819059e-19
2.14284355e-19
2.146604567e-19
2.140944084e-19
2.134975e-19
2.143709228e-19
2.190433817e-19
2.310368233e-19
2.556895448e-19
3.013189606e-19
3.814686244e-19
5.191987613e-19
7.550433518e-19
1.161291011e-18
1.8667906e-18
3.098638252e-18
5.249940327e-18
8.986383704e-18
1.540834663e-17
2.628854532e-17
4.440453259e-17
7.397353199e-17
1.211618348e-16
1.945637434e-16
3.054057273e-16
4.670208342e-16
6.928995581e-16
9.925192751e-16
1.364509502e-15
1.787825149e-15
2.213118902e-15
2.556873519e-15
2.700202216e-15
2.505046248e-15
1.907168683e-15
1.159843128e-15
1.049887508e-15
2.249605809e-15
3.167784439e-15
4.611418269e-15
9.519250819e-15
1.572334745e-14
2.054768963e-14
1.925381087e-14
1.522714151e-14
1.509777974e-14
7.554900072e-13
7.300566043e-13
3.994206248e-13
4.416782363e-13
6.794303008e-14
1.873819893e-14
7.32552454e-15
3.74608549e-15
2.581099418e-15
2.531525693e-15
3.572028223e-15
6.932851293e-15
1.789919392e-14
6.616789549e-14
4.380872254e-13
3.960824756e-13
7.017148055e-13
7.525317789e-13
1.444542506e-14
1.371532251e-14
1.532930565e-14
1.407054535e-14
9.863274692e-15
5.968273267e-15
2.709095322e-15
2.057819963e-15
1.585205657e-15
7.201705155e-16
7.073278484e-16
1.073803437e-15
1.286704054e-15
1.206760074e-15
9.57498497e-16
6.797100466e-16
4.68992558e-16
3.582718852e-16
3.549996306e-16
6.891562644e-16
2.627851489e-16
1.364828758e-20
1.776359585e-20
2.221143685e-20
2.646307807e-20
3.04389784e-20
3.411179313e-20
3.750252899e-20
4.066108517e-20
4.365472989e-20
4.655793295e-20
4.944594476e-20
5.239091251e-20
5.545993329e-20
5.871437442e-20
6.220983823e-20
6.599647655e-20
7.011935698e-20
7.461868939e-20
7.952994658e-20
8.488362017e-20
9.070434287e-20
9.700918855e-20
1.038050397e-19
1.110851174e-19
1.188252133e-19
1.269797978e-19
1.354780517e-19
1.44219763e-19
1.53070902e-19
1.618590546e-19
1.703692899e-19
1.783422469e-19
1.854781766e-19
1.914523429e-19
1.959463394e-19
1.986956055e-19
1.995491722e-19
1.985381468e-19
1.959571384e-19
1.924718522e-19
1.892709054e-19
1.882839009e-19
1.925113065e-19
2.065826955e-19
2.378068169e-19
2.982251881e-19
4.085804888e-19
6.057408181e-19
9.560993121e-19
1.57892026e-18
2.68564971e-18
4.643971308e-18
8.078963108e-18
1.402791642e-17
2.416919528e-17
4.114564874e-17
6.89924644e-17
1.13644839e-16
1.834227076e-16
2.892413262e-16
4.440587323e-16
6.607857122e-16
9.477737777e-16
1.301586103e-15
1.698643129e-15
2.089794756e-15
2.400128584e-15
2.5246741e-15
2.313604128e-15
1.656520527e-15
9.39782124e-16
1.915233321e-15
6.50205811e-15
7.810883998e-15
1.131754535e-14
1.537967828e-14
8.281284842e-15
3.054162535e-15
8.530637825e-13
8.098105084e-13
4.806274959e-13
9.038142054e-14
1.232897339e-13
2.097263961e-13
5.464021443e-14
2.212509264e-14
8.686028281e-15
3.732050155e-15
1.858414337e-15
1.187093813e-15
1.14026836e-15
1.703591167e-15
3.423804377e-15
8.150172442e-15
2.132835108e-14
5.410798284e-14
2.145035187e-13
1.292989906e-13
8.336544821e-14
4.730784832e-13
7.911680492e-13
8.542756004e-13
2.049310084e-15
4.96629682e-15
9.00797901e-15
6.353469482e-15
4.820424994e-15
4.544378298e-15
1.249209796e-15
5.979701248e-16
1.071168576e-15
1.435254852e-15
1.431771303e-15
1.190803562e-15
8.719572167e-16
5.696660116e-16
3.479429847e-16
2.551085401e-16
5.214152984e-16
2.235370804e-16
1.206813312e-20
1.564250392e-20
1.952966357e-20
2.325854883e-20
2.676748746e-20
3.003199233e-20
3.306786089e-20
3.591569105e-20
3.86321569e-20
4.128155122e-20
4.393018786e-20
4.664283709e-20
4.948080764e-20
5.250112001e-20
5.575630593e-20
5.929450413e-20
6.315969635e-20
6.739190191e-20
7.202733835e-20
7.709828149e-20
8.263222714e-20
8.865014138e-20
9.516373564e-20
1.021720467e-19
1.096578169e-19
1.175837399e-19
1.258884743e-19
1.344819224e-19
1.432396883e-19
1.519968492e-19
1.605419512e-19
1.686130953e-19
1.759000128e-19
1.820567239e-19
1.867284398e-19
1.895919286e-19
1.904052449e-19
1.89063935e-19
1.856682301e-19
1.806123587e-19
1.747085057e-19
1.693581489e-19
1.668025592e-19
1.705495031e-19
1.862091879e-19
2.232064149e-19
2.982077741e-19
4.416838996e-19
7.099154236e-19
1.206070298e-18
2.115885336e-18
3.766163186e-18
6.717888027e-18
1.191020079e-17
2.08757947e-17
3.604956648e-17
6.118375208e-17
1.018517383e-16
1.659462998e-16
2.639174801e-16
4.082066107e-16
6.109378176e-16
8.787157933e-16
1.204248566e-15
1.55801629e-15
1.889237539e-15
2.143343213e-15
2.268611953e-15
2.131066119e-15
1.503966045e-15
8.168312768e-16
3.77464615e-15
1.728231405e-14
1.510536326e-14
5.443357968e-15
2.721219115e-15
1.798762169e-14
7.918310658e-14
7.215441456e-13
4.410955367e-13
3.568186892e-13
2.233564151e-14
6.400529369e-15
2.625630791e-14
1.488463793e-14
7.894502485e-15
3.795047821e-15
1.712033213e-15
7.471124661e-16
3.577334616e-16
3.188626413e-16
6.251600331e-16
1.494073323e-15
3.476614062e-15
7.535861963e-15
1.477228283e-14
2.71368108e-14
7.326018437e-15
2.063948589e-14
3.494198285e-13
4.392673139e-13
7.193606924e-13
8.231255153e-14
1.906279688e-14
1.677254374e-15
3.028192494e-15
8.81449147e-15
1.275263742e-14
2.190152939e-15
4.321048246e-16
1.147216008e-15
1.68593242e-15
1.750337856e-15
1.527450649e-15
1.164452687e-15
7.539379939e-16
3.871993073e-16
1.651142866e-16
3.279953293e-16
1.775013264e-16
1.06485095e-20
1.37538972e-20
1.714869134e-20
2.041201232e-20
2.349739349e-20
2.638419941e-20
2.908579514e-20
3.163660965e-20
3.408547726e-20
3.64886059e-20
3.890482545e-20
4.139249511e-20
4.40077434e-20
4.680361378e-20
4.982978692e-20
5.313256128e-20
5.675502207e-20
6.073732624e-20
6.511696057e-20
6.992871092e-20
7.520387633e-20
8.09685073e-20
8.724070517e-20
9.402741467e-20
1.013211523e-19
1.090965884e-19
1.173065447e-19
1.258768043e-19
1.346996523e-19
1.436264218e-19
1.524601603e-19
1.609503867e-19
1.687934046e-19
1.756422029e-19
1.811284884e-19
1.848954714e-19
1.866370671e-19
1.861409445e-19
1.833389485e-19
1.783724373e-19
1.716775164e-19
1.640908738e-19
1.569909843e-19
1.525470068e-19
1.542726953e-19
1.68298065e-19
2.061108857e-19
2.900379514e-19
4.635099992e-19
8.093140961e-19
1.480781233e-18
2.753409486e-18
5.107972568e-18
9.360634534e-18
1.686028808e-17
2.97758414e-17
5.149116608e-17
8.710139205e-17
1.439343872e-16
2.318501031e-16
3.627130564e-16
5.478434573e-16
7.916857181e-16
1.080741522e-15
1.372729003e-15
1.606087303e-15
1.75942671e-15
1.921973456e-15
2.087709138e-15
1.831955824e-15
1.049482597e-15
5.133379276e-15
7.889380411e-15
6.519438067e-15
2.885462463e-13
4.714342012e-13
6.26330616e-14
2.013981562e-14
6.766839606e-14
5.512351838e-14
4.151894173e-14
6.125736986e-15
4.55981616e-15
7.476036305e-15
5.642108514e-15
3.404651179e-15
1.801786355e-15
8.269435952e-16
2.999240872e-16
6.279906219e-17
3.437178268e-17
2.145145168e-16
6.872822036e-16
1.624658711e-15
3.243853307e-15
5.614435786e-15
7.708390406e-15
4.827313443e-15
6.008143011e-15
4.110439611e-14
5.56583995e-14
6.810406305e-14
1.982386221e-14
6.169571295e-14
4.738918328e-13
2.844741088e-13
4.431454861e-15
4.261924921e-15
2.730237825e-15
4.151393275e-16
1.520811841e-15
2.002811952e-15
2.018850877e-15
1.843873564e-15
1.506145852e-15
1.025545093e-15
5.258333122e-16
1.539284762e-16
1.939864467e-16
1.477762303e-16
9.369474594e-21
1.206472697e-20
1.502491881e-20
1.787357838e-20
2.057693864e-20
2.311819062e-20
2.550958037e-20
2.778126899e-20
2.997613936e-20
3.214393781e-20
3.43372653e-20
3.660898912e-20
3.901066635e-20
4.159177434e-20
4.439938732e-20
4.747815141e-20
5.087046884e-20
5.461691838e-20
5.875670939e-20
6.332772991e-20
6.836582338e-20
7.390307937e-20
7.996527273e-20
8.656910196e-20
9.371945765e-20
1.014064675e-19
1.096015952e-19
1.182521851e-19
1.272743652e-19
1.365450078e-19
1.458937845e-19
1.550974043e-19
1.638788167e-19
1.719148299e-19
1.788537404e-19
1.843414076e-19
1.880513049e-19
1.897160059e-19
1.89161767e-19
1.863490827e-19
1.814153316e-19
1.747071894e-19
1.667991174e-19