/*--------------------------------*- C++ -*----------------------------------*\
  =========                 |
  \\      /  F ield         | OpenFOAM: The Open Source CFD Toolbox
   \\    /   O peration     | Website:  https://openfoam.org
    \\  /    A nd           | Version:  6
     \\/     M anipulation  |
\*---------------------------------------------------------------------------*/
FoamFile
{
    version     2.0;
    format      ascii;
    class       volScalarField;
    location    "0.0022";
    object      TRHS;
}
// * * * * * * * * * * * * * * * * * * * * * * * * * * * * * * * * * * * * * //

dimensions      [1 -1 -3 0 0 0 0];

internalField   nonuniform List<scalar> 
600
(
4.288068359e-09
1.927128771e-09
5.116901447e-10
-5.629054401e-10
-1.564551994e-09
-2.70129899e-09
-4.050298734e-09
-5.501451804e-09
-6.559515164e-09
-6.001090409e-09
-1.205118802e-09
1.29018601e-08
4.508023868e-08
1.034798278e-07
1.525161888e-07
1.669056008e-07
-1.998147188e-07
21.92721345
18.22874913
0
0
0
0
0
0
0
-0.005972238653
20.34657071
-5.117104714e-05
-2.519401748e-10
5.177007202e-09
2.501990665e-09
8.504758448e-10
-3.983538567e-10
-1.509369278e-09
-2.686382918e-09
-3.983019381e-09
-5.238629162e-09
-5.902487839e-09
-4.823395412e-09
8.469776246e-12
1.146442865e-08
3.273534293e-08
6.520391669e-08
1.176443833e-07
2.15837089e-07
5.252605665e-07
-5.472808191e-05
-4.604619419e-05
441.0458492
132.9583696
126.7899674
66.44120738
117.6990121
105.8928943
360.0707085
-1.788534894e-07
-1.455708974e-07
-1.361946654e-08
7.160016332e-08
5.390006595e-09
2.668455177e-09
9.660120539e-10
-3.363549838e-10
-1.501429901e-09
-2.731826017e-09
-4.091008617e-09
-5.424260379e-09
-6.229392363e-09
-5.511176118e-09
-1.781324596e-09
6.530807664e-09
1.988978523e-08
3.612842014e-08
5.749232092e-08
9.706744674e-08
1.566007913e-07
2.305938288e-07
7.034541066e-07
-0.002211539776
-0.0006554113317
-0.0006224748264
-0.0003180323844
-0.0005775872143
-0.0005205318966
-0.001805470981
-1.802824176e-07
-2.077036322e-07
-3.11091642e-07
-1.94981928e-07
5.010815944e-09
2.491547341e-09
9.023250082e-10
-3.5334689e-10
-1.525191041e-09
-2.827868467e-09
-4.348912817e-09
-5.97147523e-09
-7.207016715e-09
-6.969651393e-09
-3.323492263e-09
6.575195259e-09
2.590297389e-08
5.618147845e-08
1.059739388e-07
1.992833225e-07
5.038107349e-07
-4.39275317e-05
-2.758763435e-05
436.8921333
127.0402084
120.1428564
59.72073683
111.4271103
100.5996502
356.5225472
-2.264902501e-07
-1.624070968e-07
-2.281368778e-08
6.33273152e-08
4.148995785e-09
2.046920834e-09
7.038931276e-10
-4.217521272e-10
-1.565145064e-09
-2.959526231e-09
-4.752191273e-09
-6.925390878e-09
-9.108973754e-09
-1.021854228e-08
-7.771821764e-09
3.200656989e-09
3.140607253e-08
8.51725159e-08
1.289136016e-07
1.380627779e-07
-2.236753742e-07
17.63588928
10.89959331
0
0
0
0
0
0
0
-0.006186229415
17.08496159
-4.295220307e-05
-2.154444654e-10
2.955221664e-09
1.421682417e-09
4.190014929e-10
-5.178234359e-10
-1.60311294e-09
-3.098130768e-09
-5.244459621e-09
-8.226498591e-09
-1.206198555e-08
-1.635166317e-08
-1.965074315e-08
-1.793746105e-08
-5.099566602e-10
4.675804429e-08
2.000570184e-07
-0.0001046168064
41.55317049
0
0
0
0
0
0
0
0
0
0
0
391.8050893
-0.002065114083
1.609483054e-09
7.137484039e-10
9.470201778e-11
-6.219881274e-10
-1.623954695e-09
-3.194077516e-09
-5.662154877e-09
-9.419253776e-09
-1.49415384e-08
-2.291050883e-08
-3.451733614e-08
-5.184510158e-08
-7.10067295e-08
-2.203337948e-08
6.251147373e-08
-0.0006627790182
106.5547472
0
0
0
0
0
0
0
0
0
0
0
-0.005417580673
-2.511078054e-05
3.046503045e-10
2.251858272e-11
-2.268670622e-10
-7.280861841e-10
-1.639134055e-09
-3.248083315e-09
-5.924447142e-09
-1.011421848e-08
-1.630261534e-08
-2.497862389e-08
-3.666229129e-08
-5.269601661e-08
-1.001787884e-07
-1.58790802e-07
-2.857414147e-07
156.4892919
0
0
0
0
0
0
0
0
0
0
0
0
0
-0.002528705261
-7.825713014e-10
-5.631382494e-10
-5.117697555e-10
-8.413961441e-10
-1.689014635e-09
-3.356958781e-09
-6.269152009e-09
-1.097281465e-08
-1.807543697e-08
-2.809502203e-08
-4.118154501e-08
-5.890046599e-08
-1.408917607e-07
-2.426769301e-07
-2.00119961e-07
-0.006212997051
0
0
0
0
0
0
0
0
0
0
0
0
0
0
-1.514589776e-09
-9.731043505e-10
-7.305407729e-10
-9.559836002e-10
-1.779043218e-09
-3.525132182e-09
-6.703330668e-09
-1.20742817e-08
-2.075489431e-08
-3.43728483e-08
-5.514342099e-08
-8.426303176e-08
-9.251811297e-08
-1.168721033e-07
-0.0001753880661
69.5680886
0
0
0
0
0
0
0
0
0
0
0
0
0
0
-1.815970054e-09
-1.167395226e-09
-8.61663541e-10
-1.054245351e-09
-1.86792456e-09
-3.624251647e-09
-6.831331625e-09
-1.225783637e-08
-2.103765551e-08
-3.483785392e-08
-5.591436035e-08
-8.556578857e-08
-9.456276107e-08
-1.203350352e-07
-0.0001753190919
69.53973364
0
0
0
0
0
0
0
0
0
0
0
0
0
0
-1.68140368e-09
-1.141962977e-09
-9.016441931e-10
-1.131908966e-09
-1.950636821e-09
-3.64656561e-09
-6.643697999e-09
-1.150779745e-08
-1.89000231e-08
-2.943345558e-08
-4.342181661e-08
-6.262057337e-08
-1.468978208e-07
-2.531691347e-07
-2.084562136e-07
-0.006215769986
0
0
0
0
0
0
0
0
0
0
0
0
0
0
-1.177741634e-09
-9.297036441e-10
-8.64995119e-10
-1.19994434e-09
-2.059764913e-09
-3.711123044e-09
-6.522494145e-09
-1.097000464e-08
-1.761437666e-08
-2.708489781e-08
-4.009990802e-08
-5.832182579e-08
-1.098066669e-07
-1.764049206e-07
-2.890711346e-07
156.406716
0
0
0
0
0
0
0
0
0
0
0
0
0
-0.00247837817
-4.281179911e-10
-5.903549468e-10
-7.733126762e-10
-1.257439354e-09
-2.184876239e-09
-3.809846173e-09
-6.462146592e-09
-1.057209488e-08
-1.670885975e-08
-2.570840478e-08
-3.89710447e-08
-5.882320327e-08
-8.149096946e-08
-3.629150133e-08
5.055672048e-08
-0.0006619207167
106.2901468
0
0
0
0
0
0
0
0
0
0
0
-0.005430656131
-2.640565848e-05
4.073451063e-10
-2.003750767e-10
-6.512955289e-10
-1.293491109e-09
-2.283949452e-09
-3.850313688e-09
-6.237434631e-09
-9.679009293e-09
-1.430115338e-08
-1.98728314e-08
-2.51816679e-08
-2.648546051e-08
-1.355693474e-08
2.60862325e-08
1.645826876e-07
-0.0001041225571
41.34922237
0
0
0
0
0
0
0
0
0
0
0
391.1475364
-0.002065608438
1.163269024e-09
1.595504366e-10
-5.285179879e-10
-1.308011869e-09
-2.344819307e-09
-3.839163751e-09
-5.945084948e-09
-8.708928622e-09
-1.187619217e-08
-1.453653741e-08
-1.440097027e-08
-6.711549664e-09
1.713314569e-08
6.498255478e-08
9.851031971e-08
1.053133997e-07
-2.487249639e-07
17.2768163
10.02012392
0
0
0
0
0
0
0
-0.006133422172
18.12055558
-4.55589104e-05
-8.500694533e-11
1.695203171e-09
4.191544661e-10
-4.352318597e-10
-1.309480704e-09
-2.381320396e-09
-3.829459138e-09
-5.765060446e-09
-8.144607206e-09
-1.062140212e-08
-1.228792459e-08
-1.141643832e-08
-5.347545776e-09
8.985450628e-09
3.321460549e-08
7.644215633e-08
1.620382401e-07
4.598386339e-07
-4.305074392e-05
-2.536522801e-05
435.2302211
128.5608766
122.6369614
62.44464494
113.9959277
102.5664572
357.0164545
-1.908395777e-07
-1.536826852e-07
-2.339695944e-08
8.196796884e-08
1.910893447e-09
5.299869203e-10
-3.912343537e-10
-1.308421158e-09
-2.402177763e-09
-3.850882882e-09
-5.754938893e-09
-8.062083678e-09
-1.043474339e-08
-1.209014538e-08
-1.176613025e-08
-8.073958775e-09
-6.044052468e-10
8.761108738e-09
2.309357285e-08
5.471772033e-08
1.102894169e-07
2.067756064e-07
6.688939237e-07
-0.002192594511
-0.0006481286377
-0.0006184153561
-0.0003150798948
-0.000575085263
-0.0005175344094
-0.001799388008
-1.945582213e-07
-2.080630353e-07
-3.271915687e-07
-1.788536967e-07
1.781534044e-09
4.780748771e-10
-4.02068014e-10
-1.306761278e-09
-2.408735098e-09
-3.905669271e-09
-5.909990658e-09
-8.403528633e-09
-1.10366519e-08
-1.292432194e-08
-1.233248044e-08
-6.642191656e-09
7.2179986e-09
3.097694783e-08
7.374782613e-08
1.567079242e-07
4.560961373e-07
-4.249768302e-05
-2.47109688e-05
435.1811727
128.5486931
122.6854901
62.54606192
114.1376788
102.736998
357.160159
-2.121413003e-07
-1.728870909e-07
9.097177829e-09
7.43808077e-08
1.349813901e-09
2.910082686e-10
-4.602728977e-10
-1.295239302e-09
-2.401139755e-09
-3.98467601e-09
-6.237486042e-09
-9.221124393e-09
-1.272031092e-08
-1.582211212e-08
-1.627949532e-08
-9.327172578e-09
1.36247817e-08
6.030593166e-08
9.048148687e-08
9.546336671e-08
-2.566922907e-07
17.05672269
9.759568854
0
0
0
0
0
0
0
-0.006121988256
18.3328613
-4.610303151e-05
-8.18533442e-11
)
;

boundaryField
{
    lowerWall
    {
        type            calculated;
        value           nonuniform 0();
    }
    atmosphere
    {
        type            calculated;
        value           nonuniform List<scalar> 
20
(
4.288068359e-09
5.177007202e-09
5.390006595e-09
5.010815944e-09
4.148995785e-09
2.955221664e-09
1.609483054e-09
3.046503045e-10
-7.825713014e-10
-1.514589776e-09
-1.815970054e-09
-1.68140368e-09
-1.177741634e-09
-4.281179911e-10
4.073451063e-10
1.163269024e-09
1.695203171e-09
1.910893447e-09
1.781534044e-09
1.349813901e-09
)
;
    }
    rightWall
    {
        type            empty;
    }
    leftWall
    {
        type            empty;
    }
    frontAndBack
    {
        type            calculated;
        value           nonuniform 0();
    }
    procBoundary2to0
    {
        type            processor;
        value           nonuniform List<scalar> 
30
(
2.624598217e-09
8.636114442e-10
-1.004091553e-10
-8.551961148e-10
-1.67983032e-09
-2.773639794e-09
-4.275774936e-09
-6.215218323e-09
-8.430978202e-09
-1.031164974e-08
-1.021377347e-08
-3.921111918e-09
1.935564604e-08
7.298633865e-08
2.344275023e-07
-0.0001163929114
46.23581439
0
0
0
0
0
0
0
0
0
0
0
393.7128196
-0.002066295491
)
;
    }
    procBoundary2to3
    {
        type            processor;
        value           nonuniform List<scalar> 
20
(
-9.828763159e-05
-0.008773702983
-0.007212221876
-0.008774500233
-8.647299967e-05
427.410757
9.95338304
0
0
0
0
0
0
10.46709155
428.2645126
-3.379468263e-05
-0.008695011692
-0.007138562331
-0.008690896168
-2.985053753e-05
)
;
    }
    procBoundary2to4
    {
        type            processor;
        value           nonuniform List<scalar> 
30
(
7.295435854e-10
1.734016708e-11
-5.340956709e-10
-1.271043728e-09
-2.361704721e-09
-4.067519152e-09
-6.667839926e-09
-1.045271371e-08
-1.557979275e-08
-2.185919089e-08
-2.809924103e-08
-3.062987351e-08
-1.926693041e-08
1.857031018e-08
1.538270667e-07
-0.0001032457453
40.9977723
0
0
0
0
0
0
0
0
0
0
0
391.0692514
-0.002065449672
)
;
    }
}


// ************************************************************************* //
