/*--------------------------------*- C++ -*----------------------------------*\
  =========                 |
  \\      /  F ield         | OpenFOAM: The Open Source CFD Toolbox
   \\    /   O peration     | Website:  https://openfoam.org
    \\  /    A nd           | Version:  6
     \\/     M anipulation  |
\*---------------------------------------------------------------------------*/
FoamFile
{
    version     2.0;
    format      ascii;
    class       volScalarField;
    location    "0.0048";
    object      p;
}
// * * * * * * * * * * * * * * * * * * * * * * * * * * * * * * * * * * * * * //

dimensions      [1 -1 -2 0 0 0 0];

internalField   nonuniform List<scalar> 
9600
(
-0.0009699162532
-0.0009536151397
-0.0009373140261
-0.0009210129125
-0.000904711799
-0.0008884106854
-0.0008721095718
-0.0008558084582
-0.0008395073447
-0.0008232062311
-0.0008069051175
-0.000790604004
-0.0007743028904
-0.0007580017768
-0.0007417006633
-0.0007253995497
-0.0007090984361
-0.0006927973226
-0.0006764962089
-0.0006601950954
-0.0006438939818
-0.0006275928682
-0.0006112917547
-0.0005949906411
-0.0005786895275
-0.000562388414
-0.0005460873004
-0.0005297861868
-0.0005134850732
-0.0004971839597
-0.0004808828461
-0.0004645817325
-0.000448280619
-0.0004319795053
-0.0004156783918
-0.0003993772782
-0.0003830761646
-0.0003667750511
-0.0003504739375
-0.0003341728239
-0.0003178717104
-0.0003015705968
-0.0002852694832
-0.0002689683697
-0.0002526672561
-0.0002363661425
-0.000220065029
-0.0002037639154
-0.0001874628019
-0.0001711616884
-0.0001548605749
-0.0001385594614
-0.000122258348
-0.0001059572346
-8.965612135e-05
-7.335500817e-05
-5.705389514e-05
-4.075278229e-05
-2.445166969e-05
-8.150557469e-06
8.150554239e-06
2.445166529e-05
4.075277575e-05
5.705388563e-05
7.335499104e-05
8.965606147e-05
-2.503800352e-10
334.6285285
192.1663768
27.32828098
-117.3446975
-275.3774822
-487.378097
-731.7988303
-984.4644305
-1242.691174
-1511.308696
-1793.613784
-2088.753209
-2391.693543
-2693.945615
-2985.229299
-3255.546688
-3496.645297
-3702.74481
-3870.671642
-3999.526776
-4089.987111
-4143.487944
-4161.458645
-4144.777858
-4093.478681
-4006.759223
-3883.267423
-3721.664776
-3521.372749
-3283.391726
-3010.9591
-2709.85408
-2388.201432
-2055.712272
-1722.178481
-1395.398004
-1079.501014
-774.2412219
-475.0188465
-175.4905497
123.434713
399.7087015
634.2337045
869.8928983
1141.728316
1407.120364
1207.71038
1207.711269
1207.711285
1207.711301
1207.711318
1207.711334
1207.71038
-0.0009699162532
-0.0009536151397
-0.0009373140261
-0.0009210129125
-0.000904711799
-0.0008884106854
-0.0008721095718
-0.0008558084582
-0.0008395073447
-0.0008232062311
-0.0008069051175
-0.000790604004
-0.0007743028904
-0.0007580017768
-0.0007417006633
-0.0007253995497
-0.0007090984361
-0.0006927973226
-0.000676496209
-0.0006601950954
-0.0006438939818
-0.0006275928682
-0.0006112917547
-0.0005949906411
-0.0005786895275
-0.000562388414
-0.0005460873004
-0.0005297861868
-0.0005134850732
-0.0004971839597
-0.0004808828461
-0.0004645817325
-0.000448280619
-0.0004319795053
-0.0004156783918
-0.0003993772782
-0.0003830761646
-0.0003667750511
-0.0003504739375
-0.0003341728239
-0.0003178717103
-0.0003015705968
-0.0002852694832
-0.0002689683696
-0.000252667256
-0.0002363661424
-0.0002200650289
-0.0002037639153
-0.0001874628017
-0.0001711616882
-0.0001548605747
-0.0001385594611
-0.0001222583477
-0.0001059572342
-8.965612085e-05
-7.335500757e-05
-5.705389438e-05
-4.07527813e-05
-2.445166838e-05
-8.150555664e-06
8.150556774e-06
2.445166912e-05
4.075278284e-05
5.705390366e-05
7.335504344e-05
4.543462536e-11
3635.821482
1146.3208
351.4615994
5.874766001
-210.4206473
-399.7378626
-602.1451331
-821.6245002
-1052.106771
-1291.056612
-1538.824692
-1795.574345
-2059.546086
-2326.614133
-2590.625027
-2844.304408
-3080.4052
-3292.642815
-3476.25995
-3628.201455
-3746.97295
-3832.251278
-3884.39721
-3903.973739
-3891.387162
-3846.685434
-3769.562709
-3659.549343
-3516.379975
-3340.459549
-3133.347833
-2898.117202
-2639.472638
-2363.532553
-2077.238606
-1787.38426
-1499.453182
-1216.690137
-939.7543274
-667.1337163
-396.8481275
-129.460576
131.3299097
392.2659179
696.386565
1148.843547
2071.343003
4706.040028
1207.71038
1207.711285
1207.711301
1207.711318
1207.711334
1207.71038
-0.0009699162532
-0.0009536151397
-0.0009373140261
-0.0009210129125
-0.000904711799
-0.0008884106854
-0.0008721095718
-0.0008558084583
-0.0008395073447
-0.0008232062311
-0.0008069051175
-0.000790604004
-0.0007743028904
-0.0007580017768
-0.0007417006633
-0.0007253995497
-0.0007090984361
-0.0006927973226
-0.000676496209
-0.0006601950954
-0.0006438939819
-0.0006275928683
-0.0006112917547
-0.0005949906411
-0.0005786895275
-0.000562388414
-0.0005460873004
-0.0005297861868
-0.0005134850732
-0.0004971839597
-0.0004808828461
-0.0004645817325
-0.000448280619
-0.0004319795053
-0.0004156783918
-0.0003993772782
-0.0003830761646
-0.0003667750511
-0.0003504739375
-0.0003341728239
-0.0003178717103
-0.0003015705967
-0.0002852694831
-0.0002689683695
-0.000252667256
-0.0002363661423
-0.0002200650288
-0.0002037639152
-0.0001874628016
-0.000171161688
-0.0001548605744
-0.0001385594608
-0.0001222583473
-0.0001059572338
-8.965612028e-05
-7.335500686e-05
-5.705389349e-05
-4.075278016e-05
-2.445166685e-05
-8.150553546e-06
8.150559734e-06
2.445167302e-05
4.075278745e-05
5.7053915e-05
7.335510922e-05
8.812614341e-10
130.0572247
263.337461
61.45127262
-144.9046526
-330.508811
-511.0424004
-699.873021
-900.4817969
-1111.317524
-1330.644515
-1557.401875
-1790.358569
-2027.286981
-2264.636715
-2497.678006
-2720.99992
-2929.163569
-3117.293289
-3281.473258
-3418.915825
-3527.91573
-3607.646252
-3657.870534
-3678.649669
-3670.109231
-3632.310761
-3565.248388
-3468.973875
-3343.824652
-3190.71047
-3011.388868
-2808.651604
-2586.345038
-2349.175544
-2102.283822
-1850.62755
-1598.301343
-1348.013774
-1100.913695
-856.8767919
-615.272084
-375.7261021
-137.1639911
107.1432764
374.5762765
685.9392303
1023.402248
1070.543575
1207.71038
1207.711285
1207.711301
1207.711318
1207.711334
1207.71038
-0.0009699162532
-0.0009536151397
-0.0009373140261
-0.0009210129125
-0.000904711799
-0.0008884106854
-0.0008721095718
-0.0008558084583
-0.0008395073447
-0.0008232062311
-0.0008069051176
-0.000790604004
-0.0007743028904
-0.0007580017769
-0.0007417006633
-0.0007253995497
-0.0007090984361
-0.0006927973226
-0.000676496209
-0.0006601950954
-0.0006438939819
-0.0006275928683
-0.0006112917547
-0.0005949906411
-0.0005786895275
-0.000562388414
-0.0005460873004
-0.0005297861868
-0.0005134850733
-0.0004971839597
-0.0004808828461
-0.0004645817325
-0.000448280619
-0.0004319795053
-0.0004156783918
-0.0003993772782
-0.0003830761646
-0.000366775051
-0.0003504739375
-0.0003341728239
-0.0003178717103
-0.0003015705967
-0.0002852694831
-0.0002689683695
-0.0002526672559
-0.0002363661423
-0.0002200650287
-0.0002037639151
-0.0001874628014
-0.0001711616878
-0.0001548605741
-0.0001385594605
-0.0001222583469
-0.0001059572333
-8.965611966e-05
-7.335500611e-05
-5.705389257e-05
-4.0752779e-05
-2.445166529e-05
-8.150551238e-06
8.150563477e-06
2.445167859e-05
4.075278963e-05
5.705387199e-05
-2.707242722e-10
-2884.155399
-845.2200725
-284.5103219
-224.1192179
-316.4658015
-455.6983958
-614.081019
-785.854901
-969.1452674
-1162.07312
-1362.841057
-1569.822283
-1781.214606
-1994.650491
-2207.009846
-2414.491582
-2612.892316
-2797.99208
-2965.923905
-3113.447763
-3238.087204
-3338.134464
-3412.547291
-3460.787164
-3482.643046
-3478.088076
-3447.19572
-3390.137205
-3307.25683
-3199.212041
-3067.140558
-2912.813041
-2738.718424
-2548.041161
-2344.500531
-2132.054442
-1914.502248
-1695.072409
-1476.110665
-1258.971593
-1044.151901
-831.6049217
-620.9775004
-411.3754543
-201.0786235
8.860196301
196.9647948
265.8245111
-121.2155907
-1932.537932
1207.71038
1207.711301
1207.711318
1207.711334
1207.71038
-0.0009699162532
-0.0009536151397
-0.0009373140261
-0.0009210129125
-0.000904711799
-0.0008884106854
-0.0008721095718
-0.0008558084583
-0.0008395073447
-0.0008232062311
-0.0008069051176
-0.000790604004
-0.0007743028904
-0.0007580017769
-0.0007417006633
-0.0007253995497
-0.0007090984362
-0.0006927973226
-0.000676496209
-0.0006601950954
-0.0006438939819
-0.0006275928683
-0.0006112917547
-0.0005949906412
-0.0005786895276
-0.000562388414
-0.0005460873004
-0.0005297861868
-0.0005134850733
-0.0004971839597
-0.0004808828461
-0.0004645817325
-0.000448280619
-0.0004319795053
-0.0004156783918
-0.0003993772782
-0.0003830761646
-0.000366775051
-0.0003504739375
-0.0003341728238
-0.0003178717103
-0.0003015705967
-0.0002852694831
-0.0002689683695
-0.0002526672559
-0.0002363661422
-0.0002200650286
-0.0002037639149
-0.0001874628012
-0.0001711616876
-0.0001548605739
-0.0001385594601
-0.0001222583464
-0.0001059572327
-8.965611901e-05
-7.335500534e-05
-5.705389168e-05
-4.075277798e-05
-2.445166402e-05
-8.150549157e-06
8.1505682e-06
2.445169132e-05
4.075282399e-05
6.141026373e-11
3391.971017
41.69357231
-342.3000949
-332.0656065
-356.9775647
-441.1674257
-561.765518
-703.7576109
-860.3505416
-1028.203401
-1205.022855
-1388.861943
-1577.871481
-1770.068697
-1963.131416
-2154.300694
-2340.424198
-2518.122428
-2684.022045
-2834.992073
-2968.329335
-3081.86627
-3173.995118
-3243.62367
-3290.087002
-3313.046448
-3312.402158
-3288.241845
-3240.836839
-3170.687375
-3078.6036
-2965.800119
-2833.973542
-2685.333849
-2522.563709
-2348.693215
-2166.89356
-1980.217498
-1791.33742
-1602.346423
-1414.673009
-1229.120844
-1045.988415
-865.1759606
-686.2560676
-508.9187742
-335.0004651
-172.734484
-35.82460489
111.3453021
708.78127
4325.339389
1207.71038
1207.711318
1207.711334
1207.71038
-0.0009699162532
-0.0009536151397
-0.0009373140261
-0.0009210129125
-0.000904711799
-0.0008884106854
-0.0008721095718
-0.0008558084583
-0.0008395073447
-0.0008232062311
-0.0008069051176
-0.000790604004
-0.0007743028904
-0.0007580017769
-0.0007417006633
-0.0007253995497
-0.0007090984362
-0.0006927973226
-0.000676496209
-0.0006601950955
-0.0006438939819
-0.0006275928683
-0.0006112917547
-0.0005949906412
-0.0005786895276
-0.000562388414
-0.0005460873004
-0.0005297861868
-0.0005134850733
-0.0004971839597
-0.0004808828461
-0.0004645817325
-0.000448280619
-0.0004319795053
-0.0004156783918
-0.0003993772782
-0.0003830761646
-0.000366775051
-0.0003504739375
-0.0003341728238
-0.0003178717103
-0.0003015705967
-0.000285269483
-0.0002689683694
-0.0002526672558
-0.0002363661421
-0.0002200650285
-0.0002037639148
-0.0001874628011
-0.0001711616874
-0.0001548605736
-0.0001385594598
-0.000122258346
-0.0001059572322
-8.965611833e-05
-7.335500455e-05
-5.705389084e-05
-4.075277719e-05
-2.44516634e-05
-8.150548452e-06
8.150570791e-06
2.445170401e-05
4.075285984e-05
4.238821772e-10
259.3046969
1.237905357
-233.6304146
-344.4960975
-430.5801027
-529.4842138
-646.4641391
-778.8607236
-923.6153909
-1078.325616
-1240.985884
-1409.747626
-1582.770575
-1758.09575
-1933.544141
-2106.674234
-2274.817605
-2435.184687
-2585.012923
-2721.720353
-2843.033364
-2947.068761
-3032.365091
-3097.869025
-3142.891734
-3167.052755
-3170.229444
-3152.525669
-3114.268782
-3056.034773
-2978.693547
-2883.458085
-2771.919264
-2646.048085
-2508.152084
-2360.779127
-2206.573393
-2048.101026
-1887.676793
-1727.227552
-1568.218172
-1411.638947
-1258.024247
-1107.455912
-959.5296537
-813.317277
-667.1884596
-517.05407
-347.7000436
-106.3347016
330.9848188
910.282624
1207.71038
1207.711318
1207.711334
1207.71038
-0.0009699162532
-0.0009536151397
-0.0009373140261
-0.0009210129125
-0.000904711799
-0.0008884106854
-0.0008721095718
-0.0008558084583
-0.0008395073447
-0.0008232062311
-0.0008069051176
-0.000790604004
-0.0007743028904
-0.0007580017769
-0.0007417006633
-0.0007253995497
-0.0007090984362
-0.0006927973226
-0.000676496209
-0.0006601950955
-0.0006438939819
-0.0006275928683
-0.0006112917547
-0.0005949906412
-0.0005786895276
-0.000562388414
-0.0005460873005
-0.0005297861868
-0.0005134850733
-0.0004971839597
-0.0004808828461
-0.0004645817325
-0.000448280619
-0.0004319795054
-0.0004156783918
-0.0003993772782
-0.0003830761646
-0.000366775051
-0.0003504739374
-0.0003341728238
-0.0003178717102
-0.0003015705967
-0.000285269483
-0.0002689683694
-0.0002526672558
-0.0002363661421
-0.0002200650284
-0.0002037639147
-0.000187462801
-0.0001711616872
-0.0001548605734
-0.0001385594595
-0.0001222583456
-0.0001059572316
-8.965611761e-05
-7.335500368e-05
-5.705388991e-05
-4.075277647e-05
-2.445166337e-05
-8.150549713e-06
8.150567904e-06
2.445169493e-05
3.237445835e-13
596.1947495
177.7485256
-62.43121217
-248.9805059
-381.7262974
-491.3817387
-599.7464976
-715.7699172
-841.6319566
-976.9526509
-1120.52732
-1270.878594
-1426.405232
-1585.402206
-1746.035244
-1906.310447
-2064.068668
-2217.019886
-2362.816811
-2499.153479
-2623.868815
-2735.036101
-2831.025838
-2910.53718
-2972.600639
-3016.559737
-3042.04242
-3048.932992
-3037.354152
-3007.664566
-2960.47232
-2896.658024
-2817.397461
-2724.172124
-2618.757898
-2503.184574
-2379.663399
-2250.485485
-2117.902232
-1984.006262
-1850.633772
-1719.3002
-1591.163213
-1466.987111
-1347.068409
-1231.064933
-1117.609397
-1003.360566
-880.5710305
-731.5628685
-519.9513135
-188.7847522
310.8449743
1181.686104
1207.71038
1207.711334
1207.71038
-0.0009699162532
-0.0009536151397
-0.0009373140261
-0.0009210129125
-0.000904711799
-0.0008884106854
-0.0008721095718
-0.0008558084583
-0.0008395073447
-0.0008232062311
-0.0008069051176
-0.0007906040041
-0.0007743028905
-0.0007580017769
-0.0007417006634
-0.0007253995498
-0.0007090984362
-0.0006927973226
-0.000676496209
-0.0006601950955
-0.0006438939819
-0.0006275928683
-0.0006112917548
-0.0005949906412
-0.0005786895276
-0.000562388414
-0.0005460873005
-0.0005297861869
-0.0005134850733
-0.0004971839597
-0.0004808828461
-0.0004645817325
-0.000448280619
-0.0004319795054
-0.0004156783918
-0.0003993772782
-0.0003830761646
-0.000366775051
-0.0003504739374
-0.0003341728238
-0.0003178717102
-0.0003015705966
-0.000285269483
-0.0002689683694
-0.0002526672558
-0.0002363661421
-0.0002200650284
-0.0002037639147
-0.0001874628009
-0.0001711616871
-0.0001548605732
-0.0001385594592
-0.0001222583452
-0.0001059572311
-8.965611684e-05
-7.335500265e-05
-5.705388865e-05
-4.075277521e-05
-2.44516629e-05
-8.150551829e-06
8.15056305e-06
2.445170816e-05
4.157946862e-10
-326.7162052
-82.08058148
-179.7424589
-318.148406
-442.0625549
-553.4914622
-662.3699535
-775.2597686
-894.9697463
-1022.063019
-1155.980825
-1295.625617
-1439.623503
-1586.430003
-1734.365371
-1881.626259
-2026.301563
-2166.406541
-2299.937723
-2424.942048
-2539.589289
-2642.236489
-2731.476561
-2806.167385
-2865.442332
-2908.706188
-2935.622707
-2946.100516
-2940.283494
-2918.549269
-2881.515723
-2830.051268
-2765.282256
-2688.590959
-2601.599038
-2506.133162
-2404.171147
-2297.770229
-2188.983941
-2079.779421
-1971.967861
-1867.154166
-1766.698175
-1671.666287
-1582.740085
-1500.027656
-1422.671714
-1348.051501
-1270.284776
-1178.007472
-1053.109005
-877.0099971
-659.8169785
-533.2753181
1207.71038
1207.711334
1207.71038
-0.0009699162532
-0.0009536151397
-0.0009373140261
-0.0009210129125
-0.000904711799
-0.0008884106854
-0.0008721095718
-0.0008558084583
-0.0008395073448
-0.0008232062312
-0.0008069051176
-0.0007906040041
-0.0007743028905
-0.0007580017769
-0.0007417006634
-0.0007253995498
-0.0007090984362
-0.0006927973227
-0.0006764962091
-0.0006601950955
-0.0006438939819
-0.0006275928683
-0.0006112917548
-0.0005949906412
-0.0005786895276
-0.000562388414
-0.0005460873005
-0.0005297861869
-0.0005134850733
-0.0004971839597
-0.0004808828461
-0.0004645817325
-0.000448280619
-0.0004319795054
-0.0004156783918
-0.0003993772782
-0.0003830761646
-0.000366775051
-0.0003504739374
-0.0003341728238
-0.0003178717102
-0.0003015705967
-0.000285269483
-0.0002689683694
-0.0002526672558
-0.0002363661421
-0.0002200650284
-0.0002037639147
-0.0001874628009
-0.000171161687
-0.0001548605731
-0.000138559459
-0.0001222583449
-0.0001059572306
-8.965611605e-05
-7.335500143e-05
-5.705388674e-05
-4.075277229e-05
-2.445165909e-05
-8.15055086e-06
8.150542862e-06
-2.663591912e-10
3462.462643
712.7673268
0.3810463923
-256.3204177
-401.8210725
-514.8985262
-618.1679094
-721.0009674
-827.9512416
-940.9485773
-1060.374976
-1185.734582
-1316.04765
-1450.062149
-1586.35876
-1723.400234
-1859.557675
-1993.133911
-2122.394881
-2245.611971
-2361.112515
-2467.332228
-2562.86306
-2646.491318
-2717.223684
-2774.300988
-2817.201855
-2845.639586
-2859.556499
-2859.119596
-2844.71996
-2816.975467
-2776.733885
-2725.072218
-2663.288946
-2592.887093
-2515.546693
-2433.085669
-2347.409525
-2260.454008
-2174.12891
-2090.272364
-2010.619588
-1936.780598
-1870.213116
-1812.172219
-1763.60941
-1724.975549
-1695.867111
-1674.4879
-1657.053688
-1637.452377
-1606.329455
-1539.835956
-1328.935576
-441.4728605
1207.71038
10009.50389
-0.0009699162532
-0.0009536151397
-0.0009373140261
-0.0009210129125
-0.000904711799
-0.0008884106855
-0.0008721095719
-0.0008558084583
-0.0008395073448
-0.0008232062312
-0.0008069051176
-0.0007906040041
-0.0007743028905
-0.0007580017769
-0.0007417006634
-0.0007253995498
-0.0007090984362
-0.0006927973227
-0.0006764962091
-0.0006601950955
-0.000643893982
-0.0006275928684
-0.0006112917548
-0.0005949906412
-0.0005786895276
-0.0005623884141
-0.0005460873005
-0.0005297861869
-0.0005134850733
-0.0004971839597
-0.0004808828461
-0.0004645817326
-0.000448280619
-0.0004319795054
-0.0004156783918
-0.0003993772782
-0.0003830761646
-0.000366775051
-0.0003504739375
-0.0003341728238
-0.0003178717102
-0.0003015705967
-0.000285269483
-0.0002689683694
-0.0002526672558
-0.0002363661421
-0.0002200650284
-0.0002037639147
-0.0001874628009
-0.0001711616871
-0.0001548605731
-0.000138559459
-0.0001222583447
-0.0001059572302
-8.965611541e-05
-7.335500024e-05
-5.705388448e-05
-4.075276733e-05
-2.445164639e-05
-8.150516591e-06
8.15062519e-06
5.970650683e-11
-129.7909835
-285.0626885
-372.8502363
-444.1100319
-517.929573
-597.5565906
-683.2964755
-775.5329796
-874.6166177
-980.5217469
-1092.778806
-1210.560916
-1332.794881
-1458.245891
-1585.570436
-1713.347282
-1840.098302
-1964.30885
-2084.453309
-2199.027629
-2306.586986
-2405.784967
-2495.409995
-2574.415923
-2641.944813
-2697.341743
-2740.162308
-2770.174832
-2787.359677
-2791.908297
-2784.223367
-2764.919638
-2734.823349
-2694.967894
-2646.584343
-2591.086478
-2530.049929
-2465.184505
-2398.299707
-2331.26635
-2265.981153
-2204.342275
-2148.240247
-2099.562411
-2060.206321
-2032.100785
-2017.23847
-2017.731847
-2035.931905
-2074.72478
-2138.246998
-2233.302003
-2371.013161
-2564.260728
-2801.109613
-2915.7419
11173.05389
15600.17542
-0.0009699162532
-0.0009536151397
-0.0009373140261
-0.0009210129125
-0.000904711799
-0.0008884106855
-0.0008721095719
-0.0008558084583
-0.0008395073448
-0.0008232062312
-0.0008069051176
-0.0007906040041
-0.0007743028905
-0.000758001777
-0.0007417006634
-0.0007253995498
-0.0007090984363
-0.0006927973227
-0.0006764962091
-0.0006601950955
-0.000643893982
-0.0006275928684
-0.0006112917548
-0.0005949906413
-0.0005786895276
-0.0005623884141
-0.0005460873005
-0.0005297861869
-0.0005134850733
-0.0004971839598
-0.0004808828461
-0.0004645817326
-0.000448280619
-0.0004319795054
-0.0004156783918
-0.0003993772782
-0.0003830761646
-0.000366775051
-0.0003504739375
-0.0003341728238
-0.0003178717103
-0.0003015705967
-0.000285269483
-0.0002689683695
-0.0002526672558
-0.0002363661422
-0.0002200650285
-0.0002037639148
-0.000187462801
-0.0001711616872
-0.0001548605733
-0.0001385594591
-0.0001222583448
-0.0001059572302
-8.965611513e-05
-7.335499964e-05
-5.705388352e-05
-4.075276579e-05
-2.445164196e-05
-8.150495063e-06
8.150739526e-06
9.164331926e-10
-3696.575199
-1350.387294
-762.6200166
-629.3517535
-628.2435118
-674.1158187
-741.9440045
-823.2356074
-914.4807184
-1013.765383
-1119.68148
-1230.960093
-1346.350241
-1464.58173
-1584.35601
-1704.346766
-1823.206031
-1939.575925
-2052.106878
-2159.481817
-2260.444644
-2353.830135
-2438.592527
-2513.830441
-2578.806939
-2632.964069
-2675.932268
-2707.535397
-2727.793051
-2736.921633
-2735.335191
-2723.645466
-2702.659825
-2673.375801
-2636.972126
-2594.7967
-2548.351501
-2499.27365
-2449.312526
-2400.305678
-2354.159839
-2312.844761
-2278.405164
-2252.992773
-2238.921918
-2238.761334
-2255.489135
-2292.76
-2355.382386
-2450.210305
-2587.886572
-2786.476926
-3080.14826
-3545.053102
-4395.457407
-6389.814627
17596.65918
19173.65448
-0.0009699162532
-0.0009536151397
-0.0009373140261
-0.0009210129125
-0.000904711799
-0.0008884106855
-0.0008721095719
-0.0008558084583
-0.0008395073448
-0.0008232062312
-0.0008069051177
-0.0007906040041
-0.0007743028905
-0.000758001777
-0.0007417006634
-0.0007253995498
-0.0007090984363
-0.0006927973227
-0.0006764962091
-0.0006601950956
-0.000643893982
-0.0006275928684
-0.0006112917548
-0.0005949906413
-0.0005786895277
-0.0005623884141
-0.0005460873005
-0.0005297861869
-0.0005134850733
-0.0004971839598
-0.0004808828461
-0.0004645817326
-0.000448280619
-0.0004319795054
-0.0004156783918
-0.0003993772782
-0.0003830761646
-0.000366775051
-0.0003504739375
-0.0003341728238
-0.0003178717103
-0.0003015705967
-0.0002852694831
-0.0002689683695
-0.0002526672559
-0.0002363661423
-0.0002200650287
-0.000203763915
-0.0001874628013
-0.0001711616875
-0.0001548605736
-0.0001385594595
-0.0001222583452
-0.0001059572305
-8.965611531e-05
-7.335499965e-05
-5.705388386e-05
-4.075276951e-05
-2.445166084e-05
-8.150562188e-06
-1.699118259e-10
4020.31023
-39.2698907
-657.3063121
-697.9037578
-682.4462364
-691.5902387
-728.7334207
-787.1437207
-861.0021461
-946.3247286
-1040.398881
-1141.244225
-1247.271097
-1357.088137
-1469.399224
-1582.95018
-1696.503336
-1808.828782
-1918.707072
-2024.940452
-2126.37054
-2221.900067
-2310.516408
-2391.314561
-2463.518061
-2526.496633
-2579.780191
-2623.06889
-2656.239772
-2679.35069
-2692.642725
-2696.541514
-2691.657241
-2678.782318
-2658.886293
-2633.108388
-2602.748428
-2569.256297
-2534.219313
-2499.347699
-2466.460969
-2437.48128
-2414.441073
-2399.510878
-2395.051746
-2403.700755
-2428.509822
-2473.174806
-2542.415175
-2642.604837
-2782.823973
-2976.588882
-3244.549858
-3618.0319
-4140.320078
-4845.783857
-5607.197393
-5273.867521
28839.92128
-0.0009699162532
-0.0009536151397
-0.0009373140261
-0.0009210129126
-0.000904711799
-0.0008884106855
-0.0008721095719
-0.0008558084584
-0.0008395073448
-0.0008232062312
-0.0008069051177
-0.0007906040041
-0.0007743028905
-0.000758001777
-0.0007417006634
-0.0007253995499
-0.0007090984363
-0.0006927973227
-0.0006764962091
-0.0006601950956
-0.000643893982
-0.0006275928684
-0.0006112917549
-0.0005949906413
-0.0005786895277
-0.0005623884141
-0.0005460873005
-0.0005297861869
-0.0005134850734
-0.0004971839598
-0.0004808828462
-0.0004645817326
-0.000448280619
-0.0004319795054
-0.0004156783918
-0.0003993772782
-0.0003830761646
-0.000366775051
-0.0003504739375
-0.0003341728239
-0.0003178717103
-0.0003015705967
-0.0002852694831
-0.0002689683696
-0.000252667256
-0.0002363661424
-0.0002200650288
-0.0002037639152
-0.0001874628015
-0.0001711616878
-0.0001548605741
-0.0001385594601
-0.0001222583459
-0.0001059572313
-8.965611598e-05
-7.33549996e-05
-5.705388174e-05
-4.075276296e-05
-2.44516492e-05
-8.150566722e-06
-4.534235422e-10
2853.613733
176.4713579
-541.6807031
-689.2565907
-710.9526436
-726.9515337
-762.0984738
-816.9110411
-887.3217263
-969.4359595
-1060.281409
-1157.646751
-1259.814025
-1365.354789
-1473.000415
-1581.566529
-1689.912547
-1796.923657
-1901.507409
-2002.600304
-2099.181013
-2190.287749
-2275.037437
-2352.644987
-2422.441251
-2483.888953
-2536.595917
-2580.325401
-2615.003445
-2640.723827
-2657.751206
-2666.522966
-2667.649464
-2661.912213
-2650.259833
-2633.802337
-2613.804508
-2591.678521
-2568.975524
-2547.376758
-2528.687113
-2514.836605
-2507.896203
-2510.113496
-2523.973431
-2552.29422
-2598.379584
-2666.263177
-2761.09838
-2889.773254
-3061.865938
-3291.069851
-3597.077756
-4007.086625
-4552.382151
-5240.112838
-5919.252349
-5725.411644
36333.72629
-0.0009699162532
-0.0009536151397
-0.0009373140261
-0.0009210129126
-0.000904711799
-0.0008884106855
-0.0008721095719
-0.0008558084584
-0.0008395073448
-0.0008232062312
-0.0008069051177
-0.0007906040042
-0.0007743028906
-0.000758001777
-0.0007417006635
-0.0007253995499
-0.0007090984363
-0.0006927973228
-0.0006764962092
-0.0006601950956
-0.0006438939821
-0.0006275928684
-0.0006112917549
-0.0005949906413
-0.0005786895277
-0.0005623884141
-0.0005460873006
-0.0005297861869
-0.0005134850734
-0.0004971839598
-0.0004808828462
-0.0004645817326
-0.000448280619
-0.0004319795054
-0.0004156783918
-0.0003993772782
-0.0003830761646
-0.000366775051
-0.0003504739375
-0.0003341728239
-0.0003178717103
-0.0003015705967
-0.0002852694831
-0.0002689683696
-0.0002526672561
-0.0002363661425
-0.000220065029
-0.0002037639154
-0.0001874628019
-0.0001711616883
-0.0001548605747
-0.0001385594609
-0.0001222583471
-0.0001059572328
-8.96561177e-05
-7.335500085e-05
-5.705387963e-05
-4.075274755e-05
-2.445159012e-05
-8.150384583e-06
5.909659727e-10
-3515.472279
-1566.796809
-996.647774
-806.5037556
-745.169976
-743.1788891
-775.8128617
-831.0962434
-901.9548567
-983.8341784
-1073.663288
-1169.267523
-1269.004563
-1371.538641
-1475.704205
-1580.426914
-1684.681056
-1787.47004
-1887.821829
-1984.794034
-2077.485274
-2165.050146
-2246.715919
-2321.79938
-2389.722951
-2450.029296
-2502.394025
-2546.635983
-2582.725045
-2610.787565
-2631.110061
-2644.141457
-2650.493863
-2650.941551
-2646.418117
-2638.012264
-2626.962838
-2614.653344
-2602.606045
-2592.476547
-2586.051556
-2585.254236
-2592.162174
-2609.042205
-2638.406599
-2683.099203
-2746.428851
-2832.377093
-2945.917246
-3093.49712
-3283.769088
-3528.720296
-3845.580167
-4260.830459
-4821.979976
-5642.989682
-7104.234062
-10775.33077
48261.60373
-0.0009699162532
-0.0009536151397
-0.0009373140262
-0.0009210129126
-0.000904711799
-0.0008884106855
-0.0008721095719
-0.0008558084584
-0.0008395073448
-0.0008232062313
-0.0008069051177
-0.0007906040042
-0.0007743028906
-0.000758001777
-0.0007417006635
-0.0007253995499
-0.0007090984364
-0.0006927973228
-0.0006764962092
-0.0006601950956
-0.0006438939821
-0.0006275928685
-0.0006112917549
-0.0005949906414
-0.0005786895277
-0.0005623884142
-0.0005460873006
-0.000529786187
-0.0005134850734
-0.0004971839598
-0.0004808828462
-0.0004645817326
-0.000448280619
-0.0004319795054
-0.0004156783918
-0.0003993772782
-0.0003830761646
-0.000366775051
-0.0003504739375
-0.0003341728239
-0.0003178717103
-0.0003015705968
-0.0002852694832
-0.0002689683697
-0.0002526672562
-0.0002363661426
-0.0002200650291
-0.0002037639157
-0.0001874628022
-0.0001711616888
-0.0001548605754
-0.000138559462
-0.0001222583486
-0.0001059572351
-8.96561212e-05
-7.33550063e-05
-5.705388783e-05
-4.075275744e-05
-2.445158907e-05
-8.150320023e-06
1.079762814e-09
-4615.602025
-1931.558797
-1071.626835
-794.9554754
-720.0587226
-724.7957152
-766.8932551
-829.7225167
-905.5843565
-990.3003864
-1081.288544
-1176.774872
-1275.418512
-1376.112673
-1477.873637
-1579.779421
-1680.938387
-1780.476681
-1877.537639
-1971.288906
-2060.934259
-2145.728116
-2224.991115
-2298.125788
-2364.631535
-2424.118528
-2476.319979
-2521.102445
-2558.473797
-2588.589024
-2611.754254
-2628.429412
-2639.229569
-2644.924762
-2646.438194
-2644.843061
-2641.358458
-2637.344785
-2634.29909
-2633.851407
-2637.764156
-2647.937605
-2666.424545
-2695.456755
-2737.485948
-2795.244626
-2871.837105
-2970.874761
-3096.669721
-3254.500591
-3450.964661
-3694.435735
-3995.668142
-4368.651255
-4831.690079
-5405.596318
-6079.319745
-6533.241602
36659.21595
-0.0009699162532
-0.0009536151397
-0.0009373140262
-0.0009210129126
-0.000904711799
-0.0008884106855
-0.0008721095719
-0.0008558084584
-0.0008395073449
-0.0008232062313
-0.0008069051177
-0.0007906040042
-0.0007743028906
-0.0007580017771
-0.0007417006635
-0.0007253995499
-0.0007090984364
-0.0006927973228
-0.0006764962092
-0.0006601950957
-0.0006438939821
-0.0006275928685
-0.0006112917549
-0.0005949906414
-0.0005786895278
-0.0005623884142
-0.0005460873006
-0.000529786187
-0.0005134850734
-0.0004971839598
-0.0004808828462
-0.0004645817326
-0.000448280619
-0.0004319795054
-0.0004156783918
-0.0003993772782
-0.0003830761646
-0.000366775051
-0.0003504739375
-0.0003341728239
-0.0003178717103
-0.0003015705968
-0.0002852694832
-0.0002689683697
-0.0002526672562
-0.0002363661427
-0.0002200650293
-0.0002037639159
-0.0001874628026
-0.0001711616893
-0.0001548605761
-0.0001385594631
-0.0001222583502
-0.0001059572377
-8.965612566e-05
-7.335501478e-05
-5.705390583e-05
-4.075279952e-05
-2.445169144e-05
-1.340435341e-10
4529.475828
251.4698235
-472.2308032
-563.3626258
-581.6476064
-615.3280919
-669.0668836
-737.257727
-815.3327965
-900.3767607
-990.5119559
-1084.433676
-1181.143858
-1279.802146
-1379.641447
-1479.92086
-1579.901773
-1678.839071
-1775.982286
-1870.583323
-1961.908313
-2049.251895
-2131.952629
-2209.408687
-2281.093148
-2346.568592
-2405.500615
-2457.669971
-2502.982827
-2541.478897
-2573.33744
-2598.881578
-2618.581326
-2633.055483
-2643.072141
-2649.547595
-2653.543686
-2656.264014
-2659.049587
-2663.374639
-2670.843449
-2683.189335
-2702.277198
-2730.110956
-2768.846712
-2820.812294
-2888.534555
-2974.777093
-3082.58913
-3215.358152
-3376.842263
-3571.125882
-3802.364838
-4073.982413
-4386.393125
-4730.506138
-5068.35326
-5274.169857
-4966.934632
-3168.631249
-0.0009699162532
-0.0009536151397
-0.0009373140262
-0.0009210129126
-0.0009047117991
-0.0008884106855
-0.0008721095719
-0.0008558084584
-0.0008395073449
-0.0008232062313
-0.0008069051178
-0.0007906040042
-0.0007743028906
-0.0007580017771
-0.0007417006636
-0.00072539955
-0.0007090984364
-0.0006927973229
-0.0006764962093
-0.0006601950957
-0.0006438939822
-0.0006275928685
-0.000611291755
-0.0005949906414
-0.0005786895278
-0.0005623884142
-0.0005460873006
-0.000529786187
-0.0005134850734
-0.0004971839598
-0.0004808828462
-0.0004645817326
-0.000448280619
-0.0004319795054
-0.0004156783918
-0.0003993772782
-0.0003830761646
-0.000366775051
-0.0003504739374
-0.0003341728238
-0.0003178717103