/*--------------------------------*- C++ -*----------------------------------*\
  =========                 |
  \\      /  F ield         | OpenFOAM: The Open Source CFD Toolbox
   \\    /   O peration     | Website:  https://openfoam.org
    \\  /    A nd           | Version:  6
     \\/     M anipulation  |
\*---------------------------------------------------------------------------*/
FoamFile
{
    version     2.0;
    format      ascii;
    class       volScalarField;
    location    "0.002";
    object      TRHS;
}
// * * * * * * * * * * * * * * * * * * * * * * * * * * * * * * * * * * * * * //

dimensions      [1 -1 -3 0 0 0 0];

internalField   nonuniform List<scalar> 
9600
(
-8.863183031e-10
-1.815662815e-09
-1.963890514e-09
-1.654025377e-09
-1.259565636e-09
-8.686555052e-10
-5.25229192e-10
-2.274764524e-10
1.354687316e-11
2.109984652e-10
3.588687944e-10
4.729315464e-10
5.479850478e-10
5.994603398e-10
6.207862162e-10
6.258009334e-10
6.061049948e-10
5.738934737e-10
5.190924395e-10
4.522597027e-10
3.614925031e-10
2.555321367e-10
1.205918561e-10
-3.658662099e-11
-2.321195025e-10
-4.621530972e-10
-7.461938852e-10
-1.084080124e-09
-1.498689178e-09
-1.992867822e-09
-2.592178944e-09
-3.302824964e-09
-4.154801375e-09
-5.160433325e-09
-6.356233583e-09
-7.760583612e-09
-9.413589796e-09
-1.133506269e-08
-1.356461487e-08
-1.612242428e-08
-1.904968132e-08
-2.236997736e-08
-2.612636236e-08
-3.034174006e-08
-3.505446197e-08
-4.028250578e-08
-4.606087449e-08
-5.240941991e-08
-5.936912449e-08
-6.697335898e-08
-7.528631289e-08
-8.438570551e-08
-9.441509677e-08
-1.055966217e-07
-1.183263038e-07
-1.332571325e-07
-1.514822269e-07
-1.746764912e-07
-2.050940636e-07
-2.449097314e-07
-2.9414113e-07
-3.48086973e-07
-4.008084662e-07
-4.818567511e-07
-6.357557733e-07
-1.337823953e-06
-2.015937629e-06
-0.002039450396
268.4828431
0
0
0
0
0
0
0
0
0
0
0
0
0
0
0
0
0
0
0
0
0
0
0
0
0
0
0
0
0
0
0
0
0
0
0
0
0
0
0
0
0
0
-0.00775470148
-0.00103107441
-1.266517582e-06
-6.330398594e-07
-1.042966878e-07
-1.908329132e-08
-7.098161772e-08
-1.863749806e-07
5.465266926e-08
-2.124595953e-09
-2.884698777e-09
-3.265117219e-09
-2.576195428e-09
-1.845420222e-09
-1.249912716e-09
-7.779351127e-10
-4.018958152e-10
-1.083653955e-10
1.212214675e-10
2.930306425e-10
4.212766146e-10
5.088016755e-10
5.670109403e-10
5.959662093e-10
6.045838866e-10
5.906401677e-10
5.610990801e-10
5.118631905e-10
4.480897592e-10
3.638298965e-10
2.624270708e-10
1.360570432e-10
-1.400144655e-11
-1.980109908e-10
-4.176620031e-10
-6.865761827e-10
-1.009861548e-09
-1.404249664e-09
-1.877761676e-09
-2.450267871e-09
-3.134154072e-09
-3.955207848e-09
-4.933184756e-09
-6.10129399e-09
-7.485554882e-09
-9.123251972e-09
-1.104334221e-08
-1.328638627e-08
-1.588712807e-08
-1.889408522e-08
-2.235062541e-08
-2.631102812e-08
-3.082085888e-08
-3.593410609e-08
-4.169814289e-08
-4.817355557e-08
-5.542051825e-08
-6.351703768e-08
-7.254621036e-08
-8.261774442e-08
-9.386552856e-08
-1.064847836e-07
-1.207566952e-07
-1.371199713e-07
-1.562363177e-07
-1.790925668e-07
-2.070595339e-07
-2.418872462e-07
-2.855177281e-07
-3.40064887e-07
-4.087191777e-07
-5.020271257e-07
-6.489759504e-07
-8.916449233e-07
-1.283345685e-06
-1.711729825e-06
-1.462864224e-06
-0.0006147739491
218.7121761
0
0
0
0
0
0
0
0
0
0
0
0
0
0
0
0
0
0
0
0
0
0
0
0
0
0
0
0
0
0
0
0
0
0
0
0
0
0
0
0
-0.007487406358
-9.012960856e-07
-1.449281538e-06
-1.570194415e-06
-1.018209952e-06
-6.608657369e-07
-4.488996234e-07
-3.753174607e-07
-3.30130433e-07
1.960991064e-08
-4.529967799e-09
-5.213043535e-09
-4.734668425e-09
-3.532059321e-09
-2.406822751e-09
-1.582470265e-09
-9.833643639e-10
-5.366289535e-10
-1.982076345e-10
5.612965271e-11
2.463967041e-10
3.838417037e-10
4.806352109e-10
5.42472736e-10
5.77343325e-10
5.87582346e-10
5.785373695e-10
5.502853556e-10
5.061724141e-10
4.443598229e-10
3.66326879e-10
2.683895894e-10
1.501406066e-10
5.824184305e-12
-1.674848571e-10
-3.785194616e-10
-6.334785209e-10
-9.443068352e-10
-1.320160628e-09
-1.775959645e-09
-2.324583112e-09
-2.98625103e-09
-3.781028533e-09
-4.737433417e-09
-5.883594291e-09
-7.254450943e-09
-8.882993649e-09
-1.080894299e-08
-1.307250298e-08
-1.57241982e-08
-1.881758445e-08
-2.241560596e-08
-2.658044695e-08
-3.137953522e-08
-3.68791258e-08
-4.315480511e-08
-5.028774878e-08
-5.837388664e-08
-6.75176792e-08
-7.784078121e-08
-8.947975209e-08
-1.026031878e-07
-1.174236831e-07
-1.342355334e-07
-1.534533276e-07
-1.756740818e-07
-2.01729865e-07
-2.327461295e-07
-2.701873661e-07
-3.159709986e-07
-3.728594055e-07
-4.456219141e-07
-5.432999856e-07
-6.802953786e-07
-8.63189151e-07
-1.060359586e-06
-1.088888517e-06
-1.203031688e-06
-1.142444306e-06
-0.001793828099
1203.953807
0
0
0
0
0
0
0
0
0
0
0
0
0
0
0
0
0
0
0
0
0
0
0
0
0
0
0
0
0
0
0
0
0
0
0
0
0
0
840.1641334
-0.00106000845
-1.596028859e-06
-1.521331742e-06
-1.294615329e-06
-1.166429276e-06
-9.394043861e-07
-7.303430455e-07
-6.02164785e-07
-5.667094077e-07
-9.477967142e-08
-1.570535501e-08
-1.032321238e-08
-6.305728513e-09
-4.061860249e-09
-2.684841467e-09
-1.753435385e-09
-1.090786885e-09
-6.043783918e-10
-2.441511195e-10
2.417633985e-11
2.209941262e-10
3.638671582e-10
4.625704023e-10
5.274421046e-10
5.630295855e-10
5.758759049e-10
5.675970095e-10
5.42390109e-10
4.997797943e-10
4.420065638e-10
3.667306312e-10
2.743478804e-10
1.606247054e-10
2.38744214e-11
-1.426676651e-10
-3.436403211e-10
-5.889051868e-10
-8.861689194e-10
-1.248203899e-09
-1.685932112e-09
-2.21647756e-09
-2.857026344e-09
-3.63279609e-09
-4.569944505e-09
-5.70194822e-09
-7.061642583e-09
-8.688268366e-09
-1.062192937e-08
-1.291293387e-08
-1.561685876e-08
-1.880126075e-08
-2.2536769e-08
-2.690110489e-08
-3.197179718e-08
-3.783483468e-08
-4.45821417e-08
-5.232067273e-08
-6.116670213e-08
-7.125102126e-08
-8.271290844e-08
-9.570912331e-08
-1.104145962e-07
-1.270410138e-07
-1.458524034e-07
-1.672025191e-07
-1.915677593e-07
-2.195900879e-07
-2.521078273e-07
-2.902095805e-07
-3.353346133e-07
-3.895033019e-07
-4.55626126e-07
-5.374312515e-07
-6.369954134e-07
-7.458017726e-07
-8.330198462e-07
-8.485216397e-07
-8.419881527e-07
-1.223597876e-06
-1.220474592e-06
-0.001519696728
2049.595184
4962.536073
0
0
0
0
0
0
0
0
0
0
0
0
0
0
0
0
0
0
0
0
0
0
0
0
0
0
0
0
0
0
0
0
0
0
4718.21628
1904.959969
-0.001061638547
-1.897004575e-06
-1.887511194e-06
-1.409072847e-06
-1.315125902e-06
-1.231268439e-06
-1.084236023e-06
-9.424467665e-07
-8.475362018e-07
-8.074349213e-07
-2.643269445e-07
-1.774933376e-08
-1.101271877e-08
-6.036572011e-09
-3.827214519e-09
-2.570703568e-09
-1.709389948e-09
-1.068323577e-09
-5.908806154e-10
-2.350511195e-10
2.837933618e-11
2.220692073e-10
3.612140846e-10
4.582189738e-10
5.208248173e-10
5.561328406e-10
5.680186231e-10
5.607175247e-10
5.358018836e-10
4.954475428e-10
4.392908168e-10
3.676596049e-10
2.783876543e-10
1.699539709e-10
3.808058277e-11
-1.212232644e-10
-3.150650216e-10
-5.504485594e-10
-8.374062209e-10
-1.185926059e-09
-1.609647298e-09
-2.123574104e-09
-2.748346092e-09
-3.507707235e-09
-4.431502557e-09
-5.55179449e-09
-6.905454049e-09
-8.53169482e-09
-1.047734638e-08
-1.279649062e-08
-1.555506707e-08
-1.882696223e-08
-2.269435086e-08
-2.7242467e-08
-3.256295453e-08
-3.875412599e-08
-4.592744924e-08
-5.420598082e-08
-6.372553628e-08
-7.462917525e-08
-8.706888871e-08
-1.012036128e-07
-1.172049893e-07
-1.352597882e-07
-1.55583765e-07
-1.784365199e-07
-2.04144662e-07
-2.331141647e-07
-2.658381086e-07
-3.028951933e-07
-3.449562781e-07
-3.927649124e-07
-4.469656602e-07
-5.073949322e-07
-5.711563401e-07
-6.292624209e-07
-6.665191883e-07
-6.743693097e-07
-6.923803943e-07
-6.778610705e-07
-5.36712349e-07
5.305026218e-07
-0.005166101468
-0.05020947425
14955.47909
0
0
0
0
0
0
0
0
0
0
0
0
0
0
0
0
0
0
0
0
0
0
0
0
0
0
0
0
0
0
0
0
14788.00611
-0.04917122925
-0.004802093994
-1.208753544e-07
-1.41563735e-06
-1.490465427e-06
-1.431734982e-06
-1.327502837e-06
-1.244656265e-06
-1.179458026e-06
-1.119755677e-06
-1.071861467e-06
-1.108418459e-06
-4.68835976e-07
-7.504561498e-09
-6.302779537e-09
-4.299435567e-09
-3.082370841e-09
-2.204477432e-09
-1.489514359e-09
-9.288462827e-10
-4.986667735e-10
-1.737807673e-10
6.896726454e-11
2.476635473e-10
3.766286815e-10
4.659734165e-10
5.237103852e-10
5.552614536e-10
5.652802956e-10
5.566318329e-10
5.31864513e-10
4.919337729e-10
4.375238971e-10
3.678272637e-10
2.817818371e-10
1.767707636e-10
4.97088796e-11
-1.044485261e-10
-2.91484603e-10
-5.19305464e-10
-7.966255969e-10
-1.13452353e-09
-1.545747924e-09
-2.047001689e-09
-2.658577374e-09
-3.406152109e-09
-4.319217936e-09
-5.431765733e-09
-6.780930049e-09
-8.409595462e-09
-1.036773151e-08
-1.271629454e-08
-1.55268343e-08
-1.88812418e-08
-2.286771749e-08
-2.758069331e-08
-3.312113358e-08
-3.960143991e-08
-4.714672317e-08
-5.589527655e-08
-6.599343553e-08
-7.759292904e-08
-9.08473346e-08
-1.059125926e-07
-1.229441095e-07
-1.420964518e-07
-1.635220902e-07
-1.87376311e-07
-2.138172802e-07
-2.429974949e-07
-2.750318246e-07
-3.099457988e-07
-3.475909155e-07
-3.874990001e-07
-4.285761701e-07
-4.684999924e-07
-5.027473974e-07
-5.237678112e-07
-5.22402772e-07
-4.927063788e-07
-4.33593125e-07
-2.865450612e-07
1.108973093e-07
8.066060876e-07
1.129845952e-06
2.609160157e-06
-1.31133683e-06
1391.63738
4852.309699
0
0
0
0
0
0
0
0
0
0
0
0
0
0
0
0
0
0
0
0
0
0
0
0
0
0
0
0
4638.77641
1263.691911
-1.904897585e-06
1.841377694e-06
8.49337631e-07
2.421601357e-07
-7.260706829e-07
-1.151519362e-06
-1.255042695e-06
-1.273530465e-06
-1.250424204e-06
-1.242280023e-06
-1.239899768e-06
-1.272299011e-06
-1.389711157e-06
-6.800068044e-07
-3.998712626e-09
-3.526182663e-09
-2.924598645e-09
-2.317807161e-09
-1.701473078e-09
-1.155437955e-09
-7.039142131e-10
-3.461874473e-10
-7.001307525e-11
1.390451843e-10
2.945228628e-10
4.070091959e-10
4.849171387e-10
5.343950134e-10
5.604177334e-10
5.665456707e-10
5.557174815e-10
5.297130502e-10
4.897561524e-10
4.359181738e-10
3.677692503e-10
2.837443694e-10
1.816724298e-10
5.800673243e-11
-9.168055142e-11
-2.735274045e-10
-4.947505131e-10
-7.644510253e-10
-1.093293703e-09
-1.494859328e-09
-1.985925817e-09
-2.587897691e-09
-3.326483274e-09
-4.232078293e-09
-5.338767543e-09
-6.685499186e-09
-8.317262411e-09
-1.028856459e-08
-1.266490974e-08
-1.552359746e-08
-1.89510437e-08
-2.304121215e-08
-2.789476946e-08
-3.362245292e-08
-4.034767538e-08
-4.820814677e-08
-5.735190465e-08
-6.793258861e-08
-8.010394995e-08
-9.401796779e-08
-1.098214776e-07
-1.276517461e-07
-1.476272373e-07
-1.698389728e-07
-1.943388356e-07
-2.211234443e-07
-2.500984701e-07
-2.810193403e-07
-3.133977965e-07
-3.463744465e-07
-3.78531402e-07
-4.07615212e-07
-4.301427393e-07
-4.409700161e-07
-4.331228526e-07
-3.984119231e-07
-3.278285104e-07
-2.071089135e-07
4.611099339e-09
3.627996525e-07
9.347714551e-07
1.005050746e-06
2.415573387e-06
3.631413466e-06
-0.00350664756
-0.01378556325
616.2809487
3174.084098
0
0
0
0
0
0
0
0
0
0
0
0
0
0
0
0
0
0
0
0
0
0
0
0
2951.405507
480.4967044
-0.01290492667
-0.003184841985
2.280128851e-06
1.562714344e-06
5.280904092e-07
2.265236695e-07
-4.078139579e-07
-8.192554116e-07
-1.038923588e-06
-1.15352848e-06
-1.205802338e-06
-1.287696384e-06
-1.327775364e-06
-1.419341126e-06
-1.637157874e-06
-8.790571617e-07
-1.86494214e-09
-2.045125997e-09
-1.88600823e-09
-1.551750224e-09
-1.152571643e-09
-7.67941985e-10
-4.328685284e-10
-1.573428361e-10
6.101071653e-11
2.296521849e-10
3.565610366e-10
4.488763465e-10
5.1232419e-10
5.515584651e-10
5.702499537e-10
5.713946105e-10
5.572051374e-10
5.292800116e-10
4.883674713e-10
4.345484279e-10
3.670525307e-10
2.844223601e-10
1.842565456e-10
6.323391265e-11
-8.320612807e-11
-2.608590156e-10
-4.77014221e-10
-7.40554342e-10
-1.062523556e-09
-1.456679249e-09
-1.940477685e-09
-2.535537343e-09
-3.268014896e-09
-4.168235356e-09
-5.270966503e-09
-6.616255416e-09
-8.251860468e-09
-1.023563404e-08
-1.263728945e-08
-1.553755272e-08
-1.902638634e-08
-2.320136971e-08
-2.816917035e-08
-3.404844483e-08
-4.097268147e-08
-4.908859644e-08
-5.855128867e-08
-6.951733148e-08
-8.214042717e-08
-9.656830834e-08
-1.129393206e-07
-1.313739089e-07
-1.519612674e-07
-1.747405256e-07
-1.996778597e-07
-2.266312568e-07
-2.55297547e-07
-2.851291666e-07
-3.152230174e-07
-3.441747985e-07
-3.698996483e-07
-3.894086993e-07
-3.985604029e-07
-3.918463672e-07
-3.62334061e-07
-3.017923941e-07
-2.003642694e-07
-4.453011144e-08
1.864493371e-07
5.065789075e-07
8.982255142e-07
1.171370841e-06
1.481072997e-06
2.399761194e-06
2.986308878e-06
5.033517879e-06
2.95191735e-06
-0.02202755869
5563.554862
-0.09849847288
13552.0111
0
0
0
0
0
0
0
0
0
0
0
0
0
0
0
0
0
0
13221.19698
-0.1069294435
5423.059159
-0.02111209491
2.186168908e-06
3.918452974e-06
2.189300032e-06
1.513867069e-06
7.637836595e-07
4.696108199e-07
1.821470681e-07
-2.708924321e-07
-6.498359276e-07
-8.872870809e-07
-1.046858215e-06
-1.183960511e-06
-1.300996114e-06
-1.411653593e-06
-1.582517279e-06
-1.874077764e-06
-1.044835899e-06
-7.01685019e-10
-9.800732663e-10
-9.934514298e-10
-8.497054139e-10
-6.217035259e-10
-3.77683287e-10
-1.50867723e-10
4.423369382e-11
2.042477557e-10
3.308551379e-10
4.27542333e-10
4.979678061e-10
5.455431389e-10
5.732210693e-10
5.836081151e-10
5.788382077e-10
5.606108008e-10
5.300327726e-10
4.875826376e-10
4.330628455e-10
3.656029526e-10
2.835874149e-10
1.845971949e-10
6.526112638e-11
-7.887347178e-11
-2.535586525e-10
-4.659691696e-10
-7.250950577e-10
-1.042147706e-09
-1.431304171e-09
-1.910325281e-09
-2.501116704e-09
-3.229748352e-09
-4.126602132e-09
-5.226769094e-09
-6.571632794e-09
-8.211166185e-09
-1.020624638e-08
-1.262925444e-08
-1.55631244e-08
-1.909952592e-08
-2.333892674e-08
-2.839272945e-08
-3.438683783e-08
-4.146240431e-08
-4.977283061e-08
-5.947680095e-08
-7.073191976e-08
-8.369036074e-08
-9.849680393e-08
-1.152841871e-07
-1.341638532e-07
-1.552075363e-07
-1.784221297e-07
-2.037145928e-07
-2.308451969e-07
-2.593584313e-07
-2.884910914e-07
-3.170514124e-07
-3.432760985e-07
-3.646626486e-07
-3.777870846e-07
-3.781218988e-07
-3.599036054e-07
-3.161054619e-07
-2.385459449e-07
-1.180492175e-07
5.510615957e-08
2.88914596e-07
5.801066973e-07
9.039355246e-07
1.206021487e-06
1.575493689e-06
2.425875794e-06
2.676086538e-06
3.730926021e-06
3.374385972e-06
5.046061508e-06
1.064452354e-06
-6.653111263e-07
-0.03416345147
9223.36405
-0.1416273323
11575.92008
4149.438172
0
0
0
0
0
0
0
0
0
0
4108.587483
11508.17565
-0.1463281679
8939.768724
-0.03332963162
-7.571821756e-07
3.646502461e-07
3.89418003e-06
2.413867021e-06
2.768316712e-06
1.799327838e-06
1.619271628e-06
7.820626404e-07
4.324683866e-07
1.275214195e-07
-1.993098711e-07
-5.334237359e-07
-7.75618442e-07
-9.819881145e-07
-1.154598524e-06
-1.307018292e-06
-1.453472805e-06
-1.695667221e-06
-2.024525367e-06
-1.167641216e-06
1.956789167e-10
-1.342454351e-10
-2.568868028e-10
-2.466049111e-10
-1.489884583e-10
-1.849495202e-11
1.163375465e-10
2.405209023e-10
3.472342468e-10
4.342765739e-10
5.016538752e-10
5.503525584e-10
5.817965753e-10
5.975354926e-10
5.991399732e-10
5.880046991e-10
5.652445163e-10
5.315242514e-10
4.87008924e-10
4.312577468e-10
3.632265452e-10
2.811707492e-10
1.826040294e-10
6.412310222e-11
-7.869971104e-11
-2.51564918e-10
-4.616654141e-10
-7.180708508e-10
-1.032260582e-09
-1.418692692e-09
-1.89537303e-09
-2.484195341e-09
-3.211091335e-09
-4.106308311e-09
-5.20531803e-09
-6.550654217e-09
-8.19419578e-09
-1.019877216e-08
-1.263828313e-08
-1.559632347e-08
-1.916535712e-08
-2.344774679e-08
-2.855902551e-08
-3.463053972e-08
-4.180905845e-08
-5.025154371e-08
-6.011813477e-08
-7.15658958e-08
-8.474612778e-08
-9.980321408e-08
-1.168711158e-07
-1.360626566e-07
-1.574489789e-07
-1.810279356e-07
-2.066824357e-07
-2.341237348e-07
-2.628184561e-07
-2.918913981e-07
-3.200077529e-07
-3.452309974e-07
-3.64862856e-07
-3.752681684e-07
-3.71709826e-07
-3.482302756e-07
-2.976358452e-07
-2.116570981e-07
-8.149689243e-08
1.005941437e-07
3.374908105e-07
6.208071206e-07
9.301404617e-07
1.250885099e-06
1.641046315e-06
2.209815895e-06
2.395322361e-06
2.448259344e-06
2.167706782e-06
2.002365348e-06
2.35589854e-07
2.56129061e-06
8.098048303e-06
-0.02324489405
-3.570349516e-07
-0.02918088694
-0.02052889607
3994.277974
0
0
0
0
0
0
0
0
3748.04382
-0.01980520493
-0.02901011493
-3.689124337e-07
-0.02253000206
7.578967699e-06
2.013133156e-06
-7.42905553e-07
1.03156247e-06
1.206859529e-06
1.504412784e-06
1.48218011e-06
1.332029778e-06
7.90136465e-07
3.999440804e-07
9.631801939e-08
-2.02217677e-07
-4.855773368e-07
-7.424529596e-07
-9.370724931e-07
-1.147347052e-06
-1.329806672e-06
-1.52098775e-06
-1.741441485e-06
-2.117833665e-06
-1.239845665e-06
8.810500977e-10
5.214828752e-10
3.279119413e-10
2.45257118e-10
2.481229294e-10
2.921422275e-10
3.542497063e-10
4.201402127e-10
4.814409951e-10
5.335983779e-10
5.743038833e-10
6.026743811e-10
6.186720742e-10
6.227423861e-10
6.155989247e-10
5.97980796e-10
5.704503344e-10
5.33280829e-10
4.86313298e-10
4.288904718e-10
3.597729067e-10
2.771005187e-10
1.782626405e-10
5.982085375e-11
-8.267369568e-11
-2.549150947e-10
-4.641493e-10
-7.195898461e-10
-1.03293232e-09
-1.418849746e-09
-1.895457858e-09
-2.484521651e-09
-3.211709066e-09
-4.107113757e-09
-5.20650091e-09
-6.553322504e-09
-8.200736269e-09
-1.021263812e-08
-1.266311376e-08
-1.563538524e-08
-1.922170534e-08
-2.352573071e-08
-2.866585667e-08
-3.477721668e-08
-4.200930993e-08
-5.052017401e-08
-6.046913032e-08
-7.201223238e-08
-8.530119771e-08
-1.004842684e-07
-1.17704151e-07
-1.370874004e-07
-1.587217064e-07
-1.826215354e-07
-2.086820338e-07
-2.366225721e-07
-2.659137051e-07
-2.95687042e-07
-3.246193882e-07
-3.507900897e-07
-3.715067624e-07
-3.831133045e-07
-3.80804532e-07
-3.584894778e-07
-3.087324183e-07
-2.22801067e-07
-9.101597742e-08
9.570627764e-08
3.413238295e-07
6.36234868e-07
9.551794629e-07
1.27775334e-06
1.660504133e-06
2.210074472e-06
2.373087816e-06
2.396005347e-06
2.073469217e-06
1.935663276e-06
8.871141591e-08
2.579429167e-06
7.997500318e-06
-0.02320460757
-3.58723498e-07
-0.02912897376
-0.02047011977
3993.507447
0
0
0
0
0
0
0
0
3747.185658
-0.01975050479
-0.0289627641
-3.704106698e-07
-0.02249377582
7.613939412e-06
1.971198566e-06
-7.629538394e-07
9.237154175e-07
1.126981411e-06
1.458424236e-06
1.433668422e-06
1.250957371e-06
7.029237121e-07
3.564817477e-07
9.541185905e-08
-1.931347321e-07
-4.827789601e-07
-7.426119935e-07
-9.460952859e-07
-1.163078245e-06
-1.336546515e-06
-1.501847319e-06
-1.751224908e-06
-2.130986464e-06
-1.250697064e-06
1.39195106e-09
1.015948997e-09
7.764675061e-10
6.313934496e-10
5.681867094e-10
5.497266219e-10
5.571484393e-10
5.774967883e-10
6.019145652e-10
6.24651597e-10
6.421611974e-10
6.523501397e-10
6.542033577e-10
6.47373805e-10
6.31902203e-10
6.079398736e-10
5.756337694e-10
5.348553725e-10
4.851903829e-10
4.257469655e-10
3.551247197e-10
2.712912218e-10
1.715420089e-10
5.233805474e-11
-9.081560306e-11
-2.636451673e-10
-4.735015945e-10
-7.297394653e-10
-1.044234574e-09
-1.431826087e-09
-1.910583156e-09
-2.502072359e-09
-3.231648057e-09
-4.129222805e-09
-5.230777026e-09
-6.580324857e-09
-8.231591037e-09
-1.024843612e-08
-1.270412757e-08
-1.56805545e-08
-1.926921601e-08
-2.357414331e-08
-2.87152243e-08
-3.482881649e-08
-4.206444745e-08
-5.057833773e-08
-6.052739496e-08
-7.206627694e-08
-8.534884528e-08
-1.005315218e-07
-1.177730536e-07
-1.372243338e-07
-1.590051972e-07
-1.831691462e-07
-2.096606914e-07
-2.38264334e-07
-2.685440191e-07
-2.997628248e-07
-3.307731735e-07
-3.598601339e-07
-3.845374903e-07
-4.013137437e-07
-4.054712211e-07
-3.909046994e-07
-3.500081109e-07
-2.73435327e-07
-1.495474212e-07
3.57815475e-08
2.952278627e-07
6.239666603e-07
9.80351883e-07
1.292619512e-06
1.641237305e-06
2.448079362e-06
2.552446881e-06
3.569231549e-06
3.117216186e-06
4.921106811e-06
9.451138757e-07
-7.364696343e-07
-0.03408955706
9207.413537
-0.1423037436
11555.32636
4126.892416
0
0
0
0
0
0
0
0
0
0
4087.746362
11489.39177
-0.1469344455
8925.379894
-0.03326498932
-7.469804952e-07
2.035056256e-07
3.700422091e-06
2.005883253e-06
2.435360105e-06
1.555847401e-06
1.413833032e-06
6.225883597e-07
3.345275399e-07
9.394298303e-08
-2.06504857e-07
-5.077685464e-07
-7.769076367e-07
-9.686380544e-07
-1.160895593e-06
-1.323298532e-06
-1.512940204e-06
-1.715654415e-06
-2.069026454e-06
-1.205598037e-06
1.763114119e-09
1.379227039e-09
1.111701729e-09
9.262603462e-10
8.190155662e-10
7.571235245e-10
7.249477161e-10
7.108806696e-10
7.06291175e-10
7.05084661e-10
7.030601486e-10
6.975534006e-10
6.86926468e-10
6.702760251e-10
6.471207254e-10
6.172046989e-10
5.802489654e-10
5.358676845e-10
4.833629688e-10
4.216717512e-10
3.491761491e-10
2.637102899e-10
1.624048068e-10
4.164014997e-11
-1.031664936e-10
-2.778254314e-10
-4.897926558e-10
-7.48591693e-10
-1.066261067e-09
-1.45767578e-09
-1.940848069e-09
-2.537059633e-09
-3.271349874e-09
-4.173422922e-09
-5.279278999e-09
-6.633051087e-09
-8.288270889e-09
-1.03078551e-08
-1.27633286e-08
-1.57346011e-08
-1.931169154e-08
-2.359800278e-08
-2.871290734e-08
-3.479139267e-08
-4.197984703e-08
-5.043016278e-08
-6.029500022e-08
-7.172722782e-08
-8.48841215e-08
-9.993346518e-08
-1.170550521e-07
-1.364310529e-07
-1.582232849e-07
-1.825423634e-07
-2.094135082e-07
-2.387421586e-07
-2.702729551e-07
-3.035287838e-07
-3.377025264e-07
-3.714812851e-07
-4.028000386e-07
-4.285482899e-07
-4.442910088e-07
-4.440925605e-07
-4.204575959e-07
-3.640354314e-07
-2.617592699e-07
-9.223996377e-08
1.772833113e-07
5.671810173e-07
1.026212526e-06
1.332298437e-06
1.613187964e-06
2.392902082e-06
2.802135966e-06
4.793439938e-06
2.769842198e-06
-0.02192305957
5548.404928
-0.09934342961
13522.65712
0
0
0
0
0
0
0
0
0
0
0
0
0
0
0
0
0
0
13195.55003
-0.1076563891
5410.19045
-0.02102477044
1.817838341e-06
3.37162608e-06
1.734117773e-06
1.254760192e-06
4.754588392e-07
3.614555743e-07
1.637356463e-07
-2.171695709e-07
-5.717828676e-07
-8.32419088e-07
-1.018386763e-06
-1.183791788e-06
-1.321329338e-06
-1.460057851e-06
-1.628091954e-06
-1.95185191e-06
-1.108345691e-06
2.025467672e-09
1.640043075e-09
1.356973595e-09
1.146881053e-09
1.011465973e-09
9.20364206e-10
8.602540317e-10
8.208361956e-10
7.940130753e-10
7.737696561e-10
7.558105686e-10
7.37152276e-10
7.158457167e-10
6.906050054e-10
6.606033993e-10
6.252217123e-10
5.839086966e-10
5.360180168e-10
4.806477937e-10
4.165253015e-10
3.418662328e-10
2.543005755e-10
1.508308505e-10
2.77006075e-11
-1.197629239e-10
-2.974963916e-10
-5.13085598e-10
-7.762291394e-10
-1.099083126e-09
-1.49656339e-09
-1.986505605e-09
-2.589945518e-09
-3.331578248e-09
-4.240863679e-09
-5.353586544e-09
-6.713514328e-09
-8.373205158e-09
-1.039384142e-08
-1.28445083e-08
-1.580257364e-08
-1.935584939e-08
-2.360563993e-08
-2.866856463e-08
-3.467519822e-08
-4.17658209e-08
-5.008529301e-08
-5.97801927e-08
-7.100071742e-08
-8.390770109e-08
-9.868103778e-08
-1.155223329e-07
-1.346456369e-07
-1.562578741e-07
-1.805360323e-07
-2.076100504e-07
-2.37552776e-07
-2.703687598e-07
-3.059562791e-07
-3.440074098e-07
-3.838202409e-07
-4.24013179e-07
-4.621524693e-07
-4.943321564e-07
-5.148866261e-07
-5.165856016e-07
-4.912723952e-07
-4.28169162e-07
-3.043801716e-07
-5.189647947e-08
4.183271353e-07
1.091308643e-06
1.335885558e-06
2.638053999e-06
3.583922388e-06
-0.003466412977
-0.0136769505
599.805732
3147.737433
0
0
0
0
0
0
0
0
0
0
0
0
0
0
0
0
0
0
0
0
0
0
0
0
2929.58301
467.0315035
-0.01281789763
-0.00315355923
2.237517621e-06
1.656910803e-06
5.066202044e-07
3.743058258e-07
-2.43641743e-07
-6.939573004e-07
-9.245062285e-07
-1.101961748e-06
-1.219957842e-06
-1.294534169e-06
-1.381482658e-06
-1.511314519e-06
-1.779239949e-06
-9.635894225e-07
2.20488457e-09
1.822615499e-09
1.532643006e-09
1.308623815e-09
1.156078982e-09
1.045987539e-09
9.666710243e-10
9.090012968e-10
8.655202867e-10
8.305697369e-10
7.999265501e-10
7.705729744e-10
7.403758406e-10
7.078434497e-10
6.718727788e-10
6.316300538e-10
5.863144768e-10
5.351075286e-10
4.769010899e-10
4.102479273e-10
3.331399307e-10
2.430450058e-10
1.367831736e-10
1.049118635e-11
-1.40639016e-10
-3.226795679e-10
-5.434095225e-10
-8.126951476e-10
-1.142815273e-09
-1.548670046e-09
-2.047962597e-09
-2.661416719e-09
-3.413420794e-09
-4.333074057e-09
-5.455711064e-09
-6.824216671e-09
-8.4895974e-09
-1.051059137e-08
-1.295331655e-08
-1.589200744e-08
-1.941129683e-08
-2.360871747e-08
-2.859559623e-08
-3.44951459e-08
-4.143851205e-08
-4.956086123e-08
-5.900045664e-08
-6.990302766e-08
-8.243132273e-08
-9.677488354e-08
-1.131524242e-07
-1.318035408e-07
-1.529741187e-07
-1.769070189e-07
-2.038475844e-07
-2.340661006e-07
-2.678822411e-07
-3.05656445e-07
-3.477153563e-07
-3.941887404e-07
-4.44736167e-07
-4.980735787e-07
-5.512276723e-07
-5.986926964e-07
-6.3254087e-07
-6.449642036e-07
-6.343306504e-07
-5.920975124e-07
-4.15780969e-07
1.053156733e-07
1.101477019e-06
1.600240779e-06
2.940548138e-06
-1.2091199e-06
1375.675847
4825.653923
0
0
0
0
0
0
0
0
0
0
0
0
0
0
0
0
0
0
0
0
0
0
0
0
0
0
0
0
4617.619145
1251.214293
-1.737211415e-06
2.255577387e-06
1.432231516e-06
7.052838068e-07
-3.845968575e-07
-8.684894214e-07
-1.086475543e-06
-1.183270819e-06
-1.230688043e-06
-1.282390061e-06
-1.280303121e-06
-1.384748042e-06
-1.541000482e-06
-7.840483749e-07
2.321313534e-09
1.945519948e-09
1.654560626e-09
1.423900372e-09
1.261844215e-09
1.139985783e-09
1.047946719e-09
9.775078137e-10
9.219286069e-10
8.759176251e-10
8.354959498e-10
7.976801033e-10
7.603027768e-10
7.217177715e-10
6.806905607e-10
6.362014099e-10
5.873097852e-10
5.330220827e-10
4.72073225e-10
4.027956655e-10
3.229998654e-10
2.299282462e-10
1.202765058e-10
-9.977804225e-12
-1.657628117e-10
-3.533597034e-10
-5.807493696e-10
-8.580133467e-10
-1.197560911e-09
-1.614277878e-09
-2.125700301e-09
-2.752301774e-09
-3.518106605e-09
-4.451797351e-09
-5.587969836e-09
-6.968233678e-09
-8.641465398e-09
-1.066351992e-08
-1.309706696e-08
-1.601258013e-08
-1.949031728e-08
-2.362211728e-08
-2.851146114e-08
-3.427136626e-08
-4.102096759e-08
-4.888303545e-08
-5.79848851e-08
-6.84650572e-08
-8.048430236e-08
-9.423506524e-08
-1.099429717e-07
-1.278593177e-07
-1.482542455e-07
-1.714240662e-07
-1.977239855e-07
-2.276252264e-07
-2.617742192e-07
-3.010231915e-07
-3.464132056e-07
-3.991174672e-07
-4.602897237e-07
-5.30603298e-07
-6.090268954e-07
-6.905637369e-07
-7.634204941e-07
-8.141312851e-07
-8.406657126e-07
-8.870365738e-07
-8.739302429e-07
-5.99869142e-07
8.923146375e-07
-0.005124029743
-0.0500845193
14934.86698
0
0
0
0
0
0
0
0
0
0
0
0
0
0
0
0
0
0
0
0
0
0
0
0
0
0
0
0
0
0
0
0
14772.36254
-0.04907817905
-0.004771329755
6.982086562e-07
-7.614955075e-07
-1.211704062e-06
-1.254879395e-06
-1.241897014e-06
-1.244776944e-06
-1.238767661e-06
-1.202780141e-06
-1.198550599e-06
-1.282229532e-06
-5.821269294e-07
2.389435501e-09
2.022598982e-09
1.734644927e-09
1.502295271e-09
1.335986746e-09
1.207574505e-09
1.107603929e-09
1.028684492e-09
9.646518598e-10
9.106548502e-10
8.629422362e-10
8.186648015e-10
7.756363173e-10
7.321908884e-10
6.869663502e-10
6.388641533e-10
5.868389183e-10
5.297474374e-10
4.661597769e-10
3.941895984e-10
3.114404029e-10
2.14974947e-10
1.013193836e-10
-3.365464551e-11
-1.950850425e-10
-3.894429496e-10
-6.250363913e-10
-9.121718554e-10
-1.263431202e-09
-1.69367624e-09
-2.220303707e-09
-2.863507684e-09
-3.646986762e-09
-4.59888183e-09
-5.752888186e-09
-7.148978213e-09
-8.833572055e-09
-1.085921726e-08
-1.328469241e-08
-1.617593275e-08
-1.960754483e-08
-2.366373716e-08
-2.843779317e-08
-3.402991211e-08
-4.054460345e-08
-4.808932376e-08
-5.677737562e-08
-6.673613483e-08
-7.811820277e-08
-9.110896861e-08
-1.059255188e-07
-1.228111234e-07
-1.420373138e-07
-1.639295785e-07
-1.889272707e-07
-2.176703025e-07
-2.510876386e-07
-2.904669926e-07
-3.375322951e-07
-3.945828166e-07
-4.646664244e-07
-5.515103566e-07
-6.584341585e-07
-7.837727585e-07
-9.127925829e-07
-1.005562214e-06
-1.009128423e-06
-1.042429463e-06
-1.381401094e-06
-1.260383476e-06
-0.001470021629
2032.98644
4933.644358
0
0
0
0
0
0
0
0
0
0
0
0
0
0
0
0
0
0
0
0
0
0
0
0
0
0
0
0
0
0
0
0
0
0
4697.079632
1893.035375
-0.001026831787
-1.040639331e-06
-1.371166452e-06
-1.217396283e-06
-1.224689593e-06
-1.237440849e-06
-1.182519454e-06
-1.070629427e-06
-9.972014216e-07
-1.006191187e-06
-3.779485848e-07
2.420044761e-09
2.063851918e-09
1.781755605e-09
1.55116531e-09
1.384364264e-09
1.253176356e-09
1.148913231e-09
1.064827967e-09
9.952979868e-10
9.358336322e-10
8.829541648e-10
8.339213512e-10
7.866254704e-10
7.393635324e-10
6.907647032e-10
6.396728213e-10
5.84948785e-10
5.253289433e-10
4.592044635e-10
3.844708517e-10
2.985144445e-10
1.982266269e-10
8.001203265e-11
-6.043645286e-11
-2.284405727e-10
-4.30812451e-10
-6.761638203e-10
-9.751588356e-10
-1.340510519e-09
-1.787140256e-09
-2.332270586e-09
-2.995893949e-09
-3.80135441e-09
-4.776232539e-09
-5.953141057e-09
-7.370249415e-09
-9.071233646e-09
-1.110509354e-08
-1.352625006e-08
-1.639529264e-08
-1.977980262e-08
-2.375459555e-08
-2.840063005e-08
-3.380310867e-08
-4.004934244e-08
-4.72288424e-08
-5.543748634e-08
-6.478652705e-08
-7.541223544e-08
-8.747973696e-08
-1.011793389e-07
-1.167226732e-07
-1.343543167e-07
-1.543950396e-07
-1.773221796e-07
-2.038751014e-07
-2.351593092e-07
-2.727519449e-07
-3.188691322e-07
-3.766932777e-07
-4.509647987e-07
-5.490174108e-07
-6.814036241e-07
-8.607087306e-07
-1.079906272e-06
-1.283257852e-06
-1.258190185e-06
-1.26712311e-06
-1.202826144e-06
-0.001691162796
1164.572683
0
0
0
0
0
0
0
0
0
0
0
0
0
0
0
0
0
0
0
0
0
0
0
0
0
0
0
0
0
0
0
0
0
0
0
0
0
0
812.887481
-0.001025194649
-8.410444596e-07
-1.118869626e-06
-1.265835726e-06
-1.25781708e-06
-1.104629427e-06
-8.843032098e-07
-8.013762101e-07
-7.497836441e-07
-1.953679314e-07
2.421085581e-09
2.076910861e-09
1.802635456e-09
1.576321669e-09
1.411719516e-09
1.2805822e-09
1.174783255e-09
1.088144336e-09
1.015463348e-09
9.52617675e-10
8.963209578e-10
8.440058611e-10
7.936030917e-10
7.434842794e-10
6.922624436e-10
6.387492262e-10
5.817486642e-10
5.198747176e-10
4.512946241e-10
3.737037875e-10
2.842864813e-10
1.79789194e-10
5.646739619e-11
-9.013684026e-11
-2.656466773e-10
-4.772355762e-10
-7.339737446e-10
-1.04686288e-09
-1.428857897e-09
-1.894873594e-09
-2.462064939e-09
-3.150203837e-09
-3.98237057e-09
-4.985582653e-09
-6.191364119e-09
-7.635950706e-09
-9.360171206e-09
-1.140919607e-08
-1.383267288e-08
-1.668500048e-08