/*--------------------------------*- C++ -*----------------------------------*\
  =========                 |
  \\      /  F ield         | OpenFOAM: The Open Source CFD Toolbox
   \\    /   O peration     | Website:  https://openfoam.org
    \\  /    A nd           | Version:  6
     \\/     M anipulation  |
\*---------------------------------------------------------------------------*/
FoamFile
{
    version     2.0;
    format      ascii;
    class       volScalarField;
    location    "0.002";
    object      ViscousDissipation;
}
// * * * * * * * * * * * * * * * * * * * * * * * * * * * * * * * * * * * * * //

dimensions      [1 -1 -3 0 0 0 0];

internalField   nonuniform List<scalar> 
9600
(
2.71116417e-19
2.495540136e-19
2.38258746e-19
2.353511037e-19
2.367652403e-19
2.409163558e-19
2.469669879e-19
2.544271678e-19
2.629717015e-19
2.724249902e-19
2.827219815e-19
2.938855963e-19
3.05988765e-19
3.191389033e-19
3.334615842e-19
3.491001666e-19
3.662083817e-19
3.84957073e-19
4.055296203e-19
4.281340719e-19
4.529994524e-19
4.803918483e-19
5.10610717e-19
5.440124385e-19
5.810114902e-19
6.221164398e-19
6.679356427e-19
7.192216451e-19
7.768760378e-19
8.420068177e-19
9.159461488e-19
1.000340266e-18
1.09718423e-18
1.208922198e-18
1.338440484e-18
1.489103335e-18
1.664626053e-18
1.868978868e-18
2.106046493e-18
2.379237453e-18
2.690648482e-18
3.04001996e-18
3.423078149e-18
3.829727251e-18
4.241812482e-18
4.631259536e-18
4.958601905e-18
5.173464422e-18
5.217949072e-18
5.035830991e-18
4.589517012e-18
3.888283317e-18
3.029297849e-18
2.253853218e-18
2.019125458e-18
3.087709602e-18
6.631540553e-18
1.432795915e-17
2.837879605e-17
5.14436528e-17
8.730489178e-17
1.461444313e-16
2.622036433e-16
5.090828655e-16
8.957856911e-16
1.366960446e-15
2.894300088e-16
5.974225774e-16
1.320521684e-15
1.892215642e-15
2.520497171e-15
3.957255732e-15
1.370803023e-15
4.588564523e-16
2.636129374e-17
4.151187279e-17
1.329788441e-16
2.327232131e-16
3.290993767e-16
4.07575232e-16
4.527983845e-16
4.619875723e-16
4.446062348e-16
4.097452004e-16
3.632561804e-16
3.116729229e-16
2.620610738e-16
2.203327103e-16
1.905737042e-16
1.753847355e-16
1.764525307e-16
1.948793424e-16
2.310418509e-16
2.839694404e-16
3.503305965e-16
4.235379642e-16
4.940118248e-16
5.511657951e-16
5.843714862e-16
5.792800957e-16
5.217584141e-16
4.155171097e-16
2.841686119e-16
1.520782766e-16
4.594295776e-17
5.895941582e-17
5.578097696e-16
1.319459393e-15
3.4450791e-15
2.321689303e-15
1.85202367e-15
2.037131553e-15
2.85569559e-16
1.827091242e-15
3.083052111e-15
1.371719902e-15
1.184718662e-15
1.890964274e-15
3.966720753e-15
1.488087104e-15
2.744446442e-19
2.308554082e-19
2.122910909e-19
2.10225948e-19
2.132717585e-19
2.185089338e-19
2.251561007e-19
2.328425228e-19
2.413480144e-19
2.505552925e-19
2.604413598e-19
2.710544104e-19
2.824797576e-19
2.94832795e-19
3.082355445e-19
3.228279514e-19
3.38749144e-19
3.561570283e-19
3.752100853e-19
3.960933065e-19
4.189979084e-19
4.441522064e-19
4.717994167e-19
5.022370673e-19
5.357973306e-19
5.728984956e-19
6.140252608e-19
6.597872425e-19
7.108963086e-19
7.682401588e-19
8.328735701e-19
9.061246026e-19
9.895974952e-19
1.085279778e-18
1.19549663e-18
1.322953953e-18
1.470590612e-18
1.641513763e-18
1.838666743e-18
2.064480951e-18
2.320065312e-18
2.604229437e-18
2.911933854e-18
3.232653642e-18
3.548371547e-18
3.831947802e-18
4.045920837e-18
4.14323879e-18
4.071014448e-18
3.780172845e-18
3.243444091e-18
2.485919279e-18
1.631865849e-18
9.733563397e-19
1.066374722e-18
2.862823048e-18
7.88549638e-18
1.844620455e-17
3.789807303e-17
7.09909876e-17
1.248528643e-16
2.120941815e-16
3.562391872e-16
5.835417757e-16
8.379457738e-16
7.769805185e-16
3.295514147e-17
1.094922501e-15
3.943956824e-16
1.19896719e-15
1.360232004e-14
3.963734412e-14
1.163577629e-14
3.303158224e-15
2.184748802e-16
1.312469703e-16
2.669567711e-16
4.203370803e-16
5.941469606e-16
7.37376166e-16
7.993453156e-16
7.802792452e-16
7.202506016e-16
6.399326528e-16
5.425372932e-16
4.384568247e-16
3.415341148e-16
2.622623354e-16
2.065010511e-16
1.771286018e-16
1.758606149e-16
2.042867796e-16
2.637859812e-16
3.54216371e-16
4.713183991e-16
6.039040247e-16
7.341698448e-16
8.455107917e-16
9.284940874e-16
9.54949866e-16
8.746854313e-16
6.878657778e-16
4.62395736e-16
2.596426975e-16
9.20932251e-17
2.233723619e-16
3.560247756e-15
1.159093246e-14
3.809218095e-14
1.364966924e-14
2.053022718e-15
8.813355177e-17
4.228584995e-16
1.143368602e-15
1.941879113e-15
1.845206268e-15
1.579413624e-15
1.678727157e-15
2.64177014e-15
9.77169004e-16
2.718540082e-19
2.126316036e-19
1.916723616e-19
1.864158602e-19
1.912611465e-19
1.97522532e-19
2.046576604e-19
2.124802764e-19
2.208734489e-19
2.297895647e-19
2.392437242e-19
2.493039276e-19
2.600696775e-19
2.716551808e-19
2.841854062e-19
2.977877116e-19
3.125965263e-19
3.287478862e-19
3.463884366e-19
3.65670783e-19
3.867646236e-19
4.098513816e-19
4.351384495e-19
4.628561184e-19
4.932790637e-19
5.267272191e-19
5.635915723e-19
6.043339471e-19
6.495175951e-19
6.998156377e-19
7.560644329e-19
8.192939361e-19
8.907968036e-19
9.721445268e-19
1.065218076e-18
1.17215963e-18
1.295334985e-18
1.437193181e-18
1.600083733e-18
1.785842482e-18
1.995180184e-18
2.226693906e-18
2.475644317e-18
2.732429002e-18
2.981047661e-18
3.197672865e-18
3.35005349e-18
3.398602595e-18
3.301045765e-18
3.022884662e-18
2.557278689e-18
1.958685987e-18
1.396602625e-18
1.237202338e-18
2.163760449e-18
5.349316151e-18
1.26978338e-17
2.71680283e-17
5.319233464e-17
9.722714028e-17
1.685564153e-16
2.803061366e-16
4.480236437e-16
6.7275599e-16
8.776257283e-16
8.197137483e-16
3.809838926e-16
6.506663175e-16
1.623116425e-15
6.67741928e-16
3.75846185e-14
2.585025952e-13
1.748747959e-13
3.336970136e-14
7.043649952e-15
1.065564955e-15
8.047604138e-16
8.61922081e-16
1.212394361e-15
1.508729148e-15
1.553615392e-15
1.392179468e-15
1.213285856e-15
1.045420285e-15
8.485852637e-16
6.406227059e-16
4.535933252e-16
3.066886979e-16
2.065288095e-16
1.538524506e-16
1.487519531e-16
1.933454905e-16
2.919718775e-16
4.484446933e-16
6.596332925e-16
9.060999544e-16
1.149189168e-15
1.360268506e-15
1.573053596e-15
1.752590924e-15
1.686053779e-15
1.321358964e-15
9.000668865e-16
7.753821753e-16
9.613065967e-16
6.861596418e-15
3.394032377e-14
1.737817811e-13
2.552293201e-13
3.520036661e-14
3.312642994e-16
2.078819375e-16
2.871163807e-16
1.073277619e-15
1.960046304e-15
1.981076637e-15
1.530728679e-15
1.210770469e-15
1.498483217e-15
5.821605682e-16
3.749911254e-19
2.007282237e-19
1.654018129e-19
1.661177911e-19
1.706976613e-19
1.779611851e-19
1.854670574e-19
1.933189324e-19
2.015349691e-19
2.101232482e-19
2.19135065e-19
2.286526233e-19
2.387827243e-19
2.496405117e-19
2.613474703e-19
2.740244285e-19
2.877953172e-19
3.027832036e-19
3.191171562e-19
3.369290863e-19
3.563615922e-19
3.775642759e-19
4.007035432e-19
4.259615235e-19
4.535510556e-19
4.837173883e-19
5.1675523e-19
5.530102417e-19
5.929006019e-19
6.369301081e-19
6.857307889e-19
7.400969558e-19
8.010369635e-19
8.697933149e-19
9.478587721e-19
1.036951855e-18
1.138987228e-18
1.255991982e-18
1.389953918e-18
1.542502737e-18
1.714382164e-18
1.904664772e-18
2.10974957e-18
2.322212738e-18
2.529651472e-18
2.71382655e-18
2.85068033e-18
2.912370793e-18
2.873035699e-18
2.720995821e-18
2.481094843e-18
2.252757374e-18
2.271327206e-18
3.003522125e-18
5.290999448e-18
1.056040422e-17
2.112033707e-17
4.056342756e-17
7.427499314e-17
1.300034352e-16
2.182871351e-16
3.519013477e-16
5.411557052e-16
7.765159583e-16
9.881906494e-16
1.018250824e-15
8.049883319e-16
9.562217864e-16
2.198025249e-15
3.714783886e-15
2.531842303e-15
1.214286735e-13
5.324482289e-13
5.805948967e-13
1.435918265e-13
5.044170274e-15
2.25252759e-15
1.508183114e-15
2.785312803e-15
3.639467518e-15
3.433968473e-15
2.571552176e-15
2.081297107e-15
1.803933087e-15
1.419661751e-15
9.981851929e-16
6.349332832e-16
3.656297713e-16
1.910037444e-16
1.014738001e-16
9.052829394e-17
1.606603196e-16
3.241493695e-16
5.980067625e-16
9.893140095e-16
1.464892607e-15
1.917230717e-15
2.251170321e-15
2.783312597e-15
3.689693446e-15
3.889410529e-15
2.922483201e-15
1.549733868e-15
2.221447656e-15
4.891453762e-15
1.421582716e-13
5.759922178e-13
5.367314608e-13
1.232059142e-13
1.05148245e-15
9.957692963e-16
8.14083638e-16
9.901864593e-16
1.673716208e-15
2.133598141e-15
1.895586993e-15
1.26402899e-15
7.31363213e-16
7.110879965e-16
3.237627886e-16
1.207743889e-19
1.287916092e-19
1.369825374e-19
1.424286167e-19
1.514354441e-19
1.595543249e-19
1.673765871e-19
1.752331563e-19
1.83252307e-19
1.915125597e-19
2.000926879e-19
2.09091622e-19
2.186201469e-19
2.2879478e-19
2.397329483e-19
2.515503994e-19
2.64361273e-19
2.782782399e-19
2.934147266e-19
3.098857666e-19
3.278102689e-19
3.473114347e-19
3.685201959e-19
3.9157798e-19
4.166436084e-19
4.438979475e-19
4.735516403e-19
5.058503254e-19
5.410877946e-19
5.796239772e-19
6.219180281e-19
6.685641152e-19
7.203308251e-19
7.781840789e-19
8.433017735e-19
9.170712937e-19
1.001085855e-18
1.097108293e-18
1.20697678e-18
1.332375187e-18
1.474445403e-18
1.633213905e-18
1.806901169e-18
1.991167955e-18
2.178490904e-18
2.357964565e-18
2.516243982e-18
2.640763412e-18
2.727169779e-18
2.793745464e-18
2.90712272e-18
3.225450079e-18
4.068167447e-18
6.024929025e-18
1.012060891e-17
1.805680831e-17
3.255128019e-17
5.778710225e-17
9.994848109e-17
1.677193005e-16
2.723560245e-16
4.26278705e-16
6.376396727e-16
8.965268729e-16
1.152415407e-15
1.310856657e-15
1.336804802e-15
1.512865361e-15
2.250381871e-15
4.036420023e-15
5.413705826e-15
1.23675973e-15
2.149208969e-15
2.49248214e-13
8.400371444e-13
1.709591752e-13
3.455753382e-15
1.232956113e-15
8.887344657e-15
1.146930839e-14
9.47869824e-15
4.552544831e-15
3.410274296e-15
3.367168621e-15
2.622091562e-15
1.717225866e-15
9.872918915e-16
4.888669745e-16
1.888108233e-16
4.240011762e-17
2.325934671e-17
1.335342687e-16
4.057602413e-16
8.961424299e-16
1.655642059e-15
2.642492237e-15
3.501889505e-15
3.605848862e-15
4.744180575e-15
9.742072438e-15
1.185854753e-14
9.092774204e-15
1.259688093e-15
3.418266143e-15
1.698055748e-13
8.339432289e-13
2.447542947e-13
2.082075292e-15
2.4895922e-16
1.797340641e-15
2.908186539e-15
2.381209303e-15
2.274014956e-15
2.321852688e-15
2.170309647e-15
1.640256401e-15
9.35041531e-16
3.776949217e-16
2.867958841e-16
1.880011364e-16
9.174647871e-20
9.911506756e-20
1.103782076e-19
1.228500963e-19
1.33289489e-19
1.421324636e-19
1.502578291e-19
1.581257341e-19
1.659701571e-19
1.739240211e-19
1.821009144e-19
1.906137331e-19
1.995804448e-19
2.091186921e-19
2.193440595e-19
2.303674322e-19
2.42296e-19
2.552329374e-19
2.69279985e-19
2.845372069e-19
3.01105176e-19
3.190840541e-19
3.385765613e-19
3.596887144e-19
3.825349919e-19
4.07240124e-19
4.339447017e-19
4.628083797e-19
4.940218601e-19
5.278230525e-19
5.645270552e-19
6.0455748e-19
6.48481029e-19
6.97030852e-19
7.511290405e-19
8.119059857e-19
8.807279055e-19
9.592078892e-19
1.04917228e-18
1.152533046e-18
1.271053007e-18
1.406016619e-18
1.557866939e-18
1.725904811e-18
1.908241749e-18
2.1024026e-18
2.307322535e-18
2.528023279e-18
2.784967393e-18
3.13118196e-18
3.681765388e-18
4.662725906e-18
6.489170335e-18
9.886932174e-18
1.607588097e-17
2.703615282e-17
4.587585051e-17
7.730206748e-17
1.281459461e-16
2.077667384e-16
3.278821953e-16
5.008396325e-16
7.345573601e-16
1.022208447e-15
1.328807858e-15
1.591302173e-15
1.76634087e-15
1.918744654e-15
2.106752907e-15
2.066994061e-15
1.234058982e-15
5.344193065e-15
7.560228135e-15
6.131307563e-15
2.891087431e-13
4.710417451e-13
6.27343947e-14
2.013850122e-14
6.77766334e-14
5.520013363e-14
4.150569908e-14
6.09920387e-15
4.536098697e-15
7.438104951e-15
5.606580169e-15
3.380975588e-15
1.789925522e-15
8.231389732e-16
3.003726897e-16
6.459080461e-17
3.518331408e-17
2.121482714e-16
6.793289414e-16
1.608772957e-15
3.219304584e-15
5.585136483e-15
7.684735867e-15
4.817815643e-15
5.997639557e-15
4.112704453e-14
5.574567356e-14
6.816800537e-14
1.982913702e-14
6.176750058e-14
4.736521065e-13
2.849403886e-13
4.000451095e-15
4.025141762e-15
2.700298584e-15
3.665494395e-16
1.885310365e-15
2.548913148e-15
2.595785069e-15
2.361701644e-15
1.911988462e-15
1.285610242e-15
6.471439986e-16
1.875546843e-16
1.707272305e-16
1.452790743e-16
6.016518942e-20
7.675226543e-20
9.219707367e-20
1.05732288e-19
1.166300829e-19
1.258566415e-19
1.341631413e-19
1.420198507e-19
1.496951829e-19
1.573634294e-19
1.651621248e-19
1.732202628e-19
1.81662548e-19
1.906093995e-19
2.001751237e-19
2.10467449e-19
2.215878309e-19
2.336324773e-19
2.466935018e-19
2.608596154e-19
2.762162982e-19
2.928458426e-19
3.108277268e-19
3.302396832e-19
3.51159143e-19
3.736649077e-19
3.978390793e-19
4.237708361e-19
4.515652926e-19
4.813597842e-19
5.133482651e-19
5.478103126e-19
5.851403786e-19
6.258752672e-19
6.707254635e-19
7.206178231e-19
7.767525453e-19
8.406584522e-19
9.142204278e-19
9.996533665e-19
1.099428128e-18
1.216183835e-18
1.352701405e-18
1.512053422e-18
1.698168753e-18
1.917261469e-18
2.180960128e-18
2.512493617e-18
2.958099583e-18
3.606946279e-18
4.624594746e-18
6.307412615e-18
9.168714366e-18
1.407142252e-17
2.24261449e-17
3.647504768e-17
5.967620225e-17
9.717966191e-17
1.563266045e-16
2.469708145e-16
3.811706417e-16
5.714048231e-16
8.260708976e-16
1.141334331e-15
1.491197117e-15
1.824360218e-15
2.080591115e-15
2.216061263e-15
2.158230176e-15
1.745167607e-15
1.136895593e-15
3.815004794e-15
1.735523151e-14
1.494737532e-14
5.186482418e-15
2.728969097e-15
1.790963078e-14
7.879541923e-14
7.223186701e-13
4.414617452e-13
3.56930887e-13
2.234082503e-14
6.392602015e-15
2.618141501e-14
1.482358903e-14
7.861733628e-15
3.782896792e-15
1.710912381e-15
7.507681094e-16
3.625696754e-16
3.224092455e-16
6.249045505e-16
1.486496951e-15
3.456528857e-15
7.497744392e-15
1.471670392e-14
2.70866539e-14
7.331307401e-15
2.063674193e-14
3.495938209e-13
4.396453505e-13
7.199175851e-13
8.19681642e-14
1.894830262e-14
1.813384487e-15
2.60649268e-15
8.32205782e-15
1.257694431e-14
2.137885894e-15
4.824754883e-16
1.520876056e-15
2.221530248e-15
2.290701407e-15
1.992131506e-15
1.506940062e-15
9.522776316e-16
4.690250668e-16
1.590620038e-16
2.664409416e-16
1.640305532e-16
4.842937528e-20
6.333483089e-20
7.827746306e-20
9.100331599e-20
1.017080122e-19
1.109454074e-19
1.192518765e-19
1.270129849e-19
1.344887327e-19
1.418646711e-19
1.492947321e-19
1.569182804e-19
1.648660289e-19
1.732601922e-19
1.822143341e-19
1.918334096e-19
2.022147483e-19
2.134490108e-19
2.256213354e-19
2.388115206e-19
2.530939321e-19
2.685368705e-19
2.852022909e-19
3.031453711e-19
3.224146857e-19
3.43051957e-19
3.650928848e-19
3.885696603e-19
4.13518772e-19
4.399947251e-19
4.680909053e-19
4.97964083e-19
5.298614697e-19
5.641510869e-19
6.013640598e-19
6.422566078e-19
6.878935775e-19
7.39740622e-19
7.997476639e-19
8.704172204e-19
9.548802354e-19
1.057032601e-18
1.181817657e-18
1.335799922e-18
1.528302326e-18
1.773623826e-18
2.095226413e-18
2.533349838e-18
3.158335097e-18
4.093184903e-18
5.550660376e-18
7.892732303e-18
1.172352635e-17
1.803092318e-17
2.83955052e-17
4.528597904e-17
7.245166774e-17
1.153953436e-16
1.818450373e-16
2.820147495e-16
4.282222073e-16
6.331301524e-16
9.056496259e-16
1.243867425e-15
1.626086706e-15
2.004386487e-15
2.306613534e-15
2.444549427e-15
2.313541793e-15
1.835084347e-15
1.258145832e-15
2.061371399e-15
6.24800071e-15
7.488507337e-15
1.131990353e-14
1.603029002e-14
8.440214143e-15
3.186448355e-15
8.535337874e-13
8.114478735e-13
4.803359695e-13
9.029197179e-14
1.234456811e-13
2.09510417e-13
5.451211882e-14
2.20762513e-14
8.673841893e-15
3.73372769e-15
1.864591016e-15
1.193968898e-15
1.145715398e-15
1.705234732e-15
3.417090442e-15
8.125187002e-15
2.126507191e-14
5.397969903e-14
2.143569059e-13
1.29466316e-13
8.329300116e-14
4.728909982e-13
7.926310933e-13
8.545553088e-13
2.292271307e-15
5.434165711e-15
9.672719048e-15
5.78567333e-15
4.392391506e-15
4.163936706e-15
1.123735172e-15
7.035022146e-16
1.390253478e-15
1.846996295e-15
1.83864425e-15
1.535776767e-15
1.113088878e-15
7.022780446e-16
3.93543771e-16
2.3172056e-16
4.58823645e-16
2.101816837e-16
4.105189647e-20
5.402577783e-20
6.695490482e-20
7.850495509e-20
8.86206561e-20
9.756346315e-20
1.056646642e-19
1.132076978e-19
1.204143753e-19
1.274650403e-19
1.345167602e-19
1.417130705e-19
1.491865356e-19
1.570592698e-19
1.654431495e-19
1.744405454e-19
1.841453623e-19
1.946442152e-19
2.060171106e-19
2.183375489e-19
2.316719389e-19
2.460787186e-19
2.616071296e-19
2.782959621e-19
2.961721014e-19
3.152493378e-19
3.355278219e-19
3.56995934e-19
3.796361693e-19
4.034365417e-19
4.284071155e-19
4.546006045e-19
4.821371143e-19
5.112376759e-19
5.422753573e-19
5.758524589e-19
6.129037432e-19
6.548167202e-19
7.035605268e-19
7.618328307e-19
8.332623457e-19
9.227317376e-19
1.036920311e-18
1.185231239e-18
1.381413751e-18
1.646434943e-18
2.013548388e-18
2.537080136e-18
3.307337128e-18
4.47532332e-18
6.292792868e-18
9.175679011e-18
1.380223705e-17
2.126102736e-17
3.326704459e-17
5.246372467e-17
8.281862648e-17
1.300905566e-16
2.022797962e-16
3.098477443e-16
4.652917624e-16
6.814088509e-16
9.674154316e-16
1.322336936e-15
1.72620853e-15
2.131694737e-15
2.460463055e-15
2.608299107e-15
2.465419509e-15
1.983954638e-15
1.346383483e-15
1.161385124e-15
2.030299077e-15
2.723710458e-15
4.359246755e-15
9.595131075e-15
1.581969397e-14
2.114559003e-14
1.973368702e-14
1.520805757e-14
1.498134888e-14
7.540157702e-13
7.296126933e-13
3.988329748e-13
4.413035196e-13
6.786960877e-14
1.872713095e-14
7.328779722e-15
3.752413825e-15
2.587506392e-15
2.536742409e-15
3.574386473e-15
6.927775411e-15
1.787192788e-14
6.606656133e-14
4.376787176e-13
3.955094059e-13
7.012605573e-13
7.5118164e-13
1.451019283e-14
1.376049229e-14
1.608181871e-14
1.473538497e-14
1.00942903e-14
6.018606385e-15
2.307597002e-15
1.617738369e-15
1.280078875e-15
6.432302952e-16
8.032982287e-16
1.279564854e-15
1.535810236e-15
1.455223493e-15
1.164394345e-15
8.289946325e-16
5.499837551e-16
3.844722203e-16
3.385236588e-16
6.574152544e-16
2.569055038e-16
3.572302878e-20
4.655149972e-20
5.769056344e-20
6.799499143e-20
7.731550679e-20
8.574021987e-20
9.345286271e-20
1.006469718e-19
1.075015421e-19
1.14179701e-19
1.20832287e-19
1.275996263e-19
1.346115564e-19
1.419872898e-19
1.498357525e-19
1.582563666e-19
1.673401534e-19
1.771706697e-19
1.878244575e-19
1.993708744e-19
2.118714094e-19
2.253783113e-19
2.39932826e-19
2.555629434e-19
2.722809841e-19
2.900812928e-19
3.089389602e-19
3.288105345e-19
3.496382008e-19
3.713580795e-19
3.939126435e-19
4.172671676e-19
4.414324245e-19
4.664998526e-19
4.926988249e-19
5.204829407e-19
5.506449175e-19
5.844537955e-19
6.238147674e-19
6.71472672e-19
7.313066892e-19
8.087895125e-19
9.117173883e-19
1.051393066e-18
1.244590091e-18
1.516883845e-18
1.908322084e-18
2.483011775e-18
3.345094294e-18
4.664906731e-18
6.720972003e-18
9.965962362e-18
1.512798408e-17
2.336219905e-17
3.647066796e-17
5.720745166e-17
8.967510827e-17
1.397876466e-16
2.157070565e-16
3.280368327e-16
4.893647994e-16
7.125199137e-16
1.006766216e-15
1.371359406e-15
1.786754677e-15
2.205373373e-15
2.545886529e-15
2.697719372e-15
2.548689583e-15
2.05733239e-15
1.362100773e-15
7.884622288e-16
5.865418751e-16
6.006747113e-16
6.594638997e-16
1.406211844e-15
2.766647044e-15
7.847947938e-15
1.750826145e-14
1.148116968e-14
3.678430986e-14
1.689510356e-14
6.825084438e-16
1.047211548e-15
5.066418117e-16
1.465462084e-13
3.426488654e-14
1.164802278e-14
5.627981224e-15
3.861306755e-15
3.81216418e-15
5.446227142e-15
1.118739089e-14
3.304656435e-14
1.427862461e-13
4.987086356e-16
1.027185446e-15
6.725466993e-16
1.607563711e-14
3.376237197e-14
1.076409091e-14
1.641147979e-14
7.052306533e-15
2.022647646e-15
8.185131581e-16
3.273192728e-16
4.028057408e-16
3.726455228e-16
4.628443731e-16
7.994842468e-16
1.172441288e-15
1.3290553e-15
1.209218899e-15
9.375700727e-16
6.618357038e-16
4.720047672e-16
3.928468033e-16
4.187453009e-16
7.853284062e-16
2.889383247e-16
3.130113177e-20
4.043935277e-20
5.005636119e-20
5.916714843e-20
6.760730224e-20
7.537528541e-20
8.256453028e-20
8.930330027e-20
9.573240741e-20
1.019935996e-19
1.082251593e-19
1.145587903e-19
1.211177901e-19
1.280161285e-19
1.353585152e-19
1.432411156e-19
1.517523299e-19
1.609734436e-19
1.709788938e-19
1.818359318e-19
1.936037741e-19
2.063319678e-19
2.200580625e-19
2.348046445e-19
2.50576072e-19
2.673554715e-19
2.851026463e-19
3.0375375e-19
3.232233285e-19
3.434094721e-19
3.642020322e-19
3.854950027e-19
4.072066255e-19
4.293146528e-19
4.519157412e-19
4.753146184e-19
5.001415983e-19
5.274947022e-19
5.591133063e-19
5.976117654e-19
6.468265361e-19
7.123512592e-19
8.023697359e-19
9.289712069e-19
1.110286292e-18
1.374032565e-18
1.763458409e-18
2.347272887e-18
3.236063574e-18
4.609019488e-18
6.756610836e-18
1.014734005e-17
1.552984909e-17
2.408529591e-17
3.764788365e-17
5.901052132e-17
9.232170547e-17
1.435473947e-16
2.209018964e-16
3.350253372e-16
4.984950843e-16
7.240385418e-16
1.020693929e-15
1.387389179e-15
1.804236074e-15
2.223250632e-15
2.561898911e-15
2.705776857e-15
2.535564011e-15
2.0073675e-15
1.283144425e-15
7.446195706e-16
6.687380836e-16
7.951461298e-16
8.557114746e-16
1.513938042e-15
2.73846368e-15
7.536242893e-15
1.70951603e-14
1.159507454e-14
3.675859279e-14
1.692482134e-14
6.839086087e-16
1.047268385e-15
5.067250714e-16
1.465746561e-13
3.426801109e-14
1.164601642e-14
5.625161002e-15
3.858624163e-15
3.809958316e-15
5.445058106e-15
1.118917444e-14
3.30583143e-14
1.428365347e-13
4.988137852e-16
1.027281151e-15
6.738271642e-16
1.599534668e-14
3.377809099e-14
1.099100278e-14
1.585957958e-14
6.521655894e-15
1.781671524e-15
8.140938262e-16
4.853452106e-16
5.595312795e-16
4.794931507e-16
4.86485318e-16
7.580562787e-16
1.095837649e-15
1.243022153e-15
1.128351621e-15
8.733584273e-16
6.193124347e-16
4.523742011e-16
3.96402418e-16
4.328577527e-16
8.089742772e-16
2.942612531e-16
2.756184668e-20
3.535047078e-20
4.367993254e-20
5.169500256e-20
5.924535811e-20
6.629324125e-20
7.288195133e-20
7.9098256e-20
8.505248038e-20
9.086547018e-20
9.666033899e-20
1.025574105e-19
1.086711764e-19
1.151089256e-19
1.219704701e-19
1.293484793e-19
1.373289622e-19
1.45991621e-19
1.554099692e-19
1.656509388e-19
1.767739352e-19
1.888289849e-19
2.018539426e-19
2.158709885e-19
2.308827808e-19
2.468689833e-19
2.637834953e-19
2.815529135e-19
3.000764881e-19
3.192279515e-19
3.38859707e-19
3.588111944e-19
3.789259043e-19
3.990847169e-19
4.192634977e-19
4.396188111e-19
4.605991807e-19
4.830802651e-19
5.085344822e-19
5.392678138e-19
5.787768662e-19
6.322979321e-19
7.076510909e-19
8.165590185e-19
9.767691629e-19
1.21556203e-18
1.575617531e-18
2.124811605e-18
2.972404584e-18
4.295368612e-18
6.380389505e-18
9.689517542e-18
1.496064858e-17
2.335783153e-17
3.668963227e-17
5.771341143e-17
9.053251237e-17
1.410604447e-16
2.174533718e-16
3.302801295e-16
4.919979525e-16
7.150729489e-16
1.007984049e-15
1.368690639e-15
1.776214469e-15
2.182432567e-15
2.506500701e-15
2.633758656e-15
2.431959859e-15
1.843878704e-15
1.128004519e-15
1.066691112e-15
2.308752914e-15
3.245844309e-15
4.730866496e-15
9.668243788e-15
1.589112182e-14
2.067043716e-14
1.930239407e-14
1.523890894e-14
1.510223974e-14
7.554900072e-13
7.300566043e-13
3.994206248e-13
4.416782363e-13
6.794303008e-14
1.873819893e-14
7.32552454e-15
3.74608549e-15
2.581099418e-15
2.531525693e-15
3.572028223e-15
6.932851293e-15
1.789919392e-14
6.616789549e-14
4.380872254e-13
3.960824756e-13
7.017148055e-13
7.525317789e-13
1.444486727e-14
1.371958127e-14
1.535061641e-14
1.411213379e-14
9.911276031e-15
6.012996292e-15
2.743496542e-15
2.078427641e-15
1.598420033e-15
7.259917954e-16
7.040577721e-16
1.068459609e-15
1.286580748e-15
1.213497566e-15
9.687006205e-16
6.946398754e-16
4.849887506e-16
3.751819847e-16
3.744803984e-16
7.198629163e-16
2.727682234e-16
2.433884278e-20
3.102413891e-20
3.82577272e-20
4.52856012e-20
5.198384344e-20
5.830395231e-20
6.426593748e-20
6.993090857e-20
7.538715382e-20
8.07370978e-20
8.608896932e-20
9.155109089e-20
9.722851254e-20
1.032213999e-19
1.096244443e-19
1.165268183e-19
1.24012424e-19
1.321600176e-19
1.410432479e-19
1.507303601e-19
1.612831655e-19
1.727550374e-19
1.851877887e-19
1.986078014e-19
2.13021915e-19
2.284136864e-19
2.447400918e-19
2.619287779e-19
2.798758965e-19
2.984448364e-19
3.174666922e-19
3.367447731e-19
3.560680425e-19
3.752407133e-19
3.941344618e-19
4.127650832e-19
4.313899491e-19
4.506253007e-19
4.715957867e-19
4.961488592e-19
5.271826004e-19
5.691490844e-19
6.288234832e-19
7.165019498e-19
8.479393487e-19
1.04758285e-18
1.354040114e-18
1.829293688e-18
2.574020761e-18
3.752592323e-18
5.633050923e-18
8.649804327e-18
1.350011519e-17
2.128954995e-17
3.374534308e-17
5.351686688e-17
8.457228538e-17
1.326674357e-16
2.057881659e-16
3.143248061e-16
4.705087433e-16
6.8636783e-16
9.693591487e-16
1.315425175e-15
1.701059901e-15
2.078309592e-15
2.374748658e-15
2.488997135e-15
2.276231157e-15
1.634676705e-15
9.641703676e-16
2.025974983e-15
6.698017207e-15
8.020911283e-15
1.158172907e-14
1.560560705e-14
8.366793737e-15
3.070777476e-15
8.530637825e-13
8.098105084e-13
4.806274959e-13
9.038142054e-14
1.232897339e-13
2.097263961e-13
5.464021443e-14
2.212509264e-14
8.686028281e-15
3.732050155e-15
1.858414337e-15
1.187093813e-15
1.14026836e-15
1.703591167e-15
3.423804377e-15
8.150172442e-15
2.132835108e-14
5.410798284e-14
2.145035187e-13
1.292989906e-13
8.336544821e-14
4.730784832e-13
7.911680492e-13
8.542756004e-13
2.054976838e-15
4.991499637e-15
9.074911622e-15
6.421823432e-15
4.8747844e-15
4.5969131e-15
1.274957825e-15
6.051015509e-16
1.074587936e-15
1.44437283e-15
1.442664825e-15
1.203619666e-15
8.86437953e-16
5.837502943e-16
3.619421991e-16
2.693922106e-16
5.460166912e-16
2.320855422e-16
2.150943424e-20
2.72734157e-20
3.356377385e-20
3.971149413e-20
4.561881317e-20
5.123972031e-20
5.658406877e-20
6.169841013e-20
6.665519655e-20
7.154202303e-20
7.645385266e-20
8.148782825e-20
8.674002463e-20
9.230371824e-20
9.826863544e-20
1.047206893e-19
1.117419866e-19
1.19410946e-19
1.27802364e-19
1.369872384e-19
1.470317553e-19
1.579951715e-19
1.699264922e-19
1.828605148e-19
1.968137396e-19
2.117805977e-19
2.277298019e-19
2.446004615e-19
2.622980011e-19
2.806901514e-19
2.996042531e-19
3.188283131e-19
3.38120668e-19
3.572344431e-19
3.759616721e-19
3.941965757e-19
4.120134923e-19
4.297579504e-19
4.481632915e-19
4.68521549e-19
4.929488167e-19
5.247926169e-19
5.692524126e-19
6.343544496e-19
7.325637072e-19
8.835535209e-19
1.119015244e-18
1.490925659e-18
2.085462493e-18
3.045874366e-18
4.609261343e-18
7.164684437e-18
1.13435015e-17
1.815724531e-17
2.920264939e-17
4.695462012e-17
7.515932365e-17
1.193090046e-16
1.871052395e-16
2.88660015e-16
4.359018969e-16
6.402735404e-16
9.076202306e-16
1.230069401e-15
1.578188282e-15
1.902549447e-15
2.151322467e-15
2.275771816e-15
2.143767003e-15
1.533786551e-15
8.955082311e-16
3.983010355e-15
1.764504039e-14
1.549721661e-14
5.571447582e-15
2.75388169e-15
1.798762169e-14
7.918310658e-14
7.215441456e-13
4.410955367e-13
3.568186892e-13
2.233564151e-14
6.400529369e-15
2.625630791e-14
1.488463793e-14
7.894502485e-15
3.795047821e-15
1.712033213e-15
7.471124661e-16
3.577334616e-16
3.188626413e-16
6.251600331e-16
1.494073323e-15
3.476614062e-15
7.535861963e-15
1.477228283e-14
2.71368108e-14
7.326018437e-15
2.063948589e-14
3.494198285e-13
4.392673139e-13
7.193606924e-13
8.231255153e-14
1.906279688e-14
1.68656847e-15
3.060901635e-15
8.919255239e-15
1.284842946e-14
2.234782674e-15
4.474973346e-16
1.158896515e-15
1.703534353e-15
1.77038802e-15
1.548491299e-15
1.183688016e-15
7.677764055e-16
3.966007372e-16
1.742005286e-16
3.44868368e-16
1.847031155e-16
1.899231939e-20
2.397207962e-20
2.944336587e-20
3.480944596e-20
3.999665846e-20
4.496534496e-20
4.97223538e-20
5.430569139e-20
5.877681294e-20
6.321160767e-20
6.769402334e-20
7.231147055e-20
7.715197724e-20
8.230256143e-20
8.78484026e-20
9.387245612e-20
1.004554251e-19
1.076759648e-19
1.156109166e-19
1.243353034e-19
1.339213608e-19
1.444363804e-19
1.559393844e-19
1.684773481e-19
1.820814817e-19
1.967636902e-19
2.125127494e-19
2.292895087e-19
2.470212198e-19
2.655954472e-19
2.848549892e-19
3.045962007e-19
3.245750572e-19
3.445259163e-19
3.641958211e-19
3.833921785e-19
4.020377134e-19
4.202306068e-19
4.383196311e-19
4.57017072e-19
4.775773911e-19
5.020717289e-19
5.33807536e-19
5.78008918e-19
6.430087693e-19
7.424296063e-19
8.991664821e-19
1.152466344e-18
1.570071754e-18
2.268392833e-18
3.445239697e-18
5.432099602e-18
8.776511745e-18
1.436964147e-17
2.363886184e-17
3.882745858e-17
6.337818518e-17
1.024129292e-16
1.632302255e-16
2.555701636e-16
3.910395846e-16
5.805117438e-16
8.277867189e-16
1.118695726e-15
1.410860681e-15
1.64436593e-15
1.802154109e-15
1.978331606e-15
2.165138181e-15
1.930651859e-15
1.176968172e-15
5.363087637e-15
8.158414751e-15
6.642506738e-15
2.885462463e-13
4.714342012e-13
6.26330616e-14
2.013981562e-14
6.766839606e-14
5.512351838e-14
4.151894173e-14
6.125736986e-15
4.55981616e-15
7.476036305e-15
5.642108514e-15
3.404651179e-15
1.801786355e-15
8.269435952e-16
2.999240872e-16
6.279906219e-17
3.437178268e-17
2.145145168e-16
6.872822036e-16
1.624658711e-15
3.243853307e-15
5.614435786e-15
7.708390406e-15
4.827313443e-15
6.008143011e-15
4.110439611e-14
5.56583995e-14
6.810406305e-14
1.982386221e-14
6.169571295e-14
4.738918328e-13
2.844741088e-13
4.466007972e-15
4.323611298e-15
2.769141843e-15
4.347691018e-16
1.541241723e-15
2.025284133e-15
2.04421804e-15
1.870893064e-15
1.52994249e-15
1.040278948e-15
5.317782082e-16
1.561524075e-16
2.023860905e-16
1.525906639e-16
1.673509509e-20
2.103845392e-20
2.579318873e-20
3.046641376e-20
3.500463099e-20
3.937557213e-20
4.358588387e-20
4.766857041e-20
5.167723245e-20
5.56787571e-20
5.974809855e-20
6.396448635e-20
6.840899758e-20
7.316311737e-20
7.830794708e-20
8.392386494e-20
9.009054684e-20
9.688741095e-20
1.043941278e-19
1.126907769e-19
1.218569885e-19
1.319698125e-19
1.431006537e-19
1.553119783e-19
1.686543016e-19
1.831631482e-19
1.988552467e-19
2.157232206e-19
2.337288129e-19
2.527956268e-19
2.72802673e-19
2.935811165e-19
3.149174468e-19
3.36566756e-19
3.582771513e-19
3.798214281e-19
4.010288749e-19
4.218134673e-19
4.422046096e-19
4.623947592e-19
4.828182616e-19
5.042727028e-19