/*--------------------------------*- C++ -*----------------------------------*\
  =========                 |
  \\      /  F ield         | OpenFOAM: The Open Source CFD Toolbox
   \\    /   O peration     | Website:  https://openfoam.org
    \\  /    A nd           | Version:  6
     \\/     M anipulation  |
\*---------------------------------------------------------------------------*/
FoamFile
{
    version     2.0;
    format      ascii;
    class       volVectorField;
    location    "0.004";
    object      U;
}
// * * * * * * * * * * * * * * * * * * * * * * * * * * * * * * * * * * * * * //

dimensions      [0 1 -1 0 0 0 0];

internalField   nonuniform List<vector> 
9600
(
(0 1.707666448e-11 -4.009490157e-12)
(0 1.696040251e-11 -1.179156184e-11)
(0 1.653616355e-11 -1.921587884e-11)
(0 1.579607319e-11 -2.632876501e-11)
(0 1.475117043e-11 -3.322150865e-11)
(0 1.341453628e-11 -3.99744917e-11)
(0 1.179401946e-11 -4.664569242e-11)
(0 9.891433012e-12 -5.327398545e-11)
(0 7.703584246e-12 -5.988370588e-11)
(0 5.223514345e-12 -6.648963189e-11)
(0 2.441452132e-12 -7.3099514e-11)
(0 -6.545420375e-13 -7.971677534e-11)
(0 -4.078192347e-12 -8.634126769e-11)
(0 -7.844795839e-12 -9.297075885e-11)
(0 -1.197113317e-11 -9.960086934e-11)
(0 -1.647544379e-11 -1.062260182e-10)
(0 -2.137744456e-11 -1.12838984e-10)
(0 -2.669836274e-11 -1.194315946e-10)
(0 -3.246098513e-11 -1.259941001e-10)
(0 -3.868971148e-11 -1.325157337e-10)
(0 -4.54106106e-11 -1.389839812e-10)
(0 -5.265146016e-11 -1.453850618e-10)
(0 -6.044175829e-11 -1.517031239e-10)
(0 -6.881270061e-11 -1.579206619e-10)
(0 -7.779712805e-11 -1.640176595e-10)
(0 -8.742945051e-11 -1.699719699e-10)
(0 -9.774553225e-11 -1.757584318e-10)
(0 -1.087825014e-10 -1.813492149e-10)
(0 -1.205784283e-10 -1.867128872e-10)
(0 -1.33171843e-10 -1.918146981e-10)
(0 -1.466010852e-10 -1.96615605e-10)
(0 -1.609035308e-10 -2.010725635e-10)
(0 -1.761147127e-10 -2.051376599e-10)
(0 -1.922673313e-10 -2.087585827e-10)
(0 -2.093900425e-10 -2.118779979e-10)
(0 -2.275059016e-10 -2.144342505e-10)
(0 -2.466303031e-10 -2.16360989e-10)
(0 -2.667683854e-10 -2.175881677e-10)
(0 -2.879119087e-10 -2.180422201e-10)
(0 -3.100357228e-10 -2.176479579e-10)
(0 -3.330938178e-10 -2.163300984e-10)
(0 -3.57014883e-10 -2.14016849e-10)
(0 -3.816971271e-10 -2.106433821e-10)
(0 -4.070022576e-10 -2.061574865e-10)
(0 -4.327486511e-10 -2.005253641e-10)
(0 -4.587040526e-10 -1.937399243e-10)
(0 -4.845781068e-10 -1.858296877e-10)
(0 -5.100150523e-10 -1.768703706e-10)
(0 -5.345867419e-10 -1.66996812e-10)
(0 -5.577863685e-10 -1.564163632e-10)
(0 -5.790232018e-10 -1.454204004e-10)
(0 -5.976186551e-10 -1.343937229e-10)
(0 -6.12803463e-10 -1.23817536e-10)
(0 -6.237154983e-10 -1.142653299e-10)
(0 -6.293976826e-10 -1.063888285e-10)
(0 -6.287972723e-10 -1.008966555e-10)
(0 -6.207726316e-10 -9.852713789e-11)
(0 -6.041216549e-10 -1.000167598e-10)
(0 -5.776463391e-10 -1.060448147e-10)
(0 -5.402201803e-10 -1.170907577e-10)
(0 -4.906119671e-10 -1.330889863e-10)
(0 -4.263711815e-10 -1.5292485e-10)
(0 -3.408592684e-10 -1.747281104e-10)
(0 -2.200953093e-10 -2.00458563e-10)
(0 -5.510002627e-11 -2.50878795e-10)
(0 9.049142456e-11 -3.707184308e-10)
(0 -6.083053535e-11 -5.510721661e-10)
(0 -2.081330962e-12 1.045647544e-11)
(0 -1.706113422e-12 6.619061339e-12)
(0 1.146988076e-12 4.172942164e-13)
(0 2.956092038e-12 -6.870782522e-12)
(0 9.093462314e-12 -1.445431781e-11)
(0 1.53426994e-11 -9.340847948e-12)
(0 1.63996711e-11 -4.360603124e-12)
(0 1.580098289e-11 -3.167460084e-12)
(0 1.609056052e-11 -2.818189166e-12)
(0 1.720546223e-11 -2.006636527e-12)
(0 1.859739888e-11 -3.972010897e-13)
(0 1.979502855e-11 1.997942707e-12)
(0 2.042114654e-11 5.054325603e-12)
(0 2.021484668e-11 8.441375894e-12)
(0 1.912456961e-11 1.173513622e-11)
(0 1.728320492e-11 1.461768406e-11)
(0 1.490959022e-11 1.690750559e-11)
(0 1.224355344e-11 1.853535872e-11)
(0 9.504656269e-12 1.953546607e-11)
(0 6.855526609e-12 2.002185972e-11)
(0 4.381177222e-12 2.014539404e-11)
(0 2.090616072e-12 2.005129322e-11)
(0 -6.593786301e-14 1.984881247e-11)
(0 -2.173907665e-12 1.959524854e-11)
(0 -4.330479509e-12 1.928921973e-11)
(0 -6.620517419e-12 1.887122503e-11)
(0 -9.092097543e-12 1.823047307e-11)
(0 -1.173359947e-11 1.722204916e-11)
(0 -1.44579143e-11 1.569705912e-11)
(0 -1.710185501e-11 1.354617066e-11)
(0 -1.944780248e-11 1.074232022e-11)
(0 -2.126168225e-11 7.363708045e-12)
(0 -2.233480281e-11 3.598973307e-12)
(0 -2.25472679e-11 -2.29743463e-13)
(0 -2.196447993e-11 -3.698680395e-12)
(0 -2.086017168e-11 -6.479452091e-12)
(0 -1.962263139e-11 -8.450393108e-12)
(0 -1.873236964e-11 -9.600272389e-12)
(0 -1.874540913e-11 -1.026172191e-11)
(0 -1.973230517e-11 -1.172995183e-11)
(0 -1.916479906e-11 -1.692161911e-11)
(0 -1.354249667e-11 -2.215988238e-11)
(0 -8.173938107e-12 -1.466865771e-11)
(0 -7.227672312e-12 -7.441055887e-12)
(0 -5.268684604e-12 -1.247467427e-12)
(0 -1.629141134e-12 6.336371566e-12)
(0 -3.13125531e-10 -7.448011767e-11)
(0 -7.493059556e-10 7.1920527e-10)
(0 -7.320808336e-10 1.354353436e-09)
(0 -5.311596259e-10 1.665244371e-09)
(0 -2.691270507e-10 1.586801289e-09)
(0 -2.157783011e-11 1.047996561e-09)
(0 1.436219899e-11 -8.906881146e-23)
(0 1.08389831e-11 -4.268932984e-12)
(0 1.077966975e-11 -1.216586742e-11)
(0 1.030872153e-11 -1.939741286e-11)
(0 9.489611887e-12 -2.617589988e-11)
(0 8.364784119e-12 -3.268715536e-11)
(0 6.95982242e-12 -3.905186544e-11)
(0 5.285206636e-12 -4.534239436e-11)
(0 3.341749263e-12 -5.160046318e-11)
(0 1.124366732e-12 -5.784953667e-11)
(0 -1.375661835e-12 -6.410172805e-11)
(0 -4.169451523e-12 -7.036234973e-11)
(0 -7.26984721e-12 -7.663206606e-11)
(0 -1.069109697e-11 -8.290869756e-11)
(0 -1.444870854e-11 -8.918777303e-11)
(0 -1.855941436e-11 -9.54633864e-11)
(0 -2.304118662e-11 -1.017281583e-10)
(0 -2.791328149e-11 -1.07973718e-10)
(0 -3.319628984e-11 -1.141904119e-10)
(0 -3.891219985e-11 -1.203676149e-10)
(0 -4.50844588e-11 -1.264933195e-10)
(0 -5.173803117e-11 -1.325543626e-10)
(0 -5.889943703e-11 -1.385359425e-10)
(0 -6.659675838e-11 -1.444217848e-10)
(0 -7.485961616e-11 -1.501936075e-10)
(0 -8.371912162e-11 -1.558312514e-10)
(0 -9.320780418e-11 -1.613121241e-10)
(0 -1.033594951e-10 -1.666113126e-10)
(0 -1.14209123e-10 -1.71701002e-10)
(0 -1.257923739e-10 -1.765505482e-10)
(0 -1.381452005e-10 -1.811258589e-10)
(0 -1.513031949e-10 -1.853894617e-10)
(0 -1.653008825e-10 -1.892999626e-10)
(0 -1.801709459e-10 -1.928122787e-10)
(0 -1.959433507e-10 -1.958773482e-10)
(0 -2.126442375e-10 -1.984426364e-10)
(0 -2.302944582e-10 -2.004521189e-10)
(0 -2.489076482e-10 -2.018470673e-10)
(0 -2.684878816e-10 -2.025664447e-10)
(0 -2.890269994e-10 -2.025483823e-10)
(0 -3.105017389e-10 -2.017317002e-10)
(0 -3.328706117e-10 -2.000589142e-10)
(0 -3.560703795e-10 -1.974795895e-10)
(0 -3.800118656e-10 -1.939552935e-10)
(0 -4.045750707e-10 -1.894650143e-10)
(0 -4.296037463e-10 -1.840124055e-10)
(0 -4.548998202e-10 -1.776339561e-10)
(0 -4.802179068e-10 -1.704094303e-10)
(0 -5.05259986e-10 -1.624734397e-10)
(0 -5.296700871e-10 -1.540289051e-10)
(0 -5.530289108e-10 -1.453606645e-10)
(0 -5.748482238e-10 -1.368492586e-10)
(0 -5.94564828e-10 -1.289825605e-10)
(0 -6.115335251e-10 -1.223646985e-10)
(0 -6.250185179e-10 -1.177199313e-10)
(0 -6.341827487e-10 -1.158916141e-10)
(0 -6.380754928e-10 -1.178354372e-10)
(0 -6.356196996e-10 -1.246076182e-10)
(0 -6.256010244e-10 -1.373434413e-10)
(0 -6.066533922e-10 -1.572142931e-10)
(0 -5.772086021e-10 -1.853405949e-10)
(0 -5.353229173e-10 -2.226604047e-10)
(0 -4.782947412e-10 -2.699053704e-10)
(0 -4.025552355e-10 -3.281811791e-10)
(0 -3.06277053e-10 -4.007662533e-10)
(0 -2.010811088e-10 -4.939892211e-10)
(0 -1.346717969e-10 -6.016735675e-10)
(0 -1.82033197e-10 -6.422919146e-10)
(0 -1.617794186e-10 -3.813414177e-10)
(0 -1.695498074e-12 2.08132981e-12)
(0 -5.075692554e-12 1.70611342e-12)
(0 -6.643626364e-12 -8.39893743e-12)
(0 7.802662854e-12 -3.350716952e-11)
(0 2.298556988e-11 -1.171753451e-11)
(0 2.031396436e-11 -3.672617009e-13)
(0 1.612802351e-11 -2.374568186e-12)
(0 1.625858975e-11 -4.029235856e-12)
(0 1.827784322e-11 -3.92635634e-12)
(0 2.069719996e-11 -2.28387037e-12)
(0 2.280677088e-11 5.833563111e-13)
(0 2.405902033e-11 4.596921754e-12)
(0 2.399696961e-11 9.17293363e-12)
(0 2.258792993e-11 1.350759513e-11)
(0 2.013532176e-11 1.714287129e-11)
(0 1.701460721e-11 1.987972029e-11)
(0 1.359400198e-11 2.165289581e-11)
(0 1.020292156e-11 2.255107596e-11)
(0 7.072731614e-12 2.278809555e-11)
(0 4.303497222e-12 2.262372964e-11)
(0 1.874995646e-12 2.229132139e-11)
(0 -3.182595388e-13 2.195714454e-11)
(0 -2.429264325e-12 2.170481321e-11)
(0 -4.625639701e-12 2.153216708e-11)
(0 -7.059005441e-12 2.135167125e-11)
(0 -9.831619922e-12 2.09947985e-11)
(0 -1.295911786e-11 2.022774773e-11)
(0 -1.633661513e-11 1.879314128e-11)
(0 -1.972883196e-11 1.648377787e-11)
(0 -2.280539357e-11 1.322306827e-11)
(0 -2.520380197e-11 9.090450787e-12)
(0 -2.656169537e-11 4.298148551e-12)
(0 -2.659352026e-11 -6.894729327e-13)
(0 -2.534992194e-11 -5.069724283e-12)
(0 -2.3302445e-11 -8.264269491e-12)
(0 -2.100931339e-11 -1.019996149e-11)
(0 -1.91866331e-11 -1.05671074e-11)
(0 -1.932371304e-11 -9.148465391e-12)
(0 -2.383907368e-11 -7.345395685e-12)
(0 -2.690770613e-11 -1.880966997e-11)
(0 -1.22892329e-11 -4.051833826e-11)
(0 1.397077925e-12 -1.536992659e-11)
(0 -1.02326409e-12 -5.268684604e-12)
(0 -1.572987744e-12 -1.629142276e-12)
(0 -2.209140264e-10 -3.938497044e-11)
(0 -4.907309054e-10 1.737727774e-10)
(0 -7.049669304e-10 6.807876404e-10)
(0 -6.703262011e-10 1.147275402e-09)
(0 -4.794500777e-10 1.384322464e-09)
(0 -2.320356255e-10 1.303174831e-09)
(0 -8.600642368e-12 8.497622114e-10)
(0 1.285925098e-11 -7.372119449e-23)
(0 5.2953112e-12 -4.996097205e-12)
(0 5.150816086e-12 -1.305304703e-11)
(0 4.489619436e-12 -1.99335207e-11)
(0 3.505447927e-12 -2.624441637e-11)
(0 2.258792495e-12 -3.228918703e-11)
(0 7.690203861e-13 -3.821551943e-11)
(0 -9.630048518e-13 -4.409623126e-11)
(0 -2.944105519e-12 -4.996741149e-11)
(0 -5.184563324e-12 -5.584639822e-11)
(0 -7.696442984e-12 -6.174008802e-11)
(0 -1.049293247e-11 -6.764951818e-11)
(0 -1.358810156e-11 -7.357194974e-11)
(0 -1.699684553e-11 -7.950239977e-11)
(0 -2.073491509e-11 -8.543413066e-11)
(0 -2.48189835e-11 -9.135930233e-11)
(0 -2.926672675e-11 -9.726894049e-11)
(0 -3.409690452e-11 -1.031532669e-10)
(0 -3.932943606e-11 -1.090014556e-10)
(0 -4.498547739e-11 -1.148018279e-10)
(0 -5.108749507e-11 -1.205415121e-10)
(0 -5.76593278e-11 -1.262065727e-10)
(0 -6.472622386e-11 -1.31781616e-10)
(0 -7.231484673e-11 -1.372498729e-10)
(0 -8.045325371e-11 -1.425927693e-10)
(0 -8.917085366e-11 -1.477899859e-10)
(0 -9.849833904e-11 -1.528190177e-10)
(0 -1.084675675e-10 -1.576552238e-10)
(0 -1.191113487e-10 -1.622713685e-10)
(0 -1.304630983e-10 -1.666376469e-10)
(0 -1.425563578e-10 -1.707212198e-10)
(0 -1.554242219e-10 -1.744862811e-10)
(0 -1.690987229e-10 -1.778937192e-10)
(0 -1.836101846e-10 -1.809013937e-10)
(0 -1.989864756e-10 -1.834640696e-10)
(0 -2.152520293e-10 -1.855339771e-10)
(0 -2.324265083e-10 -1.870610347e-10)
(0 -2.505230862e-10 -1.879937386e-10)
(0 -2.695464583e-10 -1.882799055e-10)
(0 -2.894907532e-10 -1.878684061e-10)
(0 -3.103374401e-10 -1.867111752e-10)
(0 -3.320531353e-10 -1.847665604e-10)
(0 -3.545870702e-10 -1.820031602e-10)
(0 -3.778680094e-10 -1.784050712e-10)
(0 -4.018006714e-10 -1.739777799e-10)
(0 -4.262619806e-10 -1.687558061e-10)
(0 -4.5109755e-10 -1.628115606e-10)
(0 -4.761185579e-10 -1.562664457e-10)
(0 -5.0109887e-10 -1.493033636e-10)
(0 -5.25772069e-10 -1.421811589e-10)
(0 -5.498281204e-10 -1.352497959e-10)
(0 -5.729093928e-10 -1.289664809e-10)
(0 -5.946056288e-10 -1.239113426e-10)
(0 -6.144472594e-10 -1.208025525e-10)
(0 -6.318965504e-10 -1.205093648e-10)
(0 -6.463363708e-10 -1.240629488e-10)
(0 -6.570567597e-10 -1.326636335e-10)
(0 -6.632397709e-10 -1.476834342e-10)
(0 -6.639433046e-10 -1.706586149e-10)
(0 -6.580844999e-10 -2.032633732e-10)
(0 -6.444248029e-10 -2.472517337e-10)
(0 -6.215796684e-10 -3.043635537e-10)
(0 -5.881815294e-10 -3.762110598e-10)
(0 -5.436893123e-10 -4.641208022e-10)
(0 -4.909101337e-10 -5.683256907e-10)
(0 -4.409378072e-10 -6.839939527e-10)
(0 -4.152013472e-10 -7.877878705e-10)
(0 -4.228793585e-10 -8.134286497e-10)
(0 -3.806181613e-10 -6.52658148e-10)
(0 -2.275085757e-10 -3.60994671e-10)
(0 -9.333280327e-12 1.695499225e-12)
(0 -3.225719093e-11 5.075693704e-12)
(0 5.774865167e-12 -9.94589036e-11)
(0 4.848260718e-11 -3.655612337e-12)
(0 2.574263744e-11 1.698302519e-11)
(0 1.213900874e-11 -1.934209377e-12)
(0 1.453877238e-11 -6.997455041e-12)
(0 1.895082772e-11 -7.385440314e-12)
(0 2.310711153e-11 -5.395490656e-12)
(0 2.667582068e-11 -1.977959441e-12)
(0 2.901072387e-11 3.576201242e-12)
(0 2.912552005e-11 1.014531151e-11)
(0 2.709450728e-11 1.597861555e-11)
(0 2.365533009e-11 2.056606473e-11)
(0 1.941961473e-11 2.381534798e-11)
(0 1.49149091e-11 2.56452227e-11)
(0 1.063985601e-11 2.62272785e-11)
(0 6.92818029e-12 2.595493968e-11)
(0 3.884403061e-12 2.526929009e-11)
(0 1.424030973e-12 2.453280223e-11)
(0 -6.52446039e-13 2.398368404e-11)
(0 -2.598885128e-12 2.373494344e-11)
(0 -4.683621467e-12 2.378313566e-11)
(0 -7.157885994e-12 2.400901629e-11)
(0 -1.021602107e-11 2.41699485e-11)
(0 -1.39352567e-11 2.390125281e-11)
(0 -1.820188416e-11 2.276372914e-11)
(0 -2.267192802e-11 2.037327414e-11)
(0 -2.684112957e-11 1.657612253e-11)
(0 -3.018660197e-11 1.147765367e-11)
(0 -3.211472653e-11 5.193123626e-12)
(0 -3.191514075e-11 -1.756262026e-12)
(0 -2.953927649e-11 -7.626569068e-12)
(0 -2.599040889e-11 -1.130782789e-11)
(0 -2.19254693e-11 -1.351816483e-11)
(0 -1.768087355e-11 -1.331906697e-11)
(0 -1.552369743e-11 -8.420560931e-12)
(0 -2.939350976e-11 1.030740638e-11)
(0 -5.233774159e-11 -1.045311144e-11)
(0 -1.010275322e-11 -1.057315409e-10)
(0 2.707571557e-11 -1.02326295e-12)
(0 6.513113156e-12 -1.572986602e-12)
(0 -8.744335448e-11 -8.722355357e-11)
(0 -2.518278511e-10 -5.366801074e-11)
(0 -4.283862368e-10 1.606399094e-10)
(0 -5.340071065e-10 5.371461445e-10)
(0 -4.904506587e-10 8.900817285e-10)
(0 -3.3540305e-10 1.075882787e-09)
(0 -1.378397578e-10 1.01220047e-09)
(0 3.161325158e-11 6.564216565e-10)
(0 1.171860402e-11 -6.139558983e-23)
(0 1.358170095e-12 -6.919575342e-12)
(0 1.33764723e-13 -1.47383181e-11)
(0 -1.009934238e-12 -2.088655787e-11)
(0 -2.249059638e-12 -2.652948646e-11)
(0 -3.634698884e-12 -3.201061528e-11)
(0 -5.203704778e-12 -3.745072215e-11)
(0 -6.981314164e-12 -4.289732017e-11)
(0 -8.98720613e-12 -4.836922486e-11)
(0 -1.123831225e-11 -5.387218127e-11)
(0 -1.375027747e-11 -5.940523033e-11)
(0 -1.653824522e-11 -6.496372687e-11)
(0 -1.961731559e-11 -7.054082061e-11)
(0 -2.30028477e-11 -7.612829849e-11)
(0 -2.671068073e-11 -8.171697984e-11)
(0 -3.075730765e-11 -8.729696919e-11)
(0 -3.516001336e-11 -9.28577075e-11)
(0 -3.993698829e-11 -9.838800892e-11)
(0 -4.510742695e-11 -1.038759718e-10)
(0 -5.069161824e-11 -1.093089276e-10)
(0 -5.671102738e-11 -1.146732918e-10)
(0 -6.318836086e-11 -1.199544694e-10)
(0 -7.014760439e-11 -1.251366716e-10)
(0 -7.76140291e-11 -1.302027923e-10)
(0 -8.561417327e-11 -1.351342048e-10)
(0 -9.417580556e-11 -1.399106288e-10)
(0 -1.033278608e-10 -1.445099219e-10)
(0 -1.131003206e-10 -1.489079413e-10)
(0 -1.23523997e-10 -1.530783268e-10)
(0 -1.346301934e-10 -1.569923568e-10)
(0 -1.464502598e-10 -1.606187562e-10)
(0 -1.590150921e-10 -1.639236379e-10)
(0 -1.723546272e-10 -1.668704711e-10)
(0 -1.864973277e-10 -1.694202516e-10)
(0 -2.014695704e-10 -1.715317354e-10)
(0 -2.172948007e-10 -1.731618783e-10)
(0 -2.339923661e-10 -1.742663583e-10)
(0 -2.515760738e-10 -1.748003986e-10)
(0 -2.700526559e-10 -1.747199049e-10)
(0 -2.894203436e-10 -1.739832508e-10)
(0 -3.096676144e-10 -1.72553745e-10)
(0 -3.30771945e-10 -1.704030095e-10)
(0 -3.526983069e-10 -1.675151614e-10)
(0 -3.753972673e-10 -1.638919888e-10)
(0 -3.988029066e-10 -1.595591764e-10)
(0 -4.228310048e-10 -1.545740282e-10)
(0 -4.47377906e-10 -1.490348916e-10)
(0 -4.723201109e-10 -1.430925863e-10)
(0 -4.97514312e-10 -1.369636909e-10)
(0 -5.227975007e-10 -1.309456425e-10)
(0 -5.479869279e-10 -1.254333814e-10)
(0 -5.728797383e-10 -1.209375186e-10)
(0 -5.972519226e-10 -1.181037383e-10)
(0 -6.208560669e-10 -1.177331389e-10)
(0 -6.434176122e-10 -1.20802743e-10)
(0 -6.646298463e-10 -1.284852086e-10)
(0 -6.841483413e-10 -1.421658863e-10)
(0 -7.015858677e-10 -1.634538011e-10)
(0 -7.165100719e-10 -1.941793899e-10)
(0 -7.284501959e-10 -2.363658305e-10)
(0 -7.369294866e-10 -2.921512842e-10)
(0 -7.41564924e-10 -3.636228401e-10)
(0 -7.423294832e-10 -4.524790155e-10)
(0 -7.40152108e-10 -5.593018314e-10)
(0 -7.379139262e-10 -6.818219245e-10)
(0 -7.408596122e-10 -8.109211766e-10)
(0 -7.524011183e-10 -9.232259559e-10)
(0 -7.581253055e-10 -9.74480676e-10)
(0 -6.996490574e-10 -9.126347065e-10)
(0 -5.183126907e-10 -7.425578561e-10)
(0 -1.25614781e-10 -4.554223911e-10)
(0 2.141957511e-10 9.333280326e-12)
(0 3.210651368e-10 -4.3755226e-11)
(0 1.394274984e-10 7.957083092e-11)
(0 2.203536732e-11 7.388956553e-11)
(0 -7.852456706e-12 -1.534721515e-11)
(0 1.080735882e-11 -1.464079708e-11)
(0 1.987980761e-11 -1.322298214e-11)
(0 2.610468082e-11 -9.934929053e-12)
(0 3.177846277e-11 -6.676510724e-12)
(0 3.618229128e-11 1.540235996e-12)
(0 3.63993839e-11 1.185320594e-11)
(0 3.300868313e-11 1.969572586e-11)
(0 2.797205418e-11 2.532784261e-11)
(0 2.209376518e-11 2.917074593e-11)
(0 1.60059325e-11 3.088561912e-11)
(0 1.051263854e-11 3.075774494e-11)
(0 6.11474321e-12 2.953464532e-11)
(0 2.881359775e-12 2.796520106e-11)
(0 5.893895943e-13 2.658672038e-11)
(0 -1.11611833e-12 2.57098993e-11)
(0 -2.629812703e-12 2.546827611e-11)
(0 -4.351566849e-12 2.58566872e-11)
(0 -6.672192606e-12 2.673200988e-11)
(0 -9.9393834e-12 2.777536671e-11)
(0 -1.436533721e-11 2.844342713e-11)
(0 -1.98645938e-11 2.798712427e-11)
(0 -2.591643857e-11 2.56694351e-11)
(0 -3.170101404e-11 2.123072997e-11)
(0 -3.658680086e-11 1.505050683e-11)
(0 -3.979561104e-11 6.752269069e-12)
(0 -3.941321295e-11 -3.902470367e-12)
(0 -3.490148779e-11 -1.237153844e-11)
(0 -2.919404075e-11 -1.582228721e-11)
(0 -2.302055247e-11 -1.924525372e-11)
(0 -1.408902922e-11 -2.077086543e-11)
(0 4.302760304e-12 -2.152214541e-11)
(0 -2.587162418e-11 6.744942512e-11)
(0 -1.429466531e-10 7.24227757e-11)
(0 -3.248531644e-10 -4.893670135e-11)
(0 -2.164381481e-10 6.513113155e-12)
(0 -2.679580931e-10 -3.18226562e-10)
(0 -1.22962713e-10 -3.111920653e-10)
(0 -1.494710006e-10 -1.99789038e-10)
(0 -2.272620087e-10 3.034661141e-11)
(0 -2.753594516e-10 3.420114044e-10)
(0 -2.406214718e-10 6.261423497e-10)
(0 -1.361944015e-10 7.821068287e-10)
(0 -7.634441046e-12 7.448548927e-10)
(0 8.99917609e-11 4.83260896e-10)
(0 1.084369363e-11 -5.109057827e-23)
(0 -3.824507315e-12 -1.410515756e-11)
(0 -5.354855056e-12 -1.777159775e-11)
(0 -6.653097012e-12 -2.225929538e-11)
(0 -7.9806221e-12 -2.697819404e-11)
(0 -9.415960982e-12 -3.181136173e-11)
(0 -1.101154746e-11 -3.673241169e-11)
(0 -1.280063952e-11 -4.173090576e-11)
(0 -1.48072075e-11 -4.679780704e-11)
(0 -1.705052536e-11 -5.192328924e-11)
(0 -1.954750402e-11 -5.709669318e-11)
(0 -2.231391793e-11 -6.230687661e-11)
(0 -2.536509928e-11 -6.754237794e-11)
(0 -2.871636673e-11 -7.279158861e-11)
(0 -3.238331857e-11 -7.804273011e-11)
(0 -3.638204615e-11 -8.328388683e-11)
(0 -4.07292933e-11 -8.850288174e-11)
(0 -4.544258113e-11 -9.368723713e-11)
(0 -5.054031551e-11 -9.88240024e-11)
(0 -5.604188352e-11 -1.038996835e-10)
(0 -6.196773797e-11 -1.0890005e-10)
(0 -6.833946402e-11 -1.138100494e-10)
(0 -7.517981573e-11 -1.186136014e-10)
(0 -8.251272328e-11 -1.232935e-10)
(0 -9.036327874e-11 -1.278312026e-10)
(0 -9.875770218e-11 -1.322067327e-10)
(0 -1.077232799e-10 -1.363984695e-10)
(0 -1.172882452e-10 -1.403830507e-10)
(0 -1.274815665e-10 -1.441351611e-10)
(0 -1.383326298e-10 -1.476274505e-10)
(0 -1.498708449e-10 -1.50830378e-10)
(0 -1.621252313e-10 -1.537122447e-10)
(0 -1.75124026e-10 -1.562392175e-10)
(0 -1.888942926e-10 -1.583755833e-10)
(0 -2.034614342e-10 -1.600840093e-10)
(0 -2.188484871e-10 -1.613260364e-10)
(0 -2.35075157e-10 -1.620626229e-10)
(0 -2.521567097e-10 -1.622550632e-10)
(0 -2.701029506e-10 -1.618662221e-10)
(0 -2.889174978e-10 -1.608624709e-10)
(0 -3.085973545e-10 -1.592162255e-10)
(0 -3.291325682e-10 -1.569093404e-10)
(0 -3.505057324e-10 -1.539371689e-10)
(0 -3.72691328e-10 -1.503136069e-10)
(0 -3.95655277e-10 -1.460771815e-10)
(0 -4.19355263e-10 -1.412987529e-10)
(0 -4.437421803e-10 -1.36090942e-10)
(0 -4.687626548e-10 -1.306196081e-10)
(0 -4.943623077e-10 -1.251171575e-10)
(0 -5.204895125e-10 -1.198978246e-10)
(0 -5.470996623e-10 -1.153748283e-10)
(0 -5.741599909e-10 -1.120797538e-10)
(0 -6.016547375e-10 -1.106840754e-10)
(0 -6.29590254e-10 -1.120227751e-10)
(0 -6.579999548e-10 -1.171191612e-10)
(0 -6.869496476e-10 -1.27209528e-10)
(0 -7.165442247e-10 -1.437645974e-10)
(0 -7.469368116e-10 -1.685023965e-10)
(0 -7.783422629e-10 -2.033822629e-10)
(0 -8.110599776e-10 -2.505618441e-10)
(0 -8.45517111e-10 -3.122850473e-10)
(0 -8.823505293e-10 -3.906449367e-10)
(0 -9.225444043e-10 -4.871196107e-10)
(0 -9.675931678e-10 -6.016952608e-10)
(0 -1.019434781e-09 -7.312664341e-10)
(0 -1.079286795e-09 -8.670430672e-10)
(0 -1.143690029e-09 -9.915874264e-10)
(0 -1.196879031e-09 -1.079058036e-09)
(0 -1.205487577e-09 -1.10601229e-09)
(0 -1.139886635e-09 -1.075027338e-09)
(0 -9.901299965e-10 -9.854936919e-10)
(0 -8.293210482e-10 -8.678111519e-10)
(0 1.412716955e-21 3.178561225e-11)
(0 -2.318787975e-10 7.6941059e-11)
(0 -3.151567724e-10 -3.162947045e-11)
(0 -7.639135408e-11 -1.187039028e-10)
(0 1.66630054e-11 -2.299666405e-11)
(0 2.365669575e-11 -2.093075365e-11)
(0 2.965358295e-11 -1.444504294e-11)
(0 3.815098574e-11 -1.633321973e-11)
(0 4.754044056e-11 -2.591649658e-12)
(0 4.728100993e-11 1.603235837e-11)
(0 4.056914395e-11 2.562348985e-11)
(0 3.313035017e-11 3.187903228e-11)
(0 2.497739124e-11 3.665455587e-11)
(0 1.650190812e-11 3.796897293e-11)
(0 9.288882213e-12 3.638327576e-11)
(0 4.1356364e-12 3.346024777e-11)
(0 9.364781194e-13 3.046978121e-11)
(0 -8.312707857e-13 2.813889583e-11)
(0 -1.77089031e-12 2.680102059e-11)
(0 -2.452097227e-12 2.657171055e-11)
(0 -3.419887699e-12 2.744382632e-11)
(0 -5.239206489e-12 2.928770982e-11)
(0 -8.50460381e-12 3.175612622e-11)
(0 -1.372349913e-11 3.410967965e-11)
(0 -2.09758762e-11 3.507176032e-11)
(0 -2.942832232e-11 3.308690821e-11)
(0 -3.746005786e-11 2.762666075e-11)
(0 -4.466506288e-11 2.074094135e-11)
(0 -5.106770373e-11 1.066760972e-11)
(0 -5.10389483e-11 -8.232954355e-12)
(0 -4.145909334e-11 -2.213583428e-11)
(0 -3.286412416e-11 -2.036554079e-11)
(0 -2.687404753e-11 -2.686966038e-11)
(0 -1.995776525e-11 -2.899721032e-11)
(0 7.269659332e-11 -1.243445449e-10)
(0 3.105327751e-10 -3.739102216e-11)
(0 2.292823282e-10 7.315303141e-11)
(0 -1.617629864e-21 2.954321525e-11)
(0 3.995555101e-10 -6.98135979e-10)
(0 3.550230874e-10 -7.052133067e-10)
(0 2.951714655e-10 -5.869930184e-10)
(0 2.059113638e-10 -3.914217052e-10)
(0 1.154197337e-10 -1.374160629e-10)
(0 5.708202417e-11 1.431543413e-10)
(0 5.319828918e-11 3.860945628e-10)
(0 9.302336184e-11 5.249300396e-10)
(0 1.426940419e-10 5.15271564e-10)
(0 1.599684465e-10 3.373287309e-10)
(0 1.01711019e-11 -4.202107569e-23)
(0 -1.094033054e-11 -1.800901533e-11)
(0 -1.160591102e-11 -2.021014938e-11)
(0 -1.257882983e-11 -2.354002582e-11)
(0 -1.375911271e-11 -2.742463743e-11)
(0 -1.512321522e-11 -3.162344743e-11)
(0 -1.66773522e-11 -3.6027224e-11)
(0 -1.843593132e-11 -4.057901081e-11)
(0 -2.041483312e-11 -4.524347671e-11)
(0 -2.26296223e-11 -4.99950903e-11)
(0 -2.509531868e-11 -5.481325961e-11)
(0 -2.782657644e-11 -5.96801612e-11)
(0 -3.083793136e-11 -6.457966635e-11)
(0 -3.41440314e-11 -6.949673627e-11)
(0 -3.775983423e-11 -7.441704084e-11)
(0 -4.170076949e-11 -7.932667664e-11)
(0 -4.59828693e-11 -8.421194085e-11)
(0 -5.062287867e-11 -8.905913196e-11)
(0 -5.563835397e-11 -9.385437208e-11)
(0 -6.104775425e-11 -9.858343675e-11)
(0 -6.687052339e-11 -1.032315978e-10)
(0 -7.312715347e-11 -1.077834667e-10)
(0 -7.983921871e-11 -1.122228445e-10)
(0 -8.702938317e-11 -1.165325711e-10)
(0 -9.472138864e-11 -1.206943828e-10)
(0 -1.029400221e-10 -1.246887698e-10)
(0 -1.117110549e-10 -1.284948407e-10)
(0 -1.210611254e-10 -1.320901836e-10)
(0 -1.310175382e-10 -1.354507399e-10)
(0 -1.416079806e-10 -1.385506991e-10)
(0 -1.528601913e-10 -1.413624512e-10)
(0 -1.64801635e-10 -1.438566145e-10)
(0 -1.774592138e-10 -1.460021637e-10)
(0 -1.908589828e-10 -1.477666549e-10)
(0 -2.050257707e-10 -1.491165455e-10)
(0 -2.199826129e-10 -1.500176185e-10)
(0 -2.35750013e-10 -1.504355762e-10)
(0 -2.523452025e-10 -1.503369172e-10)
(0 -2.697816565e-10 -1.49690254e-10)
(0 -2.880690369e-10 -1.484681901e-10)
(0 -3.072135136e-10 -1.466498167e-10)
(0 -3.272182304e-10 -1.442238213e-10)
(0 -3.480837538e-10 -1.411922498e-10)
(0 -3.698086628e-10 -1.375750877e-10)
(0 -3.923908066e-10 -1.334159922e-10)
(0 -4.158298179e-10 -1.287895377e-10)
(0 -4.401311579e-10 -1.238102218e-10)
(0 -4.65311554e-10 -1.18643284e-10)
(0 -4.914055562e-10 -1.135173144e-10)
(0 -5.184732133e-10 -1.087387178e-10)
(0 -5.466092003e-10 -1.047083034e-10)
(0 -5.759537032e-10 -1.019403414e-10)
(0 -6.067049831e-10 -1.010843052e-10)
(0 -6.391332896e-10 -1.029491069e-10)
(0 -6.735960573e-10 -1.085289928e-10)
(0 -7.105548555e-10 -1.190291472e-10)
(0 -7.505946745e-10 -1.358872195e-10)
(0 -7.944454903e-10 -1.607838396e-10)
(0 -8.430053084e-10 -1.956300365e-10)
(0 -8.97363844e-10 -2.425112077e-10)
(0 -9.588255527e-10 -3.035543643e-10)
(0 -1.028924761e-09 -3.806661457e-10)
(0 -1.109402593e-09 -4.750632169e-10)
(0 -1.202053244e-09 -5.864923972e-10)
(0 -1.308207394e-09 -7.120527457e-10)
(0 -1.427414523e-09 -8.447203137e-10)
(0 -1.554915869e-09 -9.722718231e-10)
(0 -1.678589512e-09 -1.078264982e-09)
(0 -1.778923405e-09 -1.146450064e-09)
(0 -1.837908304e-09 -1.164006972e-09)
(0 -1.841041987e-09 -1.099101158e-09)
(0 -1.760687039e-09 -8.648039965e-10)
(0 -1.319187442e-09 -1.665987034e-10)
(0 -4.060399917e-10 8.4156082e-10)
(0 2.243966025e-10 -9.01149828e-11)
(0 3.227741296e-10 -8.284942692e-11)
(0 1.085805077e-10 6.228878763e-11)
(0 2.843142873e-11 -3.30575224e-11)
(0 3.070221476e-11 -1.05801235e-11)
(0 4.363185608e-11 -4.161850383e-11)
(0 6.854786942e-11 -1.160533657e-11)
(0 6.461452341e-11 2.924264324e-11)
(0 4.885535703e-11 3.488805169e-11)
(0 3.900312022e-11 3.991004363e-11)
(0 2.818370584e-11 4.759896349e-11)
(0 1.573465239e-11 4.795194195e-11)
(0 6.003913366e-12 4.334555766e-11)
(0 2.012486675e-13 3.74527042e-11)
(0 -2.439992158e-12 3.231442284e-11)
(0 -3.079371032e-12 2.869804349e-11)
(0 -2.683303613e-12 2.678369809e-11)
(0 -1.987006977e-12 2.65739657e-11)
(0 -1.635567573e-12 2.805965366e-11)
(0 -2.359892707e-12 3.121915989e-11)
(0 -5.117413578e-12 3.585153993e-11)
(0 -1.104970311e-11 4.116704945e-11)
(0 -2.088736524e-11 4.510382469e-11)
(0 -3.336153814e-11 4.398082239e-11)
(0 -4.404698092e-11 3.545057975e-11)
(0 -5.354585189e-11 2.961684597e-11)
(0 -6.876950675e-11 2.341134841e-11)
(0 -7.221665699e-11 -1.756143018e-11)
(0 -4.703407426e-11 -4.757618485e-11)
(0 -3.392786687e-11 -1.663621126e-11)
(0 -3.165222201e-11 -3.887110634e-11)
(0 -1.115639135e-10 5.599755751e-11)
(0 -3.260848314e-10 -8.747342421e-11)
(0 -2.263802448e-10 -9.271145215e-11)
(0 1.066230245e-10 9.096770396e-10)
(0 8.785628877e-10 6.818376051e-11)
(0 1.124211265e-09 -6.066900062e-10)
(0 1.01836377e-09 -7.634887429e-10)
(0 8.463466755e-10 -6.863055131e-10)
(0 6.759855216e-10 -4.98786732e-10)
(0 5.302075101e-10 -2.602750691e-10)
(0 4.231229255e-10 -1.348913889e-11)
(0 3.597924603e-10 1.947292495e-10)
(0 3.269907848e-10 3.190725228e-10)
(0 2.958224136e-10 3.315116476e-10)
(0 2.319135171e-10 2.209968867e-10)
(0 9.658087488e-12 -3.363822841e-23)
(0 -1.730688478e-11 -2.054275834e-11)
(0 -1.769909684e-11 -2.202580931e-11)
(0 -1.843905637e-11 -2.456059169e-11)
(0 -1.945409809e-11 -2.775949448e-11)
(0 -2.070649886e-11 -3.138563379e-11)
(0 -2.218211137e-11 -3.530102867e-11)
(0 -2.388073758e-11 -3.942240157e-11)
(0 -2.580911631e-11 -4.369558561e-11)
(0 -2.797729392e-11 -4.808225889e-11)
(0 -3.039689961e-11 -5.255310662e-11)
(0 -3.308039525e-11 -5.708422778e-11)
(0 -3.604078916e-11 -6.165513514e-11)
(0 -3.929156579e-11 -6.62475895e-11)
(0 -4.284671071e-11 -7.084485064e-11)
(0 -4.672076959e-11 -7.543117637e-11)
(0 -5.092891951e-11 -7.999144265e-11)
(0 -5.548704271e-11 -8.45108588e-11)
(0 -6.041180288e-11 -8.8974721e-11)
(0 -6.572072401e-11 -9.33682141e-11)
(0 -7.143226304e-11 -9.767622373e-11)
(0 -7.756586638e-11 -1.018831773e-10)
(0 -8.414200078e-11 -1.05972882e-10)
(0 -9.118215952e-11 -1.099283891e-10)
(0 -9.870884966e-11 -1.137318503e-10)
(0 -1.067455609e-10 -1.173643963e-10)
(0 -1.153167034e-10 -1.208060058e-10)
(0 -1.244474936e-10 -1.240353928e-10)
(0 -1.341637733e-10 -1.270298947e-10)
(0 -1.444917661e-10 -1.297654079e-10)
(0 -1.554578111e-10 -1.322163682e-10)
(0 -1.670881202e-10 -1.343558212e-10)
(0 -1.794085759e-10 -1.361555603e-10)
(0 -1.924445269e-10 -1.375863539e-10)
(0 -2.06220496e-10 -1.386182228e-10)
(0 -2.207597469e-10 -1.392208236e-10)
(0 -2.360837811e-10 -1.393639857e-10)
(0 -2.522119731e-10 -1.390185505e-10)
(0 -2.691615945e-10 -1.381576128e-10)
(0 -2.86948344e-10 -1.367582618e-10)
(0 -3.055872831e-10 -1.348037889e-10)
(0 -3.250939682e-10 -1.322863655e-10)
(0 -3.454857447e-10 -1.292102252e-10)
(0 -3.667835343e-10 -1.255956055e-10)
(0 -3.890147449e-10 -1.214837684e-10)
(0 -4.122178592e-10 -1.169434381e-10)
(0 -4.364488582e-10 -1.120787685e-10)
(0 -4.61789303e-10 -1.070388402e-10)
(0 -4.883559543e-10 -1.020286469e-10)
(0 -5.163122452e-10 -9.732175909e-11)
(0 -5.458822704e-10 -9.327501349e-11)
(0 -5.77367813e-10 -9.034567159e-11)
(0 -6.111684229e-10 -8.911126399e-11)
(0 -6.478041992e-10 -9.029197219e-11)
(0 -6.879410591e-10 -9.477463105e-11)
(0 -7.324185115e-10 -1.036362713e-10)
(0 -7.822795112e-10 -1.181630704e-10)
(0 -8.388003575e-10 -1.398574815e-10)
(0 -9.035162115e-10 -1.704215813e-10)
(0 -9.782349218e-10 -2.116978309e-10)
(0 -1.065027164e-09 -2.655389281e-10)
(0 -1.166170218e-09 -3.335669985e-10)
(0 -1.283999812e-09 -4.167731218e-10)
(0 -1.420583799e-09 -5.149132411e-10)
(0 -1.57707572e-09 -6.257024161e-10)
(0 -1.752584454e-09 -7.439459729e-10)