/*--------------------------------*- C++ -*----------------------------------*\
  =========                 |
  \\      /  F ield         | OpenFOAM: The Open Source CFD Toolbox
   \\    /   O peration     | Website:  https://openfoam.org
    \\  /    A nd           | Version:  6
     \\/     M anipulation  |
\*---------------------------------------------------------------------------*/
FoamFile
{
    version     2.0;
    format      ascii;
    class       volScalarField;
    location    "0.004";
    object      ViscousDissipation;
}
// * * * * * * * * * * * * * * * * * * * * * * * * * * * * * * * * * * * * * //

dimensions      [1 -1 -3 0 0 0 0];

internalField   nonuniform List<scalar> 
9600
(
1.086120741e-18
1.034158085e-18
9.907132263e-19
9.661410563e-19
9.596608211e-19
9.668853173e-19
9.840018707e-19
1.008459144e-18
1.038736948e-18
1.074034449e-18
1.114007784e-18
1.158625964e-18
1.208061406e-18
1.262651112e-18
1.322849402e-18
1.38922985e-18
1.462458083e-18
1.543312629e-18
1.63266476e-18
1.7315131e-18
1.840961837e-18
1.962262684e-18
2.096783969e-18
2.246060891e-18
2.411756893e-18
2.595724083e-18
2.799942861e-18
3.026569243e-18
3.277823272e-18
3.556011351e-18
3.863367982e-18
4.202070149e-18
4.574022444e-18
4.980805407e-18
5.423287881e-18
5.90137961e-18
6.413377223e-18
6.955503502e-18
7.521016437e-18
8.099534382e-18
8.675812008e-18
9.228708181e-18
9.729643285e-18
1.014164248e-17
1.041850398e-17
1.050553403e-17
1.034165229e-17
9.864904077e-18
9.022033446e-18
7.785127567e-18
6.176647994e-18
4.30579877e-18
2.41686803e-18
9.513567482e-19
6.241379695e-19
2.515429556e-18
8.172785076e-18
1.969077549e-17
3.968148386e-17
7.113216707e-17
1.181234555e-16
1.918240906e-16
3.302752244e-16
6.15260993e-16
1.051805157e-15
1.522594469e-15
2.884249967e-16
5.960960207e-16
1.320521684e-15
1.892215642e-15
2.520497171e-15
3.957255732e-15
1.370803023e-15
4.588564523e-16
2.636129374e-17
4.151187279e-17
1.329788441e-16
2.327232131e-16
3.290993767e-16
4.07575232e-16
4.527983845e-16
4.619875723e-16
4.446062348e-16
4.097452004e-16
3.632561804e-16
3.116729229e-16
2.620610738e-16
2.203327103e-16
1.905737042e-16
1.753847355e-16
1.764525307e-16
1.948793424e-16
2.310418509e-16
2.839694404e-16
3.503305965e-16
4.235379642e-16
4.940118248e-16
5.511657951e-16
5.843714862e-16
5.792800957e-16
5.217584141e-16
4.155171097e-16
2.841686119e-16
1.520782766e-16
4.594295776e-17
5.895941582e-17
5.578097696e-16
1.319459393e-15
3.4450791e-15
2.321689303e-15
1.85202367e-15
2.037131553e-15
2.846773925e-16
1.822594895e-15
3.084151729e-15
1.378385964e-15
1.184454968e-15
1.886083382e-15
3.960788254e-15
1.486804717e-15
1.05112024e-18
9.588001983e-19
8.974043601e-19
8.698123928e-19
8.656150374e-19
8.758564324e-19
8.95234853e-19
9.209189408e-19
9.514724779e-19
9.862466938e-19
1.025023762e-18
1.067866871e-18
1.115002515e-18
1.166802522e-18
1.223726905e-18
1.286346504e-18
1.355299246e-18
1.431333211e-18
1.515265286e-18
1.608038684e-18
1.710676065e-18
1.824345106e-18
1.950300568e-18
2.089960498e-18
2.244839307e-18
2.416633122e-18
2.607127579e-18
2.818268165e-18
3.0520199e-18
3.310419998e-18
3.595403345e-18
3.908854168e-18
4.252378066e-18
4.627278588e-18
5.034155863e-18
5.472696728e-18
5.941050836e-18
6.435461744e-18
6.949462501e-18
7.473304965e-18
7.992808274e-18
8.488396762e-18
8.933634229e-18
9.294344395e-18
9.527829062e-18
9.583515139e-18
9.404818558e-18
8.934197192e-18
8.122193046e-18
6.943638641e-18
5.423044094e-18
3.673390321e-18
1.951637217e-18
7.366639954e-19
8.35469883e-19
3.526173044e-18
1.074376885e-17
2.530535813e-17
5.116355653e-17
9.377167304e-17
1.611526737e-16
2.672385136e-16
4.373459455e-16
6.97588632e-16
9.795969353e-16
9.020049873e-16
7.960921515e-17
1.167633094e-15
4.197747896e-16
1.19896719e-15
1.360232004e-14
3.963734412e-14
1.163577629e-14
3.303158224e-15
2.184748802e-16
1.312469703e-16
2.669567711e-16
4.203370803e-16
5.941469606e-16
7.37376166e-16
7.993453156e-16
7.802792452e-16
7.202506016e-16
6.399326528e-16
5.425372932e-16
4.384568247e-16
3.415341148e-16
2.622623354e-16
2.065010511e-16
1.771286018e-16
1.758606149e-16
2.042867796e-16
2.637859812e-16
3.54216371e-16
4.713183991e-16
6.039040247e-16
7.341698448e-16
8.455107917e-16
9.284940874e-16
9.54949866e-16
8.746854313e-16
6.878657778e-16
4.62395736e-16
2.596426975e-16
9.20932251e-17
2.233723619e-16
3.560247756e-15
1.159093246e-14
3.809218095e-14
1.364966924e-14
2.053022718e-15
8.700988409e-17
4.199717998e-16
1.142978792e-15
1.948549531e-15
1.855582364e-15
1.582245983e-15
1.674074538e-15
2.635367137e-15
9.752687823e-16
1.010686737e-18
8.71955444e-19
7.964263507e-19
7.731118803e-19
7.749752575e-19
7.896195038e-19
8.115623586e-19
8.383881575e-19
8.690491057e-19
9.031473814e-19
9.40634122e-19
9.816598624e-19
1.026515553e-18
1.075588728e-18
1.129357182e-18
1.188368828e-18
1.253252442e-18
1.324705264e-18
1.403514137e-18
1.490545297e-18
1.586769665e-18
1.693247888e-18
1.811157528e-18
1.941775103e-18
2.086507979e-18
2.246868162e-18
2.424493813e-18
2.621091852e-18
2.83843433e-18
3.078273585e-18
3.342333116e-18
3.632206692e-18
3.949317262e-18
4.294718176e-18
4.668909576e-18
5.071459006e-18
5.500669662e-18
5.953079003e-18
6.423016452e-18
6.90189549e-18
7.377445843e-18
7.832605811e-18
8.244499617e-18
8.583435702e-18
8.812550392e-18
8.888168047e-18
8.761838505e-18
8.384821067e-18
7.717121889e-18
6.743270188e-18
5.498584018e-18
4.110201111e-18
2.85947862e-18
2.273878467e-18
3.259773906e-18
7.2899612e-18
1.666173182e-17
3.483798144e-17
6.688105618e-17
1.200128981e-16
2.044115611e-16
3.341073219e-16
5.249321895e-16
7.755317396e-16
9.998897869e-16
9.389946487e-16
4.746727142e-16
7.600559167e-16
1.761991844e-15
6.926940281e-16
3.75846185e-14
2.585025952e-13
1.748747959e-13
3.336970136e-14
7.043649952e-15
1.065564955e-15
8.047604138e-16
8.61922081e-16
1.212394361e-15
1.508729148e-15
1.553615392e-15
1.392179468e-15
1.213285856e-15
1.045420285e-15
8.485852637e-16
6.406227059e-16
4.535933252e-16
3.066886979e-16
2.065288095e-16
1.538524506e-16
1.487519531e-16
1.933454905e-16
2.919718775e-16
4.484446933e-16
6.596332925e-16
9.060999544e-16
1.149189168e-15
1.360268506e-15
1.573053596e-15
1.752590924e-15
1.686053779e-15
1.321358964e-15
9.000668865e-16
7.753821753e-16
9.613065967e-16
6.861596418e-15
3.394032377e-14
1.737817811e-13
2.552293201e-13
3.520036661e-14
3.302986723e-16
2.058993678e-16
2.883567207e-16
1.076247515e-15
1.968975819e-15
1.988431519e-15
1.532442387e-15
1.206103594e-15
1.491508889e-15
5.80581796e-16
1.376964484e-18
8.187906206e-19
7.032133826e-19
6.837948638e-19
6.915740228e-19
7.099228102e-19
7.33724939e-19
7.611673476e-19
7.91582998e-19
8.247951019e-19
8.608790219e-19
9.000582762e-19
9.426613211e-19
9.890937292e-19
1.039832198e-18
1.095413465e-18
1.156440612e-18
1.223578448e-18
1.297567422e-18
1.379221153e-18
1.469441285e-18
1.569211979e-18
1.679614445e-18
1.801820912e-18
1.937109604e-18
2.086852296e-18
2.252514626e-18
2.435619692e-18
2.637725049e-18
2.860372724e-18
3.105062813e-18
3.373196666e-18
3.666012333e-18
3.984441061e-18
4.32891132e-18
4.699072525e-18
5.093501e-18
5.509370563e-18
5.942082795e-18
6.384763592e-18
6.827582929e-18
7.256915032e-18
7.654479227e-18
7.996688583e-18
8.254445295e-18
8.393756201e-18
8.377749747e-18
8.171283456e-18
7.74992579e-18
7.11610447e-18
6.326194386e-18
5.534256139e-18
5.060328315e-18
5.494601399e-18
7.852083267e-18
1.379641117e-17
2.595292667e-17
4.832705655e-17
8.682404774e-17
1.498118099e-16
2.48488261e-16
3.961301878e-16
6.028795379e-16
8.574237285e-16
1.085930995e-15
1.12712854e-15
9.282032744e-16
1.125711228e-15
2.466904657e-15
4.014929587e-15
2.652314801e-15
1.214286735e-13
5.324482289e-13
5.805948967e-13
1.435918265e-13
5.044170274e-15
2.25252759e-15
1.508183114e-15
2.785312803e-15
3.639467518e-15
3.433968473e-15
2.571552176e-15
2.081297107e-15
1.803933087e-15
1.419661751e-15
9.981851929e-16
6.349332832e-16
3.656297713e-16
1.910037444e-16
1.014738001e-16
9.052829394e-17
1.606603196e-16
3.241493695e-16
5.980067625e-16
9.893140095e-16
1.464892607e-15
1.917230717e-15
2.251170321e-15
2.783312597e-15
3.689693446e-15
3.889410529e-15
2.922483201e-15
1.549733868e-15
2.221447656e-15
4.891453762e-15
1.421582716e-13
5.759922178e-13
5.367314608e-13
1.232059142e-13
1.055280675e-15
1.001636934e-15
8.242625389e-16
9.978819782e-16
1.681831717e-15
2.140757504e-15
1.900685437e-15
1.263526911e-15
7.254494818e-16
7.061630224e-16
3.23050343e-16
5.261497199e-19
5.611686677e-19
5.813414686e-19
5.954609328e-19
6.135904447e-19
6.357843365e-19
6.610591868e-19
6.887971463e-19
7.187655915e-19
7.509834961e-19
7.856283026e-19
8.229808247e-19
8.63398589e-19
9.072997801e-19
9.551579223e-19
1.007497778e-18
1.064898083e-18
1.127993452e-18
1.197482119e-18
1.274129134e-18
1.358773637e-18
1.452329256e-18
1.555790562e-18
1.670232624e-18
1.796816831e-18
1.936782841e-18
2.09144071e-18
2.262142453e-18
2.450258634e-18
2.657142533e-18
2.884109941e-18
3.132396682e-18
3.403104407e-18
3.697079059e-18
4.014755342e-18
4.355946185e-18
4.719651447e-18
5.103844805e-18
5.505250687e-18
5.91898603e-18
6.338086431e-18
6.752901836e-18
7.150575066e-18
7.514722417e-18
7.825608131e-18
8.061050833e-18
8.1987803e-18
8.22133177e-18
8.125490541e-18
7.939046193e-18
7.749199901e-18
7.748840098e-18
8.310160243e-18
1.009863551e-17
1.424482783e-17
2.259471757e-17
3.8059611e-17
6.50755929e-17
1.101440877e-16
1.823177469e-16
2.932202683e-16
4.555089324e-16
6.772211248e-16
9.478017086e-16
1.216032557e-15
1.389072514e-15
1.440113562e-15
1.666161795e-15
2.479688663e-15
4.352567056e-15
5.842457108e-15
1.361128317e-15
2.181917965e-15
2.49248214e-13
8.400371444e-13
1.709591752e-13
3.455753382e-15
1.232956113e-15
8.887344657e-15
1.146930839e-14
9.47869824e-15
4.552544831e-15
3.410274296e-15
3.367168621e-15
2.622091562e-15
1.717225866e-15
9.872918915e-16
4.888669745e-16
1.888108233e-16
4.240011762e-17
2.325934671e-17
1.335342687e-16
4.057602413e-16
8.961424299e-16
1.655642059e-15
2.642492237e-15
3.501889505e-15
3.605848862e-15
4.744180575e-15
9.742072438e-15
1.185854753e-14
9.092774204e-15
1.259688093e-15
3.418266143e-15
1.698055748e-13
8.339432289e-13
2.447542947e-13
2.082099701e-15
2.530363344e-16
1.815860575e-15
2.928841311e-15
2.397403734e-15
2.286613268e-15
2.331482438e-15
2.179418238e-15
1.645994733e-15
9.354768612e-16
3.735033655e-16
2.855740797e-16
1.882545664e-16
3.902001826e-19
4.454775508e-19
4.847646336e-19
5.133269167e-19
5.393821191e-19
5.654687644e-19
5.924271612e-19
6.205822111e-19
6.501682271e-19
6.814420776e-19
7.147070408e-19
7.503122748e-19
7.886505818e-19
8.301548486e-19
8.75298834e-19
9.245964719e-19
9.78606745e-19
1.037936397e-18
1.103247745e-18
1.175261211e-18
1.254761631e-18
1.342598188e-18
1.43968912e-18
1.547020465e-18
1.665648736e-18
1.796692345e-18
1.941321428e-18
2.100734072e-18
2.276136062e-18
2.468716304e-18
2.679631558e-18
2.909977465e-18
3.160741992e-18
3.432714639e-18
3.726369935e-18
4.041738538e-18
4.378307044e-18
4.734934618e-18
5.109754676e-18
5.499993899e-18
5.901702265e-18
6.309459751e-18
6.71620747e-18
7.113368344e-18
7.491441381e-18
7.841389554e-18
8.157471166e-18
8.442744396e-18
8.719199856e-18
9.045521244e-18
9.546940993e-18
1.046406369e-17
1.223082036e-17
1.559601616e-17
2.180718596e-17
3.287837004e-17
5.196052547e-17
8.381592317e-17
1.353452107e-16
2.159874362e-16
3.375342254e-16
5.123729326e-16
7.484229136e-16
1.038964143e-15
1.349778356e-15
1.620367062e-15
1.812555855e-15
1.99636527e-15
2.226899256e-15
2.227146609e-15
1.430321629e-15
5.665249816e-15
7.90549698e-15
6.284204541e-15
2.891087431e-13
4.710417451e-13
6.27343947e-14
2.013850122e-14
6.77766334e-14
5.520013363e-14
4.150569908e-14
6.09920387e-15
4.536098697e-15
7.438104951e-15
5.606580169e-15
3.380975588e-15
1.789925522e-15
8.231389732e-16
3.003726897e-16
6.459080461e-17
3.518331408e-17
2.121482714e-16
6.793289414e-16
1.608772957e-15
3.219304584e-15
5.585136483e-15
7.684735867e-15
4.817815643e-15
5.997639557e-15
4.112704453e-14
5.574567356e-14
6.816800537e-14
1.982913702e-14
6.176750058e-14
4.736521065e-13
2.849403886e-13
4.011729791e-15
4.052570366e-15
2.719016336e-15
3.741982387e-16
1.897485411e-15
2.55983839e-15
2.60715392e-15
2.374008514e-15
1.922097407e-15
1.290584806e-15
6.493272379e-16
1.878952003e-16
1.729551411e-16
1.470380786e-16
2.755690818e-19
3.448860376e-19
3.967260717e-19
4.360821388e-19
4.689536676e-19
4.988274642e-19
5.275916023e-19
5.562947101e-19
5.856044555e-19
6.160259906e-19
6.480031516e-19
6.819643002e-19
7.183442778e-19
7.575957492e-19
8.001960365e-19
8.46652323e-19
8.975073566e-19
9.533450475e-19
1.014796297e-18
1.082543451e-18
1.157323468e-18
1.239929494e-18
1.331212023e-18
1.432078579e-18
1.543491773e-18
1.666461916e-18
1.802034467e-18
1.951271688e-18
2.115235037e-18
2.294969511e-18
2.491492113e-18
2.705772309e-18
2.938695692e-18
3.191001555e-18
3.463212351e-18
3.75557937e-18
4.06807484e-18
4.400418211e-18
4.752103723e-18
5.12238221e-18
5.510220873e-18
5.914321156e-18
6.333345971e-18
6.766485619e-18
7.214547615e-18
7.681879844e-18
8.17983677e-18
8.733022401e-18
9.390348019e-18
1.024394062e-17
1.146059502e-17
1.333287716e-17
1.636059502e-17
2.137765008e-17
2.974362349e-17
4.362117194e-17
6.635502962e-17
1.029456286e-16
1.605510329e-16
2.488197821e-16
3.796090226e-16
5.652564527e-16
8.141990914e-16
1.123067114e-15
1.467167256e-15
1.797796129e-15
2.058497617e-15
2.208825791e-15
2.177047852e-15
1.802854942e-15
1.26177612e-15
4.100741946e-15
1.782773288e-14
1.544000704e-14
5.341184191e-15
2.767899606e-15
1.790963078e-14
7.879541923e-14
7.223186701e-13
4.414617452e-13
3.56930887e-13
2.234082503e-14
6.392602015e-15
2.618141501e-14
1.482358903e-14
7.861733628e-15
3.782896792e-15
1.710912381e-15
7.507681094e-16
3.625696754e-16
3.224092455e-16
6.249045505e-16
1.486496951e-15
3.456528857e-15
7.497744392e-15
1.471670392e-14
2.70866539e-14
7.331307401e-15
2.063674193e-14
3.495938209e-13
4.396453505e-13
7.199175851e-13
8.19681642e-14
1.894830262e-14
1.816097082e-15
2.619692878e-15
8.356588667e-15
1.261040873e-14
2.158989695e-15
4.883918974e-16
1.524702749e-15
2.229068163e-15
2.301455569e-15
2.003241561e-15
1.513692207e-15
9.574658358e-16
4.725655365e-16
1.620571507e-16
2.718192287e-16
1.668572512e-16
2.144462816e-19
2.748415636e-19
3.266535607e-19
3.691989542e-19
4.052514606e-19
4.373241221e-19
4.672391754e-19
4.962378146e-19
5.251927872e-19
5.547650424e-19
5.855029586e-19
6.179002162e-19
6.52429476e-19
6.895619425e-19
7.297799893e-19
7.735860623e-19
8.215104488e-19
8.74117828e-19
9.320132381e-19
9.958461045e-19
1.066313087e-18
1.144158623e-18
1.230175277e-18
1.32520185e-18
1.430119565e-18
1.545843652e-18
1.673311346e-18
1.813466315e-18
1.967244804e-18
2.135564575e-18
2.319316382e-18
2.51934987e-18
2.736447739e-18
2.97128958e-18
3.224425808e-18
3.496290141e-18
3.787270692e-18
4.097828726e-18
4.428633293e-18
4.780696321e-18
5.155550089e-18
5.555573508e-18
5.984594868e-18
6.448898419e-18
6.958795651e-18
7.531114541e-18
8.193325695e-18
8.990602502e-18
9.99785355e-18
1.133985473e-17
1.322423081e-17
1.599458298e-17
2.021461434e-17
2.679848997e-17
3.720661746e-17
5.37270979e-17
7.985571325e-17
1.20761813e-16
1.83765295e-16
2.786241614e-16
4.172143517e-16
6.118867612e-16
8.715616322e-16
1.194935052e-15
1.561851352e-15
1.927096085e-15
2.222238361e-15
2.363125997e-15
2.249108329e-15
1.807292087e-15
1.296598978e-15
2.206039748e-15
6.492023483e-15
7.747465332e-15
1.16449181e-14
1.630643222e-14
8.541355149e-15
3.205897674e-15
8.535337874e-13
8.114478735e-13
4.803359695e-13
9.029197179e-14
1.234456811e-13
2.09510417e-13
5.451211882e-14
2.20762513e-14
8.673841893e-15
3.73372769e-15
1.864591016e-15
1.193968898e-15
1.145715398e-15
1.705234732e-15
3.417090442e-15
8.125187002e-15
2.126507191e-14
5.397969903e-14
2.143569059e-13
1.29466316e-13
8.329300116e-14
4.728909982e-13
7.926310933e-13
8.545553088e-13
2.294371672e-15
5.441427067e-15
9.687393992e-15
5.811208479e-15
4.412176036e-15
4.179174e-15
1.134179834e-15
7.057716006e-16
1.392389727e-15
1.853561152e-15
1.847165012e-15
1.541414289e-15
1.119277703e-15
7.089745964e-16
3.992620101e-16
2.363049897e-16
4.684345928e-16
2.129740675e-16
1.764405608e-19
2.259805319e-19
2.726520161e-19
3.136663302e-19
3.497038217e-19
3.820829755e-19
4.12105969e-19
4.408507446e-19
4.691771314e-19
4.977814516e-19
5.27253213e-19
5.581188167e-19
5.908721351e-19
6.259951813e-19
6.639723867e-19
7.053013779e-19
7.505016233e-19
8.001217754e-19
8.547451899e-19
9.149938738e-19
9.815305292e-19
1.055058949e-18
1.136322898e-18
1.226103144e-18
1.325211691e-18
1.434482998e-18
1.554762104e-18
1.68689149e-18
1.83169934e-18
1.989990585e-18
2.162538992e-18
2.350075744e-18
2.553272401e-18
2.772727008e-18
3.008976727e-18
3.26256372e-18
3.534167702e-18
3.824792236e-18
4.135985084e-18
4.470100243e-18
4.830670823e-18
5.223003095e-18
5.655112709e-18
6.139108415e-18
6.693196302e-18
7.344674129e-18
8.134683995e-18
9.126033998e-18
1.041616877e-17
1.215843101e-17
1.459642349e-17
1.811878777e-17
2.334526235e-17
3.125909503e-17
4.340465439e-17
6.216947212e-17
9.116173765e-17
1.35667001e-16
2.031053883e-16
3.032894694e-16
4.480860071e-16
6.498336814e-16
9.17695955e-16
1.251352692e-15
1.632515162e-15
2.016749074e-15
2.329777405e-15
2.472173197e-15
2.339050886e-15
1.886766945e-15
1.299207809e-15
1.177827253e-15
2.09797882e-15
2.815763919e-15
4.505768798e-15
9.774672964e-15
1.601610056e-14
2.128900523e-14
1.97899154e-14
1.522121953e-14
1.498628763e-14
7.540157702e-13
7.296126933e-13
3.988329748e-13
4.413035196e-13
6.786960877e-14
1.872713095e-14
7.328779722e-15
3.752413825e-15
2.587506392e-15
2.536742409e-15
3.574386473e-15
6.927775411e-15
1.787192788e-14
6.606656133e-14
4.376787176e-13
3.955094059e-13
7.012605573e-13
7.5118164e-13
1.451098008e-14
1.37629105e-14
1.609030196e-14
1.475314054e-14
1.011644844e-14
6.033689144e-15
2.318480979e-15
1.625857471e-15
1.284596515e-15
6.430919537e-16
7.994959068e-16
1.279297625e-15
1.540980254e-15
1.460509728e-15
1.167563826e-15
8.356746914e-16
5.574721555e-16
3.908732663e-16
3.458385289e-16
6.701411277e-16
2.613720945e-16
1.498334866e-19
1.903451087e-19
2.308043654e-19
2.681765975e-19
3.022107711e-19
3.334069424e-19
3.625419959e-19
3.904114786e-19
4.177433632e-19
4.451811949e-19
4.732980459e-19
5.026176439e-19
5.336342213e-19
5.668287307e-19
6.026817949e-19
6.416838921e-19
6.843440256e-19
7.311966081e-19
7.828067118e-19
8.397735556e-19
9.027321686e-19
9.723532249e-19
1.049341001e-18
1.134428768e-18
1.228372006e-18
1.331938753e-18
1.445898285e-18
1.571008966e-18
1.708007322e-18
1.857598512e-18
2.020446923e-18
2.197164599e-18
2.388300087e-18
2.594341424e-18
2.81575752e-18
3.053101119e-18
3.307180162e-18
3.579285555e-18
3.871467655e-18
4.186894046e-18
4.530373473e-18
4.909160977e-18
5.334145894e-18
5.821523302e-18
6.395123252e-18
7.089807042e-18
7.956720105e-18
9.071749872e-18
1.054927036e-17
1.256433865e-17
1.538814514e-17
1.944400787e-17
2.539465491e-17
3.427566931e-17
4.769351323e-17
6.810683498e-17
9.9200904e-17
1.463372054e-16
2.169967216e-16
3.210165351e-16
4.702318213e-16
6.769064428e-16
9.50182875e-16
1.289958234e-15
1.67841453e-15
2.071004301e-15
2.390715041e-15
2.532169883e-15
2.388258474e-15
1.920403037e-15
1.264367045e-15
7.345327389e-16
5.658875591e-16
6.045545174e-16
6.96156892e-16
1.455110089e-15
2.803267155e-15
7.864185763e-15
1.751692259e-14
1.14882285e-14
3.680878985e-14
1.690121471e-14
6.825084438e-16
1.047211548e-15
5.066418117e-16
1.465462084e-13
3.426488654e-14
1.164802278e-14
5.627981224e-15
3.861306755e-15
3.81216418e-15
5.446227142e-15
1.118739089e-14
3.304656435e-14
1.427862461e-13
4.987086356e-16
1.027185446e-15
6.725466993e-16
1.607726117e-14
3.376034802e-14
1.076039023e-14
1.641245408e-14
7.057392915e-15
2.027778919e-15
8.232915487e-16
3.283087714e-16
4.016428464e-16
3.708286375e-16
4.589736008e-16
7.949772271e-16
1.168846442e-15
1.32891643e-15
1.212451058e-15
9.433702607e-16
6.697513159e-16
4.796603918e-16
4.004772578e-16
4.273989479e-16
7.976462389e-16
2.926609326e-16
1.296003391e-19
1.630366871e-19
1.976736494e-19
2.307959114e-19
2.618701384e-19
2.909624621e-19
3.184749134e-19
3.44941428e-19
3.709276436e-19
3.969833294e-19
4.236293801e-19
4.513602611e-19
4.806525043e-19
5.119746001e-19
5.457966426e-19
5.825988259e-19
6.228788053e-19
6.671577719e-19
7.159850579e-19
7.699412583e-19
8.296395039e-19
8.957247328e-19
9.688705322e-19
1.049773516e-18
1.139145163e-18
1.237701949e-18
1.346153752e-18
1.465192146e-18
1.595478266e-18
1.737630966e-18
1.892213475e-18
2.059719347e-18
2.240563364e-18
2.435094372e-18
2.643653428e-18
2.866695337e-18
3.104974983e-18
3.35978836e-18
3.633274151e-18
3.928827023e-18
4.251719384e-18
4.610039419e-18
5.016033915e-18
5.487944901e-18
6.052533451e-18
6.748721451e-18
7.633178156e-18
8.789206678e-18
1.034102293e-17
1.247657328e-17
1.548365719e-17
1.980657389e-17
2.613393618e-17
3.553237098e-17
4.964443225e-17
7.096921999e-17
1.032353162e-16
1.518466961e-16
2.243172788e-16
3.304888105e-16
4.821406327e-16
6.913787974e-16
9.670589998e-16
1.308693063e-15
1.698073407e-15
2.090225546e-15
2.406978009e-15
2.539349171e-15
2.373634606e-15
1.869592277e-15
1.186724301e-15
6.945221212e-16
6.52948152e-16
8.027338806e-16
8.938961635e-16
1.563577772e-15
2.775459369e-15
7.552149479e-15
1.710356861e-14
1.160210283e-14
3.678310383e-14
1.693093968e-14
6.839086087e-16
1.047268385e-15
5.067250714e-16
1.465746561e-13
3.426801109e-14
1.164601642e-14
5.625161002e-15
3.858624163e-15
3.809958316e-15
5.445058106e-15
1.118917444e-14
3.30583143e-14
1.428365347e-13
4.988137852e-16
1.027281151e-15
6.738271642e-16
1.599625104e-14
3.378206948e-14
1.099506229e-14
1.585814742e-14
6.519881489e-15
1.783412755e-15
8.168424459e-16
4.886205109e-16
5.590361531e-16
4.77955412e-16
4.840012987e-16
7.552017279e-16
1.093607301e-15
1.241736544e-15
1.130848059e-15
8.778108567e-16
6.268288012e-16
4.597546297e-16
4.054753367e-16
4.41061381e-16
8.225008814e-16
2.981939891e-16
1.13314946e-19
1.411983627e-19
1.707779304e-19
1.99741988e-19
2.27553672e-19
2.540941808e-19
2.795428244e-19
3.042406575e-19
3.286092931e-19
3.530991177e-19
3.781650284e-19
4.042580674e-19
4.318254476e-19
4.613148594e-19
4.931804651e-19
5.278890606e-19
5.659258224e-19
6.077992653e-19
6.540451459e-19
7.052291716e-19
7.619478982e-19
8.248274777e-19
8.945195107e-19
9.716943751e-19
1.057032262e-18
1.151212797e-18
1.25490336e-18
1.368746312e-18
1.493344773e-18
1.629246283e-18
1.776924186e-18
1.936758389e-18
2.109024543e-18
2.293908914e-18
2.491570304e-18
2.702261325e-18
2.926506233e-18
3.165328271e-18
3.420544288e-18
3.69519134e-18
3.994184565e-18
4.325304016e-18
4.700581212e-18
5.138174128e-18
5.664933815e-18
6.320124924e-18
7.161139602e-18
8.272571432e-18
9.780717591e-18
1.187660779e-17
1.485224933e-17
1.915723341e-17
2.548630966e-17
3.49127302e-17
4.908585039e-17
7.05118774e-17
1.029274069e-16
1.517454899e-16
2.244859463e-16
3.30975549e-16
4.829081966e-16
6.921274416e-16
9.66883958e-16
1.30563242e-15
1.688949503e-15
2.071547511e-15
2.376702362e-15
2.495019109e-15
2.300569022e-15
1.742754326e-15
1.082782502e-15
1.092563187e-15
2.389067825e-15
3.347226161e-15
4.880055506e-15
9.848293518e-15
1.608911699e-14
2.081252152e-14
1.935790744e-14
1.525207324e-14
1.510719066e-14
7.554900072e-13
7.300566043e-13
3.994206248e-13
4.416782363e-13
6.794303008e-14
1.873819893e-14
7.32552454e-15
3.74608549e-15
2.581099418e-15
2.531525693e-15
3.572028223e-15
6.932851293e-15
1.789919392e-14
6.616789549e-14
4.380872254e-13
3.960824756e-13
7.017148055e-13
7.525317789e-13
1.444617313e-14
1.37194273e-14
1.535326023e-14
1.412589738e-14
9.933528878e-15
6.029246865e-15
2.754658827e-15
2.084522502e-15
1.605588591e-15
7.27787023e-16
7.015505832e-16
1.064994732e-15
1.285794341e-15
1.217937851e-15
9.75438299e-16
7.00809006e-16
4.926098578e-16
3.826178189e-16
3.840124868e-16
7.326035911e-16
2.766441047e-16
9.968922002e-20
1.231413913e-19
1.48430201e-19
1.735978668e-19
1.981975861e-19
2.220574091e-19
2.452420801e-19
2.679681533e-19
2.905478671e-19
3.133452383e-19
3.367505821e-19
3.611677891e-19
3.870098184e-19
4.146991064e-19
4.446704958e-19
4.773753094e-19
5.132854336e-19
5.528971863e-19
5.967346804e-19
6.453521732e-19
6.993346772e-19
7.592960593e-19
8.258741628e-19
8.997232683e-19
9.815047018e-19
1.071876163e-18
1.171479556e-18
1.280926598e-18
1.400781105e-18
1.531537331e-18
1.673594531e-18
1.827230883e-18
1.992586677e-18
2.16967376e-18
2.358428594e-18
2.55881592e-18
2.770977064e-18
2.99541938e-18
3.233274192e-18
3.486694414e-18
3.759487863e-18
4.058067151e-18
4.39277568e-18
4.779674039e-18
5.243010024e-18
5.818846656e-18
6.560702709e-18
7.548552998e-18
8.903207515e-18
1.080906711e-17
1.354983202e-17
1.756424545e-17
2.353255466e-17
3.250871011e-17
4.611728697e-17
6.6834623e-17
9.836446966e-17
1.460876643e-16
2.17494631e-16
3.22372965e-16
4.723010973e-16
6.787331438e-16
9.488626144e-16
1.279016853e-15
1.647099453e-15
2.007805788e-15
2.292396859e-15
2.403777936e-15
2.202668657e-15
1.596971106e-15
1.000531639e-15
2.180068019e-15
6.95520639e-15
8.288512174e-15
1.190834653e-14
1.587764229e-14
8.467903122e-15
3.089884829e-15
8.530637825e-13
8.098105084e-13
4.806274959e-13
9.038142054e-14
1.232897339e-13
2.097263961e-13
5.464021443e-14
2.212509264e-14
8.686028281e-15
3.732050155e-15
1.858414337e-15
1.187093813e-15
1.14026836e-15
1.703591167e-15
3.423804377e-15
8.150172442e-15
2.132835108e-14
5.410798284e-14
2.145035187e-13
1.292989906e-13
8.336544821e-14
4.730784832e-13
7.911680492e-13
8.542756004e-13
2.056230511e-15
4.999963826e-15
9.09790788e-15
6.452622948e-15
4.895850752e-15
4.617390819e-15
1.285175309e-15
6.076137309e-16
1.075736512e-15
1.445953173e-15
1.449055731e-15
1.215588306e-15
8.963589473e-16
5.903908617e-16
3.680120003e-16
2.762972234e-16
5.571681601e-16
2.354923076e-16
8.798518159e-20
1.078348806e-19
1.294979014e-19
1.513016508e-19
1.729057664e-19
1.94144884e-19
2.150342265e-19
2.357173909e-19
2.564311547e-19
2.774721831e-19
2.991751578e-19
3.218998818e-19
3.460251631e-19
3.719471022e-19
4.000800082e-19
4.308587869e-19
4.647417771e-19
5.02213859e-19
5.437893944e-19
5.900144094e-19
6.414669704e-19
6.987546938e-19
7.62509265e-19
8.333785425e-19
9.12017058e-19
9.990754006e-19
1.095187371e-18
1.200953387e-18
1.316918742e-18
1.443545926e-18
1.581181791e-18
1.730023224e-18
1.890091096e-18
2.061227446e-18
2.243128623e-18
2.435416814e-18
2.637741679e-18
2.849912518e-18
3.072093942e-18
3.305137134e-18
3.551132243e-18
3.814247274e-18
4.1019007e-18
4.426356917e-18
4.806977365e-18
5.273616145e-18
5.87200617e-18
6.672446432e-18
7.78370893e-18
9.375010402e-18
1.171047135e-17
1.520309177e-17
2.049900017e-17
2.86072742e-17
4.109475908e-17
6.03662155e-17
9.004155577e-17
1.354124584e-16
2.03888218e-16
3.051877398e-16
4.507607998e-16
6.515570309e-16
9.130983806e-16
1.22772174e-15
1.567272717e-15
1.885089816e-15
2.133125498e-15
2.265586602e-15
2.151414187e-15
1.575434491e-15
1.012464326e-15
4.272417315e-15
1.81185813e-14
1.599714702e-14
5.731149332e-15
2.792911203e-15
1.798762169e-14
7.918310658e-14
7.215441456e-13
4.410955367e-13
3.568186892e-13
2.233564151e-14
6.400529369e-15
2.625630791e-14
1.488463793e-14
7.894502485e-15
3.795047821e-15
1.712033213e-15
7.471124661e-16
3.577334616e-16
3.188626413e-16
6.251600331e-16
1.494073323e-15
3.476614062e-15
7.535861963e-15
1.477228283e-14
2.71368108e-14
7.326018437e-15
2.063948589e-14
3.494198285e-13
4.392673139e-13
7.193606924e-13
8.231255153e-14
1.906279688e-14
1.689685632e-15
3.075171667e-15
8.956974522e-15
1.28857525e-14
2.252894092e-15
4.535725773e-16
1.164129987e-15
1.708487585e-15
1.778580947e-15
1.559430324e-15
1.190574008e-15
7.722817336e-16
4.009638807e-16
1.789372073e-16
3.510927574e-16
1.868356057e-16
7.775296969e-20
9.462492205e-20
1.132137391e-19
1.3207413e-19
1.509614766e-19
1.697390272e-19
1.884072165e-19
2.070705651e-19
2.259169659e-19
2.451938661e-19
2.651915502e-19
2.862320241e-19
3.086629332e-19
3.328553111e-19
3.592033215e-19
3.881255741e-19
4.200672473e-19
4.555027401e-19
4.949386027e-19
5.389156507e-19
5.880090534e-19
6.428255329e-19
7.039975229e-19
7.721754181e-19
8.480185868e-19
9.321850159e-19
1.025317812e-18
1.128026248e-18
1.24085973e-18
1.364274241e-18
1.498592147e-18
1.643959119e-18
1.800306369e-18
1.96733024e-18
2.144497237e-18
2.331072457e-18
2.52616285e-18
2.728778115e-18
2.937944813e-18
3.152941008e-18
3.373722909e-18
3.601594193e-18
3.840158092e-18
4.0966469e-18
4.383872251e-18
4.723288461e-18
5.149995919e-18
5.720924576e-18
6.527967686e-18
7.718701189e-18
9.528918111e-18
1.233387596e-17
1.672897317e-17
2.365511257e-17
3.458830111e-17
5.181459225e-17
7.880540669e-17
1.206833955e-16
1.846980252e-16
2.804577723e-16
4.193142921e-16
6.117370694e-16
8.610453642e-16
1.152858248e-15
1.445714039e-15
1.68301737e-15
1.853764357e-15
2.05676379e-15
2.2789287e-15
2.077842197e-15
1.367984609e-15
5.68673531e-15
8.516391786e-15
6.801177508e-15
2.885462463e-13
4.714342012e-13
6.26330616e-14
2.013981562e-14
6.766839606e-14
5.512351838e-14
4.151894173e-14
6.125736986e-15
4.55981616e-15
7.476036305e-15
5.642108514e-15
3.404651179e-15
1.801786355e-15
8.269435952e-16
2.999240872e-16
6.279906219e-17
3.437178268e-17
2.145145168e-16
6.872822036e-16
1.624658711e-15
3.243853307e-15
5.614435786e-15
7.708390406e-15
4.827313443e-15
6.008143011e-15
4.110439611e-14
5.56583995e-14
6.810406305e-14
1.982386221e-14
6.169571295e-14
4.738918328e-13
2.844741088e-13
4.477995346e-15
4.351563475e-15
2.78554762e-15
4.413720524e-16
1.550746828e-15
2.036802122e-15
2.053827423e-15
1.879784201e-15
1.534363075e-15
1.042265611e-15
5.352624294e-16
1.577459429e-16
2.054732594e-16
1.536938837e-16
6.870318385e-20
8.308017446e-20
9.904762954e-20
1.153442878e-19
1.318039641e-19
1.483229031e-19
1.649033207e-19
1.81630759e-19
1.986626809e-19
2.162120681e-19
2.345352279e-19
2.539232477e-19
2.746970187e-19
2.972048967e-19
3.218222351e-19
3.4895218e-19
3.790275706e-19
4.125135472e-19
4.499107019e-19
4.917572254e-19
5.386288805e-19
5.911359733e-19
6.499177642e-19
7.156353033e-19
7.889636566e-19
8.70582093e-19
9.611601719e-19
1.061336427e-18
1.171688577e-18
1.2926946e-18
1.424686253e-18
1.567797337e-18
1.721913394e-18
1.886630217e-18
2.061225531e-18
2.244638236e-18
2.435446919e-18
2.631852126e-18
2.831696847e-18
3.032583498e-18
3.232144502e-18
3.428504465e-18