/*--------------------------------*- C++ -*----------------------------------*\
  =========                 |
  \\      /  F ield         | OpenFOAM: The Open Source CFD Toolbox
   \\    /   O peration     | Website:  https://openfoam.org
    \\  /    A nd           | Version:  6
     \\/     M anipulation  |
\*---------------------------------------------------------------------------*/
FoamFile
{
    version     2.0;
    format      ascii;
    class       volScalarField;
    location    "0.0025";
    object      Num_divU;
}
// * * * * * * * * * * * * * * * * * * * * * * * * * * * * * * * * * * * * * //

dimensions      [0 0 -1 0 0 0 0];

internalField   nonuniform List<scalar> 
9600
(
-7.0243921e-09
-1.50448405e-08
-1.868860082e-08
-1.794611123e-08
-1.524565993e-08
-1.174942607e-08
-8.261083286e-09
-5.016509605e-09
-2.260788927e-09
6.947189083e-11
1.877417009e-09
3.297002334e-09
4.25762912e-09
4.898271501e-09
5.13945758e-09
5.107192653e-09
4.704944025e-09
4.041527368e-09
3.001208781e-09
1.672873257e-09
-8.155156841e-11
-2.195923713e-09
-4.831750945e-09
-7.947068378e-09
-1.172988682e-08
-1.616914407e-08
-2.148702586e-08
-2.770737813e-08
-3.508158508e-08
-4.365577882e-08
-5.369634785e-08
-6.52670912e-08
-7.865786505e-08
-9.396734675e-08
-1.115186854e-07
-1.314329273e-07
-1.540245838e-07
-1.793780769e-07
-2.077456904e-07
-2.39152436e-07
-2.737980098e-07
-3.1166929e-07
-3.529100834e-07
-3.974256729e-07
-4.452410446e-07
-4.961469005e-07
-5.500799993e-07
-6.068109202e-07
-6.663186263e-07
-7.285186949e-07
-7.93665428e-07
-8.622003993e-07
-9.352987821e-07
-1.01502163e-06
-1.105294453e-06
-1.212761967e-06
-1.348640848e-06
-1.53015124e-06
-1.780496936e-06
-2.122270535e-06
-2.556646163e-06
-3.03771815e-06
-3.507294765e-06
-4.262612105e-06
-5.751478464e-06
-1.274779754e-05
-1.94964683e-05
-9.183359596e-06
1.761386745e-11
5.846066261e-11
7.582567362e-11
1.114519674e-10
1.158261015e-10
8.275667693e-11
6.047227092e-11
7.473296841e-11
1.275467512e-10
1.717957266e-10
2.134598165e-10
2.25348647e-10
2.010418916e-10
1.603108897e-10
1.20020044e-10
1.140267537e-10
1.124886832e-10
1.231724146e-10
8.813833546e-11
3.464980355e-11
-3.249466166e-11
-4.359792991e-11
-3.423808151e-11
-1.031248743e-11
-5.789968125e-12
1.709582036e-11
1.932577479e-11
-3.519232019e-11
-1.185581915e-10
-1.818020549e-10
-1.967803123e-10
-1.977955178e-10
-1.581567764e-10
-1.495468404e-10
-1.167690005e-10
-1.017726316e-10
-9.543479169e-11
-1.616976603e-10
-1.896235665e-10
-7.021625602e-11
-3.200980736e-10
-9.153987239e-11
-2.105688465e-10
-4.97747726e-11
-8.46358575e-06
-1.268803341e-05
-6.314487337e-06
-1.016318684e-06
-1.786733155e-07
-7.608808652e-07
-1.888835151e-06
1.402939826e-06
-1.744714779e-08
-2.88840414e-08
-3.131347171e-08
-2.761465934e-08
-2.219565507e-08
-1.666759768e-08
-1.171859526e-08
-7.486665694e-09
-4.02737086e-09
-1.233040021e-09
9.242030941e-10
2.569142032e-09
3.718216143e-09
4.475675564e-09
4.833250871e-09
4.870966898e-09
4.556705899e-09
3.948692832e-09
2.99236473e-09
1.723096073e-09
6.271778222e-11
-1.977267197e-09
-4.499432992e-09
-7.517960607e-09
-1.11646741e-08
-1.548687448e-08
-2.065206504e-08
-2.674183927e-08
-3.395232784e-08
-4.238879941e-08
-5.226961069e-08
-6.373007956e-08
-7.702916814e-08
-9.235194551e-08
-1.100009452e-07
-1.301865896e-07
-1.532076464e-07
-1.792516422e-07
-2.085900159e-07
-2.414007802e-07
-2.779605291e-07
-3.184530749e-07
-3.631281706e-07
-4.121051523e-07
-4.655458113e-07
-5.235076727e-07
-5.861488945e-07
-6.536011686e-07
-7.261652741e-07
-8.041999068e-07
-8.883569168e-07
-9.795801886e-07
-1.07950342e-06
-1.190724439e-06
-1.317549559e-06
-1.466676361e-06
-1.648240137e-06
-1.876422836e-06
-2.169418738e-06
-2.547567983e-06
-3.033156566e-06
-3.659475551e-06
-4.533688848e-06
-5.947957212e-06
-8.326331339e-06
-1.220850335e-05
-1.647109488e-05
-1.394349285e-05
-6.707461683e-06
2.263477196e-11
6.321377265e-11
6.785444279e-11
1.756777034e-11
2.63714408e-11
2.290714261e-11
8.057779152e-11
1.237851153e-10
1.653891111e-10
1.627460432e-10
1.637079106e-10
1.062983788e-10
9.633724769e-11
6.412334415e-11
7.055167016e-11
7.610690292e-11
6.855663804e-11
2.326499381e-11
-2.753539676e-11
-5.84972821e-11
-3.927836417e-11
-1.222758484e-11
4.552721447e-12
1.033966288e-11
4.760092808e-11
3.887157139e-11
-2.677228157e-11
-1.156591784e-10
-8.243969267e-11
-1.146664569e-10
-1.02273827e-10
-1.23079096e-10
-9.566533555e-11
-1.27150617e-10
-9.997141837e-11
-1.181809843e-10
-6.843665584e-11
-1.135269546e-10
-1.811629601e-10
-1.162571251e-10
-5.474876084e-11
5.898496867e-17
-8.827706916e-06
-1.443229418e-05
-1.566585733e-05
-1.021000362e-05
-6.552446728e-06
-4.557948895e-06
-3.732335238e-06
-3.332163802e-06
9.488365646e-07
-4.790836116e-08
-5.637426969e-08
-5.058325099e-08
-3.98753039e-08
-2.988357516e-08
-2.158049259e-08
-1.490829232e-08
-9.635102242e-09
-5.487308095e-09
-2.274818385e-09
1.889746938e-10
2.0132008e-09
3.318002359e-09
4.158305627e-09
4.610829646e-09
4.693994143e-09
4.454303619e-09
3.883111775e-09
3.001516661e-09
1.775662577e-09
2.015836408e-10
-1.779578305e-09
-4.197289354e-09
-7.137763131e-09
-1.066132097e-08
-1.488903587e-08
-1.991766687e-08
-2.59023124e-08
-3.296922487e-08
-4.129966871e-08
-5.105044132e-08
-6.24446608e-08
-7.569453664e-08
-9.108405557e-08
-1.088770569e-07
-1.293853124e-07
-1.528765276e-07
-1.79656941e-07
-2.100039217e-07
-2.442601379e-07
-2.827563869e-07
-3.258716537e-07
-3.739292041e-07
-4.27255584e-07
-4.861172002e-07
-5.508289675e-07
-6.217227873e-07
-6.992492795e-07
-7.839287187e-07
-8.764553246e-07
-9.776959566e-07
-1.088886728e-06
-1.211781469e-06
-1.349059671e-06
-1.504744743e-06
-1.684857003e-06
-1.897969379e-06
-2.155815994e-06
-2.473768288e-06
-2.871987885e-06
-3.379357882e-06
-4.045119995e-06
-4.961565586e-06
-6.275004331e-06
-8.053980619e-06
-9.985477839e-06
-1.024043668e-05
-1.136223783e-05
-1.071925361e-05
-6.43754504e-06
2.840014559e-11
-1.041987368e-11
2.5424114e-11
6.696355255e-12
7.315974286e-11
1.196940375e-10
1.566214377e-10
1.465583498e-10
1.665883498e-10
1.209212371e-10
1.374132125e-10
6.145552933e-11
6.950417979e-11
8.276776776e-11
8.782327652e-11
5.50234202e-11
-5.124436356e-12
-6.344732894e-11
-7.040386866e-11
-3.724294897e-11
-4.147431209e-12
1.027377327e-11
5.683634887e-11
9.46827019e-11
4.942569105e-11
-6.533896851e-11
-5.341191408e-11
-1.340028774e-10
-1.037308128e-10
-1.401270719e-10
-1.208955138e-10
-1.609173907e-10
-1.033056487e-10
-1.124372515e-10
-1.583552597e-11
-2.726209835e-10
-8.139198232e-11
-4.435376938e-11
-4.015266475e-11
-1.266482153e-16
-1.041905109e-05
-1.586645093e-05
-1.516894169e-05
-1.296623839e-05
-1.162085906e-05
-9.460108469e-06
-7.34966946e-06
-6.120368401e-06
-5.690857771e-06
-2.772890775e-07
-1.793863502e-07
-1.20651329e-07
-7.748668888e-08
-5.28754108e-08
-3.673515346e-08
-2.546072796e-08
-1.724825556e-08
-1.110048591e-08
-6.455069077e-09
-2.924408419e-09
-2.765377181e-10
1.682483537e-09
3.061630513e-09
3.971065979e-09
4.459159642e-09
4.590761267e-09
4.378009141e-09
3.855353099e-09
3.006812257e-09
1.839950943e-09
3.125235557e-10
-1.59400518e-09
-3.948169618e-09
-6.797041054e-09
-1.024145998e-08
-1.436428831e-08
-1.930295536e-08
-2.517437072e-08
-3.214648093e-08
-4.036753091e-08
-5.004426059e-08
-6.137831161e-08
-7.464315497e-08
-9.010979476e-08
-1.081066358e-07
-1.289358415e-07
-1.529387637e-07
-1.804357532e-07
-2.118141002e-07
-2.474736682e-07
-2.878888373e-07
-3.335152961e-07
-3.848268739e-07
-4.42240839e-07
-5.062048866e-07
-5.771746468e-07
-6.557109746e-07
-7.424325924e-07
-8.38082218e-07
-9.434848103e-07
-1.059660477e-06
-1.187858867e-06
-1.329776007e-06
-1.487744003e-06
-1.665140272e-06
-1.866751818e-06
-2.099237572e-06
-2.371465282e-06
-2.695074063e-06
-3.085494785e-06
-3.564264616e-06
-4.162121777e-06
-4.918279571e-06
-5.855713329e-06
-6.891632532e-06
-7.719993404e-06
-7.840534028e-06
-7.750070381e-06
-1.155216649e-05
-1.148838478e-05
-8.947175064e-06
1.020881625e-11
1.6837666e-12
7.210662302e-11
9.7827082e-11
9.708036106e-11
6.103644088e-11
1.370011918e-10
9.001983505e-11
1.282909153e-10
7.153334759e-11
1.245408419e-10
1.143449984e-10
1.139602787e-10
1.061780707e-10
5.287190627e-11
-3.064645813e-11
-8.606646621e-11
-8.166048478e-11
-3.287545995e-11
4.004054331e-12
3.711708172e-11
9.435447158e-11
1.244402575e-10
1.982073854e-11
-4.165996121e-11
-1.19490356e-10
-5.413057906e-11
-1.639715311e-10
-1.845052977e-10
-1.639548192e-10
1.517159316e-11
-1.246370904e-10
-3.406093171e-11
-1.698657602e-10
-7.175424664e-11
-2.577194506e-11
-1.10894544e-11
2.396059256e-15
-1.381885265e-05
-1.891291459e-05
-1.878068497e-05
-1.414805815e-05
-1.310337903e-05
-1.228319922e-05
-1.085358004e-05
-9.505645907e-06
-8.472894091e-06
-8.161119292e-06
-2.029801727e-06
-2.176181847e-07
-1.406619203e-07
-8.662360964e-08
-5.751877775e-08
-3.920160304e-08
-2.682848372e-08
-1.801857936e-08
-1.155159461e-08
-6.718419957e-09
-3.093694442e-09
-3.845921974e-10
1.597212765e-09
2.99850821e-09
3.911058723e-09
4.414097744e-09
4.549592148e-09
4.358327053e-09
3.850000575e-09
3.036079555e-09
1.898278034e-09
4.211137131e-10
-1.440085221e-09
-3.728011341e-09
-6.516687734e-09
-9.881642176e-09
-1.393291882e-08
-1.87825502e-08
-2.457515277e-08
-3.145609585e-08
-3.960650113e-08
-4.921910659e-08
-6.053815495e-08
-7.383119737e-08
-8.941578434e-08
-1.076164238e-07
-1.287858347e-07
-1.532753965e-07
-1.814820035e-07
-2.138390372e-07
-2.508559677e-07
-2.93074041e-07
-3.410645256e-07
-3.953721378e-07
-4.565465365e-07
-5.2514431e-07
-6.017967281e-07
-6.871998631e-07
-7.821365593e-07
-8.874358388e-07
-1.00400916e-06
-1.132855138e-06
-1.275145974e-06
-1.432285196e-06
-1.606082285e-06
-1.798939521e-06
-2.014121674e-06
-2.25591546e-06
-2.529738739e-06
-2.842150841e-06
-3.200934686e-06
-3.614908335e-06
-4.092201381e-06
-4.633137509e-06
-5.210928102e-06
-5.73796143e-06
-6.064419592e-06
-6.106270618e-06
-6.260094797e-06
-6.098955066e-06
-4.681994211e-06
6.026625642e-06
1.896000311e-05
9.297161657e-06
3.940813046e-11
1.521282195e-11
-1.567397614e-11
1.576407082e-10
1.09327727e-10
1.870716057e-10
1.57261046e-10
2.343690912e-10
9.151710368e-11
9.330209916e-11
1.285902203e-10
1.130255296e-10
3.56914967e-11
-5.886683183e-11
-1.075138757e-10
-8.037797859e-11
-2.477272315e-11
1.217640466e-11
7.017331211e-11
1.456954011e-10
1.000707465e-10
1.521148262e-11
-8.2787363e-11
-1.787060782e-11
-1.57369108e-10
-1.557185658e-10
-1.769082294e-10
4.659258682e-11
-2.817716504e-10
-2.247460394e-10
-1.079912448e-10
-4.160041385e-11
-2.833865192e-11
-1.709689037e-15
1.132604796e-05
1.285391548e-05
-1.167232678e-06
-1.411008969e-05
-1.485655923e-05
-1.429419203e-05
-1.327355342e-05
-1.244679611e-05
-1.179598854e-05
-1.12537651e-05
-1.08160343e-05
-1.112809804e-05
-4.12229912e-06
-1.189408358e-07
-9.723745345e-08
-7.138892952e-08
-5.116981743e-08
-3.617881951e-08
-2.515739854e-08
-1.697911434e-08
-1.084532775e-08
-6.220142996e-09
-2.731962061e-09
-1.268230993e-10
1.781519295e-09
3.122325404e-09
3.994650947e-09
4.464715518e-09
4.584578947e-09
4.383078339e-09
3.880429198e-09
3.0763948e-09
1.963380757e-09
5.140082732e-10
-1.305807498e-09
-3.550763481e-09
-6.28461591e-09
-9.594883296e-09
-1.358106491e-08
-1.836728907e-08
-2.408882553e-08
-3.090625998e-08
-3.899750265e-08
-4.857839993e-08
-5.989687567e-08
-7.324771977e-08
-8.895354543e-08
-1.073669921e-07
-1.288527317e-07
-1.538078413e-07
-1.826690504e-07
-2.159456929e-07
-2.542089678e-07
-2.980834758e-07
-3.482008183e-07
-4.051945431e-07
-4.6969982e-07
-5.424021267e-07
-6.240518323e-07
-7.154752646e-07
-8.175333857e-07
-9.311103099e-07
-1.057098226e-06
-1.19642809e-06
-1.350071136e-06
-1.519070996e-06
-1.704569543e-06
-1.90789639e-06
-2.130610011e-06
-2.374450557e-06
-2.641053873e-06
-2.931460655e-06
-3.245285825e-06
-3.579265434e-06
-3.924183106e-06
-4.258806731e-06
-4.54010338e-06
-4.694866636e-06
-4.633772221e-06
-4.299442687e-06
-3.68301902e-06
-2.201653046e-06
1.765076503e-06
8.686355616e-06
1.180203964e-05
2.65415449e-05
6.006815654e-06
-1.557884469e-11
9.601473342e-11
1.574017982e-10
2.745061583e-10
2.306206674e-10
2.046930891e-10
-1.377559475e-10
2.696050257e-10
9.068933848e-11
5.290112562e-11
4.629901872e-11
-1.669523513e-11
-1.007916675e-10
-1.289513042e-10
-8.377529648e-11
-1.830766218e-11
3.358811122e-11
9.183261063e-11
1.283169441e-10
9.938995113e-11
-2.283359534e-11
1.780880139e-11
6.001532892e-12
2.478258728e-10
-4.21020107e-10
-4.462869627e-11
-2.008783991e-10
-3.305989398e-10
-3.442269492e-10
-9.042221797e-11
-1.040107265e-11
2.632252431e-15
1.576626714e-07
1.848242305e-05
8.596740645e-06
2.518286483e-06
-7.250729597e-06
-1.149827347e-05
-1.255938532e-05
-1.270232853e-05
-1.253691517e-05
-1.245952658e-05
-1.246449898e-05
-1.279446235e-05
-1.39506512e-05
-6.267624717e-06
-7.270647927e-08
-6.611214365e-08
-5.340825952e-08
-4.081405716e-08
-3.001131033e-08
-2.130982383e-08
-1.446439536e-08
-9.139623113e-09
-5.029215833e-09
-1.888112398e-09
4.770970584e-10
2.211385961e-09
3.427284044e-09
4.206220409e-09
4.611247352e-09
4.68418334e-09
4.455207841e-09
3.937068797e-09
3.13217632e-09
2.026342956e-09
5.957985118e-10
-1.199799865e-09
-3.411316593e-09
-6.108406311e-09
-9.374614477e-09
-1.33146706e-08
-1.804887139e-08
-2.371931533e-08
-3.048675684e-08
-3.854194619e-08
-4.810679649e-08
-5.944657565e-08
-7.286313397e-08
-8.869531048e-08
-1.073046436e-07
-1.290816027e-07
-1.544521172e-07
-1.839056082e-07
-2.180029771e-07
-2.573780579e-07
-3.027033212e-07
-3.546686725e-07
-4.139672019e-07
-4.813257791e-07
-5.575298078e-07
-6.43441615e-07
-7.399663883e-07
-8.480154469e-07
-9.684668069e-07
-1.102167175e-06
-1.249924767e-06
-1.412496942e-06
-1.590534374e-06
-1.784534833e-06
-1.994768636e-06
-2.221159614e-06
-2.462968465e-06
-2.718234744e-06
-2.982869596e-06
-3.249397248e-06
-3.505083262e-06
-3.729148192e-06
-3.888789795e-06
-3.934811406e-06
-3.799844944e-06
-3.404407591e-06
-2.660789962e-06
-1.428755061e-06
6.977138333e-07
4.269977872e-06
9.957152825e-06
1.059475124e-05
2.464798016e-05
3.681352655e-05
2.800846521e-05
2.050181257e-06
1.380714327e-10
1.168440606e-10
4.338910193e-11
-3.003432727e-10
4.411063484e-10
2.672359332e-11
1.914574514e-10
8.344246312e-11
2.902412049e-11
-5.565404128e-11
-1.375175478e-10
-1.463427261e-10
-8.069686334e-11
-1.401933322e-11
3.493051026e-11
9.887837493e-11
1.408768799e-10
1.088816378e-10
7.505629079e-11
1.600777162e-10
5.92240489e-10
-8.475045517e-10
-1.361531627e-10
1.152919914e-10
-7.367326864e-11
-2.518499898e-10
-8.605732736e-11
8.11900229e-16
2.864761467e-06
2.067442616e-05
2.287788294e-05
1.572307739e-05
5.407437171e-06
2.332440328e-06
-4.031223254e-06
-8.178479147e-06
-1.036220739e-05
-1.151791377e-05
-1.207739065e-05
-1.293286891e-05
-1.332140703e-05
-1.432306342e-05
-1.6503559e-05
-8.286922231e-06
-4.256961107e-08
-4.223923666e-08
-3.676466086e-08
-2.966209493e-08
-2.257105181e-08
-1.628756834e-08
-1.101486541e-08
-6.727144132e-09
-3.317807319e-09
-6.608648175e-10
1.360661146e-09
2.847954874e-09
3.882555237e-09
4.529451279e-09
4.837191883e-09
4.841692308e-09
4.564984822e-09
4.01747592e-09
3.196319173e-09
2.086727768e-09
6.608162713e-10
-1.121369894e-09
-3.314172348e-09
-5.986171207e-09
-9.223726664e-09
-1.313012237e-08
-1.782853385e-08
-2.346187386e-08
-3.019774541e-08
-3.823262113e-08
-4.779974835e-08
-5.917138585e-08
-7.265942284e-08
-8.860801837e-08
-1.073918422e-07
-1.294188992e-07
-1.551489341e-07
-1.851108228e-07
-2.19912921e-07
-2.602270277e-07
-3.067639683e-07
-3.602500652e-07
-4.21436546e-07
-4.911247638e-07
-5.701930963e-07
-6.595825831e-07
-7.602544509e-07
-8.73131454e-07
-9.990700439e-07
-1.138850899e-06
-1.293172052e-06
-1.462596416e-06
-1.647456174e-06
-1.847706148e-06
-2.062738588e-06
-2.291074778e-06
-2.529876677e-06
-2.774150766e-06
-3.01566428e-06
-3.241504693e-06
-3.432287455e-06
-3.559905255e-06
-3.585005115e-06
-3.454790078e-06
-3.102371762e-06
-2.447943596e-06
-1.39543325e-06
1.878984346e-07
2.507039851e-06
5.699752817e-06
9.58806052e-06
1.227159457e-05
1.53150261e-05
2.444407835e-05
3.020357896e-05
5.060473616e-05
3.364807448e-05
3.846694278e-06
-1.40727397e-10
2.022547337e-10
-3.59828296e-12
4.650615851e-10
2.639220831e-10
7.732912745e-11
3.135924088e-12
-8.666749441e-11
-1.62850632e-10
-1.562415345e-10
-8.328393676e-11
-9.629545709e-12
4.072994416e-11
1.092447873e-10
1.834480164e-10
1.386936522e-10
1.333621092e-10
3.988604241e-10
-6.105572197e-10
-2.42192491e-10
5.18436477e-11
6.254414136e-11
-1.841764096e-11
2.964907508e-15
3.621813214e-06
2.603093143e-05
3.922975391e-05
2.194952229e-05
1.519125624e-05
7.790387155e-06
4.813498277e-06
1.854600718e-06
-2.648182331e-06
-6.521054161e-06
-8.873808136e-06
-1.050189277e-05
-1.186339109e-05
-1.31043822e-05
-1.417625149e-05
-1.600642805e-05
-1.881058336e-05
-9.981423281e-06
-2.187766175e-08
-2.426736742e-08
-2.274070993e-08
-1.928825493e-08
-1.506815795e-08
-1.08998466e-08
-7.141214149e-09
-3.929161885e-09
-1.28612249e-09
8.195990101e-10
2.440922391e-09
3.634065144e-09
4.451464671e-09
4.936925962e-09
5.12568399e-09
5.042962965e-09
4.704217645e-09
4.113648522e-09
3.26472091e-09
2.139142136e-09
7.070345553e-10
-1.07409463e-09
-3.259530408e-09
-5.919741123e-09
-9.141072261e-09
-1.302807131e-08
-1.770458165e-08
-2.331680268e-08
-3.003654592e-08
-3.806758061e-08
-4.764947687e-08
-5.906119686e-08
-7.261813337e-08
-8.866962487e-08
-1.07598087e-07
-1.298299601e-07
-1.558520292e-07
-1.862278972e-07
-2.215964654e-07
-2.626550793e-07
-3.101333102e-07
-3.647870835e-07
-4.274137388e-07
-4.988837688e-07
-5.801464919e-07
-6.722017568e-07
-7.760360374e-07
-8.925691385e-07
-1.02262675e-06
-1.166941678e-06
-1.326138917e-06
-1.500670879e-06
-1.690675604e-06
-1.895767134e-06
-2.114729233e-06
-2.34509282e-06
-2.582487362e-06
-2.819758739e-06
-3.045788813e-06
-3.244082057e-06
-3.391090155e-06
-3.454372949e-06
-3.390742185e-06
-3.14488162e-06
-2.649001058e-06
-1.823834857e-06
-5.801529941e-07
1.176853078e-06
3.524978806e-06
6.429870222e-06
9.643373266e-06
1.262268337e-05
1.626413367e-05
2.470373983e-05
2.712030643e-05
3.758672692e-05
3.394260543e-05
5.059730218e-05
2.941375539e-05
-4.168978821e-06
-1.074230144e-06
1.887374265e-10
2.907612486e-11
-7.070379358e-11
-9.150026962e-11
-1.492892713e-10
-1.990302251e-10
-1.70387565e-10
-8.40212772e-11
-1.567235074e-11
4.303107857e-11
1.301419134e-10
1.888021655e-10
1.405460319e-10
1.464911265e-10
7.658111499e-11
-3.224446862e-11
7.207509361e-11
5.901145658e-16
-1.86191313e-06
-4.876392283e-06
2.24963042e-05
3.897638037e-05
2.414949538e-05
2.781615978e-05
1.812118641e-05
1.628378937e-05
7.942672675e-06
4.341572601e-06
1.276297646e-06
-1.96395212e-06
-5.355909329e-06
-7.747590962e-06
-9.841308358e-06
-1.156726594e-05
-1.313162549e-05
-1.465870717e-05
-1.703205382e-05
-2.038607395e-05
-1.122730839e-05
-6.939075708e-09
-1.063487283e-08
-1.134623295e-08
-1.027103701e-08
-8.146030102e-09
-5.677348775e-09
-3.235433661e-09
-1.019723235e-09
8.770876211e-10
2.425304527e-09
3.62945204e-09
4.509555412e-09
5.091424661e-09
5.399766748e-09
5.455566035e-09
5.27375824e-09
4.861690084e-09
4.217875685e-09
3.331174828e-09
2.179751671e-09
7.308605883e-10
-1.0596985e-09
-3.249333496e-09
-5.909394235e-09
-9.127282989e-09
-1.300817676e-08
-1.767734684e-08
-2.328356893e-08
-3.000305137e-08
-3.804444512e-08
-4.765216228e-08
-5.910773867e-08
-7.272791949e-08
-8.886372162e-08
-1.079048757e-07
-1.30292351e-07
-1.565352973e-07
-1.872199764e-07
-2.230031551e-07
-2.645909215e-07
-3.127223742e-07
-3.681728306e-07
-4.317803784e-07
-5.044680688e-07
-5.87237916e-07
-6.81120484e-07
-7.871100476e-07
-9.061127182e-07
-1.038935723e-06
-1.186297648e-06
-1.34882154e-06
-1.526961744e-06
-1.72083736e-06
-1.929959411e-06
-2.152859538e-06
-2.386568608e-06
-2.625929739e-06
-2.862663947e-06
-3.084220949e-06
-3.272374695e-06
-3.401624459e-06
-3.437427319e-06
-3.334511993e-06
-3.035638599e-06
-2.471367971e-06
-1.561574292e-06
-2.208179931e-07
1.626031197e-06
4.005705548e-06
6.832941141e-06
9.903302254e-06
1.307169897e-05
1.692081643e-05
2.254379786e-05
2.432136398e-05
2.477183382e-05
2.18891606e-05
2.016774247e-05
2.442417503e-06
2.565061045e-05
8.10001666e-05
6.681727055e-05
9.343289054e-11
-4.567786741e-11
-1.096078529e-10
-1.739720081e-10
-2.125718454e-10
-1.712594178e-10
-8.309843754e-11
-1.220942139e-11
4.6222998e-11
1.41841409e-10
1.923347055e-10
1.519765911e-10
2.325799125e-10
2.680855086e-10
4.226688892e-10
-1.727269855e-10
6.703217816e-05
7.580883256e-05
2.014404035e-05
-7.40053421e-06
1.032484442e-05
1.211400529e-05
1.503409776e-05
1.489714731e-05
1.334847268e-05
7.980604517e-06
4.10428906e-06
1.051349701e-06
-1.927957347e-06
-4.871881161e-06
-7.458996041e-06
-9.426963814e-06
-1.15092761e-05
-1.340317715e-05
-1.526675866e-05
-1.751991003e-05
-2.130690319e-05
-1.194388192e-05
4.124926119e-09
-2.333662884e-10
-2.255040301e-09
-2.725063844e-09
-2.086539891e-09
-9.20690293e-10
4.434678964e-10
1.797938442e-09
3.019875561e-09
4.045321842e-09
4.846505769e-09
5.417356731e-09
5.761772952e-09
5.888548682e-09
5.805764824e-09
5.518462034e-09
5.026343659e-09
4.322002001e-09
3.38944379e-09
2.203741171e-09
7.293060056e-10
-1.080491963e-09
-3.284719922e-09
-5.956094553e-09
-9.182911809e-09
-1.307124184e-08
-1.774770915e-08
-2.336334803e-08
-3.009774838e-08
-3.81627969e-08
-4.780524429e-08
-5.930677286e-08
-7.298298244e-08
-8.918475238e-08
-1.083064243e-07
-1.307998576e-07
-1.571885821e-07
-1.880709064e-07
-2.241071204e-07
-2.660005367e-07
-3.144891206e-07
-3.703616184e-07
-4.344848045e-07
-5.078189577e-07
-5.913923554e-07
-6.862442971e-07
-7.933583774e-07
-9.136272119e-07
-1.047858007e-06
-1.196803093e-06
-1.361167465e-06
-1.541536689e-06
-1.738188854e-06
-1.950794401e-06
-2.178000654e-06
-2.416912995e-06
-2.662407782e-06
-2.90626866e-06
-3.136056938e-06
-3.333701824e-06
-3.47375942e-06
-3.52147682e-06
-3.43090307e-06
-3.14346704e-06
-2.587313692e-06
-1.677695079e-06
-3.203560872e-07
1.573166219e-06
4.040430089e-06
6.984007392e-06
1.015088409e-05
1.333797751e-05
1.711337924e-05
2.254470377e-05
2.409765188e-05
2.424829418e-05
2.094602049e-05
1.950025946e-05
9.732269653e-07
2.583185053e-05
7.999463281e-05
6.761224541e-05
2.603853914e-10
-1.223699396e-11
-1.058275152e-10
-1.796301304e-10
-2.136016088e-10
-1.674189789e-10
-7.96002906e-11
-1.211685895e-11
4.82269057e-11
1.371886631e-10
1.820255839e-10
1.464167987e-10
2.010507128e-10
4.414754442e-10
-2.447011726e-10
1.292454882e-10
6.660208127e-05
7.614337182e-05
1.97095482e-05
-7.557770097e-06
9.278678977e-06
1.131517488e-05
1.469999047e-05
1.434569522e-05
1.264503149e-05
7.146914727e-06
3.584120209e-06
1.032042638e-06
-1.924186979e-06
-4.774340787e-06
-7.40923015e-06
-9.475034258e-06
-1.162947988e-05
-1.349308115e-05
-1.507834958e-05
-1.762643953e-05
-2.142007441e-05
-1.206472201e-05
1.241428986e-08
7.716672076e-09
4.911532625e-09
3.434402161e-09
3.034714422e-09
3.230869649e-09
3.747256303e-09
4.391177801e-09
5.033626851e-09
5.594478038e-09
6.027685417e-09
6.308787311e-09
6.426772826e-09
6.376872422e-09
6.156765181e-09
5.762673563e-09
5.187327288e-09
4.417703499e-09
3.433813196e-09
2.207041467e-09
6.992765698e-10
-1.138557258e-09
-3.36720283e-09
-6.0610496e-09
-9.309136834e-09
-1.321848325e-08
-1.791705653e-08
-2.355768204e-08
-3.032215477e-08
-3.842389774e-08
-4.810965704e-08
-5.965904649e-08
-7.33845556e-08
-8.963551048e-08
-1.088080897e-07
-1.313599386e-07
-1.578201304e-07
-1.887866953e-07
-2.249116174e-07
-2.668851836e-07
-3.154380015e-07
-3.713629874e-07
-4.355424539e-07
-5.089496667e-07
-5.926142604e-07
-6.87558649e-07
-7.947435515e-07
-9.150492121e-07
-1.049305777e-06
-1.198348818e-06
-1.363044901e-06
-1.544223695e-06
-1.742484835e-06
-1.957888353e-06
-2.189573336e-06
-2.435293356e-06
-2.690854167e-06
-2.949348137e-06
-3.200085419e-06
-3.427043948e-06
-3.606832054e-06
-3.706332696e-06
-3.680459308e-06
-3.470486953e-06
-3.002846423e-06
-2.186645412e-06
-9.080463499e-07
9.717798773e-07
3.577425052e-06
6.858963257e-06
1.039923704e-05
1.348158186e-05
1.69156679e-05
2.492084166e-05
2.587988112e-05
3.596693557e-05
3.136845022e-05
4.934653851e-05
2.823398936e-05
-4.859393674e-06
-2.078095076e-06
4.222041602e-10
1.274500226e-10
-9.333326189e-12
-8.796543312e-11
-1.662940968e-10
-2.000106176e-10
-1.542197832e-10
-6.991762391e-11
-7.254781474e-12
4.991289236e-11
1.283766404e-10
1.60982561e-10
1.156357454e-10
1.973400985e-10
5.522146986e-11
2.755449932e-10
-6.103110813e-10
-1.088652515e-10
-1.941893342e-06
-4.766977628e-06
2.089791989e-05
3.704775551e-05
2.00944422e-05
2.437872254e-05
1.559928516e-05
1.424825322e-05
6.272851804e-06
3.42590106e-06
9.897651093e-07
-2.050961837e-06
-5.008726364e-06
-7.750587555e-06
-9.624955117e-06
-1.161775374e-05
-1.328212681e-05
-1.525001556e-05
-1.726826547e-05
-2.081973928e-05
-1.159309969e-05
1.8629988e-08
1.377317314e-08
1.049790181e-08
8.365471658e-09
7.249622745e-09
6.739385831e-09
6.607965274e-09
6.685904573e-09
6.849490436e-09
7.014476783e-09
7.125178754e-09
7.146761107e-09
7.057291829e-09
6.842658641e-09
6.491628497e-09
5.993497567e-09
5.334784264e-09
4.497852916e-09
3.458780483e-09
2.185826419e-09
6.380762231e-10
-1.235662061e-09
-3.498379477e-09
-6.225506192e-09
-9.507400508e-09
-1.345166409e-08
-1.818757016e-08
-2.386902451e-08
-3.067885455e-08
-3.883053204e-08
-4.856895688e-08
-6.016991029e-08
-7.394129946e-08
-9.022884215e-08
-1.094273741e-07
-1.31993924e-07
-1.584539354e-07
-1.893945336e-07
-2.254489018e-07
-2.672866503e-07
-3.156231911e-07
-3.712454332e-07
-4.350316991e-07
-5.079437099e-07
-5.909827801e-07
-6.851322778e-07
-7.91315818e-07
-9.104020781e-07
-1.043262426e-06
-1.190853722e-06
-1.354260799e-06
-1.534633547e-06
-1.732998091e-06
-1.94999066e-06
-2.185560438e-06
-2.438670704e-06
-2.70693121e-06
-2.986025975e-06
-3.268659662e-06
-3.542817024e-06
-3.789301796e-06
-3.978787751e-06
-4.06899276e-06
-4.002862125e-06
-3.70790354e-06
-3.093148211e-06
-2.030468207e-06
-3.084726346e-07
2.398003133e-06
6.290349341e-06
1.085450297e-05
1.386948935e-05
1.66268535e-05
2.436761102e-05
2.835483294e-05
4.819988168e-05
3.184071082e-05
2.794069414e-06
-9.623346158e-11
1.313974504e-10
2.047087846e-10
2.472372003e-10
1.290478767e-10
4.107122476e-11
-4.440866646e-11
-1.329178526e-10
-1.724496395e-10
-1.346358456e-10
-6.132718664e-11
-2.032549184e-12
5.072976786e-11
1.117705328e-10
1.351256475e-10
1.037382028e-10
1.389777529e-10
2.050942683e-10
-1.984477346e-10
-1.383452027e-10
-8.986907919e-11
2.192984164e-11
-9.571183685e-11
-5.953272161e-11
2.363147097e-06
2.231555587e-05
3.381392656e-05
1.740736967e-05
1.260113349e-05
4.809766013e-06
3.768739803e-06
1.620057743e-06
-2.115451242e-06
-5.717278764e-06
-8.316517219e-06
-1.019871943e-05
-1.193295328e-05
-1.323596623e-05
-1.4685804e-05
-1.644748018e-05
-1.962237408e-05
-1.059146169e-05
2.325270777e-08
1.834393431e-08
1.479537058e-08
1.224190382e-08
1.064017521e-08
9.62581888e-09
9.011796657e-09
8.65135142e-09
8.431786784e-09
8.270250115e-09
8.108265272e-09
7.905171945e-09
7.632369894e-09
7.268747431e-09
6.797045269e-09
6.200402593e-09
5.46082004e-09
4.556458953e-09
3.46004279e-09
2.136966955e-09
5.436856126e-10
-1.373611586e-09
-3.679504525e-09
-6.45096452e-09
-9.779154938e-09
-1.377264458e-08
-1.856130377e-08
-2.430001928e-08
-3.117142937e-08
-3.938775984e-08
-4.91902386e-08
-6.084963054e-08
-7.46680083e-08
-9.098531878e-08
-1.10191264e-07
-1.327356506e-07
-1.591312017e-07
-1.899443207e-07
-2.25781284e-07
-2.672843277e-07
-3.151457641e-07
-3.701316717e-07
-4.330944935e-07
-5.049551692e-07
-5.8665908e-07
-6.791265228e-07
-7.832294284e-07
-8.998207173e-07
-1.029819995e-06
-1.17431885e-06
-1.334634588e-06
-1.512249998e-06
-1.708655272e-06
-1.925161289e-06
-2.16277224e-06
-2.422129102e-06
-2.703439309e-06
-3.006133723e-06
-3.327896005e-06
-3.662802289e-06
-3.998467368e-06
-4.312305396e-06
-4.567293995e-06
-4.709040686e-06
-4.667651168e-06
-4.364018766e-06
-3.692806753e-06
-2.42752693e-06
1.092216215e-07
4.804527834e-06
1.150454115e-05
1.388806228e-05
2.686108563e-05
3.632823604e-05
2.800147105e-05
9.338224841e-07
3.363158397e-10
2.149133227e-10
4.814994826e-11
6.013455322e-11
2.277893532e-10
1.924306054e-10
1.344411175e-10
7.358606124e-11
-1.245920392e-11
-1.034575523e-10
-1.456398841e-10
-1.151466339e-10
-4.924006032e-11
2.798547795e-13
4.204364255e-11
9.747801692e-11
1.168291125e-10
5.769378242e-11
6.923730973e-11
1.008417073e-10
2.293819055e-11
-2.083904109e-10
-1.978309147e-10
-1.519984454e-10
-9.316300266e-11
-3.133195894e-10
-2.210383332e-10
-5.237898408e-11
3.543886589e-07
1.899095052e-05
2.247669436e-05
1.670796364e-05
5.068345722e-06
3.799350949e-06
-2.338774258e-06
-6.969121728e-06
-9.282344256e-06
-1.11053925e-05
-1.226086801e-05
-1.296657055e-05
-1.386931741e-05
-1.52786029e-05
-1.790863794e-05
-9.130525792e-06
2.662875049e-08
2.173852672e-08
1.804470997e-08
1.523015891e-08
1.3307238e-08
1.19420454e-08
1.097703261e-08
1.02864564e-08
9.768582901e-09
9.345832939e-09
8.959972235e-09
8.56810549e-09
8.137851631e-09
7.643481191e-09
7.063039469e-09
6.375667591e-09
5.559233137e-09
4.58894424e-09
3.434401068e-09
2.058260263e-09
4.141912938e-10
-1.553718702e-09
-3.912039287e-09
-6.738701622e-09
-1.012603065e-08
-1.418308495e-08
-1.90406728e-08
-2.485371169e-08
-3.180437744e-08
-4.010192481e-08
-4.998339083e-08
-6.171300386e-08
-7.558547353e-08
-9.193308275e-08
-1.111359139e-07
-1.336303501e-07
-1.599084826e-07
-1.90507924e-07
-2.260013254e-07
-2.669966241e-07
-3.141525146e-07
-3.681976729e-07
-4.299334518e-07
-5.002117987e-07
-5.798940359e-07
-6.698133102e-07
-7.707712797e-07
-8.835917379e-07
-1.009231166e-06
-1.148897373e-06
-1.304099223e-06
-1.476595576e-06
-1.668285438e-06
-1.881155052e-06
-2.117375114e-06
-2.379567814e-06
-2.671091742e-06
-2.995991413e-06
-3.358279978e-06
-3.760326508e-06
-4.200127695e-06
-4.666561577e-06
-5.131897603e-06
-5.543301906e-06
-5.823840418e-06
-5.897760674e-06
-5.750917229e-06
-5.299984051e-06
-3.522555296e-06
1.684077295e-06
1.161320601e-05
1.648717838e-05
2.984297899e-05
7.056881598e-06
1.154616343e-11
1.193688201e-10
1.729941586e-10
1.874786835e-10
1.245283988e-10
1.412798807e-10
1.488828615e-10
1.583702844e-10
1.422971607e-10
9.626538732e-11
1.597343295e-11
-7.018860571e-11
-1.140791472e-10
-9.390964218e-11
-4.237802184e-11
1.66651064e-12
3.950655013e-11