/*--------------------------------*- C++ -*----------------------------------*\
  =========                 |
  \\      /  F ield         | OpenFOAM: The Open Source CFD Toolbox
   \\    /   O peration     | Website:  https://openfoam.org
    \\  /    A nd           | Version:  6
     \\/     M anipulation  |
\*---------------------------------------------------------------------------*/
FoamFile
{
    version     2.0;
    format      ascii;
    class       surfaceScalarField;
    location    "0.0003";
    object      phi;
}
// * * * * * * * * * * * * * * * * * * * * * * * * * * * * * * * * * * * * * //

dimensions      [0 3 -1 0 0 0 0];

internalField   nonuniform List<scalar> 
19000
(
8.401195417e-20
-7.346801676e-24
8.54303184e-20
-2.855187551e-23
8.658891174e-20
-6.014093912e-23
8.758260616e-20
-9.036390623e-23
8.839319147e-20
-1.198377473e-22
8.906154787e-20
-1.483870352e-22
8.962616353e-20
-1.763125882e-22
9.012087603e-20
-2.033043776e-22
9.057332563e-20
-2.29598941e-22
9.10050529e-20
-2.548242998e-22
9.143157209e-20
-2.791764441e-22
9.186360569e-20
-3.022354222e-22
9.230774908e-20
-3.241671294e-22
9.276783209e-20
-3.445120671e-22
9.324537175e-20
-3.634198084e-22
9.374057587e-20
-3.804031586e-22
9.425241496e-20
-3.955978749e-22
9.477931812e-20
-4.084799984e-22
9.531900221e-20
-4.191546992e-22
9.586900077e-20
-4.27040277e-22
9.642632131e-20
-4.322000535e-22
9.698783192e-20
-4.340015912e-22
9.754979514e-20
-4.324897986e-22
9.810822083e-20
-4.270027345e-22
9.865844206e-20
-4.175681108e-22
9.919558418e-20
-4.034660755e-22
9.971422468e-20
-3.846623011e-22
1.0020889e-19
-3.603395874e-22
1.006736153e-19
-3.304004795e-22
1.011023099e-19
-2.939766933e-22
1.014881972e-19
-2.509801594e-22
1.018241894e-19
-2.005559409e-22
1.021024336e-19
-1.426503226e-22
1.023148603e-19
-7.639563725e-23
1.024528302e-19
-1.728757643e-24
1.025076996e-19
8.224692556e-23
1.024703457e-19
1.755530043e-22
1.023316085e-19
2.789924354e-22
1.020817312e-19
3.923785185e-22
1.017108557e-19
5.162672421e-22
1.012085996e-19
6.501707981e-22
1.005647544e-19
7.943807426e-22
9.976902335e-20
9.481400684e-22
9.881184561e-20
1.11151561e-21
9.768416777e-20
1.283473775e-21
9.637827827e-20
1.463771387e-21
9.488752185e-20
1.650935272e-21
9.320708307e-20
1.844201351e-21
9.133360168e-20
2.041438731e-21
8.926591177e-20
2.241192546e-21
8.700464151e-20
2.440588089e-21
8.455306412e-20
2.637499393e-21
8.191684893e-20
2.82841966e-21
7.910510472e-20
3.010728501e-21
7.613016172e-20
3.180477203e-21
7.300847772e-20
3.334714707e-21
6.976002528e-20
3.469169336e-21
6.640876371e-20
3.580659512e-21
6.298164679e-20
3.66473192e-21
5.950902749e-20
3.718237113e-21
5.602377961e-20
3.736968288e-21
5.256193915e-20
3.718387244e-21
4.916179381e-20
3.65918045e-21
4.586420866e-20
3.558017632e-21
4.271104058e-20
3.412932797e-21
3.974485623e-20
3.224091581e-21
3.700697165e-20
2.991049881e-21
3.453735472e-20
2.715611425e-21
3.237313136e-20
2.399019114e-21
3.054910393e-20
2.044868588e-21
2.909651199e-20
1.656134329e-21
2.804350802e-20
1.238002236e-21
2.741354237e-20
7.946638814e-22
2.722564443e-20
3.320855568e-22
2.749291597e-20
-1.452898516e-22
2.822350338e-20
-6.316688894e-22
2.942001394e-20
-1.123149458e-21
3.108148792e-20
-1.614719984e-21
3.320340663e-20
-2.103497782e-21
3.57798722e-20
-2.585731966e-21
3.880332461e-20
-3.060099207e-21
4.226629003e-20
-3.524691956e-21
4.61606011e-20
-3.980196541e-21
5.047889054e-20
-4.426668519e-21
5.521369324e-20
-4.866404502e-21
6.035900313e-20
-5.300478647e-21
6.590934266e-20
-5.731414003e-21
7.186110354e-20
-6.159745953e-21
7.821102347e-20
-6.586751083e-21
8.49566943e-20
-7.011268129e-21
9.20941168e-20
-7.432552397e-21
9.961753661e-20
-7.847352586e-21
1.075167793e-19
-8.252796151e-21
1.157773721e-19
-8.643684744e-21
1.243785343e-19
-9.015398001e-21
1.332941087e-19
-9.361462244e-21
1.42491384e-19
-9.676492088e-21
1.519328368e-19
-9.954020263e-21
1.615757853e-19
-1.018933294e-20
1.713748492e-19
-1.037739205e-20
1.812819234e-19
-1.0515332e-20
1.9124792e-19
-1.060035407e-20
2.012209288e-19
-1.063179951e-20
2.111449964e-19
-1.060908152e-20
2.209550385e-19
-1.053344457e-20
2.305719013e-19
-1.040600742e-20
2.3989173e-19
-1.022919504e-20
2.487701153e-19
-1.000471177e-20
2.569917231e-19
-9.734380728e-21
2.642249432e-19
-9.41794635e-21
2.699553699e-19
-9.053268294e-21
2.73401807e-19
-8.633736647e-21
2.734159376e-19
-8.147042864e-21
2.683771377e-19
-7.572155923e-21
2.56102149e-19
-6.876389916e-21
2.337856238e-19
-6.013937523e-21
1.979326181e-19
-4.92147576e-21
1.429614893e-19
-3.528579707e-21
5.939340386e-20
-1.770411884e-21
1.7184122e-34
8.357164543e-20
-2.216143593e-23
8.49718728e-20
-7.086448538e-23
8.613510243e-20
-1.259082232e-22
8.712591829e-20
-1.833315211e-22
8.793448688e-20
-2.405583686e-22
8.860053783e-20
-2.971336938e-22
8.916329163e-20
-3.523671947e-22
8.965605844e-20
-4.063847904e-22
9.010717825e-20
-4.586464135e-22
9.053755598e-20
-5.093033131e-22
9.096334765e-20
-5.577748985e-22
9.139458297e-20
-6.041685401e-22
9.183850011e-20
-6.478386593e-22
9.229822115e-20
-6.88852775e-22
9.277593889e-20
-7.265124464e-22
9.32711615e-20
-7.608574455e-22
9.37835823e-20
-7.911373123e-22
9.431094211e-20
-8.173432239e-22
9.485172402e-20
-8.386330157e-22
9.540276534e-20
-8.549100899e-22
9.596185676e-20
-8.652242662e-22
9.652513991e-20
-8.694100543e-22
9.708967742e-20
-8.664524843e-22
9.765074375e-20
-8.561558313e-22
9.820452147e-20
-8.374325672e-22
9.874540958e-20
-8.099962378e-22
9.926887745e-20
-7.725964382e-22
9.976869032e-20
-7.247920473e-22
1.002397633e-19
-6.651798692e-22
1.006751788e-19
-5.932576818e-22
1.010690365e-19
-5.076085131e-22
1.014133999e-19
-4.077824999e-22
1.01701346e-19
-2.923770755e-22
1.019239544e-19
-1.609428158e-22
1.020735372e-19
-1.201432806e-23
1.021405191e-19
1.54867739e-22
1.021166652e-19
3.411108869e-22
1.019917497e-19
5.469308961e-22
1.017568525e-19
7.733662573e-22
1.014009836e-19
1.020114356e-21
1.009146335e-19
1.287686256e-21
1.002864542e-19
1.575234806e-21
9.950706744e-20
1.882801245e-21
9.856570907e-20
2.20903911e-21
9.745419394e-20
2.553468068e-21
9.616344386e-20
2.914044462e-21
9.468755602e-20
3.289430523e-21
9.30201695e-20
3.676467139e-21
9.115861323e-20
4.072551485e-21
8.910009578e-20
4.473095584e-21
8.68459994e-20
4.874084814e-21
8.439800525e-20
5.269542857e-21
8.176268145e-20
5.65425572e-21
7.894759593e-20
6.021174626e-21
7.596609085e-20
6.364222941e-21
7.28330798e-20
6.675561813e-21
6.956963716e-20
6.948466409e-21
6.619822294e-20
7.174512107e-21
6.274712633e-20
7.346650979e-21
5.924544399e-20
7.45645653e-21
5.572780285e-20
7.497472419e-21
5.222931453e-20
7.462460035e-21
4.87903904e-20
7.346840093e-21
4.545114627e-20
7.145722387e-21
4.225574413e-20
6.8572801e-21
3.924604312e-20
6.479547064e-21
3.646580344e-20
6.013835954e-21
3.395434686e-20
5.46145947e-21
3.175136466e-20
4.827254495e-21
2.989094475e-20
4.11614899e-21
2.840672702e-20
3.336561253e-21
2.732571746e-20
2.496587633e-21
2.667325809e-20
1.607145753e-21
2.646661599e-20
6.778809324e-22
2.672028873e-20
-2.796926017e-22
2.744023208e-20
-1.256230538e-21
2.863017289e-20
-2.241201399e-21
3.028669528e-20
-3.226817693e-21
3.24061383e-20
-4.204629473e-21
3.49798229e-20
-5.16952682e-21
3.800074117e-20
-6.116394527e-21
4.145846439e-20
-7.04403472e-21
4.534545259e-20
-7.951563445e-21
4.965181241e-20
-8.841816208e-21
5.437142393e-20
-9.717208129e-21
5.949671164e-20
-1.058257697e-20
6.502448218e-20
-1.14408129e-20
7.09504274e-20
-1.229561125e-20
7.727414018e-20
-1.314741333e-20
8.399291704e-20
-1.399642143e-20
9.110571393e-20
-1.483901822e-20
9.860652569e-20
-1.567097911e-20
1.064879275e-19
-1.648429102e-20
1.147349627e-19
-1.727048344e-20
1.23329065e-19
-1.801791205e-20
1.322430084e-19
-1.871530007e-20
1.414454184e-19
-1.934953668e-20
1.508969348e-19
-1.990928077e-20
1.605553434e-19
-2.038301024e-20
1.70372938e-19
-2.076224299e-20
1.803016408e-19
-2.103945967e-20
1.902900887e-19
-2.121065299e-20
2.00286452e-19
-2.127305836e-20
2.102329755e-19
-2.122712672e-20
2.200651229e-19
-2.10742492e-20
2.297029275e-19
-2.081826822e-20
2.390443223e-19
-2.046315198e-20
2.479461178e-19
-2.001377203e-20
2.561970576e-19
-1.947317191e-20
2.634696474e-19
-1.884230441e-20
2.692563764e-19
-1.811670997e-20
2.727835075e-19
-1.728463287e-20
2.729117509e-19
-1.632222391e-20
2.680301743e-19
-1.518918754e-20
2.559631641e-19
-1.382334134e-20
2.339147302e-19
-1.213612752e-20
1.983781934e-19
-1.001533207e-20
1.438274139e-19
-7.333068343e-21
6.001598625e-20
-4.022256762e-21
1.853031877e-34
8.318705337e-20
-3.687523109e-23
8.457933312e-20
-1.135010168e-22
8.573746069e-20
-1.949960931e-22
8.672563105e-20
-2.788150913e-22
8.753209623e-20
-3.632580476e-22
8.819692212e-20
-4.469911222e-22
8.875849782e-20
-5.294921956e-22
8.925085213e-20
-6.100997334e-22
8.970158737e-20
-6.886067247e-22
9.013236063e-20
-7.644637484e-22
9.055855448e-20
-8.374831215e-22
9.099095411e-20
-9.070786957e-22
9.143599863e-20
-9.730136546e-22
9.189759388e-20
-1.034637888e-21
9.237712739e-20
-1.091667356e-21
9.287493733e-20
-1.143395191e-21
9.338992438e-20
-1.189476209e-21
9.392071689e-20
-1.22910597e-21
9.446501015e-20
-1.261822892e-21
9.502055837e-20
-1.28667445e-21
9.558433049e-20
-1.303065135e-21
9.615338831e-20
-1.309926336e-21
9.672394102e-20
-1.306585287e-21
9.729222973e-20
-1.291892518e-21
9.78536015e-20
-1.265076029e-21
9.840349702e-20
-1.224812836e-21
9.893654248e-20
-1.17011259e-21
9.944754796e-20
-1.099407339e-21
9.993049606e-20
-1.011522198e-21
1.003794708e-19
-9.047812342e-22
1.00787572e-19
-7.78005268e-22
1.011479025e-19
-6.295414471e-22
1.014525486e-19
-4.582256113e-22
1.016936927e-19
-2.623540345e-22
1.018626004e-19
-4.070254038e-23
1.019507324e-19
2.084528645e-22
1.019486171e-19
4.861880436e-22
1.01846936e-19
7.938821466e-22
1.016353724e-19
1.132041895e-21
1.01303828e-19
1.501356629e-21
1.008413695e-19
1.901577408e-21
1.002376128e-19
2.332673407e-21
9.948172052e-20
2.793683648e-21
9.856386751e-20
3.283854238e-21
9.747422264e-20
3.801356842e-21
9.620447391e-20
4.344363252e-21
9.474679142e-20
4.909658688e-21
9.309541077e-20
5.493747911e-21
9.124554559e-20
6.091475308e-21
8.919500328e-20
6.697272742e-21
8.694305982e-20
7.303858323e-21
8.449218033e-20
7.903647724e-21
8.184694667e-20
8.487491905e-21
7.901592193e-20
9.046169749e-21
7.601053e-20
9.569061055e-21
7.284682342e-20
1.00456525e-20
6.954401667e-20
1.046414966e-20
6.612597334e-20
1.081310324e-20
6.261943984e-20
1.108013933e-20
5.90555146e-20
1.125387667e-20
5.546788178e-20
1.132282929e-20
5.189436203e-20
1.127749637e-20
4.837491489e-20
1.110917363e-20
4.495279858e-20
1.081192177e-20
4.167191496e-20
1.038111029e-20
3.857749782e-20
9.81527733e-21
3.571318615e-20
9.114572737e-21
3.312191671e-20
8.282686178e-21
3.084333645e-20
7.325229756e-21
2.891510468e-20
6.251557099e-21
2.737039121e-20
5.072768151e-21
2.623909531e-20
3.803110378e-21
2.554512102e-20
2.457500664e-21
2.530765471e-20
1.052665008e-21
2.553882938e-20
-3.95433207e-22
2.624581275e-20
-1.870305021e-21
2.742937639e-20
-3.357338624e-21
2.908679194e-20
-4.842372777e-21
3.121086342e-20
-6.314122824e-21
3.379296837e-20
-7.762838385e-21
3.68220153e-20
-9.182752741e-21
4.028733582e-20
-1.05705324e-20
4.417752587e-20
-1.192719174e-20
4.848320636e-20
-1.325577656e-20
5.319572376e-20
-1.456239005e-20
5.830958867e-20
-1.585319081e-20
6.382075309e-20
-1.713499485e-20
6.972836083e-20
-1.841230601e-20
7.603225124e-20
-1.96881863e-20
8.273376612e-20
-2.096180434e-20
8.983248906e-20
-2.222975193e-20
9.732641679e-20
-2.348411796e-20
1.052085914e-19
-2.471418688e-20
1.134674294e-19
-2.590509327e-20
1.220840143e-19
-2.704004261e-20
1.310331557e-19
-2.809968891e-20
1.402817409e-19
-2.906483919e-20
1.497907846e-19
-2.991626844e-20
1.595150548e-19
-3.063733823e-20
1.694060463e-19
-3.121359215e-20
1.794121793e-19
-3.163468882e-20
1.894809977e-19
-3.189343962e-20
1.995574973e-19
-3.198697278e-20
2.095831887e-19
-3.191536348e-20
2.194912419e-19
-3.16822614e-20
2.292019069e-19
-3.129325961e-20
2.386125033e-19
-3.0755918e-20
2.475819675e-19
-3.007759768e-20
2.559009879e-19
-2.926446519e-20
2.632464724e-19
-2.83184008e-20
2.691152408e-19
-2.723450123e-20
2.72739401e-19
-2.599620207e-20
2.729846896e-19
-2.456985436e-20
2.682435241e-19
-2.289717181e-20
2.563393041e-19
-2.088727022e-20
2.344618911e-19
-1.841136507e-20
1.990724447e-19
-1.529765154e-20
1.445512089e-19
-1.134885913e-20
6.03465599e-20
-6.336776371e-21
3.19856138e-34
8.286897331e-20
-5.15654223e-23
8.425517022e-20
-1.56863229e-22
8.540888672e-20
-2.655085978e-22
8.639410609e-20
-3.763444573e-22
8.719903819e-20
-4.877981098e-22
8.786306398e-20
-5.987870396e-22
8.842470474e-20
-7.082866464e-22
8.891753428e-20
-8.157173889e-22
8.936946693e-20
-9.203691249e-22
8.980177225e-20
-1.021825852e-21
9.023018345e-20
-1.119430083e-21
9.066510715e-20
-1.212757002e-21
9.1113356e-20
-1.301102048e-21
9.157845675e-20
-1.383988643e-21
9.206219759e-20
-1.460646875e-21
9.256455805e-20
-1.530534992e-21
9.308488784e-20
-1.592790836e-21
9.362148407e-20
-1.646750394e-21
9.41725284e-20
-1.691384721e-21
9.473543586e-20
-1.725852524e-21
9.530764985e-20
-1.74894819e-21
9.588586028e-20
-1.759690945e-21
9.646675793e-20
-1.756757384e-21
9.704623105e-20
-1.739050951e-21
9.762018034e-20
-1.705078388e-21
9.818373697e-20
-1.653511032e-21
9.873210761e-20
-1.582557761e-21
9.925973711e-20
-1.490599878e-21
9.976111801e-20
-1.375610771e-21
1.002298706e-19
-1.235848416e-21
1.006595772e-19
-1.069240318e-21
1.010428813e-19
-8.740392178e-22
1.013724113e-19
-6.481299381e-22
1.016398948e-19
-3.896879524e-22
1.018370988e-19
-9.651546402e-23
1.019548646e-19
2.331825571e-22
1.019840281e-19
6.01382922e-22
1.019144278e-19
1.009400126e-21
1.017359289e-19
1.458520886e-21
1.014375155e-19
1.949217573e-21
1.010084625e-19
2.481898114e-21
1.004374704e-19
3.056144667e-21
9.971389541e-20
3.671467739e-21
9.882685256e-20
4.326432917e-21
9.77664956e-20
5.019327559e-21
9.652313592e-20
5.747161676e-21
9.508863807e-20
6.506310983e-21
9.345557604e-20
7.291503305e-21
9.161871317e-20
8.096561737e-21
8.957413163e-20
8.913475424e-21
8.732075905e-20
9.733300404e-21
8.485947946e-20
1.054531275e-20
8.219475214e-20
1.133802198e-20
7.933372437e-20
1.209832831e-20
7.628787686e-20
1.281256501e-20
7.307196797e-20
1.346561666e-20
6.970550935e-20
1.404203963e-20
6.621142505e-20
1.452528621e-20
6.261739548e-20
1.489910626e-20
5.895438425e-20
1.514703503e-20
5.525798554e-20
1.525408309e-20
5.156677938e-20
1.520629761e-20
4.792341877e-20
1.499241464e-20
4.437244768e-20
1.460318057e-20
4.096087766e-20
1.403280886e-20
3.773553517e-20
1.327811781e-20
3.474352715e-20
1.233997664e-20
3.202967007e-20
1.122240952e-20
2.963725413e-20
9.933988985e-21
2.760562715e-20
8.486633792e-21
2.597100778e-20
6.896550195e-21
2.476392257e-20
5.182410013e-21
2.401000442e-20
3.365769434e-21
2.372764796e-20
1.468885871e-21
2.392943288e-20
-4.849335979e-22
2.462061779e-20
-2.473432173e-21
2.580144921e-20
-4.47490996e-21
2.74663159e-20
-6.470298188e-21
2.960646222e-20
-8.442745506e-21
3.220934105e-20
-1.037978778e-20
3.526146423e-20
-1.227284159e-20
3.874791645e-20
-1.411892127e-20
4.265531032e-20
-1.5919298e-20
4.697129231e-20
-1.768008697e-20
5.168716715e-20
-1.9409783e-20
5.679683555e-20
-2.111892403e-20
6.229854738e-20
-2.281717616e-20
6.819291793e-20
-2.451293882e-20
7.448365298e-20
-2.621079047e-20
8.117468154e-20
-2.791158913e-20
8.827003975e-20
-2.961055591e-20
9.577051712e-20
-3.129798682e-20
1.036732479e-19
-3.295813012e-20
1.11968588e-19
-3.457072825e-20
1.20640174e-19
-3.611095975e-20
1.296627545e-19
-3.755193744e-20
1.390033424e-19
-3.886551328e-20
1.486205355e-19
-4.002512429e-20
1.584670622e-19
-4.100659039e-20
1.68490487e-19
-4.17903405e-20
1.786362141e-19
-4.236145108e-20
1.888476299e-19
-4.271084648e-20
1.990668952e-19
-4.283450932e-20
2.092320768e-19
-4.273384216e-20
2.192744585e-19
-4.241431364e-20
2.291123025e-19
-4.188513366e-20
2.386427886e-19
-4.115733029e-20
2.477250959e-19
-4.024251631e-20
2.561519433e-19
-3.915002296e-20
2.636024432e-19
-3.788423946e-20
2.695764626e-19
-3.644003574e-20
2.733083127e-19
-3.479731645e-20
2.736644223e-19
-3.291292531e-20
2.690341221e-19
-3.071082594e-20
2.572288791e-19
-2.807119691e-20
2.354176474e-19
-2.481878401e-20
2.000088385e-19
-2.071981759e-20
1.453238928e-19
-1.546850044e-20
6.0671885e-20
-8.719940595e-21
4.131689662e-34
8.25974508e-20
-6.615088403e-23
8.397917824e-20
-2.002027387e-22
8.512905974e-20
-3.369038865e-22
8.611184146e-20
-4.753136336e-22
8.691552389e-20
-6.143179958e-22
8.757949205e-20
-7.527154673e-22
8.81418507e-20
-8.895535726e-22
8.863628003e-20
-1.023925637e-21
8.909038332e-20
-1.155126732e-21
8.952562407e-20
-1.282401874e-21
8.995747971e-20
-1.405115747e-21
9.039659272e-20
-1.522515841e-21
9.084953676e-20
-1.633931919e-21
9.132010304e-20
-1.738555786e-21
9.180985593e-20
-1.83565221e-21
9.231907812e-20
-1.924323745e-21
9.284693366e-20
-2.003718097e-21
9.339207142e-20
-2.072776753e-21
9.395250198e-20
-2.130451328e-21
9.452599606e-20
-2.175468952e-21
9.510979485e-20
-2.206581425e-21
9.570092718e-20
-2.2223395e-21
9.629588276e-20
-2.22133782e-21
9.689094089e-20
-2.201949403e-21
9.748185985e-20
-2.162533873e-21
9.806422389e-20
-2.101154251e-21
9.86330902e-20
-2.015821464e-21
9.918330684e-20
-1.904258556e-21
9.970911232e-20
-1.76421559e-21
1.002044571e-19
-1.593248335e-21
1.00662629e-19
-1.389012867e-21
1.010766329e-19
-1.148982234e-21
1.014388297e-19
-8.707081718e-22
1.017413082e-19
-5.515368853e-22
1.019754572e-19
-1.889505825e-22
1.021322927e-19
2.196233114e-22
1.022020199e-19
6.763840907e-22
1.021744437e-19
1.183335151e-21
1.02038643e-19
1.741893467e-21
1.017835226e-19
2.353163085e-21
1.013975505e-19
3.017601826e-21
1.008693345e-19
3.73531528e-21
1.001873053e-19
4.505650593e-21
9.93402803e-20
5.327392176e-21
9.831715933e-20
6.198229907e-21
9.710760018e-20
7.114888453e-21
9.570184034e-20
8.072567624e-21
9.409152446e-20
9.065127624e-21
9.22695986e-20
1.008460075e-20
9.023118236e-20
1.112149353e-20
8.797343899e-20
1.216439157e-20
8.549645391e-20
1.320036318e-20
8.280309163e-20
1.421462043e-20
7.989990068e-20
1.519098245e-20
7.679693244e-20
1.611155689e-20
7.350859062e-20
1.695727677e-20
7.005330812e-20
1.770769378e-20
6.64542758e-20
1.834175488e-20
6.273896982e-20
1.883789635e-20
5.893977092e-20
1.917516911e-20
5.509329209e-20
1.933357095e-20
5.124072157e-20
1.929527501e-20
4.74266975e-20
1.904485868e-20
4.369915104e-20
1.857034865e-20
4.010767552e-20
1.786323727e-20
3.670305724e-20
1.691942218e-20
3.353550898e-20
1.57391633e-20
3.065426555e-20
1.432797517e-20
2.810588071e-20
1.269636641e-20
2.593384317e-20
1.086031882e-20
2.417676479e-20
8.840381267e-21
2.286794205e-20
6.661449048e-21
2.203367689e-20
4.351229644e-21
2.169333089e-20
1.939644259e-21
2.18584207e-20
-5.428534646e-22
2.253357852e-20
-3.065866209e-21
2.371643325e-20
-5.600742648e-21
2.539914073e-20
-8.12127483e-21
2.756865638e-20
-1.060556365e-20
3.020863911e-20
-1.303676929e-20
3.330019337e-20
-1.540469192e-20
3.682429112e-20
-1.770575864e-20
4.076289738e-20
-1.994338058e-20
4.51013769e-20
-2.212647583e-20
4.982910347e-20
-2.426838338e-20
5.494084773e-20
-2.638428834e-20
6.043613455e-20
-2.848949482e-20
6.631930525e-20
-3.059672136e-20
7.259771123e-20
-3.271461732e-20
7.928074869e-20
-3.484560816e-20
8.637724137e-20
-3.698513753e-20
9.389382342e-20
-3.912048437e-20
1.018319999e-19
-4.123119295e-20
1.101865495e-19
-4.328934679e-20
1.18943157e-19
-4.526154222e-20
1.280778471e-19
-4.711064289e-20
1.375561952e-19
-4.879877888e-20
1.473345802e-19
-5.028958094e-20
1.573613657e-19
-5.155091579e-20
1.675796834e-19
-5.255633843e-20
1.779293352e-19
-5.328663486e-20
1.88348827e-19
-5.373001847e-20
1.987750737e-19
-5.388241216e-20
2.091421431e-19
-5.374658541e-20
2.193775364e-19
-5.333145071e-20
2.293973398e-19
-5.265036197e-20
2.390972212e-19
-5.171952204e-20
2.483365135e-19
-5.055539395e-20
2.569086109e-19
-4.917192703e-20
2.644940992e-19
-4.757648523e-20
2.705936613e-19
-4.57647515e-20
2.744412482e-19
-4.371327214e-20
2.748999256e-19
-4.136951487e-20
2.703502003e-19
-3.863903969e-20
2.585881518e-19
-3.537003389e-20
2.36751546e-19
-3.133985665e-20
2.012173784e-19
-2.62376219e-20
1.462306061e-19
-1.967054769e-20
6.105084459e-20
-1.112784659e-20
5.168082953e-34
8.23539661e-20
-8.064880339e-23
8.373190098e-20
-2.436677268e-22
8.487874681e-20
-4.089675935e-22
8.585954958e-20
-5.756984053e-22
8.666255182e-20
-7.427925264e-22
8.732694584e-20
-9.091616199e-22
8.789079842e-20
-1.073722009e-21
8.838757672e-20
-1.235533906e-21
8.884490203e-20
-1.393679755e-21
8.928409094e-20
-1.54734186e-21
8.972070365e-20
-1.695661164e-21
9.016528019e-20
-1.83782794e-21
9.062450996e-20
-1.972952225e-21
9.110210477e-20
-2.100166619e-21
9.159978068e-20
-2.218501803e-21
9.21177771e-20
-2.326982797e-21
9.265545824e-20
-2.424490106e-21
9.321146726e-20
-2.509858667e-21
9.37840356e-20
-2.581740149e-21
9.437091785e-20
-2.638728728e-21
9.496955781e-20
-2.679248558e-21
9.557695349e-20
-2.701685878e-21
9.618981866e-20
-2.704251055e-21
9.680445627e-20
-2.685083021e-21
9.741691857e-20
-2.642078363e-21
9.802284907e-20
-2.573000408e-21
9.861759103e-20
-2.475344743e-21
9.919597813e-20
-2.346506404e-21
9.975244812e-20
-2.183683586e-21
1.002808674e-19
-1.984050238e-21
1.007747094e-19
-1.744625631e-21
1.012269097e-19
-1.46240881e-21
1.016300294e-19
-1.134227701e-21
1.019760274e-19
-7.569204056e-22
1.022563444e-19
-3.272625257e-22
1.024616361e-19
1.57761251e-22
1.025819151e-19
7.009830438e-22
1.02606414e-19
1.304791494e-21
1.025238968e-19
1.971225703e-21
1.023226271e-19
2.70177516e-21
1.019907103e-19
3.497505243e-21
1.015159983e-19
4.358806356e-21
1.008863506e-19
5.285420389e-21
1.000894985e-19
6.276060812e-21
9.911337382e-20
7.328351951e-21
9.794612066e-20
8.438408592e-21
9.657663353e-20
9.600807348e-21
9.499474051e-20
1.080822641e-20
9.319185946e-20
1.205149907e-20
9.116120327e-20
1.331931577e-20
8.889841962e-20
1.459834461e-20
8.640175549e-20
1.587298246e-20
8.367268576e-20
1.712554621e-20
8.071607015e-20
1.833609587e-20
7.75407956e-20
1.948273123e-20
7.415991651e-20
2.054155641e-20
7.059127771e-20
2.148720654e-20
6.685758716e-20
2.229311318e-20
6.298693228e-20
2.293240524e-20
5.901263635e-20
2.337851721e-20
5.497344758e-20
2.360634113e-20
5.09129242e-20
2.35929096e-20
4.687909446e-20
2.33184882e-20
4.29233099e-20
2.276710759e-20
3.909949545e-20
2.192753134e-20
3.546272787e-20
2.079369698e-20
3.20683588e-20
1.936561838e-20
2.897049668e-20
1.764965249e-20
2.622101412e-20
1.565904872e-20
2.386783359e-20
1.341360391e-20
2.195377682e-20
1.093943666e-20
2.051486271e-20
8.267820597e-21
1.957951944e-20
5.434278915e-21
1.916759091e-20
2.476966426e-21
1.929047743e-20
-5.644719376e-22
1.99510429e-20
-3.650680376e-21
2.114446294e-20
-6.743950719e-21
2.285865108e-20
-9.810306374e-21
2.507561966e-20
-1.282112421e-20
2.777259752e-20
-1.575519952e-20
3.092430428e-20
-1.859983998e-20
3.450501519e-20
-2.13517997e-20
3.84914396e-20
-2.401675196e-20
4.286474377e-20
-2.660835531e-20
4.76125825e-20
-2.914594837e-20
5.272966745e-20
-3.165217304e-20
5.821805365e-20
-3.414973474e-20
6.408603022e-20
-3.665860486e-20
7.034695132e-20
-3.919287149e-20
7.701692956e-20
-4.175848433e-20
8.411262914e-20
-4.435110421e-20
9.164810665e-20
-4.695529609e-20
9.963202696e-20
-4.954428196e-20
1.080644514e-19
-5.208132082e-20
1.169346848e-19
-5.452173746e-20
1.262195145e-19
-5.681626505e-20
1.358831499e-19
-5.891441985e-20
1.458779813e-19
-6.07682933e-20
1.561469712e-19
-6.233552114e-20
1.666263486e-19
-6.358191589e-20
1.772487899e-19
-6.448287381e-20
1.879453638e-19
-6.502426145e-20
1.986463242e-19
-6.520213072e-20
2.092796643e-19
-6.502203102e-20
2.197682593e-19
-6.449735959e-20
2.30024719e-19
-6.364745855e-20
2.399429237e-19
-6.249494433e-20
2.493815237e-19
-6.106279651e-20
2.581342786e-19
-5.937055071e-20
2.658821111e-19
-5.742967435e-20
2.721252874e-19
-5.523707729e-20
2.76095137e-19
-5.276620104e-20
2.766482699e-19
-4.995466264e-20
2.721536744e-19
-4.668808973e-20
2.603862696e-19
-4.27817141e-20
2.38459347e-19
-3.795864846e-20
2.0270131e-19
-3.183807362e-20
1.47331209e-19
-2.390694555e-20
6.150485925e-20
-1.35602759e-20
6.744127674e-34
8.212251945e-20
-9.520803366e-23
8.34971079e-20
-2.874246444e-22
8.464142654e-20
-4.818787321e-22
8.56207801e-20
-6.775581673e-22
8.642354876e-20
-8.734349743e-22
8.708893275e-20
-1.068376918e-21
8.765485664e-20
-1.261290399e-21
8.815474207e-20
-1.451109942e-21
8.861608999e-20
-1.636846685e-21
8.906022609e-20
-1.817522556e-21
8.950264279e-20
-1.992194276e-21
8.995393607e-20
-2.159884026e-21
9.042076579e-20
-2.319614597e-21
9.090693255e-20
-2.47034405e-21
9.141415979e-20
-2.611000597e-21
9.194282348e-20
-2.740409395e-21
9.249233778e-20
-2.857320062e-21
9.306152195e-20
-2.96033036e-21
9.364867153e-20
-3.047936623e-21
9.425170816e-20
-3.11847781e-21
9.486812454e-20
-3.17019457e-21
9.549509409e-20
-3.201172332e-21
9.612941272e-20
-3.209376902e-21
9.676762108e-20
-3.192564544e-21
9.74059109e-20
-3.148309977e-21
9.804018643e-20
-3.073931159e-21
9.866589994e-20
-2.966562415e-21
9.927807989e-20
-2.823120687e-21
9.987120208e-20
-2.640397606e-21
1.004392864e-19
-2.415014108e-21
1.009758362e-19
-2.143477214e-21
1.014739498e-19
-1.822114484e-21
1.01926182e-19
-1.44715905e-21
1.023245446e-19
-1.01474423e-21
1.026602776e-19
-5.210751915e-22
1.029238501e-19
3.751744226e-23
1.031048442e-19
6.643985728e-22
1.031921373e-19
1.36261993e-21
1.031739497e-19
2.134806073e-21
1.030381062e-19
2.983178428e-21
1.027720377e-19
3.909402375e-21
1.02362933e-19
4.914509889e-21
1.0179763e-19
5.998602795e-21
1.010627634e-19
7.16066467e-21
1.001447681e-19
8.398206927e-21
9.903024465e-20
9.707100453e-21
9.77062025e-20
1.108128295e-20
9.616062227e-20
1.251265964e-20
9.438279939e-20
1.399084839e-20
9.236393094e-20
1.5503094e-20
9.009742549e-20
1.703401666e-20
8.757946526e-20
1.856555931e-20
8.480930725e-20
2.007681111e-20
8.178987502e-20
2.154408815e-20
7.85281104e-20
2.294093861e-20
7.503563453e-20
2.42384729e-20
7.132914784e-20
2.540568301e-20
6.743108568e-20
2.641015467e-20
6.336987868e-20
2.721878923e-20
5.918030181e-20
2.779887879e-20
5.490324113e-20
2.811907454e-20
5.058544454e-20
2.815057897e-20
4.627867338e-20
2.786811598e-20
4.203894132e-20
2.725108377e-20
3.792528244e-20
2.62844746e-20
3.399873328e-20
2.495997424e-20
3.032086748e-20
2.327673775e-20
2.69525117e-20
2.124218087e-20
2.395192581e-20
1.887219667e-20
2.137317105e-20
1.61911582e-20
1.926408868e-20
1.323120004e-20
1.766481222e-20
1.003130443e-20
1.66063158e-20
6.635822851e-21
1.610983631e-20
3.093020091e-21
1.618642925e-20
-5.467989194e-22
1.68372544e-20
-4.233142732e-21
1.805377824e-20
-7.917694428e-21
1.981863393e-20
-1.155670045e-20
2.210661294e-20
-1.511368699e-20
2.488669864e-20
-1.856174907e-20
2.812453339e-20
-2.188549605e-20
3.178585336e-20
-2.50818559e-20
3.583978056e-20
-2.815997893e-20
4.026211122e-20
-3.11397222e-20
4.503743249e-20
-3.404925044e-20
5.016046699e-20
-3.69215093e-20
5.56359528e-20
-3.979029182e-20
6.14778394e-20
-4.268579656e-20
6.770729425e-20
-4.563052348e-20
7.435027015e-20
-4.863547451e-20
8.14340519e-20
-5.169751783e-20
8.898353772e-20
-5.47978394e-20
9.701692975e-20
-5.7902155e-20
1.055418882e-19
-6.096234037e-20
1.145521519e-19
-6.3919751e-20
1.240257201e-19
-6.670946155e-20
1.33924415e-19
-6.926524377e-20
1.441953881e-19
-7.152434131e-20
1.547738343e-19
-7.343181907e-20
1.655868301e-19
-7.494377818e-20
1.765570152e-19
-7.602956288e-20
1.876056238e-19
-7.6672585e-20
1.986536642e-19
-7.687010459e-20
2.09621323e-19
-7.663182105e-20
2.204252414e-19
-7.597770976e-20
2.309738365e-19
-7.49350355e-20
2.411585533e-19
-7.353499648e-20
2.508372437e-19
-7.180878341e-20
2.598036683e-19
-6.978309975e-20
2.677387613e-19
-6.747446736e-20
2.741414864e-19
-6.488161819e-20
2.782391721e-19
-6.197478709e-20
2.788803046e-19
-5.868094256e-20
2.744190688e-19
-5.486476228e-20
2.626104005e-19
-5.030507313e-20
2.405331609e-19
-4.467297653e-20
2.044921891e-19
-3.750430514e-20
1.486285915e-19
-2.820446411e-20
6.204548724e-20
-1.600434834e-20
7.478094899e-34
8.188998221e-20
-1.099064451e-22
8.326136731e-20
-3.31704888e-22
8.440351368e-20
-5.55830359e-22
8.538178469e-20
-7.811180328e-22
8.61847539e-20
-1.006460381e-21
8.685157299e-20
-1.230695898e-21
8.742012002e-20
-1.452657929e-21
8.792371854e-20
-1.671220238e-21
8.838983323e-20
-1.885285288e-21
8.88397331e-20
-2.093786031e-21
8.928892498e-20
-2.295652486e-21
8.974799166e-20
-2.489813057e-21
9.022364769e-20
-2.675155055e-21
9.071971981e-20
-2.850533174e-21
9.123803046e-20
-3.014720913e-21
9.177903032e-20
-3.166409652e-21
9.234228232e-20
-3.304160241e-21
9.292670751e-20
-3.426413772e-21
9.353075801e-20
-3.531454974e-21
9.415245772e-20
-3.617440389e-21
9.478945691e-20
-3.682372298e-21
9.543905373e-20
-3.724103178e-21
9.609825392e-20
-3.740286461e-21
9.676378029e-20
-3.728363555e-21
9.743207828e-20
-3.685519562e-21
9.809923614e-20
-3.608703235e-21
9.876092297e-20
-3.49462084e-21
9.941229751e-20
-3.339782446e-21
1.000480082e-19
-3.14048899e-21
1.006621918e-19
-2.892854548e-21
1.012485275e-19
-2.59277014e-21
1.018002048e-19
-2.235937359e-21
1.023098716e-19
-1.817888469e-21
1.027694663e-19
-1.33410353e-21
1.031701022e-19
-7.800981812e-22
1.035019476e-19
-1.51566745e-22
1.037542698e-19
5.555668777e-22
1.039155172e-19
1.345073595e-21
1.039734961e-19
2.220412804e-21
1.039154656e-19
3.184634796e-21
1.037282103e-19
4.240272536e-21
1.03397984e-19
5.389083681e-21
1.02910502e-19
6.631791008e-21
1.022509292e-19
7.967735311e-21
1.014040594e-19
9.394615778e-21
1.003545629e-19
1.090820586e-20
9.90874163e-20
1.250217216e-20
9.758832201e-20
1.416782497e-20
9.58442143e-20
1.58939137e-20
9.38436909e-20
1.766632114e-20
9.157751308e-20
1.946781965e-20
8.903904981e-20
2.127778939e-20
8.622482716e-20
2.307208932e-20
8.313505651e-20
2.482297449e-20
7.977430036e-20
2.649923675e-20
7.6152133e-20
2.806645858e-20
7.228391678e-20
2.948755198e-20
6.81914688e-20
3.072344977e-20
6.390365565e-20
3.173408779e-20
5.945664097e-20
3.247948453e-20
5.489386382e-20
3.292102141e-20
5.026557914e-20
3.302272057e-20
4.562818114e-20
3.275265965e-20
4.104321666e-20
3.208433735e-20
3.6576316e-20
3.099813443e-20
3.229585765e-20
2.948261752e-20
2.827150696e-20
2.75357622e-20