/*--------------------------------*- C++ -*----------------------------------*\
  =========                 |
  \\      /  F ield         | OpenFOAM: The Open Source CFD Toolbox
   \\    /   O peration     | Website:  https://openfoam.org
    \\  /    A nd           | Version:  6
     \\/     M anipulation  |
\*---------------------------------------------------------------------------*/
FoamFile
{
    version     2.0;
    format      ascii;
    class       volVectorField;
    location    "0.0024";
    object      gradT;
}
// * * * * * * * * * * * * * * * * * * * * * * * * * * * * * * * * * * * * * //

dimensions      [0 -1 0 1 0 0 0];

internalField   nonuniform List<vector> 
600
(
(0 -3.906939448e-08 -1.085271546e-05)
(0 -1.172081836e-07 -1.100804014e-05)
(0 -1.972527965e-07 -1.132154819e-05)
(0 -2.772974096e-07 -1.179323966e-05)
(0 -3.563891111e-07 -1.242883202e-05)
(0 -4.431041081e-07 -1.322737231e-05)
(0 -5.279132815e-07 -1.419648388e-05)
(0 -6.127224558e-07 -1.533902546e-05)
(0 -6.975316282e-07 -1.665309117e-05)
(0 -7.794820654e-07 -1.813582233e-05)
(0 -8.538092074e-07 -1.977864276e-05)
(0 -9.195601383e-07 -2.156916449e-05)
(0 -9.643470051e-07 -2.347308278e-05)
(0 -9.843581594e-07 -2.54551399e-05)
(-1.239779192e-25 -9.748290382e-07 -2.745434939e-05)
(1.239779192e-25 -9.205130508e-07 -2.939638417e-05)
(0 -8.156927246e-07 -3.118690595e-05)
(0 -6.613209699e-07 -3.271823559e-05)
(0 -4.583507011e-07 -3.388459996e-05)
(0 -2.134523019e-07 -3.45868962e-05)
(0 4.764560302e-08 -3.476699652e-05)
(0 3.230371885e-07 -3.440393703e-05)
(0 6.117695437e-07 -3.348437694e-05)
(0 9.252776107e-07 -3.197877584e-05)
(0 1.274996337e-06 -2.981471255e-05)
(0 1.658066988e-06 -2.690737789e-05)
(0 2.055431314e-06 -2.318530334e-05)
(0 2.430878666e-06 -1.865039485e-05)
(0 2.741528002e-06 -1.338650864e-05)
(0 1.437944299e-06 -7.571839232e-06)
(0 -1.162552731e-07 -1.079077633e-05)
(0 -3.50671644e-07 -1.094514811e-05)
(0 -5.888996622e-07 -1.125770325e-05)
(0 -8.309393292e-07 -1.17274889e-05)
(0 -1.074884822e-06 -1.236022254e-05)
(0 -1.32740652e-06 -1.316257449e-05)
(0 -1.58469278e-06 -1.413263898e-05)
(0 -1.841979043e-06 -1.52770864e-05)
(0 -2.098312389e-06 -1.659877543e-05)
(0 -2.348928264e-06 -1.809675321e-05)
(0 -2.577627166e-06 -1.976530228e-05)
(0 -2.774879962e-06 -2.158631723e-05)
(0 -2.923534245e-06 -2.354073989e-05)
(0 -2.995002654e-06 -2.558759506e-05)
(0 -2.969274026e-06 -2.767351957e-05)
(0 -2.812043534e-06 -2.971751598e-05)
(0 -2.504252935e-06 -3.162048141e-05)
(0 -2.035420192e-06 -3.326711344e-05)
(0 -1.411262783e-06 -3.453162776e-05)
(0 -6.679913654e-07 -3.530062786e-05)
(0 1.353135146e-07 -3.550264517e-05)
(0 9.586295472e-07 -3.514625605e-05)
(0 1.813391681e-06 -3.425528331e-05)
(0 2.745339687e-06 -3.280780982e-05)
(0 3.796401706e-06 -3.072188529e-05)
(0 4.970389389e-06 -2.786600784e-05)
(0 6.202504694e-06 -2.412296917e-05)
(0 7.36696325e-06 -1.94765699e-05)
(0 8.337027754e-06 -1.401543082e-05)
(0 4.378630983e-06 -7.929181374e-06)
(0 -1.943940603e-07 -1.066785052e-05)
(0 -5.841350939e-07 -1.082412811e-05)
(0 -9.77687774e-07 -1.113191869e-05)
(0 -1.3826754e-06 -1.160075142e-05)
(0 -1.792427588e-06 -1.223253214e-05)
(0 -2.213614716e-06 -1.30291666e-05)
(0 -2.642425144e-06 -1.400208982e-05)
(0 -3.079811784e-06 -1.515320761e-05)
(0 -3.517198415e-06 -1.648919029e-05)
(0 -3.944103018e-06 -1.801099085e-05)
(0 -4.343373178e-06 -1.972146803e-05)
(0 -4.694997722e-06 -2.161013971e-05)
(0 -4.967530571e-06 -2.366080646e-05)
(0 -5.11713777e-06 -2.583821055e-05)
(-1.239779192e-25 -5.102844086e-06 -2.809280047e-05)
(1.239779192e-25 -4.868427719e-06 -3.034548458e-05)
(0 -4.365290153e-06 -3.248763091e-05)
(0 -3.571514402e-06 -3.438011423e-05)
(0 -2.491865038e-06 -3.586189248e-05)
(0 -1.185422605e-06 -3.677478229e-05)
(0 2.010644447e-07 -3.699109327e-05)
(0 1.571351988e-06 -3.662041048e-05)
(0 2.951168656e-06 -3.576946007e-05)
(0 4.458675531e-06 -3.445634719e-05)
(0 6.21584537e-06 -3.256672258e-05)
(0 8.256983016e-06 -2.986426402e-05)
(0 1.044677492e-05 -2.609168513e-05)
(0 1.253746398e-05 -2.122706906e-05)
(0 1.428796346e-05 -1.534379002e-05)
(0 7.524193629e-06 -8.67626431e-06)
(0 -2.715799372e-07 -1.048584431e-05)
(0 -8.147398129e-07 -1.063735735e-05)
(0 -1.367428807e-06 -1.094419501e-05)
(0 -1.92869401e-06 -1.140826319e-05)
(0 -2.505205811e-06 -1.203146769e-05)
(0 -3.096964196e-06 -1.282619633e-05)
(0 -3.707780827e-06 -1.379721372e-05)
(0 -4.328126585e-06 -1.495309607e-05)
(0 -4.958954362e-06 -1.630432535e-05)
(0 -5.581205938e-06 -1.786328948e-05)
(0 -6.175823073e-06 -1.962998847e-05)
(0 -6.714218378e-06 -2.160918679e-05)
(0 -7.148746277e-06 -2.379230832e-05)
(0 -7.428902431e-06 -2.616124773e-05)
(1.239779192e-25 -7.476548029e-06 -2.867407682e-05)
(-1.239779192e-25 -7.207826828e-06 -3.125456268e-05)
(0 -6.538882565e-06 -3.378454423e-05)
(0 -5.409681767e-06 -3.609154429e-05)
(0 -3.806883681e-06 -3.796020484e-05)
(0 -1.795286325e-06 -3.913895712e-05)
(0 2.896852664e-07 -3.926569436e-05)
(0 2.182168618e-06 -3.876636844e-05)
(0 3.976502034e-06 -3.793352336e-05)
(0 5.946171257e-06 -3.686721471e-05)
(0 8.38943778e-06 -3.539591848e-05)
(0 1.144542677e-05 -3.30860597e-05)
(0 1.483779369e-05 -2.929156383e-05)
(0 1.811676409e-05 -2.410391057e-05)
(0 2.08878324e-05 -1.753739359e-05)
(0 1.104806243e-05 -9.875980594e-06)
(0 -3.44954171e-07 -1.024285189e-05)
(0 -1.042485811e-06 -1.039150619e-05)
(0 -1.747640745e-06 -1.068976765e-05)
(0 -2.468995186e-06 -1.11433538e-05)
(0 -3.211313697e-06 -1.175988793e-05)
(0 -3.978407912e-06 -1.254413455e-05)
(0 -4.770277846e-06 -1.350848157e-05)
(0 -5.587876415e-06 -1.466626976e-05)
(0 -6.426439032e-06 -1.603179274e-05)
(0 -7.267860394e-06 -1.762029717e-05)
(0 -8.090223526e-06 -1.944798256e-05)
(0 -8.859223559e-06 -2.153295415e-05)
(0 -9.519591626e-06 -2.388188242e-05)
(0 -9.99890641e-06 -2.649476735e-05)
(0 -1.019425338e-05 -2.934588027e-05)
(0 -9.976989427e-06 -3.237995231e-05)
(0 -9.204177739e-06 -3.54788224e-05)
(0 -7.748128079e-06 -3.843475562e-05)
(0 -5.538324978e-06 -4.09428202e-05)
(0 -2.491865079e-06 -4.276192942e-05)
(0 5.73653069e-07 -4.236932958e-05)
(0 2.90257018e-06 -4.145358107e-05)
(0 4.849369555e-06 -4.053592681e-05)
(0 6.997233365e-06 -3.987555868e-05)
(0 9.997953488e-06 -3.924282506e-05)
(0 1.436229081e-05 -3.795829964e-05)
(0 1.942701847e-05 -3.402849019e-05)
(0 2.429163461e-05 -2.847777735e-05)
(0 2.851589388e-05 -2.09107026e-05)
(0 1.518655973e-05 -1.165792632e-05)
(0 -4.192813066e-07 -9.93887279e-06)
(0 -1.262608482e-06 -1.008276253e-05)
(0 -2.120229334e-06 -1.037340069e-05)
(0 -2.998814254e-06 -1.081555189e-05)
(0 -3.904080717e-06 -1.141493359e-05)
(0 -4.846510739e-06 -1.21839336e-05)
(0 -5.828963074e-06 -1.313017528e-05)
(0 -6.851437725e-06 -1.427938725e-05)
(0 -7.912028838e-06 -1.56439573e-05)
(0 -8.999301499e-06 -1.725342577e-05)
(0 -1.008848e-05 -1.913542711e-05)
(0 -1.114716528e-05 -2.132236026e-05)
(0 -1.211151229e-05 -2.384662431e-05)
(0 -1.289194728e-05 -2.673394788e-05)
(0 -1.336268583e-05 -2.999481294e-05)
(0 -1.334172176e-05 -3.361397295e-05)
(0 -1.25936858e-05 -3.750471291e-05)
(0 -1.087272661e-05 -4.141832271e-05)
(0 -8.134057348e-06 -4.482021876e-05)
(0 -3.223701505e-06 -4.881482619e-05)
(0 1.599939349e-06 -4.622004658e-05)
(0 4.014618511e-06 -4.435996224e-05)
(0 5.555477321e-06 -4.309830673e-05)
(0 7.240225835e-06 -4.306400183e-05)
(0 1.030383811e-05 -4.394544549e-05)
(0 1.665976158e-05 -4.567307512e-05)
(0 2.432022161e-05 -4.055117273e-05)
(0 3.123550443e-05 -3.500522454e-05)
(0 3.770673029e-05 -2.606500363e-05)
(0 2.030179145e-05 -1.425651734e-05)
(0 -4.907497111e-07 -9.577719119e-06)
(0 -1.476060784e-06 -9.715891383e-06)
(0 -2.480430093e-06 -9.995094602e-06)
(0 -3.510528031e-06 -1.041723464e-05)
(0 -4.578742457e-06 -1.099374646e-05)
(0 -5.694602473e-06 -1.17332062e-05)
(0 -6.865731395e-06 -1.265371925e-05)
(0 -8.10165835e-06 -1.377148512e-05)
(0 -9.401430388e-06 -1.511890275e-05)
(0 -1.075837716e-05 -1.672551248e-05)
(0 -1.215915791e-05 -1.863705411e-05)
(0 -1.357042065e-05 -2.090117313e-05)
(0 -1.493213199e-05 -2.358362058e-05)
(0 -1.614709488e-05 -2.674252409e-05)
(0 -1.707523122e-05 -3.044554034e-05)
(0 -1.748593632e-05 -3.474984412e-05)
(0 -1.70094803e-05 -3.969355192e-05)
(0 -1.506268094e-05 -4.511848024e-05)
(0 -1.293482831e-05 -4.831835894e-05)
(0 -3.890739949e-06 -6.169152688e-05)
(0 5.028516943e-06 -4.956762665e-05)
(0 6.024310046e-06 -4.689756705e-05)
(0 6.146282799e-06 -4.465917669e-05)
(0 6.149141526e-06 -4.555967852e-05)
(0 7.390785941e-06 -4.802772076e-05)
(0 1.775561045e-05 -6.044702373e-05)
(0 3.009391578e-05 -4.769038989e-05)
(0 3.877970921e-05 -4.507845793e-05)
(0 4.926364777e-05 -3.419620225e-05)
(0 2.699695158e-05 -1.812057574e-05)
(0 -5.574535637e-07 -9.16320251e-06)
(0 -1.67998399e-06 -9.293751479e-06)
(0 -2.821572653e-06 -9.553896461e-06)
(0 -3.998419065e-06 -9.952213708e-06)
(0 -5.221005265e-06 -1.049537361e-05)
(0 -6.506483646e-06 -1.119481105e-05)
(0 -7.867242089e-06 -1.206767851e-05)
(0 -9.316621368e-06 -1.313684588e-05)
(0 -1.086510348e-05 -1.44337592e-05)
(0 -1.251745301e-05 -1.600034665e-05)
(0 -1.426414087e-05 -1.789378297e-05)
(0 -1.609373203e-05 -2.01874423e-05)
(0 -1.795191058e-05 -2.296899265e-05)
(0 -1.975482024e-05 -2.634801889e-05)
(0 -2.136905329e-05 -3.044458789e-05)
(0 -2.258878074e-05 -3.541402436e-05)
(0 -2.296232229e-05 -4.15860359e-05)
(0 -1.949943978e-05 -5.124856429e-05)
(0 -2.470519845e-05 -4.186523909e-05)
(0 -4.472969285e-06 -3.536161423e-05)
(0 1.63910406e-05 -2.541892959e-05)
(0 8.924974492e-06 -2.399623187e-05)
(0 6.892413047e-06 -2.251731236e-05)
(0 3.87168176e-06 -2.324724297e-05)
(0 -4.583507079e-06 -2.479667801e-05)
(0 1.699804561e-05 -3.522630072e-05)
(0 3.968878791e-05 -4.489454658e-05)
(0 4.472778696e-05 -6.360688099e-05)
(0 6.466461349e-05 -4.76608504e-05)
(0 3.638027719e-05 -2.423064824e-05)
(0 -6.203457513e-07 -8.702945848e-06)
(0 -1.866754729e-06 -8.821106957e-06)
(0 -3.139845239e-06 -9.062193695e-06)
(0 -4.451052234e-06 -9.427159014e-06)
(0 -5.820386874e-06 -9.926484948e-06)
(0 -7.266907373e-06 -1.057065349e-05)
(0 -8.808719087e-06 -1.137777e-05)
(0 -1.0467739e-05 -1.236879856e-05)
(0 -1.226397822e-05 -1.357709104e-05)
(0 -1.422030668e-05 -1.505219891e-05)
(0 -1.63453006e-05 -1.686082602e-05)
(0 -1.864563029e-05 -1.909635769e-05)
(0 -2.109175555e-05 -2.188171964e-05)
(0 -2.362269e-05 -2.53684249e-05)
(0 -2.614218948e-05 -2.971846844e-05)
(0 -2.862833704e-05 -3.504143521e-05)
(0 -3.28421142e-05 -4.017953707e-05)
(0 -1.534188417e-05 -2.767256623e-05)
(0 2.951168651e-06 -1.741923246e-05)
(0 1.255461641e-05 8.843976846e-06)
(0 1.639771074e-05 5.264839134e-06)
(0 8.923068534e-06 6.629409204e-06)
(0 6.894318767e-06 6.116742525e-06)
(0 3.870728789e-06 6.356876355e-06)
(0 -4.589224483e-06 5.48972638e-06)
(0 -2.342257848e-06 9.749243305e-06)
(0 1.715241709e-06 -1.542574043e-05)
(0 3.60134055e-05 -3.799546259e-05)
(0 8.863987999e-05 -6.878595718e-05)
(0 5.043001206e-05 -3.496901388e-05)
(0 -6.765675629e-07 -8.198855368e-06)
(0 -2.037325988e-06 -8.304628619e-06)
(0 -3.427624681e-06 -8.519986732e-06)
(0 -4.863663156e-06 -8.847788481e-06)
(0 -6.364499661e-06 -9.291845515e-06)
(0 -7.956815705e-06 -9.868357298e-06)
(0 -9.664434117e-06 -1.058590008e-05)
(0 -1.151689518e-05 -1.146639084e-05)
(0 -1.354945659e-05 -1.254413436e-05)
(0 -1.580023487e-05 -1.386391757e-05)
(0 -1.830925236e-05 -1.549911469e-05)
(0 -2.111653126e-05 -1.756121636e-05)
(0 -2.422207166e-05 -2.020840607e-05)
(0 -2.759061583e-05 -2.364555989e-05)
(0 -3.104301621e-05 -2.815473975e-05)
(0 -3.305080192e-05 -3.500713038e-05)
(0 -1.559345297e-05 -2.00749984e-05)
(0 3.260865071e-06 5.122855237e-06)
(0 1.18122979e-05 8.884952051e-06)
(0 1.82101495e-05 1.603941583e-05)
(0 1.417551981e-05 1.083651595e-05)
(0 9.777830652e-06 1.205147883e-05)
(0 6.621785918e-06 1.141969815e-05)
(0 3.243712654e-06 1.185613186e-05)
(0 -1.191140076e-06 1.135680594e-05)
(0 -3.917421486e-06 1.710477151e-05)
(0 -8.055918559e-06 1.119671671e-05)
(0 -8.633383267e-06 7.953004056e-06)
(0 6.769296705e-05 -4.324505519e-05)
(0 7.020579605e-05 -7.140074778e-05)
(0 -7.251660889e-07 -7.661413081e-06)
(0 -2.187886127e-06 -7.753845564e-06)
(0 -3.681099345e-06 -7.939663407e-06)
(0 -5.224816906e-06 -8.223631205e-06)
(0 -6.841908707e-06 -8.607654784e-06)
(0 -8.559056255e-06 -9.098404489e-06)
(0 -1.040770568e-05 -9.708268217e-06)
(0 -1.242597347e-05 -1.045153965e-05)
(0 -1.466341101e-05 -1.135204155e-05)
(0 -1.717338141e-05 -1.244598461e-05)
(0 -2.004164679e-05 -1.380197851e-05)
(0 -2.335492204e-05 -1.553532555e-05)
(0 -2.717705237e-05 -1.78432786e-05)
(0 -3.156902416e-05 -2.095930111e-05)
(6.198896052e-26 -3.750376054e-05 -2.436691467e-05)
(-6.198896052e-26 -2.054859599e-05 -2.148149691e-05)
(0 7.287871555e-06 -2.114511896e-06)
(0 1.361806646e-05 8.43708351e-06)
(0 1.386772942e-05 1.457002562e-05)
(0 1.450618054e-05 1.221633282e-05)
(0 1.240882104e-05 9.978895246e-06)
(0 9.507203769e-06 9.58534256e-06)
(0 6.697066071e-06 9.458605268e-06)
(0 3.807836651e-06 9.951260796e-06)
(0 6.594151557e-07 1.10013699e-05)
(0 -2.500441288e-06 1.384104791e-05)
(0 -7.437478743e-06 1.58154817e-05)
(0 -1.842836661e-05 2.13709591e-05)
(0 9.287081094e-06 2.431069289e-05)
(0 4.452100504e-05 -2.584106964e-05)
(0 -7.690000328e-07 -7.101100674e-06)
(0 -2.317482134e-06 -7.178286562e-06)
(0 -3.896457415e-06 -7.335517041e-06)
(0 -5.529748687e-06 -7.568980496e-06)
(0 -7.241178758e-06 -7.886300224e-06)
(0 -9.058382046e-06 -8.285570365e-06)
(0 -1.101756924e-05 -8.77346134e-06)
(0 -1.315971557e-05 -9.356643535e-06)
(0 -1.554390153e-05 -1.00427402e-05)
(0 -1.825112469e-05 -1.084985672e-05)
(0 -2.139859326e-05 -1.181134501e-05)
(0 -2.515592548e-05 -1.301773166e-05)
(0 -2.964795294e-05 -1.476156073e-05)
(0 -3.411329889e-05 -1.807483598e-05)
(0 -3.15642591e-05 -2.69655055e-05)
(0 -1.079649365e-05 -6.428344762e-06)
(0 1.43232212e-05 4.730255473e-06)
(0 1.994635525e-05 7.123970564e-06)
(0 1.559250004e-05 8.858270514e-06)
(0 1.361806628e-05 8.257935928e-06)
(0 1.15435767e-05 7.266907373e-06)
(0 9.258493579e-06 6.84000277e-06)
(0 6.98770415e-06 6.873354702e-06)
(0 4.787430192e-06 7.497512091e-06)
(0 2.699599867e-06 8.882093315e-06)
(0 8.93831514e-07 1.148163743e-05)
(0 -5.269603694e-07 1.550864378e-05)
(0 -1.372193367e-07 2.374656855e-05)
(0 2.048093895e-05 4.216159418e-05)
(0 3.252288862e-05 3.216268786e-05)
(0 -8.04257779e-07 -6.528400526e-06)
(0 -2.421349549e-06 -6.591292732e-06)
(0 -4.073699058e-06 -6.714218378e-06)
(0 -5.774647086e-06 -6.90003623e-06)
(0 -7.55659265e-06 -7.14493464e-06)
(0 -9.448123079e-06 -7.449866488e-06)
(0 -1.147877868e-05 -7.811020159e-06)
(0 -1.369525215e-05 -8.225536918e-06)
(0 -1.615567107e-05 -8.682934695e-06)
(0 -1.894198594e-05 -9.167014021e-06)
(0 -2.221047434e-05 -9.644422978e-06)
(0 -2.630513743e-05 -1.003702273e-05)
(0 -3.223320336e-05 -1.018091245e-05)
(0 -4.377392137e-05 -9.692068577e-06)
(0 -2.585631586e-05 -7.602332421e-06)
(0 1.114621238e-05 5.888043624e-06)
(0 2.083828096e-05 1.014946637e-05)
(0 1.774703421e-05 6.440732616e-06)
(0 1.500169457e-05 5.454468634e-06)
(0 1.291481717e-05 4.665457455e-06)
(0 1.09908877e-05 3.970784556e-06)
(0 9.114603858e-06 3.62106583e-06)
(0 7.355528205e-06 3.691581328e-06)
(0 5.816575217e-06 4.288104272e-06)
(0 4.64354047e-06 5.556430224e-06)
(0 4.125156316e-06 7.721446437e-06)
(0 4.827452498e-06 1.102709836e-05)
(0 8.225536906e-06 1.600034641e-05)
(0 1.770224737e-05 2.198082253e-05)
(0 2.302807285e-05 1.119099924e-05)
(0 -8.318922412e-07 -5.954747555e-06)
(0 -2.503300024e-06 -6.002393168e-06)
(0 -4.206153898e-06 -6.09482563e-06)
(0 -5.959512115e-06 -6.230139144e-06)
(0 -7.791009135e-06 -6.4073808e-06)
(0 -9.724467722e-06 -6.618927271e-06)
(0 -1.179323984e-05 -6.860014026e-06)
(0 -1.40297245e-05 -7.111582824e-06)
(0 -1.648728472e-05 -7.356481217e-06)
(0 -1.921261325e-05 -7.554686928e-06)
(0 -2.22676494e-05 -7.620437873e-06)
(0 -2.569336827e-05 -7.364104513e-06)
(0 -2.930299921e-05 -6.290172605e-06)
(0 -3.153567223e-05 -2.961650731e-06)
(0 -1.598510006e-05 7.346952099e-06)
(0 6.957211061e-06 7.350763748e-06)
(0 1.487686333e-05 4.971342299e-06)
(0 1.524849902e-05 3.003578859e-06)
(0 1.3818178e-05 1.824826623e-06)
(0 1.213533529e-05 9.576766365e-07)
(0 1.049918524e-05 3.106493364e-07)
(0 8.978337568e-06 -4.002230714e-08)
(0 7.654742708e-06 -3.239901059e-08)
(0 6.651326282e-06 4.002230714e-07)
(0 6.132942113e-06 1.329312344e-06)
(0 6.365452669e-06 2.830148866e-06)
(0 7.753845552e-06 4.897015152e-06)
(0 1.081459914e-05 7.269766218e-06)
(0 1.567063909e-05 8.589549454e-06)
(0 1.923071858e-05 4.848416636e-06)
(0 -8.5095047e-07 -5.393482262e-06)
(0 -2.561427622e-06 -5.424928368e-06)
(0 -4.301445041e-06 -5.488773468e-06)
(0 -6.087202242e-06 -5.580253026e-06)
(0 -7.946333684e-06 -5.691743745e-06)
(0 -9.898850484e-06 -5.819433953e-06)
(0 -1.197143422e-05 -5.949029993e-06)
(0 -1.419267225e-05 -6.06337945e-06)
(0 -1.659782227e-05 -6.135800757e-06)
(0 -1.920594258e-05 -6.128177461e-06)
(0 -2.201989193e-05 -5.971899892e-06)
(0 -2.497487219e-05 -5.556430224e-06)
(0 -2.783074964e-05 -4.697856458e-06)
(0 -3.013774977e-05 -3.238948097e-06)
(0 -1.554294862e-05 -2.161204554e-06)
(0 8.770602608e-06 -2.161204554e-06)
(0 1.649300196e-05 -6.451214656e-07)
(0 1.460051859e-05 -1.237832766e-06)
(0 1.295483946e-05 -2.139287576e-06)
(0 1.1399687e-05 -2.99500261e-06)
(0 9.993188778e-06 -3.672523081e-06)
(0 8.771555516e-06 -4.087039827e-06)
(0 7.79672649e-06 -4.201389281e-06)
(0 7.178286551e-06 -4.004136478e-06)
(0 7.072513312e-06 -3.481940669e-06)
(0 7.693811987e-06 -2.637660587e-06)
(0 9.267069788e-06 -1.543717538e-06)
(0 1.191711823e-05 -4.173754825e-07)
(0 1.528089782e-05 2.487100481e-07)
(0 1.799288552e-05 -2.163110377e-07)
(0 -8.642912427e-07 -4.848416585e-06)
(0 -2.598591204e-06 -4.868427746e-06)
(0 -4.360525608e-06 -4.905591309e-06)
(0 -6.163435235e-06 -4.957048561e-06)
(0 -8.031142893e-06 -5.015176204e-06)
(0 -9.981753878e-06 -5.068539272e-06)
(0 -1.203623229e-05 -5.103797019e-06)
(0 -1.421744803e-05 -5.104749938e-06)
(0 -1.655208256e-05 -5.042810646e-06)
(0 -1.904775926e-05 -4.89225054e-06)
(0 -2.169685483e-05 -4.624482257e-06)
(0 -2.441932457e-05 -4.230929567e-06)
(0 -2.698551676e-05 -3.737321118e-06)
(0 -2.899711416e-05 -3.156997674e-06)
(0 -1.490830926e-05 -1.596127709e-06)
(0 8.472341171e-06 -1.594221885e-06)
(0 1.579928205e-05 -4.176613584e-06)
(0 1.375528565e-05 -5.197182401e-06)
(0 1.2061008e-05 -6.172964355e-06)
(0 1.060209965e-05 -7.157322529e-06)
(0 9.408100815e-06 -7.945380796e-06)
(0 8.449471278e-06 -8.456141662e-06)
(0 7.737645977e-06 -8.710569197e-06)
(0 7.369821908e-06 -8.763932259e-06)
(0 7.500370861e-06 -8.642912427e-06)
(0 8.303675744e-06 -8.380861622e-06)
(0 9.972224757e-06 -8.042577826e-06)
(0 1.260797953e-05 -7.674753769e-06)
(0 1.587265629e-05 -6.997233302e-06)
(0 1.839406159e-05 -5.423975472e-06)
(0 -8.719145405e-07 -4.331938253e-06)
(0 -2.61764945e-06 -4.342420292e-06)
(0 -4.391018801e-06 -4.358619791e-06)
(0 -6.195834254e-06 -4.37672512e-06)
(0 -8.056871531e-06 -4.388160071e-06)
(0 -9.988424277e-06 -4.383395504e-06)
(0 -1.200859786e-05 -4.343373197e-06)
(0 -1.413168596e-05 -4.250940733e-06)
(0 -1.638532298e-05 -4.082275291e-06)
(0 -1.878666138e-05 -3.813554089e-06)
(0 -2.135952399e-05 -3.440012564e-06)
(0 -2.40867583e-05 -3.03026037e-06)
(0 -2.675777082e-05 -2.883511912e-06)
(0 -2.799560362e-05 -4.074651999e-06)
(0 -1.398112584e-05 -1.041247015e-05)
(0 6.190116784e-06 -1.04162818e-05)
(0 1.289099444e-05 -9.292798479e-06)
(0 1.26041679e-05 -9.218471328e-06)
(0 1.099469942e-05 -1.022569938e-05)
(0 9.627270619e-06 -1.153976514e-05)
(0 8.694369691e-06 -1.25250762e-05)
(0 8.00636718e-06 -1.310921129e-05)
(0 7.487983027e-06 -1.345797713e-05)
(0 7.245943351e-06 -1.372860414e-05)
(0 7.456536918e-06 -1.398303166e-05)
(0 8.292240812e-06 -1.424412959e-05)
(0 9.974130596e-06 -1.461957692e-05)
(0 1.296532157e-05 -1.527899207e-05)
(0 1.753072331e-05 -1.518179506e-05)
(0 2.04466342e-05 -9.980800981e-06)
(0 -8.728674513e-07 -3.85357639e-06)
(0 -2.625272742e-06 -3.852623483e-06)
(0 -4.39387753e-06 -3.851670566e-06)
(0 -6.195834245e-06 -3.845000181e-06)
(0 -8.036860366e-06 -3.823083209e-06)
(0 -9.936967011e-06 -3.772578864e-06)
(0 -1.190473042e-05 -3.67824057e-06)
(0 -1.395635012e-05 -3.515292612e-06)
(0 -1.611183719e-05 -3.258959261e-06)
(0 -1.840644944e-05 -2.872076963e-06)
(0 -2.091451403e-05 -2.325105441e-06)
(0 -2.386377684e-05 -1.596127708e-06)
(0 -2.802800256e-05 -7.108724003e-07)
(0 -3.65270253e-05 1.44842634e-07)
(0 -2.124898614e-05 2.992143885e-07)
(0 9.592012848e-06 -8.464717875e-06)
(0 1.69961396e-05 -1.337412084e-05)
(0 1.282143183e-05 -1.21791691e-05)
(0 9.739714213e-06 -1.399637241e-05)
(0 8.303675744e-06 -1.62843143e-05)
(0 7.839607556e-06 -1.753644073e-05)
(0 7.515617454e-06 -1.803481374e-05)
(0 7.118253134e-06 -1.831782865e-05)
(0 6.844767361e-06 -1.875521526e-05)
(0 6.984845434e-06 -1.936603189e-05)
(0 7.668083396e-06 -2.00435524e-05)
(0 8.936409343e-06 -2.097264163e-05)
(0 1.20448085e-05 -2.369987596e-05)
(0 2.116989446e-05 -2.853590473e-05)
(0 2.512352659e-05 -1.580404659e-05)
(0 -8.728674513e-07 -3.411425192e-06)
(0 -2.617649446e-06 -3.407613549e-06)
(0 -4.382442586e-06 -3.395225687e-06)
(0 -6.166293971e-06 -3.369497061e-06)
(0 -7.984450202e-06 -3.323757287e-06)
(0 -9.843581628e-06 -3.24466558e-06)
(0 -1.175035867e-05 -3.11506954e-06)
(0 -1.371240463e-05 -2.909240538e-06)
(0 -1.574210731e-05 -2.594779552e-06)
(0 -1.785471336e-05 -2.124993904e-06)
(0 -2.008071597e-05 -1.420791891e-06)
(0 -2.247157231e-05 -3.344721347e-07)
(0 -2.501965917e-05 1.475107876e-06)
(0 -2.698551679e-05 5.061868893e-06)
(0 -2.259068633e-05 1.415455582e-05)
(0 -7.48417136e-06 1.624715071e-06)
(0 9.177496105e-06 -7.974921078e-06)
(0 1.198286921e-05 -1.21400997e-05)
(0 6.888601316e-06 -1.731727095e-05)
(0 6.088155191e-06 -2.208659587e-05)
(0 6.942917303e-06 -2.333776938e-05)
(0 7.224026363e-06 -2.321103207e-05)
(0 6.768534406e-06 -2.306904821e-05)
(0 6.199645893e-06 -2.366175948e-05)
(0 6.168199795e-06 -2.472902099e-05)
(0 6.684678144e-06 -2.565620447e-05)
(0 6.318759901e-06 -2.559617097e-05)
(0 5.400152671e-06 -3.009868048e-05)
(0 2.542845848e-05 -4.81506467e-05)
(0 3.585236352e-05 -3.821939709e-05)
(0 -8.690558043e-07 -3.012155041e-06)
(0 -2.607167417e-06 -3.004531749e-06)
(0 -4.357666878e-06 -2.985473503e-06)
(0 -6.122460025e-06 -2.950215757e-06)
(0 -7.912981809e-06 -2.893993949e-06)
(0 -9.727326371e-06 -2.802514387e-06)
(0 -1.156930539e-05 -2.658624665e-06)
(0 -1.343701306e-05 -2.442313629e-06)
(0 -1.53285435e-05 -2.119276435e-06)
(0 -1.723150889e-05 -1.63710293e-06)
(0 -1.912589811e-05 -9.176543211e-07)
(0 -2.09678771e-05 1.781945564e-07)
(0 -2.263166157e-05 1.875330946e-06)
(0 -2.384757739e-05 4.469157595e-06)
(0 -2.468518708e-05 7.733834332e-06)
(0 -1.253746406e-05 6.645608752e-06)
(0 3.23132482e-06 -2.075442482e-06)
(0 3.479081953e-06 -1.110619013e-05)
(0 -2.067819184e-07 -2.105935666e-05)
(0 2.283177314e-06 -3.142894581e-05)
(0 6.714218418e-06 -3.054845502e-05)
(0 7.786244492e-06 -2.844347226e-05)
(0 6.667525737e-06 -2.712845365e-05)
(0 5.182888728e-06 -2.815188117e-05)
(0 4.991353402e-06 -3.029783914e-05)
(0 6.800933426e-06 -3.233040063e-05)
(0 4.493933304e-06 -2.574006073e-05)
(0 -1.051062009e-05 -2.305475453e-05)
(0 1.305013077e-05 -2.757060485e-05)
(0 4.782856242e-05 1.935745571e-05)
)
;

boundaryField
{
    lowerWall
    {
        type            calculated;
        value           nonuniform 0();
    }
    atmosphere
    {
        type            calculated;
        value           nonuniform List<vector> 
20
(
(0 0 -1.085271546e-05)
(0 0 -1.079077633e-05)
(0 0 -1.066785052e-05)
(0 0 -1.048584431e-05)
(0 0 -1.024285189e-05)
(0 0 -9.93887279e-06)
(0 0 -9.577719119e-06)
(0 0 -9.16320251e-06)
(0 0 -8.702945848e-06)
(0 0 -8.198855368e-06)
(0 0 -7.661413081e-06)
(0 0 -7.101100674e-06)
(0 0 -6.528400526e-06)
(0 0 -5.954747555e-06)
(0 0 -5.393482262e-06)
(0 0 -4.848416585e-06)
(0 0 -4.331938253e-06)
(0 0 -3.85357639e-06)
(0 0 -3.411425192e-06)
(0 0 -3.012155041e-06)
)
;
    }
    rightWall
    {
        type            empty;
    }
    leftWall
    {
        type            empty;
    }
    frontAndBack
    {
        type            calculated;
        value           nonuniform List<vector> 
30
(
(0 -3.906939448e-08 -1.08678932e-05)
(0 -1.172081836e-07 -1.102307573e-05)
(0 -1.972527965e-07 -1.13368514e-05)
(0 -2.772974096e-07 -1.180922021e-05)
(0 -3.563891111e-07 -1.244529806e-05)
(0 -4.431041081e-07 -1.324167436e-05)
(0 -5.279132815e-07 -1.421199151e-05)
(0 -6.127224558e-07 -1.535454423e-05)
(0 -6.975316282e-07 -1.666592189e-05)
(0 -7.794820654e-07 -1.814441921e-05)
(0 -8.538092074e-07 -1.977980436e-05)
(0 -9.195601383e-07 -2.156184553e-05)
(0 -9.643470051e-07 -2.345643668e-05)
(0 -9.843581594e-07 -2.541923992e-05)
(-1.239779192e-25 -9.748290382e-07 -2.739909619e-05)
(1.239779192e-25 -9.205130508e-07 -2.931585626e-05)
(0 -8.156927246e-07 -3.107913911e-05)
(0 -6.613209699e-07 -3.258151066e-05)
(0 -4.583507011e-07 -3.372406337e-05)
(0 -2.134523019e-07 -3.44113003e-05)
(0 4.764560302e-08 -3.458353586e-05)
(0 3.230371885e-07 -3.421860111e-05)
(0 6.117695437e-07 -3.329091652e-05)
(0 9.252776107e-07 -3.176978664e-05)
(0 1.274996337e-06 -2.959040997e-05)
(0 1.658066988e-06 -2.66726373e-05)
(0 2.055431314e-06 -2.295507772e-05)
(0 2.430878666e-06 -1.844796306e-05)
(0 2.741528002e-06 -1.323314784e-05)
(0 1.437944299e-06 -7.482867621e-06)
)
;
    }
    procBoundary0to1
    {
        type            processor;
        value           nonuniform List<vector> 
20
(
(0 5.050433897e-08 -7.570886286e-06)
(0 1.572304916e-07 -7.928228426e-06)
(0 2.858736168e-07 -8.675311359e-06)
(0 4.554919628e-07 -9.875027638e-06)
(0 7.0420202e-07 -1.165697336e-05)
(0 1.095848865e-06 -1.425365854e-05)
(0 1.784804281e-06 -1.811866984e-05)
(0 3.1341278e-06 -2.422778939e-05)
(0 6.170105563e-06 -3.496043752e-05)
(0 1.41326387e-05 -4.915310968e-05)
(0 5.278275249e-05 -1.3373168e-05)
(0 2.884560085e-05 2.066961541e-05)
(0 2.309001203e-05 8.687699216e-06)
(0 2.059433567e-05 3.553409111e-06)
(0 1.939747781e-05 -5.879467386e-07)
(0 1.959663652e-05 -4.540625968e-06)
(0 2.108413228e-05 -8.452329989e-06)
(0 2.34111435e-05 -1.313017528e-05)
(0 2.867026516e-05 -2.544751657e-05)
(0 5.290281894e-05 6.349253068e-06)
)
;
    }
    procBoundary0to2
    {
        type            processor;
        value           nonuniform List<vector> 
30
(
(0 -8.633383306e-07 -2.656718836e-06)
(0 -2.590967908e-06 -2.64718972e-06)
(0 -4.328126598e-06 -2.625272738e-06)
(0 -6.075767325e-06 -2.58906208e-06)
(0 -7.836748832e-06 -2.530934448e-06)
(0 -9.608212348e-06 -2.44136071e-06)
(0 -1.139111082e-05 -2.309858845e-06)
(0 -1.317210349e-05 -2.114511875e-06)
(0 -1.493784953e-05 -1.82768534e-06)
(0 -1.665213833e-05 -1.413168592e-06)
(0 -1.826446557e-05 -8.099752562e-07)
(0 -1.967858705e-05 7.528005311e-08)
(0 -2.072869614e-05 1.366475901e-06)
(0 -2.11260605e-05 3.197972893e-06)
(0 -2.041518808e-05 5.671732612e-06)
(0 -1.729344816e-05 9.308997964e-06)
(0 -8.572396943e-06 2.086877424e-06)
(0 -7.001997851e-06 -5.504020086e-06)
(0 -1.343415429e-05 -3.205405603e-05)
(0 -3.400943164e-06 -5.204519832e-05)
(0 9.92743789e-06 -3.901126702e-05)
(0 1.064307485e-05 -3.293073513e-05)
(0 7.060125498e-06 -2.889801132e-05)
(0 3.031213278e-06 -3.15776e-05)
(0 1.989680391e-06 -3.604675758e-05)
(0 1.124055073e-05 -4.771516589e-05)
(0 1.559440594e-05 -3.200069296e-05)
(0 3.570561506e-06 -7.023914829e-06)
(0 6.784162164e-05 3.170433735e-05)
(0 6.977126847e-05 5.842017995e-05)
)
;
    }
}


// ************************************************************************* //
