/*--------------------------------*- C++ -*----------------------------------*\
  =========                 |
  \\      /  F ield         | OpenFOAM: The Open Source CFD Toolbox
   \\    /   O peration     | Website:  https://openfoam.org
    \\  /    A nd           | Version:  6
     \\/     M anipulation  |
\*---------------------------------------------------------------------------*/
FoamFile
{
    version     2.0;
    format      ascii;
    class       surfaceScalarField;
    location    "0.0021";
    object      phi;
}
// * * * * * * * * * * * * * * * * * * * * * * * * * * * * * * * * * * * * * //

dimensions      [0 3 -1 0 0 0 0];

internalField   nonuniform List<scalar> 
1150
(
7.708379226e-19
-1.325034284e-21
7.763378233e-19
-3.861595863e-21
7.828570252e-19
-6.024789065e-21
7.898216018e-19
-7.52320218e-21
7.961306697e-19
-8.031331208e-21
8.003972129e-19
-7.178609475e-21
8.007975911e-19
-4.529107527e-21
7.950134363e-19
4.020284215e-22
7.802037998e-19
8.121137315e-21
7.530474064e-19
1.905285895e-20
7.099566209e-19
3.338522555e-20
6.475166169e-19
5.081147615e-20
5.631495253e-19
7.027496456e-20
4.557854356e-19
8.984752336e-20
3.261487486e-19
1.071304988e-19
1.762119434e-19
1.204464598e-19
7.891529643e-21
1.305870293e-19
-1.775868787e-19
1.411896184e-19
-3.768530491e-19
1.544252451e-19
-5.772501482e-19
1.610424841e-19
-7.529812975e-19
1.383449535e-19
-8.732167113e-19
7.678229844e-20
-9.132986581e-19
-1.232259123e-20
-8.562359461e-19
-1.225417842e-19
-6.911930087e-19
-2.565814872e-19
-4.236216959e-19
-4.086499813e-19
-1.002419504e-19
-5.30317238e-19
1.526387858e-19
-5.416637711e-19
1.644620728e-19
-3.733899869e-19
3.500045818e-33
7.675407666e-19
-2.783245136e-21
7.735901114e-19
-8.122528026e-21
7.810499994e-19
-1.273885645e-20
7.893695835e-19
-1.606376008e-20
7.975166893e-19
-1.746938099e-20
8.041769868e-19
-1.622135223e-20
8.075704369e-19
-1.146542323e-20
8.053778365e-19
-2.218434896e-21
7.94631551e-19
1.256040955e-20
7.717154743e-19
3.382176179e-20
7.324991964e-19
6.20930238e-20
6.728296345e-19
9.696763925e-20
5.893700659e-19
1.364196671e-19
4.807563513e-19
1.763394055e-19
3.484179362e-19
2.110137404e-19
1.960705604e-19
2.357286573e-19
2.676510508e-20
2.515817875e-19
-1.610943128e-19
2.689350741e-19
-3.7214763e-19
2.994847397e-19
-5.99030936e-19
3.268521482e-19
-8.094794874e-19
2.896115906e-19
-9.633868867e-19
1.642265288e-19
-1.036949384e-18
-1.038229211e-20
-1.017117328e-18
-2.179992755e-19
-8.840397786e-19
-4.755646312e-19
-6.186778927e-19
-7.93423721e-19
-2.496751501e-19
-1.069266235e-18
8.653315525e-20
-1.119046385e-18
1.551035631e-19
-7.83095691e-19
3.957888043e-33
7.617791848e-19
-4.493509181e-21
7.687378744e-19
-1.315967501e-20
7.777043146e-19
-2.0795907e-20
7.882079607e-19
-2.659681533e-20
7.993279731e-19
-2.965828273e-20
8.09860985e-19
-2.892735654e-20
8.18132486e-19
-2.315337347e-20
8.218437632e-19
-1.087495797e-20
8.17902431e-19
9.541870776e-21
8.022733881e-19
3.972517281e-20
7.700062007e-19
8.08821268e-20
7.156368978e-19
1.329692865e-19
6.342866832e-19
1.934028602e-19
5.235733316e-19
2.556080428e-19
3.858731335e-19
3.087597092e-19
2.287174581e-19
3.413835757e-19
5.971888185e-20
3.518740722e-19
-1.255507625e-19
3.624046337e-19
-3.489112853e-19
4.150679238e-19
-6.176152614e-19
4.990431768e-19
-8.841715493e-19
4.656509065e-19
-1.086601422e-18
2.634686854e-19
-1.208925239e-18
9.810279972e-21
-1.256887726e-18
-2.609290469e-19
-1.201747371e-18
-6.049618424e-19
-9.744842855e-19
-1.113052892e-18
-5.605096298e-19
-1.615540861e-18
-1.044409123e-19
-1.764553537e-18
1.01194707e-19
-1.27040515e-18
4.836925464e-33
7.529258636e-19
-6.559882976e-21
7.611066201e-19
-1.928416546e-20
7.720890896e-19
-3.07393083e-20
7.855221053e-19
-3.992378463e-20
8.006282878e-19
-4.571638682e-20
8.163759911e-19
-4.68017379e-20
8.312547181e-19
-4.160749551e-20
8.430791012e-19
-2.824403353e-20
8.487098004e-19
-4.487636169e-21
8.437366704e-19
3.212895605e-20
8.222132745e-19
8.392452047e-20
7.76765157e-19
1.520602541e-19
6.996595475e-19
2.344797909e-19
5.85758426e-19
3.22682408e-19
4.375955358e-19
3.986390562e-19
2.69798153e-19
4.368268801e-19
1.03557155e-19
4.218956018e-19
-6.233185953e-20
3.885109376e-19
-2.844008197e-19
4.567680312e-19
-6.110460134e-19
6.74590406e-19
-9.582831881e-19
6.791326622e-19
-1.208906999e-18
3.534009258e-19
-1.374508195e-18
2.713587187e-20
-1.516167251e-18
-2.374675642e-19
-1.608953017e-18
-5.685883577e-19
-1.484817342e-18
-1.296395984e-18
-1.03716224e-18
-2.150783283e-18
-4.145691713e-19
-2.502176614e-18
1.025935874e-20
-1.882467101e-18
5.980568898e-33
7.401601454e-19
-9.064832171e-21
7.498083082e-19
-2.675186939e-20
7.632137449e-19
-4.300783835e-20
7.801612799e-19
-5.669573816e-20
8.000460408e-19
-6.654245441e-20
8.220400283e-19
-7.106068782e-20
8.448640209e-19
-6.846593651e-20
8.665621944e-19
-5.657778953e-20
8.841618929e-19
-3.269986782e-20
8.931606086e-19
6.469946585e-21
8.86830876e-19
6.471522323e-20
8.55564133e-19
1.454888412e-19
7.871377481e-19
2.494581582e-19
6.700504867e-19
3.690324131e-19
5.029000724e-19
4.792290921e-19
3.093352958e-19
5.301262805e-19
1.43034401e-19
4.643870555e-19
3.151520528e-20
3.011533199e-19
-1.43724196e-19
3.309545478e-19
-5.476708089e-19
8.433471112e-19
-1.011124154e-18
9.443153948e-19
-1.275302744e-18
3.775295988e-19
-1.434749396e-18
-1.586999047e-20
-1.670257888e-18
-1.622575717e-19
-2.015696121e-18
-2.652769091e-19
-2.108633357e-18
-1.23265441e-18
-1.668674623e-18
-2.634014312e-18
-8.447300225e-19
-3.323547793e-18
-1.15584818e-19
-2.668564676e-18
8.026619999e-33
7.225175495e-19
-1.206811928e-20
7.337952429e-19
-3.57422065e-20
7.498886389e-19
-5.790995093e-20
7.707223324e-19
-7.735946767e-20
7.95855013e-19
-9.274073931e-20
8.246524107e-19
-1.024895126e-19
8.56070665e-19
-1.047510132e-19
8.884690332e-19
-9.726468957e-20
9.193073852e-19
-7.716926275e-20
9.445740959e-19
-4.069145144e-20
9.576796871e-19
1.723069058e-20
9.475861775e-19
1.030295746e-19
8.96745095e-19
2.230796625e-19
7.818911191e-19
3.775005333e-19
5.861945679e-19
5.431235664e-19
3.334585119e-19
6.411500297e-19
1.384507758e-19
5.212980827e-19
1.310580649e-19
6.432197822e-20
1.206807291e-19
-1.115187289e-19
-3.877151671e-19
8.625291104e-19
-1.035049133e-18
1.049164088e-18
-1.203892958e-18
3.34719792e-19
-1.254178287e-18
-1.49488049e-19
-1.499259279e-18
-2.091344151e-20
-2.238510919e-18
1.507364235e-19
-2.719138771e-18
-8.768404309e-19
-2.377748327e-18
-2.969628121e-18
-1.38196243e-18
-4.107742244e-18
-2.732735399e-19
-3.644632806e-18
1.165723933e-32
6.989387759e-19
-1.560169841e-20
7.119121197e-19
-4.635271221e-20
7.308018706e-19
-7.560937825e-20
7.556514997e-19
-1.021452136e-19
7.861346009e-19
-1.245936628e-19
8.217169585e-19
-1.413861162e-19
8.614605378e-19
-1.507065758e-19
9.039274166e-19
-1.504269151e-19
9.470846121e-19
-1.379555879e-19
9.880329838e-19
-1.098728132e-19
1.022029657e-18
-6.112749339e-20
1.039729531e-18
1.647763996e-20
1.021327601e-18
1.362128034e-19
9.287176089e-19
3.152890883e-19
7.089285923e-19
5.571062835e-19
3.436463267e-19
7.808862623e-19
2.345237708e-20
7.006407132e-19
1.161130588e-19
-3.170319969e-19
5.279988849e-19
-7.657438613e-19
-8.18025787e-20
6.271918229e-19
-1.025607893e-18
9.803636552e-19
-8.133803408e-19
-8.738495646e-20
-7.775629322e-19
-2.384048643e-19
-6.971236476e-19
-1.742424383e-19
-1.944633259e-18
7.110162921e-19
-2.940608269e-18
-1.433515281e-19
-2.890876929e-18
-2.845491458e-18
-1.980657263e-18
-4.339149754e-18
-4.644074581e-19
-4.681208003e-18
1.930883238e-32
6.683217154e-19
-1.967057685e-20
6.829600998e-19
-5.859767283e-20
7.046010693e-19
-9.613132573e-20
7.333773332e-19
-1.31085309e-19
7.689965827e-19
-1.621142053e-19
8.108490686e-19
-1.876523971e-19
8.577767734e-19
-2.059089855e-19
9.080368584e-19
-2.14910321e-19
9.595045443e-19
-2.125777182e-19
1.010166212e-18
-1.967399842e-19
1.058549727e-18
-1.646937802e-19
1.102436169e-18
-1.111641304e-19
1.13133038e-18
-2.220443911e-20
1.104738623e-18
1.373073559e-19
9.216486566e-19
4.335204729e-19
4.219870675e-19
8.877801219e-19
-1.595972234e-19
9.355822149e-19
-4.123063677e-19
-1.6895274e-19
5.126275801e-19
-1.47961303e-18
-6.084706834e-33
1.932932438e-19
-1.700765683e-32
1.314250908e-19
-3.297493747e-33
-5.719277036e-20
2.068855154e-33
-3.641537506e-20
1.558481321e-32
-4.903973489e-20
2.204826002e-33
1.470497183e-19
-1.589350547e-18
2.11944268e-19
-2.24493084e-18
-1.739711466e-18
-2.641253806e-18
-2.275149019e-18
-7.561842651e-19
-4.991964768e-18
1.876369206e-32
6.295801995e-19
-2.425326059e-20
6.457553844e-19
-7.24111606e-20
6.699628867e-19
-1.193716014e-19
7.024138079e-19
-1.640543577e-19
7.427930224e-19
-2.051593994e-19
7.902321493e-19
-2.410627134e-19
8.429062488e-19
-2.697952898e-19
8.978229814e-19
-2.891522386e-19
9.510369965e-19
-2.970449196e-19
9.988465795e-19
-2.922771066e-19
1.040743872e-18
-2.757905217e-19
1.084059061e-18
-2.515117384e-19
1.145419726e-18
-2.22385517e-19
1.226558971e-18
-1.680985975e-19
1.24408096e-18
2.699298257e-20
8.49252015e-19
6.250514434e-19
-1.552653107e-19
1.003183869e-18
2.986415937e-33
-5.618461263e-20
-1.383785852e-19
-1.156322596e-19
1.475526313e-21
5.344032835e-20
7.971029041e-20
5.319646254e-20
2.077739529e-20
1.749203768e-21
-1.26243598e-20
-3.001790771e-21
-7.223869839e-20
1.058672454e-20
1.550870523e-21
7.325902751e-20
1.197275608e-19
9.37633521e-20
1.855532891e-32
-1.973577072e-20
-1.8663223e-18
1.311300828e-19
-1.839749036e-18
-3.088252487e-18
-3.030028165e-19
5.817054986e-19
-2.930424539e-20
5.991772612e-19
-8.764254652e-20
6.256147471e-19
-1.450842069e-19
6.613576095e-19
-2.007683874e-19
7.06121614e-19
-2.535089626e-19
7.587709728e-19
-3.015655329e-19
8.165704905e-19
-3.424869584e-19
8.743943714e-19
-3.730635386e-19
9.240709871e-19
-3.895939251e-19
9.546971289e-19
-3.889513463e-19
9.561332069e-19
-3.714359928e-19
9.303534809e-19
-3.468635572e-19
9.172020201e-19
-3.43725358e-19
1.016023088e-18
-4.076542022e-19
1.181609628e-18
-4.737617558e-19
1.071995977e-18
-1.752401979e-19
1.487998575e-19
1.484705137e-19
6.723970586e-20
2.536732701e-20
-3.264967436e-20
-1.574736407e-20
1.231660426e-21
1.955913543e-20
2.826303118e-20
2.616842014e-20
1.60264007e-20
1.399110332e-20
9.641556485e-22
1.206876467e-20
-9.566394863e-21
2.112233495e-20
2.205519545e-20
4.163704402e-20
6.957211561e-20
4.623072862e-20
2.417850151e-20
2.564532684e-20
8.814950328e-20
6.716379315e-20
-3.030028194e-19
1.87563881e-20
-5.600543161e-19
5.238479693e-19
-3.476526376e-20
5.422172943e-19
-1.040491811e-19
5.70311986e-19
-1.728225595e-19
6.087302532e-19
-2.406726913e-19
6.574534013e-19
-3.067258171e-19
7.154355146e-19
-3.692303104e-19
7.79504486e-19
-4.251546476e-19
8.427787284e-19
-4.697192073e-19
8.922834671e-19
-4.959214383e-19
9.055861756e-19
-4.943908012e-19
8.472334681e-19
-4.544969894e-19
6.693109576e-19
-3.694187475e-19
3.344038438e-19
-2.528552435e-19
-1.489656093e-19
-1.955638828e-19
-1.438353941e-19
-5.794140982e-19
-5.651395658e-20
4.481572287e-33
2.569667332e-20
6.625697602e-20
2.612501432e-20
2.493487711e-20
2.656825208e-21
7.717741346e-21
7.840945006e-21
1.437479036e-20
1.60857141e-20
1.792531851e-20
1.410406186e-20
1.597542356e-20
1.001772578e-20
1.615964017e-20
1.094831407e-20
2.019691011e-20
2.664887973e-20
2.593252171e-20
4.898671298e-20
2.388412526e-20
6.569696689e-20
8.935101514e-21
1.521343381e-19
-1.927977026e-20
3.181864348e-19
-1.473030118e-19
1.31989167e-19
4.55453134e-19
-4.061993604e-20
4.740797392e-19
-1.213101902e-19
5.02837302e-19
-2.018356608e-19
5.427647845e-19
-2.826758617e-19
5.94463308e-19
-3.63663523e-19
6.57662599e-19
-4.434132106e-19
7.300945528e-19
-5.187429967e-19
8.05738952e-19
-5.838020564e-19
8.717455366e-19
-6.288002417e-19
9.026712608e-19
-6.382556289e-19
8.493234054e-19
-5.88580449e-19
6.179732882e-19
-4.446579767e-19
6.47156718e-20
-1.561279445e-19
-6.69997492e-19
3.140371807e-19
-1.449414563e-18
5.02436702e-19
-1.169443376e-19
-1.407604038e-19
-1.562542535e-20
-3.506366263e-20
8.907878921e-21
3.980233053e-22
9.313874301e-21
7.309314899e-21
1.139147326e-20
1.229674857e-20
1.413581939e-20
1.51815594e-20
1.42882787e-20
1.58234122e-20
1.405499585e-20
1.639375419e-20
1.668392584e-20
1.756926085e-20
2.460048372e-20
1.801469314e-20
3.40376899e-20
1.444090171e-20
3.748209606e-20
5.487667347e-21
2.411109829e-20
-5.91328052e-21
-1.149136023e-19
-8.288360752e-21
3.143984033e-20
3.765189184e-19
-4.709850593e-20
3.94406763e-19
-1.391387457e-19
4.221600597e-19
-2.30977689e-19
4.614240708e-19
-3.248321102e-19
5.136653908e-19
-4.217695498e-19
5.798966604e-19
-5.213012805e-19
6.599472337e-19
-6.20882633e-19
7.51531517e-19
-7.149603535e-19
8.491642169e-19
-7.936046331e-19
9.433284983e-19
-8.410709759e-19
1.021040343e-18
-8.349541795e-19
1.067011414e-18
-7.466358466e-19
9.571441703e-19
-5.421658551e-19
6.211154459e-19
-1.721685274e-19
1.909114274e-19
-5.140489159e-33
5.209608187e-20
-1.946383795e-21
1.983626096e-20
-2.807309288e-21
1.581917058e-20
4.410810918e-21
1.430130804e-20
8.823826703e-21
1.42762841e-20
1.231995409e-20
1.477767219e-20
1.467887792e-20
1.485862072e-20
1.574081788e-20
1.52305025e-20
1.602043557e-20
1.712935814e-20
1.566996301e-20
2.102669227e-20
1.41162728e-20
2.508445542e-20
1.038080733e-20
2.608114809e-20
4.488678614e-21
2.173601802e-20
-1.573044662e-21
1.74068248e-20
-3.964527442e-21
-2.015772116e-21
2.880805027e-19
-5.541434158e-20
3.036648002e-19
-1.575836464e-19
3.27832997e-19
-2.586870291e-19
3.629615718e-19
-3.641651064e-19
4.112611256e-19
-4.766967327e-19
4.74784133e-19
-5.970143448e-19
5.54988247e-19
-7.237607543e-19
6.521097991e-19
-8.524794772e-19
7.644954186e-19
-9.740954984e-19
8.887154225e-19
-1.073714041e-18
1.022795441e-18
-1.131837375e-18
1.169681658e-18
-1.132267605e-18
1.129411367e-18
-1.083493112e-18
9.67388065e-19
-1.024397559e-18
1.256213636e-19
-1.642820722e-32
5.12351556e-20
7.243630854e-20
2.705438078e-20
2.136779545e-20
2.023218606e-20
1.122659829e-20
1.779743518e-20
1.125287888e-20
1.663520767e-20
1.347757616e-20
1.583961191e-20
1.547037225e-20
1.513823822e-20
1.643817527e-20
1.488002969e-20
1.62757472e-20
1.55756677e-20
1.497394234e-20
1.729122655e-20
1.24020591e-20
1.919232639e-20
8.480913581e-21
2.001942451e-20
3.662507617e-21
1.934453494e-20
-8.992453333e-22
1.935557985e-20
-3.97962565e-21
-6.385159808e-21
1.932042534e-19
-6.961593963e-20
2.035122175e-19
-1.771707323e-19
2.204220163e-19
-2.829129781e-19
2.46844891e-19
-3.967568775e-19
2.851447332e-19
-5.226001453e-19
3.37668564e-19
-6.622646629e-19
4.063869865e-19
-8.15720906e-19
4.917020929e-19
-9.796635753e-19
5.896201168e-19
-1.144811299e-18
6.855643001e-19
-1.292030118e-18
7.420418645e-19
-1.387647551e-18
6.821239927e-19
-1.37919078e-18
4.980634971e-19
-1.194474805e-18
-9.433158371e-20
-7.51622935e-19
-7.027048021e-20
1.782344448e-33
1.666431611e-22
1.993984327e-21
1.691318398e-20
4.613189446e-21
2.025846696e-20
7.872153656e-21
2.002213275e-20
1.148094133e-20
1.862800399e-20
1.486456361e-20
1.680741517e-20
1.728434184e-20
1.49758104e-20
1.826436755e-20
1.357822502e-20
1.767108018e-20
1.300378469e-20
1.555006891e-20
1.33700813e-20
1.204033902e-20
1.437392069e-20
7.482977992e-21
1.545767185e-20
2.582903405e-21
1.62641549e-20
-1.703936371e-21
1.695004598e-20
-4.66568668e-21
-6.051745428e-21
9.908839844e-20
-1.124203973e-19
9.623673457e-20
-1.99993027e-19
1.013743295e-19
-3.011553038e-19
1.142620066e-19
-4.181103399e-19
1.360823463e-19
-5.528933794e-19
1.687355599e-19
-7.076956428e-19
2.145316883e-19
-8.839206358e-19
2.753482636e-19
-1.080068368e-18
3.504615648e-19
-1.28791806e-18
4.31268612e-19
-1.486086655e-18
4.897699194e-19
-1.629317575e-18
4.617590846e-19
-1.6309666e-18
3.477471801e-19
-1.336139225e-18
-1.394295401e-19
-5.221830353e-19
-6.827649556e-20
1.944379322e-32
2.785848291e-21
-6.907438349e-20
2.017214811e-20
-1.278168249e-20
2.386725456e-20
4.168171619e-21
2.340575498e-20
1.193229921e-20
2.104778212e-20
1.721260138e-20
1.778744081e-20
2.053629159e-20
1.438252299e-20
2.166382988e-20
1.145721366e-20
2.059619194e-20
9.494054728e-21
1.75181647e-20
8.812720208e-21
1.272922611e-20
9.47384601e-21
6.827929764e-21
1.117083199e-20
8.93210276e-22
1.33024045e-20
-3.830481732e-21
1.556398716e-20
-6.926920566e-21
-7.030071663e-21
-1.069809297e-20
-1.57437258e-19
-2.176115211e-20
-2.173171804e-19
-2.832017555e-20
-3.086510786e-19
-3.189231978e-20
-4.234415635e-19
-3.230392863e-20
-5.610699665e-19
-2.845014646e-20
-7.238258513e-19
-1.806803757e-20
-9.147254255e-19
2.860992239e-21
-1.135142818e-18
4.142012691e-20
-1.381195453e-18
1.106155061e-19
-1.637985332e-18
2.355424996e-19
-1.870896274e-18
4.576215382e-19
-2.013562679e-18
6.096205248e-19
-1.953665685e-18
7.951105479e-19
-1.525270216e-18
1.30977274e-19
6.940290462e-33
5.907854922e-20
2.819809753e-21
3.712200218e-20
9.168675889e-21
3.163138209e-20
9.64755288e-21
2.868605714e-20
1.486701335e-20
2.437147226e-20
2.151694029e-20
1.891497907e-20
2.598376968e-20
1.331488505e-20
2.725989764e-20
8.379186382e-21
2.553410296e-20
4.705116138e-21
2.119901292e-20
2.911423866e-21
1.453036318e-20
3.539126507e-21
6.21215023e-21
6.44713998e-21
-2.008128683e-21
1.020596564e-20
-7.58292989e-21
1.546083605e-20
-1.217314979e-20
-1.556745517e-20
-1.354372808e-19
-1.699908832e-19
-1.471187296e-19
-2.188794926e-19
-1.637552814e-19
-3.009180231e-19
-1.854001192e-19
-4.089220663e-19
-2.125801444e-19
-5.419124904e-19
-2.457832427e-19
-7.024704465e-19
-2.848073725e-19
-8.949041013e-19
-3.276860939e-19
-1.123214792e-18
-3.68670264e-19
-1.388184143e-18
-3.946364708e-19
-1.682929752e-18
-3.791774588e-19
-1.98661856e-18
-2.761280977e-19
-2.25588146e-18
-1.186726426e-19
-2.411246032e-18
1.65658562e-19
-2.279894143e-18
1.97140762e-19
-1.073019284e-18
6.542741545e-20
1.345310693e-19
3.760087922e-20
3.699030711e-20
3.685084261e-20
1.03940016e-20
3.533598415e-20
1.63660318e-20
2.883830166e-20
2.799926689e-20
2.019110705e-20
3.462127689e-20
1.158909043e-20
3.586035008e-20
4.044096321e-21
3.308500753e-20
-1.963533589e-21
2.721495665e-20
-5.406789073e-21
1.798228138e-20
-4.681152411e-21
5.484944535e-21
8.723387876e-22
-7.542474681e-21
5.615745734e-21
-1.231002566e-20
1.206653072e-20
-1.863806727e-20
-5.667093426e-20
-2.511978309e-19
-1.644779638e-19
-2.676925842e-19
-2.055970145e-19
-2.956204504e-19
-2.770187607e-19
-3.365031937e-19
-3.731446572e-19
-3.927305995e-19
-4.930816253e-19
-4.675755539e-19
-6.393305179e-19
-5.648380206e-19
-8.164305806e-19
-6.883119989e-19
-1.029328062e-18
-8.410077461e-19
-1.280744404e-18
-1.024999431e-18
-1.56678404e-18
-1.244052585e-18
-1.86926208e-18
-1.513246216e-18
-2.141601549e-18
-1.857227441e-18
-2.279581815e-18
-2.033899151e-18
-2.049093751e-18
-1.788292274e-18
-8.72035746e-19
-9.545702465e-20
-3.737305427e-33
1.100457365e-20
-6.946889869e-20
4.282287282e-20
-2.145260642e-20
4.696921929e-20
1.219201831e-20
3.546031161e-20
3.948639032e-20
2.143018025e-20
4.864079673e-20
8.813747921e-21
4.847672987e-20
-1.825954614e-21
4.373062217e-20
-1.119620886e-20
3.65884469e-20
-1.790412592e-20
2.468408219e-20
-1.770857164e-20
5.330537551e-21
-3.89521219e-21
-2.131820231e-20
-7.122959081e-22
-1.549529629e-20
-1.185585598e-19
9.922657392e-20
-1.690416403e-19
-3.541721355e-19
-3.763015534e-19
-4.152521269e-19
-4.742608655e-19
-5.579422035e-19
-6.72621765e-19
-8.262906216e-19
-1.028031408e-18
-1.286613414e-18
-1.607398693e-18
-1.985666115e-18
-2.390249406e-18
-2.716719334e-18
-2.698843986e-18
-1.251333881e-18
-3.823856705e-20
5.902086589e-20
7.646749741e-20
7.426359125e-20
4.46147179e-20
2.126611335e-20
4.067640282e-21
-8.968129941e-21
-2.310057352e-20
-3.725767049e-20
-4.435731145e-20
1.927693822e-21
1.140095743e-19
3.25565439e-19
)
;

boundaryField
{
    lowerWall
    {
        type            calculated;
        value           nonuniform 0();
    }
    atmosphere
    {
        type            calculated;
        value           nonuniform List<scalar> 
20
(
-7.685940883e-19
-7.651045669e-19
-7.590276156e-19
-7.497520981e-19
-7.364782086e-19
-7.182718082e-19
-6.94106491e-19
-6.629149189e-19
-6.236464749e-19
-5.75333289e-19
-5.17178587e-19
-4.486985256e-19
-3.699829819e-19
-2.822470211e-19
-1.893578735e-19
-1.027126467e-19
3.698929739e-21
1.30946091e-19
2.458096161e-19
3.471625239e-19
)
;
    }
    rightWall
    {
        type            empty;
        value           nonuniform 0();
    }
    leftWall
    {
        type            empty;
        value           nonuniform 0();
    }
    frontAndBack
    {
        type            calculated;
        value           uniform 0;
    }
    procBoundary0to1
    {
        type            processor;
        value           nonuniform List<scalar> 
20
(
1.572273024e-20
1.628657234e-20
1.751419826e-20
1.964733452e-20
2.318705614e-20
2.91927901e-20
4.009427081e-20
6.209794462e-20
1.130856433e-19
-4.595162154e-20
-3.738692394e-19
-1.436920892e-20
5.08545697e-20
2.37209859e-20
1.661102361e-20
1.654219686e-20
2.399370548e-20
5.317866365e-20
-6.207150958e-21
-3.522362841e-19
)
;
    }
    procBoundary0to2
    {
        type            processor;
        value           nonuniform List<scalar> 
30
(
-1.462619192e-19
-1.797382318e-19
-2.383731281e-19
-3.175757252e-19
-4.162845248e-19
-5.361870916e-19
-6.808401653e-19
-8.543550214e-19
-1.059242803e-18
-1.292529337e-18
-1.539018462e-18
-1.759934114e-18
-1.876264171e-18
-1.755946163e-18
-1.296815305e-18
-4.318961181e-19
-1.667459026e-19
-3.892081507e-20
1.436419971e-20
6.910792615e-20
7.198297533e-20
6.568214801e-20
5.677554234e-20
5.072289415e-20
3.887277421e-20
1.247551138e-20
-6.755538816e-20
-1.275548129e-19
-1.123400826e-19
5.088032848e-19
)
;
    }
}


// ************************************************************************* //
