/*--------------------------------*- C++ -*----------------------------------*\
  =========                 |
  \\      /  F ield         | OpenFOAM: The Open Source CFD Toolbox
   \\    /   O peration     | Website:  https://openfoam.org
    \\  /    A nd           | Version:  6
     \\/     M anipulation  |
\*---------------------------------------------------------------------------*/
FoamFile
{
    version     2.0;
    format      ascii;
    class       volVectorField;
    location    "0.0021";
    object      U;
}
// * * * * * * * * * * * * * * * * * * * * * * * * * * * * * * * * * * * * * //

dimensions      [0 1 -1 0 0 0 0];

internalField   nonuniform List<vector> 
600
(
(0 1.152969085e-10 -9.717426863e-14)
(0 1.159631301e-10 -2.828588457e-13)
(0 1.169063117e-10 -4.401827221e-13)
(0 1.179544756e-10 -5.469720062e-13)
(0 1.189922259e-10 -5.786143819e-13)
(0 1.198424834e-10 -5.070033358e-13)
(0 1.202667207e-10 -2.994149457e-13)
(0 1.199561348e-10 8.043332686e-14)
(0 1.185238341e-10 6.696753652e-13)
(0 1.155033226e-10 1.498622333e-12)
(0 1.103647871e-10 2.578696379e-12)
(0 1.025627892e-10 3.884248359e-12)
(0 9.162227942e-11 5.335248745e-12)
(0 7.724922083e-11 6.792401978e-12)
(8.889857077e-53 5.941919286e-11 8.089622122e-12)
(5.91865589e-53 3.836968028e-11 9.119303669e-12)
(0 1.444131776e-11 9.941620584e-12)
(0 -1.214573033e-11 1.078094815e-11)
(0 -4.123093822e-11 1.170405857e-11)
(0 -7.189851099e-11 1.200182801e-11)
(0 -1.012084631e-10 1.017298178e-11)
(0 -1.244401344e-10 5.558073956e-12)
(0 -1.371747117e-10 -1.187402857e-12)
(0 -1.363822887e-10 -9.619435888e-12)
(0 -1.198992806e-10 -1.977539238e-11)
(0 -8.66365405e-11 -3.094679455e-11)
(0 -3.952441238e-11 -3.958741185e-11)
(0 1.020645764e-11 -4.007143977e-11)
(0 4.568487529e-11 -2.753932552e-11)
(0 1.179204762e-12 4.991550703e-25)
(0 1.147733452e-10 -3.008767161e-13)
(0 1.154977679e-10 -8.767338083e-13)
(0 1.165509083e-10 -1.369079261e-12)
(0 1.177684466e-10 -1.71253179e-12)
(0 1.190434157e-10 -1.834635428e-12)
(0 1.202090006e-10 -1.651637867e-12)
(0 1.210364391e-10 -1.066136878e-12)
(0 1.212218132e-10 3.176803589e-14)
(0 1.203710259e-10 1.756133415e-12)
(0 1.179885277e-10 4.205053308e-12)
(0 1.134829597e-10 7.423424587e-12)
(0 1.062095722e-10 1.134699984e-11)
(0 9.556918883e-11 1.573905128e-11)
(0 8.116770062e-11 2.016049162e-11)
(0 6.299376248e-11 2.405164611e-11)
(0 4.148842685e-11 2.700956518e-11)
(0 1.730384448e-11 2.92083632e-11)
(0 -9.332184446e-12 3.15408045e-11)
(0 -3.913945718e-11 3.463923884e-11)
(0 -7.26778137e-11 3.643422979e-11)
(0 -1.070018288e-10 3.148926416e-11)
(0 -1.355496088e-10 1.75713254e-11)
(0 -1.531250765e-10 -2.429881204e-12)
(0 -1.576330037e-10 -2.69843788e-11)
(0 -1.470298917e-10 -5.696166109e-11)
(0 -1.173148921e-10 -9.151689827e-11)
(0 -6.716000067e-11 -1.196404934e-10)
(0 -6.784913942e-12 -1.228528127e-10)
(0 4.263567435e-11 -8.507944638e-11)
(0 1.221492938e-12 5.495267673e-25)
(0 1.138619118e-10 -5.345594659e-13)
(0 1.146818787e-10 -1.562039546e-12)
(0 1.159130819e-10 -2.456010984e-12)
(0 1.174039752e-10 -3.111999908e-12)
(0 1.190616387e-10 -3.413480021e-12)
(0 1.20736602e-10 -3.224679115e-12)
(0 1.222177021e-10 -2.386034145e-12)
(0 1.232128548e-10 -7.134017095e-13)
(0 1.233238486e-10 1.992294714e-12)
(0 1.220193722e-10 5.91795732e-12)
(0 1.18619753e-10 1.117966267e-11)
(0 1.123195139e-10 1.772185688e-11)
(0 1.022892961e-10 2.517790664e-11)
(0 8.790271759e-11 3.275206634e-11)
(1.001492057e-52 6.908903104e-11 3.928036259e-11)
(6.889091609e-53 4.664259053e-11 4.372336584e-11)
(0 2.200775268e-11 4.621780074e-11)
(0 -4.087580431e-12 4.902688063e-11)
(0 -3.38271871e-11 5.519768772e-11)
(0 -7.1356767e-11 6.195139241e-11)
(0 -1.139907088e-10 5.581898727e-11)
(0 -1.506895766e-10 3.184310347e-11)
(0 -1.748642216e-10 -6.211144722e-13)
(0 -1.877192885e-10 -3.812020783e-11)
(0 -1.891895822e-10 -8.509395538e-11)
(0 -1.702123707e-10 -1.461445997e-10)
(0 -1.203140836e-10 -2.014733459e-10)
(0 -4.620539619e-11 -2.138282703e-10)
(0 2.580819496e-11 -1.511930529e-10)
(0 1.313564863e-12 6.454985719e-25)
(0 1.124707026e-10 -8.143952738e-13)
(0 1.134190591e-10 -2.388721805e-12)
(0 1.1488891e-10 -3.787965626e-12)
(0 1.167460484e-10 -4.874661145e-12)
(0 1.189167264e-10 -5.494666211e-12)
(0 1.212756614e-10 -5.467577592e-12)
(0 1.23638108e-10 -4.578500569e-12)
(0 1.257352285e-10 -2.572993642e-12)
(0 1.271785153e-10 8.394721734e-13)
(0 1.274132465e-10 5.961742787e-12)
(0 1.256684521e-10 1.304208273e-11)
(0 1.20929403e-10 2.212960043e-11)
(0 1.119977504e-10 3.282402701e-11)
(0 9.776358078e-11 4.395621381e-11)
(-1.130349753e-52 7.782973724e-11 5.342746385e-11)
(-7.570097875e-53 5.341799149e-11 5.87729505e-11)
(0 2.771265674e-11 5.926618277e-11)
(0 3.646310502e-12 5.932748354e-11)
(0 -2.269134003e-11 6.905400615e-11)
(0 -6.418688479e-11 8.853444829e-11)
(0 -1.194715609e-10 8.4936057e-11)
(0 -1.663831586e-10 4.720284779e-11)
(0 -1.955934678e-10 3.298790295e-12)
(0 -2.172876878e-10 -3.980111374e-11)
(0 -2.386207594e-10 -9.482515376e-11)
(0 -2.424309589e-10 -1.867171753e-10)
(0 -1.995769348e-10 -2.837309503e-10)
(0 -1.086624743e-10 -3.174171529e-10)
(0 -2.719700366e-12 -2.325530314e-10)
(0 1.473550082e-12 7.881597078e-25)
(0 1.104797622e-10 -1.154622129e-12)
(0 1.115825486e-10 -3.40018446e-12)
(0 1.133391384e-10 -5.440157848e-12)
(0 1.156361794e-10 -7.111943476e-12)
(0 1.184222335e-10 -8.233256592e-12)
(0 1.21600405e-10 -8.590407128e-12)
(0 1.250190099e-10 -7.926866267e-12)
(0 1.284450589e-10 -5.93115086e-12)
(0 1.31523735e-10 -2.22719565e-12)
(0 1.337160996e-10 3.622030263e-12)
(0 1.342062833e-10 1.206643858e-11)
(0 1.317833867e-10 2.341348742e-11)
(0 1.247628691e-10 3.746646796e-11)
(0 1.111615678e-10 5.287607152e-11)
(0 8.956428885e-11 6.634518538e-11)
(0 6.115260623e-11 7.257438181e-11)
(0 3.211888172e-11 6.732155523e-11)
(0 1.211194307e-11 5.621645915e-11)
(0 -2.532429345e-12 6.647810828e-11)
(0 -4.559795556e-11 1.157791259e-10)
(0 -1.201055072e-10 1.217950207e-10)
(0 -1.776371745e-10 5.788224708e-11)
(0 -2.036958532e-10 3.341418231e-12)
(0 -2.285748119e-10 -3.163033934e-11)
(0 -2.779940638e-10 -7.154038978e-11)
(0 -3.236652223e-10 -1.994065029e-10)
(0 -3.016012964e-10 -3.625741031e-10)
(0 -1.938825651e-10 -4.364259853e-10)
(0 -4.274966814e-11 -3.372071272e-10)
(0 1.739029228e-12 1.007650943e-24)
(0 1.077489157e-10 -1.566074192e-12)
(0 1.090232394e-10 -4.629494927e-12)
(0 1.110982503e-10 -7.469396956e-12)
(0 1.13883047e-10 -9.907363905e-12)
(0 1.173480055e-10 -1.174407904e-11)
(0 1.214228318e-10 -1.274730348e-11)
(0 1.259872285e-10 -1.263899906e-11)
(0 1.308480744e-10 -1.107759195e-11)
(0 1.357062636e-10 -7.632265351e-12)
(0 1.400983096e-10 -1.752172467e-12)
(0 1.43279732e-10 7.24569613e-12)
(0 1.440011042e-10 2.009467559e-11)
(0 1.401624664e-10 3.722296644e-11)
(0 1.285389024e-10 5.778841766e-11)
(0 1.053755366e-10 7.77384237e-11)
(0 6.972241133e-11 8.738423385e-11)
(0 3.083969642e-11 7.285628302e-11)
(0 1.507371809e-11 3.192033666e-11)
(0 2.878969757e-11 2.612630685e-11)
(0 -9.765111186e-12 1.412294782e-10)
(0 -1.123864331e-10 1.702242318e-10)
(0 -1.773217494e-10 5.011052298e-11)
(0 -1.832188779e-10 -1.270138795e-11)
(0 -1.956739367e-10 -2.087647798e-11)
(0 -2.761568618e-10 3.464474947e-12)
(0 -3.866593844e-10 -1.648654624e-10)
(0 -4.114104069e-10 -4.30811747e-10)
(0 -2.951077613e-10 -5.656719844e-10)
(0 -9.437611235e-11 -4.731275033e-10)
(0 2.189459246e-12 1.386707555e-24)
(0 1.041241931e-10 -2.055668709e-12)
(0 1.055770793e-10 -6.097554486e-12)
(0 1.079837356e-10 -9.911176276e-12)
(0 1.112752687e-10 -1.331163435e-11)
(0 1.154390455e-10 -1.609334959e-11)
(0 1.204209847e-10 -1.801961706e-11)
(0 1.261148119e-10 -1.88125406e-11)
(0 1.32345973e-10 -1.813685173e-11)
(0 1.388599971e-10 -1.556811946e-11)
(0 1.453053432e-10 -1.053231598e-11)
(0 1.511650285e-10 -2.207535506e-12)
(0 1.55518606e-10 1.058639535e-11)
(0 1.564157441e-10 2.934349288e-11)
(0 1.496752333e-10 5.508551852e-11)
(0 1.277034222e-10 8.540291243e-11)
(0 8.22117491e-11 1.071712032e-10)
(0 1.888726878e-11 8.821054306e-11)
(0 -7.76617025e-13 -1.475539752e-11)
(0 6.508919204e-11 -8.760894208e-11)
(0 3.412754903e-11 1.749314259e-10)
(0 -8.506194543e-11 2.566897424e-10)
(0 -1.419854333e-10 -7.121980662e-12)
(0 -1.177804102e-10 -6.110195046e-11)
(0 -1.039326451e-10 -3.589115784e-11)
(0 -1.918340413e-10 1.6994347e-10)
(0 -3.542629515e-10 -5.166520767e-11)
(0 -4.83860241e-10 -4.737996062e-10)
(0 -3.851635434e-10 -6.707173448e-10)
(0 -1.606044714e-10 -6.414914479e-10)
(0 3.007070296e-12 2.111279942e-24)
(0 9.944546492e-11 -2.626156566e-12)
(0 1.010734758e-10 -7.812636681e-12)
(0 1.038063942e-10 -1.277924522e-11)
(0 1.075962235e-10 -1.734308451e-11)
(0 1.124402074e-10 -2.12998743e-11)
(0 1.182830457e-10 -2.441564384e-11)
(0 1.249968741e-10 -2.642339062e-11)
(0 1.323634449e-10 -2.702013662e-11)
(0 1.400829899e-10 -2.585519587e-11)
(0 1.478287687e-10 -2.248623198e-11)
(0 1.553430721e-10 -1.624825923e-11)
(0 1.624655543e-10 -5.930293353e-12)
(0 1.686693705e-10 1.084151373e-11)
(0 1.710458487e-10 3.819610294e-11)
(0 1.591616567e-10 8.041912888e-11)
(0 1.102060028e-10 1.302634435e-10)
(0 -4.341250199e-13 1.385303254e-10)
(0 -3.584454707e-11 -5.900164727e-11)
(0 9.460949178e-11 -3.609977996e-10)
(0 8.494376942e-25 1.44969933e-11)
(0 -3.047326402e-24 9.856881804e-12)
(0 -1.251493274e-24 -4.289457775e-12)
(0 -1.101180293e-25 -2.731153132e-12)
(0 1.071009315e-24 -3.677980115e-12)
(0 2.784544925e-24 1.102872886e-11)
(0 -1.693701737e-24 1.589582012e-11)
(0 -4.303723002e-10 -4.804431918e-10)
(0 -3.824602268e-10 -6.596609771e-10)
(0 -2.703304185e-10 -8.148859137e-10)
(0 4.657345893e-12 3.142675274e-24)
(0 9.3555113e-11 -3.276247869e-12)
(0 9.534401422e-11 -9.770816824e-12)
(0 9.837945445e-11 -1.606743785e-11)
(0 1.026355618e-10 -2.19933622e-11)
(0 1.081161159e-10 -2.734915214e-11)
(0 1.147500981e-10 -3.189868024e-11)
(0 1.223471517e-10 -3.537038206e-11)
(0 1.30550458e-10 -3.747272786e-11)
(0 1.388233786e-10 -3.79293869e-11)
(0 1.465329432e-10 -3.653131925e-11)
(0 1.532433092e-10 -3.315522897e-11)
(0 1.593504804e-10 -2.754272846e-11)
(0 1.669080648e-10 -1.826564076e-11)
(0 1.791220616e-10 1.557264841e-13)
(0 1.92122174e-10 4.242322737e-11)
(0 1.716690094e-10 1.284442169e-10)
(0 -1.262549715e-11 2.596015684e-10)
(0 2.289465028e-24 -4.213845945e-12)
(0 -1.037839384e-11 -8.672419469e-12)
(0 -1.026772936e-11 1.850501793e-11)
(0 6.088936224e-12 1.384661649e-11)
(0 7.53657639e-12 -4.158267492e-12)
(0 6.114776588e-13 -2.95628744e-12)
(0 -6.364729333e-12 -2.883975774e-12)
(0 -5.301587064e-12 1.652315593e-11)
(0 9.095882305e-12 2.292807153e-11)
(0 8.979567017e-12 -1.480182803e-12)
(0 -7.774352425e-26 9.834756208e-12)
(0 -5.531440535e-10 -8.381530147e-10)
(0 8.481423204e-12 -2.272521122e-11)
(0 8.630793042e-11 -4.000782017e-12)
(0 8.823112785e-11 -1.195611517e-11)
(0 9.152415953e-11 -1.975057264e-11)
(0 9.619037028e-11 -2.723309917e-11)
(0 1.022491129e-10 -3.421322715e-11)
(0 1.096204161e-10 -4.043929437e-11)
(0 1.180412259e-10 -4.559026323e-11)
(0 1.269513113e-10 -4.929071908e-11)
(0 1.353694711e-10 -5.117732119e-11)
(0 1.418235574e-10 -5.107113551e-11)
(0 1.445338542e-10 -4.932795154e-11)
(0 1.423796655e-10 -4.736103863e-11)
(0 1.37724158e-10 -4.785746868e-11)
(0 1.425362136e-10 -5.27507695e-11)
(0 1.807626217e-10 -5.329234638e-11)
(0 2.824607592e-10 -2.363789156e-11)
(0 1.115998926e-11 1.113528854e-11)
(0 1.620296717e-11 -2.31129642e-12)
(0 2.594252349e-12 -9.853471773e-12)
(0 -2.356351033e-12 5.474959788e-12)
(0 2.212101859e-12 5.952366198e-12)
(0 3.321707374e-12 1.180523031e-12)
(0 1.27429172e-12 6.800230431e-13)
(0 -6.451679379e-13 2.378179461e-12)
(0 9.366600393e-13 8.61720536e-12)
(0 6.872048295e-12 1.049955606e-11)
(0 7.031296249e-12 4.432167091e-13)
(0 8.424600317e-12 1.487204069e-11)
(0 -1.611399863e-11 1.406729109e-12)
(0 -2.617158294e-11 -6.472928491e-11)
(0 7.758436611e-11 -4.791218246e-12)
(0 7.959914619e-11 -1.433927091e-11)
(0 8.30734728e-11 -2.377982195e-11)
(0 8.805418185e-11 -3.300624348e-11)
(0 9.460270471e-11 -4.18536015e-11)
(0 1.026737055e-10 -5.005182151e-11)
(0 1.119958607e-10 -5.718592539e-11)
(0 1.218828158e-10 -6.266470748e-11)
(0 1.309418727e-10 -6.572577862e-11)
(0 1.366331138e-10 -6.555746235e-11)
(0 1.346657885e-10 -6.172069862e-11)
(0 1.184812814e-10 -5.522003334e-11)
(0 8.003912091e-11 -5.053459492e-11)
(0 1.744206514e-11 -5.737570551e-11)
(1.908147197e-52 -4.845297768e-11 -7.036736666e-11)
(3.892490471e-52 -4.238546786e-12 2.571918127e-24)
(0 -2.311296268e-12 1.610456174e-11)
(0 3.886626612e-12 3.772665308e-12)
(0 2.158637986e-12 -6.022217041e-13)
(0 7.873327739e-13 2.545044437e-12)
(0 1.794499451e-12 3.307030397e-12)
(0 2.264233219e-12 2.247489515e-12)
(0 1.809134091e-12 2.117130365e-12)
(0 1.572453005e-12 3.098943378e-12)
(0 2.819789563e-12 5.067717427e-12)
(0 5.67266951e-12 5.258614047e-12)
(0 8.601276077e-12 2.593532125e-12)
(0 1.633734804e-11 3.591301715e-12)
(0 3.527405832e-11 -9.64099679e-12)
(0 -4.176210386e-12 -3.210488617e-11)
(0 6.731178647e-11 -5.638575822e-12)
(0 6.935394688e-11 -1.687642978e-11)
(0 7.288227787e-11 -2.806949154e-11)
(0 7.80064789e-11 -3.920132095e-11)
(0 8.48669309e-11 -5.017593296e-11)
(0 9.352306904e-11 -6.073964473e-11)
(0 1.038327013e-10 -7.040126704e-11)
(0 1.152545359e-10 -7.832360931e-11)
(0 1.26512457e-10 -8.317773101e-11)
(0 1.349843847e-10 -8.296996023e-11)
(0 1.35490482e-10 -7.48891506e-11)
(0 1.177687673e-10 -5.536205783e-11)
(0 6.089703605e-11 -2.092647765e-11)
(0 -6.823923718e-11 2.667581304e-11)
(0 -3.521272128e-10 8.719286692e-11)
(0 -8.770825274e-12 -1.055703028e-11)
(0 -9.94273217e-12 2.339498505e-12)
(0 -5.038159798e-13 1.899967531e-12)
(0 1.366631485e-12 1.127029218e-12)
(0 1.552901059e-12 2.000365422e-12)
(0 1.914546939e-12 2.483015842e-12)
(0 2.131807346e-12 2.384912681e-12)
(0 2.125745581e-12 2.44150458e-12)
(0 2.305419116e-12 2.83246282e-12)
(0 3.096330702e-12 3.296041112e-12)
(0 4.397862999e-12 2.874377026e-12)
(0 5.36398392e-12 1.081707664e-12)
(0 4.619489553e-12 -1.889478808e-12)
(0 -6.810187769e-12 -1.166935296e-11)
(0 -9.696210796e-12 1.225717554e-11)
(0 5.550362541e-11 -6.54685055e-12)
(0 5.74808574e-11 -1.951510301e-11)
(0 6.085717856e-11 -3.247957552e-11)
(0 6.583026612e-11 -4.560147527e-11)
(0 7.264592417e-11 -5.892800297e-11)
(0 8.151531056e-11 -7.230006991e-11)
(0 9.253279361e-11 -8.525988252e-11)
(0 1.055579628e-10 -9.690366016e-11)
(0 1.200608736e-10 -1.056632056e-10)
(0 1.349709531e-10 -1.090164366e-10)
(0 1.48649519e-10 -1.031430895e-10)
(0 1.592845745e-10 -8.268725103e-11)
(0 1.642308661e-10 -4.191211139e-11)
(0 1.752284863e-10 1.18757283e-11)
(0 1.431835699e-11 8.878169929e-25)
(0 1.822556311e-11 -1.070300907e-11)
(0 5.394925685e-12 -2.840322896e-12)
(0 2.674157352e-12 3.606625666e-13)
(0 2.259035885e-12 1.20998562e-12)
(0 2.143319399e-12 1.846252701e-12)
(0 2.179046711e-12 2.239532798e-12)
(0 2.222721958e-12 2.367317254e-12)
(0 2.256684231e-12 2.431064235e-12)
(0 2.426989536e-12 2.492941788e-12)
(0 2.861703767e-12 2.409822445e-12)
(0 3.45833606e-12 1.86162818e-12)
(0 3.837420245e-12 7.482259467e-13)
(0 3.586287441e-12 -5.614743884e-13)
(0 2.935713197e-12 -9.189666155e-13)
(0 5.119604562e-12 2.206805115e-12)
(0 4.234208466e-11 -7.581170164e-12)
(0 4.410770305e-11 -2.222160103e-11)
(0 4.700931991e-11 -3.68061619e-11)
(0 5.137882214e-11 -5.18391895e-11)
(0 5.755958351e-11 -6.759500419e-11)
(0 6.588537762e-11 -8.408774119e-11)
(0 7.664084315e-11 -1.010148884e-10)
(0 8.998619804e-11 -1.176186515e-10)
(0 1.058512107e-10 -1.324971164e-10)
(0 1.238705832e-10 -1.43473076e-10)
(0 1.436065353e-10 -1.477489673e-10)
(0 1.657793505e-10 -1.426206542e-10)
(0 1.931102241e-10 -1.263442215e-10)
(0 2.543017411e-10 -9.0794128e-11)
(0 9.421602367e-12 -2.803804156e-24)
(0 1.326423908e-11 5.286744355e-12)
(0 5.871715287e-12 1.392036463e-12)
(0 3.546492549e-12 1.17280569e-12)
(0 2.852221622e-12 1.505752918e-12)
(0 2.582448239e-12 1.93481477e-12)
(0 2.435611493e-12 2.261193761e-12)
(0 2.323338783e-12 2.413424485e-12)
(0 2.251370116e-12 2.42221371e-12)
(0 2.284177327e-12 2.2982929e-12)
(0 2.465017093e-12 1.988874892e-12)
(0 2.736266498e-12 1.41462907e-12)
(0 2.940881346e-12 6.11338967e-13)
(0 2.952296988e-12 -1.854217496e-13)
(0 2.902508638e-12 -5.958114825e-13)
(0 3.230742463e-12 -6.30069894e-13)
(0 2.840723503e-11 -9.040402204e-12)
(0 2.957377953e-11 -2.504462919e-11)
(0 3.149627308e-11 -4.078517193e-11)
(0 3.466308354e-11 -5.739014982e-11)
(0 3.943558314e-11 -7.538925348e-11)
(0 4.617076226e-11 -9.498874536e-11)
(0 5.521801445e-11 -1.160831552e-10)
(0 6.68200557e-11 -1.38086584e-10)
(0 8.084707516e-11 -1.596438905e-10)
(0 9.618021622e-11 -1.783198235e-10)
(0 1.093587867e-10 -1.904842581e-10)
(0 1.117874656e-10 -1.916896292e-10)
(0 8.584895448e-11 -1.771152913e-10)
(0 -5.117728304e-12 -1.316734021e-10)
(0 -5.270285989e-12 -1.314716841e-24)
(0 -5.257787752e-12 5.582271964e-12)
(0 1.280987029e-12 1.948573868e-12)
(0 2.787873807e-12 1.432406395e-12)
(0 3.021044963e-12 1.705036515e-12)
(0 2.898760241e-12 2.125660485e-12)
(0 2.657656424e-12 2.456603555e-12)
(0 2.383741906e-12 2.60269071e-12)
(0 2.141552646e-12 2.546012056e-12)
(0 1.993650719e-12 2.289300843e-12)
(0 1.978039939e-12 1.833179858e-12)
(0 2.080800138e-12 1.197291869e-12)
(0 2.237369429e-12 4.684058264e-13)
(0 2.379136994e-12 -1.952386277e-13)
(0 2.491065054e-12 -6.483984254e-13)
(0 2.517080207e-12 -9.327678922e-13)
(0 1.540864315e-11 -1.184047758e-11)
(0 1.432900663e-11 -2.809362709e-11)
(0 1.455393989e-11 -4.406636193e-11)
(0 1.588096202e-11 -6.160458352e-11)
(0 1.843174257e-11 -8.134773149e-11)
(0 2.244431706e-11 -1.036365087e-10)
(0 2.825389165e-11 -1.285684599e-10)
(0 3.622098012e-11 -1.557404716e-10)
(0 4.654301778e-11 -1.83728948e-10)
(0 5.87606568e-11 -2.092404371e-10)
(0 7.055585664e-11 -2.258270474e-10)
(0 7.506751876e-11 -2.222399176e-10)
(0 5.67931549e-11 -1.817468735e-10)
(0 -1.935453945e-11 -9.496618509e-11)
(0 -5.120737165e-12 1.848362032e-24)
(0 -4.911798543e-12 -5.031029937e-12)
(0 1.721849729e-12 -6.12636979e-13)
(0 3.302955199e-12 9.030243952e-13)
(0 3.545475713e-12 1.755993039e-12)
(0 3.33401528e-12 2.405787377e-12)
(0 2.912641718e-12 2.836547506e-12)
(0 2.412747284e-12 2.994614806e-12)
(0 1.937980248e-12 2.870045412e-12)
(0 1.571345129e-12 2.48011752e-12)
(0 1.373008119e-12 1.857717384e-12)
(0 1.371492466e-12 1.073318083e-12)
(0 1.54835085e-12 2.607085259e-13)
(0 1.835492736e-12 -4.150813575e-13)
(0 2.164979374e-12 -8.694455444e-13)
(0 2.4079638e-12 -9.811362813e-13)
(0 -5.551990869e-13 -2.187997452e-11)
(0 -2.653888641e-12 -3.18876048e-11)
(0 -3.870345149e-12 -4.6251119e-11)
(0 -4.617727993e-12 -6.378475534e-11)
(0 -4.933727902e-12 -8.44593638e-11)
(0 -4.726469959e-12 -1.085908333e-10)
(0 -3.75217335e-12 -1.365051509e-10)
(0 -1.563176843e-12 -1.681658181e-10)
(0 2.623503635e-12 -2.025733503e-10)
(0 1.022381713e-11 -2.367675402e-10)
(0 2.397655019e-11 -2.642308414e-10)
(0 4.960688883e-11 -2.725881973e-10)
(0 9.657238617e-11 -2.414121216e-10)
(0 2.004988963e-10 -1.491292984e-10)
(0 9.823295558e-12 3.149526979e-24)
(0 1.425418675e-11 -4.96909303e-12)
(0 7.215041362e-12 -2.709754956e-13)
(0 5.156503826e-12 1.036179337e-12)
(0 4.523807947e-12 2.009948441e-12)
(0 3.979314709e-12 2.904715629e-12)
(0 3.246483853e-12 3.489004594e-12)
(0 2.417239812e-12 3.669279562e-12)
(0 1.627055359e-12 3.45977212e-12)
(0 9.8132269e-13 2.90378832e-12)
(0 5.712405008e-13 2.044469196e-12)
(0 4.837912784e-13 9.780060005e-13)
(0 7.489699872e-13 -8.36188805e-14)
(0 1.248982923e-12 -8.560058712e-13)
(0 1.925010129e-12 -1.432505279e-12)
(0 2.959090618e-12 -1.694814512e-12)
(0 -1.964463912e-11 -2.534306499e-11)
(0 -2.100026061e-11 -3.328853423e-11)
(0 -2.314126704e-11 -4.631017575e-11)
(0 -2.599615222e-11 -6.319535293e-11)
(0 -2.963149785e-11 -8.378550142e-11)
(0 -3.414322395e-11 -1.084491628e-10)
(0 -3.957734605e-11 -1.377618116e-10)
(0 -4.581695854e-11 -1.721682018e-10)
(0 -5.236609112e-11 -2.114962511e-10)
(0 -5.793703373e-11 -2.542155804e-10)
(0 -5.971418717e-11 -2.963535549e-10)
(0 -5.212917693e-11 -3.297970278e-10)
(0 -2.687111253e-11 -3.382532847e-10)
(0 3.999953679e-11 -2.777427116e-10)
(0 1.478555714e-11 -6.597692108e-25)
(0 1.96926133e-11 1.030131593e-11)
(0 7.727122096e-12 3.461923727e-12)
(0 5.583879134e-12 1.503116585e-12)
(0 5.414012004e-12 2.342478386e-12)
(0 4.813071433e-12 3.713715543e-12)
(0 3.677205651e-12 4.545378491e-12)
(0 2.38351481e-12 4.734018577e-12)
(0 1.172489006e-12 4.396433291e-12)
(0 1.560422048e-13 3.631047716e-12)
(0 -5.527741994e-13 2.438448341e-12)
(0 -7.565956109e-13 8.772821082e-13)
(0 -2.856610216e-13 -7.162952519e-13)
(0 4.866063389e-13 -1.491971665e-12)
(0 1.326170733e-12 -2.310841282e-12)
(0 4.893389575e-12 -5.417879205e-12)
(0 -3.687650783e-11 -2.564574082e-11)
(0 -3.851135226e-11 -3.235594e-11)
(0 -4.181334241e-11 -4.392968029e-11)
(0 -4.690451873e-11 -5.942570759e-11)
(0 -5.408146199e-11 -7.870470699e-11)
(0 -6.37779383e-11 -1.021689369e-10)
(0 -7.65391973e-11 -1.305261678e-10)
(0 -9.296151275e-11 -1.645155255e-10)
(0 -1.135891315e-10 -2.044979943e-10)
(0 -1.388126449e-10 -2.498069996e-10)
(0 -1.69000719e-10 -2.977232741e-10)
(0 -2.055305588e-10 -3.418045202e-10)
(0 -2.545019725e-10 -3.689241608e-10)
(0 -3.272511972e-10 -3.525959836e-10)
(0 -4.661144192e-10 -2.630905024e-10)
(0 -7.159276845e-12 1.008983019e-11)
(0 -6.333933822e-12 -2.43589437e-12)
(0 4.037058483e-12 -8.293953616e-13)
(0 6.734406905e-12 2.141853757e-12)
(0 6.182214815e-12 5.061424296e-12)
(0 4.266786888e-12 6.244655519e-12)
(0 2.268294612e-12 6.325280993e-12)
(0 5.240844977e-13 5.761172233e-12)
(0 -9.766622599e-13 4.785255263e-12)
(0 -2.182525107e-12 3.199977266e-12)
(0 -2.670952316e-12 8.111611573e-13)
(0 -1.620283787e-12 -2.164550773e-12)
(0 -3.455631072e-13 -2.085399145e-12)
(0 -8.945314177e-12 6.044138005e-12)
(0 -9.357428305e-12 -1.692844308e-11)
(0 -5.208168238e-11 -2.369060524e-11)
(0 -5.421089215e-11 -2.930516982e-11)
(0 -5.870781088e-11 -3.914375853e-11)
(0 -6.591838148e-11 -5.246558453e-11)
(0 -7.642231868e-11 -6.914118251e-11)
(0 -9.103878209e-11 -8.951181974e-11)
(0 -1.108514422e-10 -1.142257948e-10)
(0 -1.371767325e-10 -1.440131393e-10)
(0 -1.714378965e-10 -1.793094191e-10)
(0 -2.148750818e-10 -2.195837115e-10)
(0 -2.679438666e-10 -2.621270116e-10)
(0 -3.289338397e-10 -2.998676317e-10)
(0 -3.903182007e-10 -3.176420859e-10)
(0 -4.266968258e-10 -2.872054872e-10)
(0 -3.769259624e-10 -1.776609918e-10)
(0 -2.867892531e-12 -2.47960938e-24)
(0 1.558672415e-12 -1.771611011e-11)
(0 1.016162726e-11 -4.52800661e-12)
(0 1.130483166e-11 1.99171635e-12)
(0 8.915873196e-12 8.144573743e-12)
(0 4.941062349e-12 9.0467829e-12)
(0 1.900031524e-12 8.561915836e-12)
(0 -3.675367248e-13 7.537962346e-12)
(0 -2.405152762e-12 6.548350575e-12)
(0 -4.526868306e-12 4.766764228e-12)
(0 -6.121123652e-12 1.335453671e-12)
(0 -3.182221325e-12 -6.665519282e-12)
(0 8.695295116e-12 -1.072875818e-11)
(0 3.296812602e-11 -9.835131549e-13)
(0 -2.000313388e-12 2.548212332e-11)
)
;

boundaryField
{
    lowerWall
    {
        type            slip;
    }
    atmosphere
    {
        type            pressureInletOutletVelocity;
        tangentialVelocity uniform (0 0 0);
        value           nonuniform List<vector> 
20
(
(0 1.152969085e-10 0)
(0 1.147733452e-10 0)
(0 1.138619118e-10 0)
(0 1.124707026e-10 0)
(0 1.104797622e-10 0)
(0 1.077489157e-10 0)
(0 1.041241931e-10 0)
(0 9.944546492e-11 0)
(0 9.3555113e-11 0)
(0 8.630793042e-11 0)
(0 7.758436611e-11 0)
(0 6.731178647e-11 0)
(0 5.550362541e-11 0)
(0 4.234208466e-11 0)
(0 2.840723503e-11 0)
(0 1.540864315e-11 0)
(0 -5.551990869e-13 -2.187997452e-11)
(0 -1.964463912e-11 -2.534306499e-11)
(0 -3.687650783e-11 -2.564574082e-11)
(0 -5.208168238e-11 -2.369060524e-11)
)
;
    }
    rightWall
    {
        type            empty;
    }
    leftWall
    {
        type            empty;
    }
    frontAndBack
    {
        type            slip;
    }
    procBoundary0to1
    {
        type            processor;
        value           nonuniform List<vector> 
20
(
(0 2.316669972e-12 4.228817567e-14)
(0 2.39376844e-12 1.343601009e-13)
(0 2.559790378e-12 2.520571442e-13)
(0 2.842183069e-12 4.254643662e-13)
(0 3.293692325e-12 7.159091683e-13)
(0 4.01251777e-12 1.268041069e-12)
(0 5.182309609e-12 2.467886653e-12)
(0 7.140876869e-12 5.474352936e-12)
(0 1.044035708e-11 1.417106982e-11)
(0 -6.769250141e-12 2.056890044e-11)
(0 -3.772056132e-11 2.083599904e-12)
(0 -4.364029174e-12 -1.406873158e-11)
(0 3.883410776e-12 -8.116625194e-12)
(0 2.383357679e-12 -3.198335852e-12)
(0 1.938082231e-12 -1.471177091e-12)
(0 1.990021341e-12 -4.274351308e-13)
(0 2.609210985e-12 1.052920504e-12)
(0 4.521233892e-12 5.4972516e-12)
(0 -2.823596344e-12 1.084562865e-11)
(0 -3.439050801e-11 -5.706955759e-12)
)
;
    }
    procBoundary0to2
    {
        type            processor;
        value           nonuniform List<vector> 
30
(
(0 -6.481692169e-11 -2.018164069e-11)
(0 -6.738173261e-11 -2.460243411e-11)
(0 -7.285034491e-11 -3.234221867e-11)
(0 -8.17351947e-11 -4.276627866e-11)
(0 -9.485701384e-11 -5.568123448e-11)
(0 -1.133660278e-10 -7.12502653e-11)
(0 -1.387959928e-10 -8.988584941e-11)
(0 -1.730341198e-10 -1.120871139e-10)
(0 -2.181260767e-10 -1.381683557e-10)
(0 -2.757469393e-10 -1.677900055e-10)
(0 -3.459953653e-10 -1.992123853e-10)
(0 -4.247748791e-10 -2.282743721e-10)
(0 -4.983155271e-10 -2.475278316e-10)
(0 -5.324471827e-10 -2.4699661e-10)
(0 -4.619107403e-10 -2.206383804e-10)
(0 -1.684655132e-10 -1.578705847e-10)
(0 1.401344648e-11 -1.25059427e-11)
(0 2.374488489e-11 -1.558672384e-12)
(0 1.940698725e-11 2.207816995e-12)
(0 1.323728136e-11 1.647851632e-11)
(0 4.684128981e-12 1.323690253e-11)
(0 7.594740574e-13 1.133884152e-11)
(0 -1.489480763e-12 9.281034122e-12)
(0 -3.747860377e-12 9.103408614e-12)
(0 -7.39542201e-12 7.984685201e-12)
(0 -1.410323583e-11 6.431316445e-12)
(0 -1.368449564e-11 -1.510404687e-11)
(0 -3.092975449e-12 -2.47501756e-11)
(0 -1.773443139e-11 -8.425506206e-12)
(0 -1.883164618e-11 5.715708208e-11)
)
;
    }
}


// ************************************************************************* //
