/*--------------------------------*- C++ -*----------------------------------*\
  =========                 |
  \\      /  F ield         | OpenFOAM: The Open Source CFD Toolbox
   \\    /   O peration     | Website:  https://openfoam.org
    \\  /    A nd           | Version:  10
     \\/     M anipulation  |
\*---------------------------------------------------------------------------*/
FoamFile
{
    format      ascii;
    class       surfaceScalarField;
    location    "0.0004";
    object      alphaPhi.metal;
}
// * * * * * * * * * * * * * * * * * * * * * * * * * * * * * * * * * * * * * //

dimensions      [0 3 -1 0 0 0 0];

internalField   nonuniform List<scalar> 
7080
(
-3.281192552e-30
-8.161543956e-31
-2.842376838e-30
-1.589390531e-30
-2.695648134e-30
-1.537472154e-30
-2.643289786e-30
-1.488368091e-30
-3.81700299e-30
-2.622965385e-31
-9.035341015e-30
-2.344603571e-31
-1.066734357e-28
-1.471133702e-29
-3.922337015e-28
-2.011836991e-28
-6.183663653e-28
-5.252700239e-28
-8.938621733e-28
-4.353300953e-28
-7.418609721e-28
-3.092476813e-28
-5.895100309e-28
-2.96719239e-28
-5.464379936e-28
-2.401983034e-28
-5.382477024e-28
-2.053165572e-28
-6.362592184e-28
-9.911475e-29
-1.723515052e-27
-4.903860161e-29
-1.595345536e-26
-1.327772154e-27
-9.640647228e-26
-1.210175861e-26
-3.30494791e-25
-1.270671224e-25
-6.296086892e-25
-4.390708998e-25
-1.015958534e-24
-7.222124709e-25
-1.181494101e-24
-1.510849164e-24
-1.94476401e-24
-1.465779646e-24
-9.204592094e-24
0
-3.194287214e-23
-4.191080509e-25
-4.431085486e-23
-2.866606733e-23
-4.248803521e-23
-4.153457312e-23
-3.42151076e-23
-4.519579925e-23
-1.571067328e-23
-3.334045954e-23
-4.492007774e-24
-1.448848776e-23
-1.154336173e-24
-4.316892551e-24
-2.170252734e-25
-1.206760237e-24
-2.336777813e-26
-2.625836024e-25
-7.82575654e-28
-3.340617507e-26
-2.463802744e-33
-1.396342227e-27
-1.931940284e-33
-1.709187851e-33
-2.199877484e-33
-9.0938819e-34
0
-1.594684353e-31
0
-2.560897496e-28
3.277456368e-22
-5.609958433e-24
3.317832733e-21
-1.386987925e-21
3.229480897e-21
8.83518397e-23
3.057532227e-21
1.719481342e-22
2.813236333e-21
2.442947342e-22
2.511090357e-21
3.021443096e-22
2.167186585e-21
3.439016877e-22
1.797594639e-21
3.695894942e-22
1.417103078e-21
3.804887524e-22
1.0384195e-21
3.786803909e-22
6.7179815e-22
3.666177367e-22
3.24999663e-22
3.467943898e-22
3.471780808e-24
3.215232482e-22
-2.893475172e-22
2.928140957e-22
-5.516789274e-22
2.623256294e-22
-7.830522329e-22
2.313669447e-22
-9.839868997e-22
2.009277354e-22
-1.15571648e-21
1.717221283e-22
-1.299960669e-21
1.442363116e-22
-1.418743016e-21
1.187741643e-22
9.549768783e-23
-3.75050538e-27
-4.464034039e-27
-9.719834875e-28
-1.862385153e-27
-2.829499146e-28
-3.219930302e-28
-1.269742322e-29
-2.726693828e-28
-1.817541771e-29
-6.224115014e-31
-6.87642676e-28
-5.23863493e-30
-2.496107979e-26
-1.930129497e-28
-3.044474927e-25
-1.057258864e-26
-1.148168451e-24
-2.09210957e-25
-1.293443547e-24
-1.132605923e-24
-1.008712706e-24
-1.089555965e-24
-2.476104119e-25
-5.566163057e-25
-5.031388625e-27
-7.687513925e-26
-5.129340895e-27
-3.044905529e-28
-1.262458212e-26
0
-2.767128108e-25
-2.769561059e-27
-4.452292241e-24
-2.080055857e-25
-5.265112755e-23
-2.201071573e-24
-3.998661034e-22
-1.081445699e-23
-1.272258017e-21
-3.06704359e-22
-1.191219193e-21
-1.813584797e-21
-8.296782921e-22
-1.813624891e-21
-1.461286402e-22
-1.793115891e-21
-3.066500013e-22
0
-6.886603697e-22
0
-1.104648106e-21
-2.037162221e-24
-1.092592214e-21
-3.052557844e-22
-8.304751721e-22
-4.118505851e-22
-3.541511224e-22
-2.679203291e-22
-9.919252349e-23
-1.344115377e-22
-2.458044952e-23
-4.326143667e-23
-5.439640199e-24
-1.180821804e-23
-7.240448948e-25
-3.218741284e-24
-3.270077625e-26
-4.875641675e-25
-1.647245402e-32
-2.829430411e-26
-2.806785114e-33
-1.655218214e-32
-1.579955328e-33
-3.700843863e-33
0
-4.106450956e-31
0
-6.448051345e-28
4.533115494e-22
-7.043543994e-24
3.408360082e-21
-2.812259433e-21
3.313060601e-21
1.836502694e-22
3.129878827e-21
3.551278206e-22
2.871085909e-21
5.030846825e-22
2.552847735e-21
6.203787919e-22
2.192874391e-21
7.0387069e-22
1.808493897e-21
7.539649982e-22
1.415294716e-21
7.736822434e-22
1.026356845e-21
7.676117884e-22
6.519748028e-22
7.409924264e-22
2.997285211e-22
6.990323595e-22
-2.523737202e-23
6.464798192e-22
-3.198359839e-22
5.874023478e-22
-5.826376124e-22
5.25115863e-22
-8.134914425e-22
4.62208396e-22
-1.013192507e-21
4.006155329e-22
-1.183202297e-21
3.417179126e-22
-1.325422817e-21
2.864423302e-22
-1.442019493e-21
2.353560826e-22
1.887499117e-22
-8.167612913e-24
-4.36753452e-24
-5.878870464e-24
-4.774472103e-24
-1.785605392e-24
-2.685645584e-24
-4.928411515e-26
-9.270138053e-25
-1.326512731e-26
0
-1.552051055e-26
0
-1.154385149e-25
0
-2.160707393e-24
-1.538877218e-26
-2.211040042e-23
-4.099700984e-25
-1.128989122e-22
-3.820362918e-24
-2.797393359e-22
-4.64042233e-23
-2.484959973e-22
-2.75908731e-22
-1.971275194e-23
-3.889734501e-23
-8.819183981e-24
0
-1.073195534e-23
0
-2.533152954e-23
0
-3.431787208e-22
0
-2.506319853e-21
-1.786352187e-21
-1.277447004e-20
-1.338775553e-21
-2.985449612e-20
-4.908967825e-21
-4.415954371e-20
-8.228824362e-21
-5.478842553e-20
-1.506010607e-20
-7.288671196e-20
-2.341858783e-20
-6.088291686e-20
-8.042718852e-20
-3.722205324e-21
-1.29204294e-19
-2.735957182e-21
0
-2.633160864e-21
-1.725054398e-24
-1.909019806e-21
-3.806998239e-22
-7.849066794e-22
-1.262914039e-22
-2.273416306e-22
-1.645055575e-22
-5.686982591e-23
-5.878305378e-23
-1.428018234e-23
-1.766244511e-23
-2.202279214e-24
-5.321401421e-24
-1.226584416e-25
-9.047213186e-25
-3.170492547e-30
-5.853523082e-26
-8.010674658e-32
-4.670864563e-30
-4.193562035e-32
-1.268158952e-30
0
-9.45890392e-31
0
-1.153875377e-27
3.970802788e-22
-9.65982291e-24
3.592421055e-21
-4.321108278e-21
3.48453385e-21
2.915366341e-22
3.277835689e-21
5.618244142e-22
2.988380018e-21
7.92538178e-22
2.636339633e-21
9.724164768e-22
2.2429687e-21
1.097238402e-21
1.828211142e-21
1.168718767e-21
1.409224261e-21
1.192664697e-21
9.997374834e-22
1.177093418e-21
6.10014736e-22
1.130709217e-21
2.471759808e-22
1.061864276e-21
-8.431484337e-23
9.779628685e-22
-3.821224687e-22
8.852012303e-22
-6.455450794e-22
7.885287678e-22
-8.750843057e-22
6.917370037e-22
-1.072090127e-21
5.976099177e-22
-1.238477879e-21
5.080935582e-22
-1.376509065e-21
4.244608273e-22
-1.488625664e-21
3.47459332e-22
2.774377533e-22
-5.34679463e-22
-1.813903532e-23
-1.011631492e-21
-1.406398278e-22
-1.036446883e-21
-5.076697159e-22
-1.874368902e-22
-1.031056653e-21
-4.251668645e-23
0
-4.875237172e-23
0
-4.061761326e-23
0
-9.819621014e-24
-3.297532837e-23
-1.988183496e-23
-1.072287877e-23
-2.170153041e-22
-5.450688904e-24
-2.36801151e-21
-1.43637398e-23
-1.036525737e-20
-6.410553426e-23
-1.300838256e-20
-2.699917837e-21
-1.202550401e-20
0
-2.039816696e-20
0
-1.457847064e-20
0
-2.217862301e-20
0
-9.618036221e-20
0
-9.826456851e-20
-4.889845281e-20
-6.83728277e-20
-2.504808011e-20
-7.869406158e-20
-1.750021017e-21
-5.824378107e-20
-1.414782819e-20
-1.300480078e-20
-1.209094533e-20
-4.462254195e-19
-2.174992082e-20
-1.719635804e-18
-4.131658127e-19
-1.057610107e-19
-3.579956905e-18
-6.546985571e-21
-9.885415766e-20
-2.192703564e-21
-3.988284277e-21
-6.805479177e-22
0
-2.084409616e-22
0
-5.757242581e-23
-3.460919922e-23
-1.617862088e-23
-1.100149893e-23
-2.894437808e-24
-3.532041542e-24
-1.714039677e-25
-6.513112723e-25
-1.718708451e-27
-4.882654487e-26
-1.018473388e-29
-1.445499231e-27
-9.865280804e-31
-1.650719152e-29
0
-2.825543636e-30
0
-1.820809991e-27
4.337392463e-22
-1.235891961e-23
3.884483297e-21
-5.956188256e-21
3.754826569e-21
4.211926785e-22
3.508549452e-21
8.081003243e-22
3.168258317e-21
1.132827652e-21
2.761161558e-21
1.37951112e-21
2.314449065e-21
1.543948266e-21
1.852157073e-21
1.631007535e-21
1.393652982e-21
1.651164883e-21
9.533532829e-22
1.617388442e-21
5.411697945e-22
1.542887175e-21
1.632745734e-22
1.439753035e-21
-1.770764815e-22
1.31830647e-21
-4.787949312e-22
1.186911207e-21
-7.423368434e-22
1.052061231e-21
-9.692113917e-22
9.186012087e-22
-1.161606487e-21
7.899938454e-22
-1.32211061e-21
6.685857592e-22
-1.45351056e-21
5.558480124e-22
-1.558647243e-21
4.525822501e-22
3.590909785e-22
-1.177817584e-21
-6.05533641e-24
-6.329085144e-21
-9.522903229e-24
-1.92009155e-20
-2.016659685e-23
-3.313653967e-20
-5.429864983e-22
-3.920067879e-20
0
-6.87367709e-20
0
-6.093300904e-20
0
-1.097494409e-20
-5.001542758e-20
-6.530877842e-23
-1.092474241e-20
-2.033010094e-22
-7.146555605e-23
-1.515604512e-22
-1.793968654e-23
-2.061890737e-22
-1.489146884e-23
-3.016796677e-19
-3.252632692e-21
-3.744943446e-18
0
-3.290267398e-17
0
-2.934073021e-17
-8.413538796e-17
-4.293860118e-19
-1.879369044e-17
-4.122071059e-19
0
-1.761239292e-19
-7.642560694e-22
-3.83960304e-20
-1.022851552e-21
-4.411273368e-20
-1.111259746e-21
-2.557861298e-20
-2.092046498e-21
-5.241643365e-21
-1.616665401e-21
0
-1.690366711e-21
-1.77448362e-18
-4.139813204e-20
-2.51527561e-17
-6.769101046e-19
-1.460247536e-18
-5.532488062e-17
-6.52097506e-19
-8.127430384e-19
-5.871816138e-20
-5.93219881e-19
-7.445828935e-21
-5.10473066e-20
-3.050609308e-21
-4.28597226e-21
-9.300642692e-22
-2.11353026e-21
-2.266977153e-22
-7.017635261e-22
-9.536384772e-24
-2.193470549e-22
-9.040047827e-25
-8.57253446e-24
-3.384881142e-27
-9.163683178e-25
-6.413345652e-30
-3.416925522e-27
0
-6.660611211e-29
0
-4.202385432e-27
7.564335219e-22
-1.591386171e-23
4.306165798e-21
-7.762301791e-21
4.141742714e-21
5.856152733e-22
3.83327678e-21
1.116565407e-21
3.414941785e-21
1.551161424e-21
2.925598703e-21
1.868852528e-21
2.401508333e-21
2.068036408e-21
1.872314421e-21
2.160198571e-21
1.359876541e-21
2.163599148e-21
8.788520168e-22
2.098408524e-21
4.380356545e-22
1.983698181e-21
4.182800816e-23
1.835954339e-21
-3.084717446e-22
1.668598861e-21
-6.136449077e-22
1.492075997e-21
-8.757968652e-22
1.314203872e-21
-1.097818755e-21
1.140612911e-21
-1.283014573e-21
9.751786446e-22
-1.434848357e-21
8.204076318e-22
-1.556776322e-21
6.777630736e-22
-1.652138514e-21
5.479304444e-22
4.310290686e-22
-1.810537594e-22
-7.664666398e-24
-1.732892147e-22
-9.036651536e-24
-1.935714053e-22
-8.517951131e-24
-1.929207668e-21
-4.556622538e-23
-8.091416676e-18
0
-9.662923705e-17
0
-1.528933155e-16
-1.418609391e-16
-2.963142272e-17
-1.858657734e-16
-1.420358458e-19
0
-1.259477337e-21
-1.410493211e-19
-1.153715671e-21
-1.276163186e-22
0
-7.424795192e-21
0
-8.555885833e-19
-3.916546155e-16
-1.061634585e-16
-1.938571037e-15
-5.299120237e-16
-3.102381691e-15
-5.629558408e-16
-9.314381183e-16
-4.013569208e-16
-4.80479515e-21
-1.865329126e-16
-4.690075141e-21
-9.02881947e-22
-4.771449412e-21
-9.645116149e-22
-4.84085218e-21
-1.031036578e-21
-3.689226239e-21
-1.2159549e-21
-3.143818004e-21
-1.114840944e-21
-3.48010945e-21
-1.0837888e-21
-4.229125918e-20
-2.448793417e-21
-6.965487327e-19
-2.820282438e-20
-2.488060582e-16
-8.064168466e-18
-3.997816779e-16
-3.73528471e-16
-6.677998239e-17
-5.545772222e-16
-3.481801777e-18
-1.830656531e-16
-1.056499218e-18
-5.280076392e-18
-3.284258863e-19
-7.426812352e-19
-8.493987933e-20
-2.485335721e-19
-4.044030629e-21
-8.318071607e-20
-4.641722088e-22
-3.624276822e-21
-2.860748876e-24
-4.706161459e-22
-1.530850756e-27
-2.871185283e-24
-1.716650618e-28
-1.213442588e-27
0
-1.083149127e-26
1.008932906e-21
-1.961869071e-23
4.892355598e-21
-9.787838183e-21
4.672704173e-21
8.052663895e-22
4.267872797e-21
1.521396184e-21
3.73263289e-21
2.086400354e-21
3.124782583e-21
2.476701356e-21
2.493670496e-21
2.699146403e-21
1.875714998e-21
2.778151266e-21
1.294685917e-21
2.744624636e-21
7.641416737e-22
2.628948303e-21
2.90291813e-22
2.457542633e-21
-1.255274706e-22
2.251767226e-21
-4.849946085e-22
2.028058622e-21
-7.915170327e-22
1.798590115e-21
-1.049387826e-21
1.572065505e-21
-1.263253021e-21
1.354468113e-21
-1.437785586e-21
1.14970036e-21
-1.577492915e-21
9.601031804e-22
-1.686608951e-21
7.868664379e-22
-1.76903989e-21
6.303478171e-22
4.903177956e-22
-1.733869541e-22
-1.872642811e-23
-3.654181289e-22
-8.112989094e-22
-8.826723579e-22
0
-4.696134266e-20
-3.887912998e-20
-7.301944235e-17
-1.093385273e-16
-2.682176342e-15
-5.048313411e-16
-5.449756297e-15
-5.270504696e-16
-3.031095778e-15
-5.493950675e-16
-1.331826859e-16
-3.441121981e-16
-2.176132794e-19
-1.331030864e-16
-2.147329757e-19
-3.431140921e-21
-9.806156464e-20
-1.640911312e-19
-3.799626176e-16
-3.236553018e-17
-3.74383712e-15
-4.110035113e-16
-3.667921255e-15
-5.965016421e-16
-3.575067268e-15
-6.466250195e-16
-3.23291539e-15
-7.341825525e-16
-4.584348559e-21
-1.211040957e-21
-4.43189834e-21
-1.079158619e-21
-4.27272304e-21
-1.147592763e-21
-4.33616507e-21
-1.095046405e-21
-3.882204334e-21
-2.023434121e-21
-3.167768172e-21
-1.238935924e-21
-2.83106887e-21
-1.150194856e-21
-4.017602011e-21
-1.214935454e-21
-2.941453618e-20
-2.989810972e-21
-7.632738668e-18
-4.711605482e-19
-7.807384679e-16
-1.7827962e-16
-1.328802933e-15
-1.228212563e-15
-1.499529305e-15
-1.224313296e-15
-8.541173058e-16
-1.68500846e-15
-2.70176748e-16
-1.844899894e-15
-6.33339538e-17
-6.485215625e-16
-2.417853482e-18
-2.894089645e-16
-1.823164508e-19
-2.222492925e-18
-1.597288596e-21
-1.849914029e-19
-3.111657697e-23
-1.574703013e-21
-1.564399062e-27
-3.112481022e-23
0
-1.66289873e-26
9.43539946e-22
-2.119272944e-23
5.698350869e-21
-1.208627417e-20
5.388848402e-21
1.114768652e-21
4.832876967e-21
2.077367094e-21
4.122933892e-21
2.796342444e-21
3.34722763e-21
3.252406051e-21
2.572675359e-21
3.473696427e-21
1.842188369e-21
3.508635255e-21
1.179009584e-21
3.407799597e-21
5.927360044e-22
3.215217178e-21
8.451640603e-23
2.965756613e-21
-3.492360754e-22
2.685513184e-21
-7.144631154e-22
2.393278287e-21
-1.018041643e-21
2.102160473e-21
-1.266985218e-21
1.821000136e-21
-1.468020774e-21
1.555493921e-21
-1.627382766e-21
1.309051765e-21
-1.750729658e-21
1.083438677e-21
-1.843127572e-21
8.792523227e-22
-1.909069912e-21
6.962776174e-22
5.337498462e-22
0
-1.238036171e-21
0
-1.885879053e-19
0
-2.92240231e-17
-1.553348501e-15
-2.72804574e-16
-5.773970622e-15
-5.439397475e-16
-5.711088703e-15
-5.676877454e-16
-5.645641789e-15
-5.924729317e-16
-5.56618272e-15
-6.288271276e-16
-5.210044402e-15
-6.999275447e-16
-2.492325167e-18
-1.5741566e-16
-2.517482271e-18
-1.126480407e-21
-2.750260954e-18
-1.452475472e-20
-1.034391231e-15
-2.128948105e-18
-3.545337472e-15
-3.560427244e-16
-3.641914639e-15
-4.907396666e-16
-3.565505111e-15
-7.137083013e-16
-1.226303166e-20
-5.45381171e-21
-7.941974023e-21
-5.737683356e-21
-4.501558092e-21
-4.543480398e-21
-6.917703417e-21
0
-6.723558919e-21
-1.985014725e-20
-4.012466622e-21
-2.238042176e-21
-2.985478135e-21
-1.12625199e-21
-2.833192507e-21
-1.188334977e-21
-2.784246098e-21
-1.144506e-21
-4.87437221e-21
-8.115573684e-22
-4.685944908e-19
-9.359580127e-21
-3.038214708e-16
-1.674656963e-18
-1.722965543e-15
-1.96741433e-16
-1.895018698e-15
-7.698883667e-16
-1.816807433e-15
-1.482760975e-15
-1.435650685e-15
-1.945701751e-15
-1.466324497e-15
-1.388053949e-15
-8.606206334e-16
-1.806744278e-15
-1.962781455e-16
-1.967339713e-15
-8.027346508e-18
-6.272139651e-16
-2.817169159e-20
-8.00231023e-18
-2.275067749e-24
-2.820054954e-20
-1.787040096e-24
-5.032771728e-25
1.153247973e-21
-1.937949422e-23
6.814071467e-21
-1.471873652e-20
6.351464845e-21
1.577375066e-21
5.551852317e-21
2.876978987e-21
4.5789975e-21
3.769196052e-21
3.568518005e-21
4.262883677e-21
2.607614187e-21
4.434597653e-21
1.741352711e-21
4.37489336e-21
9.864271655e-22
4.162720951e-21
3.432754386e-22
3.858363885e-21
-1.957270229e-22
3.504753242e-21
-6.414709719e-22
3.131250551e-21
-1.00558093e-21
2.757380977e-21
-1.299201979e-21
2.395773573e-21
-1.532491433e-21
2.054280912e-21
-1.71446293e-21
1.737455949e-21
-1.852995854e-21
1.447574453e-21
-1.954916011e-21
1.185348022e-21
-2.026102278e-21
9.504273822e-22
-2.071597683e-21
7.417616127e-22
5.578563681e-22
-3.244034631e-20
-7.688587568e-21
-1.878973677e-19
-2.649035129e-19
-1.847171906e-15
-4.631174975e-17
-5.703159361e-15
-5.077602247e-16
-5.646388164e-15
-6.006854298e-16
-5.586547609e-15
-6.275040164e-16
-5.522080505e-15
-6.569145212e-16
-5.533643534e-15
-6.170935274e-16
-4.193818179e-15
-3.143671354e-16
-9.132406487e-20
-1.152889611e-20
-1.160784428e-19
-1.944306463e-20
0
-1.20330774e-19
-1.660571531e-18
-4.801853266e-19
-1.657104248e-15
-2.388272652e-22
-2.558202735e-15
-2.58234844e-21
-2.137472178e-20
-2.086769367e-19
-2.558880299e-20
-4.454794227e-20
-7.41391173e-20
0
-5.183034333e-20
-4.229523092e-19
-6.316760996e-20
-1.940903693e-19
-5.620268247e-21
-2.101438639e-23
-2.47341905e-21
-4.233207873e-23
-2.627220135e-21
-2.894925506e-22
-2.754193566e-21
-1.532990947e-21
-4.039017005e-21
-5.192882672e-22
-6.999601177e-21
-3.530450666e-21
-1.147043419e-20
-2.980619514e-20
-1.67467924e-18
-3.094274201e-20
-1.983937501e-16
-2.220424667e-20
-4.685912648e-16
-1.125750616e-20
-8.427197009e-16
-1.594143949e-18
-1.462982563e-15
-2.785884544e-16
-1.355069457e-15
-1.313077965e-15
-1.148556698e-15
-1.833042641e-15
-7.124382094e-16
-2.22305463e-15
-4.305671337e-16
-1.743973336e-15
-2.38296863e-17
-8.26547857e-16
-8.072282955e-22
-2.385708308e-17
-2.979836823e-24
-8.047585052e-22
1.857746248e-21
-8.9499688e-24
8.392704105e-21
-1.775818614e-20
7.651090076e-21
2.318988806e-21
6.444069381e-21
4.083998818e-21
5.072685125e-21
5.140578774e-21
3.740231982e-21
5.595334581e-21
2.547909893e-21
5.626916761e-21
1.529180302e-21
5.393619198e-21
6.820700998e-22
5.009826623e-21
-1.033520425e-23
4.550763937e-21
-5.692297142e-22
4.063641842e-21
-1.015340546e-21
3.577354891e-21
-1.367188333e-21
3.109221705e-21
-1.640694641e-21
2.669272177e-21
-1.849316396e-21
2.262894225e-21
-2.004344425e-21
1.892474791e-21
-2.115222285e-21
1.558442503e-21
-2.189836651e-21
1.259952173e-21
-2.234768047e-21
9.953482229e-22
-2.255502927e-21
7.624857335e-22
5.589551615e-22
-3.159975854e-19
-3.71774518e-21
-9.883085073e-19
-1.466874336e-20
-1.837095576e-15
-4.536184676e-18
-5.37962433e-15
-2.613800212e-16
-5.499447725e-15
-4.808388364e-16
-5.442668955e-15
-6.84257272e-16
-5.394992689e-15
-7.044202156e-16
-1.824784261e-15
-2.423212504e-16
-6.822227493e-20
-2.25624435e-20
-1.226194322e-19
-1.946809303e-20
-4.564496284e-19
-5.44497398e-20
-8.366635989e-19
-1.525809322e-19
-1.172014964e-21
-1.203046174e-19
-1.170301745e-21
-2.692169718e-22
-3.04914597e-21
-7.317745407e-22
-1.762472523e-19
-3.557479107e-20
-1.005137658e-18
-4.428734135e-19
-7.604818802e-18
-4.859268107e-18
-1.092867214e-17
-4.75291e-18
-1.109664146e-22
-3.554830122e-18
-1.129290635e-22
-2.270209322e-23
-7.387120293e-23
-2.584283608e-23
0
-1.847739038e-22
-2.461161705e-20
-8.823478579e-21
-9.517080226e-19
-3.969625319e-19
-1.150851491e-18
-4.927237663e-18
-7.18033975e-20
-4.807118699e-18
-4.292877461e-21
-9.829535289e-20
-3.701121535e-21
-2.273929772e-20
-1.128335675e-20
-3.675331052e-21
-1.601574381e-18
-3.852883223e-21
-2.801850614e-16
-4.943796384e-21
-2.563404796e-16
-1.595455524e-19
-6.193023852e-16
-4.20014836e-17
-8.169719671e-16
-1.30018051e-15
-7.066155829e-16
-2.014143371e-15
-2.341895271e-16
-1.458053631e-15
-5.380715901e-19
-7.836740868e-16
-1.530976464e-24
-5.388782748e-19
2.203821064e-21
-9.847340321e-24
1.071334281e-20
-2.129619461e-20
9.416122583e-21
3.616208589e-21
7.500649338e-21
5.999470959e-21
5.527440932e-21
7.113785361e-21
3.771814162e-21
7.350958816e-21
2.31461233e-21
7.084115322e-21
1.145387727e-21
6.562839786e-21
2.230074139e-22
5.932202231e-21
-4.974572987e-22
5.271223353e-21
-1.055516665e-21
4.62169539e-21
-1.483473733e-21
4.005305651e-21
-1.807137861e-21
3.432878966e-21
-2.047072593e-21
2.909199386e-21
-2.219735831e-21
2.435549223e-21
-2.338376713e-21
2.011106802e-21
-2.413712616e-21
1.633769042e-21
-2.454440601e-21
1.300670338e-21
-2.467630537e-21
1.008527822e-21
-2.459033499e-21
7.538778913e-22
5.332386522e-22
-1.208944868e-19
-1.243668787e-19
0
-9.664625296e-20
-4.521682275e-18
-1.051395124e-20
-1.302587254e-15
-1.426744682e-18
-4.628788322e-15
-1.344941686e-16
-5.158496091e-15
-1.542697647e-16
-1.731620733e-15
-3.401988483e-16
-1.180621763e-19
-2.900848601e-17
-9.566815314e-20
-1.038894708e-19
-1.729697448e-19
-4.094738904e-21
-4.118716486e-19
-3.004530239e-23
-3.497031636e-19
-2.269372678e-23
-2.394935265e-21
-2.267089643e-21
-2.314704454e-21
-3.77718109e-22
-4.835956078e-22
-2.623603644e-21
-4.856449333e-19
-3.243293174e-19
-1.585581097e-17
-3.38610152e-18
-1.51902851e-17
-5.105673731e-18
-1.40941437e-17
-5.433450598e-18
-9.996038152e-23
-2.098287591e-18
-1.077171533e-22
-2.437938856e-23
-1.015121404e-22
-3.7250714e-23
0
-1.292711538e-21
0
-3.443772434e-19
-1.363096701e-17
-9.747175149e-18
-2.443858803e-17
-1.864921317e-17
-1.717052558e-17
-2.021323556e-17
-1.259106332e-18
-1.308541882e-17
-3.764602966e-21
-1.278081087e-18
-3.485403058e-21
-3.95459107e-21
-3.162312198e-21
-4.176035935e-21
-3.423328573e-21
-4.682738219e-21
-1.58153142e-19
-4.823530366e-21
-4.215262732e-17
-7.018384253e-21
-1.659000973e-16
-8.716677124e-19
-4.973105477e-16
-2.484258551e-16
-5.316196354e-16
-2.161349178e-15
-5.020488493e-17
-2.00174772e-15
-2.427786962e-25
-5.074376642e-17
1.393255772e-24
-1.148616729e-23
1.433159676e-20
-2.545495886e-20
1.179940683e-20
6.148397955e-21
8.614963741e-21
9.183912791e-21
5.764614388e-21
9.96413274e-21
3.504970668e-21
9.610599856e-21
1.793336794e-21
8.795745797e-21
5.147501717e-22
7.841422319e-21
-4.379714637e-22
6.884919175e-21
-1.146985262e-21
5.980231958e-21
-1.671906404e-21
5.146610865e-21
-2.055900417e-21
4.389293494e-21
-2.330817441e-21
3.707789221e-21
-2.520722756e-21
3.099097283e-21
-2.644178252e-21
2.558996693e-21
-2.715714473e-21
2.08263449e-21
-2.74681132e-21
1.664856852e-21
-2.746583116e-21
1.300432411e-21
-2.722280468e-21
9.842146641e-22
-2.679672739e-21
7.112588513e-22
4.769009681e-22
-9.259156954e-19
0
-2.940319267e-20
-2.375644211e-21
-3.343829317e-20
-2.572179556e-21
-1.450006046e-18
-6.188478905e-21
-1.358364745e-16
-1.123180682e-19
-2.007422347e-16
-1.161276603e-17
-1.841754391e-16
-2.802108781e-17
-2.286843124e-17
0
-3.34673129e-19
-2.266572142e-17
-7.544568044e-23
-3.387576363e-19
-7.325952284e-23
-1.037255245e-22
-9.413779164e-23
-7.403516061e-23
-1.276253501e-21
-1.157193637e-21
-2.679327807e-22
-1.139370564e-21
-2.455636996e-21
-4.957149991e-22
-4.722583726e-18
-5.487884412e-20
-1.392149485e-17
-3.775040771e-18
-1.513699311e-17
-3.474574665e-18
-7.249816427e-18
-3.583786341e-18
-9.909859331e-23
-2.798668069e-23
-9.920587251e-23
-2.792129133e-23
-9.839891314e-23
-4.514662635e-23
-1.42856532e-21
-1.993491033e-22
-4.726221155e-18
-3.339133266e-20
-2.758253056e-17
-1.142890256e-17
-2.712855566e-17
-1.893268519e-17
-2.607560458e-17
-2.109568378e-17
-1.834890284e-17
-2.064161769e-17
-3.872410424e-21
-1.511178975e-17
-3.631960557e-21
-4.195101046e-21
-3.310218253e-21
-4.49785528e-21
-2.959085591e-21
-5.034763757e-21
-2.552427435e-21
-5.240596385e-21
-4.674662315e-21
-4.913574581e-21
-8.697621894e-19
-6.589151024e-21
-2.487773053e-16
-5.158373615e-19
-4.710090266e-16
-2.961568388e-16
-5.395588477e-17
-2.216344417e-15
0
-1.461563179e-15
1.520552327e-24
-1.300950931e-23
2.048228585e-20
-3.040431912e-20
1.48349473e-20
1.179573596e-20
9.395183691e-21
1.46236751e-20
5.411081505e-21
1.394823293e-20
2.69011661e-21
1.233156207e-20
8.390133158e-22
1.064684571e-20
-4.417529721e-22
9.122184574e-21
-1.342658681e-21
7.785820308e-21
-1.980606355e-21
6.618174563e-21
-2.429223775e-21
5.595222699e-21
-2.73740469e-21
4.697468239e-21
-2.939509379e-21
3.909887136e-21
-3.060823346e-21
3.220403915e-21
-3.120540455e-21
2.618706017e-21
-3.133492111e-21
2.095577901e-21
-3.111235761e-21
1.642591609e-21
-3.062800863e-21
1.251987736e-21
-2.99523628e-21
9.166393497e-22
-2.914030622e-21
6.300414009e-22
3.862997677e-22
-2.577341273e-20
0
-2.160633518e-20
-2.511336948e-21
-1.770202915e-20
-2.564838763e-21
-1.277938513e-20
-2.986314158e-21
-4.572651602e-20
-7.144569851e-20
-2.960207292e-18
-8.701053537e-18
-1.366471055e-16
-6.607938099e-17
-2.867024952e-16
-1.263005413e-16
-2.002291583e-16
-1.166427585e-16
-4.399642162e-20
-5.361038947e-17
-6.014714695e-22
-4.353322824e-20
-4.070166398e-21
-1.717961945e-23
-4.078203781e-21
-1.642317666e-22
-1.107919764e-21
-2.840279427e-22
-1.325072635e-22
-3.967217127e-22
-5.663360821e-19
-3.34972758e-21
-6.016323727e-18
-3.374969558e-23
-3.965065875e-18
-3.644446291e-23
-6.422453459e-23
-5.07820212e-23
-9.338902144e-23
-3.927945008e-23
-8.543147915e-23
-7.733324537e-23
-9.762135378e-23
-1.325160576e-22
-2.329683875e-22
-1.616159959e-22
-3.299187718e-20
-3.349890821e-22
-1.317530303e-17
-8.559798911e-20
-2.350864692e-17
-7.046188592e-18
-2.716045807e-17
-1.727336975e-17
-2.460478173e-17
-2.301011083e-17
-6.087238922e-21
-1.401228101e-17
-5.804836993e-21
-4.477580016e-21
-3.717410691e-21
-6.586174457e-21
-3.371613815e-21
-7.896754037e-21
-2.731775575e-21
-6.688888367e-21
-2.267349719e-21
-5.382106669e-21
-3.338289867e-21
-5.522379959e-21
-4.492430677e-19
-6.994103387e-20
-2.774331381e-16
-1.917405005e-17
-2.154389117e-16
-1.598293169e-15
0
-1.614978365e-15
2.049507673e-22
-2.179630691e-22
3.227368651e-20
-2.599318353e-20
1.766295754e-20
2.640646431e-20
8.719741529e-21
2.356688985e-20
3.794410637e-21
1.887356189e-20
1.00540025e-21
1.512056982e-20
-6.85647816e-22
1.233789045e-20
-1.778117238e-21
1.021465006e-20
-2.510304426e-21
8.518003033e-21
-3.003558219e-21
7.111423333e-21
-3.326978235e-21
5.918637066e-21
-3.524985793e-21
4.895469509e-21
-3.628992601e-21
4.013887137e-21
-3.662521243e-21
3.253925369e-21
-3.643668571e-21
2.599845822e-21
-3.586478403e-21
2.038379686e-21
-3.501839634e-21
1.557944011e-21
-3.398149249e-21
1.148287606e-21
-3.281834229e-21
8.003136326e-22
-3.157772255e-21
5.059675704e-22
2.581454564e-22
-2.671225674e-20
-2.597021262e-16
-2.257355155e-20
-2.641803919e-21
-1.84417574e-20
-2.69303113e-21
-1.446206403e-20
-3.054360697e-21
-6.410279231e-20
-3.247231923e-20
-2.072913541e-16
-6.641126307e-18
-6.331216723e-16
-1.185739533e-16
-6.249359536e-16
-1.334592073e-16
-6.054102109e-16
-1.351414487e-16
-2.015922576e-17
-1.298638262e-16
-3.129694243e-22
-2.020245476e-17
-3.19419264e-22
-1.795799905e-23
-8.67592895e-22
-1.91815789e-23
-9.426004906e-22
-2.283430536e-23
-2.084005581e-22
-2.329224706e-23
-5.018659205e-23
-2.409994883e-23
-4.895784052e-23
-3.517882162e-23
-4.780002363e-23
-3.78018946e-23
-5.951152809e-23
-3.927089124e-23
-1.181949802e-22
-4.053985024e-23
-2.361031116e-22
-1.093119872e-22
-2.698133194e-22
-1.674323355e-22
-2.643662648e-22
-1.875610543e-22
-4.237142366e-22
-1.955938931e-22
-8.584097386e-20
-1.730312413e-22
-7.131855107e-18
-1.673888339e-22
-1.676577602e-17
-2.971303038e-22
-1.546901682e-17
-4.443137938e-22
-2.047407493e-20
-1.336980223e-20
-9.989711599e-21
-1.496372365e-20
-1.289084244e-20
-3.566278843e-20
-7.769333399e-21
-4.420383819e-20
-2.920948562e-21
-1.194086845e-20
-2.476340911e-21
-5.830883403e-21
-1.80613334e-21
-6.197103322e-21
0
-7.120604573e-20
0
-3.805546636e-17
-2.649451464e-16
-4.721945159e-16
0
-1.818168021e-15
3.710050639e-20
-3.731994652e-20
4.820344864e-20
7.579994456e-20
1.482342566e-20
5.978648671e-20
4.026413572e-21
3.436390075e-20
4.141856493e-23
2.285855501e-20
-1.777279123e-21
1.693926491e-20
-2.808888202e-21
1.336949626e-20
-3.474764267e-21
1.088052228e-20
-3.916884126e-21
8.960118447e-21
-4.196344485e-21
7.390878581e-21
-4.350145792e-21
6.072432573e-21
-4.406568166e-21
4.951885513e-21
-4.388954369e-21
3.996266584e-21
-4.31660079e-21
3.181564769e-21
-4.205134707e-21
2.488372365e-21
-4.066914078e-21
1.90015107e-21
-3.911496039e-21
1.402517233e-21
-3.746123223e-21
9.829052545e-22
-3.576180291e-21
6.303602874e-22
-3.405594369e-21
3.35370179e-22
8.970860552e-23
-2.78591947e-20
-4.946117365e-16
-2.05231749e-20
-5.974221935e-21
-1.636758572e-20
-2.811746101e-21
-1.187682678e-20
-3.541691093e-21
-4.450583667e-20
-4.046312675e-21
-1.154923181e-16
-2.556554976e-19
-5.121361846e-16
-3.372058995e-17
-5.85213993e-16
-5.935434624e-17
-6.179291146e-16
-9.922007625e-17
-4.392930574e-16
-1.358639449e-16
-6.751757695e-23
-1.91718286e-23
-7.358581137e-23
-1.922075778e-23
-6.313910512e-23
-3.685428121e-23
-6.162973438e-23
-4.106427995e-23
-5.39662438e-23
-4.014311494e-23
-4.79619942e-23
-3.212919232e-23
-4.684254713e-23
-3.64986432e-23
-4.559766012e-23
-3.924715612e-23
-5.532745813e-23
-3.28708527e-23
-1.383543765e-22
-4.986174967e-23
-2.485922262e-22
-8.69834576e-23
-2.744539338e-22
-1.388234886e-22
-2.560882419e-22
-1.490626671e-22
-1.839422708e-22
-1.88755254e-22
-1.803451877e-22
-1.695576271e-22
-1.777097689e-22
-1.635820713e-22
-1.762106786e-22
-2.915586968e-22
-2.473224409e-22
-3.656555554e-22
-1.229052033e-20
-1.319537842e-21
-3.099700052e-20
-2.142970792e-20
-3.820534411e-20
-6.066465578e-20
-1.926766334e-20
-7.155014008e-20
-3.11651826e-21
-2.697081789e-20
-2.713035341e-21
-6.238882115e-21
-2.194393374e-21
-6.720839598e-21
0
-6.529202796e-20
0
-4.257617425e-17
-1.921332822e-16
-2.91878325e-16
0
-9.636034484e-16
3.260933625e-21
-5.123620614e-16
-1.187695879e-20
9.8801302e-20
-1.059915331e-20
5.850868069e-20
-7.478932173e-21
3.124367842e-20
-5.877871539e-21
2.125749249e-20
-5.347047777e-21
1.640843858e-20
-5.297862184e-21
1.332030744e-20
-5.395168099e-21
1.097782437e-20
-5.486123992e-21
9.051069855e-21
-5.514790493e-21
7.419539836e-21
-5.470692852e-21
6.028328984e-21
-5.362187095e-21
4.843373354e-21
-5.203656184e-21
3.83772899e-21
-5.009793194e-21
2.987694832e-21
-4.793356002e-21
2.271927778e-21
-4.564547915e-21
1.671334983e-21
-4.331108018e-21
1.169068739e-21
-4.09866819e-21
7.504561319e-22
-3.8711704e-21
4.028523816e-22
-3.651255942e-21
1.154447969e-22
-1.209641962e-22
-2.092870629e-18
-6.736749977e-16
-2.288526467e-20
-2.0719207e-18
-1.869934176e-20
-2.994007361e-21
-1.70870087e-20
-2.821605164e-21
-9.050837115e-21
-3.270534763e-21
-2.586312442e-19
-2.41592658e-21
-3.393790197e-17
-4.106574929e-20
-2.569126208e-16
-6.615345403e-20
-2.627049046e-16
-4.379529618e-21
-1.0156584e-22
-3.206817635e-23
-9.812759872e-23
-3.039853069e-23
-8.857550861e-23
-3.599884396e-23
-1.657676158e-22
-9.526692046e-23
-1.902206812e-22
-1.429140427e-22
-1.792457221e-22
-1.794940423e-22
-1.537156605e-22
-2.127180968e-22
-1.408357701e-22
-2.138018867e-22
-1.156325315e-22