/*--------------------------------*- C++ -*----------------------------------*\
  =========                 |
  \\      /  F ield         | OpenFOAM: The Open Source CFD Toolbox
   \\    /   O peration     | Website:  https://openfoam.org
    \\  /    A nd           | Version:  10
     \\/     M anipulation  |
\*---------------------------------------------------------------------------*/
FoamFile
{
    format      ascii;
    class       volScalarField;
    location    "0.0004";
    object      beta;
}
// * * * * * * * * * * * * * * * * * * * * * * * * * * * * * * * * * * * * * //

dimensions      [0 0 0 -1 0 0 0];

internalField   nonuniform List<scalar> 
3600
(
5e-05
5e-05
5e-05
5e-05
5e-05
5e-05
5e-05
5e-05
5e-05
5e-05
5e-05
5e-05
5e-05
5e-05
5e-05
5e-05
5e-05
5e-05
5e-05
5e-05
5e-05
5e-05
5e-05
5e-05
5e-05
5e-05
5e-05
5e-05
5e-05
5e-05
5e-05
5e-05
5e-05
5e-05
5e-05
5e-05
5e-05
5e-05
5e-05
5.000000001e-05
6.999999998e-05
7e-05
7e-05
7e-05
7e-05
7e-05
7e-05
7e-05
7e-05
7e-05
7e-05
7e-05
7e-05
7e-05
7e-05
7e-05
7e-05
7e-05
7e-05
7e-05
5e-05
5e-05
5e-05
5e-05
5e-05
5e-05
5e-05
5e-05
5e-05
5e-05
5e-05
5e-05
5e-05
5e-05
5e-05
5e-05
5e-05
5e-05
5e-05
5e-05
5e-05
5e-05
5e-05
5e-05
5e-05
5e-05
5e-05
5e-05
5e-05
5e-05
5e-05
5e-05
5e-05
5e-05
5e-05
5e-05
5e-05
5e-05
5e-05
5.000000001e-05
6.999999998e-05
7e-05
7e-05
7e-05
7e-05
7e-05
7e-05
7e-05
7e-05
7e-05
7e-05
7e-05
7e-05
7e-05
7e-05
7e-05
7e-05
7e-05
7e-05
7e-05
5e-05
5e-05
5e-05
5e-05
5e-05
5e-05
5e-05
5e-05
5e-05
5e-05
5e-05
5e-05
5e-05
5e-05
5e-05
5e-05
5e-05
5e-05
5.000000001e-05
5.000000002e-05
5.000000003e-05
5.000000005e-05
5.000000006e-05
5.000000007e-05
5.000000004e-05
5e-05
5e-05
5e-05
5e-05
5e-05
5e-05
5e-05
5e-05
5e-05
5e-05
5e-05
5e-05
5e-05
5e-05
5.000000001e-05
6.999999998e-05
7e-05
7e-05
7e-05
7e-05
7e-05
7e-05
7e-05
7e-05
7e-05
7e-05
7e-05
7e-05
7e-05
7e-05
7e-05
7e-05
7e-05
7e-05
7e-05
5e-05
5e-05
5e-05
5e-05
5e-05
5e-05
5e-05
5e-05
5e-05
5e-05
5e-05
5e-05
5.000000001e-05
5.000000001e-05
5e-05
5e-05
5e-05
5.000000003e-05
5.000000008e-05
5.000000008e-05
5.000000006e-05
5.00000001e-05
5.000000015e-05
5.000000052e-05
5.000000144e-05
5.000000185e-05
5e-05
5e-05
5e-05
5e-05
5e-05
5e-05
5e-05
5e-05
5e-05
5e-05
5e-05
5e-05
5e-05
5.000000001e-05
6.999999998e-05
7e-05
7e-05
7e-05
7e-05
7e-05
7e-05
7e-05
7e-05
7e-05
7e-05
7e-05
7e-05
7e-05
7e-05
7e-05
7e-05
7e-05
7e-05
7e-05
5e-05
5e-05
5.000000001e-05
5.000000002e-05
5.000000002e-05
5.000000002e-05
5.000000001e-05
5e-05
5e-05
5e-05
5e-05
5e-05
5.000000007e-05
5.000000118e-05
5.000000647e-05
5.00000231e-05
5.000001571e-05
5.000000003e-05
5.000000029e-05
5.000000014e-05
5e-05
5.000000004e-05
5.000000002e-05
5.000000002e-05
5.00000016e-05
5.000001896e-05
5.00000303e-05
5e-05
5e-05
5e-05
5e-05
5e-05
5e-05
5e-05
5e-05
5e-05
5e-05
5e-05
5e-05
5.000000001e-05
6.999999998e-05
7e-05
7e-05
7e-05
7e-05
7e-05
7e-05
7e-05
7e-05
7e-05
7e-05
7e-05
7e-05
7e-05
7e-05
7e-05
7e-05
7e-05
7e-05
7e-05
5e-05
5e-05
5e-05
5e-05
5.000000147e-05
5.000001971e-05
5.000007709e-05
5.000009721e-05
5.000000858e-05
5e-05
5e-05
5e-05
5.000000011e-05
5.000007779e-05
5.000110595e-05
5.000203367e-05
5.000142946e-05
5.000009845e-05
5e-05
5e-05
5e-05
5e-05
5e-05
5e-05
5e-05
5.000000001e-05
5.000019362e-05
5.000051774e-05
5.000042747e-05
5.000002516e-05
5.000000005e-05
5.000000001e-05
5e-05
5e-05
5e-05
5e-05
5e-05
5e-05
5e-05
5.000000001e-05
6.999999998e-05
7e-05
7e-05
7e-05
7e-05
7e-05
7e-05
7e-05
7e-05
7e-05
7e-05
7e-05
7e-05
7e-05
7e-05
7e-05
7e-05
7e-05
7e-05
7e-05
5e-05
5e-05
5e-05
5.000000001e-05
5.000001515e-05
5.000098887e-05
5.000317812e-05
5.000339263e-05
5.000040732e-05
5e-05
5e-05
5e-05
5.000002603e-05
5.000166714e-05
5.000273198e-05
5.000273204e-05
5.000273198e-05
5.000088235e-05
5e-05
5e-05
5e-05
5e-05
5e-05
5e-05
5e-05
5e-05
5.000000002e-05
5.000105154e-05
5.000216982e-05
5.000217343e-05
5.00015768e-05
5.000082863e-05
5.000027651e-05
5.000007835e-05
5.000000001e-05
5e-05
5e-05
5e-05
5e-05
5.000000001e-05
6.999999997e-05
7e-05
7e-05
7e-05
7e-05
7e-05
7e-05
7e-05
7e-05
7e-05
7e-05
7e-05
7e-05
7e-05
7e-05
7e-05
7e-05
7e-05
7e-05
7e-05
5e-05
5.000000002e-05
5.000000302e-05
5.000027303e-05
5.000272448e-05
5.000374181e-05
5.000374181e-05
5.000374181e-05
5.000374165e-05
5.000088407e-05
5e-05
5.000000001e-05
5.000016107e-05
5.000230841e-05
5.000273204e-05
5.000273198e-05
5.000179312e-05
5e-05
5e-05
5e-05
5.000000001e-05
5.000000001e-05
5e-05
5e-05
5e-05
5e-05
5.000000001e-05
5.000008135e-05
5.000203121e-05
5.000322728e-05
5.000322909e-05
5.000322903e-05
5.000302045e-05
5.000237287e-05
5.000138171e-05
5.000026926e-05
5e-05
5e-05
5e-05
5.000000001e-05
6.999999997e-05
7e-05
7e-05
7e-05
7e-05
7e-05
7e-05
7e-05
7e-05
7e-05
7e-05
7e-05
7e-05
7e-05
7e-05
7e-05
7e-05
7e-05
7e-05
7e-05
5e-05
5.000000004e-05
5.000026206e-05
5.000322513e-05
5.000374181e-05
5.000374181e-05
5.000374181e-05
5.00037418e-05
5.000363751e-05
5.000061713e-05
5.000000001e-05
5.000000005e-05
5.000000008e-05
5.000035769e-05
5.000182472e-05
5.000160614e-05
5.000000001e-05
5.000000001e-05
5.000000005e-05
5.000000004e-05
5.000000005e-05
5.000000001e-05
5e-05
5e-05
5e-05
5e-05
5.000000001e-05
5.000000001e-05
5e-05
5.000045777e-05
5.000201115e-05
5.00029751e-05
5.000333898e-05
5.000334193e-05
5.000334174e-05
5.000296123e-05
5.000088858e-05
5e-05
5e-05
5.000000001e-05
6.999999997e-05
7e-05
7e-05
7e-05
7e-05
7e-05
7e-05
7e-05
7e-05
7e-05
7e-05
7e-05
7e-05
7e-05
7e-05
7e-05
7e-05
7e-05
7e-05
7e-05
5.000000003e-05
5.000000007e-05
5.00003009e-05
5.000325236e-05
5.000374181e-05
5.000374181e-05
5.00037418e-05
5.000311053e-05
5.000009218e-05
5.000000005e-05
5.000000009e-05
5.000000057e-05
5.000000061e-05
5e-05
5e-05
5e-05
5.00000001e-05
5.000000399e-05
5.000000862e-05
5.000000569e-05
5e-05
5e-05
5e-05
5.000000001e-05
5.000000016e-05
5.000000112e-05
5.000000124e-05
5e-05
5e-05
5e-05
5e-05
5e-05
5.000066479e-05
5.000195719e-05
5.00032631e-05
5.000342927e-05
5.000342979e-05
5.000058502e-05
5e-05
5e-05
6.999999996e-05
7e-05
7e-05
7e-05
7e-05
7e-05
7e-05
7e-05
7e-05
7e-05
7e-05
7e-05
7e-05
7e-05
7e-05
7e-05
7e-05
7e-05
7e-05
7e-05
5.000000004e-05
5.000000006e-05
5.000000001e-05
5.000015526e-05
5.000259828e-05
5.000374177e-05
5.000301323e-05
5.000006554e-05
5.000000005e-05
5.000000005e-05
5.000000024e-05
5.000000036e-05
5.000000013e-05
5e-05
5e-05
5.000000006e-05
5.000000655e-05
5.000001371e-05
5.000001371e-05
5.000001093e-05
5e-05
5e-05
5e-05
5.000000004e-05
5.000001007e-05
5.000002524e-05
5.000002434e-05
5.000000624e-05
5e-05
5e-05
5e-05
5e-05
5e-05
5e-05
5.000010321e-05
5.000218793e-05
5.000367365e-05
5.000367605e-05
5e-05
5e-05
6.999999994e-05
7e-05
7e-05
7e-05
7e-05
7e-05
7e-05
7e-05
7e-05
7e-05
7e-05
7e-05
7e-05
7e-05
7e-05
7e-05
7e-05
7e-05
7e-05
7e-05
5.000000066e-05
5.000000048e-05
5.000000001e-05
5.000000001e-05
5.000000002e-05
5.000011553e-05
5.000014823e-05
5.000009371e-05
5.000000002e-05
5e-05
5e-05
5e-05
5e-05
5e-05
5e-05
5.000000093e-05
5.000001185e-05
5.000001371e-05
5.000001244e-05
5.000000093e-05
5e-05
5e-05
5e-05
5.000000058e-05
5.000002224e-05
5.000003033e-05
5.000003033e-05
5.000003033e-05
5.000000598e-05
5e-05
5e-05
5e-05
5e-05
5e-05
5e-05
5.000000001e-05
5.000180204e-05
5.00040472e-05
5.00012661e-05
5e-05
6.999999992e-05
7e-05
7e-05
7e-05
7e-05
7e-05
7e-05
7e-05
7e-05
7e-05
7e-05
7e-05
7e-05
7e-05
7e-05
7e-05
7e-05
7e-05
7e-05
7e-05
5.000010464e-05
5.000000001e-05
5.000000001e-05
5.000000001e-05
5.000000001e-05
5.000000002e-05
5.000003378e-05
5.000019537e-05
5.000023823e-05
5.000005739e-05
5e-05
5e-05
5e-05
5e-05
5e-05
5.000000005e-05
5.000000287e-05
5.000000633e-05
5.000000147e-05
5e-05
5e-05
5e-05
5e-05
5e-05
5.000000789e-05
5.000002886e-05
5.000003033e-05
5.00000303e-05
5.00000245e-05
5e-05
5e-05
5.000000001e-05
5.000000001e-05
5e-05
5e-05
5e-05
5.000000001e-05
5.000390967e-05
5.000480899e-05
5e-05
6.999999986e-05
7e-05
7e-05
7e-05
7e-05
7e-05
7e-05
7e-05
7e-05
7e-05
7e-05
7e-05
7e-05
7e-05
7e-05
7e-05
7e-05
7e-05
7e-05
7e-05
5.000203439e-05
5.000000001e-05
5.000000001e-05
5.000000001e-05
5.000000002e-05
5.000003428e-05
5.000044165e-05
5.000050364e-05
5.000050364e-05
5.000042852e-05
5e-05
5e-05
5e-05
5e-05
5e-05
5e-05
5e-05
5e-05
5e-05
5e-05
5e-05
5e-05
5e-05
5e-05
5e-05
5e-05
5.000001731e-05
5.000002487e-05
5.000000601e-05
5e-05
5.000000001e-05
5.000000002e-05
5.000000001e-05
5e-05
5e-05
5.000000003e-05
5.000002393e-05
5.000073941e-05
5.000480939e-05
5e-05
6.999999961e-05
7e-05
7e-05
7e-05
7e-05
7e-05
7e-05
7e-05
7e-05
7e-05
7e-05
7e-05
7e-05
7e-05
7e-05
7e-05
7e-05
7e-05
7e-05
7e-05
5.000441052e-05
5.000000001e-05
5.000000001e-05
5.000000001e-05
5.000000001e-05
5.000001748e-05
5.000036156e-05
5.000050364e-05
5.000050331e-05
5.000049347e-05
5.000006101e-05
5e-05
5e-05
5e-05
5e-05
5e-05
5e-05
5e-05
5e-05
5e-05
5e-05
5e-05
5e-05
5e-05
5e-05
5e-05
5e-05
5e-05
5e-05
5.000000002e-05
5.000000005e-05
5.000000005e-05
5.000000002e-05
5e-05
5e-05
5.000000001e-05
5.00000395e-05
5.000034744e-05
5.000373393e-05
5.000024988e-05
6.999999945e-05
7e-05
7e-05
7e-05
7e-05
7e-05
7e-05
7e-05
7e-05
7e-05
7e-05
7e-05
7e-05
7e-05
7e-05
7e-05
7e-05
7e-05
7e-05
7e-05
5.000535055e-05
5.000000001e-05
5.000000001e-05
5.000000002e-05
5.000000001e-05
5e-05
5e-05
5.000010498e-05
5.000027998e-05
5.00001144e-05
5e-05
5e-05
5e-05
5e-05
5e-05
5e-05
5e-05
5e-05
5e-05
5e-05
5e-05
5e-05
5e-05
5e-05
5e-05
5e-05
5e-05
5e-05
5e-05
5.000000002e-05
5.000000006e-05
5.000000006e-05
5.000000003e-05
5e-05
5e-05
5.000000001e-05
5.000003169e-05
5.00002948e-05
5.0001592e-05
5.027890774e-05
6.999999984e-05
7e-05
7e-05
7e-05
7e-05
7e-05
7e-05
7e-05
7e-05
7e-05
7e-05
7e-05
7e-05
7e-05
7e-05
7e-05
7e-05
7e-05
7e-05
7e-05
5.000679164e-05
5.000000001e-05
5.000000001e-05
5.000000001e-05
5.000000001e-05
5e-05
5e-05
5e-05
5e-05
5e-05
5e-05
5e-05
5e-05
5e-05
5e-05
5e-05
5e-05
5e-05
5e-05
5e-05
5e-05
5e-05
5e-05
5e-05
5e-05
5e-05
5e-05
5e-05
5e-05
5.000000001e-05
5.000000004e-05
5.000000006e-05
5.000000005e-05
5e-05
5e-05
5e-05
5.000001445e-05
5.000027353e-05
5.000027716e-05
5.347006274e-05
7e-05
7e-05
7e-05
7e-05
7e-05
7e-05
7e-05
7e-05
7e-05
7e-05
7e-05
7e-05
7e-05
7e-05
7e-05
7e-05
7e-05
7e-05
7e-05
7e-05
5.000934345e-05
5.000550789e-05
5.000000001e-05
5.000000001e-05
5.000000002e-05
5.000000015e-05
5.000000039e-05
5.00000002e-05
5.000000001e-05
5e-05
5e-05
5e-05
5e-05
5e-05
5e-05
5e-05
5e-05
5e-05
5e-05
5e-05
5e-05
5e-05
5e-05
5e-05
5e-05
5e-05
5e-05
5.000000001e-05
5.000000012e-05
5.000000024e-05
5.000000028e-05
5.000000006e-05
5.000000006e-05
5e-05
5e-05
5e-05
5.000000001e-05
5.000000056e-05
5.065791485e-05
5.783567656e-05
6.999999976e-05
7e-05
7e-05
7e-05
7e-05
7e-05
7e-05
7e-05
7e-05
7e-05
7e-05
7e-05
7e-05
7e-05
7e-05
7e-05
7e-05
7e-05
7e-05
7e-05
5.000934345e-05
5.000869501e-05
5.000070283e-05
5.000000001e-05
5.000000054e-05
5.000000177e-05
5.000000151e-05
5.000000032e-05
5e-05
5.000000001e-05
5e-05
5e-05
5e-05
5e-05
5e-05
5e-05
5e-05
5e-05
5e-05
5e-05
5e-05
5e-05
5e-05
5e-05
5e-05
5e-05
5e-05
5e-05
5.000000072e-05
5.000000272e-05
5.00000027e-05
5.000000063e-05
5.000000005e-05
5e-05
5e-05
5.000000002e-05
5.000000015e-05
5.000001239e-05
5.509376145e-05
6.013481162e-05
6.99999998e-05
7e-05
7e-05
7e-05
7e-05
7e-05
7e-05
7e-05
7e-05
7e-05
7e-05
7e-05
7e-05
7e-05
7e-05
7e-05
7e-05
7e-05
7e-05
7e-05
5.000189613e-05
5.000288218e-05
5.00001357e-05
5.000000001e-05
5.000002067e-05
5.000001805e-05
5.000000001e-05
5.000000001e-05
5.000000001e-05
5.000000003e-05
5.000000004e-05
5.000000015e-05
5.000000171e-05
5.000000268e-05
5.000000041e-05
5e-05
5e-05
5e-05
5e-05
5e-05
5e-05
5e-05
5e-05
5e-05
5e-05
5e-05
5e-05
5e-05
5.000000089e-05
5.000000325e-05
5.000000325e-05
5.000000261e-05
5.000000007e-05
5e-05
5.000000001e-05
5.000000015e-05
5.000001088e-05
5.13037929e-05
6.016455225e-05
6.092264085e-05
6.999999985e-05
7e-05
7e-05
7e-05
7e-05
7e-05
7e-05
7e-05
7e-05
7e-05
7e-05
7e-05
7e-05
7e-05
7e-05
7e-05
7e-05
7e-05
7e-05
7e-05
5.000000018e-05
5.000000018e-05
5.000000119e-05
5.000003451e-05
5.000003956e-05
5.000002568e-05
5.000000001e-05
5.000000038e-05
5.000000001e-05
5.000000002e-05
5.000000015e-05
5.000000367e-05
5.00000101e-05
5.00000101e-05
5.00000068e-05
5.00000007e-05
5e-05
5e-05
5e-05
5e-05
5e-05
5e-05
5e-05
5e-05
5e-05
5e-05
5e-05
5e-05
5.000000039e-05
5.000000321e-05
5.000000325e-05
5.000000321e-05
5.00000002e-05
5.000000001e-05
5.000000021e-05
5.000001088e-05
5.005147498e-05
6.082651255e-05
6.469654073e-05
6.121071112e-05
6.999999973e-05
7e-05
7e-05
7e-05
7e-05
7e-05
7e-05
7e-05
7e-05
7e-05
7e-05
7e-05
7e-05
7e-05
7e-05
7e-05
7e-05
7e-05
7e-05
7e-05
5.000000049e-05
5.000000059e-05
5.000000024e-05
5.000000008e-05
5.000000032e-05
5.000000002e-05
5.000000261e-05
5.00000006e-05
5.000000001e-05
5.000000003e-05
5.000000066e-05
5.000000891e-05
5.00000101e-05
5.00000101e-05
5.00000101e-05
5.000000304e-05
5e-05
5e-05
5e-05
5e-05
5e-05
5e-05
5e-05
5e-05
5e-05
5e-05
5e-05
5e-05
5.000000028e-05
5.00000008e-05
5.000000117e-05
5.000000098e-05
5.00000002e-05
5.000000042e-05
5.000001621e-05
5.000077689e-05
5.826138589e-05
6.672461862e-05
6.543313604e-05
6.150486956e-05
6.999999971e-05
7e-05
7e-05
7e-05
7e-05
7e-05
7e-05
7e-05
7e-05
7e-05
7e-05
7e-05
7e-05
7e-05
7e-05
7e-05
7e-05
7e-05
7e-05
7e-05
5.000000082e-05
5.000000103e-05
5.000000101e-05
5.000000008e-05
5.000000001e-05
5.000000001e-05
5.000000003e-05
5.000000002e-05
5.000000004e-05
5.000000003e-05
5.000000011e-05
5.000000525e-05
5.00000101e-05
5.00000101e-05
5.000000588e-05
5.000000011e-05
5e-05
5e-05
5e-05
5e-05
5e-05
5e-05
5e-05
5e-05
5e-05
5e-05
5e-05
5e-05
5.000000039e-05
5.00000001e-05
5.00000001e-05
5.00000001e-05
5.000000054e-05
5.000003355e-05
5.000118717e-05
5.77143141e-05
6.768522257e-05
6.812374968e-05
6.587738744e-05
6.146170437e-05
6.999999981e-05
7e-05
7e-05
7e-05
7e-05
7e-05
7e-05
7e-05
7e-05
7e-05
7e-05
7e-05
7e-05
7e-05
7e-05
7e-05
7e-05
7e-05
7e-05
7e-05
5.000000008e-05
5.000000071e-05
5.000000081e-05
5.000000009e-05
5.000000001e-05
5.000000003e-05
5.000000004e-05
5.000000002e-05
5e-05
5e-05
5e-05
5e-05
5.000000278e-05
5.00000038e-05
5e-05
5e-05
5e-05
5e-05
5e-05
5e-05
5e-05
5e-05
5e-05
5e-05
5e-05
5e-05
5.000000001e-05
5e-05
5.00000002e-05
5.00000001e-05
5.000000007e-05
5.000000014e-05
5.000004076e-05
5.011982176e-05
5.892063912e-05
6.889824343e-05
6.880009081e-05
6.812374971e-05
6.640820452e-05
6.206858028e-05
7e-05
7e-05
7e-05
7e-05
7e-05
7e-05
7e-05
7e-05
7e-05
7e-05
7e-05
7e-05
7e-05
7e-05
7e-05
7e-05
7e-05
7e-05
7e-05
7e-05
5e-05
5e-05
5e-05
5e-05
5.000000004e-05
5.000000006e-05
5.000000005e-05
5.000000002e-05
5e-05
5e-05
5e-05
5e-05
5e-05
5e-05
5e-05
5e-05
5e-05
5e-05
5e-05
5e-05
5e-05
5e-05
5e-05
5e-05
5e-05
5e-05
5.000000002e-05
5e-05
5.000000003e-05
5.000000003e-05
5.000000004e-05
5.000000506e-05
5.035052342e-05
6.056102225e-05
6.994192459e-05
6.939982783e-05
6.880009083e-05
6.81237495e-05
6.640820464e-05
6.26094107e-05
7e-05
7e-05
7e-05
7e-05
7e-05
7e-05
7e-05
7e-05
7e-05
7e-05
7e-05
7e-05
7e-05
7e-05
7e-05
7e-05
7e-05
7e-05
7e-05
7e-05
5e-05
5e-05
5e-05
5e-05
5.000000001e-05
5.000000002e-05
5.000000001e-05
5e-05
5e-05
5e-05
5e-05
5e-05
5e-05
5e-05
5e-05
5e-05
5e-05
5e-05
5e-05
5e-05
5e-05
5e-05
5e-05
5e-05
5e-05
5e-05
5.000000001e-05
5.000000191e-05
5.000000031e-05
5.000000004e-05
5.000000083e-05
5.022223739e-05
6.171535347e-05
6.999704227e-05
6.994192459e-05
6.939982782e-05
6.880009071e-05
6.812374951e-05
6.724240064e-05
6.340576704e-05
7e-05
7e-05
7e-05
7e-05
7e-05
7e-05
7e-05
7e-05
7e-05
7e-05
7e-05
7e-05
7e-05
7e-05
7e-05
7e-05
7e-05
7e-05
7e-05
7e-05
5e-05
5e-05
5e-05
5e-05
5e-05
5e-05
5e-05
5e-05
5e-05
5e-05
5e-05
5e-05
5e-05
5e-05
5e-05
5e-05
5e-05
5e-05
5e-05
5e-05
5e-05
5e-05
5e-05
5e-05
5e-05
5e-05
5e-05
5.000002506e-05
5.000000032e-05
5.00000003e-05
5.00000628e-05
6.072120984e-05
6.999727192e-05
6.999704227e-05
6.994192459e-05
6.939982778e-05
6.880009071e-05
6.812374946e-05
6.740620265e-05
6.424733996e-05
6.999999991e-05
7e-05
7e-05
7e-05
7e-05
7e-05
7e-05
7e-05
7e-05
7e-05
7e-05
7e-05
7e-05
7e-05
7e-05
7e-05
7e-05
7e-05
7e-05
7e-05
5e-05
5e-05
5e-05
5e-05
5e-05
5e-05
5e-05
5e-05
5e-05
5e-05
5e-05
5e-05
5e-05
5e-05
5e-05
5e-05
5e-05
5e-05
5e-05
5e-05
5e-05
5e-05
5e-05
5e-05
5e-05
5e-05
5e-05
5.000003874e-05
5.000000045e-05
5.000000058e-05
5.608864541e-05
6.987710096e-05
6.999727192e-05
6.999704227e-05
6.994192459e-05
6.939982778e-05
6.880009069e-05
6.812374941e-05
6.740620262e-05
6.471071913e-05
6.99999999e-05
7e-05
7e-05
7e-05
7e-05
7e-05
7e-05
7e-05
7e-05
7e-05
7e-05
7e-05
7e-05
7e-05
7e-05
7e-05
7e-05
7e-05
7e-05
7e-05
5e-05
5e-05
5e-05
5e-05
5e-05
5e-05
5e-05
5e-05
5e-05
5e-05
5e-05
5e-05
5e-05
5e-05
5e-05
5e-05
5e-05
5e-05
5e-05
5e-05
5e-05
5e-05
5e-05
5e-05
5e-05
5e-05
5e-05
5.00000405e-05
5.000000059e-05
5.042132566e-05
6.434181412e-05
6.999727192e-05
6.999727192e-05
6.999727189e-05
6.994192459e-05
6.920776179e-05
6.880009068e-05
6.741655561e-05
6.740620268e-05
6.447646409e-05
6.999999984e-05
7e-05
7e-05
7e-05
7e-05
7e-05
7e-05
7e-05
7e-05
7e-05
7e-05
7e-05
7e-05
7e-05
7e-05
7e-05
7e-05
7e-05
7e-05
7e-05
5e-05
5e-05
5e-05
5e-05
5e-05
5e-05
5e-05
5e-05
5e-05
5e-05
5e-05
5e-05
5e-05
5e-05
5e-05
5e-05
5e-05
5e-05
5e-05
5e-05
5e-05
5e-05
5e-05
5e-05
5e-05
5e-05
5e-05
5.000005182e-05
5.000000067e-05
5.328457195e-05
6.7776237e-05
6.997369716e-05
6.999792203e-05
6.999727189e-05
6.994280725e-05
6.918003956e-05
6.85384863e-05
6.740964391e-05
6.740964391e-05
6.469260523e-05
6.999999987e-05
7e-05
7e-05
7e-05
7e-05
7e-05
7e-05
7e-05
7e-05
7e-05
7e-05
7e-05
7e-05
7e-05
7e-05
7e-05
7e-05
7e-05
7e-05
7e-05
5e-05
5e-05
5e-05
5e-05
5e-05
5e-05
5e-05
5e-05
5e-05
5e-05
5e-05
5e-05
5e-05
5e-05
5e-05
5e-05
5e-05
5e-05
5e-05
5e-05
5e-05
5e-05
5e-05
5e-05
5e-05
5e-05
5.000000072e-05
5.000006425e-05
5.000000206e-05
5.565549732e-05
6.889978583e-05
6.999784913e-05
6.999793923e-05
6.999637268e-05
6.996108226e-05
6.919788941e-05
6.536759186e-05
6.372308097e-05
6.510900538e-05
6.693828738e-05
6.999999927e-05
7e-05
7e-05
7e-05
7e-05
7e-05
7e-05
7e-05
7e-05
7e-05
7e-05
7e-05
7e-05
7e-05
7e-05
7e-05
7e-05
7e-05
7e-05
7e-05
5e-05
5e-05
5e-05
5e-05
5e-05
5e-05
5e-05
5e-05
5e-05
5e-05
5e-05
5e-05
5e-05
5e-05
5e-05
5e-05
5e-05
5e-05
5e-05
5e-05
5e-05
5e-05
5e-05
5e-05
5e-05
5e-05
5.000000016e-05
5.000003926e-05
5.000028026e-05
5.676360134e-05
6.976933184e-05
6.999778713e-05
6.999794104e-05
6.99976581e-05
6.999794138e-05
6.684638355e-05
6.331499466e-05
6.331491897e-05
6.331491897e-05
6.331973555e-05
6.999999894e-05
7e-05
7e-05
7e-05
7e-05
7e-05
7e-05
7e-05
7e-05
7e-05
7e-05
7e-05
7e-05
7e-05
7e-05
7e-05
7e-05
7e-05
7e-05
7e-05
5e-05
5e-05
5e-05
5e-05
5e-05
5e-05
5e-05
5e-05
5e-05
5e-05
5e-05
5e-05
5e-05
5e-05
5e-05
5e-05
5e-05
5e-05
5e-05
5e-05
5e-05
5e-05
5e-05
5e-05
5e-05
5e-05
5e-05
5.000000012e-05
5.00001976e-05
5.621481572e-05
6.999794067e-05
6.999794109e-05
6.999794122e-05
6.999794138e-05
6.99979415e-05
6.63476182e-05
6.331491897e-05
6.331489432e-05
6.331494864e-05
6.488831275e-05
6.999999902e-05
7e-05
7e-05
7e-05
7e-05
7e-05
7e-05
7e-05
7e-05
7e-05
7e-05
7e-05
7e-05
7e-05
7e-05
7e-05
7e-05
7e-05
7e-05
7e-05
5e-05
5e-05
5e-05
5e-05
5e-05
5e-05
5e-05
5e-05
5e-05
5e-05
5e-05
5e-05
5e-05
5e-05
5e-05
5e-05
5e-05
5e-05
5e-05
5e-05
5e-05
5e-05
5e-05
5e-05
5e-05
5e-05
5e-05
5.000000016e-05
5.000004771e-05
5.454625579e-05
6.999794128e-05
6.999794122e-05
6.999794136e-05
6.999794148e-05
6.999794159e-05
6.939124152e-05
6.404919065e-05
6.36875413e-05
6.351580342e-05
6.796408312e-05
6.999999836e-05
7e-05
7e-05
7e-05
7e-05
7e-05
7e-05
7e-05
7e-05
7e-05
7e-05
7e-05
7e-05
7e-05
7e-05
7e-05
7e-05
7e-05
7e-05
7e-05
5e-05
5e-05
5e-05
5e-05
5e-05
5e-05
5e-05
5e-05
5e-05
5e-05
5e-05
5e-05
5e-05
5e-05
5e-05
5e-05
5e-05
5e-05
5e-05
5e-05
5e-05
5e-05
5e-05
5e-05
5e-05
5e-05
5.000000001e-05
5.000000006e-05
5.000001456e-05
5.234122918e-05
6.838663437e-05
6.999794118e-05
6.999794141e-05
6.999794159e-05
6.999794166e-05
6.999794171e-05
6.890299055e-05
6.904596806e-05
6.904599005e-05
6.904599005e-05
6.999999963e-05
7e-05
7e-05
7e-05
7e-05
7e-05
7e-05
7e-05
7e-05
7e-05
7e-05
7e-05
7e-05
7e-05
7e-05
7e-05
7e-05
7e-05
7e-05
7e-05
5e-05
5e-05
5e-05
5e-05
5e-05
5e-05
5e-05
5e-05
5e-05
5e-05
5e-05
5e-05
5e-05
5e-05
5e-05
5e-05
5e-05
5e-05
5e-05
5e-05
5e-05
5e-05
5e-05
5e-05
5e-05
5e-05
5.000000003e-05
5.000000032e-05
5.000000786e-05
5.086053833e-05
6.475755801e-05
6.999793704e-05
6.999775323e-05
6.999794161e-05
6.999794178e-05
6.999794196e-05
6.971138146e-05
6.895325223e-05
6.895254493e-05
6.902335204e-05
6.999999971e-05
7e-05
7e-05
7e-05
7e-05
7e-05
7e-05
7e-05
7e-05
7e-05
7e-05
7e-05
7e-05
7e-05
7e-05
7e-05
7e-05
7e-05
7e-05
7e-05
5e-05
5e-05
5e-05
5e-05
5e-05
5e-05
5e-05
5e-05
5e-05
5e-05
5e-05
5e-05
5e-05
5e-05
5e-05
5e-05
5e-05
5e-05
5e-05
5e-05
5e-05
5e-05
5e-05
5e-05
5e-05
5e-05
5e-05
5.000000006e-05
5.000000837e-05
5.008238561e-05
5.870691414e-05
6.999787938e-05
6.999783386e-05
6.999783043e-05
6.999794196e-05
6.999794203e-05
6.999794207e-05
6.94369421e-05
6.972229494e-05
6.937787747e-05
6.999999958e-05
7e-05
7e-05
7e-05
7e-05
7e-05
7e-05
7e-05
7e-05
7e-05
7e-05
7e-05
7e-05
7e-05
7e-05
7e-05
7e-05
7e-05
7e-05
7e-05
5e-05
5e-05
5e-05
5e-05
5e-05
5e-05
5e-05
5e-05
5e-05
5e-05
5e-05
5e-05
5e-05
5e-05
5e-05
5e-05
5e-05
5e-05
5e-05
5e-05
5e-05
5e-05
5e-05
5e-05
5e-05
5e-05
5e-05
5.000000005e-05
5.000000515e-05
5.000037778e-05
5.307150638e-05
6.808141607e-05
6.999792488e-05
6.999792363e-05
6.999794201e-05
6.999794208e-05
6.999794283e-05
6.999347244e-05
6.996958514e-05
6.99735597e-05
6.999999984e-05
7e-05
7e-05
7e-05
7e-05
7e-05
7e-05
7e-05
7e-05
7e-05
7e-05
7e-05
7e-05
7e-05
7e-05
7e-05
7e-05
7e-05
7e-05
7e-05
5e-05
5e-05
5e-05
5e-05
5e-05
5e-05
5e-05
5e-05
5e-05
5e-05
5e-05
5e-05
5e-05
5e-05
5e-05
5e-05
5e-05
5e-05
5e-05
5e-05
5e-05
5e-05
5e-05
5e-05
5e-05
5e-05
5e-05
5.000000002e-05
5.000000183e-05
5.000012699e-05
5.039864839e-05
6.062451688e-05
6.999791685e-05
6.999793234e-05
6.999780612e-05
6.99978061e-05
6.99979434e-05
6.999794335e-05
6.999794286e-05
6.999555642e-05
6.996388919e-05
7e-05
7e-05
7e-05
7e-05
7e-05
7e-05
7e-05
7e-05
7e-05
7e-05
7e-05
7e-05
7e-05
7e-05
7e-05
7e-05
7e-05
7e-05
7e-05
5e-05
5e-05
5e-05
5e-05
5e-05
5e-05
5e-05
5e-05
5e-05
5e-05
5e-05
5e-05
5e-05
5e-05
5e-05
5e-05
5e-05
5e-05
5e-05
5e-05
5e-05
5e-05
5e-05
5e-05
5e-05
5e-05
5e-05
5e-05
5.000000026e-05
5.000001706e-05
5.000053081e-05
5.348054687e-05
6.858768451e-05
6.999794343e-05
6.9997944e-05
6.999794376e-05
6.999794355e-05
6.999794358e-05
6.999794335e-05
6.999794299e-05
6.996391294e-05
6.996689959e-05
6.999921484e-05
7e-05
7e-05
7e-05
7e-05
7e-05
7e-05
7e-05
7e-05
7e-05
7e-05
7e-05
7e-05
7e-05
7e-05
7e-05
7e-05
7e-05
5e-05
5e-05
5e-05
5e-05
5e-05
5e-05
5e-05
5e-05
5e-05
5e-05
5e-05
5e-05
5e-05
5e-05
5e-05
5e-05
5e-05
5e-05
5e-05
5e-05
5e-05
5e-05
5e-05
5e-05
5e-05
5e-05
5e-05
5e-05
5.000000003e-05
5.000000222e-05
5.000007542e-05
5.018279488e-05
5.991703705e-05
6.999791835e-05
6.999794565e-05
6.999794565e-05
6.999697406e-05
6.999794314e-05
6.999794299e-05
6.999794291e-05
6.996749584e-05
6.995501856e-05
6.997838201e-05
6.999996349e-05
7e-05
7e-05
7e-05
7e-05
7e-05
7e-05
7e-05
7e-05
7e-05
7e-05
7e-05
7e-05
7e-05
7e-05
7e-05
7e-05
5e-05
5e-05
5e-05
5e-05
5e-05
5e-05
5e-05
5e-05
5e-05
5e-05
5e-05
5e-05
5e-05
5e-05
5e-05
5e-05
5e-05
5e-05
5e-05
5e-05
5e-05
5e-05
5e-05
5e-05
5e-05
5e-05
5e-05
5e-05
5e-05
5.000000029e-05
5.000001856e-05
5.000056229e-05
5.245530462e-05
6.718401886e-05
6.999794146e-05
6.999794354e-05
6.999660839e-05
6.999660515e-05
6.999734012e-05
6.999794291e-05
6.996871931e-05
6.995501113e-05
6.995501277e-05
6.999123135e-05
6.999999997e-05
7e-05
7e-05
7e-05
7e-05
7e-05
7e-05
7e-05
7e-05
7e-05
7e-05
7e-05
7e-05
7e-05
7e-05
7e-05
5e-05
5e-05
5e-05
5e-05
5e-05
5e-05
5e-05
5e-05
5e-05
5e-05
5e-05
5e-05
5e-05
5e-05
5e-05
5e-05
5e-05
5e-05
5e-05
5e-05
5e-05
5e-05
5e-05
5e-05
5e-05
5e-05
5e-05
5e-05
5e-05
5.000000001e-05
5.000000078e-05
5.000003969e-05
5.00016225e-05
5.724243547e-05
6.999783357e-05
6.999834969e-05
6.999805181e-05
6.999660656e-05
6.999720964e-05
6.99979419e-05
6.998325009e-05
6.995501856e-05
6.995587555e-05
6.999507372e-05
6.999999989e-05
7e-05
7e-05
7e-05
7e-05
7e-05
7e-05
7e-05
7e-05
7e-05
7e-05
7e-05
7e-05
7e-05
7e-05
7e-05
5e-05
5e-05
5e-05
5e-05
5e-05
5e-05
5e-05
5e-05
5e-05
5e-05
5e-05
5e-05
5e-05
5e-05
5e-05
5e-05
5e-05
5e-05
5e-05
5e-05
5e-05
5e-05
5e-05
5e-05
5e-05
5e-05
5e-05
5e-05
5e-05
5e-05
5.000000007e-05
5.000000609e-05
5.000024019e-05
5.094574565e-05
6.342703928e-05
6.999914193e-05
6.999924694e-05
6.99991854e-05
6.999870904e-05
6.999788981e-05
6.999937509e-05
6.998433511e-05
6.999261715e-05
6.999889252e-05
6.999999963e-05
7e-05
7e-05
7e-05
7e-05
7e-05
7e-05
7e-05
7e-05
7e-05
7e-05
7e-05
7e-05
7e-05
7e-05
7e-05
5e-05
5e-05
5e-05
5e-05
5e-05
5e-05
5e-05
5e-05
5e-05
5e-05
5e-05
5e-05
5e-05
5e-05
5e-05
5e-05
5e-05
5e-05
5e-05
5e-05
5e-05
5e-05
5e-05
5e-05
5e-05
5e-05
5e-05
5e-05
5e-05
5e-05
5e-05
5.000000012e-05
5.000000773e-05
5.000061371e-05
5.295071572e-05
6.740528344e-05
6.999979186e-05
6.999983038e-05
6.999983132e-05
6.999957611e-05
6.999999975e-05
6.999999987e-05
6.999999968e-05
6.999996272e-05
6.999999435e-05
6.999999999e-05
6.999999999e-05
6.999999999e-05
6.999999999e-05
7e-05
7e-05
7e-05
7e-05
7e-05
7e-05
7e-05
7e-05
7e-05
7e-05
7e-05
5e-05
5e-05
5e-05
5e-05
5e-05
5e-05
5e-05
5e-05
5e-05
5e-05
5e-05
5e-05
5e-05
5e-05
5e-05
5e-05
5e-05
5e-05
5e-05
5e-05
5e-05
5e-05
5e-05
5e-05
5e-05
5e-05
5e-05
5e-05
5e-05
5e-05
5e-05
5e-05
5.000000007e-05
5.000001078e-05
5.000095833e-05
5.486753501e-05
6.871151853e-05
6.999988482e-05
6.999999797e-05
6.999999975e-05
6.999999987e-05
6.999999989e-05
6.99999999e-05
6.999999993e-05
6.999999935e-05
6.999999998e-05
7e-05
7e-05
7e-05
7e-05
7e-05
7e-05
7e-05
7e-05
7e-05
7e-05
7e-05
7e-05
7e-05
7e-05
5e-05
5e-05
5e-05
5e-05
5e-05
5e-05
5e-05
5e-05
5e-05
5e-05
5e-05
5e-05
5e-05
5e-05
5e-05
5e-05
5e-05
5e-05
5e-05
5e-05
5e-05
5e-05
5e-05
5e-05
5e-05
5e-05
5e-05
5e-05
5e-05
5e-05
5e-05
5e-05
5e-05
5.000000001e-05
5.000000659e-05
5.000057567e-05
5.540282e-05
6.851548728e-05
6.999988482e-05
6.999999798e-05
6.999999975e-05
6.99999999e-05
6.999999993e-05
6.999999999e-05
6.999999999e-05
6.999999999e-05
7e-05
7e-05
7e-05
7e-05
7e-05
7e-05
7e-05
6.999999999e-05
7e-05
7e-05
7e-05
7e-05
7e-05
7e-05
5e-05
5e-05
5e-05
5e-05
5e-05
5e-05
5e-05
5e-05
5e-05
5e-05
5e-05
5e-05
5e-05
5e-05
5e-05
5e-05
5e-05
5e-05
5e-05
5e-05
5e-05
5e-05
5e-05
5e-05
5e-05
5e-05
5e-05
5e-05
5e-05
5e-05
5e-05
5e-05
5e-05
5e-05
5.000000003e-05
5.000000352e-05
5.000027139e-05
5.383221219e-05
6.675097069e-05
6.999955952e-05
6.999995542e-05
6.999999718e-05
6.999999971e-05
6.999999995e-05
6.999999999e-05
6.999999999e-05
7e-05
7e-05
7e-05
7e-05
7e-05
7e-05
7e-05
7e-05
7e-05
7e-05
7e-05
7e-05
7e-05
7e-05
5e-05
5e-05
5e-05
5e-05
5e-05
5e-05
5e-05
5e-05
5e-05
5e-05
5e-05
5e-05
5e-05
5e-05
5e-05
5e-05
5e-05
5e-05
5e-05
5e-05
5e-05
5e-05
5e-05
5e-05
5e-05
5e-05
5e-05
5e-05
5e-05
5e-05
5e-05
5e-05
5e-05
5e-05
5e-05
5e-05
5.000000013e-05
5.000001658e-05
5.11664428e-05
6.087563089e-05
6.861771343e-05
6.994416999e-05
6.999990209e-05
6.999997126e-05
6.999999874e-05
6.999999979e-05
7e-05
7e-05
7e-05
7e-05
7e-05
6.999999999e-05
7e-05
7e-05
7e-05
6.999999999e-05
6.999999999e-05
7e-05
7e-05
7e-05
5e-05
5e-05
5e-05
5e-05
5e-05
5e-05
5e-05
5e-05
5e-05
5e-05
5e-05
5e-05
5e-05
5e-05
5e-05
5e-05
5e-05
5e-05
5e-05
5e-05
5e-05
5e-05
5e-05
5e-05
5e-05
5e-05
5e-05
5e-05
5e-05
5e-05
5e-05
5e-05
5e-05
5e-05
5e-05
5e-05
5e-05
5.000000012e-05
5.000000048e-05
5.000001429e-05
5.323133815e-05
6.10034972e-05
6.76121249e-05
6.923168671e-05
6.999332148e-05
6.999989094e-05
6.999999733e-05
7e-05
7e-05
7e-05
7e-05
7e-05
7e-05
7e-05
7e-05
6.999999999e-05
7e-05
7e-05
7e-05
7e-05
5e-05
5e-05
5e-05
5e-05
5e-05
5e-05
5e-05
5e-05
5e-05
5e-05
5e-05
5e-05
5e-05
5e-05
5e-05
5e-05
5e-05
5e-05
5e-05
5e-05
5e-05
5e-05
5e-05
5e-05
5e-05
5e-05
5e-05
5e-05
5e-05
5e-05
5e-05
5e-05
5e-05
5e-05
5.000000001e-05
5.000000016e-05
5.000000026e-05
5.000000025e-05
5.000000026e-05
5.000000048e-05
5.000000257e-05
5.000000472e-05
5.191533266e-05
5.659542241e-05
6.154737949e-05
6.595088213e-05
6.839704401e-05
6.967493242e-05
7e-05
7e-05
7e-05
7e-05
7e-05
7e-05
7e-05
6.999999999e-05
6.999999997e-05
6.999999999e-05
6.999999989e-05
7e-05
5e-05
5e-05
5e-05
5e-05
5e-05
5e-05
5e-05
5e-05
5e-05
5e-05
5e-05
5e-05
5e-05
5e-05
5e-05
5e-05
5e-05
5e-05
5e-05
5e-05
5e-05
5e-05
5e-05
5e-05
5e-05
5e-05
5e-05
5e-05
5e-05
5e-05
5e-05
5e-05
5e-05
5e-05
5e-05
5e-05
5.000000008e-05
5.000000025e-05
5.000000208e-05
5.000000429e-05
5.000000433e-05
5.000000444e-05
5.000000306e-05
5.000000104e-05
5.000000088e-05
5.117318184e-05
5.398033271e-05
5.729286597e-05
6.146497275e-05
6.611566646e-05
6.863932342e-05
7e-05
7e-05
7e-05
7e-05
7e-05
7e-05
6.999999768e-05
6.999999487e-05
6.999999999e-05
5e-05
5e-05
5e-05
5e-05
5e-05
5e-05
5e-05
5e-05
5e-05
5e-05
5e-05
5e-05
5e-05
5e-05
5e-05
5e-05
5e-05
5e-05
5e-05
5e-05
5e-05
5e-05
5e-05
5e-05
5e-05
5e-05
5e-05
5e-05
5e-05
5e-05
5e-05
5e-05
5e-05
5e-05
5e-05
5e-05
5e-05
5.000000007e-05
5.000000066e-05
5.000000114e-05
5.000001332e-05
5.000003156e-05
5.000001517e-05
5.000000093e-05
5.000000076e-05
5.000000071e-05
5.000000076e-05
5.00000014e-05
5.000002553e-05
5.160461623e-05
5.499334286e-05
5.940216094e-05
6.439088976e-05
6.807982068e-05
6.915110064e-05
6.988094037e-05
6.999999998e-05
6.999999997e-05
6.999999891e-05
6.999999967e-05
5e-05
5e-05
5e-05
5e-05
5e-05
5e-05
5e-05
5e-05
5e-05
5e-05
5e-05
5e-05
5e-05
5e-05
5e-05
5e-05
5e-05
5e-05
5e-05
5e-05
5e-05
5e-05
5e-05
5e-05
5e-05
5e-05
5e-05
5e-05
5e-05
5e-05
5e-05
5e-05
5e-05
5e-05
5e-05
5e-05
5e-05
5e-05
5e-05
5e-05
5.000000085e-05
5.000001642e-05
5.000000984e-05
5.000001418e-05
5.000001304e-05
5.00000007e-05
5.000000124e-05
5.000000128e-05
5.000000164e-05
5.000020651e-05
5.00003651e-05
5.001412635e-05
5.057457958e-05
5.399030333e-05
5.797605776e-05
6.180708069e-05
6.604721523e-05
6.881446915e-05
6.942848482e-05
6.99741898e-05
5e-05
5e-05
5e-05
5e-05
5e-05
5e-05
5e-05
5e-05
5e-05
5e-05
5e-05
5e-05
5e-05
5e-05
5e-05
5e-05
5e-05
5e-05
5e-05
5e-05
5e-05
5e-05
5e-05
5e-05
5e-05
5e-05
5e-05
5e-05
5e-05
5e-05
5e-05
5e-05
5e-05
5e-05
5e-05
5e-05
5e-05
5e-05
5e-05
5e-05
5e-05
5e-05
5e-05
5.000000113e-05
5.000000082e-05