/*--------------------------------*- C++ -*----------------------------------*\
  =========                 |
  \\      /  F ield         | OpenFOAM: The Open Source CFD Toolbox
   \\    /   O peration     | Website:  https://openfoam.org
    \\  /    A nd           | Version:  10
     \\/     M anipulation  |
\*---------------------------------------------------------------------------*/
FoamFile
{
    format      ascii;
    class       volVectorField;
    location    "0.0004";
    object      gradT;
}
// * * * * * * * * * * * * * * * * * * * * * * * * * * * * * * * * * * * * * //

dimensions      [0 -1 0 1 0 0 0];

internalField   nonuniform List<vector> 
3600
(
(0 155733.5227 111899.0005)
(0 437964.1061 114811.9142)
(0 664157.4396 120121.3297)
(0 839364.2036 127279.3348)
(0 968961.0602 135734.401)
(0 1058546.336 144993.3254)
(0 1113696.423 154754.9773)
(0 1139457.175 165112.1642)
(0 1139557.787 176681.717)
(0 1115761.569 190316.0801)
(0 1067981.705 206527.3162)
(0 995074.7889 225314.2174)
(0 895770.1244 246193.478)
(0 769543.4974 268227.1249)
(0 617426.0949 290067.7309)
(0 442436.3864 310350.2033)
(0 248881.1551 328559.1491)
(0 40416.48479 345497.1871)
(0 -181711.2049 362523.4044)
(0 -418359.6426 379999.714)
(0 -670835.7117 397428.3064)
(0 -939864.8226 414044.2528)
(0 -1225426.963 429171.1436)
(0 -1527050.201 442366.7719)
(0 -1844278.537 453474.2748)
(0 -2177158.575 462591.1969)
(0 -2526497.805 469838.257)
(0 -2893511.301 474913.6528)
(0 -3278766.715 476803.6702)
(0 -3681196.418 474224.6625)
(0 -4098120.21 466371.0583)
(0 -4525667.163 452725.0485)
(0 -4958834.33 432993.5792)
(0 -5391254.692 406982.8215)
(0 -5814681.162 374513.2623)
(0 -6218477.504 335524.8411)
(0 -6589434.386 290243.3662)
(0 -6911979.037 239286.6479)
(0 -7168602.999 183704.3474)
(0 -3643015.629 124864.3648)
(0 -26492.30549 124799.2579)
(0 -65045.40999 123528.8247)
(0 -103770.6805 121075.7788)
(0 -139653.4376 117544.4431)
(0 -171825.9213 113077.4433)
(0 -199635.538 107842.3894)
(0 -222662.5378 102018.2151)
(0 -240716.8716 95782.95621)
(0 -253818.271 89304.05568)
(0 -262164.7789 82731.60062)
(0 -266095.022 76194.37508)
(0 -266048.8219 69798.30043)
(0 -262529.6666 63626.70288)
(0 -256071.4046 57741.8426)
(0 -247210.4691 52187.2076)
(0 -236464.0954 46990.17576)
(0 -224314.3751 42164.75404)
(0 -211197.5992 37714.19872)
(0 -197498.1238 33633.39801)
(0 -183545.9139 29910.9572)
(0 158646.4363 331334.2051)
(0 446186.4353 340135.0562)
(0 676624.8602 356181.6058)
(0 854977.2749 377812.6367)
(0 986675.0509 403295.387)
(0 1077566.912 430995.5199)
(0 1133815.262 459779.3042)
(0 1161383.915 489777.0269)
(0 1164761.703 523157.0698)
(0 1145607.168 563096.1866)
(0 1102979.843 611295.5749)
(0 1034740.951 667702.0087)
(0 938683.0319 730835.8175)
(0 813417.7502 797838.283)
(0 659549.1734 864245.8076)
(0 480927.8047 925043.1652)
(0 284028.1389 978210.4387)
(0 74380.74001 1027050.695)
(0 -147208.6779 1077277.797)
(0 -383454.7406 1129764.953)
(0 -636791.1729 1182374.729)
(0 -908121.9854 1232444.119)
(0 -1197104.444 1277803.135)
(0 -1502747.07 1317085.249)
(0 -1824054.112 1349872.905)
(0 -2160794.592 1376729.484)
(0 -2514175.349 1398519.664)
(0 -2886545.888 1414677.433)
(0 -3279455.705 1421727.062)
(0 -3691629.029 1415075.174)
(0 -4119619.824 1392521.19)
(0 -4559044.642 1352603.036)
(0 -5004576.557 1294572.038)
(0 -5449735.009 1217944.436)
(0 -5886139.142 1122081.998)
(0 -6302747.4 1006627.859)
(0 -6685672.58 872157.1541)
(0 -7018518.056 720508.3607)
(0 -7283025.282 554785.9158)
(0 -3701920.718 378906.2733)
(0 -27827.84565 378711.5657)
(0 -68768.88912 374827.4448)
(0 -109755.0621 367329.2189)
(0 -147651.7731 356541.9123)
(0 -181527.975 342908.4508)
(0 -210694.7662 326947.321)
(0 -234721.971 309209.6467)
(0 -253431.031 290241.3123)
(0 -266869.6266 270553.3956)
(0 -275274.4595 250601.9498)
(0 -279028.3222 230776.5699)
(0 -278616.4941 211396.2647)
(0 -274586.1245 192710.8206)
(0 -267510.8998 174905.8842)
(0 -257962.136 158110.2402)
(0 -246486.549 142404.0925)
(0 -233590.3522 127827.4854)
(0 -219728.9552 114388.2946)
(0 -205301.3654 102069.4493)
(0 -190648.3438 90835.2227)
(0 164534.3738 536139.4028)
(0 462811.5068 551024.4585)
(0 701835.0201 578216.7328)
(0 886477.9848 614909.3084)
(0 1022143.943 657984.3039)
(0 1115030.253 704207.9872)
(0 1172477.93 750744.096)
(0 1202834.941 796896.3432)
(0 1212876.947 847536.5483)
(0 1203900.074 910837.9403)
(0 1172587.527 989905.8237)
(0 1114615.032 1084223.608)
(0 1025906.399 1191276.061)
(0 902953.4874 1306550.126)
(0 744630.9771 1421323.313)
(0 556401.0175 1523156.229)
(0 350888.6847 1606073.823)
(0 139483.8434 1679410.554)
(0 -78996.94695 1760800.193)
(0 -313262.7113 1849401.316)
(0 -568156.5456 1938790.933)
(0 -844436.416 2023370.174)
(0 -1140785.832 2099196.153)
(0 -1454980.431 2163831.265)
(0 -1784634.302 2216586.16)
(0 -2128511.816 2259375.567)
(0 -2488549.856 2295870.635)
(0 -2870303.903 2326534.879)
(0 -3278368.974 2343780.24)
(0 -3710402.289 2336188.054)
(0 -4160592.348 2301882.262)
(0 -4623616.315 2238591.307)
(0 -5093492.93 2145535.728)
(0 -5563744.732 2022398.643)
(0 -6025997.738 1867671.582)
(0 -6468402.348 1680000.378)
(0 -6875553.885 1459879.188)
(0 -7229350.275 1210206.808)
(0 -7510205.086 936131.4989)
(0 -3819089.979 644144.0963)
(0 -30571.13401 643820.5615)
(0 -76427.75674 637097.3047)
(0 -122056.213 624124.4179)
(0 -164074.2057 605486.1219)
(0 -201420.5126 581973.3043)
(0 -233334.3421 554504.3363)
(0 -259368.5465 524046.7491)
(0 -279373.1227 491550.074)
(0 -293457.6334 457895.1357)
(0 -301941.6045 423860.8351)
(0 -305300.7071 390106.6615)
(0 -304114.5712 357167.7985)
(0 -299020.0472 325459.3522)
(0 -290671.985 295286.5066)
(0 -279712.2608 266857.9796)
(0 -266746.8502 240300.7917)
(0 -252330.173 215674.9603)
(0 -236955.6353 192987.2296)
(0 -221051.1958 172203.3372)
(0 -204978.8144 153258.5995)
(0 173531.492 717015.1128)
(0 488263.7652 738305.769)
(0 740509.71 777418.9492)
(0 934744.846 830463.2183)
(0 1075973.73 892705.7848)
(0 1170326.704 958753.365)
(0 1226503.618 1022064.23)
(0 1258176.367 1077338.235)
(0 1278703.3 1134777.975)
(0 1287976.443 1216524.337)
(0 1276365.51 1325299.469)
(0 1236111.188 1458231.439)
(0 1161009.551 1611847.207)
(0 1043465.002 1782398.942)
(0 876155.2758 1956065.059)
(0 665678.3148 2101596.262)
(0 440282.4646 2201867.171)
(0 229107.1098 2280571.729)
(0 22782.08401 2392797.239)
(0 -205464.0008 2522727.535)
(0 -462822.3147 2653093.85)
(0 -747716.7646 2774623.433)
(0 -1056643.353 2881872.483)
(0 -1385357.063 2971139.19)
(0 -1728509.811 3040359.082)
(0 -2081510.117 3091998.943)
(0 -2447016.037 3140773.246)
(0 -2838636.284 3197029.309)
(0 -3269802.53 3236725.429)
(0 -3733527.007 3231619.904)
(0 -4217216.571 3190109.266)
(0 -4715391.176 3107646.156)
(0 -5220769.221 2984206.08)
(0 -5727599.154 2821365.711)
(0 -6228537.407 2615492.093)
(0 -6710539.794 2362438.481)
(0 -7155466.149 2061778.747)
(0 -7542265.745 1717190.491)
(0 -7849087.994 1336104.293)
(0 -3994231.656 928233.165)
(0 -34874.6372 927780.648)
(0 -88465.03274 917817.9217)
(0 -141366.2449 898611.3858)
(0 -189802.8866 871077.3414)
(0 -232509.7607 836443.1639)
(0 -268621.3214 796115.9161)
(0 -297676.2332 751557.4067)
(0 -319582.6445 704181.8375)
(0 -334558.8655 655282.601)
(0 -343062.9336 605987.7056)
(0 -345721.3588 557239.3612)
(0 -343263.8034 509791.8201)
(0 -336467.4164 464221.6837)
(0 -326112.2724 420945.7631)
(0 -312947.8509 380242.6945)
(0 -297669.5683 342275.5877)
(0 -280903.9143 307113.8995)
(0 -263200.5783 274753.4418)
(0 -245029.9954 245133.969)
(0 -226784.8916 218154.1558)
(0 185825.03 864877.3957)
(0 523215.3432 892901.2837)
(0 793992.4694 945035.612)
(0 1001764.82 1016696.387)
(0 1150434.09 1101272.196)
(0 1244388.699 1191272.015)
(0 1291062.8 1272355.724)
(0 1315548.685 1322323.047)
(0 1352063.048 1364762.332)
(0 1394421.568 1460661.055)
(0 1414294.63 1600174.782)
(0 1401162.769 1772690.666)
(0 1350073.901 1973723.749)
(0 1247171.34 2205412.349)
(0 1063828.297 2386553.257)
(0 802203.129 2512692.679)
(0 529864.1522 2643316.269)
(0 330413.9117 2781450.549)
(0 163158.8587 2949683.307)
(0 -52966.10023 3136922.433)
(0 -316260.6473 3315689.294)
(0 -615657.7837 3477703.415)
(0 -944270.0752 3618297.103)
(0 -1296493.832 3732786.166)
(0 -1663774.55 3815579.076)
(0 -2028097.652 3860693.606)
(0 -2383519.49 3880019.099)
(0 -2774351.72 3944826.071)
(0 -3243778.379 4048245.149)
(0 -3757018.452 4092425.437)
(0 -4284566.096 4053899.997)
(0 -4829519.501 3956837.507)
(0 -5379773.376 3806926.922)
(0 -5932458.719 3614653.829)
(0 -6484924.968 3369911.429)
(0 -7022115.694 3061411.172)
(0 -7520801.875 2686965.091)
(0 -7955024.729 2250882.271)
(0 -8299162.413 1763599.252)
(1.960094027e-24 -4227413.624 1239135.972)
(-1.960094027e-24 -40986.37734 1238553.108)
(0 -105597.0189 1224733.041)
(0 -168796.7933 1198129.962)
(0 -226242.4277 1160116.032)
(0 -276381.9378 1112500.736)
(0 -318220.0993 1057320.256)
(0 -351302.6251 996648.3343)
(0 -375647.9284 932451.3213)
(0 -391651.7654 866492.6738)
(0 -399984.8443 800281.4956)
(0 -401496.5925 735055.2449)
(0 -397132.2487 671786.2445)
(0 -387866.1042 611203.069)
(0 -374650.9743 553819.9323)
(0 -358382.4362 499969.1681)
(0 -339875.6452 449833.5431)
(0 -319852.3189 403476.3938)
(0 -298935.5658 360868.4983)
(0 -277650.4818 321911.2303)
(0 -256428.7617 286455.9593)
(0 201555.38 970938.0676)
(0 568421.9815 1005606.178)
(0 864304.8138 1071807.312)
(0 1090981.43 1165564.085)
(0 1250549.358 1275752.842)
(0 1341410.232 1357788.198)
(0 1357554.65 1385673.287)
(0 1350582.974 1400915.752)
(0 1417041.307 1486271.97)
(0 1523388.893 1620473.544)
(0 1588395.121 1799850.468)
(0 1609660.155 2012988.405)
(0 1593731.234 2249421.348)
(0 1456294.511 2456767.988)
(0 1183435.605 2558353.093)
(0 922441.3259 2667837.958)
(0 709040.3354 2850583.765)
(0 535474.1486 3119559.203)
(0 378253.9673 3422574.602)
(0 160541.9855 3690724.875)
(0 -122041.3322 3923447.789)
(0 -445108.9549 4128163.685)
(0 -801560.6021 4304751.669)
(0 -1188075.091 4448522.773)
(0 -1600602.371 4550262.587)
(0 -2017070.094 4592660.904)
(0 -2362883.572 4540713.766)
(0 -2670410.234 4448124.415)
(0 -3122203.164 4494269.113)
(0 -3727872.159 4601405.845)
(0 -4352804.501 4665974.475)
(0 -4962364.252 4663272.33)
(0 -5562952.9 4563731.102)
(0 -6164614.647 4388443.736)
(0 -6781780.064 4136566.207)
(0 -7393486.132 3786311.179)
(0 -7965995.05 3346486.773)
(0 -8465631.584 2822141.075)
(0 -8860834.293 2228413.142)
(0 -4519277.8 1585296.366)
(0 -49277.5683 1584580.052)
(0 -128888.1787 1565992.927)
(0 -205983.254 1530299.493)
(0 -275432.1126 1479533.861)
(0 -335305.5369 1416318.914)
(0 -384473.7227 1343530.604)
(0 -422545.1678 1264019.777)
(0 -449738.3051 1180418.383)
(0 -466728.6911 1095026.966)
(0 -474500.3624 1009766.536)
(0 -474216.6099 926175.231)
(0 -467115.9793 845432.8084)
(0 -454433.7286 768400.1988)
(0 -437346.1734 695665.3783)
(0 -416934.24 627589.9312)
(0 -394162.3426 564352.9512)
(0 -369868.9591 505990.4702)
(0 -344765.7418 452429.6313)
(0 -319442.5344 403517.4781)
(0 -294376.1993 359044.6346)
(0 220493.1401 1027167.028)
(0 624084.588 1066779.434)
(0 953950.3762 1146603.216)
(0 1205710.35 1258949.545)
(0 1342658.203 1303736.11)
(0 1354309.144 1294563.364)
(0 1334190.354 1295648.469)
(0 1416147.368 1368676.292)
(0 1571620.841 1507467.233)
(0 1708000.066 1663402.497)
(0 1806809.491 1922261.44)
(0 1850733.648 2180126.984)
(0 1793853.484 2403207.957)
(0 1556103.086 2505269.156)
(0 1274898.267 2618180.827)
(0 1094433.801 2804462.494)
(0 981585.3971 3046104.744)
(0 902404.7486 3467980.352)
(0 734324.5307 3883424.121)
(0 447907.0866 4203736.606)
(0 121178.1627 4479051.118)
(0 -234353.9034 4723507.214)
(0 -623910.9872 4938502.572)
(0 -1050982.914 5119338.913)
(0 -1519636.419 5256219.711)
(0 -2037646.473 5331515.233)
(0 -2528055.979 5298272.949)
(0 -2820796.373 5038909.417)
(0 -3090496.95 4745572.152)
(0 -3585313.091 4660098.864)
(0 -4222699.61 4708119.247)
(0 -4931762.874 4754425.714)
(0 -5654601.97 4775799.022)
(0 -6359623.614 4772251.798)
(0 -7087057.525 4720735.048)
(0 -7812195.128 4511354.009)
(0 -8484971.979 4054660.843)
(0 -9073098.36 3443697.647)
(0 -9536007.121 2741229.198)
(0 -4871246.714 1975881.996)
(0 -60289.81691 1975027.087)
(0 -159877.5782 1950343.17)
(0 -255255.8585 1903122.329)
(0 -340223.0066 1836408.731)
(0 -412385.1951 1754004.097)
(0 -470519.2364 1659931.425)
(0 -514414.8463 1558037.929)
(0 -544640.7391 1451754.694)
(0 -562303.6127 1343984.526)
(0 -568836.5794 1237077.803)
(0 -565830.3197 1132861.11)
(0 -554907.2808 1032693.216)
(0 -537633.5343 937531.9531)
(0 -515461.242 848002.2621)
(0 -489694.8633 764460.0826)
(0 -461475.1061 687049.4594)
(0 -431775.6388 615751.8749)
(0 -401408.558 550427.7471)
(0 -371035.4784 490850.5608)
(0 -341181.8714 436734.3818)
(0 241167.7859 1027959.886)
(0 687858.1687 1066201.893)
(0 1056474.924 1144062.139)
(0 1248114.324 1180232.412)
(0 1286163.177 1141765.534)
(0 1333322.591 1138421.749)
(0 1431667.578 1221010.711)
(0 1562401.739 1364011.828)
(0 1711767.512 1495439.385)
(0 1938183.1 1739384.705)
(0 2105119.608 2066357.235)
(0 2090606.673 2327583.017)
(0 1918873.405 2511832.353)
(0 1671267.38 2643222.379)
(0 1482628.943 2854756.713)
(0 1350365.244 3126235.597)
(0 1372558.193 3529433.673)
(0 1372793.525 4006328.1)
(0 1114010.221 4361763.031)
(0 756168.9832 4679520.581)
(0 397729.2753 4978779.937)
(0 14342.49889 5258034.891)
(0 -405728.9034 5513493.521)
(0 -870357.9516 5739586.539)
(0 -1388426.05 5928819.248)
(0 -1975016.856 6071433.909)
(0 -2655489.389 6156926.512)
(0 -3223111.031 6085917.771)
(0 -3501013.717 5679685.85)
(0 -3765325.063 5220489.245)
(0 -4258477.652 4893655.499)
(0 -4894684.477 4681337.256)
(0 -5545126.815 4582005.891)
(0 -6219678.621 4548393.347)
(0 -7042677.853 4588629.771)
(0 -8059560.338 4703168.235)
(0 -9033651.412 4668795.35)
(0 -9779063.228 4129884.769)
(0 -10328649.94 3312763.718)
(0 -5285479.911 2421145.755)
(0 -74816.39399 2420145.947)
(0 -200792.9363 2387388.431)
(0 -319917.6933 2325100.791)
(0 -424550.345 2237943.335)
(0 -511782.8429 2131476.023)
(0 -580439.8912 2011304.857)
(0 -630721.899 1882544.641)
(0 -663791.7075 1749560.552)
(0 -681405.5823 1615898.417)
(0 -685623.7788 1484322.075)
(0 -678601.1961 1356901.39)
(0 -662445.136 1235117.405)
(0 -639124.6829 1119966.875)
(0 -610418.0438 1012057.896)
(0 -577887.0427 911693.4701)
(0 -542870.5504 818942.4484)
(0 -506490.6714 733698.4752)
(0 -469667.0559 655728.0925)
(0 -433135.8997 584709.3455)
(0 -397471.1403 520262.2569)
(0 258735.1466 975111.9343)
(0 740186.8407 997761.7337)
(0 1067980.895 1034374.84)
(0 1203413.745 1002197.024)
(0 1300847.541 1025829.793)
(0 1433554.322 1120774.322)
(0 1559780.432 1240420.583)
(0 1690576.042 1367833.618)
(0 1946993.718 1625083.435)
(0 2278917.915 2020296.176)
(0 2395007.802 2289531.9)
(0 2296208.767 2512576.885)
(0 2109492.847 2720734.279)
(0 1899027.445 2987148.844)
(0 1757911.485 3282951.406)
(0 1769110.761 3671048.021)
(0 1861677.899 4156989.533)
(0 1734734.106 4487494.206)
(0 1407517.012 4769791.78)
(0 1064923.993 5085895.417)
(0 699692.4724 5407217.665)
(0 300359.6806 5721243.152)
(0 -142359.3386 6019598.196)
(0 -635657.1871 6296085.78)
(0 -1187789.05 6545902.324)
(0 -1809539.208 6765378.023)
(0 -2513572.116 6957757.321)
(0 -3298037.035 7143895.817)
(0 -3955925.476 7134442.762)
(0 -4371343.442 6810372.979)
(0 -4761851.599 6282148.044)
(0 -5243412.482 5725106.984)
(0 -5787545.879 5170312.873)
(0 -6352999.733 4662573.318)
(0 -6932282.637 4313457.516)
(0 -7732029.549 4278667.363)
(0 -9058255.445 4595280.75)
(0 -10429129.99 4699667.991)
(0 -11244746.13 3950522.591)
(0 -5763864.484 2932994.91)
(0 -94047.14046 2931847.525)
(0 -254922.7352 2887970.402)
(0 -404700.9553 2805351.463)
(0 -533847.7741 2691360.766)
(0 -639023.673 2554233.189)
(0 -719450.6184 2401746.67)
(0 -776159.1515 2240577.807)
(0 -811286.9628 2076117.658)
(0 -827542.0891 1912530.776)
(0 -827833.6067 1752914.905)
(0 -815034.9901 1599485.102)
(0 -791841.7957 1453747.646)
(0 -760693.0431 1316651.236)
(0 -723734.647 1188713.293)
(0 -682810.3108 1070123.283)
(0 -639470.1011 960826.1905)
(0 -594989.9947 860589.3183)
(0 -550397.6877 769055.1971)
(0 -506501.3141 685783.0283)
(0 -463918.7323 610280.7147)
(0 263817.5853 886872.3117)
(0 747121.0749 891972.8527)
(0 1060910.214 888805.8093)
(0 1239569.277 933382.6175)
(0 1404740.475 1045224.189)
(0 1547913.381 1151808.109)
(0 1678726.874 1283207.503)
(0 1947064.591 1547042.199)
(0 2364230.071 1973955.268)
(0 2602631.564 2272564.608)
(0 2597400.317 2457166.984)
(0 2521809.052 2675816.496)
(0 2393445.364 2944914.645)
(0 2233484.507 3295149.924)
(0 2166528.12 3699991.397)
(0 2224403.371 4135849.137)
(0 2189004.379 4492774.023)
(0 1985595.772 4747806.797)
(0 1712411.433 5056605.902)
(0 1393594.867 5396518.863)
(0 1033077.01 5749840.391)
(0 626723.03 6102700.954)
(0 169113.7246 6446487.005)
(0 -344053.8233 6774981.551)
(0 -919133.8065 7084214.519)
(0 -1563161.858 7370884.969)
(0 -2276971.596 7638477.198)
(0 -3046425.591 7898350.328)
(0 -3834536.555 8157906.593)
(0 -4617619.781 8241056.404)
(0 -5343743.646 8055825.685)
(0 -6006519.648 7646354.528)
(0 -6607660.482 7000388.796)
(0 -7076533.978 6158106.157)
(0 -7426583.808 5144057.519)
(0 -7777737.104 4303338.578)
(0 -8612650.784 4092552.55)
(0 -10423821.39 4644982.568)
(0 -12095323.02 4632676.629)
(0 -6304154.978 3525910.291)
(0 -119840.9026 3524649.213)
(0 -327288.9976 3464700.766)
(0 -516527.3289 3353651.15)
(0 -675668.62 3203614.177)
(0 -801396.9386 3026913.439)
(0 -894095.2731 2834211.818)
(0 -956350.9109 2633971.254)
(0 -991838.7382 2432566.802)
(0 -1004608.336 2234626.881)
(0 -998669.4525 2043399.41)
(0 -977768.4554 1861071.357)
(0 -945279.0025 1689026.164)
(0 -904159.0351 1528044.409)
(0 -856945.9967 1378458.447)
(0 -805774.1457 1240271.448)
(0 -752404.5149 1113249.195)
(0 -698261.6648 996990.9582)
(0 -644473.346 890984.079)
(0 -591910.3821 794645.7362)
(0 -541224.9271 707354.5576)
(0 263835.6876 785149.3042)
(0 742120.3383 794795.9826)
(0 1109390.66 814313.8443)
(0 1359832.124 913320.4968)
(0 1519273.032 1050001.071)
(0 1671537.636 1226017.13)
(0 1955014.522 1486330.863)
(0 2381323.807 1862514.561)
(0 2672516.128 2155830.793)
(0 2762129.63 2307983.773)
(0 2798259.69 2493208.728)
(0 2783956.428 2736967.365)
(0 2728826.275 3037359.038)
(0 2654104.198 3406914.955)
(0 2598610.698 3838187.367)
(0 2561893.387 4232827.689)
(0 2473635.56 4546912.353)
(0 2298565.985 4874571.569)
(0 2056229.077 5229867.117)
(0 1758158.481 5608542.966)
(0 1405874.564 6001023.02)
(0 997006.2948 6396374.382)
(0 529921.2589 6787647.058)
(0 2070.326976 7168235.752)
(0 -591885.632 7532252.63)
(0 -1255276.53 7877772.344)
(0 -1986106.757 8204327.48)
(0 -2778607.64 8510226.026)
(0 -3613219.4 8780420.396)
(0 -4473424.351 8980654.352)
(0 -5356553.475 9085906.277)
(0 -6298849.371 9010805.013)
(0 -7275794.251 8711427.633)
(0 -8209331.011 8114868.403)
(0 -8787050.215 7123307.688)
(0 -8783534.518 5671905.634)
(0 -8716611.455 4381119.156)
(0 -9889005.913 4300816.255)
(0 -12363818.41 4941573.165)
(0 -6871891.9 4218786.962)
(0 -155256.6651 4217315.937)
(0 -425920.798 4132635.917)
(0 -665787.544 3980207.35)
(0 -860585.4846 3780690.475)
(0 -1008426.032 3552498.067)
(0 -1112392.804 3309811.592)
(0 -1177804.167 3062807.403)
(0 -1210631.336 2818511.612)
(0 -1216709.481 2581641.315)
(0 -1201389.131 2355263.011)
(0 -1169408.236 2141269.717)
(0 -1124868.744 1940718.813)
(0 -1071260.761 1754071.398)
(0 -1011507.608 1581363.795)
(0 -948019.5625 1422332.38)
(0 -882750.591 1276505.828)
(0 -817255.111 1143274.043)
(0 -752742.9097 1021939.909)
(0 -690130.8354 911758.0331)
(0 -630090.2717 811963.4854)
(0 273464.2637 667426.8433)
(0 776285.615 691962.1023)
(0 1179434.728 761190.1207)
(0 1475256.504 878112.943)
(0 1717437.108 1060126.794)
(0 1984243.173 1328086.342)
(0 2315224.305 1651943.179)
(0 2616564.521 1913436.196)
(0 2809699.283 2045939.426)
(0 2940009.5 2212177.781)
(0 3026383.908 2425243.275)
(0 3065959.362 2693437.151)
(0 3063392.955 3006989.808)
(0 3034312.837 3365367.726)
(0 2992440.854 3756819.093)
(0 2933128.356 4147426.043)
(0 2830748.258 4521736.914)
(0 2668550.536 4904753.902)
(0 2446382.83 5306695.699)
(0 2164750.771 5727554.022)
(0 1820908.427 6160686.317)
(0 1413347.067 6600777.839)
(0 940975.0944 7041493.963)
(0 400551.7487 7475750.404)
(0 -209597.2142 7895575.702)
(0 -891087.0082 8299381.704)
(0 -1644517.914 8683572.108)
(0 -2470332.675 9038405.046)
(0 -3364108.229 9350646.086)
(0 -4312133.9 9590842.748)
(0 -5313592.985 9730570.6)
(0 -6380998.291 9739544.301)
(0 -7503597.092 9622643.632)
(0 -8664653.924 9329903.533)
(0 -9869546.578 8803522.952)
(0 -10519925.64 7703293.979)
(0 -9983740.163 5786111.658)
(0 -9863367.378 4457207.769)
(0 -12177352.32 4882001.157)
(0 -7028412.205 5037902.611)
(0 -205991.9472 5035770.944)
(0 -564397.5854 4909805.81)
(0 -868472.7707 4694578.801)
(0 -1103377.902 4426071.021)
(0 -1272275.822 4130935.98)
(0 -1383785.937 3826788.853)
(0 -1447650.891 3524725.189)
(0 -1473004.826 3231579.21)
(0 -1467856.937 2951471.694)
(0 -1439041.051 2686783.005)
(0 -1392312.653 2438755.417)
(0 -1332477.321 2207872.475)
(0 -1263514.054 1994105.127)
(0 -1188685.015 1797076.738)
(0 -1110632.112 1616177.266)
(0 -1031462.851 1450644.517)
(0 -952827.5839 1299623.191)
(0 -875989.3562 1162208.264)
(0 -801886.8055 1037476.85)
(0 -731190.2009 924511.34)
(0 288370.9465 502522.2485)
(0 835883.6156 543368.012)
(0 1295541.501 651256.3924)
(0 1658768.797 798754.9505)
(0 1969246.431 1008112.932)
(0 2263354.021 1264475.56)
(0 2540364.375 1508397.261)
(0 2775320.055 1679749.512)
(0 2971257.713 1845742.27)
(0 3141433.479 2031742.618)
(0 3279519.061 2270275.23)
(0 3365702.962 2564326.968)
(0 3400756.849 2887996.84)
(0 3403933.482 3244062.546)
(0 3380669.015 3627198.176)
(0 3326811.208 4025203.646)
(0 3230963.418 4432578.005)
(0 3083524.771 4855201.999)
(0 2879029.197 5296892.343)
(0 2612149.099 5756562.171)
(0 2279098.381 6231134.441)
(0 1877813.941 6717467.768)
(0 1404893.825 7209571.889)
(0 856152.0658 7700821.913)
(0 231745.6674 8183889.574)
(0 -467280.1234 8651247.596)
(0 -1247083.415 9097381.404)
(0 -2111533.661 9511906.601)
(0 -3060781.698 9883186.22)
(0 -4093499.837 10189373.21)
(0 -5207851.922 10396934.8)
(0 -6406776.338 10481312.35)
(0 -7685435.018 10420972.05)
(0 -9028451.691 10183140.97)
(0 -10413659.77 9747446.459)
(0 -11800945.81 9126509.235)
(0 -11962697.66 7790371.917)
(0 -10793116.41 5568817.771)
(0 -11783123.57 5098580.139)
(0 -6718122.113 6019795.635)
(0 -283353.4665 6018993.02)
(0 -767112.9413 5816369.793)
(0 -1149522.333 5502340.957)
(0 -1424228.306 5137609.138)
(0 -1607708.2 4756958.255)
(0 -1718603.595 4379180.723)
(0 -1773013.811 4014166.777)
(0 -1783884.83 3667024.633)
(0 -1761505.686 3340268.658)
(0 -1714105.408 3034949.677)
(0 -1648318.766 2751252.212)
(0 -1569519.034 2488827.697)
(0 -1482056.497 2246992.449)
(0 -1389435.468 2024852.255)
(0 -1294451.784 1821384.778)
(0 -1199304.667 1635496.403)
(0 -1105691.364 1466062.697)
(0 -1014889.25 1311957.692)
(0 -927827.7594 1172075.02)
(0 -845151.2842 1045342.872)
(0 314310.0272 314801.5999)
(0 925019.759 368350.7886)
(0 1434821.667 497254.832)
(0 1832113.044 644165.3891)
(0 2183157.718 822491.6643)
(0 2484527.502 1027886.925)
(0 2730498.257 1224006.304)
(0 2953909.529 1407111.159)
(0 3161692.389 1603592.222)
(0 3364542.46 1813404.096)
(0 3558968.258 2072376.345)
(0 3683680.972 2375080.861)
(0 3743128.533 2703026.667)
(0 3773514.173 3058847.869)
(0 3773581.955 3442569.274)
(0 3738508.185 3850188.961)
(0 3660746.612 4279532.773)
(0 3532864.874 4731177.36)
(0 3347743.001 5205434.104)
(0 3098992.869 5701200.5)
(0 2781814.024 6217254.251)
(0 2391784.515 6750009.712)
(0 1924329.24 7294426.462)
(0 1374869.433 7844721.495)
(0 740828.4687 8394892.695)
(0 22404.82211 8934695.494)
(0 -783858.9089 9452943.175)
(0 -1684527.859 9942922.429)
(0 -2686641.62 10391947.16)
(0 -3798385.317 10778568.11)
(0 -5021653.849 11075150.44)
(0 -6356961.042 11250360.08)
(0 -7801768.468 11270911.48)
(0 -9338179.516 11099068.45)
(0 -10926178.31 10703497.05)
(0 -12477000.18 10072141.17)
(0 -13541431.63 9242686.866)
(0 -12555159.16 7276993.2)
(0 -11726374.45 5689641.988)
(0 -6107999.324 7349743.461)
(0 -409417.7892 7235661.131)
(0 -1081049.649 6867696.078)
(0 -1547233.425 6396554.637)
(0 -1848760.605 5902012.818)
(0 -2030704.237 5417158.073)
(0 -2126577.415 4955445.089)
(0 -2159806.981 4521807.35)
(0 -2146902.946 4117547.547)
(0 -2099931.893 3742427.462)
(0 -2028057.497 3395529.901)
(0 -1938434.632 3075619.706)
(0 -1836737.084 2781307.994)
(0 -1727489.496 2511136.319)
(0 -1614292.686 2263624.838)
(0 -1499987.965 2037302.421)
(0 -1386784.933 1830726.918)
(0 -1276366.295 1642499.576)
(0 -1169977.033 1471275.488)
(0 -1068501.626 1315770.98)
(0 -972531.0673 1174768.405)
(0 341920.1353 171905.7674)
(0 1018336.848 213613.4042)
(0 1571356.101 325341.1186)
(0 1984005.629 456107.8172)
(0 2352967.968 605385.1933)
(0 2664868.661 765005.0088)
(0 2919588.608 944464.0844)
(0 3154905.973 1149053.209)
(0 3377550.65 1358267.081)
(0 3610217.601 1594634.848)
(0 3841195.826 1864728.573)
(0 3996353.285 2148817.742)
(0 4084523.857 2467288.27)
(0 4143476.088 2819577.77)
(0 4172010.107 3204453.158)
(0 4163774.708 3619986.579)
(0 4111951.817 4064925.46)
(0 4009426.101 4538758.126)
(0 3849052.337 5040769.726)
(0 3623969.246 5570275.536)
(0 3327907.593 6125553.725)
(0 2954986.151 6703460.405)
(0 2499605.608 7299669.073)
(0 1956618.299 7908928.903)
(0 1321719.667 8525334.051)
(0 590770.357 9140675.695)
(0 -238856.4804 9743537.385)
(0 -1172529.673 10323293.67)
(0 -2225136.015 10866015.33)
(0 -3410296.565 11353090.81)
(0 -4736059.956 11759625.55)
(0 -6211015.298 12047811.5)
(0 -7836726.646 12172582.89)
(0 -9595866.112 12082170.81)
(0 -11440587.05 11725855.71)
(0 -13261756 11064928.33)
(0 -14757845.63 10077785.44)
(0 -14346161.29 8512943.683)
(0 -11710373.31 5038849.861)
(0 -5172102.97 10255637.05)
(0 -765400.8496 8775252.473)
(0 -1606219.436 8040013.424)
(0 -2115205.594 7339834.832)
(0 -2403624.869 6687602.069)
(0 -2554275.928 6087526.033)
(0 -2613954.318 5537872.701)
(0 -2610911.353 5034631.514)
(0 -2563264.717 4573563.117)
(0 -2483523.332 4150883.209)
(0 -2380913.164 3763331.847)
(0 -2262540.673 3408074.936)
(0 -2134002.422 3082600.131)
(0 -1999739.653 2784640.773)
(0 -1863269.366 2512124.626)
(0 -1727349.704 2263139.563)
(0 -1594107.512 2035910.489)
(0 -1465142.794 1828783.758)
(0 -1341617.846 1640216.42)
(0 -1224334.842 1468768.388)
(0 -1113803.536 1313096.181)
(0 356017.664 72622.20516)
(0 1078455.11 71873.18692)
(0 1677316.08 138502.3861)
(0 2112157.119 253651.4371)
(0 2492054.909 384407.3154)
(0 2823606.393 523124.5534)
(0 3114546.457 689067.935)
(0 3367712.525 886969.5735)
(0 3607274.028 1105571.732)
(0 3871003.952 1356881.649)
(0 4113151.152 1613074.076)
(0 4286240.668 1878570.117)
(0 4413888.561 2185490.238)
(0 4510679.061 2532886.462)
(0 4573990.764 2917864.507)
(0 4598980.487 3338994.704)
(0 4579518.158 3795493.32)
(0 4508709.14 4286908.377)
(0 4379260.411 4812710.082)
(0 4183776.868 5372078.503)
(0 3914998.893 5963448.995)
(0 3565899.863 6584215.383)
(0 3129797.738 7230671.28)
(0 2600534.412 7898038.164)
(0 1972575.261 8580488.312)
(0 1240608.156 9270901.449)
(0 398759.0672 9961156.909)
(0 -562049.9126 10639168.81)
(0 -1656844.477 11290748.59)
(0 -2904775.097 11900171.6)
(0 -4326933.168 12439538.31)
(0 -5944003.701 12865984.75)
(0 -7767409.155 13122209.75)
(0 -9784906.697 13138417.77)
(0 -11943420.79 12842471.38)
(0 -14125070.45 12183550.55)
(0 -16093416.28 11171662.18)
(0 -17594094.74 10071447.85)
(0 -9983681.089 9651268.997)
(0 -2371596.712 12619751)
(0 -2625041.413 10275794.53)
(0 -2516467.29 9170338.006)
(0 -2899644.781 8244998.619)
(0 -3101069.404 7442332.419)
(0 -3180433.604 6734800.599)
(0 -3179471.934 6104188.3)
(0 -3124116.566 5537211.495)
(0 -3030651.251 5024139.426)
(0 -2910163.163 4557787.367)
(0 -2770865.77 4132696.19)
(0 -2619166.348 3744553.726)
(0 -2460171.247 3389823.817)
(0 -2297965 3065514.994)
(0 -2135793.896 2769033.778)
(0 -1976202.102 2498088.664)
(0 -1821140.738 2250625.519)
(0 -1672060.364 2024783.249)
(0 -1529992.403 1818862.731)
(0 -1395621.864 1631304.415)
(0 -1269352.059 1460671.5)
(0 341171.1171 5159.011618)
(0 1084217.029 -62301.08827)
(0 1753134.352 -88706.74436)
(0 2229910.559 45315.36631)
(0 2622441.084 166757.7483)
(0 2969529.281 293481.2024)
(0 3283433.628 439637.638)
(0 3571409.77 612471.601)
(0 3847462.726 823819.6614)
(0 4117719.946 1060424.753)
(0 4362884.294 1296996.063)
(0 4568769.446 1559025.723)
(0 4738840.202 1861896.138)
(0 4875850.357 2205578.596)
(0 4978118.349 2589765.923)
(0 5041403.521 3014332.653)
(0 5059865.491 3479257.19)
(0 5026642.863 3984538.912)
(0 4934222.463 4530039.962)
(0 4774708.16 5115291.874)
(0 4540044.472 5739219.585)
(0 4222208.436 6399884.54)
(0 3813428.389 7094298.423)
(0 3306435.331 7818313.204)
(0 2694582.952 8566631.357)
(0 1971438.953 9332947.466)
(0 1129410.879 10110136.8)
(0 157062.0042 10889436.29)
(0 -964133.2261 11659906.41)
(0 -2261506.841 12405212.66)
(0 -3770246.808 13096106.56)
(0 -5528343.854 13684694.29)
(0 -7564293.618 14100676.4)
(0 -9875604.49 14252852.51)
(0 -12395454.27 14041405.49)
(0 -14932565.2 13386276.51)
(0 -16869948.34 12193315.43)
(0 -15866554.47 9625045.018)
(0 -9162070.159 18275803.39)
(0 -4547577.434 13223944.41)
(0 -4214813.841 11373560.77)
(0 -3637015.349 10090194.54)
(0 -3843211.18 9021483.344)
(0 -3913822.889 8112730.289)
(0 -3892420.047 7325316.45)
(0 -3811543.423 6632140.177)
(0 -3690960.226 6014293.479)
(0 -3542688.845 5458559.587)
(0 -3374966.568 4955507.548)
(0 -3194146.805 4498166.786)
(0 -3005413.047 4081177.698)
(0 -2813041.154 3700266.706)
(0 -2620529.691 3351919.506)
(0 -2430695.696 3033171.114)
(0 -2245757.963 2741466.193)
(0 -2067412.927 2474563.599)
(0 -1896905.582 2230469.918)
(0 -1735096.68 2007392.343)
(0 -1582526.074 1803704.524)
(0 -1439471.243 1617921.109)
(0 288557.5641 -46998.90527)
(0 984589.3542 -117660.1051)
(0 1784932.534 -222426.7754)
(0 2367621.611 -134845.7986)
(0 2740220.745 -40935.75664)
(0 3096486.283 58150.43805)
(0 3433536.856 179376.9865)
(0 3751894.549 329814.6978)
(0 4055227.18 512316.1563)
(0 4344180.354 719885.0476)
(0 4611752.122 949153.1548)