/*--------------------------------*- C++ -*----------------------------------*\
  =========                 |
  \\      /  F ield         | OpenFOAM: The Open Source CFD Toolbox
   \\    /   O peration     | Website:  https://openfoam.org
    \\  /    A nd           | Version:  10
     \\/     M anipulation  |
\*---------------------------------------------------------------------------*/
FoamFile
{
    format      ascii;
    class       volScalarField;
    location    "0.0004";
    object      TRHS;
}
// * * * * * * * * * * * * * * * * * * * * * * * * * * * * * * * * * * * * * //

dimensions      [1 -1 -3 0 0 0 0];

internalField   nonuniform List<scalar> 
3600
(
-1.8858167e-11
-5.853711505e-10
-2.199747058e-09
-3.530289155e-09
-4.13725291e-09
-4.170171924e-09
-3.803175098e-09
-3.2778243e-09
-2.553422215e-09
-1.721227618e-09
-5.246719037e-10
1.109719509e-09
2.922010112e-09
4.795945882e-09
6.458556303e-09
7.640634953e-09
8.375624832e-09
8.821764272e-09
9.056852435e-09
9.080750569e-09
8.71795715e-09
7.784332493e-09
6.28890591e-09
4.438970594e-09
2.459745363e-09
4.411365842e-10
-1.608143083e-09
-3.653625609e-09
-5.526187008e-09
-6.928616105e-09
-7.62898018e-09
-7.650653577e-09
-7.205713507e-09
-6.434233626e-09
-5.319700499e-09
-3.870935948e-09
-2.209118466e-09
-4.827726635e-10
1.066155879e-09
-2.77166234e-08
-857.621871
0
0
0
0
0
0
0
0
0
0
0
0
0
0
0
0
0
0
0
-1.613634079e-09
-3.796256508e-09
-6.06190418e-09
-7.035894109e-09
-7.037346886e-09
-6.299625424e-09
-5.178770274e-09
-3.928155128e-09
-2.146393645e-09
1.341553142e-10
2.881740303e-09
6.136759537e-09
9.35432755e-09
1.210391803e-08
1.414911064e-08
1.548699931e-08
1.629328887e-08
1.676371742e-08
1.676298148e-08
1.593235871e-08
1.403427846e-08
1.117874932e-08
7.740655613e-09
4.120356952e-09
5.388871034e-10
-3.0130132e-09
-6.543231267e-09
-9.774736061e-09
-1.222062265e-08
-1.354227602e-08
-1.374724864e-08
-1.30411289e-08
-1.154552989e-08
-9.287906271e-09
-6.442426315e-09
-3.375246092e-09
-4.442253926e-10
2.016181997e-09
3.028243582e-09
-3.944776194e-08
-1186.193973
0
0
0
0
0
0
0
0
0
0
0
0
0
0
0
0
0
0
0
-1.633849383e-09
-3.320465651e-09
-4.485971655e-09
-4.786727813e-09
-4.356008163e-09
-3.68138198e-09
-2.759848483e-09
-1.703812017e-09
-3.097930717e-10
1.624459656e-09
3.989211329e-09
6.554531162e-09
8.919679806e-09
1.09077384e-08
1.243005624e-08
1.368726686e-08
1.472626111e-08
1.53198751e-08
1.514660766e-08
1.39895359e-08
1.188180724e-08
9.191102396e-09
6.393835863e-09
3.705905834e-09
9.836119237e-10
-1.98791021e-09
-5.118563731e-09
-7.990435019e-09
-1.016854579e-08
-1.141864659e-08
-1.164591045e-08
-1.080532268e-08
-8.970502702e-09
-6.478338323e-09
-3.836206792e-09
-1.409676902e-09
6.218372906e-10
1.91714035e-09
1.435769676e-09
-3.475847018e-08
-1039.051915
0
0
0
0
0
0
0
0
0
0
0
0
0
0
0
0
0
0
0
-1.207268045e-09
-2.054198691e-09
-2.27435013e-09
-1.96612432e-09
-1.29741196e-09
-6.503939981e-10
2.48667732e-12
8.529694119e-10
1.984460928e-09
3.434330542e-09
5.189904975e-09
6.954547985e-09
8.439876434e-09
9.840603755e-09
1.122109458e-08
1.256028831e-08
1.361417675e-08
1.397211197e-08
1.335417276e-08
1.181982619e-08
9.784980005e-09
7.77354233e-09
5.984746795e-09
4.163988409e-09
1.968137642e-09
-6.784543391e-10
-3.489270316e-09
-6.034310908e-09
-7.989831873e-09
-9.094622367e-09
-9.098052395e-09
-7.94431063e-09
-5.989188915e-09
-3.887234111e-09
-2.084618521e-09
-5.931718037e-10
5.709788662e-10
1.034065625e-09
7.348455709e-10
-3.786896354e-08
-1134.978539
0
0
0
0
0
0
0
0
0
0
0
0
0
0
0
0
0
0
0
-6.006161219e-10
-7.104990967e-10
2.809307564e-11
9.052575503e-10
1.624984642e-09
2.279125337e-09
2.803141636e-09
3.41223462e-09
4.330569156e-09
5.349689036e-09
6.296388148e-09
7.206121526e-09
8.123156541e-09
9.262760141e-09
1.055192764e-08
1.166703618e-08
1.228591789e-08
1.213833466e-08
1.118678928e-08
9.688961864e-09
8.330028352e-09
7.293266895e-09
6.263013128e-09
4.804724484e-09
2.791811376e-09
4.685697081e-10
-1.806137093e-09
-3.816903893e-09
-5.408987052e-09
-6.309365571e-09
-6.228840957e-09
-5.238928557e-09
-3.897908273e-09
-2.681727976e-09
-1.591967975e-09
-5.285654175e-10
1.995283068e-10
4.235160536e-10
7.952376685e-10
-6.701767874e-08
-1979.382361
0
0
0
0
0
0
0
0
0
0
0
0
0
0
0
0
0
0
0
1.432689781e-10
7.106144979e-10
2.095936023e-09
3.259275565e-09
4.029433038e-09
4.643933441e-09
5.122490984e-09
5.461669216e-09
6.050593025e-09
6.813919487e-09
7.217331138e-09
7.567490428e-09
8.155430011e-09
9.084593403e-09
9.811591008e-09
1.010893946e-08
1.006761682e-08
9.671028092e-09
8.943437586e-09
8.165026859e-09
7.694228085e-09
7.259169869e-09
6.376867828e-09
4.933041248e-09
3.244824515e-09
1.665115036e-09
2.460358564e-10
-1.139578162e-09
-2.488368436e-09
-3.488606039e-09
-3.838661419e-09
-3.625119306e-09
-3.160153498e-09
-2.500503595e-09
-1.611813062e-09
-8.936799129e-10
-8.098224363e-10
-8.370254884e-10
-8.239698781e-10
-9.06908112e-08
-2640.105099
0
0
0
0
0
0
0
0
0
0
0
0
0
0
0
0
0
0
0
6.928379543e-10
1.9354276e-09
3.476816013e-09
4.735432789e-09
5.572026835e-09
5.859846788e-09
5.950694176e-09
6.17093574e-09
6.954235942e-09
7.5597646e-09
7.876676303e-09
8.152307199e-09
8.705858227e-09
8.996117031e-09
8.589030992e-09
8.306162354e-09
7.917714469e-09
7.62472795e-09
7.504913611e-09
7.427960762e-09
7.32297185e-09
6.792703312e-09
5.703178815e-09
4.481957761e-09
3.635908273e-09
3.155562883e-09
2.534451926e-09
1.355799104e-09
-2.285870141e-10
-1.62905093e-09
-2.470993386e-09
-2.886744514e-09
-2.878427076e-09
-2.515486085e-09
-2.26711255e-09
-2.6360907e-09
-3.301434444e-09
-3.473082507e-09
-4.003734489e-09
-8.519712849e-08
-2468.989372
0
0
0
0
0
0
0
0
0
0
0
0
0
0
0
0
0
0
0
1.093852615e-09
2.479205572e-09
4.133507441e-09
5.239324382e-09
5.483065761e-09
5.442883102e-09
5.693762515e-09
6.44625304e-09
7.181492104e-09
7.623471029e-09
8.624046646e-09
9.206621703e-09
9.51640046e-09
8.970208728e-09
8.160839724e-09
7.307990395e-09
6.67651213e-09
6.790237979e-09
6.851190274e-09
6.765297256e-09
6.352312553e-09
5.403223242e-09
4.39049794e-09
3.988822316e-09
4.31281939e-09
4.670314621e-09
4.194219154e-09
2.75010972e-09
9.684563338e-10
-5.553107349e-10
-1.597198498e-09
-2.262444741e-09
-2.669600781e-09
-3.216964178e-09
-4.327956194e-09
-5.488058678e-09
-5.705496175e-09
-5.398879536e-09
-4.7676859e-09
-1.029877923e-07
-3017.738677
0
0
0
0
0
0
0
0
0
0
0
0
0
0
0
0
0
0
0
1.134441641e-09
2.533605034e-09
3.943442061e-09
4.331443779e-09
4.314071532e-09
4.928757064e-09
5.614347497e-09
6.086059607e-09
6.800107476e-09
8.502923156e-09
9.886168067e-09
1.049351783e-08
1.044617757e-08
9.669896317e-09
8.41211674e-09
7.129165242e-09
6.68863811e-09
6.453061402e-09
6.030215993e-09
5.447841493e-09
4.416252817e-09
3.411155072e-09
3.171533846e-09
3.89948375e-09
4.89242862e-09
5.146371553e-09
4.34440335e-09
2.93619087e-09
1.626697942e-09
5.103156764e-10
-7.25949867e-10
-2.072234347e-09
-3.581467781e-09
-5.287464328e-09
-6.584187718e-09
-6.436039112e-09
-5.497706552e-09
-4.870899833e-09
-3.215770528e-09
-1.659199277e-07
-4861.220514
0
0
0
0
0
0
0
0
0
0
0
0
0
0
0
0
0
0
0
1.097517759e-09
2.175723591e-09
2.998425116e-09
3.198192935e-09
3.641718085e-09
4.135630708e-09
4.768447745e-09
5.65835493e-09
7.710023128e-09
9.759327656e-09
1.082836163e-08
1.142268035e-08
1.129336407e-08
1.027866766e-08
8.795269732e-09
7.666224631e-09
6.738465925e-09
5.740661248e-09
4.658747535e-09
3.282409545e-09
2.072413803e-09
1.777596291e-09
2.584573491e-09
3.783223833e-09
4.385524778e-09
4.095256051e-09
3.476361941e-09
3.054544416e-09
2.5123715e-09
1.230465097e-09
-8.101525973e-10
-3.280980924e-09
-5.640861636e-09
-6.968268499e-09
-6.592436712e-09
-5.276819761e-09
-4.599791941e-09
-4.693135561e-09
-4.628946854e-09
-1.978904398e-07
-5766.804901
0
0
0
0
0
0
0
0
0
0
0
0
0
0
0
0
0
0
0
8.056499956e-10
1.561866454e-09
2.127464297e-09
2.403051549e-09
2.675035794e-09
3.084927819e-09
4.0581543e-09
6.052663375e-09
8.542818531e-09
1.009753263e-08
1.13002498e-08
1.179787432e-08
1.14377138e-08
1.044933233e-08
9.175633482e-09
7.847041756e-09
6.382014162e-09
4.626212749e-09
2.666786844e-09
1.044032765e-09
4.888123989e-10
1.143443764e-09
2.212285343e-09
2.724868269e-09
2.572130765e-09
2.513652377e-09
3.047186514e-09
3.524949688e-09
2.807640548e-09
6.837845322e-10
-2.025050095e-09
-4.508846633e-09
-6.111531134e-09
-6.28517703e-09
-5.681401999e-09
-5.555329262e-09
-6.104997301e-09
-6.42845569e-09
-7.307872611e-09
-2.345646629e-09
-14.02983557
0
0
0
0
0
0
0
0
0
0
0
0
0
0
0
0
0
0
0
5.335509536e-10
1.007013747e-09
1.391152807e-09
1.569560701e-09
1.805432848e-09
2.539980787e-09
4.141300597e-09
6.37913196e-09
8.324932128e-09
1.009624443e-08
1.11713344e-08
1.141734566e-08
1.102284584e-08
1.026947058e-08
9.226044456e-09
7.72569711e-09
5.583997357e-09
3.064183021e-09
9.329454537e-10
-4.406230403e-11
2.469990693e-10
9.913750721e-10
1.184779343e-09
7.984766557e-10
8.120118872e-10
1.842471286e-09
3.07160093e-09
3.032218732e-09
1.439312261e-09
-5.478139876e-10
-2.090846167e-09
-3.512477502e-09
-4.883481303e-09
-5.685468548e-09
-6.792702743e-09
-8.4092706e-09
-7.592281981e-09
-6.685339981e-09
-5.22379014e-09
-1.287421752e-09
-22.52771184
0
0
0
0
0
0
0
0
0
0
0
0
0
0
0
0
0
0
0
3.230881521e-10
5.960979217e-10
9.022700186e-10
1.102130086e-09
1.638155537e-09
2.736073217e-09
4.445977597e-09
6.430595658e-09
8.250429559e-09
9.552752267e-09
1.016551921e-08
1.027541649e-08
1.015093659e-08
9.794769423e-09
8.797837538e-09
6.895487539e-09
4.321097252e-09
1.915752978e-09
5.779389255e-10
4.445560894e-10
7.284799103e-10
4.784192122e-10
-3.270305872e-10
-6.47966132e-10
2.625663291e-10
1.606341753e-09
1.840143677e-09
7.489771685e-10
-2.37714782e-10
-3.411831375e-10
-8.066751091e-10
-2.799977291e-09
-5.329071147e-09
-7.108258642e-09
-8.636658552e-09
-8.89920402e-09
-5.942408657e-09
-5.773340308e-09
-2.850806795e-09
-2.184997356e-08
-577.7456407
0
0
0
0
0
0
0
0
0
0
0
0
0
0
0
0
0
0
0
1.969344885e-10
4.623003291e-10
9.324739029e-10
1.31111079e-09
2.152210925e-09
3.548046884e-09
5.228789887e-09
6.810826363e-09
7.864297611e-09
8.299939109e-09
8.448237571e-09
8.604842296e-09
8.779505318e-09
8.536743943e-09
7.363951564e-09
5.39788028e-09
3.354701497e-09
2.065151917e-09
1.725799986e-09
1.622054682e-09
9.252245008e-10
-3.15183167e-10
-1.133708755e-09
-8.069845567e-10
2.045245057e-12
-8.905477057e-11
-1.112388811e-09
-1.385299722e-09
-1.709481432e-10
4.608894353e-10
-1.577617643e-09
-4.900176017e-09
-6.847819955e-09
-7.147867091e-09
-6.843462582e-09
-6.971154628e-09
-6.624942644e-09
-7.391424842e-09
-7.197754655e-09
-3.286769001e-06
-97083.36482
0
0
0
0
0
0
0
0
0
0
0
0
0
0
0
0
0
0
0
2.313047298e-10
6.774468176e-10
1.544156723e-09
2.322991555e-09
3.555845024e-09
5.115903434e-09
6.444135597e-09
7.194289007e-09
7.116868563e-09
6.653600672e-09
6.487986857e-09
6.587062602e-09
6.697265731e-09
6.23487444e-09
5.114849234e-09
3.950426699e-09
3.35050963e-09
3.336095749e-09
3.23001093e-09
2.319010917e-09
7.740720694e-10
-4.683839944e-10
-8.400187382e-10
-9.466158844e-10
-1.847266583e-09
-3.299906842e-09
-3.496108058e-09
-1.675921306e-09
-2.469211491e-10
-1.937567771e-09
-5.078317346e-09
-5.821172287e-09
-4.802213081e-09
-4.906908691e-09
-6.053075813e-09
-9.474435127e-09
-1.012233038e-08
-9.532248711e-09
-9.062405406e-09
-2.906246374e-07
-8532.982661
0
0
0
0
0
0
0
0
0
0
0
0
0
0
0
0
0
0
0
3.873913374e-10
1.163513928e-09
2.632239386e-09
3.983028015e-09
5.57150959e-09
7.031035479e-09
7.695869104e-09
7.311061513e-09
6.166009584e-09
5.104055026e-09
4.580424017e-09
4.315907357e-09
3.93381536e-09
3.28312465e-09
2.853591938e-09
3.20401564e-09
4.060136483e-09
4.490754695e-09
3.815354523e-09
2.306627532e-09
9.222071313e-10
9.266382622e-11
-8.701444737e-10
-2.73939207e-09
-4.895031886e-09
-5.524223375e-09
-4.011466216e-09
-2.613654274e-09
-3.861950164e-09
-6.123985394e-09
-5.246322431e-09
-2.227275827e-09
-2.873311154e-09
-6.717173374e-09
-9.211793031e-09
-1.152556428e-08
-9.15244998e-09
-1.117553167e-08
-7.724981515e-09
9393.989007
673711.1275
0
0
0
0
0
0
0
0
0
0
0
0
0
0
0
0
0
0
0
5.965789023e-10
1.862046722e-09
3.876671842e-09
5.985120674e-09
7.673886338e-09
8.689158362e-09
8.429424164e-09
7.023872911e-09
5.323575138e-09
3.95742061e-09
2.970847099e-09
1.99668753e-09
1.01719971e-09
6.026762743e-10
1.370281433e-09
3.055840447e-09
4.364729325e-09
4.321002664e-09
3.254916541e-09
2.168428874e-09
1.36179478e-09
1.480294816e-12
-2.557778305e-09
-5.340551441e-09
-6.519777218e-09
-5.821306075e-09
-5.322935487e-09
-6.652353366e-09
-7.750757401e-09
-5.296979881e-09
-1.212006677e-09
-1.63624686e-09
-6.589210435e-09
-8.97178338e-09
-8.798012392e-09
-9.542485075e-09
-1.090658578e-08
-1.366604138e-08
-9.018369237e-09
1.918688991e+11
-12639.70999
0
0
0
0
0
0
0
0
0
0
0
0
0
0
0
0
0
0
0
8.072391211e-10
2.414954506e-09
4.904786654e-09
7.827189254e-09
9.258048427e-09
9.522901288e-09
8.461839083e-09
6.687725563e-09
4.953298343e-09
3.464104309e-09
1.906766216e-09
1.260515508e-10
-1.115938524e-09
-8.617557057e-10
8.417712686e-10
2.704761243e-09
3.331684038e-09
2.813496273e-09
2.301083889e-09
2.062499143e-09
9.820224661e-10
-1.660091519e-09
-4.632484247e-09
-6.04871288e-09
-6.078270153e-09
-6.826482824e-09
-8.862017867e-09
-9.337980596e-09
-5.739797439e-09
-1.4262403e-09
-2.387784141e-09
-6.489001076e-09
-6.788038617e-09
-5.381104282e-09
-7.804563259e-09
-1.098944088e-08
-1.435659747e-08
-1.138102332e-08
-3.201196418e+10
5.199702949e+10
0
0
0
0
0
0
0
0
0
0
0
0
0
0
0
0
0
0
0
0
9.199911437e-10
2.663252599e-09
6.05938345e-09
8.831177375e-09
9.828581086e-09
9.402603417e-09
8.074370255e-09
6.59451225e-09
5.259632423e-09
3.731139285e-09
1.604842427e-09
-6.160673492e-10
-1.582274235e-09
-7.736393249e-10
7.395514225e-10
1.470398906e-09
1.176556671e-09
1.025917603e-09
1.510382457e-09
1.287414786e-09
-7.572935828e-10
-3.331497853e-09
-4.377887911e-09
-4.486617848e-09
-6.186340772e-09
-9.211174045e-09
-9.648584737e-09
-5.870718217e-09
-2.336334691e-09
-3.919767003e-09
-7.05574175e-09
-4.537518847e-09
-2.050268339e-09
-5.683050232e-09
-8.947643196e-09
-1.209346386e-08
-1.327267746e-08
-1.698070585e-08
1.873241679e+12
-37197.10671
0
0
0
0
0
0
0
0
0
0
0
0
0
0
0
0
0
0
0
0
1.252262282e-09
3.389365302e-09
6.844538293e-09
8.834795159e-09
9.142585894e-09
8.438581071e-09
7.496624025e-09
6.849775794e-09
6.131760659e-09
4.620381615e-09
2.300585851e-09
3.093892144e-10
-1.724750899e-10
3.585184917e-10
4.223487435e-10
-3.672055315e-10
-8.33987008e-10
-1.043630487e-10
5.822197229e-10
-4.383700089e-10
-2.201623642e-09
-2.385886728e-09
-1.715955736e-09
-3.479261684e-09
-7.300108938e-09
-8.079800827e-09
-4.470053027e-09
-2.603877897e-09
-5.707120013e-09
-7.40437374e-09
-3.068991569e-09
-9.024479439e-12
-3.936060052e-09
-5.287548735e-09
-7.640140897e-09
-1.435948438e-08
-4.501329571e-07
-5.736604484e+11
-7.343012691e+11
0
0
0
0
0
0
0
0
0
0
0
0
0
0
0
0
0
0
0
0
0
1.702638336e-09
4.019730658e-09
6.546666355e-09
7.548470604e-09
7.383812259e-09
6.885214225e-09
6.855577914e-09
7.295343703e-09
7.212140829e-09
5.941458989e-09
4.090692595e-09
2.83622978e-09
2.440051943e-09
1.673628986e-09
-1.139345021e-10
-1.642549797e-09
-1.531722489e-09
-5.70331752e-10
-7.21544989e-10
-1.654023781e-09
-9.239741405e-10
1.037321694e-09
1.953755557e-10
-3.797695454e-09
-5.054486033e-09
-1.645970642e-09
-9.407241998e-10
-6.078919207e-09
-7.605892632e-09
-1.693393499e-09
7.593675385e-10
-2.269837489e-09
-3.558248107e-09
-3.171079723e-09
-3.666256014e-08
-1.448490919e-06
-2.304387286e-05
8.927539498e+12
-888797.2289
0
0
0
0
0
0
0
0
0
0
0
0
0
0
0
0
0
0
0
0
0
1.706141718e-09
3.663292121e-09
5.063384832e-09
5.289615362e-09
4.900539289e-09
5.032987568e-09
6.158510501e-09
7.590805362e-09
8.087692901e-09
7.475162661e-09
6.672744067e-09
6.125013601e-09
5.102258374e-09
2.705669719e-09
-9.57290387e-11
-1.279209007e-09
-8.510515195e-10
-7.907029414e-10
-1.391106701e-09
-2.503732069e-10
2.85696688e-09
3.52859377e-09
3.766269296e-11
-1.617161083e-09
1.720470616e-09
2.0606564e-09
-4.386496692e-09
-6.535908174e-09
-5.80117533e-10
1.056155918e-09
-1.560902307e-09
-9.902390897e-10
-2.363403833e-09
-5.818105497e-08
-5.179490452e-06
-0.0001455844099
3.794700611e+12
-3.511978607e+12
0
0
0
0
0
0
0
0
0
0
0
0
0
0
0
0
0
0
0
0
0
0
1.367899392e-09
2.592875215e-09
2.928140638e-09
2.410601195e-09
2.157247797e-09
3.183889833e-09
5.327200219e-09
7.420523103e-09
8.510572748e-09
8.944044188e-09
9.292893193e-09
8.941419059e-09
6.943140092e-09
3.704068698e-09
1.299350591e-09
7.592374568e-10
4.906106782e-10
-4.375388562e-10
2.066187187e-10
3.609869566e-09
5.670610684e-09
3.074169754e-09
9.906861841e-10
4.274095301e-09
5.363959846e-09
-1.56171765e-09
-4.623887908e-09
1.103251265e-09
1.543305451e-09
-1.249122852e-09
-1.314552739e-09
-1.278232048e-09
-9.949152124e-09
-6.602445192e-06
-0.0002034436604
3.72376805e+12
-3.728132669e+12
0
0
0
0
0
0
0
0
0
0
0
0
0
0
0
0
0
0
0
0
0
0
0
8.527651442e-10
1.162697584e-09
4.096381066e-10
-5.055782507e-10
-2.757135654e-10
1.607934247e-09
4.326643343e-09
6.723672327e-09
8.441433572e-09
9.938404506e-09
1.097922538e-08
1.034055301e-08
7.889361788e-09
5.286703801e-09
4.11612433e-09
3.557067403e-09
2.164416355e-09
1.605399073e-09
4.145596873e-09
6.808229823e-09
5.025570302e-09
2.301917253e-09
4.965600687e-09
7.339018099e-09
1.49338048e-09
-2.403534529e-09
2.971499902e-09
3.314484549e-09
-4.276626712e-10
-1.244760722e-09
-5.098395531e-10
3.893330536e-09
-1.564855415e-06
-0.0002623087435
6.128297714e+11
-3.749621946e+12
0
0
0
-15823.02453
0
0
0
0
0
0
0
0
0
0
0
0
0
0
0
0
0
0
0
0
1.880575488e-10
-4.368445689e-10
-1.920151183e-09
-2.755697694e-09
-1.874402815e-09
5.177323222e-10
3.260870041e-09
5.670240556e-09
7.864473347e-09
9.966678719e-09
1.104211392e-08
1.019483462e-08
8.518510101e-09
7.715302346e-09
7.531241757e-09
6.302099716e-09
4.712612734e-09
5.635661437e-09
7.938155276e-09
6.63031157e-09
3.012233244e-09
4.222937874e-09
7.388172447e-09
3.173895835e-09
-1.059953816e-09
3.797408624e-09
4.651093295e-09
1.609722852e-09
-3.221944493e-10
2.508336524e-10
1.038445089e-08
-1.828357926e-07
-45515.59572
-3.960635869e+11
-2.664226712e+12
0
0
0
-4598.220725
5.410835148e+12
17755.35008
0
0
0
0
0
0
0
0
0
0
0
0
0
0
0
0
0
0
0
-4.976110841e-10
-1.800082198e-09
-3.44319785e-09
-3.771930784e-09
-2.338796729e-09
2.355586978e-11
2.292342022e-09
4.427918408e-09
6.684245043e-09
8.690485693e-09
9.472908862e-09
9.172153472e-09
9.451101695e-09
1.055288137e-08
1.057593018e-08
9.032621054e-09
8.567635963e-09
9.905764375e-09
8.748799345e-09
4.190049257e-09
3.175542046e-09
6.267378472e-09
3.768420588e-09
-9.566488872e-10
3.232184417e-09
5.030364313e-09
2.138364247e-09
1.591185649e-09
-4.937934406e-11
7.995591507e-09
4.506861615e-09
-2672.733608
1.691597617e+12
633938.5545
0
0
0
0
0
13088.79052
0
0
0
0
0
0
0
0
0
0
0
0
0
0
0
0
0
0
0
0
-1.019799633e-09
-2.533819413e-09
-3.729527996e-09
-3.354281623e-09
-1.742591055e-09
2.564024324e-11
1.452423643e-09
3.00437855e-09
4.778841721e-09
6.187809134e-09
6.976470377e-09
8.214958861e-09
1.079698205e-08
1.298281496e-08
1.290115021e-08
1.218434018e-08
1.281149389e-08
1.188589677e-08
6.797990064e-09
3.199004587e-09
5.020783444e-09
4.018867709e-09
-9.706022355e-10
1.678194137e-09
4.652402492e-09
2.088077379e-09
2.974216e-09
3.002610106e-10
7.057355061e-09
7.116476404e-09
-3.284115328e-09
-6.705322913e+12
968049.7891
0
0
0
0
0
0
0
0
0
0
0
0
0
0
0
0
0
0
0
0
0
0
0
0
0
0
0
-1.211401131e-09
-2.421834982e-09
-2.758230779e-09
-1.826489786e-09
-5.639163705e-10
1.883886782e-10
5.694994877e-10
1.282710543e-09
2.197395519e-09
3.058233503e-09
4.608445607e-09
7.90321984e-09
1.205882157e-08
1.436347621e-08
1.466319224e-08
1.535717732e-08
1.528022919e-08
1.077416079e-08
5.173497026e-09
4.865533163e-09
4.664480419e-09
-5.863303877e-10
-3.682396078e-10
3.08989619e-09
6.473490515e-10
3.424900813e-09
1.443847214e-09
7.14297719e-09
7.764934291e-09
-2.300639903e-09
-6.325541878e+12
-2.083513068e+13
-10696.20987
0
0
0
0
0
0
-466495.681
0
0
0
0
0
0
0
0
0
0
0
0
0
0
0
0
0
0
0
0
-1.005551093e-09
-1.533590107e-09
-9.718814191e-10
8.099136154e-11
5.110772274e-10
7.825407093e-11
-5.633921536e-10
-7.481126337e-10
-6.353886146e-10
2.647876969e-10
3.220303582e-09
8.118422968e-09
1.249518689e-08
1.450648072e-08
1.579025361e-08
1.696871181e-08
1.437398665e-08
8.274992604e-09
5.775255817e-09
6.127911887e-09
1.590077033e-09
-1.142571401e-09
1.835322275e-09
-1.076144864e-09
3.058896359e-10
-1.340172489e-10
1.485909551e-09
5.289892957e-09
-1.002811362e-10
1.285730149
-9.313538323e+12
-5.732923355e+13
-352951.4661
0
0
0
0
0
526853.7988
7.333845863e+12
2639354.962
0
0
0
0
0
0
0
0
0
0
0
0
0
0
0
0
0
0
0
-4.831140128e-10
-2.21210294e-10
9.22036063e-10
1.55481453e-09
9.170521432e-10
-5.288218047e-10
-1.90858186e-09
-2.746908739e-09
-2.930750303e-09
-1.290588863e-09
2.996109081e-09
8.160267924e-09
1.157784438e-08
1.349041526e-08
1.561488926e-08
1.562690277e-08
1.097813869e-08
6.962089936e-09
7.2410743e-09
4.658515955e-09
1.312410342e-10
1.589358475e-09
-4.915291687e-10
-1.766897146e-09
-7.722598389e-11
2.714040988e-10
2.87486182e-09
4.488824461e-09
3.980372265e-09
1.866865258
-2.242839403e+12
-2.302851827e+13
-2.19004933e+12
0
0
0
35897.06478
-776502.6194
-666364.3669
1.006843183e+11
-630075.8232
0
0
0
0
0
0
0
0
0
0
0
0
0
0
0
0
0
0
0
1.426862808e-10
9.906811809e-10
2.252349218e-09
2.074100941e-09
5.340159774e-10
-1.418362784e-09
-3.052622057e-09
-4.054898095e-09
-3.887001137e-09
-1.25876129e-09
3.370806712e-09
7.212419825e-09
9.185218344e-09
1.123047233e-08
1.31868765e-08
1.142883884e-08
7.544100654e-09
7.345187281e-09
7.117823907e-09
2.650787197e-09
2.117586471e-09
1.49524372e-09
-1.827281104e-09
2.082760532e-10
-2.733956821e-11
9.798675403e-10
4.641726154e-09
5.699856295e-09
2.280078911e-09
2.258920228
-6.145846042e+10
-1.886205539e+13
-1.138983265e+13
-3.114149347e+12
0
2.373704069e+10
-6.167695115e+12
-612082.8071
8.197386785e+12
-1.234000293e+11
0
0
0
0
0
0
0
0
0
0
0
0
0
0
0
0
0
0
0
0
5.626780118e-10
1.819225704e-09
2.580163577e-09
1.66165657e-09
-2.188181587e-10
-2.021603955e-09
-3.405426132e-09
-4.077442008e-09
-3.176926286e-09
-4.207330332e-11
3.474346031e-09
4.991786515e-09
5.746100986e-09
7.700509053e-09
8.438417232e-09
6.143284815e-09
5.606643846e-09
7.593065925e-09
5.524630267e-09
3.302765448e-09
3.519520716e-09
-1.080437639e-09
-1.483602013e-09
-2.114935327e-09
-1.572462942e-09
3.03551055e-09
2.622594498e-09
3.61053497e-09
8.047330448e-10
-2.442839538
-4.646939035
-4.082885806e+12
-1.331362917e+13
-5.665699944e+12
1.378954922e+12
8.074596316e+12
-12.82224199
-10.46884084
-5.188452066
-7.414934389e+12
-786396.325
0
0
0
0
0
0
0
0
0
0
0
0
0
0
0
0
0
0
0
8.209590511e-10
1.956168411e-09
2.069358579e-09
8.368431161e-10
-6.964239403e-10
-1.828505912e-09
-2.663116189e-09
-2.752636648e-09
-1.23176331e-09
1.434744708e-09
2.735725586e-09
2.03141729e-09
2.185244838e-09
3.559735706e-09
3.060271257e-09
2.276315922e-09
4.966987228e-09
6.462993473e-09
4.897359595e-09
5.8544165e-09
3.814192291e-09
2.101120117e-09
9.279227118e-10
2.770820272e-10
1.539864019e-09
-6.352766273e-10
-5.290896039e-10
-4.42483596e-10
-2.639606428e-09
-4.002588079
-3.866682447
-5.311648448
-6.337453785e+12
-5.635023488e+12
-2.306815671e+12
-1.577960874e+12
-6.717629512
-1.104796609
-0.8752423942
-6.404472771e+11
-201587.7855
0
0
0
0
0
0
0
0
0
0
0
0
0
0
0
0
0
0
0
8.119895699e-10
1.558305603e-09
1.170486432e-09
1.664333598e-10
-5.362974126e-10
-8.516602473e-10
-1.129103152e-09
-6.674126159e-10
9.965720801e-10
2.299316017e-09
1.198268699e-09
-8.032395499e-10
-8.28965384e-10
-4.015356998e-10
-1.083058208e-09
7.141702925e-10
4.436620772e-09
5.082174689e-09
6.283780296e-09
7.242523084e-09
5.534627291e-09
4.695087233e-09
2.42916392e-09
3.011264706e-09
-1.256642103e-09
-1.736352488e-09
-4.080798329e-09
-6.398894206e-09
-4.215857616e-09
-3.845541471
-2.15531292
-8.441202958
-6.775233063
-7.485316699e+12
3.646413181e+12
1.512692927e+12
1.402765684e+12
2.504892376e+12
2.569582028e+12
-1.521757833e+11
0
0
0
0
0
0
0
0
0
0
0
0
0
0
0
0
0
0
0
0
6.145770359e-10
8.970003431e-10
2.454487216e-10
-1.78177612e-10
3.949852048e-12
2.828421643e-10
4.310632689e-10
1.346460432e-09
2.724589797e-09
2.397815456e-09
-3.69739911e-10
-2.698954436e-09
-3.121713328e-09
-3.853318778e-09
-3.869654949e-09
-5.243753812e-10
2.215920667e-09
3.383897166e-09
5.938007301e-09
5.986150316e-09
7.178201375e-09
6.981081644e-09
5.121351394e-09
-3.280916462e-10
-1.318468209e-09
-5.350908397e-09
-1.006462075e-08
-8.516741808e-09
-4.976810333e-09
-3.393810607
-5.12651914
-7.928912077
-3.568116493
-2.715223211
-2.155595804e+13
1.699026627e+12
1.786013811e+13
-3.701362326e+13
1.189978707e+12
0
0
0
0
0
0
0
0
0
0
0
0
0
0
0
0
0
0
0
0
0
3.049549962e-10
1.407280518e-10
-6.64158468e-10
-5.317562556e-10
2.121402585e-10
7.673741941e-10
1.301557837e-09
2.694283999e-09
3.679191831e-09
2.157077399e-09
-1.109673067e-09
-3.25770447e-09
-4.578396287e-09
-6.300283303e-09
-5.533771607e-09
-2.077705025e-09
5.838753874e-10
4.209307329e-09
7.025930046e-09
8.693779226e-09
8.519298351e-09
6.619625294e-09
5.816611221e-09
7.378192988e-10
-7.2514844e-09
-9.264935132e-09
-1.048187714e-08
-8.451429937e-09
-6.277258418e-09
-1.223208837
-1.313109912
4.552204592
1.176803196
-1.209124154
-3.616895643e+11
7.529328906e+12
5.939880975e+11
7.923231174e+12
6.429560756e+12
307898.9635
0
0
0
0
0
0
0
0
0
0
0
0
0
0
0
0
0
0
0
0
-8.894350009e-11
-7.318701967e-10
-1.764965403e-09
-1.358233684e-09
-4.484871176e-10
2.871789818e-10
1.355949098e-09
3.233548825e-09
3.814778172e-09
1.632749064e-09
-1.383328777e-09
-3.462674075e-09
-5.852924447e-09
-7.90714058e-09
-6.730380516e-09
-3.959066194e-09
-5.583860753e-10
3.870314367e-09
7.094915005e-09
1.040304085e-08
8.331479685e-09
8.922179467e-09
3.18676394e-09
-5.605110104e-09
-1.088406341e-08
-1.01804808e-08
-8.995158352e-09
-7.484125174e-09
-4.087826368e-09
-1.990888268e-10
0.849650653
-5.238919924
-2.553361241
-2.766774469
-7.826074112
-5.779066215e+12
2.065809848e+13
-1.17918707e+13
-7.447932656e+12
-46525.87299
0
0
0
0
0
0
0
0
0
0
0
0
0
0
0
0
0
0
0
0
-5.807847046e-10
-1.82508724e-09
-3.201364205e-09
-2.726606518e-09
-1.809206285e-09
-7.11915046e-10
1.118087594e-09
3.246031983e-09
3.210476173e-09
5.216353777e-10
-2.354423241e-09
-4.994564683e-09
-8.370038735e-09
-1.021795337e-08
-8.775355038e-09
-5.465253393e-09
-1.733266501e-11
4.957898804e-09
9.074558673e-09
1.069693864e-08
9.387379898e-09
3.186778053e-09
-1.935938822e-09
-7.259781068e-09
-1.060361312e-08
-9.276119181e-09
-6.149900763e-09
-3.415736346e-09
-1.071797189e-10
-8.291691665e-10
-3.394438387
-0.9240443843
-7.220800984
-6.549561223
-10.67995625
-8.303935584
1.262384491e+13
-1.952192704e+13
-8.048500815e+12
4.968065869e+11
0
0
0
0
0
0
0
0
0
0
0
0
0
0
0
0
0
0
0
0
-1.15470032e-09
-3.073213386e-09
-4.756805579e-09
-4.215842193e-09
-3.202652814e-09
-1.639702163e-09
8.932940085e-10
2.810569938e-09
1.955941841e-09
-9.329760435e-10
-3.565753025e-09
-6.440098896e-09
-9.46955635e-09
-9.88284745e-09
-7.423562199e-09
-3.186429354e-09
1.814609245e-09
5.851667456e-09
1.046483486e-08
8.370572137e-09
5.415722335e-09
5.533430823e-10
-4.514508996e-09
-7.569498845e-09
-7.329901192e-09
-4.990318094e-09
-7.431772869e-10
1.797969574e-10
-9.973316341e-10
-2.503378882e-09
-1.696588715
-2.897358551
-8.941491718
-12.06061267
-10.93307047
-0.2955782801
6.414893518
14.8207644
1.080518576e+12
5.392026739e+12
4.165233206e+12
54928.2978
0
0
0
0
0
0
0
0
0
0
0
0
0
0
0
0
0
0
-1.708888842e-09
-4.106243045e-09
-5.8174732e-09
-5.256881055e-09
-4.158317868e-09
-2.458762237e-09
4.270110694e-11
1.137591689e-09
-5.521620582e-10
-3.013984976e-09
-4.854011543e-09
-7.155297606e-09
-9.086958078e-09
-8.3981252e-09
-5.162874224e-09
-2.440100735e-10
4.554449667e-09
8.380381206e-09
7.791038672e-09
6.58661226e-09
3.210690432e-09
-2.993248172e-09
-6.685916465e-09
-5.10710251e-09
-1.042095688e-09
7.507031029e-10
1.036559485e-09
-1.417987913e-09
-6.55639798e-09
-7.305625884e-09
-5.557461282e-09
-10.50863879
-5.563361195
-8.563627718
-5.891445142
-1.876704984
9.349001503
15.17363166
12.91125216
1.330219283e+13
-1.501457438e+12
-1.669293869e+11
2.631443349e+12
11877.6972
0
0
0
0
0
0
0
0
0
0
0
0
0
0
0
0
-2.086114867e-09
-4.536923609e-09
-5.866300946e-09
-5.559492406e-09
-4.772946085e-09
-3.405840349e-09
-1.911593857e-09
-2.106116821e-09
-4.451934637e-09
-6.148290562e-09
-6.929736149e-09
-7.917321331e-09
-7.834665276e-09
-5.418761577e-09
-1.044405738e-09
2.809620603e-09
4.098541964e-09
7.566152174e-09
7.17083558e-09
1.705632981e-09
-1.865600923e-09
-4.791926953e-09
-5.100653634e-09
1.092928272e-09
5.083671919e-09
4.305665926e-09
-1.153690652e-09
-5.307548953e-09
-9.069672404e-09
-1.118693756e-08
-7.513896835e-09
-4.303837195e-09
-6.125370355
-6.756584322
-2.8542554
1.824417093
16.56135133
17.93081631
16.30325875
2.827695844
5.201231055e+11
4.851977264e+12
3.869695282e+12
8.982577581e+12
3.131133121e+12
13829.04805
0
0
0
0
0
0
0
0
0
0
0
0
0
0
-2.14371533e-09
-4.366363312e-09
-5.294210678e-09
-5.528888062e-09
-5.600796111e-09
-4.564588559e-09
-3.977580771e-09
-4.930982948e-09
-6.913156068e-09
-7.435493051e-09
-7.204482654e-09
-7.109422153e-09
-5.827403049e-09
-3.012385287e-09
7.559791349e-10
4.745748109e-09
7.043409312e-09
4.479874747e-09
2.442640115e-09
-3.80888018e-09
-6.756121859e-09
-3.496516489e-09
-4.604026543e-10
5.922099489e-09
7.361409498e-09
5.067314186e-09
-4.403557214e-09
-1.017271922e-08
-1.245183102e-08
-1.587674493e-08
-1.099929122e-08
-3.855484774e-09
-3.676841598
-3.102030802
0.01863002586
11.15974786
17.64319915
23.23877137
13.91762569
2.577268003
3.192741133
4.538045665
1.336964757e+12
4.520282119e+12
7.660936788e+12
1.599044294e+13
3.171806717e+12
32946.26227
0
0
0
0
0
0
0
0
0
0
0
0
-1.834179434e-09
-3.840754511e-09
-5.18993417e-09
-6.168598735e-09
-7.197563498e-09
-6.389242079e-09
-5.866537574e-09
-6.946354922e-09
-8.180725091e-09
-8.238460875e-09
-8.021908406e-09
-7.427820814e-09
-4.634321783e-09
5.738122182e-10
5.018778731e-09
6.320675212e-09
7.030679422e-09
1.701649396e-09
-3.250622447e-09
-7.374391998e-09
-9.135608415e-09
-2.956689891e-10
5.051835373e-09
1.04680473e-08
8.785544093e-09
2.456464212e-09
-6.220711164e-09
-1.477480745e-08
-1.542832253e-08
-1.349478467e-08
-8.072491034e-09
-1.691737634e-09
-1.801069011e-09
-3.425224847
4.266473711
13.37099126
22.28970785
21.86727057
18.47440284
9.169912067
4.270089809