/*--------------------------------*- C++ -*----------------------------------*\
  =========                 |
  \\      /  F ield         | OpenFOAM: The Open Source CFD Toolbox
   \\    /   O peration     | Website:  https://openfoam.org
    \\  /    A nd           | Version:  6
     \\/     M anipulation  |
\*---------------------------------------------------------------------------*/
FoamFile
{
    version     2.0;
    format      ascii;
    class       volVectorField;
    location    "0.0028";
    object      gradT;
}
// * * * * * * * * * * * * * * * * * * * * * * * * * * * * * * * * * * * * * //

dimensions      [0 -1 0 1 0 0 0];

internalField   nonuniform List<vector> 
9600
(
(0 -3.811648179e-08 -0.0001774779625)
(0 -1.105377978e-07 -0.0001776189945)
(0 -1.71524168e-07 -0.0001779048671)
(0 -2.477571316e-07 -0.0001783241484)
(0 -3.125551525e-07 -0.0001788844618)
(0 -3.887881142e-07 -0.0001795934272)
(0 -4.612094296e-07 -0.0001804396131)
(0 -5.260074518e-07 -0.0001814268311)
(0 -6.060520604e-07 -0.0001825588895)
(0 -6.708500795e-07 -0.00018383198)
(0 -7.394597511e-07 -0.0001852461026)
(0 -8.233160066e-07 -0.0001868088772)
(0 -8.881140257e-07 -0.000188512684)
(0 -9.605353468e-07 -0.0001903651461)
(0 -1.032956656e-06 -0.0001923624486)
(0 -1.116812916e-06 -0.0001945045949)
(0 -1.177799294e-06 -0.0001968030199)
(0 -1.257843899e-06 -0.000199238662)
(0 -1.337888511e-06 -0.0002018343944)
(0 -1.410309835e-06 -0.0002045825939)
(0 -1.48654279e-06 -0.0002074794453)
(0 -1.562775753e-06 -0.0002105249522)
(0 -1.635197079e-06 -0.000213726738)
(0 -1.719053329e-06 -0.0002170771754)
(0 -1.795286292e-06 -0.0002205991383)
(0 -1.875330915e-06 -0.0002242697569)
(0 -1.959187164e-06 -0.0002281042736)
(0 -2.039231776e-06 -0.0002321026926)
(0 -2.111653104e-06 -0.0002362459555)
(0 -2.195509351e-06 -0.0002405607399)
(0 -2.275553963e-06 -0.0002450241799)
(0 -2.363221885e-06 -0.0002496629572)
(0 -2.435643186e-06 -0.0002544618208)
(0 -2.519499446e-06 -0.0002594169634)
(0 -2.595732425e-06 -0.0002645321968)
(0 -2.683400318e-06 -0.0002698151396)
(0 -2.76344493e-06 -0.0002752619849)
(0 -2.847301207e-06 -0.0002808651094)
(0 -2.923534153e-06 -0.0002866435663)
(0 -3.003578765e-06 -0.0002925706793)
(0 -3.083623395e-06 -0.0002986616948)
(0 -3.156044692e-06 -0.0003049013611)
(0 -3.239900952e-06 -0.0003113049301)
(0 -3.316133935e-06 -0.0003178533435)
(0 -3.392366879e-06 -0.0003245656541)
(0 -3.464788195e-06 -0.0003314189975)
(0 -3.525774587e-06 -0.0003384171856)
(0 -3.605819177e-06 -0.0003455487773)
(0 -3.6629939e-06 -0.000352821402)
(0 -3.727791941e-06 -0.0003602236249)
(0 -3.792589938e-06 -0.0003677516279)
(0 -3.845953012e-06 -0.0003753939825)
(0 -3.903127758e-06 -0.0003831430656)
(0 -3.948867513e-06 -0.0003909988702)
(0 -3.986984002e-06 -0.0003989423457)
(0 -4.025100486e-06 -0.0004069620537)
(0 -4.051782021e-06 -0.0004150465593)
(0 -4.086086855e-06 -0.0004231920515)
(0 -4.097521802e-06 -0.0004313756604)
(0 -4.108956744e-06 -0.0004395935736)
(0 -4.105145096e-06 -0.0004478152987)
(0 -4.089898506e-06 -0.0004560217776)
(0 -4.078463559e-06 -0.0004642091976)
(0 -4.047970373e-06 -0.0004723394432)
(0 -4.002230597e-06 -0.000480404891)
(0 -3.94886752e-06 -0.0004883674238)
(0 -3.876446198e-06 -0.0004962041716)
(0 -3.792589961e-06 -0.000503892269)
(0 -3.693487085e-06 -0.0005113974012)
(0 -3.586760936e-06 -0.0005186928958)
(0 -3.457164919e-06 -0.0005257482598)
(0 -3.300887323e-06 -0.0005325253671)
(0 -3.140798099e-06 -0.0005389899224)
(0 -2.961650653e-06 -0.0005451038093)
(0 -2.759633281e-06 -0.0005508441482)
(0 -2.538557687e-06 -0.0005561613974)
(0 -2.298423866e-06 -0.0005610174406)
(0 -2.05066672e-06 -0.0005653893977)
(0 -1.772416403e-06 -0.000569231539)
(0 -1.48273115e-06 -0.0005725019366)
(0 -1.173987639e-06 -0.0005751777102)
(0 -8.499975439e-07 -0.000577216942)
(0 -5.031375626e-07 -0.0005785738922)
(0 -1.448426308e-07 -0.0005792447388)
(0 2.286988907e-07 -0.0005791761291)
(0 6.136753605e-07 -0.0005783451933)
(0 1.013898416e-06 -0.0005767328626)
(0 1.429368067e-06 -0.0005742972194)
(0 1.848649378e-06 -0.0005710306404)
(0 2.283177259e-06 -0.0005669102453)
(0 2.725328448e-06 -0.0005619055512)
(0 3.171291304e-06 -0.0005560165581)
(0 3.628689066e-06 -0.0005492165744)
(0 4.089898496e-06 -0.0005415094218)
(0 4.547296305e-06 -0.0005328722302)
(0 5.008505707e-06 -0.0005233126134)
(0 5.484961729e-06 -0.0005128267693)
(0 5.942359546e-06 -0.0005013918277)
(0 6.399757292e-06 -0.0004890458963)
(0 6.86477837e-06 -0.000475777549)
(0 7.303117954e-06 -0.0004616058438)
(0 7.749080747e-06 -0.0004465383958)
(0 8.18360864e-06 -0.0004306018948)
(0 8.595266695e-06 -0.0004138001521)
(0 9.014547943e-06 -0.0003961750884)
(0 9.407147705e-06 -0.0003777419578)
(0 9.780689285e-06 -0.0003585312531)
(0 1.014660745e-05 -0.0003385848961)
(0 1.049346744e-05 -0.0003179257629)
(0 1.08098343e-05 -0.0002966034048)
(0 1.111476609e-05 -0.0002746521212)
(0 1.139682805e-05 -0.0002521290921)
(0 1.16483969e-05 -0.0002290495637)
(0 1.188853067e-05 -0.0002054859533)
(0 1.209817132e-05 -0.0001814763814)
(0 1.227731886e-05 -0.0001570742107)
(0 1.243740801e-05 -0.0001323289898)
(0 1.257462734e-05 -0.0001072940846)
(0 1.266991862e-05 -8.202285765e-05)
(0 6.36164081e-06 -5.657629392e-05)
(0 -1.067261554e-07 -0.0001774093635)
(0 -3.201784681e-07 -0.0001775503955)
(0 -5.298191286e-07 -0.0001778324565)
(0 -7.356481426e-07 -0.0001782517378)
(0 -9.491004592e-07 -0.0001788158628)
(0 -1.162552764e-06 -0.000179517205)
(0 -1.379816724e-06 -0.000180363391)
(0 -1.589457395e-06 -0.000181350609)
(0 -1.802909697e-06 -0.0001824788559)
(0 -2.020173656e-06 -0.0001837557581)
(0 -2.229814332e-06 -0.0001851736924)
(0 -2.447078278e-06 -0.0001867364671)
(0 -2.668153885e-06 -0.000188440274)
(0 -2.885417862e-06 -0.0001902927362)
(0 -3.102681804e-06 -0.0001922900389)
(0 -3.331380708e-06 -0.0001944283736)
(0 -3.552456337e-06 -0.0001967229871)
(0 -3.773531923e-06 -0.0001991662526)
(0 -4.006042476e-06 -0.0002017581735)
(0 -4.230929758e-06 -0.0002044987499)
(0 -4.459628637e-06 -0.0002073956015)
(0 -4.688327541e-06 -0.0002104449202)
(0 -4.917026475e-06 -0.0002136505178)
(0 -5.153348647e-06 -0.0002170123904)
(0 -5.393482497e-06 -0.0002205229186)
(0 -5.629804732e-06 -0.0002242011607)
(0 -5.869938548e-06 -0.000228031866)
(0 -6.106260749e-06 -0.0002320150386)
(0 -6.33877134e-06 -0.0002361659251)
(0 -6.590340097e-06 -0.0002404730864)
(0 -6.830473946e-06 -0.0002449479616)
(0 -7.070607838e-06 -0.0002495829276)
(0 -7.318364942e-06 -0.0002543779798)
(0 -7.554687144e-06 -0.0002593331227)
(0 -7.798632689e-06 -0.0002644559797)
(0 -8.046389788e-06 -0.0002697389229)
(0 -8.290335286e-06 -0.0002751819568)
(0 -8.534280836e-06 -0.0002807965166)
(0 -8.774414634e-06 -0.0002865635389)
(0 -9.018360132e-06 -0.0002924982755)
(0 -9.247059092e-06 -0.0002985931031)
(0 -9.483381238e-06 -0.0003048442047)
(0 -9.719703439e-06 -0.0003112439624)
(0 -9.944590755e-06 -0.0003178038112)
(0 -1.016947795e-05 -0.0003245123105)
(0 -1.039055356e-05 -0.0003313656543)
(0 -1.060019428e-05 -0.0003383714661)
(0 -1.080602324e-05 -0.0003455221165)
(0 -1.10080406e-05 -0.0003528023649)
(0 -1.119862309e-05 -0.0003602122116)
(0 -1.138158214e-05 -0.0003677440267)
(0 -1.154167138e-05 -0.0003753978167)
(0 -1.170557233e-05 -0.0003831583352)
(0 -1.18504149e-05 -0.0003910217635)
(0 -1.196857602e-05 -0.0003989728628)
(0 -1.208673713e-05 -0.0004070078179)
(0 -1.217440504e-05 -0.0004151113822)
(0 -1.224682636e-05 -0.0004232759331)
(0 -1.230018944e-05 -0.0004314747891)
(0 -1.232687097e-05 -0.0004397041378)
(0 -1.232687097e-05 -0.00044794111)
(0 -1.230018944e-05 -0.0004561742709)
(0 -1.223920306e-05 -0.000464376938)
(0 -1.215153514e-05 -0.0004725414889)
(0 -1.202193911e-05 -0.0004806221838)
(0 -1.185422657e-05 -0.0004886113986)
(0 -1.164839753e-05 -0.0004964824517)
(0 -1.140064046e-05 -0.0005042010427)
(0 -1.110714346e-05 -0.0005117481035)
(0 -1.076790675e-05 -0.0005190740918)
(0 -1.037530703e-05 -0.0005261599493)
(0 -9.93315575e-06 -0.0005329713619)
(0 -9.445264754e-06 -0.0005394740341)
(0 -8.892575788e-06 -0.0005456298495)
(0 -8.297958583e-06 -0.0005514006819)
(0 -7.638543409e-06 -0.0005567598596)
(0 -6.92195355e-06 -0.0005616616428)
(0 -6.159623826e-06 -0.000566067905)
(0 -5.343931067e-06 -0.0005699367281)
(0 -4.463440312e-06 -0.000573249054)
(0 -3.537209722e-06 -0.0005759591326)
(0 -2.553804433e-06 -0.0005780212344)
(0 -1.524659372e-06 -0.0005794201128)
(0 -4.497745121e-07 -0.0005801138294)
(0 6.670384713e-07 -0.0005800757129)
(0 1.829591247e-06 -0.0005792714586)
(0 3.034072132e-06 -0.000577678186)
(0 4.272857865e-06 -0.0005752692243)
(0 5.538325169e-06 -0.0005720178916)
(0 6.841908891e-06 -0.0005679165545)
(0 8.168362537e-06 -0.0005629309184)
(0 9.510062834e-06 -0.0005570533599)
(0 1.087844455e-05 -0.000550272434)
(0 1.226207293e-05 -0.0005425652809)
(0 1.364188973e-05 -0.0005339357121)
(0 1.504076462e-05 -0.0005243760947)
(0 1.643963958e-05 -0.0005138750034)
(0 1.783470301e-05 -0.0005024514961)
(0 1.921070797e-05 -0.0004900865056)
(0 2.05829014e-05 -0.0004768067226)
(0 2.192841342e-05 -0.00046261977)
(0 2.325867858e-05 -0.0004475332628)
(0 2.456226234e-05 -0.000431562456)
(0 2.582010647e-05 -0.0004147378424)
(0 2.70550804e-05 -0.0003970746612)
(0 2.82366914e-05 -0.000378603413)
(0 2.936875116e-05 -0.000359362214)
(0 3.046269407e-05 -0.000339370116)
(0 3.148802749e-05 -0.0003186728651)
(0 3.245618638e-05 -0.0002973085776)
(0 3.336717016e-05 -0.0002753153645)
(0 3.420954446e-05 -0.000252727536)
(0 3.498330929e-05 -0.0002296022665)
(0 3.568846404e-05 -0.0002059891032)
(0 3.631738603e-05 -0.0001819223552)
(0 3.686626362e-05 -0.0001574630083)
(0 3.734271945e-05 -0.0001326644228)
(0 3.773150759e-05 -0.0001075723414)
(0 3.804787463e-05 -8.224012653e-05)
(0 1.909254687e-05 -5.67325749e-05)
(0 -1.791474644e-07 -0.0001772797568)
(0 -5.260074518e-07 -0.0001774246005)
(0 -8.804907293e-07 -0.0001776952264)
(0 -1.227350714e-06 -0.0001781183194)
(0 -1.581834004e-06 -0.0001786824444)
(0 -1.940128923e-06 -0.0001793875982)
(0 -2.290800555e-06 -0.0001802337841)
(0 -2.645283852e-06 -0.0001812210021)
(0 -3.007390413e-06 -0.0001823492489)
(0 -3.365685342e-06 -0.0001836185277)
(0 -3.720168645e-06 -0.0001850326503)
(0 -4.086086848e-06 -0.0001865916133)
(0 -4.448193425e-06 -0.0001883030433)
(0 -4.802676734e-06 -0.0001901555055)
(0 -5.176218227e-06 -0.0001921489963)
(0 -5.549759748e-06 -0.0001942949543)
(0 -5.915678009e-06 -0.000196585756)
(0 -6.293031143e-06 -0.0001990290213)
(0 -6.670384313e-06 -0.0002016209421)
(0 -7.051549173e-06 -0.0002043577067)
(0 -7.432713949e-06 -0.0002072545581)
(0 -7.813878767e-06 -0.0002103038766)
(0 -8.198855282e-06 -0.0002135056624)
(0 -8.591454995e-06 -0.0002168637231)
(0 -8.987866406e-06 -0.0002203780628)
(0 -9.380466224e-06 -0.0002240448696)
(0 -9.776877579e-06 -0.0002278755747)
(0 -1.017328899e-05 -0.0002318663704)
(0 -1.056970046e-05 -0.000236013445)
(0 -1.097754675e-05 -0.0002403244177)
(0 -1.138539311e-05 -0.0002447992926)
(0 -1.178942789e-05 -0.0002494304467)
(0 -1.218965088e-05 -0.0002542254986)
(0 -1.259368558e-05 -0.0002591882645)
(0 -1.300153202e-05 -0.0002643073096)
(0 -1.341318994e-05 -0.0002695978757)
(0 -1.382484794e-05 -0.0002750485326)
(0 -1.422507109e-05 -0.000280663092)
(0 -1.462910571e-05 -0.000286441549)
(0 -1.503314042e-05 -0.0002923800969)
(0 -1.541811698e-05 -0.0002984673008)
(0 -1.581452829e-05 -0.0003047222137)
(0 -1.619950476e-05 -0.0003111410292)
(0 -1.658448133e-05 -0.0003177046893)
(0 -1.695802275e-05 -0.0003244246231)
(0 -1.732394097e-05 -0.0003313008364)
(0 -1.768223601e-05 -0.0003383066478)
(0 -1.802528424e-05 -0.0003454687327)
(0 -1.835689763e-05 -0.000352756604)
(0 -1.867326454e-05 -0.0003601778852)
(0 -1.898200793e-05 -0.0003677363813)
(0 -1.926025825e-05 -0.0003754054175)
(0 -1.951945044e-05 -0.0003831888054)
(0 -1.976720746e-05 -0.0003910674798)
(0 -1.997303649e-05 -0.0003990452602)
(0 -2.016361891e-05 -0.0004071068964)
(0 -2.031989648e-05 -0.0004152371417)
(0 -2.044186922e-05 -0.000423424562)
(0 -2.052953714e-05 -0.0004316653456)
(0 -2.057527691e-05 -0.0004399328103)
(0 -2.057527691e-05 -0.0004482078985)
(0 -2.053334879e-05 -0.0004564867986)
(0 -2.044568087e-05 -0.0004647390167)
(0 -2.028940329e-05 -0.0004729454952)
(0 -2.007595101e-05 -0.0004810833644)
(0 -1.980532397e-05 -0.0004891297534)
(0 -1.94698989e-05 -0.0004970541691)
(0 -1.905442936e-05 -0.0005048375577)
(0 -1.856653828e-05 -0.0005124379812)
(0 -1.79986027e-05 -0.0005198363903)
(0 -1.735062261e-05 -0.0005269908571)
(0 -1.661878606e-05 -0.0005338708789)
(0 -1.57992817e-05 -0.0005404497836)
(0 -1.488829788e-05 -0.0005466818317)
(0 -1.388964596e-05 -0.0005525327083)
(0 -1.279570294e-05 -0.0005579681187)
(0 -1.160646877e-05 -0.0005629423229)
(0 -1.032575492e-05 -0.0005674210061)
(0 -8.95737322e-06 -0.000571366062)
(0 -7.497512013e-06 -0.0005747469974)
(0 -5.953794455e-06 -0.0005775218738)
(0 -4.314785738e-06 -0.0005796640201)
(0 -2.591920777e-06 -0.0005811238848)
(0 -8.004461175e-07 -0.0005818785877)
(0 1.071073138e-06 -0.0005818976459)
(0 3.011202079e-06 -0.0005811467547)
(0 5.019940651e-06 -0.0005795954104)
(0 7.085853964e-06 -0.0005772321885)
(0 9.197507111e-06 -0.0005740304075)
(0 1.137014652e-05 -0.0005699595638)
(0 1.358852576e-05 -0.0005650082328)
(0 1.583358663e-05 -0.0005591573562)
(0 1.811676379e-05 -0.0005523916774)
(0 2.042662259e-05 -0.0005446997713)
(0 2.274029317e-05 -0.0005360740147)
(0 2.507302172e-05 -0.0005265067746)
(0 2.740575041e-05 -0.0005160018722)
(0 2.972704432e-05 -0.0005045593074)
(0 3.204452624e-05 -0.0004921866944)
(0 3.43277035e-05 -0.0004788764189)
(0 3.658419944e-05 -0.0004646513507)
(0 3.880257846e-05 -0.000449515293)
(0 4.097902957e-05 -0.000433502559)
(0 4.308687127e-05 -0.0004166207717)
(0 4.514134938e-05 -0.0003989004169)
(0 4.711959479e-05 -0.0003803605601)
(0 4.901398423e-05 -0.0003610431293)
(0 5.083595176e-05 -0.0003409709878)
(0 5.255881674e-05 -0.000320189882)
(0 5.417114424e-05 -0.0002987264929)
(0 5.569199154e-05 -0.0002766341782)
(0 5.710611301e-05 -0.0002539510599)
(0 5.839445045e-05 -0.0002307305006)
(0 5.957224939e-05 -0.000206995366)
(0 6.061664099e-05 -0.0001828218932)
(0 6.153524857e-05 -0.00015825201)
(0 6.233188267e-05 -0.0001333276416)
(0 6.29989211e-05 -0.0001081135889)
(0 6.350968234e-05 -8.26670262e-05)
(0 3.186919042e-05 -5.70336917e-05)
(0 -2.477571316e-07 -0.0001770739278)
(0 -7.394597511e-07 -0.0001772111482)
(0 -1.227350714e-06 -0.0001774893974)
(0 -1.719053329e-06 -0.0001779124904)
(0 -2.214567605e-06 -0.0001784728037)
(0 -2.713893503e-06 -0.0001791779576)
(0 -3.209407767e-06 -0.0001800203318)
(0 -3.704922052e-06 -0.0001810075498)
(0 -4.204247941e-06 -0.0001821357966)
(0 -4.703573853e-06 -0.0001834088871)
(0 -5.210523092e-06 -0.0001848268213)
(0 -5.71366062e-06 -0.0001863819726)
(0 -6.232044772e-06 -0.0001880857794)
(0 -6.731370724e-06 -0.0001899306182)
(0 -7.245943188e-06 -0.000191935544)
(0 -7.768138988e-06 -0.0001940738787)
(0 -8.28652319e-06 -0.0001963646804)
(0 -8.808718941e-06 -0.0001988079457)
(0 -9.33472639e-06 -0.0002013960548)
(0 -9.860733898e-06 -0.0002041404427)
(0 -1.040579953e-05 -0.0002070296708)
(0 -1.093561862e-05 -0.0002100751777)
(0 -1.148068438e-05 -0.0002132731518)
(0 -1.202956165e-05 -0.0002166312126)
(0 -1.257462734e-05 -0.0002201455522)
(0 -1.312731641e-05 -0.0002238123591)
(0 -1.368762861e-05 -0.0002276430642)
(0 -1.424412924e-05 -0.0002316300482)
(0 -1.480444162e-05 -0.0002357809345)
(0 -1.536856546e-05 -0.0002400957188)
(0 -1.594031268e-05 -0.0002445667821)
(0 -1.650062506e-05 -0.0002492055594)
(0 -1.706856054e-05 -0.0002539967997)
(0 -1.763649612e-05 -0.0002589633773)
(0 -1.820824346e-05 -0.0002640900457)
(0 -1.878761387e-05 -0.0002693768001)
(0 -1.93593611e-05 -0.0002748388919)
(0 -1.99196735e-05 -0.0002804534514)
(0 -2.048760896e-05 -0.0002862319083)
(0 -2.105173289e-05 -0.0002921742678)
(0 -2.159679871e-05 -0.00029828053)
(0 -2.215329922e-05 -0.0003045468778)
(0 -2.26983649e-05 -0.0003109656934)
(0 -2.323199579e-05 -0.0003175522233)
(0 -2.376181475e-05 -0.0003242874038)
(0 -2.426876395e-05 -0.0003311712404)
(0 -2.476809001e-05 -0.0003382037333)
(0 -2.525979248e-05 -0.0003453696298)
(0 -2.572481356e-05 -0.0003526841827)
(0 -2.617077655e-05 -0.0003601321454)
(0 -2.660149264e-05 -0.0003677020765)
(0 -2.70017157e-05 -0.0003754054175)
(0 -2.736382244e-05 -0.0003832116753)
(0 -2.770687061e-05 -0.0003911284662)
(0 -2.801561416e-05 -0.0003991481747)
(0 -2.827480626e-05 -0.0004072441157)
(0 -2.849969348e-05 -0.0004154201008)
(0 -2.867121765e-05 -0.0004236570725)
(0 -2.880462536e-05 -0.000431943596)
(-9.918233384e-25 -2.887704665e-05 -0.000440260612)
(9.918233384e-25 -2.88808583e-05 -0.0004486119332)
(0 -2.88236836e-05 -0.0004569480081)
(0 -2.869789919e-05 -0.0004652688358)
(0 -2.849588184e-05 -0.0004735477356)
(0 -2.820238494e-05 -0.0004817618378)
(0 -2.78288434e-05 -0.0004898920831)
(0 -2.736001063e-05 -0.000497900355)
(0 -2.678064026e-05 -0.0005057714115)
(0 -2.610597838e-05 -0.0005134709378)
(0 -2.532077885e-05 -0.0005209646381)
(0 -2.441360673e-05 -0.0005282296427)
(0 -2.339589652e-05 -0.0005352202023)
(0 -2.224859042e-05 -0.0005419058332)
(0 -2.097550005e-05 -0.0005482522307)
(0 -1.957662505e-05 -0.0005542174568)
(0 -1.804815413e-05 -0.0005597557816)
(0 -1.638627562e-05 -0.0005648519587)
(0 -1.458717758e-05 -0.000569448803)
(0 -1.266991855e-05 -0.0005735158316)
(0 -1.061925189e-05 -0.0005770034931)
(0 -8.446612364e-06 -0.000579881284)
(0 -6.155811809e-06 -0.0005821187215)
(0 -3.739226886e-06 -0.0005836776891)
(0 -1.227350714e-06 -0.0005845238715)
(0 1.40268653e-06 -0.000584626786)
(0 4.128015002e-06 -0.0005839559394)
(0 6.94863463e-06 -0.0005824884514)
(0 9.841675598e-06 -0.0005801900275)
(0 1.281476125e-05 -0.0005770416096)
(0 1.585645642e-05 -0.000573024129)
(0 1.897438463e-05 -0.0005681109145)
(0 2.213042946e-05 -0.0005622981544)
(0 2.533983709e-05 -0.0005555553454)
(0 2.85759264e-05 -0.0005478863092)
(0 3.183107413e-05 -0.0005392719876)
(0 3.510909137e-05 -0.0005297123707)
(0 3.838710881e-05 -0.000519199845)
(0 4.16498799e-05 -0.000507738222)
(0 4.490121555e-05 -0.0004953236808)
(0 4.811443496e-05 -0.0004819791006)
(0 5.128572655e-05 -0.0004676968576)
(0 5.441127775e-05 -0.0004525074368)
(0 5.745678465e-05 -0.0004364108466)
(0 6.042224729e-05 -0.0004194490147)
(0 6.33152879e-05 -0.000401629557)
(0 6.609016777e-05 -0.000382994409)
(0 6.876213356e-05 -0.0003635588171)
(0 7.131593743e-05 -0.0003433647029)
(0 7.373252237e-05 -0.0003224501893)
(0 7.601188844e-05 -0.0003008572042)
(0 7.813878767e-05 -0.0002786200469)
(0 8.012084472e-05 -0.0002557882743)
(0 8.193900139e-05 -0.0002323961909)
(0 8.359325621e-05 -0.0002085047787)
(0 8.506455241e-05 -0.0001841635934)
(0 8.635670166e-05 -0.0001594145627)
(0 8.74773257e-05 -0.0001343186702)
(0 8.839593291e-05 -0.0001089330933)
(0 8.912395825e-05 -8.32997598e-05)
(0 4.472969138e-05 -5.748346618e-05)
(0 -3.163668178e-07 -0.0001767994997)
(0 -9.491004592e-07 -0.0001769405318)
(0 -1.578022441e-06 -0.0001772225927)
(0 -2.206944428e-06 -0.000177641874)
(0 -2.851113026e-06 -0.0001782021874)
(0 -3.487658293e-06 -0.0001789073413)
(0 -4.124203577e-06 -0.000179745904)
(0 -4.76074889e-06 -0.0001807293103)
(0 -5.404917442e-06 -0.0001818613688)
(0 -6.045274374e-06 -0.0001831268361)
(0 -6.697066292e-06 -0.0001845371471)
(0 -7.345046481e-06 -0.0001860961102)
(0 -8.004461656e-06 -0.0001877961054)
(0 -8.652441937e-06 -0.000189644756)
(0 -9.315668708e-06 -0.000191638247)
(0 -9.982707179e-06 -0.000193784205)
(0 -1.064974571e-05 -0.0001960711953)
(0 -1.132059577e-05 -0.0001985068374)
(0 -1.200288084e-05 -0.0002010987583)
(0 -1.268135433e-05 -0.0002038355231)
(0 -1.337126261e-05 -0.000206728563)
(0 -1.406117098e-05 -0.0002097740701)
(0 -1.475489107e-05 -0.0002129682327)
(0 -1.546385759e-05 -0.0002163262937)
(0 -1.616901254e-05 -0.0002198368219)
(0 -1.687797925e-05 -0.0002235074407)
(0 -1.759456905e-05 -0.0002273343343)
(0 -1.831115895e-05 -0.0002313251302)
(0 -1.903537226e-05 -0.0002354760167)
(0 -1.976339699e-05 -0.0002397869897)
(0 -2.049142184e-05 -0.0002442580532)
(0 -2.121944681e-05 -0.0002488930192)
(0 -2.194747153e-05 -0.0002536995064)
(0 -2.269074297e-05 -0.0002586622726)
(0 -2.341495631e-05 -0.0002637927529)
(0 -2.416203926e-05 -0.0002690909426)
(0 -2.48976874e-05 -0.0002745454115)
(0 -2.562190075e-05 -0.0002801714062)
(0 -2.634992544e-05 -0.0002859612985)
(0 -2.708176194e-05 -0.0002919112816)
(0 -2.779072871e-05 -0.0002980251675)
(0 -2.849588349e-05 -0.0003043029506)
(0 -2.920866175e-05 -0.0003107408248)
(0 -2.989857029e-05 -0.0003173311668)
(0 -3.058085517e-05 -0.0003240854058)
(0 -3.124027035e-05 -0.0003309883011)
(0 -3.188062747e-05 -0.0003380436643)
(0 -3.250954927e-05 -0.0003452438662)
(0 -3.311941301e-05 -0.0003525812893)
(0 -3.369116048e-05 -0.0003600635573)
(0 -3.425528424e-05 -0.0003676677937)
(0 -3.476604512e-05 -0.0003753940051)
(0 -3.525012468e-05 -0.0003832498147)
(0 -3.569227569e-05 -0.0003912047227)
(0 -3.608868719e-05 -0.0003992663598)
(0 -3.643554721e-05 -0.000407419476)
(0 -3.673285577e-05 -0.0004156526363)
(0 -3.696917797e-05 -0.0004239544065)
(0 -3.713689052e-05 -0.0004323095401)
(0 -3.723980501e-05 -0.000440710413)
(0 -3.72626749e-05 -0.0004491189094)
(0 -3.71902536e-05 -0.0004575464643)
(0 -3.704541094e-05 -0.0004659587721)
(0 -3.67824072e-05 -0.0004743367753)
(0 -3.642030062e-05 -0.0004826537924)
(0 -3.594384455e-05 -0.0004908869527)
(0 -3.535303898e-05 -0.0004990210095)
(0 -3.462120269e-05 -0.0005070140393)
(0 -3.375976995e-05 -0.000514843162)
(0 -3.276111806e-05 -0.0005224740822)
(0 -3.160237714e-05 -0.0005298724949)
(0 -3.029498154e-05 -0.0005370117092)
(0 -2.88351202e-05 -0.0005438498064)
(0 -2.719611155e-05 -0.0005503448586)
(0 -2.539701334e-05 -0.000556462551)
(0 -2.343401441e-05 -0.000562164777)
(0 -2.129186813e-05 -0.000567405797)
(0 -1.898963237e-05 -0.0005721512959)
(0 -1.650824925e-05 -0.000576366979)
(0 -1.386677699e-05 -0.0005800032951)
(0 -1.106902698e-05 -0.0005830259288)
(0 -8.107376163e-06 -0.0005853967741)
(0 -5.000882741e-06 -0.0005870891495)
(0 -1.753358267e-06 -0.0005880611163)
(0 1.639008815e-06 -0.0005882783803)
(0 5.153348678e-06 -0.0005877142598)
(0 8.789661228e-06 -0.0005863420629)
(0 1.252888832e-05 -0.0005841351184)
(0 1.636340671e-05 -0.000581066745)
(0 2.030083942e-05 -0.0005771178737)
(0 2.431069354e-05 -0.000572269457)
(0 2.838915751e-05 -0.0005665024363)
(0 3.252860751e-05 -0.0005597977434)
(0 3.670617416e-05 -0.0005521592)
(0 4.09180459e-05 -0.0005435601244)
(0 4.514516374e-05 -0.0005339966953)
(0 4.938752842e-05 -0.000523472734)
(0 5.359940023e-05 -0.0005119844288)
(0 5.779983645e-05 -0.0004995317704)
(0 6.195834486e-05 -0.0004861223913)
(0 6.60558673e-05 -0.0004717753495)
(0 7.009240257e-05 -0.0004564944482)
(0 7.403364702e-05 -0.0004403101891)
(0 7.786816578e-05 -0.0004232263835)
(0 8.159976911e-05 -0.0004052849519)
(0 8.519034191e-05 -0.0003865087718)
(0 8.863988425e-05 -0.0003669245245)
(0 9.194458289e-05 -0.0003465703198)
(0 9.506251128e-05 -0.0003254880925)
(0 9.800510444e-05 -0.0003037083353)
(0 0.0001007647373 -0.0002812767826)
(0 0.0001033223534 -0.0002582391796)
(0 0.0001056741411 -0.0002346412657)
(0 0.0001078086636 -0.0002105325881)
(0 0.0001097068645 -0.0001859627025)
(0 0.0001113801788 -0.0001609849715)
(0 0.0001128171696 -0.0001356527552)
(0 0.0001140178388 -0.0001100232313)
(0 0.000114955505 -8.414595075e-05)
(0 5.76931103e-05 -5.808571008e-05)
(0 -3.849764661e-07 -0.0001764716874)
(0 -1.154929405e-06 -0.0001766089078)
(0 -1.932505627e-06 -0.0001768909687)
(0 -2.702458559e-06 -0.00017731025)
(0 -3.472411512e-06 -0.0001778667517)
(0 -4.257611016e-06 -0.0001785680939)
(0 -5.038998892e-06 -0.0001794104681)
(0 -5.816575156e-06 -0.0001803938744)
(0 -6.601774646e-06 -0.0001815144979)
(0 -7.38697417e-06 -0.0001827837768)
(0 -8.172173744e-06 -0.000184190276)
(0 -8.976431461e-06 -0.0001857454274)
(0 -9.776877579e-06 -0.0001874454225)
(0 -1.057351211e-05 -0.0001892864497)
(0 -1.138539311e-05 -0.0001912799406)
(0 -1.219346252e-05 -0.0001934220868)
(0 -1.300915531e-05 -0.0001957014536)
(0 -1.383628289e-05 -0.0001981409073)
(0 -1.466722219e-05 -0.0002007213931)
(0 -1.549434994e-05 -0.0002034581577)
(0 -1.634053574e-05 -0.0002063511975)
(0 -1.718290999e-05 -0.0002093967043)
(0 -1.802909599e-05 -0.0002125946784)
(0 -1.889434002e-05 -0.0002159489276)
(0 -1.975958416e-05 -0.0002194594555)
(0 -2.062864007e-05 -0.0002231338857)
(0 -2.149769573e-05 -0.0002269569675)
(0 -2.238580975e-05 -0.0002309401399)
(0 -2.326630062e-05 -0.0002350948378)
(0 -2.415441451e-05 -0.0002394019988)
(0 -2.504634018e-05 -0.0002438730621)
(0 -2.593826601e-05 -0.0002485118395)
(0 -2.683781483e-05 -0.0002533183263)
(0 -2.773355215e-05 -0.0002582849039)
(0 -2.863691294e-05 -0.0002634230072)
(0 -2.954027339e-05 -0.0002687250083)
(0 -3.043982236e-05 -0.0002741871001)
(0 -3.133174822e-05 -0.0002798169061)
(0 -3.2231297e-05 -0.000285618233)
(0 -3.311178773e-05 -0.0002915796507)
(0 -3.399227866e-05 -0.0002977049711)
(0 -3.486895754e-05 -0.0003040018121)
(0 -3.573039003e-05 -0.0003104587442)
(0 -3.657657614e-05 -0.0003170719557)
(0 -3.741513852e-05 -0.0003238376293)
(0 -3.823083123e-05 -0.0003307672057)
(0 -3.901984264e-05 -0.0003378416267)
(0 -3.979741863e-05 -0.0003450761329)
(0 -4.054069003e-05 -0.0003524478605)
(0 -4.125346849e-05 -0.0003599606212)
(0 -4.193956491e-05 -0.000367610597)
(0 -4.258373345e-05 -0.0003753901709)
(0 -4.317835083e-05 -0.0003832917199)
(0 -4.373103956e-05 -0.0003913076137)
(0 -4.422274225e-05 -0.0003994226134)
(0 -4.466108182e-05 -0.0004076405271)
(0 -4.502700002e-05 -0.0004159461083)
(0 -4.533574352e-05 -0.0004243202993)
(0 -4.555300749e-05 -0.0004327631003)
(0 -4.56902268e-05 -0.0004412440173)
(0 -4.572071999e-05 -0.0004497668626)
(0 -4.565973364e-05 -0.0004582897082)
(0 -4.548820945e-05 -0.0004668125533)
(0 -4.519090089e-05 -0.0004753087171)
(0 -4.475637302e-05 -0.0004837591414)
(0 -4.419606071e-05 -0.0004921333322)
(0 -4.347947078e-05 -0.0005004084195)
(0 -4.26066036e-05 -0.000508561538)
(0 -4.156602339e-05 -0.0005165469379)
(0 -4.035010762e-05 -0.0005243531934)
(0 -3.894742132e-05 -0.0005319269415)
(0 -3.736939874e-05 -0.0005392491144)
(0 -3.55855474e-05 -0.0005462701704)
(0 -3.358824395e-05 -0.0005529596163)
(0 -3.14003577e-05 -0.0005592678907)
(0 -2.89875844e-05 -0.0005651683221)
(0 -2.637660556e-05 -0.0005706037358)
(0 -2.35521741e-05 -0.0005755436284)
(0 -2.051810215e-05 -0.0005799460821)
(0 -1.72782013e-05 -0.000583765357)
(0 -1.384390619e-05 -0.0005869747613)
(0 -1.021521712e-05 -0.0005895095073)
(0 -6.399757331e-06 -0.0005913657835)
(0 -2.412773297e-06 -0.0005924902162)
(0 1.745734866e-06 -0.0005928599461)
(0 6.060520641e-06 -0.000592433045)
(0 1.052396062e-05 -0.0005911866325)
(0 1.512080833e-05 -0.0005890940377)
(0 1.982819395e-05 -0.0005861247673)
(0 2.466517536e-05 -0.0005822635641)
(0 2.958982481e-05 -0.0005774913806)
(0 3.459070743e-05 -0.0005717853467)
(0 3.968306919e-05 -0.0005651378289)
(0 4.482117093e-05 -0.0005575221558)
(0 4.998976616e-05 -0.0005489459507)
(0 5.520028893e-05 -0.0005393863338)
(0 6.039937704e-05 -0.0005288433149)
(0 6.559084225e-05 -0.0005173207056)
(0 7.075943679e-05 -0.0005048184964)
(0 7.586704535e-05 -0.0004913405085)
(0 8.091366802e-05 -0.000476901988)
(0 8.587643347e-05 -0.0004615219848)
(0 9.07286616e-05 -0.0004452081306)
(0 9.544748262e-05 -0.0004279909183)
(0 0.0001000290832 -0.0004098932102)
(0 0.0001044544067 -0.0003909340722)
(0 0.0001087005834 -0.0003711592436)
(0 0.0001127523648 -0.0003506106461)
(0 0.0001165983178 -0.0003293035328)
(0 0.000120211761 -0.000307295078)
(0 0.0001236117504 -0.0002846233928)
(0 0.0001267601718 -0.0002613265991)
(0 0.0001296494019 -0.0002374618713)
(0 0.0001322680035 -0.0002130825681)
(0 0.0001346121671 -0.000188230622)
(0 0.0001366666463 -0.0001629632072)
(0 0.0001384390619 -0.0001373374955)
(0 0.0001399027348 -0.000111395418)
(0 0.0001410652883 -8.521701884e-05)
(0 7.079374162e-05 -5.884422458e-05)
(0 -4.573977815e-07 -0.000176063841)
(0 -1.368381704e-06 -0.0001762010614)
(0 -2.279365611e-06 -0.0001764793107)
(0 -3.186537877e-06 -0.000176898592)
(0 -4.108956761e-06 -0.000177462717)
(0 -5.027563948e-06 -0.0001781564359)
(0 -5.949982807e-06 -0.0001789988101)
(0 -6.868590059e-06 -0.0001799784048)
(0 -7.798632174e-06 -0.0001811028399)
(0 -8.721051033e-06 -0.0001823683071)
(0 -9.654904895e-06 -0.000183778618)
(0 -1.060019359e-05 -0.0001853223345)
(0 -1.154548233e-05 -0.0001870147062)
(0 -1.248695951e-05 -0.0001888595451)
(0 -1.345130642e-05 -0.0001908492243)
(0 -1.440803012e-05 -0.0001929875589)
(0 -1.53647539e-05 -0.0001952707374)
(0 -1.634434739e-05 -0.0001976987561)
(0 -1.732012932e-05 -0.0002002830536)
(0 -1.831115796e-05 -0.0002030160065)
(0 -1.930599803e-05 -0.000205901423)
(0 -2.030464985e-05 -0.0002089431182)
(0 -2.13033018e-05 -0.0002121410923)
(0 -2.232863503e-05 -0.0002154877181)
(0 -2.335015674e-05 -0.0002190020578)
(0 -2.43716786e-05 -0.000222665053)
(0 -2.540844676e-05 -0.0002264881348)
(0 -2.645283836e-05 -0.0002304789304)
(0 -2.749341848e-05 -0.0002346260051)
(0 -2.854543321e-05 -0.0002389407894)
(0 -2.960125976e-05 -0.0002434118527)
(0 -3.066470978e-05 -0.00024805063)
(0 -3.172434779e-05 -0.0002528571169)
(0 -3.278779763e-05 -0.0002578275061)
(0 -3.385887098e-05 -0.0002629694211)
(0 -3.492232061e-05 -0.0002682752338)
(0 -3.599339375e-05 -0.0002737487606)
(0 -3.705303217e-05 -0.0002793900015)
(0 -3.811267014e-05 -0.0002851989517)
(0 -3.916849669e-05 -0.0002911718044)
(0 -4.021288853e-05 -0.0002973238063)
(0 -4.124965659e-05 -0.0003036320823)
(0 -4.22711783e-05 -0.0003101004492)
(0 -4.328126533e-05 -0.0003167403423)
(0 -4.427610524e-05 -0.0003235365091)
(0 -4.524807553e-05 -0.0003304851437)
(0 -4.618955291e-05 -0.0003376014929)
(0 -4.711578314e-05 -0.0003448626806)
(0 -4.800770881e-05 -0.0003522839596)
(0 -4.8853895e-05 -0.0003598386485)
(0 -4.967721071e-05 -0.0003675381756)
(0 -5.045097529e-05 -0.0003753711126)
(0 -5.116375381e-05 -0.0003833298363)
(0 -5.182698029e-05 -0.0003914067165)
(0 -5.242540915e-05 -0.0003995979492)
(0 -5.295522827e-05 -0.0004078882842)
(0 -5.341262603e-05 -0.00041627391)
(0 -5.37823559e-05 -0.0004247472039)
(0 -5.40644179e-05 -0.0004332814845)
(0 -5.423975368e-05 -0.0004418691276)