/*--------------------------------*- C++ -*----------------------------------*\
  =========                 |
  \\      /  F ield         | OpenFOAM: The Open Source CFD Toolbox
   \\    /   O peration     | Website:  https://openfoam.org
    \\  /    A nd           | Version:  6
     \\/     M anipulation  |
\*---------------------------------------------------------------------------*/
FoamFile
{
    version     2.0;
    format      ascii;
    class       volScalarField;
    location    "0.0028";
    object      Num_divU;
}
// * * * * * * * * * * * * * * * * * * * * * * * * * * * * * * * * * * * * * //

dimensions      [0 0 -1 0 0 0 0];

internalField   nonuniform List<scalar> 
9600
(
3.148694702e-08
6.647698727e-08
6.4398655e-08
6.468791863e-08
6.295324542e-08
6.127135053e-08
5.961260984e-08
5.798278379e-08
5.636480134e-08
5.478330005e-08
5.323270348e-08
5.174392091e-08
5.031207022e-08
4.896574494e-08
4.769394919e-08
4.651794935e-08
4.541905678e-08
4.441385416e-08
4.348061952e-08
4.263565028e-08
4.18560249e-08
4.115544981e-08
4.050530877e-08
3.991445789e-08
3.935127571e-08
3.882809722e-08
3.832046057e-08
3.785022543e-08
3.739806922e-08
3.69857361e-08
3.658725075e-08
3.621813012e-08
3.584880252e-08
3.549922523e-08
3.514786542e-08
3.482360676e-08
3.45071541e-08
3.422313948e-08
3.394098036e-08
3.367451181e-08
3.338521601e-08
3.308777971e-08
3.274991711e-08
3.239849833e-08
3.201241613e-08
3.162863936e-08
3.12287666e-08
3.084716097e-08
3.045367403e-08
3.006747002e-08
2.964000429e-08
2.917808818e-08
2.862718964e-08
2.799951827e-08
2.724881403e-08
2.63945498e-08
2.538399137e-08
2.421842635e-08
2.281590019e-08
2.115492201e-08
1.914413314e-08
1.677616408e-08
1.398489548e-08
1.079050481e-08
7.137566563e-09
3.042810053e-09
-1.563012585e-09
-6.664448321e-09
-1.231223907e-08
-1.844631295e-08
-2.506657169e-08
-3.2070853e-08
-3.944770812e-08
-4.711153251e-08
-5.508972324e-08
-6.333481736e-08
-7.190311474e-08
-8.076089405e-08
-8.997912338e-08
-9.955453679e-08
-1.0962492e-07
-1.20294339e-07
-1.318460632e-07
-1.445505484e-07
-1.588605564e-07
-1.752024798e-07
-1.941665032e-07
-2.163041217e-07
-2.423326956e-07
-2.729507109e-07
-3.090497037e-07
-3.515295181e-07
-4.014948015e-07
-4.600598114e-07
-5.285305582e-07
-6.082127285e-07
-7.005912295e-07
-8.071441912e-07
-9.295123687e-07
-1.069313598e-06
-1.228303957e-06
-1.40821355e-06
-1.61091095e-06
-1.838246792e-06
-2.092162826e-06
-2.374472872e-06
-2.686899368e-06
-3.030871015e-06
-3.407636691e-06
-3.818165469e-06
-4.263266563e-06
-4.743468419e-06
-5.25903925e-06
-5.809841313e-06
-6.394977169e-06
-7.012404278e-06
-7.661979413e-06
-8.373893813e-06
-9.511930657e-06
-5.125508985e-06
3.091787846e-08
6.537481352e-08
6.442463559e-08
6.456554576e-08
6.293304397e-08
6.126448678e-08
5.964633957e-08
5.801371567e-08
5.643160557e-08
5.484568753e-08
5.333222774e-08
5.18399695e-08
5.044777599e-08
4.909980463e-08
4.78704639e-08
4.669492502e-08
4.56422761e-08
4.464079767e-08
4.375897604e-08
4.292195589e-08
4.219887948e-08
4.150945947e-08
4.091969162e-08
4.034250451e-08
3.984426388e-08
3.933882665e-08
3.8902074e-08
3.845316562e-08
3.807447225e-08
3.768126253e-08
3.735270776e-08
3.69956396e-08
3.669005416e-08
3.634398137e-08
3.6047284e-08
3.571134718e-08
3.542915971e-08
3.510309074e-08
3.481905105e-08
3.446672346e-08
3.413033621e-08
3.369803728e-08
3.32645955e-08
3.2724641e-08
3.218623738e-08
3.154757504e-08
3.092286871e-08
3.020385524e-08
2.950048074e-08
2.868866904e-08
2.787005005e-08
2.690793756e-08
2.590680602e-08
2.473197124e-08
2.350201319e-08
2.208359321e-08
2.059487441e-08
1.888054107e-08
1.703965098e-08
1.489328441e-08
1.254131032e-08
9.814015725e-09
6.839552506e-09
3.463594286e-09
-1.76478573e-10
-4.250654732e-09
-8.63402451e-09
-1.350671858e-08
-1.872438881e-08
-2.443483102e-08
-3.044838007e-08
-3.68865107e-08
-4.355312602e-08
-5.059382833e-08
-5.784534108e-08
-6.548695712e-08
-7.337282661e-08
-8.169112293e-08
-9.030579594e-08
-9.94354863e-08
-1.090089489e-07
-1.193461784e-07
-1.305107858e-07
-1.429718443e-07
-1.56948363e-07
-1.730516442e-07
-1.916383229e-07
-2.134470298e-07
-2.389792868e-07
-2.691309833e-07
-3.045984424e-07
-3.464835077e-07
-3.95711246e-07
-4.535969005e-07
-5.212827451e-07
-6.002741808e-07
-6.919088206e-07
-7.978582814e-07
-9.196260056e-07
-1.059004038e-06
-1.217612947e-06
-1.397331606e-06
-1.599897009e-06
-1.827288705e-06
-2.081326994e-06
-2.363935961e-06
-2.676721837e-06
-3.021202364e-06
-3.398527683e-06
-3.809754642e-06
-4.255632279e-06
-4.736776467e-06
-5.253490007e-06
-5.805756844e-06
-6.393008817e-06
-7.013569429e-06
-7.669502902e-06
-8.391269904e-06
-9.588606953e-06
-5.185623457e-06
3.07984321e-08
6.51187842e-08
6.416689283e-08
6.442906939e-08
6.283694304e-08
6.12311862e-08
5.961544549e-08
5.802534303e-08
5.643478035e-08
5.488751354e-08
5.336314864e-08
5.190986802e-08
5.050643385e-08
4.919835314e-08
4.795757455e-08
4.682339834e-08
4.576013152e-08
4.480332581e-08
4.391348962e-08
4.312527652e-08
4.239582469e-08
4.17570342e-08
4.116030299e-08
4.063492921e-08
4.013075623e-08
3.968155437e-08
3.92419714e-08
3.885231534e-08
3.846798935e-08
3.812836607e-08
3.778296134e-08
3.746875046e-08
3.713390995e-08
3.68205479e-08
3.64800703e-08
3.615799582e-08
3.580161837e-08
3.545081156e-08
3.504306358e-08
3.461418209e-08
3.409914585e-08
3.353947926e-08
3.287540527e-08
3.215746011e-08
3.132997221e-08
3.044882487e-08
2.945747924e-08
2.841228586e-08
2.725090066e-08
2.602610444e-08
2.466818425e-08
2.322927176e-08
2.163941283e-08
1.995937459e-08
1.812438478e-08
1.620056043e-08
1.411497039e-08
1.192162195e-08
9.527812e-09
6.978718325e-09
4.180821983e-09
1.195639382e-09
-2.054645631e-09
-5.495540762e-09
-9.211314138e-09
-1.31420183e-08
-1.739246339e-08
-2.190693153e-08
-2.677934122e-08
-3.1924048e-08
-3.740715788e-08
-4.312550895e-08
-4.915185582e-08
-5.540417109e-08
-6.198331708e-08
-6.882551045e-08
-7.603970557e-08
-8.356390374e-08
-9.151977618e-08
-9.988211802e-08
-1.08841459e-07
-1.184728305e-07
-1.290877486e-07
-1.408951345e-07
-1.543408197e-07
-1.697697309e-07
-1.877621152e-07
-2.088081711e-07
-2.336446628e-07
-2.629439775e-07
-2.97641207e-07
-3.386288221e-07
-3.870622196e-07
-4.440589735e-07
-5.109849846e-07
-5.89167707e-07
-6.801646433e-07
-7.854881303e-07
-9.068464145e-07
-1.045880721e-06
-1.204389718e-06
-1.384106573e-06
-1.586922523e-06
-1.814683987e-06
-2.069347456e-06
-2.352716804e-06
-2.666510352e-06
-3.012136801e-06
-3.39084251e-06
-3.803615236e-06
-4.251310852e-06
-4.734547532e-06
-5.253773675e-06
-5.809153832e-06
-6.400431463e-06
-7.026739473e-06
-7.690897919e-06
-8.425820798e-06
-9.646258152e-06
-5.222890902e-06
3.071216985e-08
6.491031717e-08
6.398931513e-08
6.427862908e-08
6.274181737e-08
6.115615368e-08
5.957900999e-08
5.799434643e-08
5.643399749e-08
5.488692781e-08
5.3390799e-08
5.193616526e-08
5.056045672e-08
4.924996023e-08
4.803661762e-08
4.689932655e-08
4.586477798e-08
4.490657232e-08
4.4048538e-08
4.326094462e-08
4.25647794e-08
4.192542996e-08
4.136087201e-08
4.083370861e-08
4.036341958e-08
3.991490432e-08
3.951253822e-08
3.912300116e-08
3.877096404e-08
3.841984369e-08
3.809243693e-08
3.775032321e-08
3.74188078e-08
3.70611125e-08
3.670467145e-08
3.630912778e-08
3.589693267e-08
3.541955743e-08
3.489529493e-08
3.42739962e-08
3.357882401e-08
3.276452248e-08
3.18610598e-08
3.082523847e-08
2.968932126e-08
2.840861479e-08
2.701681155e-08
2.546928766e-08
2.380333946e-08
2.19753793e-08
2.002655888e-08
1.791481158e-08
1.568699397e-08
1.33045748e-08
1.082006409e-08
8.19359792e-09
5.474037502e-09
2.610719992e-09
-3.542234583e-10
-3.475298384e-09
-6.702370364e-09
-1.007998887e-08
-1.35473079e-08
-1.715150256e-08
-2.084391023e-08
-2.469444492e-08
-2.867125228e-08
-3.285150004e-08
-3.719279949e-08
-4.175603396e-08
-4.648344495e-08
-5.143585517e-08
-5.656792927e-08
-6.196144518e-08
-6.758590937e-08
-7.352796609e-08
-7.975265635e-08
-8.634693639e-08
-9.329408765e-08
-1.007269321e-07
-1.087027815e-07
-1.174481614e-07
-1.271266739e-07
-1.380759035e-07
-1.50578542e-07
-1.650998858e-07
-1.820677293e-07
-2.021080089e-07
-2.258301297e-07
-2.540548774e-07
-2.876030711e-07
-3.275110279e-07
-3.748243618e-07
-4.307999746e-07
-4.967079638e-07
-5.740197845e-07
-6.642150747e-07
-7.689477832e-07
-8.898536988e-07
-1.028697036e-06
-1.187199893e-06
-1.36719739e-06
-1.570506365e-06
-1.799062201e-06
-2.054753577e-06
-2.339459296e-06
-2.654831744e-06
-3.002338589e-06
-3.383177119e-06
-3.798404552e-06
-4.248876769e-06
-4.735312984e-06
-5.258252937e-06
-5.818036758e-06
-6.414762976e-06
-7.047735016e-06
-7.720936086e-06
-8.46595274e-06
-9.703238879e-06
-5.255129155e-06
3.065322893e-08
6.478029545e-08
6.383867804e-08
6.414982159e-08
6.262925884e-08
6.10755028e-08
5.951026267e-08
5.795144736e-08
5.639755129e-08
5.487291974e-08
5.33805176e-08
5.194683816e-08
5.057318252e-08
4.92821589e-08
4.806910687e-08
4.695073083e-08
4.591645593e-08
4.497881691e-08
4.412296758e-08
4.335740526e-08
4.266259341e-08
4.204343791e-08
4.147732964e-08
4.096908629e-08
4.049760126e-08
4.007062495e-08
3.966789161e-08
3.929705959e-08
3.893523546e-08
3.858825948e-08
3.823239938e-08
3.787558063e-08
3.749609843e-08
3.710276129e-08
3.667019043e-08
3.620055218e-08
3.565957165e-08
3.504388421e-08
3.431802393e-08
3.34839519e-08
3.251315662e-08
3.14150543e-08
3.016334101e-08
2.876658756e-08
2.719403835e-08
2.545208445e-08
2.351064698e-08
2.138273716e-08
1.904723216e-08
1.652861466e-08
1.381470602e-08
1.093821193e-08
7.891386896e-09
4.710957361e-09
1.389734914e-09
-2.035468623e-09
-5.574397497e-09
-9.190413525e-09
-1.289175168e-08
-1.663440205e-08
-2.041875214e-08
-2.419428871e-08
-2.796495136e-08
-3.169338228e-08
-3.540677472e-08
-3.909084424e-08
-4.279055671e-08
-4.649682592e-08
-5.025237091e-08
-5.404347445e-08
-5.791699917e-08
-6.187268536e-08
-6.597748766e-08
-7.024581351e-08
-7.474723075e-08
-7.948576714e-08
-8.451923917e-08
-8.985305173e-08
-9.557165928e-08
-1.017344442e-07
-1.084990375e-07
-1.160071909e-07
-1.245010168e-07
-1.34213063e-07
-1.454905264e-07
-1.586971332e-07
-1.743390921e-07
-1.929655652e-07
-2.152831587e-07
-2.420507788e-07
-2.741864364e-07
-3.126662636e-07
-3.586291906e-07
-4.13282401e-07
-4.779986039e-07
-5.542196934e-07
-6.435350091e-07
-7.47576063e-07
-8.680760381e-07
-1.006767876e-06
-1.165450265e-06
-1.345920411e-06
-1.550058244e-06
-1.77976228e-06
-2.03697403e-06
-2.323533712e-06
-2.641131914e-06
-2.991199299e-06
-3.374970555e-06
-3.793495452e-06
-4.247694452e-06
-4.738332823e-06
-5.266051231e-06
-5.831336128e-06
-6.434366279e-06
-7.074903978e-06
-7.75626052e-06
-8.511985186e-06
-9.760680428e-06
-5.287510948e-06
3.060546141e-08
6.466174046e-08
6.371148762e-08
6.402086775e-08
6.251708616e-08
6.097498151e-08
5.942938184e-08
5.788075226e-08
5.634411998e-08
5.482725841e-08
5.335035495e-08
5.192260702e-08
5.056250337e-08
4.927512029e-08
4.807353857e-08
4.695740266e-08
4.593463632e-08
4.499996618e-08
4.415676251e-08
4.339389037e-08
4.271005903e-08
4.209031885e-08
4.153211236e-08
4.10215855e-08
4.05583798e-08
4.012956751e-08
3.97337417e-08
3.935439194e-08
3.898699766e-08
3.861353719e-08
3.823152771e-08
3.782604107e-08
3.739676625e-08
3.692615102e-08
3.640614263e-08
3.580834508e-08
3.51156893e-08
3.429634733e-08
3.333731631e-08
3.221580845e-08
3.092892241e-08
2.945894136e-08
2.780214326e-08
2.593417232e-08
2.384452122e-08
2.150564468e-08
1.891208596e-08
1.604839638e-08
1.292661336e-08
9.549000965e-09
5.942816089e-09
2.120328674e-09
-1.885191984e-09
-6.059335579e-09
-1.036718712e-08
-1.479243304e-08
-1.929453733e-08
-2.384806291e-08
-2.83992965e-08
-3.291040124e-08
-3.732000032e-08
-4.159388679e-08
-4.568619548e-08
-4.95888862e-08
-5.328492198e-08
-5.679173745e-08
-6.010842718e-08
-6.326162915e-08
-6.625721996e-08
-6.913514298e-08
-7.192337221e-08
-7.469027464e-08
-7.748745103e-08
-8.039213329e-08
-8.344580258e-08
-8.670493804e-08
-9.019555921e-08
-9.398004433e-08
-9.811817795e-08
-1.027277406e-07
-1.079325609e-07
-1.139124482e-07
-1.208522798e-07
-1.290039758e-07
-1.386539481e-07
-1.501958135e-07
-1.64097914e-07
-1.809615219e-07
-2.014725581e-07
-2.264470698e-07
-2.567830379e-07
-2.935115287e-07
-3.37759597e-07
-3.9080279e-07
-4.540249494e-07
-5.28952799e-07
-6.171986053e-07
-7.204737757e-07
-8.405234054e-07
-9.791397771e-07
-1.13811889e-06
-1.319301962e-06
-1.524560056e-06
-1.755825576e-06
-2.015024017e-06
-2.30401533e-06
-2.624466277e-06
-2.977819943e-06
-3.365298575e-06
-3.787981752e-06
-4.246813256e-06
-4.742615362e-06
-5.276097848e-06
-5.84779352e-06
-6.458074069e-06
-7.106399605e-06
-7.796963274e-06
-8.560796924e-06
-9.822897028e-06
-5.322166585e-06
3.055394341e-08
6.454572514e-08
6.358390489e-08
6.389261138e-08
6.239409735e-08
6.08642536e-08
5.932819118e-08
5.779297476e-08
5.626530035e-08
5.47607881e-08
5.329133333e-08
5.187406172e-08
5.051902055e-08
4.923954699e-08
4.804064263e-08
4.693077377e-08
4.591020164e-08
4.49820148e-08
4.414057001e-08
4.338305851e-08
4.269791351e-08
4.207975837e-08
4.151706793e-08
4.100635179e-08
4.053794442e-08
4.010751746e-08
3.970151579e-08
3.931053647e-08
3.891716895e-08
3.851209409e-08
3.808111121e-08
3.761883088e-08
3.711097775e-08
3.654588482e-08
3.58976345e-08
3.514207327e-08
3.424508076e-08
3.318283122e-08
3.192938764e-08
3.047286278e-08
2.879635176e-08
2.689008371e-08
2.473113784e-08
2.230011833e-08
1.95662389e-08
1.65105651e-08
1.311274014e-08
9.373243425e-09
5.295251299e-09
9.020848491e-10
-3.785109491e-09
-8.73068172e-09
-1.390638069e-08
-1.927160631e-08
-2.479265369e-08
-3.041922908e-08
-3.610241654e-08
-4.177121784e-08
-4.735543311e-08
-5.276838609e-08
-5.793748412e-08
-6.278970285e-08
-6.728076885e-08
-7.137274501e-08
-7.505536074e-08
-7.831677496e-08
-8.116565248e-08
-8.360633089e-08
-8.566983722e-08
-8.739344589e-08
-8.885050532e-08
-9.011960318e-08
-9.130082391e-08
-9.247542174e-08
-9.372446232e-08
-9.510285173e-08
-9.667740499e-08
-9.851394413e-08
-1.007144187e-07
-1.033915912e-07
-1.066906874e-07
-1.107592429e-07
-1.157789099e-07
-1.219581529e-07
-1.295858529e-07
-1.390321309e-07
-1.507916932e-07
-1.65462118e-07
-1.837643579e-07
-2.065121567e-07
-2.346375507e-07
-2.691768374e-07
-3.113079363e-07
-3.623392291e-07
-4.237316219e-07
-4.970643671e-07
-5.840301076e-07
-6.863836439e-07
-8.059304349e-07
-9.444867197e-07
-1.103890246e-06
-1.285993603e-06
-1.492696443e-06
-1.725929426e-06
-1.987628725e-06
-2.279636775e-06
-2.603616851e-06
-2.960992792e-06
-3.352990938e-06
-3.780693854e-06
-4.245072812e-06
-4.746983724e-06
-5.287168193e-06
-5.866238439e-06
-6.484456066e-06
-7.141652592e-06
-7.840861035e-06
-8.615969721e-06
-9.889735109e-06
-5.360110282e-06
3.049886043e-08
6.441936107e-08
6.345072063e-08
6.375466358e-08
6.22612796e-08
6.073764386e-08
5.921101137e-08
5.768394331e-08
5.616619099e-08
5.466934242e-08
5.320852681e-08
5.179687269e-08
5.044796924e-08
4.917119704e-08
4.797603732e-08
4.686716275e-08
4.584926237e-08
4.492132388e-08
4.408116545e-08
4.332096709e-08
4.263345704e-08
4.200874416e-08
4.144062625e-08
4.092140057e-08
4.044538581e-08
4.000213014e-08
3.958009289e-08
3.916253706e-08
3.873466642e-08
3.828096831e-08
3.779054785e-08
3.72500889e-08
3.664567194e-08
3.595391021e-08
3.514677812e-08
3.418834633e-08
3.304540713e-08
3.168612724e-08
3.008831459e-08
2.823177113e-08
2.609997872e-08
2.366950414e-08
2.09138106e-08
1.779832345e-08
1.429209681e-08
1.036695705e-08
6.009741989e-09
1.217791093e-09
-3.994466739e-09
-9.604847245e-09
-1.557924304e-08
-2.188078625e-08
-2.846362478e-08
-3.527924712e-08
-4.226683412e-08
-4.935715553e-08
-5.646212618e-08
-6.348186694e-08
-7.030100311e-08
-7.680476831e-08
-8.288169863e-08
-8.844084137e-08
-9.340817701e-08
-9.773453478e-08
-1.013829765e-07
-1.043342408e-07
-1.065773261e-07
-1.081235866e-07
-1.090045704e-07
-1.092880995e-07
-1.090684607e-07
-1.084674086e-07
-1.076092305e-07
-1.066149744e-07
-1.055860499e-07
-1.046173937e-07
-1.038002539e-07
-1.032422783e-07
-1.030621802e-07
-1.033924938e-07
-1.04362855e-07
-1.061073794e-07
-1.087703519e-07
-1.125436909e-07
-1.176934361e-07
-1.245976551e-07
-1.337505457e-07
-1.45769788e-07
-1.613788504e-07
-1.814110236e-07
-2.06807911e-07
-2.386449583e-07
-2.781430045e-07
-3.266865629e-07
-3.858104911e-07
-4.571844536e-07
-5.425720047e-07
-6.438005384e-07
-7.627243094e-07
-9.012106189e-07
-1.061129341e-06
-1.24436769e-06
-1.452838528e-06
-1.688482369e-06
-1.953222221e-06
-2.248885361e-06
-2.577107642e-06
-2.939295345e-06
-3.336658954e-06
-3.770282651e-06
-4.241146128e-06
-4.750122191e-06
-5.297987937e-06
-5.885327935e-06
-6.512561425e-06
-7.179041901e-06
-7.888968231e-06
-8.673261791e-06
-9.96335693e-06
-5.401681177e-06
3.043676673e-08
6.428026884e-08
6.330497384e-08
6.360458717e-08
6.211367536e-08
6.05956886e-08
5.907519412e-08
5.755569813e-08
5.604478717e-08
5.455527188e-08
5.310009592e-08
5.169361558e-08
5.0347582e-08
4.907312903e-08
4.787823908e-08
4.676987717e-08
4.575071961e-08
4.482145639e-08
4.397728171e-08
4.321193671e-08
4.251622765e-08
4.188251615e-08
4.130329341e-08
4.077245952e-08
4.028129648e-08
3.981888727e-08
3.9369334e-08
3.891571757e-08
3.843966827e-08
3.792602347e-08
3.735925008e-08
3.672374568e-08
3.599674919e-08
3.514945804e-08
3.414426116e-08
3.294199532e-08
3.150368462e-08
2.979761771e-08
2.779604646e-08
2.547538033e-08
2.280750911e-08
1.975983565e-08
1.629153118e-08
1.236146049e-08
7.930628528e-09
2.97260634e-09
-2.526689258e-09
-8.564312518e-09
-1.512580469e-08
-2.218310831e-08
-2.970014613e-08
-3.76290208e-08
-4.591296107e-08
-5.448042458e-08
-6.324619026e-08
-7.210413833e-08
-8.092959054e-08
-8.957709002e-08
-9.78913222e-08
-1.057138637e-07
-1.128994027e-07
-1.193201709e-07
-1.248742705e-07
-1.294796021e-07
-1.330760754e-07
-1.356193704e-07
-1.370899526e-07
-1.374954243e-07
-1.368852415e-07
-1.353504367e-07
-1.330251572e-07
-1.300682181e-07
-1.266487199e-07
-1.229261098e-07
-1.190489491e-07
-1.151563729e-07
-1.11391226e-07
-1.079006148e-07
-1.048336057e-07
-1.023255612e-07
-1.004929486e-07
-9.943595813e-08
-9.926780789e-08
-1.001503428e-07
-1.023389062e-07
-1.062048756e-07
-1.12248269e-07
-1.210854909e-07
-1.334455882e-07
-1.501663718e-07
-1.722161316e-07
-2.007139004e-07
-2.369560669e-07
-2.824169866e-07
-3.387364523e-07
-4.076814153e-07
-4.911076532e-07
-5.909180184e-07
-7.090362471e-07
-8.473867081e-07
-1.007891109e-06
-1.192471211e-06
-1.403059463e-06
-1.641591455e-06
-1.909968787e-06
-2.209982404e-06
-2.543230084e-06
-2.911081561e-06
-3.314722107e-06
-3.755219112e-06
-4.233547679e-06
-4.750589478e-06
-5.307118643e-06
-5.903787421e-06
-6.540852472e-06
-7.2181494e-06
-7.938500717e-06
-8.736772663e-06
-1.00416923e-05
-5.446974235e-06
3.036721625e-08
6.412446938e-08
6.314383339e-08
6.34382001e-08
6.194997644e-08
6.043586747e-08
5.892076968e-08
5.740690722e-08
5.590213735e-08
5.441776686e-08
5.296730552e-08
5.156371297e-08
5.021948072e-08
4.894501474e-08
4.774943308e-08
4.663890997e-08
4.561685047e-08
4.468252134e-08
4.383164607e-08
4.305669591e-08
4.234969564e-08
4.17028321e-08
4.110924388e-08
4.056143652e-08
4.004942595e-08
3.955908418e-08
3.907306236e-08
3.857176478e-08
3.803638412e-08
3.74486226e-08
3.679012533e-08
3.603793561e-08
3.516255331e-08
3.412570662e-08
3.288420675e-08
3.139308113e-08
2.961159505e-08
2.750368849e-08
2.503718137e-08
2.217759158e-08
1.888490983e-08
1.511055475e-08
1.080203337e-08
5.907953558e-09
3.867264908e-10
-5.78984483e-09
-1.263359392e-08
-2.014231421e-08
-2.83002788e-08
-3.708003788e-08
-4.643999525e-08
-5.632322453e-08
-6.665358491e-08
-7.733431513e-08
-8.824422624e-08
-9.923686903e-08
-1.101395074e-07
-1.207585034e-07
-1.30887355e-07
-1.403204982e-07
-1.488642084e-07
-1.563467541e-07
-1.626201725e-07
-1.675623281e-07
-1.710749329e-07
-1.730886568e-07
-1.735687018e-07
-1.725272067e-07
-1.700314255e-07
-1.662079245e-07
-1.612341004e-07
-1.553202443e-07
-1.48688522e-07
-1.415570285e-07
-1.341367954e-07
-1.266350259e-07
-1.192588544e-07
-1.122081792e-07
-1.05659914e-07
-9.975067797e-08
-9.457138163e-08
-9.018443367e-08
-8.666150365e-08
-8.4134039e-08
-8.283515677e-08
-8.312480187e-08
-8.549005887e-08
-9.0537524e-08
-9.898703148e-08
-1.116858969e-07
-1.296351318e-07
-1.54023938e-07
-1.862466204e-07
-2.278983331e-07
-2.80742023e-07
-3.466631038e-07
-4.276214936e-07
-5.256157019e-07
-6.426560395e-07
-7.807470542e-07
-9.418763741e-07
-1.128010201e-06
-1.341095097e-06
-1.583049739e-06
-1.855733336e-06
-2.160879281e-06
-2.500024257e-06
-2.87448231e-06
-3.285391548e-06
-3.733785446e-06
-4.220619097e-06
-4.746764551e-06
-5.313024335e-06
-5.92001541e-06
-6.568212105e-06
-7.256918013e-06
-7.990518604e-06
-8.800438919e-06
-1.012622492e-05
-5.495693706e-06
3.028892065e-08
6.395081595e-08
6.296490833e-08
6.325387879e-08
6.176767432e-08
6.025716213e-08
5.874639173e-08
5.723745944e-08
5.573733976e-08
5.425727778e-08
5.280986249e-08
5.140795937e-08
5.006372256e-08
4.878809791e-08
4.758992194e-08
4.647575559e-08
4.544837618e-08
4.450647656e-08
4.364530829e-08
4.285772377e-08
4.213591898e-08
4.147275898e-08
4.086081327e-08
4.029125858e-08
3.975160576e-08
3.922555639e-08
3.869319984e-08
3.813391651e-08
3.752693082e-08
3.685136371e-08
3.608296974e-08
3.519156745e-08
3.413834781e-08
3.28774231e-08
3.135878521e-08
2.953419262e-08
2.735891757e-08
2.479233789e-08
2.179230414e-08
1.831112106e-08
1.429118678e-08
9.667968831e-09
4.375006442e-09
-1.646566978e-09
-8.442778207e-09
-1.604287548e-08
-2.446123376e-08
-3.369849975e-08
-4.37429932e-08
-5.456752177e-08
-6.612581211e-08
-7.834678076e-08
-9.113153734e-08
-1.043500859e-07
-1.178401504e-07
-1.314059188e-07
-1.448205936e-07
-1.578319589e-07
-1.701741597e-07
-1.815801801e-07
-1.917954545e-07
-2.0058547e-07
-2.077423205e-07
-2.130868136e-07
-2.164745115e-07
-2.178027102e-07
-2.170225976e-07
-2.141519801e-07
-2.092843865e-07
-2.025900034e-07
-1.943016653e-07
-1.84694364e-07
-1.74060481e-07
-1.626979521e-07
-1.509044056e-07
-1.38978484e-07
-1.272103479e-07
-1.158626453e-07
-1.05143179e-07
-9.518506769e-08
-8.604827946e-08
-7.774817658e-08
-7.030761471e-08
-6.381374511e-08
-5.846355453e-08
-5.458384959e-08
-5.263084856e-08
-5.318194182e-08
-5.694199528e-08
-6.476842288e-08
-7.771429104e-08
-9.70626845e-08
-1.243390599e-07
-1.612864234e-07
-2.098167124e-07
-2.719526991e-07
-3.497814133e-07
-4.454221564e-07
-5.610032525e-07
-6.986388742e-07
-8.604035973e-07
-1.048315258e-06
-1.26432516e-06
-1.510315089e-06
-1.788073417e-06
-2.099246542e-06
-2.445279734e-06
-2.827401315e-06
-3.246674752e-06
-3.704074734e-06
-4.200517309e-06
-4.736868092e-06
-5.313926818e-06
-5.932417954e-06
-6.592670311e-06
-7.294653787e-06
-8.041192516e-06
-8.868784819e-06
-1.021351956e-05
-5.54743292e-06
3.020158096e-08
6.375682306e-08
6.27661905e-08
6.304953596e-08
6.156557473e-08
6.00582464e-08
5.85513911e-08
5.704653178e-08
5.555048419e-08
5.407356385e-08
5.262796355e-08
5.122643199e-08
4.988108546e-08
4.860279619e-08
4.740087579e-08
4.628127469e-08
4.524631966e-08
4.429430401e-08
4.34200551e-08
4.261682786e-08
4.187742329e-08
4.119467776e-08
4.05605924e-08
3.996398001e-08
3.939015385e-08
3.882004537e-08
3.823231862e-08
3.760460396e-08
3.691406471e-08
3.613526684e-08
3.523749052e-08
3.418154514e-08
3.291984935e-08
3.139835628e-08
2.956215896e-08
2.73583013e-08
2.473763743e-08
2.165040891e-08
1.804147689e-08
1.38446292e-08
8.983182627e-09
3.374556082e-09
-3.060152204e-09
-1.038857058e-08
-1.866147874e-08
-2.791382979e-08
-3.816660927e-08
-4.942897535e-08
-6.169547998e-08
-7.494055624e-08
-8.911035037e-08
-1.04116559e-07
-1.19832001e-07
-1.360885985e-07
-1.526760657e-07
-1.693423489e-07
-1.857965399e-07
-2.017170252e-07
-2.167631908e-07
-2.305902979e-07
-2.428619283e-07
-2.53261432e-07
-2.615000255e-07
-2.673262289e-07
-2.705367984e-07
-2.709898343e-07
-2.686216211e-07
-2.634594898e-07
-2.556325947e-07
-2.453649313e-07
-2.329605827e-07
-2.187746495e-07
-2.031934136e-07
-1.866188557e-07
-1.694652755e-07
-1.521480992e-07
-1.350623267e-07
-1.185464818e-07
-1.028462235e-07
-8.809310607e-08
-7.431274361e-08
-6.146570832e-08
-4.950952555e-08
-3.846379896e-08
-2.845909469e-08
-1.975992777e-08
-1.276583852e-08
-8.008691461e-09
-6.170036397e-09
-8.124285496e-09
-1.499406268e-08
-2.818697012e-08
-4.939256753e-08
-8.053497648e-08
-1.237029288e-07
-1.810841727e-07
-2.549236539e-07
-3.475010449e-07
-4.611074331e-07
-5.980066724e-07
-7.603869346e-07
-9.503213539e-07
-1.169752864e-06
-1.420494788e-06
-1.704227894e-06
-2.02246902e-06
-2.376530476e-06
-2.767513047e-06
-3.196368264e-06
-3.663980971e-06
-4.171212767e-06
-4.71890784e-06
-5.307917832e-06
-5.938968826e-06
-6.612718738e-06
-7.328594148e-06
-8.09142368e-06
-8.933764165e-06
-1.030457606e-05
-5.601371675e-06
3.01040476e-08
6.35418501e-08
6.254655211e-08
6.282367494e-08
6.134201533e-08
5.983802282e-08
5.833481965e-08
5.683384148e-08
5.534099239e-08
5.386635809e-08
5.24216722e-08
5.101942922e-08
4.967175872e-08
4.838998155e-08
4.718285405e-08
4.60562688e-08
4.501177851e-08
4.404721547e-08
4.31574149e-08
4.233603005e-08
4.157635117e-08
4.087099866e-08
4.021048126e-08
3.958156828e-08
3.89667053e-08
3.834478933e-08
3.769269465e-08
3.698628013e-08
3.619934731e-08
3.53009631e-08
3.425233278e-08
3.300511101e-08
3.150263364e-08
2.968431393e-08
2.748945366e-08
2.486045039e-08
2.173970686e-08
1.80652585e-08
1.376329975e-08
8.746654628e-09
2.917194956e-09
-3.824994391e-09
-1.157209131e-08
-2.040087208e-08
-3.037169302e-08
-4.153031937e-08
-5.391140346e-08
-6.753698339e-08
-8.241080224e-08
-9.850794429e-08
-1.157653391e-07
-1.340739333e-07
-1.532750113e-07
-1.731575658e-07
-1.934573427e-07
-2.13856719e-07
-2.339890331e-07
-2.534469189e-07
-2.717963933e-07
-2.88591441e-07
-3.033897618e-07
-3.157667104e-07
-3.253301537e-07
-3.317375381e-07
-3.347131162e-07
-3.340700319e-07
-3.297274721e-07
-3.217301846e-07
-3.102503965e-07
-2.955821039e-07
-2.781137172e-07
-2.583029672e-07
-2.366530984e-07
-2.137024626e-07
-1.900130451e-07
-1.661484115e-07
-1.42634229e-07
-1.199065154e-07
-9.826577928e-08
-7.785320757e-08
-5.866340478e-08
-4.059134305e-08
-2.350149676e-08
-7.302823917e-09
7.988517161e-09
2.221092107e-08
3.504936922e-08
4.603265925e-08
5.450952049e-08
5.958459533e-08
6.004949216e-08
5.434240035e-08
4.05721924e-08
1.659313921e-08
-1.989798548e-08
-7.129079884e-08
-1.400321509e-07
-2.286185712e-07
-3.395673238e-07
-4.753465841e-07
-6.382895726e-07
-8.305274564e-07
-1.053969553e-06
-1.310319604e-06
-1.601097525e-06
-1.927634843e-06
-2.291051865e-06
-2.692266842e-06
-3.132068378e-06
-3.611216165e-06
-4.130493141e-06
-4.690736124e-06
-5.292821596e-06
-5.937659307e-06
-6.625815854e-06
-7.357613337e-06
-8.136146586e-06
-9.000302311e-06
-1.039450536e-05
-5.656560338e-06
2.999591085e-08
6.330378883e-08
6.230419932e-08
6.257520729e-08
6.109607959e-08
5.959546569e-08
5.809596283e-08
5.659847033e-08
5.510850764e-08
5.363543102e-08
5.219081574e-08
5.078707536e-08
4.943636146e-08
4.814999855e-08
4.693667441e-08
4.580147984e-08
4.47456568e-08
4.376629676e-08
4.285883142e-08
4.201709682e-08
4.123467442e-08
4.050348572e-08
3.981236704e-08
3.914551856e-08
3.848301162e-08
3.780166412e-08
3.707656888e-08
3.62809045e-08
3.538405491e-08
3.43482235e-08
3.312588471e-08
3.165927526e-08
2.988397322e-08
2.773241609e-08
2.513873119e-08
2.203719825e-08
1.835907424e-08
1.402421306e-08
8.937194592e-09
2.986692186e-09
-3.946731781e-09
-1.198090265e-08
-2.122165921e-08
-3.175932165e-08
-4.366936833e-08
-5.701660381e-08
-7.185570563e-08
-8.822672142e-08
-1.061439999e-07
-1.255836917e-07
-1.464719324e-07
-1.686779231e-07
-1.920088241e-07
-2.162070442e-07
-2.409469569e-07
-2.658348331e-07
-2.904122147e-07
-3.141664769e-07
-3.365448021e-07
-3.569720311e-07
-3.74869284e-07
-3.896741155e-07
-4.008651983e-07
-4.079864287e-07
-4.106770712e-07
-4.086952377e-07
-4.019459606e-07
-3.904932633e-07
-3.745655854e-07
-3.545360035e-07
-3.308962989e-07
-3.042270217e-07
-2.751787571e-07
-2.444601004e-07
-2.128177478e-07
-1.810003715e-07
-1.497001081e-07
-1.194879369e-07
-9.075390234e-08
-6.367735831e-08
-3.823341109e-08
-1.423599439e-08
8.591441838e-09
3.052454902e-08
5.173644048e-08
7.222215474e-08
9.177342535e-08
1.099920022e-07
1.262645763e-07
1.396841844e-07
1.489480905e-07
1.523145823e-07
1.47642399e-07
1.32508854e-07
1.043408585e-07
6.049812799e-08
-1.724842954e-09
-8.511828365e-08
-1.925144229e-07
-3.266625284e-07
-4.900801299e-07
-6.849552745e-07
-9.131266865e-07
-1.176128672e-06
-1.475247497e-06
-1.811550507e-06
-2.18588777e-06
-2.598919635e-06
-3.051211109e-06
-3.543349197e-06
-4.076021754e-06
-4.650042857e-06
-5.266386127e-06
-5.926027441e-06
-6.630010097e-06
-7.378134979e-06
-8.176010157e-06
-9.058121078e-06
-1.048367924e-05
-5.711515896e-06
2.987641944e-08
6.304188173e-08
6.203819935e-08
6.230261877e-08
6.082661718e-08
5.932969898e-08
5.783408523e-08
5.63399671e-08
5.485249211e-08
5.338050496e-08
5.193538471e-08
5.052940856e-08
4.917503535e-08
4.788330565e-08
4.666266404e-08
4.551758492e-08
4.444855013e-08
4.345280419e-08
4.252558884e-08
4.166159747e-08
4.085400397e-08
4.009375356e-08
3.936754093e-08
3.865731793e-08
3.794069021e-08
3.719254996e-08
3.638572511e-08
3.548985838e-08
3.446868634e-08
3.327651326e-08
3.18565811e-08
3.014275599e-08
2.806259323e-08
2.554281249e-08
2.250975147e-08
1.888750806e-08
1.459029688e-08
9.516435121e-09
3.544691848e-09
-3.460780715e-09
-1.164155868e-08
-2.113325997e-08
-3.205904422e-08
-4.452822361e-08
-5.86403212e-08
-7.448718272e-08
-9.215090969e-08
-1.116934389e-07
-1.331424167e-07
-1.564756957e-07
-1.816103529e-07
-2.083940214e-07
-2.365995255e-07
-2.659182286e-07
-2.959553542e-07
-3.26226888e-07
-3.561641485e-07
-3.851237159e-07
-4.124041276e-07
-4.37266733e-07
-4.589596564e-07
-4.767496063e-07
-4.899541353e-07
-4.979824749e-07
-5.00368726e-07
-4.968101427e-07
-4.871909837e-07
-4.716003908e-07
-4.503257583e-07
-4.23831096e-07
-3.927263286e-07
-3.577397519e-07
-3.197033581e-07
-2.795341483e-07
-2.38207136e-07
-1.967015291e-07
-1.559318037e-07
-1.166639762e-07
-7.944151475e-08
-4.453486411e-08
-1.192443501e-08
1.867870463e-08
4.777215303e-08
7.593782106e-08
1.036589618e-07
1.311507705e-07
1.583237733e-07
1.848457189e-07
2.101645714e-07
2.333917087e-07
2.531502347e-07
2.674931241e-07
2.739639242e-07
2.697702005e-07
2.51987621e-07
2.176646892e-07
1.637749485e-07
8.713291775e-08
-1.553856896e-08
-1.473795662e-07
-3.111466086e-07