/*--------------------------------*- C++ -*----------------------------------*\
  =========                 |
  \\      /  F ield         | OpenFOAM: The Open Source CFD Toolbox
   \\    /   O peration     | Website:  https://openfoam.org
    \\  /    A nd           | Version:  6
     \\/     M anipulation  |
\*---------------------------------------------------------------------------*/
FoamFile
{
    version     2.0;
    format      ascii;
    class       volVectorField;
    location    "0.0028";
    object      U;
}
// * * * * * * * * * * * * * * * * * * * * * * * * * * * * * * * * * * * * * //

dimensions      [0 1 -1 0 0 0 0];

internalField   nonuniform List<vector> 
9600
(
(0 4.399073711e-10 -3.34188296e-14)
(0 4.41005967e-10 -1.022833523e-13)
(0 4.424251784e-10 -1.739206382e-13)
(0 4.439377719e-10 -2.450838937e-13)
(0 4.455627752e-10 -3.154257456e-13)
(0 4.472990754e-10 -3.847017167e-13)
(0 4.491450907e-10 -4.52751938e-13)
(0 4.510985127e-10 -5.192961818e-13)
(0 4.531564527e-10 -5.841217003e-13)
(0 4.553155493e-10 -6.468943366e-13)
(0 4.575720136e-10 -7.073509823e-13)
(0 4.599216257e-10 -7.651039607e-13)
(0 4.623596893e-10 -8.198374493e-13)
(0 4.648809503e-10 -8.711047707e-13)
(0 4.674794853e-10 -9.18530138e-13)
(0 4.701485692e-10 -9.616011963e-13)
(0 4.728805413e-10 -9.998728095e-13)
(0 4.756666841e-10 -1.032753453e-12)
(0 4.784971166e-10 -1.059713363e-12)
(0 4.81360698e-10 -1.080065687e-12)
(0 4.842449249e-10 -1.093183592e-12)
(0 4.871358061e-10 -1.098279303e-12)
(0 4.900177165e-10 -1.094629149e-12)
(0 4.9287325e-10 -1.081346208e-12)
(0 4.956830944e-10 -1.057608203e-12)
(0 4.984259505e-10 -1.022420991e-12)
(0 5.010784915e-10 -9.748540383e-13)
(0 5.036153343e-10 -9.138029284e-13)
(0 5.060089925e-10 -8.38242328e-13)
(0 5.08229793e-10 -7.469921482e-13)
(0 5.10245771e-10 -6.389835826e-13)
(0 5.120225856e-10 -5.130178591e-13)
(0 5.13523499e-10 -3.680375187e-13)
(0 5.147094422e-10 -2.028762797e-13)
(0 5.15539157e-10 -1.654464633e-14)
(0 5.159693824e-10 1.920123374e-13)
(0 5.159550563e-10 4.236022484e-13)
(0 5.15449532e-10 6.790170221e-13)
(0 5.144048395e-10 9.587009371e-13)
(0 5.127720369e-10 1.262989243e-12)
(0 5.105016955e-10 1.591771269e-12)
(0 5.0754454e-10 1.94474292e-12)
(0 5.038522397e-10 2.321059816e-12)
(0 4.993783345e-10 2.719592738e-12)
(0 4.940792766e-10 3.13855906e-12)
(0 4.879155684e-10 3.575777373e-12)
(0 4.808529799e-10 4.028283174e-12)
(0 4.728638259e-10 4.492599666e-12)
(0 4.639282824e-10 4.964361209e-12)
(0 4.54035726e-10 5.438627402e-12)
(0 4.431860884e-10 5.909537893e-12)
(0 4.313912241e-10 6.370688635e-12)
(0 4.186762791e-10 6.814827383e-12)
(0 4.050810181e-10 7.234293877e-12)
(0 3.906610247e-10 7.620750367e-12)
(0 3.754886533e-10 7.965679862e-12)
(0 3.596536069e-10 8.260148949e-12)
(0 3.432630656e-10 8.495370801e-12)
(0 3.2644135e-10 8.662512394e-12)
(0 3.09329175e-10 8.75333415e-12)
(0 2.920825459e-10 8.760037822e-12)
(0 2.748713106e-10 8.675954181e-12)
(0 2.578772983e-10 8.495375672e-12)
(0 2.412919541e-10 8.214220712e-12)
(0 2.253134043e-10 7.829783113e-12)
(0 2.101430204e-10 7.341324454e-12)
(0 1.959816562e-10 6.749715543e-12)
(0 1.83025827e-10 6.057945359e-12)
(0 1.714640532e-10 5.270640177e-12)
(0 1.614735183e-10 4.394456738e-12)
(0 1.532170516e-10 3.43743548e-12)
(0 1.468404339e-10 2.409236291e-12)
(0 1.424700313e-10 1.320315292e-12)
(0 1.402108893e-10 1.820361756e-13)
(0 1.401454636e-10 -9.942478396e-13)
(0 1.423332017e-10 -2.197100077e-12)
(0 1.468110554e-10 -3.415901374e-12)
(0 1.535948929e-10 -4.640686764e-12)
(0 1.626815975e-10 -5.862965219e-12)
(0 1.740515867e-10 -7.075441625e-12)
(0 1.87671439e-10 -8.272698064e-12)
(0 2.034963877e-10 -9.450727126e-12)
(0 2.214724661e-10 -1.06073771e-11)
(0 2.415381738e-10 -1.174161219e-11)
(0 2.63625525e-10 -1.285367354e-11)
(0 2.876603802e-10 -1.394409828e-11)
(0 3.135619218e-10 -1.50137099e-11)
(0 3.412411659e-10 -1.606258193e-11)
(0 3.70598407e-10 -1.709006828e-11)
(0 4.015196096e-10 -1.809391978e-11)
(0 4.338718597e-10 -1.907051159e-11)
(0 4.674981767e-10 -2.001422308e-11)
(0 5.022120628e-10 -2.091791798e-11)
(0 5.377922166e-10 -2.17726138e-11)
(0 5.739777635e-10 -2.256820702e-11)
(0 6.104642723e-10 -2.329340041e-11)
(0 6.469007114e-10 -2.393659505e-11)
(0 6.828874661e-10 -2.448595273e-11)
(0 7.179754656e-10 -2.493028504e-11)
(0 7.516664146e-10 -2.525906332e-11)
(0 7.834139508e-10 -2.546311458e-11)
(0 8.126253794e-10 -2.553443828e-11)
(0 8.386635676e-10 -2.546662286e-11)
(0 8.608487478e-10 -2.525445985e-11)
(0 8.784604161e-10 -2.489412465e-11)
(0 8.907398612e-10 -2.438266319e-11)
(0 8.968938028e-10 -2.371801023e-11)
(0 8.96098973e-10 -2.28983984e-11)
(0 8.875067088e-10 -2.192227312e-11)
(0 8.702466967e-10 -2.078774441e-11)
(0 8.434298225e-10 -1.949256125e-11)
(0 8.061505995e-10 -1.803372665e-11)
(0 7.574898398e-10 -1.640750421e-11)
(0 6.965182761e-10 -1.460927688e-11)
(0 6.223041295e-10 -1.263354741e-11)
(0 5.339237679e-10 -1.047429396e-11)
(0 4.304931074e-10 -8.124871783e-12)
(0 3.11053528e-10 -5.581436222e-12)
(0 1.767261589e-10 -2.858855621e-12)
(0 2.072128349e-12 1.682824885e-23)
(0 4.394074755e-10 -1.024919257e-13)
(0 4.405031741e-10 -3.110144881e-13)
(0 4.419201403e-10 -5.242467438e-13)
(0 4.434338722e-10 -7.36900609e-13)
(0 4.450610387e-10 -9.475460401e-13)
(0 4.467999674e-10 -1.155330471e-12)
(0 4.486491207e-10 -1.359497203e-12)
(0 4.50606273e-10 -1.559298235e-12)
(0 4.526686145e-10 -1.75391734e-12)
(0 4.548328624e-10 -1.942494684e-12)
(0 4.570953115e-10 -2.124081303e-12)
(0 4.594518257e-10 -2.297671672e-12)
(0 4.618978004e-10 -2.462158441e-12)
(0 4.644280763e-10 -2.616366464e-12)
(0 4.670368325e-10 -2.759006877e-12)
(0 4.697174528e-10 -2.888711436e-12)
(0 4.724623985e-10 -3.003979657e-12)
(0 4.752630825e-10 -3.103209621e-12)
(0 4.781097684e-10 -3.184641458e-12)
(0 4.809914636e-10 -3.246392306e-12)
(0 4.838958187e-10 -3.28640662e-12)
(0 4.868089926e-10 -3.302504296e-12)
(0 4.897155141e-10 -3.292334551e-12)
(0 4.925981311e-10 -3.253422839e-12)
(0 4.954376961e-10 -3.18311456e-12)
(0 4.982130763e-10 -3.078614998e-12)
(0 5.009011124e-10 -2.936935821e-12)
(0 5.034765693e-10 -2.754955842e-12)
(0 5.059120825e-10 -2.529396247e-12)
(0 5.081780587e-10 -2.256913634e-12)
(0 5.102425784e-10 -1.934089207e-12)
(0 5.12071305e-10 -1.557522999e-12)
(0 5.136274734e-10 -1.123814389e-12)
(0 5.148719368e-10 -6.296576604e-13)
(0 5.157632985e-10 -7.184260661e-14)
(0 5.16258063e-10 5.526010222e-13)
(0 5.163108232e-10 1.246346155e-12)
(0 5.158744531e-10 2.011570433e-12)
(0 5.149003758e-10 2.849871063e-12)
(0 5.133389095e-10 3.762059278e-12)
(0 5.111397687e-10 4.748089292e-12)
(0 5.08252693e-10 5.806860048e-12)
(0 5.04628241e-10 6.936141787e-12)
(0 5.002186908e-10 8.132351951e-12)
(0 4.949790792e-10 9.390448785e-12)
(0 4.888683222e-10 1.07036728e-11)
(0 4.818504526e-10 1.206342914e-11)
(0 4.738959092e-10 1.345904538e-11)
(0 4.649829092e-10 1.487771406e-11)
(0 4.550988305e-10 1.630434375e-11)
(0 4.442416456e-10 1.772163155e-11)
(0 4.324213452e-10 1.911005976e-11)
(0 4.196613876e-10 2.0448127e-11)
(0 4.060000739e-10 2.171249448e-11)
(0 3.914918211e-10 2.287836387e-11)
(0 3.762081577e-10 2.391975797e-11)
(0 3.602383829e-10 2.481004407e-11)
(0 3.436897522e-10 2.552237198e-11)
(0 3.266872361e-10 2.603038288e-11)
(0 3.093728257e-10 2.63088359e-11)
(0 2.91904487e-10 2.633448521e-11)
(0 2.744546937e-10 2.60868016e-11)
(0 2.572085339e-10 2.554884551e-11)
(0 2.403612399e-10 2.470787113e-11)
(0 2.241151602e-10 2.35559975e-11)
(0 2.086761867e-10 2.209055689e-11)
(0 1.942498841e-10 2.031449126e-11)
(0 1.810375157e-10 1.823640624e-11)
(0 1.692322409e-10 1.58706358e-11)
(0 1.590155665e-10 1.323689831e-11)
(0 1.505541337e-10 1.035988968e-11)
(0 1.439968062e-10 7.268424764e-12)
(0 1.394721503e-10 3.994532106e-12)
(0 1.370864144e-10 5.721931102e-13)
(0 1.369222401e-10 -2.963819189e-12)
(0 1.390382683e-10 -6.579282403e-12)
(0 1.434697383e-10 -1.024162335e-11)
(0 1.50230002e-10 -1.392108435e-11)
(0 1.593127616e-10 -1.759157296e-11)
(0 1.706947573e-10 -2.123149529e-11)
(0 1.843386202e-10 -2.482417308e-11)
(0 2.001956507e-10 -2.835809034e-11)
(0 2.182082938e-10 -3.182657985e-11)
(0 2.383121477e-10 -3.522721795e-11)
(0 2.60437303e-10 -3.856065744e-11)
(0 2.845088792e-10 -4.182927641e-11)
(0 3.104465623e-10 -4.503551793e-11)
(0 3.381630635e-10 -4.818035061e-11)
(0 3.675613731e-10 -5.126175819e-11)
(0 3.985309062e-10 -5.427361861e-11)
(0 4.309426322e-10 -5.720482902e-11)
(0 4.64643575e-10 -6.003893193e-11)
(0 4.994510105e-10 -6.275406895e-11)
(0 5.351468781e-10 -6.532344412e-11)
(0 5.714726952e-10 -6.771610724e-11)
(0 6.081253638e-10 -6.989814875e-11)
(0 6.447539552e-10 -7.183407273e-11)
(0 6.809577188e-10 -7.348832525e-11)
(0 7.162852637e-10 -7.482672765e-11)
(0 7.50235011e-10 -7.581774336e-11)
(0 7.822565769e-10 -7.643340962e-11)
(0 8.117528334e-10 -7.66499118e-11)
(0 8.380820397e-10 -7.644776971e-11)
(0 8.605599194e-10 -7.581168615e-11)
(0 8.784617058e-10 -7.473011404e-11)
(0 8.910248572e-10 -7.319459463e-11)
(0 8.974527813e-10 -7.119893033e-11)
(0 8.969195261e-10 -6.873819766e-11)
(0 8.885743018e-10 -6.580774521e-11)
(0 8.715451187e-10 -6.24022326e-11)
(0 8.44941383e-10 -5.851492573e-11)
(0 8.078561746e-10 -5.413710873e-11)
(0 7.59368434e-10 -4.925773696e-11)
(0 6.985462096e-10 -4.386334422e-11)
(0 6.244529265e-10 -3.793820534e-11)
(0 5.36156696e-10 -3.146535382e-11)
(0 4.327553678e-10 -2.4428219e-11)
(0 3.132416971e-10 -1.681727779e-11)
(0 1.78656368e-10 -8.657724037e-12)
(0 2.074986363e-12 1.688400163e-23)
(0 4.387813498e-10 -1.745105626e-13)
(0 4.398746488e-10 -5.257641305e-13)
(0 4.41289636e-10 -8.797308164e-13)
(0 4.428047661e-10 -1.233201521e-12)
(0 4.444350544e-10 -1.583974892e-12)
(0 4.461783549e-10 -1.930449626e-12)
(0 4.480330261e-10 -2.271181115e-12)
(0 4.499968537e-10 -2.604847905e-12)
(0 4.520671046e-10 -2.930018025e-12)
(0 4.542406026e-10 -3.245257814e-12)
(0 4.565137604e-10 -3.548955231e-12)
(0 4.588825757e-10 -3.839456946e-12)
(0 4.613425843e-10 -4.114898752e-12)
(0 4.6388878e-10 -4.373353469e-12)
(0 4.665155028e-10 -4.612658971e-12)
(0 4.692163144e-10 -4.830567727e-12)
(0 4.719838687e-10 -5.024564386e-12)
(0 4.748097938e-10 -5.192011221e-12)
(0 4.776845816e-10 -5.329958336e-12)
(0 4.805974826e-10 -5.435301116e-12)
(0 4.835363894e-10 -5.504598484e-12)
(0 4.86487706e-10 -5.534251942e-12)
(0 4.89436204e-10 -5.520325553e-12)
(0 4.923648847e-10 -5.458723366e-12)
(0 4.952548622e-10 -5.344990683e-12)
(0 4.98085278e-10 -5.17448689e-12)
(0 5.008332356e-10 -4.942191641e-12)
(0 5.03473739e-10 -4.642917439e-12)
(0 5.059796078e-10 -4.27115719e-12)
(0 5.083213761e-10 -3.821347157e-12)
(0 5.10467185e-10 -3.287729735e-12)
(0 5.123827056e-10 -2.664621387e-12)
(0 5.140311149e-10 -1.946260659e-12)
(0 5.153731365e-10 -1.12709093e-12)
(0 5.163671272e-10 -2.016456979e-13)
(0 5.16969196e-10 8.350848162e-13)
(0 5.171333457e-10 1.987682719e-12)
(0 5.168116551e-10 3.259852242e-12)
(0 5.159545319e-10 4.654413485e-12)
(0 5.145110791e-10 6.172836187e-12)
(0 5.124295898e-10 7.815253089e-12)
(0 5.096581844e-10 9.579990364e-12)
(0 5.061455759e-10 1.146356899e-11)
(0 5.018419585e-10 1.346018005e-11)
(0 4.967000129e-10 1.55616356e-11)
(0 4.906760331e-10 1.775678674e-11)
(0 4.83731166e-10 2.003146881e-11)
(0 4.758327582e-10 2.236794942e-11)
(0 4.669557844e-10 2.47449821e-11)
(0 4.570843362e-10 2.713740228e-11)
(0 4.462131476e-10 2.951639603e-11)
(0 4.343491439e-10 3.184932258e-11)
(0 4.215129836e-10 3.410024375e-11)
(0 4.077405507e-10 3.622998632e-11)
(0 3.930843083e-10 3.819692501e-11)
(0 3.776144109e-10 3.99572766e-11)
(0 3.614194595e-10 4.146615271e-11)
(0 3.446068331e-10 4.267813427e-11)
(0 3.273025624e-10 4.354866071e-11)
(0 3.096507665e-10 4.403492186e-11)
(0 2.918126525e-10 4.409753273e-11)
(0 2.73965058e-10 4.370156591e-11)
(0 2.562984555e-10 4.281821926e-11)
(0 2.390143562e-10 4.142564587e-11)
(0 2.223220879e-10 3.951030587e-11)
(0 2.064350507e-10 3.706737886e-11)
(0 1.915666278e-10 3.410167546e-11)
(0 1.779259997e-10 3.062754183e-11)
(0 1.657140534e-10 2.666919969e-11)
(0 1.551195244e-10 2.225994212e-11)
(0 1.463154212e-10 1.744166286e-11)
(0 1.394557886e-10 1.226316594e-11)
(0 1.346729085e-10 6.77886775e-12)
(0 1.320751228e-10 1.04642846e-12)
(0 1.317454859e-10 -4.874970432e-12)
(0 1.337414227e-10 -1.092716256e-11)
(0 1.380954369e-10 -1.705464805e-11)
(0 1.448167913e-10 -2.320688713e-11)
(0 1.538939544e-10 -2.933955872e-11)
(0 1.652975692e-10 -3.541629835e-11)
(0 1.789836885e-10 -4.140918292e-11)
(0 1.94897033e-10 -4.729942044e-11)
(0 2.129740313e-10 -5.307652497e-11)
(0 2.331453862e-10 -5.873751664e-11)
(0 2.553379078e-10 -6.42846219e-11)
(0 2.794753593e-10 -6.972320984e-11)
(0 3.054781171e-10 -7.505865924e-11)
(0 3.332615069e-10 -8.029397354e-11)
(0 3.627327857e-10 -8.542688679e-11)
(0 3.93786847e-10 -9.044816281e-11)
(0 4.263008706e-10 -9.533976706e-11)
(0 4.601282556e-10 -1.000744449e-10)
(0 4.950922796e-10 -1.046153511e-10)
(0 5.309799322e-10 -1.08917123e-10)
(0 5.675363575e-10 -1.129270079e-10)
(0 6.044602316e-10 -1.165872428e-10)
(0 6.414003384e-10 -1.198372232e-10)
(0 6.779534971e-10 -1.226164389e-10)
(0 7.13663934e-10 -1.248667156e-10)
(0 7.480240192e-10 -1.265346508e-10)
(0 7.804761264e-10 -1.275729718e-10)
(0 8.104151314e-10 -1.279417515e-10)
(0 8.371910417e-10 -1.27608492e-10)
(0 8.601114286e-10 -1.265480643e-10)
(0 8.784438329e-10 -1.247417164e-10)
(0 8.91418689e-10 -1.22176083e-10)
(0 8.982332799e-10 -1.188415206e-10)
(0 8.980564757e-10 -1.147305876e-10)
(0 8.900332419e-10 -1.098361678e-10)
(0 8.732879813e-10 -1.041500335e-10)
(0 8.469268277e-10 -9.766148847e-11)
(0 8.100394255e-10 -9.035658712e-11)
(0 7.617005633e-10 -8.221754539e-11)
(0 7.009723272e-10 -7.322276352e-11)
(0 6.269086737e-10 -6.334735048e-11)
(0 5.385610116e-10 -5.256486131e-11)
(0 4.349963036e-10 -4.085011802e-11)
(0 3.151420558e-10 -2.818593559e-11)
(0 1.799308791e-10 -1.457311258e-11)
(0 2.080714046e-12 1.699024117e-23)
(0 4.380420357e-10 -2.471316307e-13)
(0 4.391338341e-10 -7.426796427e-13)
(0 4.405485253e-10 -1.239308405e-12)
(0 4.42065719e-10 -1.734663521e-12)
(0 4.437001606e-10 -2.226416159e-12)
(0 4.454494888e-10 -2.712438784e-12)
(0 4.473119307e-10 -3.190756161e-12)
(0 4.492852733e-10 -3.659425013e-12)
(0 4.513668617e-10 -4.116469051e-12)
(0 4.535536406e-10 -4.559811304e-12)
(0 4.558421751e-10 -4.987251228e-12)
(0 4.582286351e-10 -5.396423583e-12)
(0 4.607087466e-10 -5.784791471e-12)
(0 4.632777081e-10 -6.149614686e-12)
(0 4.659300827e-10 -6.487946678e-12)
(0 4.68659674e-10 -6.796598864e-12)
(0 4.714594053e-10 -7.07212993e-12)
(0 4.74321199e-10 -7.310801058e-12)
(0 4.772358652e-10 -7.508564374e-12)
(0 4.801929845e-10 -7.661026815e-12)
(0 4.831807862e-10 -7.763458492e-12)
(0 4.861860103e-10 -7.810773348e-12)
(0 4.891937706e-10 -7.797542399e-12)
(0 4.921874219e-10 -7.717964827e-12)
(0 4.951484502e-10 -7.565865672e-12)
(0 4.980563761e-10 -7.334660002e-12)
(0 5.008886714e-10 -7.01736979e-12)
(0 5.03620665e-10 -6.606635894e-12)
(0 5.062254365e-10 -6.094794529e-12)
(0 5.086736979e-10 -5.473938108e-12)
(0 5.109336901e-10 -4.736016117e-12)
(0 5.129711054e-10 -3.87289531e-12)
(0 5.147490589e-10 -2.876459965e-12)
(0 5.162280958e-10 -1.738696886e-12)
(0 5.173662344e-10 -4.518665123e-13)
(0 5.181190275e-10 9.91307586e-13)
(0 5.184396624e-10 2.597352316e-12)
(0 5.182791159e-10 4.371763337e-12)
(0 5.175864071e-10 6.318667753e-12)
(0 5.163089651e-10 8.440529015e-12)
(0 5.143931299e-10 1.073780799e-11)
(0 5.117847717e-10 1.320865214e-11)
(0 5.084300319e-10 1.584850818e-11)
(0 5.042761736e-10 1.864973556e-11)
(0 4.992725655e-10 2.160113778e-11)
(0 4.933717995e-10 2.468751916e-11)
(0 4.865309626e-10 2.788921041e-11)
(0 4.787130425e-10 3.118169256e-11)
(0 4.698884569e-10 3.453526252e-11)
(0 4.60036661e-10 3.791486925e-11)
(0 4.491478181e-10 4.1280049e-11)
(0 4.372244914e-10 4.458507299e-11)
(0 4.242833381e-10 4.777921785e-11)
(0 4.103567388e-10 5.08072616e-11)
(0 3.954943009e-10 5.361010796e-11)
(0 3.797641192e-10 5.612565417e-11)
(0 3.63253711e-10 5.828981884e-11)
(0 3.460705334e-10 6.00378622e-11)
(0 3.283420561e-10 6.13058994e-11)
(8.091619758e-53 3.102153472e-10 6.203269432e-11)
(7.6005291e-53 2.918561622e-10 6.21615499e-11)
(0 2.734474616e-10 6.164230294e-11)
(0 2.55187305e-10 6.043318468e-11)
(0 2.372860571e-10 5.850256381e-11)
(0 2.199629385e-10 5.583037835e-11)
(0 2.034420164e-10 5.240933775e-11)
(0 1.879478384e-10 4.824572786e-11)
(0 1.737009052e-10 4.335988889e-11)
(0 1.609131822e-10 3.778614862e-11)
(0 1.497837655e-10 3.157225369e-11)
(0 1.404948092e-10 2.477809957e-11)
(0 1.33207814e-10 1.747389937e-11)
(0 1.280604579e-10 9.737733027e-12)
(0 1.251641805e-10 1.652764609e-12)
(0 1.246027513e-10 -6.695840018e-12)
(0 1.264319606e-10 -1.522398466e-11)
(0 1.306804586e-10 -2.385171403e-11)
(0 1.373516359e-10 -3.250602007e-11)
(0 1.464263639e-10 -4.112340615e-11)
(0 1.578663821e-10 -4.965188752e-11)
(0 1.71618107e-10 -5.805237515e-11)
(0 1.876166201e-10 -6.629906519e-11)
(0 2.057895309e-10 -7.437882718e-11)
(0 2.260603649e-10 -8.228937867e-11)
(0 2.483510802e-10 -9.003650472e-11)
(0 2.725833693e-10 -9.76304105e-11)
(0 2.986784705e-10 -1.050817177e-10)
(0 3.26555368e-10 -1.123973343e-10)
(0 3.561273736e-10 -1.195767268e-10)
(0 3.872972515e-10 -1.266087442e-10)
(0 4.199511422e-10 -1.334693916e-10)
(0 4.539516979e-10 -1.401205695e-10)
(0 4.891308825e-10 -1.465100443e-10)
(0 5.252829747e-10 -1.525725272e-10)
(0 5.62158241e-10 -1.582319407e-10)
(0 5.994577345e-10 -1.634045311e-10)
(0 6.368295219e-10 -1.680026596e-10)
(0 6.738665818e-10 -1.719387306e-10)
(0 7.101064172e-10 -1.751289877e-10)
(0 7.450322982e-10 -1.77496674e-10)
(0 7.78075753e-10 -1.789744325e-10)
(0 8.086197813e-10 -1.795056821e-10)
(0 8.360021386e-10 -1.790450821e-10)
(0 8.595183716e-10 -1.775580401e-10)
(0 8.78424691e-10 -1.750195136e-10)
(0 8.919412779e-10 -1.714121528e-10)
(0 8.992564727e-10 -1.667240682e-10)
(0 8.995316245e-10 -1.609463081e-10)
(0 8.919054656e-10 -1.540703826e-10)
(0 8.754971332e-10 -1.460859978e-10)
(0 8.494079406e-10 -1.369793096e-10)
(0 8.127225815e-10 -1.26731693e-10)
(0 7.645099455e-10 -1.153191202e-10)
(0 7.038242083e-10 -1.027121485e-10)
(0 6.297074409e-10 -8.887669713e-11)
(0 5.411929909e-10 -7.377577915e-11)
(0 4.373184924e-10 -5.737222929e-11)
(0 3.169695343e-10 -3.96317647e-11)
(0 1.81037617e-10 -2.052674367e-11)
(0 2.089346574e-12 1.716183746e-23)
(0 4.371861146e-10 -3.202962456e-13)
(0 4.382775885e-10 -9.616856317e-13)
(0 4.396931262e-10 -1.603020839e-12)
(0 4.412133627e-10 -2.242085887e-12)
(0 4.428531868e-10 -2.876426402e-12)
(0 4.446101836e-10 -3.503588589e-12)
(0 4.464825496e-10 -4.121115989e-12)
(0 4.484681101e-10 -4.726560449e-12)
(0 4.505643077e-10 -5.317378105e-12)
(0 4.527682337e-10 -5.890928173e-12)
(0 4.550766358e-10 -6.444381737e-12)
(0 4.574858967e-10 -6.974739098e-12)
(0 4.599919784e-10 -7.478749851e-12)
(0 4.625903377e-10 -7.952941745e-12)
(0 4.652758192e-10 -8.393542101e-12)
(0 4.680425386e-10 -8.796503649e-12)
(0 4.708837618e-10 -9.157413828e-12)
(0 4.737917886e-10 -9.471515586e-12)
(0 4.767578329e-10 -9.7336168e-12)
(0 4.797718972e-10 -9.9381233e-12)
(0 4.828226387e-10 -1.007896927e-11)
(0 4.858972334e-10 -1.014966658e-11)
(0 4.889812408e-10 -1.014323458e-11)
(0 4.92058482e-10 -1.005223983e-11)
(0 4.951109277e-10 -9.86870975e-12)
(0 4.981185933e-10 -9.584175794e-12)
(0 5.010594237e-10 -9.189615038e-12)
(0 5.039091694e-10 -8.675551984e-12)
(0 5.06641252e-10 -8.032063113e-12)
(0 5.092266357e-10 -7.248928418e-12)
(0 5.116337195e-10 -6.315658206e-12)
(0 5.138282601e-10 -5.221652864e-12)
(0 5.157733218e-10 -3.956243279e-12)
(0 5.174292452e-10 -2.508903138e-12)
(0 5.187536275e-10 -8.693831483e-13)
(0 5.197013256e-10 9.719463581e-13)
(0 5.202245051e-10 3.023836801e-12)
(0 5.202727726e-10 5.293717931e-12)
(0 5.197934188e-10 7.787385189e-12)
(0 5.18731787e-10 1.050852518e-11)
(0 5.170317579e-10 1.345837669e-11)
(0 5.146363438e-10 1.663520007e-11)
(0 5.114883828e-10 2.003385212e-11)
(0 5.075313511e-10 2.364514454e-11)
(0 5.02710316e-10 2.745532291e-11)
(0 4.969730613e-10 3.144536648e-11)
(0 4.902713972e-10 3.559048345e-11)
(0 4.825626523e-10 3.985950379e-11)
(0 4.738113154e-10 4.421455424e-11)
(0 4.639907953e-10 4.861069994e-11)
(0 4.530852536e-10 5.299594037e-11)
(0 4.410914821e-10 5.731121893e-11)
(0 4.280207787e-10 6.149083836e-11)
(0 4.13900776e-10 6.546291971e-11)
(0 3.987771421e-10 6.915030865e-11)
(0 3.827150705e-10 7.247156077e-11)
(0 3.658004581e-10 7.534243527e-11)
(0 3.481406936e-10 7.767751602e-11)
(0 3.298649775e-10 7.939237363e-11)
(0 3.11124112e-10 8.040580426e-11)
(0 2.920896828e-10 8.064247742e-11)
(0 2.72952559e-10 8.003542435e-11)
(0 2.539206427e-10 7.852866751e-11)
(0 2.352158525e-10 7.607941929e-11)
(0 2.170703862e-10 7.266021465e-11)
(0 1.99722389e-10 6.826044273e-11)
(0 1.834112006e-10 6.288766974e-11)
(0 1.683723702e-10 5.656817647e-11)
(0 1.548326077e-10 4.934707112e-11)
(0 1.430048164e-10 4.128737589e-11)
(0 1.330833551e-10 3.246851501e-11)
(0 1.25239719e-10 2.298372371e-11)
(0 1.196188798e-10 1.293698902e-11)
(0 1.16336554e-10 2.439193973e-12)
(0 1.154776208e-10 -8.395821302e-12)
(0 1.170958102e-10 -1.945560037e-11)
(0 1.212146555e-10 -3.063312579e-11)
(0 1.278296076e-10 -4.183093509e-11)
(0 1.36911163e-10 -5.296456653e-11)
(0 1.48408839e-10 -6.396558648e-11)
(0 1.622558032e-10 -7.478336337e-11)
(0 1.783738835e-10 -8.538580503e-11)
(0 1.966785674e-10 -9.575833292e-11)
(0 2.17083492e-10 -1.059015576e-10)
(0 2.395038827e-10 -1.158272917e-10)
(0 2.638584581e-10 -1.255537359e-10)
(0 2.90069475e-10 -1.350997871e-10)
(0 3.180607721e-10 -1.444794782e-10)
(0 3.477538649e-10 -1.53696551e-10)
(0 3.790622969e-10 -1.627400965e-10)
(0 4.118845858e-10 -1.715811571e-10)
(0 4.460962123e-10 -1.801710509e-10)
(0 4.815412048e-10 -1.884411441e-10)
(0 5.180239223e-10 -1.963045697e-10)
(0 5.553016601e-10 -2.036593325e-10)
(0 5.930786304e-10 -2.103929168e-10)
(0 6.310017634e-10 -2.163875061e-10)
(0 6.686585861e-10 -2.215256441e-10)
(0 7.055772355e-10 -2.25695372e-10)
(0 7.412283967e-10 -2.287947227e-10)
(0 7.750287053e-10 -2.307348728e-10)
(0 8.063449167e-10 -2.314421166e-10)
(0 8.344981357e-10 -2.308583179e-10)
(0 8.587676645e-10 -2.28940248e-10)
(0 8.783945631e-10 -2.256577054e-10)
(0 8.925854448e-10 -2.209909296e-10)
(0 9.005169826e-10 -2.149273349e-10)
(0 9.013408195e-10 -2.074581022e-10)
(0 8.9418777e-10 -1.98574742e-10)
(0 8.781703798e-10 -1.882661479e-10)
(0 8.523840869e-10 -1.76516215e-10)
(0 8.159076775e-10 -1.633022968e-10)
(0 7.678033052e-10 -1.485943771e-10)
(0 7.071165259e-10 -1.323550783e-10)
(0 6.328778858e-10 -1.14540382e-10)
(0 5.441045684e-10 -9.510122607e-11)
(0 4.398143741e-10 -7.398532388e-11)
(0 3.18867054e-10 -5.113890635e-11)
(0 1.821517419e-10 -2.650689919e-11)
(0 2.100949751e-12 1.736469365e-23)
(0 4.362106013e-10 -3.942385912e-13)
(0 4.373023699e-10 -1.183258544e-12)
(0 4.387196809e-10 -1.971477128e-12)
(0 4.402440427e-10 -2.75645456e-12)
(0 4.418905357e-10 -3.535556359e-12)
(0 4.436568336e-10 -4.306010894e-12)
(0 4.455411992e-10 -5.064979509e-12)
(0 4.475415486e-10 -5.809537026e-12)
(0 4.496554596e-10 -6.53664775e-12)
(0 4.518802036e-10 -7.243111239e-12)
(0 4.542127475e-10 -7.925532123e-12)
(0 4.56649727e-10 -8.580271847e-12)
(0 4.591873868e-10 -9.203427397e-12)
(0 4.618214951e-10 -9.790788683e-12)
(0 4.645472395e-10 -1.033781765e-11)
(0 4.673591153e-10 -1.083959923e-11)
(0 4.702508088e-10 -1.129081081e-11)
(0 4.73215078e-10 -1.168566645e-11)
(0 4.762436273e-10 -1.201789221e-11)
(0 4.793269702e-10 -1.228068499e-11)
(0 4.824542898e-10 -1.246670451e-11)
(0 4.856133016e-10 -1.256804536e-11)
(0 4.88790125e-10 -1.257622598e-11)
(0 4.91969167e-10 -1.248214731e-11)
(0 4.951330072e-10 -1.227607476e-11)
(0 4.982622723e-10 -1.194760882e-11)
(0 5.013354938e-10 -1.148570853e-11)
(0 5.043289483e-10 -1.087872108e-11)
(0 5.072165007e-10 -1.011446757e-11)
(0 5.099694628e-10 -9.180316546e-12)
(0 5.125564805e-10 -8.063294293e-12)
(0 5.14943443e-10 -6.750178002e-12)
(0 5.170934014e-10 -5.227645881e-12)
(0 5.189664831e-10 -3.482450568e-12)
(0 5.205198054e-10 -1.501690063e-12)
(0 5.217074141e-10 7.268787317e-13)
(0 5.22480286e-10 3.214439186e-12)
(0 5.22786434e-10 5.970703668e-12)
(0 5.225711352e-10 9.003445742e-12)
(0 5.217772791e-10 1.231803418e-11)
(0 5.203458216e-10 1.591689169e-11)
(0 5.182163257e-10 1.979892292e-11)
(0 5.153276011e-10 2.395883523e-11)
(0 5.116184664e-10 2.838642637e-11)
(0 5.070286814e-10 3.306579551e-11)
(0 5.015000862e-10 3.797458534e-11)
(0 4.949779698e-10 4.308322843e-11)
(0 4.874126553e-10 4.835430912e-11)
(0 4.787612741e-10 5.374200826e-11)
(0 4.689896856e-10 5.919173918e-11)
(0 4.580744991e-10 6.463993868e-11)
(0 4.460051616e-10 7.001412659e-11)
(0 4.327860691e-10 7.523319492e-11)
(0 4.18438647e-10 8.020804262e-11)
(0 4.030033325e-10 8.484251075e-11)
(0 3.865413701e-10 8.903473887e-11)
(0 3.691363263e-10 9.267889421e-11)
(0 3.50895221e-10 9.566738005e-11)
(0 3.319491649e-10 9.789342299e-11)
(0 3.124533878e-10 9.925406267e-11)
(0 2.925865428e-10 9.965333727e-11)
(0 2.72549188e-10 9.900560444e-11)
(0 2.525613924e-10 9.723874669e-11)
(0 2.328594704e-10 9.429721336e-11)
(0 2.136919177e-10 9.014468167e-11)
(0 1.953146735e-10 8.476631823e-11)
(0 1.779858687e-10 7.817041326e-11)
(0 1.619602255e-10 7.038933584e-11)
(0 1.474832747e-10 6.147955142e-11)
(0 1.347855689e-10 5.152067129e-11)
(0 1.240771118e-10 4.061336941e-11)
(0 1.155422757e-10 2.887630525e-11)
(0 1.093355281e-10 1.644207911e-11)
(0 1.055782704e-10 3.452527676e-12)
(0 1.043570123e-10 -9.946526351e-12)
(0 1.057229798e-10 -2.361074285e-11)
(0 1.096931437e-10 -3.740284678e-11)
(0 1.162525914e-10 -5.119796637e-11)
(0 1.253581534e-10 -6.488851985e-11)
(0 1.369431766e-10 -7.838814078e-11)
(0 1.50923266e-10 -9.163431727e-11)
(0 1.672026631e-10 -1.045892352e-10)
(0 1.8568074e-10 -1.172386761e-10)
(0 2.062579286e-10 -1.295888046e-10)
(0 2.288403597e-10 -1.416611393e-10)
(0 2.533425887e-10 -1.534860001e-10)
(0 2.79687994e-10 -1.650951024e-10)
(0 3.078066943e-10 -1.765138418e-10)
(0 3.376310578e-10 -1.877540486e-10)
(0 3.690890644e-10 -1.988077534e-10)
(0 4.020959214e-10 -2.096426305e-10)
(0 4.365444753e-10 -2.201994694e-10)
(0 4.722950834e-10 -2.303920527e-10)
(0 5.091657198e-10 -2.401093983e-10)
(0 5.469231147e-10 -2.492202607e-10)
(0 5.852756761e-10 -2.575793257e-10)
(0 6.238687576e-10 -2.650345073e-10)
(0 6.62282586e-10 -2.714344691e-10)
(0 7.000328442e-10 -2.76635676e-10)
(0 7.365735894e-10 -2.805082511e-10)
(0 7.713018727e-10 -2.829402668e-10)
(0 8.035632199e-10 -2.838401664e-10)
(0 8.326571211e-10 -2.831373561e-10)
(0 8.578420038e-10 -2.807810407e-10)
(0 8.783397005e-10 -2.76737627e-10)
(0 8.933398958e-10 -2.709869961e-10)
(0 9.020049787e-10 -2.635181193e-10)
(0 9.034749871e-10 -2.543244083e-10)
(0 8.968715082e-10 -2.433992893e-10)
(0 8.812996702e-10 -2.30732344e-10)
(0 8.558485356e-10 -2.163063351e-10)
(0 8.195907386e-10 -2.000952144e-10)
(0 7.71581649e-10 -1.820631447e-10)
(0 7.108586891e-10 -1.6216443e-10)
(0 6.3644202e-10 -1.403442715e-10)
(0 5.47336551e-10 -1.16540103e-10)
(0 4.425452275e-10 -9.068323896e-11)
(0 3.209173305e-10 -6.269934724e-11)
(0 1.833513109e-10 -3.251075254e-11)
(0 2.115596939e-12 1.763104782e-23)
(0 4.351122597e-10 -4.691889924e-13)
(0 4.362047329e-10 -1.408000315e-12)
(0 4.376245649e-10 -2.34549688e-12)
(0 4.391540519e-10 -3.27891584e-12)
(0 4.408084688e-10 -4.205356286e-12)
(0 4.425856491e-10 -5.121751554e-12)
(0 4.444839877e-10 -6.024898692e-12)
(0 4.465015475e-10 -6.911462829e-12)
(0 4.486360858e-10 -7.777941452e-12)
(0 4.508850936e-10 -8.620635896e-12)
(0 4.532457966e-10 -9.435601308e-12)
(0 4.557151255e-10 -1.021861802e-11)
(0 4.58289655e-10 -1.096514444e-11)
(0 4.609655194e-10 -1.167028901e-11)
(0 4.637383115e-10 -1.232876067e-11)
(0 4.66602976e-10 -1.293483114e-11)
(0 4.695536958e-10 -1.348227804e-11)
(0 4.725837691e-10 -1.396434334e-11)
(0 4.756854751e-10 -1.437368288e-11)
(0 4.788499317e-10 -1.470234152e-11)
(0 4.820669478e-10 -1.494171412e-11)
(0 4.853248899e-10 -1.508252686e-11)
(0 4.886105602e-10 -1.511479205e-11)
(0 4.9190908e-10 -1.502777902e-11)
(0 4.952037663e-10 -1.480997064e-11)
(0 4.984759836e-10 -1.444905943e-11)
(0 5.017049694e-10 -1.393195071e-11)
(0 5.04867647e-10 -1.32448177e-11)
(0 5.079384464e-10 -1.237315736e-11)
(0 5.108891508e-10 -1.130188472e-11)
(0 5.1368877e-10 -1.001541633e-11)
(0 5.163034238e-10 -8.497804188e-12)
(0 5.186962135e-10 -6.732889045e-12)
(0 5.208270719e-10 -4.704544154e-12)
(0 5.226526071e-10 -2.396968097e-12)
(0 5.241259803e-10 2.049276969e-13)
(0 5.25196863e-10 3.115100807e-12)
(0 5.258115104e-10 6.345892116e-12)
(0 5.259129589e-10 9.907523033e-12)
(0 5.254413329e-10 1.380751336e-11)
(0 5.243342354e-10 1.805004703e-11)
(0 5.225272164e-10 2.263521828e-11)
(0 5.199543404e-10 2.755820956e-11)
(0 5.165488999e-10 3.280836749e-11)
(0 5.122443329e-10 3.836826788e-11)
(0 5.069753899e-10 4.421275814e-11)
(0 5.006795675e-10 5.030807409e-11)
(0 4.932987947e-10 5.661100975e-11)
(0 4.847813395e-10 6.306823403e-11)
(0 4.750838953e-10 6.961573343e-11)
(0 4.641738089e-10 7.617849311e-11)
(0 4.520314144e-10 8.267041208e-11)
(0 4.386524325e-10 8.899457805e-11)
(0 4.240503802e-10 9.50438986e-11)
(0 4.082589195e-10 1.007022096e-10)
(0 3.913340588e-10 1.058458456e-10)
(0 3.733560967e-10 1.103457793e-10)
(0 3.544311822e-10 1.140702766e-10)
(0 3.346923357e-10 1.16888109e-10)
(0 3.142997685e-10 1.186721717e-10)
(0 2.934403441e-10 1.193034469e-10)
(0 2.723260723e-10 1.186750754e-10)
(0 2.51191584e-10 1.166964368e-10)
(0 2.302906116e-10 1.132969937e-10)
(0 2.09891552e-10 1.08429811e-10)
(0 1.902722334e-10 1.020744938e-10)
(0 1.717140212e-10 9.423943025e-11)
(0 1.544954228e-10 8.496304918e-11)
(0 1.388853694e-10 7.431397819e-11)
(0 1.2513641e-10 6.238987351e-11)
(0 1.134781167e-10 4.931494785e-11)
(0 1.041110723e-10 3.523616142e-11)
(0 9.720182813e-11 2.031831332e-11)
(0 9.287917133e-11 4.738159323e-12)
(0 9.123192099e-11 -1.132211971e-11)
(0 9.230834349e-11 -2.768194691e-11)
(0 9.611719206e-11 -4.416951728e-11)
(0 1.026303556e-10 -6.062885425e-11)
(0 1.117871109e-10 -7.692621309e-11)
(0 1.234999326e-10 -9.295537612e-11)
(0 1.376616814e-10 -1.086411686e-10)
(0 1.54153747e-10 -1.239407751e-10)
(0 1.728544576e-10 -1.38842426e-10)
(0 1.936468615e-10 -1.533614559e-10)