/*--------------------------------*- C++ -*----------------------------------*\
  =========                 |
  \\      /  F ield         | OpenFOAM: The Open Source CFD Toolbox
   \\    /   O peration     | Website:  https://openfoam.org
    \\  /    A nd           | Version:  6
     \\/     M anipulation  |
\*---------------------------------------------------------------------------*/
FoamFile
{
    version     2.0;
    format      ascii;
    class       surfaceScalarField;
    location    "0.0002";
    object      phi;
}
// * * * * * * * * * * * * * * * * * * * * * * * * * * * * * * * * * * * * * //

dimensions      [0 3 -1 0 0 0 0];

internalField   nonuniform List<scalar> 
1150
(
-4.511639956e-20
1.917700326e-21
-4.594674277e-20
3.974295207e-21
-4.681858361e-20
6.975517944e-21
-4.80445342e-20
1.095780414e-20
-4.981719432e-20
1.646917673e-20
-5.247757467e-20
2.444966176e-20
-5.66024318e-20
3.637430841e-20
-6.331972429e-20
5.45447507e-20
-7.48786653e-20
8.258558866e-20
-9.613308719e-20
1.262073554e-19
-1.375388742e-19
1.941175392e-19
-2.199272945e-19
2.970926952e-19
-3.706666411e-19
4.344209945e-19
-5.907005841e-19
5.23449345e-19
-3.292112483e-19
1.141121947e-19
-3.39073877e-20
9.055926239e-33
6.378936502e-20
7.336203773e-20
8.068623596e-20
2.707190432e-20
7.801260208e-20
-5.418594754e-21
4.747514784e-20
-3.220555462e-20
2.293653009e-20
-4.129813968e-20
4.460941946e-21
-4.138656694e-20
-9.780625132e-21
-3.715076267e-20
-2.49389865e-20
-3.074384501e-20
-3.983941041e-20
-1.976045661e-20
-4.730758524e-20
-1.459782552e-21
-9.255760657e-22
2.402257836e-20
1.113843637e-19
1.690473011e-20
3.233794961e-19
-9.89926009e-20
1.682719078e-19
-4.237632848e-20
1.899784736e-21
-4.269237129e-20
3.907470665e-21
-4.260654614e-20
6.788060336e-21
-4.220581159e-20
1.052728589e-20
-4.133302264e-20
1.561507798e-20
-3.976925558e-20
2.292038747e-20
-3.721004049e-20
3.384862593e-20
-3.340207113e-20
5.06564666e-20
-2.858137448e-20
7.709138408e-20
-2.545685391e-20
1.197053685e-19
-3.60409443e-20
1.909630909e-19
-1.033986249e-19
3.156579405e-19
-3.322330186e-19
5.374293946e-19
-7.229649773e-19
8.594729284e-19
-1.175547112e-18
6.867338433e-19
-8.723270626e-20
-1.286514393e-19
1.749923164e-20
-3.137575724e-20
4.819573703e-20
-3.639941167e-21
5.122564228e-20
-8.464889826e-21
3.83825629e-20
-1.937559851e-20
2.284810286e-20
-2.576868095e-20
8.696746172e-21
-2.723148396e-20
-3.373707438e-21
-2.507199998e-20
-1.395559815e-20
-2.015548768e-20
-2.153873641e-20
-1.216604683e-20
-2.18252244e-20
-1.154385512e-21
-8.04342431e-21
1.025324952e-20
-4.512967327e-21
1.338355018e-20
-1.217482082e-19
1.824883865e-20
5.519046105e-20
-3.970599767e-20
1.699812015e-21
-3.957638082e-20
3.442713143e-21
-3.865745105e-20
5.836489347e-21
-3.681182675e-20
8.766752478e-21
-3.354248765e-20
1.25373477e-20
-2.804869195e-20
1.775372303e-20
-1.904320233e-20
2.541482612e-20
-4.39141721e-21
3.711122545e-20
1.973425441e-20
5.53003102e-20
6.084559075e-20
8.367262545e-20
1.345399478e-19
1.27602939e-19
2.693568848e-19
1.946915603e-19
4.038174298e-19
2.934521529e-19
4.020702314e-19
4.201366912e-19
2.030203919e-19
-4.987347215e-33
7.338665378e-20
9.78749306e-22
4.523504776e-20
-3.233618695e-21
4.337078837e-20
-1.787922256e-21
4.031493356e-20
-5.422359681e-21
3.198948048e-20
-1.106134912e-20
2.138529984e-20
-1.517078733e-20
1.085623013e-20
-1.670185531e-20
1.542804897e-21
-1.575273819e-20
-5.966157297e-21
-1.263833991e-20
-1.052707508e-20
-7.592205203e-21
-1.041758936e-20
-1.249141488e-21
-4.913123648e-21
4.761221854e-21
3.523211772e-22
8.130297994e-21
7.785637756e-21
1.082175198e-20
1.288597606e-20
-3.739848453e-20
1.405400533e-21
-3.700618597e-20
2.756626932e-21
-3.558318896e-20
4.437888374e-21
-3.28278526e-20
6.180142579e-21
-2.798471785e-20
8.011618028e-21
-1.984744637e-20
1.013066028e-20
-6.503531332e-21
1.293484611e-20
1.513538482e-20
1.706796316e-20
5.047541464e-20
2.332529141e-20
1.102396634e-19
3.188219989e-20
2.187413882e-19
3.919905217e-20
4.254517133e-19
2.807515468e-20
6.060644162e-19
-5.780527591e-20
7.816509327e-19
-3.310991594e-19
1.40655463e-19
-1.650935589e-32
6.917428567e-20
7.245246928e-20
4.668074414e-20
1.92495579e-20
3.973635089e-20
5.143850753e-21
3.467594405e-20
-3.745202688e-22
2.788004224e-20
-4.276546331e-21
1.985423184e-20
-7.15238147e-21
1.18053472e-20
-8.654832216e-21
4.657203198e-21
-8.600649453e-21
-9.200225937e-22
-7.052951363e-21
-4.18401136e-21
-4.316166305e-21
-4.407226012e-21
-1.011388485e-21
-1.544047508e-21
1.91141025e-21
3.043775178e-21
3.554181368e-21
9.849861803e-21
4.023392783e-21
2.464676229e-21
-3.562702191e-20
1.134494039e-21
-3.523598775e-20
2.10416927e-21
-3.379676665e-20
3.052255641e-21
-3.092349485e-20
3.517064999e-21
-2.57371673e-20
3.198732515e-21
-1.685911871e-20
1.824036489e-21
-2.237590568e-21
-8.647568503e-22
2.092983717e-20
-5.06485425e-21
5.580464852e-20
-1.081606624e-20
1.038048431e-19
-1.783474969e-20
1.574104986e-19
-2.524777022e-20
1.840097462e-19
-3.117836301e-20
1.81087962e-19
-3.239661832e-20
-1.302282159e-19
-2.383494943e-20
-5.522022077e-20
1.177731213e-33
1.597137439e-20
1.252407583e-21
3.257503704e-20
2.633878735e-21
3.421797993e-20
3.48918834e-21
3.077391804e-20
3.058522836e-21
2.500420715e-20
1.483475503e-21
1.835178112e-20
-5.072508032e-22
1.185952997e-20
-2.165769206e-21
6.204901309e-21
-2.943810817e-21
1.816762461e-21
-2.656896506e-21
-8.79233548e-22
-1.607594372e-21
-1.484427282e-21
-3.924655158e-22
9.87236069e-23
3.403727783e-22
3.512986603e-21
1.490546753e-22
8.291145258e-21
-7.502560686e-22
-1.492391373e-21
-3.438250883e-20
1.025894137e-21
-3.429654512e-20
1.777924211e-21
-3.340336936e-20
2.213466248e-21
-3.13266026e-20
1.650987528e-21
-2.719423547e-20
-5.470730098e-22
-1.960854006e-20
-5.148818571e-21
-6.442134974e-21
-1.312202824e-20
1.528787378e-20
-2.561064182e-20
4.909618703e-20
-4.366618866e-20
9.701207972e-20
-6.716357911e-20
1.525063729e-19
-9.115166471e-20
1.839696706e-19
-9.504942875e-20
1.880074158e-19
-1.549655422e-20
-1.215070394e-19
2.728874816e-19
-5.396781343e-20
1.896972133e-32
1.735284562e-20
-7.007625394e-20
3.343034679e-20
-1.345241389e-20
3.378731458e-20
3.121931131e-21
2.919887083e-20
7.638111276e-21
2.301348094e-20
7.661235153e-21
1.669326279e-20
5.806676101e-21
1.10814884e-20
3.442590473e-21
6.491815655e-21
1.647489221e-21
2.86606461e-21
9.76163758e-22
3.358953126e-22
9.339689854e-22
-7.515889887e-22
7.068797083e-22
-9.25944969e-23
-3.101158204e-22
2.613675867e-21
-2.552723157e-21
7.549009986e-21
-5.683870532e-21
-5.993011152e-21
-3.344943553e-20
1.206585877e-21
-3.395653527e-20
2.054911951e-21
-3.415306348e-20
2.436188816e-21
-3.37745565e-20
1.441069829e-21
-3.210711881e-20
-1.866791791e-21
-2.792150782e-20
-8.717916675e-21
-1.913033055e-20
-2.082590022e-20
-2.173747317e-21
-4.057241611e-20
2.93275976e-20
-7.118362813e-20
8.786983009e-20
-1.168369748e-19
2.005857576e-19
-1.825563274e-19
4.204514484e-19
-2.735404773e-19
6.194737157e-19
-3.913373513e-19
8.040097577e-19
-5.129127671e-19
1.442840847e-19
7.675148525e-33
7.39766847e-20
2.268507557e-22
5.000469111e-20
1.051191872e-20
3.830349416e-20
1.481885511e-20
2.922199428e-20
1.671554166e-20
2.115892155e-20
1.572010286e-20
1.432917695e-20
1.263215386e-20
9.28638701e-21
8.482913633e-21
5.820490101e-21
5.115005397e-21
2.823869795e-21
3.979921996e-21
1.088060344e-22
3.659197614e-21
-1.768584494e-21
2.591885578e-21
-2.335201801e-21
2.581501211e-22
-5.174715158e-22
-4.372825323e-21
7.239869265e-21
-1.344840193e-20
-1.852911036e-20
-3.24115429e-20
1.771827196e-21
-3.372520094e-20
3.143227521e-21
-3.543343684e-20
4.1170589e-21
-3.749078405e-20
3.575851681e-21
-3.953008525e-20
3.882241914e-22
-4.082148136e-20
-6.994258631e-21
-3.995528244e-20
-2.086126224e-20
-3.425403552e-20
-4.466216192e-20
-1.856019163e-20
-8.367529785e-20
1.729212037e-20
-1.462490743e-19
9.345598817e-20
-2.464431338e-19
2.443123692e-19
-4.091096671e-19
4.087959271e-19
-6.720551341e-19
4.187407085e-19
-1.012421827e-18
2.078546158e-19
-7.812333156e-19
8.426175381e-20
1.238172156e-19
5.431162825e-20
4.04658698e-20
4.020018128e-20
2.892346769e-20
2.822655595e-20
2.868757974e-20
1.807097283e-20
2.587517542e-20
1.017993693e-20
2.052165365e-20
5.918478913e-21
1.274320701e-20
4.685406777e-21
6.350214158e-21
2.503145454e-21
6.168537843e-21
-9.585059984e-22
7.127186145e-21
-4.102319987e-21
5.73749373e-21
-6.966177288e-21
3.119283584e-21
-9.593048174e-21
-1.756369824e-21
2.159160954e-21
-2.520093344e-20
-6.636107338e-20
-3.069926796e-20
2.753981784e-21
-3.290158028e-20
5.125214143e-21
-3.631448413e-20
7.432451653e-21
-4.119561971e-20
8.399595163e-21
-4.768767249e-20
6.867577671e-21
-5.586741846e-20
1.235039056e-21
-6.560685486e-20
-1.095569569e-20
-7.639704945e-20
-3.354727185e-20
-8.728370749e-20
-7.254128485e-20
-9.783031447e-20
-1.371420895e-19
-1.134145422e-19
-2.407205499e-19
-1.646179013e-19
-3.992686384e-19
-3.373412697e-19
-6.15446772e-19
-6.537417776e-19
-7.981343993e-19
-1.025198299e-18
-4.369978129e-19
-6.243327005e-20
9.801725484e-33
4.276922598e-20
-6.474887031e-20
3.996429333e-20
3.172683955e-20
2.541415164e-20
4.323364991e-20
1.271745098e-20
3.85711678e-20
2.401490215e-21
3.083680737e-20
-4.745139883e-22
1.561861902e-20
4.503730451e-21
1.374491167e-21
3.461793765e-21
7.215638652e-21
-2.348198418e-21
1.294256407e-20
-6.720530167e-21
1.011285126e-20
-1.184183074e-20
8.23051336e-21
-3.303761206e-20
1.944440631e-20
-1.31593205e-19
7.334002733e-20
-1.92389814e-19
-2.767374352e-20
4.10459958e-21
-3.067552286e-20
7.918356134e-21
-3.567484436e-20
1.226047794e-20
-4.326018101e-20
1.577029382e-20
-5.41515717e-20
1.746492842e-20
-6.935728068e-20
1.602307136e-20
-9.021243534e-20
9.337499934e-21
-1.184243421e-19
-6.04978718e-21
-1.561204437e-19
-3.577838267e-20
-2.061490038e-19
-8.863526407e-20
-2.73343892e-19
-1.767936677e-19
-3.673980636e-19
-3.126809478e-19
-4.989248655e-19
-4.968426451e-19
-6.573038699e-19
-6.891814504e-19
-3.210727901e-19
-8.088154154e-19
-4.947841852e-22
-5.65253339e-19
1.39244934e-19
-2.044896868e-19
5.147110294e-20
1.194882687e-19
2.075166926e-20
7.394724741e-20
4.983090398e-21
5.433897688e-20
-1.281669796e-20
4.863586467e-20
-1.471864165e-20
1.752036895e-20
1.034487779e-20
-2.368645975e-20
9.188719056e-21
8.37813713e-21
-5.177911147e-21
2.731655702e-20
-8.602867956e-21
1.353401542e-20
-6.27937763e-22
2.573080304e-22
2.085800888e-20
-2.047190175e-21
3.150691698e-19
-2.208703443e-19
4.609459486e-19
-2.27382087e-20
5.659700346e-21
-2.627320436e-20
1.125517149e-20
-3.240271382e-20
1.815448755e-20
-4.200045593e-20
2.500355867e-20
-5.631049055e-20
3.119880704e-20
-7.721766583e-20
3.60383463e-20
-1.074857361e-19
3.831906279e-20
-1.510029194e-19
3.579366725e-20
-2.127179758e-19
2.413867086e-20
-2.97665773e-19
-4.764163812e-21
-4.080608814e-19
-6.479778718e-20
-5.365238555e-19
-1.756364229e-19
-6.480444379e-19
-3.582835539e-19
-6.37675356e-19
-6.330241569e-19
-5.120870119e-19
-1.128405106e-18
5.848508853e-19
-2.306383531e-18
4.632228891e-19
-2.193040113e-18
5.930082356e-21
5.767762113e-19
1.143399083e-21
7.873420253e-20
-7.200218282e-22
5.62049484e-20
-4.393219392e-20
9.184898031e-20
-5.59254707e-20
2.951435811e-20
4.240947493e-20
-1.220174666e-19
2.812713911e-20
2.266798927e-20
-1.896045283e-20
7.440969575e-20
-2.187957552e-20
1.64531776e-20
-2.932435981e-21
-1.868800638e-20
-3.10357388e-19
3.053777618e-19
-2.031144952e-19
-1.899506313e-18
2.031144932e-19
-1.543208016e-20
7.065108783e-21
-1.911308991e-20
1.469691705e-20
-2.562945029e-20
2.438544385e-20
-3.602906133e-20
3.493318619e-20
-5.189455938e-20
4.627810475e-20
-7.573413118e-20
5.859880692e-20
-1.115159096e-19
7.211845317e-20
-1.653962734e-19
8.680676739e-20
-2.461747464e-19
1.013185626e-19
-3.643105606e-19
1.099610625e-19
-5.283560353e-19
9.650293762e-20
-7.427839352e-19
2.895147206e-20
-1.037060386e-18
-1.244651208e-19
-1.575495508e-18
-2.862666959e-19
-2.642419983e-18
-3.597122075e-19
-3.858029134e-18
-9.268279019e-19
-4.63380834e-18
-2.71582168e-19
-2.080487199e-19
4.506954518e-32
-7.043442463e-20
-5.888066839e-20
3.492401035e-20
-4.91515468e-20
-1.062668167e-19
2.330408975e-19
-2.074572971e-19
1.307062617e-19
1.870949324e-19
-5.165649085e-19
7.986884605e-20
1.299022715e-19
-7.691697152e-20
2.312021323e-19
-7.972190388e-21
-5.248698539e-20
3.70700194e-20
-6.372911674e-20
1.908065353e-18
4.714657285e-32
1.227643378e-18
-1.152073743e-18
-1.298071209e-32
-5.396609062e-21
7.065379067e-21
-8.941208877e-21
1.763010652e-20
-1.494999711e-20
3.005353738e-20
-2.460671351e-20
4.410333645e-20
-3.952463679e-20
6.037145272e-20
-6.229843688e-20
7.996727556e-20
-9.741169522e-20
1.047897389e-19
-1.528354272e-19
1.3804464e-19
-2.420649082e-19
1.841753111e-19
-3.838747946e-19
2.449971957e-19
-5.924387537e-19
3.028822612e-19
-8.467650185e-19
2.877848855e-19
-1.109364821e-18
7.323788099e-20
-1.568766227e-18
-5.070417349e-20
-2.585174848e-18
4.82377769e-19
-3.579031334e-18
5.614373789e-20
-2.367790762e-18
-1.886418721e-19
-2.669293844e-19
2.6394268e-20
-3.923771305e-19
6.656266773e-20
-3.462272089e-19
-9.530059595e-20
2.988063096e-19
-4.119916873e-19
5.210074184e-19
-9.149297108e-20
-5.42173773e-19
5.466210891e-19
-3.262390549e-19
-8.602413251e-20
3.027375751e-19
-3.977677443e-19
3.124575069e-19
-6.220327485e-20
1.007991347e-19
1.479307127e-19
-4.663964294e-19
2.464232455e-19
-1.661407673e-19
-1.386975563e-18
-1.558519567e-19
6.520533401e-21
6.586812648e-21
3.907271745e-21
1.972515163e-20
-6.04275685e-22
3.429750705e-20
-7.944060471e-21
5.107846526e-20
-1.929562877e-20
7.113955711e-20
-3.647600697e-20
9.613281198e-20
-6.290946768e-20
1.290738111e-19
-1.062879414e-19
1.763480788e-19
-1.84277863e-19
2.513900347e-19
-3.305630979e-19
3.754084653e-19
-5.811498394e-19
5.440420069e-19
-8.500778269e-19
6.040129865e-19
-8.263383215e-19
-2.370383261e-20
-5.411712193e-19
-2.200233105e-19
-5.050395129e-19
5.535357442e-19
3.417478875e-32
-7.783408525e-21
5.970776883e-20
-3.58229976e-20
7.159733901e-20
1.449528408e-20
1.383518331e-19
-1.936350883e-22
1.128176047e-19
-6.976532189e-20
-1.564308878e-19
-1.427423667e-19
-2.16614407e-19
-3.130765486e-20
2.009168907e-19
1.290944046e-19
1.377532466e-19
-2.285395959e-20
-1.37433861e-19
-1.225748186e-19
-1.70000734e-19
-2.963310792e-20
-9.906676326e-20
7.699746718e-20
-1.140848694e-20
1.58765109e-19
-1.558519571e-19
-6.653190602e-20
-1.329482642e-19
1.974637929e-20
6.741806432e-21
1.877428692e-20
2.074108916e-20
1.65643615e-20
3.64229616e-20
1.271222623e-20
5.478533694e-20
6.786432998e-21
7.698861291e-20
-1.334294204e-21
1.043749338e-19
-1.13948606e-20
1.390237906e-19
-2.475692104e-20
1.866860015e-19
-5.455918847e-20
2.672568388e-19
-1.500799264e-19
4.386761545e-19
-4.277439519e-19
7.693237535e-19
-7.705020334e-19
9.129399391e-19
-7.678196525e-19
-2.246034549e-20
5.132084983e-19
-1.273696835e-18
1.972010624e-19
7.759057737e-20
9.864776396e-20
9.076431655e-20
4.668237313e-20
1.613675617e-20
5.690841971e-20
4.264000668e-21
6.878014556e-20
-1.206651698e-20
3.984055928e-20
-4.08255779e-20
-4.499617499e-20
-5.790509737e-20
-5.621234581e-20
-2.009012611e-20
4.896852487e-20
2.391761686e-20
3.803238668e-20
-1.191214687e-20
-4.449214948e-20
-4.004558357e-20
-6.337015782e-20
-1.075328762e-20
-1.729912074e-20
3.092608346e-20
9.496632906e-20
4.649131137e-20
4.60598353e-20
-1.763388406e-20
-4.47980259e-20
3.401646473e-20
6.527148707e-21
3.48054129e-20
2.025906187e-20
3.532534968e-20
3.591434786e-20
3.542185418e-20
5.466411887e-20
3.506624921e-20
7.765977264e-20
3.563123443e-20
1.053447748e-19
4.276922514e-20
1.360037227e-19
7.122069488e-20
1.646704447e-19
1.418415138e-19
1.925288936e-19
2.49297416e-19
2.896488041e-19
1.180004846e-19
6.806431484e-19
-3.024588782e-19
8.972967536e-19
2.949011427e-33
-4.528401119e-20
-1.907375682e-19
-7.84895676e-20
-5.795334593e-20
-5.519525863e-20
2.402020303e-20
8.788484916e-21
3.480961707e-20
5.341919038e-21
4.057790143e-20
-1.507704637e-21
4.002108391e-20
-1.151054674e-20
2.27610395e-20
-2.356549404e-20
-7.181203571e-21
-2.796285265e-20
-1.220460252e-20
-1.506578977e-20
1.313876082e-20
-1.422458816e-21
9.898949788e-21
-8.667348186e-21
-1.519985325e-20
-1.494245573e-20
-2.16907863e-20
-4.261147942e-21
-1.733892787e-21
1.096705985e-20
3.0841133e-20
1.390977051e-20
1.889569315e-20
-5.696961835e-21
-1.656786149e-20
4.808698686e-20
5.756816421e-21
5.085286926e-20
1.800029229e-20
5.442576164e-20
3.234455842e-20
5.852725498e-20
5.030443741e-20
6.223427634e-20
7.363678625e-20
6.489587747e-20
1.03417356e-19
7.051569112e-20
1.363213717e-19
1.052075539e-19
1.540181588e-19
2.474695426e-19
1.052663965e-19
5.169669373e-19
-2.946912108e-20
7.989274045e-19
-5.387125519e-20
1.597004639e-19
1.435617494e-19
9.34818019e-20
2.093346997e-20
3.754120453e-20
-2.25508889e-20
6.030396903e-21
-2.368740526e-20
2.057363751e-20
-5.758280688e-21
2.795999389e-20
-2.04816446e-21
3.057505992e-20
-4.124812162e-21
2.796613715e-20
-8.902686908e-21
1.836368126e-20
-1.396315887e-20
5.715859225e-21
-1.531560591e-20
1.438728276e-21
-1.078793288e-20
5.893871634e-21
-5.875162835e-21
3.62384238e-21
-6.392523677e-21
-4.518545673e-21
-6.79578796e-21
-6.462578793e-21
-2.315139132e-21
1.208817845e-21
3.293290542e-21
1.123440107e-20
3.878639121e-21
8.024793763e-21
-2.493080894e-21
-6.817787837e-21
6.074158437e-20
4.362113979e-21
6.571501616e-20
1.375487754e-20
7.290691332e-20
2.5187689e-20
8.191363998e-20
4.056318648e-20
8.975899796e-20
6.31177396e-20
8.706271379e-20
9.842311485e-20
4.940847125e-20
1.547398221e-19
-6.837088768e-20
2.364002859e-19
-3.15732427e-19
2.994849183e-19
-2.505236454e-19
-4.626140426e-20
-6.142272263e-20
-4.172790172e-33
3.707218296e-20
4.506688619e-20
4.999744259e-20
8.0077806e-21
3.640468818e-20
-8.960759616e-21
2.395952165e-20
-1.124558076e-20
2.428375377e-20
-6.086661934e-21
2.588334617e-20
-3.651710589e-21
2.579718513e-20
-4.041593054e-21
2.290566511e-20
-6.012513027e-21
1.701123422e-20
-8.069729895e-21
1.024353229e-20
-8.548601466e-21
6.351498362e-21
-6.895976391e-21
5.376510796e-21
-4.897898328e-21
3.220578094e-21
-4.232168981e-21
-3.789680461e-23
-3.532161743e-21
-8.541490605e-22
-1.496058197e-21
1.794166429e-21
6.446092245e-22
4.862680986e-21
8.066152985e-22
3.700086782e-21
-1.334017131e-21
-3.022378131e-21
7.068567479e-20
2.372721751e-21
7.798918726e-20
7.541864259e-21
8.96463669e-20
1.407035385e-20
1.066791301e-19
2.351457852e-20
1.27873207e-19
3.926634666e-20
1.427303546e-19
6.957125587e-20
1.06503705e-19
1.354561693e-19
-9.880981615e-20
2.88470327e-19
-5.100912543e-19
6.083524989e-19
-1.158735068e-18
7.213084981e-19
-1.430431906e-19
-8.034419699e-20
1.307732097e-23
-9.798955368e-20
3.302890183e-20
-2.500911662e-20
3.411986652e-20
-1.005487911e-20
2.911844005e-20
-6.248592962e-21
2.671870472e-20
-3.692255736e-21
2.549346333e-20
-2.43103311e-21
2.38262648e-20
-2.377833475e-21
2.084844792e-20
-3.036609984e-21
1.653236242e-20
-3.755161032e-21
1.189615719e-20
-3.913473589e-21
8.349576296e-21
-3.349593768e-21
6.042240061e-21
-2.58817302e-21
3.920585274e-21
-2.105614508e-21
1.998206714e-21
-1.603756355e-21
1.286518349e-21
-7.803614161e-22
1.956172474e-21
-2.389349541e-23
2.722048509e-21
3.907391255e-23
2.01172575e-21
-6.253617061e-22
-1.205253134e-21
7.678690317e-20
8.598476523e-20
1.019508432e-19
1.292651978e-19
1.767624467e-19
2.624186024e-19
4.155553588e-19
4.958593146e-19
5.313873722e-19
2.513276425e-19
1.709832768e-19
7.299351449e-20
4.798313986e-20
3.79261532e-20
3.167477772e-20
2.797992775e-20
2.554666335e-20
2.316748865e-20
2.012989718e-20
1.637405011e-20
1.246003719e-20
9.110997168e-21
6.524798668e-21
4.422443487e-21
2.821601683e-21
2.042986292e-21
2.019139911e-21
2.057612928e-21
1.431834352e-21
)
;

boundaryField
{
    lowerWall
    {
        type            calculated;
        value           nonuniform 0();
    }
    atmosphere
    {
        type            calculated;
        value           nonuniform List<scalar> 
20
(
4.477774908e-20
4.217739353e-20
3.962628146e-20
3.73911482e-20
3.562061674e-20
3.429685237e-20
3.320831728e-20
3.196090877e-20
3.002099022e-20
2.679695381e-20
2.173716749e-20
1.439688284e-20
4.268547505e-21
-7.384306492e-21
-1.996362646e-20
-3.366254313e-20
-4.710805458e-20
-5.90846976e-20
-6.83613557e-20
-7.398532668e-20
)
;
    }
    rightWall
    {
        type            empty;
        value           nonuniform 0();
    }
    leftWall
    {
        type            empty;
        value           nonuniform 0();
    }
    frontAndBack
    {
        type            calculated;
        value           uniform 0;
    }
    procBoundary4to2
    {
        type            processor;
        value           nonuniform List<scalar> 
30
(
-1.719801841e-21
-3.572135065e-21
-6.278013894e-21
-9.8805444e-21
-1.485464819e-20
-2.202517289e-20
-3.262927712e-20
-4.853839458e-20
-7.244565053e-20
-1.080400346e-19
-1.594113527e-19
-2.279807149e-19
-3.021944654e-19
-3.368349399e-19
-2.95668377e-19
-1.620572736e-19
-1.710770819e-19
-4.399323133e-20
8.048951359e-21
6.271316209e-20
6.582992988e-20
5.987237828e-20
5.140747482e-20
4.59040531e-20
3.469600655e-20
8.967477061e-21
-7.035234299e-20
-1.291891611e-19
-1.13014296e-19
5.093035228e-19
)
;
    }
    procBoundary4to5
    {
        type            processor;
        value           nonuniform List<scalar> 
20
(
-3.541447757e-19
-8.664223126e-21
5.009438635e-20
2.027273146e-20
1.225076601e-20
1.204694723e-20
1.977412306e-20
4.997918224e-20
-5.562703144e-21
-3.382846342e-19
5.47140047e-20
3.1650152e-19
1.223992926e-19
-1.787574946e-19
-4.209847625e-20
-9.338446989e-21
-1.728560919e-21
-9.741019801e-23
1.9365985e-22
2.267974912e-22
)
;
    }
}


// ************************************************************************* //
