/*--------------------------------*- C++ -*----------------------------------*\
  =========                 |
  \\      /  F ield         | OpenFOAM: The Open Source CFD Toolbox
   \\    /   O peration     | Website:  https://openfoam.org
    \\  /    A nd           | Version:  6
     \\/     M anipulation  |
\*---------------------------------------------------------------------------*/
FoamFile
{
    version     2.0;
    format      ascii;
    class       volScalarField;
    location    "0.0002";
    object      TRHS;
}
// * * * * * * * * * * * * * * * * * * * * * * * * * * * * * * * * * * * * * //

dimensions      [1 -1 -3 0 0 0 0];

internalField   nonuniform List<scalar> 
600
(
-3.171887662e-11
-9.151927734e-11
-3.51621972e-11
-2.992537279e-11
-3.172742722e-11
-4.735942052e-11
-7.5730713e-11
-1.414584968e-10
-2.808947861e-10
-6.095933035e-10
-1.320208881e-09
-2.611824727e-09
-3.619961834e-09
-7.094715013e-09
1.625557883e-08
-0.000103338629
40.9977723
0
0
0
0
0
0
0
0
0
0
0
391.0692514
-0.002065449672
-4.660014286e-11
-8.182405535e-11
-2.053950912e-11
-6.104617285e-12
3.522193871e-12
6.424866622e-12
6.343562594e-12
-1.570607881e-11
-1.310403327e-10
-6.658906169e-10
-2.746562721e-09
-9.927902116e-09
-2.599563168e-08
-1.076231427e-08
2.662628865e-08
-0.0006579185916
105.4936056
0
0
0
0
0
0
0
0
0
0
0
-0.005433004659
-2.643300587e-05
-5.893064919e-11
-7.168999149e-11
-6.735070894e-12
1.683289745e-11
3.77808424e-11
6.436663517e-11
1.126229992e-10
2.195229243e-10
4.693819755e-10
1.047066802e-09
2.24130422e-09
3.45696552e-09
-2.184250422e-08
-9.311446028e-08
-2.154290313e-07
155.5736887
0
0
0
0
0
0
0
0
0
0
0
0
0
-0.002462870183
-6.310386361e-11
-6.302420472e-11
4.719921377e-12
3.347009512e-11
6.274655182e-11
1.013669008e-10
1.704457813e-10
3.16290159e-10
6.746325918e-10
1.633577858e-09
4.272794731e-09
9.053853087e-09
-3.501909031e-08
-1.218210759e-07
-1.551023493e-07
-0.006276739491
0
0
0
0
0
0
0
0
0
0
0
0
0
0
-5.818006034e-11
-5.639407e-11
1.050398684e-11
4.169458495e-11
7.386923389e-11
1.128727686e-10
1.625593727e-10
2.051192215e-10
1.440530166e-10
-3.572482249e-10
-2.243942061e-09
-6.754730871e-09
5.758291227e-09
2.04992367e-09
-0.0001683218127
66.77977147
0
0
0
0
0
0
0
0
0
0
0
0
0
0
-4.16429731e-11
-5.22817717e-11
1.0543858e-11
4.173351397e-11
7.65052502e-11
1.212976331e-10
1.802999734e-10
2.354259801e-10
1.892509816e-10
-2.965566924e-10
-2.155562062e-09
-6.697828693e-09
5.461687569e-09
2.33694148e-10
-0.0001645054316
65.26519055
0
0
0
0
0
0
0
0
0
0
0
0
0
0
-1.511517602e-11
-5.060207007e-11
4.749921363e-12
3.333571603e-11
6.889319157e-11
1.222145457e-10
2.158533432e-10
3.970215146e-10
7.987506075e-10
1.812308991e-09
4.519501574e-09
9.341171043e-09
-3.624932404e-08
-1.271284955e-07
-1.595758963e-07
-0.006438666525
0
0
0
0
0
0
0
0
0
0
0
0
0
0
1.964798865e-11
-5.005949207e-11
-6.04737544e-12
1.531618196e-11
4.294884071e-11
8.603260419e-11
1.653808967e-10
3.213025782e-10
6.426375956e-10
1.317606851e-09
2.633077755e-09
3.774914654e-09
-2.311677868e-08
-1.030511117e-07
-2.383444671e-07
149.7272741
0
0
0
0
0
0
0
0
0
0
0
0
0
-0.002961357906
5.735785382e-11
-4.932370961e-11
-2.00250987e-11
-1.128271358e-11
-2.159831525e-12
1.02495569e-11
3.352391961e-11
6.552927382e-11
5.170037047e-11
-2.808744817e-10
-1.964197354e-09
-8.366800851e-09
-2.375668417e-08
-2.0310321e-08
-4.099062865e-09
-0.0005676062376
75.50276747
0
0
0
0
0
0
0
0
0
0
0
-0.005872336876
-1.698030901e-05
9.167017928e-11
-4.679191498e-11
-3.457068086e-11
-4.234798477e-11
-5.800445317e-11
-8.281197041e-11
-1.117791503e-10
-1.422289675e-10
-1.852524447e-10
-2.98921398e-10
-6.288835688e-10
-1.397040685e-09
-2.291465146e-09
-9.952657077e-09
-8.119909703e-09
-1.560942292e-06
0.5892347331
0
0
0
0
0
0
0
0
0
0
0
381.0144694
-0.00199176543
1.092215964e-10
-4.355489477e-11
-4.696780315e-11
-7.202426083e-11
-1.14294642e-10
-1.776151388e-10
-2.565274939e-10
-3.336634708e-10
-3.576067793e-10
-2.085904853e-10
3.543886771e-10
1.876971662e-09
6.070406248e-09
1.532550596e-08
-3.999599639e-08
-1.408649133e-07
-5.440253508e-07
697.495254
95.21606311
0
0
0
0
0
0
0
-0.0008339508787
369.2903067
-4.03568181e-07
-6.155990491e-09
7.660500097e-11
-4.883504467e-11
-5.610091471e-11
-9.295191031e-11
-1.563883223e-10
-2.550478979e-10
-3.951534235e-10
-5.709111142e-10
-7.144518243e-10
-6.66771601e-10
-4.971325722e-10
-1.84708061e-09
-1.207127787e-08
-3.939382453e-08
-6.283673448e-08
3.230664946e-08
2.393610931e-07
-0.001757479917
-0.0004547442866
85.17665404
281.8246233
158.0677184
0
157.0954245
279.6009393
-0.002697986191
-2.99902475e-09
-0.0009306068811
1.618988572e-08
-2.797203983e-07
-2.162687746e-10
-1.17771989e-10
-6.570018444e-11
-9.609644317e-11
-1.642462593e-10
-2.800864578e-10
-4.863440735e-10
-8.340836598e-10
-1.270661012e-09
-1.336686111e-09
-3.382829166e-10
1.205178061e-09
-1.307815746e-08
-4.695995421e-08
-3.770191536e-08
-7.867461028e-09
2.68185875e-07
4.522735488e-07
-7.489292384e-09
-0.000290531784
-0.001966397994
-0.0006774385405
-0.04744438141
-0.0006583180445
-0.001917430424
-0.0001896341459
-1.664187732e-08
-1.00508435e-07
1.23563367e-08
1.743826171e-08
-2.588147876e-10
-9.708261856e-11
-5.099112031e-11
-7.202451997e-11
-1.161416859e-10
-2.014011924e-10
-4.264532213e-10
-1.012970408e-09
-2.162766867e-09
-3.178014756e-09
-1.738347566e-09
1.036842941e-08
-1.585880179e-08
2.364916792e-08
1.802985432e-08
-2.363811085e-05
-0.0001091711908
-0.003842296925
-0.002970354061
115.2503912
498.2361608
110.6456952
0
104.0320347
481.034642
75.22462674
-0.006601396974
-0.01150572174
-0.0002025693102
-0.0009502427948
-7.259120862e-12
1.368847391e-11
-1.56706343e-11
-2.883824582e-11
-1.468610133e-11
2.774495851e-11
-1.291212905e-11
-5.928681653e-10
-2.795523675e-09
-6.448070907e-09
-1.031071385e-08
-6.51350214e-09
7.048344715e-10
4.670962163e-08
-2.07699257e-07
9.403951857
43.32202135
0
0
0
0
0
0
0
0
0
0
0
80.45939334
160.7790504
3.087978491e-11
6.65894953e-11
2.665318353e-12
-5.064901777e-12
6.447750732e-11
3.159932359e-10
8.575070142e-10
1.377960064e-09
-6.72269657e-10
-8.015873867e-09
-4.516131086e-08
-9.221162288e-08
-0.0001379886227
-0.000820524612
230.6622461
0
0
0
0
0
0
0
0
0
0
0
0
0
0
0
4.35036618e-11
1.076541904e-10
6.645745825e-13
-5.15312111e-11
-5.981888366e-11
1.6709117e-10
1.279059117e-09
5.174076576e-09
1.205327742e-08
-9.656850997e-09
-9.494910098e-08
-3.377838402e-07
54.75643434
94.92021822
0
0
0
0
0
0
0
0
0
0
0
0
0
0
0
0
5.316354988e-11
1.527490139e-10
7.015391733e-12
-1.457737458e-10
-5.275440716e-10
-1.513552647e-09
-3.793913628e-09
-7.004348784e-09
-1.0933469e-08
1.071584159e-08
-0.0001871949141
74.2742702
0
0
0
0
0
0
0
0
0
0
0
0
0
0
0
0
0
0
6.630397522e-11
2.250766632e-10
1.060344465e-10
-3.991143953e-12
-5.230907608e-10
-2.775967493e-09
-1.1201067e-08
-3.144152914e-08
-2.063013644e-08
2.675476636e-08
-0.0006807970106
172.9872056
0
0
0
0
0
0
0
0
0
0
0
0
0
0
0
0
0
0
8.315954559e-11
3.355307921e-10
3.6980879e-10
7.485221053e-10
1.667259654e-09
3.448178943e-09
4.504711201e-09
-4.231632641e-08
-1.210077871e-07
-2.469112984e-07
97.15187189
0
0
0
0
0
0
0
0
0
0
0
0
0
0
0
0
0
0
0
)
;

boundaryField
{
    lowerWall
    {
        type            calculated;
        value           nonuniform 0();
    }
    atmosphere
    {
        type            calculated;
        value           nonuniform List<scalar> 
20
(
-3.171887662e-11
-4.660014286e-11
-5.893064919e-11
-6.310386361e-11
-5.818006034e-11
-4.16429731e-11
-1.511517602e-11
1.964798865e-11
5.735785382e-11
9.167017928e-11
1.092215964e-10
7.660500097e-11
-2.162687746e-10
-2.588147876e-10
-7.259120862e-12
3.087978491e-11
4.35036618e-11
5.316354988e-11
6.630397522e-11
8.315954559e-11
)
;
    }
    rightWall
    {
        type            empty;
    }
    leftWall
    {
        type            empty;
    }
    frontAndBack
    {
        type            calculated;
        value           nonuniform List<scalar> 
30
(
8.315954559e-11
3.355307921e-10
3.6980879e-10
7.485221053e-10
1.667259654e-09
3.448178943e-09
4.504711201e-09
-4.231632641e-08
-1.210077871e-07
-2.469112984e-07
97.15187189
0
0
0
0
0
0
0
0
0
0
0
0
0
0
0
0
0
0
0
)
;
    }
    procBoundary4to2
    {
        type            processor;
        value           nonuniform List<scalar> 
30
(
-1.847386426e-11
-9.735462577e-11
-4.78123466e-11
-4.487904412e-11
-5.82033498e-11
-8.141036768e-11
-1.255043031e-10
-1.85744929e-10
-2.694002953e-10
-3.158057836e-10
-1.139906652e-10
1.122793896e-09
5.516013525e-09
1.406370848e-08
-1.09501426e-08
-8.281680261e-08
-3.569940963e-07
17.05672269
9.759568854
0
0
0
0
0
0
0
-0.006121988256
18.3328613
-4.611709181e-05
-8.185334411e-11
)
;
    }
    procBoundary4to5
    {
        type            processor;
        value           nonuniform List<scalar> 
20
(
428.2798371
10.47795229
0
0
0
0
0
0
6.727174155
409.0996093
-0.002441608337
-0.01412385648
-0.00546205929
216.1777766
0
0
0
0
0
0
)
;
    }
}


// ************************************************************************* //
