/*--------------------------------*- C++ -*----------------------------------*\
  =========                 |
  \\      /  F ield         | OpenFOAM: The Open Source CFD Toolbox
   \\    /   O peration     | Website:  https://openfoam.org
    \\  /    A nd           | Version:  6
     \\/     M anipulation  |
\*---------------------------------------------------------------------------*/
FoamFile
{
    version     2.0;
    format      ascii;
    class       volScalarField;
    location    "0.0024";
    object      TRHS;
}
// * * * * * * * * * * * * * * * * * * * * * * * * * * * * * * * * * * * * * //

dimensions      [1 -1 -3 0 0 0 0];

internalField   nonuniform List<scalar> 
9600
(
-6.628908289e-10
-1.418503197e-09
-1.76160794e-09
-1.686244156e-09
-1.424095118e-09
-1.085357476e-09
-7.475370062e-10
-4.331495619e-10
-1.663729989e-10
5.914199386e-11
2.338159914e-10
3.711833074e-10
4.644375386e-10
5.277362268e-10
5.534822221e-10
5.545906173e-10
5.217638967e-10
4.662365957e-10
3.76820804e-10
2.628208121e-10
1.10854054e-10
-7.197947376e-11
-3.013609097e-10
-5.725791567e-10
-9.039428581e-10
-1.293886663e-09
-1.764206356e-09
-2.316959301e-09
-2.977062829e-09
-3.749079912e-09
-4.659788765e-09
-5.715980292e-09
-6.947349197e-09
-8.364845651e-09
-1.000227257e-08
-1.18737262e-08
-1.401315456e-08
-1.643211348e-08
-1.915953102e-08
-2.220228799e-08
-2.558538422e-08
-2.93131956e-08
-3.340640299e-08
-3.786237752e-08
-4.269091838e-08
-4.787867892e-08
-5.342703473e-08
-5.9320608e-08
-6.556445139e-08
-7.215654017e-08
-7.912762267e-08
-8.652569185e-08
-9.447020307e-08
-1.031669292e-07
-1.130054222e-07
-1.246441982e-07
-1.391957744e-07
-1.583697301e-07
-1.844708191e-07
-2.197398601e-07
-2.64273761e-07
-3.134603933e-07
-3.614584643e-07
-4.379600154e-07
-5.876985364e-07
-1.287648887e-06
-1.962982597e-06
-0.002039422226
268.4828431
0
0
0
0
0
0
0
0
0
0
0
0
0
0
0
0
0
0
0
0
0
0
0
0
0
0
0
0
0
0
0
0
0
0
0
0
0
0
0
0
0
0
-0.00775470148
-0.001031074464
-1.268247242e-06
-6.320173454e-07
-1.048908767e-07
-1.85075746e-08
-7.293156489e-08
-1.896033246e-07
5.620426631e-08
-1.653368855e-09
-2.732540414e-09
-2.957461941e-09
-2.59951883e-09
-2.077998987e-09
-1.546028893e-09
-1.069701048e-09
-6.623050873e-10
-3.295856718e-10
-6.10419643e-11
1.459173555e-10
3.03755852e-10
4.142269518e-10
4.879414913e-10
5.242698957e-10
5.315054755e-10
5.067134052e-10
4.560453045e-10
3.743992335e-10
2.657210482e-10
1.226269979e-10
-5.324179944e-11
-2.71617229e-10
-5.333818642e-10
-8.5115444e-10
-1.229128689e-09
-1.683518495e-09
-2.222063305e-09
-2.864004363e-09
-3.619658474e-09
-4.510841453e-09
-5.55130552e-09
-6.767451521e-09
-8.178668435e-09
-9.816497691e-09
-1.170378846e-08
-1.387275167e-08
-1.634510696e-08
-1.915164084e-08
-2.231449822e-08
-2.586643491e-08
-2.983165938e-08
-3.424169192e-08
-3.91156769e-08
-4.447754623e-08
-5.034122859e-08
-5.673091837e-08
-6.366813617e-08
-7.11909684e-08
-7.934260792e-08
-8.819447247e-08
-9.784567296e-08
-1.084623412e-07
-1.203046087e-07
-1.338006309e-07
-1.496144899e-07
-1.687505505e-07
-1.926141855e-07
-2.230083047e-07
-2.619468176e-07
-3.116347953e-07
-3.753742772e-07
-4.638496578e-07
-6.062344485e-07
-8.448727698e-07
-1.233606307e-06
-1.660103268e-06
-1.407927944e-06
-0.0006147447811
218.7121761
0
0
0
0
0
0
0
0
0
0
0
0
0
0
0
0
0
0
0
0
0
0
0
0
0
0
0
0
0
0
0
0
0
0
0
0
0
0
0
0
-0.007487406358
-8.998087486e-07
-1.442237933e-06
-1.567444142e-06
-1.017824695e-06
-6.570962829e-07
-4.527748388e-07
-3.767094459e-07
-3.360589047e-07
1.882190074e-08
-4.54613899e-09
-5.340315887e-09
-4.780508973e-09
-3.754742677e-09
-2.797949515e-09
-2.002677848e-09
-1.363553395e-09
-8.587295549e-10
-4.620758276e-10
-1.554394094e-10
7.937884832e-11
2.530047594e-10
3.774314942e-10
4.581627011e-10
5.030194299e-10
5.140049409e-10
4.960141245e-10
4.484357757e-10
3.73736784e-10
2.68916369e-10
1.340194587e-10
-3.633690799e-11
-2.445433548e-10
-4.986282987e-10
-8.040200402e-10
-1.172199027e-09
-1.612230196e-09
-2.139063123e-09
-2.764834094e-09
-3.507326166e-09
-4.382019745e-09
-5.411264171e-09
-6.616607753e-09
-8.027136322e-09
-9.670335112e-09
-1.157899253e-08
-1.378207373e-08
-1.631303603e-08
-1.920318117e-08
-2.249109546e-08
-2.621499576e-08
-3.041874893e-08
-3.514144861e-08
-4.042328313e-08
-4.629908144e-08
-5.280904237e-08
-5.999537474e-08
-6.791220931e-08
-7.662038032e-08
-8.619746659e-08
-9.673723702e-08
-1.08368848e-07
-1.21271192e-07
-1.357132078e-07
-1.520952186e-07
-1.710138188e-07
-1.93317084e-07
-2.201651882e-07
-2.530778823e-07
-2.940497428e-07
-3.459432891e-07
-4.136525002e-07
-5.063712022e-07
-6.386881556e-07
-8.174080278e-07
-1.011171002e-06
-1.037076406e-06
-1.14945608e-06
-1.085700578e-06
-0.001793798163
1203.953807
0
0
0
0
0
0
0
0
0
0
0
0
0
0
0
0
0
0
0
0
0
0
0
0
0
0
0
0
0
0
0
0
0
0
0
0
0
0
840.1641334
-0.001060008215
-1.593125177e-06
-1.520959024e-06
-1.289545387e-06
-1.16835359e-06
-9.428149891e-07
-7.391669403e-07
-6.160746871e-07
-5.655604551e-07
-9.694596814e-08
-1.703316446e-08
-1.143816504e-08
-7.323495002e-09
-4.975458547e-09
-3.434631773e-09
-2.358155138e-09
-1.574535197e-09
-9.886795309e-10
-5.469240973e-10
-2.119634963e-10
3.861276761e-11
2.237601259e-10
3.541279324e-10
4.406899822e-10
4.882705936e-10
5.034547459e-10
4.876157514e-10
4.444337216e-10
3.72637804e-10
2.733386117e-10
1.427773276e-10
-2.037629943e-11
-2.224044201e-10
-4.673822736e-10
-7.647216935e-10
-1.122006035e-09
-1.552284449e-09
-2.066586324e-09
-2.68110919e-09
-3.41016618e-09
-4.27409164e-09
-5.292925796e-09
-6.494169261e-09
-7.905411966e-09
-9.56043923e-09
-1.149090642e-08
-1.373298282e-08
-1.63214254e-08
-1.929844736e-08
-2.270833314e-08
-2.660369868e-08
-3.10361938e-08
-3.606016546e-08
-4.172517119e-08
-4.808456151e-08
-5.51930868e-08
-6.311643585e-08
-7.192620745e-08
-8.170619602e-08
-9.254782304e-08
-1.04560948e-07
-1.178768349e-07
-1.326692816e-07
-1.491730547e-07
-1.677243035e-07
-1.887964969e-07
-2.130462644e-07
-2.413467816e-07
-2.748438406e-07
-3.150578253e-07
-3.641151877e-07
-4.25057992e-07
-5.017714369e-07
-5.965129676e-07
-7.009615144e-07
-7.844742772e-07
-7.970127075e-07
-7.882668672e-07
-1.168567133e-06
-1.162642794e-06
-0.001519666438
2049.595184
4962.536073
0
0
0
0
0
0
0
0
0
0
0
0
0
0
0
0
0
0
0
0
0
0
0
0
0
0
0
0
0
0
0
0
0
0
4718.21628
1904.959969
-0.001061635443
-1.889309662e-06
-1.888759117e-06
-1.409999769e-06
-1.316523151e-06
-1.228440503e-06
-1.087991119e-06
-9.469681683e-07
-8.503003624e-07
-8.154860478e-07
-2.673710246e-07
-2.064111258e-08
-1.331736881e-08
-8.17122105e-09
-5.397607879e-09
-3.651668545e-09
-2.473106869e-09
-1.635283253e-09
-1.021813396e-09
-5.646970547e-10
-2.230260905e-10
3.16068399e-11
2.17467492e-10
3.48936679e-10
4.349798762e-10
4.834507988e-10
4.985689497e-10
4.845250811e-10
4.424753642e-10
3.738517601e-10
2.772186606e-10
1.514809318e-10
-7.317938507e-12
-2.028107078e-10
-4.41733182e-10
-7.309161582e-10
-1.080597155e-09
-1.501208684e-09
-2.006450539e-09
-2.61013055e-09
-3.329748008e-09
-4.184099568e-09
-5.197321054e-09
-6.3961603e-09
-7.812701389e-09
-9.48018096e-09
-1.143514072e-08
-1.371463673e-08
-1.63609642e-08
-1.942085637e-08
-2.294954708e-08
-2.700636595e-08
-3.165461365e-08
-3.695591796e-08
-4.297332335e-08
-4.977141549e-08
-5.742294693e-08
-6.600763552e-08
-7.56140844e-08
-8.633536077e-08
-9.827221059e-08
-1.115330454e-07
-1.262420489e-07
-1.425443763e-07
-1.606230575e-07
-1.807170987e-07
-2.031479439e-07
-2.283349783e-07
-2.56806112e-07
-2.891986136e-07
-3.2626727e-07
-3.688656624e-07
-4.177741226e-07
-4.729885996e-07
-5.317912147e-07
-5.853816291e-07
-6.18743102e-07
-6.234501724e-07
-6.391516875e-07
-6.231622796e-07
-4.814003505e-07
5.889330295e-07
-0.005166070364
-0.05020947315
14955.47909
0
0
0
0
0
0
0
0
0
0
0
0
0
0
0
0
0
0
0
0
0
0
0
0
0
0
0
0
0
0
0
0
14788.00611
-0.04917122939
-0.004802088331
-1.221141426e-07
-1.408316254e-06
-1.483671616e-06
-1.429687207e-06
-1.322661324e-06
-1.245444865e-06
-1.175632328e-06
-1.12446174e-06
-1.074734755e-06
-1.11216501e-06
-4.731116704e-07
-1.122981776e-08
-9.162273314e-09
-6.699405168e-09
-4.773401968e-09
-3.346532514e-09
-2.299477463e-09
-1.52476503e-09
-9.458365075e-10
-5.110813692e-10
-1.845082819e-10
5.852215045e-11
2.361454415e-10
3.609146258e-10
4.424958087e-10
4.873803102e-10
5.007252575e-10
4.854895632e-10
4.438677905e-10
3.761127002e-10
2.818407791e-10
1.587694374e-10
4.057255435e-12
-1.871377922e-10
-4.204707385e-10
-7.039163494e-10
-1.046623827e-09
-1.460124046e-09
-1.957119687e-09
-2.552838215e-09
-3.264343803e-09
-4.112604611e-09
-5.122008735e-09
-6.321875008e-09
-7.744654463e-09
-9.426237477e-09
-1.14042483e-08
-1.372016287e-08
-1.642017084e-08
-1.955853959e-08
-2.319664635e-08
-2.74021758e-08
-3.224454965e-08
-3.779442651e-08
-4.412362283e-08
-5.130991116e-08
-5.943833753e-08
-6.86020868e-08
-7.889807557e-08
-9.042545342e-08
-1.032836297e-07
-1.175748477e-07
-1.334037812e-07
-1.508801394e-07
-1.701206396e-07
-1.912573646e-07
-2.144413169e-07
-2.398372334e-07
-2.675946326e-07
-2.977985237e-07
-3.303863222e-07
-3.650027339e-07
-4.006928569e-07
-4.352966551e-07
-4.644717412e-07
-4.808580834e-07
-4.7548617e-07
-4.425859988e-07
-3.812420106e-07
-2.331337015e-07
1.638514527e-07
8.568042947e-07
1.170690908e-06
2.645746972e-06
-1.291027368e-06
1391.63738
4852.309699
0
0
0
0
0
0
0
0
0
0
0
0
0
0
0
0
0
0
0
0
0
0
0
0
0
0
0
0
4638.77641
1263.691911
-1.899648737e-06
1.847364307e-06
8.566447687e-07
2.49979049e-07
-7.240661426e-07
-1.15300569e-06
-1.255366063e-06
-1.266719809e-06
-1.247930156e-06
-1.248896369e-06
-1.243510257e-06
-1.276293715e-06
-1.397876513e-06
-6.848850494e-07
-6.809841376e-09
-6.180030839e-09
-4.969086753e-09
-3.770786612e-09
-2.745102972e-09
-1.92167227e-09
-1.27660699e-09
-7.772317707e-10
-3.936322515e-10
-1.018549808e-10
1.170282024e-10
2.77113553e-10
3.893395854e-10
4.615995457e-10
5.000180402e-10
5.087323934e-10
4.908039097e-10
4.476738465e-10
3.798560707e-10
2.863151897e-10
1.651441355e-10
1.289018021e-11
-1.74872027e-10
-4.043539563e-10
-6.830946686e-10
-1.020691713e-09
-1.428250402e-09
-1.919071272e-09
-2.508310496e-09
-3.214222274e-09
-4.05827741e-09
-5.066464821e-09
-6.268703525e-09
-7.69894314e-09
-9.393817737e-09
-1.139342858e-08
-1.374203377e-08
-1.649099452e-08
-1.969968774e-08
-2.343570607e-08
-2.777155965e-08
-3.278256526e-08
-3.854544787e-08
-4.514139022e-08
-5.265840703e-08
-6.119304594e-08
-7.084674927e-08
-8.172191719e-08
-9.391754127e-08
-1.075289923e-07
-1.226467501e-07
-1.393546004e-07
-1.577234105e-07
-1.778058871e-07
-1.996284792e-07
-2.231789055e-07
-2.483739966e-07
-2.750035245e-07
-3.02639267e-07
-3.305091612e-07
-3.573103579e-07
-3.809311093e-07
-3.980538352e-07
-4.037191723e-07
-3.91149832e-07
-3.52357937e-07
-2.785349191e-07
-1.556199684e-07
5.702954625e-08
4.146038975e-07
9.840828217e-07
1.049193111e-06
2.455591622e-06
3.672097211e-06
-0.003506626651
-0.01378556247
616.2809487
3174.084098
0
0
0
0
0
0
0
0
0
0
0
0
0
0
0
0
0
0
0
0
0
0
0
0
2951.405507
480.4967044
-0.0129049248
-0.003184839284
2.286280409e-06
1.567435188e-06
5.342265332e-07
2.254271259e-07
-4.015510426e-07
-8.221344784e-07
-1.034997514e-06
-1.153522614e-06
-1.20719997e-06
-1.288369148e-06
-1.329451579e-06
-1.423797672e-06
-1.652893879e-06
-8.845292468e-07
-3.927495819e-09
-3.893916375e-09
-3.371991138e-09
-2.698191688e-09
-2.027965921e-09
-1.43695162e-09
-9.437183333e-10
-5.448991467e-10
-2.295174753e-10
1.505467677e-11
2.004307855e-10
3.364862061e-10
4.311388004e-10
4.906635192e-10
5.197608339e-10
5.219647214e-10
4.995308845e-10
4.536854719e-10
3.844082335e-10
2.906278948e-10
1.70048064e-10
1.926601352e-11
-1.664515153e-10
-3.931895655e-10
-6.687252315e-10
-1.002464168e-09
-1.405748798e-09
-1.891883743e-09
-2.476656157e-09
-3.178795273e-09
-4.020822442e-09
-5.02933522e-09
-6.235140765e-09
-7.672628624e-09
-9.379646621e-09
-1.139793471e-08
-1.377505404e-08
-1.656624888e-08
-1.983556859e-08
-2.365440505e-08
-2.809909668e-08
-3.324864712e-08
-3.918571456e-08
-4.599906127e-08
-5.378620217e-08
-6.265179592e-08
-7.270321093e-08
-8.404430952e-08
-9.677232515e-08
-1.109764223e-07
-1.267364802e-07
-1.44117243e-07
-1.631581112e-07
-1.838578205e-07
-2.06155275e-07
-2.298981075e-07
-2.547933334e-07
-2.803273572e-07
-3.05657395e-07
-3.294674204e-07
-3.497892011e-07
-3.637777603e-07
-3.674599299e-07
-3.555156592e-07
-3.212146476e-07
-2.565350849e-07
-1.518299967e-07
6.212575146e-09
2.381281391e-07
5.577274796e-07
9.472362102e-07
1.21661443e-06
1.522060414e-06
2.436116814e-06
3.014077345e-06
5.055535402e-06
2.963492576e-06
-0.0220275583
5563.554862
-0.09849847288
13552.0111
0
0
0
0
0
0
0
0
0
0
0
0
0
0
0
0
0
0
13221.19698
-0.1069294435
5423.059159
-0.02111209382
2.189962351e-06
3.922161678e-06
2.196617015e-06
1.518463306e-06
7.796339176e-07
4.7964623e-07
1.837583648e-07
-2.626176076e-07
-6.562418979e-07
-8.770464912e-07
-1.049701341e-06
-1.190895219e-06
-1.310314819e-06
-1.415006989e-06
-1.593910077e-06
-1.878830705e-06
-1.051776067e-06
-1.952059904e-09
-2.177565418e-09
-2.032269818e-09
-1.707208653e-09
-1.311684089e-09
-9.233879292e-10
-5.754373344e-10
-2.799058534e-10
-3.809097495e-11
1.536504499e-10
3.007407648e-10
4.087747192e-10
4.828132064e-10
5.270927891e-10
5.450149677e-10
5.390832816e-10
5.109101129e-10
4.611425125e-10
3.894040531e-10
2.94286012e-10
1.733140151e-10
2.286731104e-11
-1.618807428e-10
-3.871595668e-10
-6.607058052e-10
-9.920221575e-10
-1.392470717e-09
-1.875629165e-09
-2.45766335e-09
-3.157952309e-09
-3.999589821e-09
-5.009770156e-09
-6.219570905e-09
-7.66380351e-09
-9.38103321e-09
-1.141476235e-08
-1.381518661e-08
-1.66409539e-08
-1.995914861e-08
-2.384367839e-08
-2.837277399e-08
-3.362843446e-08
-3.969799141e-08
-4.667723582e-08
-5.467091083e-08
-6.3789764e-08
-7.414388373e-08
-8.583711226e-08
-9.896388572e-08
-1.1360889e-07
-1.298450126e-07
-1.477262601e-07
-1.672729132e-07
-1.884498915e-07
-2.111354662e-07
-2.350783798e-07
-2.598324785e-07
-2.846681033e-07
-3.084538383e-07
-3.295151874e-07
-3.454672935e-07
-3.530315794e-07
-3.47850956e-07
-3.243529501e-07
-2.757164403e-07
-1.939729795e-07
-7.015937359e-08
1.052422441e-07
3.400432215e-07
6.308309772e-07
9.52795355e-07
1.251630939e-06
1.616871886e-06
2.462102234e-06
2.705393759e-06
3.753580548e-06
3.390631632e-06
5.057245902e-06
1.06978346e-06
-6.652311145e-07
-0.03416345143
9223.36405
-0.1416273323
11575.92008
4149.438172
0
0
0
0
0
0
0
0
0
0
4108.587483
11508.17565
-0.1463281679
8939.768724
-0.03332963166
-7.57313019e-07
3.662836047e-07
3.90145792e-06
2.418992386e-06
2.775519984e-06
1.811819863e-06
1.623285837e-06
7.907044902e-07
4.397052168e-07
1.30835425e-07
-1.954959447e-07
-5.287840693e-07
-7.78538786e-07
-9.836800276e-07
-1.157025985e-06
-1.316432294e-06
-1.461246258e-06
-1.704041915e-06
-2.034890996e-06
-1.17276626e-06
-5.329406983e-10
-8.829764668e-10
-9.513010678e-10
-8.532191437e-10
-6.576584136e-10
-4.314810184e-10
-2.089852394e-10
-8.191703668e-12
1.628473047e-10
3.019022188e-10
4.097122627e-10
4.883736176e-10
5.404071872e-10
5.682087134e-10
5.73828285e-10
5.587833964e-10
5.239374855e-10
4.693625307e-10
3.942791635e-10
2.969393559e-10
1.746199484e-10
2.352482493e-11
-1.613311257e-10
-3.862640757e-10
-6.590807184e-10
-9.89323139e-10
-1.388453207e-09
-1.87028845e-09
-2.451362916e-09
-3.1515214e-09
-3.994287709e-09
-5.007058013e-09
-6.220996245e-09
-7.671030135e-09
-9.396392307e-09
-1.144199007e-08
-1.3860206e-08
-1.671192206e-08
-2.006597002e-08
-2.399711992e-08
-2.85845534e-08
-3.391223779e-08
-4.007161725e-08
-4.7163798e-08
-5.529890055e-08
-6.459084729e-08
-7.515066145e-08
-8.708098747e-08
-1.004745943e-07
-1.154149543e-07
-1.31974973e-07
-1.502090652e-07
-1.701358272e-07
-1.91710069e-07
-2.147850134e-07
-2.390595323e-07
-2.640089235e-07
-2.887910828e-07
-3.121313684e-07
-3.321821663e-07
-3.463632615e-07
-3.511856302e-07
-3.420836574e-07
-3.132922181e-07
-2.578249613e-07
-1.676271124e-07
-3.411449665e-08
1.502620931e-07
3.882051778e-07
6.712063752e-07
9.788222405e-07
1.296519363e-06
1.682512333e-06
2.246089901e-06
2.425334418e-06
2.471870931e-06
2.185039852e-06
2.014152058e-06
2.426723219e-07
2.564378674e-06
8.099661385e-06
-0.02324489342
-3.570349516e-07
-0.02918088694
-0.02052889607
3994.277974
0
0
0
0
0
0
0
0
3748.04382
-0.01980520493
-0.02901011493
-3.689124337e-07
-0.0225300018
7.579105683e-06
2.014362054e-06
-7.401382271e-07
1.035132732e-06
1.207822743e-06
1.506273087e-06
1.4904748e-06
1.338295328e-06
8.002769175e-07
4.108311768e-07
1.063860101e-07
-1.964086401e-07
-4.85340835e-07
-7.430536975e-07
-9.423023508e-07
-1.151656528e-06
-1.339451905e-06
-1.529755921e-06
-1.750840495e-06
-2.12900835e-06
-1.244915534e-06
5.095636943e-10
9.625343551e-11
-9.707736637e-11
-1.460870217e-10
-9.170128641e-11
1.107502428e-11
1.318131072e-10
2.515954593e-10
3.59425723e-10
4.4969005e-10
5.200692335e-10
5.701019436e-10
6.002455225e-10
6.113659382e-10
6.043072935e-10
5.796716011e-10
5.37591819e-10
4.776043812e-10
3.98482726e-10
2.981724414e-10
1.737049578e-10
2.106429249e-11
-1.648942787e-10
-3.905823267e-10
-6.639104597e-10
-9.94438138e-10
-1.393795987e-09
-1.875961875e-09
-2.45781145e-09
-3.159483017e-09
-4.004694581e-09
-5.020831471e-09
-6.238921811e-09
-7.693850849e-09
-9.425267987e-09
-1.147915919e-08
-1.390931171e-08
-1.677779207e-08
-2.015376156e-08
-2.411171493e-08
-2.873070711e-08
-3.409605515e-08
-4.030208239e-08
-4.745365769e-08
-5.56635613e-08
-6.50466433e-08
-7.571292318e-08
-8.776377541e-08
-1.012920583e-07
-1.163847201e-07
-1.331229743e-07
-1.515744701e-07
-1.717738285e-07
-1.936919179e-07
-2.17193648e-07
-2.41985455e-07
-2.675460563e-07
-2.930396948e-07
-3.172029507e-07
-3.382037766e-07
-3.534676546e-07
-3.594845482e-07
-3.516208289e-07
-3.239781688e-07
-2.693285186e-07
-1.791547502e-07
-4.399097501e-08
1.450454454e-07
3.917397795e-07
6.863673652e-07
1.003627053e-06
1.323186333e-06
1.701800786e-06
2.246206754e-06
2.402984089e-06
2.419532042e-06
2.090737172e-06
1.947410571e-06
9.575917759e-08
2.582504814e-06
7.999108803e-06
-0.02320460694
-3.58723498e-07
-0.02912897376
-0.02047011977
3993.507447
0
0
0
0
0
0
0
0
3747.185658
-0.01975050479
-0.0289627641
-3.704106698e-07
-0.02249377588
7.614553845e-06
1.971378631e-06
-7.63100115e-07
9.229905337e-07
1.127929395e-06
1.470096145e-06
1.437435064e-06
1.263047633e-06
7.130229884e-07
3.619031362e-07
1.078249438e-07
-1.871299674e-07
-4.737310303e-07
-7.405566422e-07
-9.471621055e-07
-1.166329339e-06
-1.343031449e-06
-1.509283191e-06
-1.762047936e-06
-2.14166251e-06
-1.256244893e-06
1.282051006e-09
8.36315218e-10
5.684679324e-10
4.241204272e-10
3.807148348e-10
3.925165691e-10
4.340934641e-10
4.878341016e-10
5.420507403e-10
5.895270526e-10
6.261173386e-10
6.496527685e-10
6.591363375e-10
6.541975602e-10
6.347153824e-10
6.004524308e-10
5.509294708e-10
4.851381775e-10
4.014959613e-10
2.976229076e-10
1.703033567e-10
1.529687831e-11
-1.726881413e-10
-4.002210922e-10
-6.752561561e-10
-1.007482092e-09
-1.408601154e-09
-1.8928031e-09
-2.477151089e-09
-3.18193408e-09
-4.03088079e-09
-5.051148884e-09
-6.273456179e-09
-7.732521729e-09
-9.468201595e-09
-1.152702128e-08
-1.396334222e-08
-1.683919177e-08
-2.022289998e-08
-2.418764616e-08
-2.881175318e-08
-3.418094051e-08
-4.039107698e-08
-4.754832011e-08
-5.576557065e-08
-6.515597639e-08
-7.582726056e-08
-8.78795455e-08
-1.01407983e-07
-1.165078407e-07
-1.332764955e-07
-1.518060328e-07
-1.721632528e-07
-1.943580395e-07
-2.183045416e-07
-2.437741037e-07
-2.703384904e-07
-2.972929383e-07
-3.235490528e-07
-3.474798032e-07
-3.6671604e-07
-3.779114534e-07
-3.765189851e-07
-3.566250553e-07
-3.108303035e-07
-2.300031903e-07
-1.027192683e-07
8.494188103e-08
3.454717099e-07
6.739008186e-07
1.028519059e-06
1.337635481e-06
1.682119068e-06
2.483889096e-06
2.581412236e-06
3.591644014e-06
3.133252029e-06
4.932187366e-06
9.504045391e-07
-7.364008504e-07
-0.03408955702
9207.413537
-0.1423037436
11555.32636
4126.892416
0
0
0
0
0
0
0
0
0
0
4087.746362
11489.39177
-0.1469344455
8925.379894
-0.03326498923
-7.467281516e-07
2.057688336e-07
3.702699326e-06
2.006527016e-06
2.437101492e-06
1.565170751e-06
1.420366376e-06
6.249476618e-07
3.383267557e-07
9.770903882e-08
-1.991858869e-07
-5.069212096e-07
-7.7932774e-07
-9.636659116e-07
-1.161144796e-06
-1.329669641e-06
-1.519771293e-06
-1.726401989e-06
-2.079426767e-06
-1.211622471e-06
1.853665753e-09
1.39272382e-09
1.080473108e-09
8.746765414e-10
7.645551156e-10
7.109103472e-10
6.927565978e-10
6.945641345e-10
7.050287159e-10
7.164531008e-10
7.237818183e-10
7.238118973e-10
7.145613555e-10
6.947959582e-10
6.635560609e-10
6.200058201e-10
5.630730392e-10
4.913481205e-10
4.02861751e-10
2.949797762e-10
1.64197138e-10
6.091656781e-12
-1.848333034e-10
-4.152571e-10
-6.932660784e-10
-1.028585794e-09
-1.433068593e-09
-1.921010496e-09
-2.509588942e-09
-3.219119802e-09
-4.073143159e-09
-5.098465582e-09
-6.325369033e-09
-7.788233993e-09
-9.526792745e-09
-1.15875459e-08
-1.402450487e-08
-1.689862047e-08
-2.027635275e-08
-2.422881715e-08
-2.883279597e-08
-3.41734004e-08
-4.034605556e-08
-4.745571688e-08
-5.561238496e-08
-6.492523355e-08
-7.549818816e-08
-8.743010334e-08
-1.008201613e-07
-1.157756508e-07
-1.324156859e-07
-1.508642923e-07
-1.71230866e-07
-1.935828865e-07
-2.179155342e-07
-2.441211861e-07
-2.719521235e-07
-3.009629171e-07
-3.304048343e-07
-3.590517766e-07
-3.849544079e-07
-4.051457848e-07
-4.153595936e-07
-4.098496106e-07
-3.813245716e-07
-3.206456976e-07
-2.149595922e-07
-4.308822764e-08
2.275223099e-07
6.170462447e-07
1.074100973e-06
1.376586269e-06
1.653389766e-06
2.428590986e-06
2.82930617e-06
4.815110175e-06
2.781252265e-06
-0.02192305923
5548.404928
-0.09934342961
13522.65712
0
0
0
0
0
0
0
0
0
0
0
0
0
0
0
0
0
0
13195.55003
-0.1076563891
5410.19045
-0.02102477278
1.821010208e-06
3.376627655e-06
1.738266882e-06
1.257164054e-06
4.778725985e-07
3.761017813e-07
1.684817624e-07
-2.115160423e-07
-5.701668669e-07
-8.324494977e-07
-1.023220106e-06
-1.186325699e-06
-1.321959547e-06
-1.465856589e-06
-1.641121898e-06
-1.963365018e-06
-1.112629664e-06
2.272442304e-09
1.806595111e-09
1.46887641e-09
1.22414443e-09
1.069433652e-09
9.697262342e-10
9.076921545e-10
8.697946529e-10
8.456639813e-10
8.277018098e-10
8.10527594e-10
7.904008355e-10
7.64750307e-10
7.316708433e-10
6.896943334e-10
6.374104855e-10
5.733405302e-10
4.956913274e-10
4.02211242e-10
2.899611673e-10
1.552135955e-10
-6.696760052e-12
-2.014330179e-10
-4.358284501e-10
-7.180339788e-10
-1.057908048e-09
-1.467355694e-09
-1.960789186e-09
-2.555421627e-09
-3.271435944e-09
-4.132066234e-09
-5.163676861e-09
-6.395964632e-09
-7.862818853e-09
-9.603488733e-09
-1.1663809e-08
-1.409654755e-08
-1.696062741e-08
-2.031983702e-08
-2.424255644e-08
-2.880324906e-08
-3.408490345e-08
-4.018030833e-08
-4.719023965e-08
-5.521900584e-08
-6.436932552e-08
-7.473978579e-08
-8.642749171e-08
-9.95362433e-08
-1.141866129e-07
-1.305207542e-07
-1.486958168e-07
-1.688674591e-07
-1.91170534e-07
-2.157056936e-07
-2.425331271e-07
-2.716650142e-07
-3.030308218e-07
-3.36380011e-07
-3.710959776e-07
-4.059108874e-07
-4.385322456e-07
-4.652201366e-07
-4.804950576e-07
-4.773262799e-07
-4.477624465e-07
-3.812309209e-07
-2.550444061e-07
-1.420660668e-09
4.68404182e-07
1.139113379e-06
1.378760518e-06
2.677083431e-06
3.623725178e-06
-0.003466392503
-0.01367694986
599.805732
3147.737433
0
0
0
0
0
0
0
0
0
0
0
0
0
0
0
0
0
0
0
0
0
0
0
0
2929.58301
467.0315035
-0.0128178997
-0.003153555734
2.247509008e-06
1.661981709e-06
5.051562535e-07
3.786195997e-07
-2.44063345e-07
-6.924212351e-07
-9.288701874e-07
-1.109195777e-06
-1.219619926e-06
-1.297545425e-06
-1.391752387e-06
-1.523229795e-06
-1.790635025e-06
-9.668644082e-07
2.573175772e-09
2.10922224e-09
1.758318873e-09
1.489903702e-09
1.306246673e-09
1.175030154e-09
1.081543924e-09
1.014132724e-09
9.633958233e-10
9.221496849e-10
8.850512443e-10
8.481502647e-10
8.085134178e-10
7.638656505e-10
7.122843945e-10
6.52012118e-10
5.812151722e-10
4.978129518e-10
3.992676589e-10
2.824026279e-10
1.432129909e-10
-2.31609213e-11
-2.225927742e-10
-4.620183402e-10
-7.49691636e-10
-1.095553868e-09
-1.511634157e-09
-2.012384838e-09
-2.61498199e-09
-3.339408585e-09
-4.208508878e-09
-5.248043354e-09
-6.487089068e-09
-7.958780243e-09
-9.701528178e-09
-1.17598672e-08
-1.418457323e-08
-1.703174059e-08
-2.036182556e-08
-2.423979245e-08
-2.87367318e-08
-3.393183617e-08
-3.991270816e-08
-4.677311231e-08
-5.460877014e-08
-6.351349547e-08
-7.357861616e-08
-8.489804737e-08
-9.757899634e-08
-1.117533488e-07
-1.275821382e-07
-1.452498383e-07
-1.649527735e-07
-1.868931708e-07
-2.112882512e-07
-2.383963567e-07
-2.685449237e-07
-3.021250515e-07
-3.395195333e-07
-3.809415357e-07
-4.261619352e-07
-4.740351323e-07
-5.217508425e-07
-5.639858835e-07
-5.930064036e-07
-6.011985884e-07
-5.871136785e-07
-5.423873667e-07
-3.64741581e-07
1.56166175e-07
1.149837305e-06
1.639486468e-06
2.97607885e-06
-1.189329882e-06
1375.675847
4825.653923
0
0
0
0
0
0
0
0
0
0
0
0
0
0
0
0
0
0
0
0
0
0
0
0
0
0
0
0
4617.619145
1251.214293
-1.733580176e-06
2.261275702e-06
1.436542167e-06
7.130203308e-07
-3.818138736e-07
-8.656932691e-07
-1.086915121e-06
-1.188582233e-06
-1.230906822e-06
-1.286401502e-06
-1.283013472e-06
-1.38890718e-06
-1.546459122e-06
-7.861375363e-07
2.781942965e-09
2.324357188e-09
1.968660184e-09
1.6870708e-09
1.485665511e-09
1.333661713e-09
1.218386639e-09
1.129649916e-09
1.059032782e-09
9.998634174e-10
9.470212103e-10
8.965276465e-10
8.452938464e-10
7.907844793e-10
7.308268757e-10
6.633752706e-10
5.863628561e-10
4.974486157e-10
3.938771871e-10
2.721769193e-10
1.281211939e-10
-4.338663786e-11
-2.483707225e-10
-4.938804751e-10
-7.882877137e-10
-1.141629354e-09
-1.566037027e-09
-2.076027361e-09
-2.688683683e-09
-3.423717609e-09
-4.303486184e-09
-5.35312115e-09
-6.60090223e-09
-8.079077385e-09
-9.824783177e-09
-1.188073317e-08
-1.429503405e-08
-1.712037196e-08
-2.041327754e-08
-2.423457505e-08
-2.865075349e-08
-3.373522836e-08
-3.956791017e-08
-4.623277164e-08
-5.381422074e-08
-6.239467941e-08
-7.205584579e-08
-8.288608413e-08
-9.499250957e-08
-1.08512045e-07
-1.236149099e-07
-1.404995948e-07
-1.593889012e-07
-1.805404945e-07
-2.042830307e-07
-2.310767973e-07
-2.615762561e-07
-2.966636954e-07
-3.374347968e-07
-3.85143748e-07
-4.410525325e-07
-5.059696845e-07
-5.790241841e-07
-6.553998789e-07
-7.234944076e-07
-7.70025425e-07
-7.931050816e-07
-8.368398725e-07
-8.219343123e-07
-5.469352475e-07
9.485875962e-07
-0.005123999761
-0.05008451853
14934.86698
0
0
0
0
0
0
0
0
0
0
0
0
0
0
0
0
0
0
0
0
0
0
0
0
0
0
0
0
0
0
0
0
14772.36254
-0.04907817735
-0.004771325399
7.062788611e-07
-7.62225e-07
-1.208201625e-06
-1.250391432e-06
-1.245203884e-06
-1.244890691e-06
-1.247448683e-06
-1.208732268e-06
-1.204861051e-06
-1.289771504e-06
-5.836504639e-07
2.918378002e-09
2.470524785e-09
2.115763284e-09
1.828397272e-09
1.617245433e-09
1.452414797e-09
1.322729642e-09
1.21918835e-09
1.134211454e-09
1.061687311e-09
9.967570429e-10
9.35552551e-10
8.749173783e-10
8.122092709e-10
7.450766475e-10
6.713008166e-10
5.886196444e-10
4.945073137e-10
3.859461768e-10
2.592397123e-10
1.098985111e-10
-6.738319713e-11
-2.787788718e-10
-5.314278298e-10
-8.338305165e-10
-1.196149596e-09
-1.630658331e-09
-2.151934771e-09
-2.776948508e-09
-3.525095833e-09
-4.418193904e-09
-5.480636727e-09
-6.73986173e-09
-8.226978632e-09
-9.977592876e-09
-1.203213853e-08
-1.443558284e-08
-1.723667004e-08
-2.048747339e-08
-2.424381612e-08
-2.856623103e-08
-3.352040575e-08
-3.917623965e-08
-4.560534291e-08
-5.287832667e-08
-6.10634996e-08
-7.023012622e-08
-8.045736326e-08
-9.18464742e-08
-1.04529898e-07
-1.186720794e-07
-1.344662911e-07
-1.521394582e-07
-1.719808661e-07
-1.944053047e-07
-2.200430377e-07
-2.498314558e-07
-2.850876345e-07
-3.275881997e-07
-3.797102583e-07
-4.44605843e-07
-5.261332924e-07
-6.277700538e-07
-7.480338492e-07
-8.723903767e-07
-9.611019662e-07
-9.613209211e-07
-9.920123186e-07
-1.32927019e-06
-1.205137869e-06
-0.001469992592
2032.98644
4933.644358
0
0
0
0
0
0
0
0
0
0
0
0
0
0
0
0
0
0
0
0
0
0
0
0
0
0
0
0
0
0
0
0
0
0
4697.079632
1893.035375
-0.001026829945
-1.034898981e-06
-1.367510831e-06
-1.215825079e-06
-1.224393642e-06
-1.238566941e-06
-1.186465676e-06
-1.079138737e-06
-1.00115665e-06
-1.017984287e-06
-3.80291125e-07
2.997694594e-09
2.561880056e-09
2.212253645e-09
1.924360328e-09
1.709280128e-09
1.537542292e-09
1.399081637e-09
1.285846933e-09
1.191000991e-09
1.108906842e-09
1.035032238e-09
9.656286319e-10
8.975860724e-10
8.28193082e-10
7.550324593e-10
6.75756283e-10
5.879810886e-10
4.889795078e-10
3.755112611e-10
2.436116814e-10
8.855972081e-11
-9.513243891e-11
-3.137522892e-10
-5.745858387e-10
-8.862319359e-10
-1.259068476e-09
-1.705539525e-09
-2.240298714e-09
-2.880207138e-09
-3.64429852e-09
-4.553787533e-09
-5.632350409e-09
-6.906439656e-09
-8.405947783e-09
-1.016466907e-08
-1.222045361e-08
-1.461477085e-08
-1.739206544e-08
-2.059940563e-08
-2.428671192e-08
-2.850714972e-08
-3.331689003e-08
-3.877369012e-08
-4.493471025e-08
-5.185429671e-08
-5.958418657e-08
-6.817803707e-08
-7.770113546e-08
-8.824107571e-08
-9.991300655e-08
-1.12857805e-07
-1.27240396e-07
-1.432639518e-07
-1.61215942e-07
-1.815515184e-07
-2.050019912e-07
-2.326818285e-07
-2.661967391e-07
-3.078131424e-07
-3.607870931e-07
-4.299573001e-07
-5.227819652e-07
-6.499672009e-07
-8.242870874e-07
-1.038940578e-06
-1.238451874e-06
-1.210293079e-06
-1.216980537e-06
-1.149133422e-06
-0.001691134353
1164.572683
0
0
0
0
0
0
0
0
0
0
0
0
0
0
0
0
0
0
0
0
0
0
0
0
0
0
0
0
0
0
0
0
0
0
0
0
0
0
812.887481
-0.001025190217
-8.319143195e-07
-1.121214051e-06
-1.261449179e-06
-1.259384199e-06
-1.107361308e-06
-8.892175428e-07
-8.098857604e-07
-7.447358109e-07
-1.970588614e-07
3.031577777e-09
2.609690567e-09
2.268146611e-09
1.983574805e-09
1.768819554e-09
1.594573442e-09
1.451631564e-09
1.332738966e-09
1.231593305e-09
1.143066472e-09
1.062865485e-09
9.874333734e-10
9.137064618e-10
8.390159815e-10
7.608666906e-10
6.768891293e-10
5.845499292e-10
4.809656871e-10
3.626393232e-10
2.253661322e-10
6.420121218e-11
-1.265084952e-10
-3.53166592e-10
-6.231704067e-10
-9.453255348e-10
-1.330256982e-09
-1.790640602e-09
-2.341243412e-09
-2.998817336e-09
-3.781990219e-09
-4.711408255e-09
-5.809918445e-09
-7.103057205e-09
-8.619383758e-09
-1.039079012e-08
-1.245235234e-08
-1.484180835e-08
-1.759897153e-08