/*--------------------------------*- C++ -*----------------------------------*\
  =========                 |
  \\      /  F ield         | OpenFOAM: The Open Source CFD Toolbox
   \\    /   O peration     | Website:  https://openfoam.org
    \\  /    A nd           | Version:  6
     \\/     M anipulation  |
\*---------------------------------------------------------------------------*/
FoamFile
{
    version     2.0;
    format      ascii;
    class       volScalarField;
    location    "0.0024";
    object      ViscousDissipation;
}
// * * * * * * * * * * * * * * * * * * * * * * * * * * * * * * * * * * * * * //

dimensions      [1 -1 -3 0 0 0 0];

internalField   nonuniform List<scalar> 
9600
(
3.816455202e-19
3.655545046e-19
3.52552459e-19
3.458489204e-19
3.451679501e-19
3.490560565e-19
3.562393219e-19
3.658447711e-19
3.77331794e-19
3.904020137e-19
4.049189265e-19
4.208617576e-19
4.382855502e-19
4.573043355e-19
4.780710449e-19
5.007758917e-19
5.256350121e-19
5.528984467e-19
5.828437183e-19
6.157920788e-19
6.521043412e-19
6.922033021e-19
7.365701967e-19
7.857771054e-19
8.40489257e-19
9.015123802e-19
9.697980887e-19
1.046499402e-18
1.132969032e-18
1.230823121e-18
1.341941941e-18
1.468557319e-18
1.613250147e-18
1.779023552e-18
1.969214602e-18
2.187452507e-18
2.437383877e-18
2.722437514e-18
3.045272047e-18
3.407199749e-18
3.807102657e-18
4.240206753e-18
4.696236673e-18
5.157599951e-18
5.597281323e-18
5.977476488e-18
6.248938231e-18
6.352817827e-18
6.225876637e-18
5.812094663e-18
5.082410589e-18
4.065990137e-18
2.894145305e-18
1.859143278e-18
1.488074736e-18
2.634056071e-18
6.58077823e-18
1.513527353e-17
3.063323132e-17
5.584562302e-17
9.46461394e-17
1.574910337e-16
2.797712039e-16
5.37832925e-16
9.40290953e-16
1.413265318e-15
2.861663991e-16
5.959642037e-16
1.320521684e-15
1.892215642e-15
2.520497171e-15
3.957255732e-15
1.370803023e-15
4.588564523e-16
2.636129374e-17
4.151187279e-17
1.329788441e-16
2.327232131e-16
3.290993767e-16
4.07575232e-16
4.527983845e-16
4.619875723e-16
4.446062348e-16
4.097452004e-16
3.632561804e-16
3.116729229e-16
2.620610738e-16
2.203327103e-16
1.905737042e-16
1.753847355e-16
1.764525307e-16
1.948793424e-16
2.310418509e-16
2.839694404e-16
3.503305965e-16
4.235379642e-16
4.940118248e-16
5.511657951e-16
5.843714862e-16
5.792800957e-16
5.217584141e-16
4.155171097e-16
2.841686119e-16
1.520782766e-16
4.594295776e-17
5.895941582e-17
5.578097696e-16
1.319459393e-15
3.4450791e-15
2.321689303e-15
1.85202367e-15
2.037131553e-15
2.850803535e-16
1.824921925e-15
3.085187269e-15
1.376437755e-15
1.183250814e-15
1.886149344e-15
3.964415295e-15
1.488065309e-15
3.670498193e-19
3.378356183e-19
3.191673101e-19
3.11658275e-19
3.118360526e-19
3.167515837e-19
3.24656301e-19
3.345993498e-19
3.46077137e-19
3.588495651e-19
3.728252645e-19
3.880185044e-19
4.045016806e-19
4.22401007e-19
4.418665393e-19
4.63084435e-19
4.862524072e-19
5.116027377e-19
5.393799778e-19
5.698731745e-19
6.033925941e-19
6.403090498e-19
6.810290017e-19
7.260452331e-19
7.759152691e-19
8.313264548e-19
8.930729305e-19
9.62127294e-19
1.039609189e-18
1.126868586e-18
1.225460368e-18
1.337253007e-18
1.464397524e-18
1.609413987e-18
1.775071999e-18
1.964367255e-18
2.180243765e-18
2.425412095e-18
2.701836378e-18
3.010230137e-18
3.349032268e-18
3.713273646e-18
4.092865734e-18
4.470960506e-18
4.822063887e-18
5.110837384e-18
5.291603186e-18
5.310232766e-18
5.109453446e-18
4.640574083e-18
3.883946323e-18
2.882398328e-18
1.791162785e-18
9.499120685e-19
9.82589268e-19
2.933626032e-18
8.447363097e-18
1.998981604e-17
4.110252563e-17
7.676102394e-17
1.343830575e-16
2.27018347e-16
3.788458281e-16
6.163386852e-16
8.799547113e-16
8.147054229e-16
4.527609742e-17
1.114660811e-15
4.016235935e-16
1.19896719e-15
1.360232004e-14
3.963734412e-14
1.163577629e-14
3.303158224e-15
2.184748802e-16
1.312469703e-16
2.669567711e-16
4.203370803e-16
5.941469606e-16
7.37376166e-16
7.993453156e-16
7.802792452e-16
7.202506016e-16
6.399326528e-16
5.425372932e-16
4.384568247e-16
3.415341148e-16
2.622623354e-16
2.065010511e-16
1.771286018e-16
1.758606149e-16
2.042867796e-16
2.637859812e-16
3.54216371e-16
4.713183991e-16
6.039040247e-16
7.341698448e-16
8.455107917e-16
9.284940874e-16
9.54949866e-16
8.746854313e-16
6.878657778e-16
4.62395736e-16
2.596426975e-16
9.20932251e-17
2.233723619e-16
3.560247756e-15
1.159093246e-14
3.809218095e-14
1.364966924e-14
2.053022718e-15
8.761259823e-17
4.219515744e-16
1.142774082e-15
1.947364038e-15
1.853483825e-15
1.581446812e-15
1.67545344e-15
2.639548864e-15
9.763577477e-16
3.501108153e-19
3.060274159e-19
2.832001572e-19
2.77399835e-19
2.797211462e-19
2.861293318e-19
2.948519212e-19
3.050965244e-19
3.165038404e-19
3.289245906e-19
3.423307525e-19
3.567666152e-19
3.723286773e-19
3.891449123e-19
4.073708713e-19
4.271777141e-19
4.487566136e-19
4.723112855e-19
4.98068982e-19
5.262754772e-19
5.572100949e-19
5.911807387e-19
6.28543597e-19
6.69701912e-19
7.15134943e-19
7.654012141e-19
8.21172292e-19
8.832327175e-19
9.525160193e-19
1.03010926e-18
1.117308082e-18
1.215635314e-18
1.32689951e-18
1.453175846e-18
1.596793851e-18
1.760211834e-18
1.945894159e-18
2.156052046e-18
2.392340497e-18
2.655291376e-18
2.943556635e-18
3.252761668e-18
3.574185391e-18
3.893208393e-18
4.187928508e-18
4.42807102e-18
4.575018921e-18
4.583816667e-18
4.409117496e-18
4.017314264e-18
3.408513984e-18
2.652656884e-18
1.946201566e-18
1.697261329e-18
2.65031468e-18
6.064134652e-18
1.395925238e-17
2.944871006e-17
5.716383819e-17
1.038107334e-16
1.789776876e-16
2.961264969e-16
4.709961621e-16
7.040235006e-16
9.154789866e-16
8.568757773e-16
4.091576434e-16
6.828502691e-16
1.664954049e-15
6.749403873e-16
3.75846185e-14
2.585025952e-13
1.748747959e-13
3.336970136e-14
7.043649952e-15
1.065564955e-15
8.047604138e-16
8.61922081e-16
1.212394361e-15
1.508729148e-15
1.553615392e-15
1.392179468e-15
1.213285856e-15
1.045420285e-15
8.485852637e-16
6.406227059e-16
4.535933252e-16
3.066886979e-16
2.065288095e-16
1.538524506e-16
1.487519531e-16
1.933454905e-16
2.919718775e-16
4.484446933e-16
6.596332925e-16
9.060999544e-16
1.149189168e-15
1.360268506e-15
1.573053596e-15
1.752590924e-15
1.686053779e-15
1.321358964e-15
9.000668865e-16
7.753821753e-16
9.613065967e-16
6.861596418e-15
3.394032377e-14
1.737817811e-13
2.552293201e-13
3.520036661e-14
3.307907708e-16
2.068160667e-16
2.874037074e-16
1.074079049e-15
1.966056524e-15
1.989304562e-15
1.534309313e-15
1.207289064e-15
1.495455496e-15
5.813641225e-16
4.630613751e-19
2.848948416e-19
2.497919028e-19
2.456567796e-19
2.50084825e-19
2.577524365e-19
2.6705467e-19
2.774242061e-19
2.886435309e-19
3.006467559e-19
3.134530258e-19
3.271338038e-19
3.417985491e-19
3.575799425e-19
3.746305197e-19
3.931135879e-19
4.13206268e-19
4.350944702e-19
4.589811003e-19
4.850830863e-19
5.136419021e-19
5.449211148e-19
5.792203163e-19
6.16876514e-19
6.582847849e-19
7.039035926e-19
7.542772564e-19
8.100398461e-19
8.719400278e-19
9.408545339e-19
1.0178313e-18
1.104118599e-18
1.201206035e-18
1.310820529e-18
1.434903308e-18
1.575528879e-18
1.734803761e-18
1.914699095e-18
2.116802602e-18
2.341892838e-18
2.58929382e-18
2.855981842e-18
3.135510012e-18
3.416873044e-18
3.683489791e-18
3.912657222e-18
4.07607043e-18
4.142589803e-18
4.084986342e-18
3.893411526e-18
3.59929033e-18
3.315258004e-18
3.29877506e-18
4.050436435e-18
6.461197019e-18
1.202711163e-17
2.315207432e-17
4.355631366e-17
7.879066433e-17
1.368079084e-16
2.283756531e-16
3.664657596e-16
5.613863128e-16
8.030638024e-16
1.020308816e-15
1.053760434e-15
8.441979756e-16
1.009400558e-15
2.283485405e-15
3.811567724e-15
2.571619381e-15
1.214286735e-13
5.324482289e-13
5.805948967e-13
1.435918265e-13
5.044170274e-15
2.25252759e-15
1.508183114e-15
2.785312803e-15
3.639467518e-15
3.433968473e-15
2.571552176e-15
2.081297107e-15
1.803933087e-15
1.419661751e-15
9.981851929e-16
6.349332832e-16
3.656297713e-16
1.910037444e-16
1.014738001e-16
9.052829394e-17
1.606603196e-16
3.241493695e-16
5.980067625e-16
9.893140095e-16
1.464892607e-15
1.917230717e-15
2.251170321e-15
2.783312597e-15
3.689693446e-15
3.889410529e-15
2.922483201e-15
1.549733868e-15
2.221447656e-15
4.891453762e-15
1.421582716e-13
5.759922178e-13
5.367314608e-13
1.232059142e-13
1.05335215e-15
1.000373166e-15
8.212368285e-16
9.962459507e-16
1.677313539e-15
2.137788726e-15
1.899752278e-15
1.264883902e-15
7.289143505e-16
7.073563898e-16
3.234208474e-16
1.765494055e-19
1.962047408e-19
2.06970464e-19
2.143213456e-19
2.223171633e-19
2.312830598e-19
2.410337349e-19
2.514226182e-19
2.623912537e-19
2.739487956e-19
2.861537736e-19
2.990998504e-19
3.129061325e-19
3.277089075e-19
3.436567022e-19
3.6090601e-19
3.796207875e-19
3.999721186e-19
4.221411213e-19
4.463204309e-19
4.727182738e-19
5.015605778e-19
5.33097283e-19
5.67608144e-19
6.054139189e-19
6.468848551e-19
6.924527451e-19
7.426190779e-19
7.979716967e-19
8.592045554e-19
9.271531168e-19
1.002827875e-18
1.087447257e-18
1.182442095e-18
1.289441841e-18
1.410229473e-18
1.546689002e-18
1.700710931e-18
1.874036745e-18
2.067956346e-18
2.282847317e-18
2.517533434e-18
2.768570225e-18
3.029536756e-18
3.290569504e-18
3.538439162e-18
3.757904893e-18
3.935471198e-18
4.067506462e-18
4.175477517e-18
4.332598812e-18
4.708034767e-18
5.637881089e-18
7.735590863e-18
1.205898632e-17
2.035442889e-17
3.53995799e-17
6.145614477e-17
1.048079736e-16
1.742568103e-16
2.811792242e-16
4.380746037e-16
6.530511025e-16
9.159413947e-16
1.175864359e-15
1.338690468e-15
1.372008528e-15
1.563683423e-15
2.326252238e-15
4.142286741e-15
5.557403873e-15
1.279143635e-15
2.160815091e-15
2.49248214e-13
8.400371444e-13
1.709591752e-13
3.455753382e-15
1.232956113e-15
8.887344657e-15
1.146930839e-14
9.47869824e-15
4.552544831e-15
3.410274296e-15
3.367168621e-15
2.622091562e-15
1.717225866e-15
9.872918915e-16
4.888669745e-16
1.888108233e-16
4.240011762e-17
2.325934671e-17
1.335342687e-16
4.057602413e-16
8.961424299e-16
1.655642059e-15
2.642492237e-15
3.501889505e-15
3.605848862e-15
4.744180575e-15
9.742072438e-15
1.185854753e-14
9.092774204e-15
1.259688093e-15
3.418266143e-15
1.698055748e-13
8.339432289e-13
2.447542947e-13
2.082918862e-15
2.519854371e-16
1.808795929e-15
2.920541276e-15
2.391868818e-15
2.281575396e-15
2.326480913e-15
2.174523944e-15
1.644600185e-15
9.363028045e-16
3.754789494e-16
2.854326008e-16
1.884090067e-16
1.330347365e-19
1.561933303e-19
1.730306749e-19
1.85222222e-19
1.958948534e-19
2.061507512e-19
2.164150018e-19
2.268662644e-19
2.376125231e-19
2.487504844e-19
2.603858703e-19
2.726375136e-19
2.856369316e-19
2.995242711e-19
3.144463174e-19
3.305532476e-19
3.479993165e-19
3.669421567e-19
3.875459477e-19
4.099818258e-19
4.344315072e-19
4.610877977e-19
4.901600596e-19
5.218776224e-19
5.564987308e-19
5.943155915e-19
6.356640082e-19
6.809295718e-19
7.305635084e-19
7.851019201e-19
8.451991957e-19
9.116598937e-19
9.85469868e-19
1.067808007e-18
1.160049373e-18
1.263758078e-18
1.380685385e-18
1.512750181e-18
1.661973456e-18
1.830316187e-18
2.019410883e-18
2.230215083e-18
2.462672115e-18
2.715504373e-18
2.986344062e-18
3.272597106e-18
3.573765832e-18
3.896498303e-18
4.264333162e-18
4.735184268e-18
5.431093574e-18
6.587122833e-18
8.629370431e-18
1.229626196e-17
1.882146534e-17
3.019978829e-17
4.955467177e-17
8.16090314e-17
1.332095548e-16
2.137278266e-16
3.348830237e-16
5.089992635e-16
7.439365331e-16
1.032809786e-15
1.340757592e-15
1.605455705e-15
1.785308856e-15
1.947209407e-15
2.148764239e-15
2.122026965e-15
1.300227812e-15
5.453109689e-15
7.6810057e-15
6.185554065e-15
2.891087431e-13
4.710417451e-13
6.27343947e-14
2.013850122e-14
6.77766334e-14
5.520013363e-14
4.150569908e-14
6.09920387e-15
4.536098697e-15
7.438104951e-15
5.606580169e-15
3.380975588e-15
1.789925522e-15
8.231389732e-16
3.003726897e-16
6.459080461e-17
3.518331408e-17
2.121482714e-16
6.793289414e-16
1.608772957e-15
3.219304584e-15
5.585136483e-15
7.684735867e-15
4.817815643e-15
5.997639557e-15
4.112704453e-14
5.574567356e-14
6.816800537e-14
1.982913702e-14
6.176750058e-14
4.736521065e-13
2.849403886e-13
4.007947654e-15
4.044745627e-15
2.713121192e-15
3.70988862e-16
1.894103061e-15
2.558724227e-15
2.605704479e-15
2.36794268e-15
1.915355673e-15
1.288337956e-15
6.488808552e-16
1.878375836e-16
1.723596927e-16
1.469820522e-16
9.508573931e-20
1.217280864e-19
1.422884154e-19
1.579457065e-19
1.70847682e-19
1.823275931e-19
1.931369648e-19
2.036952038e-19
2.142604434e-19
2.250182602e-19
2.361254707e-19
2.477297097e-19
2.599769787e-19
2.730135235e-19
2.869858135e-19
3.020401629e-19
3.183229983e-19
3.359819291e-19
3.551672255e-19
3.760332597e-19
3.987396442e-19
4.234527363e-19
4.50347917e-19
4.796130934e-19
5.114532847e-19
5.460952968e-19
5.83792989e-19
6.248345731e-19
6.695552402e-19
7.183576495e-19
7.717406248e-19
8.303308271e-19
8.949115601e-19
9.664445208e-19
1.046091228e-18
1.135243376e-18
1.23556966e-18
1.349063863e-18
1.478069075e-18
1.625250419e-18
1.793528998e-18
1.9860249e-18
2.206109299e-18
2.457696087e-18
2.746015747e-18
3.079296652e-18
3.472158423e-18
3.952025767e-18
4.570671265e-18
5.424066328e-18
6.685412724e-18
8.658579335e-18
1.186258386e-17
1.716185101e-17
2.596117115e-17
4.048584459e-17
6.416195735e-17
1.020885643e-16
1.615339437e-16
2.522564118e-16
3.862000809e-16
5.757243552e-16
8.29138761e-16
1.142636092e-15
1.490519685e-15
1.822270445e-15
2.078961133e-15
2.21810836e-15
2.167692527e-15
1.766453072e-15
1.179838118e-15
3.913537122e-15
1.752192369e-14
1.512302159e-14
5.242145463e-15
2.743185005e-15
1.790963078e-14
7.879541923e-14
7.223186701e-13
4.414617452e-13
3.56930887e-13
2.234082503e-14
6.392602015e-15
2.618141501e-14
1.482358903e-14
7.861733628e-15
3.782896792e-15
1.710912381e-15
7.507681094e-16
3.625696754e-16
3.224092455e-16
6.249045505e-16
1.486496951e-15
3.456528857e-15
7.497744392e-15
1.471670392e-14
2.70866539e-14
7.331307401e-15
2.063674193e-14
3.495938209e-13
4.396453505e-13
7.199175851e-13
8.19681642e-14
1.894830262e-14
1.816087825e-15
2.615593856e-15
8.345067231e-15
1.260202897e-14
2.152423746e-15
4.863052074e-16
1.524702849e-15
2.229641795e-15
2.302624761e-15
2.000094607e-15
1.509296083e-15
9.548440356e-16
4.712840763e-16
1.605155086e-16
2.702119812e-16
1.66336628e-16
7.475323693e-20
9.772101432e-20
1.178226893e-19
1.343276497e-19
1.48185059e-19
1.603270385e-19
1.714503003e-19
1.820291497e-19
1.923908207e-19
2.027762267e-19
2.133802612e-19
2.243742569e-19
2.359173953e-19
2.481618234e-19
2.612549186e-19
2.753402897e-19
2.905590666e-19
3.070510918e-19
3.249564084e-19
3.444160693e-19
3.655729232e-19
3.885720995e-19
4.135624339e-19
4.406980958e-19
4.701412264e-19
5.020644371e-19
5.366546651e-19
5.741191868e-19
6.146973557e-19
6.586790736e-19
7.064305955e-19
7.584231688e-19
8.152622203e-19
8.777172314e-19
9.467625005e-19
1.023639495e-18
1.109946413e-18
1.207743509e-18
1.319656863e-18
1.448975557e-18
1.599772465e-18
1.777118809e-18
1.987495821e-18
2.23955927e-18
2.54551591e-18
2.923595879e-18
3.402458307e-18
4.028927414e-18
4.881240177e-18
6.091174103e-18
7.880111771e-18
1.061657878e-17
1.490613392e-17
2.172860107e-17
3.264127971e-17
5.00674113e-17
7.768103292e-17
1.208727352e-16
1.872172409e-16
2.867363942e-16
4.315312472e-16
6.34057813e-16
9.03095582e-16
1.236780605e-15
1.613787149e-15
1.987015708e-15
2.285591079e-15
2.422826584e-15
2.29567462e-15
1.827850574e-15
1.272232394e-15
2.112016077e-15
6.33480351e-15
7.581581087e-15
1.14372368e-14
1.613095267e-14
8.477386339e-15
3.193656102e-15
8.535337874e-13
8.114478735e-13
4.803359695e-13
9.029197179e-14
1.234456811e-13
2.09510417e-13
5.451211882e-14
2.20762513e-14
8.673841893e-15
3.73372769e-15
1.864591016e-15
1.193968898e-15
1.145715398e-15
1.705234732e-15
3.417090442e-15
8.125187002e-15
2.126507191e-14
5.397969903e-14
2.143569059e-13
1.29466316e-13
8.329300116e-14
4.728909982e-13
7.926310933e-13
8.545553088e-13
2.294174538e-15
5.441309653e-15
9.687246467e-15
5.800882436e-15
4.407012661e-15
4.17564836e-15
1.130694945e-15
7.062205376e-16
1.393059311e-15
1.852924615e-15
1.847034943e-15
1.539539126e-15
1.117685894e-15
7.06723954e-16
3.971437831e-16
2.3390296e-16
4.6553504e-16
2.122235156e-16
6.196508714e-20
8.08740366e-20
9.890132134e-20
1.146703995e-19
1.283874223e-19
1.405374067e-19
1.516148156e-19
1.620275367e-19
1.720960067e-19
1.820743243e-19
1.921731089e-19
2.025761097e-19
2.134501759e-19
2.24951046e-19
2.372263744e-19
2.504178142e-19
2.646625884e-19
2.800950515e-19
2.96847723e-19
3.150520019e-19
3.348382985e-19
3.563361474e-19
3.796742888e-19
4.049811811e-19
4.323855436e-19
4.620174868e-19
4.940108094e-19
5.285081538e-19
5.656709638e-19
6.056957003e-19
6.488356365e-19
6.954265382e-19
7.459155187e-19
8.00898249e-19
8.611755758e-19
9.278412613e-19
1.002404018e-18
1.086936221e-18
1.184241617e-18
1.298054695e-18
1.433320197e-18
1.596633829e-18
1.79695935e-18
2.046787178e-18
2.364024468e-18
2.775127081e-18
3.320364559e-18
4.062658306e-18
5.102274694e-18
6.600847241e-18
8.819950907e-18
1.218189391e-17
1.73637081e-17
2.543919032e-17
3.808719454e-17
5.788409424e-17
8.868900666e-17
1.361013928e-16
2.079061142e-16
3.142976729e-16
4.674769657e-16
6.799632689e-16
9.607969381e-16
1.309048071e-15
1.705156991e-15
2.102670681e-15
2.424642306e-15
2.568633388e-15
2.426813612e-15
1.953165009e-15
1.331167431e-15
1.167522432e-15
2.054566559e-15
2.756875254e-15
4.412234055e-15
9.66067497e-15
1.589194281e-14
2.11986828e-14
1.975463421e-14
1.521297838e-14
1.498320081e-14
7.540157702e-13
7.296126933e-13
3.988329748e-13
4.413035196e-13
6.786960877e-14
1.872713095e-14
7.328779722e-15
3.752413825e-15
2.587506392e-15
2.536742409e-15
3.574386473e-15
6.927775411e-15
1.787192788e-14
6.606656133e-14
4.376787176e-13
3.955094059e-13
7.012605573e-13
7.5118164e-13
1.451073459e-14
1.376184575e-14
1.609145752e-14
1.474443624e-14
1.010371587e-14
6.027429947e-15
2.314581647e-15
1.623201666e-15
1.282180954e-15
6.430034532e-16
8.032974309e-16
1.280839257e-15
1.540241999e-15
1.459670756e-15
1.166379791e-15
8.324496386e-16
5.548791878e-16
3.886348048e-16
3.423826076e-16
6.650920497e-16
2.597690222e-16
5.289075716e-20
6.84815965e-20
8.415497926e-20
9.850263327e-20
1.114084179e-19
1.23057756e-19
1.337492594e-19
1.437858462e-19
1.534403695e-19
1.629494605e-19
1.725194483e-19
1.823341192e-19
1.925610295e-19
2.033557354e-19
2.148646692e-19
2.272273052e-19
2.405778871e-19
2.550467916e-19
2.707614415e-19
2.878466715e-19
3.064246103e-19
3.266142031e-19
3.485304902e-19
3.722836904e-19
3.979784786e-19
4.257136165e-19
4.555832031e-19
4.876805098e-19
5.221060654e-19
5.589805783e-19
5.984626547e-19
6.407705034e-19
6.862101913e-19
7.352175189e-19
7.884258636e-19
8.467702332e-19
9.116295729e-19
9.850023209e-19
1.069717068e-18
1.169705328e-18
1.290396708e-18
1.439326518e-18
1.627073339e-18
1.868703514e-18
2.186023568e-18
2.611181468e-18
3.19252891e-18
4.004236832e-18
5.161993692e-18
6.848344712e-18
9.352962686e-18
1.313556613e-17
1.892240821e-17
2.785101953e-17
4.168094025e-17
6.308768947e-17
9.604702612e-17
1.462867374e-16
2.217171242e-16
3.326300016e-16
4.912671959e-16
7.101328418e-16
9.98279741e-16
1.354993543e-15
1.761145116e-15
2.170079162e-15
2.501940547e-15
2.648077436e-15
2.498346635e-15
2.012709094e-15
1.329170324e-15
7.696888283e-16
5.79052515e-16
6.018157078e-16
6.724697131e-16
1.42391574e-15
2.780127309e-15
7.854073757e-15
1.751162022e-14
1.148384176e-14
3.679347879e-14
1.689739645e-14
6.825084438e-16
1.047211548e-15
5.066418117e-16
1.465462084e-13
3.426488654e-14
1.164802278e-14
5.627981224e-15
3.861306755e-15
3.81216418e-15
5.446227142e-15
1.118739089e-14
3.304656435e-14
1.427862461e-13
4.987086356e-16
1.027185446e-15
6.725466993e-16
1.607620026e-14
3.376454674e-14
1.076537292e-14
1.641976848e-14
7.055399255e-15
2.021875896e-15
8.206973042e-16
3.282069363e-16
4.02530132e-16
3.717432431e-16
4.612208354e-16
7.965435746e-16
1.17076159e-15
1.333037815e-15
1.213451988e-15
9.401412084e-16
6.666450772e-16
4.77797321e-16
3.985998237e-16
4.237496985e-16
7.913944449e-16
2.909725878e-16
4.589752557e-20
5.889448962e-20
7.239894763e-20
8.5145938e-20
9.692499711e-20
1.077630869e-19
1.178203899e-19
1.273043307e-19
1.364301744e-19
1.45402682e-19
1.544112939e-19
1.636306591e-19
1.73222859e-19
1.833396328e-19
1.941243239e-19
2.057136841e-19
2.182393235e-19
2.318288228e-19
2.466064456e-19
2.626932401e-19
2.80206757e-19
2.992601412e-19
3.199605837e-19
3.424073878e-19
3.666900056e-19
3.928867175e-19
4.210647431e-19
4.512827539e-19
4.835965024e-19
5.180682102e-19
5.547795287e-19
5.938491909e-19
6.354591208e-19
6.798981274e-19
7.276349001e-19
7.794288077e-19
8.364789389e-19
9.006087086e-19
9.744957376e-19
1.061983442e-18
1.168542432e-18
1.301972081e-18
1.473459958e-18
1.699173858e-18
2.002697415e-18
2.418855633e-18
2.999864431e-18
3.825308247e-18
5.018302889e-18
6.77141156e-18
9.38760044e-18
1.334390332e-17
1.938864129e-17
2.868676112e-17
4.303100681e-17
6.513607124e-17
9.902268227e-17
1.504675154e-16
2.274270453e-16
3.402195541e-16
5.010618366e-16
7.223382373e-16
1.01285598e-15
1.371554698e-15
1.77894802e-15
2.187969969e-15
2.517576924e-15
2.655362875e-15
2.484231125e-15
1.961981003e-15
1.25021296e-15
7.267442125e-16
6.625389915e-16
7.9725555e-16
8.689724623e-16
1.531637186e-15
2.751807208e-15
7.541984943e-15
1.709820052e-14
1.159767547e-14
3.676775185e-14
1.69271144e-14
6.839086087e-16
1.047268385e-15
5.067250714e-16
1.465746561e-13
3.426801109e-14
1.164601642e-14
5.625161002e-15
3.858624163e-15
3.809958316e-15
5.445058106e-15
1.118917444e-14
3.30583143e-14
1.428365347e-13
4.988137852e-16
1.027281151e-15
6.738271642e-16
1.599549701e-14
3.377972643e-14
1.099164029e-14
1.585188185e-14
6.519168673e-15
1.784376453e-15
8.153118889e-16
4.873683223e-16
5.579433428e-16
4.784721887e-16
4.873533471e-16
7.570005052e-16
1.093482174e-15
1.244028263e-15
1.132514167e-15
8.77306633e-16
6.236467466e-16
4.57060064e-16
4.01808036e-16
4.387122699e-16
8.174224302e-16
2.969009169e-16
4.020098201e-20
5.115421759e-20
6.278053076e-20
7.397760214e-20
8.453659322e-20
9.441565818e-20
1.036923277e-19
1.125038072e-19
1.210143761e-19
1.29394681e-19
1.378121785e-19
1.46427388e-19
1.553929476e-19
1.648540328e-19
1.749494084e-19
1.858125297e-19
1.975725415e-19
2.103551199e-19
2.242829561e-19
2.394758008e-19
2.560500594e-19
2.741174344e-19
2.937827485e-19
3.151411922e-19
3.382755205e-19
3.632539128e-19
3.901291603e-19
4.189396341e-19
4.497122921e-19
4.824681504e-19
5.172305089e-19
5.540379547e-19
5.929671065e-19
6.34174842e-19
6.779701539e-19
7.249220446e-19
7.760019308e-19
8.327598852e-19
8.975491025e-19
9.738411958e-19
1.06670048e-18
1.183503964e-18
1.335014486e-18
1.536976713e-18
1.812539432e-18
2.19605331e-18
2.73917072e-18
3.52074819e-18
4.662877971e-18
6.356559902e-18
8.902202483e-18
1.27725135e-17
1.870856441e-17
2.786371221e-17
4.20134316e-17
6.38489866e-17
9.736254315e-17
1.482994925e-16
2.245828199e-16
3.364848927e-16
4.961239011e-16
7.156349926e-16
1.003264177e-15
1.35696519e-15
1.756129692e-15
2.153502291e-15
2.469651358e-15
2.591852759e-15
2.390293133e-15
1.810435408e-15
1.112255998e-15
1.074993199e-15
2.336353924e-15
3.28139846e-15
4.784173779e-15
9.733477842e-15
1.596354311e-14
2.072280805e-14
1.932294427e-14
1.524383079e-14
1.51040963e-14
7.554900072e-13
7.300566043e-13
3.994206248e-13
4.416782363e-13
6.794303008e-14
1.873819893e-14
7.32552454e-15
3.74608549e-15
2.581099418e-15
2.531525693e-15
3.572028223e-15
6.932851293e-15
1.789919392e-14
6.616789549e-14
4.380872254e-13
3.960824756e-13
7.017148055e-13
7.525317789e-13
1.444487934e-14
1.372022666e-14
1.534965967e-14
1.412394903e-14
9.927970324e-15
6.022558893e-15
2.751265937e-15
2.084044954e-15
1.604225023e-15
7.28380917e-16
7.037142071e-16
1.067370094e-15
1.285920345e-15
1.216661573e-15
9.736126311e-16
6.995109621e-16
4.895544536e-16
3.801622357e-16
3.804867394e-16
7.292203118e-16
2.755142801e-16
3.538475592e-20
4.469412388e-20
5.472062607e-20
6.450358039e-20
7.386742921e-20
8.274874052e-20
9.118147535e-20
9.925706812e-20
1.071008359e-19
1.14853454e-19
1.226604679e-19
1.306666973e-19
1.390135712e-19
1.478383613e-19
1.572743601e-19
1.674513252e-19
1.784961127e-19
1.905332412e-19
2.03685249e-19
2.180728425e-19
2.338143119e-19
2.510238862e-19
2.698090615e-19
2.902672954e-19
3.124826405e-19
3.365231588e-19
3.624393056e-19
3.902632459e-19
4.200092235e-19
4.516751293e-19
4.852460395e-19
5.207023787e-19
5.5803822e-19
5.972986484e-19
6.386449531e-19
6.824507423e-19
7.294260183e-19
7.807690172e-19
8.383630744e-19
9.050618315e-19
9.851267353e-19
1.084891714e-18
1.213748887e-18
1.38560913e-18
1.621131209e-18
1.951252008e-18
2.42292732e-18
3.108539962e-18
4.121221593e-18
5.639457225e-18
7.945973575e-18
1.148831098e-17
1.697185779e-17
2.550028265e-17
3.878216223e-17
5.942292569e-17
9.13113996e-17
1.400779198e-16
2.135276366e-16
3.218124563e-16
4.768796194e-16
6.904654473e-16
9.698068042e-16
1.310824674e-15
1.690349597e-15
2.061245855e-15
2.352369366e-15
2.463947546e-15
2.253276533e-15
1.622220375e-15
9.760190131e-16
2.078700625e-15
6.788133054e-15
8.115760551e-15
1.169911822e-14
1.570439242e-14
8.40375023e-15
3.077841828e-15
8.530637825e-13
8.098105084e-13
4.806274959e-13
9.038142054e-14
1.232897339e-13
2.097263961e-13
5.464021443e-14
2.212509264e-14
8.686028281e-15
3.732050155e-15
1.858414337e-15
1.187093813e-15
1.14026836e-15
1.703591167e-15
3.423804377e-15
8.150172442e-15
2.132835108e-14
5.410798284e-14
2.145035187e-13
1.292989906e-13
8.336544821e-14
4.730784832e-13
7.911680492e-13
8.542756004e-13
2.056172665e-15
4.996589738e-15
9.088156647e-15
6.444309025e-15
4.891701513e-15
4.609418116e-15
1.282616341e-15
6.08257463e-16
1.07742617e-15
1.445969648e-15
1.4460301e-15
1.21017535e-15
8.919228553e-16
5.876379739e-16
3.66440719e-16
2.750724593e-16
5.53963835e-16
2.34228375e-16
3.121017989e-20
3.91686248e-20
4.783165518e-20
5.635573299e-20
6.460395478e-20
7.251279211e-20
8.009605242e-20
8.741764987e-20
9.457545043e-20
1.016863336e-19
1.088766236e-19
1.162761578e-19
1.240150991e-19
1.322225176e-19
1.410259305e-19
1.50551351e-19
1.609235986e-19
1.722667247e-19
1.847044455e-19
1.983603855e-19
2.133574282e-19
2.298158432e-19
2.478503392e-19
2.675664527e-19
2.890570708e-19
3.123996787e-19
3.376541182e-19
3.648603914e-19
3.940364499e-19
4.251761538e-19
4.582486588e-19
4.932017675e-19
5.299749156e-19
5.685292729e-19
6.089014578e-19
6.512808993e-19
6.961062646e-19
7.441803275e-19
7.968209238e-19
8.560879058e-19
9.251405645e-19
1.008784653e-18
1.114283449e-18
1.252569564e-18
1.440131127e-18
1.702084141e-18
2.077300652e-18
2.626977335e-18
3.448750327e-18
4.69950001e-18
6.631576378e-18
9.649636233e-18
1.439882381e-17
2.189950842e-17
3.374807378e-17
5.240436414e-17
8.157772225e-17
1.266932574e-16
1.953458294e-16
2.974934276e-16
4.448625039e-16
6.486629277e-16
9.145336647e-16
1.234548478e-15
1.579579527e-15
1.901063094e-15
2.148509696e-15
2.274388905e-15
2.147158818e-15
1.547615374e-15
9.34460821e-16
4.082481229e-15
1.781173248e-14
1.567469684e-14
5.628661918e-15
2.76810095e-15
1.798762169e-14
7.918310658e-14
7.215441456e-13
4.410955367e-13
3.568186892e-13
2.233564151e-14
6.400529369e-15
2.625630791e-14
1.488463793e-14
7.894502485e-15
3.795047821e-15
1.712033213e-15
7.471124661e-16
3.577334616e-16
3.188626413e-16
6.251600331e-16
1.494073323e-15
3.476614062e-15
7.535861963e-15
1.477228283e-14
2.71368108e-14
7.326018437e-15
2.063948589e-14
3.494198285e-13
4.392673139e-13
7.193606924e-13
8.231255153e-14
1.906279688e-14
1.688480946e-15
3.070567097e-15
8.944670674e-15
1.287048508e-14
2.247118914e-15
4.522091094e-16
1.162150295e-15
1.706821084e-15
1.774120192e-15
1.553461588e-15
1.188439518e-15
7.725390728e-16
4.009274577e-16
1.775322747e-16
3.492605567e-16
1.861838859e-16
2.753234211e-20
3.435972414e-20
4.185339353e-20
4.926720169e-20
5.6499247e-20
6.34941424e-20
7.025813381e-20
7.683943992e-20
8.331746802e-20
8.979121151e-20
9.637120996e-20
1.031741878e-19
1.10319974e-19
1.179298104e-19
1.261256526e-19
1.350299477e-19
1.447658096e-19
1.554575239e-19
1.672311729e-19
1.802149991e-19
1.94538795e-19
2.103319095e-19
2.277202113e-19
2.468225543e-19
2.677476544e-19
2.905914664e-19
3.154345714e-19
3.423386719e-19
3.713421566e-19
4.024552274e-19
4.356556699e-19
4.70888138e-19
5.080714333e-19
5.471198755e-19
5.879822404e-19
6.306959943e-19
6.754498592e-19
7.226536908e-19
7.73030702e-19
8.277655959e-19
8.887496832e-19
9.589633107e-19
1.043050512e-18
1.14820196e-18
1.285599853e-18
1.47290658e-18
1.738616156e-18
2.12955119e-18
2.723416537e-18
3.649258994e-18
5.120223256e-18
7.485485671e-18
1.131190509e-17
1.751053223e-17
2.752776232e-17
4.362300243e-17
6.924905057e-17
1.095266626e-16
1.717339629e-16
2.655588974e-16
4.025074499e-16
5.932883342e-16
8.414863657e-16
1.132771156e-15
1.424950769e-15
1.659132394e-15
1.820363634e-15
2.004671126e-15
2.202860563e-15
1.979466586e-15
1.240608905e-15
5.473925534e-15
8.28348304e-15
6.698603947e-15
2.885462463e-13
4.714342012e-13
6.26330616e-14
2.013981562e-14
6.766839606e-14
5.512351838e-14
4.151894173e-14
6.125736986e-15
4.55981616e-15
7.476036305e-15
5.642108514e-15
3.404651179e-15
1.801786355e-15
8.269435952e-16
2.999240872e-16
6.279906219e-17
3.437178268e-17
2.145145168e-16
6.872822036e-16
1.624658711e-15
3.243853307e-15
5.614435786e-15
7.708390406e-15
4.827313443e-15
6.008143011e-15
4.110439611e-14
5.56583995e-14
6.810406305e-14
1.982386221e-14
6.169571295e-14
4.738918328e-13
2.844741088e-13
4.4753971e-15
4.340054327e-15
2.779255629e-15
4.388147741e-16
1.547234708e-15
2.031272006e-15
2.050071916e-15
1.874366428e-15
1.53267337e-15
1.044003862e-15
5.352849778e-16
1.575681024e-16
2.04177992e-16
1.531555059e-16
2.425908071e-20
3.012543225e-20
3.660880115e-20
4.304591714e-20
4.936401368e-20
5.551797074e-20
6.151255586e-20
6.738732232e-20
7.320948856e-20
7.906487173e-20
8.505150389e-20
9.127517113e-20
9.784665305e-20
1.048801536e-19
1.124924727e-19
1.208028105e-19
1.299330021e-19
1.40008216e-19
1.511579057e-19
1.63516362e-19
1.772221303e-19
1.924160961e-19
2.092386172e-19
2.27826533e-19
2.483107188e-19
2.708140713e-19
2.954486629e-19
3.223114473e-19
3.514782197e-19
3.829967029e-19
4.168800623e-19
4.531030256e-19
4.916039765e-19
5.322971057e-19
5.750954551e-19
6.19939996e-19
6.668264834e-19
7.158269252e-19
7.671171341e-19
8.210341843e-19
8.78190024e-19
9.396625148e-19
1.007300165e-18