/*--------------------------------*- C++ -*----------------------------------*\
  =========                 |
  \\      /  F ield         | OpenFOAM: The Open Source CFD Toolbox
   \\    /   O peration     | Website:  https://openfoam.org
    \\  /    A nd           | Version:  6
     \\/     M anipulation  |
\*---------------------------------------------------------------------------*/
FoamFile
{
    version     2.0;
    format      ascii;
    class       volVectorField;
    location    "0.0039";
    object      gradT;
}
// * * * * * * * * * * * * * * * * * * * * * * * * * * * * * * * * * * * * * //

dimensions      [0 -1 0 1 0 0 0];

internalField   nonuniform List<vector> 
600
(
(0 -5.336307538e-08 -2.117275307e-05)
(0 -1.600892264e-07 -2.138429958e-05)
(0 -2.668153769e-07 -2.181025124e-05)
(0 -3.764002639e-07 -2.245060814e-05)
(0 -4.869380636e-07 -2.331394651e-05)
(0 -6.031933342e-07 -2.440121913e-05)
(0 -7.194486056e-07 -2.572195525e-05)
(0 -8.366567903e-07 -2.727806068e-05)
(0 -9.567237087e-07 -2.907334696e-05)
(0 -1.070120244e-06 -3.11068613e-05)
(0 -1.176846396e-06 -3.336621585e-05)
(0 -1.270231777e-06 -3.583330512e-05)
(0 -1.338841445e-06 -3.84709657e-05)
(0 -1.376005017e-06 -4.122678743e-05)
(-1.239779192e-25 -1.364570071e-06 -4.402167848e-05)
(1.239779192e-25 -1.296913315e-06 -4.674986571e-05)
(0 -1.155882331e-06 -4.927984726e-05)
(0 -9.405242036e-07 -5.145534544e-05)
(0 -6.489331131e-07 -5.311817698e-05)
(0 -2.963556512e-07 -5.411873473e-05)
(0 1.010086784e-07 -5.434648063e-05)
(0 5.250545453e-07 -5.374233438e-05)
(0 9.767348634e-07 -5.226913242e-05)
(0 1.468437485e-06 -4.986684103e-05)
(0 2.005879887e-06 -4.644016926e-05)
(0 2.579532951e-06 -4.187857929e-05)
(0 3.160809304e-06 -3.611346127e-05)
(0 3.69062841e-06 -2.918197894e-05)
(0 4.118485931e-06 -2.123373947e-05)
(0 2.149769608e-06 -1.254222854e-05)
(0 -1.591363165e-07 -2.105459229e-05)
(0 -4.774089501e-07 -2.126518589e-05)
(0 -7.994932307e-07 -2.168732591e-05)
(0 -1.128247896e-06 -2.2325777e-05)
(0 -1.461767125e-06 -2.318435081e-05)
(0 -1.806721294e-06 -2.427067054e-05)
(0 -2.156440025e-06 -2.558759503e-05)
(0 -2.514734969e-06 -2.714560631e-05)
(0 -2.873982817e-06 -2.894851592e-05)
(0 -3.221795725e-06 -3.099441814e-05)
(0 -3.547691659e-06 -3.327950135e-05)
(0 -3.835471101e-06 -3.578661297e-05)
(0 -4.05559379e-06 -3.848621287e-05)
(0 -4.175660716e-06 -4.132874964e-05)
(0 -4.158508296e-06 -4.423608435e-05)
(0 -3.961255496e-06 -4.710339679e-05)
(0 -3.547691658e-06 -4.979156178e-05)
(0 -2.898758531e-06 -5.213477252e-05)
(0 -2.013503214e-06 -5.395007002e-05)
(0 -9.319480105e-07 -5.506402432e-05)
(0 2.753915896e-07 -5.534894495e-05)
(0 1.551340858e-06 -5.478386809e-05)
(0 2.898758536e-06 -5.336307626e-05)
(0 4.360525654e-06 -5.104654693e-05)
(0 5.983334917e-06 -4.771897797e-05)
(0 7.745269355e-06 -4.321360974e-05)
(0 9.537696956e-06 -3.739703437e-05)
(0 1.119004649e-05 -3.028735738e-05)
(0 1.251935886e-05 -2.204562088e-05)
(0 6.542694305e-06 -1.297103916e-05)
(0 -2.639566407e-07 -2.082303434e-05)
(0 -7.918699234e-07 -2.103076921e-05)
(0 -1.3274065e-06 -2.144814466e-05)
(0 -1.873425111e-06 -2.207801953e-05)
(0 -2.431831582e-06 -2.292897003e-05)
(0 -3.006437551e-06 -2.400671354e-05)
(0 -3.595337204e-06 -2.532077927e-05)
(0 -4.19662472e-06 -2.687974344e-05)
(0 -4.804582609e-06 -2.869027632e-05)
(0 -5.402058471e-06 -3.076095422e-05)
(0 -5.969041155e-06 -3.309177717e-05)
(0 -6.476943275e-06 -3.567702754e-05)
(0 -6.880977988e-06 -3.849383559e-05)
(0 -7.123970571e-06 -4.150217901e-05)
(-1.239779192e-25 -7.141122984e-06 -4.463535384e-05)
(1.239779192e-25 -6.85239063e-06 -4.778853985e-05)
(0 -6.187258015e-06 -5.081022403e-05)
(0 -5.098079523e-06 -5.35069651e-05)
(0 -3.580090611e-06 -5.565482889e-05)
(0 -1.69618347e-06 -5.701463448e-05)
(0 3.821177362e-07 -5.738341137e-05)
(0 2.513782015e-06 -5.68488277e-05)
(0 4.713103058e-06 -5.552142128e-05)
(0 7.111582707e-06 -5.34040506e-05)
(0 9.837864112e-06 -5.033090921e-05)
(0 1.290338223e-05 -4.599611231e-05)
(0 1.608515558e-05 -4.009377494e-05)
(0 1.904299462e-05 -3.26315206e-05)
(0 2.143575683e-05 -2.376467391e-05)
(0 1.122625698e-05 -1.385915301e-05)
(0 -3.659182312e-07 -2.047522144e-05)
(0 -1.101566343e-06 -2.067723883e-05)
(0 -1.847696485e-06 -2.108603807e-05)
(0 -2.609073221e-06 -2.170638382e-05)
(0 -3.391414028e-06 -2.254208774e-05)
(0 -4.197577626e-06 -2.360649047e-05)
(0 -5.029469855e-06 -2.490912126e-05)
(0 -5.88327907e-06 -2.646236796e-05)
(0 -6.755193596e-06 -2.828147704e-05)
(0 -7.624249395e-06 -3.038074231e-05)
(0 -8.464717845e-06 -3.277064581e-05)
(0 -9.237529514e-06 -3.545881068e-05)
(0 -9.881698067e-06 -3.844047252e-05)
(0 -1.031717889e-05 -4.169180851e-05)
(1.239779192e-25 -1.044391619e-05 -4.516326712e-05)
(-1.239779192e-25 -1.013517268e-05 -4.875669851e-05)
(0 -9.268022709e-06 -5.231296635e-05)
(0 -7.741457579e-06 -5.559955999e-05)
(0 -5.520219566e-06 -5.831631227e-05)
(0 -2.661483389e-06 -6.012970401e-05)
(0 4.392924599e-07 -6.050133963e-05)
(0 3.414283912e-06 -5.988766426e-05)
(0 6.343535596e-06 -5.864601993e-05)
(0 9.553896318e-06 -5.688217962e-05)
(0 1.339032027e-05 -5.435696266e-05)
(0 1.798145061e-05 -5.049099851e-05)
(0 2.290419428e-05 -4.446859421e-05)
(0 2.751724157e-05 -3.647842658e-05)
(0 3.129172629e-05 -2.660054021e-05)
(0 1.644916799e-05 -1.52808978e-05)
(0 -4.650210925e-07 -2.001401231e-05)
(0 -1.403639488e-06 -2.021031222e-05)
(0 -2.355598649e-06 -2.060672362e-05)
(0 -3.329474789e-06 -2.120801113e-05)
(0 -4.33289121e-06 -2.202560973e-05)
(0 -5.372518277e-06 -2.306618968e-05)
(0 -6.452167658e-06 -2.43459506e-05)
(0 -7.569933533e-06 -2.588299781e-05)
(0 -8.72200422e-06 -2.770115401e-05)
(0 -9.890274423e-06 -2.981947755e-05)
(0 -1.10471097e-05 -3.226750872e-05)
(0 -1.214677022e-05 -3.506907017e-05)
(0 -1.311397597e-05 -3.824417321e-05)
(0 -1.384676537e-05 -4.179853529e-05)
(0 -1.42050603e-05 -4.571214516e-05)
(0 -1.400209003e-05 -4.99135345e-05)
(0 -1.303107264e-05 -5.424928447e-05)
(0 -1.110142567e-05 -5.843352133e-05)
(0 -8.11118758e-06 -6.206221051e-05)
(0 -3.879305062e-06 -6.487425414e-05)
(0 6.25110321e-07 -6.47837274e-05)
(0 4.367196038e-06 -6.374124159e-05)
(0 7.719540729e-06 -6.24719628e-05)
(0 1.139873424e-05 -6.129416338e-05)
(0 1.622999846e-05 -5.989433554e-05)
(0 2.279175104e-05 -5.728907402e-05)
(0 3.009677497e-05 -5.094839699e-05)
(0 3.691200213e-05 -4.231882524e-05)
(0 4.263328629e-05 -3.095630171e-05)
(0 2.254780551e-05 -1.738111624e-05)
(0 -5.622181156e-07 -1.944321768e-05)
(0 -1.695230558e-06 -1.963380012e-05)
(0 -2.845395412e-06 -2.001305909e-05)
(0 -4.027959279e-06 -2.059242963e-05)
(0 -5.247686725e-06 -2.137572337e-05)
(0 -6.518871405e-06 -2.238295139e-05)
(0 -7.847230818e-06 -2.36245958e-05)
(0 -9.23848244e-06 -2.512829107e-05)
(0 -1.069167332e-05 -2.692071862e-05)
(0 -1.21915569e-05 -2.903999504e-05)
(0 -1.371335748e-05 -3.152614265e-05)
(0 -1.521419396e-05 -3.442680692e-05)
(0 -1.661116304e-05 -3.779630396e-05)
(0 -1.77841978e-05 -4.168132648e-05)
(0 -1.856082112e-05 -4.61171321e-05)
(0 -1.867231183e-05 -5.109609761e-05)
(0 -1.778610363e-05 -5.650482651e-05)
(0 -1.555438356e-05 -6.199455283e-05)
(0 -1.196095218e-05 -6.681342912e-05)
(0 -5.383000237e-06 -7.27138607e-05)
(0 1.571351988e-06 -7.021341935e-05)
(0 5.725095659e-06 -6.801981578e-05)
(0 8.792519595e-06 -6.639986538e-05)
(0 1.213152344e-05 -6.611399166e-05)
(0 1.739255093e-05 -6.682105241e-05)
(0 2.692834196e-05 -6.799980473e-05)
(0 3.787444275e-05 -5.98667002e-05)
(0 4.75093366e-05 -5.101986463e-05)
(0 5.623038786e-05 -3.761429782e-05)
(0 3.002530611e-05 -2.042376419e-05)
(0 -6.556034976e-07 -1.877236759e-05)
(0 -1.971575056e-06 -1.895056217e-05)
(0 -3.314228146e-06 -1.930980999e-05)
(0 -4.693091898e-06 -1.985487569e-05)
(0 -6.123412909e-06 -2.05962413e-05)
(0 -7.620437747e-06 -2.154820042e-05)
(0 -9.197507207e-06 -2.273552885e-05)
(0 -1.086700915e-05 -2.418204939e-05)
(0 -1.263466101e-05 -2.592016096e-05)
(0 -1.449474535e-05 -2.799750925e-05)
(0 -1.643296851e-05 -3.047698647e-05)
(0 -1.841693139e-05 -3.343101382e-05)
(0 -2.036849529e-05 -3.695202388e-05)
(0 -2.21685462e-05 -4.114483699e-05)
(0 -2.361983125e-05 -4.612380248e-05)
(0 -2.43897842e-05 -5.199850534e-05)
(0 -2.392952769e-05 -5.884231979e-05)
(0 -2.141002817e-05 -6.640748858e-05)
(0 -1.883049523e-05 -7.067081714e-05)
(0 -7.280248153e-06 -8.916398163e-05)
(0 5.319155121e-06 -7.555163271e-05)
(0 8.182655863e-06 -7.192675523e-05)
(0 9.623458913e-06 -6.920142684e-05)
(0 1.097849985e-05 -7.01467155e-05)
(0 1.434513816e-05 -7.347142568e-05)
(0 2.974610292e-05 -8.821869286e-05)
(0 4.707671452e-05 -6.9664542e-05)
(0 5.916440401e-05 -6.441590237e-05)
(0 7.322843322e-05 -4.816017561e-05)
(0 3.974119748e-05 -2.491293291e-05)
(0 -7.423185062e-07 -1.800622656e-05)
(0 -2.23076717e-06 -1.817012747e-05)
(0 -3.750661926e-06 -1.850174084e-05)
(0 -5.315343553e-06 -1.900487842e-05)
(0 -6.941964475e-06 -1.969097514e-05)
(0 -8.658159111e-06 -2.057527752e-05)
(0 -1.047822117e-05 -2.16787497e-05)
(0 -1.242216182e-05 -2.303093197e-05)
(0 -1.450808634e-05 -2.467089361e-05)
(0 -1.675028845e-05 -2.665485655e-05)
(0 -1.914686235e-05 -2.905810085e-05)
(0 -2.168827882e-05 -3.198258796e-05)
(0 -2.432498653e-05 -3.555600824e-05)
(0 -2.69559768e-05 -3.994893295e-05)
(0 -2.941353702e-05 -4.536719099e-05)
(0 -3.13927354e-05 -5.208331529e-05)
(0 -3.219413448e-05 -6.062807791e-05)
(0 -2.738288138e-05 -7.43090365e-05)
(0 -3.471744562e-05 -6.049371724e-05)
(0 -1.026286306e-05 -5.033091004e-05)
(0 1.880857853e-05 -3.895504561e-05)
(0 1.20743489e-05 -3.683576916e-05)
(0 1.057255948e-05 -3.506239984e-05)
(0 7.860571704e-06 -3.588476291e-05)
(0 -6.784733972e-07 -3.818223392e-05)
(0 3.073617902e-05 -5.091504514e-05)
(0 6.167628112e-05 -6.63541265e-05)
(0 6.90137041e-05 -8.898483536e-05)
(0 9.573240591e-05 -6.582430748e-05)
(0 5.327826701e-05 -3.193113071e-05)
(0 -8.19504372e-07 -1.715813456e-05)
(0 -2.46804224e-06 -1.730678887e-05)
(0 -4.148026199e-06 -1.760219158e-05)
(0 -5.882326149e-06 -1.805577772e-05)
(0 -7.692859075e-06 -1.867421768e-05)
(0 -9.608212305e-06 -1.946894631e-05)
(0 -1.165506741e-05 -2.046283359e-05)
(0 -1.385915303e-05 -2.168351397e-05)
(0 -1.625763266e-05 -2.317100966e-05)
(0 -1.888195248e-05 -2.498821296e-05)
(0 -2.176069984e-05 -2.722088596e-05)
(0 -2.491483873e-05 -2.998623672e-05)
(0 -2.833579303e-05 -3.345674244e-05)
(0 -3.197877587e-05 -3.784776126e-05)
(0 -3.575421344e-05 -4.344135503e-05)
(0 -3.964971794e-05 -5.048528098e-05)
(0 -4.615524861e-05 -5.74443978e-05)
(0 -2.127662049e-05 -3.988794594e-05)
(0 5.149536775e-06 -2.561904074e-05)
(0 1.425651736e-05 8.468529494e-06)
(0 1.881620155e-05 5.112373204e-06)
(0 1.207339581e-05 6.578904865e-06)
(0 1.057351224e-05 6.151047359e-06)
(0 7.860571586e-06 6.512201021e-06)
(0 -6.851437714e-07 5.897572742e-06)
(0 1.573257814e-06 1.081174025e-05)
(0 9.007877707e-06 -2.320245576e-05)
(0 5.96932702e-05 -5.269508403e-05)
(0 0.00013028309 -9.437926934e-05)
(0 7.363818529e-05 -4.409409977e-05)
(0 -8.900198644e-07 -1.624143316e-05)
(0 -2.67577707e-06 -1.636817049e-05)
(0 -4.500603661e-06 -1.662831545e-05)
(0 -6.385463717e-06 -1.702091522e-05)
(0 -8.35608587e-06 -1.755740474e-05)
(0 -1.044677492e-05 -1.824445431e-05)
(0 -1.269374156e-05 -1.910112225e-05)
(0 -1.512938481e-05 -2.014932555e-05)
(0 -1.781373806e-05 -2.143003933e-05)
(0 -2.079730572e-05 -2.299567384e-05)
(0 -2.414583874e-05 -2.493484992e-05)
(0 -2.792508793e-05 -2.738192806e-05)
(0 -3.218555775e-05 -3.05303495e-05)
(0 -3.694154189e-05 -3.465360003e-05)
(0 -4.205105633e-05 -4.018430161e-05)
(0 -4.539577767e-05 -4.910451141e-05)
(0 -2.159775187e-05 -2.829005328e-05)
(0 4.443428938e-06 4.812205905e-06)
(0 1.363903032e-05 7.868194883e-06)
(0 2.046664526e-05 1.538381233e-05)
(0 1.691990654e-05 1.051062003e-05)
(0 1.311302286e-05 1.192664735e-05)
(0 1.050680839e-05 1.148640199e-05)
(0 7.606144066e-06 1.219441564e-05)
(0 3.622018742e-06 1.21839336e-05)
(0 1.637102922e-06 1.894389179e-05)
(0 -1.83149698e-06 1.432703283e-05)
(0 -2.163110377e-06 9.695880215e-06)
(0 0.0001043333887 -5.513358607e-05)
(0 0.0001035748706 -9.476805732e-05)
(0 -9.481475143e-07 -1.526660435e-05)
(0 -2.85492458e-06 -1.537428344e-05)
(0 -4.79981812e-06 -1.559059445e-05)
(0 -6.812368422e-06 -1.591839621e-05)
(0 -8.915445384e-06 -1.635959452e-05)
(0 -1.115288292e-05 -1.692371845e-05)
(0 -1.355993882e-05 -1.762029717e-05)
(0 -1.618711744e-05 -1.846362439e-05)
(0 -1.910398127e-05 -1.947942863e-05)
(0 -2.238771628e-05 -2.070963812e-05)
(0 -2.614695446e-05 -2.222667418e-05)
(0 -3.051129172e-05 -2.416013274e-05)
(0 -3.560651258e-05 -2.672727787e-05)
(0 -4.16336815e-05 -3.01444206e-05)
(6.198896052e-26 -5.020417268e-05 -3.364827829e-05)
(-6.198896052e-26 -2.77545171e-05 -2.902760763e-05)
(0 7.759563033e-06 -2.881606117e-06)
(0 1.487972205e-05 7.792914947e-06)
(0 1.572209632e-05 1.39525386e-05)
(0 1.690084858e-05 1.167126711e-05)
(0 1.5357131e-05 9.610118273e-06)
(0 1.305013086e-05 9.397618881e-06)
(0 1.084128069e-05 9.479569333e-06)
(0 8.558103343e-06 1.025714557e-05)
(0 6.065285356e-06 1.172653599e-05)
(0 3.714451273e-06 1.515416075e-05)
(0 -2.410867549e-07 1.766127239e-05)
(0 -9.767348766e-06 2.410391093e-05)
(0 2.582010562e-05 2.832340564e-05)
(0 6.797502994e-05 -4.659740045e-05)
(0 -9.957931031e-07 -1.425651734e-05)
(0 -3.000720083e-06 -1.434132653e-05)
(0 -5.044716448e-06 -1.451285068e-05)
(0 -7.15446375e-06 -1.477013694e-05)
(0 -9.361408096e-06 -1.51131853e-05)
(0 -1.170747757e-05 -1.554485444e-05)
(0 -1.423269453e-05 -1.606419151e-05)
(0 -1.699042206e-05 -1.667786691e-05)
(0 -2.005975178e-05 -1.738969219e-05)
(0 -2.354359828e-05 -1.821300821e-05)
(0 -2.759633331e-05 -1.917830816e-05)
(0 -3.242569159e-05 -2.038564771e-05)
(0 -3.816984549e-05 -2.215139376e-05)
(0 -4.386158928e-05 -2.563142863e-05)
(0 -4.093329049e-05 -3.531301515e-05)
(0 -1.463005887e-05 -7.57374506e-06)
(0 1.522372309e-05 3.952679231e-06)
(0 2.12775734e-05 6.452167561e-06)
(0 1.751642949e-05 8.250312619e-06)
(0 1.612517791e-05 7.726210997e-06)
(0 1.464530546e-05 6.853343539e-06)
(0 1.298437974e-05 6.571281569e-06)
(0 1.136633507e-05 6.780922232e-06)
(0 9.852157793e-06 7.638543076e-06)
(0 8.518080908e-06 9.331867808e-06)
(0 7.570886331e-06 1.231352966e-05)
(0 7.12206474e-06 1.67426649e-05)
(0 8.498069755e-06 2.54255996e-05)
(0 3.36311254e-05 4.407313577e-05)
(0 5.077115458e-05 2.870361708e-05)
(0 -1.032956673e-06 -1.322356066e-05)
(0 -3.112210794e-06 -1.328740579e-05)
(0 -5.229581388e-06 -1.341223725e-05)
(0 -7.410797094e-06 -1.35980551e-05)
(0 -9.691115669e-06 -1.384390643e-05)
(0 -1.21048419e-05 -1.414026206e-05)
(0 -1.469390397e-05 -1.448235749e-05)
(0 -1.751166496e-05 -1.485875778e-05)
(0 -2.063721649e-05 -1.525135753e-05)
(0 -2.41772848e-05 -1.563442818e-05)
(0 -2.831959357e-05 -1.595555956e-05)
(0 -3.348342398e-05 -1.611469585e-05)
(0 -4.085324585e-05 -1.592030179e-05)
(0 -5.479530227e-05 -1.498358925e-05)
(0 -3.214648837e-05 -1.245360772e-05)
(0 1.15111777e-05 5.253404191e-06)
(0 2.178452264e-05 9.440499792e-06)
(0 1.91764023e-05 5.794658239e-06)
(0 1.699613951e-05 4.854134036e-06)
(0 1.550483216e-05 4.117533019e-06)
(0 1.420220135e-05 3.49623435e-06)
(0 1.297675644e-05 3.240853917e-06)
(0 1.190949495e-05 3.436200895e-06)
(0 1.11090488e-05 4.192813066e-06)
(0 1.074027183e-05 5.658391815e-06)
(0 1.112524832e-05 8.056871483e-06)
(0 1.287003029e-05 1.160170434e-05)
(0 1.75640751e-05 1.682652116e-05)
(0 2.909716981e-05 2.315290437e-05)
(0 3.620112918e-05 9.262305227e-06)
(0 -1.058685315e-06 -1.218774544e-05)
(0 -3.189396719e-06 -1.222967359e-05)
(0 -5.356318772e-06 -1.231257692e-05)
(0 -7.586133027e-06 -1.243264384e-05)
(0 -9.903615207e-06 -1.258034523e-05)
(0 -1.234497593e-05 -1.275091647e-05)
(0 -1.494928463e-05 -1.292434647e-05)
(0 -1.776132819e-05 -1.308062407e-05)
(0 -2.083732834e-05 -1.318544438e-05)
(0 -2.424589483e-05 -1.317877399e-05)
(0 -2.807469559e-05 -1.294531055e-05)
(0 -3.239234016e-05 -1.22477789e-05)
(0 -3.703873943e-05 -1.048775029e-05)
(0 -4.03948958e-05 -5.966182506e-06)
(0 -2.06991561e-05 6.845720348e-06)
(0 7.265954573e-06 6.85143782e-06)
(0 1.576402447e-05 4.391018845e-06)
(0 1.669216081e-05 2.411820461e-06)
(0 1.584025742e-05 1.236879873e-06)
(0 1.476727844e-05 3.830706546e-07)
(0 1.376957948e-05 -2.372751066e-07)
(0 1.292339356e-05 -5.450657067e-07)
(0 1.23173415e-05 -4.75503126e-07)
(0 1.207530181e-05 3.621065884e-08)
(0 1.238118659e-05 1.062496963e-06)
(0 1.351419906e-05 2.661483429e-06)
(0 1.589171467e-05 4.797912296e-06)
(0 2.005022296e-05 7.150652209e-06)
(0 2.606690984e-05 8.167409405e-06)
(0 3.031594474e-05 3.144609847e-06)
(0 -1.074884804e-06 -1.116812935e-05)
(0 -3.236089362e-06 -1.119099925e-05)
(0 -5.430645832e-06 -1.123483319e-05)
(0 -7.681424119e-06 -1.129391374e-05)
(0 -1.000843539e-05 -1.135775887e-05)
(0 -1.244789025e-05 -1.141302775e-05)
(0 -1.502456446e-05 -1.144161511e-05)
(0 -1.777276287e-05 -1.141112194e-05)
(0 -2.073536643e-05 -1.128438462e-05)
(0 -2.393715096e-05 -1.099755809e-05)
(0 -2.738955139e-05 -1.045153949e-05)
(0 -3.102491086e-05 -9.489098298e-06)
(0 -3.457260246e-05 -7.851042466e-06)
(0 -3.746087896e-05 -5.267697876e-06)
(0 -1.932791533e-05 -2.62622564e-06)
(0 9.057429138e-06 -2.627178552e-06)
(0 1.734490534e-05 -1.152070682e-06)
(0 1.60232163e-05 -1.781945553e-06)
(0 1.496643682e-05 -2.716752284e-06)
(0 1.402877137e-05 -3.60010177e-06)
(0 1.327215918e-05 -4.298586305e-06)
(0 1.273948134e-05 -4.723585084e-06)
(0 1.249267713e-05 -4.842699098e-06)
(0 1.264609595e-05 -4.642587558e-06)
(0 1.336649747e-05 -4.114674277e-06)
(0 1.486256943e-05 -3.277064581e-06)
(0 1.735824609e-05 -2.216473453e-06)
(0 2.093357214e-05 -1.198763372e-06)
(0 2.50911275e-05 -7.880582751e-07)
(0 2.816808051e-05 -1.789568849e-06)
(0 -1.082508106e-06 -1.017614794e-05)
(0 -3.25610053e-06 -1.018281834e-05)
(0 -5.459233219e-06 -1.019425327e-05)
(0 -7.708105691e-06 -1.019997074e-05)
(0 -1.002272911e-05 -1.019330037e-05)
(0 -1.242978497e-05 -1.015423096e-05)
(0 -1.494833156e-05 -1.006179849e-05)
(0 -1.76031446e-05 -9.886462686e-06)
(0 -2.042281137e-05 -9.587248283e-06)
(0 -2.341495525e-05 -9.113650987e-06)
(0 -2.65671884e-05 -8.415166456e-06)
(0 -2.978993697e-05 -7.441290313e-06)
(0 -3.28173386e-05 -6.186305124e-06)
(0 -3.517103143e-05 -4.643540496e-06)
(0 -1.805768363e-05 -1.979198359e-06)
(0 8.739156549e-06 -1.977292535e-06)
(0 1.660925731e-05 -4.601612365e-06)
(0 1.512843194e-05 -5.683167554e-06)
(0 1.402210103e-05 -6.730417913e-06)
(0 1.318544426e-05 -7.786244492e-06)
(0 1.264704892e-05 -8.642912427e-06)
(0 1.237928063e-05 -9.220377138e-06)
(0 1.239738598e-05 -9.541508518e-06)
(0 1.280237359e-05 -9.66443416e-06)
(0 1.374766236e-05 -9.620600205e-06)
(0 1.541144685e-05 -9.448123136e-06)
(0 1.797001572e-05 -9.215612578e-06)
(0 2.147768503e-05 -8.961185057e-06)
(0 2.547610409e-05 -8.365615029e-06)
(0 2.829672376e-05 -6.751381978e-06)
(0 -1.082508107e-06 -9.226094624e-06)
(0 -3.253241799e-06 -9.220377166e-06)
(0 -5.449704106e-06 -9.204177647e-06)
(0 -7.678565429e-06 -9.170825725e-06)
(0 -9.963648578e-06 -9.106027718e-06)
(0 -1.231543554e-05 -8.995489904e-06)
(0 -1.475584334e-05 -8.812530788e-06)
(0 -1.729916567e-05 -8.528563005e-06)
(0 -1.996255487e-05 -8.10356421e-06)
(0 -2.276506926e-05 -7.497512136e-06)
(0 -2.571719088e-05 -6.683725242e-06)
(0 -2.879509681e-05 -5.701272892e-06)
(0 -3.177485285e-05 -4.826499615e-06)
(0 -3.325472532e-05 -5.157160107e-06)
(0 -1.666166748e-05 -1.06611802e-05)
(0 6.434062273e-06 -1.066403894e-05)
(0 1.363903042e-05 -9.604400725e-06)
(0 1.389536375e-05 -9.63012934e-06)
(0 1.286240707e-05 -1.074980102e-05)
(0 1.211627694e-05 -1.218202787e-05)
(0 1.183897951e-05 -1.328740585e-05)
(0 1.184088533e-05 -1.399160787e-05)
(0 1.204766727e-05 -1.446520519e-05)
(0 1.256891015e-05 -1.487209862e-05)
(0 1.358185568e-05 -1.527994498e-05)
(0 1.526755715e-05 -1.571066126e-05)
(0 1.784518426e-05 -1.626906771e-05)
(0 2.178356983e-05 -1.709428955e-05)
(0 2.730188365e-05 -1.699709255e-05)
(0 3.063517001e-05 -1.099184068e-05)
(0 -1.075837721e-06 -8.33035727e-06)
(0 -3.234183552e-06 -8.313204865e-06)
(0 -5.408728879e-06 -8.276994194e-06)
(0 -7.609002837e-06 -8.214101998e-06)
(0 -9.848346204e-06 -8.110234595e-06)
(0 -1.213533514e-05 -7.949192444e-06)
(0 -1.448235756e-05 -7.706199867e-06)
(0 -1.689417802e-05 -7.349810766e-06)
(0 -1.939176052e-05 -6.838096976e-06)
(0 -2.199511628e-05 -6.125318752e-06)
(0 -2.477094916e-05 -5.15144263e-06)
(0 -2.793461718e-05 -3.874540455e-06)
(0 -3.227131998e-05 -2.285083131e-06)
(0 -4.10047591e-05 -5.059963069e-07)
(0 -2.356551537e-05 9.233717911e-07)
(0 9.79593603e-06 -8.460906226e-06)
(0 1.764507272e-05 -1.352753968e-05)
(0 1.398112581e-05 -1.249077134e-05)
(0 1.147020252e-05 -1.44699697e-05)
(0 1.064783943e-05 -1.692752994e-05)
(0 1.083746891e-05 -1.835118054e-05)
(0 1.120243423e-05 -1.90191719e-05)
(0 1.151594232e-05 -1.947847554e-05)
(0 1.198763377e-05 -2.011311495e-05)
(0 1.290909974e-05 -2.094977174e-05)
(0 1.442327703e-05 -2.188743725e-05)
(0 1.658448157e-05 -2.310335301e-05)
(0 2.075061312e-05 -2.619936431e-05)
(0 3.157855296e-05 -3.159189373e-05)
(0 3.648986169e-05 -1.648251998e-05)
(0 -1.065355688e-06 -7.487983004e-06)
(0 -3.201784542e-06 -7.465113126e-06)
(0 -5.349648331e-06 -7.417467512e-06)
(0 -7.512758718e-06 -7.334564162e-06)
(0 -9.697786097e-06 -7.20877978e-06)
(0 -1.191330663e-05 -7.021056093e-06)
(0 -1.415646163e-05 -6.748523242e-06)
(0 -1.643106276e-05 -6.357829305e-06)
(0 -1.873806284e-05 -5.808951946e-06)
(0 -2.107841487e-05 -5.038046086e-06)
(0 -2.346641254e-05 -3.953632162e-06)
(0 -2.592778437e-05 -2.383233074e-06)
(0 -2.840630865e-05 5.526889975e-08)
(0 -3.004722326e-05 4.490121654e-06)
(0 -2.461753029e-05 1.487781607e-05)
(0 -8.015896292e-06 1.799097979e-06)
(0 9.608212359e-06 -8.004461352e-06)
(0 1.29529337e-05 -1.234783453e-05)
(0 8.428507212e-06 -1.771844693e-05)
(0 8.234113163e-06 -2.271837657e-05)
(0 9.748290422e-06 -2.419157859e-05)
(0 1.071263743e-05 -2.427352902e-05)
(0 1.095277129e-05 -2.434690329e-05)
(0 1.109856682e-05 -2.519023043e-05)
(0 1.180753339e-05 -2.655861216e-05)
(0 1.311302294e-05 -2.783170272e-05)
(0 1.353325714e-05 -2.811662338e-05)
(0 1.329502913e-05 -3.308034233e-05)
(0 3.701872795e-05 -5.161924662e-05)
(0 5.058247822e-05 -3.866059538e-05)
(0 -1.052967833e-06 -6.705642209e-06)
(0 -3.162715152e-06 -6.680866506e-06)
(0 -5.279132846e-06 -6.62750342e-06)
(0 -7.401268018e-06 -6.538882598e-06)
(0 -9.533885236e-06 -6.405474918e-06)
(0 -1.167603155e-05 -6.213939583e-06)
(0 -1.381722496e-05 -5.94045382e-06)
(0 -1.595555966e-05 -5.559289002e-06)
(0 -1.807197733e-05 -5.029469885e-06)
(0 -2.013789069e-05 -4.290963034e-06)
(0 -2.211613618e-05 -3.258006359e-06)
(0 -2.392762198e-05 -1.779086827e-06)
(0 -2.539891821e-05 3.821177385e-07)
(0 -2.618125904e-05 3.530539209e-06)
(0 -2.625558617e-05 7.388880164e-06)
(0 -1.308729432e-05 6.559846666e-06)
(0 3.498140198e-06 -1.938223145e-06)
(0 4.269046056e-06 -1.117670562e-05)
(0 1.0977547e-06 -2.134523028e-05)
(0 4.173754856e-06 -3.204929157e-05)
(0 9.282316436e-06 -3.144514527e-05)
(0 1.104710958e-05 -2.95679085e-05)
(0 1.060209966e-05 -2.847873005e-05)
(0 9.775924887e-06 -2.978326663e-05)
(0 1.026572169e-05 -3.231038943e-05)
(0 1.286431291e-05 -3.482798316e-05)
(0 1.133870067e-05 -2.851303484e-05)
(0 -2.752010047e-06 -2.646808555e-05)
(0 2.599829994e-05 -3.205596195e-05)
(0 6.539930801e-05 3.060848848e-05)
)
;

boundaryField
{
    lowerWall
    {
        type            calculated;
        value           nonuniform 0();
    }
    atmosphere
    {
        type            calculated;
        value           nonuniform List<vector> 
20
(
(0 0 -2.117275307e-05)
(0 0 -2.105459229e-05)
(0 0 -2.082303434e-05)
(0 0 -2.047522144e-05)
(0 0 -2.001401231e-05)
(0 0 -1.944321768e-05)
(0 0 -1.877236759e-05)
(0 0 -1.800622656e-05)
(0 0 -1.715813456e-05)
(0 0 -1.624143316e-05)
(0 0 -1.526660435e-05)
(0 0 -1.425651734e-05)
(0 0 -1.322356066e-05)
(0 0 -1.218774544e-05)
(0 0 -1.116812935e-05)
(0 0 -1.017614794e-05)
(0 0 -9.226094624e-06)
(0 0 -8.33035727e-06)
(0 0 -7.487983004e-06)
(0 0 -6.705642209e-06)
)
;
    }
    rightWall
    {
        type            empty;
    }
    leftWall
    {
        type            empty;
    }
    frontAndBack
    {
        type            calculated;
        value           nonuniform List<vector> 
30
(
(0 -5.336307538e-08 -2.120032139e-05)
(0 -1.600892264e-07 -2.141518951e-05)
(0 -2.668153769e-07 -2.183980985e-05)
(0 -3.764002639e-07 -2.248100361e-05)
(0 -4.869380636e-07 -2.334559201e-05)
(0 -6.031933342e-07 -2.443186974e-05)
(0 -7.194486056e-07 -2.575518452e-05)
(0 -8.366567903e-07 -2.731042046e-05)
(0 -9.567237087e-07 -2.910269344e-05)
(0 -1.070120244e-06 -3.113370879e-05)
(0 -1.176846396e-06 -3.338641347e-05)
(0 -1.270231777e-06 -3.584204915e-05)
(0 -1.338841445e-06 -3.846480448e-05)
(0 -1.376005017e-06 -4.120010978e-05)
(-1.239779192e-25 -1.364570071e-06 -4.396611053e-05)
(1.239779192e-25 -1.296913315e-06 -4.666048857e-05)
(0 -1.155882331e-06 -4.915193561e-05)
(0 -9.405242036e-07 -5.128697441e-05)
(0 -6.489331131e-07 -5.291212775e-05)
(0 -2.963556512e-07 -5.388415021e-05)
(0 1.010086784e-07 -5.409560772e-05)
(0 5.250545453e-07 -5.34816988e-05)
(0 9.767348634e-07 -5.199467497e-05)
(0 1.468437485e-06 -4.957144004e-05)
(0 2.005879887e-06 -4.612331827e-05)
(0 2.579532951e-06 -4.155140211e-05)
(0 3.160809304e-06 -3.579941659e-05)
(0 3.69062841e-06 -2.891340486e-05)
(0 4.118485931e-06 -2.103661235e-05)
(0 2.149769608e-06 -1.243847685e-05)
)
;
    }
    procBoundary0to1
    {
        type            processor;
        value           nonuniform List<vector> 
20
(
(0 6.670384393e-08 -1.254127557e-05)
(0 2.086877434e-07 -1.296913328e-05)
(0 3.764002622e-07 -1.385724712e-05)
(0 5.917583869e-07 -1.527994482e-05)
(0 8.966902583e-07 -1.737825743e-05)
(0 1.365522976e-06 -2.042090536e-05)
(0 2.164063279e-06 -2.491007406e-05)
(0 3.699204657e-06 -3.192636601e-05)
(0 7.082995313e-06 -4.408266463e-05)
(0 1.582501052e-05 -6.079769501e-05)
(0 6.826090325e-05 -2.447935818e-05)
(0 4.28553139e-05 1.2298283e-05)
(0 3.498616614e-05 2.696741119e-06)
(0 3.112973152e-05 1.372193381e-07)
(0 2.924868265e-05 -2.808231829e-06)
(0 2.918007311e-05 -5.897572742e-06)
(0 3.073522564e-05 -8.804907451e-06)
(0 3.347389486e-05 -1.16464912e-05)
(0 3.95925432e-05 -2.27078944e-05)
(0 6.487139443e-05 1.036958906e-05)
)
;
    }
    procBoundary0to2
    {
        type            processor;
        value           nonuniform List<vector> 
30
(
(0 -1.040579975e-06 -5.983334854e-06)
(0 -3.123645753e-06 -5.95855915e-06)
(0 -5.206711522e-06 -5.906148977e-06)
(0 -7.290730207e-06 -5.820386891e-06)
(0 -9.37189017e-06 -5.693649595e-06)
(0 -1.144733263e-05 -5.514502118e-06)
(0 -1.350181104e-05 -5.269603718e-06)
(0 -1.551912591e-05 -4.935131591e-06)
(0 -1.747164271e-05 -4.482498352e-06)
(0 -1.930790426e-05 -3.865964247e-06)
(0 -2.095358342e-05 -3.027401634e-06)
(0 -2.228766028e-05 -1.874378031e-06)
(0 -2.309763554e-05 -2.887323556e-07)
(0 -2.304046084e-05 1.846743583e-06)
(0 -2.158726992e-05 4.583507033e-06)
(0 -1.73439525e-05 8.390390734e-06)
(0 -8.127387008e-06 1.341700189e-06)
(0 -6.455979238e-06 -5.50116135e-06)
(0 -1.244407865e-05 -3.204833856e-05)
(0 -1.863896001e-06 -5.270651929e-05)
(0 1.222967344e-05 -3.999371936e-05)
(0 1.367905269e-05 -3.410567571e-05)
(0 1.073741316e-05 -3.025876975e-05)
(0 7.265001581e-06 -3.319945633e-05)
(0 6.763769835e-06 -3.813268209e-05)
(0 1.691133044e-05 -5.072065054e-05)
(0 2.189220177e-05 -3.584569314e-05)
(0 9.753054982e-06 -8.901151596e-06)
(0 9.409434906e-05 3.604866346e-05)
(0 9.300802916e-05 7.088331685e-05)
)
;
    }
}


// ************************************************************************* //
