/*--------------------------------*- C++ -*----------------------------------*\
  =========                 |
  \\      /  F ield         | OpenFOAM: The Open Source CFD Toolbox
   \\    /   O peration     | Website:  https://openfoam.org
    \\  /    A nd           | Version:  6
     \\/     M anipulation  |
\*---------------------------------------------------------------------------*/
FoamFile
{
    version     2.0;
    format      ascii;
    class       volScalarField;
    location    "0.0039";
    object      Num_divU;
}
// * * * * * * * * * * * * * * * * * * * * * * * * * * * * * * * * * * * * * //

dimensions      [0 0 -1 0 0 0 0];

internalField   nonuniform List<scalar> 
600
(
1.566490332e-09
1.220651771e-09
-4.539334583e-09
-1.081161092e-08
-1.837898169e-08
-2.732422284e-08
-3.791665769e-08
-5.041659193e-08
-6.504067574e-08
-8.19994215e-08
-1.014150182e-07
-1.23344849e-07
-1.477963731e-07
-1.749427996e-07
-2.050768987e-07
-2.378537652e-07
-2.70186302e-07
-2.94062727e-07
-2.985946946e-07
-2.827886454e-07
-2.674320044e-07
-2.620725362e-07
-2.543511089e-07
-2.459634837e-07
-2.555504665e-07
-3.058069666e-07
-3.810621339e-07
-4.847528369e-07
-5.531550652e-07
-1.610777792e-07
1.767237915e-09
1.685418799e-09
-3.878989413e-09
-1.003844299e-08
-1.756270983e-08
-2.657632523e-08
-3.749117131e-08
-5.067074096e-08
-6.657140518e-08
-8.554797704e-08
-1.078961816e-07
-1.335595086e-07
-1.622675862e-07
-1.935696459e-07
-2.274280644e-07
-2.641076395e-07
-3.029091774e-07
-3.3772311e-07
-3.527306666e-07
-3.359525669e-07
-3.176392427e-07
-3.109886768e-07
-2.900304813e-07
-2.564141987e-07
-2.265129583e-07
-2.387344938e-07
-2.807362404e-07
-3.658003304e-07
-5.07058452e-07
-1.445341627e-07
1.934080477e-09
1.90234415e-09
-3.887914208e-09
-1.037935936e-08
-1.839553342e-08
-2.821746409e-08
-4.036647732e-08
-5.54731663e-08
-7.418853549e-08
-9.714325425e-08
-1.246669433e-07
-1.566024856e-07
-1.920582604e-07
-2.297970801e-07
-2.691628905e-07
-3.121416131e-07
-3.629928622e-07
-4.207454229e-07
-4.549321493e-07
-4.193317353e-07
-3.861298652e-07
-3.851057689e-07
-3.433434732e-07
-2.692295393e-07
-1.744907701e-07
-1.511045182e-07
-1.725383568e-07
-2.333828193e-07
-3.686855163e-07
-2.487207368e-08
2.06909675e-09
1.943099163e-09
-4.375500611e-09
-1.151706709e-08
-2.047220993e-08
-3.16532867e-08
-4.582174543e-08
-6.385887839e-08
-8.67605612e-08
-1.154431821e-07
-1.504967796e-07
-1.916854153e-07
-2.37491108e-07
-2.849006828e-07
-3.310771043e-07
-3.785228735e-07
-4.416085957e-07
-5.411474024e-07
-6.251699208e-07
-5.427151123e-07
-4.765428342e-07
-4.996913415e-07
-4.246571336e-07
-3.018008659e-07
-1.020477034e-07
-4.528229534e-08
-4.698440404e-08
-5.114492545e-08
-1.552873966e-07
1.763865676e-07
2.163359322e-09
1.761576733e-09
-5.349056054e-09
-1.347095347e-08
-2.376537207e-08
-3.685598351e-08
-5.374212487e-08
-7.562735792e-08
-1.038556466e-07
-1.39795817e-07
-1.845596658e-07
-2.384125863e-07
-2.995791536e-07
-3.62456076e-07
-4.177751217e-07
-4.618501552e-07
-5.196661435e-07
-6.836535502e-07
-8.985959982e-07
-7.265185636e-07
-6.078508556e-07
-6.563624877e-07
-5.176241937e-07
-3.626710847e-07
-3.497904101e-08
5.244818401e-08
7.177771755e-08
2.19594449e-07
1.271836219e-07
4.516582336e-07
2.19034665e-09
1.330252754e-09
-6.829882556e-09
-1.622769279e-08
-2.825824729e-08
-4.377154112e-08
-6.403753557e-08
-9.053854363e-08
-1.249474297e-07
-1.691216142e-07
-2.250847439e-07
-2.946895938e-07
-3.777611528e-07
-4.674040983e-07
-5.424119708e-07
-5.737356162e-07
-5.638002688e-07
-7.886159732e-07
-1.232642325e-06
-1.28390344e-06
-1.359443932e-06
-5.633011455e-07
-4.423507256e-07
-2.000973476e-07
-6.347382469e-07
-1.40004636e-07
1.860532153e-07
6.800316161e-07
5.255127797e-07
7.945481731e-07
2.129158957e-09
6.078869115e-10
-8.827815525e-09
-1.978327351e-08
-3.392253511e-08
-5.237076656e-08
-7.665937869e-08
-1.084818922e-07
-1.496558958e-07
-2.022735289e-07
-2.692462504e-07
-3.550685372e-07
-4.653033875e-07
-5.997881894e-07
-7.290905689e-07
-7.76598546e-07
-5.75630239e-07
-8.817814648e-07
-7.369784987e-07
-2.067212898e-06
-2.386494094e-06
-5.243207029e-07
-1.111801019e-07
-9.397365874e-08
-1.420529867e-06
-4.276654582e-07
5.429012955e-07
1.700896054e-06
1.258874625e-06
1.215432858e-06
1.950799227e-09
-4.461611863e-10
-1.135088162e-08
-2.409476613e-08
-4.067793802e-08
-6.256101041e-08
-9.157805297e-08
-1.295767111e-07
-1.782420244e-07
-2.391680053e-07
-3.147560032e-07
-4.1093039e-07
-5.419114015e-07
-7.316372685e-07
-9.716444925e-07
-1.161162967e-06
-1.037430514e-06
-4.53794194e-07
3.36551207e-07
-2.197209968e-06
-1.936116464e-06
6.545528136e-08
4.78240739e-07
3.329058663e-07
-1.191569639e-06
-2.734980252e-06
1.072510007e-06
3.878602676e-06
3.658903102e-06
1.884666565e-06
1.615853351e-09
-1.894934477e-09
-1.439886613e-08
-2.906039383e-08
-4.829303001e-08
-7.401784955e-08
-1.085167281e-07
-1.53954383e-07
-2.118764245e-07
-2.82608928e-07
-3.650924261e-07
-4.596732032e-07
-5.802855424e-07
-7.903967533e-07
-1.16691473e-06
-1.758413566e-06
-2.369239245e-06
4.593311157e-07
2.721522708e-06
2.691152294e-12
1.380567007e-11
2.042777192e-11
2.661568241e-11
2.727189296e-11
-2.524148335e-12
-9.507720863e-12
3.652758051e-06
1.261791769e-06
4.385355388e-06
3.72465217e-06
1.044191392e-09
-3.8665506e-09
-1.800362175e-08
-3.450139762e-08
-5.629924545e-08
-8.593120423e-08
-1.264074705e-07
-1.807405324e-07
-2.512902624e-07
-3.381630919e-07
-4.357327948e-07
-5.26980876e-07
-5.809830404e-07
-6.091962466e-07
-1.048709112e-06
-2.320470058e-06
-4.144024255e-06
-1.847707317e-11
-1.009046253e-11
3.192027657e-13
7.488783103e-12
1.185542056e-11
1.869836769e-11
1.138477084e-11
-8.84652718e-13
-3.533243946e-11
-2.816222994e-11
1.06021605e-11
6.124697823e-06
-6.788986504e-13
3.790766252e-11
-6.685524316e-09
-2.234167622e-08
-4.02510229e-08
-6.400614165e-08
-9.686684239e-08
-1.427533074e-07
-2.061714018e-07
-2.922174059e-07
-4.0605087e-07
-5.495787733e-07
-7.102514685e-07
-8.283536708e-07
-9.006029409e-07
-5.380581716e-07
4.184609586e-07
-6.542611751e-12
-9.245001758e-12
-6.938320903e-12
-5.068515713e-13
3.751789036e-12
6.003019776e-12
1.021371355e-11
1.161773982e-11
-8.902463854e-12
-1.973274985e-11
6.43153037e-14
-1.39324765e-11
-1.643219554e-11
-2.7430289e-11
-1.955702332e-09
-1.114167989e-08
-2.795344609e-08
-4.633405021e-08
-7.076425057e-08
-1.051362698e-07
-1.539611194e-07
-2.227072947e-07
-3.189320838e-07
-4.547856955e-07
-6.514635766e-07
-9.420405937e-07
-1.290827808e-06
-7.641338512e-07
4.950141061e-07
2.574744659e-06
-3.884455944e-12
-7.986457766e-12
-5.469901474e-12
-9.963835215e-13
1.320787646e-12
1.007890229e-12
1.870124337e-12
2.881648664e-12
-2.859045144e-12
-1.3539072e-11
-6.813016049e-12
-1.014306187e-11
-2.261146561e-11
-1.109974086e-11
-6.599133095e-09
-1.909967277e-08
-3.605693492e-08
-5.319994216e-08
-7.638472854e-08
-1.099073339e-07
-1.580397254e-07
-2.252988927e-07
-3.166454643e-07
-4.378746035e-07
-5.965575741e-07
-8.104865692e-07
-1.360829095e-06
-2.12204065e-06
-2.207097235e-06
-2.982549745e-12
-7.802018246e-12
-9.681233933e-12
-7.539156065e-12
-4.091432027e-12
-2.910127907e-12
-3.703023344e-12
-3.232892431e-12
-9.949442242e-13
-2.443972804e-12
-5.245260215e-12
-5.166150208e-12
-1.101197617e-11
-1.205979451e-11
-1.770198869e-11
-1.955379706e-08
-3.489404376e-08
-4.880997007e-08
-6.160910559e-08
-8.114099347e-08
-1.117144946e-07
-1.570885122e-07
-2.210302654e-07
-3.072721518e-07
-4.18653552e-07
-5.554299817e-07
-7.325802966e-07
-1.501822866e-06
-2.475496619e-06
-1.987405676e-06
-7.910346114e-12
-1.275769736e-11
-1.441652597e-11
-1.282208447e-11
-1.036225709e-11
-9.228204046e-12
-9.036683265e-12
-6.518021498e-12
-8.610042372e-13
3.026588576e-12
2.713681243e-12
2.086023679e-12
-2.453030414e-12
-9.119923019e-12
-8.958703609e-12
-5.832505972e-08
-6.747456181e-08
-6.874344781e-08
-7.173151711e-08
-8.469233651e-08
-1.103694405e-07
-1.513926329e-07
-2.116254408e-07
-2.973926092e-07
-4.194337502e-07
-5.942264527e-07
-8.271521535e-07
-7.816545377e-07
-8.151834932e-07
1.850996929e-08
-1.170188206e-11
-1.814667807e-11
-2.061369172e-11
-1.861147469e-11
-1.606793319e-11
-1.489325126e-11
-1.217809075e-11
-5.06790096e-12
3.794048904e-12
1.02971878e-11
1.328355427e-11
9.330634629e-12
4.03203342e-12
-3.823844371e-13
-1.261799221e-11
-2.309604468e-07
-1.471869603e-07
-9.702664616e-08
-8.141934915e-08
-8.527322951e-08
-1.043000936e-07
-1.378166182e-07
-1.875612001e-07
-2.579518684e-07
-3.576511318e-07
-5.008770103e-07
-6.906642343e-07
-5.971265829e-07
-5.54461458e-07
1.935021394e-07
-1.355392913e-11
-1.928726367e-11
-1.997008902e-11
-2.281882727e-11
-2.23539493e-11
-1.888100492e-11
-1.227484948e-11
-4.44528546e-13
1.110790754e-11
1.699328737e-11
1.367454031e-11
1.640892592e-11
1.131107964e-11
7.847398079e-13
-2.622121501e-13
-2.622914945e-07
-1.608728612e-07
-9.95996388e-08
-7.930219854e-08
-7.932227644e-08
-9.299917027e-08
-1.175307765e-07
-1.514787146e-07
-1.933612494e-07
-2.400941709e-07
-2.84951095e-07
-3.352957035e-07
-9.586656268e-07
-1.669127816e-06
-1.37166612e-06
-1.019590102e-11
-1.392447261e-11
-2.5287365e-11
-2.387432011e-11
-2.305341479e-11
-2.028398754e-11
-9.059081894e-12
4.977785076e-12
1.525045296e-11
1.675080122e-11
2.682699004e-11
1.501765671e-11
1.434938762e-11
1.944265581e-11
-1.015667264e-11
-9.944327414e-08
-8.606563305e-08
-6.946574325e-08
-6.336226471e-08
-6.704841934e-08
-7.866436043e-08
-9.628043936e-08
-1.177997978e-07
-1.40652385e-07
-1.61860165e-07
-1.792572092e-07
-1.986465578e-07
-4.740551033e-07
-7.186396394e-07
-2.183134184e-06
-4.695752179e-12
-1.103627663e-11
-8.072760575e-12
-3.564002336e-11
-3.455076545e-11
-2.179663984e-11
-3.519401715e-12
1.329854191e-11
1.87060834e-11
1.949109928e-11
-3.530322748e-12
4.30767018e-11
3.670015073e-11
-3.17981065e-11
1.947114607e-11
-1.415829312e-08
-3.147777286e-08
-3.799506712e-08
-4.417909164e-08
-5.269401975e-08
-6.384049185e-08
-7.639254812e-08
-8.845947495e-08
-9.810188767e-08
-1.058341775e-07
-1.192625986e-07
-1.583758442e-07
-1.979331917e-07
4.809019099e-07
1.338344893e-06
3.729776213e-06
5.383111979e-12
-6.369491209e-11
-6.225078258e-11
-4.901457782e-11
-2.387591932e-11
-1.182233228e-13
1.330224376e-11
7.281010063e-12
-1.376156047e-11
9.258140143e-11
8.467160265e-11
-5.297292671e-12
4.134882186e-11
-4.341859004e-11
4.400855912e-08
9.471370915e-09
-1.137121308e-08
-2.653802347e-08
-3.919447397e-08
-5.00417126e-08
-5.777917763e-08
-5.897758362e-08
-4.795170165e-08
-1.525591457e-08
5.666133179e-08
2.074066017e-07
5.382788226e-07
1.173399936e-06
2.922888741e-06
2.112622091e-06
-3.953467009e-11
-4.854855367e-11
-7.138070021e-11
-6.150942311e-11
-1.445840227e-11
1.562639855e-11
2.058736656e-11
4.508269189e-12
7.108886814e-11
1.019989643e-10
1.075936983e-10
5.031876649e-11
-2.428171201e-11
9.72044786e-11
)
;

boundaryField
{
    lowerWall
    {
        type            calculated;
        value           nonuniform 0();
    }
    atmosphere
    {
        type            calculated;
        value           nonuniform List<scalar> 
20
(
1.566490332e-09
1.767237915e-09
1.934080477e-09
2.06909675e-09
2.163359322e-09
2.19034665e-09
2.129158957e-09
1.950799227e-09
1.615853351e-09
1.044191392e-09
3.790766252e-11
-1.955702332e-09
-6.599133095e-09
-1.955379706e-08
-5.832505972e-08
-2.309604468e-07
-2.622914945e-07
-9.944327414e-08
-1.415829312e-08
4.400855912e-08
)
;
    }
    rightWall
    {
        type            empty;
    }
    leftWall
    {
        type            empty;
    }
    frontAndBack
    {
        type            calculated;
        value           nonuniform List<scalar> 
30
(
1.566490332e-09
1.220651771e-09
-4.539334583e-09
-1.081161092e-08
-1.837898169e-08
-2.732422284e-08
-3.791665769e-08
-5.041659193e-08
-6.504067574e-08
-8.19994215e-08
-1.014150182e-07
-1.23344849e-07
-1.477963731e-07
-1.749427996e-07
-2.050768987e-07
-2.378537652e-07
-2.70186302e-07
-2.94062727e-07
-2.985946946e-07
-2.827886454e-07
-2.674320044e-07
-2.620725362e-07
-2.543511089e-07
-2.459634837e-07
-2.555504665e-07
-3.058069666e-07
-3.810621339e-07
-4.847528369e-07
-5.531550652e-07
-1.610777792e-07
)
;
    }
    procBoundary0to1
    {
        type            processor;
        value           nonuniform List<scalar> 
20
(
1.645868025e-11
1.698943098e-11
1.721838543e-11
1.730500087e-11
1.754237386e-11
2.340911737e-11
2.500726449e-11
-3.947732676e-13
1.277488762e-11
-4.774429139e-11
-1.173370754e-11
-2.289970961e-11
-1.658344469e-11
-2.168220534e-11
-1.440062372e-11
-1.972500737e-11
-4.19652449e-12
-2.818476932e-11
3.681636365e-11
-4.202293239e-11
)
;
    }
    procBoundary0to2
    {
        type            processor;
        value           nonuniform List<scalar> 
30
(
8.248869629e-08
3.76406493e-08
8.215992881e-09
-1.29429106e-08
-2.853056628e-08
-3.923582111e-08
-4.309488023e-08
-3.526254733e-08
-6.774976882e-09
5.763543113e-08
1.845538613e-07
4.206475813e-07
8.437400432e-07
1.51935029e-06
2.071708924e-06
2.195829647e-06
-1.333897968e-06
-7.674564424e-11
-8.107608531e-11
-4.466798752e-11
3.604978552e-12
3.601422359e-11
3.200379521e-11
6.925535963e-12
2.853248469e-11
1.498170835e-10
8.992091796e-11
2.491469952e-11
1.54584789e-06
-4.155813154e-11
)
;
    }
}


// ************************************************************************* //
