/*--------------------------------*- C++ -*----------------------------------*\
  =========                 |
  \\      /  F ield         | OpenFOAM: The Open Source CFD Toolbox
   \\    /   O peration     | Website:  https://openfoam.org
    \\  /    A nd           | Version:  6
     \\/     M anipulation  |
\*---------------------------------------------------------------------------*/
FoamFile
{
    version     2.0;
    format      ascii;
    class       volVectorField;
    location    "0.0026";
    object      gradT;
}
// * * * * * * * * * * * * * * * * * * * * * * * * * * * * * * * * * * * * * //

dimensions      [0 -1 0 1 0 0 0];

internalField   nonuniform List<vector> 
9600
(
(0 -3.430483361e-08 -0.0001608058134)
(0 -9.910285324e-08 -0.0001609354104)
(0 -1.677125199e-07 -0.0001612022248)
(0 -2.401338353e-07 -0.0001616024478)
(0 -2.973085597e-07 -0.0001621437029)
(0 -3.697298733e-07 -0.0001628183636)
(0 -4.421511887e-07 -0.0001636226214)
(0 -4.993259144e-07 -0.0001645640995)
(0 -5.717472268e-07 -0.0001656466066)
(0 -6.479801904e-07 -0.000166866334)
(0 -7.127782137e-07 -0.0001682232817)
(0 -7.813878767e-07 -0.0001697174468)
(0 -8.53809192e-07 -0.0001713488322)
(0 -9.224188648e-07 -0.000173117438)
(0 -9.910285265e-07 -0.0001750385077)
(0 -1.063449842e-06 -0.0001770853627)
(0 -1.128247868e-06 -0.0001792732499)
(0 -1.204480824e-06 -0.0001816097891)
(0 -1.27690214e-06 -0.0001840949837)
(0 -1.349323463e-06 -0.0001867135872)
(0 -1.425556419e-06 -0.0001894884659)
(0 -1.490354438e-06 -0.0001924081884)
(0 -1.566587411e-06 -0.0001954651314)
(0 -1.646632013e-06 -0.000198674538)
(0 -1.71524168e-06 -0.0002020364117)
(0 -1.791474655e-06 -0.0002055469409)
(0 -1.871519256e-06 -0.0002092099336)
(0 -1.947752219e-06 -0.0002130292051)
(0 -2.020173547e-06 -0.0002169933205)
(0 -2.100218147e-06 -0.0002211175225)
(0 -2.17645111e-06 -0.0002253827568)
(0 -2.248872439e-06 -0.000229815705)
(0 -2.328917037e-06 -0.0002343973048)
(0 -2.401338353e-06 -0.0002391275601)
(0 -2.489006276e-06 -0.0002440217179)
(0 -2.569050873e-06 -0.0002490797735)
(0 -2.645283836e-06 -0.0002542902966)
(0 -2.71389352e-06 -0.0002596418522)
(0 -2.793938115e-06 -0.0002651573056)
(0 -2.870171079e-06 -0.000270829038)
(0 -2.94640406e-06 -0.0002766418032)
(0 -3.022637006e-06 -0.0002826146542)
(0 -3.095058321e-06 -0.0002887323495)
(0 -3.163668007e-06 -0.0002949910776)
(0 -3.236089304e-06 -0.0003013984564)
(0 -3.308510619e-06 -0.0003079430564)
(0 -3.377120307e-06 -0.0003146286892)
(0 -3.449541602e-06 -0.0003214591608)
(0 -3.502904676e-06 -0.0003284077954)
(0 -3.56007942e-06 -0.0003354745932)
(0 -3.62106577e-06 -0.0003426671713)
(0 -3.678240493e-06 -0.0003499702892)
(0 -3.727791941e-06 -0.0003573801354)
(0 -3.769720049e-06 -0.0003648814569)
(0 -3.811648186e-06 -0.0003724704491)
(0 -3.845953022e-06 -0.0003801318621)
(0 -3.880257853e-06 -0.0003878656961)
(0 -3.90693939e-06 -0.000395656705)
(0 -3.910751041e-06 -0.0004034820189)
(0 -3.922185983e-06 -0.0004113302023)
(0 -3.929809279e-06 -0.0004191898209)
(0 -3.914562689e-06 -0.000427045628)
(0 -3.903127742e-06 -0.0004348747531)
(0 -3.872634557e-06 -0.0004426581387)
(0 -3.830706429e-06 -0.0004503729149)
(0 -3.781155e-06 -0.000457996211)
(0 -3.708733678e-06 -0.0004654937222)
(0 -3.628689088e-06 -0.0004728463944)
(0 -3.544832806e-06 -0.0004800427833)
(0 -3.434295009e-06 -0.000487033346)
(0 -3.304698991e-06 -0.0004937875896)
(0 -3.171291285e-06 -0.0005002864468)
(0 -3.018825358e-06 -0.0005064879983)
(0 -2.843489558e-06 -0.0005123655629)
(0 -2.649095484e-06 -0.0005178772031)
(0 -2.443266483e-06 -0.0005229886233)
(0 -2.222190902e-06 -0.0005276617071)
(0 -1.974433757e-06 -0.0005318811985)
(0 -1.71524168e-06 -0.0005355861205)
(0 -1.433179724e-06 -0.0005387497918)
(0 -1.139682805e-06 -0.0005413455209)
(0 -8.347509512e-07 -0.0005433352013)
(0 -5.031375626e-07 -0.000544684528)
(0 -1.677125199e-07 -0.0005453744331)
(0 1.905824089e-07 -0.0005453668098)
(0 5.565006374e-07 -0.0005446273533)
(0 9.37665452e-07 -0.0005431484305)
(0 1.330265214e-06 -0.0005408881232)
(0 1.734299932e-06 -0.0005378349962)
(0 2.142146276e-06 -0.0005339661701)
(0 2.565239224e-06 -0.0005292664079)
(0 2.984520542e-06 -0.0005237242746)
(0 3.422860065e-06 -0.0005173207025)
(0 3.861199605e-06 -0.0005100480777)
(0 4.288104227e-06 -0.0005018949653)
(0 4.73025539e-06 -0.0004928689794)
(0 5.180029875e-06 -0.0004829625058)
(0 5.614557801e-06 -0.000472156486)
(0 6.056708956e-06 -0.0004604852165)
(0 6.4874252e-06 -0.000447933459)
(0 6.914329838e-06 -0.000434527895)
(0 7.333611096e-06 -0.0004202685165)
(0 7.741457451e-06 -0.0004051896363)
(0 8.141680559e-06 -0.0003892874425)
(0 8.526656976e-06 -0.0003726076677)
(0 8.907821794e-06 -0.0003551579424)
(0 9.258493482e-06 -0.0003369725709)
(0 9.605353411e-06 -0.0003180934755)
(0 9.929343506e-06 -0.000298543532)
(0 1.023046377e-05 -0.0002783570449)
(0 1.052396062e-05 -0.0002575835606)
(0 1.079077599e-05 -0.0002362535774)
(0 1.102709825e-05 -0.0002144052113)
(0 1.125579707e-05 -0.0001920994449)
(0 1.145400278e-05 -0.0001693667752)
(0 1.162171537e-05 -0.0001462643764)
(0 1.177418122e-05 -0.0001228379859)
(0 1.190377726e-05 -9.914096913e-05)
(0 1.200288019e-05 -7.520763067e-05)
(0 6.026215771e-06 -5.110276713e-05)
(0 -9.910285859e-08 -0.0001607372133)
(0 -3.01120226e-07 -0.000160870622)
(0 -4.993259414e-07 -0.0001611412481)
(0 -7.051549554e-07 -0.0001615452828)
(0 -9.071723264e-07 -0.0001620789146)
(0 -1.109189687e-06 -0.0001627497637)
(0 -1.318830349e-06 -0.0001635654565)
(0 -1.517036075e-06 -0.0001645107463)
(0 -1.726676729e-06 -0.0001655894418)
(0 -1.932505743e-06 -0.0001668091693)
(0 -2.134523121e-06 -0.0001681623055)
(0 -2.344163771e-06 -0.000169652659)
(0 -2.549992785e-06 -0.0001712878561)
(0 -2.763445112e-06 -0.000173056462)
(0 -2.969274109e-06 -0.0001749622852)
(0 -3.18272642e-06 -0.000177012952)
(0 -3.396178751e-06 -0.0001792084626)
(0 -3.61344269e-06 -0.000181545002)
(0 -3.826895001e-06 -0.0001840187618)
(0 -4.044158985e-06 -0.0001866488003)
(0 -4.265234568e-06 -0.0001894084327)
(0 -4.490121824e-06 -0.0001923281553)
(0 -4.703574163e-06 -0.0001953965335)
(0 -4.928461391e-06 -0.0001986059403)
(0 -5.153348647e-06 -0.0002019678142)
(0 -5.378235935e-06 -0.0002054783436)
(0 -5.610746456e-06 -0.0002091375248)
(0 -5.835633712e-06 -0.0002129529849)
(0 -6.064332653e-06 -0.0002169171005)
(0 -6.293031521e-06 -0.0002210413028)
(0 -6.529353722e-06 -0.0002253179723)
(0 -6.758052667e-06 -0.0002297471091)
(0 -6.986751531e-06 -0.0002343325208)
(0 -7.223073732e-06 -0.0002390703998)
(0 -7.459395978e-06 -0.0002439645578)
(0 -7.695718135e-06 -0.0002490149905)
(0 -7.924417039e-06 -0.0002542140789)
(0 -8.156927641e-06 -0.0002595808814)
(0 -8.381814848e-06 -0.0002651001467)
(0 -8.618137049e-06 -0.0002707642563)
(0 -8.83921271e-06 -0.0002765922683)
(0 -9.067911561e-06 -0.0002825613081)
(0 -9.285175521e-06 -0.0002886790038)
(0 -9.498627888e-06 -0.0002949491672)
(0 -9.719703439e-06 -0.000301360358)
(0 -9.921720805e-06 -0.0003079125817)
(0 -1.013517318e-05 -0.0003146058381)
(0 -1.032575554e-05 -0.0003214286869)
(0 -1.052396125e-05 -0.0003283811336)
(0 -1.06954855e-05 -0.00033546699)
(0 -1.087082126e-05 -0.0003426710035)
(0 -1.103853379e-05 -0.0003499779335)
(0 -1.117956485e-05 -0.0003573915918)
(0 -1.131678412e-05 -0.0003649043486)
(0 -1.144256854e-05 -0.0003725047762)
(0 -1.154548305e-05 -0.0003801890597)
(0 -1.164077426e-05 -0.0003879267057)
(0 -1.171700723e-05 -0.00039572915)
(0 -1.175893537e-05 -0.0004035735227)
(0 -1.178942855e-05 -0.0004114445764)
(0 -1.17856169e-05 -0.0004193270654)
(0 -1.176655866e-05 -0.0004271981196)
(0 -1.171319558e-05 -0.0004350501151)
(0 -1.162171602e-05 -0.000442856371)
(0 -1.149974327e-05 -0.0004505863943)
(0 -1.134727733e-05 -0.0004582287491)
(0 -1.114907159e-05 -0.0004657643772)
(0 -1.09165611e-05 -0.0004731627896)
(0 -1.0645934e-05 -0.0004803820488)
(0 -1.031432059e-05 -0.0004874031052)
(0 -9.940779106e-06 -0.0004941954656)
(0 -9.529121019e-06 -0.0005007248163)
(0 -9.067911561e-06 -0.0005069682964)
(0 -8.538092484e-06 -0.0005128725429)
(0 -7.97015682e-06 -0.0005184146766)
(0 -7.34885813e-06 -0.000523560402)
(0 -6.670384753e-06 -0.0005282754142)
(0 -5.938548219e-06 -0.0005325177757)
(0 -5.164783592e-06 -0.0005362570028)
(0 -4.326220968e-06 -0.000539466414)
(0 -3.441918512e-06 -0.0005420964482)
(0 -2.508064652e-06 -0.0005441166218)
(0 -1.532282669e-06 -0.0005454964418)
(0 -5.107608866e-07 -0.0005462130284)
(0 5.526890191e-07 -0.000546228275)
(0 1.661878716e-06 -0.0005455231234)
(0 2.805373228e-06 -0.0005440556354)
(0 3.979360937e-06 -0.0005418181978)
(0 5.187653514e-06 -0.0005387879406)
(0 6.426439215e-06 -0.0005349419841)
(0 7.676659893e-06 -0.0005302536566)
(0 8.953562163e-06 -0.0005247267695)
(0 1.025714586e-05 -0.0005183308203)
(0 1.156835292e-05 -0.0005110658185)
(0 1.288337169e-05 -0.0005029203288)
(0 1.420982526e-05 -0.0004938867191)
(0 1.553627891e-05 -0.0004839649983)
(0 1.685510936e-05 -0.0004731627896)
(0 1.816631631e-05 -0.0004614762727)
(0 1.946990007e-05 -0.0004489168912)
(0 2.074680241e-05 -0.0004354922681)
(0 2.20084579e-05 -0.0004212176422)
(0 2.323962034e-05 -0.0004061082679)
(0 2.444028974e-05 -0.0003901832032)
(0 2.5606654e-05 -0.000373465311)
(0 2.672346698e-05 -0.0003559850914)
(0 2.780216365e-05 -0.0003377730373)
(0 2.882749691e-05 -0.0003188482009)
(0 2.981090219e-05 -0.0002992563281)
(0 3.072188635e-05 -0.0002790317233)
(0 3.158713035e-05 -0.0002582048748)
(0 3.239138817e-05 -0.0002368291505)
(0 3.311560156e-05 -0.000214938855)
(0 3.379026313e-05 -0.0001925721008)
(0 3.438106864e-05 -0.00016979369)
(0 3.490326468e-05 -0.0001466379268)
(0 3.535303898e-05 -0.00012315436)
(0 3.573420382e-05 -9.939254387e-05)
(0 3.602770096e-05 -7.54058409e-05)
(0 1.808246005e-05 -5.125523614e-05)
(0 -1.71524168e-07 -0.0001606114193)
(0 -5.031375626e-07 -0.0001607524513)
(0 -8.385625993e-07 -0.0001610230773)
(0 -1.173987639e-06 -0.000161427112)
(0 -1.509412688e-06 -0.0001619607437)
(0 -1.852461015e-06 -0.0001626354045)
(0 -2.195509351e-06 -0.0001634434739)
(0 -2.530934406e-06 -0.0001643925753)
(0 -2.873982727e-06 -0.0001654674591)
(0 -3.217031063e-06 -0.0001666795632)
(0 -3.556267772e-06 -0.000168036511)
(0 -3.906939383e-06 -0.000169530676)
(0 -4.253799368e-06 -0.0001711544382)
(0 -4.596847731e-06 -0.0001729306673)
(0 -4.955142632e-06 -0.000174840302)
(0 -5.305814265e-06 -0.000176887157)
(0 -5.652674283e-06 -0.0001790826675)
(0 -6.022404122e-06 -0.0001814115834)
(0 -6.380699051e-06 -0.000183896778)
(0 -6.738994021e-06 -0.0001865191931)
(0 -7.112535502e-06 -0.0001892902602)
(0 -7.474642079e-06 -0.0001921985478)
(0 -7.840560351e-06 -0.0001952593024)
(0 -8.217913473e-06 -0.0001984725207)
(0 -8.587643347e-06 -0.0002018343944)
(0 -8.961184922e-06 -0.0002053411119)
(0 -9.346161334e-06 -0.0002090079162)
(0 -9.727326152e-06 -0.0002128195644)
(0 -1.010849103e-05 -0.0002167874915)
(0 -1.049727908e-05 -0.0002209078818)
(0 -1.088225555e-05 -0.0002251807395)
(0 -1.126723208e-05 -0.0002296174993)
(0 -1.164458519e-05 -0.000234199099)
(0 -1.20409966e-05 -0.000238944601)
(0 -1.243359643e-05 -0.0002438387588)
(0 -1.281857283e-05 -0.0002488853795)
(0 -1.321117259e-05 -0.0002540959025)
(0 -1.359614914e-05 -0.0002594665164)
(0 -1.398112552e-05 -0.0002649857814)
(0 -1.436229034e-05 -0.0002706575139)
(0 -1.473583195e-05 -0.0002764779023)
(0 -1.511699668e-05 -0.0002824583766)
(0 -1.547910325e-05 -0.0002885875069)
(0 -1.584502157e-05 -0.0002948576699)
(0 -1.620331641e-05 -0.000301284107)
(0 -1.655398804e-05 -0.0003078477652)
(0 -1.689322483e-05 -0.0003145486445)
(0 -1.722483812e-05 -0.0003213867395)
(0 -1.754501657e-05 -0.000328358244)
(0 -1.784613688e-05 -0.0003354555349)
(0 -1.813201039e-05 -0.0003426671713)
(0 -1.840263741e-05 -0.0003500007824)
(0 -1.86542063e-05 -0.0003574373101)
(0 -1.888671673e-05 -0.0003649691248)
(0 -1.908873411e-05 -0.0003725962334)
(0 -1.926788159e-05 -0.0003802919514)
(0 -1.94279708e-05 -0.0003880715251)
(0 -1.954232025e-05 -0.0003958968388)
(0 -1.962998817e-05 -0.0004037678925)
(0 -1.967572793e-05 -0.0004116808739)
(0 -1.968335123e-05 -0.0004195938556)
(0 -1.964142311e-05 -0.0004275106491)
(0 -1.955756684e-05 -0.0004354045722)
(0 -1.940891256e-05 -0.0004432527559)
(0 -1.921070687e-05 -0.0004510399534)
(0 -1.895532643e-05 -0.0004587394824)
(0 -1.863514795e-05 -0.0004663208498)
(0 -1.824254829e-05 -0.0004737688132)
(0 -1.778896205e-05 -0.0004810490584)
(0 -1.724770801e-05 -0.000488138724)
(0 -1.66302211e-05 -0.0004950035054)
(0 -1.594031268e-05 -0.0005016014654)
(0 -1.516273646e-05 -0.0005079059315)
(0 -1.429368076e-05 -0.0005138825989)
(0 -1.334458027e-05 -0.0005195047769)
(0 -1.230400032e-05 -0.0005247267349)
(0 -1.117956418e-05 -0.0005295141682)
(0 -9.959836691e-06 -0.0005338327624)
(0 -8.656253014e-06 -0.0005376405989)
(0 -7.268813121e-06 -0.0005409071846)
(0 -5.789893584e-06 -0.00054360964)
(0 -4.242364423e-06 -0.0005456946115)
(0 -2.599544074e-06 -0.0005471392295)
(0 -8.995489702e-07 -0.0005479129908)
(0 8.843023775e-07 -0.0005479816004)
(0 2.729140112e-06 -0.0005473183769)
(0 4.642587482e-06 -0.0005459042522)
(0 6.597962997e-06 -0.0005437087428)
(0 8.610513288e-06 -0.0005407127906)
(0 1.067642655e-05 -0.0005369011392)
(0 1.27766447e-05 -0.0005322509284)
(0 1.491497941e-05 -0.000526731665)
(0 1.707999549e-05 -0.0005203547744)
(0 1.927169319e-05 -0.0005131012079)
(0 2.147101432e-05 -0.0005049595305)
(0 2.368558178e-05 -0.0004959297329)
(0 2.590014937e-05 -0.000486004201)
(0 2.810328219e-05 -0.000475190558)
(0 3.030641467e-05 -0.0004634811719)
(0 3.247143084e-05 -0.000450891298)
(0 3.460976567e-05 -0.0004374361826)
(0 3.671760691e-05 -0.0004231158177)
(0 3.877970857e-05 -0.0004079568929)
(0 4.077701246e-05 -0.0003919860894)
(0 4.272857608e-05 -0.0003752072118)
(0 4.460009534e-05 -0.0003576660069)
(0 4.639919356e-05 -0.0003393739093)
(0 4.811443496e-05 -0.0003203728411)
(0 4.975344368e-05 -0.0003006971132)
(0 5.128191491e-05 -0.0002803810301)
(0 5.272271761e-05 -0.0002594703265)
(0 5.405679447e-05 -0.0002379955006)
(0 5.528795717e-05 -0.0002160022919)
(0 5.639714645e-05 -0.0001935440596)
(0 5.739198663e-05 -0.0001706513006)
(0 5.825723111e-05 -0.000147385001)
(0 5.90195604e-05 -0.0001237908979)
(0 5.964848235e-05 -9.991473371e-05)
(0 6.014018533e-05 -7.581749438e-05)
(0 3.018063028e-05 -5.155254162e-05)
(0 -2.401338353e-07 -0.0001604322718)
(0 -7.051549173e-07 -0.0001605656805)
(0 -1.177799287e-06 -0.0001608324949)
(0 -1.642820365e-06 -0.0001612365296)
(0 -2.115464752e-06 -0.0001617777846)
(0 -2.591920762e-06 -0.0001624524454)
(0 -3.072188432e-06 -0.0001632528915)
(0 -3.541021179e-06 -0.0001641943696)
(0 -4.021288829e-06 -0.0001652768767)
(0 -4.497744851e-06 -0.0001664927924)
(0 -4.985635848e-06 -0.0001678421169)
(0 -5.465903488e-06 -0.0001693324703)
(0 -5.953794455e-06 -0.0001709638558)
(0 -6.437873813e-06 -0.0001727324616)
(0 -6.933388037e-06 -0.0001746382846)
(0 -7.425090652e-06 -0.000176692763)
(0 -7.920604963e-06 -0.0001788844618)
(0 -8.423742475e-06 -0.000181221001)
(0 -8.934503331e-06 -0.0001836947607)
(0 -9.433829299e-06 -0.0001863133641)
(0 -9.948401747e-06 -0.0001890844312)
(0 -1.04591626e-05 -0.0001919927188)
(0 -1.097754682e-05 -0.0001950572851)
(0 -1.150736585e-05 -0.0001982666917)
(0 -1.202193836e-05 -0.0002016247537)
(0 -1.255175753e-05 -0.0002051390946)
(0 -1.308157655e-05 -0.0002087982756)
(0 -1.361901894e-05 -0.0002126137354)
(0 -1.414883812e-05 -0.0002165778508)
(0 -1.469771538e-05 -0.0002206944296)
(0 -1.523515777e-05 -0.0002249749105)
(0 -1.577260026e-05 -0.000229404047)
(0 -1.631766585e-05 -0.00023399327)
(0 -1.685891989e-05 -0.0002387425837)
(0 -1.740779734e-05 -0.000243640553)
(0 -1.795286292e-05 -0.0002486986087)
(0 -1.849792861e-05 -0.0002539129434)
(0 -1.903918277e-05 -0.000259275934)
(0 -1.958043669e-05 -0.0002648028223)
(0 -2.011406744e-05 -0.0002704859897)
(0 -2.064388666e-05 -0.0002763216247)
(0 -2.116989398e-05 -0.0002823020991)
(0 -2.168827814e-05 -0.0002884464759)
(0 -2.220285077e-05 -0.0002947318855)
(0 -2.26983649e-05 -0.0003011659459)
(0 -2.319387917e-05 -0.0003077486623)
(0 -2.367033533e-05 -0.0003144647883)
(0 -2.413535627e-05 -0.0003213181298)
(0 -2.458513075e-05 -0.0003283048809)
(0 -2.500822385e-05 -0.0003354250417)
(0 -2.542369335e-05 -0.0003426633596)
(0 -2.579723487e-05 -0.0003500236523)
(0 -2.614790666e-05 -0.0003574830499)
(0 -2.647570825e-05 -0.000365052981)
(0 -2.676920521e-05 -0.0003727067712)
(0 -2.702458565e-05 -0.0003804482289)
(0 -2.724184958e-05 -0.0003882582958)
(0 -2.741337375e-05 -0.000396133161)
(0 -2.753915816e-05 -0.0004040575778)
(-9.918233384e-25 -2.761539111e-05 -0.0004120124873)
(9.918233384e-25 -2.76230144e-05 -0.0004199940786)
(0 -2.757346299e-05 -0.0004279642352)
(0 -2.745149023e-05 -0.0004359229564)
(0 -2.726090782e-05 -0.000443835938)
(0 -2.698265752e-05 -0.0004516993685)
(0 -2.663198587e-05 -0.0004594789422)
(0 -2.618602299e-05 -0.0004671517891)
(0 -2.564858075e-05 -0.0004746836088)
(0 -2.50082237e-05 -0.0004820591452)
(0 -2.426876395e-05 -0.0004892402903)
(0 -2.340351996e-05 -0.0004962041745)
(0 -2.243536118e-05 -0.0005029088607)
(0 -2.134904145e-05 -0.0005093200529)
(0 -2.01407491e-05 -0.0005154072582)
(0 -1.880667211e-05 -0.0005211399739)
(0 -1.735443416e-05 -0.0005264686581)
(0 -1.576878861e-05 -0.0005313628176)
(0 -1.407260508e-05 -0.0005357805146)
(0 -1.224301395e-05 -0.0005397027006)
(0 -1.029145014e-05 -0.0005430798241)
(0 -8.22553677e-06 -0.000545873759)
(0 -6.041462363e-06 -0.0005480578334)
(0 -3.746850182e-06 -0.0005495939309)
(0 -1.356946752e-06 -0.0005504477368)
(0 1.143494454e-06 -0.0005506040144)
(0 3.739226886e-06 -0.0005500208355)
(0 6.418815533e-06 -0.0005486715087)
(0 9.170825518e-06 -0.0005465446091)
(0 1.199144524e-05 -0.0005436058316)
(0 1.489210943e-05 -0.0005398399199)
(0 1.784613677e-05 -0.000535224014)
(0 2.084590401e-05 -0.000529754302)
(0 2.388759914e-05 -0.0005233964697)
(0 2.696359922e-05 -0.0005161581498)
(0 3.005865772e-05 -0.0005080279073)
(0 3.31651508e-05 -0.000498994298)
(0 3.627926737e-05 -0.0004890611429)
(0 3.937813757e-05 -0.0004782208183)
(0 4.246176071e-05 -0.0004664809391)
(0 4.55148909e-05 -0.0004538567603)
(0 4.852609326e-05 -0.0004403406585)
(0 5.148393195e-05 -0.0004259669306)
(0 5.437316127e-05 -0.0004107393961)
(0 5.718996962e-05 -0.0003946809247)
(0 5.992292102e-05 -0.0003778181908)
(0 6.256058156e-05 -0.0003601740714)
(0 6.509151634e-05 -0.0003417752476)
(0 6.750810089e-05 -0.00032265983)
(0 6.97950898e-05 -0.0003028583177)
(0 7.195629475e-05 -0.0002824164502)
(0 7.397265621e-05 -0.000261360904)
(0 7.585179876e-05 -0.0002397450471)
(0 7.75746642e-05 -0.0002176031842)
(0 7.913743949e-05 -0.0001949810509)
(0 8.053631437e-05 -0.000171935826)
(0 8.176366557e-05 -0.0001485056256)
(0 8.282711493e-05 -0.0001247399983)
(0 8.370379401e-05 -0.0001006961216)
(0 8.439370283e-05 -7.643116974e-05)
(0 4.235503456e-05 -5.198325786e-05)
(0 -3.011202242e-07 -0.000160188336)
(0 -9.071723264e-07 -0.000160317933)
(0 -1.509412769e-06 -0.0001605885591)
(0 -2.115464866e-06 -0.0001609849705)
(0 -2.721516979e-06 -0.0001615224139)
(0 -3.331380708e-06 -0.000162193263)
(0 -3.941244453e-06 -0.0001630051441)
(0 -4.554919874e-06 -0.0001639466223)
(0 -5.164783592e-06 -0.0001650215062)
(0 -5.782270634e-06 -0.0001662336103)
(0 -6.403569363e-06 -0.0001675829349)
(0 -7.028679663e-06 -0.0001690732884)
(0 -7.649978354e-06 -0.0001707008623)
(0 -8.278900391e-06 -0.0001724694682)
(0 -8.911633977e-06 -0.000174379103)
(0 -9.548179261e-06 -0.0001764259582)
(0 -1.018091296e-05 -0.0001786176571)
(0 -1.082889313e-05 -0.0001809465732)
(0 -1.1480685e-05 -0.0001834165214)
(0 -1.212866531e-05 -0.0001860427482)
(0 -1.278808041e-05 -0.0001888061922)
(0 -1.344749558e-05 -0.0001917259149)
(0 -1.411453414e-05 -0.0001947790464)
(0 -1.478538417e-05 -0.0001979884532)
(0 -1.546004594e-05 -0.0002013503271)
(0 -1.613470781e-05 -0.0002048532332)
(0 -1.682461607e-05 -0.0002085200378)
(0 -1.750690114e-05 -0.0002123316862)
(0 -1.819299796e-05 -0.0002162996135)
(0 -1.889052951e-05 -0.0002204200041)
(0 -1.958806117e-05 -0.0002246966736)
(0 -2.028559295e-05 -0.0002291258104)
(0 -2.098312448e-05 -0.0002337226571)
(0 -2.168446779e-05 -0.0002384681593)
(0 -2.238962288e-05 -0.0002433737523)
(0 -2.309096605e-05 -0.0002484356199)
(0 -2.379230936e-05 -0.0002536537666)
(0 -2.448984117e-05 -0.0002590281924)
(0 -2.518737268e-05 -0.0002645627043)
(0 -2.587728104e-05 -0.0002702496837)
(0 -2.655575461e-05 -0.0002760967541)
(0 -2.723803952e-05 -0.000282096287)
(0 -2.790888964e-05 -0.0002882406642)
(0 -2.856830499e-05 -0.0002945451325)
(0 -2.921628504e-05 -0.0003010020631)
(0 -2.985283033e-05 -0.0003076000265)
(0 -3.04665059e-05 -0.0003143390228)
(0 -3.106493452e-05 -0.0003212152346)
(0 -3.165574002e-05 -0.000328236291)
(0 -3.219699429e-05 -0.0003353793221)
(0 -3.273062488e-05 -0.0003426481336)
(0 -3.322613917e-05 -0.0003500351082)
(0 -3.368353718e-05 -0.0003575364344)
(0 -3.410662995e-05 -0.0003651406708)
(0 -3.448779485e-05 -0.0003728516362)
(0 -3.482321993e-05 -0.0003806464575)
(0 -3.511290519e-05 -0.0003885136996)
(0 -3.53416041e-05 -0.0003964457399)
(0 -3.5505505e-05 -0.0004044311436)
(0 -3.561223114e-05 -0.0004124584749)
(0 -3.563510103e-05 -0.0004205048647)
(0 -3.557030302e-05 -0.0004285626897)
(0 -3.543308366e-05 -0.0004366052676)
(0 -3.518913816e-05 -0.0004446211642)
(0 -3.484990147e-05 -0.0004525760747)
(0 -3.440393859e-05 -0.000460462375)
(0 -3.383600291e-05 -0.0004682457603)
(0 -3.315371805e-05 -0.0004758995531)
(0 -3.234564839e-05 -0.0004833970627)
(0 -3.139273628e-05 -0.0004907078043)
(0 -3.029879337e-05 -0.0004977974734)
(0 -2.905238416e-05 -0.0005046431909)
(0 -2.766494414e-05 -0.0005111992262)
(0 -2.610979175e-05 -0.0005174312744)
(0 -2.44021731e-05 -0.0005233050215)
(0 -2.253065374e-05 -0.0005287861719)
(0 -2.049523361e-05 -0.000533828986)
(0 -1.83073473e-05 -0.0005383991492)
(0 -1.594793694e-05 -0.0005424585548)
(0 -1.343987237e-05 -0.0005459728979)
(0 -1.07717184e-05 -0.0005489002406)
(0 -7.954910226e-06 -0.0005512139112)
(0 -4.997071092e-06 -0.0005528719815)
(0 -1.905824204e-06 -0.0005538515718)
(0 1.315018701e-06 -0.0005541069523)
(0 4.657834382e-06 -0.0005536266879)
(0 8.11499946e-06 -0.0005523764639)
(0 1.167126742e-05 -0.0005503257971)
(0 1.531520339e-05 -0.0005474670641)
(0 1.905824204e-05 -0.0005437621385)
(0 2.286226715e-05 -0.000539203407)
(0 2.674252539e-05 -0.0005337794345)
(0 3.067233474e-05 -0.0005274635299)
(0 3.464407238e-05 -0.0005202518911)
(0 3.863486849e-05 -0.0005121330831)
(0 4.264853403e-05 -0.0005030956617)
(0 4.667363475e-05 -0.0004931434477)
(0 5.067967753e-05 -0.0004822840642)
(0 5.466666146e-05 -0.0004705098794)
(0 5.861171756e-05 -0.0004578209019)
(0 6.250341096e-05 -0.0004442476246)
(0 6.632268229e-05 -0.0004297862278)
(0 7.006190938e-05 -0.0004144672129)
(0 7.36982224e-05 -0.0003983020144)
(0 7.723543168e-05 -0.000381313495)
(0 8.064304536e-05 -0.0003635359669)
(0 8.391344019e-05 -0.0003449961111)
(0 8.703899138e-05 -0.0003257282263)
(0 8.99930189e-05 -0.000305762812)
(0 9.277552279e-05 -0.0002851379841)
(0 9.539412469e-05 -0.0002639032891)
(0 9.781833308e-05 -0.0002420892253)
(0 0.000100048148 -0.0002197453437)
(0 0.0001020645094 -0.0001969211917)
(0 0.0001038712308 -0.0001736548898)
(0 0.0001054530655 -0.000149995989)
(0 0.0001068252583 -0.0001260130964)
(0 0.0001079611295 -0.0001017443309)
(0 0.0001088530559 -7.724305544e-05)
(0 5.463235662e-05 -5.256263154e-05)
(0 -3.659182252e-07 -0.0001598872062)
(0 -1.10156633e-06 -0.0001600206148)
(0 -1.848649367e-06 -0.0001602836176)
(0 -2.580485817e-06 -0.0001606876523)
(0 -3.323757232e-06 -0.000161221284)
(0 -4.070840255e-06 -0.0001618921331)
(0 -4.817923298e-06 -0.0001626925792)
(0 -5.565006374e-06 -0.0001636340573)
(0 -6.308277736e-06 -0.0001647127527)
(0 -7.062984075e-06 -0.0001659248569)
(0 -7.82150211e-06 -0.0001672741813)
(0 -8.583831699e-06 -0.0001687569115)
(0 -9.346161334e-06 -0.0001703844852)
(0 -1.011611433e-05 -0.0001721454677)
(0 -1.088987885e-05 -0.0001740474791)
(0 -1.166364343e-05 -0.0001760981459)
(0 -1.244121973e-05 -0.0001782822213)
(0 -1.323404248e-05 -0.0001806111373)
(0 -1.402305365e-05 -0.000183084897)
(0 -1.48273115e-05 -0.0001857035004)
(0 -1.562775753e-05 -0.0001884707558)
(0 -1.64320153e-05 -0.0001913790434)
(0 -1.724389646e-05 -0.0001944397981)
(0 -1.806721237e-05 -0.000197645393)
(0 -1.889052837e-05 -0.0002009996434)
(0 -1.97214678e-05 -0.0002045139843)
(0 -2.056003028e-05 -0.0002081693536)
(0 -2.140240452e-05 -0.0002119810018)
(0 -2.224096726e-05 -0.0002159565522)
(0 -2.308715302e-05 -0.0002200769425)
(0 -2.394858551e-05 -0.0002243536118)
(0 -2.47985832e-05 -0.0002287941833)
(0 -2.565620389e-05 -0.000233387218)
(0 -2.651382473e-05 -0.0002381403433)
(0 -2.737144574e-05 -0.0002430459359)
(0 -2.823668971e-05 -0.0002481154266)
(0 -2.90904989e-05 -0.0002533411962)
(0 -2.994811992e-05 -0.0002587270566)
(0 -3.080192893e-05 -0.0002642653799)
(0 -3.164811483e-05 -0.0002699599823)
(0 -3.248667762e-05 -0.0002758184872)
(0 -3.331761673e-05 -0.0002818294547)
(0 -3.414093274e-05 -0.0002880043247)
(0 -3.495281401e-05 -0.0002943278508)
(0 -3.575707157e-05 -0.0003007924044)
(0 -3.65270245e-05 -0.0003074132373)
(0 -3.728935436e-05 -0.0003141789147)
(0 -3.803262553e-05 -0.0003210932426)
(0 -3.874159209e-05 -0.0003281333568)
(0 -3.9427689e-05 -0.0003353145039)
(0 -4.00794806e-05 -0.0003426290548)
(0 -4.068934431e-05 -0.0003500579571)
(0 -4.125728013e-05 -0.0003576088343)
(0 -4.179091063e-05 -0.0003652664333)
(0 -4.226736673e-05 -0.0003730269497)
(0 -4.268283641e-05 -0.0003808865685)
(0 -4.304113131e-05 -0.0003888186081)
(0 -4.333843987e-05 -0.000396826881)
(0 -4.35518922e-05 -0.0004048999521)
(0 -4.36891115e-05 -0.0004130073275)
(0 -4.372341634e-05 -0.0004211451964)
(0 -4.367005329e-05 -0.0004293021238)
(0 -4.350996404e-05 -0.0004374514273)
(0 -4.323552537e-05 -0.0004455816729)
(0 -4.282386739e-05 -0.0004536699906)
(0 -4.230167156e-05 -0.0004616858865)
(0 -4.162319811e-05 -0.0004696064906)
(0 -4.07960707e-05 -0.0004774089373)
(0 -3.982028852e-05 -0.0004850589123)
(0 -3.866917077e-05 -0.000492537366)
(0 -3.733890578e-05 -0.0004997947471)
(0 -3.583330453e-05 -0.0005068081768)
(0 -3.413712109e-05 -0.0005135471708)
(0 -3.224654379e-05 -0.0005199621778)
(0 -3.016538369e-05 -0.0005260188836)
(0 -2.787458313e-05 -0.0005316829928)
(0 -2.538557702e-05 -0.0005369202006)
(0 -2.270217655e-05 -0.0005416771343)
(0 -1.981294723e-05 -0.0005459194988)
(0 -1.673694725e-05 -0.0005496053658)
(0 -1.346655302e-05 -0.0005527042325)
(0 -1.001701141e-05 -0.0005551779922)
(0 -6.384510738e-06 -0.0005569961517)
(0 -2.588109113e-06 -0.0005581205846)
(0 1.368381696e-06 -0.0005585208076)
(0 5.469715169e-06 -0.0005581625161)
(0 9.715891208e-06 -0.0005570304532)
(0 1.407641672e-05 -0.0005550903243)
(0 1.856272674e-05 -0.0005523154477)
(0 2.314813939e-05 -0.0005487020019)
(0 2.782884335e-05 -0.0005442195037)
(0 3.259340377e-05 -0.0005388412713)
(0 3.741513852e-05 -0.0005325711068)
(0 4.230167149e-05 -0.0005253899617)
(0 4.720345133e-05 -0.0005172902124)
(0 5.214715873e-05 -0.0005082566031)
(0 5.709467807e-05 -0.0004982929548)
(0 6.201932789e-05 -0.0004873954555)
(0 6.692110707e-05 -0.0004755679083)
(0 7.178477015e-05 -0.0004628179452)
(0 7.655695413e-05 -0.0004491493775)
(0 8.126052752e-05 -0.0004345926904)
(0 8.586499852e-05 -0.0004191517036)
(0 9.034368568e-05 -0.0004028454751)
(0 9.468515241e-05 -0.0003857083025)
(0 9.887796541e-05 -0.0003677630629)
(0 0.0001029030665 -0.0003490440608)
(0 0.0001067413956 -0.0003295779714)
(0 0.0001103853313 -0.0003094029176)
(0 0.000113808192 -0.0002885608271)
(0 0.0001170252224 -0.0002670898112)
(0 0.0001200097429 -0.0002450318032)
(0 0.000122746507 -0.0002224401658)
(0 0.0001252278893 -0.0001993491998)
(0 0.0001274538918 -0.0001758122722)
(0 0.0001294054564 -0.0001518903692)
(0 0.0001310825809 -0.0001276216043)
(0 0.0001324738325 -0.0001030631551)
(0 0.0001335753996 -7.826838417e-05)
(0 6.703545652e-05 -5.329065319e-05)
(0 -4.383395406e-07 -0.0001595174763)
(0 -1.307395333e-06 -0.0001596508849)
(0 -2.172639462e-06 -0.0001599138877)
(0 -3.053130191e-06 -0.0001603179224)
(0 -3.925997648e-06 -0.0001608515541)
(0 -4.806488353e-06 -0.0001615224032)
(0 -5.686979083e-06 -0.000162326661)
(0 -6.5712815e-06 -0.0001632605158)
(0 -7.455583838e-06 -0.0001643353996)
(0 -8.339886215e-06 -0.0001655475037)
(0 -9.235623593e-06 -0.0001668930165)
(0 -1.013898416e-05 -0.0001683833699)
(0 -1.104234477e-05 -0.0001700033204)
(0 -1.194570546e-05 -0.0001717604913)
(0 -1.28643126e-05 -0.0001736663143)
(0 -1.377910817e-05 -0.0001757055461)
(0 -1.469390382e-05 -0.0001778858099)
(0 -1.563156918e-05 -0.0001802109142)
(0 -1.656923463e-05 -0.0001826884856)
(0 -1.751833513e-05 -0.0001852994657)
(0 -1.846362378e-05 -0.0001880590978)
(0 -1.941653582e-05 -0.0001909673854)
(0 -2.037325964e-05 -0.0001940243284)
(0 -2.13528531e-05 -0.0001972299234)
(0 -2.232482338e-05 -0.0002005841738)
(0 -2.33044171e-05 -0.0002040908913)
(0 -2.429925714e-05 -0.0002077500723)
(0 -2.529028567e-05 -0.0002115693438)
(0 -2.6285126e-05 -0.0002155410825)
(0 -2.729140096e-05 -0.0002196652845)
(0 -2.830148773e-05 -0.0002239457654)
(0 -2.931919797e-05 -0.0002283787137)
(0 -3.032547291e-05 -0.0002329717483)
(0 -3.134699462e-05 -0.0002377248736)
(0 -3.236470488e-05 -0.0002426457129)
(0 -3.338241475e-05 -0.0002477113918)
(0 -3.440393646e-05 -0.0002529485964)
(0 -3.541402344e-05 -0.0002583382685)
(0 -3.642792164e-05 -0.0002638918384)
(0 -3.743419676e-05 -0.0002696093106)
(0 -3.842522552e-05 -0.0002754792505)
(0 -3.942006547e-05 -0.0002815130879)
(0 -4.039965905e-05 -0.0002876955812)
(0 -4.136019464e-05 -0.0002940457889)
(0 -4.231310643e-05 -0.0003005446472)
(0 -4.323552529e-05 -0.0003071921617)
(0 -4.413888618e-05 -0.0003139883323)
(0 -4.502699994e-05 -0.0003209255301)
(0 -4.587699748e-05 -0.0003280151957)
(0 -4.668887882e-05 -0.000335238271)
(0 -4.747026642e-05 -0.0003425871267)
(0 -4.820591452e-05 -0.0003500732037)
(0 -4.889582313e-05 -0.0003576812556)
(0 -4.952855644e-05 -0.0003654036527)
(0 -5.01041154e-05 -0.0003732327787)
(0 -5.061487629e-05 -0.0003811495722)
(0 -5.10532158e-05 -0.0003891692798)
(0 -5.141913402e-05 -0.0003972690321)
(0 -5.168594943e-05 -0.0004054259595)
(0 -5.186128521e-05 -0.0004136362495)