/*--------------------------------*- C++ -*----------------------------------*\
  =========                 |
  \\      /  F ield         | OpenFOAM: The Open Source CFD Toolbox
   \\    /   O peration     | Website:  https://openfoam.org
    \\  /    A nd           | Version:  6
     \\/     M anipulation  |
\*---------------------------------------------------------------------------*/
FoamFile
{
    version     2.0;
    format      ascii;
    class       surfaceScalarField;
    location    "0.0026";
    object      phi;
}
// * * * * * * * * * * * * * * * * * * * * * * * * * * * * * * * * * * * * * //

dimensions      [0 3 -1 0 0 0 0];

internalField   nonuniform List<scalar> 
19000
(
6.816556093e-19
-1.031758216e-22
6.838026441e-19
-3.161609453e-22
6.86107821e-19
-5.390326296e-22
6.886344807e-19
-7.594223342e-22
6.913242221e-19
-9.773361344e-22
6.941755694e-19
-1.191958867e-21
6.97185902e-19
-1.402915356e-21
7.003517753e-19
-1.609175454e-21
7.036687836e-19
-1.810211036e-21
7.071320451e-19
-2.004836576e-21
7.107358692e-19
-2.192380968e-21
7.144740784e-19
-2.371494491e-21
7.183395354e-19
-2.541345528e-21
7.22324348e-19
-2.700400272e-21
7.264192889e-19
-2.847648442e-21
7.306139587e-19
-2.981347603e-21
7.348961897e-19
-3.100276362e-21
7.392522477e-19
-3.202443059e-21
7.436662819e-19
-3.286366703e-21
7.481205675e-19
-3.349753157e-21
7.525949265e-19
-3.390823531e-21
7.570669199e-19
-3.406963298e-21
7.615112069e-19
-3.396095046e-21
7.658997406e-19
-3.355288582e-21
7.702011952e-19
-3.282160962e-21
7.74381302e-19
-3.173437604e-21
7.784023841e-19
-3.026393891e-21
7.822237443e-19
-2.837396695e-21
7.858011296e-19
-2.603420785e-21
7.890870284e-19
-2.320579171e-21
7.920300613e-19
-1.985703417e-21
7.945753507e-19
-1.594828765e-21
7.966640905e-19
-1.144808998e-21
7.982341827e-19
-6.31751925e-22
7.99220027e-19
-5.270227217e-23
7.995533009e-19
5.959201415e-22
7.991627918e-19
1.316525015e-21
7.979752376e-19
2.111906918e-21
7.959152831e-19
2.983363657e-21
7.929066125e-19
3.932298156e-21
7.888723007e-19
4.958297716e-21
7.83736431e-19
6.060804971e-21
7.774249078e-19
7.237134965e-21
7.698675091e-19
8.484182616e-21
7.609990453e-19
9.796335811e-21
7.507617324e-19
1.116720715e-20
7.39106581e-19
1.25874635e-20
7.259959748e-19
1.404663806e-20
7.114051725e-19
1.55309502e-20
6.953249875e-19
1.702528609e-20
6.777633341e-19
1.851108337e-20
6.587479806e-19
1.996854181e-20
6.383280854e-19
2.137459973e-20
6.16576843e-19
2.270538614e-20
5.935926018e-19
2.39342688e-20
5.695007619e-19
2.503453249e-20
5.444537244e-19
2.597749671e-20
5.18631423e-19
2.673544435e-20
4.922398198e-19
2.727985111e-20
4.655101733e-19
2.758460916e-20
4.386963658e-19
2.762435331e-20
4.120730838e-19
2.737788788e-20
3.859317976e-19
2.68264283e-20
3.605773783e-19
2.595699819e-20
3.363222856e-19
2.476036755e-20
3.134816545e-19
2.323426306e-20
2.923664398e-19
2.138092327e-20
2.732783256e-19
1.921008042e-20
2.565033236e-19
1.673608282e-20
2.423076586e-19
1.398053242e-20
2.309323663e-19
1.096883021e-20
2.225902495e-19
7.732326501e-21
2.174615483e-19
4.304255448e-21
2.156924291e-19
7.215001165e-22
2.173926897e-19
-2.979810743e-21
2.226369604e-19
-6.762583608e-21
2.314653337e-19
-1.059313398e-20
2.43887425e-19
-1.443923657e-20
2.598851648e-19
-1.827425395e-20
2.794182323e-19
-2.207480635e-20
3.024271946e-19
-2.582444927e-20
3.28838538e-19
-2.951071388e-20
3.585666755e-19
-3.312799453e-20
3.915174164e-19
-3.667368429e-20
4.275879405e-19
-4.015010185e-20
4.666678971e-19
-4.355984536e-20
5.086365525e-19
-4.690713398e-20
5.533607224e-19
-5.019299576e-20
6.0068843e-19
-5.341671773e-20
6.504433923e-19
-5.657157619e-20
7.024156268e-19
-5.964689791e-20
7.563537899e-19
-6.262471648e-20
8.119548577e-19
-6.548263866e-20
8.688568394e-19
-6.819151766e-20
9.266299901e-19
-7.071909735e-20
9.847718973e-19
-7.3028605e-20
1.042701616e-18
-7.5082885e-20
1.099758027e-18
-7.684349772e-20
1.155197441e-18
-7.827476075e-20
1.208195296e-18
-7.934271913e-20
1.257846621e-18
-8.001844141e-20
1.303169454e-18
-8.027641975e-20
1.34310591e-18
-8.009681927e-20
1.376525452e-18
-7.946328048e-20
1.402226494e-18
-7.836428425e-20
1.41894165e-18
-7.679060739e-20
1.42534276e-18
-7.473605812e-20
1.420048969e-18
-7.219478476e-20
1.401632068e-18
-6.916157118e-20
1.368622323e-18
-6.562941685e-20
1.319511569e-18
-6.1589955e-20
1.25275807e-18
-5.70317258e-20
1.166791363e-18
-5.194056445e-20
1.060020629e-18
-4.629897305e-20
9.308530369e-19
-4.008618965e-20
7.777241884e-19
-3.32798073e-20
5.99043119e-19
-2.585344763e-20
3.923290791e-19
-1.778542286e-20
1.452758303e-19
-9.060480191e-21
2.538769682e-32
6.808487809e-19
-2.143496234e-22
6.829802772e-19
-6.47421067e-22
6.8529383e-19
-1.085759431e-21
6.878223925e-19
-1.524207296e-21
6.905158016e-19
-1.958983309e-21
6.933713084e-19
-2.388371994e-21
6.963869687e-19
-2.810347769e-21
6.995588148e-19
-3.223617509e-21
7.028832049e-19
-3.626127881e-21
7.063547334e-19
-4.016417521e-21
7.099684992e-19
-4.392181607e-21
7.137177978e-19
-4.751681423e-21
7.175963099e-19
-5.092284795e-21
7.215956147e-19
-5.411916455e-21
7.257073406e-19
-5.707565147e-21
7.299205687e-19
-5.976766402e-21
7.34224036e-19
-6.216063553e-21
7.38603506e-19
-6.422517481e-21
7.430440861e-19
-6.592121565e-21
7.4752755e-19
-6.721361481e-21
7.520347073e-19
-6.80560549e-21
7.565425977e-19
-6.840732382e-21
7.610268903e-19
-6.821482602e-21
7.654590082e-19
-6.743129206e-21
7.698086793e-19
-6.599758204e-21
7.740411008e-19
-6.385971712e-21
7.781196639e-19
-6.095131459e-21
7.820030648e-19
-5.721150188e-21
7.856480541e-19
-5.256753173e-21
7.890063737e-19
-4.695378631e-21
7.920275534e-19
-4.029417667e-21
7.946558319e-19
-3.252164458e-21
7.968332247e-19
-2.355982996e-21
7.984965819e-19
-1.334318822e-21
7.995809453e-19
-1.798566395e-22
8.000166287e-19
1.113307696e-21
7.997327331e-19
2.551448021e-21
7.986542011e-19
4.138866259e-21
7.967056057e-19
5.879678586e-21
7.938084048e-19
7.77540332e-21
7.898852452e-19
9.826831052e-21
7.8485756e-19
1.203155901e-20
7.786504413e-19
1.438591403e-20
7.71190517e-19
1.68823513e-20
7.624113121e-19
1.9511374e-20
7.522513289e-19
2.225877788e-20
7.406598237e-19
2.510762071e-20
7.275950026e-19
2.803542624e-20
7.130301126e-19
3.101635046e-20
6.969516313e-19
3.401850277e-20
6.793655912e-19
3.700646332e-20
6.602956906e-19
3.993881759e-20
6.397897705e-19
4.277109173e-20
6.179176327e-19
4.545351474e-20
5.947772624e-19
4.793435213e-20
5.704917246e-19
5.015787518e-20
5.452144173e-19
5.206811224e-20
5.191244457e-19
5.360708007e-20
4.92430621e-19
5.471905321e-20
4.653653468e-19
5.534912291e-20
4.381875577e-19
5.544794003e-20
4.111751869e-19
5.497038859e-20
3.846268048e-19
5.388042497e-20
3.588522064e-19
5.214941141e-20
3.341723774e-19
4.976063278e-20
3.109083255e-19
4.670700417e-20
2.893801712e-19
4.299510458e-20
2.698955721e-19
3.864216218e-20
2.527493674e-19
3.367945042e-20
2.382127183e-19
2.814830512e-20
2.26533857e-19
2.210255298e-20
2.179281677e-19
1.560331999e-20
2.125802708e-19
8.720428427e-21
2.106357042e-19
1.526259771e-21
2.122053888e-19
-5.903360338e-21
2.173601192e-19
-1.349555347e-20
2.261381972e-19
-2.117936002e-20
2.385428029e-19
-2.889182162e-20
2.545519497e-19
-3.657641284e-20
2.741173047e-19
-4.418842225e-20
2.971746883e-19
-5.169240825e-20
3.236426681e-19
-5.906624615e-20
3.534320578e-19
-6.629693318e-20
3.864429986e-19
-7.338269598e-20
4.225722284e-19
-8.032690638e-20
4.617075559e-19
-8.713849092e-20
5.037318148e-19
-9.3824807e-20
5.485138432e-19
-1.003915632e-19
5.959084511e-19
-1.068360995e-19
6.457438447e-19
-1.131481481e-19
6.978182015e-19
-1.193046084e-19
7.518850761e-19
-1.252718853e-19
8.076488142e-19
-1.310026683e-19
8.647506076e-19
-1.364400486e-19
9.227652932e-19
-1.41516343e-19
9.811902404e-19
-1.461587478e-19
1.039445074e-18
-1.502896226e-19
1.096864501e-18
-1.538327101e-19
1.152701539e-18
-1.567136869e-19
1.206124393e-18
-1.588655308e-19
1.256222372e-18
-1.602281039e-19
1.302004986e-18
-1.607517164e-19
1.342408014e-18
-1.603952067e-19
1.376292769e-18
-1.591276292e-19
1.402452108e-18
-1.569251461e-19
1.419612e-18
-1.537712893e-19
1.426440394e-18
-1.496532007e-19
1.421551886e-18
-1.445609868e-19
1.403516097e-18
-1.38483865e-19
1.370860255e-18
-1.314093867e-19
1.322074558e-18
-1.233205608e-19
1.255614429e-18
-1.141956668e-19
1.16990599e-18
-1.040067118e-19
1.063352915e-18
-9.271988191e-20
9.343503816e-19
-8.029606881e-20
7.813144401e-19
-6.669246922e-20
6.025879256e-19
-5.186942169e-20
3.956332002e-19
-3.579662108e-20
1.469054087e-19
-1.851698141e-20
2.546834931e-32
6.798476069e-19
-3.261652456e-22
6.819744609e-19
-9.811871925e-22
6.842876868e-19
-1.639355052e-21
6.868198106e-19
-2.296390572e-21
6.895186839e-19
-2.948822673e-21
6.923818713e-19
-3.593461869e-21
6.954066233e-19
-4.227821027e-21
6.985897737e-19
-4.849144581e-21
7.019270751e-19
-5.45499184e-21
7.054140509e-19
-6.042424879e-21
7.090452326e-19
-6.608700045e-21
7.128149021e-19
-7.150481586e-21
7.167161861e-19
-7.664574232e-21
7.207416996e-19
-8.147134846e-21
7.248825321e-19
-8.594426347e-21
7.291288637e-19
-9.002006239e-21
7.334689261e-19
-9.365486248e-21
7.378896639e-19
-9.679689437e-21
7.423757083e-19
-9.93942115e-21
7.469100712e-19
-1.013862276e-20
7.514730717e-19
-1.027119065e-20
7.560430153e-19
-1.033013126e-20
7.605950604e-19
-1.030841867e-20
7.651019461e-19
-1.019810691e-20
7.695329013e-19
-9.991184922e-21
7.738544885e-19
-9.678652021e-21
7.780295555e-19
-9.251417656e-21
7.820181026e-19
-8.699416996e-21
7.857761599e-19
-8.012624834e-21
7.892566152e-19
-7.180221568e-21
7.924080593e-19
-6.191665089e-21
7.951757282e-19
-5.035826251e-21
7.975004773e-19
-3.702077338e-21
7.99319941e-19
-2.179417454e-21
8.0056762e-19
-4.576828427e-22
8.011741677e-19
1.47321134e-21
8.010665195e-19
3.621860393e-21
8.001693356e-19
5.996023715e-21
7.984043205e-19
8.601107429e-21
7.956920325e-19
1.1440835e-20
7.91951576e-19
1.451571072e-20
7.871028732e-19
1.782371608e-20
7.810667276e-19
2.135868116e-20
7.737675163e-19
2.511091539e-20
7.651335833e-19
2.906541696e-20
7.551003491e-19
3.320244752e-20
7.436110205e-19
3.749567187e-20
7.306200728e-19
4.191284873e-20
7.160941871e-19
4.641411116e-20
7.000159743e-19
5.095298732e-20
6.823850038e-19
5.547501707e-20
6.632216593e-19
5.991924783e-20
6.425681143e-19
6.42172706e-20
6.204920796e-19
6.829524159e-20
5.970873103e-19
7.207333508e-20
5.724766511e-19
7.546830593e-20
5.468114032e-19
7.839342416e-20
5.202731054e-19
8.076168666e-20
4.930714404e-19
8.248636759e-20
4.654446822e-19
8.348494735e-20
4.376561668e-19
8.368015774e-20
4.099933146e-19
8.300427027e-20
3.827623493e-19
8.140006986e-20
3.562854641e-19
7.882484856e-20
3.30893547e-19
7.525073092e-20
3.069217439e-19
7.066796406e-20
2.847010601e-19
6.50843379e-20
2.645536208e-19
5.852755107e-20
2.467845024e-19
5.104342655e-20
2.316777298e-19
4.269690913e-20
2.194889725e-19
3.356859806e-20
2.104426786e-19
2.375403616e-20
2.047261825e-19
1.3358549e-20
2.024888812e-19
2.495230959e-21
2.038389773e-19
-8.721118738e-21
2.08845866e-19
-2.017636701e-20
2.17540207e-19
-3.176307202e-20
2.299194118e-19
-4.338243396e-20
2.459501764e-19
-5.494961126e-20
2.655756629e-19
-6.639456985e-20
2.887188968e-19
-7.76658228e-20
3.152900102e-19
-8.872911579e-20
3.451889183e-19
-9.956845254e-20
3.783109833e-19
-1.101817609e-19
4.14547298e-19
-1.205788841e-19
4.537871028e-19
-1.307747386e-19
4.959142277e-19
-1.407855763e-19
5.408051523e-19
-1.506215206e-19
5.883210675e-19
-1.602832168e-19
6.383017245e-19
-1.697557976e-19
6.905540808e-19
-1.790075828e-19
7.448437127e-19
-1.879867596e-19
8.008825382e-19
-1.966230266e-19
8.583206112e-19
-2.048274922e-19
9.16735735e-19
-2.124973491e-19
9.756280781e-19
-2.195186239e-19
1.034413596e-18
-2.257728169e-19
1.092422799e-18
-2.311408782e-19
1.148898761e-18
-2.355097747e-19
1.203000014e-18
-2.387754801e-19
1.253802094e-18
-2.408474908e-19
1.300302311e-18
-2.41649445e-19
1.341421882e-18
-2.411207819e-19
1.376010176e-18
-2.392148865e-19
1.402847061e-18
-2.358983401e-19
1.420648695e-18
-2.311472819e-19
1.428073035e-18
-2.249451195e-19
1.423727854e-18
-2.172780795e-19
1.406175857e-18
-2.08132382e-19
1.37393942e-18
-1.974902957e-19
1.325502961e-18
-1.853282223e-19
1.259316298e-18
-1.71614385e-19
1.173797323e-18
-1.5630833e-19
1.067337363e-18
-1.393606726e-19
9.383111408e-19
-1.207142367e-19
7.850946306e-19
-1.003081678e-19
6.059609784e-19
-7.807994012e-20
3.982295663e-19
-5.398415512e-20
1.479358483e-19
-2.798068003e-20
2.573365445e-32
6.786762286e-19
-4.389373025e-22
6.808008793e-19
-1.318584547e-21
6.831153558e-19
-2.199177222e-21
6.856519984e-19
-3.07731786e-21
6.883586445e-19
-3.949129237e-21
6.912322412e-19
-4.811108484e-21
6.942702823e-19
-5.659665347e-21
6.974693024e-19
-6.491485439e-21
7.008255657e-19
-7.302931911e-21
7.043344413e-19
-8.090457043e-21
7.079910818e-19
-8.850034303e-21
7.117896774e-19
-9.577619394e-21
7.15724038e-19
-1.026859853e-20
7.197867287e-19
-1.0918275e-20
7.239695839e-19
-1.152131393e-20
7.282627905e-19
-1.207222954e-20
7.326554123e-19
-1.256480463e-20
7.371344749e-19
-1.299257851e-20
7.416855193e-19
-1.334825047e-20
7.462916712e-19
-1.362420011e-20
7.509341902e-19
-1.381190902e-20
7.555914876e-19
-1.390252213e-20
7.602396952e-19
-1.388625816e-20
7.648516876e-19
-1.375297087e-20
7.69397729e-19
-1.349151228e-20
7.738445341e-19
-1.309030207e-20
7.781559605e-19
-1.253671778e-20
7.822920228e-19
-1.181776266e-20
7.862095711e-19
-1.091953595e-20
7.898612541e-19
-9.828002097e-21
7.931962519e-19
-8.528475418e-21
7.961593062e-19
-7.006406614e-21
7.986916093e-19
-5.246854738e-21
8.007299265e-19
-3.235348631e-21
8.022076048e-19
-9.574714211e-22
8.030537393e-19
1.600069274e-21
8.031943164e-19
4.449682743e-21
8.025515331e-19
7.60164845e-21
8.010452536e-19
1.106429805e-20
7.985926628e-19
1.48427145e-20
7.951101431e-19
1.893891701e-20
7.905132824e-19
2.335048339e-20
7.847191473e-19
2.807064421e-20
7.776466166e-19
3.308672256e-20
7.692190912e-19
3.838010014e-20
7.593652286e-19
4.392452118e-20
7.480221518e-19
4.968608007e-20
7.351365897e-19
5.562161564e-20
7.206684966e-19
6.167896502e-20
7.045924417e-19
6.77956948e-20
6.869014606e-19
7.38998482e-20
6.676085106e-19
7.990917864e-20
6.467503653e-19
8.573252501e-20
6.243888574e-19
9.126964946e-20
6.006144092e-19
9.641330513e-20
5.755465099e-19
1.010497622e-19
5.493362667e-19
1.050617066e-19
5.221655707e-19
1.083296122e-19
4.942482825e-19
1.107356248e-19
4.658278461e-19
1.12165806e-19
4.371769085e-19
1.125147745e-19
4.085930956e-19
1.116883095e-19
3.803966695e-19
1.096080094e-19
3.529241089e-19
1.062134425e-19
3.265237242e-19
1.014661085e-19
3.015474489e-19
9.535060282e-20
2.783453262e-19
8.787746941e-20
2.57256744e-19
7.908296725e-20
2.386050233e-19
6.90302877e-20
2.22689102e-19
5.780726843e-20
2.097789777e-19
4.55253383e-20
2.001085571e-19
3.231480673e-20
1.938728755e-19
1.832158479e-20
1.912233679e-19
3.700637033e-21
1.922682396e-19
-1.138852851e-20
1.970713083e-19
-2.678906883e-20
2.05656047e-19
-4.235140537e-20
2.180077647e-19
-5.794006369e-20
2.34080436e-19
-7.343737573e-20
2.538009744e-19
-8.874880135e-20
2.7707742e-19
-1.038043223e-19
3.038037612e-19
-1.185605696e-19
3.338676677e-19
-1.329982971e-19
3.671537349e-19
-1.471201625e-19
4.035483583e-19
-1.609439787e-19
4.429390387e-19
-1.744969252e-19
4.852144002e-19
-1.878064225e-19
5.302582685e-19
-2.008932977e-19
5.779443908e-19
-2.137631556e-19
6.281257706e-19
-2.264013162e-19
6.806254207e-19
-2.387671206e-19
7.352230979e-19
-2.507926389e-19
7.916448615e-19
-2.623814541e-19
8.495503823e-19
-2.734120201e-19
9.085245085e-19
-2.837411392e-19
9.68068128e-19
-2.932113212e-19
1.027594166e-18
-3.016572711e-19
1.086423744e-18
-3.089147033e-19
1.1437875e-18
-3.148267973e-19
1.198826867e-18
-3.192512583e-19
1.250599193e-18
-3.220640023e-19
1.298081323e-18
-3.231625429e-19
1.340174989e-18
-3.224658371e-19
1.375709851e-18
-3.199138471e-19
1.403448509e-18
-3.154641573e-19
1.422090956e-18
-3.090886984e-19
1.430282103e-18
-3.007684597e-19
1.426618193e-18
-2.904889459e-19
1.409652985e-18
-2.782346356e-19
1.377900481e-18
-2.639850005e-19
1.329837506e-18
-2.477106297e-19
1.263905018e-18
-2.293712045e-19
1.178509862e-18
-2.089140929e-19
1.072027724e-18
-1.862745243e-19
9.428080097e-19
-1.613772458e-19
7.89191806e-19
-1.34138233e-19
6.093861892e-19
-1.044728611e-19
4.006490757e-19
-7.228817681e-20
1.488508581e-19
-3.751568765e-20
2.602613638e-32
6.773291683e-19
-5.528135614e-22
6.794537573e-19
-1.659577499e-21
6.817709212e-19
-2.765916583e-21
6.843138633e-19
-3.868167846e-21
6.870303156e-19
-4.96241315e-21
6.899173715e-19
-6.044501499e-21
6.929722917e-19
-7.110348699e-21
6.961919433e-19
-8.155702753e-21
6.995725365e-19
-9.176280135e-21
7.031099354e-19
-1.016747619e-20
7.06799355e-19
-1.112451607e-20
7.106355781e-19
-1.204218331e-20
7.146125489e-19
-1.291498673e-20
7.187234992e-19
-1.373690255e-20
7.229604705e-19
-1.45015491e-20
7.273144124e-19
-1.520190979e-20
7.31774691e-19
-1.583050153e-20
7.363292029e-19
-1.637907836e-20
7.409638695e-19
-1.683881057e-20
7.456627493e-19
-1.720000428e-20
7.50407504e-19
-1.745231847e-20
7.551775096e-19
-1.758450117e-20
7.599493293e-19
-1.758460916e-20
7.646968718e-19
-1.7439717e-20
7.693908912e-19
-1.713611997e-20
7.73999166e-19
-1.665904636e-20
7.784859756e-19
-1.599292347e-20
7.828122524e-19
-1.512117628e-20
7.869350217e-19
-1.402660405e-20
7.908075822e-19
-1.269124151e-20
7.943789973e-19
-1.109677676e-20
7.975943707e-19
-9.224421595e-21
8.003944118e-19
-7.055373347e-21
8.027157701e-19
-4.570779934e-21
8.044906293e-19
-1.752379873e-21
8.056471186e-19
1.417323087e-21
8.061090395e-19
4.954205143e-21
8.05796541e-19
8.872203341e-21
8.04626167e-19
1.318235367e-20
8.025119254e-19
1.789242085e-20
7.993656839e-19
2.300584784e-20
7.950985841e-19
2.852126694e-20
7.896217477e-19
3.443124792e-20
7.828480661e-19
4.072160952e-20
7.746933398e-19
4.73699766e-20
7.650786166e-19
5.434500001e-20
7.539318986e-19
6.160492722e-20
7.411910635e-19
6.909699419e-20
7.268060469e-19
7.675626498e-20
7.107421592e-19
8.450544498e-20
6.929825126e-19
9.225423149e-20
6.73531506e-19
9.989975302e-20
6.524172608e-19
1.073266309e-19
6.296949802e-19
1.14408248e-19
6.054489944e-19
1.210076862e-19
5.797954854e-19
1.269800177e-19
5.528835651e-19
1.321743433e-19
5.248968015e-19
1.364373066e-19
4.960528211e-19
1.396163752e-19
4.666031728e-19
1.415645315e-19
4.368309866e-19
1.421444449e-19
4.070486822e-19
1.412336824e-19
3.775932344e-19
1.387288949e-19
3.488214639e-19
1.345506109e-19
3.211030022e-19
1.286465944e-19
2.948137009e-19
1.209955154e-19
2.703272183e-19
1.116088359e-19
2.480076746e-19
1.005326617e-19
2.282009847e-19
8.784734216e-20
2.112277772e-19
7.366661273e-20
1.973754532e-19
5.813414754e-20
1.868924793e-19
4.141961003e-20
1.799825727e-19
2.371230808e-20
1.768019752e-19
5.214880057e-21
1.774573061e-19
-1.386477798e-20
1.820069053e-19
-3.332086716e-20
1.904627446e-19
-5.295815405e-20
2.02795536e-19
-7.259906568e-20
2.189399322e-19
-9.209112832e-20
2.38802382e-19
-1.11312048e-19
2.622684194e-19
-1.30173967e-19
2.892116872e-19
-1.486241462e-19
3.195011305e-19
-1.666438466e-19
3.530083051e-19
-1.842431688e-19
3.89611154e-19
-2.014542317e-19
4.29196336e-19
-2.183212254e-19
4.716569878e-19
-2.348902304e-19
5.168885364e-19
-2.511976997e-19
5.64780121e-19
-2.672606428e-19
6.152046805e-19
-2.830673619e-19
6.68005774e-19
-2.985714937e-19
7.229844859e-19
-3.136880575e-19
7.798848786e-19
-3.282937645e-19
8.383814323e-19
-3.422297937e-19
8.980670662e-19
-3.55308647e-19
9.584448776e-19
-3.673225989e-19
1.018921929e-18
-3.780545095e-19
1.078807508e-18
-3.872882387e-19
1.137313659e-18
-3.948191111e-19
1.193559447e-18
-4.004619063e-19
1.246576072e-18
-4.040573026e-19
1.29531352e-18
-4.054749264e-19
1.338646008e-18
-4.046143547e-19
1.375377594e-18
-4.014030364e-19
1.404246914e-18
-3.957926788e-19
1.423933481e-18
-3.877534393e-19
1.433064425e-18
-3.772676785e-19
1.430221825e-18
-3.643227983e-19
1.413947461e-18
-3.489047763e-19
1.382745425e-18
-3.309921833e-19
1.33508289e-18
-3.105518433e-19
1.269390675e-18
-2.875356895e-19
1.184063208e-18
-2.618794111e-19
1.077459421e-18
-2.335025262e-19
9.479074113e-19
-2.023092994e-19
7.937148128e-19
-1.681930437e-19
6.13061379e-19
-1.310344796e-19
4.031479287e-19
-9.071806303e-20
1.497901666e-19
-4.709888958e-20
2.639639561e-32
6.758013553e-19
-6.680445007e-22
6.779270514e-19
-2.005027959e-21
6.802485558e-19
-3.340571509e-21
6.827995219e-19
-4.670662339e-21
6.855280887e-19
-5.990961613e-21
6.884313659e-19
-7.296938052e-21
6.915068261e-19
-8.583849147e-21
6.94751404e-19
-9.846843903e-21
6.981616537e-19
-1.108080333e-20
7.017336422e-19
-1.22803889e-20
7.054630515e-19
-1.343986903e-20
7.093449751e-19
-1.455316757e-20
7.133739199e-19
-1.5613701e-20
7.175435168e-19
-1.66144347e-20
7.218464749e-19
-1.754771436e-20
7.262742534e-19
-1.840531554e-20
7.308170147e-19
-1.917825141e-20
7.354632808e-19
-1.985682231e-20
7.401998719e-19
-2.043042658e-20
7.450115393e-19
-2.088763821e-20
7.498808929e-19
-2.121604286e-20
7.547880483e-19
-2.140232735e-20
7.597105873e-19
-2.143210661e-20
7.646232379e-19
-2.128999294e-20
7.694978466e-19
-2.095941363e-20
7.743030228e-19
-2.042271029e-20
7.790040636e-19
-1.966102405e-20
7.835625506e-19
-1.865449262e-20
7.879362822e-19
-1.738222062e-20
7.920789135e-19
-1.582254798e-20
7.959399725e-19
-1.39530489e-20
7.994645624e-19
-1.175084666e-20
8.025934021e-19
-9.192689521e-21
8.05262514e-19
-6.255417912e-21
8.074032635e-19
-2.91624692e-21
8.089421183e-19
8.465382772e-22
8.098008884e-19
5.053102077e-21
8.098967851e-19
9.721202162e-21
8.09143039e-19
1.486560181e-20
8.074493205e-19
2.049708988e-20
8.047226827e-19
2.662173491e-20
8.008682536e-19
3.323967452e-20
7.95790491e-19
4.034410158e-20
7.893942566e-19
4.791978308e-20
7.81586604e-19
5.594186074e-20
7.722784988e-19
6.437427798e-20
7.613873258e-19
7.316863914e-20
7.488392951e-19
8.226281587e-20
7.345725612e-19
9.158010485e-20
7.18540102e-19
1.010282501e-19
7.007131934e-19
1.104991589e-19
6.810845128e-19
1.198686054e-19
6.596717199e-19
1.289968143e-19
6.365204806e-19
1.377291843e-19
6.117077699e-19
1.458980462e-19
5.853443276e-19
1.533247212e-19
5.575771047e-19
1.598227668e-19
5.28590518e-19
1.652016008e-19
4.986073542e-19
1.692713484e-19
4.678880896e-19
1.718479028e-19
4.367295072e-19
1.727589081e-19
4.054613982e-19
1.71849487e-19
3.744424018e-19
1.689883817e-19
3.44053926e-19
1.640733019e-19
3.146934404e-19
1.570362215e-19
2.867662232e-19
1.478473965e-19
2.606769918e-19
1.365188439e-19
2.368204944e-19
1.231059598e-19
2.155725426e-19
1.077080276e-19
1.972805788e-19
9.046630416e-20
1.822554158e-19
7.156068084e-20
1.707633818e-19
5.12038721e-20
1.630206641e-19
2.963446405e-20
1.591890086e-19
7.10806185e-21
1.593743376e-19
-1.611199736e-20
1.636270588e-19
-3.976509575e-20
1.719452789e-19
-6.360345286e-20
1.842794905e-19
-8.740254347e-20
2.00539873e-19
-1.109700664e-19
2.206046849e-19
-1.341538054e-19
2.44330642e-19
-1.568464211e-19
2.715632889e-19
-1.789875134e-19
3.021476513e-19
-2.005613732e-19
3.35936724e-19
-2.215913768e-19
3.727979193e-19
-2.421302381e-19
4.126153705e-19
-2.622479359e-19
4.552888495e-19
-2.820172674e-19
5.007280088e-19
-3.01499302e-19
5.488434475e-19
-3.207290655e-19
5.995339299e-19
-3.397037469e-19
6.526717152e-19
-3.583735515e-19
7.080858246e-19
-3.766371687e-19
7.655455599e-19
-3.943413628e-19
8.247444609e-19
-4.112857243e-19
8.852870682e-19
-4.272312722e-19
9.46678518e-19
-4.419128017e-19
1.008318727e-18
-4.550527345e-19
1.069500412e-18
-4.66375859e-19
1.129411661e-18
-4.756225568e-19
1.187141323e-18
-4.825600762e-19
1.241686912e-18
-4.869902968e-19
1.291962753e-18
-4.887542186e-19
1.336808021e-18
-4.877324209e-19
1.374993457e-18
-4.838425289e-19
1.405227956e-18
-4.770335258e-19
1.426165167e-18
-4.672782607e-19
1.436411034e-18
-4.545645188e-19
1.434530469e-18
-4.388859956e-19
1.419051761e-18
-4.202335429e-19
1.388467721e-18
-3.985879013e-19
1.3412354e-18
-3.739139621e-19
1.275775082e-18
-3.461571079e-19
1.190468859e-18
-3.152414684e-19
1.083660997e-18
-2.810698116e-19
9.536592669e-19
-2.43525615e-19
7.987535287e-19
-2.024737354e-19
6.170897616e-19
-1.577688471e-19
4.058723847e-19
-1.09240524e-19
1.508116623e-19
-5.673750545e-20
2.688997932e-32
6.740872047e-19
-7.850037014e-22
6.762149304e-19
-2.355790031e-21
6.785421144e-19
-3.924496716e-21
6.811028708e-19
-5.486542159e-21
6.838456914e-19
-7.037203539e-21
6.867679583e-19
-8.571454952e-21
6.898673063e-19
-1.008405936e-20
6.931409693e-19
-1.15695126e-20
6.965857571e-19
-1.302205378e-20
7.001981527e-19
-1.443555609e-20
7.039742169e-19
-1.580351397e-20
7.079095735e-19
-1.71189342e-20
7.119992175e-19
-1.837432141e-20
7.162374262e-19
-1.956156641e-20
7.206175166e-19
-2.067192687e-20
7.25131737e-19
-2.169589627e-20
7.297710004e-19
-2.262317422e-20
7.345247556e-19
-2.344253062e-20
7.393806857e-19
-2.414178887e-20
7.443245583e-19
-2.470771223e-20
7.493399227e-19
-2.512600628e-20
7.544079945e-19
-2.538120165e-20
7.595073955e-19
-2.545664255e-20
7.646140567e-19
-2.533436176e-20
7.697009366e-19
-2.49950717e-20
7.747378536e-19
-2.441808549e-20
7.796911257e-19
-2.358139125e-20
7.845233688e-19
-2.246165421e-20
7.891931562e-19
-2.103436711e-20
7.936548956e-19
-1.927390559e-20
7.978585566e-19
-1.715372519e-20
8.017495823e-19
-1.464648701e-20
8.052685703e-19
-1.172439552e-20
8.083511217e-19
-8.359511102e-21
8.109275024e-19
-4.524319684e-21
8.129225915e-19
-1.922708305e-22
8.142557808e-19
4.661462859e-21
8.148412739e-19
1.005929235e-20
8.145883535e-19
1.602029798e-20
8.134020132e-19
2.255934366e-20
8.111834853e-19
2.968588864e-20
8.078311154e-19
3.740276868e-20
8.032411984e-19
4.570464991e-20
7.973093149e-19
5.457650588e-20
7.899317963e-19
6.399186899e-20
7.810078464e-19
7.391123983e-20
7.70441841e-19
8.42803986e-20
7.581462576e-19
9.502899013e-20
7.440446848e-19
1.060691004e-19
7.280753459e-19
1.172942414e-19
7.101945803e-19
1.28578494e-19
6.903807365e-19
1.397762596e-19
6.68637885e-19
1.507224216e-19
6.449997802e-19
1.61233371e-19
6.195334132e-19
1.711086467e-19
5.923425383e-19
1.801336801e-19
5.63570436e-19
1.880833164e-19
5.334022415e-19
1.94726536e-19
5.020660082e-19
1.99831944e-19
4.698328186e-19
2.03174278e-19
4.37015128e-19
2.045413224e-19
4.039638033e-19
2.037413601e-19
3.710632205e-19
2.006104566e-19
3.387251231e-19
1.950196845e-19
3.073807672e-19
1.868815508e-19
2.77472204e-19
1.761557025e-19
2.494422755e-19
1.628530842e-19
2.237242623e-19
1.470386025e-19
2.007308277e-19
1.2883148e-19
1.808433851e-19
1.084034867e-19
1.644017321e-19
8.597450753e-20
1.51695289e-19
6.1805983e-20
1.429558391e-19
3.619199947e-20
1.383529496e-19
9.44887343e-21
1.379916189e-19
-1.809687778e-20
1.419129316e-19
-4.612128586e-20
1.500970011e-19
-7.431638424e-20
1.624688887e-19
-1.024032601e-19
1.78906772e-19
-1.301442914e-19
1.992528897e-19
-1.573530886e-19
2.23326086e-19
-1.839014851e-19
2.509357339e-19
-2.097221376e-19
2.818950251e-19
-2.348065372e-19
3.160327865e-19
-2.591977256e-19
3.532016908e-19
-2.829784278e-19
3.932824243e-19
-3.062549948e-19
4.36182544e-19
-3.291388389e-19
4.818305532e-19
-3.517265485e-19
5.301648591e-19
-3.740810394e-19
5.811188901e-19
-3.962151208e-19
6.346026895e-19
-4.180795812e-19
6.904828789e-19
-4.395566861e-19
7.485619215e-19
-4.604601764e-19
8.085589966e-19
-4.80541391e-19
8.700936228e-19
-4.995013082e-19
9.326739926e-19
-5.170067304e-19
9.956903652e-19
-5.327091354e-19
1.058414252e-18
-5.462638603e-19
1.120002419e-18
-5.573478934e-19
1.179505095e-18
-5.656742959e-19
1.235876371e-18
-5.710025114e-19
1.287985524e-18
-5.731436142e-19
1.334627417e-18
-5.719607288e-19
1.374531732e-18
-5.673648908e-19
1.406370941e-18
-5.593073285e-19
1.428768137e-18
-5.47769007e-19
1.44030461e-18
-5.32748981e-19
1.439526293e-18
-5.142524446e-19
1.424946995e-18
-4.922797679e-19
1.395048285e-18
-4.668172512e-19
1.348277514e-18
-4.378302029e-19
1.283045316e-18
-4.052584725e-19
1.197723051e-18
-3.690144864e-19
1.090641408e-18
-3.289836539e-19
9.600945144e-19
-2.850256128e-19
8.043509507e-19
-2.369795192e-19
6.215545716e-19
-1.846611114e-19
4.088667582e-19
-1.278837047e-19
1.519433854e-19
-6.641803832e-20
2.736874236e-32
6.721805608e-19
-9.039878222e-22
6.743109128e-19
-2.712750849e-21
6.766449289e-19
-4.518991365e-21
6.792170213e-19
-6.317614636e-21
6.819761347e-19
-8.103437884e-21
6.849199162e-19
-9.8710009e-21
6.880463118e-19
-1.161455538e-20
6.91352851e-19
-1.332806263e-20
6.948367395e-19
-1.500512598e-20
6.984948688e-19
-1.663895833e-20
7.023238138e-19
-1.822229511e-20
7.063197285e-19
-1.974735267e-20
7.104782486e-19
-2.120573626e-20
7.147943143e-19
-2.258838967e-20
7.19262033e-19
-2.388549205e-20
7.238744755e-19
-2.508638533e-20
7.286235095e-19
-2.617946164e-20
7.33499557e-19
-2.715209803e-20
7.38491387e-19
-2.799055089e-20
7.435858544e-19
-2.867991051e-20
7.487677087e-19
-2.92039993e-20
7.540193793e-19
-2.954531319e-20
7.593208197e-19
-2.96849094e-20
7.646492975e-19
-2.960234029e-20
7.699791797e-19
-2.92755672e-20
7.752816178e-19
-2.868095775e-20
7.805242529e-19
-2.77932758e-20
7.856708743e-19
-2.658575064e-20
7.906811629e-19
-2.503011998e-20
7.955104305e-19
-2.309674602e-20
8.001094129e-19
-2.075472347e-20
8.044239768e-19
-1.797211267e-20
8.083948233e-19
-1.471622607e-20
8.119570941e-19
-1.095409024e-20
8.150400623e-19
-6.652967909e-21
8.175668715e-19
-1.781035346e-21
8.194545011e-19
3.691916584e-21
8.206138573e-19
9.793635063e-21
8.209500771e-19
1.654849041e-20
8.203628804e-19
2.397633029e-20
8.187470807e-19
3.209117715e-20
8.159931646e-19
4.089963518e-20
8.119881604e-19
5.039915741e-20
8.066167749e-19
6.057611103e-20
7.997630285e-19
7.14038433e-20
7.913122938e-19
8.28406655e-20
7.811538739e-19
9.482795195e-20
7.691839411e-19
1.07288239e-19
7.553089326e-19
1.20123518e-19
7.394492225e-19
1.33213689e-19
7.21543174e-19
1.464154332e-19
7.015513821e-19
1.595615227e-19
6.794611757e-19
1.724609001e-19
6.552911238e-19
1.848995263e-19
6.290955586e-19
1.966422823e-19
6.009687829e-19
2.074359314e-19
5.710488802e-19
2.170133384e-19
5.395206813e-19
2.250988535e-19
5.066176997e-19
2.314149512e-19
4.726225438e-19
2.356898291e-19
4.378656981e-19
2.376658973e-19
4.027223573e-19
2.371087146e-19
3.676074525e-19
2.338161971e-19
3.329687702e-19
2.276275451e-19
2.992784755e-19
2.184316303e-19
2.670230329e-19
2.061741644e-19
2.366919386e-19