/*--------------------------------*- C++ -*----------------------------------*\
  =========                 |
  \\      /  F ield         | OpenFOAM: The Open Source CFD Toolbox
   \\    /   O peration     | Website:  https://openfoam.org
    \\  /    A nd           | Version:  6
     \\/     M anipulation  |
\*---------------------------------------------------------------------------*/
FoamFile
{
    version     2.0;
    format      ascii;
    class       volVectorField;
    location    "0.0028";
    object      gradT;
}
// * * * * * * * * * * * * * * * * * * * * * * * * * * * * * * * * * * * * * //

dimensions      [0 -1 0 1 0 0 0];

internalField   nonuniform List<vector> 
9600
(
(0 1.905824055e-08 -5.657248125e-05)
(0 4.573978007e-08 -5.650768662e-05)
(0 8.385625842e-08 -5.63704639e-05)
(0 1.257843876e-07 -5.615701161e-05)
(0 1.562775819e-07 -5.587876465e-05)
(0 1.943940536e-07 -5.552808967e-05)
(0 2.210755904e-07 -5.511262003e-05)
(0 2.515687904e-07 -5.463235564e-05)
(0 2.820619602e-07 -5.409872163e-05)
(0 3.163667931e-07 -5.350791617e-05)
(0 3.316134055e-07 -5.285993916e-05)
(0 3.621065705e-07 -5.215859274e-05)
(0 3.887881072e-07 -5.140769806e-05)
(0 4.078463723e-07 -5.061487829e-05)
(0 4.307162365e-07 -4.976868937e-05)
(0 4.49774477e-07 -4.888819866e-05)
(0 4.650210973e-07 -4.796197105e-05)
(0 4.8407931e-07 -4.700905614e-05)
(0 4.993259024e-07 -4.602946258e-05)
(0 5.031375807e-07 -4.502319018e-05)
(0 5.145724949e-07 -4.399785414e-05)
(0 5.260074392e-07 -4.296108585e-05)
(0 5.374424158e-07 -4.189382689e-05)
(0 5.374423835e-07 -4.081893961e-05)
(0 5.412540316e-07 -3.97402432e-05)
(0 5.450657125e-07 -3.865011416e-05)
(0 5.488773279e-07 -3.755235718e-05)
(0 5.450656798e-07 -3.646222582e-05)
(0 5.412540641e-07 -3.537209658e-05)
(0 5.450656798e-07 -3.42819631e-05)
(0 5.412540316e-07 -3.320326669e-05)
(0 5.298191191e-07 -3.21321955e-05)
(0 5.260074392e-07 -3.10649321e-05)
(0 5.260074392e-07 -3.001672887e-05)
(0 5.107608774e-07 -2.897996232e-05)
(0 5.069491987e-07 -2.796225054e-05)
(0 4.955142543e-07 -2.695978708e-05)
(0 4.878909874e-07 -2.597638343e-05)
(0 4.726443657e-07 -2.50044116e-05)
(0 4.688327176e-07 -2.406293452e-05)
(0 4.535861523e-07 -2.314051707e-05)
(0 4.459628289e-07 -2.223715507e-05)
(0 4.383395327e-07 -2.135666436e-05)
(0 4.230929656e-07 -2.049904477e-05)
(0 4.15469644e-07 -1.966048095e-05)
(0 4.002230516e-07 -1.884097661e-05)
(0 3.887881306e-07 -1.805196653e-05)
(0 3.81164811e-07 -1.728582418e-05)
(0 3.659182186e-07 -1.65425528e-05)
(0 3.468599988e-07 -1.582977555e-05)
(0 3.430483299e-07 -1.512843135e-05)
(0 3.354250337e-07 -1.445376963e-05)
(0 3.201784605e-07 -1.380197864e-05)
(0 3.087434969e-07 -1.316924422e-05)
(0 2.973085526e-07 -1.255938052e-05)
(0 2.858736254e-07 -1.197238743e-05)
(0 2.78250312e-07 -1.141207444e-05)
(0 2.630037196e-07 -1.087082041e-05)
(0 2.553804387e-07 -1.034862524e-05)
(0 2.477571272e-07 -9.845487069e-06)
(0 2.363221828e-07 -9.365219407e-06)
(0 2.24887252e-07 -8.900198871e-06)
(0 2.172639423e-07 -8.461858805e-06)
(0 2.134522942e-07 -8.031142568e-06)
(0 1.982057136e-07 -7.623296678e-06)
(0 1.905824055e-07 -7.234508113e-06)
(0 1.829591093e-07 -6.85715495e-06)
(0 1.753358236e-07 -6.502672066e-06)
(0 1.677125168e-07 -6.159623346e-06)
(0 1.600892206e-07 -5.82800996e-06)
(0 1.486542852e-07 -5.519266795e-06)
(0 1.486542763e-07 -5.218146263e-06)
(0 1.448426282e-07 -4.932272655e-06)
(0 1.295960435e-07 -4.654022622e-06)
(0 1.257843876e-07 -4.398641919e-06)
(0 1.219727395e-07 -4.15469644e-06)
(0 1.143494502e-07 -3.918374492e-06)
(0 1.067261471e-07 -3.697298667e-06)
(0 1.067261471e-07 -3.480034725e-06)
(0 9.147956013e-08 -3.28182922e-06)
(0 9.529120275e-08 -3.091246617e-06)
(0 9.147955464e-08 -2.912099156e-06)
(0 8.004461512e-08 -2.732951859e-06)
(0 8.004461031e-08 -2.572862474e-06)
(0 8.004461031e-08 -2.416584902e-06)
(0 7.242131844e-08 -2.267930762e-06)
(0 6.860966598e-08 -2.126899645e-06)
(0 6.479801787e-08 -1.993491962e-06)
(0 5.717472508e-08 -1.871519334e-06)
(0 6.098636976e-08 -1.753358131e-06)
(0 5.717472165e-08 -1.635197039e-06)
(0 4.955142841e-08 -1.532282632e-06)
(0 5.336307354e-08 -1.429368041e-06)
(0 4.955142543e-08 -1.33026519e-06)
(0 3.811648339e-08 -1.23878571e-06)
(0 3.81164811e-08 -1.158741025e-06)
(0 4.573977732e-08 -1.074884767e-06)
(0 3.430483505e-08 -9.986518648e-07)
(0 3.430483299e-08 -9.300421389e-07)
(0 3.430483299e-08 -8.614324729e-07)
(0 2.668153837e-08 -8.004461512e-07)
(0 3.049318488e-08 -7.394597334e-07)
(0 2.668153677e-08 -6.822850117e-07)
(0 2.286989003e-08 -6.251103276e-07)
(0 2.668153677e-08 -5.755588646e-07)
(0 3.049318488e-08 -5.298190873e-07)
(0 2.286989003e-08 -4.764560424e-07)
(0 1.905824055e-08 -4.307162365e-07)
(0 2.286988866e-08 -3.925997553e-07)
(0 1.143494502e-08 -3.544832955e-07)
(0 2.286988866e-08 -3.12555145e-07)
(0 2.286988866e-08 -2.744386639e-07)
(0 1.524659336e-08 -2.36322197e-07)
(0 1.905824055e-08 -2.058289979e-07)
(0 1.905824055e-08 -1.677125168e-07)
(0 1.524659336e-08 -1.334076919e-07)
(0 1.143494433e-08 -1.067261471e-07)
(0 1.905824055e-08 -7.62329622e-08)
(0 1.524659336e-08 -4.192813173e-08)
(0 1.143494433e-08 -1.143494433e-08)
(0 5.336307674e-08 -5.672876223e-05)
(0 1.524659427e-07 -5.665634431e-05)
(0 2.59192087e-07 -5.651149827e-05)
(0 3.697298889e-07 -5.630185761e-05)
(0 4.688327738e-07 -5.6019799e-05)
(0 5.755588992e-07 -5.566912399e-05)
(0 6.708501076e-07 -5.525365432e-05)
(0 7.623297135e-07 -5.477720156e-05)
(0 8.423742829e-07 -5.423975586e-05)
(0 9.33853843e-07 -5.364513872e-05)
(0 1.01008687e-06 -5.299335004e-05)
(0 1.086319777e-06 -5.228438026e-05)
(0 1.162552743e-06 -5.152967389e-05)
(0 1.231162487e-06 -5.072923079e-05)
(0 1.295960435e-06 -4.987541851e-05)
(0 1.35313516e-06 -4.898730445e-05)
(0 1.41030997e-06 -4.806870009e-05)
(0 1.452238017e-06 -4.710816182e-05)
(0 1.486542852e-06 -4.612475655e-05)
(0 1.51703613e-06 -4.511848409e-05)
(0 1.555152522e-06 -4.408552469e-05)
(0 1.585645709e-06 -4.303350975e-05)
(0 1.600892398e-06 -4.196625073e-05)
(0 1.619950544e-06 -4.088374008e-05)
(0 1.623762192e-06 -3.980123195e-05)
(0 1.639008884e-06 -3.871110285e-05)
(0 1.639008786e-06 -3.761715746e-05)
(0 1.639008786e-06 -3.651559109e-05)
(0 1.635197235e-06 -3.542165014e-05)
(0 1.627573841e-06 -3.433151659e-05)
(0 1.616138896e-06 -3.324900846e-05)
(0 1.600892398e-06 -3.217031391e-05)
(0 1.585645709e-06 -3.110686209e-05)
(0 1.562775819e-06 -3.005484715e-05)
(0 1.54371767e-06 -2.901808054e-05)
(0 1.513224391e-06 -2.799655705e-05)
(0 1.490354501e-06 -2.699028189e-05)
(0 1.46367305e-06 -2.599925488e-05)
(0 1.433179775e-06 -2.504252959e-05)
(0 1.402686589e-06 -2.40896175e-05)
(0 1.368381836e-06 -2.31595767e-05)
(0 1.337888567e-06 -2.225621465e-05)
(0 1.311207029e-06 -2.137953553e-05)
(0 1.269278973e-06 -2.051429259e-05)
(0 1.23878571e-06 -1.967572873e-05)
(0 1.208292523e-06 -1.886003598e-05)
(0 1.166364462e-06 -1.806340256e-05)
(0 1.135871205e-06 -1.729344851e-05)
(0 1.097754722e-06 -1.655017709e-05)
(0 1.055826653e-06 -1.58297765e-05)
(0 1.0329567e-06 -1.513605555e-05)
(0 9.986518648e-07 -1.445758215e-05)
(0 9.567237905e-07 -1.380960276e-05)
(0 9.300421947e-07 -1.318067996e-05)
(0 8.99549008e-07 -1.256700457e-05)
(0 8.576209277e-07 -1.198001145e-05)
(0 8.309393379e-07 -1.141588677e-05)
(0 7.966345028e-07 -1.087082106e-05)
(0 7.661413621e-07 -1.034481421e-05)
(0 7.432714261e-07 -9.841676011e-06)
(0 7.051549427e-07 -9.36140832e-06)
(0 6.78473445e-07 -8.904011054e-06)
(0 6.556035143e-07 -8.454236016e-06)
(0 6.251103276e-07 -8.027331402e-06)
(0 5.984288251e-07 -7.619485487e-06)
(0 5.755588992e-07 -7.230696899e-06)
(0 5.450657125e-07 -6.857155362e-06)
(0 5.260075023e-07 -6.498860808e-06)
(0 5.069492291e-07 -6.152000419e-06)
(0 4.802676907e-07 -5.82801031e-06)
(0 4.573978281e-07 -5.515455477e-06)
(0 4.38339559e-07 -5.214334928e-06)
(0 4.26904614e-07 -4.928461302e-06)
(0 3.96411451e-07 -4.65783455e-06)
(0 3.773531855e-07 -4.398642183e-06)
(0 3.621065922e-07 -4.150885041e-06)
(0 3.392367225e-07 -3.914563079e-06)
(0 3.278017571e-07 -3.689675592e-06)
(0 3.163668121e-07 -3.476223285e-06)
(0 2.858736426e-07 -3.27420612e-06)
(0 2.782503287e-07 -3.091246803e-06)
(0 2.706270321e-07 -2.904476034e-06)
(0 2.515688055e-07 -2.732952023e-06)
(0 2.401338453e-07 -2.56905098e-06)
(0 2.286989003e-07 -2.416585047e-06)
(0 2.134523198e-07 -2.264119249e-06)
(0 2.058290103e-07 -2.130711421e-06)
(0 1.943940653e-07 -2.001115378e-06)
(0 1.791474827e-07 -1.867707798e-06)
(0 1.791474719e-07 -1.745734939e-06)
(0 1.639008786e-07 -1.639008786e-06)
(0 1.600892398e-07 -1.520847778e-06)
(0 1.448426369e-07 -1.425556479e-06)
(0 1.448426369e-07 -1.334076919e-06)
(0 1.295960513e-07 -1.238785784e-06)
(0 1.219727468e-07 -1.154929447e-06)
(0 1.181610985e-07 -1.074884832e-06)
(0 1.067261599e-07 -1.002463573e-06)
(0 1.067261535e-07 -9.300421947e-07)
(0 9.910285681e-08 -8.652441729e-07)
(0 8.766791705e-08 -7.966345506e-07)
(0 8.766791179e-08 -7.356481294e-07)
(0 8.766791179e-08 -6.784734043e-07)
(0 8.004461992e-08 -6.251103651e-07)
(0 7.242131844e-08 -5.717472508e-07)
(0 7.242131844e-08 -5.260074708e-07)
(0 7.242132278e-08 -4.802677195e-07)
(0 6.098637342e-08 -4.307162623e-07)
(0 6.098637342e-08 -3.887881306e-07)
(0 6.479802565e-08 -3.468600196e-07)
(0 6.098637342e-08 -3.087435154e-07)
(0 5.336307674e-08 -2.668153837e-07)
(0 4.955143138e-08 -2.325105626e-07)
(0 5.717472508e-08 -1.982057136e-07)
(0 5.336307674e-08 -1.639008786e-07)
(0 4.573978281e-08 -1.334076999e-07)
(0 4.192813173e-08 -1.029145051e-07)
(0 4.573978007e-08 -7.242131844e-08)
(0 4.573978281e-08 -4.573978281e-08)
(0 4.192813173e-08 -1.524659336e-08)
(0 9.147955464e-08 -5.703369067e-05)
(0 2.630037354e-07 -5.696127278e-05)
(0 4.459628289e-07 -5.681261508e-05)
(0 6.174869938e-07 -5.659916279e-05)
(0 7.813879095e-07 -5.631329256e-05)
(0 9.605353238e-07 -5.596261755e-05)
(0 1.116812896e-06 -5.554714791e-05)
(0 1.265467249e-06 -5.50630719e-05)
(0 1.421744745e-06 -5.451800292e-05)
(0 1.558964077e-06 -5.391195087e-05)
(0 1.688560214e-06 -5.325253894e-05)
(0 1.825779445e-06 -5.253975755e-05)
(0 1.947752184e-06 -5.176980463e-05)
(0 2.058290103e-06 -5.095411499e-05)
(0 2.168827775e-06 -5.010411441e-05)
(0 2.256495681e-06 -4.92083771e-05)
(0 2.347975377e-06 -4.827833786e-05)
(0 2.428019846e-06 -4.731779964e-05)
(0 2.492817864e-06 -4.632295948e-05)
(0 2.542369442e-06 -4.529762886e-05)
(0 2.595732363e-06 -4.426085786e-05)
(0 2.649095437e-06 -4.319740803e-05)
(0 2.679588782e-06 -4.212252579e-05)
(0 2.698646862e-06 -4.10400152e-05)
(0 2.725328399e-06 -3.994226055e-05)
(0 2.729140211e-06 -3.884069657e-05)
(0 2.740574991e-06 -3.773912794e-05)
(0 2.732951695e-06 -3.663756164e-05)
(0 2.732951859e-06 -3.553599746e-05)
(0 2.717705103e-06 -3.443442903e-05)
(0 2.698646862e-06 -3.334429767e-05)
(0 2.675777134e-06 -3.226179154e-05)
(0 2.645283788e-06 -3.119071649e-05)
(0 2.607167307e-06 -3.013107831e-05)
(0 2.56905098e-06 -2.909431177e-05)
(0 2.538557641e-06 -2.806516504e-05)
(0 2.489006216e-06 -2.705507829e-05)
(0 2.439454937e-06 -2.606405134e-05)
(0 2.393715013e-06 -2.509207951e-05)
(0 2.344163588e-06 -2.414297913e-05)
(0 2.283177355e-06 -2.320912674e-05)
(0 2.229814144e-06 -2.230195309e-05)
(0 2.180262719e-06 -2.141383908e-05)
(0 2.123088125e-06 -2.055240784e-05)
(0 2.073536572e-06 -1.971003238e-05)
(0 2.01636185e-06 -1.889052803e-05)
(0 1.947752301e-06 -1.809389466e-05)
(0 1.890577463e-06 -1.732775231e-05)
(0 1.825779445e-06 -1.657685763e-05)
(0 1.764793181e-06 -1.586026874e-05)
(0 1.719053298e-06 -1.515892453e-05)
(0 1.658066928e-06 -1.448807447e-05)
(0 1.604703951e-06 -1.382484853e-05)
(0 1.555152429e-06 -1.319211411e-05)
(0 1.497977707e-06 -1.258225041e-05)
(0 1.433179775e-06 -1.199525732e-05)
(0 1.387439912e-06 -1.142732103e-05)
(0 1.33026519e-06 -1.088225535e-05)
(0 1.280713842e-06 -1.036387183e-05)
(0 1.234973988e-06 -9.856922013e-06)
(0 1.177799266e-06 -9.372842703e-06)
(0 1.132059557e-06 -8.90401052e-06)
(0 1.086319711e-06 -8.461858805e-06)
(0 1.04820323e-06 -8.038765864e-06)
(0 9.986518648e-07 -7.627108326e-06)
(0 9.529120275e-07 -7.230696465e-06)
(0 9.186071946e-07 -6.85715495e-06)
(0 8.728674696e-07 -6.495048769e-06)
(0 8.385625842e-07 -6.159623346e-06)
(0 8.004461031e-07 -5.831821609e-06)
(0 7.661413161e-07 -5.519266795e-06)
(0 7.318364372e-07 -5.218146263e-06)
(0 7.013432523e-07 -4.932272655e-06)
(0 6.594151626e-07 -4.665457567e-06)
(0 6.327335863e-07 -4.406265215e-06)
(0 6.060520495e-07 -4.15469644e-06)
(0 5.717472508e-07 -3.922186141e-06)
(0 5.450656798e-07 -3.701110315e-06)
(0 5.221957911e-07 -3.491469669e-06)
(0 4.84079339e-07 -3.289452516e-06)
(0 4.612094213e-07 -3.095058265e-06)
(0 4.459628289e-07 -2.915910804e-06)
(0 4.230929656e-07 -2.744386804e-06)
(0 3.964114035e-07 -2.580485771e-06)
(0 3.849764591e-07 -2.416584902e-06)
(0 3.544832955e-07 -2.275554058e-06)
(0 3.392366818e-07 -2.134522942e-06)
(0 3.239900894e-07 -1.99730361e-06)
(0 3.087435154e-07 -1.875330983e-06)
(0 2.934969045e-07 -1.757169779e-06)
(0 2.744386639e-07 -1.639008687e-06)
(0 2.59192087e-07 -1.536094281e-06)
(0 2.477571272e-07 -1.436991338e-06)
(0 2.325105347e-07 -1.337888487e-06)
(0 2.172639553e-07 -1.254032303e-06)
(0 2.020173498e-07 -1.166364322e-06)
(0 1.982057017e-07 -1.086319711e-06)
(0 1.867707686e-07 -1.006275161e-06)
(0 1.677125168e-07 -9.33853787e-07)
(0 1.639008687e-07 -8.65244121e-07)
(0 1.562775819e-07 -8.042577995e-07)
(0 1.524659244e-07 -7.432713815e-07)
(0 1.410309801e-07 -6.860966598e-07)
(0 1.295960435e-07 -6.327336243e-07)
(0 1.219727395e-07 -5.831821609e-07)
(0 1.219727395e-07 -5.260074392e-07)
(0 1.181610985e-07 -4.802676907e-07)
(0 1.143494433e-07 -4.383395327e-07)
(0 1.02914499e-07 -3.887881072e-07)
(0 9.910285681e-08 -3.468599988e-07)
(0 9.910285086e-08 -3.087434969e-07)
(0 9.529120275e-08 -2.744386639e-07)
(0 8.385626346e-08 -2.36322197e-07)
(0 8.766790653e-08 -1.943940536e-07)
(0 8.385625842e-08 -1.677125168e-07)
(0 7.623296678e-08 -1.334076919e-07)
(0 7.62329622e-08 -1.02914499e-07)
(0 7.242131409e-08 -7.62329622e-08)
(0 7.242131844e-08 -4.573978007e-08)
(0 7.62329622e-08 -1.905824055e-08)
(0 1.295960357e-07 -5.74796535e-05)
(0 3.735415372e-07 -5.740342398e-05)
(0 6.251102901e-07 -5.725476626e-05)
(0 8.65244121e-07 -5.703750232e-05)
(0 1.105378018e-06 -5.675544377e-05)
(0 1.345511783e-06 -5.639333379e-05)
(0 1.566587373e-06 -5.597024085e-05)
(0 1.783851423e-06 -5.548235322e-05)
(0 1.99730361e-06 -5.492584927e-05)
(0 2.203132608e-06 -5.430455063e-05)
(0 2.38609186e-06 -5.363751542e-05)
(0 2.569050826e-06 -5.290567577e-05)
(0 2.740574991e-06 -5.213572285e-05)
(0 2.896852738e-06 -5.130859829e-05)
(0 3.041695192e-06 -5.044335109e-05)
(0 3.182726172e-06 -4.953617884e-05)
(0 3.300887461e-06 -4.858708138e-05)
(0 3.411425059e-06 -4.761129654e-05)
(0 3.502904613e-06 -4.660502144e-05)
(0 3.582949439e-06 -4.557206754e-05)
(0 3.65155889e-06 -4.451242663e-05)
(0 3.716356907e-06 -4.344135351e-05)
(0 3.765908559e-06 -4.235884799e-05)
(0 3.796401518e-06 -4.125727914e-05)
(0 3.826894703e-06 -4.014808954e-05)
(0 3.842141526e-06 -3.902746734e-05)
(0 3.845952943e-06 -3.791446375e-05)
(0 3.845952943e-06 -3.68014625e-05)
(0 3.830706581e-06 -3.568465175e-05)
(0 3.819271406e-06 -3.45830833e-05)
(0 3.788778222e-06 -3.347770535e-05)
(0 3.754473614e-06 -3.239138758e-05)
(0 3.712545259e-06 -3.131268923e-05)
(0 3.662993834e-06 -3.024542775e-05)
(0 3.609630977e-06 -2.918960298e-05)
(0 3.552456039e-06 -2.816045624e-05)
(0 3.495281317e-06 -2.714274619e-05)
(0 3.422860208e-06 -2.61479076e-05)
(0 3.354250337e-06 -2.516450082e-05)
(0 3.285640671e-06 -2.420777715e-05)
(0 3.209407901e-06 -2.327392476e-05)
(0 3.133174747e-06 -2.235912781e-05)
(0 3.053130136e-06 -2.146720216e-05)
(0 2.976897353e-06 -2.060195927e-05)
(0 2.908287508e-06 -1.975577216e-05)
(0 2.820619602e-06 -1.893626781e-05)
(0 2.729140211e-06 -1.813963444e-05)
(0 2.656718733e-06 -1.736205714e-05)
(0 2.56142753e-06 -1.661497411e-05)
(0 2.47757142e-06 -1.588313863e-05)
(0 2.405149958e-06 -1.518179442e-05)
(0 2.328916995e-06 -1.449950941e-05)
(0 2.252684168e-06 -1.384771842e-05)
(0 2.172639423e-06 -1.32073607e-05)
(0 2.092594812e-06 -1.260130865e-05)
(0 2.012550323e-06 -1.201050392e-05)
(0 1.940128888e-06 -1.144256763e-05)
(0 1.871519222e-06 -1.08936903e-05)
(0 1.795286368e-06 -1.036768348e-05)
(0 1.726676594e-06 -9.868356957e-06)
(0 1.658066928e-06 -9.380465999e-06)
(0 1.589457357e-06 -8.915445465e-06)
(0 1.524659244e-06 -8.469482101e-06)
(0 1.459861226e-06 -8.038765864e-06)
(0 1.39887494e-06 -7.634731623e-06)
(0 1.345511783e-06 -7.238319761e-06)
(0 1.280713765e-06 -6.864778246e-06)
(0 1.223539117e-06 -6.510295363e-06)
(0 1.173987618e-06 -6.159623346e-06)
(0 1.116812896e-06 -5.835633257e-06)
(0 1.071073183e-06 -5.523078443e-06)
(0 1.025333342e-06 -5.225769559e-06)
(0 9.757819162e-07 -4.939895951e-06)
(0 9.262305463e-07 -4.669269215e-06)
(0 8.881140097e-07 -4.410076863e-06)
(0 8.461858805e-07 -4.162319736e-06)
(0 7.966345028e-07 -3.925997789e-06)
(0 7.661412701e-07 -3.704921963e-06)
(0 7.204014928e-07 -3.495281317e-06)
(0 6.822850527e-07 -3.293264165e-06)
(0 6.55603475e-07 -3.098869914e-06)
(0 6.21298642e-07 -2.915910804e-06)
(0 5.869938442e-07 -2.744386804e-06)
(0 5.641239203e-07 -2.580485771e-06)
(0 5.298190873e-07 -2.424208198e-06)
(0 5.031375807e-07 -2.275554058e-06)
(0 4.726443657e-07 -2.134522942e-06)
(0 4.573977732e-07 -2.001115258e-06)
(0 4.26904614e-07 -1.875330983e-06)
(0 4.040346997e-07 -1.757169779e-06)
(0 3.925997553e-07 -1.646631984e-06)
(0 3.621065922e-07 -1.539905929e-06)
(0 3.430483299e-07 -1.436991338e-06)
(0 3.239900894e-07 -1.345511783e-06)
(0 3.087435154e-07 -1.250220655e-06)
(0 2.896852564e-07 -1.162552674e-06)
(0 2.78250312e-07 -1.086319711e-06)
(0 2.553804387e-07 -1.01008681e-06)
(0 2.439454791e-07 -9.376654351e-07)
(0 2.286988866e-07 -8.690557691e-07)
(0 2.13452307e-07 -8.042577995e-07)
(0 2.096406461e-07 -7.470830296e-07)
(0 1.982057017e-07 -6.860966598e-07)
(0 1.829591203e-07 -6.289219759e-07)
(0 1.791474612e-07 -5.755588646e-07)
(0 1.677125168e-07 -5.298190873e-07)
(0 1.639008786e-07 -4.84079339e-07)
(0 1.562775725e-07 -4.345278846e-07)
(0 1.486542763e-07 -3.925997553e-07)
(0 1.372193402e-07 -3.544832955e-07)
(0 1.410309801e-07 -3.12555145e-07)
(0 1.295960357e-07 -2.706270158e-07)
(0 1.257843952e-07 -2.401338453e-07)
(0 1.143494433e-07 -2.020173498e-07)
(0 1.143494433e-07 -1.677125168e-07)
(0 1.105378018e-07 -1.410309885e-07)
(0 1.067261471e-07 -1.067261471e-07)
(0 1.067261471e-07 -7.62329622e-08)
(0 9.910285681e-08 -4.192813173e-08)
(0 1.067261471e-07 -1.143494433e-08)
(0 1.715241752e-07 -5.808189739e-05)
(0 4.878910166e-07 -5.800185625e-05)
(0 8.080694478e-07 -5.785319849e-05)
(0 1.120624612e-06 -5.762831124e-05)
(0 1.429368213e-06 -5.73310061e-05)
(0 1.738111643e-06 -5.697270772e-05)
(0 2.031608565e-06 -5.653817981e-05)
(0 2.313670681e-06 -5.603123394e-05)
(0 2.588109222e-06 -5.546329498e-05)
(0 2.847301309e-06 -5.483818465e-05)
(0 3.091246988e-06 -5.414827955e-05)
(0 3.327569e-06 -5.341262817e-05)
(0 3.548644603e-06 -5.261599367e-05)
(0 3.75066219e-06 -5.177743414e-05)
(0 3.941244382e-06 -5.088550532e-05)
(0 4.112768558e-06 -4.996308643e-05)
(0 4.269046396e-06 -4.900255398e-05)
(0 4.413888776e-06 -4.800389918e-05)
(0 4.532049875e-06 -4.697856578e-05)
(0 4.634964658e-06 -4.593036524e-05)
(0 4.72644394e-06 -4.485547765e-05)
(0 4.802676907e-06 -4.376534623e-05)
(0 4.863663572e-06 -4.265997077e-05)
(0 4.913214709e-06 -4.154315525e-05)
(0 4.943707896e-06 -4.041490734e-05)
(0 4.962766435e-06 -3.928666179e-05)
(0 4.970389434e-06 -3.815078822e-05)
(0 4.966577786e-06 -3.702254032e-05)
(0 4.947519841e-06 -3.589810621e-05)
(0 4.928461302e-06 -3.477747944e-05)
(0 4.88653317e-06 -3.366447813e-05)
(0 4.844605329e-06 -3.255910206e-05)
(0 4.791241962e-06 -3.146896869e-05)
(0 4.730255589e-06 -3.039408385e-05)
(0 4.654022901e-06 -2.933063573e-05)
(0 4.585412952e-06 -2.828243067e-05)
(0 4.501556688e-06 -2.725709727e-05)
(0 4.413889041e-06 -2.625463533e-05)
(0 4.333844161e-06 -2.526360519e-05)
(0 4.234741304e-06 -2.429544651e-05)
(0 4.135638696e-06 -2.335778242e-05)
(0 4.032723943e-06 -2.243536212e-05)
(0 3.941244382e-06 -2.153581311e-05)
(0 3.83070681e-06 -2.066675853e-05)
(0 3.743038669e-06 -1.981675971e-05)
(0 3.632500867e-06 -1.898963202e-05)
(0 3.518151628e-06 -1.818918696e-05)
(0 3.41904856e-06 -1.740779796e-05)
(0 3.30469911e-06 -1.665309159e-05)
(0 3.1941615e-06 -1.592125607e-05)
(0 3.0988701e-06 -1.521610017e-05)
(0 2.999767243e-06 -1.453381512e-05)
(0 2.896852911e-06 -1.387058914e-05)
(0 2.797749881e-06 -1.323404303e-05)
(0 2.691023727e-06 -1.262036765e-05)
(0 2.595732675e-06 -1.202956288e-05)
(0 2.50044131e-06 -1.146162656e-05)
(0 2.40896175e-06 -1.091274919e-05)
(0 2.309859032e-06 -1.03829307e-05)
(0 2.218379333e-06 -9.879792494e-06)
(0 2.13452307e-06 -9.395713155e-06)
(0 2.039231984e-06 -8.926880945e-06)
(0 1.966810543e-06 -8.477105906e-06)
(0 1.879142631e-06 -8.05401294e-06)
(0 1.799098124e-06 -7.642355378e-06)
(0 1.730488346e-06 -7.253566789e-06)
(0 1.646632082e-06 -6.872401955e-06)
(0 1.578022507e-06 -6.510295753e-06)
(0 1.509412742e-06 -6.167247012e-06)
(0 1.440803072e-06 -5.831821958e-06)
(0 1.372193484e-06 -5.519267126e-06)
(0 1.318830325e-06 -5.225769873e-06)
(0 1.257843952e-06 -4.943707896e-06)
(0 1.189234353e-06 -4.669269495e-06)
(0 1.139682853e-06 -4.40626548e-06)
(0 1.082508128e-06 -4.162319986e-06)
(0 1.032956762e-06 -3.929809673e-06)
(0 9.757819748e-07 -3.701110537e-06)
(0 9.300421947e-07 -3.495281527e-06)
(0 8.843024677e-07 -3.289452714e-06)
(0 8.423742829e-07 -3.0988701e-06)
(0 7.966345028e-07 -2.915910979e-06)
(0 7.547064164e-07 -2.748198617e-06)
(0 7.20401536e-07 -2.580485925e-06)
(0 6.86096701e-07 -2.424208344e-06)
(0 6.441686079e-07 -2.275554195e-06)
(0 6.136753826e-07 -2.138334718e-06)
(0 5.831821958e-07 -2.001115378e-06)
(0 5.488773937e-07 -1.879142744e-06)
(0 5.221958224e-07 -1.760981533e-06)
(0 4.993259324e-07 -1.650443731e-06)
(0 4.688327738e-07 -1.539906021e-06)
(0 4.38339559e-07 -1.436991424e-06)
(0 4.230929656e-07 -1.337888567e-06)
(0 3.96411451e-07 -1.25022073e-06)
(0 3.697298889e-07 -1.166364392e-06)
(0 3.544832955e-07 -1.082508128e-06)
(0 3.278017768e-07 -1.01008687e-06)
(0 3.163668121e-07 -9.376654914e-07)
(0 2.934969221e-07 -8.652441729e-07)
(0 2.782503454e-07 -8.042578478e-07)
(0 2.668153837e-07 -7.432714261e-07)
(0 2.553804387e-07 -6.86096701e-07)
(0 2.363222112e-07 -6.365453108e-07)
(0 2.325105487e-07 -5.793705475e-07)
(0 2.210756037e-07 -5.260074708e-07)
(0 2.058290226e-07 -4.802677195e-07)
(0 1.982057136e-07 -4.38339559e-07)
(0 1.905824169e-07 -3.925997789e-07)
(0 1.791474827e-07 -3.544833168e-07)
(0 1.791474719e-07 -3.125551638e-07)
(0 1.677125269e-07 -2.782503287e-07)
(0 1.562775913e-07 -2.401338598e-07)
(0 1.562775819e-07 -2.058290103e-07)
(0 1.524659336e-07 -1.715241752e-07)
(0 1.334076999e-07 -1.372193484e-07)
(0 1.410309885e-07 -1.029145051e-07)
(0 1.372193402e-07 -6.86096701e-08)
(0 1.334076999e-07 -4.573978281e-08)
(0 1.334076919e-07 -1.905824169e-08)
(0 2.134522942e-07 -5.884041188e-05)
(0 5.984287892e-07 -5.876418244e-05)
(0 9.948401568e-07 -5.860790134e-05)
(0 1.387439912e-06 -5.837539081e-05)
(0 1.764793181e-06 -5.807427409e-05)
(0 2.13833459e-06 -5.769691744e-05)
(0 2.508064456e-06 -5.725095461e-05)
(0 2.854924606e-06 -5.673638552e-05)
(0 3.194161116e-06 -5.614938831e-05)
(0 3.518151206e-06 -5.550521978e-05)
(0 3.811648339e-06 -5.480006817e-05)
(0 4.105145015e-06 -5.403773526e-05)
(0 4.37577203e-06 -5.322204256e-05)
(0 4.623529435e-06 -5.235680158e-05)
(0 4.856039692e-06 -5.145724949e-05)
(0 5.069491987e-06 -5.050052581e-05)
(0 5.256263059e-06 -4.951712357e-05)
(0 5.427786909e-06 -4.85032222e-05)
(0 5.580252833e-06 -4.745501897e-05)
(0 5.709849212e-06 -4.638394864e-05)
(0 5.812763368e-06 -4.52861912e-05)
(0 5.915677867e-06 -4.41693783e-05)
(0 5.98809954e-06 -4.304113304e-05)
(0 6.045273903e-06 -4.190144768e-05)
(0 6.079578736e-06 -4.075795324e-05)
(0 6.106260639e-06 -3.960683789e-05)
(0 6.106260273e-06 -3.845952943e-05)
(0 6.102448624e-06 -3.730460005e-05)
(0 6.079579101e-06 -3.616491944e-05)
(0 6.052897199e-06 -3.502523448e-05)
(0 6.007157422e-06 -3.3893175e-05)
(0 5.94235976e-06 -3.277636407e-05)
(0 5.881373034e-06 -3.167098415e-05)
(0 5.805140072e-06 -3.058466444e-05)
(0 5.717472508e-06 -2.950596979e-05)
(0 5.625992611e-06 -2.845014149e-05)
(0 5.523078112e-06 -2.740193826e-05)
(0 5.41635229e-06 -2.638804145e-05)
(0 5.313437466e-06 -2.539319971e-05)
(0 5.191464726e-06 -2.442122944e-05)
(0 5.073303939e-06 -2.346831882e-05)
(0 4.947519247e-06 -2.253827528e-05)
(0 4.825546507e-06 -2.163110303e-05)
(0 4.699762402e-06 -2.075061356e-05)
(0 4.57778938e-06 -1.988917984e-05)
(0 4.448193345e-06 -1.90620522e-05)
(0 4.31478592e-06 -1.825398389e-05)
(0 4.189001273e-06 -1.746878329e-05)
(0 4.055593589e-06 -1.670645367e-05)
(0 3.918374492e-06 -1.596699489e-05)
(0 3.79258987e-06 -1.525040409e-05)
(0 3.67061713e-06 -1.456811908e-05)
(0 3.548644603e-06 -1.390489314e-05)
(0 3.422860003e-06 -1.326834707e-05)
(0 3.297075615e-06 -1.265086008e-05)
(0 3.178914715e-06 -1.206005534e-05)
(0 3.056941784e-06 -1.149211905e-05)
(0 2.942592341e-06 -1.094324172e-05)
(0 2.824431419e-06 -1.041342326e-05)
(0 2.713893454e-06 -9.90266179e-06)
(0 2.614790604e-06 -9.414770832e-06)
(0 2.504252959e-06 -8.945938651e-06)
(0 2.401338309e-06 -8.496163638e-06)
(0 2.302235459e-06 -8.065447401e-06)
(0 2.199321092e-06 -7.653789864e-06)
(0 2.111653053e-06 -7.26118965e-06)
(0 2.020173498e-06 -6.880024839e-06)
(0 1.932505708e-06 -6.517918659e-06)
(0 1.848649333e-06 -6.17105829e-06)
(0 1.760981427e-06 -5.847068201e-06)
(0 1.680936917e-06 -5.526890091e-06)
(0 1.604703854e-06 -5.221957911e-06)
(0 1.536094188e-06 -4.943707599e-06)
(0 1.459861314e-06 -4.673080863e-06)
(0 1.39125156e-06 -4.413888512e-06)
(0 1.326453542e-06 -4.162319736e-06)
(0 1.254032303e-06 -3.929809437e-06)
(0 1.196857507e-06 -3.712545259e-06)
(0 1.139682785e-06 -3.495281317e-06)
(0 1.07869648e-06 -3.293264165e-06)
(0 1.021521694e-06 -3.098869914e-06)
(0 9.757819162e-07 -2.919722452e-06)
(0 9.262305463e-07 -2.744386804e-06)
(0 8.843023616e-07 -2.576674122e-06)
(0 8.347509361e-07 -2.428019846e-06)
(0 7.890112061e-07 -2.283177355e-06)
(0 7.508946777e-07 -2.142146238e-06)
(0 7.127781966e-07 -2.012550202e-06)
(0 6.708501076e-07 -1.882954279e-06)
(0 6.365452344e-07 -1.760981427e-06)
(0 6.098636976e-07 -1.650443632e-06)
(0 5.717472508e-07 -1.547529226e-06)
(0 5.450656798e-07 -1.440802986e-06)
(0 5.107608468e-07 -1.349323431e-06)
(0 4.84079339e-07 -1.257843952e-06)
(0 4.535861251e-07 -1.173987618e-06)
(0 4.269045883e-07 -1.09013136e-06)
(0 4.078463723e-07 -1.01008681e-06)
(0 3.887881072e-07 -9.414770832e-07)
(0 3.621065705e-07 -8.728674172e-07)
(0 3.354250538e-07 -8.042577995e-07)
(0 3.278017375e-07 -7.432713815e-07)
(0 3.087434969e-07 -6.937199561e-07)
(0 2.934969221e-07 -6.365452726e-07)
(0 2.78250312e-07 -5.86993809e-07)
(0 2.706270158e-07 -5.298190873e-07)
(0 2.515687904e-07 -4.84079339e-07)
(0 2.401338309e-07 -4.383395327e-07)
(0 2.325105347e-07 -4.002230516e-07)
(0 2.210756037e-07 -3.544832955e-07)
(0 2.210755904e-07 -3.12555145e-07)
(0 2.020173498e-07 -2.78250312e-07)
(0 1.943940653e-07 -2.47757142e-07)
(0 1.905824055e-07 -2.096406461e-07)
(0 1.791474612e-07 -1.791474612e-07)
(0 1.753358236e-07 -1.410309885e-07)
(0 1.71524165e-07 -1.067261471e-07)
(0 1.639008687e-07 -7.62329622e-08)
(0 1.600892302e-07 -4.573978007e-08)
(0 1.677125168e-07 -1.524659244e-08)
(0 2.515687753e-07 -5.975520742e-05)
(0 7.20401536e-07 -5.967516639e-05)
(0 1.196857507e-06 -5.951507359e-05)
(0 1.658066928e-06 -5.927493976e-05)
(0 2.11165318e-06 -5.895476486e-05)
(0 2.557615882e-06 -5.856597321e-05)
(0 2.995955415e-06 -5.810095214e-05)
(0 3.415236912e-06 -5.756351321e-05)
(0 3.815459758e-06 -5.696889265e-05)
(0 4.200436217e-06 -5.630185424e-05)
(0 4.554919765e-06 -5.557383278e-05)
(0 4.905591118e-06 -5.478862994e-05)
(0 5.225769559e-06 -5.395006735e-05)
(0 5.515455146e-06 -5.306576817e-05)
(0 5.801328424e-06 -5.212809955e-05)
(0 6.049085551e-06 -5.115231764e-05)
(0 6.270161517e-06 -5.01346106e-05)
(0 6.479801787e-06 -4.909021601e-05)
(0 6.647514304e-06 -4.801533124e-05)
(0 6.803792285e-06 -4.691376775e-05)
(0 6.941011209e-06 -4.57931404e-05)
(0 7.043925708e-06 -4.465345761e-05)
(0 7.131594042e-06 -4.349853084e-05)
(0 7.196391632e-06 -4.233597556e-05)
(0 7.242131409e-06 -4.116198794e-05)
(0 7.265001734e-06 -3.998800272e-05)
(0 7.265001298e-06 -3.881401271e-05)
(0 7.26118965e-06 -3.764383674e-05)
(0 7.226885251e-06 -3.647366295e-05)
(0 7.196391632e-06 -3.531491974e-05)
(0 7.13921691e-06 -3.416761366e-05)
(0 7.06679602e-06 -3.30317445e-05)
(0 6.986750986e-06 -3.190730633e-05)
(0 6.895271431e-06 -3.079430508e-05)
(0 6.79235734e-06 -2.970798715e-05)
(0 6.678007489e-06 -2.86331006e-05)
(0 6.563658046e-06 -2.758489737e-05)
(0 6.430250748e-06 -2.654813068e-05)
(0 6.296842678e-06 -2.554185399e-05)
(0 6.163434994e-06 -2.455463713e-05)
(0 6.018592727e-06 -2.358647992e-05)
(0 5.86993809e-06 -2.265262472e-05)
(0 5.725095461e-06 -2.173782917e-05)
(0 5.57644152e-06 -2.084209312e-05)
(0 5.423975261e-06 -1.998065939e-05)
(0 5.271509336e-06 -1.913828516e-05)
(0 5.115232071e-06 -1.832259356e-05)
(0 4.962765839e-06 -1.752976966e-05)
(0 4.806488267e-06 -1.676744004e-05)
(0 4.646399325e-06 -1.602416962e-05)
(0 4.501556418e-06 -1.530376716e-05)
(0 4.349090494e-06 -1.460623556e-05)
(0 4.196624821e-06 -1.394300962e-05)
(0 4.051781941e-06 -1.33026519e-05)
(0 3.899316017e-06 -1.268897656e-05)
(0 3.754473614e-06 -1.209436018e-05)
(0 3.617254057e-06 -1.152261224e-05)
(0 3.487658021e-06 -1.096992326e-05)
(0 3.342815593e-06 -1.04401048e-05)
(0 3.220842653e-06 -9.925531679e-06)
(0 3.091246617e-06 -9.430017425e-06)
(0 2.961650759e-06 -8.964996893e-06)
(0 2.84348949e-06 -8.515221878e-06)
(0 2.721516751e-06 -8.084505642e-06)
(0 2.603355815e-06 -7.665224809e-06)
(0 2.50044116e-06 -7.265001298e-06)
(0 2.389903365e-06 -6.895271431e-06)
(0 2.283177355e-06 -6.529353604e-06)
(0 2.187886015e-06 -6.186304883e-06)
(0 2.084971516e-06 -5.854691497e-06)
(0 1.993492081e-06 -5.538325036e-06)
(0 1.898200759e-06 -5.241016151e-06)
(0 1.806721204e-06 -4.951330895e-06)
(0 1.726676698e-06 -4.68070416e-06)
(0 1.642820335e-06 -4.421511808e-06)
(0 1.570399021e-06 -4.177566329e-06)