/*--------------------------------*- C++ -*----------------------------------*\
  =========                 |
  \\      /  F ield         | OpenFOAM: The Open Source CFD Toolbox
   \\    /   O peration     | Website:  https://openfoam.org
    \\  /    A nd           | Version:  6
     \\/     M anipulation  |
\*---------------------------------------------------------------------------*/
FoamFile
{
    version     2.0;
    format      ascii;
    class       volVectorField;
    location    "0.0008";
    object      U;
}
// * * * * * * * * * * * * * * * * * * * * * * * * * * * * * * * * * * * * * //

dimensions      [0 1 -1 0 0 0 0];

internalField   nonuniform List<vector> 
600
(
(0 -2.446723101e-11 -5.264017373e-12)
(0 -2.548441958e-11 -7.526422199e-12)
(0 -2.759487433e-11 -1.11397301e-11)
(0 -3.095855278e-11 -1.568329856e-11)
(0 -3.589485705e-11 -2.110834319e-11)
(0 -4.287831183e-11 -2.763420865e-11)
(0 -5.262006592e-11 -3.571015978e-11)
(0 -6.617594782e-11 -4.601760224e-11)
(0 -8.508792498e-11 -5.946245809e-11)
(0 -1.114929226e-10 -7.703788534e-11)
(0 -1.479059385e-10 -9.935416759e-11)
(0 -1.957847969e-10 -1.25567001e-10)
(0 -2.508471075e-10 -1.517492487e-10)
(0 -2.916295174e-10 -1.69918642e-10)
(0 -2.650801245e-10 -1.721269636e-10)
(0 -5.8272622e-11 -1.415852442e-10)
(0 1.401344648e-11 -1.25059427e-11)
(0 2.374488489e-11 -1.558672384e-12)
(0 1.940698725e-11 2.207816995e-12)
(0 1.323728136e-11 1.647851632e-11)
(0 4.684128981e-12 1.323690253e-11)
(0 7.594740574e-13 1.133884152e-11)
(0 -1.489480763e-12 9.281034122e-12)
(0 -3.747860377e-12 9.103408614e-12)
(0 -7.39542201e-12 7.984685201e-12)
(0 -1.410323583e-11 6.431316445e-12)
(0 -1.368449564e-11 -1.510404687e-11)
(0 -3.092975449e-12 -2.47501756e-11)
(0 -1.773443139e-11 -8.425506206e-12)
(0 -1.883164618e-11 5.715708208e-11)
(0 -2.813676922e-11 -3.99265271e-12)
(0 -2.926650335e-11 -5.638134379e-12)
(0 -3.161314172e-11 -8.211043525e-12)
(0 -3.536926872e-11 -1.133031268e-11)
(0 -4.091888336e-11 -1.48669538e-11)
(0 -4.883495809e-11 -1.886388061e-11)
(0 -5.997327092e-11 -2.349495309e-11)
(0 -7.55884374e-11 -2.905680844e-11)
(0 -9.747830504e-11 -3.59682265e-11)
(0 -1.281182685e-10 -4.474760336e-11)
(0 -1.706461932e-10 -5.595403869e-11)
(0 -2.283857691e-10 -7.021017268e-11)
(0 -3.03502997e-10 -8.884854834e-11)
(0 -3.948942133e-10 -1.164987632e-10)
(0 -4.982742255e-10 -1.669509454e-10)
(0 -6.035999506e-10 -2.606205028e-10)
(0 -7.287693779e-10 -3.964155238e-10)
(0 5.67127074e-24 1.360388745e-12)
(0 1.616182597e-11 1.130502017e-12)
(0 1.626631603e-11 3.86485929e-11)
(0 -1.986124529e-13 1.608392921e-11)
(0 -2.055836885e-12 1.427588117e-11)
(0 -2.602969633e-12 9.143388089e-12)
(0 -3.701501683e-12 1.25985937e-11)
(0 -7.198960473e-12 1.163644301e-11)
(0 -2.553121302e-11 2.782713114e-11)
(0 -2.118351898e-11 -1.003739276e-11)
(0 -4.660026273e-24 -1.518356464e-11)
(0 -1.564113807e-10 2.070871406e-10)
(0 1.474574412e-11 1.899683574e-11)
(0 -3.067296091e-11 -2.647220385e-12)
(0 -3.181515007e-11 -3.645363922e-12)
(0 -3.417893238e-11 -5.118999697e-12)
(0 -3.795869675e-11 -6.718613891e-12)
(0 -4.355240479e-11 -8.220319987e-12)
(0 -5.155651769e-11 -9.465592893e-12)
(0 -6.286536362e-11 -1.031732652e-11)
(0 -7.879446811e-11 -1.06362151e-11)
(0 -1.012435926e-10 -1.027173301e-11)
(0 -1.328979131e-10 -9.068994498e-12)
(0 -1.774557977e-10 -6.893960133e-12)
(0 -2.399329284e-10 -3.689420856e-12)
(0 -3.274819388e-10 4.329516936e-13)
(0 -4.522389496e-10 5.0655785e-12)
(0 -6.392402202e-10 9.45275351e-12)
(0 -9.331940459e-10 1.26650761e-11)
(0 -1.392579605e-09 1.391112529e-11)
(0 -1.622366443e-09 6.663460349e-12)
(0 -2.226224369e-09 1.255492136e-11)
(0 -3.693390115e-11 2.575937009e-13)
(0 -5.774416419e-11 3.670297443e-13)
(0 -2.630567852e-11 4.122374112e-13)
(0 -3.166768231e-12 4.167869917e-13)
(0 1.8869806e-11 3.889678668e-13)
(0 4.588869686e-11 3.282739313e-13)
(0 2.934753811e-11 2.200400865e-13)
(0 1.277402996e-09 3.17817262e-11)
(0 4.12165826e-10 1.001268551e-11)
(0 2.184762637e-10 9.062056059e-12)
(0 1.212140171e-11 2.462761628e-26)
(0 -3.207803103e-11 -1.359339046e-12)
(0 -3.312864979e-11 -1.741163455e-12)
(0 -3.528228192e-11 -2.167280792e-12)
(0 -3.870294215e-11 -2.316322643e-12)
(0 -4.374866448e-11 -1.870903731e-12)
(0 -5.095906906e-11 -4.737246876e-13)
(0 -6.115207573e-11 2.32121225e-12)
(0 -7.554504151e-11 7.090330608e-12)
(0 -9.591105948e-11 1.455945358e-11)
(0 -1.247376582e-10 2.557059554e-11)
(0 -1.652548096e-10 4.097335942e-11)
(0 -2.210185889e-10 6.153343984e-11)
(0 -2.946293279e-10 8.836413949e-11)
(0 -3.855632164e-10 1.251782485e-10)
(0 -4.89853823e-10 1.83832947e-10)
(0 -5.962653345e-10 2.821530446e-10)
(0 -7.204857544e-10 4.207636179e-10)
(0 5.937159672e-24 -1.094261235e-12)
(0 1.641941967e-11 -6.759658676e-13)
(0 1.663334577e-11 -3.798805138e-11)
(0 -4.396874261e-14 -1.528593058e-11)
(0 -2.006079638e-12 -1.341101286e-11)
(0 -2.626239177e-12 -8.27590902e-12)
(0 -3.790014743e-12 -1.178629411e-11)
(0 -7.367888254e-12 -1.093018643e-11)
(0 -2.585948695e-11 -2.72741135e-11)
(0 -2.140355906e-11 1.039704171e-11)
(0 -4.914211377e-24 1.538583412e-11)
(0 -1.514979388e-10 -1.982305241e-10)
(0 1.474708404e-11 -1.896345568e-11)
(0 -3.246010733e-11 -2.491268775e-13)
(0 -3.33267782e-11 -1.065189534e-13)
(0 -3.506809199e-11 3.543898361e-13)
(0 -3.778787559e-11 1.425540998e-12)
(0 -4.175311807e-11 3.499257217e-12)
(0 -4.736900261e-11 7.099901694e-12)
(0 -5.526580313e-11 1.294083077e-11)
(0 -6.641658694e-11 2.198422014e-11)
(0 -8.230181166e-11 3.545810696e-11)
(0 -1.050675528e-10 5.471857233e-11)
(0 -1.373983872e-10 8.073898386e-11)
(0 -1.812273256e-10 1.129294566e-10)
(0 -2.332472561e-10 1.472556221e-10)
(0 -2.736222209e-10 1.747612486e-10)
(0 -2.514186322e-10 1.845698049e-10)
(0 -5.326270464e-11 1.536964762e-10)
(0 1.427957399e-11 1.2796338e-11)
(0 2.419942104e-11 2.16957532e-12)
(0 1.980140127e-11 -1.315524978e-12)
(0 1.358074384e-11 -1.5604192e-11)
(0 4.888455764e-12 -1.230476737e-11)
(0 8.289545009e-13 -1.037001077e-11)
(0 -1.542049484e-12 -8.322009668e-12)
(0 -3.909082873e-12 -8.203454227e-12)
(0 -7.654703969e-12 -7.180326078e-12)
(0 -1.444984345e-11 -5.728704259e-12)
(0 -1.403524379e-11 1.578638457e-11)
(0 -3.452624393e-12 2.519984644e-11)
(0 -1.790332082e-11 8.666043736e-12)
(0 -1.881812268e-11 -5.70348484e-11)
(0 -3.202277202e-11 5.88370773e-13)
(0 -3.263864802e-11 1.113780509e-12)
(0 -3.382127917e-11 2.211606485e-12)
(0 -3.55911142e-11 4.138364623e-12)
(0 -3.808220015e-11 7.325220803e-12)
(0 -4.149746952e-11 1.240251924e-11)
(0 -4.617465936e-11 2.026791467e-11)
(0 -5.269569168e-11 3.217409994e-11)
(0 -6.209578841e-11 4.977330735e-11)
(0 -7.621791328e-11 7.493936662e-11)
(0 -9.813905564e-11 1.089285269e-10)
(0 -1.320813023e-10 1.49992662e-10)
(0 -1.807804106e-10 1.882140157e-10)
(0 -2.333917431e-10 1.973375924e-10)
(0 -2.448891628e-10 1.39708861e-10)
(0 -2.577497233e-12 2.697375126e-24)
(0 2.169575351e-12 1.82671246e-11)
(0 1.076352398e-11 5.257144402e-12)
(0 1.182584675e-11 -1.073903273e-12)
(0 9.322746084e-12 -7.128588318e-12)
(0 5.190212492e-12 -7.958707447e-12)
(0 1.976678065e-12 -7.442215665e-12)
(0 -4.596826335e-13 -6.439303947e-12)
(0 -2.648331154e-12 -5.524282335e-12)
(0 -4.893138287e-12 -3.860543244e-12)
(0 -6.571419012e-12 -5.670127933e-13)
(0 -3.655202759e-12 7.301712391e-12)
(0 8.253494952e-12 1.120164453e-11)
(0 3.264068887e-11 1.377143196e-12)
(0 -2.207855903e-12 -2.533517425e-11)
(0 -3.103859278e-11 1.096136324e-12)
(0 -3.137308204e-11 1.832250581e-12)
(0 -3.193054004e-11 3.261548142e-12)
(0 -3.263652446e-11 5.594354984e-12)
(0 -3.346816198e-11 9.249410806e-12)
(0 -3.438032248e-11 1.487180614e-11)
(0 -3.532793592e-11 2.340625466e-11)
(0 -3.63207433e-11 3.620945393e-11)
(0 -3.759000597e-11 5.515578442e-11)
(0 -4.002025818e-11 8.259209024e-11)
(0 -4.615531008e-11 1.20761402e-10)
(0 -6.233178528e-11 1.698510809e-10)
(0 -1.031339737e-10 2.231820218e-10)
(0 -1.916760519e-10 2.563222046e-10)
(0 -3.853634215e-10 2.326621926e-10)
(0 -6.60826235e-12 -9.705639303e-12)
(0 -5.338668519e-12 3.062361254e-12)
(0 4.858393215e-12 1.666012462e-12)
(0 7.415668558e-12 -1.108066744e-12)
(0 6.695939667e-12 -3.876805137e-12)
(0 4.574828416e-12 -4.959077607e-12)
(0 2.348358e-12 -5.000801432e-12)
(0 3.758838464e-13 -4.468678767e-12)
(0 -1.330322172e-12 -3.5949752e-12)
(0 -2.697434428e-12 -2.171031588e-12)
(0 -3.287587819e-12 1.980894812e-14)
(0 -2.266586466e-12 2.786405176e-12)
(0 -9.477751184e-13 2.500238175e-12)
(0 -9.440140885e-12 -5.805134132e-12)
(0 -9.722477146e-12 1.698615041e-11)
(0 -2.981120322e-11 1.2636002e-12)
(0 -2.98750822e-11 2.032804203e-12)
(0 -2.983323135e-11 3.477799981e-12)
(0 -2.9521373e-11 5.750029123e-12)
(0 -2.876541993e-11 9.197772507e-12)
(0 -2.727572717e-11 1.437185153e-11)
(0 -2.461187735e-11 2.207938827e-11)
(0 -2.013297004e-11 3.346731578e-11)
(0 -1.295574212e-11 5.008772621e-11)
(0 -1.93723724e-12 7.380868024e-11)
(0 1.43212191e-11 1.062256305e-10)
(0 3.755313048e-11 1.467266175e-10)
(0 6.825826864e-11 1.867219351e-10)
(0 1.186662999e-10 1.866231315e-10)
(0 1.516974803e-11 7.712534069e-25)
(0 2.060947547e-11 -9.682582081e-12)
(0 8.790451238e-12 -2.729073524e-12)
(0 6.593095982e-12 -5.474387927e-13)
(0 6.283029148e-12 -1.146935824e-12)
(0 5.47173522e-12 -2.311137975e-12)
(0 4.066216197e-12 -3.000122414e-12)
(0 2.467076905e-12 -3.133510115e-12)
(0 9.461435985e-13 -2.839897961e-12)
(0 -3.50683975e-13 -2.21630607e-12)
(0 -1.278354139e-12 -1.248984115e-12)
(0 -1.613982247e-12 3.055163058e-14)
(0 -1.174773531e-12 1.324194959e-12)
(0 -3.380443545e-13 1.817520368e-12)
(0 6.416018739e-13 2.400741414e-12)
(0 4.3842164e-12 5.328072363e-12)
(0 -2.863131488e-11 1.128003413e-12)
(0 -2.847481754e-11 1.773423637e-12)
(0 -2.794777039e-11 2.956390093e-12)
(0 -2.681856849e-11 4.760195912e-12)
(0 -2.480168168e-11 7.414971332e-12)
(0 -2.143439109e-11 1.128795035e-11)
(0 -1.601554119e-11 1.689936062e-11)
(0 -7.52446359e-12 2.493218937e-11)
(0 5.457214123e-12 3.615575815e-11)
(0 2.481490172e-11 5.106253837e-11)
(0 5.303968941e-11 6.879213859e-11)
(0 9.387898214e-11 8.471772068e-11)
(0 1.51450021e-10 8.671933292e-11)
(0 2.53333394e-10 5.83037731e-11)
(0 1.04420294e-11 -2.863194929e-24)
(0 1.553805145e-11 5.3911982e-12)
(0 8.547250609e-12 1.002408386e-12)
(0 6.440530916e-12 2.043800615e-14)
(0 5.651969375e-12 -6.209809199e-13)
(0 4.842753076e-12 -1.220712304e-12)
(0 3.752456276e-12 -1.59706812e-12)
(0 2.508582454e-12 -1.693650496e-12)
(0 1.293087891e-12 -1.541429895e-12)
(0 2.605916745e-13 -1.181717994e-12)
(0 -4.505767268e-13 -6.391115891e-13)
(0 -7.144087438e-13 2.752567504e-14)
(0 -4.796177285e-13 6.622749454e-13)
(0 1.287713372e-13 1.044794035e-12)
(0 1.014827876e-12 1.318009617e-12)
(0 2.306061122e-12 1.38497345e-12)
(0 -2.773519572e-11 7.676889762e-13)
(0 -2.743851183e-11 1.175664623e-12)
(0 -2.660674187e-11 1.897970661e-12)
(0 -2.497380334e-11 2.947934098e-12)
(0 -2.219987968e-11 4.413304598e-12)
(0 -1.774733344e-11 6.438636678e-12)
(0 -1.083136898e-11 9.217747609e-12)
(0 -4.011531688e-13 1.297454256e-11)
(0 1.472401199e-11 1.787931488e-11)
(0 3.528174594e-11 2.377355315e-11)
(0 5.997480138e-11 2.94455333e-11)
(0 8.18356725e-11 3.117185014e-11)
(0 8.215989282e-11 2.12093883e-11)
(0 1.938588091e-11 -2.208082967e-12)
(0 -4.3144411e-12 -1.592701709e-24)
(0 -3.26350347e-12 5.369899483e-12)
(0 3.419691044e-12 1.327186508e-12)
(0 4.969706677e-12 2.477687026e-13)
(0 5.041878837e-12 -1.367128757e-13)
(0 4.49564802e-12 -3.538737734e-13)
(0 3.593278005e-12 -4.742135094e-13)
(0 2.52271513e-12 -5.030961817e-13)
(0 1.458076101e-12 -4.506947842e-13)
(0 5.516343305e-13 -3.298715142e-13)
(0 -6.911047076e-14 -1.528287545e-13)
(0 -3.125957126e-13 5.704474479e-14)
(0 -1.575051712e-13 2.5303394e-13)
(0 3.176903165e-13 3.811914359e-13)
(0 9.817812889e-13 4.415215114e-13)
(0 1.615075435e-12 3.449885059e-13)
(0 -2.727273355e-11 2.885125668e-13)
(0 -2.693205798e-11 4.03075918e-13)
(0 -2.601021133e-11 5.704879836e-13)
(0 -2.424149886e-11 7.387072285e-13)
(0 -2.128677481e-11 8.496220849e-13)
(0 -1.66096098e-11 8.209297627e-13)
(0 -9.426721423e-12 5.318652912e-13)
(0 1.3093447e-12 -1.763734807e-13)
(0 1.676954799e-11 -1.451350084e-12)
(0 3.76652862e-11 -3.238733448e-12)
(0 6.263984385e-11 -4.749302543e-12)
(0 8.460440338e-11 -3.363652739e-12)
(0 8.465437733e-11 6.343073086e-12)
(0 2.100023686e-11 2.216679065e-11)
(0 -4.312682596e-12 1.603187061e-24)
(0 -3.259373524e-12 -5.363480575e-12)
(0 3.425119829e-12 -1.31151815e-12)
(0 4.976631533e-12 -2.199744938e-13)
(0 5.050326899e-12 1.800252108e-13)
(0 4.505252442e-12 4.159734141e-13)
(0 3.603233868e-12 5.56862024e-13)
(0 2.532101179e-12 6.059570669e-13)
(0 1.466312559e-12 5.717452054e-13)
(0 5.584577041e-13 4.662134867e-13)
(0 -6.366046793e-14 3.014619565e-13)
(0 -3.085460493e-13 1.010987608e-13)
(0 -1.554710375e-13 -8.850257081e-14)
(0 3.172589085e-13 -2.147009882e-13)
(0 9.786249457e-13 -2.788270373e-13)
(0 1.609470316e-12 -1.917474864e-13)
(0 -2.729096513e-11 -1.93736513e-13)
(0 -2.700289739e-11 -3.659505441e-13)
(0 -2.620619916e-11 -7.351854858e-13)
(0 -2.466986195e-11 -1.409734453e-12)
(0 -2.210969463e-11 -2.582067965e-12)
(0 -1.806554207e-11 -4.551378419e-12)
(0 -1.183933689e-11 -7.758627077e-12)
(0 -2.4178958e-12 -1.281289578e-11)
(0 1.159332286e-11 -2.044594898e-11)
(0 3.201392952e-11 -3.122684564e-11)
(0 6.117877819e-11 -4.466607001e-11)
(0 1.025114126e-10 -5.716158929e-11)
(0 1.595218539e-10 -5.885987017e-11)
(0 2.589405573e-10 -3.754126117e-11)
(0 1.04466898e-11 2.875584643e-24)
(0 1.554958986e-11 -5.387835745e-12)
(0 8.563197126e-12 -9.904413659e-13)
(0 6.461250038e-12 3.541708445e-15)
(0 5.677826745e-12 6.609246005e-13)
(0 4.872484833e-12 1.280728781e-12)
(0 3.783261658e-12 1.679696997e-12)
(0 2.537598311e-12 1.798611409e-12)
(0 1.318332521e-12 1.666075917e-12)
(0 2.813510817e-13 1.322310683e-12)
(0 -4.342251965e-13 7.917978848e-13)
(0 -7.0256024e-13 1.343105274e-13)
(0 -4.733049201e-13 -4.94102528e-13)
(0 1.273658501e-13 -8.746970146e-13)
(0 1.004734791e-12 -1.151083613e-12)
(0 2.288752799e-12 -1.228787263e-12)
(0 -2.773355439e-11 -5.720065379e-13)
(0 -2.75798405e-11 -9.664262372e-13)
(0 -2.709071578e-11 -1.749510533e-12)
(0 -2.610135958e-11 -3.070658556e-12)
(0 -2.443787712e-11 -5.225085506e-12)
(0 -2.181195996e-11 -8.685039505e-12)
(0 -1.778417653e-11 -1.416800579e-11)
(0 -1.171934008e-11 -2.273286186e-11)
(0 -2.759805644e-12 -3.587100286e-11)
(0 1.015948731e-11 -5.548315154e-11)
(0 2.824835264e-11 -8.344923728e-11)
(0 5.283471533e-11 -1.200281848e-10)
(0 8.35801722e-11 -1.58723392e-10)
(0 1.315549919e-10 -1.644030039e-10)
(0 1.517486899e-11 -7.592896611e-25)
(0 2.062557244e-11 9.677921678e-12)
(0 8.816497282e-12 2.733944975e-12)
(0 6.627997499e-12 5.63507725e-13)
(0 6.327513971e-12 1.178967941e-12)
(0 5.524024839e-12 2.366566575e-12)
(0 4.121116495e-12 3.083076617e-12)
(0 2.518480099e-12 3.243428773e-12)
(0 9.900118335e-13 2.972461618e-12)
(0 -3.158203278e-13 2.365455441e-12)
(0 -1.251660624e-12 1.40925389e-12)
(0 -1.594446462e-12 1.371689369e-13)
(0 -1.164478579e-12 -1.150154279e-12)
(0 -3.397221758e-13 -1.638804328e-12)
(0 6.24534697e-13 -2.22204825e-12)
(0 4.352354232e-12 -5.164232777e-12)
(0 -2.845692715e-11 -7.652720216e-13)
(0 -2.849054325e-11 -1.273506526e-12)
(0 -2.84271075e-11 -2.268024957e-12)
(0 -2.818836538e-11 -3.917562991e-12)
(0 -2.774807389e-11 -6.566005741e-12)
(0 -2.705806457e-11 -1.076624625e-11)
(0 -2.60684037e-11 -1.736134071e-11)
(0 -2.478776025e-11 -2.760483854e-11)
(0 -2.346617183e-11 -4.328586741e-11)
(0 -2.305911319e-11 -6.673530612e-11)
(0 -2.629381907e-11 -1.00372445e-10)
(0 -3.992149226e-11 -1.450138361e-10)
(0 -7.94169827e-11 -1.955171612e-10)
(0 -1.696156349e-10 -2.304312446e-10)
(0 -3.722886689e-10 -2.178517861e-10)
(0 -6.591852487e-12 9.700518343e-12)
(0 -5.301992667e-12 -3.065810328e-12)
(0 4.906273003e-12 -1.66256433e-12)
(0 7.480885595e-12 1.126194411e-12)
(0 6.77659351e-12 3.922692728e-12)
(0 4.660123857e-12 5.043207678e-12)
(0 2.426983312e-12 5.120741382e-12)
(0 4.403591879e-13 4.615457197e-12)
(0 -1.281856647e-12 3.757887629e-12)
(0 -2.662511701e-12 2.340529497e-12)
(0 -3.26196841e-12 1.545254226e-13)
(0 -2.249278185e-12 -2.604455245e-12)
(0 -9.445281209e-13 -2.306660949e-12)
(0 -9.465110424e-12 6.011303868e-12)
(0 -9.776311676e-12 -1.680769516e-11)
(0 -2.926070543e-11 -7.315579692e-13)
(0 -2.949704814e-11 -1.223252078e-12)
(0 -2.989227221e-11 -2.187493942e-12)
(0 -3.045728192e-11 -3.788353764e-12)
(0 -3.131662198e-11 -6.355254791e-12)
(0 -3.266276778e-11 -1.04110082e-11)
(0 -3.481970954e-11 -1.673982883e-11)
(0 -3.835847159e-11 -2.647755611e-11)
(0 -4.432194302e-11 -4.116932398e-11)
(0 -5.460828488e-11 -6.262795536e-11)
(0 -7.245168851e-11 -9.218322109e-11)
(0 -1.024491703e-10 -1.28482281e-10)
(0 -1.482039718e-10 -1.626680679e-10)
(0 -2.008292477e-10 -1.707225016e-10)
(0 -2.186103444e-10 -1.192644727e-10)
(0 -2.564849341e-12 -2.699242795e-24)
(0 2.204190487e-12 -1.828353446e-11)
(0 1.082000223e-11 -5.271552256e-12)
(0 1.191277103e-11 1.064156142e-12)
(0 9.441038107e-12 7.15491557e-12)
(0 5.319165149e-12 8.045730749e-12)
(0 2.090729618e-12 7.581073663e-12)
(0 -3.728419198e-13 6.610442306e-12)
(0 -2.590748028e-12 5.707648673e-12)
(0 -4.85502283e-12 4.043125535e-12)
(0 -6.539431205e-12 7.453238553e-13)
(0 -3.625664952e-12 -7.113920915e-12)
(0 8.276036936e-12 -1.099556479e-11)
(0 3.260849972e-11 -1.1038469e-12)
(0 -2.301589449e-12 2.553406386e-11)
(0 -2.992799639e-11 -4.738979287e-13)
(0 -3.034336027e-11 -8.221671264e-13)
(0 -3.114237015e-11 -1.52233469e-12)
(0 -3.241074922e-11 -2.713553396e-12)
(0 -3.439713336e-11 -4.655602562e-12)
(0 -3.748587387e-11 -7.749551518e-12)
(0 -4.228201298e-11 -1.258418742e-11)
(0 -4.973604155e-11 -1.999314478e-11)
(0 -6.132334471e-11 -3.107856555e-11)
(0 -7.922585056e-11 -4.709906927e-11)
(0 -1.062423039e-10 -6.901948673e-11)
(0 -1.445751536e-10 -9.646078966e-11)
(0 -1.915068496e-10 -1.260551208e-10)
(0 -2.284503287e-10 -1.502917874e-10)
(0 -2.065438981e-10 -1.608094653e-10)
(0 -1.525828642e-11 -1.38960446e-10)
(0 1.430184198e-11 -1.280898589e-11)
(0 2.425396356e-11 -2.204190456e-12)
(0 1.990735342e-11 1.246398829e-12)
(0 1.375816812e-11 1.558571647e-11)
(0 5.086281949e-12 1.240259469e-11)
(0 9.916948692e-13 1.054649418e-11)
(0 -1.433065802e-12 8.535908756e-12)
(0 -3.849173416e-12 8.422215055e-12)
(0 -7.624836517e-12 7.381119483e-12)
(0 -1.441901486e-11 5.896823262e-12)
(0 -1.399016683e-11 -1.560322819e-11)
(0 -3.363872575e-12 -2.503063546e-11)
(0 -1.79354805e-11 -8.505429344e-12)
(0 -1.900304011e-11 5.723624852e-11)
(0 -3.026694098e-11 -3.796822219e-14)
(0 -3.080463413e-11 -1.430216442e-13)
(0 -3.187895508e-11 -3.967696086e-13)
(0 -3.362422605e-11 -8.9966779e-13)
(0 -3.636833695e-11 -1.803859181e-12)
(0 -4.06162294e-11 -3.327576109e-12)
(0 -4.714616004e-11 -5.782017778e-12)
(0 -5.713958148e-11 -9.603180492e-12)
(0 -7.2354173e-11 -1.53726346e-11)
(0 -9.530641785e-11 -2.380211867e-11)
(0 -1.293367293e-10 -3.566952788e-11)
(0 -1.782668968e-10 -5.18238249e-11)
(0 -2.452718692e-10 -7.378393433e-11)
(0 -3.310137134e-10 -1.062029128e-10)
(0 -4.33725564e-10 -1.62402025e-10)
(0 -5.45823327e-10 -2.614608993e-10)
(0 -6.866941413e-10 -4.007128218e-10)
(0 6.042715403e-24 1.071993237e-12)
(0 1.652248356e-11 6.214233474e-13)
(0 1.691859126e-11 3.785983123e-11)
(0 2.799428572e-13 1.543351737e-11)
(0 -1.775956318e-12 1.366662025e-11)
(0 -2.497121043e-12 8.565500723e-12)
(0 -3.7455373e-12 1.206666943e-11)
(0 -7.380414622e-12 1.115739258e-11)
(0 -2.584513617e-11 2.738341308e-11)
(0 -2.137292928e-11 -1.030828989e-11)
(0 -4.856340915e-24 -1.532161151e-11)
(0 -1.746924534e-10 2.038444851e-10)
(0 1.461348963e-11 1.905983797e-11)
(0 -3.014616734e-11 4.980890202e-13)
(0 -3.072798909e-11 6.909829685e-13)
(0 -3.190159791e-11 9.825883064e-13)
(0 -3.381683367e-11 1.317330207e-12)
(0 -3.682607956e-11 1.66928305e-12)
(0 -4.147248647e-11 2.033433833e-12)
(0 -4.859105132e-11 2.416970047e-12)
(0 -5.944376927e-11 2.834906306e-12)
(0 -7.590369966e-11 3.303925489e-12)
(0 -1.006874681e-10 3.838885592e-12)
(0 -1.376323882e-10 4.44322471e-12)
(0 -1.92086863e-10 5.092697832e-12)
(0 -2.718767302e-10 5.697392228e-12)
(0 -3.903313014e-10 6.048238659e-12)
(0 -5.742175078e-10 5.749316612e-12)
(0 -8.699076476e-10 4.130526268e-12)
(0 -1.334985457e-09 6.056881185e-13)
(0 -1.576905164e-09 -2.526988062e-12)
(0 -2.187591211e-09 1.675922639e-12)
(0 -3.655434757e-11 3.041753343e-15)
(0 -5.716251047e-11 7.555932495e-16)
(0 -2.600093323e-11 -3.009628926e-15)
(0 -3.033016622e-12 -6.28963075e-15)
(0 1.88673299e-11 -8.791052211e-15)
(0 4.574748857e-11 -1.05765208e-14)
(0 2.923991238e-11 -8.911866178e-15)
(0 1.264976866e-09 1.426809511e-11)
(0 3.974293904e-10 2.342073743e-11)
(0 1.993502974e-10 -5.707342705e-12)
(0 1.199760395e-11 -4.067639995e-27)
(0 -2.951781496e-11 1.039310671e-12)
(0 -3.005904177e-11 1.530342322e-12)
(0 -3.114115442e-11 2.366651063e-12)
(0 -3.289416259e-11 3.535008059e-12)
(0 -3.563672632e-11 5.135044006e-12)
(0 -3.986316375e-11 7.373223613e-12)
(0 -4.634186652e-11 1.05759334e-11)
(0 -5.624746137e-11 1.520916522e-11)
(0 -7.133392082e-11 2.189034194e-11)
(0 -9.411581772e-11 3.135988542e-11)
(0 -1.279322554e-10 4.439958645e-11)
(0 -1.766044143e-10 6.179516998e-11)
(0 -2.432993251e-10 8.486666981e-11)
(0 -3.286422592e-10 1.178365139e-10)
(0 -4.308333213e-10 1.732655698e-10)
(0 -5.421773459e-10 2.689776491e-10)
(0 -6.816583019e-10 4.002121867e-10)
(0 6.035636369e-24 -1.058344078e-12)
(0 1.652552531e-11 -6.052643655e-13)
(0 1.691934686e-11 -3.784814312e-11)
(0 2.738914749e-13 -1.543037186e-11)
(0 -1.783001542e-12 -1.367339703e-11)
(0 -2.502902466e-12 -8.580923806e-12)
(0 -3.74982419e-12 -1.208698103e-11)
(0 -7.380535436e-12 -1.118097324e-11)
(0 -2.583455965e-11 -2.740751114e-11)
(0 -2.136401741e-11 1.028907319e-11)
(0 -4.845715971e-24 1.530844532e-11)
(0 -1.590175026e-10 -2.02529063e-10)
(0 1.460657277e-11 -1.90726976e-11)
(0 -2.842503802e-11 1.492192906e-12)
(0 -2.885009397e-11 2.228337184e-12)
(0 -2.967021189e-11 3.509525003e-12)
(0 -3.096217891e-11 5.355839909e-12)
(0 -3.295559134e-11 7.96975914e-12)
(0 -3.60122387e-11 1.173768794e-11)
(0 -4.071574799e-11 1.726298051e-11)
(0 -4.800111938e-11 2.54123047e-11)
(0 -5.933695318e-11 3.732865218e-11)
(0 -7.690663608e-11 5.430308778e-11)
(0 -1.035221528e-10 7.729532742e-11)
(0 -1.414121964e-10 1.058280601e-10)
(0 -1.87875021e-10 1.362544108e-10)
(0 -2.242483347e-10 1.605255634e-10)
(0 -2.013132034e-10 1.695254414e-10)
(0 -6.786198477e-12 1.440819337e-10)
(0 1.431549114e-11 1.283078115e-11)
(0 2.427012254e-11 2.24114827e-12)
(0 1.990539237e-11 -1.208935717e-12)
(0 1.374515464e-11 -1.556215857e-11)
(0 5.067817057e-12 -1.239534403e-11)
(0 9.731262823e-13 -1.05551742e-11)
(0 -1.446600627e-12 -8.55753208e-12)
(0 -3.857331e-12 -8.451247971e-12)
(0 -7.628622973e-12 -7.411678765e-12)
(0 -1.441465089e-11 -5.929092307e-12)
(0 -1.397923496e-11 1.556549891e-11)
(0 -3.344655877e-12 2.49976324e-11)
(0 -1.793517393e-11 8.476072208e-12)
(0 -1.902252856e-11 -5.727046179e-11)
)
;

boundaryField
{
    lowerWall
    {
        type            slip;
    }
    atmosphere
    {
        type            pressureInletOutletVelocity;
        tangentialVelocity uniform (0 0 0);
        value           nonuniform List<vector> 
20
(
(0 -2.446723101e-11 -5.264017373e-12)
(0 -2.813676922e-11 -3.99265271e-12)
(0 -3.067296091e-11 -2.647220385e-12)
(0 -3.207803103e-11 -1.359339046e-12)
(0 -3.246010733e-11 -2.491268775e-13)
(0 -3.202277202e-11 5.88370773e-13)
(0 -3.103859278e-11 1.096136324e-12)
(0 -2.981120322e-11 1.2636002e-12)
(0 -2.863131488e-11 1.128003413e-12)
(0 -2.773519572e-11 7.676889762e-13)
(0 -2.727273355e-11 2.885125668e-13)
(0 -2.729096513e-11 -1.93736513e-13)
(0 -2.773355439e-11 -5.720065379e-13)
(0 -2.845692715e-11 -7.652720216e-13)
(0 -2.926070543e-11 -7.315579692e-13)
(0 -2.992799639e-11 -4.738979287e-13)
(0 -3.026694098e-11 -3.796822219e-14)
(0 -3.014616734e-11 4.980890202e-13)
(0 -2.951781496e-11 1.039310671e-12)
(0 -2.842503802e-11 1.492192906e-12)
)
;
    }
    rightWall
    {
        type            empty;
    }
    leftWall
    {
        type            empty;
    }
    frontAndBack
    {
        type            slip;
    }
    procBoundary2to0
    {
        type            processor;
        value           nonuniform List<vector> 
30
(
(0 -1.97593723e-11 -6.32551579e-12)
(0 -2.058453896e-11 -9.125034672e-12)
(0 -2.228112428e-11 -1.362538339e-11)
(0 -2.494985314e-11 -1.935478853e-11)
(0 -2.880405122e-11 -2.631425836e-11)
(0 -3.415660591e-11 -3.485011706e-11)
(0 -4.147799084e-11 -4.56139313e-11)
(0 -5.149297637e-11 -5.958432006e-11)
(0 -6.535701915e-11 -7.807472427e-11)
(0 -8.493892342e-11 -1.025413327e-10)
(0 -1.131110063e-10 -1.337606483e-10)
(0 -1.534343154e-10 -1.695250177e-10)
(0 -2.072149135e-10 -1.996971875e-10)
(0 -2.609182365e-10 -1.985582718e-10)
(0 -2.649947074e-10 -1.319651811e-10)
(0 -2.867892531e-12 -2.425867564e-24)
(0 1.558672415e-12 -1.771611011e-11)
(0 1.016162726e-11 -4.52800661e-12)
(0 1.130483166e-11 1.99171635e-12)
(0 8.915873196e-12 8.144573743e-12)
(0 4.941062349e-12 9.0467829e-12)
(0 1.900031524e-12 8.561915836e-12)
(0 -3.675367248e-13 7.537962346e-12)
(0 -2.405152762e-12 6.548350575e-12)
(0 -4.526868306e-12 4.766764228e-12)
(0 -6.121123652e-12 1.335453671e-12)
(0 -3.182221325e-12 -6.665519282e-12)
(0 8.695295116e-12 -1.072875818e-11)
(0 3.296812602e-11 -9.835131549e-13)
(0 -2.000313388e-12 2.548212332e-11)
)
;
    }
    procBoundary2to3
    {
        type            processor;
        value           nonuniform List<vector> 
20
(
(0 -3.217553757e-13 -2.34992539e-11)
(0 2.069164827e-11 -1.404695079e-11)
(0 1.899141236e-11 1.339918143e-15)
(0 2.06841813e-11 1.406047428e-11)
(0 -3.700873904e-13 2.3530909e-11)
(0 -3.45421417e-11 5.722013462e-12)
(0 -3.072793386e-12 -1.090825544e-11)
(0 4.186620311e-12 -5.695332122e-12)
(0 2.209887811e-12 -1.451131356e-12)
(0 1.56280407e-12 -2.55069297e-13)
(0 1.555730058e-12 3.948503282e-13)
(0 2.187878846e-12 1.591800312e-12)
(0 4.146596788e-12 5.83749908e-12)
(0 -3.137900023e-12 1.105255379e-11)
(0 -3.464517306e-11 -5.579800061e-12)
(0 -5.30466567e-13 -2.341015547e-11)
(0 2.045824937e-11 -1.399935462e-11)
(0 1.87702682e-11 -6.91685866e-15)
(0 2.044999427e-11 1.397986617e-11)
(0 -5.367744461e-13 2.338190868e-11)
)
;
    }
    procBoundary2to4
    {
        type            processor;
        value           nonuniform List<vector> 
30
(
(0 -2.699173236e-11 1.783927103e-12)
(0 -2.72493932e-11 2.668997641e-12)
(0 -2.76901479e-11 4.214990899e-12)
(0 -2.831124647e-11 6.457365017e-12)
(0 -2.920720476e-11 9.659059321e-12)
(0 -3.053367535e-11 1.432252841e-11)
(0 -3.257748676e-11 2.124387622e-11)
(0 -3.588106253e-11 3.159683816e-11)
(0 -4.147433533e-11 4.697836549e-11)
(0 -5.126656085e-11 6.924945089e-11)
(0 -6.854438054e-11 9.973859748e-11)
(0 -9.802843173e-11 1.369680304e-10)
(0 -1.43520742e-10 1.717135358e-10)
(0 -1.963460852e-10 1.792676322e-10)
(0 -2.150163826e-10 1.252612974e-10)
(0 -2.54305408e-12 2.879772163e-24)
(0 2.241148301e-12 1.833293399e-11)
(0 1.083567008e-11 5.329885171e-12)
(0 1.190241286e-11 -1.010065958e-12)
(0 9.411581253e-12 -7.118903761e-12)
(0 5.28087585e-12 -8.034605212e-12)
(0 2.054810405e-12 -7.594420887e-12)
(0 -3.989762394e-13 -6.641867818e-12)
(0 -2.603970875e-12 -5.748592355e-12)
(0 -4.858379773e-12 -4.084234735e-12)
(0 -6.53602468e-12 -7.820444718e-13)
(0 -3.617487102e-12 7.078119098e-12)
(0 8.284409078e-12 1.095704184e-11)
(0 3.260728952e-11 1.051627133e-12)
(0 -2.307395969e-12 -2.557737111e-11)
)
;
    }
}


// ************************************************************************* //
