/*--------------------------------*- C++ -*----------------------------------*\
  =========                 |
  \\      /  F ield         | OpenFOAM: The Open Source CFD Toolbox
   \\    /   O peration     | Website:  https://openfoam.org
    \\  /    A nd           | Version:  6
     \\/     M anipulation  |
\*---------------------------------------------------------------------------*/
FoamFile
{
    version     2.0;
    format      ascii;
    class       surfaceScalarField;
    location    "0.0013";
    object      phi;
}
// * * * * * * * * * * * * * * * * * * * * * * * * * * * * * * * * * * * * * //

dimensions      [0 3 -1 0 0 0 0];

internalField   nonuniform List<scalar> 
114720
(
3.422431073e-19
-4.876389959e-23
3.440901524e-19
-1.528649433e-22
3.459201056e-19
-2.671971669e-22
3.477991529e-19
-3.797538014e-22
3.496742438e-19
-4.908929791e-22
3.51550382e-19
-6.001577813e-22
3.534324859e-19
-7.075451787e-22
3.553255195e-19
-8.12416383e-22
3.572341672e-19
-9.146596016e-22
3.591631532e-19
-1.013532137e-21
3.611167463e-19
-1.108839853e-21
3.630989519e-19
-1.199748608e-21
3.651129407e-19
-1.28598312e-21
3.671611866e-19
-1.366611378e-21
3.692448686e-19
-1.44127542e-21
3.713640369e-19
-1.508939661e-21
3.735170694e-19
-1.569148255e-21
3.757009459e-19
-1.620739391e-21
3.779108072e-19
-1.663126864e-21
3.80140315e-19
-1.694983922e-21
3.823812231e-19
-1.715570284e-21
3.846237099e-19
-1.723389613e-21
3.868558955e-19
-1.717559688e-21
3.890641932e-19
-1.696425321e-21
3.912328828e-19
-1.658956774e-21
3.933445875e-19
-1.603310758e-21
3.953799401e-19
-1.528266302e-21
3.973180834e-19
-1.431760623e-21
3.991362318e-19
-1.312396366e-21
4.008100471e-19
-1.167959693e-21
4.023130821e-19
-9.969840949e-22
4.036171757e-19
-7.972141101e-22
4.046920253e-19
-5.671936261e-22
4.055057772e-19
-3.046726721e-22
4.060247465e-19
-8.249814772e-24
4.062140674e-19
3.242324857e-22
4.060373546e-19
6.939446803e-22
4.05457308e-19
1.102682614e-21
4.044353734e-19
1.551051997e-21
4.029325006e-19
2.040143516e-21
4.009090524e-19
2.569688691e-21
3.983258859e-19
3.139816225e-21
3.951445504e-19
3.749155271e-21
3.913286322e-19
4.396630242e-21
3.868441186e-19
5.079462614e-21
3.816608936e-19
5.794983829e-21
3.757531721e-19
6.538538416e-21
3.691010632e-19
7.305356381e-21
3.616910101e-19
8.088415883e-21
3.535173839e-19
8.88044238e-21
3.445829539e-19
9.67178534e-21
3.349005977e-19
1.045258604e-20
3.24493877e-19
1.121067497e-20
3.133988345e-19
1.193390186e-20
3.016644305e-19
1.260802259e-20
2.893539579e-19
1.321916826e-20
2.765447605e-19
1.375171463e-20
2.633288175e-19
1.419092456e-20
2.498116093e-19
1.452085842e-20
2.361120959e-19
1.472725784e-20
2.223611067e-19
1.479551976e-20
2.087009319e-19
1.471377427e-20
1.952830446e-19
1.447079419e-20
1.822667604e-19
1.40590938e-20
1.698157154e-19
1.347261818e-20
1.580954291e-19
1.270976915e-20
1.472690327e-19
1.177085493e-20
1.374947835e-19
1.066105413e-20
1.289221958e-19
9.387616231e-21
1.216902936e-19
7.962674833e-21
1.159243216e-19
6.400061139e-21
1.117344801e-19
4.717809337e-21
1.092129804e-19
2.934516538e-21
1.084334786e-19
1.07158396e-21
1.094492739e-19
-8.506818747e-22
1.122945627e-19
-2.810843235e-21
1.169847164e-19
-4.790229844e-21
1.235196668e-19
-6.770561444e-21
1.318857855e-19
-8.737737762e-21
1.420602868e-19
-1.067926588e-20
1.540133574e-19
-1.258781551e-20
1.677123176e-19
-1.445826395e-20
1.83123054e-19
-1.629070888e-20
2.002133068e-19
-1.808684795e-20
2.189529579e-19
-1.985225097e-20
2.393160022e-19
-2.159212411e-20
2.612791406e-19
-2.331310845e-20
2.848217059e-19
-2.501893716e-20
3.099218008e-19
-2.671232117e-20
3.36553609e-19
-2.839106294e-20
3.64681038e-19
-3.005041632e-20
3.942530794e-19
-3.167993341e-20
4.251962803e-19
-3.326641e-20
4.574097775e-19
-3.479151603e-20
4.907580984e-19
-3.623529098e-20
5.250668595e-19
-3.757448703e-20
5.601163307e-19
-3.878638358e-20
5.95637808e-19
-3.98475153e-20
6.313077069e-19
-4.073731651e-20
6.667440968e-19
-4.143669814e-20
7.015003245e-19
-4.193096692e-20
7.35059932e-19
-4.220788224e-20
7.668277108e-19
-4.225960316e-20
7.961215815e-19
-4.208022878e-20
8.221617487e-19
-4.166693861e-20
8.44062757e-19
-4.101724555e-20
8.608250263e-19
-4.012955671e-20
8.713296122e-19
-3.900029421e-20
8.743309225e-19
-3.762402715e-20
8.68451173e-19
-3.599086659e-20
8.521738757e-19
-3.4086707e-20
8.238413298e-19
-3.18913473e-20
7.816547128e-19
-2.937873739e-20
7.236804389e-19
-2.651629122e-20
6.478691463e-19
-2.326498645e-20
5.520874048e-19
-1.958122238e-20
4.340796271e-19
-1.541518408e-20
2.90389737e-19
-1.072161301e-20
1.102781463e-19
-5.467347171e-21
6.907094634e-21
8.528472088e-33
6.892715901e-21
9.526716092e-24
6.867574038e-21
1.90029106e-23
6.832992972e-21
2.831863214e-23
6.789878359e-21
3.747280162e-23
6.73877765e-21
4.635236914e-23
6.680096932e-21
5.496054855e-23
6.614039997e-21
6.319820799e-23
6.540813362e-21
7.107099877e-23
6.460586639e-21
7.849312022e-23
6.373648973e-21
8.547569849e-23
6.280322464e-21
9.194873888e-23
6.18105791e-21
9.793090602e-23
6.076325455e-21
1.03368026e-22
5.966682665e-21
1.082868164e-22
5.852668048e-21
1.126481067e-22
5.734863698e-21
1.164863714e-22
5.613804521e-21
1.197757814e-22
5.490043624e-21
1.225574053e-22
5.364077338e-21
1.24816587e-22
5.236410935e-21
1.265991894e-22
5.107493464e-21
1.278994504e-22
4.977779429e-21
1.287661819e-22
4.847669247e-21
1.292001682e-22
4.717565256e-21
1.29251478e-22
4.587816778e-21
1.28925336e-22
4.458771324e-21
1.282714163e-22
4.330724316e-21
1.272976115e-22
4.203966677e-21
1.260518723e-22
4.078739293e-21
1.245431775e-22
3.955277413e-21
1.22816799e-22
3.833769498e-21
1.208816448e-22
3.714398636e-21
1.187795293e-22
3.59730507e-21
1.165185387e-22
3.482624717e-21
1.14136609e-22
3.370454933e-21
1.116404168e-22
3.260890092e-21
1.090639091e-22
3.153990268e-21
1.064120695e-22
3.049814073e-21
1.037148158e-22
2.948389865e-21
1.009753988e-22
2.849746058e-21
9.821987273e-23
2.753884677e-21
9.544973241e-23
2.660809205e-21
9.26874883e-23
2.570500309e-21
8.993300282e-23
2.482941448e-21
8.7205515e-23
2.398096457e-21
8.450348399e-23
2.315933131e-21
8.184323132e-23
2.236402527e-21
7.922197077e-23
2.159460597e-21
7.665351259e-23
2.085049084e-21
7.413403826e-23
2.013115407e-21
7.167515179e-23
1.943594927e-21
6.927225114e-23
1.876429266e-21
6.693505964e-23
1.81154985e-21
6.465834314e-23
1.748894753e-21
6.245027789e-23
1.688393427e-21
6.03051683e-23
1.62998225e-21
5.822987085e-23
1.573590258e-21
5.62184119e-23
1.51915357e-21
5.427655791e-23
1.466602045e-21
5.239815189e-23
1.415872633e-21
5.058809731e-23
1.36689692e-21
4.884015825e-23
1.319613547e-21
4.715851104e-23
1.273956508e-21
4.553695465e-23
1.229866757e-21
4.39790772e-23
1.187281189e-21
4.247875764e-23
1.146143458e-21
4.103913539e-23
1.106393625e-21
3.96542237e-23
1.067978302e-21
3.832677904e-23
1.030840903e-21
3.705101144e-23
9.949311956e-22
3.582936708e-23
9.601960799e-22
3.465626655e-23
9.265885104e-22
3.353392771e-23
8.94058776e-22
3.245700722e-23
8.625629109e-22
3.142751698e-23
8.320545024e-22
3.044037902e-23
8.024926865e-22
2.949742905e-23
7.73834409e-22
2.859385111e-23
7.460418555e-22
2.773135596e-23
7.190750527e-22
2.690540456e-23
6.928988269e-22
2.611758338e-23
6.674759235e-22
2.536363527e-23
6.427737596e-22
2.464501841e-23
6.187580592e-22
2.39577408e-23
5.953990552e-22
2.330317525e-23
5.726652036e-22
2.267762317e-23
5.505287432e-22
2.208237731e-23
5.289599044e-22
2.151401625e-23
5.079326031e-22
2.097370498e-23
4.874194735e-22
2.045825453e-23
4.673970879e-22
1.996874758e-23
4.478406884e-22
1.950229661e-23
4.287283972e-22
1.905993436e-23
4.100364142e-22
1.863903815e-23
3.917437607e-22
1.824048986e-23
3.738286083e-22
1.786186051e-23
3.562724052e-22
1.750395491e-23
3.390554333e-22
1.716465546e-23
3.221598116e-22
1.684472901e-23
3.055659622e-22
1.654227726e-23
2.892567273e-22
1.625787763e-23
2.732148906e-22
1.598980065e-23
2.574259353e-22
1.573858343e-23
2.418740982e-22
1.550283017e-23
2.265441418e-22
1.528303964e-23
2.114191453e-22
1.507796492e-23
1.964840253e-22
1.488787917e-23
1.817242029e-22
1.471169348e-23
1.671274032e-22
1.454967528e-23
1.526810694e-22
1.440099814e-23
1.383732444e-22
1.426587312e-23
1.241896043e-22
1.414377493e-23
1.10113847e-22
1.403492479e-23
9.612844869e-23
1.393854413e-23
8.222401188e-23
1.385476181e-23
6.839490326e-23
1.378195567e-23
5.464113887e-23
1.372263636e-23
4.09426742e-23
1.367431097e-23
2.728202846e-23
1.364070722e-23
1.362456358e-23
1.361398431e-23
1.360547056e-23
3.416150278e-19
-1.052434196e-22
3.434456317e-19
-3.201323946e-22
3.452825546e-19
-5.410026174e-22
3.471615642e-19
-7.633984216e-22
3.490378316e-19
-9.842326175e-22
3.509150722e-19
-1.202499779e-21
3.527988603e-19
-1.416913182e-21
3.546936093e-19
-1.626957884e-21
3.566047376e-19
-1.831406306e-21
3.585364051e-19
-2.029681966e-21
3.604936224e-19
-2.220429311e-21
3.624798142e-19
-2.402933315e-21
3.644989073e-19
-2.575669301e-21
3.665527763e-19
-2.737760889e-21
3.686433776e-19
-2.887496573e-21
3.707701553e-19
-3.023820845e-21
3.72932297e-19
-3.144803443e-21
3.751261819e-19
-3.249157728e-21
3.773478004e-19
-3.33466497e-21
3.79590204e-19
-3.399738827e-21
3.818460156e-19
-3.441825508e-21
3.841047762e-19
-3.459033883e-21
3.86355497e-19
-3.448494197e-21
3.885839456e-19
-3.408026533e-21
3.907753416e-19
-3.334426478e-21
3.92911669e-19
-3.225159521e-21
3.949745336e-19
-3.076598459e-21
3.969423908e-19
-2.885804473e-21
3.987933968e-19
-2.648767485e-21
4.005024304e-19
-2.362284625e-21
4.020439478e-19
-2.02216526e-21
4.033889381e-19
-1.625142729e-21
4.045079955e-19
-1.166987493e-21
4.05368347e-19
-6.44456817e-22
4.059371431e-19
-5.337815411e-23
4.061784203e-19
6.092677828e-22
4.06056452e-19
1.347230163e-21
4.055325788e-19
2.162763162e-21
4.045687087e-19
3.05854432e-21
4.031242029e-19
4.035404703e-21
4.011597462e-19
5.094362388e-21
3.986344086e-19
6.234318946e-21
3.955099026e-19
7.454162776e-21
3.917477526e-19
8.750344257e-21
3.873138485e-19
1.011897134e-20
3.82175639e-19
1.155322284e-20
3.763069322e-19
1.304546649e-20
3.696850526e-19
1.458458762e-20
3.622958377e-19
1.615824387e-20
3.541307073e-19
1.775022832e-20
3.451918654e-19
1.934297034e-20
3.354893239e-19
2.091499144e-20
3.25046365e-19
2.244368019e-20
3.138964621e-19
2.390281608e-20
3.020887643e-19
2.526557464e-20
2.896844643e-19
2.650208071e-20
2.767617766e-19
2.758265923e-20
2.634113288e-19
2.847548788e-20
2.4974051e-19
2.915022416e-20
2.358680564e-19
2.957587508e-20
2.219280611e-19
2.972482845e-20
2.080638769e-19
2.95708179e-20
1.944315422e-19
2.909308873e-20
1.811924715e-19
2.827412522e-20
1.6851579e-19
2.710366078e-20
1.565697344e-19
2.557601047e-20
1.455234291e-19
2.369388717e-20
1.355380245e-19
2.146535003e-20
1.267689838e-19
1.8907356e-20
1.193576929e-19
1.604213139e-20
1.134344161e-19
1.290014492e-20
1.091102318e-19
9.515633605e-21
1.064805543e-19
5.928863333e-21
1.056177879e-19
2.180958166e-21
1.065762857e-19
-1.684190544e-21
1.093868588e-19
-5.62528929e-21
1.140640055e-19
-9.601641165e-21
1.206025157e-19
-1.357837012e-20
1.289864126e-19
-1.752415614e-20
1.391866214e-19
-2.141612864e-20
1.511703319e-19
-2.52370727e-20
1.648986027e-19
-2.897948421e-20
1.803351684e-19
-3.264163379e-20
1.974432426e-19
-3.623017254e-20
2.161930381e-19
-3.975474268e-20
2.365570708e-19
-4.322923142e-20
2.585155525e-19
-4.666557696e-20
2.820493988e-19
-5.007463928e-20
3.071427306e-19
-5.34603727e-20
3.337732146e-19
-5.682136724e-20
3.619117801e-19
-6.014622804e-20
3.915111629e-19
-6.341630829e-20
4.22504237e-19
-6.660264236e-20
4.547924987e-19
-6.966998708e-20
4.882445598e-19
-7.257533043e-20
5.226857251e-19
-7.527304836e-20
5.578971962e-19
-7.771453668e-20
5.936069419e-19
-7.985367551e-20
6.294894175e-19
-8.164657622e-20
6.651572425e-19
-8.305615326e-20
7.001602312e-19
-8.405093762e-20
7.339759344e-19
-8.460794819e-20
7.660055966e-19
-8.471016568e-20
7.955619688e-19
-8.434768525e-20
8.218627766e-19
-8.351415793e-20
8.440190232e-19
-8.22066606e-20
8.610303077e-19
-8.042155957e-20
8.717761094e-19
-7.815352728e-20
8.750115225e-19
-7.539133742e-20
8.693584489e-19
-7.211673569e-20
8.533013947e-19
-6.830122194e-20
8.251824819e-19
-6.390555415e-20
7.832024091e-19
-5.887797418e-20
7.25425897e-19
-5.315455314e-20
6.497975897e-19
-4.665987343e-20
5.541757848e-19
-3.930919857e-20
4.362638094e-19
-3.10167532e-20
2.926046486e-19
-2.170535973e-20
1.114520369e-19
-1.13774833e-20
6.916620935e-21
8.593761415e-33
6.902191683e-21
1.909227673e-23
6.876889345e-21
3.804332633e-23
6.842146731e-21
5.677315583e-23
6.798757521e-21
7.509654746e-23
6.747385422e-21
9.295356145e-23
6.68833419e-21
1.101865359e-22
6.621912395e-21
1.267481295e-22
6.548235086e-21
1.425025509e-22
6.467568829e-21
1.574167738e-22
6.380121636e-21
1.713809638e-22
6.286304248e-21
1.843807969e-22
6.186494659e-21
1.963342301e-22
6.081243887e-21
2.072471293e-22
5.971043591e-21
2.170646378e-22
5.856505961e-21
2.258125425e-22
5.738152771e-21
2.334611101e-22
5.6165858e-21
2.400538143e-22
5.492302476e-21
2.455826835e-22
5.365859626e-21
2.501054718e-22
5.237710874e-21
2.536315638e-22
5.108359889e-21
2.56229191e-22
4.978213124e-21
2.579206481e-22
4.847720258e-21
2.587805801e-22
4.717238831e-21
2.588400937e-22
4.587162591e-21
2.581766129e-22
4.457797244e-21
2.56826126e-22
4.329478317e-21
2.548658269e-22
4.202457737e-21
2.523333974e-22
4.077012662e-21
2.493031257e-22
3.953342022e-21
2.458120234e-22
3.83166716e-21
2.419295952e-22
3.712137416e-21
2.376902321e-22
3.594922924e-21
2.33157543e-22
3.480128322e-21
2.283621062e-22
3.367878216e-21
2.233608163e-22
3.258238057e-21
2.181798975e-22
3.151292831e-21
2.128692934e-22
3.047074467e-21
2.074504997e-22
2.945634162e-21
2.019667382e-22
2.846975753e-21
1.964348306e-22
2.751122262e-21
1.90891521e-22
2.65805456e-21
1.853493364e-22
2.567772672e-21
1.79839062e-22
2.480239263e-21
1.743692291e-22
2.395436061e-21
1.68965375e-22
2.313311736e-21
1.636325122e-22
2.23383393e-21
1.583914801e-22
2.156940993e-21
1.532443685e-22
2.082590077e-21
1.482079613e-22
2.010712382e-21
1.432818343e-22
1.941257619e-21
1.38479411e-22
1.874152441e-21
1.337982191e-22
1.809341672e-21
1.292488038e-22
1.746749539e-21
1.248271436e-22
1.686318032e-21
1.205414081e-22
1.62797069e-21
1.1638633e-22
1.57164831e-21
1.123682128e-22
1.517275076e-21
1.084808675e-22
1.464791899e-21
1.047290471e-22
1.414124609e-21
1.011059756e-22
1.365215194e-21
9.761517485e-23
1.317991908e-21
9.424945115e-23
1.272398555e-21
9.101141789e-23
1.228366366e-21
8.789365203e-23
1.185841493e-21
8.489802823e-23
1.144758478e-21
8.201709662e-23
1.105066116e-21
7.92521698e-23
1.066702468e-21
7.659584081e-23
1.029619197e-21
7.404904372e-23
9.937580375e-22
7.160450736e-23
9.590736815e-22
6.926285977e-23
9.255115344e-22
6.701708245e-23
8.93029234e-22
6.486758542e-23
8.615757194e-22
6.28076146e-23
8.311115026e-22
6.083745693e-23
8.015890622e-22
5.895065634e-23
7.729718657e-22
5.714739376e-23
7.452158595e-22
5.542158108e-23
7.1828719e-22
5.377333669e-23
6.921448357e-22
5.219692363e-23
6.667572667e-22
5.069243601e-23
6.420864449e-22
4.92544791e-23
6.181034551e-22
4.788310782e-23
5.947734675e-22
4.657332328e-23
5.720699247e-22
4.532518494e-23
5.499603478e-22
4.413407587e-23
5.284195615e-22
4.300005899e-23
5.074171234e-22
4.191883747e-23
4.869299361e-22
4.089042329e-23
4.669306089e-22
3.991089537e-23
4.473983004e-22
3.898029889e-23
4.283074742e-22
3.809510749e-23
4.096378413e-22
3.72553645e-23
3.91365109e-22
3.645780991e-23
3.734706792e-22
3.570240104e-23
3.559330844e-22
3.498623307e-23
3.387354875e-22
3.43093245e-23
3.218573395e-22
3.366915186e-23
3.052815443e-22
3.306568678e-23
2.889886339e-22
3.249659307e-23
2.72963656e-22
3.196173887e-23
2.571901666e-22
3.145915345e-23
2.416542941e-22
3.098880598e-23
2.263390526e-22
3.054906817e-23
2.112290469e-22
3.013979973e-23
1.963078287e-22
2.975947803e-23
1.815621729e-22
2.940787579e-23
1.669787161e-22
2.908383646e-23
1.525459361e-22
2.878721523e-23
1.382511371e-22
2.8517121e-23
1.240807467e-22
2.82733879e-23
1.100174605e-22
2.805539241e-23
9.604465976e-23
2.786294338e-23
8.215120081e-23
2.769488835e-23
6.833558068e-23
2.755144667e-23
5.459280938e-23
2.743135093e-23
4.0909068e-23
2.73367215e-23
2.725530473e-23
2.726507553e-23
1.36160482e-23
2.72214343e-23
2.719359634e-23
3.409129135e-19
-1.619686278e-22
3.427374457e-19
-4.887337979e-22
3.445718149e-19
-8.197495676e-22
3.464513278e-19
-1.151752806e-21
3.483291443e-19
-1.48229543e-21
3.502092571e-19
-1.8092404e-21
3.520963897e-19
-2.131196779e-21
3.539957047e-19
-2.446564364e-21
3.55911949e-19
-2.754131652e-21
3.57850139e-19
-3.052273927e-21
3.598146327e-19
-3.339658907e-21
3.618097437e-19
-3.614474933e-21
3.638387365e-19
-3.875174379e-21
3.659044001e-19
-4.119701914e-21
3.680080193e-19
-4.346256046e-21
3.701499935e-19
-4.552495897e-21
3.723288499e-19
-4.736310011e-21
3.745419821e-19
-4.894988299e-21
3.767847309e-19
-5.026005783e-21
3.79051202e-19
-5.126186699e-21
3.813333413e-19
-5.192533762e-21
3.836217611e-19
-5.221392534e-21
3.859047712e-19
-5.209315014e-21
3.881692605e-19
-5.15217571e-21
3.903997663e-19
-5.046026087e-21
3.925794641e-19
-4.886165821e-21
3.946892569e-19
-4.668032137e-21
3.967087713e-19
-4.386295935e-21
3.986153392e-19
-4.035853542e-21
4.003849234e-19
-3.610950855e-21
4.019910274e-19
-3.10621441e-21
4.034056869e-19
-2.515720735e-21
4.045984598e-19
-1.834011907e-21
4.055375676e-19
-1.055127494e-21
4.06188933e-19
-1.737012233e-22
4.06517362e-19
8.159259599e-22
4.064855243e-19
1.918450931e-21
4.060551871e-19
3.138437166e-21
4.05186256e-19
4.478993901e-21
4.038382359e-19
5.942667959e-21
4.019694864e-19
7.530144048e-21
3.995389737e-19
9.241199166e-21
3.965057122e-19
1.107333901e-20
3.928307448e-19
1.302270359e-20
3.884767166e-19
1.508254593e-20
3.83410073e-19
1.724406441e-20
3.776007661e-19
1.949477608e-20
3.71024654e-19
2.181939994e-20
3.636632959e-19
2.41982801e-20
3.555064922e-19
2.660847667e-20
3.465521251e-19
2.902236693e-20
3.368088469e-19
3.140902623e-20
3.262959626e-19
3.373303213e-20
3.150461921e-19
3.595612583e-20
3.031053587e-19
3.803617562e-20
2.905348261e-19
3.992910889e-20
2.774105223e-19
4.158808845e-20
2.638246841e-19
4.296584504e-20
2.49884075e-19
4.401424794e-20
2.357111215e-19
4.468718208e-20
2.214414659e-19
4.494050353e-20
2.072244666e-19
4.473524224e-20
1.932197733e-19
4.403754156e-20
1.795966962e-19
4.282171955e-20
1.665294243e-19
4.10698133e-20
1.541953039e-19
3.877428863e-20
1.427692894e-19
3.593712245e-20
1.324220876e-19
3.257210668e-20
1.233148029e-19
2.870329759e-20
1.155975673e-19
2.436655452e-20
1.094045859e-19
1.960690356e-20
1.048532449e-19
1.447892786e-20
1.020397373e-19
9.042929954e-21
1.010392561e-19
3.364402273e-21
1.019032285e-19
-2.490463733e-21
1.046616759e-19
-8.45557093e-21
1.093227892e-19
-1.446944917e-20
1.158775236e-19
-2.04758825e-20
1.243009577e-19
-2.642815744e-20
1.345581438e-19
-3.228916289e-20
1.466061786e-19
-3.803474521e-20
1.604002734e-19
-4.365240869e-20
1.758955647e-19
-4.914274324e-20
1.930523653e-19
-5.451585555e-20
2.118365903e-19
-5.97904379e-20
2.322229491e-19
-6.498822557e-20
2.54192818e-19
-7.013169559e-20
2.777343704e-19
-7.523806839e-20
3.028372579e-19
-8.031733744e-20
3.294895087e-19
-8.536743586e-20
3.576694614e-19
-9.037387486e-20
3.873404962e-19
-9.530703077e-20
4.184418453e-19
-1.001240289e-19
4.508829877e-19
-1.047685249e-19
4.845350942e-19
-1.091749024e-19
5.192264516e-19
-1.132702504e-19
5.547354341e-19
-1.169800057e-19
5.907873534e-19
-1.202307669e-19
6.270489362e-19
-1.229556287e-19
6.631259836e-19
-1.250959444e-19
6.985579383e-19
-1.26604674e-19
7.328139911e-19
-1.27445935e-19
7.652849861e-19
-1.275957389e-19
7.952760731e-19
-1.270393276e-19
8.219963849e-19
-1.257697397e-19
8.445514541e-19
-1.237835782e-19
8.619350527e-19
-1.210781769e-19
8.73023771e-19
-1.176466284e-19
8.765694351e-19
-1.134744512e-19
8.711924659e-19
-1.085351241e-19
8.553747555e-19
-1.027876745e-19
8.274559438e-19
-9.61739265e-20
7.856319423e-19
-8.861767308e-20
7.279595014e-19
-8.00243256e-20
6.52369305e-19
-7.028230804e-20
5.566901587e-19
-5.926800831e-20
4.38573618e-19
-4.684956087e-20
2.944458198e-19
-3.290895477e-20
1.121969345e-19
-1.733487898e-20
6.935713626e-21
8.823300553e-33
6.921143149e-21
2.877509326e-23
6.895619585e-21
5.737711071e-23
6.860470532e-21
8.557908184e-23
6.816614949e-21
1.132242421e-22
6.764618795e-21
1.40112867e-22
6.704896184e-21
1.661096948e-22
6.637667222e-21
1.910412604e-22
6.563149693e-21
2.147961851e-22
6.481533407e-21
2.372333869e-22
6.393121863e-21
2.582724799e-22
6.298258048e-21
2.778098844e-22
6.197407929e-21
2.957999906e-22
6.091061774e-21
3.121779246e-22
5.979791841e-21
3.26932787e-22
5.864154879e-21
3.400367059e-22
5.744745834e-21
3.515107408e-22
5.622114992e-21
3.613595863e-22
5.496825594e-21
3.696315737e-22
5.369386055e-21
3.763581389e-22
5.2403088e-21
3.816086963e-22
5.110051653e-21
3.854351575e-22
4.97907337e-21
3.879217348e-22
4.847780047e-21
3.891341925e-22
4.716575633e-21
3.891657302e-22
4.585812395e-21
3.880900369e-22
4.455837197e-21
3.860037181e-22
4.326946147e-21
3.82983475e-22
4.199427733e-21
3.791248413e-22
4.07352179e-21
3.745031954e-22
3.949459831e-21
3.692097472e-22
3.827428041e-21
3.633154744e-22
3.707604935e-21
3.569046158e-22
3.590127703e-21
3.500418609e-22
3.475127254e-21
3.428029535e-22
3.362697486e-21
3.352448723e-22
3.252927648e-21
3.274343039e-22
3.145874239e-21
3.194199858e-22
3.041590876e-21
3.112592188e-22
2.940102431e-21
3.029926783e-22
2.841432626e-21
2.946685803e-22
2.745580231e-21
2.863197482e-22
2.652544446e-21
2.779860846e-22
2.562303004e-21
2.696931889e-22
2.474835547e-21
2.614732861e-22
2.390103342e-21
2.53345674e-22
2.308070852e-21
2.45335786e-22
2.228686943e-21
2.374573063e-22
2.151904715e-21
2.297299256e-22
2.077664083e-21
2.221625482e-22
2.005910071e-21
2.147698746e-22
1.936576544e-21
2.075569503e-22
1.869603145e-21
2.005343093e-22
1.804920113e-21
1.937037495e-22
1.742463909e-21
1.870724983e-22
1.682163062e-21
1.806397579e-22
1.623952663e-21
1.744100021e-22
1.567761059e-21
1.683805102e-22
1.513523353e-21
1.625535734e-22
1.461168909e-21
1.569249391e-22
1.410633893e-21
1.514952924e-22
1.361849557e-21
1.462592571e-22
1.314753948e-21
1.412162303e-22
1.269280865e-21
1.363601346e-22
1.225370821e-21
1.316894155e-22
1.182960628e-21
1.271974945e-22
1.14199362e-21
1.228822136e-22
1.102409858e-21
1.187367137e-22
1.064155731e-21
1.147583767e-22
1.027174723e-21
1.109403027e-22
9.914164537e-22
1.072795849e-22
9.568279575e-22
1.037693581e-22
9.233620929e-22
1.004066253e-22
8.909693206e-22
9.718466077e-23
8.596056096e-22
9.410041729e-23
8.29224752e-22
9.114743413e-23
7.997858511e-22
8.83226848e-23
7.71246096e-22
8.561997977e-23
7.435676598e-22
8.303642612e-23
7.167108232e-22
8.056614988e-23
6.906403864e-22
7.820637827e-23
6.653193498e-22
7.595160805e-23
6.40715115e-22
7.379919575e-23
6.167937048e-22
7.174397917e-23
5.935253648e-22
6.978352126e-23
5.708788526e-22
6.791303413e-23
5.488263613e-22
6.613026125e-23
5.273383717e-22
6.443079589e-23
5.063887421e-22
6.28125135e-23
4.859504349e-22
6.127132628e-23
4.660000405e-22
5.980531214e-23
4.465131381e-22
5.841076545e-23
4.274677546e-22
5.708595779e-23
4.088403113e-22
5.582753273e-23
3.906097257e-22
5.463384965e-23
3.727545315e-22
5.350182133e-23
3.552561972e-22
5.242999633e-23
3.380953372e-22
5.141566662e-23
3.212538917e-22
5.045755781e-23
3.047124689e-22
4.955323912e-23
2.88453799e-22
4.870145703e-23
2.72461085e-22
4.790000832e-23
2.567198346e-22
4.714783626e-23
2.412145726e-22
4.644311422e-23
2.259297959e-22
4.57849296e-23
2.108487379e-22
4.517164765e-23
1.9595624e-22
4.460232575e-23
1.812381427e-22
4.407554026e-23
1.666821049e-22
4.359055335e-23
1.522758527e-22
4.314625299e-23
1.380074106e-22
4.274198363e-23
1.238627586e-22
4.237688193e-23
1.098250198e-22
4.205044945e-23
9.587660883e-23
4.176183402e-23
8.200776407e-23
4.151056022e-23
6.821549069e-23
4.129526232e-23
5.449818157e-23
4.111715285e-23
4.083742449e-23
4.097417739e-23
2.721166676e-23
4.086980473e-23
1.358820942e-23
4.07943941e-23
4.076403465e-23
3.401605848e-19
-2.191029422e-22
3.419809829e-19
-6.593372221e-22
3.438135991e-19
-1.102012136e-21
3.45693513e-19
-1.54504568e-21
3.475738273e-19
-1.985895424e-21
3.49457862e-19
-2.422439082e-21
3.513505162e-19
-2.852525885e-21
3.532565705e-19
-3.274361062e-21
3.551811903e-19
-3.685924778e-21
3.571291289e-19
-4.085397424e-21
3.591052392e-19
-4.470615166e-21
3.61113605e-19
-4.839542493e-21
3.631580157e-19
-5.189741845e-21
3.652410416e-19
-5.518873532e-21
3.673645242e-19
-5.824162353e-21
3.695286686e-19
-6.10290023e-21
3.717326167e-19
-6.35188364e-21
3.739736115e-19
-6.56792023e-21
3.762476608e-19
-6.74724725e-21
3.785487295e-19
-6.886068232e-21
3.808694411e-19
-6.979988738e-21
3.832002452e-19
-7.024592543e-21
3.855301534e-19
-7.014857746e-21
3.878459218e-19
-6.945726242e-21
3.901328616e-19
-6.811467371e-21
3.923740524e-19
-6.606241893e-21
3.945511838e-19
-6.323479266e-21
3.966437001e-19
-5.956525374e-21
3.986296048e-19
-5.498077683e-21
4.004845213e-19
-4.940909783e-21
4.021825156e-19
-4.27729531e-21
4.036951842e-19
-3.499713913e-21
4.049925793e-19
-2.600224278e-21
4.060423337e-19
-1.571205202e-21
4.068106344e-19
-4.047895978e-22
4.072613119e-19
9.062370902e-22
4.073568519e-19
2.368884269e-21
4.070575267e-19
3.988942641e-21
4.063225933e-19
5.771430776e-21
4.051096131e-19
7.719591286e-21
4.033759079e-19
9.835396559e-21
4.010780502e-19
1.211851753e-20
3.981735202e-19
1.456678209e-20
3.946203167e-19
1.717498852e-20
3.903788289e-19
1.993524128e-20
3.85411632e-19
2.283561228e-20
3.796856471e-19
2.586045189e-20
3.731721455e-19
2.898905764e-20
3.658491544e-19
3.219613169e-20
3.577015781e-19
3.545062041e-20
3.48723766e-19
3.871645654e-20
3.38919694e-19
4.195165021e-20
3.283056496e-19
4.510936254e-20
3.169103739e-19
4.813726897e-20
3.04777656e-19
5.097897211e-20
2.91966093e-19
5.35736793e-20
2.785512019e-19
5.585807687e-20
2.646244725e-19
5.776650815e-20
2.502948147e-19
5.923352306e-20
2.356868423e-19
6.019468497e-20
2.209415925e-19
6.058972022e-20
2.062138357e-19
6.036363119e-20
1.916716882e-19
5.946993237e-20
1.77492531e-19
5.787151588e-20
1.638612919e-19
5.554353294e-20
1.509651547e-19
5.247375282e-20
1.389911207e-19
4.866494277e-20
1.281203631e-19
4.413454039e-20
1.185258672e-19
3.891618485e-20
1.103669701e-19
3.305816724e-20
1.037873517e-19
2.662351411e-20
9.891001906e-20
1.968678624e-20
9.583615909e-20
1.233261804e-20
9.464148369e-20
4.651209509e-21
9.537709028e-20
-3.264018073e-21
9.806821322e-20
-1.132146056e-20
1.027176492e-19
-1.943387285e-20
1.093068708e-19
-2.752338915e-20
1.178014655e-19
-3.552375302e-20
1.281538385e-19
-4.338460645e-20
1.403098145e-19
-5.107235961e-20
1.54212037e-19
-5.857233964e-20
1.698066083e-19
-6.588682191e-20
1.870457307e-19
-7.303387325e-20
2.058925841e-19
-8.004209155e-20
2.263213283e-19
-8.694661883e-20
2.483185405e-19
-9.378199943e-20
2.718794177e-19
-1.00577375e-19
2.970052323e-19
-1.073497649e-19
3.23695883e-19
-1.141006631e-19
3.519441391e-19
-1.208116506e-19
3.817259256e-19
-1.274439359e-19
4.129931948e-19
-1.339374835e-19
4.456640569e-19
-1.402142063e-19
4.79616365e-19
-1.46180793e-19
5.146795306e-19
-1.517350043e-19
5.506301644e-19
-1.567707881e-19
5.871863527e-19
-1.611854951e-19
6.240054321e-19
-1.648846385e-19
6.606799465e-19
-1.677872741e-19
6.967356902e-19
-1.69828074e-19
7.316264553e-19
-1.709592641e-19
7.647290358e-19
-1.711492035e-19
7.953344782e-19
-1.703808587e-19
8.226402647e-19
-1.686474875e-19
8.457412092e-19
-1.659485811e-19
8.636231894e-19
-1.62283845e-19
8.751560066e-19
-1.576479703e-19
8.790868182e-19
-1.520244282e-19
8.740314643e-19
-1.453808078e-19
8.584676147e-19
-1.3766429e-19
8.307291335e-19
-1.287990564e-19
7.890039267e-19
-1.186844672e-19
7.31336497e-19
-1.071950938e-19
6.556364535e-19
-9.418266775e-20
5.597033003e-19
-7.947866472e-20
4.41129393e-19
-6.290411528e-20
2.962835727e-19
-4.426431981e-20
1.129021823e-19
-2.338380312e-20
6.96448872e-21
9.059976996e-33
6.949745171e-21
3.867725671e-23
6.923821554e-21
7.708210303e-23
6.888115693e-21
1.149729601e-22
6.843503583e-21
1.520841777e-22
6.790615615e-21
1.881988479e-22
6.72982775e-21
2.230812872e-22
6.661422161e-21
2.565449043e-22
6.585586883e-21
2.883923658e-22
6.5025725e-21
3.184774382e-22
6.412659285e-21
3.466499815e-22
6.316248138e-21
3.728110286e-22
6.213785863e-21
3.968619736e-22
6.105816656e-21
4.187531534e-22
5.992895741e-21
4.384367026e-22
5.875628914e-21
4.559100906e-22
5.754594701e-21
4.711717409e-22
5.630386958e-21
4.842602908e-22
5.503552159e-21
4.952135798e-22
5.374636636e-21
5.04103628e-22
5.244135238e-21
5.109989441e-22
5.11253823e-21
5.159965772e-22
4.980285851e-21
5.191868873e-22
4.847811561e-21
5.206831302e-22
4.71549994e-21
5.205893935e-22
4.583726099e-21
5.190272828e-22
4.45281693e-21
5.161068789e-22
4.323087513e-21
5.119516824e-22
4.194806109e-21
5.066715956e-22
4.068228319e-21
5.003863666e-22
3.943565558e-21
4.932012514e-22
3.821017203e-21
4.852282992e-22
3.700742159e-21
4.765645053e-22
3.582888796e-21
4.67311872e-22
3.467569193e-21
4.575570452e-22
3.354886898e-21
4.473902526e-22
3.24491333e-21
4.368869998e-22
3.13771349e-21
4.261251959e-22
3.033324317e-21
4.151687314e-22
2.931778333e-21
4.040835895e-22
2.83308381e-21
3.9292241e-22
2.73724655e-21
3.8173967e-22
2.64425155e-21
3.705777484e-22
2.554083116e-21
3.594805781e-22
2.466707919e-21
3.484810807e-22
2.382093454e-21
3.376139855e-22
2.300192387e-21
3.269038904e-22
2.220959548e-21
3.163773345e-22
2.144337338e-21
3.060519395e-22
2.070271422e-21
2.959472486e-22
1.998697133e-21
2.860748596e-22
1.929553903e-21
2.764486183e-22
1.862772597e-21
2.670751456e-22
1.79828885e-21
2.579634662e-22
1.736031168e-21
2.491163214e-22
1.675933317e-21
2.405388363e-22
1.617923161e-21
2.32230563e-22
1.561934122e-21
2.241936684e-22
1.507894728e-21
2.164252331e-22
1.455739253e-21
2.089250242e-22
1.405397858e-21
2.016883807e-22
1.356806539e-21
1.947132461e-22
1.309897844e-21
1.879936086e-22
1.264610146e-21
1.815261776e-22
1.220878907e-21
1.753040074e-22
1.178645339e-21
1.693228621e-22
1.13784812e-21
1.635752981e-22
1.098431528e-21
1.580564465e-22
1.06033765e-21
1.527585365e-22
1.023514005e-21
1.476764014e-22
9.87906233e-22
1.428021527e-22
9.534652184e-22
1.381304389e-22
9.201401284e-22
1.336534997e-22
8.878850826e-22
1.293659473e-22
8.566526207e-22