/*--------------------------------*- C++ -*----------------------------------*\
  =========                 |
  \\      /  F ield         | OpenFOAM: The Open Source CFD Toolbox
   \\    /   O peration     | Website:  https://openfoam.org
    \\  /    A nd           | Version:  6
     \\/     M anipulation  |
\*---------------------------------------------------------------------------*/
FoamFile
{
    version     2.0;
    format      ascii;
    class       volVectorField;
    location    "0.006";
    object      gradT;
}
// * * * * * * * * * * * * * * * * * * * * * * * * * * * * * * * * * * * * * //

dimensions      [0 -1 0 1 0 0 0];

internalField   nonuniform List<vector> 
600
(
(0 8.671499711e-08 -1.940033655e-05)
(0 2.515687866e-07 -1.904585355e-05)
(0 3.925997671e-07 -1.837023862e-05)
(0 5.031375656e-07 -1.743829063e-05)
(0 5.765118026e-07 -1.632147794e-05)
(0 6.203457485e-07 -1.509317406e-05)
(0 6.327336053e-07 -1.381150734e-05)
(0 6.251103182e-07 -1.253460537e-05)
(0 6.060520677e-07 -1.128819622e-05)
(0 5.707943216e-07 -1.010372653e-05)
(0 5.307720232e-07 -8.996442857e-06)
(0 4.878909727e-07 -7.972062262e-06)
(0 4.459628423e-07 -7.037255535e-06)
(0 4.040347179e-07 -6.188210985e-06)
(0 3.640124054e-07 -5.422069599e-06)
(0 3.249430111e-07 -4.734067095e-06)
(0 2.915910936e-07 -4.118485968e-06)
(0 2.591920793e-07 -3.567702738e-06)
(0 2.315576296e-07 -3.078858853e-06)
(0 2.058290072e-07 -2.644330995e-06)
(0 1.829591148e-07 -2.257448661e-06)
(0 1.639008737e-07 -1.912494497e-06)
(0 1.457955468e-07 -1.604703927e-06)
(0 1.315018637e-07 -1.328359406e-06)
(0 1.18161095e-07 -1.080602272e-06)
(0 1.08631976e-07 -8.557150392e-07)
(0 1.010086779e-07 -6.460743741e-07)
(0 9.624411767e-08 -4.497744905e-07)
(0 9.052664669e-08 -2.668153797e-07)
(0 8.766790916e-08 -8.766790916e-08)
(0 2.70627028e-07 -1.990156859e-05)
(0 7.775762611e-07 -1.950896911e-05)
(0 1.21496289e-06 -1.877141488e-05)
(0 1.545623378e-06 -1.776132808e-05)
(0 1.768604829e-06 -1.65673295e-05)
(0 1.890577548e-06 -1.52685101e-05)
(0 1.925835294e-06 -1.393252738e-05)
(0 1.897247961e-06 -1.260702688e-05)
(0 1.825779527e-06 -1.133012452e-05)
(0 1.720959199e-06 -1.012469075e-05)
(0 1.59993939e-06 -9.001207552e-06)
(0 1.471296237e-06 -7.970156557e-06)
(0 1.337888547e-06 -7.026773607e-06)
(0 1.21115126e-06 -6.174870309e-06)
(0 1.090131409e-06 -5.407776e-06)
(0 9.795936084e-07 -4.719773485e-06)
(0 8.738203817e-07 -4.104192349e-06)
(0 7.785291615e-07 -3.556267847e-06)
(0 6.937199873e-07 -3.067423955e-06)
(0 6.165341188e-07 -2.63289609e-06)
(0 5.488773526e-07 -2.24601375e-06)
(0 4.888438921e-07 -1.903918317e-06)
(0 4.364337348e-07 -1.598986478e-06)
(0 3.92599773e-07 -1.32550069e-06)
(0 3.554362023e-07 -1.07679064e-06)
(0 3.25895933e-07 -8.519034037e-07)
(0 3.020731263e-07 -6.451214717e-07)
(0 2.858736211e-07 -4.507274093e-07)
(0 2.715799441e-07 -2.658624716e-07)
(0 2.668153797e-07 -8.766791048e-08)
(0 4.812205883e-07 -2.094405408e-05)
(0 1.382675414e-06 -2.046569254e-05)
(0 2.140240478e-06 -1.958520149e-05)
(0 2.706270239e-06 -1.841026092e-05)
(0 3.071235603e-06 -1.70523615e-05)
(0 3.255147584e-06 -1.560965239e-05)
(0 3.293264066e-06 -1.416027315e-05)
(0 3.227513183e-06 -1.274805768e-05)
(0 3.088387974e-06 -1.141016896e-05)
(0 2.898758475e-06 -1.015899543e-05)
(0 2.686259127e-06 -9.009783626e-06)
(0 2.463277665e-06 -7.959674405e-06)
(0 2.240296244e-06 -7.006762349e-06)
(0 2.023985238e-06 -6.148188678e-06)
(0 1.819109115e-06 -5.378235645e-06)
(0 1.628526704e-06 -4.69023314e-06)
(0 1.455096732e-06 -4.076557837e-06)
(0 1.296913308e-06 -3.530539168e-06)
(0 1.153023588e-06 -3.045506931e-06)
(0 1.0262863e-06 -2.614790721e-06)
(0 9.109839257e-07 -2.232672948e-06)
(0 8.128339839e-07 -1.889624607e-06)
(0 7.261189977e-07 -1.585645685e-06)
(0 6.517918464e-07 -1.313112813e-06)
(0 5.927112989e-07 -1.068214415e-06)
(0 5.403011439e-07 -8.442800944e-07)
(0 5.031375656e-07 -6.394039897e-07)
(0 4.74550204e-07 -4.478686664e-07)
(0 4.526332335e-07 -2.649095556e-07)
(0 4.42151194e-07 -8.862082122e-08)
(0 7.499417882e-07 -2.260974436e-05)
(0 2.13547595e-06 -2.197605817e-05)
(0 3.271347089e-06 -2.083828084e-05)
(0 4.079416512e-06 -1.937365501e-05)
(0 4.566354641e-06 -1.775179896e-05)
(0 4.781712698e-06 -1.608992007e-05)
(0 4.789335994e-06 -1.446711084e-05)
(0 4.647352167e-06 -1.292911097e-05)
(0 4.414841556e-06 -1.150260143e-05)
(0 4.121344643e-06 -1.019520609e-05)
(0 3.800213337e-06 -9.005019066e-06)
(0 3.473364445e-06 -7.930134131e-06)
(0 3.149374346e-06 -6.967692954e-06)
(0 2.838725058e-06 -6.105307635e-06)
(0 2.54903975e-06 -5.333448778e-06)
(0 2.281271462e-06 -4.645446274e-06)
(0 2.033514358e-06 -4.034629706e-06)
(0 1.809579995e-06 -3.491469774e-06)
(0 1.610421375e-06 -3.010249185e-06)
(0 1.429368106e-06 -2.583344623e-06)
(0 1.272137595e-06 -2.205038498e-06)
(0 1.134918259e-06 -1.869613454e-06)
(0 1.012945531e-06 -1.567540356e-06)
(0 9.100310136e-07 -1.296913308e-06)
(0 8.252218406e-07 -1.053920734e-06)
(0 7.547063598e-07 -8.347509737e-07)
(0 7.003903613e-07 -6.298748691e-07)
(0 6.603680549e-07 -4.402453699e-07)
(0 6.308277906e-07 -2.630037314e-07)
(0 6.184399244e-07 -8.671499711e-08)
(0 1.118718771e-06 -2.50653991e-05)
(0 3.155091913e-06 -2.414107475e-05)
(0 4.742643375e-06 -2.2563052e-05)
(0 5.791799564e-06 -2.064388709e-05)
(0 6.355923605e-06 -1.862561961e-05)
(0 6.538882627e-06 -1.665595008e-05)
(0 6.454073453e-06 -1.480825357e-05)
(0 6.191069814e-06 -1.311588193e-05)
(0 5.823245662e-06 -1.158264622e-05)
(0 5.397293967e-06 -1.02075941e-05)
(0 4.948472456e-06 -8.97738475e-06)
(0 4.502509533e-06 -7.880582822e-06)
(0 4.067028717e-06 -6.904800862e-06)
(0 3.657276581e-06 -6.035745145e-06)
(0 3.278017522e-06 -5.265792101e-06)
(0 2.928298792e-06 -4.580648323e-06)
(0 2.608120376e-06 -3.975549217e-06)
(0 2.320340891e-06 -3.440012574e-06)
(0 2.06210172e-06 -2.964509451e-06)
(0 1.831497027e-06 -2.542369442e-06)
(0 1.626620904e-06 -2.168827872e-06)
(0 1.451285083e-06 -1.837214472e-06)
(0 1.296913347e-06 -1.540858841e-06)
(0 1.165411462e-06 -1.27499635e-06)
(0 1.054873662e-06 -1.036768333e-06)
(0 9.643470297e-07 -8.185514808e-07)
(0 8.957373462e-07 -6.203457578e-07)
(0 8.423742703e-07 -4.345279041e-07)
(0 8.061636237e-07 -2.563333508e-07)
(0 7.918699305e-07 -8.38562622e-08)
(0 1.675219395e-06 -2.86045141e-05)
(0 4.637823047e-06 -2.712178335e-05)
(0 6.769487247e-06 -2.478047802e-05)
(0 8.015896216e-06 -2.215996987e-05)
(0 8.555244568e-06 -1.959187217e-05)
(0 8.599078395e-06 -1.722864997e-05)
(0 8.328451371e-06 -1.511699686e-05)
(0 7.873912438e-06 -1.325024234e-05)
(0 7.322176239e-06 -1.16112334e-05)
(0 6.727559116e-06 -1.017138329e-05)
(0 6.127224613e-06 -8.90591621e-06)
(0 5.544995255e-06 -7.791961883e-06)
(0 4.994212086e-06 -6.809509553e-06)
(0 4.476780907e-06 -5.941406759e-06)
(0 4.00413646e-06 -5.173359553e-06)
(0 3.570561474e-06 -4.498697817e-06)
(0 3.176055931e-06 -3.901222016e-06)
(0 2.82252551e-06 -3.371402855e-06)
(0 2.506158708e-06 -2.903523035e-06)
(0 2.226002597e-06 -2.491865064e-06)
(0 1.977292516e-06 -2.123088061e-06)
(0 1.76098148e-06 -1.797192138e-06)
(0 1.576116564e-06 -1.50941272e-06)
(0 1.416027315e-06 -1.248314794e-06)
(0 1.280713803e-06 -1.01485134e-06)
(0 1.171128935e-06 -8.023519633e-07)
(0 1.086319744e-06 -6.060520677e-07)
(0 1.020568812e-06 -4.24998777e-07)
(0 9.805465205e-07 -2.506158745e-07)
(0 9.614882646e-07 -8.385626094e-08)
(0 2.605261561e-06 -3.379502607e-05)
(0 6.978175092e-06 -3.11202024e-05)
(0 9.70445638e-06 -2.744100848e-05)
(0 1.098135853e-05 -2.377039124e-05)
(0 1.128533765e-05 -2.049237407e-05)
(0 1.101566337e-05 -1.76812832e-05)
(0 1.043152828e-05 -1.529614433e-05)
(0 9.696833229e-06 -1.327311223e-05)
(0 8.902104428e-06 -1.154452956e-05)
(0 8.102611213e-06 -1.005703384e-05)
(0 7.328846734e-06 -8.769649784e-06)
(0 6.597963077e-06 -7.648072163e-06)
(0 5.918536781e-06 -6.668478569e-06)
(0 5.292473639e-06 -5.810857805e-06)
(0 4.720726326e-06 -5.057104282e-06)
(0 4.201389255e-06 -4.390065843e-06)
(0 3.733509492e-06 -3.804024985e-06)
(0 3.316133955e-06 -3.289452418e-06)
(0 2.944498253e-06 -2.832054631e-06)
(0 2.610979073e-06 -2.427067043e-06)
(0 2.321293769e-06 -2.069724986e-06)
(0 2.065913338e-06 -1.752405271e-06)
(0 1.84579068e-06 -1.468437501e-06)
(0 1.65901989e-06 -1.21877452e-06)
(0 1.5017894e-06 -9.900756263e-07)
(0 1.373146293e-06 -7.823408098e-07)
(0 1.272137595e-06 -5.927112989e-07)
(0 1.197810455e-06 -4.145167444e-07)
(0 1.149211957e-06 -2.448984021e-07)
(0 1.125389138e-06 -8.099752477e-08)
(0 4.352902338e-06 -4.184046319e-05)
(0 1.099279381e-05 -3.630499752e-05)
(0 1.411929815e-05 -3.02597228e-05)
(0 1.496453115e-05 -2.514163207e-05)
(0 1.464435292e-05 -2.106793328e-05)
(0 1.379435513e-05 -1.783851396e-05)
(0 1.273757565e-05 -1.523992274e-05)
(0 1.162648035e-05 -1.311207029e-05)
(0 1.053825459e-05 -1.133870073e-05)
(0 9.500533342e-06 -9.838817127e-06)
(0 8.536186455e-06 -8.55238596e-06)
(0 7.647119365e-06 -7.446054918e-06)
(0 6.830473721e-06 -6.481707903e-06)
(0 6.091014046e-06 -5.642192454e-06)
(0 5.424928417e-06 -4.903685514e-06)
(0 4.820782164e-06 -4.257611131e-06)
(0 4.27857526e-06 -3.68872268e-06)
(0 3.795448777e-06 -3.186537964e-06)
(0 3.368544169e-06 -2.743433851e-06)
(0 2.986426474e-06 -2.352739937e-06)
(0 2.652907204e-06 -2.00683282e-06)
(0 2.361316111e-06 -1.699042222e-06)
(0 2.109747356e-06 -1.424603567e-06)
(0 1.894389196e-06 -1.179705143e-06)
(0 1.717147551e-06 -9.60535367e-07)
(0 1.568493291e-06 -7.594709315e-07)
(0 1.454143819e-06 -5.746059785e-07)
(0 1.369334645e-06 -4.002230696e-07)
(0 1.314065765e-06 -2.372751091e-07)
(0 1.286431295e-06 -7.909170185e-08)
(0 8.149303904e-06 -5.562624128e-05)
(0 1.855796257e-05 -4.219018192e-05)
(0 2.086591529e-05 -3.233230606e-05)
(0 2.017505405e-05 -2.563333431e-05)
(0 1.859036158e-05 -2.094500731e-05)
(0 1.684272059e-05 -1.749546535e-05)
(0 1.515797208e-05 -1.48358878e-05)
(0 1.359710233e-05 -1.27099412e-05)
(0 1.217631025e-05 -1.096230029e-05)
(0 1.088892607e-05 -9.494815727e-06)
(0 9.721608942e-06 -8.248406882e-06)
(0 8.669593887e-06 -7.174474871e-06)
(0 7.721446391e-06 -6.244432704e-06)
(0 6.868590204e-06 -5.431598801e-06)
(0 6.105307544e-06 -4.723585062e-06)
(0 5.417305039e-06 -4.10133349e-06)
(0 4.804582659e-06 -3.555314935e-06)
(0 4.261422715e-06 -3.070282645e-06)
(0 3.777343391e-06 -2.64623678e-06)
(0 3.348533015e-06 -2.269836552e-06)
(0 2.974038527e-06 -1.93727021e-06)
(0 2.649095516e-06 -1.639961649e-06)
(0 2.365127759e-06 -1.37600503e-06)
(0 2.123088061e-06 -1.139682819e-06)
(0 1.922023617e-06 -9.262305186e-07)
(0 1.75812277e-06 -7.346952063e-07)
(0 1.632338352e-06 -5.545948167e-07)
(0 1.536094234e-06 -3.878352068e-07)
(0 1.470343325e-06 -2.29651809e-07)
(0 1.441755941e-06 -7.718587655e-08)
(0 1.780516177e-05 -7.525813546e-05)
(0 3.428577629e-05 -4.470777561e-05)
(0 3.067709782e-05 -3.142703961e-05)
(0 2.635087709e-05 -2.427829337e-05)
(0 2.278222178e-05 -1.973004442e-05)
(0 1.990347412e-05 -1.649204896e-05)
(0 1.75230998e-05 -1.401733635e-05)
(0 1.550102065e-05 -1.203623236e-05)
(0 1.375242679e-05 -1.040008218e-05)
(0 1.221537965e-05 -9.024077172e-06)
(0 1.085652722e-05 -7.850089636e-06)
(0 9.64918748e-06 -6.836191091e-06)
(0 8.574302681e-06 -5.955700351e-06)
(0 7.611861619e-06 -5.185747487e-06)
(0 6.756146478e-06 -4.512991498e-06)
(0 5.990958097e-06 -3.920280199e-06)
(0 5.307720232e-06 -3.398084443e-06)
(0 4.703573909e-06 -2.939733693e-06)
(0 4.169943158e-06 -2.533793157e-06)
(0 3.696345921e-06 -2.174545345e-06)
(0 3.282782033e-06 -1.855319773e-06)
(0 2.922581276e-06 -1.574210717e-06)
(0 2.609073249e-06 -1.322641954e-06)
(0 2.344163658e-06 -1.095848865e-06)
(0 2.122135149e-06 -8.909727725e-07)
(0 1.940128975e-06 -7.022961959e-07)
(0 1.800050874e-06 -5.336307514e-07)
(0 1.69618346e-06 -3.73541526e-07)
(0 1.623762168e-06 -2.201226883e-07)
(0 1.592316046e-06 -7.242131627e-08)
(0 8.655776792e-05 -3.821367985e-05)
(0 6.239001292e-05 -3.018253737e-05)
(0 4.129539748e-05 -2.457274356e-05)
(0 3.187109711e-05 -2.047998622e-05)
(0 2.637565359e-05 -1.73477645e-05)
(0 2.255638162e-05 -1.485589918e-05)
(0 1.961474206e-05 -1.281952608e-05)
(0 1.72134039e-05 -1.111762529e-05)
(0 1.518846549e-05 -9.674916251e-06)
(0 1.343987184e-05 -8.438036384e-06)
(0 1.190949523e-05 -7.366963327e-06)
(0 1.056493612e-05 -6.435015212e-06)
(0 9.370937301e-06 -5.618369567e-06)
(0 8.311299203e-06 -4.903685588e-06)
(0 7.369821953e-06 -4.273810636e-06)
(0 6.530306419e-06 -3.720168723e-06)
(0 5.786082178e-06 -3.229419055e-06)
(0 5.127619851e-06 -2.795844015e-06)
(0 4.540626016e-06 -2.41182045e-06)
(0 4.026053558e-06 -2.072583784e-06)
(0 3.576279e-06 -1.771463539e-06)
(0 3.182726315e-06 -1.501789423e-06)
(0 2.843489661e-06 -1.262608512e-06)
(0 2.554757261e-06 -1.046297453e-06)
(0 2.314623419e-06 -8.509504789e-07)
(0 2.115464828e-06 -6.727559318e-07)
(0 1.962045953e-06 -5.098079577e-07)
(0 1.847696505e-06 -3.563891143e-07)
(0 1.771463565e-06 -2.105935707e-07)
(0 1.73525288e-06 -6.860966907e-08)
(0 5.936070362e-05 1.916306145e-06)
(0 4.792575967e-05 -1.345511843e-05)
(0 4.037774255e-05 -1.638627572e-05)
(0 3.357776212e-05 -1.587742068e-05)
(0 2.840535591e-05 -1.445948776e-05)
(0 2.443266512e-05 -1.288908847e-05)
(0 2.12613738e-05 -1.139492237e-05)
(0 1.864563048e-05 -1.003988157e-05)
(0 1.643106258e-05 -8.834447672e-06)
(0 1.452333265e-05 -7.76718617e-06)
(0 1.285859548e-05 -6.823803336e-06)
(0 1.139873402e-05 -5.988099361e-06)
(0 1.010563236e-05 -5.249592517e-06)
(0 8.95642055e-06 -4.594942004e-06)
(0 7.939663252e-06 -4.016524317e-06)
(0 7.036302622e-06 -3.502904718e-06)
(0 6.232044941e-06 -3.045506977e-06)
(0 5.522125365e-06 -2.64147222e-06)
(0 4.891297584e-06 -2.283177286e-06)
(0 4.337655745e-06 -1.962998865e-06)
(0 3.852623443e-06 -1.679031043e-06)
(0 3.430483402e-06 -1.426509348e-06)
(0 3.065518131e-06 -1.199716297e-06)
(0 2.754868754e-06 -9.967460107e-07)
(0 2.496629587e-06 -8.109281598e-07)
(0 2.281271497e-06 -6.432156475e-07)
(0 2.116417677e-06 -4.859851486e-07)
(0 1.995397846e-06 -3.40189604e-07)
(0 1.912494525e-06 -2.001115348e-07)
(0 1.871519278e-06 -6.575093187e-08)
(0 4.885675403e-05 -4.784571434e-06)
(0 4.408933567e-05 -9.347114499e-06)
(0 3.887309442e-05 -1.179895708e-05)
(0 3.379788481e-05 -1.232115289e-05)
(0 2.936398545e-05 -1.184755577e-05)
(0 2.561999354e-05 -1.095562991e-05)
(0 2.24629959e-05 -9.931249449e-06)
(0 1.97757842e-05 -8.907822034e-06)
(0 1.746116052e-05 -7.93871034e-06)
(0 1.544956317e-05 -7.048690479e-06)
(0 1.368858189e-05 -6.239668237e-06)
(0 1.213819377e-05 -5.510690421e-06)
(0 1.07650475e-05 -4.854134014e-06)
(0 9.545320209e-06 -4.268093163e-06)
(0 8.461859058e-06 -3.74017982e-06)
(0 7.501323706e-06 -3.272300001e-06)
(0 6.646561691e-06 -2.852065827e-06)
(0 5.888996507e-06 -2.478524258e-06)
(0 5.221005156e-06 -2.144052126e-06)
(0 4.629246838e-06 -1.847696505e-06)
(0 4.112768434e-06 -1.582786925e-06)
(0 3.662041032e-06 -1.344558911e-06)
(0 3.273252962e-06 -1.133012452e-06)
(0 2.943545341e-06 -9.414771115e-07)
(0 2.669106669e-06 -7.680471172e-07)
(0 2.441360724e-06 -6.070049889e-07)
(0 2.264119045e-06 -4.58350699e-07)
(0 2.132617182e-06 -3.201784509e-07)
(0 2.046855127e-06 -1.905824141e-07)
(0 2.000162406e-06 -6.28921957e-08)
(0 4.327078421e-05 -4.271904812e-06)
(0 4.091137453e-05 -7.492747722e-06)
(0 3.740561041e-05 -9.264211149e-06)
(0 3.352916411e-05 -9.880745258e-06)
(0 2.977087935e-05 -9.764490132e-06)
(0 2.634897166e-05 -9.251823292e-06)
(0 2.331013507e-05 -8.558103304e-06)
(0 2.063626411e-05 -7.80244415e-06)
(0 1.829019428e-05 -7.045831849e-06)
(0 1.622142217e-05 -6.321618675e-06)
(0 1.43985016e-05 -5.644098278e-06)
(0 1.278236251e-05 -5.018987875e-06)
(0 1.134918276e-05 -4.448193545e-06)
(0 1.007037491e-05 -3.926950701e-06)
(0 8.935456484e-06 -3.457164992e-06)
(0 7.924416778e-06 -3.03311912e-06)
(0 7.026773713e-06 -2.65100142e-06)
(0 6.228233292e-06 -2.308905947e-06)
(0 5.52307836e-06 -2.00206826e-06)
(0 4.89987394e-06 -1.728582522e-06)
(0 4.354808162e-06 -1.480825357e-06)
(0 3.881210863e-06 -1.260702669e-06)
(0 3.468599988e-06 -1.06059115e-06)
(0 3.120787031e-06 -8.814436651e-07)
(0 2.829195937e-06 -7.194486132e-07)
(0 2.590967958e-06 -5.707943387e-07)
(0 2.40229133e-06 -4.3262208e-07)
(0 2.264119079e-06 -3.030260384e-07)
(0 2.170733729e-06 -1.791474719e-07)
(0 2.124041005e-06 -5.908054837e-08)
(0 4.047303376e-05 -5.791799477e-06)
(0 3.909512351e-05 -7.185909923e-06)
(0 3.648414389e-05 -7.992073415e-06)
(0 3.329855889e-05 -8.273182471e-06)
(0 2.999290742e-05 -8.16931518e-06)
(0 2.68263802e-05 -7.819596333e-06)
(0 2.391237514e-05 -7.330752448e-06)
(0 2.128710274e-05 -6.773298997e-06)
(0 1.894293876e-05 -6.192975453e-06)
(0 1.68512968e-05 -5.616463659e-06)
(0 1.499121269e-05 -5.060916006e-06)
(0 1.33340984e-05 -4.533955563e-06)
(0 1.185708471e-05 -4.043205854e-06)
(0 1.053539585e-05 -3.588666857e-06)
(0 9.356643479e-06 -3.174150059e-06)
(0 8.308440217e-06 -2.792032324e-06)
(0 7.370774865e-06 -2.448984021e-06)
(0 6.537929617e-06 -2.139287566e-06)
(0 5.801328598e-06 -1.859131422e-06)
(0 5.149536829e-06 -1.607562663e-06)
(0 4.580648254e-06 -1.382675393e-06)
(0 4.082275248e-06 -1.177799301e-06)
(0 3.651559054e-06 -9.919814653e-07)
(0 3.284687857e-06 -8.252218406e-07)
(0 2.979756e-06 -6.746617357e-07)
(0 2.72914017e-06 -5.355365836e-07)
(0 2.531887333e-06 -4.059405359e-07)
(0 2.387044701e-06 -2.849207048e-07)
(0 2.287941881e-06 -1.696183485e-07)
(0 2.241249156e-06 -5.622181131e-08)
(0 3.998133132e-05 -7.873912355e-06)
(0 3.871205304e-05 -7.541346159e-06)
(0 3.631738445e-05 -7.32122336e-06)
(0 3.33509692e-05 -7.124923476e-06)
(0 3.02254181e-05 -6.894318861e-06)
(0 2.7187534e-05 -6.600821843e-06)
(0 2.435643226e-05 -6.244432732e-06)
(0 2.177404091e-05 -5.836586458e-06)
(0 1.944702933e-05 -5.401105558e-06)
(0 1.735634027e-05 -4.949425242e-06)
(0 1.547910374e-05 -4.499650817e-06)
(0 1.380102537e-05 -4.063217026e-06)
(0 1.229351849e-05 -3.645841543e-06)
(0 1.094038353e-05 -3.255147647e-06)
(0 9.731137961e-06 -2.890182279e-06)
(0 8.647676948e-06 -2.555710146e-06)
(0 7.680471322e-06 -2.247919584e-06)
(0 6.819038704e-06 -1.968716317e-06)
(0 6.054803232e-06 -1.716194621e-06)
(0 5.37823575e-06 -1.484637012e-06)
(0 4.784571455e-06 -1.278807985e-06)
(0 4.269998943e-06 -1.092037221e-06)
(0 3.822130332e-06 -9.214659762e-07)
(0 3.438106714e-06 -7.670942086e-07)
(0 3.117928262e-06 -6.260632237e-07)
(0 2.858736224e-06 -4.983730151e-07)
(0 2.653860088e-06 -3.773531759e-07)
(0 2.501394159e-06 -2.639566407e-07)
(0 2.398479692e-06 -1.572304923e-07)
(0 2.348928229e-06 -5.241016332e-08)
(0 4.149360282e-05 -9.639658418e-06)
(0 3.964781275e-05 -7.835796002e-06)
(0 3.690056668e-05 -6.68277229e-06)
(0 3.372641661e-05 -6.069096922e-06)
(0 3.051700924e-05 -5.739389435e-06)
(0 2.747531348e-05 -5.505925893e-06)
(0 2.467661075e-05 -5.267697878e-06)
(0 2.213138297e-05 -4.990400543e-06)
(0 1.98291471e-05 -4.675939487e-06)
(0 1.77517988e-05 -4.332891145e-06)
(0 1.587837392e-05 -3.977455006e-06)
(0 1.418790769e-05 -3.620112923e-06)
(0 1.26642013e-05 -3.270394196e-06)
(0 1.129010228e-05 -2.937827931e-06)
(0 1.005893972e-05 -2.619555258e-06)
(0 8.949750085e-06 -2.323199607e-06)
(0 7.956815836e-06 -2.0516197e-06)
(0 7.070607499e-06 -1.801003797e-06)
(0 6.284455048e-06 -1.573257814e-06)
(0 5.586923502e-06 -1.365523005e-06)
(0 4.972295139e-06 -1.176846396e-06)
(0 4.44152312e-06 -1.006275137e-06)
(0 3.976502094e-06 -8.528563081e-07)
(0 3.580090616e-06 -7.08966574e-07)
(0 3.248477219e-06 -5.793705336e-07)
(0 2.97880315e-06 -4.583507086e-07)
(0 2.764397891e-06 -3.487658146e-07)
(0 2.607167401e-06 -2.448983999e-07)
(0 2.5013942e-06 -1.438897235e-07)
(0 2.449936911e-06 -4.669269103e-08)
(0 4.45543563e-05 -1.046202151e-05)
(0 4.16689392e-05 -7.504182588e-06)
(0 3.808408341e-05 -5.543089455e-06)
(0 3.429339923e-05 -4.774089423e-06)
(0 3.078858913e-05 -4.545390596e-06)
(0 2.766017838e-05 -4.467251739e-06)
(0 2.487195769e-05 -4.380536742e-06)
(0 2.236579931e-05 -4.23474126e-06)
(0 2.010453865e-05 -4.029865104e-06)
(0 1.80538719e-05 -3.780202144e-06)
(0 1.61937878e-05 -3.503857699e-06)
(0 1.450713321e-05 -3.212266556e-06)
(0 1.297675644e-05 -2.922581289e-06)
(0 1.159217539e-05 -2.635754799e-06)
(0 1.034386042e-05 -2.36322191e-06)
(0 9.215612536e-06 -2.104982741e-06)
(0 8.202667139e-06 -1.863896018e-06)
(0 7.298353471e-06 -1.639961656e-06)
(0 6.489331131e-06 -1.436038475e-06)
(0 5.773694261e-06 -1.24926773e-06)
(0 5.144772214e-06 -1.078696452e-06)
(0 4.594941955e-06 -9.224188745e-07)
(0 4.117533075e-06 -7.813879013e-07)
(0 3.711592475e-06 -6.536976734e-07)
(0 3.370449958e-06 -5.336307538e-07)
(0 3.088388034e-06 -4.230929612e-07)
(0 2.868265302e-06 -3.201784523e-07)
(0 2.704364427e-06 -2.248872463e-07)
(0 2.595732492e-06 -1.334076905e-07)
(0 2.542369377e-06 -4.478686684e-08)
(0 5.148202698e-05 -2.018553618e-05)
(0 4.456674482e-05 -6.183446453e-06)
(0 3.96325655e-05 -3.226560237e-06)
(0 3.472316257e-05 -2.96450942e-06)
(0 3.082289397e-05 -3.234183582e-06)
(0 2.764016722e-05 -3.482893581e-06)
(0 2.491007417e-05 -3.596290116e-06)
(0 2.248110167e-05 -3.583902313e-06)
(0 2.028463903e-05 -3.475270284e-06)
(0 1.827875914e-05 -3.300887377e-06)
(0 1.644440367e-05 -3.083623474e-06)
(0 1.477013694e-05 -2.849207061e-06)
(0 1.324071308e-05 -2.602402837e-06)
(0 1.185041456e-05 -2.358457385e-06)
(0 1.058971173e-05 -2.122135159e-06)
(0 9.450028903e-06 -1.896295e-06)
(0 8.419931092e-06 -1.684748548e-06)
(0 7.498465003e-06 -1.487495726e-06)
(0 6.676101895e-06 -1.304536611e-06)
(0 5.942359698e-06 -1.136824105e-06)
(0 5.30009688e-06 -9.834052464e-07)
(0 4.736925852e-06 -8.433271735e-07)
(0 4.248082029e-06 -7.13731144e-07)
(0 3.827847747e-06 -5.965229498e-07)
(0 3.478129021e-06 -4.88843887e-07)
(0 3.191302538e-06 -3.887881265e-07)
(0 2.963556508e-06 -2.954027387e-07)
(0 2.794891073e-06 -2.067819171e-07)
(0 2.68244749e-06 -1.219727456e-07)
(0 2.626225639e-06 -4.09752186e-08)
(0 7.787197369e-05 1.425651736e-05)
(0 5.862791548e-05 6.194881407e-06)
(0 4.130302041e-05 1.784804292e-06)
(0 3.428482307e-05 -6.4702729e-07)
(0 3.027211083e-05 -1.972527998e-06)
(0 2.729807184e-05 -2.659577565e-06)
(0 2.476999614e-05 -2.974991457e-06)
(0 2.248777208e-05 -3.067423973e-06)
(0 2.038755356e-05 -3.02263706e-06)
(0 1.844456587e-05 -2.896852668e-06)
(0 1.664546815e-05 -2.725328538e-06)
(0 1.498835382e-05 -2.5280757e-06)
(0 1.346750617e-05 -2.318435046e-06)
(0 1.207244309e-05 -2.105935688e-06)
(0 1.080411696e-05 -1.901059563e-06)
(0 9.653952099e-06 -1.702853855e-06)
(0 8.612419344e-06 -1.516083113e-06)
(0 7.677612482e-06 -1.340747271e-06)
(0 6.840955692e-06 -1.178752221e-06)
(0 6.095778551e-06 -1.029145042e-06)
(0 5.438269137e-06 -8.890669537e-07)
(0 4.863663164e-06 -7.642354736e-07)
(0 4.363384397e-06 -6.489331239e-07)
(0 3.936479728e-06 -5.441127873e-07)
(0 3.578184792e-06 -4.450099329e-07)
(0 3.282782102e-06 -3.544832923e-07)
(0 3.05027151e-06 -2.706270256e-07)
(0 2.876841515e-06 -1.886765882e-07)
(0 2.762492109e-06 -1.12443625e-07)
(0 2.704364432e-06 -3.906939454e-08)
)
;

boundaryField
{
    lowerWall
    {
        type            calculated;
        value           nonuniform List<vector> 
20
(
(0 8.697043042e-08 -8.766790916e-08)
(0 2.643218964e-07 -8.766791048e-08)
(0 4.399680598e-07 -8.862082122e-08)
(0 6.139089206e-07 -8.671499711e-08)
(0 7.861444789e-07 -8.38562622e-08)
(0 9.549694321e-07 -8.385626094e-08)
(0 1.118678478e-06 -8.099752477e-08)
(0 1.278976918e-06 -7.909170185e-08)
(0 1.435864753e-06 -7.718587655e-08)
(0 1.584226076e-06 -7.242131627e-08)
(0 1.727471491e-06 -6.860966907e-08)
(0 1.862190393e-06 -6.575093187e-08)
(0 1.986677479e-06 -6.28921957e-08)
(0 2.111164566e-06 -5.908054837e-08)
(0 2.22712514e-06 -5.622181131e-08)
(0 2.334559201e-06 -5.241016332e-08)
(0 2.435172052e-06 -4.669269103e-08)
(0 2.525553087e-06 -4.478686684e-08)
(0 2.610818215e-06 -4.09752186e-08)
(0 2.690967435e-06 -3.906939454e-08)
)
;
    }
    atmosphere
    {
        type            calculated;
        value           nonuniform 0();
    }
    rightWall
    {
        type            empty;
    }
    leftWall
    {
        type            empty;
    }
    frontAndBack
    {
        type            calculated;
        value           nonuniform List<vector> 
30
(
(0 8.671499711e-08 -1.927674011e-05)
(0 2.515687866e-07 -1.893056369e-05)
(0 3.925997671e-07 -1.82689063e-05)
(0 5.031375656e-07 -1.735656943e-05)
(0 5.765118026e-07 -1.626005988e-05)
(0 6.203457485e-07 -1.504758977e-05)
(0 6.327336053e-07 -1.378054997e-05)
(0 6.251103182e-07 -1.251692077e-05)
(0 6.060520677e-07 -1.127716581e-05)
(0 5.707943216e-07 -1.009709644e-05)
(0 5.307720232e-07 -8.993765687e-06)
(0 4.878909727e-07 -7.972289455e-06)
(0 4.459628423e-07 -7.039488957e-06)
(0 4.040347179e-07 -6.190248283e-06)
(0 3.640124054e-07 -5.424567435e-06)
(0 3.249430111e-07 -4.737330504e-06)
(0 2.915910936e-07 -4.123421584e-06)
(0 2.591920793e-07 -3.570903555e-06)
(0 2.315576296e-07 -3.083187024e-06)
(0 2.058290072e-07 -2.648334871e-06)
(0 1.829591148e-07 -2.259525888e-06)
(0 1.639008737e-07 -1.915054772e-06)
(0 1.457955468e-07 -1.606395009e-06)
(0 1.315018637e-07 -1.330135995e-06)
(0 1.18161095e-07 -1.081161821e-06)
(0 1.08631976e-07 -8.560618838e-07)
(0 1.010086779e-07 -6.463096692e-07)
(0 9.624411767e-08 -4.501998751e-07)
(0 9.052664669e-08 -2.643218964e-07)
(0 8.766790916e-08 -8.697043042e-08)
)
;
    }
    procBoundary1to0
    {
        type            processor;
        value           nonuniform List<vector> 
20
(
(0 2.997861342e-06 -1.940224246e-05)
(0 9.114603995e-06 -1.99034745e-05)
(0 1.563347526e-05 -2.094405418e-05)
(0 2.288513604e-05 -2.261355611e-05)
(0 3.132412572e-05 -2.506825795e-05)
(0 4.163558666e-05 -2.860832588e-05)
(0 5.496206182e-05 -3.379883787e-05)
(0 7.347428552e-05 -4.184808667e-05)
(0 0.0001013755495 -5.564339394e-05)
(0 0.0001433665724 -0.0001231152853)
(0 9.576099312e-05 -7.173712681e-05)
(0 7.221262885e-05 2.424684738e-05)
(0 5.153443714e-05 6.741852827e-06)
(0 4.308210781e-05 8.909727899e-07)
(0 3.976025572e-05 -3.896457415e-06)
(0 3.945627695e-05 -8.561914901e-06)
(0 4.199483475e-05 -1.240882093e-05)
(0 4.903018447e-05 -1.74945126e-05)
(0 6.668288046e-05 -3.950106382e-05)
(0 8.444230274e-05 4.233121271e-05)
)
;
    }
    procBoundary1to3
    {
        type            processor;
        value           nonuniform List<vector> 
30
(
(0 1.534760165e-05 4.172897204e-05)
(0 3.209503159e-05 1.495023754e-05)
(0 3.278875109e-05 4.813158817e-06)
(0 3.096773614e-05 5.431598744e-07)
(0 2.881034367e-05 -1.371240476e-06)
(0 2.663770374e-05 -2.24315499e-06)
(0 2.450222781e-05 -2.610979046e-06)
(0 2.243440897e-05 -2.720563973e-06)
(0 2.045330446e-05 -2.68721201e-06)
(0 1.857606771e-05 -2.578580035e-06)
(0 1.681318065e-05 -2.427067054e-06)
(0 1.517703039e-05 -2.251731199e-06)
(0 1.366190021e-05 -2.068772083e-06)
(0 1.226779005e-05 -1.88295426e-06)
(0 1.099374644e-05 -1.699042204e-06)
(0 9.834052464e-06 -1.525612209e-06)
(0 8.782990593e-06 -1.359805531e-06)
(0 7.836748785e-06 -1.204480844e-06)
(0 6.987704139e-06 -1.056779475e-06)
(0 6.232044969e-06 -9.243247125e-07)
(0 5.565006433e-06 -8.013990428e-07)
(0 4.97610678e-06 -6.889554197e-07)
(0 4.468204718e-06 -5.860409259e-07)
(0 4.03272384e-06 -4.907497111e-07)
(0 3.667758521e-06 -4.040347136e-07)
(0 3.36663836e-06 -3.211313692e-07)
(0 3.127457382e-06 -2.448983995e-07)
(0 2.953074475e-06 -1.73429995e-07)
(0 2.833007598e-06 -1.029145041e-07)
(0 2.777738656e-06 -3.430483418e-08)
)
;
    }
}


// ************************************************************************* //
