/*--------------------------------*- C++ -*----------------------------------*\
  =========                 |
  \\      /  F ield         | OpenFOAM: The Open Source CFD Toolbox
   \\    /   O peration     | Website:  https://openfoam.org
    \\  /    A nd           | Version:  6
     \\/     M anipulation  |
\*---------------------------------------------------------------------------*/
FoamFile
{
    version     2.0;
    format      ascii;
    class       volScalarField;
    location    "0.0011";
    object      TRHS;
}
// * * * * * * * * * * * * * * * * * * * * * * * * * * * * * * * * * * * * * //

dimensions      [1 -1 -3 0 0 0 0];

internalField   nonuniform List<scalar> 
600
(
1.827547806e-10
3.476143526e-10
1.5299445e-10
1.05992784e-12
-1.497105133e-10
-2.808215629e-10
-3.909892827e-10
-4.773707874e-10
-5.340757548e-10
-5.588589393e-10
-5.477269475e-10
-4.999535133e-10
-4.248933954e-10
-3.769618579e-10
-4.763633335e-10
-8.629962897e-10
-1.493285626e-09
-1.873679724e-09
-1.160718335e-09
6.628604583e-10
1.617981095e-09
9.671530095e-10
1.335565284e-10
-1.095953211e-09
-5.128572679e-09
-1.54982259e-08
-3.249632835e-08
-5.792286473e-08
-8.785978143e-08
-4.713122449e-08
1.879252517e-10
3.605643527e-10
1.792474802e-10
3.688765003e-11
-1.013555251e-10
-2.151303341e-10
-3.093619349e-10
-3.816337367e-10
-4.391276687e-10
-4.843429484e-10
-5.260177237e-10
-5.574613024e-10
-5.7945162e-10
-6.152147826e-10
-7.844458274e-10
-1.30551662e-09
-2.368274439e-09
-3.658955338e-09
-3.866314156e-09
-1.966284954e-09
-1.034088737e-09
-2.296053022e-09
-3.033778751e-09
-3.436531793e-09
-5.521567254e-09
-1.399995833e-08
-2.886072354e-08
-5.216998814e-08
-8.665781661e-08
-4.576871002e-08
1.932391924e-10
3.714817764e-10
1.944184094e-10
5.699933964e-11
-7.100010856e-11
-1.746527042e-10
-2.576482108e-10
-3.309562354e-10
-4.084400726e-10
-5.11033139e-10
-6.49911096e-10
-8.208484927e-10
-9.92004255e-10
-1.15273358e-09
-1.411310177e-09
-2.199679699e-09
-4.227246553e-09
-7.710927095e-09
-9.914266077e-09
-6.482016555e-09
-4.868913387e-09
-8.066281695e-09
-8.687012507e-09
-7.492637384e-09
-5.757074064e-09
-1.30584443e-08
-2.735416221e-08
-4.837061304e-08
-8.091837219e-08
-3.670967587e-08
1.980243641e-10
3.826792247e-10
2.067527633e-10
7.573783248e-11
-4.30962527e-11
-1.339131974e-10
-2.083370269e-10
-2.857246286e-10
-3.995212781e-10
-5.902615395e-10
-8.98119812e-10
-1.332927898e-09
-1.846733331e-09
-2.321950838e-09
-2.73251658e-09
-3.637327794e-09
-6.801016211e-09
-1.462921089e-08
-2.223143979e-08
-1.479927271e-08
-1.11366837e-08
-1.863960462e-08
-1.84851179e-08
-1.54823124e-08
-6.426928579e-09
-1.301866024e-08
-2.667788218e-08
-4.192250673e-08
-6.96293313e-08
-1.991474997e-08
2.031281265e-10
3.929731431e-10
2.187219514e-10
9.387398902e-11
-1.337074793e-11
-9.082059199e-11
-1.547134825e-10
-2.377968331e-10
-3.931455039e-10
-7.001901945e-10
-1.261167403e-09
-2.171148985e-09
-3.424921924e-09
-4.749806171e-09
-5.604369671e-09
-6.050009326e-09
-8.98117525e-09
-2.39557726e-08
-4.564516474e-08
-3.026617934e-08
-2.304183943e-08
-3.533508564e-08
-3.170536694e-08
-2.886780439e-08
-1.033495789e-08
-1.612982184e-08
-2.774706825e-08
-2.667878788e-08
-4.999784025e-08
6.021055782e-09
2.07591798e-10
4.024323187e-10
2.297617144e-10
1.124041977e-10
1.666773232e-11
-4.743108061e-11
-1.018669767e-10
-1.882375264e-10
-3.80234932e-10
-8.069086951e-10
-1.683641068e-09
-3.316804703e-09
-5.953458444e-09
-9.328126601e-09
-1.187767619e-08
-1.130413054e-08
-8.351494442e-09
-3.094440082e-08
-7.751016708e-08
-8.562359315e-08
-9.994610885e-08
-3.004816248e-08
-3.093762527e-08
-2.250555107e-08
-8.310650586e-08
-4.927271582e-08
-2.728345707e-08
1.07316214e-08
-1.356460886e-08
4.225453836e-08
2.111734018e-10
4.098253123e-10
2.396197967e-10
1.290340393e-10
4.216416903e-11
-1.530373889e-11
-6.908644117e-11
-1.650713229e-10
-3.864573552e-10
-9.002609498e-10
-2.052256111e-09
-4.488053961e-09
-9.141413615e-09
-1.657396621e-08
-2.459349781e-08
-2.637445498e-08
-5.88069114e-09
-3.927173653e-08
-3.052090939e-08
-1.651352453e-07
-2.074303244e-07
-3.311004038e-08
-7.266624999e-09
-2.437908756e-08
-1.773427043e-07
-9.566395142e-08
4.21636647e-09
1.110061281e-07
6.480676235e-08
9.036824128e-08
2.131825273e-10
4.143534005e-10
2.473058207e-10
1.416661926e-10
5.59302579e-11
-1.182724846e-11
-9.472565525e-11
-2.415305617e-10
-5.289519507e-10
-1.109776603e-09
-2.349323898e-09
-5.140181275e-09
-1.140925813e-08
-2.426963796e-08
-4.378325809e-08
-6.096532328e-08
-5.021915233e-08
2.581190077e-09
6.543809148e-08
-2.238653336e-07
-1.988582115e-07
-0.0001743431977
-0.0001109692484
-0.0001494792972
-1.609579871e-07
-3.160079202e-07
7.752888159e-08
3.346433778e-07
3.195591694e-07
1.655637368e-07
2.130586574e-10
4.149888439e-10
2.529099167e-10
1.500289161e-10
5.549470705e-11
-4.923397636e-11
-2.187179938e-10
-5.259648886e-10
-1.054598088e-09
-1.892193891e-09
-3.16532018e-09
-5.349139773e-09
-1.047982976e-08
-2.571684855e-08
-5.966159386e-08
-1.187604754e-07
-1.8129025e-07
-0.0001712029004
-0.0007740770806
167.3375045
-0.005864834831
69.16524582
44.03840478
59.30549084
-0.006562082662
144.7813271
-0.0004248155042
8.846488086e-08
4.181194812e-07
3.547525738e-07
2.096695909e-10
4.105677019e-10
2.57607595e-10
1.593752605e-10
5.093003175e-11
-1.134065615e-10
-4.366139025e-10
-1.073318649e-09
-2.22187983e-09
-4.033973191e-09
-6.324448247e-09
-8.014860828e-09
-6.813325506e-09
-4.717573837e-09
-4.61676565e-08
-1.751247e-07
-4.173484632e-07
67.93940422
139.838192
0
0
0
0
0
0
0
23.86716737
106.5964686
-0.000268122587
-0.0001400846667
2.001523142e-10
3.96766509e-10
2.611305811e-10
1.774415492e-10
6.680849881e-11
-1.48458627e-10
-6.372719051e-10
-1.703706713e-09
-3.860514884e-09
-7.864732317e-09
-1.44536284e-08
-2.321117109e-08
-2.912673613e-08
-3.262599421e-08
8.562978678e-09
-0.0001722070229
68.33770731
0
0
0
0
0
0
0
0
0
0
0
384.7933079
-0.002109749049
1.7545828e-10
3.61189505e-10
2.553154932e-10
2.057045019e-10
1.237395256e-10
-8.421556739e-11
-6.246590211e-10
-1.903944624e-09
-4.725060098e-09
-1.064407785e-08
-2.250203013e-08
-4.472253613e-08
-7.529501362e-08
-2.27919378e-08
8.81389472e-08
-0.0007853410934
141.4249345
0
0
0
0
0
0
0
0
0
0
0
-0.005128010861
-4.382135836e-05
1.069083449e-10
2.70656133e-10
2.144194264e-10
2.235026244e-10
2.033946959e-10
6.697331746e-11
-3.633984972e-10
-1.421070668e-09
-3.698047895e-09
-8.190608789e-09
-1.645157731e-08
-3.129589092e-08
-8.189484603e-08
-1.517880193e-07
-2.174938868e-07
170.2180285
0
0
0
0
0
0
0
0
0
0
0
0
0
-0.001403000509
-1.090417429e-10
4.496957569e-11
8.89404106e-11
1.907037702e-10
2.434230277e-10
1.688441945e-10
-2.004813794e-10
-1.184441808e-09
-3.332336325e-09
-7.450200814e-09
-1.449172376e-08
-2.715615329e-08
-1.018549279e-07
-1.983040918e-07
-1.900140718e-07
-0.005605843987
0
0
0
0
0
0
0
0
0
0
0
0
0
0
-8.072519585e-10
-4.911657312e-10
-1.848964012e-10
7.765651281e-11
2.145623695e-10
1.693874836e-10
-2.459520918e-10
-1.482042044e-09
-4.471350386e-09
-1.094854231e-08
-2.364058827e-08
-4.442860427e-08
-4.08944068e-08
-4.789683018e-08
-0.0002142064218
84.98058361
0
0
0
0
0
0
0
0
0
0
0
0
0
0
-4.1764223e-09
-1.966302886e-09
-6.660756719e-10
-1.025108584e-10
1.461618645e-10
1.580760484e-10
-1.973967609e-10
-1.337856371e-09
-4.168135595e-09
-1.038542848e-08
-2.266115093e-08
-4.277807405e-08
-3.888614862e-08
-4.415797247e-08
-0.0002081234984
82.56918763
0
0
0
0
0
0
0
0
0
0
0
0
0
0
-4.573142267e-09
-2.189038589e-09
-7.66644405e-10
-1.796529241e-10
7.765392454e-11
1.261798778e-10
-9.714172011e-11
-8.368102948e-10
-2.571425302e-09
-6.005520238e-09
-1.190095351e-08
-2.265144823e-08
-9.617247689e-08
-1.853012964e-07
-1.713299407e-07
-0.005844851033
0
0
0
0
0
0
0
0
0
0
0
0
0
0
-1.20745754e-09
-8.505438668e-10
-4.019557e-10
-1.388755665e-10
-1.912378196e-11
-4.661519854e-11
-3.179059579e-10
-1.086854659e-09
-2.859527939e-09
-6.510091464e-09
-1.340489754e-08
-2.595467069e-08
-7.091109313e-08
-1.274916485e-07
-2.650238736e-07
162.6843961
0
0
0
0
0
0
0
0
0
0
0
0
0
-0.002528936189
2.563550097e-10
-1.107816172e-10
-1.328257274e-10
-1.324524357e-10
-1.708836598e-10
-3.370253302e-10
-7.7939371e-10
-1.837146486e-09
-4.187559577e-09
-9.148016615e-09
-1.902875935e-08
-3.718602759e-08
-6.100575737e-08
-1.523619183e-08
6.843637231e-08
-0.0007008028208
115.4395655
0
0
0
0
0
0
0
0
0
0
0
-0.00529066684
-1.894237256e-05
1.113879179e-09
3.258825366e-10
1.867546341e-11
-1.621760167e-10
-3.325060578e-10
-6.02698031e-10
-1.132926721e-09
-2.174020361e-09
-4.125567555e-09
-7.411124984e-09
-1.191604441e-08
-1.518588704e-08
-7.830674604e-09
2.346853533e-08
1.499410003e-07
-0.0001164453932
46.23581439
0
0
0
0
0
0
0
0
0
0
0
393.7128196
-0.002066295491
)
;

boundaryField
{
    lowerWall
    {
        type            calculated;
        value           nonuniform 0();
    }
    atmosphere
    {
        type            calculated;
        value           nonuniform List<scalar> 
20
(
1.827547806e-10
1.879252517e-10
1.932391924e-10
1.980243641e-10
2.031281265e-10
2.07591798e-10
2.111734018e-10
2.131825273e-10
2.130586574e-10
2.096695909e-10
2.001523142e-10
1.7545828e-10
1.069083449e-10
-1.090417429e-10
-8.072519585e-10
-4.1764223e-09
-4.573142267e-09
-1.20745754e-09
2.563550097e-10
1.113879179e-09
)
;
    }
    rightWall
    {
        type            empty;
    }
    leftWall
    {
        type            empty;
    }
    frontAndBack
    {
        type            calculated;
        value           nonuniform List<scalar> 
30
(
1.827547806e-10
3.476143526e-10
1.5299445e-10
1.05992784e-12
-1.497105133e-10
-2.808215629e-10
-3.909892827e-10
-4.773707874e-10
-5.340757548e-10
-5.588589393e-10
-5.477269475e-10
-4.999535133e-10
-4.248933954e-10
-3.769618579e-10
-4.763633335e-10
-8.629962897e-10
-1.493285626e-09
-1.873679724e-09
-1.160718335e-09
6.628604583e-10
1.617981095e-09
9.671530095e-10
1.335565284e-10
-1.095953211e-09
-5.128572679e-09
-1.54982259e-08
-3.249632835e-08
-5.792286473e-08
-8.785978143e-08
-4.713122449e-08
)
;
    }
    procBoundary0to1
    {
        type            processor;
        value           nonuniform List<scalar> 
20
(
-0.0007016256525
-0.0007267870745
-0.0007815697776
-0.0008767608228
-0.001034720649
-0.001302726059
-0.001789203814
-0.002771116141
-0.005046438311
55.57092529
452.1333347
17.37719386
0
0
0
0
0
0
7.506527781
425.9718306
)
;
    }
    procBoundary0to2
    {
        type            processor;
        value           nonuniform List<scalar> 
30
(
1.615223126e-09
5.599764666e-10
9.196281156e-11
-2.074530935e-10
-4.579011127e-10
-7.911589138e-10
-1.333135778e-09
-2.245554183e-09
-3.663761927e-09
-5.476240457e-09
-6.644894672e-09
-3.823131809e-09
1.068771423e-08
4.59782535e-08
7.051819266e-08
7.153952569e-08
-2.535284832e-07
21.92721345
18.22874913
0
0
0
0
0
0
0
-0.005972238653
20.34657071
-5.117084094e-05
-2.519401748e-10
)
;
    }
}


// ************************************************************************* //
