/*--------------------------------*- C++ -*----------------------------------*\
  =========                 |
  \\      /  F ield         | OpenFOAM: The Open Source CFD Toolbox
   \\    /   O peration     | Website:  https://openfoam.org
    \\  /    A nd           | Version:  10
     \\/     M anipulation  |
\*---------------------------------------------------------------------------*/
FoamFile
{
    format      ascii;
    class       volVectorField;
    location    "0.0002";
    object      Marangoni;
}
// * * * * * * * * * * * * * * * * * * * * * * * * * * * * * * * * * * * * * //

dimensions      [1 -2 -2 0 0 0 0];

internalField   nonuniform List<vector> 
3600
(
(-0 -2.804072917e-139 -8.232305659e-141)
(-0 -1.624762897e-137 -1.688911907e-139)
(-0 -2.355719231e-129 -1.642534374e-131)
(-0 -1.262594296e-122 -7.269477484e-125)
(-0 -1.372238509e-116 -7.2124547e-119)
(-0 -6.012765533e-111 -3.045599366e-113)
(-0 -1.456002804e-105 -7.3311925e-108)
(-0 -2.363022836e-100 -1.205052277e-102)
(-0 -2.513425168e-95 -1.313768462e-97)
(-0 -1.36708138e-90 -7.384954712e-93)
(-0 -5.343192031e-86 -3.001716175e-88)
(-0 -1.86554203e-81 -1.095581013e-83)
(-0 -2.701658109e-77 -1.666342332e-79)
(-0 -2.54076825e-73 -1.653121686e-75)
(-0 -2.13407967e-69 -1.470983479e-71)
(-0 -1.320047249e-65 -9.679318458e-68)
(-0 -4.922772399e-62 -3.855272409e-64)
(-0 -1.135758771e-58 -9.535628525e-61)
(-0 -1.873702005e-55 -1.69223851e-57)
(-0 -2.096700358e-52 -2.043059503e-54)
(-0 -1.479791191e-49 -1.559473056e-51)
(-0 -9.175210469e-47 -1.047623901e-48)
(-0 -4.641694512e-44 -5.748660759e-46)
(-0 -1.666042682e-41 -2.239091153e-43)
(-0 -3.475486749e-39 -5.067705822e-41)
(-0 -4.639787896e-37 -7.33445387e-39)
(-0 -3.328137473e-35 -5.696317807e-37)
(-0 -7.023578932e-34 -1.299373102e-35)
(-0 -4.081148572e-32 -8.142995087e-34)
(-0 -5.051940553e-31 -1.083876482e-32)
(-0 -1.50600027e-29 -3.458405769e-31)
(-0 -4.845123095e-29 -1.181886337e-30)
(-0 -3.545657871e-29 -9.068862473e-31)
(-0 -7.318812617e-28 -1.919578021e-29)
(-0 -1.483789828e-22 -3.843879477e-24)
(-0 -8.752290674e-19 -2.112607089e-20)
(-0 -5.842829458e-16 -1.206319301e-17)
(-0 -7.390528888e-08 -1.161980878e-09)
(-0 -1.312718517e-06 -1.366686603e-08)
(-0 -2.082287029e-06 -1.121047673e-08)
(-0 -48.39465749 759967.7825)
(-0 -824320.7327 24102519.41)
(-0 -1667350.95 49436536.53)
(-0 43.87380651 43181038.6)
(-0 10.87858288 0.5468578515)
(-0 28.7991385 1.471101603)
(-0 8.993718001 0.399654099)
(-0 0.2434596599 0.01191698189)
(-0 0.01847279575 0.0007409476883)
(-0 1.40280175e-05 5.103313706e-07)
(-0 1.946330787e-05 6.53533632e-07)
(-0 1.176099548e-05 3.680338567e-07)
(-0 4.493793478e-06 1.318081032e-07)
(-0 5.60182486e-06 1.546109811e-07)
(-0 5.654231116e-06 1.472953864e-07)
(-0 2.506285748e-06 6.17856442e-08)
(-0 4.868027707e-06 1.13836841e-07)
(-0 6.064640856e-06 1.348243714e-07)
(-0 1.557510541e-05 3.298620732e-07)
(-0 2.479022233e-05 5.011577062e-07)
(-0 -2.959664659e-139 -2.5334601e-140)
(-0 -2.021750876e-133 -6.134250238e-135)
(-0 -1.972702504e-125 -4.021068703e-127)
(-0 -7.557919842e-119 -1.273979896e-120)
(-0 -6.377174345e-113 -9.824007525e-115)
(-0 -2.276028192e-107 -3.381439239e-109)
(-0 -4.630748231e-102 -6.841579236e-104)
(-0 -6.452577944e-97 -9.656203056e-99)
(-0 -5.985842329e-92 -9.180274337e-94)
(-0 -2.872308441e-87 -4.551187707e-89)
(-0 -9.998775584e-83 -1.646852206e-84)
(-0 -3.13446065e-78 -5.393714673e-80)
(-0 -4.081560617e-74 -7.371390552e-76)
(-0 -3.46816571e-70 -6.602314298e-72)
(-0 -2.660160498e-66 -5.360401734e-68)
(-0 -1.500441043e-62 -3.213469309e-64)
(-0 -5.035755617e-59 -1.150777085e-60)
(-0 -1.024212183e-55 -2.506628182e-57)
(-0 -1.429345667e-52 -3.758924915e-54)
(-0 -1.188464617e-49 -3.368178328e-51)
(-0 -8.591185325e-47 -2.630021459e-48)
(-0 -4.961213983e-44 -1.643350615e-45)
(-0 -2.491451367e-41 -8.938642781e-43)
(-0 -9.013207481e-39 -3.503595762e-40)
(-0 -1.833302785e-36 -7.718545595e-38)
(-0 -2.453326256e-34 -1.117688198e-35)
(-0 -1.812572795e-32 -8.923085039e-34)
(-0 -3.735805475e-31 -1.983739996e-32)
(-0 -2.289579065e-30 -1.308608907e-31)
(-0 -8.557353307e-29 -5.250318903e-30)
(-0 -8.534412429e-27 -5.599625169e-28)
(-0 -1.904861498e-26 -1.328305172e-27)
(-0 -1.054024391e-26 -7.727969492e-28)
(-0 -2.271410596e-25 -1.716949775e-26)
(-0 -7.580320437e-19 -5.712726436e-20)
(-0 -1.022583064e-14 -7.278489238e-16)
(-0 -8.443122341e-14 -5.222759847e-15)
(-0 -4.472087045e-08 -2.136909503e-09)
(-0 -8.279686206e-07 -2.705939791e-08)
(-0 -8.90075312e-07 -2.210792799e-08)
(-0 -46.95200897 -6586820.172)
(-0 1200299.487 -69514588.46)
(-0 8032112.327 -55466431.44)
(-0 46.86589724 102499180.9)
(-0 35.41693602 1.588814533)
(-0 8.940961855 1.095364952)
(-0 26.46904584 4.206589336)
(-0 0.6728624158 0.09608332904)
(-0 0.2052688588 0.02457493498)
(-0 6.424170639e-06 6.99840449e-07)
(-0 6.998723371e-06 7.048472891e-07)
(-0 7.123973325e-06 6.689853928e-07)
(-0 6.306397239e-06 5.551259582e-07)
(-0 6.600082189e-06 5.466523199e-07)
(-0 2.837969042e-06 2.218372511e-07)
(-0 6.123377995e-07 4.529242806e-08)
(-0 3.283254674e-06 2.303494697e-07)
(-0 1.712490568e-06 1.14216164e-07)
(-0 1.05760478e-05 6.719702441e-07)
(-0 1.457814994e-05 8.841277963e-07)
(-0 -4.197579406e-139 -5.644229923e-140)
(-0 -1.419478122e-129 -6.782187144e-131)
(-0 -8.340636077e-122 -2.686558962e-123)
(-0 -2.284643531e-115 -6.105520967e-117)
(-0 -1.496485496e-109 -3.664273075e-111)
(-0 -4.350421838e-104 -1.029106422e-105)
(-0 -7.43807213e-99 -1.75144476e-100)
(-0 -8.900324762e-94 -2.123583588e-95)
(-0 -7.203048048e-89 -1.761101658e-90)
(-0 -3.051394416e-84 -7.703870372e-86)
(-0 -9.46646116e-80 -2.482317512e-81)
(-0 -2.665224527e-75 -7.293852369e-77)
(-0 -3.13377337e-71 -8.989495883e-73)
(-0 -2.417623156e-67 -7.299630385e-69)
(-0 -1.694288823e-63 -5.406292041e-65)
(-0 -8.763297188e-60 -2.966843198e-61)
(-0 -2.699864088e-56 -9.735011157e-58)
(-0 -5.034355145e-53 -1.940242478e-54)
(-0 -6.806421153e-50 -2.812855306e-51)
(-0 -6.108488642e-47 -2.714405824e-48)
(-0 -4.034773686e-44 -1.932047322e-45)
(-0 -2.309705918e-41 -1.193624901e-42)
(-0 -9.907945069e-39 -5.530277227e-40)
(-0 -3.211584738e-36 -1.93620667e-37)
(-0 -7.125619603e-34 -4.6369567e-35)
(-0 -9.441114291e-32 -6.622958261e-33)
(-0 -7.199281572e-30 -5.434630702e-31)
(-0 -1.598199206e-28 -1.295593462e-29)
(-0 -1.108750793e-27 -9.631109556e-29)
(-0 -2.248346426e-26 -2.087961326e-27)
(-0 -2.794966772e-24 -2.767743882e-25)
(-0 -4.758719467e-24 -5.006305567e-25)
(-0 -1.988526638e-24 -2.208144632e-25)
(-0 -5.038513564e-20 -5.825608383e-21)
(-0 -2.590555844e-14 -3.043743957e-15)
(-0 -9.181146178e-13 -1.050550212e-13)
(-0 -2.713899539e-12 -2.815612178e-13)
(-0 -5.906020168e-08 -4.968989134e-09)
(-0 -4.932046259e-07 -2.980377681e-08)
(-0 -7.787150845e-07 -4.306527321e-08)
(-0 -48.81654072 -26884189.9)
(-0 48762578.15 -426798207.6)
(-0 162729283.3 -856144430.3)
(-0 58.55469737 53734132.18)
(-0 323.4530221 17.41827148)
(-0 19.63129555 6.500504282)
(-0 1.924922542 0.4069912177)
(-0 0.345150031 0.07585058295)
(-0 0.01074317867 0.00211877457)
(-0 2.078775757e-06 3.763050436e-07)
(-0 7.962836694e-06 1.336511951e-06)
(-0 9.168661812e-06 1.436021154e-06)
(-0 6.539121532e-06 9.600708434e-07)
(-0 5.172233726e-06 7.14399569e-07)
(-0 6.485287081e-06 8.452353349e-07)
(-0 5.957462972e-06 7.346033423e-07)
(-0 3.406809199e-06 3.984196051e-07)
(-0 2.847226936e-06 3.165191287e-07)
(-0 1.88100175e-07 1.991928822e-08)
(-0 5.976377324e-06 6.040821762e-07)
(-0 -5.020922911e-138 -8.612087331e-139)
(-0 -6.739462992e-126 -4.124859817e-127)
(-0 -2.384767926e-118 -9.897841421e-120)
(-0 -4.669857246e-112 -1.6170009e-113)
(-0 -2.374689556e-106 -7.566571657e-108)
(-0 -5.623733979e-101 -1.736239846e-102)
(-0 -8.081296649e-96 -2.487850669e-97)
(-0 -8.305794529e-91 -2.592828569e-92)
(-0 -5.8657415e-86 -1.876304241e-87)
(-0 -2.194503544e-81 -7.243958776e-83)
(-0 -6.069627772e-77 -2.07857994e-78)
(-0 -1.535290819e-72 -5.478800971e-74)
(-0 -1.631672377e-68 -6.092159303e-70)
(-0 -1.144190856e-64 -4.487101178e-66)
(-0 -7.329784279e-61 -3.030723289e-62)
(-0 -3.481099044e-57 -1.523316414e-58)
(-0 -9.88263538e-54 -4.593470843e-55)
(-0 -1.702781203e-50 -8.435240029e-52)
(-0 -2.138956399e-47 -1.132746291e-48)
(-0 -1.781738267e-44 -1.011292044e-45)
(-0 -1.098969994e-41 -6.698283621e-43)
(-0 -5.984923415e-39 -3.922029614e-40)
(-0 -2.791669169e-36 -1.967767222e-37)
(-0 -8.264474274e-34 -6.263318269e-35)
(-0 -1.923285243e-31 -1.56524898e-32)
(-0 -2.511755245e-29 -2.19092549e-30)
(-0 -1.972570214e-27 -1.839577077e-28)
(-0 -4.751147212e-26 -4.724133194e-27)
(-0 -3.778396507e-25 -3.994815457e-26)
(-0 -4.219433746e-24 -4.732784591e-25)
(-0 -6.447107945e-22 -7.659522664e-23)
(-0 -7.705259468e-22 -9.686551152e-23)
(-0 -1.090645169e-20 -1.448751197e-21)
(-0 -2.154949398e-14 -3.010722578e-15)
(-0 -7.908567283e-12 -1.1502654e-12)
(-0 -2.303822986e-11 -3.409246683e-12)
(-0 -4.694068452e-08 -6.736390382e-09)
(-0 -7.865523755e-08 -9.930522441e-09)
(-0 -1.772884445e-07 -1.599915121e-08)
(-0 -5.350845703e-07 -1.747032103e-08)
(-0 -56.42839338 52190533.9)
(-0 -115782307.5 333534783.7)
(-0 8151256.908 -87487814.08)
(-0 78.99956612 133.1592864)
(-0 487.7377217 -7.128435632)
(-0 99.64206381 179.8688903)
(-0 25.15141475 11.64014117)
(-0 0.1208491458 0.03567365763)
(-0 1.200163853e-05 3.281877881e-06)
(-0 7.981380622e-07 2.019940211e-07)
(-0 1.285450013e-05 3.02327503e-06)
(-0 5.853654488e-06 1.285191731e-06)
(-0 6.607210157e-06 1.359603601e-06)
(-0 8.38160689e-06 1.622085603e-06)
(-0 2.312349243e-06 4.221521157e-07)
(-0 2.615063991e-06 4.515965875e-07)
(-0 3.151135206e-06 5.160265666e-07)
(-0 3.076792756e-06 4.788995029e-07)
(-0 9.450236917e-07 1.401093539e-07)
(-0 3.18388359e-06 4.505442766e-07)
(-0 -4.534766222e-134 -8.752265026e-135)
(-0 -2.444987965e-122 -1.695108202e-123)
(-0 -5.210112294e-115 -2.472300468e-116)
(-0 -7.293357572e-109 -2.912389281e-110)
(-0 -2.879503133e-103 -1.06521522e-104)
(-0 -5.555959175e-98 -2.000624966e-99)
(-0 -6.711685804e-93 -2.416537606e-94)
(-0 -5.926488887e-88 -2.166543229e-89)
(-0 -3.653445761e-83 -1.368740094e-84)
(-0 -1.207551186e-78 -4.665052873e-80)
(-0 -2.978791097e-74 -1.192135015e-75)
(-0 -6.77221239e-70 -2.818603623e-71)
(-0 -6.509658225e-66 -2.827732533e-67)
(-0 -4.15213589e-62 -1.889100922e-63)
(-0 -2.432637937e-58 -1.163298293e-59)
(-0 -1.06166947e-54 -5.354899983e-56)
(-0 -2.781719632e-51 -1.484908323e-52)
(-0 -4.441711136e-48 -2.517341679e-49)
(-0 -5.200250314e-45 -3.137950063e-46)
(-0 -4.048538929e-42 -2.607057222e-43)
(-0 -2.349560524e-39 -1.61726244e-40)
(-0 -1.221296398e-36 -8.993307443e-38)
(-0 -5.476824142e-34 -4.314191236e-35)
(-0 -1.81481088e-31 -1.527627883e-32)
(-0 -3.736875671e-29 -3.354475804e-30)
(-0 -5.229595083e-27 -4.991456925e-28)
(-0 -4.228225473e-25 -4.275104488e-26)
(-0 -1.116452288e-23 -1.190830254e-24)
(-0 -1.038234811e-22 -1.163405108e-23)
(-0 -7.21531012e-22 -8.464893928e-23)
(-0 -1.122718205e-19 -1.376355535e-20)
(-0 -1.021950499e-19 -1.309852674e-20)
(-0 -2.846805499e-16 -3.822633863e-17)
(-0 -7.032471764e-12 -9.945746578e-13)
(-0 -6.341800244e-11 -9.501586114e-12)
(-0 -2.851379192e-11 -4.529841518e-12)
(-0 -5.69931034e-12 -9.454061549e-13)
(-0 -0.004824231048 -0.000789939335)
(-0 -17.58361929 -2.227154968)
(-0 -1.040472691e-07 -1.258177273e-08)
(-0 -53018721.05 614521626.9)
(-0 -677278008 1206023319)
(-0 2697.022845 1088386113)
(-0 7116.878195 -444.1983836)
(-0 122.2533691 -14.49278754)
(-0 40.89005485 176.5423184)
(-0 37.56822914 37.05932595)
(-0 0.0512814673 0.01961600799)
(-0 9.508389638e-06 3.352147376e-06)
(-0 5.786376472e-06 1.887105341e-06)
(-0 6.692781126e-06 2.028134556e-06)
(-0 1.731120235e-05 4.895456982e-06)
(-0 6.862876222e-06 1.81820892e-06)
(-0 5.209462863e-06 1.29750687e-06)
(-0 6.939220097e-06 1.629873079e-06)
(-0 2.406573184e-06 5.345485655e-07)
(-0 2.2926647e-06 4.828235711e-07)
(-0 2.207792311e-06 4.418704027e-07)
(-0 7.949089626e-07 1.515298727e-07)
(-0 2.617654225e-06 4.762422007e-07)
(-0 -4.01476929e-130 -7.865821915e-131)
(-0 -7.261087974e-119 -5.165172326e-120)
(-0 -9.317515639e-112 -4.603319461e-113)
(-0 -9.324416102e-106 -3.929106149e-107)
(-0 -2.858576255e-100 -1.127425358e-101)
(-0 -4.494655061e-95 -1.737689621e-96)
(-0 -4.565560445e-90 -1.772486863e-91)
(-0 -3.4646468e-85 -1.368607032e-86)
(-0 -1.865018706e-80 -7.5536513e-82)
(-0 -5.448209604e-76 -2.273601415e-77)
(-0 -1.199199251e-71 -5.175018787e-73)
(-0 -2.451601311e-67 -1.09743004e-68)
(-0 -2.132636648e-63 -9.932074602e-65)
(-0 -1.238081411e-59 -6.016974822e-61)
(-0 -6.637549804e-56 -3.376696016e-57)
(-0 -2.663793179e-52 -1.423018489e-53)
(-0 -6.448139441e-49 -3.628427267e-50)
(-0 -9.556900694e-46 -5.6811797e-47)
(-0 -1.044638015e-42 -6.577028724e-44)
(-0 -7.627311234e-40 -5.09617197e-41)
(-0 -4.181241424e-37 -2.968468341e-38)
(-0 -2.07851678e-34 -1.568493532e-35)
(-0 -8.996274814e-32 -7.210626877e-33)
(-0 -3.040814203e-29 -2.583658744e-30)
(-0 -6.182412803e-27 -5.550462787e-28)
(-0 -9.117580082e-25 -8.609856446e-26)
(-0 -7.613636109e-23 -7.518583677e-24)
(-0 -2.232207723e-21 -2.28957359e-22)
(-0 -2.492507871e-20 -2.636032819e-21)
(-0 -1.206202271e-19 -1.306048322e-20)
(-0 -1.469590085e-17 -1.619981269e-18)
(-0 -1.469613916e-17 -1.645285224e-18)
(-0 -6.526715566e-14 -7.438329526e-15)
(-0 -5.36155457e-11 -6.296036628e-12)
(-0 -2.936706962e-11 -3.627948365e-12)
(-0 -6.477915577e-11 -8.635258866e-12)
(-0 -0.00450851782 -0.000660387164)
(-0 -76.45737194 -13.2672498)
(-0 -19410.59222 -4.693228372)
(-0 -95181.91586 16507884.78)
(-0 -393340014.9 962838762.9)
(-0 -463763399.3 752946077.5)
(-0 10809.11393 533143062.1)
(-0 176.4895526 1762.099695)
(-0 -158.1535307 2444.95431)
(-0 25.32562057 153.9308104)
(-0 0.05113185545 0.02665225508)
(-0 1.015518586e-05 4.788799526e-06)
(-0 2.499390284e-06 1.081612238e-06)
(-0 9.235756159e-06 3.692963117e-06)
(-0 1.769845334e-05 6.571785752e-06)
(-0 5.170478974e-06 1.790700201e-06)
(-0 1.109664962e-05 3.598599921e-06)
(-0 4.671328546e-06 1.423532381e-06)
(-0 2.586909971e-06 7.431547378e-07)
(-0 6.024255888e-06 1.63617417e-06)
(-0 2.800458967e-06 7.20994049e-07)
(-0 3.472332068e-06 8.494842464e-07)
(-0 4.829969504e-06 1.125343603e-06)
(-0 1.989052043e-06 4.422810546e-07)
(-0 -3.044466284e-126 -5.423898456e-127)
(-0 -1.846746127e-115 -1.216754007e-116)
(-0 -1.42697693e-108 -6.691625418e-110)
(-0 -1.020959931e-102 -4.17336243e-104)
(-0 -2.430758486e-97 -9.45276915e-99)
(-0 -3.115260197e-92 -1.200666776e-93)
(-0 -2.661634243e-87 -1.037082248e-88)
(-0 -1.736481878e-82 -6.908531672e-84)
(-0 -8.165737188e-78 -3.334500592e-79)
(-0 -2.109297813e-73 -8.868051517e-75)
(-0 -4.144765202e-69 -1.798062996e-70)
(-0 -7.623621097e-65 -3.419382786e-66)
(-0 -6.005278708e-61 -2.790683289e-62)
(-0 -3.175139187e-57 -1.532273257e-58)
(-0 -1.558610835e-53 -7.830867654e-55)
(-0 -5.755774921e-50 -3.018858206e-51)
(-0 -1.288296574e-46 -7.07290083e-48)
(-0 -1.77436006e-43 -1.022290468e-44)
(-0 -1.812945268e-40 -1.098544646e-41)
(-0 -1.24406293e-37 -7.940845231e-39)
(-0 -6.457429774e-35 -4.345115644e-36)
(-0 -3.074014597e-32 -2.179800785e-33)
(-0 -1.287361866e-29 -9.603944357e-31)
(-0 -4.252952124e-27 -3.327021845e-28)
(-0 -9.261332655e-25 -7.558525753e-26)
(-0 -1.331251078e-22 -1.125406568e-23)
(-0 -1.205653439e-20 -1.045838213e-21)
(-0 -3.979278512e-19 -3.500325522e-20)
(-0 -5.485363184e-18 -4.823988948e-19)
(-0 -1.698140183e-17 -1.468844547e-18)
(-0 -1.2638094e-15 -1.05611966e-16)
(-0 -1.846577948e-13 -1.463353351e-14)
(-0 -6.395179202e-13 -4.753617641e-14)
(-0 -1.869036381e-11 -1.308666561e-12)
(-0 -6.275916121e-11 -4.269705782e-12)
(-0 -8.871966894e-05 -6.271433798e-06)
(-0 -38.14381961 -6.399872663)
(-0 -49.08717182 -419.1234096)
(-0 -23864.31514 111809.8836)
(-0 -199430127.9 518965936.3)
(-0 -1046173558 1436498044)
(-0 -280540617.7 756992350.9)
(-0 6890.695839 257091.1769)
(-0 -925.9339394 2019.216248)
(-0 298.1118873 -56.3909624)
(-0 7.013011112e-06 4.74900853e-06)
(-0 0.2728927466 0.1653749059)
(-0 9.130139217e-06 5.083659986e-06)
(-0 6.289546613e-06 3.224808049e-06)
(-0 5.605764902e-06 2.656913418e-06)
(-0 1.262775994e-06 5.556022606e-07)
(-0 8.967608434e-06 3.67809273e-06)
(-0 5.7981078e-06 2.225601114e-06)
(-0 4.826425171e-07 1.740084401e-07)
(-0 3.774624386e-06 1.282418848e-06)
(-0 5.849798012e-06 1.878476567e-06)
(-0 5.626978041e-06 1.712501636e-06)
(-0 2.240148487e-06 6.477470144e-07)
(-0 1.15125246e-07 3.170057675e-08)
(-0 1.531277423e-06 4.023813307e-07)
(-0 -2.042713869e-122 -2.827620737e-123)
(-0 -4.155571108e-112 -2.207995859e-113)
(-0 -1.933370388e-105 -7.660720733e-107)
(-0 -9.890532088e-100 -3.552370117e-101)
(-0 -1.829124355e-94 -6.426880607e-96)
(-0 -1.91128349e-89 -6.778691753e-91)
(-0 -1.374018025e-84 -4.981834774e-86)
(-0 -7.710057851e-80 -2.871395178e-81)
(-0 -3.168807083e-75 -1.213951217e-76)
(-0 -7.241781878e-71 -2.854567918e-72)
(-0 -1.271117562e-66 -5.155904799e-68)
(-0 -2.104836834e-62 -8.788361347e-64)
(-0 -1.502406309e-58 -6.46225601e-60)
(-0 -7.239650213e-55 -3.211923763e-56)
(-0 -3.256145748e-51 -1.492548769e-52)
(-0 -1.107274981e-47 -5.254280485e-49)
(-0 -2.293514214e-44 -1.129020563e-45)
(-0 -2.938327742e-41 -1.503520298e-42)
(-0 -2.809119817e-38 -1.496561141e-39)
(-0 -1.814466606e-35 -1.007401327e-36)
(-0 -8.932537363e-33 -5.168103613e-34)
(-0 -4.072939112e-30 -2.452084854e-31)
(-0 -1.652855287e-27 -1.032078557e-28)
(-0 -5.353762468e-25 -3.447978827e-26)
(-0 -1.209280511e-22 -7.964844332e-24)
(-0 -1.712547069e-20 -1.13962387e-21)
(-0 -1.719501565e-18 -1.13674368e-19)
(-0 -6.472313846e-17 -4.153380639e-18)
(-0 -1.178137151e-15 -7.107778847e-17)
(-0 -6.522929764e-15 -3.535705845e-16)
(-0 -2.850241141e-12 -1.296164987e-13)
(-0 -1.156462838e-10 -3.926943409e-12)
(-0 -1.221160206e-10 -2.469433346e-12)
(-0 -3.81909743e-11 -1.977492736e-13)
(-0 -1.396941323e-07 1.315681193e-09)
(-0 -1.611357543 0.031857579)
(-0 -63.2720465 10.4563193)
(-0 12.57566252 -4946.796815)
(-0 -9423722.814 96863078.72)
(-0 -585508337.8 1026664515)
(-0 -907867763.9 1161927010)
(-0 38864.73979 482371364.8)
(-0 -8919.68263 4973943.785)
(-0 -68.7341276 7510.40462)
(-0 38.44412686 96.86473222)
(-0 0.2741685916 0.2015387335)
(-0 1.043367436e-05 7.268553293e-06)
(-0 2.589074044e-06 1.668236595e-06)
(-0 7.25756035e-06 4.310629766e-06)
(-0 3.921714656e-06 2.152298651e-06)
(-0 1.735451093e-06 8.835323289e-07)
(-0 4.978902197e-06 2.361284233e-06)
(-0 3.216362602e-06 1.426709358e-06)
(-0 4.083124366e-06 1.700353738e-06)
(-0 5.354440207e-06 2.10045411e-06)
(-0 3.735756539e-06 1.384742811e-06)
(-0 5.505023905e-06 1.933556889e-06)
(-0 2.377890989e-06 7.934233055e-07)
(-0 3.474493854e-06 1.10391234e-06)
(-0 4.759990545e-06 1.443154889e-06)
(-0 -1.243377666e-118 -9.476437956e-120)
(-0 -8.481688273e-109 -2.772058635e-110)
(-0 -2.375977046e-102 -6.524530144e-104)
(-0 -8.691994836e-97 -2.359717388e-98)
(-0 -1.248940881e-91 -3.508173552e-93)
(-0 -1.064397316e-86 -3.124154813e-88)
(-0 -6.441276455e-82 -1.972699422e-83)
(-0 -3.110284372e-77 -9.892634876e-79)
(-0 -1.117889527e-72 -3.673927357e-74)
(-0 -2.261663979e-68 -7.646348989e-70)
(-0 -3.548453841e-64 -1.22985971e-65)
(-0 -5.293612235e-60 -1.8762983e-61)
(-0 -3.426488843e-56 -1.240217463e-57)
(-0 -1.505990655e-52 -5.562984561e-54)
(-0 -6.21093114e-49 -2.341655773e-50)
(-0 -1.946449248e-45 -7.494688254e-47)
(-0 -3.734231409e-42 -1.469709892e-43)
(-0 -4.453856753e-39 -1.793252732e-40)
(-0 -3.987543256e-36 -1.643071252e-37)
(-0 -2.426871856e-33 -1.022897187e-34)
(-0 -1.125291235e-30 -4.842273433e-32)
(-0 -4.948126229e-28 -2.165053065e-29)
(-0 -1.997922369e-25 -8.826531533e-27)
(-0 -6.791823704e-23 -2.995663579e-24)
(-0 -1.516180358e-20 -6.56225077e-22)
(-0 -2.166456468e-18 -8.962822061e-20)
(-0 -2.359851528e-16 -8.959351775e-18)
(-0 -1.145904066e-14 -3.733366378e-16)
(-0 -5.720404382e-12 -1.41081313e-13)
(-0 -2.626202494e-10 -3.577495142e-12)
(-0 -1.709339968e-09 1.960225281e-12)
(-0 -2.087845329e-08 4.20916196e-10)
(-0 -1.598469865e-08 6.957379231e-10)
(-0 -2.622310412e-09 1.868627267e-10)
(-0 -0.0004123425503 4.252738283e-05)
(-0 -0.006635490675 0.0009149259629)
(-0 -71.2585741 265.7107921)
(-0 102.3833833 5499179.444)
(-0 -25039301.75 567474956.8)
(-0 -867261567.1 1135212566)
(-0 -345531028.5 823071516)
(-0 -5037239.012 16910855.1)
(-0 -9136.670283 282990.4314)
(-0 100.5208615 39.63600866)
(-0 0.005250686849 0.005504322537)
(-0 7.24809133e-06 6.524330232e-06)
(-0 6.967660865e-06 5.648569313e-06)
(-0 1.143776704e-05 8.451756877e-06)
(-0 5.023046101e-06 3.403888489e-06)
(-0 6.031140488e-06 3.767603896e-06)
(-0 2.506295968e-06 1.450430211e-06)
(-0 1.785627497e-06 9.617673839e-07)
(-0 6.492471437e-06 3.268624227e-06)
(-0 3.963570565e-06 1.872454372e-06)
(-0 2.472586695e-06 1.099959066e-06)
(-0 5.683995598e-06 2.38868969e-06)
(-0 2.84131626e-06 1.131239218e-06)
(-0 6.804508428e-07 2.573315701e-07)
(-0 2.725724943e-06 9.814608008e-07)
(-0 2.091123521e-06 7.184766767e-07)
(-0 -7.005442977e-115 5.838883518e-117)
(-0 -1.602122744e-105 -7.306478885e-108)
(-0 -2.70239198e-99 -2.812034911e-101)
(-0 -7.070994908e-94 -1.029906033e-95)
(-0 -7.896581102e-89 -1.400868419e-90)
(-0 -5.491173556e-84 -1.108771611e-85)
(-0 -2.798715558e-79 -6.177133561e-81)
(-0 -1.163614817e-74 -2.732887022e-76)
(-0 -3.659809128e-70 -8.974315518e-72)
(-0 -6.559702063e-66 -1.656089841e-67)
(-0 -9.206726624e-62 -2.368003389e-63)
(-0 -1.238387307e-57 -3.218905895e-59)
(-0 -7.275522546e-54 -1.899283887e-55)
(-0 -2.91927556e-50 -7.616841921e-52)
(-0 -1.104968968e-46 -2.870502671e-48)
(-0 -3.194213556e-43 -8.235363707e-45)
(-0 -5.642493681e-40 -1.43941016e-41)
(-0 -6.269431667e-37 -1.577105999e-38)
(-0 -5.268326437e-34 -1.300963523e-35)
(-0 -3.04832422e-31 -7.340255005e-33)
(-0 -1.459510727e-28 -3.391513762e-30)
(-0 -4.114495916e-25 -9.074798559e-27)
(-0 -3.627721278e-22 -7.392199139e-24)
(-0 -1.664475554e-19 -2.993756254e-21)
(-0 -2.86633123e-17 -4.184484301e-19)
(-0 -2.194969478e-15 -2.16129238e-17)
(-0 -3.334875786e-13 -1.089179872e-15)
(-0 -5.399691005e-11 3.082541178e-13)
(-0 -4.498855409e-09 7.986422844e-11)
(-0 -6.989949524e-08 2.351541465e-09)
(-0 -2.46303735e-07 1.335886742e-08)
(-0 -1.290254714e-06 1.038412551e-07)
(-0 -1.013550396e-06 1.148817271e-07)
(-0 -1.320935532e-06 2.03844431e-07)
(-0 -2.054565625e-08 4.238602221e-09)
(-0 -0.0004899826581 0.0001354436624)
(-0 -32.41912749 21.62941321)
(-0 783.1039857 23372618.8)
(-0 -252575461.1 1160170032)
(-0 -618779115.1 1074718281)
(-0 -17991580.37 246747739.7)
(-0 128030.7461 61.84227904)
(-0 0.02104896762 0.03631841653)
(-0 0.047017425 0.06633990435)
(-0 2.267211994e-06 2.700965867e-06)
(-0 4.775769261e-06 4.941925968e-06)
(-0 3.304349665e-06 3.048099053e-06)
(-0 1.106744948e-05 9.236922209e-06)
(-0 4.716199143e-06 3.594913438e-06)
(-0 7.688373111e-06 5.390089334e-06)
(-0 2.314844633e-06 1.501378971e-06)
(-0 4.567525332e-06 2.754746098e-06)
(-0 4.36876808e-06 2.461341098e-06)
(-0 2.003405769e-06 1.058675846e-06)
(-0 6.44127465e-06 3.204274761e-06)
(-0 2.365785475e-06 1.111516388e-06)
(-0 3.03496975e-06 1.350684876e-06)
(-0 1.633171827e-06 6.903114981e-07)
(-0 3.391640919e-06 1.364854568e-06)
(-0 8.351155158e-07 3.206610591e-07)
(-0 -3.715468054e-111 4.256988045e-112)
(-0 -2.848258955e-102 8.839495055e-104)
(-0 -2.893081758e-96 3.306939622e-98)
(-0 -5.415777304e-91 9.502870959e-94)
(-0 -4.702515423e-86 -1.953287975e-88)
(-0 -2.669602433e-81 -2.148781475e-83)
(-0 -1.146661891e-76 -1.221987073e-78)
(-0 -4.107856458e-72 -5.074001258e-74)
(-0 -1.1315007e-67 -1.511511436e-69)
(-0 -1.798237377e-63 -2.486011125e-65)
(-0 -2.259817507e-59 -3.131006876e-61)
(-0 -2.743343994e-55 -3.710674305e-57)
(-0 -1.464336329e-51 -1.888133576e-53)
(-0 -5.369691528e-48 -6.443774741e-50)
(-0 -1.855701747e-44 -2.017571562e-46)
(-0 -4.954276919e-41 -4.719018954e-43)
(-0 -8.255525263e-38 -6.571603156e-40)
(-0 -1.555533665e-34 -9.587358833e-37)
(-0 -4.442419987e-31 -1.822031953e-33)
(-0 -4.805547584e-28 -8.254987498e-31)
(-0 -4.974220924e-25 5.340944155e-28)
(-0 -3.69681485e-22 1.625363453e-24)
(-0 -1.637503033e-19 1.379123745e-21)
(-0 -3.223716922e-17 4.313624667e-19)
(-0 -4.012645785e-15 7.854795931e-17)
(-0 -6.459642469e-13 1.769867024e-14)
(-0 -1.414960988e-10 5.285957674e-12)
(-0 -1.391379614e-08 6.966816239e-10)
(-0 -4.483111205e-07 2.972475181e-08)
(-0 -3.533409895e-06 3.073627831e-07)
(-0 -9.562619917e-06 1.082775505e-06)
(-0 -2.068395605e-05 3.027542301e-06)
(-0 -5.293552107e-05 9.96374371e-06)
(-0 -0.0006408665304 0.0001549631217)
(-0 -1.343827958e-06 4.20442898e-07)
(-0 -9.5446049e-06 3.949137994e-06)
(-0 -2.034873378 1.17489169)
(-0 12.75476619 262321962.9)
(-0 -246094052.7 1345547936)
(-0 8246313.208 1265992694)
(-0 0.03228221641 0.08018807024)
(-0 0.03195822822 0.07221549321)
(-0 0.03613498518 0.06668916757)
(-0 7.345448756e-06 1.126833465e-05)
(-0 1.41391855e-06 1.861864189e-06)
(-0 5.244601886e-06 6.051352292e-06)
(-0 9.278756905e-06 9.543206422e-06)
(-0 4.642410307e-06 4.310803934e-06)
(-0 4.669762293e-07 3.952497797e-07)
(-0 3.569578299e-06 2.774835507e-06)
(-0 1.189835584e-06 8.548382079e-07)
(-0 5.333082168e-06 3.560469849e-06)
(-0 6.155772345e-06 3.837158555e-06)
(-0 2.195390368e-06 1.283112381e-06)
(-0 8.497168678e-07 4.673877163e-07)
(-0 4.195358822e-06 2.179074896e-06)
(-0 2.403809114e-06 1.182506199e-06)
(-0 1.810778107e-06 8.459445547e-07)
(-0 3.718642306e-06 1.653858059e-06)
(-0 1.008213913e-06 4.278331726e-07)
(-0 -1.882006514e-107 4.544689544e-108)
(-0 -4.835298583e-99 3.567348804e-100)
(-0 -2.958000447e-93 1.119866887e-94)
(-0 -3.962981993e-88 8.589035474e-90)
(-0 -2.676865044e-83 3.36051066e-85)
(-0 -1.241402127e-78 8.651275793e-81)
(-0 -4.496989336e-74 1.578232322e-76)
(-0 -1.389298435e-69 2.061342605e-72)
(-0 -3.354478167e-65 1.683057968e-68)
(-0 -4.73169276e-61 1.525392055e-64)
(-0 -5.329767512e-57 4.194149007e-60)
(-0 -5.817908034e-53 1.039744994e-55)
(-0 -2.823859507e-49 9.173439598e-52)
(-0 -9.483924383e-46 4.856946775e-48)
(-0 -3.381482227e-42 2.493827997e-44)
(-0 -6.056207977e-38 6.054226705e-40)
(-0 -2.620946173e-34 3.404757284e-36)
(-0 -5.280342877e-31 8.64851725e-33)
(-0 -5.369692608e-28 1.084910213e-29)
(-0 -3.55245276e-25 8.716092329e-27)
(-0 -1.793874847e-22 5.286684859e-24)
(-0 -6.800018925e-20 2.389978498e-21)
(-0 -1.84822375e-17 7.716081871e-19)
(-0 -3.295069498e-15 1.631943626e-16)
(-0 -5.637984833e-13 3.314903577e-14)
(-0 -1.422853394e-10 9.955974772e-12)
(-0 -2.200680931e-08 1.840172135e-09)
(-0 -9.876082158e-07 9.91524046e-08)
(-0 -1.163808526e-05 1.409788903e-06)
(-0 -4.846195459e-05 7.119607673e-06)
(-0 -0.0001176429588 2.107351895e-05)
(-0 -0.0003183507111 6.987711546e-05)
(-0 -0.0007818595415 0.0002115921561)
(-0 -0.0005809803933 0.0001959687392)
(-0 -1.049692751 0.4493741192)
(-0 -2.304972802e-05 1.311425971e-05)
(-0 -0.07902363415 0.06489673722)
(-0 -16.84585945 289242037.2)
(-0 -44196448.59 1226378960)
(4.115441322e-22 333838554.7 1437244425)
(-1.036144182e-22 19.07624235 235254203.6)
(-0 5.503593809e-06 1.231633689e-05)
(-0 8.591830874e-06 1.642980505e-05)
(-0 7.987931823e-06 1.312649648e-05)
(-0 2.233339176e-06 3.198455896e-06)
(-0 4.941770634e-06 6.248829294e-06)
(-0 6.658383945e-06 7.524076473e-06)
(-0 2.14828509e-07 2.192206105e-07)
(-0 1.768880537e-06 1.644425655e-06)
(-0 3.571917113e-06 3.047702724e-06)
(-0 5.247608089e-06 4.135775761e-06)
(-0 4.398206448e-06 3.219604525e-06)
(-0 6.305105471e-06 4.30787159e-06)
(-0 5.043041157e-06 3.229765326e-06)
(-0 2.731393368e-06 1.645979059e-06)
(-0 4.26103147e-06 2.424317062e-06)
(-0 7.340094993e-07 3.954848818e-07)
(-0 2.724390777e-06 1.393922877e-06)
(-0 1.059453822e-06 5.160220103e-07)
(-0 3.009740504e-06 1.398659889e-06)
(-0 -9.220808463e-104 3.57571732e-104)
(-0 -7.938793274e-96 9.785200383e-97)
(-0 -2.925734469e-90 2.00814138e-91)
(-0 -2.806729516e-85 1.263338097e-86)
(-0 -1.475810611e-80 4.7567472e-82)
(-0 -5.59543897e-76 1.383341076e-77)
(-0 -1.711032606e-71 3.471860685e-73)
(-0 -4.563089147e-67 8.159049315e-69)
(-0 -9.668238438e-63 1.635043506e-64)
(-0 -1.207162902e-58 2.056536307e-60)
(-0 -1.219836968e-54 2.199773884e-56)
(-0 -1.250773146e-50 2.471305871e-52)
(-0 -1.835972345e-46 4.060332825e-48)
(-0 -2.723111654e-42 6.819944213e-44)
(-0 -5.472504595e-38 1.560346263e-39)
(-0 -2.149548955e-34 6.987744679e-36)
(-0 -3.332495167e-31 1.234399352e-32)
(-0 -3.072951849e-28 1.295070793e-29)
(-0 -1.705172063e-25 8.163062962e-27)
(-0 -6.503245067e-23 3.53177315e-24)
(-0 -2.005035299e-20 1.234430416e-21)
(-0 -5.026889275e-18 3.508814007e-19)
(-0 -1.050557246e-15 8.321924951e-17)
(-0 -2.308967685e-13 2.08038532e-14)
(-0 -7.574482292e-11 7.784972649e-12)
(-0 -1.913397886e-08 2.251526977e-09)
(-0 -1.245619299e-06 1.687762199e-07)
(-0 -1.976598115e-05 3.102829107e-06)
(-0 -9.852524228e-05 1.803154171e-05)
(-0 -0.0002562907979 5.506453064e-05)
(-0 -0.0006437259874 0.0001636625595)
(-0 -0.001309297865 0.0003972001497)
(-0 -0.001420540981 0.0005197981524)
(-0 -0.86273244 0.3884134112)
(-0 -8.131892973 4.128315451)
(-0 -57.58735709 16.94339972)
(-0 -0.008838852464 0.01069580205)
(-0 -990.211538 328829314.7)
(-0 -39131814.28 1158737645)
(-3.664135731e-22 236726382.1 1231387496)
(1.135319016e-22 17.43660715 283655549.8)
(-0 6.061518051e-06 1.397217563e-05)
(-0 6.098145032e-06 1.224465249e-05)
(-0 4.260849588e-06 7.479305007e-06)
(-0 6.844971142e-06 1.057692211e-05)
(-0 2.047701632e-06 2.809150474e-06)
(-0 7.360103065e-06 9.046035857e-06)
(-0 4.364643651e-06 4.848433174e-06)
(-0 6.374088577e-06 6.451046462e-06)
(-0 1.374066254e-06 1.276082457e-06)
(-0 3.55002301e-06 3.044372664e-06)
(-0 1.299394612e-06 1.034704813e-06)
(-0 1.396934404e-06 1.037983975e-06)
(-0 4.491404588e-06 3.127668958e-06)
(-0 7.465359736e-07 4.890862411e-07)
(-0 3.061686239e-06 1.893567193e-06)
(-0 9.72837702e-07 5.697422845e-07)
(-0 1.852573571e-06 1.030221658e-06)
(-0 3.805695236e-06 2.014612671e-06)
(-0 1.750812121e-06 8.842745432e-07)
(-0 -4.419116145e-100 2.439789433e-100)
(-0 -1.274942957e-92 2.282430876e-93)
(-0 -2.831842838e-87 2.930753413e-88)
(-0 -1.946646812e-82 1.393123823e-83)
(-0 -7.97490303e-78 4.362850932e-79)
(-0 -2.474478132e-73 1.114859881e-74)
(-0 -6.394432559e-69 2.527986756e-70)
(-0 -1.46949267e-64 5.390602521e-66)
(-0 -2.734774224e-60 9.765871483e-62)
(-0 -3.297079125e-56 1.191787989e-57)