/*--------------------------------*- C++ -*----------------------------------*\
  =========                 |
  \\      /  F ield         | OpenFOAM: The Open Source CFD Toolbox
   \\    /   O peration     | Website:  https://openfoam.org
    \\  /    A nd           | Version:  10
     \\/     M anipulation  |
\*---------------------------------------------------------------------------*/
FoamFile
{
    format      ascii;
    class       surfaceScalarField;
    location    "0.0002";
    object      phi;
}
// * * * * * * * * * * * * * * * * * * * * * * * * * * * * * * * * * * * * * //

dimensions      [0 3 -1 0 0 0 0];

internalField   nonuniform List<scalar> 
7080
(
1.177661059e-11
-2.355195016e-14
1.18467802e-11
-7.01816305e-14
1.196330734e-11
-1.165470941e-13
1.212634356e-11
-1.630638963e-13
1.233641524e-11
-2.101070524e-13
1.259440319e-11
-2.580310962e-13
1.290153073e-11
-3.071783891e-13
1.325935018e-11
-3.578776461e-13
1.366972444e-11
-4.104391642e-13
1.413480068e-11
-4.651472836e-13
1.465697295e-11
-5.22248895e-13
1.523882833e-11
-5.819368917e-13
1.588307026e-11
-6.443274454e-13
1.659241169e-11
-7.094297307e-13
1.736942874e-11
-7.771065807e-13
1.821636478e-11
-8.470246017e-13
1.913487261e-11
-9.185925356e-13
2.012568246e-11
-9.908873103e-13
2.118818409e-11
-1.062568459e-12
2.231991498e-11
-1.131783838e-12
2.351595327e-11
-1.196073369e-12
2.476822433e-11
-1.252282834e-12
2.606474766e-11
-1.296505689e-12
2.738887734e-11
-1.324077194e-12
2.871862019e-11
-1.329650694e-12
3.002614222e-11
-1.307384558e-12
3.127757963e-11
-1.251248091e-12
3.243322503e-11
-1.155399167e-12
3.344800486e-11
-1.014473517e-12
3.427180444e-11
-8.234316359e-13
3.484855187e-11
-5.763164077e-13
3.511198984e-11
-2.629477325e-13
3.497501375e-11
1.375172184e-13
3.430901906e-11
6.665726533e-13
3.291220401e-11
1.39740698e-12
3.047666097e-11
2.436113674e-12
2.660239145e-11
3.874769784e-12
2.098370416e-11
5.619053113e-12
1.389469889e-11
7.089161843e-12
6.997159957e-12
6.897408207e-12
1.95927892e-12
5.037443717e-12
-4.478729599e-12
6.43771628e-12
-9.272143266e-12
4.793261097e-12
-9.994296256e-12
7.22226922e-13
-5.170300122e-12
-4.823788041e-12
-1.182525406e-12
-3.98758746e-12
-2.080366549e-20
-1.182466051e-12
-1.677093552e-20
-4.103350602e-21
-1.45864762e-20
-2.184395655e-21
-1.256154666e-20
-2.024899172e-21
-1.072744725e-20
-1.834073026e-21
-9.139391236e-21
-1.588025912e-21
-7.80106625e-21
-1.338290639e-21
-6.687470727e-21
-1.113557375e-21
-5.764668611e-21
-9.227612851e-22
-4.999330281e-21
-7.652949628e-22
-4.362278572e-21
-6.370061175e-22
-3.829263748e-21
-5.329677114e-22
-3.380630197e-21
-4.485860734e-22
-3.799525998e-22
1.170168717e-11
-4.676214163e-14
1.177085367e-11
-1.393481118e-13
1.188571235e-11
-2.314057202e-13
1.204640327e-11
-3.237546953e-13
1.225343078e-11
-4.171343956e-13
1.250764369e-11
-5.122438735e-13
1.281022374e-11
-6.097583941e-13
1.316267243e-11
-7.103263911e-13
1.356679285e-11
-8.145597759e-13
1.402466406e-11
-9.230188258e-13
1.453860417e-11
-1.036189417e-12
1.511111728e-11
-1.154450315e-12
1.574481791e-11
-1.278028142e-12
1.644232563e-11
-1.406937234e-12
1.720612062e-11
-1.540901282e-12
1.803834976e-11
-1.679253658e-12
1.894057088e-11
-1.82081383e-12
1.991342182e-11
-1.963738476e-12
2.095620155e-11
-2.105348206e-12
2.20663529e-11
-2.241934991e-12
2.323884219e-11
-2.368562448e-12
2.446544079e-11
-2.478881401e-12
2.573393128e-11
-2.56499628e-12
2.70272872e-11
-2.617433222e-12
2.832291159e-11
-2.625275154e-12
2.959206051e-11
-2.576533523e-12
3.079961537e-11
-2.458802982e-12
3.190437974e-11
-2.260163696e-12
3.286001978e-11
-1.970113556e-12
3.361656025e-11
-1.579972073e-12
3.412188315e-11
-1.081639382e-12
3.43217918e-11
-4.628565368e-13
3.415581463e-11
3.034943026e-13
3.354371319e-11
1.278674004e-12
3.235445956e-11
2.586660714e-12
3.03447069e-11
4.445866444e-12
2.707621978e-11
7.143257095e-12
2.196173049e-11
1.073354248e-11
1.468295126e-11
1.436794099e-11
5.56874239e-12
1.601161707e-11
-2.546197255e-12
1.31523833e-11
-4.563182372e-12
8.454701436e-12
-6.388121485e-12
6.618200207e-12
-5.809481887e-12
1.435873276e-13
-2.040256726e-12
-8.593013196e-12
1.466457766e-13
-6.17448998e-12
-1.377594444e-20
-1.035820252e-12
-1.571460422e-20
4.996572773e-22
-1.442276952e-20
-3.476229828e-21
-1.237072051e-20
-4.076946385e-21
-1.048140013e-20
-3.723391533e-21
-8.889655962e-21
-3.17976799e-21
-7.576332986e-21
-2.651610797e-21
-6.496674637e-21
-2.19321213e-21
-5.607202288e-21
-1.812230073e-21
-4.871041436e-21
-1.501451812e-21
-4.258240166e-21
-1.249802371e-21
-3.74488211e-21
-1.046320235e-21
-3.311996724e-21
-8.814659394e-22
-7.473854824e-22
1.155272643e-11
-6.930416586e-14
1.161990834e-11
-2.065300478e-13
1.173146588e-11
-3.429632541e-13
1.188751632e-11
-4.798050545e-13
1.208852029e-11
-6.181382103e-13
1.233526324e-11
-7.589866101e-13
1.262884468e-11
-9.033395849e-13
1.297066569e-11
-1.052147163e-12
1.336241154e-11
-1.206305458e-12
1.380602692e-11
-1.366634133e-12
1.430368011e-11
-1.533842644e-12
1.485771154e-11
-1.708481833e-12
1.547056064e-11
-1.89087727e-12
1.614466357e-11
-2.081040115e-12
1.688231308e-11
-2.278550692e-12
1.768546935e-11
-2.482409845e-12
1.855550919e-11
-2.690853605e-12
1.949289893e-11
-2.901128187e-12
2.049677608e-11
-3.109225343e-12
2.156442507e-11
-3.309583921e-12
2.269063589e-11
-3.494773144e-12
2.386694233e-11
-3.655187743e-12
2.508075152e-11
-3.778805554e-12
2.631440257e-11
-3.851084491e-12
2.75442323e-11
-3.855105063e-12
2.873978662e-11
-3.772087919e-12
2.986339923e-11
-3.582415593e-12
3.087046403e-11
-3.267228424e-12
3.171084319e-11
-2.810492903e-12
3.233195052e-11
-2.201079392e-12
3.268404196e-11
-1.43373074e-12
3.272796921e-11
-5.067839472e-13
3.244470814e-11
5.867557453e-13
3.184370302e-11
1.879679262e-12
3.096051419e-11
3.469850006e-12
2.981756255e-11
5.588817917e-12
2.830345673e-11
8.657362854e-12
2.601590387e-11
1.302109563e-11
2.237070107e-11
1.801314398e-11
1.603888706e-11
2.234343121e-11
3.314117593e-12
2.587715253e-11
-4.0689775e-12
1.583779655e-11
-8.847116115e-12
1.139633883e-11
-4.994159824e-12
-3.709368972e-12
-1.487646521e-13
-1.343840837e-11
8.46782528e-13
-7.170037159e-12
-3.407939352e-20
-1.890376955e-13
-2.044751431e-20
-1.326861519e-20
-1.502538529e-20
-8.898358507e-21
-1.201716566e-20
-7.085164042e-21
-9.937776591e-21
-5.80277796e-21
-8.361498769e-21
-4.756043339e-21
-7.117934319e-21
-3.895172183e-21
-6.11569258e-21
-3.195449846e-21
-5.296424027e-21
-2.631494285e-21
-4.619391995e-21
-2.178479216e-21
-4.05475803e-21
-1.814431322e-21
-3.580027814e-21
-1.521045173e-21
-3.177916267e-21
-1.283571716e-21
-1.090337825e-21
1.133146902e-11
-9.086202122e-14
1.139572749e-11
-2.707885428e-13
1.150242177e-11
-4.496575372e-13
1.165163528e-11
-6.290185006e-13
1.184376405e-11
-8.102668201e-13
1.207950005e-11
-9.947223973e-13
1.23598218e-11
-1.183661099e-12
1.268598293e-11
-1.378308085e-12
1.305949588e-11
-1.579818253e-12
1.34821083e-11
-1.789246452e-12
1.395576894e-11
-2.007503227e-12
1.448257868e-11
-2.235291519e-12
1.506472103e-11
-2.473019558e-12
1.570436518e-11
-2.720684238e-12
1.640353285e-11
-2.977718384e-12
1.716391791e-11
-3.242794904e-12
1.798664535e-11
-3.513580976e-12
1.887195403e-11
-3.786436767e-12
1.981878514e-11
-4.056056407e-12
2.082425674e-11
-4.31505553e-12
2.188300453e-11
-4.553520936e-12
2.298637245e-11
-4.758555668e-12
2.412144613e-11
-4.913879348e-12
2.526994217e-11
-4.999580751e-12
2.64070037e-11
-4.992166687e-12
2.750001902e-11
-4.865103092e-12
2.850769163e-11
-4.590088185e-12
2.937976949e-11
-4.139306263e-12
3.005811289e-11
-3.488836469e-12
3.04801952e-11
-2.623161769e-12
3.058669677e-11
-1.540231863e-12
3.033552749e-11
-2.556148503e-13
2.972528661e-11
1.196996659e-12
2.88309762e-11
2.773989818e-12
2.785392556e-11
4.44690097e-12
2.718001302e-11
6.262730582e-12
2.737858394e-11
8.458791919e-12
2.880491092e-11
1.159476888e-11
3.020586474e-11
1.661219042e-11
2.677742524e-11
2.577187095e-11
1.447166246e-11
3.818291553e-11
-1.579003784e-11
4.609949682e-11
-2.521541811e-11
2.082171911e-11
-1.140851374e-11
-1.751627336e-11
-1.067599975e-12
-2.377932214e-11
1.890376416e-13
-8.426674743e-12
-1.691969671e-20
-1.744868997e-20
-1.622245733e-20
-1.396585457e-20
-1.321488942e-20
-1.19059257e-20
-1.073477958e-20
-9.565272276e-21
-8.89104197e-21
-7.646513833e-21
-7.500627614e-21
-6.146455311e-21
-6.418211982e-21
-4.977584202e-21
-5.551737018e-21
-4.061920598e-21
-4.843408958e-21
-3.339818108e-21
-4.255344101e-21
-2.766539599e-21
-3.76137188e-21
-2.308398707e-21
-3.342554358e-21
-1.939857348e-21
-2.984682375e-21
-1.641437861e-21
-1.398207653e-21
1.104048668e-11
-1.111409502e-13
1.110094545e-11
-3.312473376e-13
1.120131802e-11
-5.500301013e-13
1.134164319e-11
-7.693435713e-13
1.152223249e-11
-9.908559391e-13
1.174365629e-11
-1.216145985e-12
1.200673617e-11
-1.446740777e-12
1.231253492e-11
-1.684106689e-12
1.266234158e-11
-1.929624813e-12
1.305764935e-11
-2.184554136e-12
1.350012363e-11
-2.449977415e-12
1.399155639e-11
-2.726724163e-12
1.453380181e-11
-3.015264862e-12
1.512868685e-11
-3.315569232e-12
1.577788857e-11
-3.626920138e-12
1.64827675e-11
-3.947673843e-12
1.724414357e-11
-4.274956989e-12
1.806199835e-11
-4.604291453e-12
1.893508305e-11
-4.929141031e-12
1.986040763e-11
-5.240380074e-12
2.08325822e-11
-5.525695503e-12
2.184297875e-11
-5.768952233e-12
2.287868102e-11
-5.949581634e-12
2.392119689e-11
-6.042096701e-12
2.494492879e-11
-6.015898619e-12
2.591544367e-11
-5.835617771e-12
2.678767764e-11
-5.462322081e-12
2.750438362e-11
-4.856012289e-12
2.799542414e-11
-3.979876936e-12
2.817900944e-11
-2.806747208e-12
2.796675089e-11
-1.327973519e-12
2.727540811e-11
4.35728047e-13
2.604987502e-11
2.422529809e-12
2.430268549e-11
4.521179715e-12
2.217824828e-11
6.57133818e-12
2.004118182e-11
8.399797293e-12
1.852259144e-11
9.977382566e-12
1.818836328e-11
1.192899725e-11
1.820867296e-11
1.659188067e-11
1.435003706e-11
2.963050713e-11
-7.504688732e-12
6.003764153e-11
-3.235881359e-11
7.095362167e-11
-2.38776326e-11
1.234053812e-11
-6.045189837e-12
-3.534871614e-11
3.185284999e-12
-3.300979701e-11
-4.065130562e-20
-5.241389708e-12
-2.010851149e-20
-2.828769415e-20
-1.413911527e-20
-1.993524992e-20
-1.0874236e-20
-1.517080395e-20
-8.816021134e-21
-1.162348525e-20
-7.390983448e-21
-9.071549297e-21
-6.331756504e-21
-7.205679143e-21
-5.502548378e-21
-5.806788613e-21
-4.829634528e-21
-4.734830609e-21
-4.270130449e-21
-3.89931817e-21
-3.797203209e-21
-3.239462482e-21
-3.392830522e-21
-2.712766529e-21
-3.044134871e-21
-2.288547342e-21
-2.741452167e-21
-1.944114386e-21
-1.66239147e-21
1.068313627e-11
-1.298737693e-13
1.073900047e-11
-3.871115656e-13
1.083172752e-11
-6.427571074e-13
1.096130102e-11
-8.98916942e-13
1.112792944e-11
-1.157484179e-12
1.13320358e-11
-1.420252165e-12
1.157425237e-11
-1.688957223e-12
1.185541253e-11
-1.965266751e-12
1.217653715e-11
-2.250749344e-12
1.253881423e-11
-2.546831123e-12
1.294356947e-11
-2.854732535e-12
1.339222464e-11
-3.175379186e-12
1.38862397e-11
-3.509279789e-12
1.442703324e-11
-3.856362695e-12
1.501587393e-11
-4.215760794e-12
1.565373337e-11
-4.585533233e-12
1.634108782e-11
-4.962311375e-12
1.707765275e-11
-5.340856333e-12
1.78620289e-11
-5.713517127e-12
1.869123211e-11
-6.069583254e-12
1.956007147e-11
-6.394534903e-12
2.046032993e-11
-6.669210796e-12
2.137968999e-11
-6.868941773e-12
2.230033575e-11
-6.962742454e-12
2.319715526e-11
-6.912718053e-12
2.403547104e-11
-6.673933469e-12
2.476825633e-11
-6.195107435e-12
2.53328735e-11
-5.420629595e-12
2.564753254e-11
-4.294535784e-12
2.560796283e-11
-2.767177059e-12
2.5085257e-11
-8.052680309e-13
2.392652721e-11
1.594458176e-12
2.196033984e-11
4.388717251e-12
1.901007733e-11
7.471442396e-12
1.491112663e-11
1.067028908e-11
9.495939559e-12
1.381498454e-11
2.445362028e-12
1.702796041e-11
-6.858979501e-12
2.123333908e-11
-1.665850298e-11
2.639140434e-11
-2.88685013e-11
4.184050517e-11
-2.474020321e-11
5.590934346e-11
-2.273383344e-11
6.89472519e-11
-8.465580644e-13
-9.546737249e-12
7.080650717e-12
-4.327592494e-11
5.241389529e-12
-3.117053578e-11
-3.561829407e-20
-1.520582846e-19
-1.54911853e-20
-4.841480292e-20
-9.40337425e-21
-2.602306015e-20
-7.326917293e-21
-1.724725996e-20
-6.264085179e-21
-1.268631512e-20
-5.525113294e-21
-9.810518348e-21
-4.932865975e-21
-7.797923254e-21
-4.430590374e-21
-6.309060872e-21
-3.994122089e-21
-5.171295323e-21
-3.610274761e-21
-4.283161486e-21
-3.270507255e-21
-3.579225521e-21
-2.968611335e-21
-3.014657424e-21
-2.699701914e-21
-2.557450922e-21
-2.459729251e-21
-2.184080665e-21
-1.87688513e-21
1.026350033e-11
-1.468267133e-13
1.031407366e-11
-4.376848887e-13
1.039799414e-11
-7.266774946e-13
1.051517969e-11
-1.016102346e-12
1.066571842e-11
-1.308022766e-12
1.084986304e-11
-1.604396686e-12
1.106802857e-11
-1.907122698e-12
1.132078612e-11
-2.218024231e-12
1.160885072e-11
-2.538813851e-12
1.193306257e-11
-2.871042855e-12
1.229436009e-11
-3.216029939e-12
1.26937428e-11
-3.574761777e-12
1.313222085e-11
-3.947757745e-12
1.361074725e-11
-4.334889023e-12
1.413012686e-11
-4.735140329e-12
1.469089438e-11
-5.146300667e-12
1.529315082e-11
-5.564567781e-12
1.593634441e-11
-5.984049963e-12
1.661897633e-11
-6.396149083e-12
1.733820433e-11
-6.788811257e-12
1.808930713e-11
-7.145637769e-12
1.886495758e-11
-7.444861341e-12
1.965423116e-11
-7.658215375e-12
2.044124971e-11
-7.749760931e-12
2.120332539e-11
-7.674793602e-12
2.190842767e-11
-7.379035737e-12
2.251175333e-11
-6.798433133e-12
2.295114137e-11
-5.860017486e-12
2.31410662e-11
-4.484460652e-12
2.296501184e-11
-2.59112237e-12
2.226624078e-11
-1.064971424e-13
2.083749481e-11
3.023204288e-12
1.841141465e-11
6.81479757e-12
1.465596549e-11
1.122689154e-11
9.178592915e-12
1.61476618e-11
1.541952504e-12
2.145162506e-11
-8.603846385e-12
2.717375952e-11
-2.122801641e-11
3.385750933e-11
-3.70703404e-11
4.223372864e-11
-3.606615535e-11
4.083632033e-11
-2.263676249e-11
4.247995053e-11
1.154419517e-11
3.476629425e-11
2.289467356e-11
-2.089721562e-11
1.70289113e-11
-3.741016267e-11
1.872426904e-19
-1.414162464e-11
3.751487412e-20
1.622909867e-22
7.015794582e-21
-1.791572307e-20
-6.275740554e-22
-1.837968996e-20
-2.76597245e-21
-1.510885996e-20
-3.388288402e-21
-1.206399693e-20
-3.512518199e-21
-9.686285951e-21
-3.444003593e-21
-7.866434768e-21
-3.292824824e-21
-6.460236258e-21
-3.105988252e-21
-5.358128418e-21
-2.906338796e-21
-4.482807152e-21
-2.705939158e-21
-3.779620665e-21
-2.511404833e-21
-3.209186431e-21
-2.326331657e-21
-2.742518259e-21
-2.152533716e-21
-2.357872429e-21
-2.038675091e-21
9.786315222e-12
-1.618046611e-13
9.831015262e-12
-4.823848796e-13
9.905155828e-12
-8.008179396e-13
1.000857823e-11
-1.11952461e-12
1.014123405e-11
-1.440678496e-12
1.030318579e-11
-1.766348407e-12
1.049460827e-11
-2.098545172e-12
1.071578436e-11
-2.439200255e-12
1.096709397e-11
-2.790123327e-12
1.124899631e-11
-3.152945071e-12
1.156200518e-11
-3.529038722e-12
1.190665608e-11
-3.919412617e-12
1.22834636e-11
-4.324565215e-12
1.269286651e-11
-4.744291878e-12
1.313515671e-11
-5.177430438e-12
1.361038654e-11
-5.621530412e-12
1.411824726e-11
-6.072428512e-12
1.465790838e-11
-6.523711171e-12
1.522780287e-11
-6.966043607e-12
1.582533672e-11
-7.38634509e-12
1.644649158e-11
-7.76679267e-12
1.708527298e-11
-8.083642786e-12
1.773293254e-11
-8.305874848e-12
1.837685865e-11
-8.393686903e-12
1.899898128e-11
-8.296916182e-12
1.957346774e-11
-7.953522338e-12
2.006339761e-11
-7.28836307e-12
2.0415992e-11
-6.212611567e-12
2.055585079e-11
-4.624319656e-12
2.037558086e-11
-2.410852617e-12
1.972331466e-11
5.457693492e-13
1.838708672e-11
4.359432221e-12
1.607830205e-11
9.12358237e-12
1.24277658e-11
1.487742779e-11
7.040787838e-12
2.153463984e-11
-3.503784415e-13
2.88427912e-11
-9.664766168e-12
3.648814736e-11
-1.979167494e-11
4.39844178e-11
-2.532900084e-11
4.777105454e-11
-2.276549037e-11
3.827280983e-11
2.382581821e-12
1.733187833e-11
3.655128249e-11
5.975935902e-13
3.463396904e-11
-1.897990217e-11
1.414162459e-11
-1.69178182e-11
-7.470982795e-21
-7.504751679e-20
9.095684521e-21
-1.640437633e-20
6.494222501e-21
-1.531425999e-20
2.643255934e-21
-1.452872172e-20
2.788905759e-22
-1.274449266e-20
-1.010577419e-21
-1.07745262e-20
-1.692667016e-21
-9.004193638e-21
-2.037805082e-21
-7.521294056e-21
-2.190716985e-21
-6.307321333e-21
-2.230666986e-21
-5.318174863e-21
-2.203152309e-21
-4.510317582e-21
-2.135504924e-21
-3.847263091e-21
-2.044736661e-21
-3.299949062e-21
-1.941685827e-21
-2.845563236e-21
-1.833336378e-21
-2.46621589e-21
-2.147817339e-21
9.256888305e-12
-1.746558528e-13
9.295260119e-12
-5.207566155e-13
9.358856712e-12
-8.644143917e-13
9.447430457e-12
-1.208098247e-12
9.560780905e-12
-1.554028929e-12
9.698763681e-12
-1.904331232e-12
9.861296225e-12
-2.261077724e-12
1.004835522e-11
-2.626259152e-12
1.025996585e-11
-3.001733803e-12
1.049618417e-11
-3.389163286e-12
1.075707355e-11
-3.789928047e-12
1.104267527e-11
-4.205014307e-12
1.135297333e-11
-4.63486323e-12
1.168785236e-11
-5.079170853e-12
1.204704714e-11
-5.536625131e-12
1.243008087e-11
-6.00456412e-12
1.283618922e-11
-6.478536937e-12
1.326422458e-11
-6.95174666e-12
1.371253304e-11
-7.414352096e-12
1.417879166e-11
-7.852603689e-12
1.465978737e-11
-8.247788408e-12
1.515110556e-11
-8.574960996e-12
1.564667716e-11
-8.801446334e-12
1.613810335e-11
-8.885112983e-12
1.661363306e-11
-8.772445906e-12
1.705660288e-11
-8.39649225e-12
1.744306101e-11
-7.674821116e-12
1.773817696e-11
-6.507727212e-12
1.789088693e-11
-4.777029628e-12
1.782606065e-11
-2.346026628e-12
1.74333269e-11
9.385033701e-13
1.655122446e-11
5.241534497e-12
1.494444883e-11
1.073035808e-11
1.228095212e-11
1.754092464e-11
8.167744226e-12
2.564784771e-11
2.35849418e-12
3.465204148e-11
-5.201375901e-12
4.404801772e-11
-1.552184936e-11
5.430489101e-11
-1.604836054e-11
4.829756583e-11
-2.897950535e-12
2.512239984e-11
2.499186159e-11
-1.055793381e-11
3.589771995e-11
-1.030826477e-11
1.691781828e-11
-4.811718339e-19
7.866497037e-20
2.215396844e-20
1.409279643e-20
-1.047534286e-20
1.023428461e-20
-1.254586391e-20
7.279760772e-21
-1.235973442e-20
4.427484996e-21
-1.167644356e-20
2.248857037e-21
-1.056586259e-20
7.597551394e-22
-9.285422338e-21
-2.097674344e-22
-8.034668677e-21
-8.238323587e-22
-6.907226365e-21
-1.201570515e-21
-5.929580016e-21
-1.422809705e-21
-5.096931897e-21
-1.540097818e-21
-4.393024885e-21
-1.588190896e-21
-3.799164885e-21
-1.590350835e-21
-3.297783643e-21
-1.562338481e-21
-2.873569871e-21
-1.514937827e-21
-2.513610544e-21
-2.207174406e-21
8.681005934e-12
-1.85276203e-13
8.712734212e-12
-5.524847883e-13
8.765250322e-12
-9.169303668e-13
8.838202403e-12
-1.28105027e-12
8.931222291e-12
-1.64704887e-12
9.043945404e-12
-2.017054433e-12
9.176021302e-12
-2.393153625e-12
9.327111878e-12
-2.777349622e-12
9.496879307e-12
-3.171501122e-12
9.684966838e-12
-3.577250781e-12
9.89097474e-12
-3.995935953e-12
1.011443308e-11
-4.428472621e-12
1.035477252e-11
-4.875202605e-12
1.061129384e-11
-5.335692106e-12
1.088313647e-11
-5.808467721e-12
1.116924626e-11
-6.29067397e-12
1.146834325e-11
-6.777634089e-12
1.177888978e-11
-7.262293346e-12
1.209905919e-11
-7.734521528e-12
1.242670419e-11
-8.180248666e-12
1.275932183e-11
-8.580406064e-12
1.30940053e-11
-8.909644416e-12
1.342736257e-11
-9.134803449e-12
1.375536565e-11
-9.213115997e-12
1.407306818e-11
-9.090148514e-12
1.437409173e-11
-8.697515818e-12
1.464973617e-11
-7.950465346e-12
1.488751893e-11
-6.745510029e-12
1.50689004e-11
-4.95841108e-12
1.516590365e-11
-2.44302982e-12
1.513631152e-11
9.68095581e-13
1.491699671e-11
5.46084911e-12
1.441422689e-11
1.123312807e-11
1.349292432e-11
1.846222721e-11
1.201743982e-11
2.712333196e-11
1.016922956e-11
3.6500252e-11
9.074630564e-12
4.514261668e-11
8.203699211e-12
5.517582272e-11
4.886481326e-12
5.161478364e-11
2.086619873e-11
9.142682443e-12
1.030826512e-11
-1.834594952e-19
3.358600002e-19
3.705074386e-20
-4.10756836e-20
-1.185868585e-19
8.158917908e-21
-2.708063305e-20
1.196507157e-20
-1.428149581e-20
1.04204141e-20
-1.10012053e-20
7.96305163e-21
-9.902370451e-21
5.538065962e-21
-9.251456282e-21
3.529297288e-21
-8.557091667e-21
2.0105088e-21
-7.766631969e-21
9.176748778e-22
-6.941832712e-21
1.538139907e-22
-6.143362706e-21
-3.689223956e-22
-5.40684016e-21
-7.189026934e-22
-4.746947472e-21
-9.462378183e-22
-4.165685062e-21
-1.086809653e-21
-3.658588029e-21
-1.166137063e-21
-3.218451032e-21
-1.202379154e-21
-2.837322252e-21
-1.208501689e-21
-2.50748196e-21
-2.221871405e-21
8.064834258e-12
-1.936137279e-13
8.089754805e-12
-5.774052233e-13
8.130897011e-12
-9.580724646e-13
8.187783748e-12
-1.337936998e-12
8.259862057e-12
-1.71912727e-12
8.346537475e-12
-2.10372994e-12
8.447189169e-12
-2.493805307e-12
8.561166711e-12
-2.891327083e-12
8.687774043e-12
-3.29810844e-12
8.826246157e-12
-3.715722981e-12
8.975722473e-12
-4.145412356e-12
9.135219877e-12
-4.587970023e-12
9.303607664e-12
-5.043590325e-12
9.479586231e-12
-5.511670619e-12
9.661671335e-12
-5.990552847e-12
9.848186596e-12
-6.477189364e-12
1.003726826e-11
-6.966715952e-12
1.022688763e-11
-7.451912869e-12
1.041489847e-11
-7.922532406e-12
1.05991187e-11
-8.364468906e-12
1.077745756e-11
-8.758744935e-12
1.094809926e-11
-9.080286045e-12
1.110975306e-11
-9.296457139e-12
1.126197593e-11
-9.36533887e-12
1.140556547e-11
-9.233738184e-12
1.154300985e-11
-8.834960293e-12
1.167897482e-11
-8.086430225e-12
1.182081693e-11
-6.887352312e-12
1.197914577e-11
-5.116739841e-12
1.216843438e-11
-2.632318083e-12
1.240749817e-11
7.290318443e-13
1.271971038e-11
5.148636969e-12
1.313067502e-11
1.082216339e-11
1.363724413e-11
1.795565769e-11
1.400009721e-11
2.676047914e-11
1.304611911e-11
3.745422971e-11
7.533557343e-12
5.065517839e-11
-6.173515199e-13
6.332673145e-11
-8.368271579e-12
5.936570365e-11
4.084138399e-19
7.744104552e-13
1.458844484e-19
8.585800033e-20
1.389629698e-19
4.397222244e-20
3.66527072e-20
-1.627659657e-20
2.115366105e-20
-1.158158689e-20
1.524536209e-20
-8.37319595e-21
1.151924895e-20
-7.275091449e-21
8.613965799e-21
-6.997085496e-21
6.232430578e-21
-6.869919542e-21
4.319756985e-21
-6.644416322e-21
2.835308058e-21
-6.282180724e-21
1.716144883e-21
-5.822666571e-21
8.90336537e-22
-5.317550844e-21
2.909702929e-22
-4.807469929e-21
-1.376402834e-22
-4.318332437e-21
-4.391407862e-22
-3.864179831e-21
-6.466726559e-22
-3.451051246e-21
-7.850082829e-22
-3.080110253e-21
-8.725388617e-22
-2.749786111e-21
-9.228911344e-22
-2.457123551e-21
-2.198590147e-21
7.414814914e-12
-1.996740431e-13
7.4329272e-12
-5.955174149e-13
7.46265903e-12
-9.878042224e-13
7.503376798e-12
-1.378654802e-12
7.55432282e-12
-1.770073399e-12
7.61466773e-12
-2.164074915e-12
7.683527898e-12
-2.562665432e-12
7.759956383e-12
-2.96775552e-12
7.842918672e-12
-3.381070819e-12
7.931261919e-12
-3.804066428e-12
8.023683388e-12
-4.237833984e-12
8.118701871e-12
-4.682988536e-12
8.214634742e-12
-5.139523155e-12
8.309582931e-12
-5.606618805e-12
8.401426543e-12
-6.082396557e-12
8.487835258e-12
-6.563598265e-12
8.566299769e-12
-7.045180666e-12
8.634193051e-12
-7.519806283e-12
8.688873459e-12
-7.97721288e-12
8.72784572e-12
-8.40344122e-12
8.748999914e-12
-8.779899129e-12
8.750952372e-12
-9.082238413e-12
8.733515955e-12
-9.279020651e-12
8.698327944e-12
-9.330150835e-12
8.649659558e-12
-9.185069767e-12
8.595422543e-12
-8.780723344e-12
8.548376631e-12
-8.039384404e-12
8.527538055e-12
-6.866513776e-12
8.559811789e-12
-5.14901344e-12
8.681901135e-12
-2.754407461e-12
8.942581484e-12
4.68351157e-13
9.407766452e-12
4.683452276e-12
1.017321093e-11
1.005671892e-11
1.137276621e-11
1.675610213e-11
1.303088929e-11
2.510235618e-11
1.461985453e-11
3.586526433e-11
1.605787502e-11
4.921715778e-11
1.195818537e-11
6.742642114e-11
-2.469824308e-13
7.157087143e-11
2.179738696e-19
5.274278072e-13
1.068215438e-19
1.969910116e-19
7.903169098e-20
7.176207613e-20
4.121843606e-20
2.153665853e-20
2.436205199e-20
5.274797488e-21
1.634346659e-20
-3.546097145e-22
1.179725491e-20
-2.728878889e-21
8.741131753e-21
-3.940960984e-21
6.457933798e-21
-4.586719635e-21
4.681992583e-21
-4.868473034e-21
3.294822211e-21
-4.895007795e-21
2.22126061e-21
-4.749101754e-21
1.400417451e-21
-4.496703991e-21
7.801077849e-22
-4.187156171e-21
3.165123226e-22
-3.854732529e-21
-2.601220128e-23
-3.521650683e-21
-2.757316622e-22
-3.201326936e-21
-4.546841407e-22
-2.901152512e-21
-5.79876302e-22
-2.624588165e-21
-6.643577312e-22
-2.372635828e-21
-2.144827249e-21
6.737558156e-12
-2.035290837e-13
6.749042093e-12
-6.070012884e-13
6.767597876e-12
-1.006359982e-12
6.792387259e-12
-1.403444267e-12
6.822424136e-12
-1.80011039e-12
6.856646518e-12
-2.198297328e-12
6.893929289e-12
-2.599948133e-12
6.933061161e-12
-3.006887381e-12
6.972705914e-12
-3.420715735e-12
7.011360336e-12
-3.842721102e-12
7.047315663e-12
-4.273789482e-12
7.078626103e-12
-4.714299012e-12
7.103086542e-12
-5.163983586e-12
7.118221313e-12
-5.62175364e-12
7.121286832e-12
-6.085462233e-12
7.109292728e-12
-6.551604354e-12
7.079048684e-12
-7.014936774e-12
7.02724716e-12
-7.468004852e-12
6.950595897e-12
-7.9005617e-12
6.846018478e-12
-8.298863865e-12
6.710945592e-12
-8.644826194e-12
6.543724029e-12
-8.915016727e-12
6.344173202e-12
-9.079469781e-12
6.114315364e-12
-9.100292954e-12
5.859291166e-12
-8.930045451e-12
5.588437324e-12
-8.509869552e-12
5.316427406e-12
-7.767374658e-12
5.064233283e-12
-6.614319511e-12
4.859403806e-12
-4.944183819e-12
4.734677767e-12
-2.629681357e-12
4.723094664e-12
4.799343862e-13
4.845795705e-12
4.560751139e-12
5.086867579e-12
9.815647081e-12
5.344825801e-12
1.649814408e-11
5.373220964e-12
2.507396056e-11
4.734251423e-12
3.650423391e-11
2.235793587e-12
5.171561577e-11
5.063631825e-13
6.915585154e-11
-5.274277053e-13
7.260466233e-11
-7.265825805e-20
1.733282741e-19
7.878122751e-21
1.164546308e-19
2.880444607e-20
5.08357529e-20
2.495657498e-20
2.538452935e-20
1.873264478e-20
1.14987278e-20
1.396919741e-20
4.408838367e-21
1.058517281e-20
6.551468308e-22
8.095373102e-21
-1.451159968e-21
6.176180399e-21
-2.667524978e-21
4.655457822e-21
-3.347748074e-21
3.440728251e-21
-3.680275309e-21
2.473658373e-21
-3.782028542e-21
1.709965272e-21
-3.733007221e-21
1.112531426e-21
-3.589718316e-21
6.495941688e-22
-3.391791004e-21
2.943115458e-22
-3.166363556e-21
2.444276096e-23
-2.931453246e-21
-1.781197931e-22
-2.698584492e-21
-3.279239648e-22
-2.474777963e-21
-4.365491521e-22
-2.264004211e-21
-2.068215253e-21
6.039736701e-12
-2.053336346e-13
6.044979379e-12
-6.122439357e-13
6.052880187e-12
-1.014260819e-12
6.062321782e-12
-1.412885983e-12
6.072063912e-12
-1.809852638e-12
6.080827875e-12
-2.207061302e-12
6.087288107e-12
-2.606408307e-12
6.090021245e-12
-3.009620569e-12
6.087444593e-12
-3.418139295e-12
6.077759189e-12
-3.833035942e-12
6.058903454e-12
-4.25493388e-12
6.028519015e-12
-4.683914599e-12
5.983928951e-12
-5.119393553e-12
5.922129103e-12
-5.559953912e-12
5.83979461e-12
-6.003127924e-12
5.733306056e-12
-6.445115965e-12
5.598802276e-12
-6.880433095e-12
5.43226982e-12
-7.301472476e-12
5.229682441e-12
-7.697974433e-12
4.987207715e-12
-8.056389205e-12
4.701501336e-12
-8.359119738e-12
4.370112874e-12
-8.583628183e-12
3.992027009e-12
-8.701383973e-12
3.568354866e-12
-8.676620838e-12
3.103168057e-12
-8.464858626e-12
2.604416419e-12
-8.011118048e-12
2.084756902e-12
-7.247715128e-12
1.561908561e-12
-6.091470703e-12
1.057764793e-12
-4.440040058e-12
5.948331458e-13
-2.166749758e-12
1.875818446e-13
8.871860365e-13
-1.762581139e-13
4.924590767e-12
-5.744632167e-13
1.021385236e-11
-1.206906211e-12
1.713058677e-11
-2.362881188e-12
2.622993568e-11
-4.10103626e-12
3.824238881e-11
-5.999024047e-12
5.361360339e-11
-4.862071358e-12
6.80188989e-11
1.0751944e-12
6.666739655e-11
-6.906148846e-20
1.075194651e-12
-2.327475977e-20
7.066790168e-20
3.353222553e-21
2.420777e-20
1.107077342e-20
1.766697865e-20
1.164275534e-20
1.092674627e-20
1.021550587e-20
5.836089003e-21
8.478866009e-21
2.39178865e-21
6.879008092e-21
1.4870022e-22
5.495957301e-21
-1.284471758e-21
4.322930587e-21
-2.174718705e-21
3.338975018e-21
-2.696316724e-21
2.522679695e-21
-2.965729912e-21
1.853254176e-21
-3.063578107e-21
1.310458739e-21
-3.046919007e-21
8.750216171e-22
-2.956349764e-21
5.292218553e-22
-2.820559275e-21
2.573115153e-22
-2.659537781e-21
4.568673588e-23
-2.48695396e-21
-1.171502129e-22
-2.3119348e-21
-2.407601942e-22
-2.140387779e-21
-1.9759694e-21
5.327985682e-12
-2.053595767e-13
5.327628242e-12
-6.118864875e-13
5.325700994e-12
-1.01233364e-12
5.320697349e-12
-1.407882472e-12
5.31110495e-12
-1.800260344e-12
5.295471186e-12
-2.191427536e-12
5.272340027e-12
-2.583277136e-12
5.240152268e-12
-2.977432938e-12
5.1971524e-12
-3.375139664e-12
5.141315476e-12
-3.777199219e-12
5.070294925e-12
-4.183913416e-12
4.981388272e-12
-4.595007976e-12
4.871517802e-12
-5.009523161e-12
4.737224965e-12
-5.42566123e-12
4.574679731e-12
-5.840582863e-12
4.379708706e-12
-6.250145068e-12
4.147848367e-12
-6.648572846e-12
3.874432365e-12
-7.028056587e-12
3.554724518e-12
-7.378266728e-12
3.184112067e-12
-7.685776791e-12
2.75837598e-12
-7.933383534e-12
2.274057641e-12
-8.099309791e-12
1.728941187e-12
-8.156267613e-12
1.12266061e-12
-8.070340277e-12
4.574264238e-13
-7.799624525e-12
-2.611696728e-13
-7.292522304e-12
-1.023384305e-12
-6.485500623e-12
-1.814818332e-12
-5.300036489e-12
-2.616573176e-12
-3.638285401e-12
-3.406602378e-12
-1.376720518e-12
-4.162726959e-12
1.643310914e-12
-4.867297348e-12
5.629160892e-12
-5.508887281e-12
1.085544237e-11
-6.070455099e-12
1.769215456e-11
-6.482877429e-12
2.664235797e-11
-6.491576345e-12
3.825108787e-11
-5.433418183e-12
5.255544551e-11
-4.87081432e-12
6.745629521e-11
-1.034922623e-12
6.283150487e-11
-1.073942639e-19
4.027213028e-14
-2.627323509e-20
-1.001350762e-20
-3.182235729e-21
1.116770683e-21
4.330541043e-21
1.015420238e-20
6.552098076e-21
8.705190654e-21
6.77120552e-21
5.61698317e-21
6.235777579e-21
2.927218431e-21
5.445836114e-21
9.386437912e-22
4.605710354e-21
-4.443437665e-22
3.801332568e-21
-1.370338368e-21
3.069561829e-21
-1.964543119e-21
2.4248315e-21
-2.320996417e-21
1.869913276e-21
-2.508656418e-21
1.401027982e-21
-2.578029973e-21
1.010812106e-21
-2.566129772e-21
6.902433489e-22
-2.499985793e-21
4.298953362e-22
-2.399184338e-21
2.20705896e-22
-2.277758534e-21
5.43968083e-23
-2.145619449e-21
-7.634181485e-23
-2.0096428e-21
-1.874489942e-21
4.608820434e-12