/*--------------------------------*- C++ -*----------------------------------*\
  =========                 |
  \\      /  F ield         | OpenFOAM: The Open Source CFD Toolbox
   \\    /   O peration     | Website:  https://openfoam.org
    \\  /    A nd           | Version:  10
     \\/     M anipulation  |
\*---------------------------------------------------------------------------*/
FoamFile
{
    format      ascii;
    class       volScalarField;
    location    "0.0002";
    object      rhok;
}
// * * * * * * * * * * * * * * * * * * * * * * * * * * * * * * * * * * * * * //

dimensions      [0 0 0 0 0 0 0];

internalField   nonuniform List<scalar> 
3600
(
0.9843329014
0.984315979
0.9842808832
0.9842261463
0.9841500426
0.9840505486
0.983925303
0.983771568
0.9835861896
0.9833655576
0.9831055637
0.9828015588
0.9824483059
0.9820399302
0.981569863
0.9810307778
0.9804145156
0.9797119937
0.9789130924
0.9780065092
0.9769795674
0.9758179612
0.9745054127
0.9730232098
0.9713495851
0.9694588916
0.9673205229
0.9648975317
0.9621449134
0.9590075545
0.9554178936
0.9512934065
0.946534076
0.9410201926
0.9346116059
0.9271478721
0.9184556135
0.908375931
0.8968372577
0.8839957163
0.8703888789
0.8720888415
0.9272214937
0.9517046664
0.9680641415
0.9828563125
0.9970084473
1
1
1
1
1
1
1
1
1
1
1
1
1
0.9843324044
0.9843154381
0.9842802567
0.9842253929
0.9841491196
0.9840494101
0.9839238982
0.9837698386
0.9835840674
0.9833629613
0.9831023954
0.9827976991
0.9824436086
0.9820342151
0.9815629076
0.9810223068
0.9804041883
0.9796993889
0.9788976902
0.9779876695
0.9769565042
0.9757897119
0.9744708004
0.9729807964
0.9712976116
0.969395199
0.9672424485
0.9648017763
0.9620273842
0.9588632176
0.9552407303
0.9510766831
0.9462712935
0.9407074668
0.9342522069
0.9267578775
0.9180680227
0.9080360189
0.8965834274
0.8838533356
0.8705453563
0.8736313834
0.9312189872
0.9543066012
0.9699581249
0.9841474961
0.9986298469
1
1
1
1
1
1
1
1
1
1
1
1
1
0.9843314491
0.9843143968
0.9842790478
0.9842239358
0.9841473316
0.9840472025
0.9839211725
0.9837664825
0.9835799495
0.9833579255
0.9830962536
0.9827902225
0.9824345172
0.9820231644
0.9815494723
0.9810059617
0.9803842841
0.9796751241
0.9788680773
0.9779514949
0.9769122813
0.9757356248
0.9744046366
0.9728998622
0.9711986248
0.9692741462
0.9670943941
0.9646206079
0.9618054951
0.9585911629
0.9549070011
0.9506679464
0.9457738185
0.9401116749
0.9335603286
0.9259959226
0.9172975138
0.9073493267
0.8960469272
0.8833489757
0.869547114
0.871960854
0.9413864024
0.9589932243
0.9736729562
0.9868380742
0.9999922703
1
1
1
1
1
1
1
1
1
1
1
1
1
0.9843301115
0.9843129344
0.9842773429
0.9842218729
0.9841447921
0.9840440603
0.9839172881
0.9837616972
0.9835740785
0.9833507494
0.983087509
0.9827795896
0.9824216049
0.9820074926
0.9815304497
0.9809828589
0.9803562017
0.9796409542
0.9788264586
0.9779007605
0.9768503975
0.9756601202
0.9743125178
0.9727875117
0.9710616702
0.9691072864
0.9668911598
0.9643730273
0.9615036394
0.9582225783
0.9544561258
0.9501158468
0.9450990802
0.939295324
0.9325936928
0.9248970092
0.9161334786
0.9062481155
0.8951331143
0.8823878167
0.8663558746
0.8746396892
0.9412336751
0.9632214192
0.9787293783
0.9911617522
1
1
1
1
1
1
1
1
1
1
1
1
1
1
0.9843285028
0.9843111671
0.9842752683
0.9842193461
0.9841416659
0.9840401787
0.9839124799
0.9837557685
0.9835668043
0.983341864
0.9830766939
0.9827664593
0.9824056895
0.9819882165
0.9815071057
0.980954577
0.9803219121
0.9795993437
0.9787759203
0.9778393361
0.976775713
0.9755693129
0.9742021547
0.9726534933
0.9708991128
0.9689103656
0.9666528871
0.9640849191
0.9611552217
0.9578006691
0.9539438763
0.9494916394
0.9443364816
0.9383645224
0.9314661587
0.9235601048
0.9146212378
0.904697951
0.8938936875
0.8824094091
0.8722333845
0.8953001372
0.9505607504
0.9708200064
0.9850846964
0.9968156589
1
1
1
1
1
1
1
1
1
1
1
1
1
1
0.9843267656
0.9843092437
0.9842729859
0.9842165378
0.9841381642
0.9840358076
0.9839070479
0.9837490603
0.9835585718
0.9833318153
0.9830644809
0.9827516623
0.9823877988
0.9819666096
0.9814810206
0.9809230796
0.9802838581
0.979553335
0.9787202557
0.9777719571
0.976694146
0.9754706101
0.9740828335
0.9725094762
0.9707256614
0.9687019998
0.9664032651
0.9637866353
0.9607994511
0.9573765541
0.9534375105
0.9488844495
0.943604953
0.9374751251
0.9303756247
0.9222209421
0.9130046095
0.9028541016
0.8920073091
0.8797685744
0.8809143046
0.9318759032
0.9645330049
0.9797070992
0.9916043574
1
1
1
1
1
1
1
1
1
1
1
1
1
1
1
0.9843250699
0.9843073415
0.9842706882
0.984213665
0.9841345379
0.9840312434
0.9839013475
0.9837420029
0.9835499052
0.983321245
0.983051658
0.9827361684
0.9823691282
0.9819441478
0.9814540186
0.9808906237
0.9802448353
0.979506394
0.9786637649
0.977703962
0.9766123291
0.9753722577
0.9739648161
0.9723682478
0.9705572842
0.9685021958
0.9661674872
0.9635101364
0.9604773027
0.957003535
0.9530077615
0.9483908495
0.9430361904
0.9368110114
0.9295816878
0.9212444955
0.9117844712
0.901868656
0.8925444704
0.8866357455
0.9021391131
0.9649662382
0.9764787858
0.9875137986
0.9993941551
1
1
1
1
1
1
1
1
1
1
1
1
1
1
1
0.9843236072
0.9843056607
0.984268593
0.9842109724
0.9841310702
0.9840268201
0.9838957779
0.9837350783
0.98354139
0.9833108677
0.9830390993
0.9827210491
0.9823509932
0.9819224479
0.9814280888
0.9808596589
0.9802078622
0.9794622423
0.9786110383
0.9776410141
0.9765372488
0.9752828735
0.9738587292
0.97224291
0.9704101382
0.9683308972
0.9659702313
0.9632861049
0.9602272415
0.9567304593
0.9527177797
0.9480942347
0.942744209
0.9365330644
0.929316585
0.9209628888
0.911440633
0.9015278832
0.8939192695
0.8998258653
0.9517694087
0.9776901798
0.9869890193
0.9959281092
1
1
1
1
1
1
1
1
1
1
1
1
1
1
1
1
0.9843225856
0.9843044184
0.9842669363
0.9842087256
0.9841280675
0.9840228984
0.9838907697
0.9837288048
0.9835336539
0.9833014457
0.9830277338
0.9827074378
0.9823347782
0.9819032025
0.9814053026
0.9808327211
0.9801760451
0.9794246857
0.9785667388
0.9775888242
0.976475894
0.9752109992
0.9737749942
0.9721461485
0.9702996221
0.9682067398
0.9658339815
0.9631416001
0.9600817963
0.9565964901
0.9526150238
0.948052182
0.9428024001
0.9367414845
0.9297283324
0.921597046
0.9120723099
0.9005596391
0.8999961955
0.929728529
0.9863577372
0.9908682202
0.9987521106
1
1
1
1
1
1
1
1
1
1
1
1
1
1
1
1
1
0.9843222226
0.9843038419
0.9842659653
0.9842072024
0.9841258504
0.9840198551
0.983886771
0.9837237198
0.983527345
0.9832937633
0.9830185116
0.9826964876
0.9823218839
0.9818881139
0.9813877294
0.980812327
0.9801524451
0.9793974469
0.9785353915
0.9775528875
0.976434928
0.9751646956
0.9737233285
0.9720896221
0.9702396348
0.9681461497
0.9657779295
0.9630986982
0.9600658206
0.9566287446
0.9527275781
0.9482920603
0.9432365099
0.9374647069
0.9308785226
0.9233973663
0.9150051387
0.9059593671
0.9068180827
0.9813289596
0.9999801973
1
1
1
1
1
1
1
1
1
1
1
1
1
1
1
1
1
1
1
0.9843227388
0.9843041618
0.9842659307
0.9842066848
0.9841247439
0.9840180709
0.9838842336
0.9837203632
0.9835231108
0.9832885995
0.9830123716
0.9826893305
0.9823136755
0.9818788289
0.9813773557
0.9808008728
0.9801399513
0.979384008
0.9785211892
0.9775382458
0.9764203988
0.9751511931
0.9737123335
0.9720834901
0.9702420524
0.9681628073
0.9658174964
0.9631742091
0.9601966517
0.9568433615
0.9530671836
0.9488160346
0.9440296356
0.9386485472
0.9326304476
0.9259848528
0.9188427873
0.9115970837
0.9248470551
1
1
1
1
1
1
1
1
1
1
1
1
1
1
1
1
1
1
1
1
1
0.9843243511
0.9843056049
0.9842670795
0.9842074501
0.984125067
0.9840179192
0.9838835984
0.9837192593
0.9835215773
0.9832867024
0.9830102086
0.982687037
0.9823114332
0.9818768778
0.9813760095
0.9808005406
0.9801411665
0.9793874699
0.9785278212
0.9775492788
0.976437491
0.975176602
0.973749165
0.9721360576
0.9703163825
0.9682673774
0.9659642917
0.9633801411
0.9604855802
0.9572489198
0.9536365123
0.9496149
0.9451502766
0.940221059
0.9348406074
0.9291020941
0.9232651987
0.9179249616
0.9319138067
0.9999998401
1
1
1
1
1
1
1
1
1
1
1
1
1
1
1
1
1
1
1
1
0.9843272656
0.9843083872
0.9842696467
0.9842097627
0.9841271232
0.9840197537
0.9838852818
0.9837209004
0.9835233279
0.9832887643
0.9830128435
0.9826905793
0.9823163073
0.9818836195
0.9813852936
0.9808132172
0.9801583079
0.9794104325
0.9785583286
0.9775895329
0.9764903233
0.9752456787
0.9738392721
0.972253505
0.9704695149
0.9684673313
0.9662261589
0.9637242525
0.9609393621
0.9578495668
0.9544346744
0.9506787402
0.9465718608
0.9421260705
0.9374030537
0.9325707403
0.9280216547
0.9246048603
0.9414086732
1
1
1
1
1
1
1
1
1
1
1
1
1
1
1
1
1
1
1
1
1
0.9843316719
0.9843127069
0.9842738488
0.9842138653
0.9841311912
0.9840238982
0.9838896624
0.9837257312
0.9835288853
0.9832953991
0.9830209959
0.9827007993
0.9823292795
0.9819001948
0.9814065293
0.9808404274
0.9801931275
0.9794548997
0.978614992
0.9776615877
0.9765817939
0.9753616478
0.9739861883
0.9724396735
0.9707055215
0.9687667002
0.9666069591
0.9642100532
0.9615607325
0.9586464635
0.9554596418
0.9520002325
0.9482798322
0.9443381289
0.9402751222
0.9363124416
0.9329046267
0.9309088788
0.9482482729
1
1
1
1
1
1
1
1
1
1
1
1
1
1
1
1
1
1
1
1
1
0.9843377362
0.9843187388
0.9842798761
0.984219972
0.9841375158
0.9840306356
0.9838970696
0.9837341349
0.983538695
0.9833071229
0.9830352617
0.9827183812
0.9823511308
0.9819274899
0.9814407142
0.9808832842
0.9802468546
0.9795222128
0.9786992549
0.9777669669
0.976713478
0.9755260922
0.9741913624
0.9726958877
0.9710255774
0.9691657773
0.9671059062
0.9648357992
0.9623469682
0.9596363142
0.9567087797
0.953575052
0.9502665685
0.9468481453
0.9434470488
0.9403093437
0.9379048586
0.937125896
0.9576382744
0.9999999257
1
1
1
1
1
1
1
1
1
1
1
1
1
1
1
1
1
1
1
1
0.9843455966
0.984326628
0.9842878876
0.9842282612
0.9841463004
0.9840402001
0.9839077724
0.983746421
0.9835531111
0.9833243384
0.9830560947
0.9827438313
0.9823824196
0.9819661107
0.9814884937
0.9809424584
0.9803201639
0.9796130142
0.9788116895
0.9779060951
0.9768855733
0.9757389647
0.9744540041
0.9730206931
0.971428254
0.9696663101
0.9677272921
0.965606047
0.9633014639
0.9608189855
0.9581733404
0.9553852248
0.9525024434
0.9496067367
0.9468366839
0.944426958
0.9427728077
0.9426409519
0.9673155386
1
1
1
1
1
1
1
1
1
1
1
1
1
1
1
1
1
1
1
1
1
0.9843553584
0.9843364856
0.9842980051
0.9842388697
0.9841577006
0.9840527685
0.9839219722
0.9837628162
0.9835723863
0.9833473232
0.9830837945
0.9827774651
0.9824234669
0.9820163695
0.9815501489
0.9810181674
0.9804131708
0.979727239
0.9789520149
0.9780783144
0.9770968163
0.9759989269
0.9747749069
0.9734162484
0.9719151565
0.9702653462
0.9684632375
0.9665088221
0.9644073695
0.9621719995
0.9598211374
0.9573875314
0.9549291324
0.9525364574
0.9503502163
0.9485870028
0.9475669339
0.94763308
0.9673850969
1
1
1
1
1
1
1
1
1
1
1
1
1
1
1
1
1
1
1
1
1
0.9843670906
0.9843483849
0.9843103096
0.9842518885
0.9841718189
0.9840684558
0.9839397955
0.9837834576
0.9835966649
0.983376223
0.9831184992
0.9828194009
0.9824743524
0.9820782838
0.9816256004
0.9811101785
0.9805254681
0.9798641058
0.979119194
0.97828311
0.9773480447
0.9763065754
0.9751515318
0.9738767595
0.9724774822
0.9709510453
0.9692979031
0.9675227577
0.9656361165
0.9636561346
0.9616042106
0.9595224608
0.957473472
0.9555493841
0.9538878343
0.9527037392
0.9523611334
0.9528485934
0.9727963336
0.9956042751
1
1
1
1
1
1
1
1
1
1
1
1
1
1
1
1
1
1
1
1
0.9843808231
0.9843623587
0.9843248378
0.9842673593
0.9841887012
0.9840873106
0.983961291
0.983808389
0.9836259794
0.9834110491
0.9831601849
0.9828695624
0.9825349177
0.9821515868
0.9817144382
0.9812177954
0.9806562769
0.9800235883
0.9793135301
0.9785197867
0.9776361737
0.9766569694
0.9755771957
0.9743931348
0.9731028793
0.9717070768
0.9702098744
0.9686200911
0.9669527468
0.9652245237
0.9634663426
0.9617229467
0.9600565949
0.9585524396
0.9573267845
0.95654291
0.9564168741
0.9568860564
0.9744992404
1
1
1
1
1
1
1
1
1
1
1
1
1
1
1
1
1
1
1
1
1
0.984396546
0.9843783975
0.9843415811
0.9842852724
0.9842083351
0.9841093141
0.9839864279
0.9838375607
0.9836602523
0.9834516816
0.9832086682
0.9829276913
0.9826047728
0.9822357378
0.981816142
0.9813410815
0.980805596
0.9802044821
0.9795325634
0.9787847991
0.9779565141
0.9770437038
0.9760434008
0.9749541625
0.97377666
0.9725144085
0.9711746622
0.969769498
0.9683135582
0.9668294451
0.9653511706
0.9639243575
0.9626085161
0.9614787114
0.960625663
0.9601536541
0.9601424834
0.9607086572
0.9692521183
1
1
1
1
1
1
1
1
1
1
1
1
1
1
1
1
1
1
1
1
1
0.9844142081
0.984396449
0.9843604839
0.9843055666
0.9842306497
0.9841343807
0.9840150978
0.9838708309
0.9836993005
0.9834978799
0.9832636044
0.9829933858
0.9826836685
0.9823306938
0.981930491
0.9814788786
0.9809715988
0.9804043727
0.9797730613
0.9790738381
0.9783034282
0.9774594157
0.9765406265
0.9755476074
0.9744832038
0.9733532486
0.9721673787
0.970937823
0.9696822047
0.968426963
0.9672074939
0.9660696205
0.9650705104
0.9642778514
0.9637659362
0.9636101138
0.9639190768
0.9650267266
0.9705642871
0.9995087513
1
1
1
1
1
1
1
1
1
1
1
1
1
1
1
1
1
1
1
1
0.9844337182
0.9844164186
0.9843814448
0.98432813
0.9842555183
0.9841623629
0.9840471202
0.9839079661
0.9837428445
0.9835493635
0.9833248747
0.983066519
0.9827711766
0.9824355433
0.9820561715
0.9816295233
0.981152066
0.9806203766
0.9800312938
0.9793821064
0.9786707955
0.9778963386
0.9770590837
0.9761612074
0.975207256
0.974204761
0.9731634004
0.9720970851
0.9710264095
0.9699790091
0.9689910905
0.9681089493
0.9673897628
0.9668995472
0.9667027609
0.9668331293
0.9673095925
0.9682678406
0.9722098854
0.9983964494
1
1
1
1
1
1
1
1
1
1
1
1
1
1
1
1
1
1
1
1
0.9844549455
0.9844381712
0.9844043198
0.984352804
0.9842827617
0.9841930598
0.9840822994
0.9839488272
0.98379075
0.9836059239
0.9833919844
0.9831463758
0.9828663665
0.9825490979
0.9821916378
0.9817910504
0.9813444906
0.9808493219
0.9803032688
0.9797046075
0.9790524023
0.9783467935
0.9775893454
0.9767834759
0.9759349377
0.9750509998
0.9741425403
0.973225261
0.972320192
0.9714549983
0.9706657034
0.969999022
0.9695153748
0.9692915441
0.9694155784
0.9698781667
0.9703735288
0.97079468
0.973664413
0.999830223
1
1
1
1
1
1
1
1
1
1
1
1
1
1
1
1
1
1
1
1
0.9844777306
0.9844615514
0.9844289586
0.9843794442
0.98431224
0.9842263274
0.9841204459
0.9839931057
0.9838425999
0.9836670168
0.9834642631
0.9832320939
0.9829681457
0.9826699845
0.9823351655
0.9819613102
0.9815462027
0.9810879105
0.980584935
0.9800363957
0.9794422535
0.9788035692
0.9781228026
0.9774042516
0.9766531645
0.9758779567
0.9750903495
0.9743059189
0.9735449395
0.9728335162
0.9722052989
0.9717045319
0.9713924328
0.971362443
0.9716996807
0.9720903555
0.9724934524
0.9728863114
0.9741186741
0.9994012054
1
1
1
1
1
1
1
1
1
1
1
1
1
1
1
1
1
1
1
1
0.9845019338
0.984486414
0.9844552031
0.9844078691
0.9843437365
0.9842618984
0.9841612291
0.9840403985
0.9838978875
0.9837320073
0.983540925
0.983322696
0.9830753038
0.9827967109
0.9824849224
0.9821380645
0.9817544816
0.9813328552
0.9808723461
0.980372768
0.9798347958
0.9792601857
0.9786518928
0.9780138046
0.9773523282
0.9766761258
0.9759966237
0.9753284778
0.9746901032
0.9741043113
0.973599197
0.9732097395
0.972981669
0.9729775678
0.9731378156
0.9733602274
0.9738156286
0.9745225127
0.9751880937
0.9950495244
1
1
1
1
1
1
1
1
1
1
1
1
1
1
1
1
1
1
1
1
0.9845273781
0.9845125748
0.9844828526
0.9844378514
0.9843769844
0.984299453
0.9842042618
0.9840902351
0.9839560358
0.9838001882
0.9836211058
0.9834171272
0.9831865578
0.9829277237
0.9826390356
0.9823190677
0.9819666516
0.9815809897
0.9811617853
0.9807093966
0.9802250504
0.9797106573
0.9791692537
0.9786055331
0.9780259259
0.9774388564
0.9768550286
0.9762876715
0.9757527024
0.9752687013
0.9748564485
0.9745373672
0.9743297556
0.9742340057
0.9741925415
0.974356769
0.9748887768
0.975665393
0.9766044374
0.9850745135
1
1
1
1
1
1
1
1
1
1
1
1
1
1
1
1
1
1
1
1
0.984553856
0.9845398169
0.9845116716
0.984469126
0.9844116771
0.9843386293
0.9842491116
0.9841420959
0.9840164179
0.9838708026
0.9837038939
0.9835142917
0.9833005956
0.9830614586
0.9827956508
0.982502135
0.9821801561
0.9818293501
0.9814498535
0.9810424076
0.9806082562
0.9801497432
0.9796703188
0.9791747415
0.9786692713
0.9781618484
0.9776622398
0.9771821033
0.9767348838
0.976335371
0.9759985374
0.9757369006
0.975555644
0.97543874
0.9754371363
0.9756742554
0.9761428027
0.9767517953
0.9777254257
0.9787305352
1
1
1
1
1
1
1
1
1
1
1
1
1
1
1
1
1
1
1
1
0.9845811368
0.9845678995
0.9845413989
0.9845014003
0.9844474785
0.9843790348
0.9842953152
0.9841954303
0.9840783778
0.9839430688
0.9837883592
0.9836130866
0.9834161148
0.9831963861
0.9829529821
0.9826851972
0.9823926134
0.9820752272
0.9817333687
0.9813679328
0.9809806157
0.9805739584
0.9801514944
0.9797178999
0.9792791306
0.9788425311
0.9784168937
0.9780124222
0.9776405311
0.9773133619
0.9770428534
0.9768391874
0.9767089797
0.9766671688
0.9767560051
0.9770004298
0.9774058397
0.9779285443
0.9785695641
0.9795707767
1
1
1
1
1
1
1
1
1
1
1
1
1
1
1
1
1
1
1
1
0.9846089747
0.9845965658
0.9845717562
0.9845343639
0.9844840347
0.9844202594
0.9843423928
0.984249674
0.9841412502
0.9840162028
0.98387358
0.9837124325
0.9835318574
0.9833310489
0.9831093529
0.982866348
0.9826018556
0.9823159877
0.9820093961
0.9816832594
0.9813394246
0.9809805119
0.9806100241
0.9802324546
0.9798533787
0.9794795152
0.9791187367
0.9787800006
0.9784731613
0.9782086299
0.9779968793
0.9778480289
0.9777728149
0.9777866844
0.977910289
0.9781603111
0.9785424926
0.9790508452
0.9797000991
0.9805475647
1
1
1
1
1
1
1
1
1
1
1
1
1
1
1
1
1
1
1
1
0.9846371159
0.9846255512
0.9846024576
0.9845676989
0.9845209849
0.984461888
0.9843898625
0.9843042652
0.9842043791
0.9840894398
0.9839586668
0.9838113001
0.9836466381
0.9834640944
0.9832632218
0.9830437498
0.9828057105
0.982549484
0.9822758872
0.9819862453
0.9816824859
0.9813672277
0.9810438653
0.9807166461
0.9803907296
0.9800722185
0.9797681472
0.9794864116
0.9792356279
0.9790249238
0.9788637226
0.9787617117
0.9787293315
0.9787788114
0.9789236266
0.9791749836
0.9795392952
0.9800191737
0.9806208523
0.9813474016
1
1
1
1
1
1
1
1
1
1
1
1
1
1
1
1
1
1
1
1
0.9846653064
0.9846545911
0.9846332174
0.984601089
0.9845579719
0.984503512
0.9844372535
0.9843586594
0.9842671351
0.9841620529
0.9840427831
0.9839087334
0.9837593655
0.9835942374
0.9834130725
0.9832158059
0.9830026399
0.9827741079
0.9825311443
0.9822751525
0.982008078
0.9817324781
0.9814515866
0.9811693677
0.9808905533
0.9806206553
0.9803659451
0.9801333911
0.9799305549
0.9797654569
0.9796464549
0.9795822105
0.9795818147
0.9796548921
0.979811003
0.9800581415
0.9804014967
0.9808433207
0.9813831619
0.9820125418
1
1
1
1
1
1
1
1
1
1
1
1
1
1
1
1
1
1
1
1
0.9846932986
0.9846834276
0.9846637584
0.9846342278
0.9845946515
0.9845447402
0.9844841183
0.9844123433
0.9843289297
0.9842333698
0.9841251598
0.9840038263
0.9838689776
0.9837203297
0.9835577536
0.9833813237
0.9831913688
0.982988527
0.9827738037
0.9825486301
0.9823149204
0.9820751269
0.9818322877
0.9815900637
0.9813527605
0.9811253287
0.9809133388
0.9807229256
0.9805607052
0.980433671
0.9803490905
0.9803144234
0.9803372529
0.9804251134
0.980584999
0.9808225188
0.9811410521
0.9815410851
0.982019254
0.982566033
1
1
1
1
1
1
1
1
1
1
1
1
1
1
1
1
1
1
1
1
0.9847208576
0.9847118166
0.9846938183
0.9846668269
0.9846307009
0.9845852081
0.9845300428
0.9844648444
0.9843892159
0.9843027501
0.9842050551
0.9840957801
0.9839746515
0.9838415067
0.9836963333
0.9835393121
0.9833708618
0.9831916863
0.9830028231
0.9828056914
0.9826021378
0.9823944788
0.9821855348
0.9819786548
0.9817777269
0.9815871704
0.9814119074
0.9812573113
0.9811291318
0.9810334016
0.9809763304
0.980964186
0.9810031433
0.9810990429
0.9812569807
0.9814807256
0.9817720739
0.982130198
0.9825509179
0.9830259665
1
1
1
1
1
1
1
1
1
1
1
1
1
1
1
1
1
1
1
1
0.9847477662
0.9847395324
0.9847231556
0.9846986212
0.9846658226
0.9846245764
0.9845746371
0.9845157147
0.9844474938
0.9843696556
0.984281902
0.9841839817
0.9840757201
0.9839570511
0.9838280524
0.9836889823
0.983540319
0.9833828003
0.9832174643
0.9830456884
0.9828692252
0.9826902342
0.9825113064
0.9823354784
0.9821662345
0.9820074935
0.9818635773
0.9817391598
0.9816391963
0.981568833
0.9815332958
0.9815377558
0.9815871527
0.9816859503
0.9818377952
0.9820450831
0.982308481
0.9826264643
0.982994942
0.9834071703
1
1
1
1
1
1
1
1
1
1
1
1
1
1
1
1
1
1
1
1
0.9847738221
0.984766365
0.9847515444
0.9847293629
0.984699744
0.9846625452
0.9846175729
0.9845645983
0.9845033749
0.9844336595
0.9843552331
0.9842679258
0.9841716429
0.9840663942
0.9839523241
0.9838297441
0.9836991666
0.9835613381
0.9834172728
0.9832682838
0.9831160114
0.9829624458
0.9828099437
0.9826612351
0.9825194189
0.9823879454
0.9822705822
0.9821713644
0.9820945248
0.9820444059
0.9820253491
0.9820415582
0.9820969254
0.98219481
0.9823377609
0.9825271941
0.9827630616
0.9830435713
0.9833650484
0.9837220731
1
1
1
1
1
1
1
1
1
1
1
1
1
1
1
1
1
1
1
1
0.9847988547
0.9847921382
0.984778799
0.9847588526
0.9847322469
0.9846988745
0.9846585856
0.9846112033
0.9845565399
0.9844944147
0.9844246747
0.9843472157
0.9842620063
0.9841691135
0.9840687289
0.9839611974
0.9838470447
0.9837270062
0.9836020538
0.9834734206
0.9833426227
0.9832114752
0.983082102
0.9829569371
0.9828387158
0.9827304534
0.9826354103
0.9825570424
0.982498934
0.982464713
0.9824579454
0.9824820061
0.982539922
0.9826341825
0.9827665216
0.9829376848
0.9831472131
0.9833932936
0.9836727462
0.9839812138
1
1
1
1
1
1
1
1
1
1
1
1
1
1
1
1
1
1
1
1
0.9848227235
0.984816707
0.9848047659
0.984786925
0.984763152
0.9847333683
0.9846974614
0.9846552977
0.9846067381
0.9845516543
0.9844899463
0.9844215624
0.9843465196
0.9842649266
0.9841770062
0.9840831195
0.98398379
0.9838797266
0.9837718455
0.9836612897
0.9835494448
0.98343795
0.9833287028
0.983223856
0.9831258055
0.9830371671
0.9829607413
0.9828994653
0.9828563488
0.9828343953
0.9828365049
0.9828653588
0.9829232834
0.9830120959
0.9831329383
0.9832861142
0.9834709547
0.9836857518
0.9839277999
0.9841935777
1
1
1
1
1
1
1
1
1
1
1
1
1
1
1
1
1
1
1
1
0.9848453159
0.9848399557
0.9848293232
0.9848134499
0.9847923189
0.9847658756
0.9847340378
0.9846967081
0.9846537874
0.9846051896
0.9845508573
0.9844907792
0.9844250086
0.9843536824
0.9842770413
0.98419545
0.9841094168
0.9840196132
0.9839268907
0.9838322965
0.9837370839
0.9836427199
0.9835508855
0.98346347
0.9833825564
0.9833103976
0.9832493818
0.9832019864
0.9831707194
0.9831580471
0.9831663077
0.9831976119
0.9832537292
0.9833359663
0.9834450435
0.9835809837
0.9837430344
0.9839296466
0.9841385361
0.9843668382
1
1
1
1
1
1
1
1
1
1
1
1
1
1
1
1
1
1
1
1
0.9848665474
0.9848617974
0.9848523803
0.9848383313
0.9848196461
0.9847962888
0.9847682023
0.9847353184
0.9846975706
0.9846549062
0.9846073013
0.9845547749
0.9844974059
0.984435349
0.984368852
0.9842982726
0.9842240951
0.9841469459
0.9840676067
0.9839870264
0.9839063283
0.9838268136
0.9837499599
0.9836774128
0.9836109702
0.9835525588
0.983504201
0.983467972
0.9834459468
0.9834401357
0.9834524101
0.9834844182
0.9835374933
0.9836125598
0.9837100432
0.9838297969
0.9839710591
0.9841324562
0.9843120662
0.984507543
1
1
1
1
1
1
1
1
1
1
1
1
1
1
1
1
1
1
1
1
0.9848863606
0.9848821736
0.9848738764
0.9848615066
0.9848450687
0.984824542
0.9847998892
0.9847710659
0.984738031
0.9847007585
0.9846592493
0.9846135449
0.9845637408
0.9845100007
0.9844525713
0.9843917959
0.9843281282
0.9842621448
0.9841945553
0.9841262111
0.98405811
0.9839913969
0.9839273606
0.9838674242
0.9838131288
0.9837661111
0.9837280724
0.9837007398
0.9836858188
0.9836849377
0.9836995843
0.9837310366
0.9837802903
0.9838479872
0.9839343509
0.9840391393
0.9841616236
0.9843006027
0.9844544605
0.9846212648
1
1
1
1
1
1
1
1
1
1
1
1
1
1
1
1
1
1
1
1
0.9849047237
0.9849010522
0.9848937795
0.9848829438
0.9848685561
0.9848506074
0.9848290762
0.9848039364
0.9847751671
0.9847427622
0.9847067412
0.9846671608
0.9846241261
0.9845778033
0.9845284313
0.9844763338
0.9844219297
0.9843657436
0.984308413
0.984250695
0.9841934682
0.9841377327
0.9840846042
0.9840353049
0.9839911471
0.9839535123
0.983923823
0.9839035077
0.9838939602
0.9838964915
0.9839122779
0.9839423041
0.9839873071
0.984047722
0.9841236372
0.9842147643
0.9843204291
0.9844395908
0.9845708909
0.9847127302
1
1
1
1
1
1
1
1
1
1
1
1
1
1
1
1
1
1
1
1
0.9849216284
0.9849184254
0.9849120833
0.9849026392
0.984890109
0.9848744924
0.9848557798
0.9848339595
0.9848090257
0.9847809871
0.9847498764
0.9847157594
0.9846787459
0.9846389989
0.9845967452
0.9845522851
0.9845060008
0.9844583641
0.9844099428
0.984361404
0.9843135157
0.9842671447
0.9842232504
0.9841828755
0.9841471306
0.9841171748
0.9840941904
0.9840793525
0.9840737941
0.9840785655
0.9840945917
0.9841226271
0.984163212
0.9842166325
0.9842828891
0.9843616781
0.9844523899
0.9845541282
0.9846657511
0.9847859298
1
1
1
1
1
1
1
1
1
1
1
1
1
1
1
1
1
1
1
1
0.9849370876
0.9849343075
0.9849288044
0.9849206143
0.9849097555
0.9848962343
0.9848800501
0.9848612018
0.9848396949
0.9848155486
0.9847888039
0.984759532
0.9847278422
0.9846938911
0.9846578903
0.9846201144
0.9845809082
0.9845406921
0.9844999672
0.9844593168
0.9844194071
0.9843809841
0.9843448676
0.9843119415
0.9842831401
0.9842594302
0.9842417895
0.9842311797
0.9842285172
0.9842346396
0.9842502708
0.9842759857
0.9843121764
0.9843590226
0.9844164703
0.9844842198
0.9845617287
0.9846482291
0.9847427607
0.9848442166
1
1
1
1
1
1
1
1
1
1
1
1
1
1
1
1
1
1
1
1
0.9849511325
0.9849487313
0.9849439798
0.9849369117
0.9849275469
0.9849158962
0.9849019654
0.9848857612
0.984867297
0.984846599
0.9848237132
0.9847987122
0.9847717024
0.9847428306
0.9847122915
0.9846803335
0.9846472642
0.9846134551
0.9845793444
0.9845454387
0.9845123117
0.9844806013
0.9844510035
0.9844242631
0.9844011618
0.9843825019
0.9843690875
0.9843617021
0.9843610836
0.9843678972
0.9843827071
0.9844059489
0.9844379038
0.9844786769
0.9845281823
0.9845861366
0.9846520625
0.9847253047
0.984805056
0.9848903926
1
1
1
1
1
1
1
1
1
1
1
1
1
1
1
1
1
1
1
1
0.9849638094
0.9849617456
0.9849576628
0.984951592
0.984943554
0.9849335622
0.984921627
0.9849077605
0.9848919812
0.9848743197
0.9848548242
0.9848335661
0.9848106463
0.9847862009
0.9847604062
0.9847334845
0.9847057079
0.9846774018
0.9846489466
0.984620779
0.9845933899
0.9845673213
0.9845431605
0.9845215319
0.9845030857
0.9844884844
0.9844783864
0.9844734272
0.9844741986
0.9844812267
0.9844949495
0.9845156954
0.9845436632
0.9845789064
0.9846213231
0.9846706524
0.9847264784
0.9847882437
0.9848552702
0.9849267864
1
1
1
1
1
1
1
1
1
1
1
1
1
1
1
1
1
1
1
1
0.9849751774
0.9849734119
0.9849699199
0.9849647301
0.9849578626
0.9849493327
0.9849391537
0.9849273411
0.9849139166
0.984898913
0.9848823783
0.9848643814
0.9848450159
0.984824406
0.98480271
0.9847801248
0.9847568888
0.9847332849
0.9847096411
0.9846863313
0.9846637728
0.9846424234
0.9846227762
0.9846053515
0.9845906876
0.9845793291
0.9845718126
0.9845686514
0.9845703184
0.9845772284
0.9845897201
0.9846080394
0.9846323246
0.9846625946
0.9846987418
0.9847405308
0.9847876019
0.9848394827
0.9848956041
0.9849553216
1
1
1
1
1
1
1
1
1
1
1
1
1
1
1
1
1
1
1
1
0.9849853048
0.9849838012
0.9849808281
0.9849764111
0.9849705698
0.9849633201
0.9849546769
0.9849446577
0.9849332859
0.9849205946
0.9849066307
0.9848914585
0.9848751642
0.9848578595
0.9848396849
0.9848208133
0.9848014523
0.9847818458
0.9847622749
0.9847430574
0.9847245463
0.9847071261
0.9846912083
0.9846772245
0.9846656185
0.9846568356
0.9846513116
0.9846494596
0.9846516561
0.984658227
0.9846694332
0.9846854579
0.9847063951
0.9847322412
0.9847628898
0.9847981317
0.9848376579
0.9848810691
0.9849278886
0.9849775781
1
1
1
1
1
1
1
1
1
1
1
1
1
1
1
1
1
1
1
1
0.9849942664
0.9849929915
0.9849904708
0.9849867275
0.98498178
0.9849756441
0.9849683355
0.9849598726
0.9849502791
0.9849395875
0.9849278422
0.9849151026
0.9849014466
0.9848869738
0.9848718079
0.9848560995
0.9848400279
0.9848238021
0.9848076614
0.9847918746
0.9847767384
0.9847625742
0.9847497236
0.9847385432
0.984729397
0.9847226478
0.9847186482
0.9847177293
0.9847201902
0.984726286
0.9847362171
0.984750119
0.9847680536
0.9847900035
0.9848158678
0.9848454626
0.9848785242
0.9849147161
0.9849536394
0.9849948451
1
1
1
1
1
1
1
1
1
1
1
1
1
1
1
1
1
1
1
1
0.9850021413
0.9850010645
0.9849989359
0.9849957759
0.9849916016
0.9849864284
0.9849802721
0.984973151
0.9849650885
0.9849561155
0.9849462731
0.9849356157
0.9849242129
0.9849121525
0.9848995426
0.9848865135
0.9848732191
0.9848598373
0.9848465707
0.9848336455
0.9848213098
0.9848098308
0.9847994912
0.9847905839
0.9847834065
0.9847782535
0.9847754092
0.9847751383
0.9847776774
0.9847832258
0.9847919368
0.98480391
0.9848191846
0.984837735
0.9848594683
0.9848842245
0.9849117797
0.9849418511
0.9849741055
0.9850081688
1
1
1
1
1
1
1
1
1
1
1
1
1
1
1
1
1
1
1
1
0.98500901
0.9850081036
0.9850063122
0.9850036538
0.9850001439
0.9849957973
0.9849906291
0.9849846572
0.9849779039
0.9849703982
0.9849621777
0.9849532913
0.9849438007
0.9849337829
0.9849233316
0.9849125588
0.9849015956
0.984890593
0.9848797216
0.9848691708
0.9848591471
0.9848498717
0.9848415776
0.9848345047
0.9848288951
0.9848249874
0.9848230099
0.9848231737
0.9848256656
0.9848306409
0.9848382165
0.9848484648
0.9848614093
0.9848770203
0.984895214
0.9849158525
0.9849387462
0.9849636582
0.9849903106
0.9850183922
1
1
1
1
1
1
1
1
1
1
1
1
1
1
1
1
1
1
1
1
0.9850149524
0.9850141916
0.9850126881
0.9850104577
0.9850075145
0.9850038721
0.9849995452
0.9849945504
0.9849889089
0.9849826471
0.9849757993
0.984968409
0.9849605304
0.9849522307
0.9849435905
0.9849347056
0.9849256874
0.9849166634
0.9849077764
0.9848991844
0.9848910589
0.9848835824
0.984876946
0.9848713457
0.984866978
0.9848640356
0.9848627014
0.9848631435
0.984865509
0.9848699187
0.9848764613
0.9848851893
0.9848961149
0.9849092075
0.9849243925
0.9849415517
0.9849605253
0.9849811151
0.9850030899
0.9850261905
1
1
1
1
1
1
1
1
1
1
1
1
1
1
1
1
1
1
1
1
0.985020046
0.9850194084
0.9850181486
0.9850162805
0.9850138166
0.9850107695
0.9850071528
0.9850029822
0.9849982771
0.9849930617
0.9849873666
0.9849812304
0.9849747006
0.9849678352
0.9849607036
0.9849533872
0.9849459805
0.9849385905
0.9849313367
0.9849243506
0.9849177738
0.9849117569
0.9849064561
0.9849020313
0.9848986417
0.9848964425
0.9848955802
0.9848961884
0.9848983828
0.9849022571
0.9849078787
0.9849152852
0.9849244812
0.9849354367
0.9849480862
0.9849623289
0.9849780303
0.984995025