/*--------------------------------*- C++ -*----------------------------------*\
  =========                 |
  \\      /  F ield         | OpenFOAM: The Open Source CFD Toolbox
   \\    /   O peration     | Website:  https://openfoam.org
    \\  /    A nd           | Version:  10
     \\/     M anipulation  |
\*---------------------------------------------------------------------------*/
FoamFile
{
    format      ascii;
    class       volScalarField;
    location    "0.0002";
    object      T;
}
// * * * * * * * * * * * * * * * * * * * * * * * * * * * * * * * * * * * * * //

dimensions      [0 0 0 1 0 0 0];

internalField   nonuniform List<scalar> 
3600
(
314.4048447
314.7438133
315.4468205
316.5432558
318.0676478
320.0604657
322.5689057
325.6476736
329.3597692
333.7772861
338.982237
345.0674186
352.1373344
360.3091981
369.7140513
380.4980404
392.8239213
406.8728892
422.8468691
440.9714649
461.4998366
484.7178732
510.9511523
540.5743163
574.0236472
611.8137564
654.5593747
703.0031591
758.0501095
820.8085253
892.6363961
975.1909112
1070.47768
1180.891252
1309.227602
1458.673076
1632.641903
1834.201962
2064.585531
2320.367272
2590.435863
2595.217595
2594.311014
2575.972505
2344.448734
2134.291081
1937.099446
1757.946829
1575.266933
1413.188671
1269.353089
1141.819734
1028.911619
929.1511357
841.2224666
763.942637
696.2385567
637.1298827
585.7169664
541.1726351
314.4148035
314.7546532
315.4593792
316.5583629
318.0861599
320.083303
322.5970919
325.6823804
329.4023685
333.829412
339.0458607
345.1449401
352.2316953
360.4240202
369.8538062
380.6682564
393.031434
407.1261413
423.1562686
441.3498104
461.9628218
485.2846917
511.6452325
541.4242396
575.0643252
613.0879769
656.1198424
704.9151113
760.3943867
823.6844094
896.1622856
979.4986313
1075.693156
1187.085673
1316.327791
1466.350226
1640.234585
1840.820494
2069.517662
2323.248298
2587.846608
2590.485935
2584.929713
2539.669441
2317.744844
2115.969757
1921.960362
1740.173606
1561.412616
1402.046386
1260.23459
1134.292373
1022.672019
923.9697916
836.9179264
760.3678399
693.2725806
634.6724165
583.6843336
539.4947897
314.4339474
314.7755234
315.4836132
316.5875772
318.1220187
320.127589
322.6517835
325.7497374
329.4850323
333.9305237
339.1692043
345.2951173
352.4143396
360.64606
370.1237862
380.996728
393.4314263
407.6137235
423.7512175
442.0763964
462.8507355
486.3701425
512.9722752
543.0464186
577.0467868
615.5102669
659.0796708
708.5333557
764.8213471
829.1064858
902.8061952
987.6260702
1085.57152
1198.896605
1330.015744
1481.387504
1655.397455
1854.301918
2080.094157
2333.492831
2608.635824
2612.041431
2599.495031
2473.907584
2265.227736
2077.765341
1892.542648
1706.314382
1534.717181
1380.344085
1242.370261
1119.502319
1010.392826
913.7628563
828.4317794
753.3158611
687.41836
629.8194714
579.6685373
536.1785925
314.4607498
314.8048301
315.5177877
316.6289416
318.1729515
320.1906266
322.7297291
325.8457824
329.6028958
334.074618
339.3448331
345.5087178
352.6737785
360.9609951
370.5061071
381.4610893
393.9958863
408.3005017
424.5875828
443.0957006
464.0936091
487.8858851
514.8204979
545.2990472
579.7906132
618.8503587
663.144091
713.4797595
770.8459477
836.4552517
911.7862019
998.6102709
1098.979717
1215.099067
1349.177437
1503.148101
1678.437595
1876.132375
2098.35117
2353.034203
2673.207438
2675.721079
2728.632244
2414.630763
2193.565866
2016.366455
1843.01836
1661.349917
1497.05105
1349.086527
1216.433193
1097.947689
992.4582292
898.8320172
816.0029331
742.9767052
678.8273594
622.691949
573.7661555
531.3012178
314.4929832
314.8402475
315.5593738
316.6796062
318.2356536
320.2685005
322.8262183
325.9647876
329.7489437
334.2530593
339.5620801
345.7725316
352.9936192
361.3484484
370.9754007
382.0297139
394.6853325
409.1371228
425.6035902
444.3302935
465.594243
489.7096873
517.0358636
547.9874977
583.0490916
622.7942907
667.9117662
719.2388787
777.8034502
844.87156
921.9943257
1011.038128
1114.146985
1233.596783
1371.573105
1529.703237
1708.51196
1907.078666
2123.349499
2353.200424
2556.671671
2568.931218
2596.254506
2306.732226
2103.123614
1938.589855
1775.01533
1604.178866
1449.298355
1309.299552
1183.286544
1070.315623
969.4111215
879.6072373
799.9731259
729.622755
667.7171007
613.4637736
566.1163502
524.974045
314.527787
314.8787903
315.6051257
316.735916
318.3058916
320.3562027
322.9352371
326.0994558
329.9142592
334.4549001
339.8074597
346.0699064
353.3532609
361.7828943
371.4999962
382.6632569
395.4508291
410.0626551
426.72329
445.6854047
467.2342457
491.6934501
519.4327979
550.8787157
586.5286476
626.970728
672.9104498
725.2059838
784.9130321
853.3377986
932.0917473
1023.133279
1128.708556
1251.2921
1393.267691
1556.355993
1740.734701
1943.982763
2161.405734
2406.60322
2416.95157
2448.135345
2397.787436
2180.284391
2010.180724
1861.447341
1693.447389
1536.794485
1393.087839
1262.317885
1143.998832
1037.453771
941.9236852
856.6229481
780.7685245
713.5946663
654.3603559
602.3536005
556.8944988
517.337761
314.5617565
314.9169044
315.6511805
316.7935229
318.3786339
320.4477899
323.0496623
326.2411638
330.0883335
334.667276
340.0651754
346.3814025
353.7287395
362.2347511
372.0433335
383.3164863
396.2363624
411.0076754
427.8605762
447.054167
468.8809013
493.6722467
521.8061646
553.7172151
589.9104208
630.9804025
677.6376549
730.7439407
791.3581895
860.7921435
940.6698862
1032.975244
1140.040942
1264.519668
1409.082032
1575.81122
1765.038908
1963.660081
2150.803312
2270.026624
2318.454113
2391.727927
2227.128412
2069.236052
1911.4788
1759.554835
1605.778224
1462.549551
1330.515724
1209.689776
1099.777717
1000.31892
910.7581537
830.4883475
758.8772176
695.2842375
639.0720485
589.6147653
546.30446
508.5563947
314.5910465
314.9505753
315.6931744
316.8475175
318.4482056
320.5365693
323.1614892
326.3802475
330.259425
334.875862
340.3177017
346.6855366
354.0936825
362.6716062
372.5655382
383.9403069
396.9814432
411.8976164
428.9234959
448.3231724
470.3943509
495.4736381
523.9434221
556.2410835
592.8716095
634.4250776
681.6008752
735.2407053
796.3719431
866.2608389
946.4699987
1038.900574
1145.868613
1270.066132
1414.377591
1581.445542
1772.023281
1970.600738
2123.4935
2135.453445
2181.914659
2204.371432
2077.07739
1950.151636
1812.425198
1654.674895
1513.584365
1383.560333
1263.445281
1152.950465
1051.867849
959.9150108
876.7232283
801.8550688
734.8247613
675.115744
622.1949266
575.5242401
534.5700324
498.8106952
314.6114892
314.9754508
315.7263758
316.8925783
318.5084612
320.6153061
323.2620864
326.5063167
330.4149542
335.0653713
340.5464166
346.959587
354.4203326
363.0595207
373.025083
384.4838779
397.6238024
412.6561972
429.8186098
449.3780118
471.6346252
496.9266092
525.6360048
558.1965544
595.1043117
636.9323164
684.3509851
738.1560149
799.305055
868.9622181
948.5435031
1039.758579
1144.722692
1265.92257
1406.188357
1568.875345
1759.640474
1990.532071
2014.669856
2021.014496
2066.51361
2019.235774
1921.187749
1804.500262
1670.964069
1540.358967
1417.062306
1301.42362
1193.555992
1093.568594
1001.491439
917.2430148
840.634245
771.3861224
709.1501117
653.5272991
604.0851007
560.3713842
521.9261849
488.2912814
314.6187219
314.986973
315.7458288
316.9231332
318.552973
320.676448
323.3424682
326.6085924
330.541924
335.2200816
340.7322636
347.1804267
354.6806007
363.3643587
373.3804666
384.8967297
398.1020586
413.2087761
430.4551963
450.1085257
472.468177
497.8696519
526.689266
559.3501649
596.3303164
638.1734333
685.5041059
739.0484463
799.6607454
868.3546143
946.3308079
1035.001146
1136.084071
1251.507088
1383.237848
1532.908453
1700.893934
1882.033421
1887.611362
1911.004622
1894.341236
1837.112055
1750.281072
1645.689025
1536.084182
1426.412019
1320.001334
1218.447817
1122.602441
1032.965103
949.8148522
873.2618542
803.2790213
739.7281655
682.3836254
630.9535223
585.0984059
544.4472054
508.6105903
477.1919618
314.6083209
314.9805182
315.7465036
316.9335287
318.5752278
320.7123591
323.393578
326.6762542
330.6273486
335.3243685
340.8564167
347.3253559
354.8471055
363.5530881
373.5918398
385.1307949
398.3582481
413.4854935
430.7491357
450.4135754
472.7736855
498.1577375
526.9307038
559.4982002
596.3115119
637.8741863
684.7511109
737.5809835
797.0912899
864.1140818
939.595522
1024.583357
1120.288914
1227.902298
1348.267892
1481.195697
1624.080172
1769.094419
1769.605446
1794.871801
1732.034425
1666.618689
1588.955165
1501.677797
1409.849789
1316.895394
1225.300985
1136.705048
1052.178405
972.4258953
897.8977653
828.8510323
765.3884277
707.487981
655.0282245
607.8104618
565.5783368
528.0347084
494.8559077
465.7035668
314.5759381
314.9515389
315.723451
316.9182036
318.5688267
320.7155566
323.4065736
326.6987869
330.6586794
335.3632296
340.9009278
347.372901
354.8941636
363.5950046
373.6225183
385.1422756
398.3401245
413.424092
430.6263502
450.2052003
472.4470178
497.6681265
526.216557
558.4737857
594.8568183
635.8201677
681.8584914
733.5117833
791.3685864
856.0659014
928.2806705
1008.686148
1097.964971
1196.547119
1304.155352
1418.91033
1535.615306
1642.430586
1642.660099
1623.20039
1575.355875
1513.825591
1445.173174
1370.717176
1292.804437
1213.54851
1134.721222
1057.709497
983.5564415
913.024545
846.6495802
784.7810999
727.6138659
675.2143758
627.5445887
584.4834387
545.8460841
511.4007509
480.883147
454.0085587
314.5174361
314.8957043
315.6719545
316.8718589
318.5276826
320.6789433
323.3731049
326.6663165
330.6242114
335.32278
340.8493309
347.303553
354.7986897
363.4628317
373.4403246
384.8932778
398.0031446
412.9723217
430.0256985
449.412074
471.4052971
496.3050622
524.4370593
556.1523361
591.8272114
631.860411
676.6676285
726.6835248
782.3544656
844.1221487
912.3955958
987.5025703
1069.640393
1158.564999
1253.025232
1349.629935
1440.507103
1508.763197
1508.787572
1474.452792
1430.059483
1374.974723
1315.040056
1251.237317
1184.805655
1117.051295
1049.230517
982.4591383
917.6687779
855.5995248
796.8106542
741.6980521
690.513794
643.3863796
600.3408629
561.3181687
526.1929641
494.7896566
466.8963266
442.2765963
314.4290175
314.8090352
315.5876767
316.7896228
318.4462086
320.596029
323.2855762
326.5699225
330.5134591
335.190703
340.6871837
347.1004178
354.5409783
363.133657
373.0187092
384.3531524
397.31207
412.0898493
428.9012401
447.9821789
469.5900219
494.0033601
521.5206452
552.4559424
587.1398095
625.9121491
669.0993172
717.0240946
769.9922429
828.2564235
891.9710739
961.1724958
1035.601253
1114.464502
1195.742102
1274.955119
1342.957621
1382.587364
1382.539471
1342.260528
1297.254855
1248.447901
1196.66662
1142.1542
1085.523978
1027.607443
969.3231231
911.5701255
855.1581315
800.7713509
748.9559101
700.1211842
654.5490555
612.4075795
573.7668056
538.6151625
506.8752969
478.4186653
453.0785163
430.6611459
314.3073449
314.6880293
315.4667949
316.6672021
318.3194931
320.4611333
323.1373845
326.4019193
330.3174869
334.9566398
340.4025261
346.7497552
354.1053343
362.5896691
372.3376094
383.4994926
396.2421227
410.7496018
427.2237783
445.8846181
466.9691592
490.7306628
517.4373418
547.3571332
580.7698668
617.9657567
659.1668992
704.566572
754.3374166
808.5452424
867.0983069
929.7916104
995.9956015
1064.413163
1132.481227
1195.238451
1243.258039
1258.805617
1258.659098
1221.60057
1174.575123
1132.986213
1088.996082
1042.750555
994.6244566
945.2095468
895.2195183
845.3964763
796.442204
748.9756451
703.5109797
660.4501432
620.0849846
582.6055405
548.1118111
516.6271026
488.111579
462.4751562
439.5892484
419.2971484
314.1496474
314.5297727
315.3061226
316.5010184
318.1434536
320.2695637
322.9231254
326.1560936
330.0291842
334.6125056
339.9862418
346.2413885
353.4805347
361.8186711
371.3840146
382.3187525
394.7796418
408.9385019
424.9815722
443.1104726
463.5382985
486.4873428
512.2015049
540.8843209
572.7470725
607.9975648
646.7889884
689.2227752
735.3224168
784.9822701
837.9142968
893.7075604
951.4122305
1009.396455
1064.877353
1113.126401
1146.18783
1149.483387
1149.414936
1104.316264
1063.77567
1028.639185
991.5789521
952.560211
911.8005245
869.7457852
826.9744618
784.111871
741.7680806
700.497068
660.7725866
622.9767319
587.3978518
554.2349254
523.6059902
495.5587052
470.0816541
447.1154653
426.5631949
408.2996865
313.953811
314.3320347
315.1032126
316.2883231
317.914968
320.0177641
322.638761
325.8278942
329.6434756
334.1527211
339.432309
345.568971
352.6601047
360.8143519
370.1522192
380.8064783
392.9221774
406.657651
422.1800057
439.672352
459.3223982
481.3004025
505.8010612
532.9950879
563.0374822
596.0539488
632.1164245
671.2250588
713.2753763
758.0069074
805.0579129
853.7735889
903.0034879
950.9434168
994.7744474
1030.136906
1050.587717
1050.347824
1050.6608
1001.430269
964.5954524
935.0058238
903.9326261
871.1399235
836.7242127
801.027605
764.528494
727.7595895
691.2520573
655.4983325
620.9286678
587.8984145
556.6836648
527.4830252
500.4234634
475.5685098
452.927513
432.4650526
414.1099486
397.7635469
313.7184501
314.0933426
314.8564392
316.0272891
317.6319764
319.7034277
322.2817441
325.414564
329.1574591
333.5743525
338.7379363
344.7301024
351.6424107
359.5763104
368.6437362
378.9672473
390.6777823
403.922479
418.8399164
435.5818959
454.3049334
475.1571667
498.2819429
523.8024375
551.8140622
582.3700185
615.4614667
650.9947407
688.760549
728.397319
769.4787081
811.1663883
852.2151314
890.7882749
924.1316301
947.924055
954.8352241
948.0650092
947.4916679
908.5974256
876.5108211
851.4697609
825.4763147
797.9991705
769.0198363
738.7985186
707.7343626
676.2834916
644.9082249
614.0437829
584.0766399
555.3319139
528.0679978
502.4766883
478.6871228
456.7720566
436.7553343
418.6197431
402.3147127
387.7635397
313.4429577
313.8130363
314.5650579
315.7170765
317.2935522
319.3255718
321.8510931
324.9152127
328.5704668
332.8771558
337.9035856
343.7262875
350.4305925
358.1098521
366.8666911
376.8149565
388.0620851
400.7340628
414.9550646
430.8513429
448.5466773
468.1554842
489.7773729
513.4868019
539.3220463
567.2703837
597.2491862
629.0824865
662.4705898
697.0791079
732.2923185
767.2178962
800.6149373
830.7847958
855.4007517
871.1832607
873.8234747
866.3241197
864.9475104
828.2627509
797.807854
777.0286055
755.4943828
732.5853642
708.2613879
682.7436444
656.3751821
629.549916
602.6702478
576.118848
550.2396527
525.3262021
501.6160503
479.2899205
458.4742587
439.2459743
421.6384006
405.6477662
391.2396949
378.3554241
313.1275342
313.4913002
314.2292421
315.3578717
316.8999389
318.884568
321.347416
324.3308288
327.8840445
332.0635175
336.9329144
342.5626849
349.0324278
356.4258272
364.8317294
374.3483653
385.074986
397.1157502
410.5743107
425.5515522
442.1410762
460.42306
480.4569687
502.2718086
525.8543778
551.1346664
577.9679538
606.1131204
635.2753278
665.0052069
694.62303
723.2177219
749.6018176
772.2780647
789.4364749
799.0043792
799.4303669
788.6869018
787.7426952
748.5366954
726.8566636
710.7714767
693.3016575
674.3395515
653.9950357
632.5056868
610.1812599
587.3657886
564.4093811
541.6466683
519.3810805
497.87461
477.3424562
457.9516448
439.8225825
423.0325833
407.6205676
393.592338
380.9260066
369.5772891
312.7731961
313.1291773
313.8500981
314.9508983
316.4525494
318.3821219
320.7728761
323.6642468
327.1018455
331.1382396
335.8328221
341.2473491
347.4530063
354.5250632
362.5429998
371.5905469
381.7529493
393.1158917
405.762273
419.7687304
435.2008786
452.1071591
470.5111906
490.4022063
511.7235206
534.358758
558.1154698
582.747281
607.9036194
633.0558768
657.4962205
680.3088705
700.3525464
716.2777498
726.6054092
729.8405322
723.8229516
701.8289639
701.1011756
677.7123146
664.7080571
652.5074303
638.4041054
622.7432598
605.7589843
587.6999014
568.8452864
549.494405
529.9500355
510.5026079
491.4174398
472.9259167
455.2205415
438.453261
422.7362935
408.1446942
394.7200156
382.4745641
371.3958885
361.4512461
312.3817701
312.7285642
313.4296547
314.4983944
315.9539217
317.8211858
320.1310784
322.9201341
326.229477
330.1069857
334.6056819
339.7827901
345.7007615
352.4257611
360.0268172
368.57478
378.1404035
388.7922513
400.5936671
413.5989915
427.8487174
443.3634174
460.1362523
478.1238122
497.2353581
517.3204391
538.1840804
559.5494477
581.0045815
601.9965194
621.800827
639.4919098
653.9284611
663.7962063
667.8154919
665.3044047
655.8057807
636.6719101
635.8526456
624.4113284
612.1170231
601.9308049
590.2681642
577.2591405
563.0745488
547.9209379
532.0343695
515.6689827
499.0832833
482.5269203
466.2297945
450.3943146
435.1908229
420.7557555
407.1919313
394.5703627
382.9330691
372.2964783
362.6551095
353.9853085
311.9558757
312.2921595
312.9707944
314.0035348
315.4076393
317.205782
319.4259637
322.1012779
325.2696081
328.9738643
333.2613788
338.1833114
343.7943436
350.1517188
357.3141516
365.3404432
374.2875888
384.2084175
395.1485424
407.1425455
420.2092449
434.3459368
449.521408
465.6673058
482.6687536
500.3792908
518.5823197
536.9636519
555.1023011
572.4442891
588.2683169
601.6398031
611.3526596
615.8817182
613.4992015
604.4080191
594.5294472
585.9605546
585.7481892
577.5628677
566.5939478
557.9063308
548.133436
537.2847896
525.4411739
512.7504176
499.401322
485.6047199
471.5785981
457.5356884
443.6736637
430.1681765
417.1686165
404.7961926
393.1438345
382.2774221
372.2379196
363.0440735
354.6954126
347.1753527
311.4987056
311.8230838
312.4765288
313.4692109
314.8165018
316.5387895
318.6612964
321.2138423
324.2305817
327.7497801
331.8133344
336.4661824
341.7556415
347.730451
354.4395658
361.9306327
370.24805
379.4305492
389.5081887
400.4986624
412.4028365
425.1995714
438.8397066
453.2370313
468.2861386
483.8193069
499.6019188
515.3220916
530.5736631
544.8334273
557.4267525
567.4667288
573.7274022
574.3415671
567.6830194
560.3142406
552.4616956
544.7883775
545.3940498
540.6418567
527.3723925
519.5084468
511.2568282
502.2223221
492.3641258
481.7733261
470.5973841
459.0099245
447.1939805
435.3300924
423.5874344
412.1175891
401.0506824
390.4934901
380.5290925
371.2176763
362.5981386
354.6902152
347.4969128
341.0070759
311.0130584
311.3242368
311.9500215
312.8990514
314.184847
315.8255544
317.8436963
320.2658936
323.1225442
326.4474468
330.277286
334.6509854
339.6089135
345.191866
351.4397953
358.3902354
366.076359
374.5246053
383.7518165
393.7617761
404.5410392
416.0545301
428.2427319
441.0280956
454.2824632
467.8324851
481.4493676
494.8395136
507.6337995
519.374648
529.4979582
537.3004607
541.8607191
541.97409
539.385579
535.3215682
526.2424513
512.9591932
504.9767871
501.786165
492.0466989
485.7139349
478.9553043
471.5251891
463.3821593
454.5947215
445.2838925
435.5954139
425.6842256
415.7039513
405.7992831
396.1006579
386.7208922
377.7534395
369.271931
361.3306834
353.9659038
347.1973653
341.0303747
335.4578859
310.5024766
310.7993112
311.3952893
312.2976099
313.5180137
315.0724783
316.9809187
319.2668589
321.9570538
325.0810364
328.6705517
332.7588588
337.3798734
342.5671113
348.3523957
354.7642885
361.826202
369.5541322
377.9540544
387.0188114
396.7239142
407.0308097
417.8790653
429.1747251
440.7890392
452.5533324
464.2532102
475.6235879
486.3453424
496.0456748
504.3071339
510.6983465
514.8580294
516.9258136
517.921043
514.5474644
503.8579352
489.3239902
471.922128
469.8144385
460.9237412
456.0522884
450.7171151
444.7301533
438.0834998
430.8500177
423.1399946
415.0810955
406.8069939
398.4494873
390.1326482
381.9686319
374.0549476
366.4729785
359.2875185
352.5470982
346.2848972
340.5200674
335.259323
330.4986777
309.9711166
310.2526481
310.8170484
311.6701937
312.8221447
314.2868129
316.0816232
318.2271446
320.7466687
323.66571
327.0114017
330.8117647
335.0948243
339.8875442
345.2145515
351.0966146
357.5488672
364.5786146
372.1831715
380.3475773
389.0468873
398.2343807
407.8409983
417.7714733
427.900449
438.0689034
448.0811809
457.7036807
466.6668928
474.674234
481.4253483
486.6704166
490.3236453
492.7034652
492.7151471
487.9554493
478.5496243
466.3759095
447.6097611
437.6333313
433.2469136
430.109781
426.1541221
421.4579998
416.108805
410.2076081
403.8655782
397.1994065
390.3266688
383.3614199
376.4103791
369.5699603
362.9242324
356.5437609
350.4852112
344.791573
339.4928621
334.6071714
330.1419572
326.0954645
309.4235991
309.6890739
310.2205354
311.0226671
312.1039714
313.4764204
315.1550938
317.1577818
319.5045349
322.2171359
325.3184755
328.8318086
332.7798713
337.1838318
342.0620699
347.4287123
353.2921268
359.6523918
366.5027893
373.8255458
381.5866653
389.7353208
398.2007801
406.8894139
415.6819527
424.4312864
432.9612826
441.0674986
448.5212103
455.0791185
460.5022564
464.5881006
467.2061424
468.0506456
466.2699695
461.3646133
453.2305893
442.7536507
429.9166424
409.893292
409.6318745
407.8478334
405.0183931
401.3986149
397.1401904
392.3636023
387.1798029
381.6960838
376.0163965
370.2396938
364.457792
358.7534435
353.1989078
347.8550989
342.7712809
337.9852369
333.5238192
329.4037885
325.6328552
322.210847
308.8648544
309.1137356
309.6113249
310.361249
311.3705876
312.6495193
314.210946
316.0700817
318.243986
320.7510261
323.6102458
326.8406269
330.4602347
334.4851875
338.9285672
343.7988172
349.0994523
354.8282132
360.9721145
367.5075659
374.3975809
381.5897132
389.0138291
396.5799521
404.1764216
411.6686607
418.8989623
425.6878827
431.8380038
437.1407949
441.3865965
444.3729676
445.8847845
445.6101384
443.1327648
438.1193537
430.4576185
420.271787
407.2703146
390.2870403
390.2663626
389.1065214
387.0400991
384.2510984
380.8771574
377.0319055
372.8174375
368.3295473
363.6590552
358.8912941
354.1049204
349.3706725
344.750383
340.296363
336.0511786
332.0477849
328.309961
324.852982
321.6844625
318.8053104
308.2999688
308.5319382
308.9951516
309.6923144
310.6292271
311.8144328
313.2588402
314.9753063
316.9781686
319.2827112
321.9045394
324.858852
328.1596749
331.8187379
335.844949
340.2436967
345.0143717
350.1493398
355.6322532
361.4365792
367.5237221
373.8412508
380.3211906
386.8784834
393.4097919
399.7928772
405.8868299
411.5334768
416.5602207
420.7842295
424.0167633
426.0637532
426.7156264
425.7263309
422.8249722
417.7872446
410.48601
400.8705802
388.8160772
374.256438
374.2392419
373.4100872
371.8580665
369.6946908
367.0233608
363.9381702
360.5264373
356.8704572
353.0479467
349.1315987
345.1882389
341.2779372
337.4532832
333.7589243
330.231394
326.8992153
323.7832436
320.8972037
318.2483709
315.8383479
307.7340371
307.9489905
308.3777417
309.022207
309.8870526
310.9793519
312.3082132
313.8843668
315.7197023
317.8267615
320.2181296
322.9056511
325.9000663
329.2101937
332.8415758
336.7954865
341.0678654
345.648023
350.5172462
355.6474285
360.9996141
366.5225918
372.1516023
377.8072525
383.3947671
388.8037373
393.9085406
398.5695807
402.6353828
405.9452772
408.3318148
409.6213785
409.6315468
408.1689967
405.0417468
400.0896604
393.2092515
384.3558882
373.538408
360.9256868
360.9108958
360.2884616
359.0980263
357.4075403
355.2905674
352.820371
350.068106
347.1021723
343.9876436
340.7855442
337.5520493
334.3377404
331.1870158
328.137713
325.2209609
322.4612511
319.8767039
317.4794935
315.2763953
313.2694161
307.1720256
307.3700615
307.7646582
308.3570682
309.1509656
310.152121
311.3680399
312.8075611
314.4803877
316.3966552
318.5664308
320.9991619
323.7026804
326.6826452
329.9416182
333.4780929
337.2854709
341.3509618
345.6544224
350.1671916
354.8509294
359.6565235
364.5231289
369.377422
374.1331644
378.6911888
382.9399083
386.7564205
390.0081848
392.5550876
394.2514996
394.9478801
394.4921211
392.7329975
389.5301356
384.7710871
378.3882393
370.3719582
360.7895779
349.8318822
349.8191013
349.3400263
348.4145964
347.0861932
345.4068844
343.4322901
341.218782
338.8218567
336.2949883
333.6886758
331.049613
328.4199964
325.8370015
323.3324473
320.9326534
318.6584794
316.525524
314.5444579
312.7214602
311.0587262
306.6186501
306.8000535
307.1611646
307.7026892
308.4274415
309.3400533
310.4466251
311.7543594
313.2711806
315.005224
316.9643102
319.1554404
321.5840684
324.2534294
327.1637469
330.3113831
333.6879358
337.279295
341.0646725
345.0156404
349.0952074
353.2569802
357.4444669
361.5905873
365.6174631
369.4365663
372.9492908
376.0479896
378.6174661
380.536841
381.6816729
381.9263164
381.1469316
379.2263377
376.062278
371.5791392
365.7409046
358.5641616
350.1326899
340.6122764
340.6012216
340.2277143
339.5026687
338.4551867
337.1225709
335.5467341
333.771667
331.8416684
329.8000345
327.6880271
325.5440414
323.4029486
321.2956116
319.2485726
317.2839083
315.4192381
313.6678677
312.039046
310.5383083
309.1678835
306.0782716
306.2434935
306.5721078
307.064387
307.7224491
308.5499521
309.5517907
310.7337515
312.1021303
313.6632869
315.4231667
317.3867809
319.557602
321.9369273
324.5231806
327.3111679
330.2912964
333.4487714
336.7627906
340.2057609
343.7425723
347.3299661
350.9160465
354.4399867
357.8319882
361.0135477
363.8980831
366.39195
368.395861
369.8066972
370.5197174
370.4312637
369.4422799
367.4632199
364.4209098
360.2672622
354.9888607
348.6162515
341.2314662
332.9697808
332.9602251
332.667151
332.0968244
331.2695734
330.2125483
328.9573471
327.5380415
325.9896159
324.3467331
322.6427486
320.9089245
319.1738187
317.4628373
315.7979418
314.1975008
312.6762741
311.2455104
309.9131407
308.684047
307.5603844
305.5549477
305.7046021
306.0020204
306.447136
307.0414662
307.7878445
308.6901305
309.7528883
310.981028
312.3794042
313.9523759
315.7033245
317.6341195
319.7445453
322.0316866
324.4892818
327.1070533
329.8700316
332.7578905
335.7443189
338.7964567
341.874432
344.9310358
347.9115803
350.7539836
353.3891265
355.7415213
357.7303238
359.2707147
360.2756712
360.6581757
360.3339593
359.2249718
357.263828
354.3993783
350.6031854
345.8761723
340.2542497
333.8111141
326.6554861
326.6472389
326.4166449
325.9673524
325.3139863
324.4765894
323.4790592
322.3476916
321.1099207
319.7932615
318.4244394
317.0286874
315.6291967
314.2467115
312.8992585
311.602
310.3671994
309.2042831
308.1199837
307.1185466
306.2019838
305.0521111
305.1869183
305.4546394
305.8549491
306.3888746
307.0585527
307.8669623
308.817628
309.9142911
311.1605452
312.5594365
314.1130279
315.8219236
317.6847625
319.6976811
321.8537556
324.142434
326.5489714
329.0538878
331.6324699
334.2543426
336.8831405
339.4763126
341.9850954
344.3546914
346.5246896
348.4297608
350.0006589
351.1655566
351.8517463
351.9877502
351.5059065
350.3455216
348.4566582
345.8045165
342.3741136
338.1746267
333.2423863
327.6411707
321.4583702
321.4512677
321.2697364
320.9158577
320.4003682
319.7382269
318.9475699
318.048657
317.062896
316.0119841
314.9171758
313.798681
312.6751873
311.5635024
310.4783096
309.4320276
308.4347644
307.4943522
306.6164512
305.8047066
305.0609467
304.5725871
304.6933576
304.9330479
305.291145
305.7682805
306.3660121
307.0865799
307.9326369
308.9069503
310.012073
311.2499843
312.6217001
314.1268539
315.7632516
317.5264074
319.4090665
321.4007265
323.4871715
325.650034
327.8664062
330.1085219
332.3435364
334.5334315
336.6350746
338.6004637
340.3771869
341.9091255
343.1374261
344.0017692
344.4419574
344.3998558
343.8217108
342.6608714
340.8808823
338.4588233
335.388585
331.683556
327.3779744
322.5260952
317.1985334
317.1924323
317.0496494
316.7712912
316.3653461
315.843065
315.2182494
314.5064908
313.7244328
312.8890924
312.0172667
311.1250316
310.2273388
309.337708
308.4680113
307.6283443
306.826974
306.0703547
305.3632012
304.708607
304.1081969
304.1186399
304.2262508
304.4396997
304.7583448
305.1825051
305.7132641
306.352251
307.1013983
307.962673
308.9377827
310.0278561
311.2330978
312.5524212
313.9830618
315.5201784
317.1564484
318.8816689
320.6823748
322.5414901
324.4380296
326.3468709
328.2386196
330.0795898
331.8319258
333.4538899
334.900339
336.1234152
337.0734691
337.7002368
337.9542847
337.7887353
337.161274
336.036413
334.3879405
332.2013972
329.4763044
326.2277396
322.4867525
318.2991407
313.7223448
313.7171191
313.6050162
313.3865261
313.0676428
312.6568706
312.1647296
311.603206
310.9851979
310.3239905
309.6327841
308.9242873
308.2103845
307.5018764
306.8082954
306.1377893
305.497069
304.8914111
304.3247086
303.7995585
303.3173784
303.691973
303.7873461
303.9764224
304.2584805
304.6335973
305.102475
305.6662456
306.3262546
307.0838219
307.9399814
308.8951981
309.9490666
311.0999907
312.3448513
313.6786657
315.094248
316.581879
318.1289967
319.7199227
321.335638
322.9536277
324.5478106
326.088577
327.5429515
328.8749035
330.045823
331.01518
331.7413822
332.1828422
332.2992605
332.0531198
331.411374
330.3472822
328.8423022
326.8878875
324.4869659
321.6548034
318.4189329
314.8178904
310.8987072
310.8942453
310.8064455
310.6354086
310.3856543
310.0636292
309.6773572
309.2360401
308.7496439
308.2284968
307.6829198
307.1229029
306.5578344
305.9962878
305.4458657
304.9130984
304.4033946
303.9210354
303.4692083
303.0500712
302.6648416
303.2937462
303.3778272
303.5444394
303.7928207
304.1228669
304.5349789
305.0298906
305.6084775
306.2715456
307.0196024
307.8526094
308.7697197
309.7690016
310.8471549
311.9992229
313.218309
314.4953065
315.8186506
317.1741068
318.5446076
319.9101526
321.2477892
322.5316879
323.733331
324.8218294
325.7643816
326.5268892
327.0747358
327.3737352
327.3912463
327.0974395
326.4666869
325.4790199
324.1215651
322.3898282
320.2886525
317.8326466
315.0458871
311.9607685
308.6160244
308.612227
308.5436614
308.410187
308.2152208
307.9636556
307.6616092
307.3161336
306.9349063
306.5259249
306.097221
305.6566055
305.2114524
304.7685259
304.3338506
303.9126262
303.5091813
303.1269639
302.768563
302.435755
302.1295707
302.9246051
302.9983453
303.1444053
303.3620138
303.6509356
304.0113391
304.4436456
304.9483609
305.5258914
306.1763437
306.8993099
307.6936411
308.5572109
309.4866744
310.4772272
311.5223709
312.6136934
313.7406735
314.8905194
316.048054
317.1956586
318.3132892
319.3785771
320.3670293
321.2523387
322.0068162
322.6019509
323.0091055
323.2003426
323.1493757
322.8326243
322.2303386
321.32774
320.1160965
318.5936283
316.7661148
314.6470666
312.257347
309.624186
306.7796388
306.7764181
306.7230461
306.6192401
306.4675859
306.2717964
306.0365312
305.7671833
305.4696489
305.1500968
304.8147487
304.4696809
304.1206536
303.7729721
303.4313818
303.0999963
302.7822568
302.4809208
302.1980747
301.9351682
301.6930631
302.5847231
302.6490625
302.7764549
302.9661426
303.2178011