/*--------------------------------*- C++ -*----------------------------------*\
  =========                 |
  \\      /  F ield         | OpenFOAM: The Open Source CFD Toolbox
   \\    /   O peration     | Website:  https://openfoam.org
    \\  /    A nd           | Version:  10
     \\/     M anipulation  |
\*---------------------------------------------------------------------------*/
FoamFile
{
    format      ascii;
    class       volScalarField;
    location    "0.0002";
    object      TRHS;
}
// * * * * * * * * * * * * * * * * * * * * * * * * * * * * * * * * * * * * * //

dimensions      [1 -1 -3 0 0 0 0];

internalField   nonuniform List<scalar> 
3600
(
-4.194188077e-10
-1.54983163e-09
-1.34128353e-09
1.071006386e-08
2.375876277e-08
2.625861406e-08
2.445885818e-08
3.657477032e-08
7.169153015e-08
1.147840154e-07
1.446086948e-07
1.467801673e-07
1.133868457e-07
4.719536764e-08
-2.948083915e-08
-7.4900916e-08
-5.188150977e-08
2.706253761e-08
8.448891289e-08
4.934889377e-08
-3.923006493e-08
-6.016508135e-08
1.487963708e-08
6.859680719e-08
1.095018632e-08
-7.012699614e-08
-4.173064668e-08
2.023726127e-08
1.91171899e-08
-6.374442918e-08
-8.880258552e-09
2.150508097e-08
4.930053182e-09
-2.547305391e-08
2.809255486e-10
-1.943657908e-08
-9.059960217e-09
1.286397407e-10
-3.053754527e-08
4.086790128e-09
-2.066598626e-08
4.163624236
91.79255488
31.87453966
-15.27044727
2.542818981e+11
3.503589239e+13
48785.46242
0
0
0
0
0
0
0
0
0
0
0
0
4.355268776e-10
1.052117501e-09
3.696197174e-09
8.5559545e-09
1.103430042e-08
8.755477427e-09
3.060646776e-09
-4.983580177e-09
-1.429396294e-08
-2.445805818e-08
-3.012057818e-08
-2.325625152e-08
-3.999746807e-09
1.583942558e-08
2.055973171e-08
6.174566875e-09
-1.259784958e-08
-1.631563039e-08
-1.739524865e-09
1.492254902e-08
1.679089466e-08
3.818462874e-09
-8.245945293e-09
-7.149388144e-09
-2.848251553e-09
-3.777752017e-09
-3.644111845e-09
-1.079480868e-08
3.14493337e-09
2.060242919e-10
-9.06948232e-09
-1.077151694e-08
-3.683546638e-09
-6.919057942e-09
5.563488619e-09
7.144773833e-09
1.532332071e-08
9.363062598e-09
-4.641003005e-09
-5.967829815e-09
-4.177885064e-10
11.45591065
-9.129424234
8.802146986
12.48487889
-1.547082084e+11
3.365846566e+13
21000.5894
0
0
0
0
0
0
0
0
0
0
0
0
-9.693502124e-10
-1.335418312e-09
1.346532624e-10
5.576590227e-09
1.107206341e-08
1.487780666e-08
1.740495936e-08
1.667039653e-08
1.229049337e-08
4.549256088e-09
-3.844542182e-09
-6.696485675e-09
-2.602368207e-09
3.456444791e-09
6.542919417e-09
6.239455672e-09
4.239032969e-09
1.295874492e-09
-1.948521191e-10
3.74624545e-09
1.016128982e-08
7.020226283e-09
-7.233019788e-09
-1.618232968e-08
-1.214328527e-08
-3.26182929e-09
1.318918096e-09
1.737194445e-09
-1.422724927e-08
4.844474021e-09
8.471384645e-09
-1.138883258e-08
2.53787034e-08
9.648332456e-09
2.971257553e-08
-7.832918762e-09
-1.825231666e-09
1.692458928e-08
1.294661086e-08
9.156625642e-09
-5.223025614e-07
6.782308334
11.65368836
-13.07848607
-9.237742
-2.193311232e+12
1.571625167e+13
4605.508003
0
0
0
0
0
0
0
0
0
0
0
0
-1.24020947e-09
-2.362845604e-09
-3.34855051e-10
4.795575805e-09
1.13078246e-08
1.509239935e-08
1.640229497e-08
1.45568699e-08
1.040554514e-08
6.215245857e-09
3.489801964e-09
3.588426046e-09
3.973778538e-09
1.304011106e-09
-1.856600552e-09
-1.045823835e-10
5.243295276e-09
6.916933784e-09
3.097481848e-09
-1.331650926e-10
7.325021659e-10
-1.823661832e-11
-8.060145147e-09
-1.541019438e-08
-6.590537943e-09
1.151779959e-08
3.639249347e-09
2.167323129e-09
-1.598873491e-08
-5.614616362e-09
3.569870105e-08
-9.810480734e-09
-2.956613312e-11
1.283808713e-08
2.558842428e-08
7.04223226e-09
2.656802022e-10
1.577549162e-08
1.916297094e-08
2.398376776e-08
8.441592184e-09
-8.781698655
3.690166306
-17.33032403
-20.33974185
6.383239258e+11
-4.660982306e+11
0
0
0
0
0
0
0
0
0
0
0
0
0
-2.043513385e-09
-2.274355042e-09
8.15039144e-10
6.844035592e-09
1.304719723e-08
1.505958194e-08
1.332785264e-08
9.833246162e-09
6.641962776e-09
5.387769996e-09
6.146315685e-09
7.958143599e-09
7.208728498e-09
2.198268667e-09
-2.239208905e-09
-7.237474931e-10
4.339061206e-09
6.890102694e-09
5.877440271e-09
2.975531127e-09
-5.483457183e-10
-2.021094722e-09
-2.886249129e-09
-5.575585134e-09
-1.908093062e-10
1.452413854e-08
1.45856822e-09
-3.418478848e-09
7.792467659e-09
-1.123899145e-08
-1.700831453e-08
1.047711141e-08
5.380717829e-09
2.613741972e-08
3.626349207e-09
1.385390279e-08
1.995150707e-08
1.594452113e-08
-1.531752369e-09
2.916275226e-08
1.257322001e-08
-7.79098633
10.75481567
-25.3779225
-4.330897449e+11
4.846630801e+13
97113.35849
0
0
0
0
0
0
0
0
0
0
0
0
0
-1.446762285e-09
-1.666503574e-09
3.613632977e-09
9.603250055e-09
1.296280092e-08
1.154319565e-08
8.052584102e-09
5.812531457e-09
5.80796647e-09
6.877672173e-09
8.339786219e-09
9.759069758e-09
8.334982853e-09
3.969015335e-09
1.655800907e-09
3.382261392e-09
4.611188377e-09
3.588354152e-09
3.586934826e-09
2.31352685e-09
-3.901974835e-09
-8.233266165e-09
-6.087725739e-09
-1.431190739e-09
5.608781572e-09
8.686080795e-09
-5.192641805e-09
-1.267581128e-08
1.282033124e-08
3.422841596e-08
-2.822594189e-08
2.127317381e-08
6.606117761e-09
7.539916267e-09
1.25258311e-08
1.760812675e-08
2.413417336e-08
2.24294504e-08
7.434074791e-09
-2.317436235e-08
48673.30316
54.58344544
165.0830726
-50.9089709
3.334956411e+13
-6.957127442e+11
0
0
0
0
0
0
0
0
0
0
0
0
0
0
-1.08319172e-09
8.890814014e-10
7.383390899e-09
1.096441063e-08
1.010703648e-08
5.892429414e-09
3.014953004e-09
3.602648705e-09
6.378359589e-09
8.361808191e-09
8.688168973e-09
7.966661589e-09
5.727918877e-09
3.788678168e-09
5.012567881e-09
6.186949672e-09
2.031376707e-09
-2.934184439e-09
-1.566204904e-09
-7.089067097e-11
-4.823805395e-09
-6.480573328e-09
-5.604098244e-10
4.739617666e-09
6.85252808e-09
-2.017402395e-10
8.209331371e-10
1.210823045e-08
-5.8265032e-09
2.350062426e-08
-1.086309358e-08
1.315596049e-08
1.354502327e-08
-3.04594423e-09
7.527275978e-09
7.7339477e-09
1.167999419e-08
-1.988060205e-08
-7.105253493e-06
-0.00069568772
171857.692
265.4734622
60.97495906
-2.587181425e+13
7.982701768e+13
-206904.2663
0
0
0
0
0
0
0
0
0
0
0
0
0
0
3.709375135e-10
4.209471747e-09
9.754650651e-09
1.022587392e-08
6.039431041e-09
2.889299067e-10
-6.91230797e-10
3.976173582e-09
8.930955853e-09
9.322749563e-09
6.466196606e-09
3.825357004e-09
2.48349043e-09
3.684059014e-09
6.894403516e-09
5.940917142e-09
-2.002361085e-09
-7.0313496e-09
-2.327749962e-09
1.064394686e-09
-3.060691568e-09
-2.213414409e-09
6.42629729e-09
9.221164158e-09
3.079906198e-09
-1.124110231e-08
-4.591517763e-09
2.237008398e-08
-1.690836659e-08
-1.195809652e-08
2.261734663e-08
3.931723804e-09
6.34353438e-09
5.14984684e-10
3.79704077e-09
-1.081479743e-08
-1.201277445e-06
-0.0001449336206
-0.004021965678
17716728.19
33823.23798
19.3499134
1.909157625e+13
7.151769383e+12
-2.137811745e+13
0
0
0
0
0
0
0
0
0
0
0
0
0
0
0
1.556707642e-09
6.432237667e-09
1.118307484e-08
8.089241177e-09
5.771443182e-10
-4.582159943e-09
-1.627667816e-09
6.496227075e-09
1.08457105e-08
8.100050925e-09
3.393486491e-09
1.474617269e-09
2.240395166e-09
4.952780107e-09
6.970667953e-09
2.516208977e-09
-7.195464948e-09
-9.930267775e-09
-2.631282143e-09
6.678050097e-10
-2.917671911e-09
1.974729569e-10
8.154959755e-09
5.948917659e-09
-2.64260463e-09
-5.532285783e-09
6.20539147e-09
1.70193381e-08
-1.331456022e-09
-1.733535176e-08
1.785681318e-08
-1.121226906e-08
6.021450542e-09
1.257286924e-08
-4.082688983e-09
-3.507061415e-09
-3.870808531e-05
-0.002452729148
-102641.3613
34568860.78
2.442532738e+13
-1.25825064e+13
5.313687653e+13
1.717394067e+13
0
0
0
0
0
0
0
0
0
0
0
0
0
0
0
0
2.859529515e-09
8.380799005e-09
1.056629633e-08
4.411869369e-09
-4.247380207e-09
-7.079038339e-09
-8.856149452e-10
7.557725757e-09
8.534964978e-09
2.969295348e-09
-9.113569674e-10
3.356721544e-10
3.541969999e-09
5.854200632e-09
4.538996059e-09
-3.138522995e-09
-1.199759479e-08
-1.086387286e-08
-1.924029536e-09
7.343922736e-10
-1.128676184e-09
4.524041797e-09
1.049973943e-08
3.662192623e-09
-6.531064368e-09
1.061101603e-09
1.599229928e-08
-7.594033654e-09
2.408572617e-09
8.904724825e-09
2.887610489e-09
-1.552649382e-08
1.381940679e-08
-4.283481648e-09
-1.830402682e-08
2.509299917e-08
-0.0001147576102
-0.001719365373
1242354.576
-5.878965011e+13
2.896598936e+13
2.167316895e+13
724126.8234
0
0
0
0
0
0
0
0
0
0
0
0
0
0
0
0
0
3.725059448e-09
8.753676694e-09
8.418678118e-09
8.016523487e-10
-6.926293801e-09
-7.063060506e-09
6.545009405e-10
6.313179146e-09
2.141131263e-09
-5.516181708e-09
-6.878073097e-09
-1.604708158e-09
3.641225598e-09
4.437269129e-09
-3.747899779e-10
-9.370042128e-09
-1.520943164e-08
-1.073067378e-08
-2.350817057e-09
-5.610828133e-10
-1.542423009e-10
5.438497848e-09
6.975213828e-09
-4.203448822e-10
-9.441756684e-09
-6.867158837e-09
6.340909633e-09
-1.486833622e-08
7.260385443e-09
2.376942423e-08
1.649845132e-09
5.6017307e-09
-3.796306462e-10
-3.022011713e-08
1.982317003e-08
-3.101155264e-08
-3.932555513e-09
-1.343496608e-08
3.943808806e+12
-2.154301334e+12
35545.88461
0
0
0
0
0
0
0
0
0
0
0
0
0
0
0
0
0
0
0
3.817008522e-09
7.401454278e-09
5.532504582e-09
-2.443605138e-09
-7.845786364e-09
-5.030185342e-09
3.126903014e-09
4.330143488e-09
-4.941214959e-09
-1.33425429e-08
-1.160701529e-08
-3.356897708e-09
2.288031464e-09
8.849871603e-10
-6.102583841e-09
-1.383368262e-08
-1.571786234e-08
-1.023282828e-08
-5.034708081e-09
-3.539348289e-09
9.102003362e-10
6.123173594e-09
3.668177663e-09
1.246231345e-09
1.154883851e-09
-5.903365727e-09
-7.046498314e-09
-4.009185457e-09
9.617675037e-09
-5.17551207e-09
-2.206263133e-08
2.067961489e-08
-1.968103612e-09
-1.898095366e-08
9.551393914e-09
-6.609286098e-09
-9.040865621e-09
3.062115207e-06
7.32713745e+10
-9.491837335e+11
-7341.775447
0
0
0
0
0
0
0
0
0
0
0
0
0
0
0
0
0
0
0
3.43433183e-09
4.875158997e-09
1.929254693e-09
-5.70738798e-09
-8.179970838e-09
-2.455149412e-09
5.101019015e-09
1.690734328e-09
-1.033886395e-08
-1.705204143e-08
-1.232444654e-08
-3.356764454e-09
5.393644755e-10
-2.941334059e-09
-9.617460121e-09
-1.357995162e-08
-1.170631709e-08
-7.628150525e-09
-6.710905065e-09
-4.39094275e-09
4.36143838e-09
8.31142588e-09
2.450120865e-09
3.080279076e-09
6.546964847e-09
-4.76815585e-09
-1.02949813e-08
1.132099487e-08
9.729049574e-09
5.167538154e-09
1.144859666e-08
-9.426849936e-09
2.846594408e-10
1.062441786e-08
-4.215780991e-08
6.734539217e-09
9.912586345e-09
4.151375013e-09
1.42070484e+11
4.892437785e+11
0
0
0
0
0
0
0
0
0
0
0
0
0
0
0
0
0
0
0
0
2.803019702e-09
2.181187969e-09
-1.909788096e-09
-8.395997649e-09
-8.30448123e-09
-7.869072242e-10
4.424136021e-09
-2.78788611e-09
-1.410980116e-08
-1.67774343e-08
-1.010128006e-08
-3.13229006e-09
-2.51733097e-09
-7.039886233e-09
-1.117333367e-08
-1.078700071e-08
-7.146819296e-09
-6.345853717e-09
-8.900499063e-09
-4.685655828e-09
5.978384675e-09
5.38412675e-09
-3.76120149e-09
-1.81944334e-09
-2.48630782e-09
-1.198258729e-08
2.51510071e-09
3.133725062e-08
-4.947176052e-09
-1.216336296e-09
2.551676115e-08
-3.023991342e-08
1.228885114e-08
-2.089182828e-08
1.444357635e-08
-1.643398157e-08
-1.079681367e-08
4.550124622e-09
-6.709160452e+11
-2.025024843e+12
0
0
0
0
0
0
0
0
0
0
0
0
0
0
0
0
0
0
0
0
1.655406187e-09
2.659314907e-10
-4.807649459e-09
-9.304312046e-09
-7.276489809e-09
2.779782131e-10
1.38152255e-09
-8.102494048e-09
-1.579209634e-08
-1.374907558e-08
-7.121732847e-09
-4.297019235e-09
-6.967687195e-09
-1.069685418e-08
-1.132311953e-08
-8.514685805e-09
-6.085046643e-09
-8.486114728e-09
-1.107714904e-08
-2.952781527e-09
8.40817538e-09
3.686810552e-09
-5.084250836e-09
-7.582071912e-10
-1.045044024e-08
-2.767193446e-08
-7.701889415e-09
1.126225445e-08
-1.521338784e-08
5.30490361e-09
2.049051429e-08
-1.978287399e-08
9.611048197e-09
5.180164156e-10
-8.104910761e-09
1.790256228e-08
4.452228307e-08
1.178828276e-07
2.01343121e+11
-2.050497812e+13
6269.131119
0
0
0
0
0
0
0
0
0
0
0
0
0
0
0
0
0
0
0
-2.854692059e-10
-1.006544187e-09
-6.257045765e-09
-8.387367102e-09
-4.529785436e-09
1.63710362e-09
-1.761035697e-09
-1.122922975e-08
-1.37178477e-08
-8.225307718e-09
-3.831806008e-09
-5.618274439e-09
-9.550653848e-09
-9.993462112e-09
-7.281893883e-09
-5.349400221e-09
-6.715261722e-09
-1.049534981e-08
-9.511552245e-09
1.977662635e-09
1.051195385e-08
2.295728508e-09
-1.89115376e-09
8.488233768e-09
4.09776612e-10
-9.004303043e-09
1.529881524e-08
1.708782635e-08
1.81375539e-08
1.757586567e-08
1.570907795e-09
2.322614832e-08
-2.118522151e-08
2.058210045e-08
-9.634989886e-08
-1.271483452e-05
-5.229350635e-07
1.740316802e-08
5.55921478e+10
1.098913063e+11
0
0
0
0
0
0
0
0
0
0
0
0
0
0
0
0
0
0
0
0
-2.310752241e-09
-2.436005505e-09
-6.938889847e-09
-7.047236411e-09
-1.32973547e-09
2.556130491e-09
-3.963669325e-09
-1.085237341e-08
-8.283117433e-09
-1.851730267e-09
-1.430506861e-09
-6.916144537e-09
-9.28186978e-09
-4.414028585e-09
5.964746406e-10
-1.366160901e-09
-7.598167942e-09
-1.037463818e-08
-4.396678278e-09
6.618762832e-09
7.011837896e-09
-5.988519706e-09
-7.107740247e-09
3.712532143e-09
-3.84647924e-09
-5.916672782e-09
9.638318161e-09
-9.307478334e-09
7.917359182e-09
2.325009713e-08
-1.632083277e-08
1.533610981e-08
1.672353493e-08
1.067063866e-09
-2.557388543e-07
-2.295560108e-05
2.096041085e-05
-4.653071519e-09
-3.58536267e+12
-2.147638869e+12
0
0
0
0
0
0
0
0
0
0
0
0
0
0
0
0
0
0
0
0
-2.729794088e-09
-3.93012745e-09
-7.401843675e-09
-6.151034815e-09
6.011827038e-10
1.608290625e-09
-5.633945376e-09
-8.212504513e-09
-2.304163101e-09
2.333173779e-09
-2.131999286e-09
-1.009755068e-08
-9.255997832e-09
1.033267492e-09
6.748602529e-09
-1.470135824e-10
-9.449887158e-09
-7.985649132e-09
3.654133041e-09
1.251574285e-08
6.139134109e-09
-8.188005104e-09
-1.031417274e-08
-8.962215262e-09
-1.861782744e-08
-1.135052853e-08
1.068178229e-08
1.210921635e-08
5.813432382e-09
1.186263782e-08
-1.141213586e-08
4.079361773e-09
-1.488191296e-08
3.794507796e-09
-9.537345404e-08
-2.533910496e-06
2.012621777e-06
2.636713907e-09
2.102892855
8.895185306e+11
406602.2709
0
0
0
0
0
0
0
0
0
0
0
0
0
0
0
0
0
0
0
-5.5598108e-10
-4.377981411e-09
-7.007322047e-09
-4.868936046e-09
9.493038941e-10
-1.102161443e-09
-6.505898529e-09
-4.580591224e-09
2.406926366e-09
3.7711748e-09
-4.99359672e-09
-1.425257544e-08
-1.049226281e-08
3.096467e-09
7.656712554e-09
-3.260441146e-09
-1.255627535e-08
-5.793607196e-09
8.525609501e-09
1.424853773e-08
9.445194653e-09
6.250068012e-09
8.986485609e-09
5.037107465e-09
1.474332735e-10
3.93682152e-09
-1.326191719e-09
6.372390392e-09
3.463423019e-09
3.098825405e-08
-3.106618209e-08
2.486345922e-08
-2.074778004e-09
5.898844663e-09
-1.737301986e-07
3.093054942e-07
1.589453691e-07
7.836241275e-10
7.110356175e+10
-3.725310239e+12
0
0
0
0
0
0
0
0
0
0
0
0
0
0
0
0
0
0
0
0
2.991792722e-09
-3.191082471e-09
-4.853585521e-09
-2.568794917e-09
-1.427760589e-11
-4.077159022e-09
-5.943147589e-09
-8.821569425e-10
5.393520032e-09
4.087139021e-09
-6.581781493e-09
-1.568650321e-08
-1.0417012e-08
3.339102726e-09
5.441795649e-09
-7.005264912e-09
-1.326562118e-08
-3.656267102e-09
4.894350007e-09
7.084929255e-10
-2.884780625e-09
3.898939922e-09
4.863740898e-09
-7.183880361e-09
-3.149643327e-09
1.161842258e-08
4.243152387e-09
1.070061969e-08
-6.150989801e-09
2.237575527e-08
-1.970102271e-08
-7.195475847e-10
-6.651030146e-09
-3.505094704e-08
-1.339257553e-06
-4.05863069e-05
-8.657242988e-06
4.08303109e-09
-8.004772536e+11
-1.287686465e+12
-6720.809277
0
0
0
0
0
0
0
0
0
0
0
0
0
0
0
0
0
0
0
5.35524052e-09
-1.112004214e-09
-1.751583583e-09
-1.524484175e-10
-2.32438967e-09
-6.069906766e-09
-4.582884259e-09
1.011975185e-09
5.437222956e-09
3.320938971e-09
-6.211128258e-09
-1.377413304e-08
-8.509715613e-09
2.864637549e-09
2.628434283e-09
-7.235992371e-09
-5.973942005e-09
6.803591816e-09
6.894402967e-09
-7.814172523e-09
-9.953217546e-09
2.335177527e-09
3.488639826e-10
-7.795964498e-09
7.421889607e-09
1.832568826e-08
-3.504552045e-09
-1.39943418e-08
2.806676073e-08
6.746633511e-09
-2.529608619e-08
8.778577967e-09
-2.180479556e-08
2.041440036e-09
-1.36698575e-07
-2.971988145e-06
-4.237009934e-07
1.38228942e-08
-2.396890201e+10
4.798143031e+12
166749.4287
0
0
0
0
0
0
0
0
0
0
0
0
0
0
0
0
0
0
0
5.046061511e-09
8.998962346e-10
1.39269129e-09
1.888061235e-10
-4.945510417e-09
-6.523190125e-09
-3.488256186e-09
-1.297076877e-10
1.917813274e-09
6.402947274e-10
-5.88768584e-09
-1.149033067e-08
-7.574267107e-09
-2.825853183e-10
-2.956081073e-09
-8.669888379e-09
1.4147144e-09
1.834890453e-08
1.446556078e-08
-1.930573537e-09
1.728249263e-09
1.194291466e-08
-4.084078041e-09
-1.54721117e-08
2.428786106e-09
1.717266153e-08
1.706374101e-08
-3.390358835e-08
7.727331052e-09
1.305820627e-08
-1.230626414e-08
4.971791152e-09
-5.134559113e-09
-4.275712683e-09
-2.117681971e-08
-6.742555812e-07
-2.476429435e-08
6.936661666e-09
3.715789138
-8.919381855e+11
121573.0743
0
0
0
0
0
0
0
0
0
0
0
0
0
0
0
0
0
0
0
3.283018061e-09
2.398146143e-09
3.309653077e-09
-1.300057344e-09
-6.377024048e-09
-5.069309305e-09
-2.484353153e-09
-2.683311723e-09
-2.458362847e-09
-2.016133093e-09
-5.529583326e-09
-9.701518344e-09
-7.342621671e-09
-3.743286729e-09
-8.947552425e-09
-1.337049863e-08
-9.325047122e-10
1.398618929e-08
6.286216806e-09
-6.222297426e-09
6.694969091e-09
1.88552235e-08
3.186669665e-09
-6.671593129e-10
1.228360664e-08
9.40013549e-09
1.876313095e-08
-2.812314374e-10
9.934172787e-09
-1.071561996e-08
5.251937645e-09
6.558161785e-10
-2.782265767e-08
-2.33028627e-08
-3.465937221e-07
-1.229702771e-05
-2.472944396e-05
7.772821355e-09
-2866545227
1.655355992e+11
-2864.501707
0
0
0
0
0
0
0
0
0
0
0
0
0
0
0
0
0
0
0
9.259125512e-10
4.12372383e-09
3.727124524e-09
-3.241529915e-09
-5.997233488e-09
-2.200764781e-09
-1.189123038e-09
-3.997225894e-09
-3.720278118e-09
-1.315752289e-09
-3.367181905e-09
-7.188001872e-09
-4.800986325e-09
-7.032727696e-10
-4.500438521e-09
-7.777803782e-09
2.042814417e-09
9.840638539e-09
-1.913447861e-09
-9.142837973e-09
9.454643237e-09
2.085752171e-08
1.008745067e-08
9.591431252e-09
1.4921319e-08
1.692623754e-08
1.250029543e-08
-1.350139024e-08
1.140476999e-08
4.01810095e-09
-1.29964644e-08
1.685290037e-08
-4.852056744e-09
-3.344590055e-10
-1.390478601e-07
-4.346243258e-06
-4.760233828e-06
2.936448727e-09
-928365738.5
-9.656284485e+12
-236168.1201
0
0
0
0
0
0
0
0
0
0
0
0
0
0
0
0
0
0
0
1.669465204e-09
6.090885326e-09
3.04412646e-09
-4.71701914e-09
-4.2753941e-09
3.86368697e-10
-5.469575412e-10
-3.496619289e-09
-6.981362688e-10
3.298983546e-09
-1.164416978e-10
-6.083448876e-09
-3.324218338e-09
4.724556581e-09
6.684890251e-09
6.928131628e-09
1.398238663e-08
1.433203066e-08
-1.664935598e-09
-8.854288037e-09
4.304989112e-09
9.904605349e-09
9.160399333e-09
1.156629118e-08
-7.75693616e-10
8.591707588e-09
2.622532372e-08
3.976755217e-09
-3.624544521e-10
-5.134670204e-09
-6.85926799e-09
3.65985742e-09
9.997085631e-09
-3.005236968e-09
-3.176398223e-08
-9.583019782e-07
-8.306988227e-07
2.593824138e-09
1.038592309e-09
6.373029621e+11
-308688.199
0
0
0
0
0
0
0
0
0
0
0
0
0
0
0
0
0
0
0
5.666757094e-09
7.766002488e-09
1.690795445e-09
-4.537051838e-09
-1.657698875e-09
1.274055891e-09
-1.70627895e-09
-2.274521649e-09
5.140628688e-09
1.0437172e-08
3.478446906e-09
-7.191150054e-09
-6.123232159e-09
4.217296359e-09
1.033834391e-08
1.295462442e-08
1.835554829e-08
1.668853778e-08
4.380187487e-09
1.538247739e-09
9.469373583e-09
1.178867819e-08
2.187587505e-08
2.66630976e-08
6.541498257e-09
1.219059887e-08
-4.434438514e-10
-1.707018467e-08
3.053034507e-08
-1.016978676e-08
-2.552192498e-09
-8.796239348e-09
-2.197104938e-08
5.378792186e-08
5.982283401e-08
-1.456062111e-07
-4.853943383e-07
3.034202673e-09
7.420225302e-10
27146.29276
283493.8568
0
0
0
0
0
0
0
0
0
0
0
0
0
0
0
0
0
0
0
9.873024615e-09
7.963959503e-09
7.10672712e-10
-1.545966234e-09
1.84958194e-09
6.724406543e-10
-4.359373733e-09
-1.388412343e-09
1.128196952e-08
1.817076852e-08
8.648462559e-09
-5.223689948e-09
-5.539209366e-09
4.719050119e-09
1.043690021e-08
1.094049589e-08
1.277260567e-08
1.078027911e-08
5.171616004e-09
6.809523028e-09
7.236479681e-09
3.94495131e-09
1.64400061e-08
1.086958705e-08
-1.764302869e-08
1.585022636e-08
1.387341618e-08
-3.416876698e-08
2.153885192e-08
7.044671373e-09
-5.705414333e-09
-3.472452832e-08
2.498858623e-08
3.792747792e-08
7.831343998e-09
3.350581738e-09
-3.904372631e-07
-2.025107475e-08
-2.531326318e-09
1.595164934e-05
471641.1405
0
0
0
0
0
0
0
0
0
0
0
0
0
0
0
0
0
0
0
1.006672056e-08
5.882813896e-09
9.288454073e-10
3.606076489e-09
5.744797716e-09
-1.550084446e-10
-7.027735798e-09
-1.601026679e-09
1.408039276e-08
2.155953711e-08
1.171086709e-08
-7.529859205e-10
1.33445746e-09
1.204011064e-08
1.507700979e-08
1.04195104e-08
6.067792627e-09
1.611956887e-09
9.73992707e-10
7.192234824e-09
4.643231803e-09
1.887719232e-09
2.194936383e-08
2.194615243e-08
-6.655188723e-09
1.264302439e-08
1.676259106e-08
-9.196832445e-09
-1.65023147e-09
-6.927560118e-09
2.617189665e-10
-3.323970964e-09
-1.81055361e-08
-4.684866834e-08
-7.38797372e-08
-9.448969982e-08
-1.924512908e-06
-5.046218883e-06
-9.52017188e-09
1.499699237e-07
4608.987999
0
0
0
0
0
0
0
0
0
0
0
0
0
0
0
0
0
0
0
4.532836633e-09
1.718435835e-09
1.656900674e-09
7.867667654e-09
8.478787758e-09
-2.042699501e-10
-7.927803442e-09
-2.225435177e-09
1.213651769e-08
1.684658157e-08
6.605794324e-09
-1.899638985e-09
5.146789043e-09
1.759175023e-08
1.932995809e-08
1.238650476e-08
5.178757635e-09
-8.188428905e-11
4.016446728e-09
1.558789698e-08
1.376716306e-08
1.005788084e-08
2.122211284e-08
9.963638439e-09
-7.422478953e-09
3.775212775e-09
-1.182197485e-08
-1.142456727e-08
1.809889355e-09
4.030037845e-09
-1.976737223e-09
-2.747225571e-10
-7.909344116e-09
-7.269487034e-09
-1.193952545e-08
-6.206572894e-08
-2.583988724e-07
-1.627292038e-06
-9.331582237e-09
-1.723986591e-06
-50835.32169
0
0
0
0
0
0
0
0
0
0
0
0
0
0
0
0
0
0
0
-3.650244872e-09
-3.233842299e-09
9.439827136e-10
7.794425213e-09
8.138014985e-09
9.373470953e-12
-6.599444921e-09
-1.303148152e-09
9.165079095e-09
8.640938289e-09
-3.129104094e-09
-8.355048316e-09
1.972240247e-09
1.404807014e-08
1.435186393e-08
7.679280812e-09
-3.155443621e-11
-7.611869284e-09
-4.458450349e-09
6.403173812e-09
2.460735693e-09
-1.143012e-09
8.871490485e-09
-7.604022571e-09
-1.800834895e-08
3.845833802e-09
3.24218539e-09
7.997291296e-09
-1.971743213e-09
4.775827173e-09
9.307602108e-10
2.202635969e-09
3.603177351e-09
3.201843401e-10
-6.404837509e-10
-8.369485922e-09
-1.879598116e-08
-1.886374417e-08
-9.061005464e-09
-3.488289093e-08
-933.6516054
0
0
0
0
0
0
0
0
0
0
0
0
0
0
0
0
0
0
0
-8.563160366e-09
-7.044749122e-09
-2.48101347e-09
2.71279658e-09
3.973796102e-09
-1.87024091e-09
-6.014061533e-09
4.261698937e-11
7.742894917e-09
3.430570165e-09
-8.586800464e-09
-1.093196589e-08
-9.451574494e-11
8.275033846e-09
6.288011061e-09
2.487126284e-09
-1.830381802e-09
-9.125094045e-09
-5.276162005e-09
8.806880571e-09
8.589733963e-09
7.363194655e-09
2.138426124e-08
1.353103196e-08
1.262932038e-09
4.784400931e-09
-5.011487007e-09
4.097754139e-09
1.668150272e-09
1.154823514e-08
4.258064464e-09
5.020673145e-10
4.359367549e-10
-2.78478705e-09
-6.472714124e-10
-5.762773562e-09
-8.784326012e-09
-8.535138491e-09
-8.057401209e-09
-2.087579453e-09
-6.054794907
0
0
0
0
0
0
0
0
0
0
0
0
0
0
0
0
0
0
0
-6.777567228e-09
-8.393518742e-09
-7.342975917e-09
-3.59854902e-09
-1.72996015e-09
-7.081830274e-09
-9.79593311e-09
-2.323185637e-09
4.810012647e-09
4.030223368e-11
-9.156934737e-09
-7.493777833e-09
2.853605722e-09
6.170328552e-09
2.242380488e-09
3.695001482e-09
5.805684857e-09
3.908319504e-10
3.538340163e-09
1.723190937e-08
1.55609463e-08
6.720056752e-09
1.087361844e-08
5.797988604e-09
-4.762739377e-09
2.190301141e-09
5.647283611e-09
1.062711434e-08
-4.364581129e-10
4.729777885e-09
4.850688363e-09
-1.52833746e-09
-3.264983225e-09
-6.050097864e-09
-3.6883559e-09
-3.026678159e-09
-4.231237452e-09
-5.87953606e-09
-7.466654694e-09
-4.091295743e-10
-2.982009972
0
0
0
0
0
0
0
0
0
0
0
0
0
0
0
0
0
0
0
-1.334946853e-09
-8.089745258e-09
-1.04278049e-08
-5.268746899e-09
-4.219733692e-09
-1.25052879e-08
-1.598197137e-08
-7.912240704e-09
-9.007132713e-10
-4.695363677e-09
-9.937073436e-09
-4.456702772e-09
4.24087347e-09
1.250704356e-09
-6.021581663e-09
-1.415597545e-09
4.735577648e-09
-8.407013967e-10
-2.78612331e-10
1.193918411e-08
1.020363591e-08
-1.159990367e-09
9.572734401e-10
7.749082391e-09
3.965456995e-09
8.937320811e-10
4.962744216e-09
1.285491284e-08
6.340513953e-09
-3.163126007e-09
2.105309293e-09
-1.074718067e-09
-1.314675139e-09
-3.973661589e-09
-1.734649309e-09
-1.217119562e-09
-2.995804763e-09
-2.627629655e-09
-4.123431392e-09
1.37693877e-09
-1.250856527
0
0
0
0
0
0
0
0
0
0
0
0
0
0
0
0
0
0
0
3.854681688e-10
-8.916839014e-09
-9.592783295e-09
6.600537074e-11
-1.14024335e-09
-1.370764849e-08
-1.815504501e-08
-9.975220391e-09
-3.616809613e-09
-6.87121699e-09
-9.156276629e-09
-1.112628396e-09
5.806766622e-09
-2.291299473e-09
-1.222562722e-08
-5.447598111e-09
3.799350543e-09
-1.05812637e-09
-7.892298569e-10
1.339306005e-08
1.580404163e-08
4.1406905e-09
-1.369494504e-09
2.402752432e-09
5.047340357e-09
4.825803062e-10
2.198237342e-09
5.118292064e-09
1.052374349e-08
-1.189670172e-09
-1.153846086e-09
-3.122755517e-09
5.620644895e-10
-1.106784168e-09
-2.023796754e-09
-1.867826381e-09
-2.391813162e-09
1.254655178e-09
1.687503961e-09
1.674610675e-09
-1.092164938
0
0
0
0
0
0
0
0
0
0
0
0
0
0
0
0
0
0
0
-6.034601292e-09
-1.247405893e-08
-5.468986423e-09
8.504683685e-09
3.852355779e-09
-1.102311033e-08
-1.408118181e-08
-5.115229897e-09
4.592399728e-10
-3.041909253e-09
-4.145945867e-09
5.148575204e-09
1.163272527e-08
1.973169202e-09
-8.296880926e-09
-2.473941631e-10
9.711406787e-09
2.854789964e-09
-1.996386127e-09
7.64986883e-09
1.02229637e-08
1.789468253e-10
-6.310524381e-09
-5.120006881e-09
7.780743893e-10
-6.746162891e-10
4.108964346e-09
2.921176661e-09
5.433263185e-09
3.853677097e-09
4.155934701e-10
-5.405259373e-09
-8.646525501e-10
-3.199188366e-09
-2.44187898e-09
-1.058010855e-09
-6.632211367e-10
4.154966474e-09
4.027004493e-09
-2.159206087e-10
-1.816909859
0
0
0
0
0
0
0
0
0
0
0
0
0
0
0
0
0
0
0
-1.702964128e-08
-1.606016361e-08
1.835252983e-10
1.39359459e-08
5.07294608e-09
-8.592801212e-09
-7.975046118e-09
2.029512456e-09
6.58738502e-09
1.628685321e-09
-1.07634096e-09
6.993317314e-09
1.341225382e-08
4.838020413e-09
-4.372520872e-09
3.710596729e-09
1.33595023e-08
5.359999636e-09
-4.363127283e-09
-5.980861888e-10
2.079050938e-09
-4.532595846e-09
-9.281415671e-09
-7.322921912e-09
2.512009872e-10
-4.460139217e-10
2.285401915e-09
5.877499433e-09
-6.271189311e-10
1.39685687e-10
1.73388692e-09
-7.904224648e-09
-3.215438514e-09
-3.628478034e-09
-1.181796625e-09
1.35199175e-09
7.472127007e-10
2.63497418e-09
5.419752482e-10
-2.095729104e-09
-2.122060343
0
0
0
0
0
0
0
0
0
0
0
0
0
0
0
0
0
0
0
-2.425795584e-08
-1.463764026e-08
6.099726685e-09
1.369002221e-08
1.524246002e-09
-7.880146195e-09
-3.483232655e-09
6.652294997e-09
1.012296994e-08
3.100545469e-09
-3.386607507e-09
1.297222409e-09
7.761075702e-09
2.215052081e-09
-5.010619386e-09
2.408298969e-09
1.26915419e-08
7.833380432e-09
-2.499897751e-09
-3.733345375e-09
-1.635693245e-09
-4.88515108e-09
-1.002900412e-08
-9.324268926e-09
-1.151395152e-09
1.375075e-09
-1.0855782e-09
5.231396121e-09
7.269418319e-11
-4.791213574e-09
-6.253608216e-10
-5.71618154e-09
-1.73942583e-09
-1.019171559e-09
6.394636048e-10
2.278982043e-09
-7.78185994e-10
-2.271621202e-09
-3.781811567e-09
-1.759191667e-09
-1.557371143
0
0
0
0
0
0
0
0
0
0
0
0
0
0
0
0
0
0
0
-2.254459776e-08
-6.825137843e-09
1.039492749e-08
8.916349342e-09
-3.145657876e-09
-6.882604952e-09
-8.470928532e-10
8.158826259e-09
1.151692081e-08
3.689013591e-09
-6.302460428e-09
-5.024018291e-09
2.36465301e-09
1.139077431e-09
-4.587707449e-09
-6.387418089e-10
7.990617709e-09
7.186823915e-09
-7.123631614e-10
-5.195794688e-09
-4.162597732e-09
-3.495414109e-09
-7.466610229e-09
-8.155263615e-09
-1.698656359e-09
2.51965748e-09
-8.259247197e-10
6.18297927e-10
-1.299173812e-09
-2.420358002e-09
1.751897452e-10
-1.665337524e-10
2.27140061e-09
2.206056572e-09
9.127885068e-10
6.816436445e-10
-2.89622134e-09
-4.570385786e-09
-3.26129815e-09
3.770734617e-10
-0.7602845768
0
0
0
0
0
0
0
0
0
0
0
0
0
0
0
0
0
0
0
-1.373340984e-08
2.61973763e-09
1.006010221e-08
1.826370812e-09
-5.594404903e-09
-4.67178928e-09
-4.88159443e-10
6.28829975e-09
1.090363504e-08
4.377531761e-09
-7.173534645e-09
-7.829290686e-09
1.650766447e-09
5.693570832e-09
1.329973882e-09
-2.198534108e-10
3.772558356e-09
5.340578922e-09
8.104081685e-10
-5.010779168e-09
-5.239965163e-09
-2.129805739e-09
-4.601964699e-09
-6.212635956e-09
-1.794708895e-09
1.563368127e-10
5.676449405e-10
2.941609161e-09
-9.009880645e-10
2.726029414e-09
3.086892708e-09
4.225993759e-09
4.865318811e-09
3.543583583e-09
2.269458545e-10
-3.031103188e-10
-1.750154201e-09
-1.457695464e-09
1.436551742e-09
2.286184753e-09
-0.3486623941
0
0
0
0
0
0
0
0
0
0
0
0
0
0
0
0
0
0
0
-3.548645024e-09
7.272057329e-09
3.94320753e-09
-4.786266824e-09
-4.436557891e-09
-1.867850063e-09
-2.649530709e-09
1.396282409e-09
7.999690337e-09
4.163947345e-09
-7.008949856e-09
-8.392979749e-09
2.970255298e-09
1.184171567e-08
9.312745702e-09
2.882328244e-09
1.482611e-09
3.697493752e-09
2.029178506e-09
-4.185640431e-09
-5.830193492e-09
-1.849157477e-09
-2.33678494e-09
-2.887780932e-09
1.92703078e-09
1.310845201e-09
1.418549222e-09
5.889711043e-09
3.015393219e-10
4.834187158e-09
4.289361933e-09
4.871581796e-09
4.863025582e-09
3.945536363e-09
1.045240124e-09
1.39363157e-09
2.165078594e-09
3.670366024e-09
5.504543834e-09
-1.653043438e-09
-137.2695829
0
0
0
0
0
0
0
0
0
0
0
0
0
0
0
0
0
0
0
3.415297951e-09
4.874786224e-09
-4.729475245e-09
-7.331863989e-09
7.932156638e-10
1.772682182e-09
-4.730179939e-09
-2.742215061e-09
5.794415636e-09
5.101791621e-09
-4.072295394e-09
-5.696838083e-09
5.28317375e-09
1.594617548e-08
1.459366718e-08
5.042414852e-09
-5.798296664e-10
1.597428387e-09
2.60790211e-09
-2.453955429e-09
-4.588313957e-09
-8.380096346e-10
-8.035565281e-11
5.393422127e-10
4.712362582e-09
2.106498277e-09
2.131811813e-10
3.477189285e-09
-1.373686112e-09
1.981396257e-09
2.794355954e-09
3.368357584e-09
4.102577862e-09
4.644147388e-09
2.994172547e-09