/*--------------------------------*- C++ -*----------------------------------*\
  =========                 |
  \\      /  F ield         | OpenFOAM: The Open Source CFD Toolbox
   \\    /   O peration     | Website:  https://openfoam.org
    \\  /    A nd           | Version:  6
     \\/     M anipulation  |
\*---------------------------------------------------------------------------*/
FoamFile
{
    version     2.0;
    format      ascii;
    class       volScalarField;
    location    "0.0028";
    object      TRHS;
}
// * * * * * * * * * * * * * * * * * * * * * * * * * * * * * * * * * * * * * //

dimensions      [1 -1 -3 0 0 0 0];

internalField   nonuniform List<scalar> 
9600
(
1.818631889e-09
1.727241892e-09
1.666162758e-09
1.620630966e-09
1.602959609e-09
1.595570968e-09
1.584285487e-09
1.575968609e-09
1.558271056e-09
1.539068884e-09
1.506597095e-09
1.469101405e-09
1.414430727e-09
1.350348334e-09
1.263617627e-09
1.161082209e-09
1.02825236e-09
8.707254926e-10
6.721404804e-10
4.359029759e-10
1.42856311e-10
-2.0630381e-10
-6.334742881e-10
-1.140463747e-09
-1.752180167e-09
-2.474180803e-09
-3.336391776e-09
-4.349867175e-09
-5.549709445e-09
-6.950715165e-09
-8.59053873e-09
-1.04864924e-08
-1.268037878e-08
-1.519528514e-08
-1.807867824e-08
-2.135672483e-08
-2.507656646e-08
-2.926246991e-08
-3.396063641e-08
-3.919541576e-08
-4.501100081e-08
-5.142423983e-08
-5.846669159e-08
-6.614280496e-08
-7.447777087e-08
-8.347804125e-08
-9.317463375e-08
-1.035773495e-07
-1.147156634e-07
-1.265996563e-07
-1.392735923e-07
-1.527824491e-07
-1.672222196e-07
-1.827046624e-07
-1.99424218e-07
-2.176608398e-07
-2.379397347e-07
-2.612565779e-07
-2.895431696e-07
-3.2545283e-07
-3.699173796e-07
-4.113456503e-07
-3.992011971e-07
-2.82727015e-07
-1.029518209e-07
-8.158604123e-07
-0.00163500686
1294.970118
0
0
0
0
0
0
0
0
0
0
0
0
0
0
0
0
0
0
0
0
0
0
0
0
0
0
0
0
0
0
0
0
0
0
0
0
0
0
0
0
0
0
0
0
771.6914609
-0.0009749526454
2.655331058e-07
5.686920238e-07
3.811016029e-07
-8.180803254e-09
-2.802372185e-07
-4.220256324e-08
1.950655819e-09
1.839280713e-09
1.762325313e-09
1.700612156e-09
1.670887612e-09
1.650714009e-09
1.63068837e-09
1.612488408e-09
1.588616996e-09
1.561680894e-09
1.52479146e-09
1.480807775e-09
1.422496691e-09
1.352138114e-09
1.261600151e-09
1.152273986e-09
1.014842449e-09
8.492866837e-10
6.443473306e-10
3.976835661e-10
9.540724083e-11
-2.673034933e-10
-7.068126327e-10
-1.230521644e-09
-1.858104527e-09
-2.601238435e-09
-3.484690449e-09
-4.525118075e-09
-5.751259725e-09
-7.182324615e-09
-8.849156614e-09
-1.07740987e-08
-1.299290975e-08
-1.553354278e-08
-1.843551353e-08
-2.172692554e-08
-2.544453531e-08
-2.961338044e-08
-3.426836973e-08
-3.943238271e-08
-4.513404084e-08
-5.138384356e-08
-5.819416331e-08
-6.556109206e-08
-7.348839882e-08
-8.196907344e-08
-9.100418247e-08
-1.005804675e-07
-1.106912361e-07
-1.213234428e-07
-1.324876368e-07
-1.442045859e-07
-1.565261008e-07
-1.69509156e-07
-1.832174785e-07
-1.976847769e-07
-2.130229276e-07
-2.298445795e-07
-2.504093292e-07
-2.805194329e-07
-3.304245471e-07
-3.982571376e-07
-4.081893274e-07
-3.466295588e-07
8.836748316e-07
-0.005374242659
2131.937268
0
0
0
0
0
0
0
0
0
0
0
0
0
0
0
0
0
0
0
0
0
0
0
0
0
0
0
0
0
0
0
0
0
0
0
0
0
0
0
0
0
0
0
0
0
0
1865.889429
-0.004703110363
8.672761513e-07
2.621529277e-07
3.084178713e-08
-3.187725494e-07
-7.986116564e-08
2.086891172e-09
1.953735632e-09
1.860544715e-09
1.781539771e-09
1.739576132e-09
1.70569346e-09
1.676968005e-09
1.648139604e-09
1.618288639e-09
1.582990213e-09
1.541974648e-09
1.490906884e-09
1.429246569e-09
1.352030248e-09
1.257992107e-09
1.141244718e-09
9.994386082e-10
8.251400669e-10
6.139800645e-10
3.561103586e-10
4.470418889e-11
-3.32457458e-10
-7.844780397e-10
-1.326273376e-09
-1.970522896e-09
-2.736770601e-09
-3.642759452e-09
-4.712462428e-09
-5.966528284e-09
-7.430584504e-09
-9.127151961e-09
-1.10854989e-08
-1.333364177e-08
-1.5905994e-08
-1.883245255e-08
-2.214495557e-08
-2.58684475e-08
-3.00304301e-08
-3.465280179e-08
-3.975844513e-08
-4.535897468e-08
-5.146014962e-08
-5.80532216e-08
-6.512561509e-08
-7.265510805e-08
-8.061836075e-08
-8.898054436e-08
-9.770189711e-08
-1.067332042e-07
-1.16033297e-07
-1.255722492e-07
-1.353469778e-07
-1.453736454e-07
-1.556718286e-07
-1.661745252e-07
-1.765775398e-07
-1.861660077e-07
-1.938911553e-07
-1.992503761e-07
-2.075525767e-07
-2.389643643e-07
-3.432802864e-07
-5.508487331e-07
4.867125602e-07
1.078726714e-06
-0.05127547582
5154.293148
0
0
0
0
0
0
0
0
0
0
0
0
0
0
0
0
0
0
0
0
0
0
0
0
0
0
0
0
0
0
0
0
0
0
0
0
0
0
0
0
0
0
0
0
0
0
4637.231481
-0.0487239241
1.955366014e-06
1.505140047e-06
5.342196212e-08
-3.132270085e-07
-4.652779187e-08
2.224855232e-09
2.071134878e-09
1.957908442e-09
1.86317562e-09
1.805613621e-09
1.759972504e-09
1.719506611e-09
1.682357529e-09
1.64372013e-09
1.602596128e-09
1.554714693e-09
1.499196058e-09
1.431446136e-09
1.350046338e-09
1.249718606e-09
1.128262442e-09
9.792413067e-10
7.988652662e-10
5.785460012e-10
3.120821763e-10
-1.150945338e-11
-4.006255234e-10
-8.684911412e-10
-1.42628826e-09
-2.091130335e-09
-2.879020298e-09
-3.811997994e-09
-4.909844691e-09
-6.196605828e-09
-7.693081688e-09
-9.425273525e-09
-1.141822988e-08
-1.370374973e-08
-1.63112392e-08
-1.92723919e-08
-2.26117637e-08
-2.635425643e-08
-3.051896354e-08
-3.512640525e-08
-4.018843743e-08
-4.571118432e-08
-5.168470453e-08
-5.809004605e-08
-6.489384915e-08
-7.205659911e-08
-7.952416421e-08
-8.723194371e-08
-9.509726089e-08
-1.030316282e-07
-1.109457138e-07
-1.187711529e-07
-1.264705844e-07
-1.340560121e-07
-1.41559315e-07
-1.489187498e-07
-1.556625787e-07
-1.602408026e-07
-1.584256869e-07
-1.408005025e-07
-8.616780271e-08
4.571728353e-08
2.850148559e-07
2.219323319e-07
3.865226703e-07
-2.354283989e-06
15187.05576
0
0
0
0
0
0
0
0
0
0
0
0
0
0
0
0
0
0
0
0
0
0
0
0
0
0
0
0
0
0
0
0
0
0
0
0
0
0
0
0
0
0
0
0
0
0
0
0
14691.51385
-1.790432429e-06
2.274634722e-06
8.083718168e-07
1.828178911e-07
1.083814111e-07
2.365462143e-09
2.188117033e-09
2.055318279e-09
1.942572288e-09
1.870311127e-09
1.810996065e-09
1.760056189e-09
1.712940724e-09
1.66701955e-09
1.618525907e-09
1.565383955e-09
1.503864839e-09
1.431634492e-09
1.344493772e-09
1.239529762e-09
1.111788284e-09
9.572115322e-10
7.691238388e-10
5.412544068e-10
2.644780978e-10
-6.97959317e-11
-4.727825496e-10
-9.552775439e-10
-1.531438049e-09
-2.216166745e-09
-3.028560572e-09
-3.988175688e-09
-5.117269514e-09
-6.436699364e-09
-7.969463495e-09
-9.738660548e-09
-1.177213775e-08
-1.409884931e-08
-1.674989387e-08
-1.975207823e-08
-2.312959325e-08
-2.690128848e-08
-3.108517934e-08
-3.569455009e-08
-4.073739946e-08
-4.620847337e-08
-5.208922509e-08
-5.83444266e-08
-6.492603854e-08
-7.176960176e-08
-7.879408065e-08
-8.589507605e-08
-9.294712168e-08
-9.980689617e-08
-1.063284527e-07
-1.123811128e-07
-1.17884712e-07
-1.228492271e-07
-1.274017696e-07
-1.317422239e-07
-1.359438622e-07
-1.392235456e-07
-1.380121341e-07
-1.199749013e-07
-5.178507829e-08
1.401595214e-07
5.110152043e-07
1.351896956e-06
-0.004184962244
1660.084553
0
0
0
0
0
0
0
0
0
0
0
0
0
0
0
0
0
0
0
0
0
0
0
0
0
0
0
0
0
0
0
0
0
0
0
0
0
0
0
0
0
0
0
0
0
0
0
0
0
0
1129.230412
-0.002845804654
1.499768913e-06
-1.821728871e-07
-1.413593335e-07
2.505781624e-09
2.304406678e-09
2.150082177e-09
2.019432644e-09
1.931128544e-09
1.858742993e-09
1.796354428e-09
1.740188995e-09
1.686206433e-09
1.631384198e-09
1.572207946e-09
1.505750928e-09
1.428267754e-09
1.33647216e-09
1.226134654e-09
1.093222007e-09
9.323227882e-10
7.375977243e-10
5.013062027e-10
2.151873131e-10
-1.307658013e-10
-5.468364703e-10
-1.04524635e-09
-1.639376868e-09
-2.345700865e-09
-3.182519604e-09
-4.170676373e-09
-5.331077296e-09
-6.685466411e-09
-8.255512101e-09
-1.006568531e-08
-1.214294176e-08
-1.451730085e-08
-1.721763373e-08
-2.02699464e-08
-2.369479773e-08
-2.750961508e-08
-3.172852355e-08
-3.636218162e-08
-4.141198764e-08
-4.686610535e-08
-5.269502271e-08
-5.885205361e-08
-6.527181613e-08
-7.186879866e-08
-7.85311385e-08
-8.511610633e-08
-9.144704344e-08
-9.731762255e-08
-1.025020606e-07
-1.067796129e-07
-1.099809257e-07
-1.120625982e-07
-1.132063155e-07
-1.139546104e-07
-1.153542774e-07
-1.188009525e-07
-1.239094981e-07
-1.225568095e-07
-6.921883799e-08
1.012990567e-07
1.311664339e-06
1.792396195e-06
-0.01653039611
5404.378824
0
0
0
0
0
0
0
0
0
0
0
0
0
0
0
0
0
0
0
0
0
0
0
0
0
0
0
0
0
0
0
0
0
0
0
0
0
0
0
0
0
0
0
0
0
0
0
0
0
0
4327.136675
-0.0109079601
3.926869642e-06
7.897418087e-07
-3.512814167e-07
2.644428529e-09
2.417133735e-09
2.24075281e-09
2.091229923e-09
1.986927359e-09
1.900978115e-09
1.827636859e-09
1.762235213e-09
1.700843078e-09
1.639585294e-09
1.5750723e-09
1.503564368e-09
1.421554623e-09
1.325030053e-09
1.210070068e-09
1.071933089e-09
9.054218532e-10
7.038936104e-10
4.597822043e-10
1.640142133e-10
-1.93148398e-10
-6.227743022e-10
-1.136861624e-09
-1.749680692e-09
-2.477588565e-09
-3.339726699e-09
-4.356483475e-09
-5.549253577e-09
-6.939166497e-09
-8.548621577e-09
-1.040206822e-08
-1.252744186e-08
-1.495409739e-08
-1.771042622e-08
-2.082026375e-08
-2.430289819e-08
-2.817377718e-08
-3.244587465e-08
-3.712675806e-08
-4.221397933e-08
-4.768909806e-08
-5.351515295e-08
-5.96349768e-08
-6.596993794e-08
-7.241476601e-08
-7.883029912e-08
-8.50351907e-08
-9.080041134e-08
-9.584701379e-08
-9.985010375e-08
-1.024589748e-07
-1.033454566e-07
-1.022882628e-07
-9.931092823e-08
-9.495180568e-08
-9.076794491e-08
-8.947135657e-08
-9.424778496e-08
-9.179174134e-08
-1.442558944e-09
1.900284858e-07
1.232128936e-06
9.281541553e-07
1153.460649
0
0
0
0
0
0
0
0
0
0
0
0
0
0
0
0
0
0
0
0
0
0
0
0
0
0
0
0
0
0
0
0
0
0
0
0
0
0
0
0
0
0
0
0
0
0
0
0
0
0
0
0
-0.1846255101
2.10386053e-06
1.935150827e-06
-4.239862198e-07
2.778373312e-09
2.524141902e-09
2.324601965e-09
2.155930146e-09
2.035288817e-09
1.936090507e-09
1.851897233e-09
1.777838317e-09
1.709334562e-09
1.642298888e-09
1.572750902e-09
1.496868464e-09
1.410660498e-09
1.31013511e-09
1.19089788e-09
1.048211471e-09
8.763376024e-10
6.685334627e-10
4.166977998e-10
1.116909379e-10
-2.567109704e-10
-6.995751076e-10
-1.229464484e-09
-1.86078117e-09
-2.610484601e-09
-3.497730393e-09
-4.543327502e-09
-5.768438044e-09
-7.194691001e-09
-8.844738695e-09
-1.074396741e-08
-1.29205456e-08
-1.540391927e-08
-1.822136837e-08
-2.139579642e-08
-2.494544669e-08
-2.888555135e-08
-3.322839095e-08
-3.798028706e-08
-4.313581214e-08
-4.867263392e-08
-5.454860223e-08
-6.070026725e-08
-6.703968653e-08
-7.344742278e-08
-7.976251339e-08
-8.577091727e-08
-9.119465076e-08
-9.568035351e-08
-9.879290894e-08
-1.000229077e-07
-9.882129473e-08
-9.466088131e-08
-8.714425726e-08
-7.626304655e-08
-6.297373359e-08
-5.189075778e-08
-5.42836496e-08
-9.734871603e-08
-1.759655499e-07
3.15260741e-07
8.510351868e-07
-0.02765243713
4270.465397
0
0
0
0
0
0
0
0
0
0
0
0
0
0
0
0
0
0
0
0
0
0
0
0
0
0
0
0
0
0
0
0
0
0
0
0
0
0
0
0
0
0
0
0
0
0
0
0
0
0
0
0
1533.943332
-0.003867608171
4.176699044e-06
-3.440564131e-07
2.904492456e-09
2.621904892e-09
2.398673992e-09
2.210549722e-09
2.0737692e-09
1.961609767e-09
1.867213341e-09
1.785099138e-09
1.710259244e-09
1.638091221e-09
1.564332507e-09
1.48474546e-09
1.395188907e-09
1.291317182e-09
1.168611738e-09
1.021914041e-09
8.452858799e-10
6.315737379e-10
3.724558554e-10
5.846137235e-11
-3.207432556e-10
-7.765894151e-10
-1.321826962e-09
-1.971320128e-09
-2.742305957e-09
-3.65432736e-09
-4.728254194e-09
-5.985616659e-09
-7.448328683e-09
-9.139891911e-09
-1.108639707e-08
-1.331657358e-08
-1.585960555e-08
-1.874218985e-08
-2.198660788e-08
-2.561128978e-08
-2.963216393e-08
-3.406218206e-08
-3.890738971e-08
-4.41611645e-08
-4.979955503e-08
-5.577899553e-08
-6.203452772e-08
-6.847514202e-08
-7.497496406e-08
-8.136050945e-08
-8.739637824e-08
-9.276730707e-08
-9.705655831e-08
-9.972314707e-08
-1.00093096e-07
-9.737326359e-08
-9.068600035e-08
-7.908722706e-08
-6.136091471e-08
-3.508480701e-08
7.33658455e-09
8.649463189e-08
2.478730135e-07
-7.294979881e-08
6.381004307e-07
-1.81150265e-06
6698.94614
0
0
0
0
0
0
0
0
0
0
0
0
0
0
0
0
0
0
0
0
0
0
0
0
0
0
0
0
0
0
0
0
0
0
0
0
0
0
0
0
0
0
0
0
0
0
0
0
0
0
0
0
0
0
-0.2400292382
4.138718449e-06
-0.05859485617
3.018620335e-09
2.706724496e-09
2.459241663e-09
2.251735238e-09
2.099207627e-09
1.974828751e-09
1.871095195e-09
1.781950166e-09
1.701783818e-09
1.625578473e-09
1.548623633e-09
1.466424461e-09
1.374500815e-09
1.268290495e-09
1.142933495e-09
9.930152367e-10
8.122176341e-10
5.931509208e-10
3.272103298e-10
4.788729506e-12
-3.846946117e-10
-8.528383248e-10
-1.412756338e-09
-2.079637069e-09
-2.871119945e-09
-3.80701113e-09
-4.908511978e-09
-6.197442865e-09
-7.696400802e-09
-9.429636312e-09
-1.142407082e-08
-1.370877644e-08
-1.631284781e-08
-1.926264281e-08
-2.258065853e-08
-2.628637563e-08
-3.039739072e-08
-3.492819363e-08
-3.988571345e-08
-4.526391014e-08
-5.103999174e-08
-5.717304682e-08
-6.360194932e-08
-7.023997103e-08
-7.696422108e-08
-8.360212904e-08
-8.991379473e-08
-9.55686825e-08
-1.001107455e-07
-1.029170614e-07
-1.031614546e-07
-9.981058182e-08
-9.170590061e-08
-7.784946193e-08
-5.795744168e-08
-3.218858295e-08
2.050201789e-09
6.867638007e-08
2.605105776e-07
6.08474982e-07
1.685415753e-06
1.627883789e-06
-0.009267060189
0
0
0
0
0
0
0
0
0
0
0
0
0
0
0
0
0
0
0
0
0
0
0
0
0
0
0
0
0
0
0
0
0
0
0
0
0
0
0
0
0
0
0
0
0
0
0
0
0
0
0
0
0
0
-0.06320962147
-1.59385737e-07
-0.0314333357
3.115807805e-09
2.773573641e-09
2.501752442e-09
2.275302893e-09
2.107871488e-09
1.972420065e-09
1.860698296e-09
1.765934986e-09
1.681940172e-09
1.603134647e-09
1.524448184e-09
1.441000801e-09
1.348028017e-09
1.240630955e-09
1.113642283e-09
9.613198338e-10
7.770901776e-10
5.532947311e-10
2.812174079e-10
-4.892674393e-11
-4.478316033e-10
-9.273508398e-10
-1.500894616e-09
-2.184063249e-09
-2.994870634e-09
-3.953463392e-09
-5.081352385e-09
-6.400818283e-09
-7.935079127e-09
-9.709242022e-09
-1.17509284e-08
-1.40895652e-08
-1.67541773e-08
-1.977125388e-08
-2.316413918e-08
-2.695419209e-08
-3.11614581e-08
-3.5802655e-08
-4.088655154e-08
-4.640925237e-08
-5.23519587e-08
-5.868034375e-08
-6.534280538e-08
-7.226408693e-08
-7.933502289e-08
-8.639877957e-08
-9.323395143e-08
-9.952656759e-08
-1.048243062e-07
-1.084659821e-07
-1.094869398e-07
-1.065042479e-07
-9.765954282e-08
-8.093923729e-08
-5.553003223e-08
-2.614465519e-08
-9.747655398e-09
-4.022830604e-08
-4.408316726e-08
1.334896909e-06
2.430872826e-06
-0.06628728772
18517.92171
0
0
0
0
0
0
0
0
0
0
0
0
0
0
0
0
0
0
0
0
0
0
0
0
0
0
0
0
0
0
0
0
0
0
0
0
0
0
0
0
0
0
0
0
0
0
0
0
0
0
0
0
0
0
12095.21579
-0.03049019452
-8.128528217e-07
3.189894612e-09
2.816757209e-09
2.520748719e-09
2.27624533e-09
2.095294253e-09
1.950486583e-09
1.832697711e-09
1.734336635e-09
1.648506517e-09
1.569091834e-09
1.490538379e-09
1.407591376e-09
1.315112397e-09
1.207872591e-09
1.080377264e-09
9.266088232e-10
7.397643423e-10
5.120807929e-10
2.347180855e-10
-1.021398575e-10
-5.09371141e-10
-9.99038559e-10
-1.584931708e-09
-2.283015078e-09
-3.111715861e-09
-4.091499204e-09
-5.244214253e-09
-6.592580476e-09
-8.16048178e-09
-9.973738009e-09
-1.206057783e-08
-1.445070386e-08
-1.717333915e-08
-2.025550029e-08
-2.372203594e-08
-2.759669852e-08
-3.190232928e-08
-3.665825266e-08
-4.187581176e-08
-4.755488949e-08
-5.368300128e-08
-6.023593696e-08
-6.717587912e-08
-7.444559054e-08
-8.195890549e-08
-8.959059857e-08
-9.71627163e-08
-1.044205245e-07
-1.109839992e-07
-1.162595584e-07
-1.192726147e-07
-1.183395457e-07
-1.104382764e-07
-9.011304842e-08
-4.788604146e-08
3.060570835e-08
1.675045679e-07
3.937779341e-07
3.451825395e-07
8.81593374e-07
-1.349121311e-06
7778.385768
0
0
0
0
0
0
0
0
0
0
0
0
0
0
0
0
0
0
0
0
0
0
0
0
0
0
0
0
0
0
0
0
0
0
0
0
0
0
0
0
0
0
0
0
0
0
0
0
0
0
0
0
0
0
0
0
1198.276722
-0.01059671338
3.233417543e-09
2.828908185e-09
2.509507939e-09
2.248523398e-09
2.056175125e-09
1.904505548e-09
1.78334728e-09
1.684119846e-09
1.599157209e-09
1.521679102e-09
1.445627386e-09
1.365270093e-09
1.275106565e-09
1.169524662e-09
1.042778922e-09
8.886225168e-10
7.00181059e-10
4.696199212e-10
1.881147433e-10
-1.542512891e-10
-5.684538757e-10
-1.066871756e-09
-1.663615425e-09
-2.375081992e-09
-3.22000882e-09
-4.219187624e-09
-5.394706877e-09
-6.769715167e-09
-8.368598793e-09
-1.021785354e-08
-1.234619506e-08
-1.478368214e-08
-1.755985296e-08
-2.070269976e-08
-2.423889365e-08
-2.819487187e-08
-3.25963305e-08
-3.746528358e-08
-4.281614487e-08
-4.865357594e-08
-5.497332308e-08
-6.176345306e-08
-6.900303055e-08
-7.665656334e-08
-8.466757192e-08
-9.295341201e-08
-1.014011712e-07
-1.098562738e-07
-1.180960738e-07
-1.257734183e-07
-1.322919043e-07
-1.364927077e-07
-1.358688138e-07
-1.245936897e-07
-8.90718877e-08
2.152326204e-09
2.140426834e-07
6.341557859e-07
3.10189498e-07
1.476852379e-06
-7.783837645e-07
-0.5625962439
0
0
0
0
0
0
0
0
0
0
0
0
0
0
0
0
0
0
0
0
0
0
0
0
0
0
0
0
0
0
0
0
0
0
0
0
0
0
0
0
0
0
0
0
0
0
0
0
0
0
0
0
0
0
0
0
-0.3421671778
-0.001748194708
3.237115087e-09
2.801412123e-09
2.459945979e-09
2.184944988e-09
1.984286069e-09
1.829313778e-09
1.708466516e-09
1.612062351e-09
1.53145251e-09
1.459151215e-09
1.388439466e-09
1.313158597e-09
1.22732603e-09
1.125100964e-09
1.000485893e-09
8.4720594e-10
6.583616936e-10
4.261968791e-10
1.418743719e-10
-2.045488353e-10
-6.242747135e-10
-1.129915307e-09
-1.735965482e-09
-2.45911828e-09
-3.318411279e-09
-4.334784148e-09
-5.530567916e-09
-6.929158604e-09
-8.555435644e-09
-1.043636564e-08
-1.260112778e-08
-1.508012102e-08
-1.790351659e-08
-2.110045175e-08
-2.469962177e-08
-2.87299487e-08
-3.321965396e-08
-3.819328853e-08
-4.366855963e-08
-4.965572503e-08
-5.61595543e-08
-6.318135933e-08
-7.071755349e-08
-7.875545526e-08
-8.726959584e-08
-9.622329845e-08
-1.055742633e-07
-1.152821011e-07
-1.253168842e-07
-1.356799798e-07
-1.464464525e-07
-1.578268206e-07
-1.701776658e-07
-1.83573769e-07
-1.952988721e-07
-1.912303561e-07
-1.198480071e-07
1.767600119e-07
1.738675172e-06
3.414153496e-06
-0.03520209029
13965.70375
0
0
0
0
0
0
0
0
0
0
0
0
0
0
0
0
0
0
0
0
0
0
0
0
0
0
0
0
0
0
0
0
0
0
0
0
0
0
0
0
0
0
0
0
0
0
0
0
0
0
0
0
0
0
0
0
25082.7081
-0.1147723256
3.189691646e-09
2.723267615e-09
2.362208299e-09
2.076860751e-09
1.872435543e-09
1.719068671e-09
1.603566265e-09
1.514797502e-09
1.443008134e-09
1.379811222e-09
1.317843286e-09
1.250412755e-09
1.171215537e-09
1.074182335e-09
9.533011048e-10
8.023346646e-10
6.145328278e-10
3.822126671e-10
9.658956635e-11
-2.524036134e-10
-6.761261058e-10
-1.187491998e-09
-1.80122028e-09
-2.534264872e-09
-3.40575764e-09
-4.436750829e-09
-5.649622052e-09
-7.067998518e-09
-8.717062672e-09
-1.062422146e-08
-1.281905762e-08
-1.533241066e-08
-1.819510852e-08
-2.143752712e-08
-2.509014822e-08
-2.918395879e-08
-3.374919873e-08
-3.881254174e-08
-4.439497976e-08
-5.051246489e-08
-5.717891236e-08
-6.440823162e-08
-7.221311544e-08
-8.060152342e-08
-8.957619545e-08
-9.91404507e-08
-1.093109237e-07
-1.201340869e-07
-1.317143482e-07
-1.44275072e-07
-1.583019397e-07
-1.748591788e-07
-1.962654259e-07
-2.272275489e-07
-2.764215366e-07
-3.530040763e-07
-4.426257629e-07
-3.999525896e-07
1.330305506e-06
3.316988123e-06
-0.06428743369
16739.66293
0
0
0
0
0
0
0
0
0
0
0
0
0
0
0
0
0
0
0
0
0
0
0
0
0
0
0
0
0
0
0
0
0
0
0
0
0
0
0
0
0
0
0
0
0
0
0
0
0
0
0
0
0
0
0
0
-0.1586430943
-2.088435165e-06
3.076967959e-09
2.581329691e-09
2.204347465e-09
1.91412818e-09
1.712321444e-09
1.56736324e-09
1.463889115e-09
1.388981456e-09
1.331525425e-09
1.282170252e-09
1.232847917e-09
1.176422331e-09
1.106364615e-09
1.016604991e-09
9.012266162e-10
7.542437464e-10
5.690793029e-10
3.382078892e-10
5.281101634e-11
-2.972548509e-10
-7.235555967e-10
-1.239151148e-09
-1.858923423e-09
-2.599852267e-09
-3.481096479e-09
-4.523618064e-09
-5.749841621e-09
-7.183463238e-09
-8.849960603e-09
-1.077704325e-08
-1.299466653e-08
-1.553408028e-08
-1.842679079e-08
-2.170419112e-08
-2.539808357e-08
-2.954079264e-08
-3.416383002e-08
-3.92955322e-08
-4.495991723e-08
-5.117837965e-08
-5.797307383e-08
-6.536889552e-08
-7.339212658e-08
-8.20681595e-08
-9.142290012e-08
-1.014915547e-07
-1.123320114e-07
-1.240402003e-07
-1.367679581e-07
-1.507579823e-07
-1.664152074e-07
-1.844551813e-07
-2.06158758e-07
-2.336687093e-07
-2.697881543e-07
-3.089875121e-07
-3.049447473e-07
-4.577779622e-07
2.202569625e-07
-1.536034677e-06
8763.625254
0
0
0
0
0
0
0
0
0
0
0
0
0
0
0
0
0
0
0
0
0
0
0
0
0
0
0
0
0
0
0
0
0
0
0
0
0
0
0
0
0
0
0
0
0
0
0
0
0
0
0
0
0
0
0
0
0
0
-0.4203112882
2.881310676e-09
2.358821153e-09
1.971785341e-09
1.684686482e-09
1.49461063e-09
1.367338674e-09
1.284681193e-09
1.231485008e-09
1.195096013e-09
1.165107313e-09
1.132857057e-09
1.090902764e-09
1.032761969e-09
9.525178441e-10
8.446395724e-10
7.034310088e-10
5.226214478e-10
2.947582967e-10
1.1055907e-11
-3.387602204e-10
-7.663103053e-10
-1.2847016e-09
-1.908758868e-09
-2.655363171e-09
-3.543512358e-09
-4.594080068e-09
-5.829396765e-09
-7.273252392e-09
-8.951258817e-09
-1.089140599e-08
-1.312389143e-08
-1.568030394e-08
-1.859257335e-08
-2.189269604e-08
-2.561308222e-08
-2.978657887e-08
-3.444517256e-08
-3.961830187e-08
-4.533251473e-08
-5.16138458e-08
-5.849115196e-08
-6.599779229e-08
-7.417048994e-08
-8.304826883e-08
-9.267631851e-08
-1.031162878e-07
-1.144603114e-07
-1.268421256e-07
-1.404457444e-07
-1.555144876e-07
-1.723675947e-07
-1.914302e-07
-2.132392738e-07
-2.384541891e-07
-2.669551392e-07
-2.917682392e-07
-3.016024611e-07
-1.023017063e-06
-1.05139283e-06
-1.738180669e-06
-0.4379376621
0
0
0
0
0
0
0
0
0
0
0
0
0
0
0
0
0
0
0
0
0
0
0
0
0
0
0
0
0
0
0
0
0
0
0
0
0
0
0
0
0
0
0
0
0
0
0
0
0
0
0
0
0
0
0
0
0
0
0
2.580061865e-09
2.035062873e-09
1.646716824e-09
1.374504605e-09
1.208942715e-09
1.111941059e-09
1.061485584e-09
1.039781014e-09
1.032455971e-09
1.028173438e-09
1.017868648e-09
9.941753489e-10
9.508743001e-10
8.82578618e-10
7.842419533e-10
6.506735635e-10
4.758351973e-10
2.524396663e-10
-2.833980758e-11
-3.767423736e-10
-8.043535472e-10
-1.324087547e-09
-1.950537243e-09
-2.700328666e-09
-3.592251616e-09
-4.647023078e-09
-5.886919208e-09
-7.335714271e-09
-9.01913036e-09
-1.096522e-08
-1.320430955e-08
-1.576803673e-08
-1.868841468e-08
-2.199741317e-08
-2.572726271e-08
-2.991039847e-08
-3.457857987e-08
-3.976168752e-08
-4.548814136e-08
-5.178725502e-08
-5.869234998e-08
-6.624206237e-08
-7.447978239e-08
-8.345445288e-08
-9.322672929e-08
-1.038819908e-07
-1.155456731e-07
-1.28397319e-07
-1.426830031e-07
-1.587370805e-07
-1.770320087e-07
-1.98313222e-07
-2.239332674e-07
-2.567140542e-07
-3.023269507e-07
-3.691013773e-07
-4.555560358e-07
-2.972363409e-07
-4.536461754e-07
-0.007664364266
3040.379953
0
0
0
0
0
0
0
0
0
0
0
0
0
0
0
0
0
0
0
0
0
0
0
0
0
0
0
0
0
0
0
0
0
0
0
0
0
0
0
0
0
0
0
0
0
0
0
0
0
0
0
0
0
0
0
0
0
0
0
2.143858761e-09
1.583145725e-09
1.207251655e-09
9.672768581e-10
8.443415522e-10
7.944695471e-10
7.908011638e-10
8.124533452e-10
8.434791584e-10
8.719237859e-10
8.888382028e-10
8.873066703e-10
8.618824585e-10
8.079504153e-10
7.211974232e-10
5.969479675e-10
4.295070593e-10
2.117075206e-10
-6.516613046e-11
-4.112303042e-10
-8.3775334e-10
-1.357307792e-09
-1.984055078e-09
-2.734331466e-09
-3.626695867e-09
-4.681751807e-09
-5.921687585e-09
-7.370221929e-09
-9.05296654e-09
-1.099789841e-08
-1.323514021e-08
-1.57960814e-08
-1.871226247e-08
-2.201496744e-08
-2.573537942e-08
-2.990477913e-08
-3.455392327e-08
-3.971256075e-08
-4.540988408e-08
-5.167675671e-08
-5.854805132e-08
-6.606380805e-08
-7.426960472e-08
-8.321930186e-08
-9.298385852e-08
-1.036661641e-07
-1.154188823e-07
-1.284613187e-07
-1.430980545e-07
-1.597444889e-07
-1.789633422e-07
-2.015051488e-07
-2.282979519e-07
-2.601959432e-07
-2.965653794e-07
-3.304509607e-07
-3.355467389e-07
-2.040810424e-07
8.037725341e-08
-0.003093908619
1227.451359
0
0
0
0
0
0
0
0
0
0
0
0
0
0
0
0
0
0
0
0
0
0
0
0
0
0
0
0
0
0
0
0
0
0
0
0
0
0
0
0
0
0
0
0
0
0
0
0
0
0
0
0
0
0
0
0
0
0
0
1.533181758e-09
9.683962204e-10
6.264473361e-10
4.446462458e-10
3.898861193e-10
4.096224828e-10
4.709937265e-10
5.500768687e-10
6.298232879e-10
6.984871658e-10
7.479355628e-10
7.724445062e-10
7.677571658e-10
7.304062038e-10
6.569722285e-10
5.43402799e-10
3.843555053e-10
1.729322575e-10
-9.937451485e-11
-4.422733723e-10
-8.665919676e-10
-1.384300257e-09
-2.009154736e-09
-2.757111605e-09
-3.646627772e-09
-4.698194146e-09
-5.933900329e-09
-7.377242497e-09
-9.053555308e-09
-1.099037014e-08
-1.32173012e-08
-1.576500878e-08
-1.866405915e-08
-2.194431023e-08
-2.563525161e-08
-2.976625715e-08
-3.436658753e-08
-3.94649944e-08
-4.509019617e-08
-5.12722184e-08
-5.804408245e-08
-6.544284777e-08
-7.35110415e-08
-8.230126179e-08
-9.188635999e-08
-1.023751679e-07
-1.139303017e-07
-1.267864216e-07
-1.412698757e-07
-1.578191789e-07
-1.769843497e-07
-1.993333066e-07
-2.250625003e-07
-2.528318007e-07
-2.768574926e-07
-2.809967984e-07
-2.297524692e-07
-4.278879485e-08
3.91541248e-07
-0.001708769773
677.9935184
0
0
0
0
0
0
0
0
0
0
0
0
0
0
0
0
0
0
0
0
0
0
0
0
0
0
0
0
0
0
0
0
0
0
0
0
0
0
0
0
0
0
0
0
0
0
0
0
0
0
0
0
0
0
0
0
0
0
0
6.930914054e-10
1.439864213e-10
-1.288599897e-10
-2.130934102e-10
-1.635788154e-10
-4.480691301e-11
1.038543203e-10
2.562571058e-10
3.957205183e-10
5.119939384e-10
5.989456913e-10
6.528686738e-10
6.71303049e-10
6.522270923e-10
5.933180861e-10
4.912247326e-10
3.411025264e-10
1.363951206e-10
-1.308933661e-10
-4.699410623e-10
-8.90853312e-10
-1.40502586e-09
-2.025710965e-09
-2.768714443e-09
-3.65236535e-09
-4.697123222e-09
-5.924821955e-09
-7.358556678e-09
-9.02299283e-09
-1.094494902e-08
-1.315309393e-08
-1.567697474e-08
-1.85456025e-08
-2.178694596e-08
-2.542811424e-08
-2.94961676e-08
-3.401820011e-08
-3.9021171e-08
-4.45316239e-08
-5.057618275e-08
-5.718225496e-08
-6.437929898e-08
-7.220123073e-08
-8.069221285e-08
-8.991692873e-08
-9.997458086e-08
-1.110142409e-07
-1.232510824e-07
-1.369863278e-07
-1.526296797e-07
-1.707022289e-07
-1.917464624e-07
-2.159514762e-07
-2.420323329e-07
-2.644122552e-07
-2.674750995e-07
-2.170222046e-07
-3.31652093e-08
3.993239165e-07
-0.001707535464
677.5055455
0
0
0
0
0
0
0
0
0
0
0
0
0
0
0
0
0
0
0
0
0
0
0
0
0
0
0
0
0
0
0
0
0
0
0
0
0
0
0
0
0
0
0
0
0
0
0
0
0
0
0
0
0
0
0
0
0
0
0
-4.571557231e-10
-9.539870912e-10
-1.098478392e-09
-1.024505412e-09
-8.202222219e-10
-5.649545325e-10
-3.032567285e-10
-6.077313591e-11
1.488510894e-10
3.191263584e-10
4.474485382e-10
5.331249672e-10
5.761012036e-10
5.761408691e-10
5.321512286e-10
4.416392752e-10
3.003655621e-10
1.023932813e-10
-1.596460357e-10
-4.941517462e-10
-9.104850551e-10
-1.41943066e-09
-2.033938937e-09
-2.769684332e-09
-3.645036061e-09
-4.680256772e-09
-5.896804233e-09
-7.316979479e-09
-8.96453824e-09
-1.086510317e-08
-1.304615399e-08
-1.553566143e-08
-1.836081245e-08
-2.154714271e-08
-2.511915296e-08
-2.91010734e-08
-3.351736188e-08
-3.839200384e-08
-4.374756994e-08
-4.960435679e-08
-5.598066906e-08
-6.289413288e-08
-7.036515339e-08
-7.842280715e-08
-8.711368255e-08
-9.651195064e-08
-1.067297784e-07
-1.179289657e-07
-1.303397363e-07
-1.442915364e-07
-1.602561917e-07
-1.788984255e-07
-2.011074189e-07
-2.278546101e-07
-2.589764193e-07
-2.896957689e-07
-2.972732622e-07
-1.736310735e-07
1.028079969e-07
-0.003090310575
1226.028988
0
0
0
0
0
0
0
0
0
0
0
0
0
0
0
0
0
0
0
0
0
0
0
0
0
0
0
0
0
0
0
0
0
0
0
0
0
0
0
0
0
0
0
0
0
0
0
0
0
0
0
0
0
0
0
0
0
0
0
-2.04389756e-09
-2.415971689e-09
-2.327262637e-09
-2.000985703e-09
-1.572985076e-09
-1.136229063e-09
-7.344598231e-10
-3.866634423e-10
-9.880554797e-11
1.294060113e-10
3.008327653e-10
4.188380187e-10
4.863301164e-10
5.050878729e-10
4.754266926e-10
3.958144873e-10
2.628150116e-10
7.124326334e-11
-1.854285178e-10
-5.147715724e-10
-9.254294113e-10
-1.427728257e-09
-2.034439266e-09
-2.761294163e-09
-3.626595674e-09
-4.650329247e-09
-5.853163481e-09
-7.256352324e-09
-8.882273874e-09
-1.075524223e-08
-1.290115554e-08
-1.534635109e-08
-1.811580988e-08
-2.123254685e-08
-2.471801919e-08
-2.859337649e-08
-3.287965599e-08
-3.759677596e-08
-4.276125775e-08
-4.838458785e-08
-5.447275469e-08
-6.102839017e-08
-6.805456458e-08
-7.55605316e-08
-8.35674214e-08
-9.211357491e-08
-1.012583081e-07
-1.110876296e-07
-1.217267683e-07
-1.333677634e-07
-1.463244272e-07
-1.611738042e-07
-1.791507549e-07
-2.030788239e-07
-2.394517501e-07
-3.002068638e-07
-3.885357788e-07
-2.438137933e-07
-4.196660914e-07
-0.007658730116
3038.152609
0
0
0
0
0
0
0
0
0
0
0
0
0
0
0
0
0
0
0
0
0
0
0
0
0
0
0
0
0
0
0
0
0
0
0
0
0
0
0
0
0
0
0
0
0
0
0
0
0
0
0
0
0
0
0
0
0
0
0
-4.282081989e-09
-4.370029071e-09
-3.85538964e-09
-3.132742487e-09
-2.392682357e-09
-1.726754081e-09
-1.161975575e-09
-6.994623348e-10
-3.307441755e-10
-4.498420973e-11
1.679586179e-10
3.163767973e-10
4.064307181e-10
4.420696072e-10
4.250300605e-10
3.548833946e-10
2.290887365e-10
4.336408041e-11
-2.079591875e-10
-5.316558341e-10
-9.358179489e-10
-1.430504917e-09
-2.028520273e-09
-2.745604399e-09
-3.59993038e-09
-4.610836393e-09
-5.797944125e-09
-7.181037348e-09
-8.78099741e-09
-1.062054648e-08
-1.272410486e-08
-1.511615232e-08
-1.781951214e-08
-2.085436773e-08
-2.423905513e-08
-2.799108392e-08
-3.212741814e-08
-3.666242667e-08
-4.160488246e-08
-4.695510247e-08
-5.270485616e-08
-5.883966651e-08
-6.534346107e-08
-7.220268186e-08
-7.940920515e-08
-8.696037674e-08
-9.485856638e-08
-1.031123888e-07
-1.117446602e-07
-1.208050441e-07
-1.303852215e-07
-1.406397894e-07
-1.51842325e-07
-1.643828582e-07
-1.7900158e-07
-1.916747162e-07
-1.983869036e-07
-9.365683561e-07
-1.015174047e-06
-1.717968735e-06
-0.4380379498
0
0
0
0
0
0
0
0
0
0
0
0
0
0
0
0
0
0
0
0
0
0
0
0
0
0
0
0
0
0
0
0
0
0
0
0
0
0
0
0
0
0
0
0
0
0
0
0
0
0
0
0
0
0
0
0
0
0
0
-7.590290648e-09
-6.996896978e-09
-5.687140829e-09
-4.359243058e-09
-3.210498415e-09
-2.279389947e-09
-1.543617181e-09
-9.695626363e-10
-5.265612514e-10
-1.900903694e-10
5.834969108e-11
2.321643434e-10
3.406566848e-10
3.897716263e-10
3.826301227e-10
3.198501026e-10
1.998512133e-10
1.919373898e-11
-2.26977886e-10
-5.448552964e-10
-9.421878945e-10
-1.429006542e-09
-2.018177036e-09
-2.72547071e-09
-3.568575419e-09
-4.565913105e-09
-5.735623537e-09
-7.095891606e-09
-8.665956447e-09
-1.046714555e-08
-1.25223766e-08
-1.485445991e-08
-1.74838511e-08
-2.042785903e-08
-2.370119683e-08
-2.731738531e-08
-3.128832569e-08
-3.562184596e-08
-4.03173276e-08
-4.536271804e-08
-5.073418424e-08
-5.639960753e-08
-6.232275771e-08
-6.846627653e-08
-7.479060578e-08
-8.125105424e-08