/*--------------------------------*- C++ -*----------------------------------*\
  =========                 |
  \\      /  F ield         | OpenFOAM: The Open Source CFD Toolbox
   \\    /   O peration     | Website:  https://openfoam.org
    \\  /    A nd           | Version:  6
     \\/     M anipulation  |
\*---------------------------------------------------------------------------*/
FoamFile
{
    version     2.0;
    format      ascii;
    class       volScalarField;
    location    "0.0008";
    object      Num_divU;
}
// * * * * * * * * * * * * * * * * * * * * * * * * * * * * * * * * * * * * * //

dimensions      [0 0 -1 0 0 0 0];

internalField   nonuniform List<scalar> 
9600
(
2.843331551e-09
2.774044163e-09
2.876029855e-09
3.054437925e-09
3.44092645e-09
3.870499532e-09
4.214308925e-09
4.556284216e-09
4.790024137e-09
5.013509759e-09
5.130516121e-09
5.24758172e-09
5.270357565e-09
5.30680045e-09
5.259709369e-09
5.23724271e-09
5.14090245e-09
5.0801532e-09
4.953561589e-09
4.867361891e-09
4.713910949e-09
4.597010816e-09
4.40943111e-09
4.26112951e-09
4.04885944e-09
3.881981177e-09
3.646281036e-09
3.436876418e-09
3.128874008e-09
2.82015025e-09
2.397468441e-09
1.964648893e-09
1.389115531e-09
7.255416667e-10
-2.253385985e-10
-1.474231851e-09
-3.283380911e-09
-5.74909434e-09
-9.274507624e-09
-1.41591409e-08
-2.104500724e-08
-3.047466833e-08
-4.334000766e-08
-6.048931708e-08
-8.322590837e-08
-1.129274701e-07
-1.514873541e-07
-2.008596534e-07
-2.634693957e-07
-3.418238757e-07
-4.390559171e-07
-5.586037884e-07
-7.047355575e-07
-8.822187545e-07
-1.097000635e-06
-1.356218123e-06
-1.669724418e-06
-2.052196728e-06
-2.527565319e-06
-3.126583512e-06
-3.862163989e-06
-4.621404614e-06
-4.902347062e-06
-4.199388168e-06
-2.935950367e-06
-1.048374863e-05
-1.662556128e-05
9.704966297e-11
2.084700211e-10
2.037530463e-10
2.04460427e-10
1.945319577e-10
1.772391853e-10
1.855880661e-10
1.901142876e-10
2.167690766e-10
2.26198348e-10
2.458819493e-10
2.374664141e-10
2.470443951e-10
2.350214314e-10
2.411781332e-10
2.092424391e-10
1.841957143e-10
1.21482516e-10
7.70505848e-11
1.079484484e-11
-1.493825008e-11
-3.78418383e-11
-1.570675961e-11
-1.737628853e-11
-1.200300479e-11
-3.973700794e-11
-5.246861897e-11
-9.205796799e-11
-1.223070976e-10
-1.673816821e-10
-1.931879117e-10
-2.267148943e-10
-2.380298379e-10
-2.422183055e-10
-2.259366463e-10
-2.167764489e-10
-2.025800001e-10
-1.985448644e-10
-1.998124013e-10
-1.929742792e-10
-1.935057337e-10
-1.641041275e-10
-2.453325305e-10
-1.420157425e-10
-1.567007286e-10
-3.815605312e-11
-1.017357481e-05
2.435303453e-06
5.717040262e-06
3.938728065e-06
2.011361412e-07
-2.366957498e-06
7.803999502e-07
3.084689852e-09
2.953620762e-09
3.022921739e-09
3.153270957e-09
3.52143156e-09
3.914497145e-09
4.252493838e-09
4.568243166e-09
4.8052129e-09
5.010167348e-09
5.137118598e-09
5.240058092e-09
5.275412723e-09
5.298267639e-09
5.263891309e-09
5.227898885e-09
5.145323505e-09
5.071604625e-09
4.95813412e-09
4.855901968e-09
4.711925028e-09
4.5769595e-09
4.400933638e-09
4.239569256e-09
4.043001797e-09
3.860080233e-09
3.627397164e-09
3.382404332e-09
3.060062506e-09
2.707700243e-09
2.270299512e-09
1.78714325e-09
1.165528151e-09
3.839231911e-10
-7.151460126e-10
-2.211131538e-09
-4.326226096e-09
-7.245696481e-09
-1.136065489e-08
-1.70789895e-08
-2.50330974e-08
-3.587116512e-08
-5.048231611e-08
-6.983486498e-08
-9.522605765e-08
-1.28097795e-07
-1.702141506e-07
-2.234172346e-07
-2.898098971e-07
-3.715992944e-07
-4.713747156e-07
-5.919621184e-07
-7.366340393e-07
-9.088633418e-07
-1.112353263e-06
-1.350669541e-06
-1.628284338e-06
-1.954701122e-06
-2.355734968e-06
-2.892230884e-06
-3.66900808e-06
-4.669945381e-06
-5.146104128e-06
-4.98233155e-06
6.42256034e-06
1.140986517e-05
1.248851198e-10
1.228253845e-10
1.194471406e-10
1.241429053e-10
1.224554245e-10
1.231621877e-10
1.186148629e-10
1.243105668e-10
1.295294864e-10
1.465385988e-10
1.539383809e-10
1.646982639e-10
1.59568611e-10
1.614179244e-10
1.51389195e-10
1.505433956e-10
1.320438139e-10
1.169057171e-10
8.115281214e-11
5.236590578e-11
1.238314396e-11
-5.717365928e-12
-1.924033109e-11
-8.173988461e-12
-8.580799559e-12
-8.722735137e-12
-3.040465226e-11
-4.819766139e-11
-7.769180649e-11
-9.779495425e-11
-1.223557424e-10
-1.35480563e-10
-1.500357912e-10
-1.511764562e-10
-1.494556421e-10
-1.411965405e-10
-1.403511148e-10
-1.377057853e-10
-1.387387603e-10
-1.323838316e-10
-1.28105272e-10
-1.177093417e-10
-1.094939579e-10
-1.072271075e-10
-1.165653575e-10
-8.254368707e-11
-1.230808576e-10
-7.358144852e-11
1.766938947e-05
8.604082445e-06
2.741624309e-06
5.128028133e-07
-2.936901518e-06
5.074557352e-07
3.338888992e-09
3.138128631e-09
3.179461331e-09
3.257975378e-09
3.61161651e-09
3.96339973e-09
4.299223661e-09
4.583996881e-09
4.82822611e-09
5.009702617e-09
5.150362399e-09
5.234063235e-09
5.285699886e-09
5.289792556e-09
5.272010724e-09
5.217455292e-09
5.152547764e-09
5.06069959e-09
4.964430709e-09
4.842043154e-09
4.71311898e-09
4.55692918e-09
4.397912456e-09
4.21863813e-09
4.040540735e-09
3.834643627e-09
3.607729328e-09
3.322471376e-09
2.991292282e-09
2.591393912e-09
2.141477545e-09
1.5971946e-09
9.233415164e-10
5.369375894e-12
-1.25601937e-09
-3.029161746e-09
-5.483966156e-09
-8.914201519e-09
-1.368562346e-08
-2.033388912e-08
-2.947381927e-08
-4.188232799e-08
-5.84348202e-08
-8.022504286e-08
-1.085071612e-07
-1.447660784e-07
-1.905827643e-07
-2.476551171e-07
-3.176978606e-07
-4.025601668e-07
-5.042052994e-07
-6.248285763e-07
-7.667631259e-07
-9.323247156e-07
-1.122930305e-06
-1.33761034e-06
-1.571267003e-06
-1.815370198e-06
-2.066558321e-06
-2.378817685e-06
-2.952813256e-06
-4.280234948e-06
-6.646854429e-06
3.511847565e-06
9.314972832e-06
1.954882198e-05
1.34204422e-10
1.11141928e-10
1.076431994e-10
1.078720061e-10
1.110680235e-10
1.12002586e-10
1.157336305e-10
1.192508384e-10
1.299825927e-10
1.404379089e-10
1.532038811e-10
1.567152133e-10
1.58174008e-10
1.515835523e-10
1.483861697e-10
1.390268802e-10
1.303682858e-10
1.094112779e-10
8.565395099e-11
5.164632682e-11
2.365475519e-11
-6.368178083e-13
-6.629191744e-12
-7.656015157e-12
-4.52013906e-12
-1.538833894e-11
-3.240190287e-11
-5.864484529e-11
-8.008703216e-11
-1.017191695e-10
-1.170910579e-10
-1.327809237e-10
-1.411400418e-10
-1.448367977e-10
-1.409252213e-10
-1.386970296e-10
-1.384438329e-10
-1.413239285e-10
-1.378527635e-10
-1.287743415e-10
-1.166122266e-10
-1.089192306e-10
-9.933834457e-11
-9.530434503e-11
-8.697631909e-11
-1.07801866e-10
-1.487564178e-10
-5.598337707e-11
1.049252004e-05
1.950405797e-05
1.508371545e-05
6.235681701e-07
-2.980535023e-06
1.012222048e-06
3.592159161e-09
3.34382835e-09
3.327780009e-09
3.37632877e-09
3.687146666e-09
4.021100453e-09
4.327158436e-09
4.605723173e-09
4.830096783e-09
5.013998846e-09
5.141256019e-09
5.2318498e-09
5.272162031e-09
5.284062292e-09
5.255193921e-09
5.209306001e-09
5.134424782e-09
5.052243891e-09
4.945822524e-09
4.831813177e-09
4.691104059e-09
4.543259679e-09
4.374071947e-09
4.205321704e-09
4.016148858e-09
3.81384619e-09
3.562753913e-09
3.266323654e-09
2.9002463e-09
2.484338223e-09
1.993768661e-09
1.412973101e-09
6.489415659e-10
-3.903115224e-10
-1.859785328e-09
-3.904557545e-09
-6.760360927e-09
-1.072140381e-08
-1.624606327e-08
-2.388976617e-08
-3.436760663e-08
-4.847943284e-08
-6.720007793e-08
-9.1631994e-08
-1.230771952e-07
-1.629221943e-07
-2.126276793e-07
-2.735824803e-07
-3.471421483e-07
-4.345900543e-07
-5.372729462e-07
-6.566366564e-07
-7.943724921e-07
-9.521179916e-07
-1.130347364e-06
-1.325251301e-06
-1.522093567e-06
-1.679221042e-06
-1.702881731e-06
-1.381072467e-06
-3.102500299e-07
1.817094272e-06
9.167651013e-07
2.448945318e-06
-5.90373825e-06
1.113439531e-10
1.018376295e-10
9.413340979e-11
9.195341708e-11
9.534995533e-11
9.9239356e-11
1.052333809e-10
1.088842769e-10
1.157372186e-10
1.232041458e-10
1.354714672e-10
1.43599569e-10
1.498058019e-10
1.471979553e-10
1.443464131e-10
1.369385942e-10
1.322841513e-10
1.20650628e-10
1.064969063e-10
8.155128316e-11
5.582166306e-11
2.695382862e-11
8.597722354e-12
-2.8249929e-12
-2.975797957e-12
-7.734869274e-12
-1.796537557e-11
-3.975629248e-11
-6.056288414e-11
-8.109152878e-11
-9.560979569e-11
-1.107790528e-10
-1.225480516e-10
-1.329944075e-10
-1.359465187e-10
-1.353835021e-10
-1.335384882e-10
-1.366574825e-10
-1.38456862e-10
-1.335693792e-10
-1.204386259e-10
-1.072298303e-10
-9.922402661e-11
-9.228729774e-11
-8.545802427e-11
-7.630939914e-11
-1.089924985e-10
-1.036915085e-10
-1.361973667e-10
-4.376884899e-11
1.459455487e-06
2.268949547e-05
8.163377198e-06
1.952092119e-06
2.874656639e-06
3.867359625e-09
3.551143075e-09
3.490085062e-09
3.49219709e-09
3.773456227e-09
4.073325888e-09
4.363986308e-09
4.62056126e-09
4.840048913e-09
5.01051083e-09
5.139141842e-09
5.220080995e-09
5.263913546e-09
5.266938666e-09
5.242472839e-09
5.18890983e-09
5.120305536e-09
5.031886156e-09
4.9320314e-09
4.810979169e-09
4.675792473e-09
4.520602851e-09
4.358073765e-09
4.182429441e-09
3.997211531e-09
3.7803435e-09
3.521746186e-09
3.19949668e-09
2.819144755e-09
2.374061568e-09
1.860142417e-09
1.22148669e-09
3.75062919e-10
-8.144219552e-10
-2.489795785e-09
-4.841599659e-09
-8.109875533e-09
-1.266188101e-08
-1.898877611e-08
-2.773681719e-08
-3.966208368e-08
-5.565785305e-08
-7.673731648e-08
-1.040722549e-07
-1.389353238e-07
-1.826518282e-07
-2.3645969e-07
-3.01436171e-07
-3.784170757e-07
-4.680294943e-07
-5.70758177e-07
-6.872077001e-07
-8.184442455e-07
-9.662552287e-07
-1.132741228e-06
-1.318393806e-06
-1.514889264e-06
-1.685895479e-06
-1.707446693e-06
-1.246241748e-06
4.301586615e-07
3.862895558e-06
1.177374485e-05
1.049555273e-05
4.51194944e-11
7.508956575e-11
7.971460328e-11
7.79519825e-11
7.953670216e-11
8.422221901e-11
9.179797672e-11
9.848805241e-11
1.048956385e-10
1.104309411e-10
1.185406954e-10
1.268971638e-10
1.352652295e-10
1.384743101e-10
1.380926517e-10
1.329100653e-10
1.278517798e-10
1.20731507e-10
1.12766955e-10
9.845282727e-11
7.966313761e-11
5.521836689e-11
3.248094519e-11
1.351476478e-11
3.636479491e-12
-2.983476526e-12
-1.015109059e-11
-2.518140385e-11
-4.373956728e-11
-6.284932916e-11
-7.673420634e-11
-8.889372579e-11
-1.004223421e-10
-1.138880109e-10
-1.242908584e-10
-1.293568816e-10
-1.284969986e-10
-1.286478894e-10
-1.31609237e-10
-1.333638848e-10
-1.260123093e-10
-1.119847454e-10
-9.966823443e-11
-9.341199633e-11
-8.794415037e-11
-8.159202776e-11
-7.322138846e-11
-8.49326249e-11
-1.213420443e-10
-9.05881826e-11
-2.34026377e-11
-1.47013501e-12
2.16044453e-05
1.501829925e-05
-1.805914802e-06
9.609910697e-07
4.152704349e-09
3.774271794e-09
3.656207694e-09
3.618134072e-09
3.859856135e-09
4.133378883e-09
4.399319895e-09
4.642559449e-09
4.8479299e-09
5.013093777e-09
5.133324695e-09
5.212592544e-09
5.249860174e-09
5.252528371e-09
5.222997891e-09
5.171269324e-09
5.099823434e-09
5.014914348e-09
4.912768701e-09
4.794432549e-09
4.655967672e-09
4.503330011e-09
4.337608152e-09
4.163669194e-09
3.971480982e-09
3.749045594e-09
3.474772504e-09
3.140471986e-09
2.741517082e-09
2.280676916e-09
1.733708498e-09
1.04234935e-09
9.613500122e-11
-1.242465974e-09
-3.142513118e-09
-5.805039926e-09
-9.517921956e-09
-1.469009058e-08
-2.188817275e-08
-3.181829703e-08
-4.532108993e-08
-6.335546147e-08
-8.701627525e-08
-1.175127075e-07
-1.561210239e-07
-2.04060258e-07
-2.623535482e-07
-3.316763253e-07
-4.1225709e-07
-5.038299139e-07
-6.057378748e-07
-7.172823863e-07
-8.383982622e-07
-9.706316112e-07
-1.11854366e-06
-1.291240911e-06
-1.500936257e-06
-1.741717653e-06
-1.929807132e-06
-1.606023831e-06
-1.085291025e-07
1.18141903e-05
1.665565405e-05
1.052660538e-05
3.092285482e-11
5.392379217e-11
6.168465056e-11
6.491170736e-11
6.913321437e-11
7.67182887e-11
8.573895718e-11
9.43304892e-11
1.006886862e-10
1.063155512e-10
1.121598077e-10
1.192603039e-10
1.25151363e-10
1.283658576e-10
1.270178314e-10
1.230142039e-10
1.17309807e-10
1.116752614e-10
1.039321235e-10
9.273942612e-11
7.594712168e-11
5.586488924e-11
3.499301154e-11
1.812277541e-11
5.698803139e-12
-3.51779634e-12
-1.512811657e-11
-3.043661213e-11
-4.78032653e-11
-6.145244865e-11
-7.095001168e-11
-7.901128403e-11
-9.0788915e-11
-1.05284796e-10
-1.182271254e-10
-1.239003588e-10
-1.237394327e-10
-1.230807205e-10
-1.256814567e-10
-1.261755543e-10
-1.187185449e-10
-1.055156851e-10
-9.577261845e-11
-9.13562738e-11
-8.793088257e-11
-8.216240663e-11
-7.725189044e-11
-8.014251766e-11
-8.614401196e-11
-6.324495467e-11
-1.859506034e-11
-6.631092318e-12
5.176181559e-08
3.928843578e-05
7.915722657e-06
-8.464931841e-08
4.455335282e-09
4.005769838e-09
3.832006083e-09
3.748242645e-09
3.95276134e-09
4.195395329e-09
4.440174888e-09
4.665780001e-09
4.860460941e-09
5.015635697e-09
5.130428433e-09
5.2028833e-09
5.236986826e-09
5.234814881e-09
5.204508479e-09
5.150869667e-09
5.081312795e-09
4.996111211e-09
4.895951647e-09
4.776394477e-09
4.63884115e-09
4.484320557e-09
4.319018359e-09
4.141848979e-09
3.946738131e-09
3.715693238e-09
3.433265308e-09
3.087714489e-09
2.679711316e-09
2.202522827e-09
1.626549083e-09
8.745263163e-10
-1.722041142e-10
-1.668275641e-09
-3.792025451e-09
-6.775189457e-09
-1.094352644e-08
-1.6769903e-08
-2.488632724e-08
-3.607920742e-08
-5.126649652e-08
-7.149913066e-08
-9.795427965e-08
-1.319094374e-07
-1.746470794e-07
-2.273044938e-07
-2.906772195e-07
-3.650183324e-07
-4.498465762e-07
-5.438075091e-07
-6.447064608e-07
-7.498550101e-07
-8.568309505e-07
-9.64843507e-07
-1.077497045e-06
-1.207967476e-06
-1.380559942e-06
-1.624129167e-06
-1.802762285e-06
-1.108410637e-06
5.911316755e-07
1.067040954e-05
1.186157178e-05
-2.244876213e-12
2.322125588e-11
4.206679188e-11
5.150599281e-11
5.654730827e-11
6.265727736e-11
7.139843143e-11
8.169507569e-11
9.076109129e-11
9.749928817e-11
1.022611145e-10
1.068333602e-10
1.116126244e-10
1.160223552e-10
1.180674389e-10
1.170866288e-10
1.132526733e-10
1.082845994e-10
1.027074738e-10
9.605760513e-11
8.625668299e-11
7.237004124e-11
5.49055933e-11
3.683439793e-11
2.059231221e-11
7.315257708e-12
-5.354456248e-12
-1.956350826e-11
-3.559374342e-11
-4.947214809e-11
-5.829282076e-11
-6.299450519e-11
-6.967439164e-11
-8.249482374e-11
-9.99820607e-11
-1.143011752e-10
-1.197540781e-10
-1.1767726e-10
-1.159641783e-10
-1.18186972e-10
-1.19574118e-10
-1.133161846e-10
-1.023158656e-10
-9.464031406e-11
-9.213892887e-11
-8.861465705e-11
-8.314917802e-11
-7.875218414e-11
-7.862946127e-11
-7.781144588e-11
-5.013048286e-11
-2.696802012e-11
4.643940135e-11
2.432089736e-11
2.563164139e-05
1.937254404e-05
1.367180071e-06
4.771150196e-09
4.249179741e-09
4.014375382e-09
3.88511532e-09
4.049522525e-09
4.26227341e-09
4.48379147e-09
4.692966571e-09
4.874349926e-09
5.020500451e-09
5.126925131e-09
5.193742163e-09
5.222239315e-09
5.217477207e-09
5.184910895e-09
5.131933805e-09
5.062685729e-09
4.979154693e-09
4.878779261e-09
4.759550254e-09
4.620607406e-09
4.4657986e-09
4.298935718e-09
4.120560908e-09
3.921524491e-09
3.686475396e-09
3.398507534e-09
3.049187064e-09
2.635261583e-09
2.145783841e-09
1.53825369e-09
7.253938258e-10
-4.243636282e-10
-2.073538593e-09
-4.418748749e-09
-7.719483575e-09
-1.235172122e-08
-1.885017206e-08
-2.792263598e-08
-4.043540354e-08
-5.740006944e-08
-7.997029354e-08
-1.094343366e-07
-1.471631146e-07
-1.944865939e-07
-2.525009479e-07
-3.218202913e-07
-4.02298824e-07
-4.927212439e-07
-5.905331742e-07
-6.917219422e-07
-7.910055998e-07
-8.823525857e-07
-9.600472486e-07
-1.021363778e-06
-1.072498048e-06
-1.155737138e-06
-1.379606285e-06
-2.011317604e-06
-2.989914198e-06
1.758863041e-06
7.191854214e-06
1.243845151e-05
3.242209081e-12
2.43609889e-11
3.881364493e-11
4.668568281e-11
5.209804365e-11
5.87065968e-11
6.797523018e-11
7.842277468e-11
8.760896204e-11
9.403853537e-11
9.80597467e-11
1.011710015e-10
1.043627123e-10
1.073822664e-10
1.08922633e-10
1.080705172e-10
1.048545299e-10
1.004063641e-10
9.533176614e-11
8.933171987e-11
8.072933413e-11
6.859251839e-11
5.323198845e-11
3.678240057e-11
2.113929051e-11
6.761635327e-12
-7.621458487e-12
-2.294393215e-11
-3.759470096e-11
-4.799678047e-11
-5.244709879e-11
-5.466370054e-11
-6.162900228e-11
-7.730002729e-11
-9.734153134e-11
-1.12303816e-10
-1.156702657e-10
-1.109422385e-10
-1.075543256e-10
-1.105559798e-10
-1.141946941e-10
-1.110246001e-10
-1.023691203e-10
-9.597842543e-11
-9.277143381e-11
-8.814610803e-11
-8.191314256e-11
-7.862180251e-11
-7.632461649e-11
-7.038846806e-11
-5.350410358e-11
7.17888379e-13
3.01685617e-11
7.130568388e-12
-5.066766052e-06
4.172105074e-05
7.310233282e-06
5.100313952e-09
4.500195357e-09
4.203512158e-09
4.026405134e-09
4.150613207e-09
4.332319702e-09
4.530753065e-09
4.722142773e-09
4.890311792e-09
5.025564041e-09
5.123741488e-09
5.183599545e-09
5.207656941e-09
5.199890963e-09
5.166800107e-09
5.113970911e-09
5.045948204e-09
4.962684353e-09
4.862248174e-09
4.741715011e-09
4.601803036e-09
4.445907589e-09
4.278848409e-09
4.099754497e-09
3.900090842e-09
3.663714984e-09
3.375588152e-09
3.026506984e-09
2.611092143e-09
2.110288192e-09
1.471919169e-09
5.980879931e-10
-6.500069059e-10
-2.444392471e-09
-4.998619814e-09
-8.607361942e-09
-1.369908844e-08
-2.087616107e-08
-3.092201236e-08
-4.478946514e-08
-6.35931653e-08
-8.861233835e-08
-1.21277432e-07
-1.63097614e-07
-2.155095746e-07
-2.796437248e-07
-3.560305586e-07
-4.442307719e-07
-5.423994498e-07
-6.468277531e-07
-7.516383324e-07
-8.487471276e-07
-9.281031591e-07
-9.778566945e-07
-9.824049138e-07
-9.1328445e-07
-6.899366955e-07
-1.023663718e-07
1.304712871e-06
-2.117381375e-06
4.612396772e-06
-1.480193981e-06
2.865376371e-12
1.622665626e-11
2.913615907e-11
3.904529214e-11
4.548045189e-11
5.048265232e-11
5.685649366e-11
6.557377157e-11
7.547366412e-11
8.424621308e-11
9.028548473e-11
9.374769603e-11
9.586695387e-11
9.794496401e-11
1.000159553e-10
1.013499157e-10
1.008284471e-10
9.837396538e-11
9.433786467e-11
8.950920113e-11
8.342111795e-11
7.530135965e-11
6.405272267e-11
5.024176179e-11
3.515601866e-11
2.038515845e-11
5.944724775e-12
-8.823400896e-12
-2.382966425e-11
-3.648937676e-11
-4.370350751e-11
-4.558941681e-11
-4.765763421e-11
-5.720245666e-11
-7.622485504e-11
-9.79749711e-11
-1.113128378e-10
-1.108982917e-10
-1.025544568e-10
-9.829345566e-11
-1.032996538e-10
-1.109554449e-10
-1.115130304e-10
-1.047668678e-10
-9.733832385e-11
-9.17229864e-11
-8.548461631e-11
-7.959825064e-11
-7.771740205e-11
-7.648613694e-11
-7.200912639e-11
-5.527181572e-11
-2.277842204e-11
-3.899827395e-12
-1.747880429e-10
-1.005562389e-10
4.448358195e-05
-1.319102341e-10
5.438765837e-09
4.758661982e-09
4.396882833e-09
4.1713017e-09
4.2541834e-09
4.404692129e-09
4.579249801e-09
4.752588858e-09
4.906482866e-09
5.030516768e-09
5.119734967e-09
5.173389869e-09
5.193128647e-09
5.18366834e-09
5.150111321e-09
5.098030769e-09
5.030154517e-09
4.946469041e-09
4.844467133e-09
4.722401257e-09
4.581187706e-09
4.425453032e-09
4.259274716e-09
4.082076324e-09
3.884250932e-09
3.650631528e-09
3.366091995e-09
3.02114074e-09
2.605928574e-09
2.094803413e-09
1.426561745e-09
4.965442131e-10
-8.399589284e-10
-2.763753929e-09
-5.509190108e-09
-9.408657089e-09
-1.494601063e-08
-2.279080351e-08
-3.380313645e-08
-4.902701294e-08
-6.969299396e-08
-9.722938264e-08
-1.332431989e-07
-1.794352727e-07
-2.374226565e-07
-3.084848427e-07
-3.932207009e-07
-4.911053324e-07
-5.999001545e-07
-7.149861894e-07
-8.28761504e-07
-9.304082363e-07
-1.006592983e-06
-1.044305256e-06
-1.036483216e-06
-9.794800485e-07
-8.412953763e-07
-3.75754673e-07
1.354260109e-06
4.675442469e-06
1.530190323e-05
1.565876841e-05
4.074097774e-11
3.756032703e-11
3.868396683e-11
4.267039741e-11
4.64934422e-11
5.051101181e-11
5.609502523e-11
6.389964272e-11
7.277604933e-11
8.062538557e-11
8.602088485e-11
8.890674422e-11
9.062561493e-11
9.227641848e-11
9.431520659e-11
9.579206326e-11
9.586274998e-11
9.376488802e-11
9.001568323e-11
8.483642922e-11
7.851569609e-11
7.0119641e-11
5.93784105e-11
4.635640876e-11
3.253368224e-11
1.874002998e-11
5.273001221e-12
-8.498803197e-12
-2.170874709e-11
-3.209740836e-11
-3.737477376e-11
-3.924339365e-11
-4.375158867e-11
-5.711196431e-11
-7.893587211e-11
-1.002537388e-10
-1.099346492e-10
-1.046387527e-10
-9.331542083e-11
-8.947659063e-11
-9.805562167e-11
-1.100672691e-10
-1.135829108e-10
-1.069402122e-10
-9.739944524e-11
-8.926211185e-11
-8.172811736e-11
-7.727807977e-11
-7.73873254e-11
-7.923892002e-11
-7.540854162e-11
-6.679587964e-11
-4.390609514e-11
-1.118890199e-10
-1.542220838e-10
-4.280230635e-10
-3.348225921e-10
-2.152538812e-10
5.78282986e-09
5.018698443e-09
4.590968939e-09
4.316426537e-09
4.357811682e-09
4.476546372e-09
4.627260797e-09
4.781954046e-09
4.921255896e-09
5.033999014e-09
5.114825589e-09
5.162706721e-09
5.179547105e-09
5.168780542e-09
5.135326708e-09
5.083021628e-09
5.014393472e-09
4.928666198e-09
4.824428257e-09
4.700449404e-09
4.558992196e-09
4.404862928e-09
4.242184934e-09
4.069261908e-09
3.876349865e-09
3.647949866e-09
3.369595464e-09
3.030275795e-09
2.61673514e-09
2.096662652e-09
1.402613996e-09
4.247575794e-10
-9.85424709e-10
-3.018273806e-09
-5.931044762e-09
-1.009660378e-08
-1.605438713e-08
-2.453878279e-08
-3.648477193e-08
-5.302969094e-08
-7.553205395e-08
-1.055902692e-07
-1.450246824e-07
-1.957779882e-07
-2.59733251e-07
-3.384469231e-07
-4.327987999e-07
-5.424855059e-07
-6.653018467e-07
-7.961631944e-07
-9.2590183e-07
-1.039909464e-06
-1.117436791e-06
-1.134775885e-06
-1.078921271e-06
-9.910430936e-07
-1.033934895e-06
-1.538467558e-06
-1.755897442e-06
1.190128315e-05
2.296673353e-05
2.750007236e-05
7.49070993e-11
5.415302449e-11
4.671420912e-11
4.601736754e-11
4.801158853e-11
5.1309683e-11
5.617327027e-11
6.270940802e-11
7.006628121e-11
7.666548816e-11
8.130833787e-11
8.410861739e-11
8.595875577e-11
8.800640642e-11
9.025601196e-11
9.214147781e-11
9.235130315e-11
9.047708407e-11
8.636188654e-11
8.0733847e-11
7.354346088e-11
6.482000215e-11
5.409483734e-11
4.206607855e-11
2.952044309e-11
1.751378998e-11
5.734877912e-12
-5.991753961e-12
-1.730117066e-11
-2.615856861e-11
-3.161660578e-11
-3.589457993e-11
-4.451919713e-11
-6.144145733e-11
-8.377188187e-11
-1.017617091e-10
-1.059416735e-10
-9.632048682e-11
-8.413060479e-11
-8.290210906e-11
-9.534853208e-11
-1.104927528e-10
-1.151861674e-10
-1.074742714e-10
-9.536214626e-11
-8.524129684e-11
-7.89420781e-11
-7.724965766e-11
-8.099002966e-11
-8.463562288e-11
-8.345032505e-11
-7.564019186e-11
-6.462699477e-11
-9.337181505e-11
-2.463664286e-10
-3.072226664e-10
-2.776380782e-10
-2.039456813e-10
6.124958031e-09
5.275607879e-09
4.780693147e-09
4.456958845e-09
4.456861548e-09
4.544341806e-09
4.67103133e-09
4.80733136e-09
4.932581409e-09
5.034797423e-09
5.108436368e-09
5.152061664e-09
5.166772806e-09
5.155343988e-09
5.12115288e-09
5.067644355e-09
4.996483465e-09
4.907909758e-09
4.800984921e-09
4.676070834e-09
4.536069301e-09
4.385927371e-09
4.228916277e-09
4.062457331e-09
3.876048159e-09
3.654484658e-09
3.383139756e-09
3.050283407e-09
2.639095663e-09
2.11278945e-09
1.399386955e-09
3.86529918e-10
-1.078339953e-09
-3.196763504e-09
-6.250801428e-09
-1.06536805e-08
-1.699649554e-08
-2.60737676e-08
-3.889113019e-08
-5.668201869e-08
-8.09401766e-08
-1.134509382e-07
-1.562698965e-07
-2.116255174e-07
-2.817377039e-07
-3.685781745e-07
-4.735407395e-07
-5.969595084e-07
-7.373472039e-07
-8.902226455e-07
-1.046162903e-06
-1.187299415e-06
-1.280886442e-06
-1.268332928e-06
-1.049471143e-06
-4.743529822e-07
6.846815758e-07
2.740098278e-06
2.047525007e-06
7.059531482e-06
2.110825535e-06
8.511055465e-11
7.324533176e-11
5.902158262e-11
5.08479449e-11
4.841311705e-11
4.949293706e-11
5.245044034e-11
5.662689075e-11
6.19152053e-11
6.764684873e-11
7.279432807e-11
7.671978475e-11
7.952655265e-11
8.208602522e-11
8.484028193e-11
8.777241272e-11
8.974393143e-11
8.988716432e-11
8.740664307e-11
8.274700417e-11
7.627628839e-11
6.865715194e-11
5.964975377e-11
4.946245505e-11
3.831416264e-11
2.739317937e-11
1.709103069e-11
7.45353659e-12
-2.402534249e-12
-1.219167155e-11
-2.108948236e-11
-2.85573935e-11
-3.673273503e-11
-4.931666583e-11
-6.779705189e-11
-8.773154311e-11
-1.001506255e-10
-9.872993385e-11
-8.669618606e-11
-7.642400941e-11
-7.958396766e-11
-9.588566314e-11
-1.122095171e-10
-1.153229149e-10
-1.049273978e-10
-9.112127699e-11
-8.211947387e-11
-7.888953091e-11
-8.163498063e-11
-8.841864311e-11
-9.334085695e-11
-9.097702227e-11
-8.628206325e-11
-8.199019822e-11
-1.054797723e-10
-1.717708283e-10
-2.563852989e-10
-2.313130778e-10
-1.674988041e-10
6.455895828e-09
5.518711994e-09
4.957012977e-09
4.585509896e-09
4.544856232e-09
4.601864257e-09
4.705919822e-09
4.825346874e-09
4.93805832e-09
5.031642674e-09
5.099930786e-09
5.140810315e-09
5.154289159e-09
5.141818872e-09
5.105996216e-09
5.049561493e-09
4.974948355e-09
4.882947049e-09
4.774225135e-09
4.65002412e-09
4.513880175e-09
4.369888021e-09
4.220299667e-09
4.061189076e-09
3.881612946e-09
3.666528644e-09
3.402081985e-09
3.075817041e-09
2.669066246e-09
2.141339232e-09
1.418121707e-09
3.84855065e-10
-1.115093852e-09
-3.295479137e-09
-6.46369552e-09
-1.107092692e-08
-1.775473583e-08
-2.73617554e-08
-4.096339214e-08
-5.988628995e-08
-8.576328123e-08
-1.205706629e-07
-1.666109584e-07
-2.264146233e-07
-3.02584629e-07
-3.975984049e-07
-5.135643056e-07
-6.518541984e-07
-8.125496719e-07
-9.935740962e-07
-1.189157795e-06
-1.386469409e-06
-1.557603038e-06
-1.639815722e-06
-1.491095782e-06
-7.89407356e-07
1.123586886e-06
5.13270257e-06
1.729614882e-06
1.320745627e-05
5.546471427e-06
7.004668142e-11
6.879936098e-11
5.943411006e-11
5.219205592e-11
4.954499796e-11
5.079671689e-11
5.38630393e-11
5.759810401e-11
6.155488076e-11
6.553697407e-11
6.926855833e-11
7.263996106e-11
7.595884949e-11
7.942997944e-11
8.311285416e-11
8.618109114e-11
8.780277582e-11
8.694101196e-11
8.361263974e-11
7.809184567e-11
7.133863482e-11
6.360330323e-11
5.51269206e-11
4.564701224e-11
3.581967135e-11
2.622331213e-11
1.764717316e-11
9.473925776e-12
9.608114356e-13
-8.641929835e-12
-1.88829602e-11
-2.960699731e-11
-4.165822753e-11
-5.64724297e-11
-7.333854864e-11
-8.766853408e-11
-9.326834916e-11
-8.787690531e-11
-7.725715409e-11
-7.253346935e-11
-8.122703175e-11
-9.931290561e-11
-1.132701098e-10
-1.125565118e-10
-9.958505227e-11
-8.606352469e-11
-8.015075519e-11
-8.224994685e-11
-8.879915706e-11
-9.627046514e-11
-9.930536315e-11
-9.552042753e-11
-8.829159455e-11
-8.724146148e-11
-1.047061712e-10
-1.559383583e-10
-1.924287512e-10
-1.790282333e-10
-1.444154816e-10
6.760667083e-09
5.736133923e-09
5.108567788e-09
4.691342213e-09
4.612488853e-09
4.642000975e-09
4.726183117e-09
4.831484967e-09
4.934901879e-09
5.02286507e-09
5.088340824e-09
5.127927774e-09
5.140406387e-09
5.12618286e-09
5.087351991e-09
5.027011099e-09
4.948278095e-09
4.853700525e-09
4.74494697e-09
4.624056991e-09
4.493712213e-09
4.357244072e-09
4.215289093e-09
4.062978391e-09
3.889024553e-09
3.679659663e-09
3.421701284e-09
3.103112535e-09
2.703617822e-09
2.181044509e-09
1.458639678e-09
4.203431373e-10
-1.096084294e-09
-3.317548424e-09
-6.575338197e-09
-1.135323882e-08
-1.832666317e-08
-2.838609443e-08
-4.266185645e-08
-6.257081309e-08
-8.987964371e-08
-1.267495051e-07
-1.757168513e-07
-2.396062525e-07
-3.213981876e-07
-4.240926426e-07
-5.505545198e-07
-7.033264482e-07
-8.844141419e-07
-1.095180786e-06
-1.336474542e-06
-1.609000875e-06
-1.913265893e-06
-2.245228127e-06
-2.571197151e-06
-2.741583131e-06
-2.230405339e-06
5.56578625e-07
1.60472263e-05
3.273258272e-05
2.956311224e-05
7.976689423e-11
7.293051446e-11
6.122376372e-11
5.32586922e-11
5.078477131e-11
5.230910421e-11
5.549290061e-11
5.868920101e-11
6.148017586e-11
6.399569186e-11
6.661618013e-11
6.977822888e-11
7.36159544e-11
7.799598011e-11
8.20305663e-11
8.479739739e-11
8.519398975e-11
8.303089199e-11
7.849601705e-11
7.263692194e-11
6.607830496e-11
5.930393018e-11
5.185177602e-11
4.365690325e-11
3.475884713e-11
2.619043583e-11
1.826296017e-11
1.074765556e-11
2.188334598e-12
-8.290616581e-12
-2.074705627e-11
-3.4291333e-11
-4.827336586e-11
-6.209951274e-11
-7.425255247e-11
-8.173594909e-11
-8.200399389e-11
-7.627634777e-11
-7.082998703e-11
-7.352204241e-11
-8.701652834e-11
-1.044209572e-10
-1.134279e-10
-1.072741712e-10
-9.219496381e-11
-8.106402257e-11
-8.070977225e-11
-8.761102637e-11
-9.601652069e-11
-1.01885217e-10
-1.020208657e-10
-9.482983359e-11
-8.646360567e-11
-8.57230739e-11
-9.911266005e-11
-1.279313762e-10
-1.573174073e-10
-1.489079078e-10
-1.20111451e-10
7.019907473e-09
5.907584866e-09
5.217868054e-09
4.759648839e-09
4.647669146e-09
4.654628434e-09
4.724479512e-09
4.821097085e-09
4.919939435e-09
5.006278628e-09
5.071675166e-09
5.111286667e-09
5.122826211e-09
5.105944539e-09
5.063048912e-09
4.99829311e-09
4.916492175e-09
4.821256889e-09
4.715060197e-09
4.599298116e-09
4.476072299e-09
4.34694772e-09
4.211395929e-09
4.06384862e-09
3.894057266e-09
3.689137797e-09
3.438168257e-09
3.129284136e-09
2.741848174e-09
2.231597116e-09
1.520475388e-09
4.893341132e-10
-1.029469093e-09
-3.275724748e-09
-6.6009398e-09
-1.151496773e-08
-1.872186198e-08
-2.914706369e-08
-4.397256606e-08
-6.469764926e-08
-9.321293819e-08
-1.318450847e-07
-1.833392156e-07
-2.507765711e-07
-3.37471267e-07
-4.468716565e-07
-5.824712501e-07
-7.477042212e-07
-9.45918667e-07
-1.180665875e-06
-1.456832868e-06
-1.783561969e-06
-2.180862306e-06
-2.690922775e-06
-3.394006427e-06
-4.373625853e-06
-5.47628639e-06
-5.232658113e-06
1.19372368e-05
3.188181086e-05
3.456168747e-05
9.567725523e-11
7.662808637e-11
6.239586874e-11
5.406699396e-11
5.172526364e-11
5.360313771e-11
5.688054891e-11
5.970451584e-11
6.154102218e-11
6.29618877e-11
6.496363181e-11
6.821321658e-11
7.274062496e-11
7.755766645e-11
8.139853765e-11
8.28983625e-11
8.1649286e-11
7.785355271e-11
7.266559978e-11
6.70376335e-11
6.175888262e-11
5.645954846e-11
5.058055684e-11
4.329605397e-11
3.499072269e-11
2.632437046e-11
1.819829221e-11
1.009368499e-11
8.079658854e-13
-1.094986181e-11
-2.497832211e-11
-3.976062318e-11
-5.311931517e-11
-6.33369081e-11
-6.926906143e-11
-7.070767371e-11
-6.888655594e-11
-6.717707366e-11
-7.013776668e-11
-8.058774593e-11
-9.619523783e-11
-1.090218382e-10
-1.104841754e-10
-9.938686934e-11
-8.46621284e-11
-7.808870894e-11
-8.312109474e-11
-9.358049645e-11
-1.012868526e-10
-1.029529483e-10
-9.844150172e-11
-9.001193058e-11