/*--------------------------------*- C++ -*----------------------------------*\
  =========                 |
  \\      /  F ield         | OpenFOAM: The Open Source CFD Toolbox
   \\    /   O peration     | Website:  https://openfoam.org
    \\  /    A nd           | Version:  6
     \\/     M anipulation  |
\*---------------------------------------------------------------------------*/
FoamFile
{
    version     2.0;
    format      ascii;
    class       volVectorField;
    location    "0.0008";
    object      U;
}
// * * * * * * * * * * * * * * * * * * * * * * * * * * * * * * * * * * * * * //

dimensions      [0 1 -1 0 0 0 0];

internalField   nonuniform List<vector> 
9600
(
(0 -1.618170455e-11 6.812819958e-13)
(0 -1.617059877e-11 7.146630722e-13)
(0 -1.618593201e-11 7.812743079e-13)
(0 -1.619946565e-11 8.738248536e-13)
(0 -1.621408154e-11 9.85653296e-13)
(0 -1.623057131e-11 1.110615787e-12)
(0 -1.625007688e-11 1.243641114e-12)
(0 -1.627362419e-11 1.380096952e-12)
(0 -1.630211693e-11 1.516304462e-12)
(0 -1.633625232e-11 1.648886656e-12)
(0 -1.637647537e-11 1.775275431e-12)
(0 -1.642295042e-11 1.893045826e-12)
(0 -1.647556797e-11 2.000429392e-12)
(0 -1.6533962e-11 2.095647432e-12)
(0 -1.65975447e-11 2.177451264e-12)
(0 -1.666552505e-11 2.244475669e-12)
(0 -1.673692616e-11 2.29581551e-12)
(0 -1.681059406e-11 2.330393246e-12)
(0 -1.688523178e-11 2.347545271e-12)
(0 -1.695944868e-11 2.346371771e-12)
(0 -1.703182555e-11 2.32632052e-12)
(0 -1.710096042e-11 2.286538718e-12)
(0 -1.716548589e-11 2.226486722e-12)
(0 -1.72240529e-11 2.145305689e-12)
(0 -1.727532951e-11 2.042421698e-12)
(0 -1.731804855e-11 1.91684157e-12)
(0 -1.735113335e-11 1.767653955e-12)
(0 -1.73738541e-11 1.593224175e-12)
(0 -1.738594394e-11 1.39166347e-12)
(0 -1.738760598e-11 1.160049953e-12)
(0 -1.737943973e-11 8.949207025e-13)
(0 -1.736240439e-11 5.913956733e-13)
(0 -1.733795093e-11 2.433976295e-13)
(0 -1.730832735e-11 -1.576099936e-13)
(0 -1.727691243e-11 -6.227429011e-13)
(0 -1.724839025e-11 -1.167138621e-12)
(0 -1.722872519e-11 -1.810140221e-12)
(0 -1.722509634e-11 -2.576853608e-12)
(0 -1.724596887e-11 -3.498602921e-12)
(0 -1.730123727e-11 -4.614780807e-12)
(0 -1.740208239e-11 -5.973288609e-12)
(0 -1.756015557e-11 -7.631749875e-12)
(0 -1.778600504e-11 -9.656586779e-12)
(0 -1.80870399e-11 -1.212213553e-11)
(0 -1.846538954e-11 -1.510680216e-11)
(0 -1.891577054e-11 -1.868808268e-11)
(0 -1.942310777e-11 -2.293307974e-11)
(0 -1.99597048e-11 -2.788620724e-11)
(0 -2.048235867e-11 -3.355133155e-11)
(0 -2.093076816e-11 -3.98715848e-11)
(0 -2.122909648e-11 -4.670654116e-11)
(0 -2.129180781e-11 -5.381305645e-11)
(0 -2.103329713e-11 -6.083306545e-11)
(0 -2.037893333e-11 -6.729881356e-11)
(0 -1.927261395e-11 -7.266145273e-11)
(0 -1.767235346e-11 -7.634968857e-11)
(0 -1.55260804e-11 -7.784940454e-11)
(0 -1.273668903e-11 -7.678488342e-11)
(0 -9.169196893e-12 -7.29651266e-11)
(0 -4.812247328e-12 -6.639190601e-11)
(0 -1.792188244e-13 -5.739109158e-11)
(0 3.715706941e-12 -4.739003597e-11)
(0 9.049469225e-12 -4.080712348e-11)
(0 3.744676047e-11 -4.628192659e-11)
(0 1.549182021e-10 -5.640599638e-11)
(0 4.608237645e-10 -5.661884199e-12)
(0 -1.003885613e-11 2.129191356e-10)
(0 -5.764991578e-12 -3.438962443e-11)
(0 9.219007419e-12 -8.888172304e-12)
(0 9.285332224e-12 6.805594545e-13)
(0 9.081172903e-12 5.983647344e-12)
(0 1.110100198e-11 9.07903661e-12)
(0 1.369264044e-11 7.857148753e-12)
(0 1.491259002e-11 5.635339637e-12)
(0 1.532677029e-11 4.223790426e-12)
(0 1.580532796e-11 3.211843284e-12)
(0 1.652767832e-11 2.059701724e-12)
(0 1.732333537e-11 5.006147443e-13)
(0 1.794239277e-11 -1.520378921e-12)
(0 1.81557722e-11 -3.927471191e-12)
(0 1.780607266e-11 -6.530245408e-12)
(0 1.68480322e-11 -9.08649212e-12)
(0 1.534247996e-11 -1.138679638e-11)
(0 1.341594366e-11 -1.329165674e-11)
(0 1.122079036e-11 -1.473528443e-11)
(0 8.903458979e-12 -1.572100428e-11)
(0 6.57946406e-12 -1.630516349e-11)
(0 4.318835025e-12 -1.657281057e-11)
(0 2.144146031e-12 -1.661103261e-11)
(0 3.869743903e-14 -1.648850815e-11)
(0 -2.039398934e-12 -1.624184871e-11)
(0 -4.140559048e-12 -1.587010321e-11)
(0 -6.306337745e-12 -1.533463005e-11)
(0 -8.552833416e-12 -1.456597295e-11)
(0 -1.085684021e-11 -1.347700233e-11)
(0 -1.314819149e-11 -1.19844427e-11)
(0 -1.531240948e-11 -1.003478686e-11)
(0 -1.720612939e-11 -7.62907575e-12)
(0 -1.868273001e-11 -4.8374261e-12)
(0 -1.962425425e-11 -1.803244561e-12)
(0 -1.998068856e-11 1.262259607e-12)
(0 -1.980942804e-11 4.116829025e-12)
(0 -1.9280324e-11 6.571621793e-12)
(0 -1.863470347e-11 8.552151532e-12)
(0 -1.813446501e-11 1.01135634e-11)
(0 -1.796252016e-11 1.151937964e-11)
(0 -1.79536068e-11 1.330115382e-11)
(0 -1.725597753e-11 1.585486815e-11)
(0 -1.532396973e-11 1.735656459e-11)
(0 -1.410552592e-11 1.448608593e-11)
(0 -1.522483834e-11 9.326276775e-12)
(0 -1.611682396e-11 -2.323069314e-13)
(0 -1.979461543e-12 -2.590897908e-11)
(0 5.982299893e-12 2.170438904e-10)
(0 -6.956798309e-10 -6.704729887e-10)
(0 -5.767301808e-10 -1.261232416e-09)
(0 -4.297676304e-10 -1.614952914e-09)
(0 -2.258667888e-10 -1.613285339e-09)
(0 3.265992444e-12 -1.104788305e-09)
(0 1.663989642e-11 7.879163097e-23)
(0 -1.598629082e-11 7.335837139e-13)
(0 -1.597633892e-11 7.696800095e-13)
(0 -1.599361014e-11 8.414848732e-13)
(0 -1.601027369e-11 9.413267001e-13)
(0 -1.602921283e-11 1.061767711e-12)
(0 -1.605123563e-11 1.196388039e-12)
(0 -1.607748745e-11 1.339471538e-12)
(0 -1.610898845e-11 1.486242794e-12)
(0 -1.614662481e-11 1.632493894e-12)
(0 -1.619106457e-11 1.77481392e-12)
(0 -1.624271474e-11 1.910192838e-12)
(0 -1.63016995e-11 2.036247833e-12)
(0 -1.636786995e-11 2.150822227e-12)
(0 -1.644082189e-11 2.252225255e-12)
(0 -1.651992472e-11 2.33885057e-12)
(0 -1.660433559e-11 2.409454472e-12)
(0 -1.669301519e-11 2.4628035e-12)
(0 -1.678474524e-11 2.497977707e-12)
(0 -1.687817525e-11 2.514015088e-12)
(0 -1.697188162e-11 2.510208135e-12)
(0 -1.706443078e-11 2.48574149e-12)
(0 -1.715441339e-11 2.440005681e-12)
(0 -1.724045274e-11 2.372262519e-12)
(0 -1.732120009e-11 2.281981367e-12)
(0 -1.739537271e-11 2.168478761e-12)
(0 -1.746186023e-11 2.031177326e-12)
(0 -1.751989815e-11 1.869131879e-12)
(0 -1.756923739e-11 1.681203879e-12)
(0 -1.761023969e-11 1.465568983e-12)
(0 -1.764387706e-11 1.219933521e-12)
(0 -1.767172232e-11 9.410432558e-13)
(0 -1.769607725e-11 6.247481138e-13)
(0 -1.772032547e-11 2.651649109e-13)
(0 -1.774943301e-11 -1.456967366e-13)
(0 -1.779040244e-11 -6.191369977e-13)
(0 -1.785254338e-11 -1.170347318e-12)
(0 -1.794762956e-11 -1.819765065e-12)
(0 -1.809017142e-11 -2.593952106e-12)
(0 -1.82979154e-11 -3.52746305e-12)
(0 -1.85923636e-11 -4.664254259e-12)
(0 -1.899885821e-11 -6.059740024e-12)
(0 -1.954587427e-11 -7.781783224e-12)
(0 -2.026350623e-11 -9.911665585e-12)
(0 -2.118141695e-11 -1.254330095e-11)
(0 -2.232641994e-11 -1.578146547e-11)
(0 -2.371956128e-11 -1.973677532e-11)
(0 -2.537232546e-11 -2.451762059e-11)
(0 -2.728193978e-11 -3.021665882e-11)
(0 -2.942672579e-11 -3.689271718e-11)
(0 -3.176370547e-11 -4.45473203e-11)
(0 -3.423141231e-11 -5.309915776e-11)
(0 -3.676067986e-11 -6.235909521e-11)
(0 -3.929544355e-11 -7.201413951e-11)
(0 -4.182370069e-11 -8.163001257e-11)
(0 -4.441369423e-11 -9.068701771e-11)
(0 -4.724187198e-11 -9.865762061e-11)
(0 -5.059420579e-11 -1.051222837e-10)
(0 -5.483830226e-11 -1.098812847e-10)
(0 -6.044253898e-11 -1.129518258e-10)
(0 -6.836419898e-11 -1.142551916e-10)
(0 -8.160619688e-11 -1.128794466e-10)
(0 -1.089434448e-10 -1.063893745e-10)
(0 -1.700395249e-10 -9.316109914e-11)
(0 -2.810904548e-10 -8.602873978e-11)
(0 -3.90863583e-10 -8.998667486e-11)
(0 -3.30622283e-11 1.446382373e-21)
(0 4.162279222e-11 3.180920631e-10)
(0 9.853079657e-11 2.13873195e-12)
(0 3.421338104e-11 3.921453104e-12)
(0 1.685646739e-11 5.166988e-12)
(0 1.216837887e-11 6.394923402e-12)
(0 1.175173457e-11 7.069947544e-12)
(0 1.265659912e-11 6.374847718e-12)
(0 1.349884916e-11 5.060488996e-12)
(0 1.408296334e-11 3.805592803e-12)
(0 1.460153761e-11 2.638600232e-12)
(0 1.513553201e-11 1.382795381e-12)
(0 1.562164182e-11 -9.765644949e-14)
(0 1.593119364e-11 -1.843986828e-12)
(0 1.593236825e-11 -3.811704842e-12)
(0 1.553070822e-11 -5.888028248e-12)
(0 1.469340519e-11 -7.926881355e-12)
(0 1.345015225e-11 -9.791493572e-12)
(0 1.187564247e-11 -1.138056024e-11)
(0 1.006675919e-11 -1.263814656e-11)
(0 8.121390023e-12 -1.355267451e-11)
(0 6.121494682e-12 -1.414833138e-11)
(0 4.122727797e-12 -1.447022576e-11)
(0 2.151673837e-12 -1.456852228e-11)
(0 2.096985477e-13 -1.448426929e-11)
(0 -1.718649161e-12 -1.424005882e-11)
(0 -3.654733594e-12 -1.383503758e-11)
(0 -5.614082739e-12 -1.324532507e-11)
(0 -7.595482e-12 -1.242880641e-11)
(0 -9.572693827e-12 -1.133520372e-11)
(0 -1.149096425e-11 -9.919868365e-12)
(0 -1.327027039e-11 -8.160085737e-12)
(0 -1.481625587e-11 -6.06922487e-12)
(0 -1.603753946e-11 -3.70527126e-12)
(0 -1.686702096e-11 -1.170776644e-12)
(0 -1.72844488e-11 1.397146509e-12)
(0 -1.733356269e-11 3.853472089e-12)
(0 -1.712082368e-11 6.087100183e-12)
(0 -1.679096567e-11 8.055382817e-12)
(0 -1.648669262e-11 9.800174194e-12)
(0 -1.628718599e-11 1.145573836e-11)
(0 -1.613019423e-11 1.319344602e-11)
(0 -1.584534111e-11 1.497482445e-11)
(0 -1.565179481e-11 1.610618077e-11)
(0 -1.695169968e-11 1.581271283e-11)
(0 -2.269732886e-11 1.485949864e-11)
(0 -4.124869314e-11 1.367367255e-11)
(0 -1.067158945e-10 1.151154339e-11)
(0 -5.010343784e-11 3.261087838e-10)
(0 2.8937473e-11 1.51091915e-21)
(0 -7.913214363e-11 -1.014390846e-09)
(0 -2.33805239e-10 -1.599327992e-09)
(0 -1.884679501e-10 -1.772099893e-09)
(0 1.537199241e-11 -1.287800262e-09)
(0 1.943112781e-11 1.018559479e-22)
(0 -1.577564196e-11 7.904083926e-13)
(0 -1.576694455e-11 8.293579694e-13)
(0 -1.578632303e-11 9.068151254e-13)
(0 -1.580639185e-11 1.01446906e-12)
(0 -1.583003976e-11 1.144310503e-12)
(0 -1.585809404e-11 1.28937847e-12)
(0 -1.589170006e-11 1.443523168e-12)
(0 -1.593186879e-11 1.601561745e-12)
(0 -1.59794632e-11 1.75897643e-12)
(0 -1.60351199e-11 1.912059602e-12)
(0 -1.609920622e-11 2.057584972e-12)
(0 -1.617180635e-11 2.192947344e-12)
(0 -1.625273153e-11 2.315833081e-12)
(0 -1.634153878e-11 2.424376147e-12)
(0 -1.643754989e-11 2.516854303e-12)
(0 -1.65398631e-11 2.591886285e-12)
(0 -1.664736583e-11 2.648160095e-12)
(0 -1.675876437e-11 2.684653905e-12)
(0 -1.687263942e-11 2.700363138e-12)
(0 -1.698751386e-11 2.69451866e-12)
(0 -1.710190974e-11 2.666314525e-12)
(0 -1.7214373e-11 2.615147749e-12)
(0 -1.732347304e-11 2.540374858e-12)
(0 -1.742781566e-11 2.441567845e-12)
(0 -1.752612147e-11 2.31823873e-12)
(0 -1.761738867e-11 2.170017661e-12)
(0 -1.77011044e-11 1.99627665e-12)
(0 -1.777742084e-11 1.796243402e-12)
(0 -1.784723072e-11 1.568622408e-12)
(0 -1.791217574e-11 1.311741585e-12)
(0 -1.797472951e-11 1.023136562e-12)
(0 -1.803851619e-11 6.994918138e-13)
(0 -1.810889874e-11 3.358413149e-13)
(0 -1.819368173e-11 -7.49403272e-14)
(0 -1.830371015e-11 -5.433043885e-13)
(0 -1.845329685e-11 -1.083789927e-12)
(0 -1.866066596e-11 -1.716470515e-12)
(0 -1.894868344e-11 -2.468214041e-12)
(0 -1.934591149e-11 -3.374866934e-12)
(0 -1.988764247e-11 -4.483266184e-12)
(0 -2.061639418e-11 -5.853857254e-12)
(0 -2.158154382e-11 -7.562611127e-12)
(0 -2.283812953e-11 -9.702956378e-12)
(0 -2.444497401e-11 -1.23862967e-11)
(0 -2.646204629e-11 -1.574139525e-11)
(0 -2.894661077e-11 -1.991049824e-11)
(0 -3.1947634e-11 -2.504177374e-11)
(0 -3.549851736e-11 -3.127565651e-11)
(0 -3.960951801e-11 -3.872505465e-11)
(0 -4.426273005e-11 -4.744814543e-11)
(0 -4.941370907e-11 -5.741566981e-11)
(0 -5.500480245e-11 -6.847491019e-11)
(0 -6.099612508e-11 -8.031875969e-11)
(0 -6.74188923e-11 -9.247234997e-11)
(0 -7.444871566e-11 -1.043180553e-10)
(0 -8.248085618e-11 -1.151815123e-10)
(0 -9.216404835e-11 -1.244963933e-10)
(0 -1.043152122e-10 -1.320174791e-10)
(0 -1.196341756e-10 -1.379025796e-10)
(0 -1.383499565e-10 -1.42123459e-10)
(0 -1.607535976e-10 -1.418264331e-10)
(0 -1.926569693e-10 -1.243992899e-10)
(0 -2.698199156e-10 -5.565349535e-11)
(0 -4.892657701e-10 1.161017437e-10)
(0 -1.208289102e-09 3.996792744e-10)
(0 -7.991413402e-11 -2.354691184e-10)
(0 -8.391254111e-11 1.344312465e-10)
(0 2.058178566e-12 4.292493363e-11)
(0 1.22472634e-11 1.726742451e-11)
(0 1.17588025e-11 9.670217021e-12)
(0 1.098413244e-11 7.35833245e-12)
(0 1.108092629e-11 6.430294689e-12)
(0 1.168318189e-11 5.511293032e-12)
(0 1.23433351e-11 4.425623013e-12)
(0 1.290488153e-11 3.298990455e-12)
(0 1.338253054e-11 2.153533369e-12)
(0 1.379142164e-11 9.299277276e-13)
(0 1.409655316e-11 -4.307921587e-13)
(0 1.422834438e-11 -1.946867864e-12)
(0 1.411173078e-11 -3.588128607e-12)
(0 1.369089615e-11 -5.28400335e-12)
(0 1.294456687e-11 -6.942362731e-12)
(0 1.188880107e-11 -8.472393593e-12)
(0 1.056929068e-11 -9.801567294e-12)
(0 9.048676084e-12 -1.08843656e-11)
(0 7.393274156e-12 -1.170342754e-11)
(0 5.661912815e-12 -1.226515458e-11)
(0 3.89864412e-12 -1.259111961e-11)
(0 2.130102501e-12 -1.270830137e-11)
(0 3.671608993e-13 -1.26399208e-11)
(0 -1.390167228e-12 -1.239897257e-11)
(0 -3.145825293e-12 -1.198469143e-11)
(0 -4.900106577e-12 -1.13827651e-11)
(0 -6.642712069e-12 -1.056877537e-11)
(0 -8.347902155e-12 -9.515038016e-12)
(0 -9.973073506e-12 -8.199569725e-12)
(0 -1.146176599e-11 -6.616043765e-12)
(0 -1.275131491e-11 -4.781963338e-12)
(0 -1.378428179e-11 -2.742944292e-12)
(0 -1.452183648e-11 -5.709606592e-13)
(0 -1.495643982e-11 1.644475092e-12)
(0 -1.511947436e-11 3.813539644e-12)
(0 -1.507841327e-11 5.868576797e-12)
(0 -1.492162945e-11 7.782615827e-12)
(0 -1.473410947e-11 9.576517977e-12)
(0 -1.456924833e-11 1.131054555e-11)
(0 -1.443452071e-11 1.304270382e-11)
(0 -1.434324278e-11 1.474550772e-11)
(0 -1.448608135e-11 1.628116091e-11)
(0 -1.535220804e-11 1.780033623e-11)
(0 -1.736387861e-11 2.062579105e-11)
(0 -1.946477914e-11 2.855636256e-11)
(0 -1.153813034e-11 5.416555472e-11)
(0 7.048317227e-11 1.448176684e-10)
(0 7.189741207e-11 -2.277863305e-10)
(0 8.34453558e-10 -2.572982262e-10)
(0 -9.343264816e-11 -1.270318149e-09)
(0 -2.316803668e-10 -1.838676108e-09)
(0 -4.631853947e-12 -1.482096033e-09)
(0 2.343267139e-11 1.371241523e-22)
(0 -1.554847229e-11 8.519702418e-13)
(0 -1.554113695e-11 8.939949285e-13)
(0 -1.556280492e-11 9.775783514e-13)
(0 -1.558656421e-11 1.093698734e-12)
(0 -1.561531404e-11 1.233765627e-12)
(0 -1.564990185e-11 1.390214807e-12)
(0 -1.569147392e-11 1.556463675e-12)
(0 -1.574102959e-11 1.726867427e-12)
(0 -1.579940756e-11 1.896606109e-12)
(0 -1.586721063e-11 2.061623966e-12)
(0 -1.594476796e-11 2.218489824e-12)
(0 -1.603212447e-11 2.364326637e-12)
(0 -1.612905251e-11 2.496677549e-12)
(0 -1.623506658e-11 2.613455809e-12)
(0 -1.634943563e-11 2.712842784e-12)
(0 -1.647118899e-11 2.793279393e-12)
(0 -1.659913055e-11 2.853398792e-12)
(0 -1.673187651e-11 2.892039674e-12)
(0 -1.686792073e-11 2.908183223e-12)
(0 -1.700570583e-11 2.900966946e-12)
(0 -1.71436744e-11 2.869631469e-12)
(0 -1.728028164e-11 2.813558712e-12)
(0 -1.74139927e-11 2.732248483e-12)
(0 -1.754331365e-11 2.62536612e-12)
(0 -1.766690984e-11 2.492685008e-12)
(0 -1.778381478e-11 2.334062988e-12)
(0 -1.789366914e-11 2.149306721e-12)
(0 -1.799689415e-11 1.938107247e-12)
(0 -1.809475565e-11 1.699915036e-12)
(0 -1.818940287e-11 1.433890891e-12)
(0 -1.828406937e-11 1.138702066e-12)
(0 -1.8383594e-11 8.122246074e-13)
(0 -1.849524152e-11 4.509434929e-13)
(0 -1.862960312e-11 4.922741497e-14)
(0 -1.880136285e-11 -4.016214856e-13)
(0 -1.90299526e-11 -9.143914131e-13)
(0 -1.9340385e-11 -1.507328392e-12)
(0 -1.976455866e-11 -2.20586102e-12)
(0 -2.034298469e-11 -3.044924657e-12)
(0 -2.112648113e-11 -4.071660457e-12)
(0 -2.21772817e-11 -5.348448283e-12)
(0 -2.356927742e-11 -6.955901044e-12)
(0 -2.538740598e-11 -8.995712417e-12)
(0 -2.772617084e-11 -1.159275906e-11)
(0 -3.068687152e-11 -1.489577583e-11)
(0 -3.437272152e-11 -1.907515125e-11)
(0 -3.888104787e-11 -2.431629881e-11)
(0 -4.429253019e-11 -3.080658076e-11)
(0 -5.065883402e-11 -3.871406624e-11)
(0 -5.799167692e-11 -4.815629147e-11)
(0 -6.62582299e-11 -5.915810207e-11)
(0 -7.539039387e-11 -7.159939562e-11)
(0 -8.53187443e-11 -8.515839031e-11)
(0 -9.604333075e-11 -9.926332519e-11)
(0 -1.077491955e-10 -1.130776493e-10)
(0 -1.209588076e-10 -1.255627037e-10)
(0 -1.366682314e-10 -1.356880364e-10)
(0 -1.562916929e-10 -1.428691385e-10)
(0 -1.809688491e-10 -1.476360302e-10)
(0 -2.091108422e-10 -1.520880393e-10)
(0 -2.301036033e-10 -1.583256915e-10)
(0 -2.116920897e-10 -1.607066598e-10)
(0 -9.021993645e-11 -1.253643562e-10)
(0 2.462952572e-10 1.980973206e-11)
(0 8.652466214e-11 2.202346501e-10)
(0 2.53566024e-11 -3.232445876e-10)
(0 -7.798935227e-11 1.41707196e-11)
(0 -1.863302566e-11 1.786209204e-11)
(0 9.586643795e-13 1.255286513e-11)
(0 6.947375334e-12 8.887883202e-12)
(0 8.928456534e-12 6.937701216e-12)
(0 9.90469515e-12 5.781456322e-12)
(0 1.065192745e-11 4.814325623e-12)
(0 1.128654658e-11 3.831648128e-12)
(0 1.181087369e-11 2.811159923e-12)
(0 1.223247488e-11 1.74652284e-12)
(0 1.255120648e-11 6.140881646e-13)
(0 1.274484622e-11 -6.086961565e-13)
(0 1.277385719e-11 -1.924666948e-12)
(0 1.259523276e-11 -3.310080636e-12)
(0 1.21764741e-11 -4.717614241e-12)
(0 1.150501494e-11 -6.086324783e-12)
(0 1.059094768e-11 -7.354245724e-12)
(0 9.46367046e-12 -8.469036489e-12)
(0 8.164898948e-12 -9.3943177e-12)
(0 6.740601046e-12 -1.011148666e-11)
(0 5.233802604e-12 -1.061761836e-11)
(0 3.679581007e-12 -1.092067747e-11)
(0 2.102872654e-12 -1.103350598e-11)
(0 5.190273464e-13 -1.096809665e-11)
(0 -1.06341979e-12 -1.073121218e-11)
(0 -2.638526122e-12 -1.032206749e-11)
(0 -4.198166685e-12 -9.732346454e-12)
(0 -5.727754918e-12 -8.948595015e-12)
(0 -7.203488176e-12 -7.956631581e-12)
(0 -8.591970003e-12 -6.747310543e-12)
(0 -9.852664003e-12 -5.322459796e-12)
(0 -1.094315639e-11 -3.69953266e-12)
(0 -1.182653678e-11 -1.913439896e-12)
(0 -1.247960158e-11 -1.446988508e-14)
(0 -1.289994849e-11 1.938292143e-12)
(0 -1.310946098e-11 3.887698419e-12)
(0 -1.31517475e-11 5.791082309e-12)
(0 -1.308302448e-11 7.629979459e-12)
(0 -1.29587629e-11 9.412779421e-12)
(0 -1.282100015e-11 1.116732159e-11)
(0 -1.269523205e-11 1.292148993e-11)
(0 -1.260688401e-11 1.468349577e-11)
(0 -1.25969663e-11 1.647276231e-11)
(0 -1.260706953e-11 1.848186154e-11)
(0 -1.194130255e-11 2.128730227e-11)
(0 -7.708929434e-12 2.576021146e-11)
(0 9.545411575e-12 3.177680562e-11)
(0 6.595087319e-11 2.87759482e-11)
(0 -3.986777971e-11 -3.070259066e-10)
(0 -9.420744984e-11 2.284649104e-10)
(0 -7.1755537e-10 -9.878164001e-10)
(0 -5.124865451e-10 -1.956084779e-09)
(0 -7.949688997e-11 -1.751063193e-09)
(0 2.948422228e-11 1.94096185e-22)
(0 -1.530341081e-11 9.185253226e-13)
(0 -1.529755228e-11 9.638952945e-13)
(0 -1.53216958e-11 1.054108873e-12)
(0 -1.534943579e-11 1.179437115e-12)
(0 -1.538368374e-11 1.330612722e-12)
(0 -1.542531113e-11 1.499484485e-12)
(0 -1.547546527e-11 1.678952851e-12)
(0 -1.55351338e-11 1.86293735e-12)
(0 -1.560513139e-11 2.046238965e-12)
(0 -1.568602876e-11 2.22448558e-12)
(0 -1.577811962e-11 2.393964674e-12)
(0 -1.588141256e-11 2.551562724e-12)
(0 -1.599564059e-11 2.694606754e-12)
(0 -1.612027245e-11 2.820829468e-12)
(0 -1.625451655e-11 2.928247054e-12)
(0 -1.639732375e-11 3.015167447e-12)
(0 -1.654740211e-11 3.08010242e-12)
(0 -1.670326282e-11 3.121797781e-12)
(0 -1.686329233e-11 3.139154206e-12)
(0 -1.702582396e-11 3.131265604e-12)
(0 -1.718918096e-11 3.097355839e-12)
(0 -1.735167916e-11 3.036847551e-12)
(0 -1.75116227e-11 2.949327119e-12)
(0 -1.766735485e-11 2.834618958e-12)
(0 -1.781741043e-11 2.692719194e-12)
(0 -1.796075839e-11 2.523812707e-12)
(0 -1.809705541e-11 2.328154078e-12)
(0 -1.822681239e-11 2.106070096e-12)
(0 -1.835145603e-11 1.857859599e-12)
(0 -1.847341844e-11 1.583790278e-12)
(0 -1.859647315e-11 1.283882478e-12)
(0 -1.872645829e-11 9.576351885e-13)
(0 -1.887230905e-11 6.034310072e-13)
(0 -1.904714225e-11 2.178844793e-13)
(0 -1.926921103e-11 -2.050700807e-13)
(0 -1.956285132e-11 -6.751701309e-13)
(0 -1.995980183e-11 -1.20728725e-12)
(0 -2.050118527e-11 -1.823305483e-12)
(0 -2.124001428e-11 -2.554735057e-12)
(0 -2.224368492e-11 -3.445771472e-12)
(0 -2.359591111e-11 -4.55690805e-12)
(0 -2.539785791e-11 -5.96873587e-12)
(0 -2.776844504e-11 -7.785979069e-12)
(0 -3.084357169e-11 -1.014110357e-11)
(0 -3.477346139e-11 -1.319686877e-11)
(0 -3.971685988e-11 -1.714619882e-11)
(0 -4.583086343e-11 -2.220772498e-11)
(0 -5.325587837e-11 -2.861445016e-11)
(0 -6.209648082e-11 -3.659295597e-11)
(0 -7.240054566e-11 -4.632949524e-11)
(0 -8.414145725e-11 -5.791944229e-11)
(0 -9.721242822e-11 -7.12970178e-11)
(0 -1.114478425e-10 -8.61457067e-11)
(0 -1.266927108e-10 -1.017955652e-10)
(0 -1.429477449e-10 -1.171276126e-10)
(0 -1.606228341e-10 -1.305358979e-10)
(0 -1.80916642e-10 -1.400618516e-10)
(0 -2.062494322e-10 -1.439290512e-10)
(0 -2.402957833e-10 -1.418408631e-10)
(0 -2.861188239e-10 -1.372096638e-10)
(0 -3.392503656e-10 -1.389870231e-10)
(0 -3.705725605e-10 -1.574509955e-10)
(0 -3.13104382e-10 -1.645173124e-10)
(0 -2.574671309e-11 1.16464539e-21)
(0 7.476161024e-11 3.142146395e-10)
(0 1.120281333e-10 -8.656179923e-11)
(0 1.121277535e-11 -1.834768974e-11)
(0 4.403240962e-13 1.799573268e-12)
(0 3.273054574e-12 6.193826544e-12)
(0 6.143638597e-12 6.390552368e-12)
(0 7.877705564e-12 5.7229723e-12)
(0 8.957550703e-12 4.943391137e-12)
(0 9.7333737e-12 4.132814697e-12)
(0 1.03401694e-11 3.275410455e-12)
(0 1.081975624e-11 2.367382916e-12)
(0 1.118545878e-11 1.407197068e-12)
(0 1.143620264e-11 3.884487586e-13)
(0 1.155779805e-11 -6.935656953e-13)
(0 1.152695991e-11 -1.833190476e-12)
(0 1.131878348e-11 -3.010068361e-12)
(0 1.091465201e-11 -4.19021932e-12)
(0 1.030793539e-11 -5.331228892e-12)
(0 9.506089362e-12 -6.389374711e-12)
(0 8.529218702e-12 -7.32610656e-12)
(0 7.406225913e-12 -8.112431969e-12)
(0 6.169973495e-12 -8.730553287e-12)
(0 4.852722012e-12 -9.17308119e-12)
(0 3.482756497e-12 -9.440347975e-12)
(0 2.082683315e-12 -9.536862908e-12)
(0 6.694547021e-13 -9.467708707e-12)
(0 -7.441380646e-13 -9.235758943e-12)
(0 -2.146959566e-12 -8.840101499e-12)
(0 -3.526634107e-12 -8.276052696e-12)
(0 -4.866997198e-12 -7.536661692e-12)
(0 -6.146617683e-12 -6.615554812e-12)
(0 -7.338901725e-12 -5.510474187e-12)
(0 -8.41398811e-12 -4.226813315e-12)
(0 -9.342295006e-12 -2.780110169e-12)
(0 -1.009921902e-11 -1.196672329e-12)
(0 -1.067010445e-11 4.883578653e-13)
(0 -1.105427152e-11 2.235568514e-12)
(0 -1.12666842e-11 4.007963328e-12)
(0 -1.133613224e-11 5.778131511e-12)
(0 -1.129993234e-11 7.533506612e-12)
(0 -1.119676735e-11 9.277397338e-12)
(0 -1.106053782e-11 1.102461135e-11)
(0 -1.091834652e-11 1.279257976e-11)
(0 -1.079197041e-11 1.459435234e-11)
(0 -1.068771559e-11 1.644462597e-11)
(0 -1.053766809e-11 1.836715959e-11)
(0 -1.00855287e-11 2.028145967e-11)
(0 -8.9752758e-12 2.142056594e-11)
(0 -8.522393592e-12 1.840573663e-11)
(0 -2.233817622e-11 -4.464266944e-13)
(0 -1.264198227e-10 -6.790568262e-11)
(0 -9.098029269e-11 3.309166131e-10)
(0 1.751645098e-11 1.270997453e-21)
(0 -2.917665382e-10 -1.839075465e-09)
(0 2.224394417e-12 -2.034903095e-09)
(0 3.933080626e-11 2.966248299e-22)
(0 -1.503899417e-11 9.90374801e-13)
(0 -1.50347247e-11 1.039369243e-12)
(0 -1.506152753e-11 1.136783804e-12)
(0 -1.509354039e-11 1.272112155e-12)
(0 -1.513368616e-11 1.435379767e-12)
(0 -1.518286166e-11 1.617790317e-12)
(0 -1.524221783e-11 1.811711705e-12)
(0 -1.531273165e-11 2.010580695e-12)
(0 -1.539519669e-11 2.208810769e-12)
(0 -1.549015691e-11 2.401670639e-12)
(0 -1.559787523e-11 2.585161982e-12)
(0 -1.571832653e-11 2.755896046e-12)
(0 -1.585120493e-11 2.910983891e-12)
(0 -1.599592886e-11 3.04794381e-12)
(0 -1.615163869e-11 3.164631491e-12)
(0 -1.631719644e-11 3.259189523e-12)
(0 -1.649120352e-11 3.330013176e-12)
(0 -1.66720521e-11 3.375720771e-12)
(0 -1.685800067e-11 3.395134748e-12)
(0 -1.704724396e-11 3.387268141e-12)
(0 -1.723794496e-11 3.351330361e-12)
(0 -1.742822772e-11 3.286748594e-12)
(0 -1.761617514e-11 3.193201274e-12)
(0 -1.779989544e-11 3.070642921e-12)
(0 -1.797770063e-11 2.919315057e-12)
(0 -1.814836997e-11 2.739732044e-12)
(0 -1.831140481e-11 2.532665724e-12)
(0 -1.846718417e-11 2.29914091e-12)
(0 -1.861703558e-11 2.040444477e-12)
(0 -1.876339171e-11 1.758095597e-12)
(0 -1.891026573e-11 1.453715645e-12)
(0 -1.906415811e-11 1.12873045e-12)
(0 -1.92352689e-11 7.839091514e-13)
(0 -1.943874253e-11 4.187635363e-13)
(0 -1.969582481e-11 3.081536026e-14)
(0 -2.003515982e-11 -3.853768552e-13)
(0 -2.049467095e-11 -8.396144505e-13)
(0 -2.112429171e-11 -1.348066801e-12)
(0 -2.198932507e-11 -1.935961932e-12)
(0 -2.317385833e-11 -2.640940211e-12)
(0 -2.478372755e-11 -3.517021787e-12)
(0 -2.694884734e-11 -4.63918138e-12)
(0 -2.982481114e-11 -6.10845236e-12)
(0 -3.359326438e-11 -8.057227187e-12)
(0 -3.845985072e-11 -1.065395967e-11)
(0 -4.464799597e-11 -1.41059483e-11)
(0 -5.238674942e-11 -1.865830265e-11)
(0 -6.189139138e-11 -2.458654189e-11)
(0 -7.333631304e-11 -3.217924868e-11)
(0 -8.682090187e-11 -4.170576548e-11)
(0 -1.023316897e-10 -5.336238775e-11)
(0 -1.197088419e-10 -6.718960614e-11)
(0 -1.386320248e-10 -8.295278702e-11)
(0 -1.586503809e-10 -9.997984318e-11)
(0 -1.792991607e-10 -1.16955504e-10)
(0 -2.003799425e-10 -1.316928189e-10)
(0 -2.225347794e-10 -1.409624841e-10)
(0 -2.482711417e-10 -1.406240901e-10)
(0 -2.832986602e-10 -1.266650983e-10)
(0 -3.365868057e-10 -9.784610448e-11)
(0 -4.150650834e-10 -5.988118669e-11)
(0 -4.966217955e-10 -2.17922427e-11)
(0 -5.555308651e-10 1.746268128e-12)
(0 -8.379155798e-11 -1.78858403e-11)
(0 -7.604955423e-11 9.642667454e-11)
(0 1.478805334e-11 3.123743534e-12)
(0 1.037202008e-11 -2.799587661e-12)
(0 5.90849065e-12 1.489820728e-12)
(0 5.549643485e-12 4.032125217e-12)
(0 6.47652109e-12 4.757372154e-12)
(0 7.481295302e-12 4.620131974e-12)
(0 8.314537548e-12 4.136230366e-12)
(0 8.983946766e-12 3.498063278e-12)
(0 9.521114795e-12 2.769717563e-12)
(0 9.942660308e-12 1.975672176e-12)
(0 1.025354073e-11 1.126298667e-12)
(0 1.045044372e-11 2.259217615e-13)
(0 1.052320699e-11 -7.210035775e-13)
(0 1.045735453e-11 -1.704629062e-12)
(0 1.023820391e-11 -2.706960778e-12)
(0 9.855313564e-12 -3.702129363e-12)
(0 9.305859554e-12 -4.65916849e-12)
(0 8.596070011e-12 -5.546056985e-12)
(0 7.740613201e-12 -6.333697716e-12)
(0 6.760452222e-12 -6.998797025e-12)
(0 5.679951824e-12 -7.525212962e-12)
(0 4.524007916e-12 -7.90373814e-12)
(0 3.315799289e-12 -8.130690954e-12)
(0 2.075511922e-12 -8.205817932e-12)
(0 8.201313111e-13 -8.130120835e-12)
(0 -4.358125819e-13 -7.904074993e-12)
(0 -1.678819873e-12 -7.526630792e-12)
(0 -2.894726879e-12 -6.995168189e-12)
(0 -4.067257034e-12 -6.306451657e-12)
(0 -5.177300667e-12 -5.458367272e-12)
(0 -6.203228506e-12 -4.452079749e-12)
(0 -7.122299986e-12 -3.294042524e-12)
(0 -7.913015403e-12 -1.99727851e-12)
(0 -8.558068746e-12 -5.813740502e-13)
(0 -9.047360732e-12 9.291055432e-13)
(0 -9.380343025e-12 2.507757753e-12)
(0 -9.566897987e-12 4.130542023e-12)
(0 -9.626204214e-12 5.780065254e-12)
(0 -9.583758649e-12 7.448620486e-12)
(0 -9.467658162e-12 9.13881573e-12)
(0 -9.305817724e-12 1.086127106e-11)
(0 -9.125491045e-12 1.262996089e-11)
(0 -8.9548378e-12 1.445677344e-11)
(0 -8.824159048e-12 1.634426594e-11)
(0 -8.770235833e-12 1.826071866e-11)
(0 -8.887896205e-12 2.005080302e-11)
(0 -9.584652477e-12 2.123509638e-11)
(0 -1.232158107e-11 2.08721479e-11)
(0 -2.036054585e-11 1.893889847e-11)
(0 -3.049851976e-11 2.692698066e-11)
(0 4.971064912e-11 1.204348323e-10)
(0 6.708958329e-11 7.807297874e-13)
(0 3.113623767e-11 -1.459509451e-09)
(0 1.505409938e-11 -2.322524949e-09)
(0 5.701791853e-11 5.026170075e-22)
(0 -1.475364261e-11 1.067814389e-12)
(0 -1.475107702e-11 1.12074867e-12)
(0 -1.478072296e-11 1.225977604e-12)
(0 -1.481729945e-11 1.37217514e-12)
(0 -1.486374153e-11 1.548594495e-12)
(0 -1.492097434e-11 1.745765767e-12)
(0 -1.499015439e-11 1.955471435e-12)
(0 -1.507225239e-11 2.170649587e-12)
(0 -1.516804689e-11 2.385280137e-12)
(0 -1.527806156e-11 2.594261926e-12)
(0 -1.540253435e-11 2.793272036e-12)
(0 -1.554141054e-11 2.978641325e-12)
(0 -1.569434456e-11 3.147231576e-12)
(0 -1.586070022e-11 3.296346615e-12)
(0 -1.603954333e-11 3.423650933e-12)
(0 -1.622963912e-11 3.527121295e-12)
(0 -1.642947371e-11 3.605000304e-12)
(0 -1.663730887e-11 3.655772966e-12)
(0 -1.685125782e-11 3.67814094e-12)
(0 -1.70693481e-11 3.671024771e-12)
(0 -1.728954175e-11 3.633573318e-12)
(0 -1.750971936e-11 3.565204164e-12)
(0 -1.772767875e-11 3.465639961e-12)
(0 -1.794121291e-11 3.334956658e-12)
(0 -1.814830436e-11 3.173605837e-12)
(0 -1.834739603e-11 2.982444527e-12)
(0 -1.853763653e-11 2.762759835e-12)
(0 -1.871902292e-11 2.516327931e-12)
(0 -1.889248837e-11 2.245465506e-12)
(0 -1.906013197e-11 1.953053978e-12)
(0 -1.92258247e-11 1.642447101e-12)
(0 -1.939626814e-11 1.31725805e-12)
(0 -1.958233932e-11 9.810121999e-13)
(0 -1.980046636e-11 6.367242045e-13)
(0 -2.007399404e-11 2.863333293e-13)
(0 -2.043486677e-11 -7.011118971e-14)
(0 -2.09261155e-11 -4.357537789e-13)
(0 -2.160536453e-11 -8.188658304e-13)
(0 -2.254907507e-11 -1.235506713e-12)
(0 -2.385695784e-11 -1.712897326e-12)
(0 -2.565614437e-11 -2.293591007e-12)
(0 -2.810501032e-11 -3.04054545e-12)
(0 -3.139649836e-11 -4.043202624e-12)
(0 -3.57602085e-11 -5.424374645e-12)
(0 -4.146170664e-11 -7.347370677e-12)
(0 -4.879688233e-11 -1.002225896e-11)
(0 -5.80789921e-11 -1.370966653e-11)
(0 -6.961607573e-11 -1.871965728e-11)
(0 -8.36765282e-11 -2.540190815e-11)
(0 -1.004410781e-10 -3.41212389e-11)
(0 -1.199414292e-10 -4.521007228e-11)
(0 -1.419898817e-10 -5.888661456e-11)
(0 -1.661096766e-10 -7.512434377e-11)
(0 -1.914835303e-10 -9.345415891e-11)
(0 -2.169545246e-10 -1.126754991e-10)
(0 -2.411527271e-10 -1.304449431e-10)
(0 -2.629128587e-10 -1.427049181e-10)
(0 -2.823291475e-10 -1.430095564e-10)
(0 -3.024503535e-10 -1.221963075e-10)
(0 -3.299793478e-10 -7.060041721e-11)
(0 -3.619630127e-10 9.232132967e-12)
(0 -3.468898956e-10 9.268342264e-11)
(0 5.812657458e-11 1.476057002e-22)
(0 7.06799613e-11 9.80148837e-12)
(0 1.975877885e-11 1.024155836e-11)
(0 1.280187094e-11 5.429410932e-12)
(0 9.578852554e-12 2.535539744e-12)
(0 7.272036991e-12 2.926993725e-12)
(0 6.540606005e-12 3.687340786e-12)
(0 6.731645353e-12 3.986572195e-12)
(0 7.256563775e-12 3.863868887e-12)