/*--------------------------------*- C++ -*----------------------------------*\
  =========                 |
  \\      /  F ield         | OpenFOAM: The Open Source CFD Toolbox
   \\    /   O peration     | Website:  https://openfoam.org
    \\  /    A nd           | Version:  6
     \\/     M anipulation  |
\*---------------------------------------------------------------------------*/
FoamFile
{
    version     2.0;
    format      ascii;
    class       volVectorField;
    location    "0.0025";
    object      gradT;
}
// * * * * * * * * * * * * * * * * * * * * * * * * * * * * * * * * * * * * * //

dimensions      [0 -1 0 1 0 0 0];

internalField   nonuniform List<vector> 
9600
(
(0 -2.500441265e-06 3.653846032e-05)
(0 -7.489888896e-06 3.653083724e-05)
(0 -1.248695973e-05 3.650415548e-05)
(0 -1.748403062e-05 3.646985065e-05)
(0 -2.247347834e-05 3.642411109e-05)
(0 -2.746673744e-05 3.63631245e-05)
(0 -3.247905491e-05 3.629832648e-05)
(0 -3.748374931e-05 3.621447043e-05)
(0 -4.249987821e-05 3.611536736e-05)
(0 -4.751981899e-05 3.600101791e-05)
(0 -5.253976007e-05 3.586761044e-05)
(0 -5.757113547e-05 3.571133264e-05)
(0 -6.260251119e-05 3.553980847e-05)
(0 -6.763769896e-05 3.534160297e-05)
(0 -7.269194416e-05 3.511671551e-05)
(0 -7.774237812e-05 3.486514673e-05)
(0 -8.280424752e-05 3.458308496e-05)
(0 -8.787373922e-05 3.42705296e-05)
(0 -9.293941977e-05 3.391985796e-05)
(0 -9.800510091e-05 3.353107003e-05)
(0 -0.0001030822158 3.310035358e-05)
(0 -0.000108163143 3.261627425e-05)
(0 -0.0001132364475 3.207502039e-05)
(0 -0.0001183135623 3.148802636e-05)
(0 -0.0001233792429 3.082098791e-05)
(0 -0.0001284449242 3.008533998e-05)
(0 -0.0001335029807 2.927727036e-05)
(0 -0.000138549603 2.838153302e-05)
(0 -0.0001435733563 2.739431628e-05)
(0 -0.0001485780496 2.630037306e-05)
(0 -0.0001535636855 2.510351551e-05)
(0 -0.0001585073943 2.377706205e-05)
(0 -0.0001634167963 2.232482392e-05)
(0 -0.0001682804595 2.072012e-05)
(0 -0.0001730945723 1.895151531e-05)
(0 -0.0001778476966 1.701138623e-05)
(0 -0.0001825245891 1.48768632e-05)
(0 -0.0001871100031 1.253269959e-05)
(0 -0.0001916001236 9.95983693e-06)
(0 -0.0001959720842 7.131593914e-06)
(0 -0.0002002144499 4.021288949e-06)
(0 -0.0002043081589 6.136753715e-07)
(0 -0.0002082150984 -3.121739933e-06)
(0 -0.0002119238335 -7.223073515e-06)
(0 -0.0002154000554 -1.171700678e-05)
(0 -0.0002186132749 -1.665309129e-05)
(0 -0.0002214948823 -2.204657373e-05)
(0 -0.0002240220038 -2.795081677e-05)
(0 -0.0002261184103 -3.440393729e-05)
(0 -0.0002277269273 -4.144786354e-05)
(0 -0.0002287675059 -4.911308796e-05)
(0 -0.0002291448591 -5.745678603e-05)
(0 -0.0002287408257 -6.648276953e-05)
(0 -0.0002274486756 -7.622534211e-05)
(0 -0.0002251311938 -8.668450512e-05)
(0 -0.0002216435358 -9.786025793e-05)
(0 -0.0002168561054 -0.0001097335423)
(0 -0.0002105935673 -0.0001223043583)
(0 -0.0002027034555 -0.0001355955759)
(0 -0.0001929494474 -0.0001497634725)
(0 -0.000180870334 -0.0001651510966)
(0 -0.0001654255353 -0.0001823530653)
(0 -0.0001443738018 -0.0002019411257)
(0 -0.0001139759068 -0.0002230004825)
(0 -7.263095796e-05 -0.0002378964041)
(0 -4.670412634e-05 -0.0002171267325)
(0 6.702783483e-05 -0.000211622712)
(0 0.0001876550688 -0.0001166821775)
(0 0.0001823263834 -6.326573799e-05)
(0 0.0001591325036 -1.118718767e-05)
(0 0.0001473964395 3.403039596e-05)
(0 0.0001439430853 7.121683628e-05)
(0 0.0001463291771 0.0001003568873)
(0 0.0001517493418 0.0001204518977)
(0 0.0001569255593 0.0001324814589)
(0 0.0001597919188 0.0001395291966)
(0 0.0001601159098 0.0001441336686)
(0 0.0001585798146 0.0001477814151)
(0 0.0001559993288 0.0001509755763)
(0 0.0001529652577 0.0001536666009)
(0 0.0001497253557 0.000155595294)
(0 0.0001462072044 0.0001565139013)
(0 0.0001421516114 0.0001563652479)
(0 0.0001372498309 0.0001552751156)
(0 0.0001312617315 0.0001535522506)
(0 0.0001240500937 0.000151574006)
(0 0.0001156339736 0.0001497749071)
(0 0.000106146781 0.000148551368)
(0 9.584389633e-05 0.0001482388138)
(0 8.504549621e-05 0.000149039259)
(0 7.410987732e-05 0.0001510975491)
(0 6.343726254e-05 0.0001543946258)
(0 5.337451073e-05 0.0001588504417)
(0 4.424561312e-05 0.000164243924)
(0 3.627545681e-05 0.0001702853875)
(0 2.960126047e-05 0.000176597476)
(0 2.419253157e-05 0.0001827875928)
(0 1.992348563e-05 0.0001885050663)
(0 1.651206031e-05 0.0001934868895)
(0 1.36609474e-05 0.0001976530211)
(0 1.108427324e-05 0.0002010873174)
(0 8.690558056e-06 0.0002040756484)
(0 6.693254363e-06 0.0002068886448)
(0 5.633616177e-06 0.0002096063513)
(0 6.293031294e-06 0.0002117141915)
(0 9.193695628e-06 0.0002117370614)
(0 1.393919781e-05 0.0002071287799)
(0 1.827685346e-05 0.0001949886789)
(0 1.893626861e-05 0.0001747793198)
(0 1.354278639e-05 0.0001475069773)
(0 2.630037306e-07 0.0001124512473)
(0 -2.31290817e-05 6.884217941e-05)
(0 -4.134494904e-05 2.17683234e-05)
(0 0.0004800466065 -0.0004329117639)
(0 0.001137994273 -0.0009154245068)
(0 0.00131249535 -0.0006855973668)
(0 0.001389700278 -0.0005628317952)
(0 0.001456114437 -0.0004468700199)
(0 0.001509801512 -0.0003244170095)
(0 0.0007664347992 -0.0001960330705)
(0 -2.508064547e-06 3.780773897e-05)
(0 -7.508947092e-06 3.78001159e-05)
(0 -1.25136412e-05 3.777724578e-05)
(0 -1.751833535e-05 3.774294095e-05)
(0 -2.252302963e-05 3.770482469e-05)
(0 -2.753915859e-05 3.764764974e-05)
(0 -3.255147603e-05 3.757522842e-05)
(0 -3.757522865e-05 3.749518403e-05)
(0 -4.260660411e-05 3.739608096e-05)
(0 -4.764560309e-05 3.727791986e-05)
(0 -5.268079074e-05 3.714451239e-05)
(0 -5.7735036e-05 3.699585789e-05)
(0 -6.278928158e-05 3.681671042e-05)
(0 -6.785115086e-05 3.661850493e-05)
(0 -7.292826592e-05 3.639361747e-05)
(0 -7.801681633e-05 3.614204868e-05)
(0 -8.310155559e-05 3.585998693e-05)
(0 -8.820535209e-05 3.554361991e-05)
(0 -9.331296074e-05 3.518913662e-05)
(0 -9.842056999e-05 3.479272541e-05)
(0 -0.0001035510479 3.435438565e-05)
(0 -0.0001086777148 3.385505973e-05)
(0 -0.0001138120057 3.330999423e-05)
(0 -0.0001189462952 3.269631867e-05)
(0 -0.0001240920203 3.202165693e-05)
(0 -0.000129230123 3.127076241e-05)
(0 -0.000134368224 3.04398229e-05)
(0 -0.0001395063259 2.951359238e-05)
(0 -0.0001446329936 2.849207082e-05)
(0 -0.0001497482247 2.736763442e-05)
(0 -0.0001548443984 2.612884874e-05)
(0 -0.0001599253265 2.475665552e-05)
(0 -0.0001649795711 2.324724266e-05)
(0 -0.0001700071351 2.158155238e-05)
(0 -0.0001749851488 1.974433804e-05)
(0 -0.0001799364788 1.772416435e-05)
(0 -0.0001848115769 1.550578507e-05)
(0 -0.0001896256898 1.305870697e-05)
(0 -0.0001943711907 1.036768323e-05)
(0 -0.0001990214016 7.402220896e-06)
(0 -0.0002035610759 4.147073318e-06)
(0 -0.000207978775 5.717472371e-07)
(0 -0.0002122516327 -3.369497051e-06)
(0 -0.0002163491558 -7.691906209e-06)
(0 -0.0002202599056 -1.244884318e-05)
(0 -0.0002239381462 -1.766698963e-05)
(0 -0.0002273381378 -2.340352038e-05)
(0 -0.0002304255715 -2.970036314e-05)
(0 -0.0002331280301 -3.661088142e-05)
(0 -0.0002353807156 -4.41808151e-05)
(0 -0.0002371188258 -5.247496142e-05)
(0 -0.0002382242038 -6.153524931e-05)
(0 -0.0002385825002 -7.140360705e-05)
(0 -0.0002380755495 -8.211433819e-05)
(0 -0.0002365432674 -9.369412574e-05)
(0 -0.0002338446205 -0.0001061391574)
(0 -0.0002298118965 -0.0001194227515)
(0 -0.0002243459929 -0.0001335220383)
(0 -0.0002173744884 -0.0001484636996)
(0 -0.0002088973826 -0.0001644002009)
(0 -0.0001988575011 -0.0001819375945)
(0 -0.0001866335452 -0.0002025624233)
(0 -0.0001693782135 -0.0002293926152)
(0 -0.0001374289778 -0.0002672880222)
(0 -6.199264724e-05 -0.0003197782305)
(0 -4.01747726e-06 -0.0003765984708)
(0 0.0001283572547 -0.0001946989925)
(0 0.0002486681215 -9.926294425e-05)
(0 0.0002267587659 -4.992878039e-05)
(0 0.0002020592852 -7.581368364e-06)
(0 0.0001844685297 2.880081433e-05)
(0 0.0001741961366 5.929018849e-05)
(0 0.0001694239529 8.381052166e-05)
(0 0.0001679640927 0.0001022169717)
(0 0.0001676210433 0.000115134647)
(0 0.0001669006418 0.0001240157874)
(0 0.0001651930244 0.0001303469359)
(0 0.0001625324929 0.0001351496119)
(0 0.0001591782425 0.0001389612602)
(0 0.0001553970883 0.0001419724631)
(0 0.0001513148121 0.000144175595)
(0 0.0001468856769 0.0001455325417)
(0 0.0001419724631 0.0001460585501)
(0 0.0001364112675 0.0001458832134)
(0 0.0001300458149 0.0001452237982)
(0 0.000122792249 0.0001443776132)
(0 0.0001146848725 0.0001436381526)
(0 0.0001058189786 0.0001433103508)
(0 9.636227992e-05 0.0001436152835)
(0 8.657015499e-05 0.0001447473422)
(0 7.669417439e-05 0.000146786574)
(0 6.703926978e-05 0.0001497634722)
(0 5.786844369e-05 0.0001535903661)
(0 4.942564282e-05 0.0001581224159)
(0 4.184427471e-05 0.0001631232994)
(0 3.524631134e-05 0.0001683643147)
(0 2.962413018e-05 0.0001735405331)
(0 2.488243991e-05 0.0001784194439)
(0 2.085352756e-05 0.0001828257082)
(0 1.736968106e-05 0.000186664038)
(0 1.424031794e-05 0.0001899496799)
(0 1.143875639e-05 0.0001927588635)
(0 9.033606346e-06 0.0001951297087)
(0 7.242131714e-06 0.0001969211846)
(0 6.273973015e-06 0.0001976225267)
(0 6.037650824e-06 0.0001962465217)
(0 5.812763612e-06 0.0001913866713)
(0 3.97936077e-06 0.0001817203302)
(0 -1.734299953e-06 0.0001667748574)
(0 -1.362664257e-05 0.0001466493556)
(0 -3.396940918e-05 0.0001209702804)
(0 -6.451595824e-05 8.849503736e-05)
(0 -0.0001024456706 4.565211133e-05)
(0 -6.102830009e-05 -3.597052451e-05)
(0 0.0007962152024 -0.0005935346185)
(0 0.001537607477 -0.000676079677)
(0 0.001514653722 -0.0006328784517)
(0 0.001581875951 -0.0005159485184)
(0 0.001644116365 -0.0003759352456)
(0 0.0008354484978 -0.0002270980026)
(0 -2.504252899e-06 3.911513431e-05)
(0 -7.524193686e-06 3.91036996e-05)
(0 -1.254032273e-05 3.908845278e-05)
(0 -1.755645183e-05 3.905795959e-05)
(0 -2.257258106e-05 3.901222005e-05)
(0 -2.760395661e-05 3.895504509e-05)
(0 -3.2627709e-05 3.888643542e-05)
(0 -3.766289656e-05 3.880639104e-05)
(0 -4.271333026e-05 3.87110996e-05)
(0 -4.776757584e-05 3.859675015e-05)
(0 -5.282182173e-05 3.846715434e-05)
(0 -5.789893688e-05 3.831468818e-05)
(0 -6.297986399e-05 3.814316401e-05)
(0 -6.806079151e-05 3.794495853e-05)
(0 -7.316839976e-05 3.772007106e-05)
(0 -7.828363171e-05 3.747231392e-05)
(0 -8.34026758e-05 3.719025217e-05)
(0 -8.854077714e-05 3.68700735e-05)
(0 -9.368650227e-05 3.651940186e-05)
(0 -9.885128624e-05 3.611917901e-05)
(0 -0.0001040236923 3.566559265e-05)
(0 -0.0001091999106 3.517007838e-05)
(0 -0.0001143913762 3.461738959e-05)
(0 -0.0001195980871 3.400371402e-05)
(0 -0.0001248124219 3.330999403e-05)
(0 -0.0001300267574 3.255147623e-05)
(0 -0.0001352601497 3.170529012e-05)
(0 -0.0001404897311 3.076000136e-05)
(0 -0.0001457193134 2.972704486e-05)
(0 -0.0001509450822 2.857211526e-05)
(0 -0.000156170852 2.73028364e-05)
(0 -0.0001613928111 2.590015e-05)
(0 -0.0001665918983 2.434499736e-05)
(0 -0.0001717833632 2.263356729e-05)
(0 -0.0001769481477 2.074298989e-05)
(0 -0.0001820900601 1.866564147e-05)
(0 -0.0001871900454 1.637102922e-05)
(0 -0.0001922442922 1.384009487e-05)
(0 -0.0001972527968 1.105759157e-05)
(0 -0.0002022003162 7.993026375e-06)
(0 -0.000207048734 4.615906055e-06)
(0 -0.0002118209164 8.919256899e-07)
(0 -0.0002164711273 -3.205596176e-06)
(0 -0.00022100699 -7.714776099e-06)
(0 -0.0002253789492 -1.268897702e-05)
(0 -0.000229564139 -1.815869225e-05)
(0 -0.0002335244429 -2.418490827e-05)
(0 -0.000237225552 -3.082861102e-05)
(0 -0.000240606484 -3.813935236e-05)
(0 -0.000243591006 -4.619336539e-05)
(0 -0.000246121939 -5.505163564e-05)
(0 -0.0002480658796 -6.478277361e-05)
(0 -0.000249323725 -7.545920081e-05)
(0 -0.0002497430048 -8.712665564e-05)
(0 -0.0002491560114 -9.982325613e-05)
(0 -0.0002473721602 -0.0001135566249)
(0 -0.0002442427968 -0.0001282848336)
(0 -0.0002396307024 -0.0001439164031)
(0 -0.0002335778052 -0.000160314114)
(0 -0.0002264233412 -0.0001774360379)
(0 -0.0002190363669 -0.0001956176001)
(0 -0.0002128767435 -0.0002165778539)
(0 -0.0002091032116 -0.0002457636445)
(0 -0.0002043615212 -0.0002969845737)
(0 -0.0001819414062 -0.0003973224026)
(0 7.837129976e-05 -0.0004254561781)
(0 0.0003443671726 -0.0001423155106)
(0 0.0003324252806 -7.022199608e-05)
(0 0.0002740117692 -2.960888359e-05)
(0 0.0002378582856 2.016361923e-06)
(0 0.0002142641842 2.946404113e-05)
(0 0.0001989527919 5.332114733e-05)
(0 0.0001892559588 7.3393287e-05)
(0 0.0001830696548 8.94670082e-05)
(0 0.0001787281863 0.0001018015014)
(0 0.0001750080176 0.0001110828649)
(0 0.0001712459218 0.0001180924867)
(0 0.0001671941387 0.0001235126498)
(0 0.0001628298015 0.0001277740725)
(0 0.0001581757799 0.0001311207005)
(0 0.0001532854343 0.0001336325759)
(0 0.0001480901577 0.0001353897457)
(0 0.0001425022822 0.000136468443)
(0 0.0001364227024 0.0001369868264)
(0 0.000129752318 0.0001371278573)
(0 0.0001224606356 0.000137097365)
(0 0.0001145590881 0.0001371278573)
(0 0.0001061239105 0.0001374327892)
(0 9.72846988e-05 0.0001381989313)
(0 8.822059869e-05 0.0001395635006)
(0 7.912981762e-05 0.0001415951091)
(0 7.023343103e-05 0.0001443166268)
(0 6.173345501e-05 0.0001476708764)
(0 5.378235677e-05 0.0001515473227)
(0 4.651735549e-05 0.0001557934998)
(0 4.001087165e-05 0.0001602226341)
(0 3.42552828e-05 0.0001646365227)
(0 2.920484905e-05 0.000168871265)
(0 2.475665537e-05 0.0001727743918)
(0 2.078110624e-05 0.0001762772965)
(0 1.717909875e-05 0.0001793342395)
(0 1.387439962e-05 0.0001819337825)
(0 1.085938586e-05 0.0001840187541)
(0 8.126434112e-06 0.0001853947602)
(0 5.61074622e-06 0.0001856844444)
(0 2.95783904e-06 0.0001842970044)
(0 -5.831821854e-07 0.0001805272854)
(0 -6.338771035e-06 0.0001738111601)
(0 -1.613470703e-05 0.0001640228474)
(0 -3.225797931e-05 0.0001514405974)
(0 -5.789512523e-05 0.0001363655277)
(0 -9.844343929e-05 0.0001185994352)
(0 -0.0001658028881 9.542842609e-05)
(0 -0.0001591477493 5.348504821e-05)
(0 0.0004978927407 -0.0001235774478)
(0 0.001273143885 -0.0007924416754)
(0 0.001549835236 -0.0007767834196)
(0 0.001713053825 -0.0006082094642)
(0 0.001798648209 -0.0004363613056)
(0 0.0009152949053 -0.0002642196449)
(0 -2.515687858e-06 4.045683474e-05)
(0 -7.531817027e-06 4.044540004e-05)
(0 -1.256700435e-05 4.04301532e-05)
(0 -1.759075677e-05 4.039966002e-05)
(0 -2.261832097e-05 4.036154378e-05)
(0 -2.76611315e-05 4.030818046e-05)
(0 -3.270394216e-05 4.024338244e-05)
(0 -3.775437634e-05 4.016333806e-05)
(0 -4.281624502e-05 4.006423497e-05)
(0 -4.788954887e-05 3.995750882e-05)
(0 -5.296666468e-05 3.983172466e-05)
(0 -5.805902645e-05 3.968307014e-05)
(0 -6.315901184e-05 3.951154597e-05)
(0 -6.827043258e-05 3.931715214e-05)
(0 -7.340091074e-05 3.91036996e-05)
(0 -7.854282426e-05 3.885975412e-05)
(0 -8.370379652e-05 3.857769237e-05)
(0 -8.888001437e-05 3.826894863e-05)
(0 -9.406766766e-05 3.790684205e-05)
(0 -9.927056815e-05 3.75066192e-05)
(0 -0.0001044925257 3.707209108e-05)
(0 -0.0001097335421 3.657276515e-05)
(0 -0.0001149783708 3.602007637e-05)
(0 -0.0001202575029 3.539496584e-05)
(0 -0.0001255366358 3.470886915e-05)
(0 -0.0001308386393 3.393510475e-05)
(0 -0.0001361596995 3.308129534e-05)
(0 -0.0001414845721 3.213981821e-05)
(0 -0.0001468208806 3.108399183e-05)
(0 -0.0001521724339 2.991762727e-05)
(0 -0.0001575239881 2.862929016e-05)
(0 -0.0001628755432 2.720373387e-05)
(0 -0.0001682461546 2.563333462e-05)
(0 -0.0001736091438 2.388378806e-05)
(0 -0.000178960699 2.195509417e-05)
(0 -0.0001843008172 1.98281943e-05)
(0 -0.0001896371247 1.748784226e-05)
(0 -0.0001949391287 1.490354483e-05)
(0 -0.000200222072 1.204480853e-05)
(0 -0.0002054630884 8.900198711e-06)
(0 -0.0002106583662 5.431598818e-06)
(0 -0.0002157926552 1.60851557e-06)
(0 -0.0002208621474 -2.607167417e-06)
(0 -0.0002258325381 -7.268813295e-06)
(0 -0.0002307038232 -1.240310347e-05)
(0 -0.0002354378904 -1.80748361e-05)
(0 -0.0002400080581 -2.4341186e-05)
(0 -0.0002443762056 -3.126313911e-05)
(0 -0.0002484927857 -3.891692884e-05)
(0 -0.0002522968122 -4.738259993e-05)
(0 -0.0002557120475 -5.67363845e-05)
(0 -0.0002586279584 -6.708500956e-05)
(0 -0.0002609225723 -7.850470825e-05)
(0 -0.0002624434184 -9.109458201e-05)
(0 -0.0002629770496 -0.0001049118072)
(0 -0.0002622985763 -0.0001199754412)
(0 -0.0002601716765 -0.0001362359327)
(0 -0.0002563790864 -0.000153517946)
(0 -0.0002508979363 -0.0001714555629)
(0 -0.0002441970585 -0.0001894084262)
(0 -0.0002379993184 -0.0002065151037)
(0 -0.0002367795911 -0.0002223639373)
(0 -0.0002497887465 -0.0002401147832)
(0 -0.0002889877374 -0.0002775794741)
(0 -0.0001904642529 -0.0001771844703)
(0 0.000250997039 -1.289480612e-05)
(0 0.0004835876277 1.650443701e-06)
(0 0.0003613747514 -9.696833258e-06)
(0 0.0002989971253 -2.896852685e-07)
(0 0.0002611283997 1.579928208e-05)
(0 0.0002357771285 3.370640586e-05)
(0 0.0002181253839 5.117518968e-05)
(0 0.0002055698145 6.696303681e-05)
(0 0.0001963723084 8.046008382e-05)
(0 0.00018923309 9.153673321e-05)
(0 0.0001831878159 0.0001003950038)
(0 0.0001776266221 0.0001074427421)
(0 0.0001722140805 0.000113049676)
(0 0.0001667824817 0.0001175321744)
(0 0.0001612555927 0.0001210922546)
(0 0.0001555876707 0.0001238747571)
(0 0.0001497253557 0.0001259597287)
(0 0.0001435695446 0.0001274615189)
(0 0.0001370668718 0.0001284944748)
(0 0.0001301525418 0.0001292072531)
(0 0.0001227960614 0.0001297751894)
(0 0.0001150202982 0.0001303583708)
(0 0.0001068938641 0.0001311283238)
(0 9.848918025e-05 0.0001322222676)
(0 8.996252247e-05 0.0001337431145)
(0 8.145111189e-05 0.0001357556648)
(0 7.311503756e-05 0.0001382789768)
(0 6.51067641e-05 0.0001412634965)
(0 5.753683064e-05 0.0001446444286)
(0 5.051958648e-05 0.0001483150467)
(0 4.410077049e-05 0.0001521343174)
(0 3.826894863e-05 0.0001559688356)
(0 3.301649752e-05 0.0001596928169)
(0 2.826718357e-05 0.0001631880974)
(0 2.392190454e-05 0.0001663898819)
(0 1.990061574e-05 0.0001692448075)
(0 1.611946053e-05 0.0001716918847)
(0 1.249077138e-05 0.0001736663185)
(0 8.911633709e-06 0.0001750118314)
(0 5.180029999e-06 0.0001754997213)
(0 8.804907504e-07 0.0001748212479)
(0 -4.673080807e-06 0.0001727019725)
(0 -1.252507622e-05 0.0001690466008)
(0 -2.410486366e-05 0.0001641562561)
(0 -4.128396266e-05 0.0001588161378)
(0 -6.680675923e-05 0.0001545470908)
(0 -0.0001054568727 0.0001542154774)
(0 -0.000167560059 0.000164091459)
(0 -0.0002800379868 0.0002011711724)
(0 -4.970770509e-05 0.0001873196426)
(0 0.0008844053185 -0.0003537743247)
(0 0.001698885939 -0.001073756564)
(0 0.001922298079 -0.0007038818395)
(0 0.00198811001 -0.0004971494752)
(0 0.001007613032 -0.0003103100973)
(0 -2.519499492e-06 4.184427446e-05)
(0 -7.543251927e-06 4.184046306e-05)
(0 -1.258987416e-05 4.181759292e-05)
(0 -1.76250615e-05 4.179091138e-05)
(0 -2.266787226e-05 4.17489835e-05)
(0 -2.771830606e-05 4.170324347e-05)
(0 -3.277636328e-05 4.163844545e-05)
(0 -3.783823238e-05 4.155840109e-05)
(0 -4.291915927e-05 4.147073293e-05)
(0 -4.800389803e-05 4.136400678e-05)
(0 -5.31038837e-05 4.123822264e-05)
(0 -5.821149203e-05 4.110100305e-05)
(0 -6.334197058e-05 4.094091383e-05)
(0 -6.847244953e-05 4.075414331e-05)
(0 -7.362960919e-05 4.054069076e-05)
(0 -7.880582751e-05 4.030055692e-05)
(0 -8.399348128e-05 4.002993013e-05)
(0 -8.921162723e-05 3.972499803e-05)
(0 -9.444120863e-05 3.937813804e-05)
(0 -9.968984886e-05 3.898935016e-05)
(0 -0.0001049575461 3.854719873e-05)
(0 -0.0001102557372 3.805930775e-05)
(0 -0.0001155691756 3.751424228e-05)
(0 -0.0001209131057 3.689675503e-05)
(0 -0.0001262684715 3.62068467e-05)
(0 -0.000131646708 3.544451727e-05)
(0 -0.0001370630593 3.459451949e-05)
(0 -0.0001424870348 3.364160743e-05)
(0 -0.0001479376927 3.258959271e-05)
(0 -0.0001534035954 3.142322815e-05)
(0 -0.0001588847455 3.01234561e-05)
(0 -0.0001643887666 2.869027653e-05)
(0 -0.0001699156556 2.709700739e-05)
(0 -0.0001754577921 2.533983755e-05)
(0 -0.0001810037414 2.339589708e-05)
(0 -0.0001865535002 2.124993898e-05)
(0 -0.0001921223183 1.887528212e-05)
(0 -0.0001976835142 1.625667987e-05)
(0 -0.0002032523311 1.335982711e-05)
(0 -0.0002088097143 1.016185423e-05)
(0 -0.0002143404172 6.636079639e-06)
(0 -0.0002198634942 2.74057509e-06)
(0 -0.000225359891 -1.56658743e-06)
(0 -0.0002307991144 -6.319712832e-06)
(0 -0.000236184972 -1.157216408e-05)
(0 -0.0002415022213 -1.738492766e-05)
(0 -0.0002467165576 -2.382661334e-05)
(0 -0.0002518012949 -3.095820707e-05)
(0 -0.0002567183211 -3.887118883e-05)
(0 -0.0002614142733 -4.765703832e-05)
(0 -0.0002658205371 -5.743010414e-05)
(0 -0.000269841826 -6.82971133e-05)
(0 -0.0002733332975 -8.039528532e-05)
(0 -0.0002761462922 -9.384277985e-05)
(0 -0.0002780368703 -0.000108753948)
(0 -0.0002787000972 -0.0001252012103)
(0 -0.0002777814898 -0.0001431655084)
(0 -0.0002748503323 -0.0001624715068)
(0 -0.0002694644735 -0.0001825741398)
(0 -0.0002614866935 -0.0002022193748)
(0 -0.0002519956894 -0.0002186856953)
(0 -0.0002464764229 -0.0002262708755)
(0 -0.0002643149365 -0.0002147520743)
(0 -0.0001414273968 -0.0001732127316)
(0 8.27394487e-05 1.601654597e-05)
(0 0.0002572062125 0.0001946913695)
(0 0.0003475651454 7.022199566e-05)
(0 0.0003304851516 3.006628156e-05)
(0 0.000299511696 2.237056356e-05)
(0 0.0002718581879 2.777548078e-05)
(0 0.0002496362802 3.842141456e-05)
(0 0.0002322132345 5.071779158e-05)
(0 0.0002185408523 6.28540796e-05)
(0 0.0002076433512 7.390785996e-05)
(0 0.0001986631067 8.349415486e-05)
(0 0.0001909140258 9.156722585e-05)
(0 0.0001839005941 9.825666911e-05)
(0 0.0001772873833 0.0001037492536)
(0 0.000170864756 0.0001082393753)
(0 0.0001645183626 0.0001118833117)
(0 0.0001581490974 0.0001148259035)
(0 0.0001516769187 0.0001171510089)
(0 0.0001450370283 0.0001189539192)
(0 0.000138172249 0.0001203566051)
(0 0.0001310368434 0.0001214886646)
(0 0.0001236117534 0.0001224720706)
(0 0.0001159122232 0.0001234516634)
(0 0.0001079878065 0.0001245417948)
(0 9.989567787e-05 0.0001258606259)
(0 9.175399661e-05 0.0001274805756)
(0 8.366567903e-05 0.0001294664444)
(0 7.574126278e-05 0.0001318182321)
(0 6.810653088e-05 0.0001345130667)
(0 6.083390603e-05 0.0001375204571)
(0 5.400343269e-05 0.0001407413007)
(0 4.766084969e-05 0.000144087927)
(0 4.181378127e-05 0.0001474726707)
(0 3.642411087e-05 0.0001507849939)
(0 3.145753299e-05 0.0001539562844)
(0 2.683781531e-05 0.000156917935)
(0 2.247728985e-05 0.0001596203946)
(0 1.830353488e-05 0.0001620026738)
(0 1.417170818e-05 0.0001640152241)
(0 9.95983693e-06 0.0001655703776)
(0 5.420163808e-06 0.0001665537818)
(0 1.600892264e-07 0.0001668625253)
(0 -6.354017667e-06 0.0001664813615)
(0 -1.488829805e-05 0.0001656237396)
(0 -2.636135928e-05 0.0001648309168)
(0 -4.18671446e-05 0.0001652387642)
(0 -6.249578466e-05 0.0001689055688)
(0 -8.889907207e-05 0.0001797458964)
(0 -0.0001188548164 0.000205672729)
(0 -0.0001359157532 0.0002643682991)
(0 -5.705656262e-05 0.0003981076012)
(0 1.206386678e-05 0.00023585336)
(0 0.001199727721 -0.0004188353444)
(0 0.002289664726 -0.0006365719389)
(0 0.002192219951 -0.0005381399377)
(0 0.001102160961 -0.0003707094736)
(0 -2.519499492e-06 4.325839596e-05)
(0 -7.562310168e-06 4.324696127e-05)
(0 -1.261274405e-05 4.323171442e-05)
(0 -1.765555468e-05 4.320884453e-05)
(0 -2.270598875e-05 4.317072831e-05)
(0 -2.777548078e-05 4.312498827e-05)
(0 -3.284497295e-05 4.30640019e-05)
(0 -3.792208864e-05 4.299539249e-05)
(0 -4.301063882e-05 4.290772432e-05)
(0 -4.811443583e-05 4.281243311e-05)
(0 -5.322966809e-05 4.270189557e-05)
(0 -5.836014632e-05 4.256848763e-05)
(0 -6.35096831e-05 4.241221005e-05)
(0 -6.866684359e-05 4.223687448e-05)
(0 -7.385068479e-05 4.204248017e-05)
(0 -7.90573963e-05 4.180615798e-05)
(0 -8.428316655e-05 4.154696615e-05)
(0 -8.953180568e-05 4.124203404e-05)
(0 -9.480331521e-05 4.091042064e-05)
(0 -0.0001000976952 4.053306771e-05)
(0 -0.0001054225672 4.010616286e-05)
(0 -0.0001107664981 3.962970683e-05)
(0 -0.0001161447344 3.908464136e-05)
(0 -0.0001215610859 3.848240071e-05)
(0 -0.0001269926847 3.780773897e-05)
(0 -0.0001324547774 3.705684448e-05)
(0 -0.0001379587967 3.621447e-05)
(0 -0.0001434894983 3.527680453e-05)
(0 -0.0001490430707 3.422860147e-05)
(0 -0.0001546347577 3.307367184e-05)
(0 -0.0001602531273 3.178533474e-05)
(0 -0.0001659058026 3.035215518e-05)
(0 -0.0001715927808 2.875888603e-05)
(0 -0.0001773102532 2.700552783e-05)
(0 -0.0001830544082 2.506158738e-05)
(0 -0.0001888252425 2.290800597e-05)
(0 -0.0001946265712 2.052572581e-05)
(0 -0.0002004545825 1.789568863e-05)
(0 -0.0002063130847 1.499121256e-05)
(0 -0.0002121906463 1.177418144e-05)
(0 -0.0002180834558 8.217913671e-06)
(0 -0.0002239953209 4.288104278e-06)
(0 -0.0002299148106 -4.955142722e-08)
(0 -0.0002358381134 -4.852228248e-06)
(0 -0.0002417728483 -1.016566588e-05)
(0 -0.0002476885264 -1.605466242e-05)
(0 -0.0002535775245 -2.25916393e-05)
(0 -0.0002594169681 -2.984520578e-05)
(0 -0.0002651954268 -3.792590006e-05)
(0 -0.0002708557261 -4.694044845e-05)
(0 -0.0002763559329 -5.701082284e-05)
(0 -0.0002815893259 -6.827424341e-05)
(0 -0.0002864682374 -8.091748113e-05)
(0 -0.0002908020797 -9.511205872e-05)
(0 -0.0002943354782 -0.0001110485602)
(0 -0.0002967101352 -0.0001288908858)
(0 -0.0002974419715 -0.0001487648197)
(0 -0.0002957877162 -0.0001706246225)
(0 -0.0002906496145 -0.0001941386807)
(0 -0.0002803124243 -0.0002182244859)
(0 -0.0002620431942 -0.0002397488635)
(0 -0.000232842157 -0.000249270361)
(0 -0.0001967382246 -0.0002193984735)
(0 -5.821911544e-05 -7.801300482e-05)
(0 0.0001774398496 1.905061799e-05)
(0 0.0003052024874 7.537534423e-05)
(0 0.000318962537 5.44722651e-05)
(0 0.0003135233168 3.739226953e-05)
(0 0.0002967025112 3.193398902e-05)
(0 0.0002771792489 3.451828653e-05)
(0 0.0002587232496 4.149360307e-05)
(0 0.0002425542362 5.042810631e-05)
(0 0.0002287560696 5.982381924e-05)
(0 0.0002170161943 6.882693282e-05)
(0 0.0002068924552 7.69876713e-05)
(0 0.0001979503284 8.414213506e-05)
(0 0.0001898048373 9.026745434e-05)
(0 0.0001822005979 9.545510706e-05)
(0 0.0001749203497 9.980800936e-05)
(0 0.0001678421199 0.0001034252642)
(0 0.000160851556 0.0001064097841)
(0 0.0001538533699 0.0001088606739)
(0 0.0001467827632 0.0001108732249)
(0 0.0001395978054 0.0001125312912)
(0 0.0001322641942 0.0001139377894)
(0 0.0001247590595 0.0001152146923)
(0 0.0001170976458 0.0001164572889)
(0 0.0001092990135 0.0001177646843)
(0 0.0001014279605 0.0001192207346)
(0 9.356834118e-05 0.0001209016708)
(0 8.578114381e-05 0.0001228417997)
(0 7.816928273e-05 0.0001250411215)
(0 7.080517784e-05 0.0001275186921)
(0 6.376125188e-05 0.0001302097158)
(0 5.709086779e-05 0.0001330798877)
(0 5.082451773e-05 0.0001360567842)
(0 4.497744932e-05 0.0001390832329)
(0 3.950392267e-05 0.0001420791893)
(0 3.440012543e-05 0.0001449912877)
(0 2.95783904e-05 0.0001477661676)
(0 2.498535441e-05 0.000150361901)
(0 2.051810252e-05 0.0001527518035)
(0 1.605466242e-05 0.0001548977615)
(0 1.14501914e-05 0.0001567692817)
(0 6.472178724e-06 0.0001583473031)
(0 8.118810767e-07 0.0001596585101)
(0 -5.908054819e-06 0.0001608401221)
(0 -1.418695478e-05 0.0001622085028)
(0 -2.448983999e-05 0.0001643925773)
(0 -3.720549877e-05 0.0001684786652)
(0 -5.229581395e-05 0.0001762163101)
(0 -6.869352471e-05 0.000190304162)
(0 -8.293384306e-05 0.0002145996093)
(0 -8.760311167e-05 0.0002526589157)
(0 -7.823026863e-05 0.00029730094)
(0 6.746617438e-05 0.0002775222989)
(0 0.0008264644429 0.0003135652431)
(0 0.001802993477 -0.0008856021654)
(0 0.002253972465 -0.0006482546446)
(0 0.001175070168 -0.0004561132642)
(0 -2.523311155e-06 4.471444586e-05)
(0 -7.573745158e-06 4.471063448e-05)
(0 -1.262799072e-05 4.469538762e-05)
(0 -1.768985962e-05 4.466870608e-05)
(0 -2.275172866e-05 4.463440151e-05)
(0 -2.782503237e-05 4.459247311e-05)
(0 -3.290595952e-05 4.453529839e-05)
(0 -3.799451019e-05 4.447431228e-05)
(0 -4.310211864e-05 4.44018907e-05)
(0 -4.821353897e-05 4.430659949e-05)
(0 -5.334782951e-05 4.420368526e-05)
(0 -5.850117765e-05 4.40779006e-05)
(0 -6.366596106e-05 4.394449291e-05)
(0 -6.884980312e-05 4.377678065e-05)
(0 -7.406032589e-05 4.358238632e-05)
(0 -7.929753061e-05 4.337274567e-05)
(0 -8.455760573e-05 4.312117714e-05)
(0 -8.984436138e-05 4.284292656e-05)
(0 -9.515398742e-05 4.25227481e-05)
(0 -0.0001004941072 4.215683012e-05)
(0 -0.0001058685307 4.174517186e-05)
(0 -0.0001112696363 4.128015077e-05)
(0 -0.0001167088591 4.07579552e-05)
(0 -0.000122186197 4.017858442e-05)
(0 -0.000127701652 3.952298091e-05)
(0 -0.0001332437894 3.878352138e-05)
(0 -0.0001388392882 3.795639348e-05)
(0 -0.000144476716 3.703778624e-05)
(0 -0.0001501408263 3.601626472e-05)
(0 -0.0001558506745 3.487658167e-05)
(0 -0.0001616062634 3.360349115e-05)
(0 -0.0001674114047 3.219318148e-05)
(0 -0.0001732622838 3.06304055e-05)
(0 -0.0001791589036 2.888848224e-05)
(0 -0.0001850974528 2.695597673e-05)
(0 -0.0001910893627 2.482145354e-05)
(0 -0.0001971308252 2.245823161e-05)
(0 -0.0002032294637 1.983581772e-05)
(0 -0.0002093738395 1.693896491e-05)
(0 -0.0002155753912 1.373718037e-05)
(0 -0.0002218264957 1.019615918e-05)
(0 -0.0002281309606 6.285407998e-06)
(0 -0.0002344964132 1.947752266e-06)
(0 -0.0002409114187 -2.843489627e-06)
(0 -0.0002473912193 -8.164550595e-06)
(0 -0.0002539320078 -1.406117047e-05)
(0 -0.0002605071026 -2.061339397e-05)
(0 -0.0002671431807 -2.790888863e-05)
(0 -0.0002738097535 -3.604675769e-05)
(0 -0.0002804915746 -4.514897403e-05)
(0 -0.0002871581457 -5.536419113e-05)
(0 -0.0002937522972 -6.687155725e-05)
(0 -0.0003001711147 -7.988071328e-05)
(0 -0.0003062735618 -9.463560325e-05)
(0 -0.0003118118873 -0.0001114182908)
(0 -0.0003164163586 -0.0001305489536)
(0 -0.0003195190401 -0.0001523515816)
(0 -0.0003202241951 -0.0001771196721)
(0 -0.0003170643388 -0.0002051352871)
(0 -0.0003070968784 -0.0002367872143)
(0 -0.0002830415661 -0.0002728072905)
(0 -0.0002261298458 -0.0003116746682)
(0 -9.304995774e-05 -0.0003171596298)
(0 9.702169525e-05 -0.0001106178447)
(0 0.0002361163643 2.049142115e-05)
(0 0.0002926392965 3.32871244e-05)
(0 0.0003095820725 3.49261331e-05)
(0 0.0003079430656 3.311178872e-05)
(0 0.0002966339033 3.344721357e-05)
(0 0.0002814254267 3.687388537e-05)
(0 0.0002655461016 4.262947451e-05)
(0 0.0002505396408 4.968864685e-05)
(0 0.0002369396798 5.721284054e-05)
(0 0.0002248110163 6.461125022e-05)
(0 0.0002139744989 7.152176814e-05)
(0 0.0002041938095 7.775000142e-05)
(0 0.0001952135673 8.325021037e-05)
(0 0.0001868241283 8.802239351e-05)
(0 0.0001788349135 9.21199154e-05)