/*--------------------------------*- C++ -*----------------------------------*\
  =========                 |
  \\      /  F ield         | OpenFOAM: The Open Source CFD Toolbox
   \\    /   O peration     | Website:  https://openfoam.org
    \\  /    A nd           | Version:  6
     \\/     M anipulation  |
\*---------------------------------------------------------------------------*/
FoamFile
{
    version     2.0;
    format      ascii;
    class       volScalarField;
    location    "0.0025";
    object      ViscousDissipation;
}
// * * * * * * * * * * * * * * * * * * * * * * * * * * * * * * * * * * * * * //

dimensions      [1 -1 -3 0 0 0 0];

internalField   nonuniform List<scalar> 
9600
(
2.360972338e-21
2.747876077e-21
3.16777324e-21
3.526548376e-21
3.827433789e-21
4.062715411e-21
4.23030926e-21
4.329310076e-21
4.364272592e-21
4.340236072e-21
4.266323291e-21
4.151193958e-21
4.006851655e-21
3.844660503e-21
3.679310503e-21
3.525333733e-21
3.400813206e-21
3.32458559e-21
3.319863045e-21
3.412626549e-21
3.634807469e-21
4.023805932e-21
4.624450822e-21
5.490777819e-21
6.688139369e-21
8.301102398e-21
1.043733308e-20
1.324363477e-20
1.690931513e-20
2.169234031e-20
2.792540686e-20
3.606648346e-20
4.671811795e-20
6.070968909e-20
7.911088829e-20
1.033178362e-19
1.350219389e-19
1.762811235e-19
2.294060489e-19
2.969398847e-19
3.812883876e-19
4.844080283e-19
6.070315097e-19
7.481173957e-19
9.039331368e-19
1.067777834e-18
1.229746865e-18
1.378217612e-18
1.502841594e-18
1.601538501e-18
1.690765465e-18
1.82054628e-18
2.09074885e-18
2.667838306e-18
3.798076803e-18
5.826688747e-18
9.245198853e-18
1.480385449e-17
2.366186389e-17
3.74074275e-17
5.811654228e-17
9.258602737e-17
1.825529639e-16
4.993355114e-16
1.377612112e-15
2.918674257e-16
3.082148588e-16
3.860907179e-14
1.356141431e-14
2.265882194e-15
7.135676634e-16
4.769392504e-16
2.632337587e-16
1.423671121e-16
6.211366178e-17
6.080270282e-17
9.807961443e-17
1.482266724e-16
1.998854366e-16
2.449617758e-16
2.766461931e-16
2.920581289e-16
2.927104801e-16
2.817496213e-16
2.624786228e-16
2.386301112e-16
2.141855023e-16
1.927953806e-16
1.773686685e-16
1.700089741e-16
1.720826791e-16
1.842788295e-16
2.065090975e-16
2.376553465e-16
2.752051595e-16
3.15041149e-16
3.51667257e-16
3.788919857e-16
3.903001751e-16
3.793959339e-16
3.421036231e-16
2.815934086e-16
2.088105081e-16
1.385281404e-16
9.108421204e-17
9.959399434e-17
1.873374163e-16
2.327562633e-16
2.97107901e-16
6.298215732e-16
2.350066018e-15
1.363539772e-14
3.477596179e-14
1.481410638e-15
2.635909472e-15
3.667999174e-16
4.120736796e-16
1.285224399e-15
3.983340149e-15
1.645751531e-15
2.740737521e-21
3.195711467e-21
3.689635467e-21
4.1158158e-21
4.476338239e-21
4.76350572e-21
4.974078295e-21
5.108606708e-21
5.171436296e-21
5.169970507e-21
5.113668014e-21
5.014148589e-21
4.88412772e-21
4.738439302e-21
4.592915339e-21
4.466084104e-21
4.377731247e-21
4.351374239e-21
4.412820804e-21
4.593654454e-21
4.929526272e-21
5.464177464e-21
6.247228476e-21
7.339978564e-21
8.815036258e-21
1.076741916e-20
1.331790312e-20
1.663004101e-20
2.091582888e-20
2.646161839e-20
3.364452871e-20
4.298501094e-20
5.518827947e-20
7.122728953e-20
9.238887725e-20
1.203595588e-19
1.572516681e-19
2.056849411e-19
2.687591886e-19
3.500296891e-19
4.532211902e-19
5.81864141e-19
7.385903138e-19
9.24439815e-19
1.137897396e-18
1.374176454e-18
1.624585e-18
1.877083398e-18
2.118468489e-18
2.33989813e-18
2.545696148e-18
2.765531018e-18
3.066658573e-18
3.562189986e-18
4.410027387e-18
5.808367059e-18
8.013974356e-18
1.141658635e-17
1.656845288e-17
2.358883257e-17
3.005384889e-17
3.311502786e-17
7.543904433e-17
4.068537935e-16
2.665619415e-15
7.252328302e-16
1.270716607e-13
2.58322889e-13
3.596659472e-14
2.824606783e-15
1.716843395e-16
3.540430672e-17
8.113131e-17
8.146148596e-17
6.732621037e-17
6.813504901e-17
8.434740403e-17
1.089017962e-16
1.359350303e-16
1.608968969e-16
1.802786456e-16
1.921931057e-16
1.96530641e-16
1.943141581e-16
1.871203771e-16
1.769119344e-16
1.65826471e-16
1.559324013e-16
1.489911994e-16
1.463731665e-16
1.489962387e-16
1.573146076e-16
1.712261438e-16
1.899753588e-16
2.120053965e-16
2.349253537e-16
2.556091822e-16
2.705079852e-16
2.76007749e-16
2.689856812e-16
2.480451322e-16
2.15167943e-16
1.760984393e-16
1.393543991e-16
1.154476066e-16
1.13167197e-16
1.220974044e-16
8.9885778e-17
1.844850778e-17
3.108641714e-16
3.547072164e-15
3.858631573e-14
2.553999072e-13
1.22059509e-13
7.449433989e-16
2.697401411e-15
5.69219019e-16
4.171361625e-16
4.581489807e-15
2.248499897e-15
3.183641007e-21
3.719258396e-21
4.301142001e-21
4.808152607e-21
5.241629899e-21
5.592835377e-21
5.858205758e-21
6.038712883e-21
6.139703303e-21
6.16984255e-21
6.140448493e-21
6.064829513e-21
5.95826221e-21
5.837649143e-21
5.722026052e-21
5.632298117e-21
5.592163127e-21
5.628025978e-21
5.770618989e-21
6.05509541e-21
6.52295084e-21
7.221737479e-21
8.207555967e-21
9.545943244e-21
1.131795667e-20
1.362507225e-20
1.660046729e-20
2.041732012e-20
2.530578025e-20
3.156972207e-20
3.962385547e-20
5.0038588e-20
6.361388667e-20
8.145136662e-20
1.050480685e-19
1.363746039e-19
1.779858314e-19
2.331097467e-19
3.057464887e-19
4.006444725e-19
5.231687401e-19
6.789173871e-19
8.731917116e-19
1.110192749e-18
1.392097068e-18
1.717875317e-18
2.082251098e-18
2.4751225e-18
2.882583727e-18
3.290266745e-18
3.689788423e-18
4.087381647e-18
4.512364963e-18
5.019941752e-18
5.684379155e-18
6.590957498e-18
7.86603556e-18
9.797186172e-18
1.2900118e-17
1.670001089e-17
1.520432173e-17
1.295248253e-17
2.89935007e-16
3.56110452e-15
6.14735649e-16
3.391903177e-15
5.448424585e-13
1.802348625e-13
1.161126831e-14
1.033247352e-15
1.060891055e-16
4.376894046e-17
5.886138995e-17
6.239535039e-17
6.04556976e-17
6.247098739e-17
7.052763165e-17
8.294598937e-17
9.728879121e-17
1.112841765e-16
1.230910044e-16
1.315440525e-16
1.362529098e-16
1.374542917e-16
1.358210162e-16
1.323160643e-16
1.280687604e-16
1.242218574e-16
1.218157445e-16
1.216921352e-16
1.24446207e-16
1.303693738e-16
1.394077677e-16
1.511009071e-16
1.645465045e-16
1.783868636e-16
1.908804829e-16
2.000535581e-16
2.039517497e-16
2.010217553e-16
1.907181272e-16
1.741542786e-16
1.543094307e-16
1.35593968e-16
1.227635029e-16
1.180565861e-16
1.157203521e-16
1.027420197e-16
9.666068375e-17
2.593021537e-16
1.412748515e-15
1.185293861e-14
1.733391423e-13
5.323321114e-13
1.966912331e-15
5.043365752e-15
9.918458425e-15
5.035254986e-16
4.750037394e-15
3.003304911e-15
3.699754687e-21
4.331179548e-21
5.018248667e-21
5.622677882e-21
6.145422838e-21
6.575823401e-21
6.910444717e-21
7.150186895e-21
7.30185116e-21
7.375151028e-21
7.383705417e-21
7.342587312e-21
7.269996376e-21
7.185203694e-21
7.110635003e-21
7.070041461e-21
7.090969399e-21
7.203368144e-21
7.442502739e-21
7.847845544e-21
8.465679489e-21
9.347975288e-21
1.055527402e-20
1.215786545e-20
1.424173972e-20
1.691453273e-20
2.031468787e-20
2.462183575e-20
3.00709084e-20
3.697671635e-20
4.577116754e-20
5.706492196e-20
7.172201264e-20
9.095724656e-20
1.164346043e-19
1.503967155e-19
1.958052184e-19
2.565267205e-19
3.374868566e-19
4.447832074e-19
5.856295338e-19
7.681601143e-19
1.000986048e-18
1.29255485e-18
1.650124548e-18
2.078401763e-18
2.577777716e-18
3.142675256e-18
3.760478134e-18
4.411899955e-18
5.07291091e-18
5.717969563e-18
6.322236413e-18
6.859655332e-18
7.297956688e-18
7.614453627e-18
7.903965801e-18
8.7027552e-18
1.145158542e-17
1.825414592e-17
3.295475688e-17
1.086637843e-16
7.754499524e-16
1.157336341e-15
1.30037201e-15
2.406706695e-13
5.874374938e-13
3.867902765e-14
4.57575675e-15
6.698906164e-16
1.498446558e-16
6.925982136e-17
5.567366661e-17
5.215303832e-17
5.101484735e-17
5.24841979e-17
5.682813111e-17
6.345909752e-17
7.136670932e-17
7.947315844e-17
8.682838084e-17
9.274668109e-17
9.688014967e-17
9.92055795e-17
9.996955622e-17
9.961954147e-17
9.873233817e-17
9.79307642e-17
9.781179688e-17
9.88824291e-17
1.015149468e-16
1.059040697e-16
1.120372088e-16
1.196671706e-16
1.283014945e-16
1.372041487e-16
1.454348698e-16
1.519324386e-16
1.556619096e-16
1.558327173e-16
1.521930683e-16
1.453112409e-16
1.366723737e-16
1.284503843e-16
1.228458617e-16
1.208440393e-16
1.211467236e-16
1.231964109e-16
1.408866557e-16
2.298120167e-16
6.344471015e-16
3.573989714e-15
3.279364342e-14
5.69226946e-13
2.498192124e-13
5.585783651e-15
9.917954215e-15
1.839625228e-15
6.716046007e-15
4.264538921e-15
4.300087982e-21
5.045891089e-21
5.858027705e-21
6.579993016e-21
7.210947177e-21
7.739010873e-21
8.159778609e-21
8.475017567e-21
8.69208493e-21
8.822813522e-21
8.88235138e-21
8.888777494e-21
8.862558309e-21
8.826592751e-21
8.806062567e-21
8.828763816e-21
8.925444451e-21
9.130647694e-21
9.483516504e-21
1.002851035e-20
1.081585282e-20
1.190189513e-20
1.335046336e-20
1.52354106e-20
1.764566355e-20
2.069111757e-20
2.451069925e-20
2.928106405e-20
3.523236922e-20
4.267334551e-20
5.203731238e-20
6.394641507e-20
7.93005509e-20
9.937860764e-20
1.259667958e-19
1.61513259e-19
2.09340879e-19
2.738968743e-19
3.610291275e-19
4.782040068e-19
6.346427299e-19
8.413014176e-19
1.110695882e-18
1.456429022e-18
1.892305896e-18
2.430773152e-18
3.080629954e-18
3.843983474e-18
4.7126917e-18
5.664285678e-18
6.657284548e-18
7.625076326e-18
8.466772571e-18
9.034312676e-18
9.127484455e-18
8.548200469e-18
7.356855705e-18
6.59532395e-18
9.673086418e-18
2.366123616e-17
5.896975994e-17
1.323586575e-16
3.913148458e-16
4.038202412e-16
3.187514128e-13
8.264498939e-13
1.383176833e-13
7.491064298e-15
7.18468294e-16
1.888122384e-16
8.525414038e-17
5.466894004e-17
4.491868638e-17
4.166491172e-17
4.094097355e-17
4.193641136e-17
4.446658884e-17
4.825436993e-17
5.286748566e-17
5.780360766e-17
6.257785824e-17
6.67962477e-17
7.020620768e-17
7.271591668e-17
7.438689681e-17
7.540962284e-17
7.606698768e-17
7.669099109e-17
7.761865485e-17
7.91521519e-17
8.152443753e-17
8.48714749e-17
8.921212517e-17
9.443689644e-17
1.003040246e-16
1.064440693e-16
1.123787031e-16
1.175656672e-16
1.214780524e-16
1.237207031e-16
1.241714658e-16
1.231103194e-16
1.212674359e-16
1.197157498e-16
1.19549741e-16
1.213849598e-16
1.250874994e-16
1.306303071e-16
1.392642317e-16
1.456300769e-16
1.103249735e-16
1.461153021e-16
6.115922669e-15
1.40953541e-13
8.50165109e-13
2.674256494e-13
4.762647478e-15
3.406347295e-15
6.12457288e-15
5.826029756e-15
4.997582236e-21
5.8793292e-21
6.84061176e-21
7.703569992e-21
8.465725368e-21
9.113018842e-21
9.64060365e-21
1.005036096e-20
1.035094641e-20
1.05557747e-20
1.068246483e-20
1.075168618e-20
1.07872182e-20
1.081522865e-20
1.086468657e-20
1.096700834e-20
1.115710263e-20
1.147362587e-20
1.196035807e-20
1.266610869e-20
1.364534189e-20
1.495780912e-20
1.667011245e-20
1.885795884e-20
2.161083232e-20
2.503682944e-20
2.926861127e-20
3.447103972e-20
4.08557647e-20
4.870953795e-20
5.844219806e-20
7.065749314e-20
8.624392879e-20
1.06488663e-19
1.332212488e-19
1.690120032e-19
2.174394737e-19
2.834328459e-19
3.736522108e-19
4.968695293e-19
6.643027756e-19
8.898887471e-19
1.190429012e-18
1.585486561e-18
2.096768906e-18
2.746678603e-18
3.55566062e-18
4.537985667e-18
5.695436926e-18
7.008100525e-18
8.421093144e-18
9.825459771e-18
1.103068171e-17
1.172918789e-17
1.147254786e-17
9.7431756e-18
6.377073604e-18
2.961582859e-18
6.074638245e-18
3.171723789e-17
8.920156789e-17
1.277180302e-16
5.233180113e-16
5.480749123e-16
5.009482326e-13
1.737673674e-13
2.537960408e-15
5.749877126e-16
1.363908463e-16
4.976684823e-17
3.71031623e-17
3.369695516e-17
3.210437983e-17
3.145781557e-17
3.155263967e-17
3.240036479e-17
3.402618793e-17
3.636282462e-17
3.924486159e-17
4.24441592e-17
4.571233038e-17
4.882112981e-17
5.159667731e-17
5.394125022e-17
5.58416792e-17
5.736386493e-17
5.863795327e-17
5.983560793e-17
6.114557672e-17
6.274815529e-17
6.479328643e-17
6.73817967e-17
7.05543084e-17
7.428552971e-17
7.848385757e-17
8.29925931e-17
8.759859756e-17
9.205443976e-17
9.612061293e-17
9.962445447e-17
1.025288302e-16
1.049948324e-16
1.074123681e-16
1.103603363e-16
1.144635139e-16
1.201560521e-16
1.274395078e-16
1.355872773e-16
1.415926715e-16
1.340876657e-16
8.964498403e-17
7.083445351e-17
8.241682072e-16
6.029370137e-15
1.773599256e-13
4.407512749e-13
3.859651772e-15
1.285925871e-14
2.803589233e-15
7.883235551e-15
5.80650775e-21
6.850096642e-21
7.988687881e-21
9.020738537e-21
9.941142065e-21
1.07335937e-20
1.13923029e-20
1.191952835e-20
1.232497703e-20
1.262414582e-20
1.283710338e-20
1.298778156e-20
1.310334992e-20
1.321393967e-20
1.335233359e-20
1.355420356e-20
1.385858006e-20
1.43087918e-20
1.495311006e-20
1.584499914e-20
1.704275105e-20
1.860932048e-20
2.061311794e-20
2.313033791e-20
2.624834814e-20
3.006902591e-20
3.471210775e-20
4.03205582e-20
4.707431586e-20
5.521881301e-20
6.511460314e-20
7.730779179e-20
9.262263896e-20
1.122796567e-19
1.380589877e-19
1.725333513e-19
2.193967731e-19
2.838872863e-19
3.732874972e-19
4.974718988e-19
6.69495855e-19
9.062121402e-19
1.228871482e-18
1.663539018e-18
2.241035922e-18
2.99595982e-18
3.964207773e-18
5.178154863e-18
6.658201255e-18
8.398844782e-18
1.03469063e-17
1.2368786e-17
1.420303512e-17
1.539878158e-17
1.526293617e-17
1.29180448e-17
7.854837193e-18
2.101216846e-18
6.551391289e-18
4.385317513e-17
1.313249831e-16
7.801707177e-16
6.847232661e-16
9.214053358e-15
6.786596033e-14
1.120241143e-15
4.762758496e-16
8.859095545e-17
1.263500579e-17
8.922123104e-18
1.609481343e-17
2.062729115e-17
2.252358406e-17
2.327525759e-17
2.378582067e-17
2.449705333e-17
2.56003654e-17
2.714104276e-17
2.907229208e-17
3.129012033e-17
3.366052126e-17
3.604409025e-17
3.831851679e-17
4.039671287e-17
4.223760536e-17
4.384884159e-17
4.528183595e-17
4.662159442e-17
4.797304194e-17
4.944627083e-17
5.114220186e-17
5.314154922e-17
5.5498307e-17
5.823766491e-17
6.13552398e-17
6.481672224e-17
6.856040841e-17
7.250832977e-17
7.658807733e-17
8.076308356e-17
8.506700433e-17
8.963887701e-17
9.475065604e-17
1.008091203e-16
1.083113841e-16
1.177500277e-16
1.294782234e-16
1.434755208e-16
1.58782498e-16
1.732531636e-16
1.928503016e-16
2.956726373e-16
8.830171013e-16
3.260850001e-15
7.60610442e-15
5.495820623e-14
5.495684806e-14
1.424691044e-14
1.778376335e-15
1.106829043e-14
6.743088169e-21
7.979046895e-21
9.328407459e-21
1.056271645e-20
1.16735797e-20
1.264181747e-20
1.346063003e-20
1.41324156e-20
1.466824263e-20
1.508576563e-20
1.540805076e-20
1.566254539e-20
1.588044638e-20
1.609607178e-20
1.634661237e-20
1.667216245e-20
1.711642528e-20
1.772753383e-20
1.855871922e-20
1.966809501e-20
2.111797501e-20
2.297417006e-20
2.530645184e-20
2.819013756e-20
3.170815908e-20
3.595204646e-20
4.102217544e-20
4.703034908e-20
5.411135879e-20
6.245037394e-20
7.232996864e-20
8.419704759e-20
9.875073634e-20
1.170626186e-19
1.407531645e-19
1.722570599e-19
2.152013017e-19
2.749032866e-19
3.589823613e-19
4.780877578e-19
6.46765186e-19
8.844843032e-19
1.216792446e-18
1.676445798e-18
2.304221449e-18
3.148934855e-18
4.265923333e-18
5.712747798e-18
7.540125875e-18
9.775292791e-18
1.239449087e-17
1.528117459e-17
1.816869613e-17
2.057646675e-17
2.177617511e-17
2.089449235e-17
1.741679383e-17
1.373928418e-17
3.140313568e-17
2.138126088e-16
1.800568947e-15
5.535673275e-16
7.72175805e-16
6.866876542e-14
3.257189336e-14
7.712305275e-16
9.068944564e-17
2.843983446e-17
2.265376255e-18
4.244790179e-18
1.078257957e-17
1.490544192e-17
1.673565455e-17
1.743476504e-17
1.780387341e-17
1.826028907e-17
1.899024987e-17
2.005264127e-17
2.143372522e-17
2.307582268e-17
2.489523604e-17
2.679712993e-17
2.868992027e-17
3.049820369e-17
3.217236477e-17
3.369333445e-17
3.507267561e-17
3.634861465e-17
3.757934609e-17
3.883448546e-17
4.018660182e-17
4.170456582e-17
4.345027568e-17
4.547767011e-17
4.783200289e-17
5.05482285e-17
5.365118416e-17
5.716102835e-17
6.110508995e-17
6.55339884e-17
7.05413816e-17
7.628959148e-17
8.304189385e-17
9.119510999e-17
1.013051342e-16
1.141142497e-16
1.306210258e-16
1.522925695e-16
1.817803385e-16
2.258268712e-16
3.07216144e-16
5.065542041e-16
1.068770429e-15
2.501256763e-15
5.08706791e-15
1.590995471e-14
1.685503272e-14
1.298820507e-14
1.091598009e-14
1.044444094e-14
7.825419428e-21
9.290077398e-21
1.088967372e-20
1.236556838e-20
1.370495551e-20
1.48852825e-20
1.58983929e-20
1.674686468e-20
1.744323802e-20
1.800776839e-20
1.84669277e-20
1.885227477e-20
1.919947996e-20
1.954760398e-20
1.993862701e-20
2.041760604e-20
2.103334162e-20
2.183932205e-20
2.2894154e-20
2.426108323e-20
2.600672201e-20
2.819995656e-20
3.091174871e-20
3.421586568e-20
3.818909726e-20
4.290948914e-20
4.845296788e-20
5.489238318e-20
6.230582942e-20
7.08002835e-20
8.055280295e-20
9.186867849e-20
1.05260602e-19
1.215651885e-19
1.421276392e-19
1.690885104e-19
2.057987563e-19
2.573753195e-19
3.314124266e-19
4.388849193e-19
5.953065264e-19
8.222022975e-19
1.148898897e-18
1.614538725e-18
2.270093456e-18
3.179975849e-18
4.422474907e-18
6.087545687e-18
8.269400285e-18
1.10502777e-17
1.447120284e-17
1.84871563e-17
2.291347656e-17
2.740245458e-17
3.157317683e-17
3.560974169e-17
4.237390981e-17
6.674142216e-17
1.867759874e-16
1.071543254e-15
1.334031656e-15
1.588252357e-15
6.850632085e-13
6.279805355e-13
4.343292304e-14
2.42989378e-15
2.795032385e-16
5.806416793e-17
1.596351574e-17
1.057050275e-17
1.183346251e-17
1.299437175e-17
1.334898817e-17
1.331063319e-17
1.326374492e-17
1.342114375e-17
1.387230478e-17
1.463541646e-17
1.568788212e-17
1.698177567e-17
1.845271665e-17
2.002745305e-17
2.16321037e-17
2.320068077e-17
2.468238497e-17
2.604650788e-17
2.728447343e-17
2.840932862e-17
2.945294556e-17
3.046161675e-17
3.149112719e-17
3.260306684e-17
3.386319207e-17
3.534108559e-17
3.71092222e-17
3.924115518e-17
4.18107619e-17
4.489507318e-17
4.858095131e-17
5.29747463e-17
5.821649342e-17
6.450413004e-17
7.213295035e-17
8.155178888e-17
9.344089847e-17
1.088400832e-16
1.294094441e-16
1.58026648e-16
2.002827847e-16
2.685502759e-16
3.933840759e-16
6.535727889e-16
1.24045477e-15
2.522040044e-15
4.845124664e-15
9.759429389e-15
3.299987575e-14
8.882112471e-13
1.491266751e-14
7.373899056e-17
9.073862743e-21
1.081027711e-20
1.270688174e-20
1.447088293e-20
1.608380893e-20
1.75190178e-20
1.876672998e-20
1.982971403e-20
2.072231192e-20
2.146784057e-20
2.209683685e-20
2.264554539e-20
2.315475922e-20
2.366882625e-20
2.423514419e-20
2.490431224e-20
2.573095102e-20
2.677462056e-20
2.810010362e-20
2.977651335e-20
3.187557648e-20
3.446995743e-20
3.763244255e-20
4.143548249e-20
4.594936063e-20
5.123723048e-20
5.734778324e-20
6.431003469e-20
7.213699863e-20
8.084323762e-20
9.047649249e-20
1.011629107e-19
1.131725853e-19
1.270274678e-19
1.436857572e-19
1.648377377e-19
1.933384876e-19
2.337994235e-19
2.93377708e-19
3.828379266e-19
5.179908972e-19
7.216118813e-19
1.025903137e-18
1.475504557e-18
2.130993279e-18
3.07265937e-18
4.403966501e-18
6.253223059e-18
8.770574419e-18
1.211547276e-17
1.642777962e-17
2.177561337e-17
2.808449765e-17
3.51005949e-17
4.257777289e-17
5.125266932e-17
6.626083214e-17
1.102061377e-16
2.826655067e-16
9.114053577e-16
4.239523959e-15
7.330365404e-16
1.102414336e-12
3.600216866e-13
2.512866983e-14
2.53113794e-15
4.06211406e-16
9.775034539e-17
3.442541028e-17
1.875166698e-17
1.411795216e-17
1.215611496e-17
1.095461535e-17
1.015527653e-17
9.721255713e-18
9.64993147e-18
9.923915709e-18
1.051125159e-17
1.136992945e-17
1.244989934e-17
1.369410036e-17
1.504055316e-17
1.642628513e-17
1.779254418e-17
1.909009431e-17
2.028353214e-17
2.135413872e-17
2.230111937e-17
2.314119869e-17
2.390673001e-17
2.464315532e-17
2.540703496e-17
2.626534538e-17
2.729533554e-17
2.858369477e-17
3.022485337e-17
3.231998194e-17
3.497827564e-17
3.832080222e-17
4.248714216e-17
4.764801904e-17
5.403061854e-17
6.196362397e-17
7.194800168e-17
8.476719868e-17
1.016793456e-16
1.247966857e-16
1.578929683e-16
2.082225038e-16
2.908454598e-16
4.392996062e-16
7.324063773e-16
1.363533511e-15
2.844521862e-15
6.875366104e-15
2.274848248e-14
1.430678107e-13
3.125655239e-13
3.0327769e-16
1.660822492e-15
1.051126918e-20
1.257072944e-20
1.48196674e-20
1.692681347e-20
1.886636802e-20
2.060679749e-20
2.213641472e-20
2.345831836e-20
2.458910048e-20
2.555583375e-20
2.639385381e-20
2.714489542e-20
2.78555729e-20
2.857626882e-20
2.936055685e-20
3.026547338e-20
3.135241301e-20
3.268808454e-20
3.43445866e-20
3.63981723e-20
3.892704364e-20
4.200921158e-20
4.572096154e-20
5.013513655e-20
5.531706376e-20
6.131623923e-20
6.815468211e-20
7.58168939e-20
8.424763531e-20
9.336100072e-20
1.030595598e-19
1.132628922e-19
1.23955783e-19
1.352818207e-19
1.477185372e-19
1.623667414e-19
1.813798033e-19
2.0856577e-19
2.502274806e-19
3.163518788e-19
4.222915962e-19
5.910887046e-19
8.565800264e-19
1.267436531e-18
1.892307711e-18
2.826211305e-18
4.197984302e-18
6.177765212e-18
8.981623673e-18
1.28668408e-17
1.81037745e-17
2.489536158e-17
3.318988316e-17
4.229687081e-17
5.020394172e-17
5.273348934e-17
4.64739332e-17
7.375831375e-17
4.875003255e-16
4.242458058e-15
1.389657369e-15
3.777655979e-15
8.970808037e-13
5.879836044e-13
3.763707378e-14
3.148705221e-15
4.426080754e-16
1.128794552e-16
4.399945138e-17
2.298651134e-17
1.481143005e-17
1.090167815e-17
8.735333838e-18
7.491690404e-18
6.859587781e-18
6.689063422e-18
6.888333584e-18
7.390767508e-18
8.141177926e-18
9.088120938e-18
1.017947271e-17
1.136097571e-17
1.257747156e-17
1.377601046e-17
1.490974428e-17
1.594169778e-17
1.684790309e-17
1.761962677e-17
1.826439597e-17
1.880575516e-17
1.928222355e-17
1.974640765e-17
2.026478389e-17
2.091769697e-17
2.17986366e-17
2.301274272e-17
2.467557577e-17
2.691326901e-17
2.986456666e-17
3.368596159e-17
3.856387731e-17
4.474046912e-17
5.25600897e-17
6.254422083e-17
7.551266848e-17
9.279828909e-17
1.166624563e-16
1.51140744e-16
2.038370373e-16
2.899065071e-16
4.413238065e-16
7.298033596e-16
1.330658719e-15
2.752268481e-15
7.088048161e-15
2.906530249e-14
2.434382329e-13
2.710880597e-13
9.936034575e-16
3.493622397e-16
1.21634247e-20
1.460703832e-20
1.727397268e-20
1.978934885e-20
2.211807239e-20
2.422276131e-20
2.608956775e-20
2.772220815e-20
2.914024235e-20
3.037539552e-20
3.14687514e-20
3.246846562e-20
3.342793079e-20
3.440449465e-20
3.545897306e-20
3.665601385e-20
3.806513849e-20
3.976166651e-20
4.182664928e-20
4.434532701e-20
4.740459407e-20
5.109043872e-20
5.548579161e-20
6.066755845e-20
6.670028189e-20
7.362444684e-20
8.144044004e-20
9.009322748e-20
9.946327479e-20
1.093654773e-19
1.195534975e-19
1.297294226e-19
1.395714629e-19
1.488084406e-19
1.573759756e-19
1.65684098e-19
1.750221088e-19
1.881459823e-19
2.101390453e-19
2.496872618e-19
3.209448403e-19
4.461810593e-19
6.594380381e-19
1.011515282e-18
1.576754116e-18
2.462214419e-18
3.81981366e-18
5.861504383e-18
8.876059245e-18
1.324141886e-17
1.941293766e-17
2.782932438e-17
3.857986333e-17
5.046857963e-17
5.886929963e-17
5.279251367e-17
2.442353284e-17
8.221948968e-17
1.224926499e-15
3.717665403e-15
4.896123946e-15
1.257849681e-12
1.375033368e-12
2.218012775e-13
9.106673388e-15
3.973433054e-16
1.113367321e-16
6.845387922e-17
3.853651885e-17
2.196701619e-17
1.345230001e-17
8.957914413e-18
6.495726498e-18
5.163114962e-18
4.532600615e-18
4.382395624e-18
4.585636057e-18
5.062158654e-18
5.754549623e-18
6.614789285e-18
7.596814648e-18
8.653266158e-18
9.735378493e-18
1.079498932e-17
1.178764057e-17
1.267599778e-17
1.343313518e-17
1.404535316e-17
1.45141322e-17
1.485696295e-17
1.510730513e-17
1.531436241e-17
1.554315329e-17
1.58745761e-17
1.640479783e-17
1.72438203e-17
1.851389184e-17
2.034866387e-17
2.289395942e-17
2.631197341e-17
3.079275124e-17
3.657847572e-17
4.400641699e-17
5.357820585e-17
6.607324755e-17
8.275038675e-17
1.057318386e-16
1.387597502e-16
1.887298764e-16
2.68901586e-16
4.057668295e-16
6.535967768e-16
1.122163886e-15
2.005471263e-15
3.451766819e-15
5.003256412e-15
2.881657964e-14
1.123645354e-13
2.018143992e-12
1.879406721e-16
1.405953867e-20
1.696054009e-20
2.012352557e-20
2.312417265e-20
2.591558594e-20
2.845349066e-20
3.072171225e-20
3.272515402e-20
3.448733198e-20
3.604580992e-20
3.744866985e-20
3.875168828e-20
4.001621101e-20
4.130786811e-20
4.269612165e-20
4.425482156e-20
4.606336427e-20
4.820761737e-20
5.07798015e-20
5.387677254e-20
5.759734429e-20
6.203952961e-20
6.729790544e-20
7.345956588e-20
8.059568912e-20
8.874661438e-20
9.790162723e-20
1.07978262e-19
1.188058958e-19
1.301137721e-19
1.415195695e-19
1.525192416e-19
1.624928767e-19
1.707559644e-19
1.766886693e-19
1.799681968e-19
1.809320628e-19
1.811299596e-19
1.841763324e-19
1.970674096e-19
2.321576117e-19
3.100247844e-19
4.635336566e-19
7.435882456e-19
1.227329087e-18
2.029894153e-18
3.321277393e-18
5.350378366e-18
8.478834145e-18
1.322663291e-17
2.032500526e-17
3.07452011e-17
4.559012026e-17
6.558125493e-17
9.000573529e-17
1.190533713e-16
1.930924472e-16
6.456605013e-16
3.462980707e-15
3.556475515e-15
1.819210029e-17
1.51907174e-12
1.024079848e-12
7.123521406e-14
3.822763327e-15
1.128867971e-16
5.880893064e-17
5.498501361e-17
3.447540343e-17
1.958706045e-17
1.121189686e-17
6.746732707e-18
4.39409952e-18
3.206617251e-18
2.70607146e-18
2.645813795e-18
2.892815448e-18
3.370055001e-18
4.026844302e-18
4.822740512e-18
5.71898857e-18
6.674764297e-18
7.646677798e-18
8.590378051e-18
9.463320966e-18
1.022805735e-17
1.085565825e-17
1.132893713e-17
1.164501817e-17
1.181688914e-17
1.187402102e-17
1.186258862e-17
1.184571328e-17
1.190355529e-17
1.213270769e-17
1.264465981e-17
1.35637856e-17
1.502569873e-17
1.717713507e-17
2.017929399e-17
2.421778326e-17
2.9523107e-17
3.640587911e-17
4.531302678e-17
5.692021972e-17
7.229654812e-17
9.321478931e-17
1.227507079e-16
1.664708603e-16
2.348705694e-16
3.485131473e-16
5.48752392e-16
9.174371239e-16
1.59220132e-15
2.633886971e-15
3.279795919e-15
1.031682497e-14
3.732445765e-13
1.901179791e-13
7.032981414e-16
1.623319664e-20
1.967968173e-20
2.343193835e-20
2.700915625e-20
3.034956097e-20
3.340080132e-20
3.614446163e-20
3.858755438e-20
4.075901457e-20
4.270384312e-20
4.44787397e-20
4.614868509e-20
4.778460112e-20
4.946208005e-20
5.126109005e-20
5.326670874e-20
5.557040365e-20
5.827108082e-20
6.147501721e-20
6.529425567e-20
6.984404603e-20
7.524015784e-20
8.159604772e-20
8.901800516e-20
9.759503654e-20
1.073811841e-19
1.183715905e-19
1.304769407e-19
1.435000071e-19
1.571130181e-19
1.708311539e-19
1.839833281e-19
1.956963348e-19
2.049211044e-19
2.105294132e-19
2.115026649e-19
2.072426956e-19
1.980750189e-19
1.860722811e-19
1.763732334e-19
1.792021656e-19
2.128422117e-19
3.079467642e-19
5.138082736e-19
9.075716319e-19
1.607905026e-18
2.795579976e-18
4.745252957e-18
7.876697716e-18
1.284222979e-17
2.068612033e-17
3.315735655e-17
5.338449679e-17
8.756096231e-17
1.500372597e-16
2.811803618e-16
6.138850038e-16
1.54800633e-15
3.948652743e-15
7.828409206e-15
2.996900662e-15
1.516958552e-12
7.632081177e-13
6.039352338e-14
5.002629417e-15
6.143522476e-16
1.699514203e-16
7.419963719e-17
3.569390495e-17
1.762577731e-17
8.932310805e-18
4.699680949e-18
2.64550996e-18
1.706541987e-18
1.380245167e-18
1.423718786e-18
1.716095105e-18
2.193531006e-18
2.816883671e-18
3.5550479e-18
4.376606074e-18
5.246402379e-18
6.125225818e-18
6.971423654e-18
7.743622965e-18
8.40404041e-18
8.922062574e-18
9.27776507e-18
9.464893765e-18
9.4928939e-18
9.387972093e-18
9.193610599e-18
8.970914221e-18
8.798688793e-18
8.772750153e-18
9.004212818e-18
9.617098139e-18
1.074616304e-17
1.253618006e-17
1.514428205e-17
1.87474299e-17
2.355726774e-17
2.984489386e-17
3.797998126e-17
4.849534538e-17
6.220252647e-17
8.04090033e-17
1.053351204e-16
1.409424724e-16
1.946825416e-16
2.814757368e-16
4.335936158e-16
7.282360633e-16
1.379539225e-15
3.15461148e-15
1.044826489e-14
7.013065462e-14
9.56504606e-13
6.108266511e-13
5.507997403e-15
1.872365804e-20
2.282260371e-20
2.727595714e-20
3.153808058e-20
3.552844499e-20
3.918538293e-20
4.248869767e-20
4.544912879e-20
4.810311934e-20
5.050538308e-20
5.27233985e-20
5.483344837e-20
5.691816148e-20
5.906528928e-20
6.136761455e-20
6.392389705e-20
6.684036625e-20
7.023203593e-20
7.422294811e-20
7.894503763e-20
8.45360015e-20
9.113704834e-20
9.889024928e-20
1.079333652e-19
1.183886516e-19
1.303432278e-19
1.438223772e-19
1.587601541e-19
1.749701141e-19
1.921135997e-19
2.096603212e-19
2.268427047e-19
2.426205395e-19
2.556827498e-19
2.645102802e-19
2.67518815e-19
2.633156567e-19
2.511514948e-19
2.317054009e-19
2.083803105e-19
1.893137834e-19
1.90376515e-19
2.395916719e-19
3.836815807e-19
6.97818981e-19
1.300250658e-18
2.374605469e-18
4.20532826e-18
7.237861725e-18
1.219077444e-17
2.028814258e-17
3.379538741e-17
5.73834797e-17
1.019356863e-16
1.959916109e-16
4.2157133e-16
1.021251518e-15
2.500397661e-15
6.561563038e-15
3.66460925e-15
5.648434194e-15
1.612576025e-12
6.389855994e-13
6.091728662e-14
7.118346228e-15
1.14630103e-15
2.749674925e-16
9.093243145e-17
3.59465801e-17
1.543728493e-17
6.856229749e-18
3.070278798e-18
1.392657448e-18
7.100981739e-19
5.369923464e-19
6.561580384e-19
9.691901271e-19
1.429442303e-18
2.010188708e-18
2.68904697e-18
3.440677355e-18
4.234119971e-18
5.032911178e-18
5.796893868e-18
6.485036897e-18
7.058850529e-18
7.486123905e-18
7.744647191e-18
7.82544769e-18
7.735111253e-18
7.497136081e-18
7.152642551e-18
6.76078439e-18
6.398762283e-18
6.16103164e-18
6.157438945e-18
6.510635315e-18
7.353640337e-18
8.828641562e-18
1.108807591e-17
1.429888715e-17
1.865082762e-17
2.436993289e-17
3.173965876e-17
4.113621388e-17
5.309298781e-17
6.84229787e-17
8.84554421e-17
1.155142112e-16
1.539619795e-16
2.126799472e-16
3.114826445e-16
4.99524276e-16
9.161740611e-16
2.038105394e-15
6.0409855e-15
2.877694497e-14
2.873783806e-13
2.716735761e-14
2.244276824e-16
2.157816373e-20
2.646067526e-20
3.175033632e-20
3.682607796e-20
4.158381171e-20
4.595144989e-20
4.99083756e-20
5.347176079e-20
5.668871373e-20
5.962680256e-20
6.236725652e-20
6.500044895e-20
6.762340245e-20
7.033871479e-20
7.325474637e-20
7.648680401e-20
8.015903601e-20
8.44062914e-20
8.93750682e-20
9.522316875e-20
1.021184486e-19
1.102373817e-19
1.197630983e-19
1.308805932e-19
1.43765334e-19
1.585629139e-19
1.753610031e-19
1.941577801e-19
2.148289947e-19
2.370901464e-19
2.604477201e-19
2.841415243e-19
3.07094025e-19
3.278911717e-19
3.448149531e-19
3.559452188e-19
3.593701656e-19
3.535953279e-19
3.382940771e-19
3.155719616e-19
2.919448229e-19
2.813144651e-19
3.094107075e-19
4.20431677e-19