ITEM: TIMESTEP
750000
ITEM: NUMBER OF ATOMS
47
ITEM: BOX BOUNDS mm mm mm
-1e-06 0.010001
-1.5e-06 0.0150015
-1e-05 0.10001
ITEM: ATOMS v_x1 v_y1 v_z1 v_rad1 
7.70441e-06 4.18351e-05 0.000107704 7.705e-06 
8.86651e-05 6.84064e-05 0.0001113 1.1301e-05 
1.23631e-05 6.41663e-05 0.0001113 1.1301e-05 
7.04205e-05 5.26729e-05 0.000112839 1.284e-05 
3.2757e-05 8.63025e-05 0.000114587 1.45885e-05 
9.00555e-05 0.000140056 0.000109944 9.945e-06 
6.76418e-05 0.000137161 0.000112838 1.284e-05 
3.48833e-05 3.17237e-05 0.000108754 8.755e-06 
2.44491e-05 0.000134088 0.000114587 1.45885e-05 
2.64608e-05 0.000110082 0.000109944 9.945e-06 
6.77943e-06 0.00014322 0.000106779 6.78e-06 
5.92591e-05 2.36461e-05 0.00011883 1.88315e-05 
1.01584e-05 8.67377e-05 0.000108754 8.755e-06 
9.00551e-05 8.35554e-05 0.00012613 9.945e-06 
7.72425e-06 0.000120585 0.000107705 7.705e-06 
6.05949e-05 7.63978e-05 0.000112839 1.284e-05 
8.71608e-05 0.000117642 0.000112838 1.284e-05 
4.67961e-05 0.000141241 0.000108755 8.755e-06 
9.00559e-05 9.51142e-05 0.000109944 9.945e-06 
8.05946e-05 8.76763e-06 0.000108755 8.755e-06 
3.55674e-05 9.94389e-06 0.000109944 9.945e-06 
1.45871e-05 2.17795e-05 0.000114588 1.45885e-05 
9.12458e-05 4.86813e-05 0.000108754 8.755e-06 
4.06338e-05 5.5119e-05 0.000116574 1.6575e-05 
3.03925e-05 9.94484e-06 0.000129148 9.945e-06 
8.85895e-05 2.89664e-05 0.0001113 1.1301e-05 
1.62635e-05 0.00014322 0.000132086 6.78e-06 
1.56412e-05 4.5686e-05 0.000124538 1.1301e-05 
2.10476e-05 6.35359e-05 0.000128194 7.705e-06 
4.74843e-05 0.00010734 0.0001113 1.1301e-05 
8.71612e-05 1.28391e-05 0.000129206 1.284e-05 
8.75414e-06 0.000104191 0.000108754 8.755e-06 
6.09142e-05 4.9175e-05 0.000134751 1.1301e-05 
6.97878e-05 0.000119789 0.000105965 5.965e-06 
4.26084e-05 0.000125971 0.00010678 6.78e-06 
6.93832e-05 9.9915e-05 0.000118232 1.284e-05 
9.00551e-05 0.000103046 0.000130092 9.945e-06 
3.69564e-05 7.332e-05 0.000132217 7.705e-06 
1.13004e-05 7.98389e-05 0.000127551 1.1301e-05 
8.5412e-05 0.000135412 0.000133658 1.45885e-05 
6.1363e-05 0.000118784 0.000119542 7.705e-06 
5.22334e-05 8.87474e-05 0.000133744 1.284e-05 
5.57812e-05 0.000122755 0.000106779 6.78e-06 
7.70478e-06 3.10281e-05 0.000133669 7.705e-06 
6.77984e-06 6.10137e-05 0.000128206 6.78e-06 
6.77932e-06 0.00014322 0.000122395 6.78e-06 
4.81549e-05 0.000132192 0.000131489 1.45885e-05 
