/*--------------------------------*- C++ -*----------------------------------*\
  =========                 |
  \\      /  F ield         | OpenFOAM: The Open Source CFD Toolbox
   \\    /   O peration     | Website:  https://openfoam.org
    \\  /    A nd           | Version:  6
     \\/     M anipulation  |
\*---------------------------------------------------------------------------*/
FoamFile
{
    version     2.0;
    format      ascii;
    class       volVectorField;
    location    "0.0031";
    object      gradT;
}
// * * * * * * * * * * * * * * * * * * * * * * * * * * * * * * * * * * * * * //

dimensions      [0 -1 0 1 0 0 0];

internalField   nonuniform List<vector> 
9600
(
(0 2.286988866e-08 -6.488187413e-05)
(0 5.717472508e-08 -6.480564506e-05)
(0 9.147955464e-08 -6.46493636e-05)
(0 1.334076839e-07 -6.442066471e-05)
(0 1.715241752e-07 -6.411192506e-05)
(0 2.096406461e-07 -6.37307564e-05)
(0 2.439454791e-07 -6.328098193e-05)
(0 2.744386804e-07 -6.275497825e-05)
(0 3.12555145e-07 -6.217179233e-05)
(0 3.430483299e-07 -6.15200005e-05)
(0 3.659182405e-07 -6.08110376e-05)
(0 3.964114035e-07 -6.003726938e-05)
(0 4.269045883e-07 -5.921014174e-05)
(0 4.535861523e-07 -5.832965453e-05)
(0 4.764560138e-07 -5.739960889e-05)
(0 4.955142543e-07 -5.643145027e-05)
(0 5.107608774e-07 -5.541374355e-05)
(0 5.298190873e-07 -5.436934864e-05)
(0 5.488773279e-07 -5.329065223e-05)
(0 5.603123058e-07 -5.217765411e-05)
(0 5.717472165e-07 -5.104177984e-05)
(0 5.86993809e-07 -4.988685047e-05)
(0 5.908054925e-07 -4.870524247e-05)
(0 5.946171052e-07 -4.751219369e-05)
(0 6.060520495e-07 -4.631914783e-05)
(0 6.060520859e-07 -4.510704644e-05)
(0 6.060520495e-07 -4.388350469e-05)
(0 6.098636976e-07 -4.267140059e-05)
(0 6.022404375e-07 -4.145929898e-05)
(0 6.060520495e-07 -4.024338075e-05)
(0 6.060520495e-07 -3.903127665e-05)
(0 5.908054925e-07 -3.784204471e-05)
(0 5.908054571e-07 -3.664518493e-05)
(0 5.86993809e-07 -3.547119731e-05)
(0 5.755588992e-07 -3.430483505e-05)
(0 5.679355684e-07 -3.316133856e-05)
(0 5.603122722e-07 -3.203309072e-05)
(0 5.526890091e-07 -3.091627968e-05)
(0 5.412540316e-07 -2.982614646e-05)
(0 5.298190873e-07 -2.875888499e-05)
(0 5.183841741e-07 -2.771068342e-05)
(0 5.069491987e-07 -2.668153677e-05)
(0 4.955142543e-07 -2.567907332e-05)
(0 4.802676907e-07 -2.470329288e-05)
(0 4.688327176e-07 -2.375037937e-05)
(0 4.612094213e-07 -2.281652559e-05)
(0 4.421512073e-07 -2.19131663e-05)
(0 4.383395327e-07 -2.103267427e-05)
(0 4.230929402e-07 -2.01712418e-05)
(0 4.040347239e-07 -1.935173862e-05)
(0 4.002230516e-07 -1.853985641e-05)
(0 3.849764591e-07 -1.775846855e-05)
(0 3.735415372e-07 -1.699995159e-05)
(0 3.582949224e-07 -1.627192578e-05)
(0 3.544832742e-07 -1.555533594e-05)
(0 3.316134055e-07 -1.486924017e-05)
(0 3.239900894e-07 -1.420601251e-05)
(0 3.12555145e-07 -1.356946727e-05)
(0 2.973085704e-07 -1.2963416e-05)
(0 2.896852564e-07 -1.236879812e-05)
(0 2.820619602e-07 -1.18046742e-05)
(0 2.706270321e-07 -1.124817425e-05)
(0 2.591920715e-07 -1.072216613e-05)
(0 2.477571272e-07 -1.021521694e-05)
(0 2.401338453e-07 -9.723514912e-06)
(0 2.286988866e-07 -9.250869963e-06)
(0 2.248872385e-07 -8.801095486e-06)
(0 2.13452307e-07 -8.370379752e-06)
(0 2.020173498e-07 -7.954909606e-06)
(0 1.982057017e-07 -7.554686554e-06)
(0 1.829591203e-07 -7.173522174e-06)
(0 1.791474612e-07 -6.807603525e-06)
(0 1.71524165e-07 -6.460743547e-06)
(0 1.600892302e-07 -6.125318881e-06)
(0 1.600892206e-07 -5.805140072e-06)
(0 1.524659244e-07 -5.496396575e-06)
(0 1.372193402e-07 -5.210523279e-06)
(0 1.37219332e-07 -4.932272655e-06)
(0 1.257843876e-07 -4.669268935e-06)
(0 1.219727468e-07 -4.417700425e-06)
(0 1.257843876e-07 -4.177566329e-06)
(0 1.105377952e-07 -3.941244146e-06)
(0 1.029145051e-07 -3.727792075e-06)
(0 9.910285086e-08 -3.521962854e-06)
(0 9.910285086e-08 -3.323757152e-06)
(0 9.147956013e-08 -3.133174935e-06)
(0 8.385625842e-08 -2.954027285e-06)
(0 8.766790653e-08 -2.78250312e-06)
(0 8.004461512e-08 -2.618602409e-06)
(0 8.004461031e-08 -2.458513031e-06)
(0 7.242131409e-08 -2.309858755e-06)
(0 6.479802176e-08 -2.168827905e-06)
(0 6.479801787e-08 -2.039231739e-06)
(0 6.098636976e-08 -1.913447351e-06)
(0 6.098637342e-08 -1.791474719e-06)
(0 5.717472165e-08 -1.669501872e-06)
(0 5.717472165e-08 -1.562775725e-06)
(0 5.336307674e-08 -1.452238017e-06)
(0 4.955142543e-08 -1.353135079e-06)
(0 4.192812921e-08 -1.261655524e-06)
(0 4.192813173e-08 -1.177799337e-06)
(0 3.81164811e-08 -1.09013136e-06)
(0 4.192812921e-08 -1.010086749e-06)
(0 3.811648339e-08 -9.300421947e-07)
(0 3.430483299e-08 -8.614324729e-07)
(0 3.430483299e-08 -7.890111588e-07)
(0 3.430483505e-08 -7.242131844e-07)
(0 3.049318488e-08 -6.594151231e-07)
(0 3.049318488e-08 -5.984287533e-07)
(0 2.668153837e-08 -5.336307674e-07)
(0 3.049318488e-08 -4.764560138e-07)
(0 3.430483299e-08 -4.15469644e-07)
(0 2.286989003e-08 -3.621065922e-07)
(0 2.668153677e-08 -3.12555145e-07)
(0 2.668153677e-08 -2.630037196e-07)
(0 2.286989003e-08 -2.058290103e-07)
(0 2.668153677e-08 -1.600892206e-07)
(0 2.286988866e-08 -1.105377952e-07)
(0 2.286989003e-08 -6.479802176e-08)
(0 1.905824055e-08 -1.905824055e-08)
(0 5.717472508e-08 -6.503815561e-05)
(0 1.753358341e-07 -6.496573819e-05)
(0 2.858736254e-07 -6.480564506e-05)
(0 4.078463723e-07 -6.456932286e-05)
(0 5.107609081e-07 -6.42605832e-05)
(0 6.212986792e-07 -6.387941451e-05)
(0 7.356481294e-07 -6.342582836e-05)
(0 8.309393877e-07 -6.290363631e-05)
(0 9.300421947e-07 -6.23090154e-05)
(0 1.025333403e-06 -6.165722353e-05)
(0 1.109189733e-06 -6.09406373e-05)
(0 1.200669227e-06 -6.016305738e-05)
(0 1.280713842e-06 -5.933211804e-05)
(0 1.353135241e-06 -5.845163078e-05)
(0 1.425556479e-06 -5.751777343e-05)
(0 1.486542852e-06 -5.654199146e-05)
(0 1.547529318e-06 -5.552809633e-05)
(0 1.597080654e-06 -5.447607806e-05)
(0 1.646632082e-06 -5.338594663e-05)
(0 1.684748667e-06 -5.227294846e-05)
(0 1.719053401e-06 -5.113326247e-05)
(0 1.757169884e-06 -4.996308643e-05)
(0 1.776228232e-06 -4.878147837e-05)
(0 1.791474719e-06 -4.759224116e-05)
(0 1.810532961e-06 -4.638394864e-05)
(0 1.818156367e-06 -4.516803553e-05)
(0 1.829591203e-06 -4.395592864e-05)
(0 1.825779554e-06 -4.272857788e-05)
(0 1.818156367e-06 -4.15088529e-05)
(0 1.821967906e-06 -4.028912294e-05)
(0 1.802909664e-06 -3.908083042e-05)
(0 1.787663178e-06 -3.787635182e-05)
(0 1.772416478e-06 -3.668711526e-05)
(0 1.760981533e-06 -3.550931592e-05)
(0 1.73048845e-06 -3.434295359e-05)
(0 1.707618456e-06 -3.319183373e-05)
(0 1.680936917e-06 -3.205977418e-05)
(0 1.654255478e-06 -3.094677472e-05)
(0 1.623762192e-06 -2.985282979e-05)
(0 1.589457357e-06 -2.878175661e-05)
(0 1.551340967e-06 -2.772974333e-05)
(0 1.520847687e-06 -2.670440826e-05)
(0 1.486542852e-06 -2.570194475e-05)
(0 1.448426456e-06 -2.472235261e-05)
(0 1.417933182e-06 -2.376562739e-05)
(0 1.37600505e-06 -2.28279619e-05)
(0 1.337888647e-06 -2.192079091e-05)
(0 1.30739538e-06 -2.104029883e-05)
(0 1.2616556e-06 -2.019030125e-05)
(0 1.22353919e-06 -1.935173978e-05)
(0 1.19304593e-06 -1.854748082e-05)
(0 1.158741095e-06 -1.776228126e-05)
(0 1.113001382e-06 -1.700757591e-05)
(0 1.082508128e-06 -1.627192676e-05)
(0 1.048203293e-06 -1.555914852e-05)
(0 1.01008687e-06 -1.487305271e-05)
(0 9.795936231e-07 -1.421363666e-05)
(0 9.33853843e-07 -1.357327973e-05)
(0 8.995490619e-07 -1.295198183e-05)
(0 8.690558213e-07 -1.236498721e-05)
(0 8.423742829e-07 -1.178942831e-05)
(0 8.080694963e-07 -1.124436327e-05)
(0 7.775762611e-07 -1.071454348e-05)
(0 7.508947228e-07 -1.02037826e-05)
(0 7.165899307e-07 -9.719703847e-06)
(0 6.937199977e-07 -9.250870518e-06)
(0 6.594151626e-07 -8.801096014e-06)
(0 6.365453108e-07 -8.366568606e-06)
(0 6.136753826e-07 -7.947286787e-06)
(0 5.869938442e-07 -7.550875359e-06)
(0 5.603123394e-07 -7.165899307e-06)
(0 5.336307674e-07 -6.807603933e-06)
(0 5.145725257e-07 -6.453120638e-06)
(0 4.878910166e-07 -6.1215076e-06)
(0 4.72644394e-07 -5.80514042e-06)
(0 4.421512073e-07 -5.504020201e-06)
(0 4.23092991e-07 -5.210523592e-06)
(0 4.078463723e-07 -4.936084599e-06)
(0 3.849764822e-07 -4.669269215e-06)
(0 3.659182625e-07 -4.41770069e-06)
(0 3.582949439e-07 -4.177566579e-06)
(0 3.392367022e-07 -3.948867679e-06)
(0 3.163668311e-07 -3.727792299e-06)
(0 3.011202188e-07 -3.518151417e-06)
(0 2.934969221e-07 -3.319945703e-06)
(0 2.744386969e-07 -3.129363474e-06)
(0 2.630037354e-07 -2.954027463e-06)
(0 2.553804387e-07 -2.778691639e-06)
(0 2.439455083e-07 -2.610979269e-06)
(0 2.286989003e-07 -2.45470153e-06)
(0 2.210756037e-07 -2.306047245e-06)
(0 2.020173741e-07 -2.168828035e-06)
(0 1.943940653e-07 -2.031608565e-06)
(0 1.867707686e-07 -1.905824169e-06)
(0 1.753358341e-07 -1.78385153e-06)
(0 1.715241752e-07 -1.673313621e-06)
(0 1.639008786e-07 -1.558964171e-06)
(0 1.524659427e-07 -1.456049753e-06)
(0 1.448426369e-07 -1.360758457e-06)
(0 1.334076919e-07 -1.269278897e-06)
(0 1.295960513e-07 -1.173987759e-06)
(0 1.257843952e-07 -1.090131425e-06)
(0 1.181610985e-07 -1.01008681e-06)
(0 1.105378085e-07 -9.338538991e-07)
(0 1.067261535e-07 -8.652441729e-07)
(0 1.029145051e-07 -7.928228545e-07)
(0 9.910286276e-08 -7.204015793e-07)
(0 9.529120847e-08 -6.517918659e-07)
(0 9.147956013e-08 -5.908054925e-07)
(0 9.529121419e-08 -5.336307995e-07)
(0 8.766791179e-08 -4.764560424e-07)
(0 8.385626346e-08 -4.192813173e-07)
(0 7.623297135e-08 -3.659182625e-07)
(0 7.623296678e-08 -3.163668121e-07)
(0 8.004461512e-08 -2.59192087e-07)
(0 7.242132278e-08 -2.134523198e-07)
(0 7.623296678e-08 -1.600892302e-07)
(0 7.242131844e-08 -1.143494502e-07)
(0 6.479802565e-08 -6.479802565e-08)
(0 6.479802176e-08 -2.286989003e-08)
(0 1.02914499e-07 -6.536595344e-05)
(0 2.896852738e-07 -6.52821011e-05)
(0 4.878909581e-07 -6.512200796e-05)
(0 6.784733636e-07 -6.488568578e-05)
(0 8.652441729e-07 -6.457313451e-05)
(0 1.044391582e-06 -6.418815418e-05)
(0 1.219727395e-06 -6.372694475e-05)
(0 1.391251644e-06 -6.319712946e-05)
(0 1.555152429e-06 -6.260250856e-05)
(0 1.711430001e-06 -6.193928179e-05)
(0 1.863896038e-06 -6.121126067e-05)
(0 2.004926906e-06 -6.042986914e-05)
(0 2.142146238e-06 -5.959130655e-05)
(0 2.267930762e-06 -5.869938442e-05)
(0 2.382280069e-06 -5.775790381e-05)
(0 2.489006216e-06 -5.677068695e-05)
(0 2.576674277e-06 -5.57491686e-05)
(0 2.671965325e-06 -5.468190379e-05)
(0 2.752009936e-06 -5.358796078e-05)
(0 2.816808122e-06 -5.245971609e-05)
(0 2.873982675e-06 -5.130859521e-05)
(0 2.934969045e-06 -5.013841924e-05)
(0 2.965462408e-06 -4.894918797e-05)
(0 2.999767063e-06 -4.774470423e-05)
(0 3.018825303e-06 -4.652497683e-05)
(0 3.037883726e-06 -4.530525216e-05)
(0 3.049318488e-06 -4.408171039e-05)
(0 3.04550684e-06 -4.28543597e-05)
(0 3.045507023e-06 -4.161938821e-05)
(0 3.037883544e-06 -4.039965832e-05)
(0 3.011202007e-06 -3.918374257e-05)
(0 2.988332298e-06 -3.797926405e-05)
(0 2.961650582e-06 -3.677859262e-05)
(0 2.931157397e-06 -3.55893584e-05)
(0 2.893041089e-06 -3.442299615e-05)
(0 2.851112786e-06 -3.326806471e-05)
(0 2.805373009e-06 -3.212838192e-05)
(0 2.755821749e-06 -3.101538253e-05)
(0 2.710081806e-06 -2.991762602e-05)
(0 2.649095437e-06 -2.88389296e-05)
(0 2.595732519e-06 -2.778310474e-05)
(0 2.542369289e-06 -2.675395809e-05)
(0 2.477571272e-06 -2.574387134e-05)
(0 2.416585047e-06 -2.475665596e-05)
(0 2.367033476e-06 -2.379611915e-05)
(0 2.29842381e-06 -2.286226536e-05)
(0 2.233625927e-06 -2.195128278e-05)
(0 2.172639423e-06 -2.10669791e-05)
(0 2.107841405e-06 -2.020554663e-05)
(0 2.046855158e-06 -1.937460851e-05)
(0 1.985868665e-06 -1.856653794e-05)
(0 1.928693944e-06 -1.778515008e-05)
(0 1.860084389e-06 -1.702282148e-05)
(0 1.810532852e-06 -1.627954908e-05)
(0 1.745734834e-06 -1.557439418e-05)
(0 1.680936917e-06 -1.488829841e-05)
(0 1.627573743e-06 -1.422507075e-05)
(0 1.566587373e-06 -1.358852551e-05)
(0 1.509412742e-06 -1.296722765e-05)
(0 1.456049578e-06 -1.236879812e-05)
(0 1.398874856e-06 -1.180086255e-05)
(0 1.341700215e-06 -1.12519859e-05)
(0 1.299772006e-06 -1.072216613e-05)
(0 1.25022058e-06 -1.021140529e-05)
(0 1.19304593e-06 -9.723514912e-06)
(0 1.151117729e-06 -9.254681612e-06)
(0 1.101566304e-06 -8.801095486e-06)
(0 1.063449887e-06 -8.366568104e-06)
(0 1.017710045e-06 -7.954909606e-06)
(0 9.757819162e-07 -7.562309851e-06)
(0 9.300421947e-07 -7.184957119e-06)
(0 8.957373059e-07 -6.815226821e-06)
(0 8.499975286e-07 -6.468366843e-06)
(0 8.156927445e-07 -6.136753826e-06)
(0 7.775762145e-07 -5.812763368e-06)
(0 7.470830296e-07 -5.507831519e-06)
(0 7.051549427e-07 -5.214334928e-06)
(0 6.784733636e-07 -4.936084303e-06)
(0 6.479801787e-07 -4.676892231e-06)
(0 6.136753826e-07 -4.425323721e-06)
(0 5.86993809e-07 -4.181377977e-06)
(0 5.641239203e-07 -3.956490738e-06)
(0 5.336307674e-07 -3.735415372e-06)
(0 5.107608468e-07 -3.525774502e-06)
(0 4.8407931e-07 -3.323757152e-06)
(0 4.573978007e-07 -3.136986583e-06)
(0 4.383395327e-07 -2.954027285e-06)
(0 4.230929402e-07 -2.78250312e-06)
(0 4.040347239e-07 -2.618602409e-06)
(0 3.849764591e-07 -2.462324679e-06)
(0 3.621065705e-07 -2.309858755e-06)
(0 3.354250538e-07 -2.168827905e-06)
(0 3.278017375e-07 -2.039231739e-06)
(0 3.12555145e-07 -1.909635703e-06)
(0 2.973085704e-07 -1.787663071e-06)
(0 2.820619602e-07 -1.67331352e-06)
(0 2.668153677e-07 -1.566587373e-06)
(0 2.553804387e-07 -1.46748461e-06)
(0 2.363221828e-07 -1.364570023e-06)
(0 2.286988866e-07 -1.273090469e-06)
(0 2.210756037e-07 -1.181610985e-06)
(0 2.058289979e-07 -1.097754656e-06)
(0 1.943940536e-07 -1.013898397e-06)
(0 1.829591203e-07 -9.414771397e-07)
(0 1.791474612e-07 -8.614324729e-07)
(0 1.753358131e-07 -7.96634455e-07)
(0 1.677125269e-07 -7.318364811e-07)
(0 1.600892206e-07 -6.632267712e-07)
(0 1.562775725e-07 -5.984287533e-07)
(0 1.448426369e-07 -5.374424158e-07)
(0 1.486542763e-07 -4.802676619e-07)
(0 1.37219332e-07 -4.269045883e-07)
(0 1.295960435e-07 -3.697298889e-07)
(0 1.295960357e-07 -3.12555145e-07)
(0 1.295960357e-07 -2.668153677e-07)
(0 1.257843952e-07 -2.13452307e-07)
(0 1.257843876e-07 -1.639008687e-07)
(0 1.143494433e-07 -1.181610914e-07)
(0 1.143494502e-07 -7.242131844e-08)
(0 1.105377952e-07 -1.905824055e-08)
(0 1.448426282e-07 -6.583097451e-05)
(0 4.116580206e-07 -6.57471222e-05)
(0 6.899083079e-07 -6.558702903e-05)
(0 9.452887313e-07 -6.535070685e-05)
(0 1.21591582e-06 -6.503815561e-05)
(0 1.467484522e-06 -6.464555195e-05)
(0 1.719053298e-06 -6.417290758e-05)
(0 1.959187246e-06 -6.363928067e-05)
(0 2.187886015e-06 -6.30332248e-05)
(0 2.42039655e-06 -6.235093979e-05)
(0 2.618602409e-06 -6.161910705e-05)
(0 2.820619602e-06 -6.082246889e-05)
(0 3.011202007e-06 -5.996865972e-05)
(0 3.186538011e-06 -5.906530266e-05)
(0 3.350438689e-06 -5.811619874e-05)
(0 3.502904613e-06 -5.711754693e-05)
(0 3.628689219e-06 -5.607315871e-05)
(0 3.762096685e-06 -5.499445893e-05)
(0 3.865011184e-06 -5.388908098e-05)
(0 3.964114272e-06 -5.274558971e-05)
(0 4.047970293e-06 -5.157922223e-05)
(0 4.112768311e-06 -5.038998802e-05)
(0 4.169943283e-06 -4.918932181e-05)
(0 4.211871162e-06 -4.796959147e-05)
(0 4.249987643e-06 -4.674224078e-05)
(0 4.265234491e-06 -4.550345787e-05)
(0 4.280480828e-06 -4.426848115e-05)
(0 4.284292476e-06 -4.302969552e-05)
(0 4.276669436e-06 -4.179091239e-05)
(0 4.253799291e-06 -4.055593589e-05)
(0 4.230929402e-06 -3.933239685e-05)
(0 4.196624821e-06 -3.810886009e-05)
(0 4.15469644e-06 -3.6904377e-05)
(0 4.112768311e-06 -3.57075195e-05)
(0 4.055593833e-06 -3.45297223e-05)
(0 3.998418868e-06 -3.336716756e-05)
(0 3.941244146e-06 -3.222367312e-05)
(0 3.861199767e-06 -3.10992388e-05)
(0 3.796401518e-06 -2.999385898e-05)
(0 3.720168556e-06 -2.891135092e-05)
(0 3.643935812e-06 -2.785171441e-05)
(0 3.560079335e-06 -2.681113281e-05)
(0 3.483846373e-06 -2.580104606e-05)
(0 3.392367022e-06 -2.481001904e-05)
(0 3.30851056e-06 -2.384567058e-05)
(0 3.224654301e-06 -2.291181679e-05)
(0 3.133174935e-06 -2.199702256e-05)
(0 3.049318488e-06 -2.110128394e-05)
(0 2.957838933e-06 -2.023985147e-05)
(0 2.862547902e-06 -1.940510169e-05)
(0 2.786314769e-06 -1.858940783e-05)
(0 2.70245851e-06 -1.780420832e-05)
(0 2.61479076e-06 -1.704187972e-05)
(0 2.530934345e-06 -1.630241897e-05)
(0 2.447078087e-06 -1.558964077e-05)
(0 2.355598673e-06 -1.490735665e-05)
(0 2.275553922e-06 -1.424031734e-05)
(0 2.195509311e-06 -1.359996046e-05)
(0 2.119276476e-06 -1.298247424e-05)
(0 2.035420091e-06 -1.238785636e-05)
(0 1.962998777e-06 -1.181229749e-05)
(0 1.886765928e-06 -1.125579754e-05)
(0 1.8143445e-06 -1.073360108e-05)
(0 1.745734834e-06 -1.022665188e-05)
(0 1.677125269e-06 -9.734949857e-06)
(0 1.612327151e-06 -9.262304908e-06)
(0 1.547529133e-06 -8.808718783e-06)
(0 1.482731204e-06 -8.378003049e-06)
(0 1.425556393e-06 -7.958721254e-06)
(0 1.360758375e-06 -7.558498202e-06)
(0 1.299772084e-06 -7.18114547e-06)
(0 1.254032228e-06 -6.815226821e-06)
(0 1.193045858e-06 -6.464555195e-06)
(0 1.143494502e-06 -6.129130529e-06)
(0 1.093943008e-06 -5.816575016e-06)
(0 1.044391582e-06 -5.511643167e-06)
(0 9.910285681e-07 -5.214334928e-06)
(0 9.452887313e-07 -4.943707599e-06)
(0 9.033606021e-07 -4.676892231e-06)
(0 8.614325246e-07 -4.421512073e-06)
(0 8.195043437e-07 -4.185189625e-06)
(0 7.890111588e-07 -3.956490738e-06)
(0 7.470830744e-07 -3.735415372e-06)
(0 7.127781966e-07 -3.525774502e-06)
(0 6.822850117e-07 -3.331380448e-06)
(0 6.479802176e-07 -3.133174935e-06)
(0 6.174869938e-07 -2.950215637e-06)
(0 5.908054571e-07 -2.78250312e-06)
(0 5.603123058e-07 -2.618602409e-06)
(0 5.374423835e-07 -2.462324679e-06)
(0 5.069491987e-07 -2.317482051e-06)
(0 4.764560424e-07 -2.176451201e-06)
(0 4.535861251e-07 -2.039231739e-06)
(0 4.383395327e-07 -1.913447351e-06)
(0 4.116580206e-07 -1.791474719e-06)
(0 3.925997553e-07 -1.680936817e-06)
(0 3.735415148e-07 -1.570399021e-06)
(0 3.544832955e-07 -1.46748461e-06)
(0 3.392366818e-07 -1.368381672e-06)
(0 3.163667931e-07 -1.269278821e-06)
(0 3.049318671e-07 -1.181610985e-06)
(0 2.934969045e-07 -1.101566304e-06)
(0 2.744386639e-07 -1.017710045e-06)
(0 2.59192087e-07 -9.376654914e-07)
(0 2.553804234e-07 -8.65244121e-07)
(0 2.363221828e-07 -7.928228069e-07)
(0 2.36322197e-07 -7.20401536e-07)
(0 2.248872385e-07 -6.632267712e-07)
(0 2.172639423e-07 -5.946171052e-07)
(0 2.058290103e-07 -5.412540641e-07)
(0 2.020173498e-07 -4.802676619e-07)
(0 1.943940536e-07 -4.269045883e-07)
(0 1.867707686e-07 -3.697298889e-07)
(0 1.829591093e-07 -3.087434969e-07)
(0 1.791474612e-07 -2.591920715e-07)
(0 1.715241752e-07 -2.13452307e-07)
(0 1.71524165e-07 -1.677125168e-07)
(0 1.639008687e-07 -1.181610914e-07)
(0 1.639008786e-07 -6.86096701e-08)
(0 1.562775725e-07 -2.668153677e-08)
(0 1.905824169e-07 -6.646752373e-05)
(0 5.37442448e-07 -6.63798598e-05)
(0 8.843024146e-07 -6.621976659e-05)
(0 1.234974062e-06 -6.597200945e-05)
(0 1.57039921e-06 -6.564802328e-05)
(0 1.902012521e-06 -6.524398462e-05)
(0 2.229814278e-06 -6.477134022e-05)
(0 2.534746297e-06 -6.422246672e-05)
(0 2.839678012e-06 -6.360116418e-05)
(0 3.12173999e-06 -6.291506748e-05)
(0 3.392367225e-06 -6.216036484e-05)
(0 3.655370757e-06 -6.134848001e-05)
(0 3.899316251e-06 -6.047942419e-05)
(0 4.116580453e-06 -5.955700887e-05)
(0 4.33765581e-06 -5.858503497e-05)
(0 4.524426578e-06 -5.756732486e-05)
(0 4.699762684e-06 -5.651150166e-05)
(0 4.859851632e-06 -5.541374355e-05)
(0 5.008505917e-06 -5.427787235e-05)
(0 5.122855675e-06 -5.311913444e-05)
(0 5.225769873e-06 -5.193752027e-05)
(0 5.321061081e-06 -5.073685104e-05)
(0 5.389671075e-06 -4.951331489e-05)
(0 5.446845476e-06 -4.827452621e-05)
(0 5.488773608e-06 -4.702811721e-05)
(0 5.50783218e-06 -4.57778993e-05)
(0 5.526890091e-06 -4.451624095e-05)
(0 5.526890091e-06 -4.326220865e-05)
(0 5.515455477e-06 -4.201580216e-05)
(0 5.496396905e-06 -4.076557898e-05)
(0 5.46209207e-06 -3.952298163e-05)
(0 5.412540966e-06 -3.828800986e-05)
(0 5.366800861e-06 -3.70682801e-05)
(0 5.302002839e-06 -3.585998757e-05)
(0 5.233393483e-06 -3.467075537e-05)
(0 5.157160203e-06 -3.34967656e-05)
(0 5.073303939e-06 -3.234183616e-05)
(0 4.985636326e-06 -3.120977847e-05)
(0 4.894156467e-06 -3.009677528e-05)
(0 4.79505361e-06 -2.900283221e-05)
(0 4.692139387e-06 -2.793557235e-05)
(0 4.5892246e-06 -2.689499068e-05)
(0 4.482498447e-06 -2.587346892e-05)
(0 4.371960907e-06 -2.488244185e-05)
(0 4.26904614e-06 -2.390665838e-05)
(0 4.150885041e-06 -2.29537463e-05)
(0 4.040347482e-06 -2.203895202e-05)
(0 3.929809437e-06 -2.114702498e-05)
(0 3.807836691e-06 -2.027415751e-05)
(0 3.689675813e-06 -1.94317844e-05)
(0 3.586761087e-06 -1.862371378e-05)
(0 3.476223285e-06 -1.782707928e-05)
(0 3.365685685e-06 -1.706475064e-05)
(0 3.255147681e-06 -1.632910148e-05)
(0 3.14460988e-06 -1.562013489e-05)
(0 3.03407226e-06 -1.492260414e-05)
(0 2.934969221e-06 -1.425556479e-05)
(0 2.828243067e-06 -1.361139622e-05)
(0 2.717705429e-06 -1.299772162e-05)
(0 2.622414057e-06 -1.240310369e-05)
(0 2.527122849e-06 -1.18275448e-05)
(0 2.424208489e-06 -1.127485646e-05)
(0 2.336540432e-06 -1.073741337e-05)
(0 2.245060872e-06 -1.023046414e-05)
(0 2.157393089e-06 -9.734950442e-06)
(0 2.077348345e-06 -9.26992876e-06)
(0 1.993492081e-06 -8.816342608e-06)
(0 1.905824284e-06 -8.378003552e-06)
(0 1.829591203e-06 -7.970156677e-06)
(0 1.753358236e-06 -7.566121953e-06)
(0 1.67712537e-06 -7.18495755e-06)
(0 1.604703951e-06 -6.819038878e-06)
(0 1.539905929e-06 -6.472178879e-06)
(0 1.46367305e-06 -6.136754194e-06)
(0 1.406498237e-06 -5.816575365e-06)
(0 1.345511864e-06 -5.511643498e-06)
(0 1.273090622e-06 -5.221958538e-06)
(0 1.21591582e-06 -4.939896247e-06)
(0 1.162552743e-06 -4.676892512e-06)
(0 1.109189733e-06 -4.421512338e-06)
(0 1.059638238e-06 -4.181378228e-06)
(0 1.006275161e-06 -3.952679327e-06)
(0 9.60535439e-07 -3.739227245e-06)
(0 9.22418898e-07 -3.525774713e-06)
(0 8.766791179e-07 -3.323757352e-06)
(0 8.309393877e-07 -3.136986771e-06)
(0 7.928228545e-07 -2.957839111e-06)
(0 7.585180194e-07 -2.782503287e-06)
(0 7.204015793e-07 -2.622414214e-06)
(0 6.899083493e-07 -2.469948124e-06)
(0 6.517918659e-07 -2.321293838e-06)
(0 6.136754194e-07 -2.176451332e-06)
(0 5.908054925e-07 -2.039231861e-06)
(0 5.565006575e-07 -1.909635818e-06)
(0 5.260075023e-07 -1.795286475e-06)
(0 5.069492291e-07 -1.680936917e-06)
(0 4.802676907e-07 -1.570399116e-06)
(0 4.573978281e-07 -1.46367305e-06)
(0 4.345279106e-07 -1.364570105e-06)
(0 4.116580206e-07 -1.269278897e-06)
(0 3.887881539e-07 -1.189234353e-06)
(0 3.735415372e-07 -1.097754722e-06)
(0 3.582949439e-07 -1.017710106e-06)
(0 3.354250739e-07 -9.452888448e-07)
(0 3.239901088e-07 -8.690558213e-07)
(0 3.125551638e-07 -7.928228545e-07)
(0 3.011202368e-07 -7.242132278e-07)
(0 2.858736254e-07 -6.594151626e-07)
(0 2.782503287e-07 -6.022404375e-07)
(0 2.630037512e-07 -5.37442448e-07)
(0 2.59192087e-07 -4.802676907e-07)
(0 2.515687904e-07 -4.230929656e-07)
(0 2.439455083e-07 -3.697299111e-07)
(0 2.401338453e-07 -3.201784605e-07)
(0 2.286989003e-07 -2.59192087e-07)
(0 2.210756169e-07 -2.134523198e-07)
(0 2.172639553e-07 -1.639008786e-07)
(0 2.096406586e-07 -1.105378018e-07)
(0 2.096406712e-07 -6.860967422e-08)
(0 2.058290103e-07 -2.286989003e-08)
(0 2.325105347e-07 -6.726034255e-05)
(0 6.594151626e-07 -6.717649032e-05)
(0 1.093943008e-06 -6.700496213e-05)
(0 1.517035948e-06 -6.6757205e-05)
(0 1.936317356e-06 -6.642178395e-05)
(0 2.347975236e-06 -6.601012197e-05)
(0 2.744386639e-06 -6.552985431e-05)
(0 3.125551638e-06 -6.496573429e-05)
(0 3.499092965e-06 -6.432156186e-05)
(0 3.857387888e-06 -6.362021861e-05)
(0 4.185189876e-06 -6.284264616e-05)
(0 4.505368066e-06 -6.200789146e-05)
(0 4.802676619e-06 -6.111215415e-05)
(0 5.080927236e-06 -6.017068068e-05)
(0 5.336307354e-06 -5.917202526e-05)
(0 5.576441185e-06 -5.813525698e-05)
(0 5.789893827e-06 -5.704894069e-05)
(0 5.988099181e-06 -5.593212437e-05)
(0 6.159623346e-06 -5.477719499e-05)
(0 6.300654704e-06 -5.359939894e-05)
(0 6.430250362e-06 -5.238729163e-05)
(0 6.544599805e-06 -5.116375258e-05)
(0 6.628456461e-06 -4.9913535e-05)
(0 6.700877378e-06 -4.865949977e-05)
(0 6.746617155e-06 -4.739022095e-05)
(0 6.777110747e-06 -4.61133216e-05)
(0 6.784733636e-06 -4.484022837e-05)
(0 6.792356932e-06 -4.35595146e-05)
(0 6.773299098e-06 -4.229023832e-05)
(0 6.750428803e-06 -4.102095696e-05)
(0 6.708500674e-06 -3.976311309e-05)
(0 6.643703055e-06 -3.851670646e-05)
(0 6.586527934e-06 -3.727791852e-05)
(0 6.510294972e-06 -3.606200277e-05)
(0 6.418815803e-06 -3.485752406e-05)
(0 6.327335863e-06 -3.367209941e-05)
(0 6.224421364e-06 -3.249811179e-05)
(0 6.113883936e-06 -3.135080759e-05)
(0 5.999534125e-06 -3.023018116e-05)
(0 5.881373034e-06 -2.912099156e-05)
(0 5.755588992e-06 -2.804610848e-05)
(0 5.625992611e-06 -2.699028027e-05)
(0 5.492584927e-06 -2.596113528e-05)
(0 5.355365916e-06 -2.495867332e-05)
(0 5.233392855e-06 -2.398288991e-05)
(0 5.092361875e-06 -2.303378953e-05)
(0 4.943707896e-06 -2.209993707e-05)
(0 4.810299915e-06 -2.120419844e-05)
(0 4.669268935e-06 -2.033133102e-05)
(0 4.52061493e-06 -1.948514631e-05)
(0 4.398641919e-06 -1.865420585e-05)
(0 4.253799291e-06 -1.786519469e-05)
(0 4.116580206e-06 -1.70952428e-05)
(0 3.979360627e-06 -1.635959369e-05)
(0 3.849764591e-06 -1.56391922e-05)
(0 3.712545482e-06 -1.494928479e-05)
(0 3.59057252e-06 -1.428224547e-05)
(0 3.453353188e-06 -1.363807694e-05)
(0 3.327569e-06 -1.301296743e-05)
(0 3.209407709e-06 -1.241453789e-05)
(0 3.091246617e-06 -1.183897903e-05)
(0 2.969274056e-06 -1.128629073e-05)
(0 2.858736083e-06 -1.075647097e-05)
(0 2.748198287e-06 -1.024189847e-05)
(0 2.637660651e-06 -9.750196451e-06)
(0 2.538557641e-06 -9.281363148e-06)
(0 2.439454791e-06 -8.820153727e-06)
(0 2.332728783e-06 -8.389437994e-06)
(0 2.237437441e-06 -7.970156198e-06)
(0 2.142146238e-06 -7.573744795e-06)
(0 2.050666806e-06 -7.184957119e-06)
(0 1.962998777e-06 -6.822850117e-06)
(0 1.879142518e-06 -6.475990139e-06)
(0 1.791474719e-06 -6.144377122e-06)
(0 1.71524165e-06 -5.824198312e-06)
(0 1.642820335e-06 -5.515454815e-06)
(0 1.562775819e-06 -5.229581521e-06)
(0 1.490354411e-06 -4.951330895e-06)
(0 1.421744745e-06 -4.680703879e-06)
(0 1.35313516e-06 -4.425323721e-06)
(0 1.292148709e-06 -4.185189625e-06)
(0 1.23116234e-06 -3.956490738e-06)
(0 1.173987688e-06 -3.73922702e-06)
(0 1.124436193e-06 -3.52958615e-06)
(0 1.071073119e-06 -3.3275688e-06)
(0 1.017710106e-06 -3.140798231e-06)
(0 9.719702681e-07 -2.961650582e-06)
(0 9.224188427e-07 -2.790126417e-06)
(0 8.766791179e-07 -2.626225705e-06)
(0 8.385625842e-07 -2.473759624e-06)
(0 8.004461031e-07 -2.321293699e-06)
(0 7.547063711e-07 -2.18026285e-06)
(0 7.242131409e-07 -2.043043387e-06)
(0 6.822850117e-07 -1.921070648e-06)
(0 6.441685693e-07 -1.791474719e-06)
(0 6.174869938e-07 -1.677125168e-06)
(0 5.86993809e-07 -1.570399021e-06)
(0 5.565006575e-07 -1.46748461e-06)
(0 5.336307354e-07 -1.368381672e-06)
(0 4.993259024e-07 -1.276902117e-06)
(0 4.72644394e-07 -1.185422633e-06)
(0 4.573977732e-07 -1.105377952e-06)
(0 4.345278846e-07 -1.032956638e-06)
(0 4.154696689e-07 -9.491004364e-07)
(0 4.040346997e-07 -8.690557691e-07)
(0 3.81164811e-07 -7.96634455e-07)
(0 3.659182405e-07 -7.318364811e-07)
(0 3.506716261e-07 -6.632267712e-07)
(0 3.392366818e-07 -5.984287533e-07)
(0 3.201784605e-07 -5.374424158e-07)
(0 3.201784413e-07 -4.802676619e-07)
(0 3.011202007e-07 -4.269045883e-07)
(0 2.973085704e-07 -3.735415372e-07)
(0 2.934969045e-07 -3.201784413e-07)
(0 2.78250312e-07 -2.668153677e-07)
(0 2.744386804e-07 -2.13452307e-07)
(0 2.706270158e-07 -1.677125168e-07)
(0 2.630037196e-07 -1.181610914e-07)
(0 2.47757142e-07 -7.242131844e-08)
(0 2.515687753e-07 -2.668153677e-08)
(0 2.744386639e-07 -6.821325458e-05)
(0 7.890112061e-07 -6.812940241e-05)
(0 1.307395302e-06 -6.79616858e-05)
(0 1.818156149e-06 -6.769868208e-05)
(0 2.309858893e-06 -6.735182615e-05)
(0 2.805373009e-06 -6.693635246e-05)
(0 3.278017375e-06 -6.642177997e-05)
(0 3.731603724e-06 -6.583479011e-05)
(0 4.185189625e-06 -6.518680598e-05)
(0 4.600659269e-06 -6.445496954e-05)
(0 5.000882621e-06 -6.366215056e-05)
(0 5.382047132e-06 -6.280833756e-05)
(0 5.740342054e-06 -6.188210707e-05)
(0 6.064332507e-06 -6.091014046e-05)
(0 6.365452344e-06 -5.988480346e-05)
(0 6.651325952e-06 -5.881373034e-05)
(0 6.90670679e-06 -5.770073255e-05)
(0 7.13921691e-06 -5.654961136e-05)
(0 7.333610964e-06 -5.53718121e-05)
(0 7.508947228e-06 -5.415971125e-05)
(0 7.669035998e-06 -5.292473401e-05)
(0 7.791008737e-06 -5.166689013e-05)
(0 7.89392371e-06 -5.039761434e-05)
(0 7.970156198e-06 -4.910927425e-05)
(0 8.031142568e-06 -4.781331389e-05)
(0 8.057824588e-06 -4.650973303e-05)
(0 8.080693994e-06 -4.521376988e-05)
(0 8.076882345e-06 -4.391780953e-05)
(0 8.05401294e-06 -4.261804008e-05)
(0 8.019707624e-06 -4.133351211e-05)
(0 7.96634455e-06 -4.004898669e-05)
(0 7.901547006e-06 -3.87797102e-05)
(0 7.821501922e-06 -3.752567564e-05)
(0 7.730022367e-06 -3.628307836e-05)
(0 7.623296678e-06 -3.506716472e-05)
(0 7.512758425e-06 -3.386268181e-05)
(0 7.390785686e-06 -3.26810709e-05)
(0 7.253566789e-06 -3.152233176e-05)
(0 7.123970318e-06 -3.037502379e-05)
(0 6.97912769e-06 -2.926583419e-05)
(0 6.826662175e-06 -2.817189287e-05)
(0 6.666572545e-06 -2.711225301e-05)
(0 6.517918268e-06 -2.607167307e-05)
(0 6.354017781e-06 -2.505396453e-05)
(0 6.197739827e-06 -2.406674617e-05)
(0 6.03002731e-06 -2.310621084e-05)
(0 5.866126794e-06 -2.217235839e-05)
(0 5.702225573e-06 -2.126899645e-05)
(0 5.52688976e-06 -2.038850574e-05)
(0 5.362989213e-06 -1.953469774e-05)
(0 5.20289967e-06 -1.871138057e-05)
(0 5.04281045e-06 -1.791093447e-05)
(0 4.867474929e-06 -1.714098258e-05)
(0 4.711197064e-06 -1.639389852e-05)
(0 4.554919492e-06 -1.568112033e-05)
(0 4.394830535e-06 -1.497977797e-05)
(0 4.242364347e-06 -1.431273865e-05)
(0 4.097521718e-06 -1.366094683e-05)
(0 3.933621086e-06 -1.303583732e-05)
(0 3.796401518e-06 -1.243740778e-05)
(0 3.659182186e-06 -1.185803727e-05)
(0 3.518151417e-06 -1.130153732e-05)
(0 3.377120226e-06 -1.076409426e-05)
(0 3.251335838e-06 -1.025333342e-05)
(0 3.12173999e-06 -9.757819748e-06)
(0 2.999767063e-06 -9.2775515e-06)
(0 2.885417619e-06 -8.835400319e-06)
(0 2.755821749e-06 -8.397061291e-06)
(0 2.645283788e-06 -7.977779495e-06)
(0 2.534745993e-06 -7.581368091e-06)
(0 2.428019992e-06 -7.200203712e-06)
(0 2.321293699e-06 -6.830473413e-06)
(0 2.2183792e-06 -6.479801787e-06)
(0 2.119276476e-06 -6.140565474e-06)
(0 2.027796795e-06 -5.824198312e-06)
(0 1.940128888e-06 -5.523078112e-06)