/*--------------------------------*- C++ -*----------------------------------*\
  =========                 |
  \\      /  F ield         | OpenFOAM: The Open Source CFD Toolbox
   \\    /   O peration     | Website:  https://openfoam.org
    \\  /    A nd           | Version:  10
     \\/     M anipulation  |
\*---------------------------------------------------------------------------*/
FoamFile
{
    format      ascii;
    class       volScalarField;
    location    "0.0002";
    object      Qv;
}
// * * * * * * * * * * * * * * * * * * * * * * * * * * * * * * * * * * * * * //

dimensions      [1 0 -3 0 0 0 0];

internalField   nonuniform List<scalar> 
3600
(
2.22467511e-59
2.221812854e-59
2.219244963e-59
2.216959638e-59
2.214941637e-59
2.213173214e-59
2.211634981e-59
2.210306662e-59
2.209167742e-59
2.208198002e-59
2.207377943e-59
2.206689108e-59
2.206114314e-59
2.205637791e-59
2.205245262e-59
2.204923959e-59
2.204662591e-59
2.204451282e-59
2.204281478e-59
2.204145843e-59
2.204038141e-59
2.203953119e-59
2.203886389e-59
2.203834315e-59
2.203793909e-59
2.203762731e-59
2.203738807e-59
2.203720551e-59
2.203706696e-59
2.203696238e-59
2.203688386e-59
2.203682521e-59
2.203678165e-59
2.203674945e-59
2.203672578e-59
2.203670847e-59
2.203669587e-59
2.203668675e-59
2.203668018e-59
2.203667547e-59
2.203667211e-59
2.203666973e-59
2.203666805e-59
2.203666686e-59
2.203666603e-59
2.203666546e-59
2.203666506e-59
2.203666478e-59
2.203666459e-59
2.203666446e-59
2.203666437e-59
2.203666431e-59
2.203666427e-59
2.203666425e-59
2.203666423e-59
2.203666422e-59
2.203666421e-59
2.20366642e-59
2.20366642e-59
2.20366642e-59
2.225253043e-59
2.222061801e-59
2.219200971e-59
2.216656833e-59
2.214411895e-59
2.21244595e-59
2.210737029e-59
2.209262248e-59
2.207998519e-59
2.206923139e-59
2.20601426e-59
2.205251236e-59
2.204614871e-59
2.204087575e-59
2.20365344e-59
2.203298254e-59
2.20300946e-59
2.202776086e-59
2.202588637e-59
2.202438973e-59
2.202320184e-59
2.20222645e-59
2.202152914e-59
2.202095553e-59
2.202051061e-59
2.202016746e-59
2.201990426e-59
2.201970349e-59
2.201955117e-59
2.201943625e-59
2.201934999e-59
2.20192856e-59
2.201923778e-59
2.201920246e-59
2.20191765e-59
2.201915752e-59
2.201914371e-59
2.201913372e-59
2.201912653e-59
2.201912137e-59
2.201911769e-59
2.201911509e-59
2.201911324e-59
2.201911195e-59
2.201911105e-59
2.201911042e-59
2.201910998e-59
2.201910968e-59
2.201910947e-59
2.201910933e-59
2.201910923e-59
2.201910917e-59
2.201910913e-59
2.20191091e-59
2.201910908e-59
2.201910906e-59
2.201910906e-59
2.201910905e-59
2.201910905e-59
2.201910905e-59
2.228512681e-59
2.224628582e-59
2.221151328e-59
2.218062996e-59
2.215341227e-59
2.21296052e-59
2.210893398e-59
2.209111419e-59
2.207586035e-59
2.206289287e-59
2.205194362e-59
2.204275995e-59
2.203510756e-59
2.20287722e-59
2.202356051e-59
2.201930004e-59
2.20158387e-59
2.201304376e-59
2.201080052e-59
2.20090108e-59
2.200759132e-59
2.200647204e-59
2.200559456e-59
2.200491056e-59
2.20043804e-59
2.200397176e-59
2.200365855e-59
2.200341979e-59
2.200323877e-59
2.200310228e-59
2.20029999e-59
2.200292352e-59
2.200286684e-59
2.2002825e-59
2.200279426e-59
2.200277181e-59
2.200275548e-59
2.200274368e-59
2.200273518e-59
2.20027291e-59
2.200272476e-59
2.200272169e-59
2.200271952e-59
2.200271799e-59
2.200271693e-59
2.200271619e-59
2.200271568e-59
2.200271532e-59
2.200271508e-59
2.200271491e-59
2.20027148e-59
2.200271473e-59
2.200271467e-59
2.200271464e-59
2.200271462e-59
2.20027146e-59
2.200271459e-59
2.200271459e-59
2.200271458e-59
2.200271458e-59
2.234904254e-59
2.229894556e-59
2.225417324e-59
2.22144736e-59
2.217954028e-59
2.214902939e-59
2.212257439e-59
2.209979892e-59
2.208032762e-59
2.206379479e-59
2.204985117e-59
2.203816889e-59
2.202844483e-59
2.202040258e-59
2.201379329e-59
2.200839548e-59
2.20040142e-59
2.200047964e-59
2.199764527e-59
2.19953859e-59
2.199359543e-59
2.19921848e-59
2.199107982e-59
2.199021918e-59
2.198955263e-59
2.198903928e-59
2.19886461e-59
2.198834662e-59
2.198811974e-59
2.198794879e-59
2.198782067e-59
2.198772516e-59
2.198765433e-59
2.198760208e-59
2.198756373e-59
2.198753573e-59
2.198751539e-59
2.198750069e-59
2.198749012e-59
2.198748256e-59
2.198747717e-59
2.198747336e-59
2.198747067e-59
2.198746878e-59
2.198746746e-59
2.198746654e-59
2.198746591e-59
2.198746547e-59
2.198746517e-59
2.198746497e-59
2.198746483e-59
2.198746474e-59
2.198746467e-59
2.198746463e-59
2.19874646e-59
2.198746459e-59
2.198746457e-59
2.198746457e-59
2.198746456e-59
2.198746456e-59
2.245150932e-59
2.238470921e-59
2.232512869e-59
2.227239811e-59
2.222608047e-59
2.218569373e-59
2.215073038e-59
2.212067422e-59
2.209501407e-59
2.207325488e-59
2.205492615e-59
2.203958802e-59
2.202683525e-59
2.201629945e-59
2.200764982e-59
2.200059268e-59
2.199487006e-59
2.199025767e-59
2.198656234e-59
2.198361925e-59
2.198128898e-59
2.197945461e-59
2.197801889e-59
2.197690156e-59
2.19760369e-59
2.197537151e-59
2.197486228e-59
2.19744747e-59
2.197418131e-59
2.197396041e-59
2.197379498e-59
2.197367175e-59
2.197358043e-59
2.197351311e-59
2.197346375e-59
2.197342773e-59
2.197340159e-59
2.19733827e-59
2.197336914e-59
2.197335943e-59
2.197335253e-59
2.197334765e-59
2.19733442e-59
2.197334179e-59
2.19733401e-59
2.197333893e-59
2.197333813e-59
2.197333757e-59
2.197333719e-59
2.197333693e-59
2.197333675e-59
2.197333663e-59
2.197333655e-59
2.19733365e-59
2.197333646e-59
2.197333644e-59
2.197333643e-59
2.197333642e-59
2.197333641e-59
2.197333641e-59
2.260308359e-59
2.251246908e-59
2.243183402e-59
2.236062241e-59
2.229819586e-59
2.224386353e-59
2.219690809e-59
2.215660738e-59
2.212225222e-59
2.209316034e-59
2.206868682e-59
2.204823154e-59
2.203124375e-59
2.201722448e-59
2.200572695e-59
2.199635554e-59
2.198876352e-59
2.198265e-59
2.197775634e-59
2.19738622e-59
2.197078149e-59
2.196835836e-59
2.196646334e-59
2.196498972e-59
2.196385023e-59
2.1962974e-59
2.196230392e-59
2.196179429e-59
2.196140879e-59
2.196111876e-59
2.196090171e-59
2.196074014e-59
2.19606205e-59
2.196053237e-59
2.196046779e-59
2.19604207e-59
2.196038654e-59
2.196036189e-59
2.196034419e-59
2.196033154e-59
2.196032255e-59
2.196031619e-59
2.196031171e-59
2.196030857e-59
2.196030639e-59
2.196030487e-59
2.196030382e-59
2.19603031e-59
2.19603026e-59
2.196030227e-59
2.196030204e-59
2.196030189e-59
2.196030178e-59
2.196030171e-59
2.196030167e-59
2.196030164e-59
2.196030162e-59
2.196030161e-59
2.19603016e-59
2.19603016e-59
2.281854223e-59
2.26946155e-59
2.258463296e-59
2.248774375e-59
2.24030004e-59
2.232939882e-59
2.226591224e-59
2.221151916e-59
2.216522574e-59
2.212608307e-59
2.209319978e-59
2.206575069e-59
2.204298187e-59
2.202421276e-59
2.200883595e-59
2.199631505e-59
2.198618112e-59
2.197802806e-59
2.197150746e-59
2.1966323e-59
2.19622248e-59
2.195900388e-59
2.195648687e-59
2.195453104e-59
2.195301977e-59
2.195185849e-59
2.195097106e-59
2.19502966e-59
2.194978677e-59
2.194940345e-59
2.194911679e-59
2.194890355e-59
2.194874575e-59
2.194862958e-59
2.194854451e-59
2.194848253e-59
2.19484376e-59
2.19484052e-59
2.194838194e-59
2.194836534e-59
2.194835354e-59
2.19483452e-59
2.194833934e-59
2.194833523e-59
2.194833236e-59
2.194833038e-59
2.194832901e-59
2.194832807e-59
2.194832742e-59
2.194832698e-59
2.194832669e-59
2.194832649e-59
2.194832635e-59
2.194832626e-59
2.19483262e-59
2.194832616e-59
2.194832614e-59
2.194832612e-59
2.194832611e-59
2.194832611e-59
2.311819146e-59
2.294807204e-59
2.279757624e-59
2.266538302e-59
2.255006788e-59
2.24501553e-59
2.236416214e-59
2.229063252e-59
2.222816512e-59
2.217543355e-59
2.213120082e-59
2.209432859e-59
2.206378196e-59
2.203863073e-59
2.201804765e-59
2.200130441e-59
2.198776597e-59
2.197688368e-59
2.196818776e-59
2.196127937e-59
2.195582274e-59
2.195153743e-59
2.19481911e-59
2.194559271e-59
2.194358634e-59
2.194204568e-59
2.194086912e-59
2.193997551e-59
2.193930046e-59
2.193879326e-59
2.193841419e-59
2.193813238e-59
2.193792398e-59
2.193777066e-59
2.193765845e-59
2.193757675e-59
2.193751756e-59
2.19374749e-59
2.193744431e-59
2.193742247e-59
2.193740697e-59
2.193739602e-59
2.193738832e-59
2.193738293e-59
2.193737918e-59
2.193737658e-59
2.193737478e-59
2.193737355e-59
2.193737271e-59
2.193737214e-59
2.193737175e-59
2.193737149e-59
2.193737131e-59
2.19373712e-59
2.193737112e-59
2.193737107e-59
2.193737104e-59
2.193737101e-59
2.1937371e-59
2.1937371e-59
2.352977519e-59
2.329578109e-59
2.308957708e-59
2.290908323e-59
2.275213065e-59
2.261652805e-59
2.250011479e-59
2.240080215e-59
2.231660437e-59
2.224566083e-59
2.218625073e-59
2.213680144e-59
2.209589152e-59
2.206224954e-59
2.20347494e-59
2.201240314e-59
2.199435187e-59
2.197985544e-59
2.196828148e-59
2.195909417e-59
2.195184315e-59
2.194615289e-59
2.194171265e-59
2.193826724e-59
2.193560863e-59
2.193356847e-59
2.193201147e-59
2.193082965e-59
2.192993745e-59
2.19292675e-59
2.192876711e-59
2.192839534e-59
2.192812056e-59
2.192791854e-59
2.192777077e-59
2.192766324e-59
2.192758539e-59
2.192752931e-59
2.192748911e-59
2.192746045e-59
2.192744011e-59
2.192742574e-59
2.192741565e-59
2.192740859e-59
2.192740368e-59
2.192740027e-59
2.192739793e-59
2.192739632e-59
2.192739522e-59
2.192739447e-59
2.192739397e-59
2.192739363e-59
2.19273934e-59
2.192739325e-59
2.192739315e-59
2.192739308e-59
2.192739304e-59
2.192739301e-59
2.1927393e-59
2.192739299e-59
2.409129104e-59
2.376885551e-59
2.348605492e-59
2.323956563e-59
2.302604038e-59
2.284218723e-59
2.268482917e-59
2.255094791e-59
2.243771452e-59
2.234250941e-59
2.226293335e-59
2.219681146e-59
2.214219125e-59
2.209733612e-59
2.206071533e-59
2.203099126e-59
2.200700499e-59
2.19877607e-59
2.197240964e-59
2.196023421e-59
2.195063236e-59
2.194310288e-59
2.193723163e-59
2.193267894e-59
2.192916824e-59
2.192647593e-59
2.192442251e-59
2.192286486e-59
2.192168964e-59
2.192080769e-59
2.192014934e-59
2.19196605e-59
2.191929941e-59
2.191903407e-59
2.19188401e-59
2.191869903e-59
2.191859696e-59
2.191852347e-59
2.191847083e-59
2.191843331e-59
2.19184067e-59
2.191838792e-59
2.191837473e-59
2.191836551e-59
2.19183591e-59
2.191835466e-59
2.19183516e-59
2.19183495e-59
2.191834807e-59
2.19183471e-59
2.191834644e-59
2.1918346e-59
2.19183457e-59
2.191834551e-59
2.191834538e-59
2.191834529e-59
2.191834524e-59
2.19183452e-59
2.191834518e-59
2.191834517e-59
2.485523126e-59
2.440975264e-59
2.402131119e-59
2.368450962e-59
2.339410353e-59
2.314508211e-59
2.293272285e-59
2.275262648e-59
2.260073667e-59
2.247334819e-59
2.23671061e-59
2.2278998e-59
2.220634106e-59
2.214676493e-59
2.209819188e-59
2.205881478e-59
2.202707404e-59
2.200163397e-59
2.198135939e-59
2.196529272e-59
2.195263228e-59
2.194271181e-59
2.193498166e-59
2.192899162e-59
2.192437557e-59
2.192083782e-59
2.191814123e-59
2.191609693e-59
2.191455544e-59
2.191339929e-59
2.191253676e-59
2.191189665e-59
2.19114241e-59
2.191107705e-59
2.191082349e-59
2.191063917e-59
2.191050588e-59
2.191040997e-59
2.191034131e-59
2.191029239e-59
2.191025772e-59
2.191023326e-59
2.191021609e-59
2.19102041e-59
2.191019577e-59
2.191019e-59
2.191018603e-59
2.191018331e-59
2.191018145e-59
2.191018019e-59
2.191017934e-59
2.191017877e-59
2.191017838e-59
2.191017813e-59
2.191017796e-59
2.191017785e-59
2.191017778e-59
2.191017773e-59
2.19101777e-59
2.191017769e-59
2.589513527e-59
2.527706796e-59
2.474203801e-59
2.428112423e-59
2.388596978e-59
2.354883157e-59
2.326259911e-59
2.30207928e-59
2.281754855e-59
2.264759371e-59
2.250621724e-59
2.238923624e-59
2.229296025e-59
2.221415427e-59
2.215000116e-59
2.209806415e-59
2.205624983e-59
2.202277227e-59
2.199611842e-59
2.197501548e-59
2.195840027e-59
2.194539097e-59
2.193526131e-59
2.192741729e-59
2.192137647e-59
2.191674968e-59
2.191322513e-59
2.191055471e-59
2.190854227e-59
2.190703375e-59
2.190590895e-59
2.190507467e-59
2.19044591e-59
2.190400726e-59
2.190367731e-59
2.19034376e-59
2.190326434e-59
2.190313973e-59
2.190305057e-59
2.190298709e-59
2.190294211e-59
2.19029104e-59
2.190288816e-59
2.190287263e-59
2.190286184e-59
2.190285438e-59
2.190284924e-59
2.190284573e-59
2.190284333e-59
2.19028417e-59
2.19028406e-59
2.190283986e-59
2.190283937e-59
2.190283904e-59
2.190283882e-59
2.190283868e-59
2.190283859e-59
2.190283853e-59
2.19028385e-59
2.190283848e-59
2.731600829e-59
2.645297122e-59
2.571263092e-59
2.507995042e-59
2.454136e-59
2.408468745e-59
2.369906532e-59
2.33748291e-59
2.310341466e-59
2.287725959e-59
2.268971043e-59
2.253493648e-59
2.240784999e-59
2.230403229e-59
2.221966528e-59
2.215146765e-59
2.209663567e-59
2.205278807e-59
2.201791502e-59
2.199033107e-59
2.196863205e-59
2.195165588e-59
2.193844725e-59
2.192822612e-59
2.192035983e-59
2.191433866e-59
2.190975468e-59
2.190628359e-59
2.190366924e-59
2.190171062e-59
2.1900251e-59
2.189916896e-59
2.1898371e-59
2.189778559e-59
2.189735832e-59
2.189704807e-59
2.189682393e-59
2.189666282e-59
2.18965476e-59
2.18964656e-59
2.189640754e-59
2.189636663e-59
2.189633794e-59
2.189631792e-59
2.189630402e-59
2.189629441e-59
2.18962878e-59
2.189628328e-59
2.189628019e-59
2.18962781e-59
2.189627669e-59
2.189627574e-59
2.189627511e-59
2.189627469e-59
2.189627441e-59
2.189627423e-59
2.189627411e-59
2.189627404e-59
2.189627399e-59
2.189627397e-59
2.927140852e-59
2.805508067e-59
2.702345401e-59
2.615062747e-59
2.541410143e-59
2.479436856e-59
2.42745318e-59
2.383996163e-59
2.347799579e-59
2.317768012e-59
2.292954647e-59
2.272542268e-59
2.255826951e-59
2.242203981e-59
2.2311556e-59
2.222240238e-59
2.215082985e-59
2.209367101e-59
2.204826422e-59
2.20123855e-59
2.198418763e-59
2.196214571e-59
2.194500886e-59
2.193175749e-59
2.192156592e-59
2.191376983e-59
2.190783817e-59
2.190334919e-59
2.189997008e-59
2.189743989e-59
2.189555533e-59
2.189415901e-59
2.189312981e-59
2.189237514e-59
2.189182461e-59
2.189142506e-59
2.189113655e-59
2.189092927e-59
2.18907811e-59
2.189067571e-59
2.189060112e-59
2.189054859e-59
2.189051177e-59
2.189048609e-59
2.189046827e-59
2.189045596e-59
2.189044749e-59
2.18904417e-59
2.189043776e-59
2.189043508e-59
2.189043328e-59
2.189043207e-59
2.189043126e-59
2.189043072e-59
2.189043037e-59
2.189043013e-59
2.189042998e-59
2.189042989e-59
2.189042983e-59
2.189042981e-59
3.199241744e-59
3.025601525e-59
2.880407104e-59
2.759087529e-59
2.65782483e-59
2.573424904e-59
2.503209173e-59
2.444925144e-59
2.39667333e-59
2.356847898e-59
2.324088587e-59
2.297241687e-59
2.275328245e-59
2.257517961e-59
2.243107549e-59
2.231502605e-59
2.222202241e-59
2.214785915e-59
2.208902049e-59
2.20425813e-59
2.200612046e-59
2.197764514e-59
2.195552455e-59
2.193843217e-59
2.192529555e-59
2.19152531e-59
2.190761695e-59
2.190184139e-59
2.189749621e-59
2.189424442e-59
2.189182366e-59
2.189003097e-59
2.188871029e-59
2.188774237e-59
2.188703662e-59
2.188652467e-59
2.188615517e-59
2.188588984e-59
2.188570027e-59
2.188556549e-59
2.188547014e-59
2.188540303e-59
2.188535601e-59
2.188532323e-59
2.18853005e-59
2.18852848e-59
2.188527401e-59
2.188526663e-59
2.188526161e-59
2.188525821e-59
2.188525591e-59
2.188525437e-59
2.188525334e-59
2.188525266e-59
2.188525221e-59
2.188525191e-59
2.188525172e-59
2.188525161e-59
2.188525154e-59
2.18852515e-59
3.583855263e-59
3.331666252e-59
3.124507385e-59
2.954088156e-59
2.813761019e-59
2.698170142e-59
2.602976699e-59
2.524645329e-59
2.460278643e-59
2.40748911e-59
2.364299743e-59
2.329066853e-59
2.300419643e-59
2.2772126e-59
2.258487607e-59
2.243443431e-59
2.231410856e-59
2.22183213e-59
2.214243795e-59
2.208262172e-59
2.203570997e-59
2.199910833e-59
2.197069961e-59
2.194876562e-59
2.193191998e-59
2.191905063e-59
2.1909271e-59
2.190187854e-59
2.189632002e-59
2.189216243e-59
2.188906896e-59
2.188677926e-59
2.188509326e-59
2.188385821e-59
2.188295812e-59
2.18823055e-59
2.18818347e-59
2.188149679e-59
2.188125547e-59
2.188108398e-59
2.188096272e-59
2.188087741e-59
2.188081767e-59
2.188077604e-59
2.188074718e-59
2.188072726e-59
2.188071358e-59
2.188070423e-59
2.188069787e-59
2.188069356e-59
2.188069065e-59
2.18806887e-59
2.18806874e-59
2.188068654e-59
2.188068597e-59
2.18806856e-59
2.188068536e-59
2.188068521e-59
2.188068512e-59
2.188068508e-59
4.139083417e-59
3.764482807e-59
3.463527075e-59
3.220703116e-59
3.024099068e-59
2.864494617e-59
2.734691652e-59
2.629021319e-59
2.542980105e-59
2.472960236e-59
2.416049015e-59
2.36987863e-59
2.332512937e-59
2.302361403e-59
2.278113022e-59
2.258684974e-59
2.243182216e-59
2.230865218e-59
2.221123858e-59
2.213456005e-59
2.207449749e-59
2.202768519e-59
2.19913854e-59
2.196338218e-59
2.194189142e-59
2.192548466e-59
2.191302478e-59
2.190361191e-59
2.189653817e-59
2.189125007e-59
2.188731748e-59
2.188440814e-59
2.188226692e-59
2.188069915e-59
2.187955713e-59
2.187872948e-59
2.187813269e-59
2.187770455e-59
2.187739892e-59
2.187718184e-59
2.187702842e-59
2.187692051e-59
2.1876845e-59
2.18767924e-59
2.187675595e-59
2.18767308e-59
2.187671354e-59
2.187670174e-59
2.187669372e-59
2.187668829e-59
2.187668463e-59
2.187668218e-59
2.187668055e-59
2.187667946e-59
2.187667874e-59
2.187667827e-59
2.187667797e-59
2.187667778e-59
2.187667767e-59
2.187667762e-59
4.962950507e-59
4.390273891e-59
3.942728807e-59
3.590228775e-59
3.310725761e-59
3.087874636e-59
2.909414169e-59
2.766037016e-59
2.650595064e-59
2.557536158e-59
2.482501544e-59
2.422035679e-59
2.373375153e-59
2.334293617e-59
2.302986633e-59
2.277985115e-59
2.258089394e-59
2.24231826e-59
2.229868983e-59
2.220085472e-59
2.212432559e-59
2.206474978e-59
2.201860001e-59
2.198303004e-59
2.195575403e-59
2.193494556e-59
2.191915323e-59
2.190723008e-59
2.189827496e-59
2.1891584e-59
2.188661071e-59
2.188293328e-59
2.188022808e-59
2.187824829e-59
2.187680681e-59
2.187576261e-59
2.187501003e-59
2.187447035e-59
2.187408528e-59
2.18738119e-59
2.187361876e-59
2.187348299e-59
2.187338801e-59
2.187332189e-59
2.187327609e-59
2.18732445e-59
2.187322283e-59
2.187320803e-59
2.187319797e-59
2.187319116e-59
2.187318657e-59
2.18731835e-59
2.187318145e-59
2.187318009e-59
2.18731792e-59
2.187317861e-59
2.187317823e-59
2.1873178e-59
2.187317786e-59
2.18731778e-59
6.229042216e-59
5.321280833e-59
4.635781111e-59
4.111728656e-59
3.706785392e-59
3.391010309e-59
3.142897792e-59
2.946763262e-59
2.790995922e-59
2.666876347e-59
2.567766422e-59
2.488547712e-59
2.425227421e-59
2.374658633e-59
2.334339237e-59
2.302265518e-59
2.276824073e-59
2.256710809e-59
2.240869293e-59
2.228443057e-59
2.218738115e-59
2.211193074e-59
2.205354996e-59
2.200859692e-59
2.197415521e-59
2.194790012e-59
2.192798778e-59
2.191296344e-59
2.190168565e-59
2.189326386e-59
2.18870073e-59
2.188238325e-59
2.187898332e-59
2.187649627e-59
2.187468627e-59
2.18733757e-59
2.187243156e-59
2.187175481e-59
2.187127215e-59
2.187092963e-59
2.187068776e-59
2.18705178e-59
2.187039895e-59
2.187031626e-59
2.187025899e-59
2.187021952e-59
2.187019245e-59
2.187017397e-59
2.187016141e-59
2.187015292e-59
2.18701472e-59
2.187014337e-59
2.187014082e-59
2.187013913e-59
2.187013801e-59
2.187013728e-59
2.187013681e-59
2.187013652e-59
2.187013635e-59
2.187013627e-59
8.262015879e-59
6.757099046e-59
5.667753839e-59
4.865025516e-59
4.264128872e-59
3.808156221e-59
3.458140133e-59
3.186878449e-59
2.975026979e-59
2.808583528e-59
2.677240535e-59
2.573289148e-59
2.490878996e-59
2.425510849e-59
2.373683853e-59
2.332646695e-59
2.300219444e-59
2.274664012e-59
2.254588398e-59
2.238874725e-59
2.226624205e-59
2.217114363e-59
2.209765278e-59
2.204112593e-59
2.199785696e-59
2.196489963e-59
2.193992225e-59
2.192108848e-59
2.190695963e-59
2.189641462e-59
2.188858479e-59
2.188280085e-59
2.18785501e-59
2.187544211e-59
2.187318123e-59
2.187154491e-59
2.18703666e-59
2.186952237e-59
2.186892052e-59
2.186849359e-59
2.186819225e-59
2.186798059e-59
2.186783265e-59
2.186772974e-59
2.186765851e-59
2.186760944e-59
2.18675758e-59
2.186755284e-59
2.186753725e-59
2.186752671e-59
2.186751962e-59
2.186751487e-59
2.186751171e-59
2.186750961e-59
2.186750823e-59
2.186750733e-59
2.186750675e-59
2.186750638e-59
2.186750617e-59
2.186750608e-59
1.170781557e-58
9.072341174e-59
7.261228844e-59
5.985446311e-59
5.066845993e-59
4.392653684e-59
3.889644784e-59
3.509116809e-59
3.21793055e-59
2.99304504e-59
2.818110746e-59
2.681302103e-59
2.573911922e-59
2.489423314e-59
2.422886334e-59
2.370492295e-59
2.329278279e-59
2.296918591e-59
2.271575044e-59
2.251787561e-59
2.236392798e-59
2.224462501e-59
2.215256025e-59
2.208183165e-59
2.2027747e-59
2.198658775e-59
2.195541838e-59
2.193193175e-59
2.191432327e-59
2.190118871e-59
2.189144125e-59
2.188424432e-59
2.187895766e-59
2.1875094e-59
2.187228466e-59
2.187025229e-59
2.18687894e-59
2.186774172e-59
2.186699513e-59
2.186646576e-59
2.186609226e-59
2.186583002e-59
2.186564681e-59
2.186551942e-59
2.186543128e-59
2.186537058e-59
2.186532899e-59
2.186530062e-59
2.186528135e-59
2.186526834e-59
2.186525959e-59
2.186525373e-59
2.186524982e-59
2.186524724e-59
2.186524554e-59
2.186524442e-59
2.186524371e-59
2.186524326e-59
2.1865243e-59
2.186524289e-59
1.794513093e-58
1.301420932e-58
9.833784304e-59
7.713167613e-59
6.25684771e-59
5.230491367e-59
4.490758575e-59
3.947313849e-59
3.541616043e-59
3.234725455e-59
3.00010062e-59
2.819233197e-59
2.678939435e-59
2.569642173e-59
2.48425856e-59
2.41746587e-59
2.365207814e-59
2.324356497e-59
2.292476685e-59
2.267658368e-59
2.24839555e-59
2.233496831e-59
2.222018191e-59
2.213211575e-59
2.206484936e-59
2.201370773e-59
2.197501092e-59
2.19458734e-59
2.192404246e-59
2.190776782e-59
2.189569653e-59
2.188678833e-59
2.188024772e-59
2.187546982e-59
2.187199725e-59
2.186948614e-59
2.186767943e-59
2.186638604e-59
2.186546474e-59
2.186481174e-59
2.18643512e-59
2.186402799e-59
2.186380226e-59
2.186364538e-59
2.186353687e-59
2.186346218e-59
2.186341102e-59
2.186337613e-59
2.186335246e-59
2.186333647e-59
2.186332572e-59
2.186331853e-59
2.186331374e-59
2.186331057e-59
2.186330848e-59
2.186330712e-59
2.186330624e-59
2.186330569e-59
2.186330538e-59
2.186330523e-59
3.016149009e-58
2.017922365e-58
1.421663357e-58
1.049677585e-58
8.084408758e-59
6.465664251e-59
5.346722594e-59
4.553280933e-59
3.978358266e-59
3.554194262e-59
3.236601108e-59
2.995973542e-59
2.811972993e-59
2.670299568e-59
2.560683179e-59
2.475604605e-59
2.409463697e-59
2.358027291e-59
2.318055455e-59
2.287043416e-59
2.263039814e-59
2.244516109e-59
2.23027086e-59
2.219358197e-59
2.211033405e-59
2.204710875e-59
2.199931173e-59
2.196335001e-59
2.193642451e-59
2.191636421e-59
2.190149327e-59
2.189052463e-59
2.188247508e-59
2.187659758e-59
2.187232769e-59
2.186924132e-59
2.186702163e-59
2.186543324e-59
2.186430227e-59
2.186350098e-59
2.186293607e-59
2.186253976e-59
2.18622631e-59
2.186207089e-59
2.1861938e-59
2.186184656e-59
2.186178395e-59
2.186174127e-59
2.186171232e-59
2.186169278e-59
2.186167964e-59
2.186167086e-59
2.186166501e-59
2.186166114e-59
2.186165859e-59
2.186165693e-59
2.186165586e-59
2.18616552e-59
2.186165481e-59
2.186165464e-59
5.642864033e-58
3.425502515e-58
2.217842541e-58
1.522330476e-58
1.101301794e-58
8.349622707e-59
6.598732511e-59
5.408849744e-59
4.576983911e-59
3.981377705e-59
3.546415276e-59
3.223611859e-59
2.98095111e-59
2.796710972e-59
2.655782634e-59
2.547416284e-59
2.463806011e-59
2.399180726e-59
2.3492072e-59
2.31058961e-59
2.280795212e-59
2.257862401e-59
2.240263556e-59
2.226804996e-59
2.216552536e-59
2.208775094e-59
2.202901294e-59
2.198485647e-59
2.195181938e-59
2.192722153e-59
2.190899734e-59
2.189556244e-59
2.188570778e-59
2.187851554e-59
2.18732928e-59
2.186951928e-59
2.18668065e-59
2.186486604e-59
2.186348492e-59
2.186250678e-59
2.186181746e-59
2.186133406e-59
2.186099672e-59
2.186076245e-59
2.186060054e-59
2.186048918e-59
2.186041294e-59
2.186036101e-59
2.186032579e-59
2.186030203e-59
2.186028606e-59
2.186027539e-59
2.186026828e-59
2.186026358e-59
2.186026049e-59
2.186025848e-59
2.186025718e-59
2.186025637e-59
2.186025591e-59
2.186025569e-59
1.194143311e-57
6.454466301e-58
3.77759323e-58
2.376247017e-58
1.594894679e-58
1.134224313e-58
8.490070487e-59
6.647689205e-59
5.41351571e-59
4.560898953e-59
3.956504716e-59
3.518877952e-59
3.196512343e-59
2.955795673e-59
2.77415083e-59
2.63600819e-59
2.530371516e-59
2.449307396e-59
2.386984394e-59
2.339047397e-59
2.302200889e-59
2.273925125e-59
2.252278478e-59
2.235756746e-59
2.223190839e-59
2.21367088e-59
2.206488862e-59
2.201094682e-59
2.197061998e-59
2.194061489e-59
2.19183979e-59
2.190202837e-59
2.189002707e-59
2.188127221e-59
2.187491753e-59
2.187032808e-59
2.186703007e-59
2.186467191e-59
2.186299415e-59
2.186180637e-59
2.186096963e-59
2.186038307e-59
2.185997388e-59
2.185968982e-59
2.185949358e-59
2.185935865e-59
2.185926632e-59
2.185920344e-59
2.185916082e-59
2.185913206e-59
2.185911276e-59
2.185909985e-59
2.185909127e-59
2.185908559e-59
2.185908186e-59
2.185907942e-59
2.185907786e-59
2.185907689e-59
2.185907632e-59
2.185907607e-59
2.906881007e-57
1.369753422e-57
7.113440371e-58
4.034749762e-58
2.47747371e-58
1.632871198e-58
1.145843807e-58
8.496285113e-59
6.610054435e-59
5.361074822e-59
4.506405647e-59
3.905367674e-59
3.47314175e-59
3.156678742e-59
2.921674032e-59
2.745260133e-59
2.611767638e-59
2.510189968e-59
2.432624038e-59
2.373285863e-59
2.327873571e-59
2.293145267e-59
2.266632626e-59
2.246442036e-59
2.231113331e-59
2.219517248e-59
2.210779469e-59
2.204223356e-59
2.199326138e-59
2.195685007e-59
2.192990665e-59
2.191006583e-59
2.189552697e-59
2.188492595e-59
2.187723464e-59
2.187168217e-59
2.186769373e-59
2.1864843e-59
2.186281556e-59
2.186138077e-59
2.186037038e-59
2.185966235e-59
2.185916861e-59
2.185882597e-59
2.185858935e-59
2.185842671e-59
2.185831546e-59
2.185823972e-59
2.185818841e-59
2.18581538e-59
2.185813057e-59
2.185811505e-59
2.185810473e-59
2.18580979e-59
2.185809342e-59
2.185809049e-59
2.185808862e-59
2.185808745e-59
2.185808677e-59
2.185808646e-59
8.280848367e-57
3.323681054e-57
1.50036969e-57
7.536045932e-58
4.167307354e-58
2.511201145e-58
1.632963843e-58
1.135401457e-58
8.369401157e-59
6.489496318e-59
5.255493432e-59
4.417037045e-59
3.830897255e-59
3.411563464e-59
3.105979855e-59
2.880058678e-59
2.711195724e-59
2.583968243e-59
2.487581874e-59
2.41431051e-59
2.358516588e-59
2.316019759e-59
2.283679764e-59
2.259114007e-59
2.240501671e-59
2.226444659e-59
2.21586668e-59
2.207938539e-59
2.202021871e-59
2.197626175e-59
2.194375646e-59
2.191983397e-59
2.190231338e-59
2.188954436e-59
2.188028421e-59
2.187360198e-59
2.186880393e-59
2.186537586e-59
2.186293872e-59
2.186121462e-59
2.186000094e-59
2.185915075e-59
2.185855809e-59
2.185814696e-59
2.185786312e-59
2.185766811e-59
2.185753476e-59
2.1857444e-59
2.185738253e-59
2.185734109e-59
2.185731329e-59
2.185729471e-59
2.185728237e-59
2.185727421e-59
2.185726885e-59
2.185726536e-59
2.185726312e-59
2.185726172e-59
2.185726091e-59
2.185726054e-59
2.808022587e-56
9.362553376e-57
3.592255472e-57
1.566348175e-57
7.665794108e-58
4.160136652e-58
2.47451693e-58
1.595646102e-58
1.104085115e-58
8.120822816e-59
6.295227574e-59
5.103799356e-59
4.298050867e-59
3.737011723e-59
3.337071671e-59
3.046616699e-59
2.832613694e-59
2.673222233e-59
2.553574601e-59
2.463284345e-59
2.394930033e-59
2.343106046e-59
2.303812172e-59
2.274050753e-59
2.251553969e-59
2.234594598e-59
2.221851568e-59
2.212312294e-59
2.20520036e-59
2.199921067e-59
2.196019908e-59
2.193150593e-59
2.191050279e-59
2.18952032e-59
2.188411289e-59
2.187611336e-59
2.187037173e-59
2.186627107e-59
2.186335684e-59
2.186129598e-59
2.185984576e-59
2.185883022e-59
2.185812254e-59
2.185763178e-59
2.185729309e-59
2.185706047e-59
2.185690146e-59
2.185679328e-59
2.185672003e-59
2.185667066e-59
2.185663755e-59
2.185661544e-59
2.185660075e-59
2.185659105e-59
2.185658467e-59
2.185658052e-59
2.185657785e-59
2.185657619e-59
2.185657523e-59
2.18565748e-59
1.152082943e-55
3.107594433e-56
9.893557581e-57
3.665286405e-57
1.557687758e-57
7.487709668e-58
4.01601676e-58
2.372430073e-58
1.525012891e-58
1.054796427e-58
7.770335543e-59
6.040681532e-59
4.915197803e-59
4.155847744e-59
3.628233884e-59
3.252912511e-59
2.980951834e-59
2.781078696e-59
2.632632149e-59
2.521552975e-59
2.438022248e-59
2.375026817e-59
2.327462127e-59
2.29155532e-59
2.264484182e-59
2.244118806e-59
2.22884197e-59
2.217421235e-59
2.208915889e-59
2.202607946e-59
2.197950198e-59
2.194526636e-59
2.192022042e-59
2.190198511e-59
2.188877283e-59
2.187924676e-59
2.18724122e-59
2.186753283e-59
2.186406646e-59
2.186161601e-59
2.185989223e-59
2.185868555e-59
2.185784495e-59
2.185726222e-59
2.185686018e-59
2.185658415e-59
2.185639552e-59
2.185626724e-59
2.18561804e-59
2.18561219e-59
2.185608267e-59
2.185605649e-59
2.18560391e-59
2.185602761e-59
2.185602007e-59
2.185601516e-59
2.185601201e-59
2.185601005e-59
2.185600891e-59
2.185600839e-59
5.804819451e-55
1.232506281e-55
3.174748413e-56
9.766992447e-57
3.531549242e-57
1.476866049e-57
7.031698342e-58
3.754680117e-58
2.216680583e-58
1.427958111e-58
9.916486584e-59
7.343139616e-59
5.741762466e-59
4.700027073e-59
3.997336641e-59
3.509297496e-59
3.162400333e-59
2.91134808e-59
2.727162479e-59
2.590674485e-59
2.488822774e-59
2.412474865e-59
2.355103021e-59
2.311955214e-59
2.279521053e-59
2.255178118e-59
2.23695143e-59
2.223345637e-59
2.213225153e-59
2.205726708e-59
2.200194409e-59
2.196130832e-59
2.193159784e-59
2.190997774e-59
2.189432039e-59
2.18830363e-59
2.187494367e-59
2.186916832e-59
2.186506693e-59
2.186216858e-59
2.186013043e-59
2.185870415e-59
2.185771091e-59
2.185702258e-59
2.185654785e-59
2.185622201e-59
2.185599942e-59
2.185584809e-59
2.185574568e-59
2.185567671e-59
2.185563048e-59
2.185559963e-59
2.185557915e-59
2.185556563e-59
2.185555675e-59
2.185555097e-59
2.185554727e-59
2.185554496e-59
2.185554363e-59
2.185554302e-59
3.637923062e-54
5.91475186e-55
1.201096509e-55
2.996024522e-56
9.019829393e-57
3.219119355e-57
1.337876586e-57
6.363829468e-58
3.407947549e-58
2.023262617e-58
1.312927397e-58
9.193280939e-59
6.866489764e-59
5.415020982e-59
4.46873533e-59
3.829342567e-59
3.384793865e-59
3.068700747e-59
2.840031832e-59
2.672454906e-59
2.548496898e-59
2.456217989e-59
2.387249991e-59
2.335601323e-59
2.2969065e-59
2.267940851e-59
2.246297783e-59
2.230168279e-59
2.218186349e-59
2.209318187e-59
2.202781055e-59
2.197982926e-59
2.19447701e-59
2.191927166e-59
2.190081454e-59
2.188751849e-59
2.18779868e-59
2.187118704e-59
2.186635989e-59
2.186294986e-59
2.186055268e-59
2.185887573e-59
2.185770829e-59
2.18568995e-59
2.185634187e-59
2.185595924e-59
2.185569794e-59