/*--------------------------------*- C++ -*----------------------------------*\
  =========                 |
  \\      /  F ield         | OpenFOAM: The Open Source CFD Toolbox
   \\    /   O peration     | Website:  https://openfoam.org
    \\  /    A nd           | Version:  6
     \\/     M anipulation  |
\*---------------------------------------------------------------------------*/
FoamFile
{
    version     2.0;
    format      ascii;
    class       volScalarField;
    location    "0.0013";
    object      TRHS;
}
// * * * * * * * * * * * * * * * * * * * * * * * * * * * * * * * * * * * * * //

dimensions      [1 -1 -3 0 0 0 0];

internalField   nonuniform List<scalar> 
600
(
2.894508948e-10
-4.215705262e-11
-1.560585946e-10
-3.059562644e-10
-5.519806105e-10
-1.055362989e-09
-2.059814495e-09
-3.984736939e-09
-7.416776986e-09
-1.301463056e-08
-2.085899994e-08
-2.873773238e-08
-2.760440259e-08
-4.925822487e-09
1.069369769e-07
-0.0001032759465
40.9977723
0
0
0
0
0
0
0
0
0
0
0
391.0692514
-0.002065449672
-2.750802361e-11
-1.261082383e-10
-1.003959635e-10
-1.40662491e-10
-2.912563641e-10
-7.16736317e-10
-1.714089923e-09
-3.851108057e-09
-8.119976701e-09
-1.621620889e-08
-3.082368438e-08
-5.578429285e-08
-8.820949005e-08
-5.732966053e-08
1.884487747e-08
-0.0006578335773
105.4936056
0
0
0
0
0
0
0
0
0
0
0
-0.005433004659
-2.643300587e-05
-2.78583001e-10
-1.767272383e-10
-2.959825491e-11
3.340531163e-11
-1.637396723e-11
-3.302777852e-10
-1.213756166e-09
-3.233952535e-09
-7.348644973e-09
-1.502410914e-08
-2.834178329e-08
-5.058486538e-08
-1.112919286e-07
-1.959756707e-07
-3.051826756e-07
155.5736887
0
0
0
0
0
0
0
0
0
0
0
0
0
-0.002462870183
-3.847311843e-10
-1.696592848e-10
4.997445896e-11
1.791095741e-10
1.990141154e-10
-4.802091847e-11
-8.941660149e-10
-2.969613097e-09
-7.307570352e-09
-1.536768514e-08
-2.879059922e-08
-5.100423538e-08
-1.43249366e-07
-2.634802841e-07
-2.204470418e-07
-0.006276739491
0
0
0
0
0
0
0
0
0
0
0
0
0
0
-2.939574347e-10
-8.847052618e-11
1.297183025e-10
2.729065502e-10
3.134993751e-10
7.006467063e-11
-8.632351463e-10
-3.311646205e-09
-8.797708621e-09
-1.986196489e-08
-4.017360613e-08
-7.263574279e-08
-8.995620604e-08
-1.297867486e-07
-0.0001683724688
66.77977147
0
0
0
0
0
0
0
0
0
0
0
0
0
0
1.240926599e-11
6.747494702e-11
2.027548367e-10
3.062761097e-10
3.354551322e-10
1.010315859e-10
-8.103298308e-10
-3.237706186e-09
-8.732213993e-09
-1.988683207e-08
-4.043146846e-08
-7.340839302e-08
-9.170116443e-08
-1.327912483e-07
-0.0001645548548
65.26519055
0
0
0
0
0
0
0
0
0
0
0
0
0
0
5.016637455e-10
2.757279914e-10
2.509746742e-10
2.605134476e-10
2.390134741e-10
6.453611451e-12
-7.884543422e-10
-2.809296094e-09
-7.165266527e-09
-1.545321682e-08
-2.95321387e-08
-5.307562888e-08
-1.487475648e-07
-2.720788968e-07
-2.194492525e-07
-0.006438666525
0
0
0
0
0
0
0
0
0
0
0
0
0
0
1.086439707e-09
4.866061134e-10
2.442426326e-10
1.065573624e-10
-3.368283941e-11
-3.648698071e-10
-1.212632033e-09
-3.177879892e-09
-7.300704718e-09
-1.523694641e-08
-2.942853275e-08
-5.387323652e-08
-1.197019977e-07
-2.133748569e-07
-3.47929615e-07
149.7272741
0
0
0
0
0
0
0
0
0
0
0
0
0
-0.002961357906
1.613573426e-09
6.190970293e-10
1.462530377e-10
-1.682584621e-10
-4.887716574e-10
-1.023122297e-09
-2.083892112e-09
-4.232249106e-09
-8.481945074e-09
-1.660639469e-08
-3.153190562e-08
-5.756305089e-08
-9.331681426e-08
-8.217992275e-08
-3.507537217e-08
-0.0005675036379
75.50276747
0
0
0
0
0
0
0
0
0
0
0
-0.005872336876
-1.698030901e-05
1.854552796e-09
5.541355248e-10
-8.652082818e-11
-5.586913291e-10
-1.083478112e-09
-1.872696144e-09
-3.173873261e-09
-5.338927494e-09
-8.857901301e-09
-1.429222498e-08
-2.18182387e-08
-2.964969533e-08
-2.947348412e-08
-1.064658788e-08
9.999076089e-08
-1.510127109e-06
0.5892347337
0
0
0
0
0
0
0
0
0
0
0
381.0144694
-0.00199176543
1.459582489e-09
1.183927406e-10
-5.079398916e-10
-1.056146775e-09
-1.781600501e-09
-2.886012372e-09
-4.544604444e-09
-6.87968897e-09
-9.829589501e-09
-1.291450103e-08
-1.486612384e-08
-1.271256838e-08
5.048985918e-10
3.750125513e-08
2.675239909e-08
1.968109432e-09
-4.732150204e-07
697.495254
95.21606311
0
0
0
0
0
0
0
-0.0008339508787
369.2903067
-4.775093551e-07
-6.155990491e-09
-1.084152713e-10
-9.065310208e-10
-1.157235883e-09
-1.638908304e-09
-2.548369999e-09
-4.062594861e-09
-6.336685659e-09
-9.372016969e-09
-1.2711091e-08
-1.513708588e-08
-1.511159485e-08
-1.252478312e-08
-1.33490846e-08
-1.270834391e-08
3.871111795e-08
2.754573222e-07
5.993818705e-07
-0.001757127995
-0.0004547442866
85.17665405
281.8246233
158.0677184
0
157.0954245
279.6009393
-0.002697986191
-2.99902475e-09
-0.0009305571578
-3.869939951e-09
-3.120679071e-07
-4.791909353e-09
-2.971289369e-09
-1.99662577e-09
-2.246378765e-09
-3.344256434e-09
-5.384467868e-09
-8.59030769e-09
-1.300751905e-08
-1.785849013e-08
-2.046956742e-08
-1.63796878e-08
-1.45176725e-09
6.777360889e-09
2.553611202e-08
1.484372558e-07
3.147083161e-07
7.085161481e-07
7.492132233e-07
-7.489292384e-09
-0.000290531784
-0.001966397994
-0.0006774385405
-0.04744438141
-0.0006583180445
-0.001917430424
-0.0001896341459
-1.664187732e-08
-9.058233253e-08
3.509733691e-08
-2.741686478e-09
-5.101391679e-09
-3.147881441e-09
-2.249572931e-09
-2.687383183e-09
-4.163501139e-09
-6.88523364e-09
-1.130961841e-08
-1.789657715e-08
-2.620663511e-08
-3.226830082e-08
-2.654248427e-08
1.281632836e-08
3.038089344e-08
1.819926457e-07
3.589319907e-07
-2.335082076e-05
-0.0001090900622
-0.003842296925
-0.002970354061
115.2503912
498.2361608
110.6456952
0
104.0320347
481.034642
75.22462674
-0.006601396974
-0.01150572174
-0.0002025051722
-0.0009502427948
-1.257260324e-09
-1.548948768e-09
-2.003627549e-09
-3.123271531e-09
-5.262401817e-09
-8.837801704e-09
-1.452604629e-08
-2.346851991e-08
-3.713782018e-08
-5.281019423e-08
-6.06750661e-08
-2.742171079e-08
3.320875774e-08
2.138320131e-07
-1.043524152e-07
9.403951857
43.32202135
0
0
0
0
0
0
0
0
0
0
0
80.45939334
160.7790504
-4.279356148e-10
-9.907585161e-10
-2.125357704e-09
-4.05491735e-09
-7.273953343e-09
-1.215157146e-08
-1.900655942e-08
-2.87587376e-08
-4.576190539e-08
-7.38976105e-08
-1.352007596e-07
-1.522570145e-07
-0.0001379525659
-0.0008204822202
230.6622461
0
0
0
0
0
0
0
0
0
0
0
0
0
0
0
-1.282045691e-10
-7.927994427e-10
-2.610806017e-09
-5.726315557e-09
-1.096259226e-08
-1.872252598e-08
-2.812848285e-08
-3.563914091e-08
-4.064962915e-08
-8.591999166e-08
-2.170677346e-07
-4.424204239e-07
54.75643434
94.92021822
0
0
0
0
0
0
0
0
0
0
0
0
0
0
0
0
4.068449876e-11
-6.641260908e-10
-3.158839661e-09
-7.786273194e-09
-1.631900513e-08
-3.065607543e-08
-5.147243223e-08
-7.312236902e-08
-8.279446406e-08
-4.594697671e-08
-0.0001872331895
74.2742702
0
0
0
0
0
0
0
0
0
0
0
0
0
0
0
0
0
0
2.274119741e-10
-3.306134226e-10
-3.138107325e-09
-8.725598771e-09
-1.999551092e-08
-4.153104847e-08
-7.996445349e-08
-1.339373247e-07
-1.213797423e-07
-3.717884957e-08
-0.0006807596441
172.9872056
0
0
0
0
0
0
0
0
0
0
0
0
0
0
0
0
0
0
4.744713578e-10
3.858210443e-10
-1.965833476e-09
-6.773064296e-09
-1.664090404e-08
-3.561468905e-08
-7.05418428e-08
-1.752293291e-07
-2.745412542e-07
-3.459308897e-07
97.15187189
0
0
0
0
0
0
0
0
0
0
0
0
0
0
0
0
0
0
0
)
;

boundaryField
{
    lowerWall
    {
        type            calculated;
        value           nonuniform 0();
    }
    atmosphere
    {
        type            calculated;
        value           nonuniform List<scalar> 
20
(
2.894508948e-10
-2.750802361e-11
-2.78583001e-10
-3.847311843e-10
-2.939574347e-10
1.240926599e-11
5.016637455e-10
1.086439707e-09
1.613573426e-09
1.854552796e-09
1.459582489e-09
-1.084152713e-10
-4.791909353e-09
-5.101391679e-09
-1.257260324e-09
-4.279356148e-10
-1.282045691e-10
4.068449876e-11
2.274119741e-10
4.744713578e-10
)
;
    }
    rightWall
    {
        type            empty;
    }
    leftWall
    {
        type            empty;
    }
    frontAndBack
    {
        type            calculated;
        value           nonuniform List<scalar> 
30
(
4.744713578e-10
3.858210443e-10
-1.965833476e-09
-6.773064296e-09
-1.664090404e-08
-3.561468905e-08
-7.05418428e-08
-1.752293291e-07
-2.745412542e-07
-3.459308897e-07
97.15187189
0
0
0
0
0
0
0
0
0
0
0
0
0
0
0
0
0
0
0
)
;
    }
    procBoundary4to2
    {
        type            processor;
        value           nonuniform List<scalar> 
30
(
5.886017224e-10
4.791854638e-11
-1.937336087e-10
-4.301734967e-10
-7.502895884e-10
-1.286809971e-09
-2.237599864e-09
-3.845922271e-09
-6.376034263e-09
-9.790777713e-09
-1.308730285e-08
-1.282541646e-08
-1.191842604e-09
3.024016319e-08
4.405211612e-08
3.946248417e-08
-2.881553352e-07
17.05672269
9.759568854
0
0
0
0
0
0
0
-0.006121988256
18.3328613
-4.610324068e-05
-8.18533442e-11
)
;
    }
    procBoundary4to5
    {
        type            processor;
        value           nonuniform List<scalar> 
20
(
428.2798371
10.47795229
0
0
0
0
0
0
6.727174156
409.0996093
-0.002441608337
-0.01412385648
-0.00546205929
216.1777766
0
0
0
0
0
0
)
;
    }
}


// ************************************************************************* //
