/*--------------------------------*- C++ -*----------------------------------*\
  =========                 |
  \\      /  F ield         | OpenFOAM: The Open Source CFD Toolbox
   \\    /   O peration     | Website:  https://openfoam.org
    \\  /    A nd           | Version:  6
     \\/     M anipulation  |
\*---------------------------------------------------------------------------*/
FoamFile
{
    version     2.0;
    format      ascii;
    class       volScalarField;
    location    "0.0013";
    object      ViscousDissipation;
}
// * * * * * * * * * * * * * * * * * * * * * * * * * * * * * * * * * * * * * //

dimensions      [1 -1 -3 0 0 0 0];

internalField   nonuniform List<scalar> 
600
(
3.271340168e-21
7.138752633e-21
1.381961245e-20
2.711765804e-20
5.579153238e-20
1.195143195e-19
2.612226255e-19
5.688670646e-19
1.203582938e-18
2.400940315e-18
4.318616985e-18
6.426983658e-18
6.258093805e-18
1.669117002e-18
1.712323411e-17
1.566179455e-17
1.139550637e-16
2.566741968e-16
9.511959694e-17
8.514787487e-17
3.317724104e-17
1.993753527e-17
1.331026027e-17
1.659779309e-17
2.742735891e-17
8.645528476e-17
2.02471496e-16
5.595177932e-16
2.186749777e-16
1.681227337e-18
3.413580484e-21
7.208674022e-21
1.355974067e-20
2.614980742e-20
5.3530434e-20
1.1507971e-19
2.531948874e-19
5.553602466e-19
1.187048947e-18
2.423299355e-18
4.635049416e-18
8.170646095e-18
1.295695153e-17
2.406579608e-17
9.416423465e-18
1.988972493e-17
2.233717313e-16
6.981326913e-17
2.028146812e-17
1.933372679e-17
1.42901871e-17
1.107635558e-17
9.080663161e-18
9.303344722e-18
1.122339738e-17
1.519623457e-17
1.614279438e-17
8.792996428e-17
7.094158399e-17
1.6364663e-19
2.913774484e-21
6.011494739e-21
1.127550601e-20
2.220124465e-20
4.710432886e-20
1.050673642e-19
2.377714323e-19
5.305255475e-19
1.143804633e-18
2.349700611e-18
4.556559786e-18
8.218808847e-18
1.302677592e-17
1.072658184e-17
7.371611061e-18
1.413128309e-16
1.428902647e-16
4.255553004e-18
2.712821501e-18
6.33845519e-18
6.810595226e-18
6.088970539e-18
5.190333211e-18
4.62389818e-18
4.322906187e-18
4.149650172e-18
3.729329269e-18
2.215593081e-18
5.192828003e-17
8.04810725e-17
2.011662846e-21
3.99696671e-21
7.608589965e-21
1.616779458e-20
3.791138792e-20
9.195584478e-20
2.194220514e-19
5.006780982e-19
1.07223832e-18
2.118161249e-18
3.800348829e-18
6.103936332e-18
1.017053288e-17
7.157249473e-18
7.637205059e-18
1.475892503e-16
4.843331874e-17
4.915560591e-18
2.64570406e-18
3.467831782e-18
3.880716237e-18
3.571534468e-18
2.917393025e-18
2.24265139e-18
1.630927953e-18
1.187105958e-18
1.121023811e-18
1.382076702e-18
2.592326676e-18
1.295835033e-17
1.096254352e-21
1.917754821e-21
3.731584303e-21
9.832776512e-21
2.883940828e-20
8.092597026e-20
2.085448424e-19
4.889856103e-19
1.028801543e-18
1.876050819e-18
2.745692069e-18
2.795978758e-18
2.874931152e-18
5.449341447e-18
2.955543295e-19
9.640856404e-17
3.504429646e-17
1.746810294e-18
1.122512938e-18
2.197721993e-18
2.650535534e-18
2.365213604e-18
1.76032226e-18
1.167666644e-18
6.380183543e-19
2.498678369e-19
2.263726317e-19
6.423153109e-19
1.293705229e-18
1.408358571e-18
5.107540419e-22
4.786835648e-22
8.982155792e-22
5.343451405e-21
2.36207541e-20
7.894207442e-20
2.202505982e-19
5.360610282e-19
1.145392918e-18
2.090835161e-18
3.023128506e-18
2.991632331e-18
3.073641978e-18
7.513309918e-18
3.316608194e-19
1.063396227e-16
3.906461121e-17
1.992134404e-18
1.213564321e-18
2.204225542e-18
2.404573153e-18
1.876613295e-18
1.186417628e-18
7.24379174e-19
3.671277917e-19
6.768183278e-20
4.921941245e-20
5.448246374e-19
1.449475992e-18
1.447357471e-18
5.260725479e-22
2.879598474e-22
3.840794403e-22
5.138342955e-21
2.664761077e-20
9.381643296e-20
2.691724947e-19
6.729219966e-19
1.498654533e-18
2.97225304e-18
5.204048474e-18
8.027295526e-18
1.298801559e-17
9.319959843e-18
8.134207947e-18
1.555109273e-16
6.194297581e-17
1.038526589e-17
4.634061532e-18
3.686063882e-18
3.009223396e-18
1.862475353e-18
8.302695553e-19
5.102856867e-19
4.167000105e-19
2.690644496e-19
3.801896716e-19
1.47350286e-18
4.37149649e-18
1.480456186e-17
1.558643009e-21
2.246397373e-21
3.984067383e-21
1.251512798e-20
4.3621129e-20
1.349268444e-19
3.695600056e-19
9.154230593e-19
2.072525605e-18
4.289846622e-18
8.071125787e-18
1.359289181e-17
1.940226942e-17
1.330270387e-17
9.436344204e-18
1.178011405e-16
1.107502501e-16
1.167271644e-17
7.882654552e-18
6.174616911e-18
4.845510488e-18
2.610724942e-18
5.586586048e-19
2.641487966e-19
6.793881562e-19
7.312745822e-19
1.166684982e-18
7.120235377e-18
6.949447884e-17
1.044670237e-16
4.494575337e-21
8.119355181e-21
1.466465439e-20
3.216600759e-20
8.171067228e-20
2.12689782e-19
5.345702619e-19
1.271683347e-18
2.830538941e-18
5.806141689e-18
1.071680506e-17
1.712347599e-17
2.183099987e-17
2.443696371e-17
2.3051847e-17
2.269132962e-17
2.153820557e-16
6.395549541e-17
1.229658556e-17
1.02979157e-17
1.039312594e-17
6.984376581e-18
2.78866144e-18
5.881070069e-19
2.007972294e-18
1.327111884e-18
2.254891239e-18
4.218228757e-17
3.876645512e-17
1.334367918e-19
1.086626609e-20
2.079488341e-20
3.664542502e-20
6.973349313e-20
1.480204322e-19
3.349146703e-19
7.689256995e-19
1.730945545e-18
3.715709291e-18
7.367319676e-18
1.288189002e-17
1.830217341e-17
1.728778146e-17
5.432064578e-18
2.882596541e-17
4.460661788e-17
4.631639454e-16
1.212588104e-15
6.952176277e-17
1.951203264e-17
3.074243244e-17
3.615206156e-17
4.522568509e-17
1.408346642e-17
1.355965073e-17
4.105568078e-18
3.638588147e-18
4.986996768e-16
1.355213971e-16
1.349732428e-18
2.28654769e-20
4.39122058e-20
7.432718109e-20
1.297679701e-19
2.463019685e-19
5.021651209e-19
1.064124527e-18
2.265115548e-18
4.681576509e-18
9.036540453e-18
1.549927676e-17
2.21022172e-17
2.407759557e-17
2.160662007e-17
5.429868044e-17
1.329062139e-16
1.690238484e-16
6.688870132e-16
1.144929032e-15
2.185538163e-17
1.343684945e-16
3.102758084e-16
7.019810343e-16
2.430367533e-16
1.420262606e-16
3.945615684e-17
2.247631575e-16
5.812640015e-16
5.444082882e-17
3.579576999e-19
4.436935335e-20
8.105794771e-20
1.298486357e-19
2.11853516e-19
3.715911844e-19
7.00266984e-19
1.386485048e-18
2.799913134e-18
5.572519025e-18
1.048256938e-17
1.767737408e-17
2.512593217e-17
2.915601696e-17
3.610431072e-17
7.121862822e-17
1.859298065e-16
1.876988188e-16
2.995979848e-16
7.630824742e-19
3.465934241e-16
3.271260055e-16
6.206912108e-18
6.314381254e-16
1.237441284e-18
3.777410226e-16
9.865869937e-17
3.083180728e-19
5.175731224e-17
2.818289574e-17
5.588466057e-17
6.88473268e-20
1.312244963e-19
1.98299818e-19
3.057415938e-19
5.046279855e-19
8.922571484e-19
1.663259524e-18
3.191404809e-18
6.097380791e-18
1.103418535e-17
1.747524733e-17
2.103524698e-17
1.538927093e-17
2.421686972e-17
6.917057051e-17
1.325458863e-16
3.751117808e-16
1.138997319e-16
2.576191816e-19
3.830852222e-19
3.020178287e-18
8.615802481e-20
7.850112813e-15
7.133379912e-20
2.712547306e-18
1.819440976e-19
3.381421166e-19
1.775396523e-17
7.394087485e-17
1.433261486e-17
2.000738912e-19
2.047374174e-19
2.688940665e-19
3.9170138e-19
6.132098621e-19
1.019908437e-18
1.783841797e-18
3.242408308e-18
5.979737708e-18
1.050414814e-17
1.533725777e-17
1.279635488e-17
1.463410324e-18
6.046873312e-17
9.194402812e-17
7.421988726e-17
9.553438663e-17
2.304185821e-16
3.128168889e-16
1.560688324e-16
6.751445002e-16
9.75146246e-17
8.952570118e-16
6.070282303e-17
7.169277321e-16
1.343434287e-16
6.749984326e-17
1.055421917e-16
2.004757089e-17
7.09124143e-21
2.156258343e-19
2.45992123e-19
3.185204612e-19
4.489331917e-19
6.672737008e-19
1.02711947e-18
1.631556379e-18
2.728627247e-18
4.955991164e-18
9.263066241e-18
1.434029334e-17
7.186130834e-18
1.209748072e-17
2.355413218e-17
4.298025163e-17
3.91346789e-17
7.265197168e-17
5.170911071e-18
7.130372456e-17
1.684656746e-16
4.645229311e-16
4.421683637e-16
7.934520814e-16
3.550646905e-16
4.365985051e-16
2.706090438e-16
3.234408034e-16
2.905150478e-16
3.614616747e-17
3.152190056e-16
2.261666545e-19
2.617989803e-19
3.396832761e-19
4.706883483e-19
6.638020553e-19
9.122277851e-19
1.187397141e-18
1.559594554e-18
2.838536671e-18
7.977073548e-18
2.778793168e-17
7.225294857e-18
1.64336871e-18
1.176348028e-17
8.466483447e-17
2.357252929e-16
5.353843934e-17
8.795635032e-18
1.585082283e-17
2.971254852e-17
5.697992786e-17
4.176196192e-17
4.788816011e-17
2.132404828e-17
4.030180079e-17
3.471601504e-17
4.202148064e-17
8.403838436e-17
6.141057533e-17
4.964787768e-17
1.998769428e-19
2.428390975e-19
3.299763423e-19
4.680773313e-19
6.456570362e-19
7.903826728e-19
7.113810295e-19
2.716974798e-19
9.515493008e-19
1.136090503e-17
9.200744673e-18
8.4046249e-18
3.213783226e-17
1.216226127e-16
1.70678761e-16
4.448422698e-17
3.272710044e-18
2.303992156e-18
3.87352428e-18
6.906778808e-18
9.692375397e-18
5.444828201e-18
2.30738233e-18
1.001237743e-18
4.387679971e-18
4.692529499e-18
5.447502998e-18
8.082337456e-18
6.531948542e-18
5.878177202e-18
1.442088369e-19
1.954045735e-19
2.980897483e-19
4.637812506e-19
6.87274386e-19
9.101479219e-19
9.896200309e-19
9.562325767e-19
3.38645827e-18
2.309763292e-17
1.006626688e-17
1.682962659e-16
1.873444482e-16
2.675497589e-17
1.028662803e-17
3.390532476e-18
2.173927791e-19
2.959935413e-19
1.118273222e-18
2.196607113e-18
2.626219794e-18
1.419013546e-18
2.807198778e-19
2.563682314e-19
7.862564747e-19
7.383417174e-19
6.643638821e-19
7.986543272e-19
8.06252957e-19
9.025471796e-19
7.604771643e-20
1.350680364e-19
2.564426076e-19
4.680283319e-19
8.088132712e-19
1.36694521e-18
2.559487038e-18
6.370745135e-18
2.814016875e-17
1.473961765e-18
1.282842937e-17
2.88378702e-16
8.469210604e-17
2.354440622e-18
1.923257594e-18
7.690791631e-19
1.298446949e-19
1.850599465e-19
5.866346406e-19
1.065506206e-18
1.194674939e-18
7.751840415e-19
3.486073861e-19
2.665211122e-19
2.635517405e-19
1.416924258e-19
6.368655077e-20
6.365291544e-20
1.163485525e-19
2.0065332e-19
1.781808275e-20
8.001613692e-20
2.100940739e-19
4.488103751e-19
8.67426041e-19
1.618320211e-18
3.034230546e-18
5.680145222e-18
8.387706858e-18
8.899929045e-18
2.316681853e-16
3.625516525e-16
7.239548034e-17
7.182798934e-18
2.287669707e-18
8.042905265e-19
3.35487245e-19
3.134179363e-19
5.126723594e-19
7.776550281e-19
8.428506362e-19
6.217207927e-19
3.729128054e-19
2.46349172e-19
1.473665488e-19
4.194826343e-20
3.978475517e-21
3.143670033e-21
2.679562854e-20
8.200651248e-20
)
;

boundaryField
{
    lowerWall
    {
        type            calculated;
        value           nonuniform 0();
    }
    atmosphere
    {
        type            calculated;
        value           nonuniform List<scalar> 
20
(
2.076356945e-21
2.167039573e-21
1.882533941e-21
1.345504915e-21
7.755599553e-22
4.016955473e-22
4.575927083e-22
1.286763407e-21
3.473770443e-21
7.875443246e-21
1.559356172e-20
2.868881505e-20
4.034043586e-20
2.25423295e-19
2.201806859e-19
2.242405316e-19
1.95952124e-19
1.396597822e-19
7.13847631e-20
1.321460408e-20
)
;
    }
    rightWall
    {
        type            empty;
    }
    leftWall
    {
        type            empty;
    }
    frontAndBack
    {
        type            calculated;
        value           nonuniform List<scalar> 
30
(
9.950813779e-21
7.190648992e-20
2.021854668e-19
4.43546578e-19
8.742790161e-19
1.668857566e-18
3.210464274e-18
6.017847181e-18
8.206421872e-18
1.241016623e-18
1.854484292e-16
4.21810055e-16
6.663977942e-17
7.602285875e-18
2.288149591e-18
8.296634277e-19
3.689048944e-19
3.348971274e-19
5.103153581e-19
7.463197747e-19
8.02787604e-19
6.080931385e-19
3.786850151e-19
2.432508326e-19
1.355269976e-19
3.621255662e-20
1.655927187e-21
9.135173261e-22
2.208607835e-20
7.047828576e-20
)
;
    }
    procBoundary4to2
    {
        type            processor;
        value           nonuniform List<scalar> 
30
(
2.557880171e-21
5.936721264e-21
1.227829331e-20
2.542489877e-20
5.424696593e-20
1.186405791e-19
2.621422008e-19
5.74323993e-19
1.219988828e-18
2.441505069e-18
4.411925746e-18
6.686578632e-18
7.294443571e-18
4.798620944e-18
1.634454688e-17
4.53612567e-17
4.875131318e-17
2.354784731e-17
1.104799214e-16
4.082888834e-16
8.169461845e-17
3.318550238e-17
1.095959345e-17
2.470046639e-17
5.321486848e-17
5.008308896e-16
4.016345636e-16
1.076302836e-17
5.882103181e-18
5.778604474e-20
)
;
    }
    procBoundary4to5
    {
        type            processor;
        value           nonuniform List<scalar> 
20
(
4.924800522e-16
1.072660575e-16
3.368760197e-17
1.354341155e-17
1.23848171e-18
1.086229597e-18
1.242172273e-17
2.879477758e-17
9.502747708e-17
3.776110243e-16
6.212181763e-17
5.321558859e-16
2.253037887e-16
2.407102078e-16
1.836197488e-16
1.450439441e-17
2.047101571e-18
4.575011593e-19
1.471096787e-19
7.658866115e-20
)
;
    }
}


// ************************************************************************* //
