/*--------------------------------*- C++ -*----------------------------------*\
  =========                 |
  \\      /  F ield         | OpenFOAM: The Open Source CFD Toolbox
   \\    /   O peration     | Website:  https://openfoam.org
    \\  /    A nd           | Version:  6
     \\/     M anipulation  |
\*---------------------------------------------------------------------------*/
FoamFile
{
    version     2.0;
    format      ascii;
    class       volScalarField;
    location    "0.0001";
    object      Num_divU;
}
// * * * * * * * * * * * * * * * * * * * * * * * * * * * * * * * * * * * * * //

dimensions      [0 0 -1 0 0 0 0];

internalField   nonuniform List<scalar> 
9600
(
-1.746725957e-10
-2.210023108e-10
-2.254475941e-10
-2.031052176e-10
-1.709402331e-10
-1.339260992e-10
-1.02914143e-10
-7.760292239e-11
-6.240967578e-11
-5.263085849e-11
-4.959971937e-11
-4.801131509e-11
-4.911943469e-11
-4.881504504e-11
-4.919440161e-11
-4.744720406e-11
-4.620226094e-11
-4.332568219e-11
-4.138916351e-11
-3.841970617e-11
-3.66487142e-11
-3.412273722e-11
-3.276048502e-11
-3.069045928e-11
-2.963310075e-11
-2.786537822e-11
-2.697827484e-11
-2.540759728e-11
-2.4631426e-11
-2.322291109e-11
-2.254573954e-11
-2.12879586e-11
-2.070101037e-11
-1.957478357e-11
-1.905720523e-11
-1.803355544e-11
-1.755916363e-11
-1.660962655e-11
-1.615715895e-11
-1.526160277e-11
-1.481937691e-11
-1.396739583e-11
-1.353216911e-11
-1.272044576e-11
-1.229425694e-11
-1.152341559e-11
-1.111077243e-11
-1.038305576e-11
-9.989078286e-12
-9.306886069e-12
-8.936260752e-12
-8.301654703e-12
-7.958626947e-12
-7.37345641e-12
-7.061675639e-12
-6.527045226e-12
-6.248868703e-12
-5.764704822e-12
-5.521426907e-12
-5.087328438e-12
-4.87996925e-12
-4.495038112e-12
-4.323013088e-12
-3.984281931e-12
-3.845152629e-12
-3.549440546e-12
-3.44193639e-12
-3.187578191e-12
-3.109955123e-12
-2.892258774e-12
-2.838566996e-12
-2.651107032e-12
-2.618178194e-12
-2.460531417e-12
-2.449059881e-12
-2.317928177e-12
-2.319350302e-12
-2.203108814e-12
-2.210337333e-12
-2.111129443e-12
-2.133649846e-12
-2.057238299e-12
-2.086546341e-12
-2.009834062e-12
-2.024224319e-12
-1.946991057e-12
-1.973610613e-12
-1.92946887e-12
-1.975501963e-12
-1.9309695e-12
-1.947704478e-12
-1.884842941e-12
-1.906017305e-12
-1.877888395e-12
-1.918510427e-12
-1.88093302e-12
-1.883393037e-12
-1.832137408e-12
-1.856596195e-12
-1.848862904e-12
-1.873297478e-12
-1.813384519e-12
-1.764251641e-12
-1.689001813e-12
-1.693137788e-12
-1.700669551e-12
-1.732640364e-12
-1.696478989e-12
-1.632085767e-12
-1.510265525e-12
-1.435149126e-12
-1.46997046e-12
-1.686748521e-12
-1.788300063e-12
-1.697506427e-12
-1.120608922e-12
-8.695331997e-13
-7.177867283e-13
-1.565300634e-12
-6.873485591e-13
-1.750928992e-10
-2.254291945e-10
-2.263712802e-10
-2.075567048e-10
-1.717526707e-10
-1.377088119e-10
-1.033874282e-10
-8.084724979e-11
-6.273371256e-11
-5.550942646e-11
-4.987186356e-11
-5.062555718e-11
-4.938005338e-11
-5.120909267e-11
-4.943500682e-11
-4.962424035e-11
-4.640176766e-11
-4.528964896e-11
-4.154275673e-11
-4.01896032e-11
-3.676477258e-11
-3.572277668e-11
-3.28483466e-11
-3.214120091e-11
-2.969867605e-11
-2.918296019e-11
-2.702561341e-11
-2.660595878e-11
-2.466456862e-11
-2.43149832e-11
-2.256882578e-11
-2.228547778e-11
-2.071754022e-11
-2.048777157e-11
-1.906942669e-11
-1.887017343e-11
-1.756805424e-11
-1.737648098e-11
-1.616277063e-11
-1.596423718e-11
-1.482129737e-11
-1.46107232e-11
-1.352984603e-11
-1.330902054e-11
-1.228721027e-11
-1.206157111e-11
-1.10986693e-11
-1.087493853e-11
-9.971751751e-12
-9.756445755e-12
-8.913711194e-12
-8.712678229e-12
-7.931092405e-12
-7.749612892e-12
-7.029610388e-12
-6.871808581e-12
-6.212837757e-12
-6.081290832e-12
-5.482128873e-12
-5.378830416e-12
-4.838356241e-12
-4.76442332e-12
-4.280061085e-12
-4.234097502e-12
-3.801676238e-12
-3.781947579e-12
-3.398950612e-12
-3.40510804e-12
-3.06860397e-12
-3.096694519e-12
-2.799460848e-12
-2.843724893e-12
-2.581997423e-12
-2.643013552e-12
-2.416998119e-12
-2.491673728e-12
-2.291537094e-12
-2.368120811e-12
-2.186543516e-12
-2.268508317e-12
-2.115656239e-12
-2.208999312e-12
-2.074420428e-12
-2.154226508e-12
-2.015315064e-12
-2.083621589e-12
-1.970769261e-12
-2.06300044e-12
-1.980667114e-12
-2.058459747e-12
-1.95502344e-12
-2.0035112e-12
-1.919034231e-12
-1.994842676e-12
-1.940012734e-12
-1.991398298e-12
-1.905402671e-12
-1.934106966e-12
-1.885885579e-12
-1.951016849e-12
-1.909428655e-12
-1.905096657e-12
-1.796283412e-12
-1.771665607e-12
-1.734153142e-12
-1.786294786e-12
-1.781044998e-12
-1.774645347e-12
-1.676264966e-12
-1.567839506e-12
-1.467988245e-12
-1.541466374e-12
-1.742455204e-12
-1.91996675e-12
-1.660648911e-12
-1.226042342e-12
-7.679102931e-13
-1.058218599e-12
-1.145035203e-12
-1.005207194e-12
-1.75955787e-10
-2.22832052e-10
-2.283525592e-10
-2.062040025e-10
-1.741265212e-10
-1.367802813e-10
-1.056898993e-10
-8.00602144e-11
-6.478823493e-11
-5.472101177e-11
-5.165020263e-11
-4.98368927e-11
-5.095295242e-11
-5.046420607e-11
-5.086073495e-11
-4.893892928e-11
-4.770251897e-11
-4.465828159e-11
-4.272738043e-11
-3.960442192e-11
-3.784249139e-11
-3.517906228e-11
-3.382959026e-11
-3.16359734e-11
-3.059332052e-11
-2.871381481e-11
-2.784244896e-11
-2.617093944e-11
-2.541144176e-11
-2.391246181e-11
-2.325280561e-11
-2.191397858e-11
-2.134490237e-11
-2.014565729e-11
-1.964563133e-11
-1.855554551e-11
-1.809780246e-11
-1.708717811e-11
-1.66501721e-11
-1.569800598e-11
-1.527003884e-11
-1.436533007e-11
-1.394333631e-11
-1.308238379e-11
-1.266863572e-11
-1.185175789e-11
-1.145098157e-11
-1.068015519e-11
-1.029762033e-11
-9.575005998e-12
-9.215555084e-12
-8.543088509e-12
-8.211137506e-12
-7.590577197e-12
-7.289868725e-12
-6.722172011e-12
-6.455042637e-12
-5.94001796e-12
-5.707849194e-12
-5.245174004e-12
-5.049125708e-12
-4.637870003e-12
-4.477201086e-12
-4.114108898e-12
-3.98616951e-12
-3.668069644e-12
-3.571830809e-12
-3.297303868e-12
-3.230970051e-12
-2.994888964e-12
-2.951920501e-12
-2.74758373e-12
-2.72509283e-12
-2.552696895e-12
-2.551696994e-12
-2.407405893e-12
-2.41808715e-12
-2.289280604e-12
-2.304844531e-12
-2.195355434e-12
-2.227124983e-12
-2.142652598e-12
-2.179400933e-12
-2.093110158e-12
-2.111869267e-12
-2.02701521e-12
-2.061096546e-12
-2.014327001e-12
-2.066550906e-12
-2.015198054e-12
-2.031687401e-12
-1.963196405e-12
-1.989901893e-12
-1.963650437e-12
-2.007862453e-12
-1.964556439e-12
-1.962643665e-12
-1.909425027e-12
-1.939336688e-12
-1.937014649e-12
-1.960000662e-12
-1.892434238e-12
-1.834336191e-12
-1.760948246e-12
-1.771565038e-12
-1.787404147e-12
-1.81558146e-12
-1.7755554e-12
-1.699718093e-12
-1.568861991e-12
-1.481685205e-12
-1.53654495e-12
-1.782731224e-12
-1.914223853e-12
-1.744477951e-12
-1.134259106e-12
-8.388432407e-13
-7.570270707e-13
-1.817911626e-12
-6.397598725e-13
-1.742898814e-10
-2.238704826e-10
-2.272313749e-10
-2.07078273e-10
-1.728715103e-10
-1.373858365e-10
-1.044700199e-10
-8.060748707e-11
-6.373194046e-11
-5.528569573e-11
-5.076009739e-11
-5.041050715e-11
-5.018320145e-11
-5.101199309e-11
-5.016389634e-11
-4.943565927e-11
-4.705339953e-11
-4.510053448e-11
-4.212124275e-11
-4.000138095e-11
-3.728117234e-11
-3.554016321e-11
-3.331267494e-11
-3.196648682e-11
-3.011742225e-11
-2.901628846e-11
-2.740354043e-11
-2.644739123e-11
-2.500629396e-11
-2.416523269e-11
-2.287908485e-11
-2.214557885e-11
-2.100066193e-11
-2.035839726e-11
-1.93289449e-11
-1.875138584e-11
-1.780666399e-11
-1.726779894e-11
-1.638260459e-11
-1.586494905e-11
-1.502419783e-11
-1.452010499e-11
-1.371759159e-11
-1.322649972e-11
-1.246154123e-11
-1.198664995e-11
-1.12611792e-11
-1.080706731e-11
-1.012374115e-11
-9.694950444e-12
-9.056249637e-12
-8.65689706e-12
-8.065107642e-12
-7.698900215e-12
-7.155828011e-12
-6.825424647e-12
-6.331691588e-12
-6.03845317e-12
-5.594025327e-12
-5.339050495e-12
-4.943871592e-12
-4.727398685e-12
-4.37958363e-12
-4.199279273e-12
-3.895232709e-12
-3.748845994e-12
-3.486918017e-12
-3.373878139e-12
-3.151659145e-12
-3.067338708e-12
-2.87761687e-12
-2.815761208e-12
-2.655331836e-12
-2.61676186e-12
-2.486394822e-12
-2.46751419e-12
-2.35682235e-12
-2.345120685e-12
-2.247230681e-12
-2.247269178e-12
-2.173721052e-12
-2.191288388e-12
-2.129852035e-12
-2.137393987e-12
-2.064849202e-12
-2.066930884e-12
-2.018046963e-12
-2.051901907e-12
-2.027840551e-12
-2.048549912e-12
-1.99458589e-12
-1.991832601e-12
-1.956955935e-12
-1.991034809e-12
-1.979322058e-12
-1.98705937e-12
-1.93437879e-12
-1.92735468e-12
-1.916271532e-12
-1.955222469e-12
-1.94114979e-12
-1.904912119e-12
-1.814686678e-12
-1.769729725e-12
-1.758005229e-12
-1.796980153e-12
-1.805107308e-12
-1.780324739e-12
-1.690017482e-12
-1.567953016e-12
-1.468444042e-12
-1.538613784e-12
-1.772203789e-12
-1.956987472e-12
-1.677925087e-12
-1.211536307e-12
-6.943767982e-13
-1.199936265e-12
-1.009199667e-12
-1.085962505e-12
-1.752928378e-10
-2.234779473e-10
-2.279001654e-10
-2.062484852e-10
-1.730453507e-10
-1.363556818e-10
-1.04512821e-10
-7.968519815e-11
-6.385323804e-11
-5.456003283e-11
-5.097741182e-11
-4.983224326e-11
-5.04329906e-11
-5.050433651e-11
-5.039018127e-11
-4.895436091e-11
-4.723847998e-11
-4.463783893e-11
-4.227314529e-11
-3.956442756e-11
-3.741234854e-11
-3.513426735e-11
-3.343012691e-11
-3.159150188e-11
-3.022333861e-11
-2.866950537e-11
-2.749866024e-11
-2.612628356e-11
-2.509169528e-11
-2.386817843e-11
-2.295628069e-11
-2.18714335e-11
-2.107111666e-11
-2.010599433e-11
-1.939379698e-11
-1.851937985e-11
-1.786675006e-11
-1.705476188e-11
-1.643862121e-11
-1.566951899e-11
-1.507683836e-11
-1.434109516e-11
-1.376762707e-11
-1.306292433e-11
-1.250977938e-11
-1.183762999e-11
-1.130833433e-11
-1.067169714e-11
-1.017033547e-11
-9.57226634e-12
-9.102634822e-12
-8.545914099e-12
-8.111478073e-12
-7.598586419e-12
-7.202172892e-12
-6.734661902e-12
-6.377817211e-12
-5.956138435e-12
-5.639718252e-12
-5.264234566e-12
-4.988951527e-12
-4.659204545e-12
-4.423742632e-12
-4.136751597e-12
-3.938045043e-12
-3.6911614e-12
-3.52817591e-12
-3.320565622e-12
-3.1913045e-12
-3.017899199e-12
-2.915320471e-12
-2.769532557e-12
-2.690824414e-12
-2.573488978e-12
-2.519815345e-12
-2.427086968e-12
-2.38799255e-12
-2.306976991e-12
-2.27582594e-12
-2.211386014e-12
-2.200323171e-12
-2.158153357e-12
-2.154416051e-12
-2.105930591e-12
-2.086129183e-12
-2.036743187e-12
-2.037322065e-12
-2.024914365e-12
-2.045878701e-12
-2.02312879e-12
-2.008802812e-12
-1.967120484e-12
-1.969714917e-12
-1.970299403e-12
-1.991143865e-12
-1.966716098e-12
-1.941231219e-12
-1.907600616e-12
-1.923268609e-12
-1.940889903e-12
-1.947625128e-12
-1.889895235e-12
-1.815610544e-12
-1.75544129e-12
-1.760141681e-12
-1.788062405e-12
-1.806033683e-12
-1.77033499e-12
-1.687779576e-12
-1.560003423e-12
-1.465059441e-12
-1.525034643e-12
-1.782228224e-12
-1.923469941e-12
-1.755301093e-12
-1.103956803e-12
-8.396488507e-13
-6.379314504e-13
-1.979068296e-12
-5.533672964e-13
-1.7526478e-10
-2.241240717e-10
-2.278360908e-10
-2.06649667e-10
-1.727845789e-10
-1.365634922e-10
-1.041855956e-10
-7.984071453e-11
-6.356954503e-11
-5.473946929e-11
-5.076531403e-11
-5.003488434e-11
-5.026301918e-11
-5.069561329e-11
-5.022515031e-11
-4.910964357e-11
-4.706262913e-11
-4.475526934e-11
-4.208992414e-11
-3.965409867e-11
-3.723030938e-11
-3.520585127e-11
-3.325460494e-11
-3.165035182e-11
-3.005607943e-11
-2.871825266e-11
-2.734009507e-11
-2.61668982e-11
-2.494231862e-11
-2.390266541e-11
-2.281672654e-11
-2.190163441e-11
-2.094180406e-11
-2.013330202e-11
-1.927473323e-11
-1.85447112e-11
-1.775760072e-11
-1.707870384e-11
-1.633887508e-11
-1.569250701e-11
-1.498597594e-11
-1.436356099e-11
-1.368523014e-11
-1.308535719e-11
-1.243553017e-11
-1.186050774e-11
-1.124190799e-11
-1.069538523e-11
-1.011133735e-11
-9.596997125e-12
-9.050609748e-12
-8.571796515e-12
-8.065893406e-12
-7.625559936e-12
-7.162370056e-12
-6.762492586e-12
-6.343075006e-12
-5.984539914e-12
-5.609382745e-12
-5.292957159e-12
-4.962430771e-12
-4.687941781e-12
-4.400378405e-12
-4.165084896e-12
-3.917197429e-12
-3.718784725e-12
-3.50946532e-12
-3.347388207e-12
-3.174455837e-12
-3.043703603e-12
-2.899860379e-12
-2.793976408e-12
-2.676435054e-12
-2.596579889e-12
-2.50653136e-12
-2.448883346e-12
-2.375571498e-12
-2.327152269e-12
-2.263965723e-12
-2.230054502e-12
-2.18941175e-12
-2.175709785e-12
-2.144266959e-12
-2.12163041e-12
-2.075899589e-12
-2.05057738e-12
-2.028022864e-12
-2.038193873e-12
-2.037763123e-12
-2.034643907e-12
-2.000248389e-12
-1.976690916e-12
-1.962397765e-12
-1.979887793e-12
-1.984969831e-12
-1.97397527e-12
-1.933948241e-12
-1.913144777e-12
-1.918122986e-12
-1.947437213e-12
-1.943696368e-12
-1.893675493e-12
-1.810105814e-12
-1.757852896e-12
-1.757186848e-12
-1.791584535e-12
-1.803839765e-12
-1.771770359e-12
-1.685565858e-12
-1.560286011e-12
-1.460474719e-12
-1.527923844e-12
-1.766202486e-12
-1.969678443e-12
-1.67243572e-12
-1.222964397e-12
-6.576215232e-13
-1.292100744e-12
-8.214332961e-13
-1.155922341e-12
-1.756956539e-10
-2.243087898e-10
-2.282887953e-10
-2.067667596e-10
-1.73098114e-10
-1.365679796e-10
-1.043872904e-10
-7.979435403e-11
-6.373234759e-11
-5.470060909e-11
-5.09277302e-11
-5.001358525e-11
-5.041726379e-11
-5.067013906e-11
-5.03490994e-11
-4.906100868e-11
-4.714703938e-11
-4.468152665e-11
-4.214062541e-11
-3.956362078e-11
-3.725785495e-11
-3.510733405e-11
-3.326711247e-11
-3.154914634e-11
-3.005839e-11
-2.861731429e-11
-2.733541973e-11
-2.606837142e-11
-2.493336049e-11
-2.380843261e-11
-2.280582382e-11
-2.181316892e-11
-2.093070866e-11
-2.005147136e-11
-1.926455066e-11
-1.846982726e-11
-1.774893151e-11
-1.701070448e-11
-1.633202209e-11
-1.563116209e-11
-1.498113216e-11
-1.430863441e-11
-1.368261049e-11
-1.303668411e-11
-1.243537334e-11
-1.18179398e-11
-1.124440134e-11
-1.065872377e-11
-1.011657391e-11
-9.565976779e-12
-9.058582006e-12
-8.546065285e-12
-8.07644872e-12
-7.604629557e-12
-7.175194657e-12
-6.74577417e-12
-6.357774801e-12
-5.971446039e-12
-5.625575766e-12
-5.282943138e-12
-4.979724211e-12
-4.680435515e-12
-4.418305218e-12
-4.159484619e-12
-3.935319719e-12
-3.714650878e-12
-3.527566722e-12
-3.344487921e-12
-3.192354553e-12
-3.041664881e-12
-2.917150351e-12
-2.792355054e-12
-2.692915837e-12
-2.595376679e-12
-2.522386126e-12
-2.448135085e-12
-2.390591342e-12
-2.326384721e-12
-2.277787034e-12
-2.229282012e-12
-2.202525089e-12
-2.175451477e-12
-2.156676095e-12
-2.121097028e-12
-2.08660766e-12
-2.049516719e-12
-2.038079941e-12
-2.038190132e-12
-2.047740576e-12
-2.034387294e-12
-2.008079497e-12
-1.975564475e-12
-1.969969803e-12
-1.980528208e-12
-1.992716873e-12
-1.973686896e-12
-1.938760464e-12
-1.91199406e-12
-1.923689413e-12
-1.948998437e-12
-1.949535567e-12
-1.893604043e-12
-1.812615515e-12
-1.757251863e-12
-1.761281813e-12
-1.793947575e-12
-1.807818023e-12
-1.77222241e-12
-1.687069935e-12
-1.560823501e-12
-1.463777708e-12
-1.523053329e-12
-1.784181299e-12
-1.922265084e-12
-1.773295228e-12
-1.097532037e-12
-8.616427324e-13
-5.200679728e-13
-2.137695351e-12
-4.674040411e-13
-1.757982364e-10
-2.246075695e-10
-2.284657825e-10
-2.070509415e-10
-1.732242907e-10
-1.367637896e-10
-1.044344993e-10
-7.991532617e-11
-6.373774003e-11
-5.479065233e-11
-5.092470133e-11
-5.009190155e-11
-5.040814062e-11
-5.072888019e-11
-5.032018737e-11
-4.908805303e-11
-4.709028675e-11
-4.467541489e-11
-4.205941954e-11
-3.953180781e-11
-3.716071575e-11
-3.505881407e-11
-3.316160037e-11
-3.149065201e-11
-2.994958054e-11
-2.855339021e-11
-2.722681441e-11
-2.600244342e-11
-2.48277386e-11
-2.374331356e-11
-2.270540428e-11
-2.175101636e-11
-2.08370124e-11
-1.999369278e-11
-1.917839044e-11
-1.841717141e-11
-1.767056793e-11
-1.696346454e-11
-1.626138353e-11
-1.558938897e-11
-1.491801255e-11
-1.427231303e-11
-1.36268038e-11
-1.300580468e-11
-1.238668489e-11
-1.179246805e-11
-1.120260612e-11
-1.063856875e-11
-1.008139832e-11
-9.550976649e-12
-9.029675602e-12
-8.535932031e-12
-8.05331879e-12
-7.598912665e-12
-7.157223355e-12
-6.743929483e-12
-6.344313612e-12
-5.972918269e-12
-5.615983513e-12
-5.287155878e-12
-4.973329448e-12
-4.686766178e-12
-4.414424647e-12
-4.167341909e-12
-3.933384419e-12
-3.723611932e-12
-3.52719361e-12
-3.35423488e-12
-3.193142451e-12
-3.051749913e-12
-2.918589957e-12
-2.802383539e-12
-2.694786819e-12
-2.605356893e-12
-2.524746743e-12
-2.458010253e-12
-2.393119174e-12
-2.335696586e-12
-2.280131434e-12
-2.238064541e-12
-2.205054375e-12
-2.18406721e-12
-2.159285157e-12
-2.128907065e-12
-2.088581196e-12
-2.056463266e-12
-2.040228997e-12
-2.045306118e-12
-2.050244456e-12
-2.040643425e-12
-2.00960944e-12
-1.980802184e-12
-1.971920211e-12
-1.986372026e-12
-1.995097689e-12
-1.978284843e-12
-1.939707974e-12
-1.915631904e-12
-1.925605868e-12
-1.953808204e-12
-1.951939556e-12
-1.896891338e-12
-1.813418279e-12
-1.759920765e-12
-1.763537403e-12
-1.79795634e-12
-1.810341783e-12
-1.774666287e-12
-1.688376094e-12
-1.563382788e-12
-1.464040884e-12
-1.530293087e-12
-1.765462959e-12
-1.978760452e-12
-1.669806057e-12
-1.243011754e-12
-6.403633468e-13
-1.401065983e-12
-6.408047833e-13
-1.233018095e-12
-1.759998033e-10
-2.248173673e-10
-2.287462004e-10
-2.072568948e-10
-1.734351267e-10
-1.368764051e-10
-1.04546566e-10
-7.995137618e-11
-6.379310426e-11
-5.479629536e-11
-5.096108208e-11
-5.008857079e-11
-5.043159444e-11
-5.071018691e-11
-5.031876676e-11
-4.904159969e-11
-4.705571028e-11
-4.459831939e-11
-4.199428887e-11
-3.943037221e-11
-3.70736045e-11
-3.494200738e-11
-3.306122088e-11
-3.136604858e-11
-2.984261933e-11
-2.842650969e-11
-2.711815114e-11
-2.587736008e-11
-2.472106626e-11
-2.362312363e-11
-2.260350029e-11
-2.163793723e-11
-2.074176668e-11
-1.988908717e-11
-1.909087905e-11
-1.832167246e-11
-1.759123633e-11
-1.687719303e-11
-1.619027748e-11
-1.551218482e-11
-1.485499655e-11
-1.420392196e-11
-1.35716947e-11
-1.294594965e-11
-1.233926965e-11
-1.17408442e-11
-1.116263559e-11
-1.059484231e-11
-1.004858455e-11
-9.514760427e-12
-9.003629575e-12
-8.506702477e-12
-8.03348832e-12
-7.576004053e-12
-7.142951782e-12
-6.7266264e-12
-6.334917551e-12
-5.960484884e-12
-5.61073503e-12
-5.278804538e-12
-4.971458076e-12
-4.681710914e-12
-4.415205177e-12
-4.164890164e-12
-3.936214665e-12
-3.723216138e-12
-3.531601289e-12
-3.355424154e-12
-3.198639522e-12
-3.053974107e-12
-2.924639235e-12
-2.805205996e-12
-2.701170943e-12
-2.608753648e-12
-2.5315024e-12
-2.461852222e-12
-2.39985011e-12
-2.339415271e-12
-2.286413222e-12
-2.241655554e-12
-2.211316116e-12
-2.188005198e-12
-2.16552339e-12
-2.132505961e-12
-2.093889847e-12
-2.059430047e-12
-2.045377302e-12
-2.048882792e-12
-2.05568669e-12
-2.043802603e-12
-2.013686071e-12
-1.983020313e-12
-1.976086695e-12
-1.989772337e-12
-1.999799289e-12
-1.980830957e-12
-1.942401078e-12
-1.917109451e-12
-1.928954653e-12
-1.957115851e-12
-1.955978472e-12
-1.899045019e-12
-1.815307371e-12
-1.761346447e-12
-1.766688441e-12
-1.801520298e-12
-1.813870605e-12
-1.776395921e-12
-1.689722485e-12
-1.564785259e-12
-1.468615114e-12
-1.526837852e-12
-1.788947289e-12
-1.918906267e-12
-1.787246118e-12
-1.09372997e-12
-8.929015234e-13
-4.129613153e-13
-2.310668338e-12
-3.871440696e-13
-1.761744991e-10
-2.250881559e-10
-2.290095106e-10
-2.075251535e-10
-1.736361805e-10
-1.370442979e-10
-1.046420023e-10
-8.002563974e-11
-6.382057963e-11
-5.482419153e-11
-5.096177842e-11
-5.009824219e-11
-5.0418254e-11
-5.070183209e-11
-5.02833079e-11
-4.900458543e-11
-4.698908871e-11
-4.452793419e-11
-4.189667965e-11
-3.933107535e-11
-3.69523104e-11
-3.482261997e-11
-3.292532913e-11
-3.123530671e-11
-2.969996688e-11
-2.829138264e-11
-2.69746795e-11
-2.574302324e-11
-2.45811299e-11
-2.349334656e-11
-2.247021976e-11
-2.151536431e-11
-2.061723571e-11
-1.977540151e-11
-1.897631052e-11
-1.821775901e-11
-1.748714273e-11
-1.678334466e-11
-1.609669764e-11
-1.542833865e-11
-1.477172389e-11
-1.412985289e-11
-1.349841456e-11
-1.288134975e-11
-1.227560335e-11
-1.168535076e-11
-1.110817063e-11
-1.054807001e-11
-1.000288389e-11
-9.476263073e-12
-8.966150714e-12
-8.475883318e-12
-8.003534035e-12
-7.552139328e-12
-7.119752327e-12
-6.708958012e-12
-6.317680058e-12
-5.948202373e-12
-5.598587485e-12
-5.271016201e-12
-4.963493406e-12
-4.677558353e-12
-4.410617566e-12
-4.163647802e-12
-3.934330335e-12
-3.72426088e-12
-3.531811953e-12
-3.35815713e-12
-3.200333315e-12
-3.057798709e-12
-2.927279652e-12
-2.809727026e-12
-2.704534548e-12
-2.613877795e-12
-2.535483284e-12
-2.467318789e-12
-2.403985708e-12
-2.34469998e-12
-2.290366923e-12
-2.246803605e-12
-2.21544265e-12
-2.193334391e-12
-2.169712776e-12
-2.137413538e-12
-2.097460203e-12
-2.063767254e-12
-2.048920009e-12
-2.053465353e-12
-2.059379369e-12
-2.047847691e-12
-2.016480419e-12
-1.986357949e-12
-1.979044063e-12
-1.993699721e-12
-2.003014184e-12
-1.98394939e-12
-1.944342247e-12
-1.919452271e-12
-1.931371785e-12
-1.960454939e-12
-1.958824003e-12
-1.901546336e-12
-1.816916206e-12
-1.763372694e-12
-1.769190571e-12
-1.804716192e-12
-1.816449796e-12
-1.778303673e-12
-1.691053397e-12
-1.566988006e-12
-1.469417199e-12
-1.536177493e-12
-1.766100381e-12
-1.984713136e-12
-1.662796613e-12
-1.261560327e-12
-6.262733505e-13
-1.518656993e-12
-4.686267595e-13
-1.315413049e-12
-1.764101547e-10
-2.253896596e-10
-2.293324536e-10
-2.078036159e-10
-1.738628077e-10
-1.371951241e-10
-1.047417793e-10
-8.007212947e-11
-6.384449924e-11
-5.482324708e-11
-5.095844694e-11
-5.008291147e-11
-5.040379496e-11
-5.067355064e-11
-5.024973492e-11
-4.895134298e-11
-4.692523864e-11
-4.44422114e-11
-4.179978049e-11
-3.921457157e-11
-3.682752046e-11
-3.46828312e-11
-3.278139782e-11
-3.108142085e-11
-2.954592839e-11
-2.813181922e-11
-2.681815611e-11
-2.558439846e-11
-2.442778957e-11
-2.334034667e-11
-2.232392809e-11
-2.137107036e-11
-2.048044817e-11
-1.964168137e-11
-1.885042962e-11
-1.809557283e-11
-1.737279248e-11
-1.667299823e-11
-1.5993976e-11
-1.532973697e-11
-1.468043656e-11
-1.404268885e-11
-1.341820891e-11
-1.280519167e-11
-1.220602704e-11
-1.161970262e-11
-1.104873953e-11
-1.049242401e-11
-9.953087289e-12
-9.430042689e-12
-8.925352312e-12
-8.438358887e-12
-7.970954173e-12
-7.522488039e-12
-7.094570087e-12
-6.686338393e-12
-6.299027656e-12
-5.931681207e-12
-5.585480549e-12
-5.259579062e-12
-4.954950356e-12
-4.670287653e-12
-4.405801961e-12
-4.159759019e-12
-3.932486146e-12
-3.723007949e-12
-3.532215496e-12
-3.358847985e-12
-3.202334724e-12
-3.059829627e-12
-2.930347659e-12
-2.812680434e-12
-2.708393916e-12
-2.617582607e-12
-2.539955641e-12
-2.471459198e-12
-2.408580065e-12
-2.348734865e-12
-2.294738699e-12
-2.250778138e-12
-2.21997584e-12
-2.197624018e-12
-2.174338616e-12
-2.141368608e-12
-2.101341831e-12
-2.067062736e-12
-2.052620314e-12
-2.057104178e-12
-2.063335051e-12
-2.051106462e-12
-2.019395186e-12
-1.988728417e-12
-1.981927422e-12
-1.996826733e-12
-2.00637232e-12
-1.986448268e-12
-1.946198326e-12
-1.920892883e-12
-1.933499502e-12
-1.963108349e-12
-1.961653252e-12
-1.903539537e-12
-1.81827047e-12
-1.7646256e-12
-1.77130481e-12
-1.807398451e-12
-1.818930881e-12
-1.779653351e-12
-1.691604281e-12
-1.567611823e-12
-1.473885692e-12
-1.531586877e-12
-1.793355947e-12
-1.913367403e-12
-1.797416463e-12
-1.08691875e-12
-9.239545741e-13
-3.079840685e-13
-2.491361046e-12
-3.076615682e-13
-1.766425601e-10
-2.257020753e-10
-2.296524053e-10
-2.080979784e-10
-1.740939299e-10
-1.373611308e-10
-1.048380665e-10
-8.012136675e-11
-6.38537224e-11
-5.481507341e-11
-5.093515149e-11
-5.005807959e-11
-5.03718007e-11
-5.063996172e-11
-5.020477852e-11
-4.889802697e-11
-4.685455658e-11
-4.435844637e-11
-4.169661312e-11
-3.909811922e-11
-3.669377629e-11
-3.453886881e-11
-3.262465383e-11
-3.091895784e-11
-2.937587075e-11
-2.796052755e-11
-2.664388772e-11
-2.541247942e-11
-2.425635235e-11
-2.317368563e-11
-2.216005347e-11
-2.12134273e-11
-2.032702948e-11
-1.949527062e-11
-1.870909117e-11
-1.796155809e-11
-1.724428736e-11
-1.655182592e-11
-1.587847712e-11
-1.522139538e-11
-1.457776018e-11
-1.394688845e-11
-1.332794619e-11
-1.272146024e-11
-1.2127633e-11
-1.15474804e-11
-1.098162786e-11
-1.043112829e-11
-9.896632093e-12
-9.379004308e-12
-8.878800336e-12
-8.396764976e-12
-7.933439409e-12
-7.489464655e-12
-7.065204937e-12
-6.660982223e-12
-6.276851177e-12
-5.912965435e-12
-5.569407376e-12
-5.246415185e-12
-4.943939378e-12
-4.661719478e-12
-4.398968582e-12
-4.154938141e-12
-3.9289808e-12
-3.721080533e-12
-3.531205859e-12
-3.359041338e-12
-3.203131062e-12
-3.061542479e-12
-2.932436741e-12
-2.815488209e-12
-2.71143434e-12
-2.621189712e-12
-2.543628371e-12
-2.475459941e-12
-2.412403105e-12
-2.352685385e-12
-2.298479021e-12
-2.254753459e-12
-2.22391486e-12
-2.201815067e-12
-2.178284362e-12
-2.145178855e-12
-2.104657249e-12
-2.070316375e-12
-2.055766567e-12
-2.060491804e-12
-2.066533391e-12
-2.054072782e-12
-2.021804998e-12
-1.991034619e-12
-1.98426828e-12
-1.999486991e-12
-2.008863499e-12
-1.988539101e-12
-1.947659613e-12
-1.922247124e-12
-1.93506802e-12
-1.96509477e-12
-1.963555914e-12
-1.905042305e-12
-1.819277367e-12
-1.765697478e-12
-1.772769185e-12
-1.809215883e-12
-1.820504427e-12
-1.780436782e-12
-1.691860944e-12
-1.569005693e-12
-1.473614192e-12
-1.541310207e-12
-1.765821602e-12
-1.988251222e-12
-1.652136401e-12
-1.276703944e-12
-6.100237442e-13
-1.637723413e-12
-2.954836044e-13
-1.39944756e-12
-1.769090007e-10
-2.26048241e-10
-2.300080061e-10
-2.084070076e-10
-1.743318059e-10
-1.375162057e-10
-1.049239395e-10
-8.014862155e-11
-6.384553121e-11
-5.478137943e-11
-5.089277063e-11
-5.000849097e-11
-5.032221493e-11
-5.058486619e-11
-5.014585593e-11
-4.88280492e-11
-4.677463019e-11
-4.426287671e-11
-4.158784794e-11
-3.897246985e-11
-3.655503711e-11
-3.438505806e-11
-3.246050919e-11
-3.074384449e-11
-2.919485021e-11
-2.777369242e-11
-2.645587202e-11
-2.522342065e-11
-2.406994879e-11
-2.298976076e-11
-2.198130111e-11
-2.1039362e-11
-2.01595422e-11
-1.933371994e-11
-1.855478411e-11
-1.781382688e-11
-1.710401096e-11
-1.641838467e-11
-1.575243095e-11
-1.510220927e-11
-1.446574735e-11
-1.384160049e-11
-1.322950464e-11
-1.262949911e-11
-1.204214371e-11
-1.146818225e-11
-1.090842586e-11
-1.036379728e-11
-9.8349949e-12
-9.322844411e-12
-8.827870901e-12
-8.350856703e-12
-7.892280935e-12
-7.452860832e-12
-7.032867912e-12
-6.632689077e-12
-6.25227438e-12
-5.891841819e-12
-5.55141188e-12
-5.231303961e-12
-4.931448537e-12
-4.651632236e-12
-4.391046137e-12
-4.14893442e-12
-3.924655761e-12
-3.718186122e-12
-3.52956434e-12
-3.358458887e-12
-3.203499842e-12
-3.062688384e-12
-2.934276888e-12
-2.817857574e-12
-2.714288748e-12
-2.624383431e-12
-2.547124794e-12
-2.479081566e-12
-2.416102496e-12
-2.356327317e-12
-2.302142185e-12
-2.258446286e-12
-2.227776158e-12
-2.205739276e-12
-2.182166757e-12
-2.148731545e-12
-2.107848953e-12
-2.073215301e-12
-2.058702879e-12
-2.06355501e-12
-2.069637319e-12
-2.056824105e-12
-2.024066091e-12
-1.992938325e-12
-1.986276393e-12
-2.001763438e-12
-2.011207755e-12
-1.990433199e-12
-1.948931503e-12
-1.923172762e-12
-1.936204988e-12
-1.966624892e-12
-1.965192222e-12
-1.906265314e-12
-1.819992621e-12
-1.766302642e-12
-1.773816184e-12
-1.810745817e-12
-1.821787643e-12
-1.780728277e-12
-1.691660103e-12
-1.568899429e-12
-1.477487003e-12
-1.534946203e-12
-1.796171128e-12
-1.905259073e-12
-1.804679713e-12
-1.077511434e-12
-9.528907914e-13
-1.999341778e-13
-2.674640823e-12
-2.259654842e-13
-1.771739291e-10
-2.263969326e-10
-2.303690005e-10
-2.087347214e-10
-1.745905519e-10
-1.37694619e-10
-1.05021444e-10
-8.018385482e-11
-6.383118087e-11
-5.473925842e-11
-5.083104186e-11
-4.994123546e-11
-5.024906335e-11
-5.051143747e-11
-5.006647232e-11
-4.874436954e-11
-4.668039472e-11
-4.415941842e-11
-4.147027005e-11
-3.884287268e-11
-3.641007336e-11
-3.422784591e-11
-3.228935076e-11
-3.056289047e-11
-2.90039186e-11
-2.75774299e-11
-2.625491601e-11
-2.502203768e-11
-2.386878628e-11
-2.279210099e-11
-2.178739641e-11
-2.085143854e-11
-1.997748105e-11
-1.915892256e-11
-1.83869486e-11
-1.765378372e-11
-1.695142934e-11
-1.627370183e-11
-1.561536536e-11
-1.497290843e-11
-1.434399973e-11
-1.372732682e-11
-1.312256132e-11
-1.252964556e-11
-1.194931015e-11
-1.138202625e-11
-1.082893825e-11
-1.029055538e-11
-9.768005818e-12
-9.261616697e-12
-8.772411935e-12
-8.300648525e-12
-7.847341151e-12
-7.412667955e-12
-6.997416088e-12
-6.601430212e-12
-6.225145899e-12
-5.868289458e-12
-5.531362442e-12
-5.214265549e-12
-4.917370582e-12
-4.64007463e-12
-4.381926271e-12
-4.141814298e-12
-3.91941591e-12
-3.714442193e-12
-3.527239943e-12
-3.357274039e-12
-3.203414098e-12
-3.063465328e-12
-2.935852373e-12
-2.820013615e-12
-2.716963098e-12
-2.627408582e-12
-2.550450606e-12
-2.482568544e-12
-2.419702648e-12
-2.359959209e-12
-2.305833923e-12
-2.262211637e-12
-2.2316467e-12
-2.209634012e-12
-2.18594454e-12
-2.152225943e-12
-2.111023982e-12
-2.076181835e-12
-2.061651508e-12
-2.066563091e-12
-2.072583531e-12
-2.059479654e-12
-2.026322672e-12
-1.994928907e-12
-1.988259473e-12
-2.003856804e-12
-2.013254288e-12
-1.992148149e-12
-1.950205424e-12
-1.92418333e-12
-1.93726026e-12
-1.967841587e-12
-1.966405099e-12
-1.907224668e-12
-1.820678785e-12
-1.766964645e-12
-1.774754988e-12
-1.811836614e-12
-1.822499417e-12
-1.780900416e-12
-1.691602321e-12
-1.569883821e-12
-1.476668257e-12
-1.545452151e-12
-1.763971092e-12
-1.98982462e-12
-1.639733047e-12
-1.290079025e-12
-5.920746651e-13
-1.757756146e-12
-1.176254949e-13
-1.484819815e-12
-1.774891317e-10
-2.268172747e-10
-2.308085382e-10
-2.091300965e-10
-1.749057479e-10
-1.379155758e-10
-1.051570537e-10
-8.024615231e-11
-6.384278648e-11
-5.471239829e-11
-5.078396727e-11
-4.987730842e-11
-5.017781706e-11
-5.042899151e-11
-4.997722965e-11
-4.864293712e-11
-4.657022363e-11
-4.4036325e-11
-4.133751694e-11
-3.86970215e-11
-3.625389234e-11
-3.405841681e-11
-3.21095813e-11
-3.037113098e-11
-2.880393569e-11
-2.736915341e-11
-2.6042696e-11
-2.48067155e-11
-2.365436023e-11
-2.257942001e-11
-2.157943776e-11
-2.064861838e-11
-1.978168666e-11
-1.897018247e-11
-1.820631814e-11
-1.748111748e-11
-1.678722941e-11
-1.611780996e-11
-1.546791254e-11
-1.483379061e-11
-1.421307139e-11
-1.360454949e-11
-1.300758512e-11
-1.242250405e-11
-1.184952153e-11
-1.128969432e-11
-1.074348837e-11
-1.021212407e-11
-9.695940542e-12
-9.196057982e-12
-8.712669851e-12
-8.246875647e-12
-7.798847115e-12
-7.369594036e-12