/*--------------------------------*- C++ -*----------------------------------*\
  =========                 |
  \\      /  F ield         | OpenFOAM: The Open Source CFD Toolbox
   \\    /   O peration     | Website:  https://openfoam.org
    \\  /    A nd           | Version:  6
     \\/     M anipulation  |
\*---------------------------------------------------------------------------*/
FoamFile
{
    version     2.0;
    format      ascii;
    class       volScalarField;
    location    "0.0018";
    object      Num_divU;
}
// * * * * * * * * * * * * * * * * * * * * * * * * * * * * * * * * * * * * * //

dimensions      [0 0 -1 0 0 0 0];

internalField   nonuniform List<scalar> 
600
(
5.418505284e-09
2.614998116e-10
-2.950832161e-09
-7.303478666e-09
-1.413956329e-08
-2.59270943e-08
-4.576692564e-08
-7.765941237e-08
-1.253668727e-07
-1.902840258e-07
-2.643771641e-07
-3.142214987e-07
-2.391231045e-07
8.919369757e-08
1.370804147e-06
1.113074771e-06
-4.11558829e-11
-5.502617556e-11
-9.737386659e-11
-6.715522141e-11
-1.536198587e-11
2.300217997e-11
3.407642074e-11
4.155113905e-12
7.903356925e-11
8.891926585e-11
1.175502103e-10
5.739457562e-11
-2.646991938e-11
1.151070177e-10
3.313960595e-10
-1.576950943e-09
-2.878556454e-09
-5.987572743e-09
-1.216475205e-08
-2.412578977e-08
-4.586666386e-08
-8.336177216e-08
-1.449719274e-07
-2.429233411e-07
-3.954701067e-07
-6.298687397e-07
-9.083223414e-07
-5.249033264e-07
2.99227997e-07
3.053791124e-06
-1.317842487e-11
-3.451520411e-11
-3.687710581e-11
-2.952734779e-11
-1.125295906e-11
8.384154208e-12
1.869543051e-11
1.454990592e-11
2.536091325e-11
4.254535063e-11
2.806032714e-11
2.087337601e-11
1.394701489e-11
5.7113342e-12
-3.675107913e-09
-2.822093521e-09
-2.503467527e-09
-4.497997628e-09
-9.99390949e-09
-2.179494423e-08
-4.434727813e-08
-8.410976801e-08
-1.496309282e-07
-2.512420791e-07
-4.011431623e-07
-6.199552602e-07
-1.191108307e-06
-1.951487592e-06
-2.805324393e-06
-7.986327077e-12
-2.130181348e-11
-2.754108173e-11
-2.998049632e-11
-2.520830767e-11
-1.414579348e-11
1.25759936e-12
1.313224745e-11
1.84175524e-11
2.907865959e-11
3.31419163e-11
2.798560868e-11
2.743343732e-11
1.401729333e-11
9.593107396e-12
-5.348255951e-09
-2.983898174e-09
-1.773489138e-09
-3.148352904e-09
-8.281442046e-09
-2.022927506e-08
-4.400732295e-08
-8.710140846e-08
-1.592406522e-07
-2.710302023e-07
-4.304004368e-07
-6.594761017e-07
-1.558855205e-06
-2.703629127e-06
-2.037080568e-06
-1.677893923e-11
-2.332111411e-11
-2.839553354e-11
-2.827670541e-11
-2.497280832e-11
-1.666020642e-11
-4.188463341e-12
8.875651839e-12
1.836619584e-11
2.711279531e-11
3.271129182e-11
3.007552579e-11
2.633863437e-11
1.738670557e-11
3.53211772e-12
-3.869651004e-09
-1.76085382e-09
-7.339811455e-10
-2.175502992e-09
-7.423207526e-09
-1.989648318e-08
-4.552169526e-08
-9.394015854e-08
-1.799617359e-07
-3.250970114e-07
-5.575100678e-07
-8.939547191e-07
-1.049659069e-06
-1.399578595e-06
-3.350078876e-07
-1.904972007e-11
-2.703717084e-11
-2.636891235e-11
-2.479227901e-11
-2.180037143e-11
-1.641455534e-11
-7.173320116e-12
4.972441932e-12
1.781101981e-11
2.829582921e-11
3.089077783e-11
2.725518938e-11
2.055668209e-11
1.014705934e-11
5.744591613e-12
9.857456335e-10
8.215284593e-10
4.776266788e-10
-1.747483855e-09
-7.405352381e-09
-2.003326243e-08
-4.563456691e-08
-9.393382201e-08
-1.798865956e-07
-3.252751221e-07
-5.584997429e-07
-8.972583312e-07
-1.058225988e-06
-1.413712933e-06
-3.268450996e-07
-1.800555937e-11
-1.97807788e-11
-2.315119758e-11
-1.992444063e-11
-1.716804701e-11
-1.41552935e-11
-7.683099826e-12
3.661401271e-12
1.644574108e-11
2.563663552e-11
2.668707617e-11
1.913825932e-11
1.010819638e-11
3.869226961e-12
-6.035699386e-12
8.597328235e-09
4.292774806e-09
1.475352522e-09
-2.231868458e-09
-8.660688953e-09
-2.119917713e-08
-4.504083309e-08
-8.781745297e-08
-1.595844604e-07
-2.715813811e-07
-4.328923509e-07
-6.66892967e-07
-1.587524598e-06
-2.741956626e-06
-1.984830105e-06
-9.664543974e-12
-1.72371941e-11
-9.614196306e-12
-9.156358988e-12
-9.461294383e-12
-9.600412289e-12
-5.550247265e-12
3.643351471e-12
1.606034711e-11
2.287095427e-11
1.713451831e-11
3.709427193e-12
-5.336731886e-12
-1.617889627e-11
-4.152183983e-12
1.742832751e-08
7.671213463e-09
1.603544168e-09
-4.206102912e-09
-1.205561436e-08
-2.526398451e-08
-4.839155093e-08
-8.784098436e-08
-1.522110037e-07
-2.525673427e-07
-4.033117023e-07
-6.308349837e-07
-1.233858423e-06
-2.048878189e-06
-3.198788831e-06
-5.618498445e-12
8.607399266e-12
-1.537738521e-11
-3.571310031e-12
-1.148765981e-12
-3.456244452e-12
-2.62045029e-12
4.807406611e-12
1.429767948e-11
1.425842425e-11
4.0368657e-12
-6.128635442e-12
-2.343462172e-11
-7.253526645e-13
-2.686889314e-11
2.49113389e-08
9.423809487e-09
3.068757515e-12
-8.183828571e-09
-1.805233e-08
-3.287155796e-08
-5.652212052e-08
-9.417852205e-08
-1.532034698e-07
-2.45079843e-07
-3.891951419e-07
-6.173939734e-07
-9.097606104e-07
-7.083642493e-07
-1.927285022e-07
3.017207915e-06
-2.754917911e-11
-3.511769433e-12
-9.160908693e-12
-1.593612042e-12
-1.81586751e-12
-1.332419396e-12
5.673256291e-12
1.161927727e-11
1.211792762e-11
6.808003695e-12
-2.265929038e-11
1.123833887e-11
-3.29224111e-11
3.962819431e-12
2.736958463e-08
7.432084374e-09
-4.355187163e-09
-1.456578736e-08
-2.671763017e-08
-4.377304751e-08
-6.825038494e-08
-1.021936424e-07
-1.465356149e-07
-1.996864557e-07
-2.534028603e-07
-2.797322759e-07
-1.904049662e-07
1.149347776e-07
1.385981953e-06
2.034501288e-07
-2.471107807e-12
-2.790436366e-11
-1.313140966e-11
-1.732017345e-12
-1.644867451e-12
-4.359868481e-13
5.779199295e-12
1.42644207e-11
1.656616668e-11
-8.533458173e-12
3.880941711e-12
-1.27121433e-11
1.775956357e-12
-4.059327751e-11
1.950302139e-08
-1.098550178e-09
-1.258533025e-08
-2.369821783e-08
-3.821985981e-08
-5.851189049e-08
-8.550098471e-08
-1.177414784e-07
-1.493363223e-07
-1.673476254e-07
-1.493446329e-07
-5.800829354e-08
1.752679525e-07
6.60620805e-07
6.460182121e-07
3.790258792e-07
-3.795713874e-06
-1.094445661e-11
6.11674404e-13
5.738868782e-12
2.122973572e-12
1.602870583e-12
8.862214113e-12
1.691172431e-11
1.248026551e-11
8.886303142e-14
4.106536342e-12
9.090918918e-18
-4.167835908e-06
-6.650098255e-12
-6.31528519e-09
-1.927340294e-08
-2.534264071e-08
-3.559048396e-08
-5.265872517e-08
-7.788623019e-08
-1.109674794e-07
-1.479467497e-07
-1.775967218e-07
-1.786784618e-07
-1.263604005e-07
-1.424925062e-08
9.220939638e-08
2.197604946e-07
8.169720258e-07
3.159506445e-06
6.279279971e-06
1.20188322e-05
-1.295212195e-12
4.364492866e-12
2.452902446e-12
3.202179659e-12
1.077216012e-11
1.844062229e-11
1.489263872e-11
1.039080083e-11
2.473713418e-12
3.954708704e-06
-3.661645313e-08
-2.76412738e-06
-7.740232089e-08
-5.298271562e-08
-4.173876684e-08
-4.939823521e-08
-6.985247063e-08
-1.02339754e-07
-1.460699168e-07
-1.962112347e-07
-2.370265335e-07
-2.319142114e-07
-1.272409479e-07
1.216090152e-07
3.294604724e-07
6.484527605e-07
1.967008054e-06
3.595590007e-06
7.382165829e-06
7.639952618e-06
-9.922492666e-12
1.962977671e-12
2.100637162e-12
4.221235346e-12
1.081389341e-11
1.870686306e-11
1.519505176e-11
8.195369428e-12
3.278901634e-12
-6.282093638e-07
3.379933432e-07
1.182798231e-07
-8.132044739e-08
-5.757261842e-08
-4.951608848e-08
-6.190209888e-08
-8.957471673e-08
-1.324802369e-07
-1.912962146e-07
-2.641768895e-07
-3.376976891e-07
-3.618572059e-07
-2.331411844e-07
2.681034692e-07
5.701913283e-07
2.228964197e-06
4.14978741e-06
4.098688456e-06
1.279976672e-06
-2.118091857e-11
-4.069540111e-12
2.352630081e-12
1.863302406e-12
4.043310464e-12
1.037953175e-11
1.468984071e-11
1.309065051e-11
7.411373596e-12
1.631718236e-12
3.145942875e-13
3.186366475e-06
-4.151246834e-12
-2.336693222e-08
-3.534950607e-08
-4.986300079e-08
-7.484155682e-08
-1.144396994e-07
-1.709484577e-07
-2.465801067e-07
-3.452920822e-07
-4.720271335e-07
-5.893733117e-07
-5.929085354e-07
-1.500882163e-07
5.518476568e-07
2.506730168e-06
-4.770515916e-07
-1.254001404e-11
-1.268336867e-11
-1.178287032e-11
-2.601095164e-12
3.548511923e-13
1.203854615e-12
3.055332506e-12
9.186704854e-12
1.276770691e-11
1.05724626e-11
4.07690923e-12
-7.799305685e-13
-1.878253127e-11
-1.906156711e-11
-1.816471516e-11
-1.131128959e-08
-2.922225205e-08
-5.568902833e-08
-9.439681795e-08
-1.507747126e-07
-2.261592621e-07
-3.182209533e-07
-4.276117227e-07
-5.875031445e-07
-8.266503422e-07
-1.360020557e-06
-1.386553268e-06
1.117530078e-06
2.667016081e-06
-3.630887807e-12
-5.136013421e-12
-1.22019723e-11
-7.697118517e-12
-1.906381356e-12
8.878901219e-14
3.690449035e-15
2.109148041e-12
7.397239676e-12
1.122221573e-11
9.730797717e-12
2.714913157e-12
-4.792709717e-12
-1.465892263e-11
-1.916464165e-11
-8.945401775e-12
-7.562019041e-09
-2.877477312e-08
-6.647339824e-08
-1.225182772e-07
-2.052406417e-07
-3.154996476e-07
-4.377626168e-07
-5.26904951e-07
-5.665646313e-07
-9.773924921e-07
-2.22383679e-06
-4.068011676e-06
-2.656813668e-12
-4.317023119e-12
-6.64706746e-12
-7.931252269e-12
-8.385997764e-12
-4.593362688e-12
-2.391634934e-12
-2.716265228e-13
-1.294395933e-12
1.633351649e-12
5.488512361e-12
1.078932519e-11
9.629368737e-12
4.445301842e-12
-5.338517085e-12
-1.24833678e-11
-1.288431745e-11
-7.382313152e-12
-6.035285817e-09
-2.973787876e-08
-7.812635248e-08
-1.543461753e-07
-2.758840934e-07
-4.576189052e-07
-6.980398477e-07
-9.291770259e-07
-1.011022596e-06
-5.852609003e-07
8.290172041e-08
9.530409997e-14
-9.669353656e-13
-5.906510875e-12
-7.519593371e-12
-9.335524557e-12
-8.8958873e-12
-6.61934403e-12
-3.028811086e-12
-2.254312693e-12
-1.569349068e-12
-1.742385042e-13
5.123115725e-12
9.949485568e-12
1.15904656e-11
6.364527685e-12
-8.231124747e-13
-7.895847079e-12
-7.943493518e-12
-4.69636552e-12
-4.475835542e-09
-2.839805714e-08
-8.30384337e-08
-1.729969643e-07
-3.268781758e-07
-5.85652518e-07
-1.006128886e-06
-1.561790262e-06
-1.41911594e-06
-5.230320589e-07
2.407518542e-06
-3.868650422e-13
-2.413606081e-12
-7.098298375e-12
-9.987010262e-12
-1.199054956e-11
-1.02688021e-11
-7.7376379e-12
-4.30614006e-12
-3.412437997e-12
-2.424031977e-12
-4.461130986e-13
5.37541371e-12
1.102429301e-11
1.356036427e-11
9.018935692e-12
2.590661811e-12
-3.747040508e-12
-3.751499924e-12
-2.11703239e-12
-2.107332259e-09
-2.211944921e-08
-7.3900261e-08
-1.585961204e-07
-3.019207198e-07
-5.392314819e-07
-9.289508592e-07
-1.99503192e-06
-2.973156011e-06
-3.285544775e-06
-3.795287827e-13
-4.695235614e-13
-2.830499535e-12
-4.742007681e-12
-6.26065458e-12
-5.837030911e-12
-5.020401352e-12
-3.017761765e-12
-2.208345976e-12
-1.543570337e-12
-1.213497246e-12
1.245926319e-12
4.442669931e-12
7.333486193e-12
6.557741198e-12
3.928554885e-12
1.060090084e-13
-1.352014907e-12
-9.379580922e-13
4.866142659e-13
)
;

boundaryField
{
    lowerWall
    {
        type            calculated;
        value           nonuniform 0();
    }
    atmosphere
    {
        type            calculated;
        value           nonuniform List<scalar> 
20
(
5.418505284e-09
3.313960595e-10
-3.675107913e-09
-5.348255951e-09
-3.869651004e-09
9.857456335e-10
8.597328235e-09
1.742832751e-08
2.49113389e-08
2.736958463e-08
1.950302139e-08
-6.31528519e-09
-7.740232089e-08
-8.132044739e-08
-2.336693222e-08
-1.131128959e-08
-7.562019041e-09
-6.035285817e-09
-4.475835542e-09
-2.107332259e-09
)
;
    }
    rightWall
    {
        type            empty;
    }
    leftWall
    {
        type            empty;
    }
    frontAndBack
    {
        type            calculated;
        value           nonuniform List<scalar> 
30
(
-2.107332259e-09
-2.211944921e-08
-7.3900261e-08
-1.585961204e-07
-3.019207198e-07
-5.392314819e-07
-9.289508592e-07
-1.99503192e-06
-2.973156011e-06
-3.285544775e-06
-3.795287827e-13
-4.695235614e-13
-2.830499535e-12
-4.742007681e-12
-6.26065458e-12
-5.837030911e-12
-5.020401352e-12
-3.017761765e-12
-2.208345976e-12
-1.543570337e-12
-1.213497246e-12
1.245926319e-12
4.442669931e-12
7.333486193e-12
6.557741198e-12
3.928554885e-12
1.060090084e-13
-1.352014907e-12
-9.379580922e-13
4.866142659e-13
)
;
    }
    procBoundary4to2
    {
        type            processor;
        value           nonuniform List<scalar> 
30
(
1.023222573e-08
2.131554835e-09
-2.842217223e-09
-8.211977909e-09
-1.554912021e-08
-2.686132353e-08
-4.44943716e-08
-7.029307864e-08
-1.043798385e-07
-1.408992714e-07
-1.610397155e-07
-1.198511261e-07
6.870303243e-08
4.868214295e-07
7.421682113e-07
7.712473601e-07
-2.258218505e-06
-9.069950639e-11
-6.832242736e-11
-3.549201993e-11
-3.471857438e-12
1.790893064e-11
1.213303274e-11
2.748152061e-11
2.129314493e-11
1.353250277e-10
6.68511154e-11
1.335017353e-11
1.466014475e-06
-6.599761768e-11
)
;
    }
    procBoundary4to5
    {
        type            processor;
        value           nonuniform List<scalar> 
20
(
-5.7765861e-11
-1.803531691e-12
-4.359937158e-12
4.556387384e-12
5.067142329e-13
2.609103525e-12
-1.324372084e-11
-4.577500478e-12
-4.093351979e-11
-6.811142733e-12
-5.107220255e-12
1.21540729e-11
1.526177917e-11
-1.960698027e-11
-6.780328986e-12
-9.651745952e-12
-6.18267653e-12
-3.934563694e-12
-7.463736674e-13
3.649182772e-13
)
;
    }
}


// ************************************************************************* //
