/*--------------------------------*- C++ -*----------------------------------*\
  =========                 |
  \\      /  F ield         | OpenFOAM: The Open Source CFD Toolbox
   \\    /   O peration     | Website:  https://openfoam.org
    \\  /    A nd           | Version:  6
     \\/     M anipulation  |
\*---------------------------------------------------------------------------*/
FoamFile
{
    version     2.0;
    format      ascii;
    class       surfaceScalarField;
    location    "0.0018";
    object      phi;
}
// * * * * * * * * * * * * * * * * * * * * * * * * * * * * * * * * * * * * * //

dimensions      [0 3 -1 0 0 0 0];

internalField   nonuniform List<scalar> 
1150
(
-4.085798721e-19
3.743355075e-20
-4.136166337e-19
4.8475473e-20
-4.220351671e-19
6.915044779e-20
-4.353092087e-19
1.004244961e-19
-4.558666153e-19
1.455802773e-19
-4.878977614e-19
2.103165285e-19
-5.380672634e-19
3.028396951e-19
-6.163835782e-19
4.335282185e-19
-7.366561701e-19
6.135106229e-19
-9.158507041e-19
8.509845774e-19
-1.169748674e-18
1.143305281e-18
-1.49853927e-18
1.460850233e-18
-1.840847493e-18
1.713673165e-18
-1.989304626e-18
1.676206152e-18
-9.584091704e-19
7.547457716e-19
-3.39073877e-20
9.145647199e-33
6.378936502e-20
7.336203773e-20
8.068623596e-20
2.707190432e-20
7.801260208e-20
-5.418594754e-21
4.747514784e-20
-3.220555462e-20
2.293653009e-20
-4.129813968e-20
4.460941946e-21
-4.138656694e-20
-9.780625132e-21
-3.715076267e-20
-2.49389865e-20
-3.074384501e-20
-3.983941041e-20
-1.976045661e-20
-4.730758524e-20
-1.459782552e-21
-9.255760657e-22
2.402257836e-20
1.113843637e-19
1.690473011e-20
3.233794961e-19
-9.89926009e-20
1.682719078e-19
-3.829393168e-19
3.798277487e-20
-3.836588775e-19
4.849416661e-20
-3.837436261e-19
6.795583803e-20
-3.829582118e-19
9.69779383e-20
-3.811453767e-19
1.383608858e-19
-3.787859508e-19
1.972345293e-19
-3.775454379e-19
2.812139982e-19
-3.812307426e-19
4.001638467e-19
-3.971916297e-19
5.650395422e-19
-4.390547993e-19
7.848818176e-19
-5.32452787e-19
1.060938777e-18
-7.278164352e-19
1.376272219e-18
-1.095044384e-18
1.677202295e-18
-1.455071913e-18
1.802943314e-18
-1.573124646e-18
1.005788726e-18
-8.723270626e-20
-1.286514393e-19
1.749923164e-20
-3.137575724e-20
4.819573703e-20
-3.639941167e-21
5.122564228e-20
-8.464889826e-21
3.83825629e-20
-1.937559851e-20
2.284810286e-20
-2.576868095e-20
8.696746172e-21
-2.723148396e-20
-3.373707438e-21
-2.507199998e-20
-1.395559815e-20
-2.015548768e-20
-2.153873641e-20
-1.216604683e-20
-2.18252244e-20
-1.154385512e-21
-8.04342431e-21
1.025324952e-20
-4.512967327e-21
1.338355018e-20
-1.217482082e-19
1.824883865e-20
5.519046105e-20
-3.580651888e-19
3.565114003e-20
-3.550652264e-19
4.423994044e-20
-3.478845766e-19
5.966253595e-20
-3.346331436e-19
8.172739521e-20
-3.126206742e-19
1.119066788e-19
-2.785816375e-19
1.535088507e-19
-2.28887354e-19
2.118098133e-19
-1.599360941e-19
2.938304677e-19
-6.853067913e-20
4.071314924e-19
4.813363817e-20
5.565543539e-19
1.93559868e-19
7.372266975e-19
3.723486453e-19
9.219477698e-19
4.781559108e-19
1.042013559e-18
4.440425086e-19
9.69728897e-19
2.030203919e-19
-2.738830774e-33
7.338665378e-20
9.78749306e-22
4.523504776e-20
-3.233618695e-21
4.337078837e-20
-1.787922256e-21
4.031493356e-20
-5.422359681e-21
3.198948048e-20
-1.106134912e-20
2.138529984e-20
-1.517078733e-20
1.085623013e-20
-1.670185531e-20
1.542804897e-21
-1.575273819e-20
-5.966157297e-21
-1.263833991e-20
-1.052707508e-20
-7.592205203e-21
-1.041758936e-20
-1.249141488e-21
-4.913123648e-21
4.761221854e-21
3.523211772e-22
8.130297994e-21
7.785637756e-21
1.082175198e-20
1.288597606e-20
-3.368363811e-19
3.194340347e-20
-3.316630399e-19
3.774042224e-20
-3.200854631e-19
4.729674179e-20
-2.989713851e-19
5.921404928e-20
-2.637015451e-19
7.295619789e-20
-2.082207841e-19
8.903730083e-20
-1.251598347e-19
1.091900538e-19
-6.37537097e-21
1.363342669e-19
1.561201185e-19
1.738623798e-19
3.691602605e-19
2.230563443e-19
6.389423878e-19
2.761554875e-19
9.673907882e-19
3.003988799e-19
1.109830907e-18
2.067489054e-19
1.046024604e-18
-1.680777432e-19
1.40655463e-19
-1.48250904e-32
6.917428567e-20
7.245246928e-20
4.668074414e-20
1.92495579e-20
3.973635089e-20
5.143850753e-21
3.467594405e-20
-3.745202688e-22
2.788004224e-20
-4.276546331e-21
1.985423184e-20
-7.15238147e-21
1.18053472e-20
-8.654832216e-21
4.657203198e-21
-8.600649453e-21
-9.200225937e-22
-7.052951363e-21
-4.18401136e-21
-4.316166305e-21
-4.407226012e-21
-1.011388485e-21
-1.544047508e-21
1.91141025e-21
3.043775178e-21
3.554181368e-21
9.849861803e-21
4.023392783e-21
2.464676229e-21
-3.209595865e-19
2.894569496e-20
-3.158747267e-19
3.18729608e-20
-3.041468907e-19
3.524269191e-20
-2.820510346e-19
3.615130295e-20
-2.440073705e-19
3.161333049e-20
-1.825874812e-19
1.877453002e-20
-8.884297207e-20
-4.786319902e-21
4.620450742e-20
-4.046439416e-20
2.276413262e-19
-8.755743279e-20
4.478520004e-19
-1.416418907e-19
6.688641181e-19
-1.926388825e-19
7.954184493e-19
-2.234686602e-19
7.472336805e-19
-2.11581468e-19
9.367217382e-20
-1.365511676e-19
-5.522022077e-20
3.822127846e-33
1.597137439e-20
1.252407583e-21
3.257503704e-20
2.633878735e-21
3.421797993e-20
3.48918834e-21
3.077391804e-20
3.058522836e-21
2.500420715e-20
1.483475503e-21
1.835178112e-20
-5.072508032e-22
1.185952997e-20
-2.165769206e-21
6.204901309e-21
-2.943810817e-21
1.816762461e-21
-2.656896506e-21
-8.79233548e-22
-1.607594372e-21
-1.484427282e-21
-3.924655158e-22
9.87236069e-23
3.403727783e-22
3.512986603e-21
1.490546753e-22
8.291145258e-21
-7.502560686e-22
-1.492391373e-21
-3.104057534e-19
2.894515168e-20
-3.080213586e-19
2.985368976e-20
-3.010728449e-19
2.85064567e-20
-2.860155302e-19
2.03173288e-20
-2.57370372e-19
-3.230954499e-22
-2.076015578e-19
-3.989795641e-20
-1.27237164e-19
-1.054327436e-19
-6.070988894e-21
-2.033789347e-19
1.632196351e-19
-3.367976553e-19
3.764147811e-19
-4.994037583e-19
5.998102341e-19
-6.642564445e-19
7.415900493e-19
-7.640299581e-19
7.196747299e-19
-6.599888125e-19
9.129667603e-20
-1.364899756e-19
-5.396781343e-20
2.219246301e-32
1.735284562e-20
-7.007625394e-20
3.343034679e-20
-1.345241389e-20
3.378731458e-20
3.121931131e-21
2.919887083e-20
7.638111276e-21
2.301348094e-20
7.661235153e-21
1.669326279e-20
5.806676101e-21
1.10814884e-20
3.442590473e-21
6.491815655e-21
1.647489221e-21
2.86606461e-21
9.76163758e-22
3.358953126e-22
9.339689854e-22
-7.515889887e-22
7.068797083e-22
-9.25944969e-23
-3.101158204e-22
2.613675867e-21
-2.552723157e-21
7.549009986e-21
-5.683870532e-21
-5.993011152e-21
-3.031321889e-19
3.391952896e-20
-3.059632596e-19
3.459266037e-20
-3.086023494e-19
3.18012587e-20
-3.085309197e-19
1.925395763e-20
-3.015684537e-19
-1.113475651e-20
-2.815554048e-19
-6.933286173e-20
-2.398606503e-19
-1.671456459e-19
-1.650353861e-19
-3.172341776e-19
-4.275228136e-20
-5.300071862e-19
1.438679587e-19
-8.067268332e-19
4.141089431e-19
-1.126894027e-18
7.823462342e-19
-1.428664121e-18
1.000863198e-18
-1.584072257e-18
1.026430789e-18
-1.380704944e-18
1.442840847e-19
7.929359077e-33
7.39766847e-20
2.268507557e-22
5.000469111e-20
1.051191872e-20
3.830349416e-20
1.481885511e-20
2.922199428e-20
1.671554166e-20
2.115892155e-20
1.572010286e-20
1.432917695e-20
1.263215386e-20
9.28638701e-21
8.482913633e-21
5.820490101e-21
5.115005397e-21
2.823869795e-21
3.979921996e-21
1.088060344e-22
3.659197614e-21
-1.768584494e-21
2.591885578e-21
-2.335201801e-21
2.581501211e-22
-5.174715158e-22
-4.372825323e-21
7.239869265e-21
-1.344840193e-20
-1.852911036e-20
-2.951231113e-19
4.498231497e-20
-3.051096327e-19
4.798861004e-20
-3.211415623e-19
4.85458746e-20
-3.425671003e-19
3.881011654e-20
-3.678370789e-19
8.777171151e-21
-3.941890198e-19
-5.420935836e-20
-4.168750012e-19
-1.659670207e-19
-4.280402848e-19
-3.451093316e-19
-4.152102517e-19
-6.104865547e-19
-3.596274473e-19
-9.745617906e-19
-2.351872742e-19
-1.430583847e-18
-1.261655789e-20
-1.931605942e-18
2.133891594e-19
-2.358459499e-18
3.57212552e-19
-2.435140869e-18
2.078546158e-19
-1.272325996e-18
8.426175381e-20
1.238172156e-19
5.431162825e-20
4.04658698e-20
4.020018128e-20
2.892346769e-20
2.822655595e-20
2.868757974e-20
1.807097283e-20
2.587517542e-20
1.017993693e-20
2.052165365e-20
5.918478913e-21
1.274320701e-20
4.685406777e-21
6.350214158e-21
2.503145454e-21
6.168537843e-21
-9.585059984e-22
7.127186145e-21
-4.102319987e-21
5.73749373e-21
-6.966177288e-21
3.119283584e-21
-9.593048174e-21
-1.756369824e-21
2.159160954e-21
-2.520093344e-20
-6.636107338e-20
-2.807877612e-19
6.179737732e-20
-2.988502346e-19
7.023944321e-20
-3.301895278e-19
7.988653175e-20
-3.766371577e-19
8.162048928e-20
-4.403568182e-19
6.447357379e-20
-5.237606959e-19
1.458493797e-20
-6.288398663e-19
-8.600879288e-20
-7.559732348e-19
-2.598330842e-19
-9.023777206e-19
-5.321725003e-19
-1.061458309e-18
-9.244055774e-19
-1.226488037e-18
-1.438529738e-18
-1.405046728e-18
-2.027444574e-18
-1.624354199e-18
-2.543490079e-18
-1.728354949e-18
-2.645968675e-18
-1.527231788e-18
-1.559106269e-18
-6.243327005e-20
1.033419278e-32
4.276922598e-20
-6.474887031e-20
3.996429333e-20
3.172683955e-20
2.541415164e-20
4.323364991e-20
1.271745098e-20
3.85711678e-20
2.401490215e-21
3.083680737e-20
-4.745139883e-22
1.561861902e-20
4.503730451e-21
1.374491167e-21
3.461793765e-21
7.215638652e-21
-2.348198418e-21
1.294256407e-20
-6.720530167e-21
1.011285126e-20
-1.184183074e-20
8.23051336e-21
-3.303761206e-20
1.944440631e-20
-1.31593205e-19
7.334002733e-20
-1.92389814e-19
-2.537069592e-19
8.202350127e-20
-2.794828488e-19
9.931848133e-20
-3.255211806e-19
1.239892249e-19
-3.962901012e-19
1.459157267e-19
-4.980841087e-19
1.543930791e-19
-6.392310121e-19
1.362771537e-19
-8.295237509e-19
7.395044186e-20
-1.078544606e-18
-5.623162483e-20
-1.392193081e-18
-2.836509652e-19
-1.766964155e-18
-6.383840384e-19
-2.18170594e-18
-1.136411445e-18
-2.584409147e-18
-1.749066821e-18
-2.855981957e-18
-2.356541698e-18
-2.746193491e-18
-2.704675019e-18
-1.223367933e-18
-2.465939855e-18
-4.947841857e-22
-1.13245087e-18
1.39244934e-19
-2.044896868e-19
5.147110294e-20
1.194882687e-19
2.075166926e-20
7.394724741e-20
4.983090398e-21
5.433897688e-20
-1.281669796e-20
4.863586467e-20
-1.471864165e-20
1.752036895e-20
1.034487779e-20
-2.368645975e-20
9.188719056e-21
8.37813713e-21
-5.177911147e-21
2.731655702e-20
-8.602867956e-21
1.353401542e-20
-6.27937763e-22
2.573080304e-22
2.085800888e-20
-2.047190175e-21
3.150691698e-19
-2.208703443e-19
4.609459486e-19
-2.076331113e-19
1.006957085e-19
-2.395965632e-19
1.307936886e-19
-2.971084789e-19
1.759076604e-19
-3.868706028e-19
2.251453093e-19
-5.189417639e-19
2.694776357e-19
-7.071724257e-19
2.985025308e-19
-9.68809279e-19
2.975868573e-19
-1.322426065e-18
2.450556149e-19
-1.782440307e-18
1.099915777e-19
-2.348256973e-18
-1.469440956e-19
-2.987111285e-18
-5.639325251e-19
-3.611573949e-18
-1.150385622e-18
-4.04891861e-18
-1.841300169e-18
-3.987027955e-18
-2.472956425e-18
-3.175403833e-18
-2.99044477e-18
-3.797004025e-19
-3.759698353e-18
4.632228891e-19
-2.73439693e-18
5.930082356e-21
5.767762113e-19
1.143399083e-21
7.873420253e-20
-7.200218282e-22
5.62049484e-20
-4.393219392e-20
9.184898031e-20
-5.59254707e-20
2.951435811e-20
4.240947493e-20
-1.220174666e-19
2.812713911e-20
2.266798927e-20
-1.896045283e-20
7.440969575e-20
-2.187957552e-20
1.64531776e-20
-2.932435981e-21
-1.868800638e-20
-3.10357388e-19
3.053777618e-19
-2.031144952e-19
-2.180484759e-18
2.031144932e-19
-1.375463626e-19
1.097010636e-19
-1.73801839e-19
1.584832081e-19
-2.374794769e-19
2.283219024e-19
-3.368636613e-19
3.087115007e-19
-4.847364347e-19
3.939465313e-19
-6.989021802e-19
4.780521737e-19
-1.002240754e-18
5.516065515e-19
-1.421049716e-18
5.981104651e-19
-1.979042153e-18
5.890521378e-19
-2.683667427e-18
4.782685281e-19
-3.505312988e-18
2.015528577e-19
-4.3652347e-18
-2.967969097e-19
-5.186790928e-18
-9.787619867e-19
-6.026352895e-18
-1.535723126e-18
-6.948328355e-18
-1.70537063e-18
-7.121965034e-18
-2.181836581e-18
-6.126528162e-18
-9.390426913e-19
-2.080487199e-19
4.479010119e-32
-7.043442463e-20
-5.888066839e-20
3.492401035e-20
-4.91515468e-20
-1.062668167e-19
2.330408975e-19
-2.074572971e-19
1.307062617e-19
1.870949324e-19
-5.165649085e-19
7.986884605e-20
1.299022715e-19
-7.691697152e-20
2.312021323e-19
-7.972190388e-21
-5.248698539e-20
3.70700194e-20
-6.372911674e-20
2.100096104e-18
4.699439355e-32
1.341888091e-18
-1.438550726e-18
-1.762096873e-32
-4.054657698e-20
9.088303728e-20
-8.095905752e-20
1.753478153e-19
-1.441647018e-19
2.729769838e-19
-2.411934799e-19
3.837855079e-19
-3.86151884e-19
5.078593933e-19
-5.979443863e-19
6.443603413e-19
-9.011114207e-19
7.898536235e-19
-1.325508991e-18
9.35303043e-19
-1.901570045e-18
1.059768067e-18
-2.6434219e-18
1.117047401e-18
-3.511541954e-18
1.013121381e-18
-4.361718971e-18
6.074285577e-19
-5.021682712e-18
-1.723713712e-19
-5.605799502e-18
-6.634051116e-19
-6.327317995e-18
-1.096263448e-19
-6.522983198e-18
-3.881313911e-19
-3.636069581e-18
-5.449937522e-19
-2.669293844e-19
2.6394268e-20
-3.923771305e-19
6.656266773e-20
-3.462272089e-19
-9.530059595e-20
2.988063096e-19
-4.119916873e-19
5.210074184e-19
-9.149297108e-20
-5.42173773e-19
5.466210891e-19
-3.262390549e-19
-8.602413251e-20
3.027375751e-19
-3.977677443e-19
3.124575069e-19
-6.220327485e-20
1.007991347e-19
1.479307127e-19
-4.248282698e-19
2.464232455e-19
-8.602147394e-20
-1.627138259e-18
-1.558519567e-19
6.47974419e-20
6.79589946e-20
3.103784481e-20
1.835195819e-19
-2.16927506e-20
3.037004286e-19
-1.035023495e-19
4.380830627e-19
-2.268874833e-19
5.914335417e-19
-4.076949827e-19
7.662877351e-19
-6.657976248e-19
9.629357253e-19
-1.026514637e-18
1.178608104e-18
-1.521111416e-18
1.404276984e-18
-2.174250995e-18
1.609361554e-18
-2.94876895e-18
1.684021031e-18
-3.568336487e-18
1.346153193e-18
-3.525319783e-18
3.803029418e-20
-2.735644256e-18
-4.624298799e-19
-1.44129134e-18
4.40370709e-19
4.225404091e-32
-7.783408525e-21
5.970776883e-20
-3.58229976e-20
7.159733901e-20
1.449528408e-20
1.383518331e-19
-1.936350883e-22
1.128176047e-19
-6.976532189e-20
-1.564308878e-19
-1.427423667e-19
-2.16614407e-19
-3.130765486e-20
2.009168907e-19
1.290944046e-19
1.377532466e-19
-2.285395959e-20
-1.37433861e-19
-1.225748186e-19
-1.70000734e-19
-2.963310792e-20
-9.906676326e-20
7.699746718e-20
-1.140848694e-20
1.58765109e-19
-1.558519571e-19
-6.653190602e-20
-1.329482642e-19
1.741676645e-19
6.295304946e-20
1.564160915e-19
1.855602632e-19
1.222121169e-19
3.157430695e-19
6.493307502e-20
4.620991902e-19
-2.455599104e-20
6.300605189e-19
-1.558874282e-19
8.216420795e-19
-3.37221585e-19
1.034678723e-18
-5.758507331e-19
1.263774103e-18
-8.875986578e-19
1.50623507e-18
-1.309900599e-18
1.7697198e-18
-1.89260484e-18
2.003210366e-18
-2.30093886e-18
1.687781338e-18
-2.059796164e-18
4.215322542e-20
4.644386138e-20
-1.454567604e-18
1.972010624e-19
7.759057737e-20
9.864776396e-20
9.076431655e-20
4.668237313e-20
1.613675617e-20
5.690841971e-20
4.264000668e-21
6.878014556e-20
-1.206651698e-20
3.984055928e-20
-4.08255779e-20
-4.499617499e-20
-5.790509737e-20
-5.621234581e-20
-2.009012611e-20
4.896852487e-20
2.391761686e-20
3.803238668e-20
-1.191214687e-20
-4.449214948e-20
-4.004558357e-20
-6.337015782e-20
-1.075328762e-20
-1.729912074e-20
3.092608346e-20
9.496632906e-20
4.649131137e-20
4.60598353e-20
-1.763388406e-20
-4.47980259e-20
2.959343015e-19
5.82128874e-20
2.920270932e-19
1.764798041e-19
2.784100296e-19
3.046094541e-19
2.484515632e-19
4.501035156e-19
1.939804069e-19
6.175206925e-19
1.095451732e-19
8.055620866e-19
3.155907317e-22
1.002476772e-18
-1.081052497e-19
1.182145291e-18
-1.751190839e-19
1.312136398e-18
-1.827523873e-19
1.409952955e-18
-3.755049552e-19
1.59150936e-18
-5.841172665e-19
1.280147758e-18
9.449092231e-33
-4.52840112e-20
-1.907375682e-19
-7.84895676e-20
-5.795334593e-20
-5.519525863e-20
2.402020303e-20
8.788484916e-21
3.480961707e-20
5.341919038e-21
4.057790143e-20
-1.507704637e-21
4.002108391e-20
-1.151054674e-20
2.27610395e-20
-2.356549404e-20
-7.181203571e-21
-2.796285265e-20
-1.220460252e-20
-1.506578977e-20
1.313876082e-20
-1.422458816e-21
9.898949788e-21
-8.667348186e-21
-1.519985325e-20
-1.494245573e-20
-2.16907863e-20
-4.261147942e-21
-1.733892787e-21
1.096705985e-20
3.0841133e-20
1.390977051e-20
1.889569315e-20
-5.696961835e-21
-1.656786149e-20
4.179838799e-19
5.006761112e-20
4.282922926e-19
1.533826033e-19
4.360162114e-19
2.673418025e-19
4.325299321e-19
3.99137227e-19
4.053647399e-19
5.534678214e-19
3.424092821e-19
7.28295478e-19
2.447711178e-19
9.055537722e-19
1.588977516e-19
1.033838678e-18
2.128367643e-19
1.006390881e-18
4.633510766e-19
7.25041977e-19
8.311196541e-19
2.353688721e-19
1.597004639e-19
1.435617494e-19
9.34818019e-20
2.093346997e-20
3.754120453e-20
-2.25508889e-20
6.030396903e-21
-2.368740526e-20
2.057363751e-20
-5.758280688e-21
2.795999389e-20
-2.04816446e-21
3.057505992e-20
-4.124812162e-21
2.796613715e-20
-8.902686908e-21
1.836368126e-20
-1.396315887e-20
5.715859225e-21
-1.531560591e-20
1.438728276e-21
-1.078793288e-20
5.893871634e-21
-5.875162835e-21
3.62384238e-21
-6.392523677e-21
-4.518545673e-21
-6.79578796e-21
-6.462578793e-21
-2.315139132e-21
1.208817845e-21
3.293290542e-21
1.123440107e-20
3.878639121e-21
8.024793763e-21
-2.493080894e-21
-6.817787837e-21
5.297097502e-19
3.727019445e-20
5.550079475e-19
1.14867571e-19
5.855129686e-19
2.021139579e-19
6.10002729e-19
3.060491661e-19
6.073991831e-19
4.334562141e-19
5.433115375e-19
5.889969424e-19
3.693869079e-19
7.692384678e-19
4.56454739e-20
9.446125437e-19
-3.968904205e-19
9.995833974e-19
-3.336368039e-19
4.016724034e-19
-6.142272263e-20
-1.207281428e-32
3.707218296e-20
4.506688619e-20
4.999744259e-20
8.0077806e-21
3.640468818e-20
-8.960759616e-21
2.395952165e-20
-1.124558076e-20
2.428375377e-20
-6.086661934e-21
2.588334617e-20
-3.651710589e-21
2.579718513e-20
-4.041593054e-21
2.290566511e-20
-6.012513027e-21
1.701123422e-20
-8.069729895e-21
1.024353229e-20
-8.548601466e-21
6.351498362e-21
-6.895976391e-21
5.376510796e-21
-4.897898328e-21
3.220578094e-21
-4.232168981e-21
-3.789680461e-23
-3.532161743e-21
-8.541490605e-22
-1.496058197e-21
1.794166429e-21
6.446092245e-22
4.862680986e-21
8.066152985e-22
3.700086782e-21
-1.334017131e-21
-3.022378131e-21
6.208154099e-19
2.000779376e-20
6.611427239e-19
6.191889851e-20
7.165142074e-19
1.098365042e-19
7.769825401e-19
1.686932944e-19
8.202433072e-19
2.449162594e-19
8.008889865e-19
3.480612577e-19
6.283913853e-19
4.945676795e-19
1.632570001e-19
7.156179313e-19
-5.057716372e-19
1.037893845e-18
-1.293395617e-18
9.568376921e-19
-1.430431906e-19
-8.034419699e-20
1.307732097e-23
-9.798955368e-20
3.302890183e-20
-2.500911662e-20
3.411986652e-20
-1.005487911e-20
2.911844005e-20
-6.248592962e-21
2.671870472e-20
-3.692255736e-21
2.549346333e-20
-2.43103311e-21
2.38262648e-20
-2.377833475e-21
2.084844792e-20
-3.036609984e-21
1.653236242e-20
-3.755161032e-21
1.189615719e-20
-3.913473589e-21
8.349576296e-21
-3.349593768e-21
6.042240061e-21
-2.58817302e-21
3.920585274e-21
-2.105614508e-21
1.998206714e-21
-1.603756355e-21
1.286518349e-21
-7.803614161e-22
1.956172474e-21
-2.389349541e-23
2.722048509e-21
3.907391255e-23
2.01172575e-21
-6.253617061e-22
-1.205253134e-21
6.811850139e-19
7.33273046e-19
8.102649896e-19
9.08471119e-19
1.019200391e-18
1.127603211e-18
1.20930384e-18
1.038240914e-18
7.547320807e-19
2.513276425e-19
1.709832768e-19
7.299351449e-20
4.798313986e-20
3.79261532e-20
3.167477772e-20
2.797992775e-20
2.554666335e-20
2.316748865e-20
2.012989718e-20
1.637405011e-20
1.246003719e-20
9.110997168e-21
6.524798668e-21
4.422443487e-21
2.821601683e-21
2.042986292e-21
2.019139911e-21
2.057612928e-21
1.431834352e-21
)
;

boundaryField
{
    lowerWall
    {
        type            calculated;
        value           nonuniform 0();
    }
    atmosphere
    {
        type            calculated;
        value           nonuniform List<scalar> 
20
(
4.068898045e-19
3.825373798e-19
3.587634424e-19
3.38167115e-19
3.222374501e-19
3.108444058e-19
3.019788463e-19
2.918062487e-19
2.750444051e-19
2.45645095e-19
1.976289137e-19
1.25734214e-19
2.496357211e-20
-7.801582048e-20
-1.795470226e-19
-2.962213792e-19
-4.13199501e-19
-5.195946828e-19
-6.055422695e-19
-6.621138122e-19
)
;
    }
    rightWall
    {
        type            empty;
        value           nonuniform 0();
    }
    leftWall
    {
        type            empty;
        value           nonuniform 0();
    }
    frontAndBack
    {
        type            calculated;
        value           uniform 0;
    }
    procBoundary4to2
    {
        type            processor;
        value           nonuniform List<scalar> 
30
(
-3.333525866e-20
-4.332248922e-20
-6.204339535e-20
-9.039644506e-20
-1.313071209e-19
-1.898085354e-19
-2.730110489e-19
-3.89727198e-19
-5.489566411e-19
-7.563607215e-19
-1.006908273e-18
-1.271713636e-18
-1.477641877e-18
-1.488107376e-18
-1.17639494e-18
-4.29801885e-19
-1.710770819e-19
-4.399323133e-20
8.048951359e-21
6.271316209e-20
6.582992988e-20
5.987237828e-20
5.140747482e-20
4.59040531e-20
3.469600655e-20
8.967477061e-21
-7.035234299e-20
-1.291891611e-19
-1.13014296e-19
5.093035228e-19
)
;
    }
    procBoundary4to5
    {
        type            processor;
        value           nonuniform List<scalar> 
20
(
-3.541447757e-19
-8.664223127e-21
5.009438635e-20
2.027273146e-20
1.225076601e-20
1.204694723e-20
1.977412306e-20
4.997918224e-20
-5.562703145e-21
-3.382846342e-19
5.47140047e-20
3.1650152e-19
1.223992926e-19
-1.787574946e-19
-4.209847625e-20
-9.338446989e-21
-1.728560919e-21
-9.741019801e-23
1.9365985e-22
2.267974912e-22
)
;
    }
}


// ************************************************************************* //
