/*--------------------------------*- C++ -*----------------------------------*\
  =========                 |
  \\      /  F ield         | OpenFOAM: The Open Source CFD Toolbox
   \\    /   O peration     | Website:  https://openfoam.org
    \\  /    A nd           | Version:  6
     \\/     M anipulation  |
\*---------------------------------------------------------------------------*/
FoamFile
{
    version     2.0;
    format      ascii;
    class       volScalarField;
    location    "0.0018";
    object      ViscousDissipation;
}
// * * * * * * * * * * * * * * * * * * * * * * * * * * * * * * * * * * * * * //

dimensions      [1 -1 -3 0 0 0 0];

internalField   nonuniform List<scalar> 
600
(
6.244857076e-21
1.327758258e-20
2.575164461e-20
5.047654969e-20
1.025000046e-19
2.138628305e-19
4.496970626e-19
9.318887064e-19
1.859101148e-18
3.473767228e-18
5.833287502e-18
8.103846736e-18
7.356490181e-18
1.609064607e-18
1.902098399e-17
1.798253083e-17
1.139550637e-16
2.566741968e-16
9.511959694e-17
8.514787487e-17
3.317724104e-17
1.993753527e-17
1.331026027e-17
1.659779309e-17
2.742735891e-17
8.645528476e-17
2.02471496e-16
5.595177932e-16
2.186749777e-16
1.681227337e-18
6.450759395e-21
1.32595208e-20
2.490710447e-20
4.772163873e-20
9.574726995e-20
1.990469148e-19
4.189058366e-19
8.714394468e-19
1.754868879e-18
3.358707797e-18
6.002194566e-18
9.842658434e-18
1.438383416e-17
2.405935359e-17
1.146361251e-17
2.132301017e-17
2.233717313e-16
6.981326913e-17
2.028146812e-17
1.933372679e-17
1.42901871e-17
1.107635558e-17
9.080663161e-18
9.303344722e-18
1.122339738e-17
1.519623457e-17
1.614279438e-17
8.792996428e-17
7.094158399e-17
1.6364663e-19
5.465820585e-21
1.094215276e-20
2.040303398e-20
3.963141038e-20
8.177576396e-20
1.753478298e-19
3.78553653e-19
8.014536581e-19
1.632784066e-18
3.15962268e-18
5.761757233e-18
9.788481647e-18
1.471787934e-17
1.158792364e-17
7.78398199e-18
1.413128309e-16
1.428902647e-16
4.255553004e-18
2.712821501e-18
6.33845519e-18
6.810595226e-18
6.088970539e-18
5.190333211e-18
4.62389818e-18
4.322906187e-18
4.149650172e-18
3.729329269e-18
2.215593081e-18
5.192828003e-17
8.04810725e-17
3.730881044e-21
7.15438858e-21
1.347301145e-20
2.804717153e-20
6.366204803e-20
1.484882338e-19
3.394867945e-19
7.402108292e-19
1.511511877e-18
2.842400531e-18
4.843451763e-18
7.355057468e-18
1.130396668e-17
7.433289459e-18
7.634952785e-18
1.475892503e-16
4.843331874e-17
4.915560591e-18
2.64570406e-18
3.467831782e-18
3.880716237e-18
3.571534468e-18
2.917393025e-18
2.24265139e-18
1.630927953e-18
1.187105958e-18
1.121023811e-18
1.382076702e-18
2.592326676e-18
1.295835033e-17
1.977784905e-21
3.294191378e-21
6.333841903e-21
1.642211701e-20
4.706797035e-20
1.284306538e-19
3.203878716e-19
7.248144184e-19
1.47011888e-18
2.592785727e-18
3.70693636e-18
3.746192305e-18
3.392135565e-18
5.457543234e-18
3.159645149e-19
9.640856404e-17
3.504429646e-17
1.746810294e-18
1.122512938e-18
2.197721993e-18
2.650535534e-18
2.365213604e-18
1.76032226e-18
1.167666644e-18
6.380183543e-19
2.498678369e-19
2.263726317e-19
6.423153109e-19
1.293705229e-18
1.408358571e-18
8.809296899e-22
7.047179134e-22
1.380278119e-21
8.88696803e-21
3.914532795e-20
1.280078856e-19
3.463586486e-19
8.127893415e-19
1.670167094e-18
2.937992738e-18
4.13118786e-18
4.033112034e-18
3.600029957e-18
7.712553787e-18
3.607361573e-19
1.063396227e-16
3.906461121e-17
1.992134404e-18
1.213564321e-18
2.204225542e-18
2.404573153e-18
1.876613295e-18
1.186417628e-18
7.24379174e-19
3.671277917e-19
6.768183278e-20
4.921941245e-20
5.448246374e-19
1.449475992e-18
1.447357471e-18
9.929923614e-22
5.569922694e-22
1.03028211e-21
1.004967248e-20
4.817438947e-20
1.617666482e-19
4.436083906e-19
1.055476603e-18
2.225988898e-18
4.163930805e-18
6.852814248e-18
9.901646435e-18
1.479538261e-17
9.859895765e-18
8.03767643e-18
1.555109273e-16
6.194297581e-17
1.038526589e-17
4.634061532e-18
3.686063882e-18
3.009223396e-18
1.862475353e-18
8.302695553e-19
5.102856867e-19
4.167000105e-19
2.690644496e-19
3.801896716e-19
1.47350286e-18
4.37149649e-18
1.480456186e-17
3.106973159e-21
4.494953212e-21
8.527776259e-21
2.582212635e-20
8.424986081e-20
2.46116431e-19
6.373820689e-19
1.485633912e-18
3.144985431e-18
6.056993399e-18
1.058826606e-17
1.6649061e-17
2.254337909e-17
1.514318686e-17
1.054791073e-17
1.178011405e-16
1.107502501e-16
1.167271644e-17
7.882654552e-18
6.174616911e-18
4.845510488e-18
2.610724942e-18
5.586586048e-19
2.641487966e-19
6.793881562e-19
7.312745822e-19
1.166684982e-18
7.120235377e-18
6.949447884e-17
1.044670237e-16
8.824438531e-21
1.563981706e-20
2.906320485e-20
6.420887296e-20
1.589888627e-19
3.965232776e-19
9.444283327e-19
2.107353226e-18
4.36064708e-18
8.268945447e-18
1.409771781e-17
2.087941904e-17
2.476559442e-17
2.502378072e-17
2.831487666e-17
2.507824923e-17
2.153820557e-16
6.395549541e-17
1.229658556e-17
1.02979157e-17
1.039312594e-17
6.984376581e-18
2.78866144e-18
5.881070069e-19
2.007972294e-18
1.327111884e-18
2.254891239e-18
4.218228757e-17
3.876645512e-17
1.334367918e-19
2.091864308e-20
3.913310331e-20
6.998779106e-20
1.344916049e-19
2.82571096e-19
6.204023533e-19
1.358657901e-18
2.874194344e-18
5.730145443e-18
1.0478945e-17
1.68856729e-17
2.223061811e-17
1.973708161e-17
6.655699149e-18
3.617998994e-17
5.041544361e-17
4.631639454e-16
1.212588104e-15
6.952176277e-17
1.951203264e-17
3.074243244e-17
3.615206156e-17
4.522568509e-17
1.408346642e-17
1.355965073e-17
4.105568078e-18
3.638588147e-18
4.986996768e-16
1.355213971e-16
1.349732428e-18
4.35170386e-20
8.166184978e-20
1.390277773e-19
2.436271785e-19
4.57965109e-19
9.093781374e-19
1.844476671e-18
3.696992782e-18
7.099864739e-18
1.262773172e-17
1.990184693e-17
2.612028386e-17
2.633684344e-17
2.285478379e-17
6.146215035e-17
1.484078308e-16
1.74558511e-16
6.688870132e-16
1.144929032e-15
2.185538163e-17
1.343684945e-16
3.102758084e-16
7.019810343e-16
2.430367533e-16
1.420262606e-16
3.945615684e-17
2.247631575e-16
5.812640015e-16
5.440969897e-17
3.579576999e-19
8.432732789e-20
1.501611673e-19
2.39874246e-19
3.893737945e-19
6.722339483e-19
1.229370989e-18
2.325505927e-18
4.419515152e-18
8.176944042e-18
1.418944018e-17
2.199996137e-17
2.869674134e-17
3.03439317e-17
3.403184419e-17
6.458888219e-17
1.722528445e-16
2.002904045e-16
3.060641477e-16
7.630824742e-19
3.465934241e-16
3.271260055e-16
6.206912108e-18
6.314381254e-16
1.237441284e-18
3.777410226e-16
9.865869937e-17
3.083180728e-19
5.174848453e-17
2.801696132e-17
5.589995886e-17
1.305813212e-19
2.427826232e-19
3.629825029e-19
5.518057628e-19
8.889680353e-19
1.514036283e-18
2.679748626e-18
4.819094908e-18
8.554825268e-18
1.434316134e-17
2.107083949e-17
2.356199966e-17
1.605413997e-17
2.492846795e-17
7.093096945e-17
1.396130683e-16
3.892826036e-16
1.174923817e-16
2.576191816e-19
3.830852222e-19
3.020178287e-18
8.615802481e-20
7.850112813e-15
7.133379912e-20
2.712547306e-18
1.819440976e-19
3.381421166e-19
1.766626669e-17
7.394204825e-17
1.425321709e-17
3.847288044e-19
3.799521314e-19
4.881346535e-19
6.951209458e-19
1.054164941e-18
1.676335368e-18
2.761792673e-18
4.667302363e-18
7.958962134e-18
1.300363286e-17
1.786953433e-17
1.412429405e-17
2.565614938e-18
6.761761101e-17
1.080706042e-16
8.258356225e-17
9.843740148e-17
2.304185821e-16
3.128168889e-16
1.560688324e-16
6.751445002e-16
9.75146246e-17
8.952570118e-16
6.070282303e-17
7.169277321e-16
1.343434287e-16
6.749984326e-17
1.055421917e-16
1.992226274e-17
7.09124143e-21
4.050724286e-19
4.525797706e-19
5.718719508e-19
7.834536873e-19
1.123241667e-18
1.648720584e-18
2.457200524e-18
3.78190902e-18
6.260159967e-18
1.08483663e-17
1.602639143e-17
7.422486707e-18
1.282858043e-17
2.99155658e-17
4.777065753e-17
3.91346789e-17
7.265197168e-17
5.170911071e-18
7.130372456e-17
1.684656746e-16
4.645229311e-16
4.421683637e-16
7.934520814e-16
3.550646905e-16
4.365985051e-16
2.706090438e-16
3.234408034e-16
2.905150478e-16
3.614616747e-17
3.152190056e-16
4.212213603e-19
4.772358798e-19
6.009640385e-19
8.052256209e-19
1.095469836e-18
1.447999362e-18
1.796681909e-18
2.175551473e-18
3.463848026e-18
8.902207547e-18
2.9624939e-17
8.646862707e-18
1.9707004e-18
1.231562939e-17
8.466483447e-17
2.357252929e-16
5.353843934e-17
8.795635032e-18
1.585082283e-17
2.971254852e-17
5.697992786e-17
4.176196192e-17
4.788816011e-17
2.132404828e-17
4.030180079e-17
3.471601504e-17
4.202148064e-17
8.403838436e-17
6.141057533e-17
4.964787768e-17
3.684784052e-19
4.354774965e-19
5.690019883e-19
7.751909425e-19
1.032443787e-18
1.236947267e-18
1.132151035e-18
5.109094711e-19
9.72613949e-19
1.173830665e-17
1.035695618e-17
8.762493781e-18
3.213783226e-17
1.216226127e-16
1.70678761e-16
4.448422698e-17
3.272710044e-18
2.303992156e-18
3.87352428e-18
6.906778808e-18
9.692375397e-18
5.444828201e-18
2.30738233e-18
1.001237743e-18
4.387679971e-18
4.692529499e-18
5.447502998e-18
8.082337456e-18
6.531948542e-18
5.878177202e-18
2.62417681e-19
3.40359626e-19
4.915599213e-19
7.265459121e-19
1.031101975e-18
1.319052709e-18
1.380665015e-18
1.14203974e-18
3.254602319e-18
2.340802835e-17
1.066106303e-17
1.682962659e-16
1.873444482e-16
2.675497589e-17
1.028662803e-17
3.390532476e-18
2.173927791e-19
2.959935413e-19
1.118273222e-18
2.196607113e-18
2.626219794e-18
1.419013546e-18
2.807198778e-19
2.563682314e-19
7.862564747e-19
7.383417174e-19
6.643638821e-19
7.986543272e-19
8.06252957e-19
9.025471796e-19
1.357511487e-19
2.230101658e-19
3.944227349e-19
6.782348746e-19
1.111125563e-18
1.775226174e-18
3.065735541e-18
6.90050833e-18
2.871357866e-17
1.756544584e-18
1.289262359e-17
2.88378702e-16
8.469210604e-17
2.354440622e-18
1.923257594e-18
7.690791631e-19
1.298446949e-19
1.850599465e-19
5.866346406e-19
1.065506206e-18
1.194674939e-18
7.751840415e-19
3.486073861e-19
2.665211122e-19
2.635517405e-19
1.416924258e-19
6.368655077e-20
6.365291544e-20
1.163485525e-19
2.0065332e-19
2.952396033e-20
1.191311531e-19
2.961925094e-19
6.010734406e-19
1.103143636e-18
1.954343122e-18
3.479047845e-18
6.022601761e-18
8.971277433e-18
8.926254713e-18
2.316681853e-16
3.625516525e-16
7.239548034e-17
7.182798934e-18
2.287669707e-18
8.042905265e-19
3.35487245e-19
3.134179363e-19
5.126723594e-19
7.776550281e-19
8.428506362e-19
6.217207927e-19
3.729128054e-19
2.46349172e-19
1.473665488e-19
4.194826343e-20
3.978475517e-21
3.143670033e-21
2.679562854e-20
8.200651248e-20
)
;

boundaryField
{
    lowerWall
    {
        type            calculated;
        value           nonuniform 0();
    }
    atmosphere
    {
        type            calculated;
        value           nonuniform List<scalar> 
20
(
4.115157372e-21
4.247862739e-21
3.668422176e-21
2.602749461e-21
1.474044422e-21
7.517267592e-22
9.315925722e-22
2.695749273e-21
7.121632825e-21
1.575193726e-20
3.064719374e-20
5.593900338e-20
7.813578956e-20
4.420696579e-19
4.174895766e-19
4.199155819e-19
3.631435028e-19
2.560530181e-19
1.293752941e-19
2.341521506e-20
)
;
    }
    rightWall
    {
        type            empty;
    }
    leftWall
    {
        type            empty;
    }
    frontAndBack
    {
        type            calculated;
        value           nonuniform List<scalar> 
30
(
1.523978558e-20
1.045892928e-19
2.82205459e-19
5.912638879e-19
1.110622998e-18
2.021178226e-18
3.713495731e-18
6.505875243e-18
9.008157604e-18
1.395840252e-18
1.854484292e-16
4.21810055e-16
6.663977942e-17
7.602285875e-18
2.288149591e-18
8.296634277e-19
3.689048944e-19
3.348971274e-19
5.103153581e-19
7.463197747e-19
8.02787604e-19
6.080931385e-19
3.786850151e-19
2.432508326e-19
1.355269976e-19
3.621255662e-20
1.655927187e-21
9.135173261e-22
2.208607835e-20
7.047828576e-20
)
;
    }
    procBoundary4to2
    {
        type            processor;
        value           nonuniform List<scalar> 
30
(
4.977094975e-21
1.122458831e-20
2.327476241e-20
4.82651958e-20
1.020857903e-19
2.186803966e-19
4.673065218e-19
9.777405146e-19
1.960355044e-18
3.667653601e-18
6.158932438e-18
8.66797934e-18
8.872880632e-18
5.929007539e-18
2.03301264e-17
5.423748219e-17
5.277271686e-17
2.354784731e-17
1.104799214e-16
4.082888834e-16
8.169461845e-17
3.318550238e-17
1.095959345e-17
2.470046639e-17
5.321486848e-17
5.008308896e-16
4.016345636e-16
1.076302836e-17
5.882324464e-18
5.778604474e-20
)
;
    }
    procBoundary4to5
    {
        type            processor;
        value           nonuniform List<scalar> 
20
(
4.924800522e-16
1.072660575e-16
3.368760197e-17
1.354341155e-17
1.23848171e-18
1.086229597e-18
1.242172273e-17
2.879477758e-17
9.502747708e-17
3.776110243e-16
6.212181763e-17
5.321558859e-16
2.253037887e-16
2.407102078e-16
1.836197488e-16
1.450439441e-17
2.047101571e-18
4.575011593e-19
1.471096787e-19
7.658866115e-20
)
;
    }
}


// ************************************************************************* //
