/*--------------------------------*- C++ -*----------------------------------*\
  =========                 |
  \\      /  F ield         | OpenFOAM: The Open Source CFD Toolbox
   \\    /   O peration     | Website:  https://openfoam.org
    \\  /    A nd           | Version:  6
     \\/     M anipulation  |
\*---------------------------------------------------------------------------*/
FoamFile
{
    version     2.0;
    format      ascii;
    class       volScalarField;
    location    "0.0004";
    object      TRHS;
}
// * * * * * * * * * * * * * * * * * * * * * * * * * * * * * * * * * * * * * //

dimensions      [1 -1 -3 0 0 0 0];

internalField   nonuniform List<scalar> 
600
(
1.292942056e-10
2.439929046e-10
8.458742725e-11
7.43453172e-12
-5.211444314e-11
-9.473813614e-11
-1.271871469e-10
-1.490064712e-10
-1.557697942e-10
-1.486645225e-10
-1.297032622e-10
-1.020211751e-10
-6.286032178e-11
-1.744068712e-11
8.039687406e-12
-3.678412904e-11
-1.614164185e-10
-2.050460437e-10
2.10543322e-10
1.153879111e-09
1.516021368e-09
1.0246701e-09
9.031537187e-10
1.418957938e-09
1.772061127e-09
5.187512261e-11
-5.00006681e-09
-2.043760145e-08
-5.188727291e-08
-4.05334198e-08
1.295301289e-10
2.44447845e-10
9.135369886e-11
1.522686103e-11
-4.222948124e-11
-7.916234077e-11
-1.069607401e-10
-1.226896347e-10
-1.302268281e-10
-1.290885886e-10
-1.268785248e-10
-1.162275872e-10
-8.813099029e-11
-2.667149034e-11
3.96657188e-11
2.237033036e-11
-2.142433132e-10
-5.916453215e-10
-3.998664519e-10
1.090948802e-09
1.604288159e-09
4.335377616e-10
1.623314903e-10
1.061023071e-09
2.383302641e-09
8.516975521e-10
-4.227742968e-09
-1.921637815e-08
-5.425470291e-08
-4.109422741e-08
1.298181924e-10
2.447237774e-10
9.319638058e-11
1.686178786e-11
-3.71035104e-11
-7.08945652e-11
-9.204542226e-11
-1.063667208e-10
-1.174918826e-10
-1.34074453e-10
-1.563700956e-10
-1.732788686e-10
-1.462119418e-10
-3.410980689e-11
1.613150132e-10
2.391470698e-10
-2.529843372e-10
-1.645551418e-09
-2.226553436e-09
1.360332608e-09
2.606307887e-09
-7.52784995e-10
-1.406408657e-09
3.967883534e-10
4.355078346e-09
2.192732571e-09
-4.890074636e-09
-2.09490848e-08
-5.799126268e-08
-3.956109596e-08
1.288041215e-10
2.448002356e-10
9.336827414e-11
1.914820798e-11
-3.178510492e-11
-5.893247153e-11
-7.415451415e-11
-8.517595746e-11
-1.040881735e-10
-1.418289864e-10
-2.045976605e-10
-2.735762745e-10
-2.891087235e-10
-1.289739372e-10
3.091543884e-10
7.767182008e-10
8.383352933e-11
-3.87186251e-09
-7.704666173e-09
1.103188741e-09
4.515442598e-09
-3.973717851e-09
-4.892819486e-09
-2.131834156e-09
7.647478089e-09
3.213098691e-09
-7.787233137e-09
-2.444370812e-08
-6.382546963e-08
-3.532984405e-08
1.27444809e-10
2.434184011e-10
9.370183436e-11
2.180798171e-11
-2.349324259e-11
-4.319701147e-11
-4.968595402e-11
-5.589478845e-11
-7.740368392e-11
-1.34192972e-10
-2.468319453e-10
-4.22926113e-10
-6.081138733e-10
-5.697475177e-10
1.462796237e-10
1.647535006e-09
1.871487722e-09
-7.421965298e-09
-2.232163168e-08
-2.969388564e-09
4.560952569e-09
-1.078055019e-08
-1.030022709e-08
-8.72545516e-09
8.620665125e-09
-5.073124577e-10
-1.701807956e-08
-2.777255737e-08
-7.14296417e-08
-2.598577828e-08
1.250184742e-10
2.408941123e-10
9.358943157e-11
2.58558084e-11
-1.309888144e-11
-2.39962717e-11
-2.063078674e-11
-1.578524544e-11
-2.556856071e-11
-7.703819072e-11
-2.24494425e-10
-5.665543466e-10
-1.180809196e-09
-1.854153695e-09
-1.470344647e-09
1.719331648e-09
7.336650015e-09
-9.633102142e-09
-4.719892126e-08
-4.631735096e-08
-5.829707903e-08
3.709338776e-09
-3.602184226e-09
1.719901008e-09
-6.194683426e-08
-4.173154722e-08
-3.480163696e-08
-2.33729165e-08
-7.372666213e-08
-6.805990656e-09
1.216671025e-10
2.366378886e-10
9.344349321e-11
3.045987018e-11
-1.914122379e-12
-5.215115273e-12
8.199472418e-12
3.067181952e-11
5.697204541e-11
6.800355939e-11
-2.343399102e-11
-4.751574269e-10
-1.796851641e-09
-4.437537733e-09
-7.060918295e-09
-4.920256172e-09
1.595786135e-08
-1.672818028e-08
-3.300950823e-09
-1.212144209e-07
-1.574441937e-07
5.880187894e-09
2.021380459e-08
-4.498319638e-09
-1.706916981e-07
-1.262951816e-07
-3.704839391e-08
2.635031079e-08
-4.055548561e-08
3.143541337e-08
1.171694454e-10
2.306517546e-10
9.310467507e-11
3.531773888e-11
7.659593615e-12
7.655755168e-12
2.472916072e-11
6.137148457e-11
1.380350338e-10
2.816979478e-10
4.508993752e-10
2.938929522e-10
-1.365744179e-09
-7.036574455e-09
-1.754485253e-08
-2.764526052e-08
-1.837280279e-08
2.392192261e-08
7.740204807e-08
-2.041976263e-07
-1.775674268e-07
-0.0001743283229
-0.0001109627302
-0.0001494798149
-1.768739828e-07
-3.223491218e-07
1.6228627e-08
1.836502059e-07
1.812265168e-07
1.139592689e-07
1.115327272e-10
2.227163783e-10
9.293916387e-11
4.032660612e-11
1.498511763e-11
1.072002654e-11
1.52225217e-11
3.443900762e-11
1.124195801e-10
3.5560968e-10
9.289645751e-10
1.823233303e-09
1.796662941e-09
-5.102659462e-09
-2.693778474e-08
-7.357757913e-08
-1.322819538e-07
-0.0001711869357
-0.0007740800806
167.3375045
-0.005864834831
69.16524582
44.03840478
59.30549084
-0.006562082662
144.7813271
-0.0004248896306
9.057837917e-10
3.21808137e-07
3.319634065e-07
1.046478289e-10
2.129820839e-10
9.377701947e-11
4.764194915e-11
2.34702814e-11
8.800464446e-12
-2.075404683e-11
-8.198161717e-11
-1.696941371e-10
-1.96312697e-10
1.976762112e-10
2.069910057e-09
7.604698549e-09
1.552710594e-08
-1.568669572e-08
-1.277185513e-07
-3.845181556e-07
67.93940422
139.838192
0
0
0
0
0
0
0
23.86716737
106.5964686
-0.0002681655829
-0.0001400846667
9.631415663e-11
2.009264842e-10
9.640408285e-11
5.997175766e-11
4.152996539e-11
2.147965819e-11
-4.173908761e-11
-2.215136066e-10
-6.752752603e-10
-1.744048185e-09
-3.973673906e-09
-7.57562522e-09
-9.510594333e-09
-1.224991902e-08
2.966882148e-08
-0.0001721925221
68.33770731
0
0
0
0
0
0
0
0
0
0
0
384.7933079
-0.002109749049
8.544583508e-11
1.853062584e-10
1.0031167e-10
7.894651128e-11
7.587171506e-11
7.419419167e-11
3.406257222e-11
-1.323217038e-10
-6.967095063e-10
-2.510168094e-09
-7.913315551e-09
-2.208651336e-08
-4.67396781e-08
1.76762625e-09
9.65350818e-08
-0.000785342077
141.4249345
0
0
0
0
0
0
0
0
0
0
0
-0.005128010861
-4.382135836e-05
6.808435201e-11
1.614639027e-10
1.015541929e-10
9.910309306e-11
1.189826003e-10
1.570962169e-10
2.146901591e-10
3.156236587e-10
5.00476146e-10
7.07192664e-10
3.273978516e-10
-3.526773389e-09
-4.278952525e-08
-1.07972498e-07
-1.993255074e-07
170.2180285
0
0
0
0
0
0
0
0
0
0
0
0
0
-0.001403000509
2.57199136e-11
1.170707252e-10
9.168504303e-11
1.099326338e-10
1.460271064e-10
2.029744315e-10
2.932762112e-10
4.721448871e-10
8.742518784e-10
1.742076094e-09
3.302178999e-09
3.24840174e-09
-5.663971928e-08
-1.433700877e-07
-1.647378982e-07
-0.005605843987
0
0
0
0
0
0
0
0
0
0
0
0
0
0
-1.120815073e-10
1.756464587e-11
5.803212716e-11
1.032341992e-10
1.484249032e-10
1.950084933e-10
2.268838957e-10
1.804415254e-10
-1.689715228e-10
-1.509412433e-09
-5.511426893e-09
-1.405027559e-08
1.804421935e-09
3.92857707e-09
-0.0002141841807
84.98058361
0
0
0
0
0
0
0
0
0
0
0
0
0
0
-8.826558167e-10
-2.911752841e-10
-2.09132667e-11
7.820740817e-11
1.395000967e-10
1.95618655e-10
2.465397234e-10
2.41429662e-10
-3.289777081e-11
-1.253289241e-09
-5.100509673e-09
-1.35268205e-08
1.476009142e-09
2.425038029e-09
-0.0002081061928
82.56918763
0
0
0
0
0
0
0
0
0
0
0
0
0
0
-9.285663434e-10
-3.429616064e-10
-4.832934628e-11
5.53148954e-11
1.198488696e-10
1.985331424e-10
3.36279477e-10
6.199838846e-10
1.211713642e-09
2.376209793e-09
4.329777781e-09
4.531736793e-09
-5.786774611e-08
-1.467651017e-07
-1.631190748e-07
-0.005844851033
0
0
0
0
0
0
0
0
0
0
0
0
0
0
-1.410535337e-10
-1.037297509e-10
-1.670560467e-11
3.057536306e-11
7.159873356e-11
1.301322973e-10
2.418799581e-10
4.654596517e-10
8.647499194e-10
1.368160173e-09
1.224071372e-09
-2.911860921e-09
-4.227790226e-08
-1.120962674e-07
-2.455650618e-07
162.6843961
0
0
0
0
0
0
0
0
0
0
0
0
0
-0.002528936189
1.046238255e-10
-3.85617531e-11
-2.097867574e-11
-1.351890141e-11
-2.893389033e-12
2.373452064e-12
1.557619153e-12
-6.489581577e-11
-4.257230638e-10
-1.8900704e-09
-6.729825206e-09
-2.002419796e-08
-4.43407684e-08
-1.336858204e-08
5.41780584e-08
-0.0007008479823
115.4395655
0
0
0
0
0
0
0
0
0
0
0
-0.00529066684
-1.894237256e-05
2.215325883e-10
-2.50456777e-11
-4.506325544e-11
-5.950011389e-11
-7.847638137e-11
-1.106893467e-10
-1.802525209e-10
-3.336803284e-10
-7.158524702e-10
-1.635302202e-09
-3.586507438e-09
-6.64402494e-09
-7.477550372e-09
-1.950257788e-09
5.996851406e-08
-0.0001165049826
46.23581439
0
0
0
0
0
0
0
0
0
0
0
393.7128196
-0.002066295491
)
;

boundaryField
{
    lowerWall
    {
        type            calculated;
        value           nonuniform 0();
    }
    atmosphere
    {
        type            calculated;
        value           nonuniform List<scalar> 
20
(
1.292942056e-10
1.295301289e-10
1.298181924e-10
1.288041215e-10
1.27444809e-10
1.250184742e-10
1.216671025e-10
1.171694454e-10
1.115327272e-10
1.046478289e-10
9.631415663e-11
8.544583508e-11
6.808435201e-11
2.57199136e-11
-1.120815073e-10
-8.826558167e-10
-9.285663434e-10
-1.410535337e-10
1.046238255e-10
2.215325883e-10
)
;
    }
    rightWall
    {
        type            empty;
    }
    leftWall
    {
        type            empty;
    }
    frontAndBack
    {
        type            calculated;
        value           nonuniform List<scalar> 
30
(
1.292942056e-10
2.439929046e-10
8.458742725e-11
7.43453172e-12
-5.211444314e-11
-9.473813614e-11
-1.271871469e-10
-1.490064712e-10
-1.557697942e-10
-1.486645225e-10
-1.297032622e-10
-1.020211751e-10
-6.286032178e-11
-1.744068712e-11
8.039687406e-12
-3.678412904e-11
-1.614164185e-10
-2.050460437e-10
2.10543322e-10
1.153879111e-09
1.516021368e-09
1.0246701e-09
9.031537187e-10
1.418957938e-09
1.772061127e-09
5.187512261e-11
-5.00006681e-09
-2.043760145e-08
-5.188727291e-08
-4.05334198e-08
)
;
    }
    procBoundary0to1
    {
        type            processor;
        value           nonuniform List<scalar> 
20
(
-0.0007016256525
-0.0007267870745
-0.0007815697776
-0.0008767608228
-0.001034720649
-0.001302726059
-0.001789203814
-0.002771116141
-0.005046438311
55.57092529
452.1333347
17.37719386
0
0
0
0
0
0
7.506527781
425.9718306
)
;
    }
    procBoundary0to2
    {
        type            processor;
        value           nonuniform List<scalar> 
30
(
2.870911187e-10
-3.309641869e-11
-6.632103721e-11
-9.873062978e-11
-1.306959455e-10
-1.863351317e-10
-2.748610506e-10
-4.177786828e-10
-6.256924573e-10
-8.600100968e-10
-8.205428749e-10
5.890356076e-10
6.328530593e-09
1.847422062e-08
-5.369628492e-10
-5.866657246e-08
-3.479164309e-07
21.92721345
18.22874913
0
0
0
0
0
0
0
-0.005972238653
20.34657071
-5.117095778e-05
-2.519401748e-10
)
;
    }
}


// ************************************************************************* //
