/*--------------------------------*- C++ -*----------------------------------*\
  =========                 |
  \\      /  F ield         | OpenFOAM: The Open Source CFD Toolbox
   \\    /   O peration     | Website:  https://openfoam.org
    \\  /    A nd           | Version:  6
     \\/     M anipulation  |
\*---------------------------------------------------------------------------*/
FoamFile
{
    version     2.0;
    format      ascii;
    class       volScalarField;
    location    "0.0039";
    object      Num_divU;
}
// * * * * * * * * * * * * * * * * * * * * * * * * * * * * * * * * * * * * * //

dimensions      [0 0 -1 0 0 0 0];

internalField   nonuniform List<scalar> 
600
(
8.248869629e-08
3.76406493e-08
8.215992881e-09
-1.29429106e-08
-2.853056628e-08
-3.923582111e-08
-4.309488023e-08
-3.526254733e-08
-6.774976882e-09
5.763543113e-08
1.845538613e-07
4.206475813e-07
8.437400432e-07
1.51935029e-06
2.071708924e-06
2.195829647e-06
-1.333897968e-06
-7.674564424e-11
-8.107608531e-11
-4.466798752e-11
3.604978552e-12
3.601422359e-11
3.200379521e-11
6.925535963e-12
2.853248469e-11
1.498170835e-10
8.992091796e-11
2.491469952e-11
1.54584789e-06
-4.155813154e-11
1.045775871e-07
5.432196255e-08
2.024852808e-08
-4.431387351e-09
-2.207606974e-08
-3.317304381e-08
-3.542731796e-08
-2.342737704e-08
1.233507594e-08
8.622825436e-08
2.182268823e-07
4.319423142e-07
7.476393921e-07
1.160408673e-06
1.733776351e-06
2.69055068e-06
5.697997797e-06
5.874421838e-06
-7.051015071e-07
1.23975985e-11
-6.636864555e-13
2.665350795e-11
4.509852857e-12
-2.461745682e-11
4.68335116e-11
7.79091626e-18
-1.323858891e-06
-1.22188899e-06
-1.141445468e-07
9.312135812e-07
1.119438227e-07
6.064835144e-08
2.511967189e-08
-1.132444906e-09
-2.023498328e-08
-3.252901137e-08
-3.572114119e-08
-2.437175299e-08
1.062250735e-08
8.211320668e-08
2.047999833e-07
3.890283711e-07
6.272325287e-07
8.781554015e-07
1.138879391e-06
1.511215749e-06
2.002397055e-06
2.552175056e-06
7.122636498e-06
1.641333659e-05
-2.49546079e-11
2.050390245e-11
-5.687254614e-12
8.02517475e-11
6.645840632e-12
9.996291632e-06
-1.807461073e-06
-2.047675299e-06
-3.151698879e-06
-1.759929472e-06
1.062667706e-07
5.790475853e-08
2.363148124e-08
-2.650619203e-09
-2.280253357e-08
-3.719756083e-08
-4.370921793e-08
-3.717377905e-08
-8.447115537e-09
5.651959659e-08
1.77336343e-07
3.776782372e-07
6.778684167e-07
1.074348597e-06
1.628161431e-06
2.543836536e-06
5.506148293e-06
5.712957237e-06
-8.694643911e-07
-7.170829392e-11
-9.34087164e-12
1.871562702e-11
5.060125751e-11
2.005398422e-11
1.11897531e-10
3.393656814e-11
-1.776070123e-06
-1.389475078e-06
-2.456709773e-07
8.552071061e-07
8.990884553e-08
4.785074172e-08
1.699019285e-08
-8.103900352e-09
-2.906251745e-08
-4.640388276e-08
-5.856105194e-08
-6.126238112e-08
-4.630707929e-08
8.177592764e-10
1.060163362e-07
3.155431057e-07
7.070445145e-07
1.347773958e-06
1.861487176e-06
1.956513567e-06
-1.547003925e-06
-4.887426984e-11
-5.658235024e-11
-4.825666199e-11
-8.095329875e-12
1.531476803e-11
2.750577867e-11
7.9747352e-11
6.447009831e-11
4.563734298e-11
6.079186128e-11
3.217049193e-11
1.517206585e-06
2.555059803e-11
6.609357805e-08
3.270373249e-08
6.763764452e-09
-1.629713938e-08
-3.785396463e-08
-5.87072215e-08
-7.823646993e-08
-9.41227614e-08
-1.018024645e-07
-9.307650306e-08
-5.143103359e-08
6.157764561e-08
3.46643858e-07
9.345053882e-07
2.619225738e-06
1.872167257e-06
-2.94475371e-11
-3.449701982e-11
-5.523276986e-11
-3.590963597e-11
-2.480405583e-12
1.9841256e-11
3.142249635e-11
4.719547173e-11
6.438205917e-11
6.713303308e-11
6.149369158e-11
9.883418812e-11
7.725150195e-11
4.641459285e-11
3.865559416e-08
1.502155555e-08
-5.282662155e-09
-2.584646221e-08
-4.775755802e-08
-7.206917663e-08
-9.908776737e-08
-1.285407726e-07
-1.602691439e-07
-1.964468123e-07
-2.462088458e-07
-3.314731129e-07
-4.212805906e-07
1.66444471e-07
1.029800362e-06
3.532637248e-06
-4.067278867e-11
-4.193038191e-11
-3.925885959e-11
-2.589405464e-11
-2.670538863e-12
1.648678614e-11
2.838633503e-11
4.532901472e-11
5.007563568e-11
5.53878019e-11
7.794926754e-11
8.55869556e-11
7.266047106e-11
4.866457082e-11
1.16471996e-08
-2.564210768e-09
-1.737466502e-08
-3.542277548e-08
-5.750008821e-08
-8.476957795e-08
-1.180072248e-07
-1.575115376e-07
-2.030905749e-07
-2.545788951e-07
-3.134032375e-07
-3.914603753e-07
-7.618794881e-07
-1.188202679e-06
-2.386207851e-06
-3.972197309e-11
-3.679444657e-11
-3.598882827e-11
-3.617672892e-11
-2.541252686e-11
-6.260569691e-12
1.154837876e-11
2.351830776e-11
3.525660209e-11
4.736421395e-11
5.743202101e-11
7.150694724e-11
8.333184973e-11
7.15663774e-11
4.938104886e-11
-1.122401941e-08
-1.767128173e-08
-2.793294404e-08
-4.390224369e-08
-6.617511477e-08
-9.612014551e-08
-1.351415439e-07
-1.846170762e-07
-2.455898584e-07
-3.181429642e-07
-4.00053917e-07
-5.063227205e-07
-1.238786031e-06
-2.1499094e-06
-1.664508519e-06
-2.770784082e-11
-3.266228792e-11
-3.604166618e-11
-3.569296335e-11
-2.660735248e-11
-1.179528376e-11
3.531467075e-12
1.839629876e-11
3.479932678e-11
5.124097831e-11
6.555614728e-11
7.71177596e-11
8.22002999e-11
7.024058238e-11
4.932388359e-11
-2.7083163e-08
-2.844300531e-08
-3.569954256e-08
-5.030508766e-08
-7.280131254e-08
-1.04836401e-07
-1.487304749e-07
-2.080577539e-07
-2.890024417e-07
-4.027921789e-07
-5.680012856e-07
-7.964659724e-07
-8.025439045e-07
-9.591011677e-07
-5.252897211e-08
-3.011229691e-11
-3.332499072e-11
-3.582827143e-11
-3.615629278e-11
-3.175963154e-11
-1.904793092e-11
-3.521386079e-12
1.626865174e-11
3.984379154e-11
6.059928292e-11
7.714296666e-11
8.497174514e-11
7.793863693e-11
7.132467603e-11
5.074117154e-11
-3.431646774e-08
-3.381168155e-08
-3.990126961e-08
-5.392407283e-08
-7.63718574e-08
-1.088737886e-07
-1.537596518e-07
-2.146996956e-07
-2.980531705e-07
-4.154296785e-07
-5.857755e-07
-8.21889157e-07
-8.377833674e-07
-1.011408876e-06
-8.690380102e-08
-3.01775297e-11
-3.8290623e-11
-4.017164546e-11
-4.197128815e-11
-3.171281498e-11
-2.145568558e-11
-2.978427418e-12
2.219883837e-11
4.853964466e-11
7.639945751e-11
8.50754124e-11
7.330162373e-11
7.868294952e-11
4.853485538e-11
4.104858569e-11
-3.275161654e-08
-3.363304351e-08
-4.041696839e-08
-5.464727531e-08
-7.678099435e-08
-1.081057259e-07
-1.500804814e-07
-2.043087011e-07
-2.72376749e-07
-3.552728291e-07
-4.52306749e-07
-5.802423197e-07
-1.342813249e-06
-2.308325898e-06
-1.776974868e-06
-3.441991659e-11
-5.244476087e-11
-4.436485777e-11
-3.286222257e-11
-3.630203892e-11
-2.007173433e-11
5.304283971e-12
3.339460289e-11
6.361532698e-11
7.360583567e-11
7.473140417e-11
6.515577804e-11
1.700160404e-11
5.025187519e-11
2.717547683e-11
-2.366180804e-08
-2.868375236e-08
-3.776815265e-08
-5.297095375e-08
-7.483375943e-08
-1.043859916e-07
-1.424682589e-07
-1.897256242e-07
-2.467003755e-07
-3.145116891e-07
-3.96357571e-07
-5.071856344e-07
-9.296349829e-07
-1.457241676e-06
-2.467446167e-06
-3.151605363e-11
-4.134318131e-11
-4.468268639e-11
-5.501408624e-11
-2.431896866e-11
-6.730454568e-12
1.841516091e-11
4.695624339e-11
5.753954081e-11
8.076497298e-11
4.670376714e-11
-5.695112866e-12
8.158100185e-11
4.778142726e-11
3.761302395e-11
-9.475499002e-09
-2.045920078e-08
-3.292398142e-08
-4.964194954e-08
-7.133549144e-08
-9.886210153e-08
-1.326045937e-07
-1.727042884e-07
-2.198373318e-07
-2.774417117e-07
-3.562144131e-07
-4.796619148e-07
-6.164926303e-07
-7.49618176e-08
8.215070883e-07
3.319301614e-06
-4.72350774e-11
-4.858299264e-11
6.784155513e-12
-6.03090058e-11
-2.265100015e-12
4.058222644e-11
5.05202411e-11
6.637704576e-11
1.169178242e-11
5.25257971e-11
7.787438795e-11
6.67061458e-11
7.903303498e-11
3.081278579e-11
6.64499631e-09
-1.089778364e-08
-2.711372281e-08
-4.552835653e-08
-6.702561764e-08
-9.215188236e-08
-1.203759505e-07
-1.498441622e-07
-1.768802583e-07
-1.945128129e-07
-1.877797873e-07
-1.199647219e-07
1.060155188e-07
6.053185022e-07
2.122377313e-06
1.591881146e-06
-1.64446005e-11
3.322335266e-11
-1.007688285e-10
-2.091933684e-11
-2.440743004e-11
2.446873684e-11
3.808066616e-11
-1.625162551e-11
1.609996879e-10
6.066438194e-11
4.261247569e-11
5.52797241e-11
3.3756491e-11
1.593432563e-11
2.140748189e-08
-2.038159572e-09
-2.166190211e-08
-4.164653644e-08
-6.29792359e-08
-8.589792273e-08
-1.089171797e-07
-1.283045537e-07
-1.366876898e-07
-1.206275374e-07
-5.507068894e-08
1.056165686e-07
4.398124932e-07
1.011897545e-06
1.419819065e-06
1.498784967e-06
-1.859292546e-06
-4.630433192e-11
-1.325611936e-11
-1.01295109e-10
-3.620692682e-11
1.400110665e-11
9.217281067e-14
1.586521121e-10
7.527276079e-11
3.026211578e-11
1.065315423e-11
5.450645951e-17
1.558239369e-06
1.898767544e-12
3.195052641e-08
4.351214012e-09
-1.77603879e-08
-3.895774004e-08
-6.035810949e-08
-8.196514528e-08
-1.018381412e-07
-1.153497208e-07
-1.142948857e-07
-8.551517928e-08
-1.009191374e-08
1.356884566e-07
3.733112557e-07
7.027947283e-07
1.193007423e-06
2.04614148e-06
4.964291173e-06
5.386638464e-06
-8.142727655e-07
-3.540532452e-11
7.992372063e-12
3.108818106e-11
6.859786083e-11
5.833200112e-11
1.33545476e-11
9.014977148e-18
-1.432568727e-06
-1.308566751e-06
-2.360116618e-07
1.041487058e-06
3.641337042e-08
7.077526645e-09
-1.62011278e-08
-3.815314059e-08
-5.993108268e-08
-8.153025191e-08
-1.008919891e-07
-1.132959549e-07
-1.106468431e-07
-8.110646657e-08
-1.058228097e-08
1.11609078e-07
2.798474246e-07
4.583424446e-07
6.548778167e-07
9.661505879e-07
1.44715648e-06
2.263800815e-06
6.759327638e-06
1.613511879e-05
2.651704546e-11
3.299335964e-11
2.72696228e-11
-1.381727089e-11
-2.317571117e-12
9.917921392e-06
-1.942804951e-06
-2.08714227e-06
-3.264547447e-06
-1.612150615e-06
3.42180789e-08
5.774458921e-09
-1.723797876e-08
-3.945424878e-08
-6.194714137e-08
-8.491387669e-08
-1.064183853e-07
-1.220573127e-07
-1.23541512e-07
-9.786128807e-08
-2.595362535e-08
1.155493025e-07
3.481840892e-07
6.728594857e-07
1.158403581e-06
1.984948486e-06
4.919249803e-06
5.36712914e-06
-8.402207696e-07
-2.710452632e-11
1.265003745e-11
2.29191474e-11
6.640631767e-12
-2.074407469e-12
4.402949187e-11
2.918652868e-11
-1.647116183e-06
-1.497769185e-06
8.425430115e-08
9.651535519e-07
2.619938911e-08
1.006478887e-09
-2.057379291e-08
-4.256209793e-08
-6.616957108e-08
-9.170572223e-08
-1.180422765e-07
-1.415366088e-07
-1.550947523e-07
-1.450959769e-07
-8.674193943e-08
6.579133628e-08
3.907643135e-07
9.511601525e-07
1.325400338e-06
1.383997675e-06
-1.944738958e-06
-9.069950639e-11
-6.832242736e-11
-3.549201993e-11
-3.471857438e-12
1.790893064e-11
1.213303274e-11
2.748152061e-11
2.129314493e-11
1.353250277e-10
6.68511154e-11
1.335017353e-11
1.464730809e-06
-6.599761767e-11
)
;

boundaryField
{
    lowerWall
    {
        type            calculated;
        value           nonuniform 0();
    }
    atmosphere
    {
        type            calculated;
        value           nonuniform List<scalar> 
20
(
8.248869629e-08
1.045775871e-07
1.119438227e-07
1.062667706e-07
8.990884553e-08
6.609357805e-08
3.865559416e-08
1.16471996e-08
-1.122401941e-08
-2.7083163e-08
-3.431646774e-08
-3.275161654e-08
-2.366180804e-08
-9.475499002e-09
6.64499631e-09
2.140748189e-08
3.195052641e-08
3.641337042e-08
3.42180789e-08
2.619938911e-08
)
;
    }
    rightWall
    {
        type            empty;
    }
    leftWall
    {
        type            empty;
    }
    frontAndBack
    {
        type            calculated;
        value           nonuniform 0();
    }
    procBoundary2to0
    {
        type            processor;
        value           nonuniform List<scalar> 
30
(
4.400855912e-08
9.471370915e-09
-1.137121308e-08
-2.653802347e-08
-3.919447397e-08
-5.00417126e-08
-5.777917763e-08
-5.897758362e-08
-4.795170165e-08
-1.525591457e-08
5.666133179e-08
2.074066017e-07
5.382788226e-07
1.173399936e-06
2.922888741e-06
2.112622091e-06
-3.953467009e-11
-4.854855367e-11
-7.138070021e-11
-6.150942311e-11
-1.445840227e-11
1.562639855e-11
2.058736656e-11
4.508269189e-12
7.108886814e-11
1.019989643e-10
1.075936983e-10
5.031876649e-11
-2.428171201e-11
9.72044786e-11
)
;
    }
    procBoundary2to3
    {
        type            processor;
        value           nonuniform List<scalar> 
20
(
5.707936867e-11
-4.721979718e-11
-4.098817237e-11
-2.631415274e-11
1.715055749e-11
4.672616861e-11
5.180571924e-11
5.813739001e-11
6.313183243e-11
6.577643268e-11
5.759418548e-11
3.306180553e-11
1.080599957e-11
4.816514462e-11
3.208285527e-11
-2.53416226e-11
-3.439822361e-11
-2.554206782e-12
-3.668161038e-11
9.0043293e-11
)
;
    }
    procBoundary2to4
    {
        type            processor;
        value           nonuniform List<scalar> 
30
(
1.451584799e-08
-6.003301635e-09
-2.530231669e-08
-4.688424962e-08
-7.176055698e-08
-1.008228961e-07
-1.338510664e-07
-1.694535849e-07
-2.040898399e-07
-2.309582124e-07
-2.350508681e-07
-1.801925434e-07
3.027592092e-08
5.12291019e-07
1.997626314e-06
1.489196769e-06
-4.11558829e-11
-5.502617556e-11
-9.737386659e-11
-6.715522141e-11
-1.536198587e-11
2.300217997e-11
3.407642074e-11
4.155113905e-12
7.903356925e-11
8.891926585e-11
1.175502103e-10
5.739457561e-11
-2.646991937e-11
1.151070177e-10
)
;
    }
}


// ************************************************************************* //
