/*--------------------------------*- C++ -*----------------------------------*\
  =========                 |
  \\      /  F ield         | OpenFOAM: The Open Source CFD Toolbox
   \\    /   O peration     | Website:  https://openfoam.org
    \\  /    A nd           | Version:  6
     \\/     M anipulation  |
\*---------------------------------------------------------------------------*/
FoamFile
{
    version     2.0;
    format      ascii;
    class       surfaceScalarField;
    location    "0.0039";
    object      phi;
}
// * * * * * * * * * * * * * * * * * * * * * * * * * * * * * * * * * * * * * //

dimensions      [0 3 -1 0 0 0 0];

internalField   nonuniform List<scalar> 
1150
(
-8.280595583e-19
-2.735874978e-19
-8.766196313e-19
-3.103862316e-19
-9.617965017e-19
-3.759096156e-19
-1.08878742e-18
-4.637608858e-19
-1.263807706e-18
-5.693823095e-19
-1.493983408e-18
-6.896365164e-19
-1.786406527e-18
-8.221406881e-19
-2.146453059e-18
-9.644164057e-19
-2.574744792e-18
-1.11277141e-18
-3.061639007e-18
-1.260730911e-18
-3.576256986e-18
-1.39699055e-18
-4.043808545e-18
-1.503771193e-18
-4.299933109e-18
-1.560058993e-18
-4.031552149e-18
-1.562609831e-18
-2.924192499e-18
-1.5922961e-18
-5.603475534e-19
-1.83778047e-18
1.868459531e-19
-1.506782951e-18
1.297525123e-19
1.81385166e-20
1.290073179e-19
1.507336024e-20
4.748976704e-20
1.506056246e-19
1.496528607e-20
1.045090585e-19
-4.838965296e-21
8.550240569e-20
-1.502077822e-20
6.697157917e-20
-3.495069349e-20
7.065588743e-20
-6.365493336e-20
6.758969518e-20
-1.243882111e-19
7.327537447e-20
-5.807173082e-20
-1.338319036e-19
1.683205816e-20
-2.024475286e-19
-2.532911435e-19
8.448266253e-19
2.532911433e-19
-9.532683935e-19
-2.104144008e-19
-1.00572691e-18
-2.337846204e-19
-1.098067874e-18
-2.745693062e-19
-1.23654495e-18
-3.27253315e-19
-1.428736847e-18
-3.870019993e-19
-1.683511438e-18
-4.496055005e-19
-2.010127309e-18
-5.112702917e-19
-2.416561632e-18
-5.683942504e-19
-2.906513764e-18
-6.173370213e-19
-3.474619952e-18
-6.543010555e-19
-4.099122564e-18
-6.754982123e-19
-4.732378341e-18
-6.785410528e-19
-5.292619601e-18
-6.675335591e-19
-5.672204144e-18
-6.672880993e-19
-5.743202759e-18
-7.507302183e-19
-5.351178522e-18
-1.034004404e-18
-3.032227581e-18
-1.293290426e-18
5.301897312e-32
-4.032349113e-19
2.154910131e-19
-5.137961007e-19
1.393200721e-21
3.64708947e-19
-4.041366761e-21
1.09943331e-19
-2.336979173e-20
1.048426767e-19
-1.133647006e-20
5.494026189e-20
-3.801688574e-20
9.732536201e-20
-5.796925396e-20
8.75628783e-20
-2.824469198e-19
2.977530403e-19
-6.383713633e-32
-1.004660553e-18
-5.913092337e-19
-1.542000689e-19
-4.705539248e-19
6.733404066e-19
-1.627271125e-33
-1.038820415e-18
-1.439504412e-19
-1.09129201e-18
-1.54358202e-19
-1.183672766e-18
-1.710242523e-19
-1.322455985e-18
-1.889734041e-19
-1.515599655e-18
-2.02851656e-19
-1.772511657e-18
-2.071508362e-19
-2.103254912e-18
-1.964031001e-19
-2.51699194e-18
-1.654891121e-19
-3.019371365e-18
-1.102364822e-19
-3.608778823e-18
-2.839883842e-20
-4.272344161e-18
7.908933969e-20
-4.985498085e-18
2.075143697e-19
-5.725560105e-18
3.512984739e-19
-6.519068909e-18
5.165119937e-19
-7.51305178e-18
7.494212698e-19
-9.015949624e-18
1.140544884e-18
-1.085427719e-17
1.434991387e-18
-1.056873036e-17
4.455182789e-19
-8.513251575e-18
5.963413362e-19
-4.924520148e-19
-3.612743643e-19
-2.774701736e-19
-1.050496011e-19
-7.32722063e-20
-9.934617784e-20
3.104862993e-20
-4.938310201e-20
2.205487832e-19
-9.213912378e-20
3.913005077e-19
-8.318589255e-20
5.426668993e-18
-2.948191725e-19
2.405319897e-18
1.21337251e-18
1.118885493e-18
2.221564242e-19
9.438095655e-19
-5.523387204e-19
4.010651393e-33
-1.085158485e-18
-8.127520564e-20
-1.133531983e-18
-8.02492558e-20
-1.218458016e-18
-7.559533868e-20
-1.345849468e-18
-6.27600048e-20
-1.522949551e-18
-3.588603289e-20
-1.758344541e-18
1.171190457e-20
-2.061222581e-18
8.704862052e-20
-2.439909771e-18
1.96676399e-19
-2.899190872e-18
3.452903447e-19
-3.435825372e-18
5.333554829e-19
-4.031506546e-18
7.535866653e-19
-4.643278333e-18
9.871431515e-19
-5.194740813e-18
1.204035806e-18
-5.581717096e-18
1.380976542e-18
-5.673259438e-18
1.564590915e-18
-5.295638717e-18
1.893518179e-18
-2.999200536e-18
1.585730225e-18
5.368930261e-32
-1.45901498e-20
2.189255958e-19
-9.01287824e-21
2.852347967e-21
-1.452329869e-19
-3.438597869e-21
-9.876280676e-20
-2.330913065e-20
-7.9467327e-20
-1.170739173e-20
-6.096235148e-20
-3.882613821e-20
-6.501146442e-20
-5.941237189e-20
-6.254992663e-20
-2.853807876e-19
-6.883567385e-20
-6.460760191e-32
1.386272228e-19
-6.005325104e-19
2.05144455e-19
-4.363103362e-19
-8.257479956e-19
-2.528460759e-19
-1.096310528e-18
-2.827740617e-20
-1.13691793e-18
-1.837485684e-20
-1.207715408e-18
2.753335817e-21
-1.313288615e-18
3.921146926e-20
-1.45916825e-18
9.707692692e-20
-1.651838016e-18
1.837577233e-19
-1.898100247e-18
3.072837168e-19
-2.203839924e-18
4.75188351e-19
-2.571615375e-18
6.924848716e-19
-2.995830013e-18
9.579335698e-19
-3.452400319e-18
1.257275342e-18
-3.876397045e-18
1.551381258e-18
-4.116051107e-18
1.757931876e-18
-3.870299632e-18
1.734235715e-18
-2.828175369e-18
1.349794287e-18
-5.371607655e-19
4.720651604e-19
1.903943199e-19
1.706178399e-19
1.322646275e-19
4.351782075e-20
1.317540563e-19
-8.527454805e-21
4.932252832e-20
-6.282290628e-20
1.585688189e-20
-6.530075826e-20
-4.804155211e-21
-5.879948333e-20
-1.575650458e-20
-4.999777732e-20
-3.636460042e-20
-4.436792532e-20
-6.569811921e-20
-3.318775446e-20
-1.269664603e-19
-7.547049531e-21
-6.017012367e-20
7.185790482e-20
1.413513174e-20
1.308534976e-19
-2.528460761e-19
1.155472497e-19
-5.076185698e-19
-1.079490819e-18
1.090812432e-20
-1.109700779e-18
2.637009477e-20
-1.161578372e-18
5.763704658e-20
-1.237835457e-18
1.082253811e-19
-1.341529452e-18
1.839469382e-19
-1.476045773e-18
2.921819456e-19
-1.644615042e-18
4.410812215e-19
-1.849605736e-18
6.38346706e-19
-2.091456038e-18
8.890896345e-19
-2.366828131e-18
1.191938328e-18
-2.66417189e-18
1.531760864e-18
-2.950606519e-18
1.865183729e-18
-3.128240329e-18
2.089629623e-18
-2.948418873e-18
1.969749987e-18
-1.338506126e-18
9.039818663e-19
-3.436662974e-20
8.226818257e-33
6.329430106e-20
7.294382131e-20
8.021935182e-20
2.657743798e-20
7.745860463e-20
-5.791255508e-21
4.684467637e-20
-3.222493786e-20
2.235815679e-20
-4.081534108e-20
3.997550718e-21
-4.043005893e-20
-1.012665249e-20
-3.585960855e-20
-2.518442953e-20
-2.928917252e-20
-4.005741424e-20
-1.828615549e-20
-4.756150583e-20
-1.312103851e-23
-1.174530907e-21
2.549826043e-20
1.112211302e-19
1.850176286e-20
3.239880543e-19
-9.718534043e-20
1.698162462e-19
-1.044193649e-18
3.430583746e-20
-1.062837759e-18
5.16904512e-20
-1.093678936e-18
8.61303735e-20
-1.137304093e-18
1.40363222e-19
-1.193921423e-18
2.193386868e-19
-1.263247623e-18
3.294773999e-19
-1.344053845e-18
4.778484357e-19
-1.433774043e-18
6.709376719e-19
-1.528517548e-18
9.126024087e-19
-1.624561074e-18
1.20067216e-18
-1.723719594e-18
1.52149323e-18
-1.847021673e-18
1.841164425e-18
-2.033718047e-18
2.089090178e-18
-2.079852224e-18
2.089859484e-18
-1.787579689e-18
1.069398381e-18
-8.811016471e-20
-1.29408524e-19
1.692791775e-20
-3.211233795e-20
4.785065848e-20
-4.363938473e-21
5.102492234e-20
-8.982967752e-21
3.825427326e-20
-1.946579725e-20
2.274343898e-20
-2.53056937e-20
8.568001041e-21
-2.624729353e-20
-3.55621642e-21
-2.372277494e-20
-1.418141254e-20
-1.864383017e-20
-2.178437985e-20
-1.066093235e-20
-2.205012443e-20
2.772403466e-22
-8.171028472e-21
1.165380859e-20
-4.465973113e-21
1.483474615e-20
-1.214025721e-19
1.978355208e-20
5.666575941e-20
-1.000894634e-18
4.225338079e-20
-1.008461873e-18
5.811804085e-20
-1.019195281e-18
8.914170879e-20
-1.031682911e-18
1.371073954e-19
-1.043446308e-18
2.055464891e-19
-1.050694862e-18
2.990505865e-19
-1.047746854e-18
4.224527717e-19
-1.026363158e-18
5.79548848e-19
-9.748692467e-19
7.708460198e-19
-8.768735357e-19
9.895302737e-19
-7.090810957e-19
1.214410462e-18
-4.402334496e-19
1.39833439e-18
-1.413583935e-19
1.451602016e-18
1.934017493e-19
1.227009262e-18
2.022633072e-19
-4.142909691e-33
7.252969929e-20
3.074296229e-22
4.467631728e-20
-4.275309019e-21
4.32316292e-20
-2.935245433e-21
4.054209281e-20
-6.309509907e-21
3.241437683e-20
-1.134937573e-20
2.180183915e-20
-1.46959385e-20
1.109251959e-20
-1.553284135e-20
1.522728394e-21
-1.414253116e-20
-6.198514729e-21
-1.090691745e-20
-1.084620714e-20
-5.992189186e-21
-1.067355617e-20
1.301147274e-22
-4.990090914e-21
6.002124199e-21
4.828328512e-22
9.398858765e-21
8.071858805e-21
1.222633341e-20
1.437520546e-20
-9.595731576e-19
3.722113733e-20
-9.581192425e-19
4.881022272e-20
-9.525569761e-19
7.116480062e-20
-9.399771837e-19
1.050154947e-19
-9.159562533e-19
1.521143966e-19
-8.743219731e-19
2.146962416e-19
-8.0675009e-19
2.948179802e-19
-7.025528425e-19
3.932995668e-19
-5.486308061e-19
5.077729353e-19
-3.293017034e-19
6.28804298e-19
-2.468448899e-20
7.319915071e-19
3.864345034e-19
7.621830769e-19
6.827727397e-19
6.046922101e-19
8.790086221e-19
7.525809178e-20
1.392270586e-19
-1.731626528e-32
6.794696057e-20
7.157521305e-20
4.601638082e-20
1.764075416e-20
3.985736469e-20
3.207752182e-21
3.550222694e-20
-1.970235695e-21
2.906781404e-20
-4.926788317e-21
2.096493628e-20
-6.598303101e-21
1.248282975e-20
-7.049165275e-21
4.758342129e-21
-6.409867413e-21
-1.283786471e-21
-4.849322478e-21
-4.723903216e-21
-2.529298673e-21
-4.801546696e-21
2.368942727e-22
-1.593356348e-21
2.828208411e-21
3.31030751e-21
4.531728374e-21
1.022073083e-20
5.34712813e-21
4.091107217e-21
-9.28308892e-19
2.332894222e-20
-9.210886648e-19
2.89486599e-20
-9.052305978e-19
3.944027017e-20
-8.770619115e-19
5.448899167e-20
-8.312568379e-19
7.395318421e-20
-7.607367713e-19
9.758221895e-20
-6.567422386e-19
1.247210142e-19
-5.099062231e-19
1.539934384e-19
-3.13528063e-19
1.829492456e-19
-7.142700665e-20
2.076844954e-19
1.856816623e-19
2.224378226e-19
3.745815904e-19
2.192982721e-19
4.344687736e-19
1.881188469e-19
-3.417967151e-20
1.176393515e-19
-5.752588134e-20
2.933586825e-34
1.401250174e-20
2.344672806e-23
3.158337886e-20
5.506593942e-23
3.467937684e-20
9.583052178e-23
3.254567433e-20
1.473973515e-22
2.739629928e-20
2.084713429e-22
2.051407412e-20
2.754563055e-22
1.312212761e-20
3.412161818e-22
6.318887076e-21
4.006036294e-22
1.03623733e-21
4.510356201e-22
-1.957710274e-21
4.915819455e-22
-2.210232562e-21
5.237023237e-22
1.101636125e-22
5.455774569e-22
4.125707275e-21
5.508241064e-22
8.964709911e-21
5.398253495e-22
5.087395308e-22
-9.122090794e-19
5.615639008e-21
-9.031202944e-19
4.832460941e-21
-8.841147854e-19
2.700863562e-21
-8.51553739e-19
-2.038309305e-21
-8.002255195e-19
-1.1318083e-20
-7.232673726e-19
-2.776427847e-20
-6.122740179e-19
-5.460996358e-20
-4.584378244e-19
-9.526484189e-20
-2.55907749e-19
-1.520489058e-19
-9.78016081e-21
-2.230785056e-19
2.474514075e-19
-2.951384122e-19
4.301486781e-19
-3.286830685e-19
4.752471158e-19
-2.293277543e-19
-1.887852304e-20
1.622499344e-19
-5.750243461e-20
1.788250657e-32
1.404412095e-20
-7.153652107e-20
3.162414344e-20
-1.75419746e-20
3.473094367e-20
-3.028823774e-21
3.260674832e-20
2.252938794e-21
2.746328424e-20
5.337840839e-21
2.0579834e-20
7.149370685e-21
1.318151505e-20
7.738211382e-21
6.369319066e-21
7.222665768e-21
1.076783656e-21
5.765144206e-21
-1.925589895e-21
3.52791081e-21
-2.188357429e-21
8.242811527e-22
1.15410262e-22
-1.725611735e-21
4.114708519e-21
-3.41350395e-21
8.933624091e-21
-4.257519177e-21
-3.065372684e-21
-9.128389923e-19
-1.079923638e-20
-9.057905312e-19
-1.716401941e-20
-8.907958484e-19
-3.025691638e-20
-8.650340859e-19
-5.208774964e-20
-8.24406548e-19
-8.607050728e-20
-7.633559383e-19
-1.368618774e-19
-6.745794824e-19
-2.100888557e-19
-5.489886248e-19
-3.116595665e-19
-3.759240482e-19
-4.461698152e-19
-1.433121234e-19
-6.135894656e-19
1.63530205e-19
-8.03005962e-19
5.588122733e-19
-9.818506122e-19
8.131656534e-19
-1.080487023e-18
9.29055805e-19
-9.795628374e-19
1.392891973e-19
4.908925699e-33
6.803866736e-20
-3.012888701e-22
4.613729425e-20
4.336089731e-21
4.001270621e-20
3.076046553e-21
3.569165035e-20
6.559389217e-21
2.927481406e-20
1.173854289e-20
2.116867468e-20
1.524658929e-20
1.266596945e-20
1.624327408e-20
4.911797491e-21
1.499167977e-20
-1.160449737e-21
1.186566491e-20
-4.629219547e-21
7.029394326e-21
-4.738250314e-21
9.66525877e-22
-1.57248195e-21
-4.862421975e-21
3.270693284e-21
-8.249122917e-21
1.012577058e-20
-1.109026231e-20
-1.33184575e-20
-9.282229654e-19
-2.155120682e-20
-9.265098877e-19
-3.162543153e-20
-9.215664521e-19
-5.198619761e-20
-9.120908462e-19
-8.510600167e-20
-8.960858584e-19
-1.353349437e-19
-8.706984773e-19
-2.086430327e-19
-8.318138563e-19
-3.12292703e-19
-7.736484948e-19
-4.541474275e-19
-6.882337356e-19
-6.412291858e-19
-5.646156467e-19
-8.769905276e-19
-3.872045546e-19
-1.156575974e-18
-1.355917195e-19
-1.458879285e-18
1.01936615e-19
-1.731186461e-18
2.976890826e-19
-1.822978272e-18
2.023315866e-19
-1.001285246e-18
7.267604604e-20
1.293402446e-19
4.487725111e-20
3.211650991e-20
4.349604891e-20
4.437389784e-21
4.087080408e-20
9.160183342e-21
3.278286047e-20
1.981567807e-20
2.216535949e-20
2.586109895e-20
1.141437517e-20
2.700244292e-20
1.785782616e-21
2.464114176e-20
-5.996720322e-21
1.967374098e-20
-1.0692088e-20
1.176065755e-20
-1.056719817e-20
8.623932802e-22
-4.959182892e-21
-1.047296842e-20
4.295538786e-22
-1.360160146e-20
7.897575419e-21
-1.853704766e-20
-5.553797955e-20
-9.534092258e-19
-2.371107329e-20
-9.591746059e-19
-3.495302953e-20
-9.682014637e-19
-5.759222041e-20
-9.811607279e-19
-9.420982623e-20
-9.988266462e-19
-1.493736882e-19
-1.022072928e-18
-2.293354622e-19
-1.051637514e-18
-3.416634925e-19
-1.088044155e-18
-4.944982474e-19
-1.132028896e-18
-6.949499261e-19
-1.186518261e-18
-9.458085902e-19
-1.262515278e-18
-1.238896474e-18
-1.39336645e-18
-1.541211186e-18
-1.634086546e-18
-1.76446309e-18
-1.798577598e-18
-1.691803584e-18
-1.692476774e-18
-7.422718078e-19
-8.789136654e-20
-7.219027726e-33
1.719813094e-20
-7.299398093e-20
4.821884247e-20
-2.660491419e-20
5.152629885e-20
5.855742142e-21
3.882828133e-20
3.248689159e-20
2.330670346e-20
4.138167012e-20
9.053074051e-21
4.127410887e-20
-3.18161821e-21
3.689828747e-20
-1.390980375e-20
3.043142743e-20
-2.159035228e-20
1.944640242e-20
-2.190255988e-20
1.197945686e-21
-8.087815937e-21
-2.425310153e-20
-4.505892348e-21
-1.715387788e-20
-1.2169558e-19
9.868776582e-20
-1.685646226e-19
-9.815271001e-19
-1.621347523e-20
-9.954211076e-19
-2.590248139e-20
-1.019568709e-18
-4.549516236e-20
-1.056687066e-18
-7.732629432e-20
-1.110406477e-18
-1.254434409e-19
-1.185386028e-18
-1.953123037e-19
-1.2870867e-18
-2.934632422e-19
-1.42141761e-18
-4.267647426e-19
-1.594102213e-18
-6.008787718e-19
-1.809296399e-18
-8.170645433e-19
-2.065651958e-18
-1.065998598e-18
-2.34375888e-18
-1.316421918e-18
-2.56389217e-18
-1.497211792e-18
-2.506799115e-18
-1.479866194e-18
-1.154697183e-18
-1.151094935e-18
-3.419799118e-20
-4.129964611e-19
6.358719765e-20
-1.707864785e-19
8.067949865e-20
-4.368244926e-20
7.815744822e-20
8.333006425e-21
4.772305974e-20
6.291198259e-20
2.319914218e-20
6.589473993e-20
4.677252696e-21
5.980687335e-20
-9.648478289e-21
5.124094319e-20
-2.489482871e-20
4.567055491e-20
-3.983880895e-20
3.446193807e-20
-4.735360703e-20
8.739705708e-21
-9.885922914e-22
-7.059917738e-20
1.113357513e-19
-1.294536527e-19
3.234442445e-19
-1.134057245e-19
5.090188076e-19
-1.005153003e-18
6.544394818e-23
-1.026273697e-18
-5.687635814e-21
-1.063819037e-18
-1.757733504e-20
-1.12224927e-18
-3.740563304e-20
-1.207598014e-18
-6.808546794e-20
-1.327647921e-18
-1.134392517e-19
-1.491581859e-18
-1.779369396e-19
-1.70914865e-18
-2.662221971e-19
-1.988672251e-18
-3.821052552e-19
-2.332617271e-18
-5.267317624e-19
-2.727439376e-18
-6.956523553e-19
-3.121249344e-18
-8.756712527e-19
-3.377268894e-18
-1.045720023e-18
-3.212533784e-18
-1.194869062e-18
-2.348428823e-18
-1.384169199e-18
-3.246356048e-19
-1.770663027e-18
1.906912265e-19
-1.512465553e-18
1.326949544e-19
1.429324316e-20
1.327364246e-19
8.285644636e-21
5.070581705e-20
1.448975701e-19
1.711127564e-20
9.947318937e-20
-3.888677378e-21
8.081304908e-20
-1.521886666e-20
6.257117344e-20
-3.610344558e-20
6.662564588e-20
-6.556104136e-20
6.395298842e-20
-1.266924902e-19
6.988460438e-20
-5.98430676e-20
-1.374438652e-19
1.499143324e-20
-2.042881535e-19
-2.541311733e-19
8.482677125e-19
2.541311731e-19
-1.017732536e-18
2.257064119e-20
-1.043849658e-18
2.236335864e-20
-1.09062561e-18
2.130511105e-20
-1.163658981e-18
1.831318699e-20
-1.270562309e-18
1.199203434e-20
-1.421149802e-18
7.192870721e-22
-1.627065548e-18
-1.728258898e-20
-1.900746947e-18
-4.380734111e-20
-2.253244315e-18
-8.040561452e-20
-2.69006266e-18
-1.279201637e-19
-3.204220999e-18
-1.859793108e-19
-3.766317313e-18
-2.532689582e-19
-4.314853557e-18
-3.312676649e-19
-4.760335292e-18
-4.370341139e-19
-4.984210366e-18
-6.300686033e-19
-4.838334117e-18
-1.007143063e-18
-2.823411685e-18
-1.321036352e-18
5.629940305e-32
-4.150569003e-19
2.202997809e-19
-5.739131435e-19
5.281436083e-21
3.599001792e-19
-1.548864652e-21
1.063070423e-19
-2.213055294e-20
1.014085543e-19
-1.116439431e-20
5.163550275e-20
-3.877610304e-20
9.426327994e-20
-5.96294253e-20
8.481224603e-20
-2.849723905e-19
2.952275696e-19
-6.554964836e-32
-1.059113469e-18
-6.721085722e-19
-1.137648046e-19
-5.221677821e-19
5.934328506e-19
-2.930172828e-33
-1.014788008e-18
4.76487355e-20
-1.04280505e-18
5.352596816e-20
-1.093037445e-18
6.43370044e-20
-1.171444142e-18
7.976293344e-20
-1.28613014e-18
1.000419955e-19
-1.447574927e-18
1.259284063e-19
-1.668260357e-18
1.585619572e-19
-1.961675123e-18
1.992536669e-19
-2.34028422e-18
2.490271081e-19
-2.812221808e-18
3.079701062e-19
-3.377368254e-18
3.744638989e-19
-4.026320617e-18
4.452874394e-19
-4.752392558e-18
5.191809089e-19
-5.595472443e-18
6.097535238e-19
-6.707153326e-18
7.726690868e-19
-8.383394925e-18
1.098498797e-18
-1.041315608e-17
1.351905463e-18
-1.022284587e-17
4.007665782e-19
-8.378314993e-18
5.857015996e-19
-4.873913004e-19
-3.598596225e-19
-2.747755051e-19
-1.062969677e-19
-7.190360433e-20
-1.014486827e-19
3.146338275e-20
-5.17193645e-20
2.201010157e-19
-9.438049397e-20
3.89865498e-19
-8.49532663e-20
5.388404517e-18
-2.953463945e-19
2.311729335e-18
1.154092846e-18
1.002836747e-18
2.675089975e-19
8.764794365e-19
-7.311198126e-19
2.827683567e-33
-9.947226885e-19
7.130976899e-20
-1.021276006e-18
8.264571166e-20
-1.068694564e-18
1.04094239e-19
-1.142447526e-18
1.359806739e-19
-1.249953797e-18
1.800162037e-19
-1.400854752e-18
2.3908986e-19
-1.606633925e-18
3.170440701e-19
-1.879690564e-18
4.180626119e-19
-2.231124106e-18
5.455533113e-19
-2.666655336e-18
7.000074299e-19
-3.179577035e-18
8.758506535e-19
-3.740817785e-18
1.057883435e-18
-4.288960305e-18
1.222071913e-18
-4.733832854e-18
1.353674734e-18
-4.956056546e-18
1.509738815e-18
-4.824376201e-18
1.849017779e-18
-2.800268564e-18
1.514131072e-18
5.40876839e-32
-1.411125438e-20
2.203403376e-19
-8.070191544e-21
5.250953948e-21
-1.447822853e-19
-1.599067615e-21
-9.944132389e-20
-2.21742863e-20
-8.086327775e-20
-1.11977466e-20
-6.26929528e-20
-3.879990929e-20
-6.677925324e-20
-5.96072299e-20
-6.412637703e-20
-2.848535657e-19
-7.008708696e-20
-6.540950813e-32
1.371876426e-19
-6.022788007e-19
2.041126043e-19
-4.885054657e-19
-8.074467916e-19
-2.543026348e-19
-9.59067891e-19
-9.811751783e-19
-1.020222754e-18
-1.080364772e-18
-1.167268548e-18
-1.288296429e-18
-1.4523138e-18
-1.668904434e-18
-1.946540103e-18
-2.28810944e-18
-2.680863846e-18
-3.073751514e-18
-3.330308449e-18
-3.167021746e-18
-2.311382167e-18
-2.878523491e-19
1.908732153e-19
1.327284187e-19
1.32676813e-19
5.05919156e-20
1.697897853e-20
-4.003961425e-21
-1.528404695e-20
-3.614703308e-20
-6.556793994e-20
-1.266274054e-19
-5.976239416e-20
1.516698245e-20
-2.54302635e-19
)
;

boundaryField
{
    lowerWall
    {
        type            calculated;
        value           nonuniform 0();
    }
    atmosphere
    {
        type            calculated;
        value           nonuniform List<scalar> 
20
(
8.125836163e-19
9.365742242e-19
1.022109265e-18
1.069712926e-18
1.083272215e-18
1.069680212e-18
1.0379762e-18
9.981236238e-19
9.59616948e-19
9.301641258e-19
9.146706191e-19
9.146975936e-19
9.284585767e-19
9.513577593e-19
9.769828337e-19
9.983885201e-19
1.009427573e-18
1.005893634e-18
9.862696901e-19
9.519615474e-19
)
;
    }
    rightWall
    {
        type            empty;
        value           nonuniform 0();
    }
    leftWall
    {
        type            empty;
        value           nonuniform 0();
    }
    frontAndBack
    {
        type            calculated;
        value           nonuniform 0();
    }
    procBoundary2to0
    {
        type            processor;
        value           nonuniform List<scalar> 
30
(
3.257250826e-19
3.75675482e-19
4.647380383e-19
5.849993993e-19
7.317223434e-19
9.023740759e-19
1.095410527e-18
1.308790694e-18
1.538052043e-18
1.773240873e-18
1.993632468e-18
2.158277232e-18
2.191179132e-18
1.969495666e-18
1.405695972e-18
4.498598123e-19
1.667459026e-19
3.892081507e-20
-1.436419971e-20
-6.910792615e-20
-7.198297533e-20
-6.568214801e-20
-5.677554234e-20
-5.072289415e-20
-3.887277421e-20
-1.247551138e-20
6.755538816e-20
1.275548129e-19
1.123400826e-19
-5.088032848e-19
)
;
    }
    procBoundary2to3
    {
        type            processor;
        value           nonuniform List<scalar> 
20
(
2.202527666e-21
1.966099217e-19
1.616186893e-19
1.966277873e-19
1.937773564e-21
-3.53426133e-19
-8.230456594e-21
5.038435989e-20
2.052675079e-20
1.256962923e-20
1.252598012e-20
2.039093339e-20
5.013381437e-20
-8.655242373e-21
-3.541321038e-19
7.573050877e-22
1.948465285e-19
1.599680525e-19
1.947543037e-19
6.689207349e-22
)
;
    }
    procBoundary2to4
    {
        type            processor;
        value           nonuniform List<scalar> 
30
(
9.006028556e-20
1.052003229e-19
1.339979066e-19
1.77206204e-19
2.375112815e-19
3.193596423e-19
4.285982064e-19
5.71748087e-19
7.542579792e-19
9.770896654e-19
1.230053087e-18
1.480011697e-18
1.652301876e-18
1.613125875e-18
1.243166054e-18
4.405980389e-19
1.710770819e-19
4.399323133e-20
-8.048951359e-21
-6.271316209e-20
-6.582992988e-20
-5.987237828e-20
-5.140747482e-20
-4.59040531e-20
-3.469600655e-20
-8.967477061e-21
7.035234299e-20
1.291891611e-19
1.13014296e-19
-5.093035228e-19
)
;
    }
}


// ************************************************************************* //
