/*--------------------------------*- C++ -*----------------------------------*\
  =========                 |
  \\      /  F ield         | OpenFOAM: The Open Source CFD Toolbox
   \\    /   O peration     | Website:  https://openfoam.org
    \\  /    A nd           | Version:  6
     \\/     M anipulation  |
\*---------------------------------------------------------------------------*/
FoamFile
{
    version     2.0;
    format      ascii;
    class       volScalarField;
    location    "0.0039";
    object      TRHS;
}
// * * * * * * * * * * * * * * * * * * * * * * * * * * * * * * * * * * * * * //

dimensions      [1 -1 -3 0 0 0 0];

internalField   nonuniform List<scalar> 
600
(
8.208300145e-09
3.74439129e-09
8.156764142e-10
-1.293262843e-09
-2.852238081e-09
-3.931261448e-09
-4.335485507e-09
-3.581784812e-09
-7.743755364e-10
5.614378808e-09
1.824592022e-08
4.179224836e-08
8.404320202e-08
1.515601041e-07
2.067760156e-07
2.192248364e-07
-1.733449031e-07
21.92721345
18.22874913
0
0
0
0
0
0
0
-0.005972238653
20.34657071
-5.117077041e-05
-2.519401748e-10
1.040142272e-08
5.398841723e-09
2.007552962e-09
-4.516403359e-10
-2.215295963e-09
-3.333447999e-09
-3.578134527e-09
-2.409528345e-09
1.122782134e-09
8.456816592e-09
2.159350027e-08
4.290005953e-08
7.441169664e-08
1.15648478e-07
1.729753412e-07
2.686915101e-07
5.695096717e-07
-5.470840612e-05
-4.604626747e-05
441.0458492
132.9583696
126.7899674
66.44120738
117.6990121
105.8928943
360.0707085
-1.792578802e-07
-1.456659029e-07
-1.261084454e-08
7.108912332e-08
1.113094882e-08
6.024991448e-09
2.489206378e-09
-1.261176572e-10
-2.034705284e-09
-3.2721058e-09
-3.610631848e-09
-2.507671998e-09
9.466929959e-10
8.038901244e-09
2.024254943e-08
3.859858901e-08
6.235962041e-08
8.741149578e-08
1.134753691e-07
1.507462813e-07
1.999488635e-07
2.550574836e-07
7.122075638e-07
-0.002211536964
-0.0006554113317
-0.0006224748264
-0.0003180323844
-0.0005775872143
-0.0005205318966
-0.001805471254
-1.810595767e-07
-2.048571276e-07
-3.139034009e-07
-1.942203496e-07
1.056388565e-08
5.750643774e-09
2.340469163e-09
-2.773153065e-10
-2.290044304e-09
-3.736672428e-09
-4.406348774e-09
-3.784202975e-09
-9.563857841e-10
5.483094195e-09
1.749867269e-08
3.746403011e-08
6.742038451e-08
1.070232013e-07
1.623894325e-07
2.539907363e-07
5.502944645e-07
-4.39072758e-05
-2.758756107e-05
436.8921333
127.0402084
120.1428564
59.72073683
111.4271103
100.5996502
356.5225472
-2.254399663e-07
-1.617871324e-07
-2.438650683e-08
6.347385803e-08
8.935116734e-09
4.750648132e-09
1.681093618e-09
-8.177347664e-10
-2.910342908e-09
-4.650348205e-09
-5.883035013e-09
-6.182957952e-09
-4.730883717e-09
-7.478683222e-11
1.037868396e-08
3.126044494e-08
7.034304709e-08
1.34361778e-07
1.85702668e-07
1.952241083e-07
-1.955150528e-07
17.63588928
10.89959331
0
0
0
0
0
0
0
-0.006186229415
17.08496159
-4.295246798e-05
-2.154444654e-10
6.565204148e-09
3.245256997e-09
6.666179567e-10
-1.628991365e-09
-3.780617925e-09
-5.870267019e-09
-7.838061559e-09
-9.454073494e-09
-1.02631333e-08
-9.445079657e-09
-5.34626326e-09
5.882195723e-09
3.431593565e-08
9.303565274e-08
2.614226229e-07
-0.0001045806006
41.55317049
0
0
0
0
0
0
0
0
0
0
0
391.8050893
-0.002065114083
3.835501163e-09
1.488510298e-09
-5.279475691e-10
-2.574092997e-09
-4.760362972e-09
-7.194164787e-09
-9.908478216e-09
-1.287826358e-08
-1.608914425e-08
-1.975871723e-08
-2.479877828e-08
-3.339701055e-08
-4.244988591e-08
1.626251998e-08
1.026084268e-07
-0.000662758067
106.5547472
0
0
0
0
0
0
0
0
0
0
0
-0.005417580673
-2.511078054e-05
1.14905979e-09
-2.582452588e-10
-1.726737274e-09
-3.521619221e-09
-5.723793992e-09
-8.451742971e-09
-1.178554248e-08
-1.575745317e-08
-2.035010625e-08
-2.55476189e-08
-3.149175933e-08
-3.937012007e-08
-7.649245153e-08
-1.192450485e-07
-2.616291727e-07
156.4892919
0
0
0
0
0
0
0
0
0
0
0
0
0
-0.002528705261
-1.125358489e-09
-1.75842979e-09
-2.773265851e-09
-4.360561252e-09
-6.581708316e-09
-9.575813234e-09
-1.348586251e-08
-1.845216897e-08
-2.458101642e-08
-3.188150161e-08
-4.013038746e-08
-5.082462286e-08
-1.24141228e-07
-2.153337048e-07
-1.823108794e-07
-0.006212997051
0
0
0
0
0
0
0
0
0
0
0
0
0
0
-2.70181442e-09
-2.827669168e-09
-3.542870325e-09
-4.994026387e-09
-7.237115525e-09
-1.043923748e-08
-1.483501579e-08
-2.07844671e-08
-2.890805781e-08
-4.032936982e-08
-5.690471983e-08
-7.981413271e-08
-8.048557344e-08
-9.620795652e-08
-0.0001753745089
69.5680886
0
0
0
0
0
0
0
0
0
0
0
0
0
0
-3.419851233e-09
-3.359958196e-09
-3.958908362e-09
-5.351931919e-09
-7.590013323e-09
-1.083834217e-08
-1.533252071e-08
-2.144219961e-08
-2.980538716e-08
-4.158391376e-08
-5.867134982e-08
-8.234401332e-08
-8.399553161e-08
-1.014229275e-07
-0.0001753064605
69.53973364
0
0
0
0
0
0
0
0
0
0
0
0
0
0
-3.262423348e-09
-3.34103701e-09
-4.00940897e-09
-5.423223118e-09
-7.629944799e-09
-1.076058884e-08
-1.496366333e-08
-2.040212863e-08
-2.723672398e-08
-3.556721486e-08
-4.532375954e-08
-5.8179823e-08
-1.345024314e-07
-2.311276071e-07
-1.935401961e-07
-0.006215769986
0
0
0
0
0
0
0
0
0
0
0
0
0
0
-2.356323732e-09
-2.848159281e-09
-3.746159062e-09
-5.257147986e-09
-7.436989306e-09
-1.039083172e-08
-1.420529607e-08
-1.894745953e-08
-2.467360311e-08
-3.149659233e-08
-3.973559941e-08
-5.088339665e-08
-9.320057361e-08
-1.460657298e-07
-2.697141705e-07
156.406716
0
0
0
0
0
0
0
0
0
0
0
0
0
-0.00247837817
-9.432844755e-10
-2.029965627e-09
-3.265284914e-09
-4.927609508e-09
-7.090810364e-09
-9.842777125e-09
-1.322427808e-08
-1.725191345e-08
-2.199519039e-08
-2.779858422e-08
-3.573063136e-08
-4.81384823e-08
-6.188619807e-08
-7.788396331e-09
8.186122778e-08
-0.0006619042019
106.2901468
0
0
0
0
0
0
0
0
0
0
0
-0.005430656131
-2.640565848e-05
6.619296994e-10
-1.079100006e-09
-2.688662831e-09
-4.520383131e-09
-6.664214931e-09
-9.176871089e-09
-1.200762808e-08
-1.497346255e-08
-1.770845382e-08
-1.951585426e-08
-1.889794509e-08
-1.217932452e-08
1.035395686e-08
6.022436724e-08
2.118574471e-07
-0.0001040944606
41.34922237
0
0
0
0
0
0
0
0
0
0
0
391.1475364
-0.002065608438
2.131661075e-09
-1.981712389e-10
-2.147634044e-09
-4.136015662e-09
-6.263533263e-09
-8.555988252e-09
-1.08671651e-08
-1.282603167e-08
-1.369686779e-08
-1.213587012e-08
-5.635719523e-09
1.037142018e-08
4.373034518e-08
1.00888259e-07
1.416499262e-07
1.495593353e-07
-2.267462904e-07
17.2768163
10.02012392
0
0
0
0
0
0
0
-0.006133422172
18.12055558
-4.555893256e-05
-8.500694533e-11
3.181123581e-09
4.37074555e-10
-1.760420178e-09
-3.869685443e-09
-6.003914762e-09
-8.165442377e-09
-1.016246588e-08
-1.153438612e-08
-1.146207949e-08
-8.629577419e-09
-1.142696437e-09
1.337491308e-08
3.707953492e-08
6.998319354e-08
1.189843912e-07
2.04318642e-07
4.961878568e-07
-4.303474822e-05
-2.536520595e-05
435.2302211
128.5608766
122.6369614
62.44464494
113.9959277
102.5664572
357.0164545
-1.907286901e-07
-1.538329336e-07
-2.33098237e-08
8.247442422e-08
3.625140753e-09
7.081074457e-10
-1.605555799e-09
-3.789873359e-09
-5.961558021e-09
-8.122112013e-09
-1.006792993e-08
-1.132909362e-08
-1.109741187e-08
-8.188872088e-09
-1.191776173e-09
1.096739897e-08
2.773467182e-08
4.554151676e-08
6.51782324e-08
9.632711563e-08
1.444900643e-07
2.262553482e-07
6.758890745e-07
-0.002192592257
-0.0006481286377
-0.0006184153561
-0.0003150798948
-0.000575085263
-0.0005175344094
-0.001799387924
-1.93710426e-07
-2.09043217e-07
-3.267496633e-07
-1.791333026e-07
3.406230333e-09
5.785435956e-10
-1.708193071e-09
-3.918489702e-09
-6.161114996e-09
-8.457795032e-09
-1.061721955e-08
-1.22012337e-08
-1.238232876e-08
-9.859443347e-09
-2.723961877e-09
1.136591751e-08
3.457167631e-08
6.699450165e-08
1.155289846e-07
1.982047359e-07
4.916891629e-07
-4.248190029e-05
-2.471099085e-05
435.1811727
128.5486931
122.6854901
62.54606192
114.1376788
102.736998
357.160159
-2.122239819e-07
-1.7258839e-07
8.292136529e-09
7.435332474e-08
2.607516384e-09
1.045803832e-10
-2.038824191e-09
-4.225839755e-09
-6.579136244e-09
-9.131729146e-09
-1.177318383e-08
-1.414152394e-08
-1.552893672e-08
-1.457349789e-08
-8.793411683e-09
6.398242504e-09
3.883461728e-08
9.482343952e-08
1.322172608e-07
1.380920508e-07
-2.353397143e-07
17.05672269
9.759568854
0
0
0
0
0
0
0
-0.006121988256
18.3328613
-4.610306109e-05
-8.18533442e-11
)
;

boundaryField
{
    lowerWall
    {
        type            calculated;
        value           nonuniform 0();
    }
    atmosphere
    {
        type            calculated;
        value           nonuniform List<scalar> 
20
(
8.208300145e-09
1.040142272e-08
1.113094882e-08
1.056388565e-08
8.935116734e-09
6.565204148e-09
3.835501163e-09
1.14905979e-09
-1.125358489e-09
-2.70181442e-09
-3.419851233e-09
-3.262423348e-09
-2.356323732e-09
-9.432844755e-10
6.619296994e-10
2.131661075e-09
3.181123581e-09
3.625140753e-09
3.406230333e-09
2.607516384e-09
)
;
    }
    rightWall
    {
        type            empty;
    }
    leftWall
    {
        type            empty;
    }
    frontAndBack
    {
        type            calculated;
        value           nonuniform 0();
    }
    procBoundary2to0
    {
        type            processor;
        value           nonuniform List<scalar> 
30
(
4.385519817e-09
9.486580415e-10
-1.125948287e-09
-2.638587551e-09
-3.905745054e-09
-4.998637072e-09
-5.788863402e-09
-5.935096617e-09
-4.869734833e-09
-1.647839745e-09
5.487906041e-09
2.050224774e-08
5.353044188e-08
1.169899363e-07
2.918648668e-07
-0.0001163601988
46.23581439
0
0
0
0
0
0
0
0
0
0
0
393.7128196
-0.002066295491
)
;
    }
    procBoundary2to3
    {
        type            processor;
        value           nonuniform List<scalar> 
20
(
-9.828763159e-05
-0.008773702983
-0.007212221876
-0.008774500233
-8.647299967e-05
427.410757
9.95338304
0
0
0
0
0
0
10.46709155
428.2645126
-3.379468263e-05
-0.008695011692
-0.007138562331
-0.008690896168
-2.985053753e-05
)
;
    }
    procBoundary2to4
    {
        type            processor;
        value           nonuniform List<scalar> 
30
(
1.443949823e-09
-5.921684849e-10
-2.507414116e-09
-4.653247906e-09
-7.132466576e-09
-1.003638975e-08
-1.334549175e-08
-1.692306598e-08
-2.041685961e-08
-2.314718036e-08
-2.361174693e-08
-1.818921402e-08
2.792153733e-09
5.093298443e-08
1.993933323e-07
-0.0001032188092
40.9977723
0
0
0
0
0
0
0
0
0
0
0
391.0692514
-0.002065449672
)
;
    }
}


// ************************************************************************* //
