/*--------------------------------*- C++ -*----------------------------------*\
  =========                 |
  \\      /  F ield         | OpenFOAM: The Open Source CFD Toolbox
   \\    /   O peration     | Website:  https://openfoam.org
    \\  /    A nd           | Version:  6
     \\/     M anipulation  |
\*---------------------------------------------------------------------------*/
FoamFile
{
    version     2.0;
    format      ascii;
    class       volVectorField;
    location    "0.0039";
    object      U;
}
// * * * * * * * * * * * * * * * * * * * * * * * * * * * * * * * * * * * * * //

dimensions      [0 1 -1 0 0 0 0];

internalField   nonuniform List<vector> 
600
(
(0 -1.218965058e-10 -4.550946411e-11)
(0 -1.265732211e-10 -5.203211008e-11)
(0 -1.36448291e-10 -6.369470103e-11)
(0 -1.521571222e-10 -7.94540781e-11)
(0 -1.745622417e-10 -9.863243438e-11)
(0 -2.046897003e-10 -1.208241059e-10)
(0 -2.436538777e-10 -1.457586892e-10)
(0 -2.924753437e-10 -1.731245445e-10)
(0 -3.517534518e-10 -2.023313734e-10)
(0 -4.210877279e-10 -2.321484462e-10)
(0 -4.979807783e-10 -2.601469163e-10)
(0 -5.755496745e-10 -2.819239365e-10)
(0 -6.376120411e-10 -2.904728839e-10)
(0 -6.486846892e-10 -2.770644871e-10)
(0 -5.44090582e-10 -2.376038099e-10)
(0 -2.084551183e-10 -1.63259693e-10)
(0 1.401344648e-11 -1.25059427e-11)
(0 2.374488489e-11 -1.558672384e-12)
(0 1.940698725e-11 2.207816995e-12)
(0 1.323728136e-11 1.647851632e-11)
(0 4.684128981e-12 1.323690253e-11)
(0 7.594740574e-13 1.133884152e-11)
(0 -1.489480763e-12 9.281034122e-12)
(0 -3.747860377e-12 9.103408614e-12)
(0 -7.39542201e-12 7.984685201e-12)
(0 -1.410323583e-11 6.431316445e-12)
(0 -1.368449564e-11 -1.510404687e-11)
(0 -3.092975449e-12 -2.47501756e-11)
(0 -1.773443139e-11 -8.425506206e-12)
(0 -1.883164618e-11 5.715708208e-11)
(0 -1.404962619e-10 -3.656400862e-11)
(0 -1.455417783e-10 -4.107671168e-11)
(0 -1.562155518e-10 -4.90648434e-11)
(0 -1.73279865e-10 -5.965193015e-11)
(0 -1.977789137e-10 -7.214749e-11)
(0 -2.309696868e-10 -8.60138965e-11)
(0 -2.742585722e-10 -1.008045219e-10)
(0 -3.290242726e-10 -1.160850951e-10)
(0 -3.962860349e-10 -1.313377239e-10)
(0 -4.761440785e-10 -1.458537651e-10)
(0 -5.66887846e-10 -1.586653193e-10)
(0 -6.636828967e-10 -1.687401992e-10)
(0 -7.570127768e-10 -1.761092102e-10)
(0 -8.320210253e-10 -1.852899666e-10)
(0 -8.730590134e-10 -2.121288773e-10)
(0 -8.687807233e-10 -2.815720537e-10)
(0 -8.578798686e-10 -4.002483596e-10)
(0 5.488058689e-24 1.360388745e-12)
(0 1.616182597e-11 1.130502017e-12)
(0 1.626631603e-11 3.86485929e-11)
(0 -1.986124529e-13 1.608392921e-11)
(0 -2.055836885e-12 1.427588117e-11)
(0 -2.602969633e-12 9.143388089e-12)
(0 -3.701501683e-12 1.25985937e-11)
(0 -7.198960473e-12 1.163644301e-11)
(0 -2.553121302e-11 2.782713114e-11)
(0 -2.118351898e-11 -1.003739276e-11)
(0 -7.596643393e-24 -1.518356464e-11)
(0 -1.544694057e-10 2.073753933e-10)
(0 1.474574412e-11 1.899683574e-11)
(0 -1.533270103e-10 -2.656038734e-11)
(0 -1.583764983e-10 -2.905845307e-11)
(0 -1.690489474e-10 -3.330550426e-11)
(0 -1.861282439e-10 -3.852264596e-11)
(0 -2.107053813e-10 -4.395022965e-11)
(0 -2.441045173e-10 -4.886183848e-11)
(0 -2.878291067e-10 -5.256590862e-11)
(0 -3.434000101e-10 -5.441437893e-11)
(0 -4.120526622e-10 -5.383213063e-11)
(0 -4.942569903e-10 -5.038215697e-11)
(0 -5.890821091e-10 -4.38711758e-11)
(0 -6.936691975e-10 -3.449353463e-11)
(0 -8.038080837e-10 -2.298196134e-11)
(0 -9.18142304e-10 -1.070562251e-11)
(0 -1.050345884e-09 4.555775395e-13)
(0 -1.243560128e-09 8.623430599e-12)
(0 -1.574602011e-09 1.261107003e-11)
(0 -1.686804556e-09 6.429316039e-12)
(0 -2.249170613e-09 1.253005518e-11)
(0 -3.693390115e-11 2.575937009e-13)
(0 -5.774416419e-11 3.670297443e-13)
(0 -2.630567852e-11 4.122374112e-13)
(0 -3.166768231e-12 4.167869917e-13)
(0 1.8869806e-11 3.889678668e-13)
(0 4.588869686e-11 3.282739313e-13)
(0 2.934753811e-11 2.200400865e-13)
(0 1.277536134e-09 3.142411115e-11)
(0 4.138492794e-10 1.025943367e-11)
(0 2.204532907e-10 9.957645323e-12)
(0 1.212140171e-11 1.773898542e-25)
(0 -1.604672912e-10 -1.662778867e-11)
(0 -1.651322242e-10 -1.725645125e-11)
(0 -1.749579417e-10 -1.801510372e-11)
(0 -1.906471089e-10 -1.819038476e-11)
(0 -2.131943904e-10 -1.693612878e-11)
(0 -2.438073365e-10 -1.332765483e-11)
(0 -2.838587809e-10 -6.416668558e-12)
(0 -3.34738324e-10 4.68325049e-12)
(0 -3.975609123e-10 2.064833739e-11)
(0 -4.72656125e-10 4.171083697e-11)
(0 -5.587252187e-10 6.737410629e-11)
(0 -6.515546878e-10 9.630232594e-11)
(0 -7.424280821e-10 1.270898673e-10)
(0 -8.172629052e-10 1.613754474e-10)
(0 -8.605889721e-10 2.106979426e-10)
(0 -8.593161759e-10 2.953090739e-10)
(0 -8.4895763e-10 4.22423338e-10)
(0 5.814545166e-24 -1.094261235e-12)
(0 1.641941967e-11 -6.759658676e-13)
(0 1.663334577e-11 -3.798805138e-11)
(0 -4.396874261e-14 -1.528593058e-11)
(0 -2.006079638e-12 -1.341101286e-11)
(0 -2.626239177e-12 -8.27590902e-12)
(0 -3.790014743e-12 -1.178629411e-11)
(0 -7.367888254e-12 -1.093018643e-11)
(0 -2.585948695e-11 -2.72741135e-11)
(0 -2.140355906e-11 1.039704171e-11)
(0 -7.977553908e-24 1.538583412e-11)
(0 -1.507159218e-10 -1.984010224e-10)
(0 1.474708404e-11 -1.896345568e-11)
(0 -1.62500289e-10 -7.760743355e-12)
(0 -1.664342591e-10 -6.832363735e-12)
(0 -1.746596244e-10 -4.689226853e-12)
(0 -1.877072929e-10 -6.784147813e-13)
(0 -2.063454286e-10 6.108933407e-12)
(0 -2.314936678e-10 1.675146121e-11)
(0 -2.641817708e-10 3.240234265e-11)
(0 -3.054263836e-10 5.413850164e-11)
(0 -3.559857187e-10 8.269156185e-11)
(0 -4.158824972e-10 1.179725735e-10)
(0 -4.834133517e-10 1.582910656e-10)
(0 -5.529454e-10 1.992357876e-10)
(0 -6.10021686e-10 2.325712133e-10)
(0 -6.212216671e-10 2.465340178e-10)
(0 -5.237767898e-10 2.313472558e-10)
(0 -2.008459278e-10 1.692251057e-10)
(0 1.427957399e-11 1.2796338e-11)
(0 2.419942104e-11 2.16957532e-12)
(0 1.980140127e-11 -1.315524978e-12)
(0 1.358074384e-11 -1.5604192e-11)
(0 4.888455764e-12 -1.230476737e-11)
(0 8.289545009e-13 -1.037001077e-11)
(0 -1.542049484e-12 -8.322009668e-12)
(0 -3.909082873e-12 -8.203454227e-12)
(0 -7.654703969e-12 -7.180326078e-12)
(0 -1.444984345e-11 -5.728704259e-12)
(0 -1.403524379e-11 1.578638457e-11)
(0 -3.452624393e-12 2.519984644e-11)
(0 -1.790332082e-11 8.666043736e-12)
(0 -1.881812268e-11 -5.70348484e-11)
(0 -1.604600998e-10 -7.303234703e-13)
(0 -1.634144561e-10 1.301104348e-12)
(0 -1.694986687e-10 5.480644822e-12)
(0 -1.790062922e-10 1.238649339e-11)
(0 -1.923818828e-10 2.293008325e-11)
(0 -2.101252103e-10 3.825106924e-11)
(0 -2.327548252e-10 5.959989325e-11)
(0 -2.60726252e-10 8.815356471e-11)
(0 -2.943082323e-10 1.246821151e-10)
(0 -3.333998744e-10 1.689232183e-10)
(0 -3.771882026e-10 2.183984376e-10)
(0 -4.231879771e-10 2.661709419e-10)
(0 -4.641061227e-10 2.968652764e-10)
(0 -4.763518986e-10 2.810821913e-10)
(0 -4.028228049e-10 1.835918565e-10)
(0 -2.577497233e-12 3.097570902e-24)
(0 2.169575351e-12 1.82671246e-11)
(0 1.076352398e-11 5.257144402e-12)
(0 1.182584675e-11 -1.073903273e-12)
(0 9.322746084e-12 -7.128588318e-12)
(0 5.190212492e-12 -7.958707447e-12)
(0 1.976678065e-12 -7.442215665e-12)
(0 -4.596826335e-13 -6.439303947e-12)
(0 -2.648331154e-12 -5.524282335e-12)
(0 -4.893138287e-12 -3.860543244e-12)
(0 -6.571419012e-12 -5.670127933e-13)
(0 -3.655202759e-12 7.301712391e-12)
(0 8.253494952e-12 1.120164453e-11)
(0 3.264068887e-11 1.377143196e-12)
(0 -2.207855903e-12 -2.533517425e-11)
(0 -1.557028703e-10 3.993929328e-12)
(0 -1.575667933e-10 6.588948067e-12)
(0 -1.612704011e-10 1.177185118e-11)
(0 -1.668413075e-10 2.001915789e-11)
(0 -1.743548864e-10 3.215931586e-11)
(0 -1.838226497e-10 4.926121713e-11)
(0 -1.951472998e-10 7.251104091e-11)
(0 -2.080569526e-10 1.030280494e-10)
(0 -2.22058842e-10 1.415529924e-10)
(0 -2.365104475e-10 1.879092746e-10)
(0 -2.510793818e-10 2.400624062e-10)
(0 -2.672374564e-10 2.924000041e-10)
(0 -2.924159567e-10 3.324218536e-10)
(0 -3.414991296e-10 3.331604733e-10)
(0 -4.660612444e-10 2.629060464e-10)
(0 -6.60826235e-12 -9.705639303e-12)
(0 -5.338668519e-12 3.062361254e-12)
(0 4.858393215e-12 1.666012462e-12)
(0 7.415668558e-12 -1.108066744e-12)
(0 6.695939667e-12 -3.876805137e-12)
(0 4.574828416e-12 -4.959077607e-12)
(0 2.348358e-12 -5.000801432e-12)
(0 3.758838464e-13 -4.468678767e-12)
(0 -1.330322172e-12 -3.5949752e-12)
(0 -2.697434428e-12 -2.171031588e-12)
(0 -3.287587819e-12 1.980894812e-14)
(0 -2.266586466e-12 2.786405176e-12)
(0 -9.477751184e-13 2.500238175e-12)
(0 -9.440140885e-12 -5.805134132e-12)
(0 -9.722477146e-12 1.698615041e-11)
(0 -1.497233639e-10 6.289452685e-12)
(0 -1.505415623e-10 8.898154107e-12)
(0 -1.519668457e-10 1.403033663e-11)
(0 -1.537774423e-10 2.203058526e-11)
(0 -1.557013745e-10 3.355175216e-11)
(0 -1.57288321e-10 4.944568633e-11)
(0 -1.578465612e-10 7.063723437e-11)
(0 -1.563527694e-10 9.79336765e-11)
(0 -1.513361789e-10 1.317047122e-10)
(0 -1.40709741e-10 1.713413316e-10)
(0 -1.214819347e-10 2.143451126e-10)
(0 -8.921257683e-11 2.546307872e-10)
(0 -3.897189941e-11 2.780934172e-10)
(0 4.752284823e-11 2.419816226e-10)
(0 1.516974803e-11 1.146912194e-24)
(0 2.060947547e-11 -9.682582081e-12)
(0 8.790451238e-12 -2.729073524e-12)
(0 6.593095982e-12 -5.474387927e-13)
(0 6.283029148e-12 -1.146935824e-12)
(0 5.47173522e-12 -2.311137975e-12)
(0 4.066216197e-12 -3.000122414e-12)
(0 2.467076905e-12 -3.133510115e-12)
(0 9.461435985e-13 -2.839897961e-12)
(0 -3.50683975e-13 -2.21630607e-12)
(0 -1.278354139e-12 -1.248984115e-12)
(0 -1.613982247e-12 3.055163058e-14)
(0 -1.174773531e-12 1.324194959e-12)
(0 -3.380443545e-13 1.817520368e-12)
(0 6.416018739e-13 2.400741414e-12)
(0 4.3842164e-12 5.328072363e-12)
(0 -1.439460172e-10 6.379646286e-12)
(0 -1.439102247e-10 8.520895844e-12)
(0 -1.434826508e-10 1.268225798e-11)
(0 -1.422525255e-10 1.905402225e-11)
(0 -1.39690549e-10 2.80402987e-11)
(0 -1.35018363e-10 4.016312346e-11)
(0 -1.271560356e-10 5.594289087e-11)
(0 -1.146738216e-10 7.570420691e-11)
(0 -9.576851239e-11 9.921892571e-11)
(0 -6.824218877e-11 1.250251903e-10)
(0 -2.933957428e-11 1.491505418e-10)
(0 2.507546298e-11 1.629475501e-10)
(0 9.994459396e-11 1.505272091e-10)
(0 2.239601649e-10 9.418886513e-11)
(0 1.04420294e-11 -2.81172599e-24)
(0 1.553805145e-11 5.3911982e-12)
(0 8.547250609e-12 1.002408386e-12)
(0 6.440530916e-12 2.043800615e-14)
(0 5.651969375e-12 -6.209809199e-13)
(0 4.842753076e-12 -1.220712304e-12)
(0 3.752456276e-12 -1.59706812e-12)
(0 2.508582454e-12 -1.693650496e-12)
(0 1.293087891e-12 -1.541429895e-12)
(0 2.605916745e-13 -1.181717994e-12)
(0 -4.505767268e-13 -6.391115891e-13)
(0 -7.144087438e-13 2.752567504e-14)
(0 -4.796177285e-13 6.622749454e-13)
(0 1.287713372e-13 1.044794035e-12)
(0 1.014827876e-12 1.318009617e-12)
(0 2.306061122e-12 1.38497345e-12)
(0 -1.395272011e-10 4.782343615e-12)
(0 -1.389420213e-10 6.111811953e-12)
(0 -1.373339715e-10 8.64839427e-12)
(0 -1.341928289e-10 1.242128356e-11)
(0 -1.288622304e-10 1.755079404e-11)
(0 -1.204193125e-10 2.418442912e-11)
(0 -1.076583856e-10 3.241931364e-11)
(0 -8.915165849e-11 4.218496209e-11)
(0 -6.351989394e-11 5.303638181e-11)
(0 -3.017502682e-11 6.375700174e-11)
(0 8.95346896e-12 7.15922957e-11)
(0 4.580039055e-11 7.098439282e-11)
(0 6.034880846e-11 5.26945731e-11)
(0 9.823319626e-12 1.495458108e-11)
(0 -4.3144411e-12 -1.549461026e-24)
(0 -3.26350347e-12 5.369899483e-12)
(0 3.419691044e-12 1.327186508e-12)
(0 4.969706677e-12 2.477687026e-13)
(0 5.041878837e-12 -1.367128757e-13)
(0 4.49564802e-12 -3.538737734e-13)
(0 3.593278005e-12 -4.742135094e-13)
(0 2.52271513e-12 -5.030961817e-13)
(0 1.458076101e-12 -4.506947842e-13)
(0 5.516343305e-13 -3.298715142e-13)
(0 -6.911047076e-14 -1.528287545e-13)
(0 -3.125957126e-13 5.704474479e-14)
(0 -1.575051712e-13 2.5303394e-13)
(0 3.176903165e-13 3.811914359e-13)
(0 9.817812889e-13 4.415215114e-13)
(0 1.615075435e-12 3.449885059e-13)
(0 -1.372028613e-10 2.214847612e-12)
(0 -1.364339969e-10 2.569459157e-12)
(0 -1.344496025e-10 3.178092634e-12)
(0 -1.307403535e-10 3.917466231e-12)
(0 -1.246602926e-10 4.624862705e-12)
(0 -1.153100995e-10 5.077595618e-12)
(0 -1.015249822e-10 4.982341819e-12)
(0 -8.194284322e-11 3.996842448e-12)
(0 -5.528641075e-11 1.831637944e-12)
(0 -2.112252876e-11 -1.467664162e-12)
(0 1.83923996e-11 -4.871396908e-12)
(0 5.487552795e-11 -5.194559521e-12)
(0 6.791901783e-11 3.780557444e-12)
(0 1.444047294e-11 2.042912255e-11)
(0 -4.312682596e-12 1.637919069e-24)
(0 -3.259373524e-12 -5.363480575e-12)
(0 3.425119829e-12 -1.31151815e-12)
(0 4.976631533e-12 -2.199744938e-13)
(0 5.050326899e-12 1.800252108e-13)
(0 4.505252442e-12 4.159734141e-13)
(0 3.603233868e-12 5.56862024e-13)
(0 2.532101179e-12 6.059570669e-13)
(0 1.466312559e-12 5.717452054e-13)
(0 5.584577041e-13 4.662134867e-13)
(0 -6.366046793e-14 3.014619565e-13)
(0 -3.085460493e-13 1.010987608e-13)
(0 -1.554710375e-13 -8.850257081e-14)
(0 3.172589085e-13 -2.147009882e-13)
(0 9.786249457e-13 -2.788270373e-13)
(0 1.609470316e-12 -1.917474864e-13)
(0 -1.37207166e-10 -5.285789029e-13)
(0 -1.366216662e-10 -1.115872127e-12)
(0 -1.350669762e-10 -2.360165455e-12)
(0 -1.321334705e-10 -4.515383422e-12)
(0 -1.273207846e-10 -7.997589174e-12)
(0 -1.19917624e-10 -1.337065566e-11)
(0 -1.089614788e-10 -2.131154231e-11)
(0 -9.321131682e-11 -3.250823892e-11)
(0 -7.115619688e-11 -4.740438078e-11)
(0 -4.103926541e-11 -6.563044854e-11)
(0 -7.530820381e-13 -8.484660656e-11)
(0 5.292590071e-11 -9.869951521e-11)
(0 1.237181203e-10 -9.436448003e-11)
(0 2.390797392e-10 -5.809325886e-11)
(0 1.04466898e-11 2.895005709e-24)
(0 1.554958986e-11 -5.387835745e-12)
(0 8.563197126e-12 -9.904413659e-13)
(0 6.461250038e-12 3.541708445e-15)
(0 5.677826745e-12 6.609246005e-13)
(0 4.872484833e-12 1.280728781e-12)
(0 3.783261658e-12 1.679696997e-12)
(0 2.537598311e-12 1.798611409e-12)
(0 1.318332521e-12 1.666075917e-12)
(0 2.813510817e-13 1.322310683e-12)
(0 -4.342251965e-13 7.917978848e-13)
(0 -7.0256024e-13 1.343105274e-13)
(0 -4.733049201e-13 -4.94102528e-13)
(0 1.273658501e-13 -8.746970146e-13)
(0 1.004734791e-12 -1.151083613e-12)
(0 2.288752799e-12 -1.228787263e-12)
(0 -1.392720778e-10 -2.707222426e-12)
(0 -1.391794318e-10 -4.023537274e-12)
(0 -1.387339085e-10 -6.698058561e-12)
(0 -1.37711036e-10 -1.107905841e-11)
(0 -1.358800311e-10 -1.777211092e-11)
(0 -1.328917036e-10 -2.760677699e-11)
(0 -1.282341977e-10 -4.15892887e-11)
(0 -1.211744212e-10 -6.079737621e-11)
(0 -1.106888391e-10 -8.615539119e-11)
(0 -9.535774833e-11 -1.179986767e-10)
(0 -7.315361703e-11 -1.552800757e-10)
(0 -4.098764478e-11 -1.94012077e-10)
(0 4.162730347e-12 -2.23074655e-10)
(0 7.842680671e-11 -2.042561051e-10)
(0 1.517486899e-11 -1.005630096e-24)
(0 2.062557244e-11 9.677921678e-12)
(0 8.816497282e-12 2.733944975e-12)
(0 6.627997499e-12 5.63507725e-13)
(0 6.327513971e-12 1.178967941e-12)
(0 5.524024839e-12 2.366566575e-12)
(0 4.121116495e-12 3.083076617e-12)
(0 2.518480099e-12 3.243428773e-12)
(0 9.900118335e-13 2.972461618e-12)
(0 -3.158203278e-13 2.365455441e-12)
(0 -1.251660624e-12 1.40925389e-12)
(0 -1.594446462e-12 1.371689369e-13)
(0 -1.164478579e-12 -1.150154279e-12)
(0 -3.397221758e-13 -1.638804328e-12)
(0 6.24534697e-13 -2.22204825e-12)
(0 4.352354232e-12 -5.164232777e-12)
(0 -1.427080335e-10 -3.752450467e-12)
(0 -1.433098505e-10 -5.45036464e-12)
(0 -1.444149737e-10 -8.871676972e-12)
(0 -1.460383774e-10 -1.440891917e-11)
(0 -1.483001453e-10 -2.275800355e-11)
(0 -1.513342768e-10 -3.487491675e-11)
(0 -1.552678649e-10 -5.19226105e-11)
(0 -1.601947888e-10 -7.516332428e-11)
(0 -1.661845858e-10 -1.057330262e-10)
(0 -1.734221286e-10 -1.441978098e-10)
(0 -1.827430716e-10 -1.897138275e-10)
(0 -1.97206161e-10 -2.38409685e-10)
(0 -2.263428057e-10 -2.801655349e-10)
(0 -2.876270123e-10 -2.909691589e-10)
(0 -4.370711334e-10 -2.423083467e-10)
(0 -6.591852487e-12 9.700518343e-12)
(0 -5.301992667e-12 -3.065810328e-12)
(0 4.906273003e-12 -1.66256433e-12)
(0 7.480885595e-12 1.126194411e-12)
(0 6.77659351e-12 3.922692728e-12)
(0 4.660123857e-12 5.043207678e-12)
(0 2.426983312e-12 5.120741382e-12)
(0 4.403591879e-13 4.615457197e-12)
(0 -1.281856647e-12 3.757887629e-12)
(0 -2.662511701e-12 2.340529497e-12)
(0 -3.26196841e-12 1.545254226e-13)
(0 -2.249278185e-12 -2.604455245e-12)
(0 -9.445281209e-13 -2.306660949e-12)
(0 -9.465110424e-12 6.011303868e-12)
(0 -9.776311676e-12 -1.680769516e-11)
(0 -1.46552981e-10 -3.354786884e-12)
(0 -1.479115861e-10 -5.020683779e-12)
(0 -1.507000668e-10 -8.377751291e-12)
(0 -1.551824038e-10 -1.380694593e-11)
(0 -1.618417638e-10 -2.197912559e-11)
(0 -1.713084305e-10 -3.380831549e-11)
(0 -1.843523425e-10 -5.039368351e-11)
(0 -2.018471582e-10 -7.290097992e-11)
(0 -2.247069709e-10 -1.023051026e-10)
(0 -2.537723168e-10 -1.388494344e-10)
(0 -2.89537434e-10 -1.809505006e-10)
(0 -3.312629834e-10 -2.230366512e-10)
(0 -3.739710877e-10 -2.516344685e-10)
(0 -3.973015575e-10 -2.398332641e-10)
(0 -3.481461956e-10 -1.558640071e-10)
(0 -2.564849341e-12 -2.859674972e-24)
(0 2.204190487e-12 -1.828353446e-11)
(0 1.082000223e-11 -5.271552256e-12)
(0 1.191277103e-11 1.064156142e-12)
(0 9.441038107e-12 7.15491557e-12)
(0 5.319165149e-12 8.045730749e-12)
(0 2.090729618e-12 7.581073663e-12)
(0 -3.728419198e-13 6.610442306e-12)
(0 -2.590748028e-12 5.707648673e-12)
(0 -4.85502283e-12 4.043125535e-12)
(0 -6.539431205e-12 7.453238553e-13)
(0 -3.625664952e-12 -7.113920915e-12)
(0 8.276036936e-12 -1.099556479e-11)
(0 3.260849972e-11 -1.1038469e-12)
(0 -2.301589449e-12 2.553406386e-11)
(0 -1.497648682e-10 -1.503728511e-12)
(0 -1.517975552e-10 -2.736888054e-12)
(0 -1.560811744e-10 -5.245845132e-12)
(0 -1.630927999e-10 -9.349711172e-12)
(0 -1.736235386e-10 -1.558875707e-11)
(0 -1.887189263e-10 -2.468511875e-11)
(0 -2.0967176e-10 -3.749307375e-11)
(0 -2.37951338e-10 -5.490206156e-11)
(0 -2.750225781e-10 -7.763280827e-11)
(0 -3.21933304e-10 -1.058412653e-10)
(0 -3.783695494e-10 -1.384222774e-10)
(0 -4.404663217e-10 -1.719693222e-10)
(0 -4.958896765e-10 -1.997216046e-10)
(0 -5.136714715e-10 -2.118391373e-10)
(0 -4.334106614e-10 -2.007955017e-10)
(0 -1.39970081e-10 -1.521983462e-10)
(0 1.430184198e-11 -1.280898589e-11)
(0 2.425396356e-11 -2.204190456e-12)
(0 1.990735342e-11 1.246398829e-12)
(0 1.375816812e-11 1.558571647e-11)
(0 5.086281949e-12 1.240259469e-11)
(0 9.916948692e-13 1.054649418e-11)
(0 -1.433065802e-12 8.535908756e-12)
(0 -3.849173416e-12 8.422215055e-12)
(0 -7.624836517e-12 7.381119483e-12)
(0 -1.441901486e-11 5.896823262e-12)
(0 -1.399016683e-11 -1.560322819e-11)
(0 -3.363872575e-12 -2.503063546e-11)
(0 -1.79354805e-11 -8.505429344e-12)
(0 -1.900304011e-11 5.723624852e-11)
(0 -1.514214458e-10 1.526996787e-12)
(0 -1.539214833e-10 1.039733179e-12)
(0 -1.592380104e-10 -1.037120583e-14)
(0 -1.679886615e-10 -1.843900704e-12)
(0 -1.811663185e-10 -4.793312241e-12)
(0 -2.000875698e-10 -9.280235533e-12)
(0 -2.263863154e-10 -1.578935573e-11)
(0 -2.619269343e-10 -2.482077755e-11)
(0 -3.085862744e-10 -3.679704932e-11)
(0 -3.678102235e-10 -5.190749491e-11)
(0 -4.39808356e-10 -6.992093749e-11)
(0 -5.2225288e-10 -9.018279858e-11)
(0 -6.086056459e-10 -1.124688718e-10)
(0 -6.871123428e-10 -1.400936221e-10)
(0 -7.445263965e-10 -1.864319658e-10)
(0 -7.696491681e-10 -2.727558372e-10)
(0 -7.973651184e-10 -4.019097515e-10)
(0 5.861323923e-24 1.071993237e-12)
(0 1.652248356e-11 6.214233474e-13)
(0 1.691859126e-11 3.785983123e-11)
(0 2.799428572e-13 1.543351737e-11)
(0 -1.775956318e-12 1.366662025e-11)
(0 -2.497121043e-12 8.565500723e-12)
(0 -3.7455373e-12 1.206666943e-11)
(0 -7.380414622e-12 1.115739258e-11)
(0 -2.584513617e-11 2.738341308e-11)
(0 -2.137292928e-11 -1.030828989e-11)
(0 -7.987063268e-24 -1.532161151e-11)
(0 -1.743745265e-10 2.037719391e-10)
(0 1.461348963e-11 1.905983797e-11)
(0 -1.508915467e-10 5.245688169e-12)
(0 -1.535707497e-10 5.67261203e-12)
(0 -1.592782069e-10 6.408046562e-12)
(0 -1.68675908e-10 7.347681931e-12)
(0 -1.828196094e-10 8.405967268e-12)
(0 -2.031120644e-10 9.518400909e-12)
(0 -2.312997269e-10 1.063746697e-11)
(0 -2.693872107e-10 1.172596267e-11)
(0 -3.194251634e-10 1.274289453e-11)
(0 -3.83114194e-10 1.362929252e-11)
(0 -4.612171433e-10 1.429063963e-11)
(0 -5.530063241e-10 1.45845202e-11)
(0 -6.566960379e-10 1.431031987e-11)
(0 -7.733043003e-10 1.321517236e-11)
(0 -9.18120764e-10 1.100733164e-11)
(0 -1.133850704e-09 7.327346194e-12)
(0 -1.491989775e-09 2.061594673e-12)
(0 -1.633148587e-09 -2.139095949e-12)
(0 -2.207849941e-09 1.773539473e-12)
(0 -3.655434757e-11 3.041753343e-15)
(0 -5.716251047e-11 7.555932495e-16)
(0 -2.600093323e-11 -3.009628926e-15)
(0 -3.033016622e-12 -6.28963075e-15)
(0 1.88673299e-11 -8.791052211e-15)
(0 4.574748857e-11 -1.05765208e-14)
(0 2.923991238e-11 -8.911866178e-15)
(0 1.265431217e-09 1.424063811e-11)
(0 3.978553673e-10 2.305733409e-11)
(0 2.002714336e-10 -6.3431909e-12)
(0 1.199760395e-11 -9.356833067e-27)
(0 -1.47947624e-10 9.047822699e-12)
(0 -1.504932033e-10 1.038204467e-11)
(0 -1.558944607e-10 1.28875078e-11)
(0 -1.6475319e-10 1.657127658e-11)
(0 -1.780370122e-10 2.159106766e-11)
(0 -1.970334355e-10 2.823544188e-11)
(0 -2.233495871e-10 3.689443318e-11)
(0 -2.588332128e-10 4.79961289e-11)
(0 -3.053608805e-10 6.188921295e-11)
(0 -3.64398062e-10 7.865230537e-11)
(0 -4.361933132e-10 9.787139706e-11)
(0 -5.184708559e-10 1.185996269e-10)
(0 -6.047339304e-10 1.401941848e-10)
(0 -6.832131557e-10 1.654430297e-10)
(0 -7.405940374e-10 2.071493079e-10)
(0 -7.654495338e-10 2.859394673e-10)
(0 -7.921106864e-10 4.036162539e-10)
(0 5.879781311e-24 -1.058344078e-12)
(0 1.652552531e-11 -6.052643655e-13)
(0 1.691934686e-11 -3.784814312e-11)
(0 2.738914749e-13 -1.543037186e-11)
(0 -1.783001542e-12 -1.367339703e-11)
(0 -2.502902466e-12 -8.580923806e-12)
(0 -3.74982419e-12 -1.208698103e-11)
(0 -7.380535436e-12 -1.118097324e-11)
(0 -2.583455965e-11 -2.740751114e-11)
(0 -2.136401741e-11 1.028907319e-11)
(0 -8.042285595e-24 1.530844532e-11)
(0 -1.588529696e-10 -2.021826381e-10)
(0 1.460657277e-11 -1.90726976e-11)
(0 -1.428006903e-10 1.234139847e-11)
(0 -1.449365997e-10 1.440354316e-11)
(0 -1.494146634e-10 1.832417635e-11)
(0 -1.566796593e-10 2.419586966e-11)
(0 -1.674702737e-10 3.236972864e-11)
(0 -1.827699377e-10 4.342419814e-11)
(0 -2.038122101e-10 5.8116389e-11)
(0 -2.32026274e-10 7.727392694e-11)
(0 -2.688721414e-10 1.015664451e-10)
(0 -3.154388514e-10 1.310700329e-10)
(0 -3.715066672e-10 1.64519004e-10)
(0 -4.333471092e-10 1.982059445e-10)
(0 -4.887491761e-10 2.248797804e-10)
(0 -5.067222979e-10 2.34039308e-10)
(0 -4.264487648e-10 2.175099137e-10)
(0 -1.30781753e-10 1.60894288e-10)
(0 1.431549114e-11 1.283078115e-11)
(0 2.427012254e-11 2.24114827e-12)
(0 1.990539237e-11 -1.208935717e-12)
(0 1.374515464e-11 -1.556215857e-11)
(0 5.067817057e-12 -1.239534403e-11)
(0 9.731262823e-13 -1.05551742e-11)
(0 -1.446600627e-12 -8.55753208e-12)
(0 -3.857331e-12 -8.451247971e-12)
(0 -7.628622973e-12 -7.411678765e-12)
(0 -1.441465089e-11 -5.929092307e-12)
(0 -1.397923496e-11 1.556549891e-11)
(0 -3.344655877e-12 2.49976324e-11)
(0 -1.793517393e-11 8.476072208e-12)
(0 -1.902252856e-11 -5.727046179e-11)
)
;

boundaryField
{
    lowerWall
    {
        type            slip;
    }
    atmosphere
    {
        type            pressureInletOutletVelocity;
        tangentialVelocity uniform (0 0 0);
        value           nonuniform List<vector> 
20
(
(0 -1.218965058e-10 -4.550946411e-11)
(0 -1.404962619e-10 -3.656400862e-11)
(0 -1.533270103e-10 -2.656038734e-11)
(0 -1.604672912e-10 -1.662778867e-11)
(0 -1.62500289e-10 -7.760743355e-12)
(0 -1.604600998e-10 -7.303234703e-13)
(0 -1.557028703e-10 3.993929328e-12)
(0 -1.497233639e-10 6.289452685e-12)
(0 -1.439460172e-10 6.379646286e-12)
(0 -1.395272011e-10 4.782343615e-12)
(0 -1.372028613e-10 2.214847612e-12)
(0 -1.37207166e-10 -5.285789029e-13)
(0 -1.392720778e-10 -2.707222426e-12)
(0 -1.427080335e-10 -3.752450467e-12)
(0 -1.46552981e-10 -3.354786884e-12)
(0 -1.497648682e-10 -1.503728511e-12)
(0 -1.514214458e-10 1.526996787e-12)
(0 -1.508915467e-10 5.245688169e-12)
(0 -1.47947624e-10 9.047822699e-12)
(0 -1.428006903e-10 1.234139847e-11)
)
;
    }
    rightWall
    {
        type            empty;
    }
    leftWall
    {
        type            empty;
    }
    frontAndBack
    {
        type            slip;
    }
    procBoundary2to0
    {
        type            processor;
        value           nonuniform List<vector> 
30
(
(0 -9.792157997e-11 -5.220173092e-11)
(0 -1.019656532e-10 -6.065666862e-11)
(0 -1.104266235e-10 -7.570074847e-11)
(0 -1.237082711e-10 -9.600488701e-11)
(0 -1.423867329e-10 -1.20821328e-10)
(0 -1.671433809e-10 -1.497940745e-10)
(0 -1.986679264e-10 -1.827240633e-10)
(0 -2.374851715e-10 -2.193064105e-10)
(0 -2.837069854e-10 -2.58789173e-10)
(0 -3.366934475e-10 -2.994387315e-10)
(0 -3.945375476e-10 -3.375766823e-10)
(0 -4.529520206e-10 -3.657210027e-10)
(0 -5.020617388e-10 -3.69171522e-10)
(0 -5.148226052e-10 -3.212024612e-10)
(0 -4.296382568e-10 -1.933597625e-10)
(0 -2.867892531e-12 -2.482119771e-24)
(0 1.558672415e-12 -1.771611011e-11)
(0 1.016162726e-11 -4.52800661e-12)
(0 1.130483166e-11 1.99171635e-12)
(0 8.915873196e-12 8.144573743e-12)
(0 4.941062349e-12 9.0467829e-12)
(0 1.900031524e-12 8.561915836e-12)
(0 -3.675367248e-13 7.537962346e-12)
(0 -2.405152762e-12 6.548350575e-12)
(0 -4.526868306e-12 4.766764228e-12)
(0 -6.121123652e-12 1.335453671e-12)
(0 -3.182221325e-12 -6.665519282e-12)
(0 8.695295116e-12 -1.072875818e-11)
(0 3.296812602e-11 -9.835131549e-13)
(0 -2.000313388e-12 2.548212332e-11)
)
;
    }
    procBoundary2to3
    {
        type            processor;
        value           nonuniform List<vector> 
20
(
(0 -3.217553757e-13 -2.34992539e-11)
(0 2.069164827e-11 -1.404695079e-11)
(0 1.899141236e-11 1.339918143e-15)
(0 2.06841813e-11 1.406047428e-11)
(0 -3.700873904e-13 2.3530909e-11)
(0 -3.45421417e-11 5.722013462e-12)
(0 -3.072793386e-12 -1.090825544e-11)
(0 4.186620311e-12 -5.695332122e-12)
(0 2.209887811e-12 -1.451131356e-12)
(0 1.56280407e-12 -2.55069297e-13)
(0 1.555730058e-12 3.948503282e-13)
(0 2.187878846e-12 1.591800312e-12)
(0 4.146596788e-12 5.83749908e-12)
(0 -3.137900023e-12 1.105255379e-11)
(0 -3.464517306e-11 -5.579800061e-12)
(0 -5.30466567e-13 -2.341015547e-11)
(0 2.045824937e-11 -1.399935462e-11)
(0 1.87702682e-11 -6.91685866e-15)
(0 2.044999427e-11 1.397986617e-11)
(0 -5.367744461e-13 2.338190868e-11)
)
;
    }
    procBoundary2to4
    {
        type            processor;
        value           nonuniform List<vector> 
30
(
(0 -1.360497321e-10 1.467182289e-11)
(0 -1.375937951e-10 1.714384754e-11)
(0 -1.407367928e-10 2.185158896e-11)
(0 -1.456935686e-10 2.892539773e-11)
(0 -1.528642507e-10 3.881934671e-11)
(0 -1.627766784e-10 5.228255379e-11)
(0 -1.760967808e-10 7.030888897e-11)
(0 -1.936193305e-10 9.401825141e-11)
(0 -2.162339263e-10 1.243772286e-10)
(0 -2.448405958e-10 1.616170579e-10)
(0 -2.801045709e-10 2.040619368e-10)
(0 -3.215844765e-10 2.458724681e-10)
(0 -3.646807069e-10 2.730252396e-10)
(0 -3.893439641e-10 2.577540657e-10)
(0 -3.426167678e-10 1.672104315e-10)
(0 -2.54305408e-12 3.253169446e-24)
(0 2.241148301e-12 1.833293399e-11)
(0 1.083567008e-11 5.329885171e-12)
(0 1.190241286e-11 -1.010065958e-12)
(0 9.411581253e-12 -7.118903761e-12)
(0 5.28087585e-12 -8.034605212e-12)
(0 2.054810405e-12 -7.594420887e-12)
(0 -3.989762394e-13 -6.641867818e-12)
(0 -2.603970875e-12 -5.748592355e-12)
(0 -4.858379773e-12 -4.084234735e-12)
(0 -6.53602468e-12 -7.820444718e-13)
(0 -3.617487102e-12 7.078119098e-12)
(0 8.284409078e-12 1.095704184e-11)
(0 3.260728952e-11 1.051627133e-12)
(0 -2.307395969e-12 -2.557737111e-11)
)
;
    }
}


// ************************************************************************* //
