/*--------------------------------*- C++ -*----------------------------------*\
  =========                 |
  \\      /  F ield         | OpenFOAM: The Open Source CFD Toolbox
   \\    /   O peration     | Website:  https://openfoam.org
    \\  /    A nd           | Version:  10
     \\/     M anipulation  |
\*---------------------------------------------------------------------------*/
FoamFile
{
    format      ascii;
    class       volScalarField;
    location    "0.0001";
    object      Qv;
}
// * * * * * * * * * * * * * * * * * * * * * * * * * * * * * * * * * * * * * //

dimensions      [1 0 -3 0 0 0 0];

internalField   nonuniform List<scalar> 
3600
(
2.202056547e-59
2.202070683e-59
2.202099262e-59
2.202143389e-59
2.202204919e-59
2.202286405e-59
2.202391035e-59
2.202522559e-59
2.202685193e-59
2.202883481e-59
2.203122124e-59
2.203405746e-59
2.203738616e-59
2.204124298e-59
2.204565258e-59
2.20506242e-59
2.205614694e-59
2.206218506e-59
2.206867353e-59
2.207551427e-59
2.208257354e-59
2.208968081e-59
2.209662966e-59
2.210318101e-59
2.21090688e-59
2.211400836e-59
2.2117707e-59
2.211987669e-59
2.212024792e-59
2.211858401e-59
2.211469469e-59
2.2108448e-59
2.209977936e-59
2.208869703e-59
2.207528346e-59
2.205969225e-59
2.204214125e-59
2.202290231e-59
2.200228886e-59
2.198064266e-59
2.198061885e-59
2.198060504e-59
2.198058888e-59
2.19805702e-59
2.198054907e-59
2.198052577e-59
2.198050071e-59
2.198047438e-59
2.198044734e-59
2.198042013e-59
2.19803933e-59
2.198036732e-59
2.198034259e-59
2.198031943e-59
2.198029809e-59
2.198027871e-59
2.198026136e-59
2.198024605e-59
2.198023271e-59
2.198022123e-59
2.200340931e-59
2.200357513e-59
2.200391037e-59
2.200442817e-59
2.200515058e-59
2.200610796e-59
2.200733836e-59
2.200888661e-59
2.20108033e-59
2.201314321e-59
2.201596331e-59
2.201932005e-59
2.202326608e-59
2.202784609e-59
2.203309211e-59
2.20390182e-59
2.204561467e-59
2.205284238e-59
2.206062723e-59
2.206885545e-59
2.207737024e-59
2.208597022e-59
2.209441036e-59
2.210240564e-59
2.210963794e-59
2.211576607e-59
2.212043886e-59
2.21233106e-59
2.212405826e-59
2.212239915e-59
2.211810776e-59
2.211103049e-59
2.210109677e-59
2.208832565e-59
2.207282713e-59
2.205479804e-59
2.20345129e-59
2.201231079e-59
2.198857951e-59
2.196373879e-59
2.196371158e-59
2.196369509e-59
2.196367521e-59
2.196365182e-59
2.196362505e-59
2.196359531e-59
2.196356318e-59
2.196352932e-59
2.196349449e-59
2.196345942e-59
2.196342482e-59
2.196339131e-59
2.196335943e-59
2.196332961e-59
2.196330215e-59
2.196327724e-59
2.196325497e-59
2.196323533e-59
2.196321825e-59
2.196320357e-59
2.198783246e-59
2.198805073e-59
2.198849206e-59
2.198917406e-59
2.199012633e-59
2.199138969e-59
2.199301543e-59
2.199506432e-59
2.199760523e-59
2.200071324e-59
2.2004467e-59
2.20089453e-59
2.201422261e-59
2.202036363e-59
2.202741685e-59
2.203540729e-59
2.204432857e-59
2.205413484e-59
2.206473298e-59
2.207597582e-59
2.208765702e-59
2.209950859e-59
2.211120161e-59
2.212235102e-59
2.213252489e-59
2.214125823e-59
2.214807127e-59
2.215249135e-59
2.215407733e-59
2.215244479e-59
2.214729022e-59
2.213841193e-59
2.212572592e-59
2.210927491e-59
2.208922958e-59
2.20658819e-59
2.203963107e-59
2.201096367e-59
2.198043017e-59
2.194862008e-59
2.194858543e-59
2.194856293e-59
2.194853466e-59
2.194850054e-59
2.194846091e-59
2.194841648e-59
2.19483682e-59
2.194831716e-59
2.194826455e-59
2.194821153e-59
2.194815921e-59
2.194810857e-59
2.194806043e-59
2.194801544e-59
2.194797406e-59
2.194793659e-59
2.194790315e-59
2.194787372e-59
2.194784817e-59
2.194782628e-59
2.197388477e-59
2.19741905e-59
2.197480883e-59
2.197576491e-59
2.197710104e-59
2.197887575e-59
2.198116284e-59
2.198405008e-59
2.19876375e-59
2.199203485e-59
2.199735804e-59
2.200372435e-59
2.201124615e-59
2.202002321e-59
2.203013336e-59
2.204162184e-59
2.20544897e-59
2.206868159e-59
2.208407399e-59
2.210046457e-59
2.211756409e-59
2.213499178e-59
2.215227579e-59
2.216885951e-59
2.218411476e-59
2.219736213e-59
2.220789826e-59
2.221502887e-59
2.221810604e-59
2.221656684e-59
2.220997052e-59
2.219803073e-59
2.218063965e-59
2.215788142e-59
2.213003317e-59
2.20975534e-59
2.206105894e-59
2.202129278e-59
2.197908651e-59
2.193532128e-59
2.193527387e-59
2.193524061e-59
2.193519707e-59
2.193514331e-59
2.193508007e-59
2.193500861e-59
2.19349306e-59
2.193484794e-59
2.193476262e-59
2.193467661e-59
2.193459175e-59
2.193450967e-59
2.193443173e-59
2.193435899e-59
2.193429219e-59
2.193423181e-59
2.193417801e-59
2.193413077e-59
2.193408983e-59
2.193405483e-59
2.196164839e-59
2.196208791e-59
2.196297709e-59
2.196435281e-59
2.19662772e-59
2.196883643e-59
2.197213945e-59
2.197631645e-59
2.198151652e-59
2.198790422e-59
2.199565467e-59
2.200494668e-59
2.201595386e-59
2.202883321e-59
2.204371143e-59
2.206066895e-59
2.207972227e-59
2.21008053e-59
2.212375085e-59
2.214827372e-59
2.217395721e-59
2.220024486e-59
2.22264397e-59
2.225171259e-59
2.227512136e-59
2.229564133e-59
2.231220699e-59
2.232376354e-59
2.23293252e-59
2.232803648e-59
2.231923123e-59
2.230248394e-59
2.227764783e-59
2.224487547e-59
2.220461915e-59
2.215761045e-59
2.210482126e-59
2.204741034e-59
2.198666171e-59
2.192392163e-59
2.192385396e-59
2.192380269e-59
2.192373308e-59
2.192364551e-59
2.192354144e-59
2.192342319e-59
2.19232937e-59
2.192315627e-59
2.192301434e-59
2.192287129e-59
2.192273024e-59
2.192259394e-59
2.192246468e-59
2.192234421e-59
2.192223378e-59
2.192213412e-59
2.192204551e-59
2.192196784e-59
2.192190069e-59
2.19218434e-59
2.195124713e-59
2.195188336e-59
2.195317092e-59
2.195516435e-59
2.19579556e-59
2.196167247e-59
2.196647707e-59
2.197256385e-59
2.198015655e-59
2.198950357e-59
2.200087111e-59
2.201453347e-59
2.203076013e-59
2.204979905e-59
2.207185629e-59
2.209707205e-59
2.212549362e-59
2.215704653e-59
2.219150534e-59
2.222846641e-59
2.226732526e-59
2.230726171e-59
2.234723615e-59
2.238600001e-59
2.242212327e-59
2.245404029e-59
2.248011424e-59
2.249871789e-59
2.250832647e-59
2.250761606e-59
2.249555894e-59
2.247150663e-59
2.243525127e-59
2.23870578e-59
2.232766237e-59
2.225823631e-59
2.218031923e-59
2.20957292e-59
2.200646039e-59
2.191458039e-59
2.191448163e-59
2.19144009e-59
2.191428778e-59
2.191414328e-59
2.191397021e-59
2.191377273e-59
2.191355603e-59
2.191332585e-59
2.191308813e-59
2.191284865e-59
2.191261275e-59
2.191238506e-59
2.191216943e-59
2.19119688e-59
2.191178521e-59
2.191161983e-59
2.191147308e-59
2.191134471e-59
2.191123396e-59
2.191113967e-59
2.194285919e-59
2.194377836e-59
2.194563917e-59
2.194852225e-59
2.195256356e-59
2.195795246e-59
2.196492989e-59
2.197378588e-59
2.198485579e-59
2.199851406e-59
2.201516479e-59
2.20352281e-59
2.205912153e-59
2.208723578e-59
2.211990453e-59
2.21573684e-59
2.219973392e-59
2.224692874e-59
2.22986556e-59
2.235434818e-59
2.241313314e-59
2.247380312e-59
2.253480642e-59
2.259425859e-59
2.264998091e-59
2.269956895e-59
2.274049186e-59
2.277021996e-59
2.278637364e-59
2.2786883e-59
2.277014393e-59
2.273515423e-59
2.268161374e-59
2.26099752e-59
2.252143783e-59
2.241788265e-59
2.230175669e-59
2.217591998e-59
2.204347436e-59
2.190759499e-59
2.190744932e-59
2.190732092e-59
2.190713587e-59
2.190689647e-59
2.190660792e-59
2.190627765e-59
2.190591473e-59
2.190552912e-59
2.190513102e-59
2.190473029e-59
2.190433598e-59
2.190395594e-59
2.19035966e-59
2.190326282e-59
2.190295796e-59
2.190268387e-59
2.190244116e-59
2.19022293e-59
2.190204691e-59
2.190189196e-59
2.193673366e-59
2.193805389e-59
2.194072767e-59
2.194487364e-59
2.195069193e-59
2.19584618e-59
2.196853957e-59
2.19813559e-59
2.199741108e-59
2.201726704e-59
2.204153459e-59
2.207085462e-59
2.210587167e-59
2.214719911e-59
2.219537483e-59
2.225080774e-59
2.231371552e-59
2.238405562e-59
2.246145269e-59
2.254512697e-59
2.26338302e-59
2.272579668e-59
2.281871856e-59
2.290975489e-59
2.299558326e-59
2.307250068e-59
2.313657659e-59
2.318385498e-59
2.321059548e-59
2.321353556e-59
2.319014949e-59
2.313887507e-59
2.305927935e-59
2.295213954e-59
2.281942478e-59
2.266417825e-59
2.249031292e-59
2.230234742e-59
2.210511663e-59
2.190349355e-59
2.190327792e-59
2.190307277e-59
2.190276948e-59
2.190237279e-59
2.190189215e-59
2.190134071e-59
2.190073421e-59
2.19000898e-59
2.189942493e-59
2.189875636e-59
2.189809937e-59
2.189746713e-59
2.189687034e-59
2.189631704e-59
2.189581265e-59
2.189536012e-59
2.189496023e-59
2.189461193e-59
2.189431276e-59
2.189405918e-59
2.193321079e-59
2.193509304e-59
2.193890671e-59
2.194482525e-59
2.195314139e-59
2.196426435e-59
2.197871788e-59
2.199713752e-59
2.202026531e-59
2.204893988e-59
2.20840799e-59
2.212665861e-59
2.217766731e-59
2.22380659e-59
2.230871909e-59
2.239031757e-59
2.248328464e-59
2.258767036e-59
2.27030372e-59
2.282834381e-59
2.296183613e-59
2.310095811e-59
2.324229693e-59
2.33815792e-59
2.351373485e-59
2.363304252e-59
2.373336439e-59
2.380846867e-59
2.385242467e-59
2.386004095e-59
2.382730325e-59
2.375175992e-59
2.363280146e-59
2.347178997e-59
2.327201299e-59
2.303846222e-59
2.27774649e-59
2.24962189e-59
2.220229628e-59
2.190318096e-59
2.190286188e-59
2.190253356e-59
2.190203665e-59
2.190138037e-59
2.190058169e-59
2.189966366e-59
2.189865343e-59
2.189758036e-59
2.189647415e-59
2.189536314e-59
2.189427298e-59
2.189322565e-59
2.189223887e-59
2.18913258e-59
2.189049516e-59
2.188975153e-59
2.188909584e-59
2.188852605e-59
2.188803774e-59
2.188762482e-59
2.193274615e-59
2.193540811e-59
2.194080407e-59
2.194918589e-59
2.19609787e-59
2.197677803e-59
2.199734851e-59
2.202362197e-59
2.205669229e-59
2.209780415e-59
2.214833251e-59
2.220974947e-59
2.228357512e-59
2.237130927e-59
2.247434107e-59
2.25938348e-59
2.273059132e-59
2.288488661e-59
2.30562921e-59
2.324348514e-59
2.344406272e-59
2.365437739e-59
2.386941974e-59
2.408277654e-59
2.428669627e-59
2.447229101e-59
2.46298952e-59
2.474958498e-59
2.482183742e-59
2.483827978e-59
2.479245022e-59
2.468047141e-59
2.450153426e-59
2.425810655e-59
2.395581937e-59
2.360303701e-59
2.321017036e-59
2.278883735e-59
2.235099571e-59
2.190816787e-59
2.190769698e-59
2.190717149e-59
2.19063585e-59
2.190527542e-59
2.190395237e-59
2.190242933e-59
2.190075296e-59
2.189897328e-59
2.18971405e-59
2.18953023e-59
2.189350155e-59
2.189177471e-59
2.189015091e-59
2.188865155e-59
2.188729052e-59
2.188607479e-59
2.188500532e-59
2.188407813e-59
2.188328542e-59
2.188261672e-59
2.19359385e-59
2.193967189e-59
2.194724347e-59
2.195901626e-59
2.197560322e-59
2.199786479e-59
2.202690963e-59
2.206409515e-59
2.211102446e-59
2.216953537e-59
2.224167709e-59
2.232966967e-59
2.243584066e-59
2.2562534e-59
2.271198557e-59
2.288616124e-59
2.308655412e-59
2.331394058e-59
2.356809843e-59
2.384749654e-59
2.41489733e-59
2.446743189e-59
2.479559208e-59
2.512385061e-59
2.544031063e-59
2.57310425e-59
2.598062639e-59
2.617299931e-59
2.6292582e-59
2.632560087e-59
2.626145731e-59
2.609394924e-59
2.58221374e-59
2.545068371e-59
2.498957212e-59
2.445323533e-59
2.385922509e-59
2.322664707e-59
2.257461233e-59
2.192092886e-59
2.192023679e-59
2.191939624e-59
2.191806877e-59
2.191628641e-59
2.191410204e-59
2.191158468e-59
2.190881398e-59
2.190587472e-59
2.190285145e-59
2.189982393e-59
2.18968634e-59
2.189403001e-59
2.189137131e-59
2.188892181e-59
2.188670343e-59
2.188472656e-59
2.188299172e-59
2.188149134e-59
2.188021175e-59
2.1879135e-59
2.194356083e-59
2.194875269e-59
2.195928783e-59
2.197568563e-59
2.199882331e-59
2.202993527e-59
2.207061818e-59
2.212283729e-59
2.218892922e-59
2.227159552e-59
2.237388069e-59
2.249912732e-59
2.265090054e-59
2.283287287e-59
2.30486601e-59
2.330159871e-59
2.359445591e-59
2.392906567e-59
2.430588857e-59
2.472350165e-59
2.517803772e-59
2.566261245e-59
2.6166803e-59
2.667627003e-59
2.717264208e-59
2.763379608e-59
2.803465899e-59
2.834860876e-59
2.854946115e-59
2.861389811e-59
2.852404749e-59
2.826980685e-59
2.785046536e-59
2.727525439e-59
2.656264822e-59
2.573849788e-59
2.483333379e-59
2.387933708e-59
2.290750909e-59
2.194546123e-59
2.194444906e-59
2.194310583e-59
2.194094307e-59
2.193801862e-59
2.19344246e-59
2.193027939e-59
2.192571835e-59
2.192088449e-59
2.191591951e-59
2.191095617e-59
2.190611221e-59
2.19014862e-59
2.189715526e-59
2.189317456e-59
2.188957824e-59
2.188638143e-59
2.188358307e-59
2.188116908e-59
2.187911558e-59
2.187739204e-59
2.195659375e-59
2.196375227e-59
2.197828656e-59
2.200093425e-59
2.203294167e-59
2.207606748e-59
2.213259643e-59
2.22053576e-59
2.229774074e-59
2.241370339e-59
2.255776021e-59
2.273494457e-59
2.295073072e-59
2.321090254e-59
2.352135257e-59
2.388779227e-59
2.431535268e-59
2.480805368e-59
2.536812379e-59
2.599516121e-59
2.668514711e-59
2.742935524e-59
2.821325315e-59
2.901555592e-59
2.980766663e-59
3.055379793e-59
3.121208439e-59
3.173692695e-59
3.208262852e-59
3.22080827e-59
3.208191813e-59
3.168719167e-59
3.102460301e-59
3.011338111e-59
2.898947231e-59
2.770131057e-59
2.630404628e-59
2.485343718e-59
2.340056232e-59
2.198815613e-59
2.198668352e-59
2.19845391e-59
2.198102312e-59
2.197623863e-59
2.197034499e-59
2.196354423e-59
2.195606543e-59
2.194814879e-59
2.194003072e-59
2.193193112e-59
2.192404348e-59
2.191652832e-59
2.190950979e-59
2.19030752e-59
2.189727702e-59
2.189213653e-59
2.188764868e-59
2.188378756e-59
2.188051177e-59
2.187776963e-59
2.197625974e-59
2.198604486e-59
2.200592484e-59
2.203693969e-59
2.208084772e-59
2.214013792e-59
2.22180602e-59
2.231866666e-59
2.244685609e-59
2.260841285e-59
2.281002976e-59
2.30593021e-59
2.336467668e-59
2.373533508e-59
2.418098373e-59
2.471151559e-59
2.533649853e-59
2.606443636e-59
2.690174304e-59
2.785137436e-59
2.891108447e-59
3.007132828e-59
3.131292832e-59
3.260477345e-59
3.390200849e-59
3.514537125e-59
3.626245933e-59
3.71716494e-59
3.778903256e-59
3.803802318e-59
3.786035155e-59
3.722626537e-59
3.614137045e-59
3.464798896e-59
3.282023007e-59
3.075373453e-59
2.855256277e-59
2.631632122e-59
2.413017287e-59
2.205915847e-59
2.205702713e-59
2.205360609e-59
2.204790126e-59
2.204009418e-59
2.203045907e-59
2.201933945e-59
2.200712159e-59
2.199420749e-59
2.198098994e-59
2.196783144e-59
2.195504819e-59
2.194289983e-59
2.193158457e-59
2.192123917e-59
2.191194288e-59
2.190372413e-59
2.189656895e-59
2.189043017e-59
2.188523647e-59
2.188090082e-59
2.200405624e-59
2.201731539e-59
2.204427257e-59
2.208638407e-59
2.214611378e-59
2.222696238e-59
2.233352785e-59
2.247158945e-59
2.264820738e-59
2.287182898e-59
2.3152391e-59
2.350140376e-59
2.393199805e-59
2.445890646e-59
2.509833756e-59
2.586768157e-59
2.67849601e-59
2.786789971e-59
2.913247503e-59
3.059074152e-59
3.224778097e-59
3.409764716e-59
3.611836772e-59
3.826637766e-59
4.047124893e-59
4.263218966e-59
4.461833758e-59
4.627503468e-59
4.743762374e-59
4.795255594e-59
4.770290498e-59
4.663261597e-59
4.476241091e-59
4.219150509e-59
3.908329954e-59
3.563851262e-59
3.206332255e-59
2.854105634e-59
2.521359451e-59
2.217450054e-59
2.217143069e-59
2.216597406e-59
2.215673072e-59
2.214401817e-59
2.21283066e-59
2.211017864e-59
2.209028396e-59
2.206929345e-59
2.204785736e-59
2.202657056e-59
2.200594693e-59
2.198640348e-59
2.196825373e-59
2.195170922e-59
2.193688712e-59
2.192382238e-59
2.191248222e-59
2.190278162e-59
2.189459833e-59
2.188778657e-59
2.204178478e-59
2.205959349e-59
2.20958294e-59
2.215251832e-59
2.223309083e-59
2.234244252e-59
2.248704809e-59
2.267512297e-59
2.291682705e-59
2.322450571e-59
2.361296266e-59
2.409975616e-59
2.470550338e-59
2.545416398e-59
2.637324989e-59
2.749386858e-59
2.885044621e-59
3.047988956e-59
3.241983224e-59
3.470548086e-59
3.73644675e-59
4.040909834e-59
4.382559645e-59
4.756054926e-59
5.150597036e-59
5.548621307e-59
5.925209709e-59
6.24890843e-59
6.48456164e-59
6.598328207e-59
6.564215346e-59
6.370502994e-59
6.023875705e-59
5.549450002e-59
4.986262155e-59
4.379563268e-59
3.772478019e-59
3.19955861e-59
2.683641134e-59
2.235948582e-59
2.235508175e-59
2.234637175e-59
2.233140257e-59
2.231072719e-59
2.228515079e-59
2.225566089e-59
2.222334906e-59
2.218933295e-59
2.2154686e-59
2.212038049e-59
2.208724679e-59
2.205594953e-59
2.202697957e-59
2.200065899e-59
2.197715615e-59
2.195650726e-59
2.193864146e-59
2.192340667e-59
2.191059429e-59
2.189996132e-59
2.209157272e-59
2.211527983e-59
2.216356121e-59
2.223921789e-59
2.234699804e-59
2.249371288e-59
2.268844434e-59
2.294284454e-59
2.327153153e-59
2.369259076e-59
2.422819646e-59
2.49053696e-59
2.575688603e-59
2.682233531e-59
2.814929807e-59
2.979454383e-59
3.182503244e-59
3.431830307e-59
3.736152643e-59
4.104805922e-59
4.54697992e-59
5.070312261e-59
5.678601904e-59
6.368483396e-59
7.125167476e-59
7.917886112e-59
8.696469375e-59
9.391284407e-59
9.919008502e-59
1.019562419e-58
1.015521656e-58
9.769391437e-59
9.059619769e-59
8.096028574e-59
6.981593745e-59
5.827543308e-59
4.729621329e-59
3.753280225e-59
2.930472976e-59
2.265415737e-59
2.264785474e-59
2.263392016e-59
2.260965482e-59
2.257602174e-59
2.253440223e-59
2.248647311e-59
2.243407049e-59
2.237905604e-59
2.232319894e-59
2.226808279e-59
2.221504172e-59
2.216512613e-59
2.211909478e-59
2.20774284e-59
2.204035868e-59
2.200790689e-59
2.197992682e-59
2.19561479e-59
2.193621547e-59
2.191972607e-59
2.215588296e-59
2.218716005e-59
2.22509226e-59
2.235102369e-59
2.249399883e-59
2.268928185e-59
2.294957297e-59
2.329137949e-59
2.373575935e-59
2.430931447e-59
2.504550299e-59
2.598636253e-59
2.718476007e-59
2.870729824e-59
3.063799957e-59
3.308282813e-59
3.617493963e-59
4.00801856e-59
4.50016952e-59
5.118113402e-59
5.889231217e-59
6.842017555e-59
8.001540388e-59
9.381356885e-59
1.097116332e-58
1.272087532e-58
1.452471562e-58
1.621287122e-58
1.756130308e-58
1.832842883e-58
1.831713764e-58
1.744366965e-58
1.578161006e-58
1.355342392e-58
1.10672078e-58
8.627267013e-59
6.460071452e-59
4.682909491e-59
3.315087177e-59
2.31224014e-59
2.311338192e-59
2.30909857e-59
2.305152279e-59
2.299667865e-59
2.292883736e-59
2.285086177e-59
2.276585314e-59
2.267691959e-59
2.258697713e-59
2.249859824e-59
2.241391397e-59
2.23345678e-59
2.22617139e-59
2.219604982e-59
2.213787235e-59
2.208714653e-59
2.204357913e-59
2.200669018e-59
2.197587786e-59
2.19504743e-59
2.223747418e-59
2.22783775e-59
2.236185819e-59
2.249316003e-59
2.268125469e-59
2.293915831e-59
2.328459219e-59
2.374094031e-59
2.433861446e-59
2.511696247e-59
2.612692374e-59
2.743472709e-59
2.912704339e-59
3.131815279e-59
3.415985323e-59
3.785498531e-59
4.267547953e-59
4.898552017e-59
5.726931317e-59
6.81602188e-59
8.246236092e-59
1.011456382e-58
1.252794255e-58
1.558517652e-58
1.934109764e-58
2.37491642e-58
2.858857113e-58
3.340146376e-58
3.748901539e-58
4.002133954e-58
4.027715981e-58
3.794019013e-58
3.329455498e-58
2.717416516e-58
2.066319487e-58
1.471428543e-58
9.894055261e-59
6.349528588e-59
3.936347501e-59
2.386776306e-59
2.385480656e-59
2.381851291e-59
2.375389766e-59
2.366394566e-59
2.355282132e-59
2.342546492e-59
2.328715937e-59
2.314312369e-59
2.299817565e-59
2.28564877e-59
2.272144233e-59
2.259557858e-59
2.248061299e-59
2.237751416e-59
2.228661074e-59
2.220771498e-59
2.214024828e-59
2.208335887e-59
2.203602557e-59
2.199714456e-59
2.233940298e-59
2.239240565e-59
2.250073317e-59
2.267152041e-59
2.291694631e-59
2.325495351e-59
2.371023667e-59
2.431595179e-59
2.511618211e-59
2.616952874e-59
2.755434951e-59
2.937644792e-59
3.178043199e-59
3.49665862e-59
3.921601204e-59
4.49280754e-59
5.267585689e-59
6.328708832e-59
7.795903233e-59
9.841339681e-59
1.270860048e-58
1.673147811e-58
2.234223198e-58
3.004712029e-58
4.033159343e-58
5.34488319e-58
6.906937744e-58
8.586288963e-58
1.01251183e-57
1.117107495e-57
1.138767637e-57
1.061484999e-57
8.982550378e-58
6.878793877e-58
4.774045811e-58
3.021740502e-58
1.763236839e-58
9.622511754e-59
4.993237874e-59
2.506252145e-59
2.504373008e-59
2.49841035e-59
2.487701514e-59
2.47278639e-59
2.454407357e-59
2.433432447e-59
2.410774933e-59
2.38732048e-59
2.363869539e-59
2.341098645e-59
2.319540538e-59
2.299580512e-59
2.281465036e-59
2.265318428e-59
2.251163806e-59
2.238945328e-59
2.228549588e-59
2.219824843e-59
2.212597351e-59
2.206684585e-59
2.246495129e-59
2.253299664e-59
2.267229885e-59
2.28925273e-59
2.321024055e-59
2.364994457e-59
2.424608937e-59
2.504577657e-59
2.611320062e-59
2.753631821e-59
2.943702161e-59
3.198685386e-59
3.54315946e-59
4.013021046e-59
4.661729476e-59
5.570416718e-59
6.864366267e-59
8.739907933e-59
1.150800121e-58
1.566344034e-58
2.199022453e-58
3.170952646e-58
4.665563929e-58
6.940648048e-58
1.031744114e-57
1.510899539e-57
2.144218849e-57
2.896347926e-57
3.65419336e-57
4.22629117e-57
4.403340353e-57
4.072013972e-57
3.305946275e-57
2.34290592e-57
1.450078857e-57
7.894346649e-58
3.832069463e-58
1.690268107e-58
6.927492956e-59
2.7004999e-59
2.697724305e-59
2.687711242e-59
2.66960274e-59
2.64440892e-59
2.613496116e-59
2.578433194e-59
2.540836163e-59
2.502233942e-59
2.463969358e-59
2.427139904e-59
2.392575106e-59
2.360842839e-59
2.33227532e-59
2.307006104e-59
2.285011126e-59
2.266148907e-59
2.250196921e-59
2.23688261e-59
2.225908555e-59
2.216971972e-59
2.261753226e-59
2.270407075e-59
2.28815739e-59
2.316309e-59
2.357105473e-59
2.413904838e-59
2.491483449e-59
2.596554857e-59
2.738518377e-59
2.930685314e-59
3.192238754e-59
3.551417652e-59
4.050800474e-59
4.756252425e-59
5.772390452e-59
7.269857754e-59
9.534309274e-59
1.305568875e-58
1.869236997e-58
2.797278829e-58
4.364154274e-58
7.061157329e-58
1.175021414e-57
1.987667481e-57
3.366816046e-57
5.606577841e-57
8.985606521e-57
1.353820282e-56
1.870475546e-56
2.311317859e-56
2.494354259e-56
2.302280681e-56
1.788043373e-56
1.156985395e-56
6.225969189e-57
2.806412624e-57
1.077090172e-57
3.60586547e-58
1.084524988e-58
3.024213578e-59
3.019984672e-59
3.002587016e-59
2.970972046e-59
2.927128191e-59
2.873692474e-59
2.8136222e-59
2.749877956e-59
2.68516752e-59
2.621775766e-59
2.561482154e-59
2.50555124e-59
2.454774359e-59
2.409540547e-59
2.369918813e-59
2.335739367e-59
2.306666528e-59
2.282259994e-59
2.262023743e-59
2.245443351e-59
2.232013194e-59
2.280056034e-59
2.290957245e-59
2.313367152e-59
2.34903865e-59
2.401000848e-59
2.473846629e-59
2.574234064e-59
2.711710463e-59
2.900108518e-59
3.15975293e-59
3.521184902e-59
4.031602999e-59
4.766212681e-59
5.848850703e-59
7.490593383e-59
1.006429768e-58
1.425292125e-58
2.135304055e-58
3.39109812e-58
5.707870116e-58
1.015202969e-57
1.895716116e-57
3.678077196e-57
7.306780179e-57
1.458203097e-56
2.856238957e-56
5.344648592e-56
9.271430474e-56
1.444019499e-55
1.954356056e-55
2.226611099e-55
2.074545201e-55
1.543302023e-55
9.017785607e-56
4.112277367e-56
1.471664081e-56
4.20919686e-57
9.912341776e-58
1.996507778e-58
3.585744951e-59
3.578974234e-59
3.547137318e-59
3.489157641e-59
3.409246108e-59
3.31285015e-59
3.205889375e-59
3.094062558e-59
2.982339457e-59
2.874676985e-59
2.773938294e-59
2.681959913e-59
2.599704843e-59
2.527449248e-59
2.464966783e-59
2.411690481e-59
2.366844243e-59
2.32954353e-59
2.298868798e-59
2.273916611e-59
2.253833389e-59
2.301728325e-59
2.315328167e-59
2.343357374e-59
2.388159204e-59
2.453807485e-59
2.546570098e-59
2.675727506e-59
2.854955154e-59
3.10465664e-59
3.456054695e-59
3.958356193e-59
4.691627356e-59
5.791296934e-59
7.496107543e-59
1.024589322e-58
1.488969619e-58
2.314832959e-58
3.868732262e-58
6.970754817e-58
1.354212686e-57
2.826578837e-57
6.289057602e-57
1.472613764e-56
3.563465025e-56
8.702845151e-56
2.08398062e-55
4.731039756e-55
9.807397059e-55
1.783166964e-54
2.727558177e-54
3.367502467e-54
3.226850294e-54
2.318760961e-54
1.216998772e-54
4.597612551e-55
1.251024883e-55
2.496340087e-56
3.781851834e-57
4.561392224e-58
4.622577587e-59
4.610879271e-59
4.547925949e-59
4.433418178e-59
4.277227251e-59
4.091717676e-59
3.889762029e-59
3.683092206e-59
3.481257444e-59
3.291214901e-59
3.117413427e-59
2.962172113e-59
2.826174964e-59
2.708958591e-59
2.609327419e-59
2.525674324e-59
2.456210401e-59
2.399119356e-59
2.352654781e-59
2.315196872e-59
2.285281657e-59
2.327057582e-59
2.343857932e-59
2.378584283e-59
2.434351724e-59
2.516614621e-59
2.63390212e-59
2.799138619e-59
3.031941257e-59
3.362649455e-59
3.839567108e-59
4.54252189e-59
5.609397613e-59
7.288730443e-59
1.005261228e-58
1.484882738e-58
2.369752799e-58
4.118784123e-58
7.84613928e-58
1.644536458e-57
3.793965617e-57
9.594331854e-57
2.634303109e-56
7.731040137e-56
2.371726593e-55
7.388984219e-55
2.256701031e-54
6.485352149e-54
1.675345916e-53
3.703119287e-53
6.651156542e-53
9.210370557e-53
9.33837013e-53
6.605841776e-53
3.129357246e-53
9.65025248e-54
1.918464764e-54
2.491844688e-55
2.194659128e-56
1.386906055e-57
6.727045029e-59
6.704399726e-59
6.564906916e-59
6.312627968e-59
5.974127006e-59
5.581276717e-59
5.165347004e-59
4.752682152e-59
4.362593433e-59
4.007196281e-59
3.692476935e-59
3.41985956e-59
3.187759039e-59
2.992856361e-59
2.831022831e-59
2.697925026e-59
2.589383222e-59
2.501559021e-59
2.431034423e-59
2.374827291e-59
2.330372785e-59
2.356269921e-59
2.37681694e-59
2.419426956e-59
2.488214622e-59
2.590443874e-59
2.73767641e-59
2.947874585e-59
3.249179304e-59
3.68681153e-59
4.336093936e-59
5.328055321e-59
6.902257977e-59
9.523504364e-59
1.414902054e-58
2.289199546e-58
4.078320218e-58
8.081663978e-58
1.795844417e-57
4.497421037e-57
1.2702249e-56
4.026249757e-56
1.415848846e-55
5.41972458e-55
2.198333852e-54
9.125329284e-54
3.716215267e-53
1.414032879e-52
4.761667094e-52
1.338299361e-51
2.950873536e-51
4.785994763e-51
5.345044938e-51
3.848700097e-51
1.679975195e-51
4.227993231e-52
5.960746659e-53
4.713561438e-54
2.163300862e-55
6.13434603e-57
1.164202445e-58
1.159029187e-58
1.122591145e-58
1.057469362e-58
9.722610692e-59
8.766929685e-59
7.795366022e-59
6.873600885e-59
6.04205789e-59
5.319180882e-59
4.707547238e-59
4.200058036e-59
3.784829212e-59
3.448468641e-59
3.177975324e-59
2.961664459e-59
2.789490479e-59
2.653041675e-59
2.545381836e-59
2.460839855e-59
2.394799219e-59
2.389503307e-59
2.41437651e-59
2.466146295e-59
2.550207097e-59
2.676170812e-59
2.859630188e-59
3.125460867e-59
3.513958978e-59
4.09254308e-59
4.978987219e-59
6.389910109e-59
8.7479826e-59
1.293487108e-58
2.093805812e-58
3.763061958e-58
7.612919833e-58
1.755539655e-57
4.661310873e-57
1.43406238e-56
5.116774538e-56
2.104956363e-55
9.845941463e-55
5.118034131e-54
2.862866577e-53
1.653559367e-52
9.384447121e-52
4.944321582e-51
2.271519003e-50
8.5073693e-50
2.418274868e-49
4.836292455e-49
6.274883725e-49
4.843260922e-49
2.033282869e-49
4.271497547e-50
4.225015962e-51
1.923716392e-52
4.119645851e-54
4.40938883e-56
2.572182737e-58
2.557216051e-58
2.436958686e-58
2.22637079e-58
1.96099982e-58
1.67788207e-58
1.406512135e-58
1.165104962e-58
9.614054407e-59
7.957394224e-59
6.642950859e-59
5.616191324e-59
4.821323742e-59
4.20867314e-59
3.737160903e-59
3.374221487e-59
3.094644111e-59
2.879143101e-59
2.713024934e-59
2.585081736e-59
2.486726914e-59
2.426779379e-59
2.456575254e-59
2.518839465e-59
2.620582798e-59
2.774425831e-59
3.001258705e-59
3.335346436e-59
3.834163993e-59
4.598002475e-59
5.811022131e-59
7.832470474e-59
1.141372473e-58
1.825637419e-58
3.25778316e-58
6.596738445e-58
1.541822023e-57
4.223499945e-57
1.372688262e-56
5.333596086e-56
2.480110072e-55
1.370237455e-54
8.844477502e-54
6.489328889e-53
5.209714608e-52
4.360345926e-51
3.592718053e-50
2.731712141e-49
1.786598969e-48
9.327674226e-48
3.592655935e-47
9.37861015e-47
1.509699867e-46
1.343437602e-46
5.827431162e-47
1.079109785e-47
7.626252317e-49
1.933132962e-50
1.747566345e-52
5.884624211e-55
7.972971883e-58
7.912755889e-58
7.362769442e-58
6.430163054e-58
5.318149338e-58
4.214678279e-58
3.242792447e-58
2.454147866e-58
1.848903242e-58
1.400828945e-58
1.075968061e-58
8.426898692e-59
6.754351842e-59
5.550616262e-59
4.678258273e-59
4.040758096e-59
3.570930592e-59
3.222010355e-59
2.961247171e-59
2.765471522e-59
2.618082474e-59
2.467975852e-59
2.503285415e-59
2.577392265e-59
2.699316074e-59
2.88547486e-59
3.163621264e-59
3.58060152e-59
4.217868185e-59
5.223860038e-59
6.885634787e-59
9.79873438e-59
1.530361468e-58
2.671428312e-58
5.315436968e-58
1.230125373e-57
3.377338672e-57
1.121002378e-56
4.564037496e-56
2.299496536e-55
1.434994121e-54
1.099241704e-53
1.012719824e-52
1.086047045e-51
1.296283769e-50
1.628296331e-49
2.016469086e-48
2.290236523e-47
2.208978596e-46
1.670512015e-45
9.119254308e-45
3.289310892e-44
7.077905178e-44
7.983734894e-44
3.983147972e-44
7.154137492e-45
3.817544677e-46
5.383500413e-48
1.907438176e-50
1.696951697e-53
3.91752848e-57
3.87951299e-57
3.486556836e-57
2.851793978e-57
2.153114355e-57
1.52809096e-57
1.039938699e-57
6.920278393e-58
4.58299114e-58
3.065424983e-58
2.094665973e-58
1.474110882e-58
1.073740112e-58
8.113871004e-59
6.362026392e-59
5.168756064e-59
4.34017841e-59
3.754718076e-59
3.334820069e-59
3.030010121e-59
2.806720593e-59
2.512802208e-59
2.554182319e-59
2.641433384e-59
2.786025596e-59
3.009084412e-59
3.347098094e-59
3.863486186e-59
4.672624793e-59
5.992402431e-59
8.267210726e-59
1.247976754e-58
2.101854675e-58
4.036200865e-58
9.045925117e-58
2.423648471e-57
7.945661039e-57
3.254058798e-56
1.694791206e-55
1.133760823e-54
9.745732547e-54
1.064281732e-52
1.44045556e-51
2.324352316e-50
4.243618895e-49
8.220559488e-48
1.569800129e-46
2.728623541e-45
3.974967155e-44
4.467766622e-43
3.570381367e-42
1.86590318e-41
5.785177731e-41
9.278270965e-41
6.195015126e-41
1.250732217e-41
5.52052997e-43
4.495380482e-45
6.059110174e-48
1.239074891e-51
3.555320187e-56
3.511538147e-56
3.001670838e-56
2.234574391e-56
1.481271046e-56
8.991242684e-57
5.148767659e-57
2.862366189e-57
1.584549204e-57
8.91916191e-58
5.18692428e-58
3.151171818e-58
2.013219714e-58
1.356476045e-58
9.637879507e-59
7.204208749e-59
5.643706947e-59
4.611787436e-59
3.910936394e-59
3.424240941e-59
3.080224411e-59
2.560782111e-59
2.608721099e-59
2.710296215e-59
2.879903345e-59
3.144381451e-59
3.551107822e-59
4.184882469e-59
5.204363569e-59
6.925621723e-59
1.002909138e-58
1.612113223e-58
2.942850616e-58
6.25792972e-58
1.593200757e-57
4.994607116e-57
1.981164719e-56
1.018433547e-55
6.908411869e-55
6.258161131e-54
7.56919421e-53
1.204835978e-51
2.44965438e-50
6.077221292e-49
1.731351184e-47
5.264442678e-46
1.573449892e-44
4.235965452e-43
9.406592704e-42
1.583646396e-40
1.871534313e-39
1.450277589e-38
6.877750695e-38
1.782208095e-37
1.973063588e-37
5.586794433e-38
2.252967306e-39
1.129290575e-41
5.983011297e-45
2.643597387e-49
7.163255519e-55
7.05307154e-55
5.612362095e-55
3.655166698e-55
2.017944215e-55
9.854456417e-56