/*--------------------------------*- C++ -*----------------------------------*\
  =========                 |
  \\      /  F ield         | OpenFOAM: The Open Source CFD Toolbox
   \\    /   O peration     | Website:  https://openfoam.org
    \\  /    A nd           | Version:  10
     \\/     M anipulation  |
\*---------------------------------------------------------------------------*/
FoamFile
{
    format      ascii;
    class       volScalarField;
    location    "0.0001";
    object      T;
}
// * * * * * * * * * * * * * * * * * * * * * * * * * * * * * * * * * * * * * //

dimensions      [0 0 0 1 0 0 0];

internalField   nonuniform List<scalar> 
3600
(
300.0134361
300.0134475
300.0134704
300.0135058
300.0135551
300.0136205
300.0137043
300.0138098
300.0139402
300.0140992
300.0142905
300.0145178
300.0147846
300.0150936
300.0154469
300.0158451
300.0162873
300.0167707
300.01729
300.0178374
300.018402
300.0189703
300.0195258
300.0200493
300.0205197
300.0209142
300.0212096
300.0213828
300.0214124
300.0212796
300.020969
300.0204701
300.0197775
300.0188917
300.0178189
300.0165712
300.0151656
300.0136235
300.0119698
300.0102316
300.0102297
300.0102286
300.0102273
300.0102258
300.0102241
300.0102222
300.0102202
300.0102181
300.0102159
300.0102137
300.0102116
300.0102095
300.0102075
300.0102056
300.0102039
300.0102024
300.010201
300.0101997
300.0101987
300.0101977
300.0120597
300.012073
300.0120999
300.0121415
300.0121995
300.0122763
300.012375
300.0124993
300.0126531
300.0128408
300.013067
300.0133362
300.0136527
300.0140199
300.0144404
300.0149153
300.0154438
300.0160227
300.016646
300.0173046
300.0179859
300.0186737
300.0193484
300.0199874
300.0205652
300.0210546
300.0214277
300.021657
300.0217166
300.0215842
300.0212416
300.0206764
300.0198828
300.018862
300.0176224
300.0161793
300.0145543
300.012774
300.0108691
300.008873
300.0088708
300.0088695
300.0088679
300.008866
300.0088639
300.0088615
300.0088589
300.0088562
300.0088534
300.0088506
300.0088478
300.0088451
300.0088425
300.0088401
300.0088379
300.0088359
300.0088341
300.0088325
300.0088312
300.00883
300.0108091
300.0108267
300.0108621
300.0109169
300.0109934
300.0110948
300.0112253
300.0113899
300.0115939
300.0118433
300.0121446
300.012504
300.0129274
300.0134199
300.0139855
300.014626
300.0153408
300.0161262
300.0169747
300.0178743
300.0188085
300.0197559
300.0206901
300.0215803
300.0223924
300.0230891
300.0236325
300.0239849
300.0241113
300.0239812
300.0235702
300.0228621
300.0218498
300.0205362
300.0189343
300.0170666
300.0149645
300.0126659
300.0102145
300.007657
300.0076543
300.0076524
300.0076502
300.0076474
300.0076442
300.0076407
300.0076368
300.0076327
300.0076284
300.0076242
300.00762
300.0076159
300.007612
300.0076084
300.0076051
300.0076021
300.0075994
300.007597
300.0075949
300.0075932
300.0096886
300.0097132
300.0097628
300.0098397
300.009947
300.0100896
300.0102734
300.0105053
300.0107935
300.0111466
300.011574
300.012085
300.0126886
300.0133926
300.0142033
300.015124
300.0161546
300.0172907
300.018522
300.0198323
300.0211982
300.0225892
300.0239677
300.0252893
300.0265043
300.0275586
300.0283967
300.0289637
300.0292083
300.029086
300.0285615
300.0276118
300.0262276
300.0244145
300.0221935
300.0195996
300.0166806
300.0134944
300.0101066
300.0065868
300.0065829
300.0065803
300.0065768
300.0065724
300.0065673
300.0065616
300.0065553
300.0065486
300.0065418
300.0065349
300.006528
300.0065214
300.0065151
300.0065093
300.0065039
300.006499
300.0064947
300.0064909
300.0064876
300.0064848
300.0087049
300.0087403
300.0088118
300.0089224
300.0090771
300.0092828
300.0095483
300.009884
300.0103018
300.0108149
300.0114373
300.0121831
300.0130663
300.014099
300.0152914
300.0166494
300.018174
300.0198595
300.0216921
300.0236486
300.0256954
300.0277879
300.0298706
300.0318778
300.0337348
300.0353611
300.0366729
300.0375875
300.0380275
300.0379256
300.0372289
300.0359031
300.0339351
300.031335
300.0281359
300.0243929
300.0201804
300.0155877
300.0107151
300.0056688
300.0056634
300.0056592
300.0056536
300.0056466
300.0056382
300.0056287
300.0056182
300.0056072
300.0055957
300.0055842
300.0055728
300.0055619
300.0055514
300.0055417
300.0055328
300.0055248
300.0055177
300.0055114
300.005506
300.0055014
300.0078684
300.0079196
300.0080231
300.0081835
300.008408
300.0087069
300.0090932
300.0095824
300.0101925
300.0109433
300.011856
300.0129523
300.0142535
300.015779
300.0175447
300.0195611
300.0218312
300.024348
300.0270925
300.0300317
300.0331165
300.0362814
300.0394437
300.0425049
300.0453528
300.0478654
300.0499153
300.0513765
300.0521308
300.052075
300.0511285
300.0492388
300.0463867
300.0425883
300.037896
300.0323955
300.0262021
300.0194538
300.0123046
300.0049162
300.0049083
300.0049018
300.0048927
300.004881
300.0048671
300.0048512
300.0048337
300.0048152
300.004796
300.0047767
300.0047577
300.0047393
300.004722
300.0047058
300.004691
300.0046777
300.0046658
300.0046555
300.0046466
300.004639
300.0071935
300.0072675
300.0074172
300.0076492
300.0079743
300.0084077
300.0089688
300.0096806
300.01057
300.0116668
300.013003
300.0146116
300.0165255
300.0187748
300.021385
300.0243737
300.0277473
300.031498
300.0355999
300.0400057
300.0446445
300.0494194
300.0542077
300.0588619
300.0632132
300.0670765
300.0702585
300.0725665
300.0738194
300.0738589
300.0725606
300.0698438
300.0656786
300.0600903
300.0531594
300.0450187
300.0358455
300.0258517
300.0152724
300.0043533
300.0043415
300.0043312
300.0043163
300.004297
300.0042737
300.0042471
300.0042178
300.0041868
300.0041547
300.0041224
300.0040906
300.0040599
300.004031
300.0040041
300.0039795
300.0039574
300.0039378
300.0039207
300.003906
300.0038935
300.0067005
300.0068067
300.0070219
300.0073556
300.0078237
300.0084487
300.009259
300.0102889
300.0115783
300.0131716
300.015117
300.0174646
300.0202643
300.0235629
300.0274005
300.0318059
300.0367923
300.0423515
300.0484484
300.0550165
300.0619531
300.0691165
300.0763254
300.0833599
300.0899667
300.0958669
300.1007673
300.1043744
300.1064114
300.1066352
300.1048541
300.1009428
300.0948541
300.0866256
300.0763801
300.0643201
300.0507165
300.0358923
300.020204
300.0040227
300.0040053
300.0039887
300.0039643
300.0039323
300.0038935
300.0038491
300.0038002
300.0037482
300.0036946
300.0036407
300.0035877
300.0035367
300.0034886
300.003444
300.0034033
300.0033668
300.0033346
300.0033065
300.0032823
300.0032619
300.0064168
300.0065684
300.0068754
300.0073517
300.0080208
300.0089153
300.010077
300.0115563
300.0134121
300.0157102
300.0185225
300.0219242
300.0259909
300.0307943
300.0363968
300.0428455
300.0501644
300.0583467
300.0673464
300.0770705
300.0873719
300.0980449
300.1088232
300.1193815
300.1293422
300.1382872
300.1457742
300.1513588
300.1546192
300.1551836
300.1527566
300.1471437
300.1382691
300.1261868
300.1110811
300.0932583
300.0731285
300.0511803
300.0279511
300.0039975
300.0039717
300.0039453
300.0039052
300.0038523
300.0037879
300.0037139
300.0036324
300.0035459
300.0034567
300.0033671
300.0032791
300.0031947
300.0031151
300.0030414
300.0029744
300.0029144
300.0028615
300.0028156
300.0027762
300.0027429
300.0063794
300.0065937
300.0070281
300.0077026
300.0086511
300.0099211
300.0115732
300.0136812
300.016331
300.0196197
300.0236533
300.0285439
300.034405
300.0413454
300.0494616
300.0588288
300.0694892
300.081441
300.0946252
300.1089135
300.1240978
300.139882
300.1558782
300.171609
300.1865157
300.1999757
300.2113268
300.2198994
300.2250545
300.2262256
300.2229596
300.2149543
300.2020874
300.1844332
300.1622651
300.1360417
300.106379
300.0740104
300.0397408
300.0043995
300.0043615
300.0043191
300.0042536
300.0041663
300.0040596
300.0039369
300.0038017
300.0036582
300.0035104
300.0033622
300.0032169
300.0030776
300.0029466
300.0028257
300.0027159
300.0026178
300.0025315
300.0024567
300.0023927
300.0023388
300.0066364
300.006937
300.0075463
300.0084933
300.0098267
300.0116147
300.0139448
300.0169236
300.0206759
300.0253432
300.031081
300.0380547
300.0464331
300.0563798
300.0680426
300.0815394
300.0969429
300.1142619
300.1334236
300.154254
300.1764616
300.1996246
300.2231836
300.2464435
300.2685847
300.2886872
300.3057663
300.3188202
300.3268871
300.3291081
300.3247909
300.3134676
300.2949398
300.2693058
300.2369652
300.1985984
300.1551231
300.107633
300.0573252
300.0054277
300.005372
300.0053043
300.0051973
300.0050537
300.0048777
300.0046748
300.0044515
300.0042146
300.0039709
300.0037268
300.0034881
300.0032595
300.0030451
300.0028475
300.0026685
300.002509
300.002369
300.002248
300.0021447
300.0020578
300.00725
300.0076677
300.0085151
300.0098333
300.0116916
300.0141874
300.0174457
300.0216192
300.0268875
300.0334552
300.0415484
300.0514087
300.0632849
300.0774209
300.0940402
300.1133262
300.1353991
300.1602899
300.1879123
300.2180347
300.2502542
300.2839759
300.3184012
300.3525273
300.3851624
300.4149584
300.4404623
300.4601861
300.4726918
300.4766854
300.4711143
300.4552558
300.4287885
300.3918354
300.3449727
300.2891998
300.2258734
300.1566125
300.0831867
300.0074029
300.0073214
300.0072133
300.0070393
300.0068039
300.0065146
300.0061808
300.0058135
300.0054242
300.0050242
300.0046242
300.0042338
300.0038608
300.0035116
300.0031905
300.0029005
300.0026425
300.0024168
300.002222
300.0020562
300.0019171
300.0082985
300.0088741
300.0100423
300.0118611
300.0144284
300.0178816
300.0223981
300.0281946
300.0355274
300.0446894
300.056006
300.0698275
300.0865172
300.1064347
300.1299147
300.1572383
300.1886006
300.2240722
300.2635582
300.306756
300.3531162
300.4018102
300.451709
300.5013804
300.5491067
300.59293
300.6307244
300.6602973
300.6795134
300.6864363
300.6794741
300.6575157
300.6200413
300.5671922
300.499787
300.4192793
300.3276585
300.2273045
300.1208157
300.0108351
300.0107169
300.0105446
300.0102622
300.0098777
300.0094041
300.0088574
300.008256
300.0076191
300.0069658
300.0063138
300.0056786
300.0050732
300.0045076
300.0039889
300.0035214
300.0031068
300.0027448
300.0024333
300.0021689
300.0019476
300.0098794
300.0106656
300.0122616
300.0147488
300.018264
300.0229997
300.0292047
300.0371842
300.0473001
300.0599682
300.0756526
300.0948559
300.1181035
300.145921
300.1788035
300.2171772
300.2613516
300.3114652
300.3674253
300.4288463
300.4949898
300.5647152
300.6364445
300.7081527
300.7773887
300.8413349
300.8969082
300.9409042
300.9701774
300.9818497
300.9735285
300.9435131
300.8909666
300.816027
300.7198385
300.6044934
300.4728842
300.3284842
300.1750848
300.0165285
300.0163578
300.0160839
300.015627
300.0150016
300.0142294
300.0133378
300.0123577
300.0113211
300.0102595
300.009202
300.0081741
300.0071968
300.0062859
300.0054527
300.0047037
300.0040412
300.0034643
300.0029692
300.0025502
300.0022003
300.0121117
300.0131755
300.0153363
300.0187067
300.0234764
300.0299122
300.0383599
300.0492454
300.0630748
300.0804327
300.1019747
300.1284151
300.1605065
300.1990084
300.2446464
300.2980577
300.3597244
300.4298967
300.5085054
300.5950723
300.6886214
300.7876026
300.8898357
300.9924885
301.0920989
301.1846517
301.2657173
301.3306537
301.3748654
301.3941065
301.3848036
301.3443679
301.2714583
301.1661594
301.030041
300.86608
300.6784456
300.4721702
300.2527503
300.0257387
300.0254942
300.0250595
300.0243228
300.0233092
300.0220557
300.0206083
300.0190186
300.0173397
300.0156235
300.0139176
300.0122634
300.0106944
300.009236
300.0079056
300.0067128
300.0056608
300.0047472
300.0039653
300.0033054
300.0027559
300.015137
300.0165633
300.0194618
300.023987
300.0303991
300.0390648
300.0504601
300.065173
300.0839052
300.10747
300.1367848
300.1728549
300.2167469
300.2695477
300.3323083
300.4059697
300.4912701
300.5886365
300.698061
300.8189706
300.9500979
301.0893653
301.2337972
301.3794773
301.5215679
301.6544062
301.7716907
301.8667595
301.9329568
301.9640687
301.9547959
301.9012188
301.8012014
301.6546728
301.4637376
301.2325796
300.967153
300.6746944
300.3631213
300.0404116
300.0400637
300.0393754
300.0381918
300.0365558
300.0345299
300.0321911
300.029625
300.0269196
300.0241598
300.021423
300.0187757
300.0162715
300.0139504
300.011839
300.0099515
300.0082915
300.006854
300.0056273
300.004595
300.0037379
300.0191216
300.0210158
300.0248672
300.0308857
300.0394249
300.0509835
300.0662106
300.0859099
300.1110445
300.142735
300.182252
300.230996
300.2904633
300.3621926
300.4476896
300.5483263
300.6652143
300.7990532
300.949958
301.1172728
301.2993836
301.4935467
301.695753
301.9006518
302.1015598
302.2905778
302.4588341
302.5968631
302.6951143
302.74457
302.7374289
302.6677936
302.5322819
302.3304743
302.0651133
301.7419967
301.3695453
300.958086
300.5189513
300.0635389
300.0630473
300.0619601
300.0600652
300.0574355
300.054176
300.0504149
300.0462937
300.0419569
300.0375428
300.0331766
300.0289647
300.0249919
300.0213204
300.0179905
300.0150228
300.0124207
300.0101741
300.0082626
300.0066587
300.0053308
300.0242553
300.0267467
300.0318151
300.039743
300.051006
300.0662758
300.086428
300.112551
300.1459526
300.1881615
300.2409193
300.306157
300.3859518
300.4824583
300.5978089
300.7339791
300.8926158
301.0748291
301.2809529
301.5102827
301.7608086
302.0289646
302.3094221
302.594963
302.8764648
303.1430353
303.3823228
303.5810193
303.7255558
303.8029632
303.8018472
303.7133913
303.5322758
303.2573829
302.8921537
302.4444946
301.926189
301.3518591
300.7376251
300.0996844
300.098995
300.097282
300.0942597
300.0900509
300.0848309
300.0788123
300.0722277
300.065313
300.0582925
300.0513671
300.044706
300.0384421
300.0326714
300.0274542
300.022819
300.0187677
300.0152808
300.012323
300.0098487
300.0078062
300.0307473
300.033993
300.040599
300.0509401
300.0656507
300.085626
300.112036
300.1463383
300.1902912
300.2459585
300.3157023
300.4021569
300.508175
300.6367404
300.7908381
300.9732765
301.186458
301.4320964
301.7108885
302.0221515
302.3634461
302.730216
303.1154821
303.5096359
303.9003841
304.2728902
304.6101594
304.8936919
305.1044121
305.2238477
305.2354953
305.1262641
304.8878447
304.5178108
304.0202501
303.405742
302.6905861
301.8953214
301.0427418
300.1557556
300.1547957
300.1521044
300.1473028
300.1405968
300.1322776
300.1226954
300.1122308
300.1012672
300.0901659
300.0792472
300.068778
300.0589651
300.0499545
300.0418352
300.0346456
300.0283821
300.0230085
300.0184648
300.0146755
300.0115569
300.0388245
300.0430102
300.0515347
300.0648923
300.0839144
300.1097852
300.144051
300.1886442
300.2459035
300.3185856
300.4098604
300.5232825
300.6627269
300.8322789
301.0360682
301.2780371
301.5616362
301.8894484
302.2627437
302.6809829
303.1412947
303.6379662
304.161997
304.7007779
305.2379642
305.7536093
306.2246228
306.6255963
306.9300164
307.1118431
307.1473869
307.0173524
306.7088505
306.2171103
305.5465748
304.711073
303.7328657
302.6405675
301.4662305
300.2421207
300.2407941
300.2365782
300.2289814
300.2183467
300.2051547
300.1899796
300.1734412
300.1561585
300.1387099
300.1216027
300.1052545
300.0899838
300.0760104
300.063463
300.0523906
300.0427773
300.0345572
300.0276291
300.0218695
300.0171438
300.0487235
300.0540658
300.064953
300.0820308
300.1063843
300.1395508
300.1835572
300.2409386
300.3147726
300.4087013
300.5269326
300.6742102
300.8557386
301.0770476
301.3437824
301.6614057
302.0348014
302.4677776
302.9624736
303.5186898
304.1331728
304.7989067
305.5044758
306.2335814
306.9648017
307.6716898
308.3232936
308.8851669
309.3209076
309.5942174
309.6714193
309.5242942
309.1329946
308.4886792
307.5953928
306.4706764
305.1444947
303.6563832
302.0511873
300.3742067
300.3723864
300.3658039
300.3538378
300.3370556
300.3162466
300.2923475
300.2663617
300.2392828
300.2120302
300.1854018
300.160045
300.1364454
300.1149298
300.0956801
300.0787543
300.0641105
300.0516318
300.0411493
300.0324629
300.0253579
300.0606806
300.0674269
300.0811853
300.102791
300.1336453
300.1757349
300.231668
300.3047392
300.3989567
300.5190797
300.6706318
300.859873
301.0937136
301.3795513
301.7250104
302.1375628
302.62402
303.1898852
303.8385739
304.5705218
305.3822228
306.2652592
307.2054101
308.1819436
309.1672096
310.1266576
311.0193933
311.7993686
312.4172676
312.8231083
312.9695213
312.8155857
312.3309701
311.4999392
310.3245429
308.826125
307.044347
305.033376
302.8556899
300.5747548
300.5722744
300.5620338
300.5432736
300.5169277
300.4842856
300.4468667
300.4062859
300.3641278
300.3218438
300.2806782
300.241626
300.205419
300.1725358
300.1432271
300.1175526
300.09542
300.0766259
300.0608919
300.0478963
300.0373002
300.074919
300.0833458
300.1005454
300.1275864
300.1662593
300.2191048
300.2894639
300.3815404
300.5004966
300.6524902
300.8446906
301.0852641
301.3832795
301.7485166
302.1911463
302.7212578
303.3482133
304.079818
304.9213079
305.8741813
306.9349229
308.0936998
309.333139
310.6273183
311.9411237
313.230127
314.4411321
315.513512
316.3814279
316.976984
317.2343349
317.0946979
316.512091
315.4593348
313.9333982
311.9586699
309.586595
306.8907627
303.9579332
300.8769576
300.8736007
300.8577313
300.8284658
300.7873326
300.7364272
300.6782006
300.6152354
300.5500416
300.4848924
300.4217114
300.362012
300.3068844
300.2570173
300.2127458
300.1741124
300.1409326
300.1128587
300.0894368
300.0701555
300.0544841
300.0916333
300.1020426
300.123307
300.1567794
300.2047224
300.2703493
300.357894
300.4726974
300.6212961
300.8115407
301.0526561
301.3551731
301.7308513
302.1924648
302.7534149
303.4271479
304.226349
305.1618919
306.241546
307.4684656
308.8395249
310.3435955
311.9599018
313.6566234
315.3899311
317.1036518
318.7297367
320.1896806
321.3970015
322.2608709
322.6909897
322.6038284
321.9302882
320.6245065
318.672716
316.0998761
312.9710509
309.3853884
305.4631292
301.3287563
301.3242422
301.2997541
301.2543406
301.1904903
301.1115914
301.0215742
300.9245422
300.824441
300.7248009
300.6285671
300.5380167
300.4547509
300.379743
300.3134218
300.2557747
300.2064532
300.1648735
300.130305
300.1019424
300.0789634
300.1109719
300.1236844
300.1496782
300.1906473
300.2494186
300.33001
300.4377265
300.5792786
300.7629056
300.9984844
301.2976364
301.6738569
302.1422066
302.719169
303.4221829
304.2689364
305.2763738
306.4593884
307.8291925
309.391395
311.1438617
313.0744778
315.1589805
317.3590711
319.6210378
321.8751216
324.035827
326.0033297
327.6660799
328.9046912
329.5972911
329.6267193
328.8901778
327.3117412
324.8568573
321.5453206
317.4567457
312.7236891
307.5127223
301.9986363
301.9926024
301.9549843
301.8848991
301.7863819
301.6648832
301.526669
301.3782131
301.2256678
301.0744642
300.9290637
300.7928502
300.668141
300.5562806
300.4577865
300.3725181
300.2998454
300.2388057
300.1882364
300.1468842
300.1134877
300.1330187
300.1483644
300.1797746
300.2293461
300.30057
300.3984123
300.5294425
300.7019944
300.9263355
301.2148213
301.5820035
302.0446547
302.6219825
303.335004
304.2061287
305.2583218
306.5139006
307.9929308
309.7112043
311.6778285
313.8925176
316.3427348
319.0008901
321.8218533
324.7410646
327.6735185
330.5138414
333.1375921
335.4038078
337.1587801
338.2412154
338.4894738
337.7524941
335.9066018
332.8788753
328.6721783
323.3796253
317.1773795
310.2965304
302.9833274
302.9753061
302.9177855
302.8102318
302.6591663
302.4733189
302.2626202
302.0372077
301.8065875
301.5790288
301.3612092
301.1580884
300.9729623
300.8076394
300.662689
300.5377129
300.4316119
300.3428238
300.2695237
300.2097828
300.1616875
300.157774
300.1760803
300.2135918
300.272874
300.3581872
300.4755957
300.6331387
300.8410427
301.1119503
301.4611342
301.9066585
302.4694352
303.1731177
304.0442166
305.1112984
306.4037929
307.9506869
309.7785863
311.9092521
314.3566184
317.1234147
320.1975722
323.5486668
327.1247152
330.8496738
334.6219708
338.3143136
341.7748459
344.8295052
347.2852431
348.9338885
349.5573706
348.9373297
346.875212
343.2289311
337.9614966
331.1750926
323.1034748
314.0683637
304.417906
304.4072955
304.3197434
304.1556061
303.9254062
303.6430776
303.3242674
302.9847231
302.6389873
302.2995019
301.9761273
301.6760182
301.4037694
301.1617348
300.9504375
300.769003
300.6155686
300.4876425
300.3823983
300.2969038
300.2282884
300.1851391
300.2067158
300.2509816
300.3210384
300.4220225
300.5612495
300.7484369
300.9959812
301.3192603
301.7369251
302.2711325
302.9476601
303.79583
304.8481584
306.1400983
307.709325
309.5929749
311.8257741
314.4371158
317.4474109
320.863936
324.6763812
328.8524049
333.3335832
338.0321917
342.829234
347.5740104
352.0852593
356.1534647
359.5433394
361.9950913
363.2239737
362.9220129
360.775045
356.5167302
350.0258155
341.4054084
330.9685042
319.165319
306.4889416
306.4749691
306.3422592
306.0930738
305.7444119
305.3184644
304.8397487
304.332516
303.8187632
303.3169586
302.8414352
302.4023258
302.0058856
301.655048
301.3500885
301.0892985
300.8696045
300.6870982
300.5374632
300.4162983
300.3193492
300.2149032
300.2400258
300.2916331
300.3734305
300.4915343
300.6546601
300.8744081
301.1656185
301.5467642
302.0403386
302.6731842
303.476688
304.4867586
305.7434762
307.2903001
309.1730624
311.439795
314.1351001
317.2979565
320.9572573
325.1267772
329.7997341
334.9433022
340.4935574
346.3514041
352.3800342
358.4043562
364.2125095
369.5588884
374.166794
377.7268081
379.8858756
380.2274357
378.2637592
373.5008513
365.6428449
354.7900455
341.3747983
326.0300579
309.4516035
309.4332819
309.2327684
308.8561475
308.3310162
307.6927061
306.979429
306.2281732
305.4717781
304.7372237
304.0449616
303.4090316
302.8377053
302.3344223
301.8988378
301.5278459
301.2164974
300.9587667
300.7481568
300.5781492
300.4425171
300.2467371
300.2756294
300.3350631
300.4294109
300.5658652
300.7546788
301.0095242
301.3479417
301.7918401
302.368003
303.1085366
304.0511759
305.2393424
306.721828
308.5519602
310.7861043
313.4813744
316.6962717
320.4816458
324.877249
329.9057764
335.5663022
341.8275707
348.6217208
355.839127
363.3251133
370.8792809
378.2579831
385.1797721
391.3316512
396.3688696
399.8912442
401.3803155
400.1063199
395.1385015
385.7971809
372.2325157
355.0824214
335.2338062
313.652206
313.6282878
313.3257699
312.7582812
311.9710958
311.0205835
309.9659819
308.8630738
307.7601184
306.6957795
305.6985927
304.7875004
303.9730448
303.2588916
302.6434353
302.1213161
301.6847455
301.3245931
301.0312263
300.795123
300.6072878
300.2801947
300.3130106
300.3806169
300.4881103
300.6438416
300.8597181
301.1516473
301.5400933
302.0507037
302.7149572
303.5707587
304.6628866
306.0431693
307.7702383
309.9086832
312.527418
315.6970737
319.486276
323.962364
329.1794248
335.1720104
341.948033
349.4806162
357.7002871
366.4883219
375.6722333
385.0246198
394.2668525
403.0791228
411.1170079
418.0289799
423.4411832
426.8216554
427.1860511
422.7102354
411.7337122
394.8255666
373.0118454
347.4962758
319.5588519
319.5277911
319.0706519
318.216226
317.0401258
315.6326905
314.0851779
312.4805284
310.8882671
309.3624878
307.941916
306.6512702
305.503345
304.5013944
303.6415156
302.9148308
302.3093534
301.8114891
301.4071771
301.0827055
300.8252528
300.3147228
300.3515309
300.4274838
300.5484489
300.7239982
300.9677811
301.2980645
301.7384106
302.3184489
303.074688
304.0512871
305.3006807
306.8839148
308.8705188
311.3377041
314.368658
318.0497063
322.4661549
327.6967167
333.8142228
340.8704618
348.8859231
357.8418625
367.6705503
378.2464513
389.3794781
400.811989
412.2222694
423.2391586
433.4754317
442.586545
450.359358
456.6728588
460.5160503
458.2097392
445.0014209
423.7836806
396.1971529
363.7017841
327.8053437
327.7652778
327.0698448
325.7798141
324.0248829
321.9506821
319.6964885
317.3832254
315.108452
312.945539
310.9452105
309.1383615
307.5394748
306.150189
304.9627055
303.9628254
303.1324982
302.4518423
301.9006579
301.4594892
301.1103123
300.3496818
300.3904522
300.4747264
300.6091748
300.8046282
301.0765282
301.4455744
301.9385355
302.5891842
303.4392951
304.5396217
305.9507361
307.7435723
309.9994744
312.809506
316.2727511
320.4933261
325.5758567
331.619254
338.7087762
346.9175696
356.2866979
366.8104998
378.4278389
391.0102357
404.3513083
418.1591358
432.0548787
445.584828
458.2619588
469.6742536
479.7211953
489.117832
498.1174853
497.5981847
486.0404981
460.1685216
425.6367094
384.9373495
339.2588302
339.2075776
338.1335122
336.1700959
333.5477049
330.5019707
327.241884
323.9386199
320.7241257
317.693862
314.9112345
312.4126715
310.2128501
308.3097594
306.6893566
305.3296348
304.203992
303.2838753
302.5407356
301.9473804
301.4788284
300.3843747
300.4289711
300.5213242
300.6689224
300.8838619
301.1833816
301.5906246
302.1355945
302.8562665
303.7997907
305.0237035
306.5970182
308.6010263
311.1295846
314.2886178
318.1945218
322.9711394
328.7449998
335.6385908
343.7615677
353.2000131
364.020711
376.2423437
389.8173408
404.6209862
420.4353923
436.9336465
453.6661794
470.0543814
485.4048412
498.9811634
510.2448755
518.9936812
523.286552
521.5377909
515.697283
500.6572124
461.9684716
412.6985489
355.1325189
355.0674371
353.360456
350.3265892
346.3903764
341.9304182
337.2500218
332.5802821
328.0902543
323.8971286
320.0752327
316.6640585
313.6755884
311.1010108
308.916751
307.0896878
305.5814532
304.3517883
303.3610082
302.5716854
301.9496886
300.4180856
300.4662636
300.5662304
300.7262875
300.9597682
301.2856621
301.7294962
302.3244448
303.1126261
304.1465272
305.490471
307.2219952
309.4329593
312.2301393
315.7350121
320.082378
325.4174424
331.8909945
339.6523802
348.840099
359.5700307
371.9215121
385.9481447
401.6306813
418.8590239
437.415384
456.9477668
476.9387979
496.6676617
515.1612763
531.1233167
542.8009747
547.1337415
545.0873504
542.7658881
537.3267883
527.0427166
504.1826426
449.8725324
377.1852045
377.1020504
374.2538968
369.456563
363.5082315
356.9959018
350.3313668
343.8026406
337.6089825
331.8825387
326.7026801
322.1068096
318.0994882
314.6605965
311.7526584
309.3272149
307.3301092
305.7056232
304.3995089
303.3610404
302.5442537
300.4501236
300.5015361
300.6084379
300.7799156
301.0304736
301.3807506
301.858522
302.4999684
303.3511635
304.4697269
305.9265632
307.8075623
310.2150561
313.2687853
317.1060635
321.8807466
327.7605893
334.9225773
343.5458709
353.8021193
365.843066
379.7855629
395.6944178
413.6042214
433.4371268
454.9960804
477.9298573
501.6867224
525.4494954
548.0371352
567.7345199
581.9356524
586.2640716
577.4380255
570.5238007
560.895327
548.3374455
529.7635578
493.8409853
408.1488973
407.9691262
402.8488881
395.0504785
386.010359
376.5500142
367.1582813
358.1465383
349.7196146
342.0079648
335.0845833
328.9763904
323.6737527
319.1393025
315.3161746
312.1354013
309.5221733
307.4007999
305.698358
304.3471498
303.2861597
300.4798703
300.5340816
300.6470504
300.8285958
301.0942886
301.4662618
301.9743231
302.6573949
303.5651879
304.7600796
306.3191249
308.3361176
310.9234273
314.2133914
318.358962
323.5331555
329.9268629
337.7445868
347.1976734
358.4947436
371.8291925
387.3637587
405.2122281
425.4223529
447.9972549
472.7871613
499.4802149
527.5485388
556.1730442
584.1373596
609.6705108
630.2292899
642.3566545
641.9773813
626.9523389
604.9013281
577.4454837
548.2313644
516.9956162
458.1646025
451.8229945
441.6668747
428.7536088
415.0594616
401.4713783
388.4252174
376.1747114
364.8831592
354.6518828
345.5306821
337.5246976
330.6015767
324.6995361
319.7358418
315.6149644
312.2357604
309.4972884
307.3031312
305.5643044
304.2009531
300.506825
300.5633348
300.681354
300.8713522
301.1498282
301.5402148
302.0740438
302.7926221
303.7488605
305.0093604
306.6566498
308.7917032
311.5361491
315.0340985
319.4534117
324.9857472
331.8449911
340.2636854
350.486893
362.7631817
377.3325806
394.4113504
414.1733351
436.7270841
462.1177978
490.30254
521.0505632
553.9207386
588.1857804
622.7332477
655.9221897
685.4825492
708.504935
721.6001341
721.5549984
704.6979092
658.7012928
589.9463383
546.1840135
541.1876414
512.4905847
492.7366123
471.8961588
451.6491611
432.5570753
414.7929255
398.4411291
383.564186
370.2018167
358.3615819
348.0144023
339.095916
331.5120799
325.1471226
319.8721763
315.5533382
312.0583993
309.2619208
307.0486593
305.3155396
300.530645
300.5889268
300.7108816
300.9075214
301.1961038
301.6011889
302.1555656
302.9025081
303.8975952
305.2110247
306.929794
309.1611122
312.0347923
315.7053829
320.3543846
326.1909373
333.4509375
342.394556
353.3010643
366.4607903
382.164216
400.6878043
422.2763455
447.1214402
475.3357975
506.9883789
541.9785275
580.0069478
620.5080169
662.5540857
704.7131114
744.9762146
780.6071374
808.0853001
823.0184659
819.7575749
790.9470388
734.7203622
667.5595893
629.3458261
587.56614
555.8141505
524.8669404
496.3600288
470.4189461
446.8398183
425.4654264
406.215645
389.0442317
373.9013812
360.713232
349.3748962
339.7523509
331.6893439
325.0163798
319.5597262
315.1491902
311.6240817
308.8372585
306.657435
300.5510561
300.6105717
300.7353651
300.9368641
301.2328434
301.6484771
302.2176903
302.9851087
304.0083417
305.3607651
307.132092
309.434832
312.4058225
316.2079526
321.0346626
327.1108856
334.6925158
344.0659671
355.5440837
369.4592957
386.1548216
405.9723486
429.2363707
456.2353317
487.1985878
522.2763671
561.564414
604.9435171
652.0587844
702.2149852
754.2354275
806.3026448
855.7558544
898.8243152
930.2339411
943.1156181
927.8015054
861.0252106
857.8869299
737.2290089
674.9570859
629.5868107
587.312022
549.3834815
515.4803857
485.0556293
457.7266919
433.2729819
411.5589122
392.4723321
375.8889929
361.6572848
349.5963845
339.5022227
331.1570503
324.3396641
318.8344915
314.4386572
310.9668009
308.2538131
300.56762
300.6278237
300.7543026
300.9587866
301.2593993
301.6817529
302.2604166
303.0408285
304.0815995
305.4571688
307.2605185
309.6075938
312.6418362
316.5303055
321.4768306
327.7204915
335.533373
345.2260349
357.1433084
371.6580716
389.1668671
410.0797287
434.8070012
463.7446151
497.2535773
535.6308581
579.1482187
627.9202729
681.8495078
740.5129202
802.9934491
867.6518133
931.8411145
991.4884535
1040.523336
1071.65135
1079.456808
1058.52197
972.5040018
852.7435783
771.1115245
712.1942829
658.6164872
610.7677469
568.0847016
529.8869562
495.6816704
465.1600597
438.1190888
414.3921901
393.8056837
376.1582132
361.2166426
348.722021
338.4004261
329.9749569
323.1765549
317.7524871
313.4721493
310.130351
300.5800313
300.6403534
300.7673354
300.972892
301.2753113
301.7003859
302.2829234