/*--------------------------------*- C++ -*----------------------------------*\
  =========                 |
  \\      /  F ield         | OpenFOAM: The Open Source CFD Toolbox
   \\    /   O peration     | Website:  https://openfoam.org
    \\  /    A nd           | Version:  10
     \\/     M anipulation  |
\*---------------------------------------------------------------------------*/
FoamFile
{
    format      ascii;
    class       volScalarField;
    location    "0.0005";
    object      pVap;
}
// * * * * * * * * * * * * * * * * * * * * * * * * * * * * * * * * * * * * * //

dimensions      [1 -1 -2 0 0 0 0];

internalField   nonuniform List<scalar> 
16000
(
2.833233807e-63
3.03236469e-63
3.48070444e-63
4.288642146e-63
5.681323206e-63
8.113258901e-63
1.253604404e-62
2.105368931e-62
3.861983947e-62
7.76939853e-62
1.717105383e-61
4.156677616e-61
1.090608994e-60
3.036586204e-60
8.670371236e-60
2.419988476e-59
6.220268764e-59
1.377152122e-58
2.45571651e-58
3.333210662e-58
3.333206306e-58
2.455706932e-58
1.377144403e-58
6.220236828e-59
2.419979223e-59
8.670345213e-60
3.036577168e-60
1.090605464e-60
4.156663538e-61
1.717099519e-61
7.769371759e-62
3.861970265e-62
2.105361159e-62
1.253599581e-62
8.113226672e-63
5.681300205e-63
4.288624659e-63
3.480690262e-63
3.032352393e-63
2.833222358e-63
1.710789341e-63
1.774353714e-63
1.912243396e-63
2.142371444e-63
2.497103547e-63
3.031792245e-63
3.840669869e-63
5.086483483e-63
7.056391327e-63
1.026835565e-62
1.567320373e-62
2.502909895e-62
4.155124557e-62
7.087973571e-62
1.220285465e-61
2.068889288e-61
3.35156864e-61
5.017790455e-61
6.719442873e-61
7.835404365e-61
7.835401635e-61
6.719436062e-61
5.017782986e-61
3.351563284e-61
2.068886107e-61
1.220283641e-61
7.087962826e-62
4.155118123e-62
2.502905976e-62
1.56731788e-62
1.026833872e-62
7.05637906e-63
5.08647411e-63
3.840662422e-63
3.031786145e-63
2.497098413e-63
2.142367002e-63
1.912239434e-63
1.774350053e-63
1.710785824e-63
1.288792293e-63
1.313175095e-63
1.365762334e-63
1.450184487e-63
1.57258331e-63
1.742484693e-63
1.974159912e-63
2.288661078e-63
2.716760983e-63
3.302995416e-63
4.110731844e-63
5.227311908e-63
6.766211291e-63
8.859160427e-63
1.162576667e-62
1.510594809e-62
1.91530282e-62
2.332596782e-62
2.687798187e-62
2.895012991e-62
2.895012685e-62
2.687797368e-62
2.332595711e-62
1.915301775e-62
1.510593919e-62
1.162575951e-62
8.859154783e-63
6.766206859e-63
5.22730837e-63
4.110728919e-63
3.302992898e-63
2.716758744e-63
2.288659049e-63
1.974158054e-63
1.742482984e-63
1.572581729e-63
1.450183016e-63
1.365760948e-63
1.313173768e-63
1.288790995e-63
1.103924226e-63
1.113936219e-63
1.136198268e-63
1.171524291e-63
1.221254266e-63
1.287358818e-63
1.37256911e-63
1.4805162e-63
1.615847889e-63
1.784260476e-63
1.992329993e-63
2.246947416e-63
2.554068205e-63
2.916438551e-63
3.330102646e-63
3.780042384e-63
4.236372627e-63
4.653772114e-63
4.977184754e-63
5.154829661e-63
5.154829484e-63
4.977184261e-63
4.653771407e-63
4.236371824e-63
3.780041572e-63
3.330101871e-63
2.916437828e-63
2.554067533e-63
2.24694678e-63
1.992329376e-63
1.784259865e-63
1.615847278e-63
1.48051559e-63
1.372568505e-63
1.287358224e-63
1.221253687e-63
1.17152373e-63
1.136197723e-63
1.113935687e-63
1.103923701e-63
1.016507982e-63
1.020433804e-63
1.030089573e-63
1.045655614e-63
1.067431583e-63
1.095848869e-63
1.131477155e-63
1.175016021e-63
1.227259435e-63
1.289017343e-63
1.360974937e-63
1.443468536e-63
1.536162502e-63
1.637633085e-63
1.744912739e-63
1.85312429e-63
1.95541503e-63
2.043427841e-63
2.108445996e-63
2.14308918e-63
2.143089156e-63
2.108445928e-63
2.043427739e-63
1.955414905e-63
1.85312415e-63
1.744912593e-63
1.637632933e-63
1.536162345e-63
1.443468369e-63
1.360974758e-63
1.28901715e-63
1.227259229e-63
1.175015803e-63
1.131476929e-63
1.09584864e-63
1.067431353e-63
1.045655386e-63
1.030089348e-63
1.020433582e-63
1.016507761e-63
9.738430557e-64
9.749834242e-64
9.789306474e-64
9.857142324e-64
9.953888764e-64
1.0080356e-63
1.023758594e-63
1.042674324e-63
1.064889231e-63
1.090462619e-63
1.11935228e-63
1.15134253e-63
1.185958533e-63
1.222377743e-63
1.259359275e-63
1.295222359e-63
1.327909944e-63
1.355164338e-63
1.374813361e-63
1.385122036e-63
1.385122031e-63
1.374813347e-63
1.355164316e-63
1.327909916e-63
1.295222326e-63
1.259359238e-63
1.222377702e-63
1.185958486e-63
1.151342478e-63
1.119352219e-63
1.09046255e-63
1.064889154e-63
1.04267424e-63
1.023758505e-63
1.008035507e-63
9.953887819e-64
9.857141375e-64
9.789305531e-64
9.749833305e-64
9.738429624e-64
9.528899627e-64
9.527113398e-64
9.539712096e-64
9.566631921e-64
9.607829279e-64
9.663285003e-64
9.732988449e-64
9.816887674e-64
9.914793564e-64
1.002623041e-63
1.015023333e-63
1.028510481e-63
1.042815889e-63
1.05755019e-63
1.072191983e-63
1.086095541e-63
1.098524938e-63
1.108717626e-63
1.115972516e-63
1.119748018e-63
1.119748016e-63
1.115972513e-63
1.10871762e-63
1.098524931e-63
1.086095532e-63
1.072191973e-63
1.057550178e-63
1.042815874e-63
1.028510463e-63
1.015023311e-63
1.002623015e-63
9.914793266e-64
9.816887341e-64
9.732988089e-64
9.663284625e-64
9.607828891e-64
9.566631528e-64
9.539711703e-64
9.527113007e-64
9.528899238e-64
9.426802382e-64
9.418722196e-64
9.418538231e-64
9.426107069e-64
9.441247882e-64
9.46375133e-64
9.493380175e-64
9.529855091e-64
9.572820654e-64
9.621789483e-64
9.676066884e-64
9.734663851e-64
9.796212566e-64
9.858904791e-64
9.920478139e-64
9.978275486e-64
1.002939527e-63
1.007093322e-63
1.010029101e-63
1.011550116e-63
1.011550116e-63
1.0100291e-63
1.007093321e-63
1.002939525e-63
9.978275463e-64
9.92047811e-64
9.858904752e-64
9.796212516e-64
9.734663786e-64
9.676066803e-64
9.621789384e-64
9.572820538e-64
9.52985496e-64
9.493380031e-64
9.463751178e-64
9.441247725e-64
9.426106909e-64
9.41853807e-64
9.418722036e-64
9.426802222e-64
9.377814342e-64
9.366752446e-64
9.360523399e-64
9.358970105e-64
9.361884569e-64
9.369020787e-64
9.380104748e-64
9.394837658e-64
9.412889477e-64
9.43388178e-64
9.457361305e-64
9.48276827e-64
9.509406162e-64
9.536421784e-64
9.562805318e-64
9.58741906e-64
9.60905972e-64
9.626552367e-64
9.638865472e-64
9.645228418e-64
9.645228417e-64
9.638865471e-64
9.626552364e-64
9.609059716e-64
9.587419055e-64
9.56280531e-64
9.536421773e-64
9.509406145e-64
9.482768248e-64
9.457361275e-64
9.433881743e-64
9.412889433e-64
9.394837607e-64
9.380104692e-64
9.369020726e-64
9.361884507e-64
9.358970041e-64
9.360523335e-64
9.366752382e-64
9.377814278e-64
9.354759423e-64
9.342306218e-64
9.333259275e-64
9.327461677e-64
9.324703146e-64
9.324735296e-64
9.327286364e-64
9.332072479e-64
9.338803229e-64
9.347180607e-64
9.356891883e-64
9.367598488e-64
9.378924259e-64
9.390447215e-64
9.401699125e-64
9.412176384e-64
9.421363823e-64
9.428770367e-64
9.433972206e-64
9.436656379e-64
9.436656379e-64
9.433972206e-64
9.428770367e-64
9.421363822e-64
9.412176383e-64
9.401699124e-64
9.390447212e-64
9.378924254e-64
9.36759848e-64
9.356891873e-64
9.347180594e-64
9.338803212e-64
9.332072459e-64
9.327286342e-64
9.324735273e-64
9.324703122e-64
9.327461652e-64
9.33325925e-64
9.342306193e-64
9.354759398e-64
9.34413966e-64
9.331049558e-64
9.320713477e-64
9.312976497e-64
9.307630363e-64
9.304429974e-64
9.303110384e-64
9.303401683e-64
9.305039759e-64
9.307771915e-64
9.311357475e-64
9.315564496e-64
9.320164531e-64
9.324927723e-64
9.329620521e-64
9.334007759e-64
9.337859942e-64
9.340965349e-64
9.343145256e-64
9.344269548e-64
9.344269548e-64
9.343145256e-64
9.340965349e-64
9.337859942e-64
9.334007759e-64
9.329620521e-64
9.324927722e-64
9.320164529e-64
9.315564494e-64
9.311357471e-64
9.307771911e-64
9.305039753e-64
9.303401676e-64
9.303110376e-64
9.304429966e-64
9.307630354e-64
9.312976487e-64
9.320713468e-64
9.331049548e-64
9.344139651e-64
9.339360034e-64
9.325984499e-64
9.315070935e-64
9.30646593e-64
9.299963129e-64
9.29532032e-64
9.292277486e-64
9.290573276e-64
9.289957965e-64
9.29020183e-64
9.291098832e-64
9.292466336e-64
9.294142184e-64
9.295980701e-64
9.297849131e-64
9.299625687e-64
9.301199839e-64
9.302474852e-64
9.303371957e-64
9.303835112e-64
9.303835112e-64
9.303371957e-64
9.302474852e-64
9.301199839e-64
9.299625687e-64
9.297849131e-64
9.295980701e-64
9.294142184e-64
9.292466335e-64
9.291098831e-64
9.290201828e-64
9.289957962e-64
9.290573273e-64
9.292277484e-64
9.295320317e-64
9.299963125e-64
9.306465927e-64
9.315070931e-64
9.325984495e-64
9.33936003e-64
9.337267157e-64
9.323766728e-64
9.312600587e-64
9.303616206e-64
9.296608415e-64
9.291336773e-64
9.287544073e-64
9.284973501e-64
9.283382508e-64
9.282552303e-64
9.282292751e-64
9.28244323e-64
9.28287053e-64
9.283465071e-64
9.284136659e-64
9.284810764e-64
9.285425904e-64
9.285932325e-64
9.28629181e-64
9.286478214e-64
9.286478214e-64
9.28629181e-64
9.285932325e-64
9.285425904e-64
9.284810764e-64
9.284136659e-64
9.283465071e-64
9.28287053e-64
9.282443229e-64
9.282292751e-64
9.282552303e-64
9.283382507e-64
9.2849735e-64
9.287544072e-64
9.291336772e-64
9.296608414e-64
9.303616205e-64
9.312600586e-64
9.323766727e-64
9.337267155e-64
9.33639363e-64
9.322840613e-64
9.311568179e-64
9.302424272e-64
9.295204371e-64
9.289668978e-64
9.285562318e-64
9.282629771e-64
9.28063211e-64
9.279355432e-64
9.278616518e-64
9.278264123e-64
9.27817715e-64
9.278260906e-64
9.278442544e-64
9.278666602e-64
9.278891216e-64
9.279085291e-64
9.279226626e-64
9.27930084e-64
9.27930084e-64
9.279226626e-64
9.279085291e-64
9.278891216e-64
9.278666602e-64
9.278442544e-64
9.278260906e-64
9.27817715e-64
9.278264123e-64
9.278616518e-64
9.279355432e-64
9.28063211e-64
9.28262977e-64
9.285562318e-64
9.289668978e-64
9.295204371e-64
9.302424272e-64
9.311568178e-64
9.322840612e-64
9.33639363e-64
9.336087988e-64
9.322515725e-64
9.311204448e-64
9.302002329e-64
9.294705165e-64
9.289073901e-64
9.28485339e-64
9.28178992e-64
9.279645574e-64
9.278208307e-64
9.277297466e-64
9.276765218e-64
9.276494821e-64
9.276396875e-64
9.276404649e-64
9.276469353e-64
9.276555951e-64
9.27663981e-64
9.276704256e-64
9.276738955e-64
9.276738955e-64
9.276704256e-64
9.27663981e-64
9.276555951e-64
9.276469353e-64
9.276404649e-64
9.276396875e-64
9.276494821e-64
9.276765218e-64
9.277297466e-64
9.278208307e-64
9.279645574e-64
9.28178992e-64
9.28485339e-64
9.2890739e-64
9.294705164e-64
9.302002329e-64
9.311204447e-64
9.322515725e-64
9.336087988e-64
9.336121958e-64
9.322548677e-64
9.311235503e-64
9.302030758e-64
9.294730431e-64
9.289095683e-64
9.284871574e-64
9.281804572e-64
9.279656903e-64
9.278216616e-64
9.277303112e-64
9.276768571e-64
9.276496241e-64
9.276396694e-64
9.276403166e-64
9.276466833e-64
9.276552631e-64
9.276635906e-64
9.276699971e-64
9.276734481e-64
9.276734481e-64
9.276699971e-64
9.276635906e-64
9.276552631e-64
9.276466833e-64
9.276403166e-64
9.276396694e-64
9.276496241e-64
9.276768572e-64
9.277303112e-64
9.278216616e-64
9.279656903e-64
9.281804572e-64
9.284871574e-64
9.289095683e-64
9.294730431e-64
9.302030757e-64
9.311235503e-64
9.322548677e-64
9.336121958e-64
9.342770196e-64
9.329010443e-64
9.317349895e-64
9.307662754e-64
9.299778978e-64
9.293497544e-64
9.288600902e-64
9.284868838e-64
9.282090313e-64
9.280072332e-64
9.278645518e-64
9.277666557e-64
9.277018069e-64
9.276606639e-64
9.276359808e-64
9.276222663e-64
9.27615456e-64
9.276126277e-64
9.276117763e-64
9.276116508e-64
9.276116508e-64
9.276117763e-64
9.276126277e-64
9.27615456e-64
9.276222663e-64
9.276359808e-64
9.276606639e-64
9.277018069e-64
9.277666557e-64
9.278645518e-64
9.280072332e-64
9.282090313e-64
9.284868838e-64
9.288600902e-64
9.293497544e-64
9.299778978e-64
9.307662754e-64
9.317349895e-64
9.329010443e-64
9.342770196e-64
9.347671237e-64
9.333780982e-64
9.321877325e-64
9.31185186e-64
9.303557489e-64
9.29681894e-64
9.291444413e-64
9.287237002e-64
9.284004779e-64
9.281568752e-64
9.279768325e-64
9.278464288e-64
9.277539644e-64
9.276898787e-64
9.276465592e-64
9.276180937e-64
9.276000113e-64
9.275890413e-64
9.275829107e-64
9.275801901e-64
9.275801901e-64
9.275829107e-64
9.275890413e-64
9.276000113e-64
9.276180937e-64
9.276465592e-64
9.276898787e-64
9.277539644e-64
9.278464288e-64
9.279768325e-64
9.281568752e-64
9.284004779e-64
9.287237002e-64
9.291444413e-64
9.29681894e-64
9.303557489e-64
9.31185186e-64
9.321877325e-64
9.333780982e-64
9.347671237e-64
9.350900096e-64
9.336927027e-64
9.324869104e-64
9.314628634e-64
9.306072698e-64
9.299042035e-64
9.29336098e-64
9.288847395e-64
9.285321647e-64
9.282613948e-64
9.280569689e-64
9.279052694e-64
9.277946598e-64
9.277154693e-64
9.276598697e-64
9.276216871e-64
9.275961881e-64
9.275798704e-64
9.275702784e-64
9.275658583e-64
9.275658583e-64
9.275702784e-64
9.275798704e-64
9.275961881e-64
9.276216871e-64
9.276598697e-64
9.277154693e-64
9.277946598e-64
9.279052694e-64
9.280569689e-64
9.282613948e-64
9.285321647e-64
9.288847395e-64
9.29336098e-64
9.299042035e-64
9.306072698e-64
9.314628634e-64
9.324869104e-64
9.336927027e-64
9.350900096e-64
9.352503369e-64
9.338490097e-64
9.326357291e-64
9.31601236e-64
9.30732916e-64
9.300156101e-64
9.294325291e-64
9.289661751e-64
9.28599186e-64
9.283150389e-64
9.280985753e-64
9.279363377e-64
9.278167315e-64
9.277300415e-64
9.276683402e-64
9.276253286e-64
9.275961453e-64
9.275771727e-64
9.275658637e-64
9.275606011e-64
9.275606011e-64
9.275658637e-64
9.275771727e-64
9.275961453e-64
9.276253286e-64
9.276683402e-64
9.277300415e-64
9.278167315e-64
9.279363377e-64
9.280985753e-64
9.283150389e-64
9.28599186e-64
9.289661751e-64
9.294325291e-64
9.300156101e-64
9.30732916e-64
9.31601236e-64
9.326357291e-64
9.338490096e-64
9.352503369e-64
2.791749914e-63
2.985095933e-63
3.419763291e-63
4.200883921e-63
5.541834963e-63
7.870488728e-63
1.20750539e-62
2.009886048e-62
3.645920516e-62
7.234442655e-62
1.572288768e-61
3.730441095e-61
9.560358645e-61
2.591796599e-60
7.187840638e-60
1.946260959e-59
4.856104907e-59
1.04685723e-58
1.828962e-58
2.454933888e-58
2.454931722e-58
1.828956917e-58
1.046852731e-58
4.856084116e-59
1.946254031e-59
7.18781896e-60
2.591789058e-60
9.560330516e-61
3.730430266e-61
1.572284312e-61
7.234422127e-62
3.645909792e-62
2.009879799e-62
1.207501419e-62
7.87046166e-63
5.541815324e-63
4.200868789e-63
3.419750895e-63
2.985085104e-63
2.791739795e-63
1.697024726e-63
1.759153254e-63
1.893841059e-63
2.118275056e-63
2.463414643e-63
2.981978297e-63
3.763211922e-63
4.960183198e-63
6.840709345e-63
9.883034633e-63
1.49546797e-62
2.36374213e-62
3.877669412e-62
6.526816569e-62
1.107542597e-61
1.849983653e-61
2.954123225e-61
4.367007681e-61
5.792165271e-61
6.719163175e-61
6.719161488e-61
5.792160865e-61
4.367002492e-61
2.954119191e-61
1.849981086e-61
1.107541087e-61
6.526807819e-62
3.877664338e-62
2.363739111e-62
1.495466059e-62
9.883021497e-63
6.840699614e-63
4.960175586e-63
3.763205742e-63
2.981973141e-63
2.463410238e-63
2.118271198e-63
1.893837584e-63
1.759150022e-63
1.69702161e-63
1.283252442e-63
1.30716574e-63
1.358743873e-63
1.441480503e-63
1.56127506e-63
1.727251613e-63
1.953027379e-63
2.258592487e-63
2.672992815e-63
3.237959005e-63
4.012342784e-63
5.076383143e-63
6.53289275e-63
8.498914967e-63
1.107686979e-62
1.429294533e-62
1.800263161e-62
2.179941591e-62
2.501176933e-62
2.687833166e-62
2.687832954e-62
2.501176347e-62
2.179940789e-62
1.800262344e-62
1.42929382e-62
1.107686407e-62
8.498910564e-63
6.532889376e-63
5.076380482e-63
4.012340569e-63
3.237957059e-63
2.67299104e-63
2.258590838e-63
1.953025836e-63
1.727250167e-63
1.561273703e-63
1.441479225e-63
1.358742657e-63
1.307164568e-63
1.283251292e-63
1.101454628e-63
1.111283963e-63
1.133162264e-63
1.167871949e-63
1.216699966e-63
1.281535361e-63
1.364988903e-63
1.470518383e-63
1.60252751e-63
1.766377243e-63
1.968199125e-63
2.214327381e-63
2.510084207e-63
2.857618817e-63
3.252647778e-63
3.680462771e-63
4.112554649e-63
4.506313219e-63
4.810495525e-63
4.97725132e-63
4.977251196e-63
4.810495172e-63
4.5063127e-63
4.11255405e-63
3.680462163e-63
3.252647205e-63
2.857618294e-63
2.510083726e-63
2.214326923e-63
1.96819867e-63
1.766376778e-63
1.60252703e-63
1.47051789e-63
1.364988403e-63
1.28153486e-63
1.21669947e-63
1.167871463e-63
1.133161787e-63
1.111283494e-63
1.101454163e-63
1.015353682e-63
1.019200961e-63
1.02869395e-63
1.04400467e-63
1.065419152e-63
1.093348719e-63
1.128335255e-63
1.171041539e-63
1.222214915e-63
1.282609256e-63
1.352846984e-63
1.433201906e-63
1.523289513e-63
1.621672515e-63
1.725434764e-63
1.829847413e-63
1.928324789e-63
2.012888701e-63
2.075261157e-63
2.10846103e-63
2.108461014e-63
2.075261113e-63
2.012888633e-63
1.928324706e-63
1.829847322e-63
1.725434669e-63
1.621672417e-63
1.523289409e-63
1.433201793e-63
1.352846857e-63
1.282609112e-63
1.222214755e-63
1.171041364e-63
1.128335069e-63
1.093348526e-63
1.065418955e-63
1.044004473e-63
1.028693753e-63
1.019200766e-63
1.015353488e-63
9.732952203e-64
9.744000969e-64
9.782743447e-64
9.84945056e-64
9.944629975e-64
1.006903547e-63
1.022363399e-63
1.040949688e-63
1.06275802e-63
1.087836185e-63
1.11613133e-63
1.147420491e-63
1.181228487e-63
1.216743877e-63
1.252753068e-63
1.287622294e-63
1.319361436e-63
1.345794506e-63
1.364834313e-63
1.37481766e-63
1.374817658e-63
1.364834306e-63
1.345794494e-63
1.319361422e-63
1.287622278e-63
1.252753049e-63
1.216743855e-63
1.18122846e-63
1.147420458e-63
1.116131289e-63
1.087836135e-63
1.062757961e-63
1.040949622e-63
1.022363327e-63
1.00690347e-63
9.944629172e-64
9.849449743e-64
9.782742626e-64
9.744000148e-64
9.732951383e-64
9.526307536e-64
9.524358057e-64
9.536622649e-64
9.563029926e-64
9.603523946e-64
9.658068075e-64
9.726629174e-64
9.809128681e-64
9.905348987e-64
1.001478803e-63
1.013646294e-63
1.026867506e-63
1.040876458e-63
1.055290236e-63
1.069598641e-63
1.083172249e-63
1.095295909e-63
1.10523042e-63
1.112297495e-63
1.115973929e-63
1.115973928e-63
1.112297494e-63
1.105230419e-63
1.095295906e-63
1.083172247e-63
1.069598637e-63
1.055290231e-63
1.040876451e-63
1.026867495e-63
1.013646279e-63
1.001478785e-63
9.905348764e-64
9.809128422e-64
9.726628884e-64
9.658067762e-64
9.603523617e-64
9.563029589e-64
9.536622308e-64
9.524357715e-64
9.526307194e-64
9.425592722e-64
9.417437517e-64
9.417100449e-64
9.424435581e-64
9.439257964e-64
9.461352496e-64
9.490474704e-64
9.526337104e-64
9.568576259e-64
9.616698651e-64
9.670007761e-64
9.727520113e-64
9.787884141e-64
9.849321679e-64
9.909616223e-64
9.966172112e-64
1.001616144e-63
1.005675885e-63
1.008544017e-63
1.010029606e-63
1.010029606e-63
1.008544017e-63
1.005675886e-63
1.001616145e-63
9.966172113e-64
9.909616221e-64
9.84932167e-64
9.787884122e-64
9.727520081e-64
9.670007712e-64
9.616698584e-64
9.568576174e-64
9.526337004e-64
9.49047459e-64
9.461352371e-64
9.439257832e-64
9.424435444e-64
9.41710031e-64
9.417437378e-64
9.425592582e-64
9.377261646e-64
9.366165658e-64
9.359867163e-64
9.358208199e-64
9.360979351e-64
9.367932641e-64
9.378791655e-64
9.39325501e-64
9.410990384e-64
9.431618088e-64
9.454685581e-64
9.479636913e-64
9.505783679e-64
9.532286023e-64
9.558153135e-64
9.58227159e-64
9.603466135e-64
9.620590995e-64
9.632641414e-64
9.638867395e-64
9.638867396e-64
9.632641417e-64
9.620590998e-64
9.603466139e-64
9.582271595e-64
9.558153139e-64
9.532286024e-64
9.505783676e-64
9.479636904e-64
9.454685565e-64
9.431618065e-64
9.410990352e-64
9.393254972e-64
9.378791611e-64
9.367932592e-64
9.360979298e-64
9.358208145e-64
9.359867108e-64
9.366165603e-64
9.377261591e-64
9.354514148e-64
9.342045701e-64
9.332967753e-64
9.327123086e-64
9.324300928e-64
9.324252211e-64
9.326704367e-64
9.331372708e-64
9.337966203e-64
9.346186716e-64
9.355722257e-64
9.366236298e-64
9.377356436e-64
9.388666467e-64
9.399706055e-64
9.409981365e-64
9.418988239e-64
9.426246832e-64
9.431343486e-64
9.433972973e-64
9.433972974e-64
9.431343487e-64
9.426246834e-64
9.418988242e-64
9.409981368e-64
9.399706058e-64
9.388666468e-64
9.377356436e-64
9.366236296e-64
9.355722252e-64
9.346186708e-64
9.337966192e-64
9.331372694e-64
9.32670435e-64
9.324252192e-64
9.324300908e-64
9.327123065e-64
9.332967732e-64
9.342045679e-64
9.354514127e-64
9.344035491e-64
9.330938699e-64
9.32058903e-64
9.312831458e-64
9.30745756e-64
9.304222001e-64
9.30285957e-64
9.303100112e-64
9.304679367e-64
9.30734472e-64
9.310855944e-64
9.314982083e-64
9.31949636e-64
9.324171378e-64
9.328776841e-64
9.333081523e-64
9.336860294e-64
9.339905817e-64
9.342043293e-64
9.343145571e-64
9.343145571e-64
9.342043294e-64
9.339905818e-64
9.336860295e-64
9.333081525e-64
9.328776842e-64
9.324171379e-64
9.319496361e-64
9.314982083e-64
9.310855943e-64
9.307344717e-64
9.304679363e-64
9.303100107e-64
9.302859564e-64
9.304221994e-64
9.307457552e-64
9.31283145e-64
9.320589022e-64
9.330938691e-64
9.344035483e-64
9.33931926e-64
9.325940841e-64
9.31502143e-64
9.306407582e-64
9.299892883e-64
9.295235046e-64
9.292173968e-64
9.29044823e-64
9.289808089e-64
9.290023901e-64
9.29088986e-64
9.292223781e-64
9.293864231e-64
9.29566656e-64
9.29749934e-64
9.299242365e-64
9.30078683e-64
9.302037713e-64
9.302917766e-64
9.303372088e-64
9.303372089e-64
9.302917766e-64
9.302037714e-64
9.300786831e-64
9.299242366e-64
9.297499341e-64
9.29566656e-64
9.293864232e-64
9.292223782e-64
9.290889859e-64
9.2900239e-64
9.289808088e-64
9.290448228e-64
9.292173966e-64
9.295235043e-64
9.299892881e-64
9.30640758e-64
9.315021427e-64
9.325940838e-64
9.339319257e-64
9.337254173e-64
9.323752515e-64
9.31258389e-64
9.30359576e-64
9.296582936e-64
9.291304953e-64
9.28750458e-64
9.284924985e-64
9.28332363e-64
9.282481771e-64
9.282209384e-64
9.282346048e-64
9.282758862e-64
9.283338665e-64
9.283995803e-64
9.284656375e-64
9.285259577e-64
9.285756324e-64
9.286108988e-64
9.286291865e-64
9.286291865e-64
9.286108989e-64
9.285756325e-64
9.285259578e-64
9.284656375e-64
9.283995803e-64
9.283338666e-64
9.282758862e-64
9.282346049e-64
9.282209384e-64
9.28248177e-64
9.283323629e-64
9.284924985e-64
9.287504579e-64
9.291304952e-64
9.296582935e-64
9.303595759e-64
9.312583888e-64
9.323752514e-64
9.337254172e-64
9.336392348e-64
9.322838791e-64
9.311565276e-64
9.302419743e-64
9.295197665e-64
9.289659537e-64
9.285549577e-64
9.282613163e-64
9.280611078e-64
9.279329447e-64
9.278585104e-64
9.278226892e-64
9.278133848e-64
9.278211457e-64
9.278387094e-64
9.278605554e-64
9.278825247e-64
9.279015345e-64
9.279153882e-64
9.27922665e-64
9.27922665e-64
9.279153882e-64
9.279015345e-64
9.278825247e-64
9.278605555e-64
9.278387095e-64
9.278211457e-64
9.278133848e-64
9.278226892e-64
9.278585104e-64
9.279329447e-64
9.280611078e-64
9.282613162e-64
9.285549576e-64
9.289659536e-64
9.295197665e-64
9.302419743e-64
9.311565276e-64
9.322838791e-64
9.336392348e-64
9.336090959e-64
9.322518405e-64
9.31120655e-64
9.302003566e-64
9.294705248e-64
9.289072539e-64
9.28485029e-64
9.281784789e-64
9.279638129e-64
9.27819828e-64
9.277284621e-64
9.276749367e-64
9.276475846e-64
9.27637475e-64
9.27637946e-64
9.276441317e-64
9.276525419e-64
9.276607266e-64
9.276670299e-64
9.276704269e-64
9.276704269e-64
9.276670299e-64
9.276607266e-64
9.276525419e-64
9.276441317e-64
9.276379461e-64
9.27637475e-64
9.276475846e-64
9.276749367e-64
9.277284621e-64
9.27819828e-64
9.279638129e-64
9.281784789e-64
9.28485029e-64
9.289072539e-64
9.294705248e-64
9.302003566e-64
9.31120655e-64
9.322518405e-64
9.336090959e-64
9.33612503e-64
9.322551458e-64
9.311237707e-64
9.302032099e-64
9.294730621e-64
9.28909443e-64
9.284868586e-64
9.281799558e-64
9.27964958e-64
9.278206717e-64
9.277290401e-64
9.276752862e-64
9.276477415e-64
9.276374726e-64
9.276378141e-64
9.276438968e-64
9.276522277e-64
9.276603545e-64
9.276666201e-64
9.276699984e-64
9.276699984e-64
9.276666201e-64
9.276603546e-64
9.276522277e-64
9.276438968e-64
9.276378141e-64
9.276374726e-64
9.276477415e-64
9.276752862e-64
9.277290401e-64
9.278206717e-64
9.27964958e-64
9.281799558e-64
9.284868586e-64
9.28909443e-64
9.294730621e-64
9.302032099e-64
9.311237707e-64
9.322551458e-64
9.336125029e-64
9.342795493e-64
9.329035513e-64
9.317374553e-64
9.307686817e-64
9.29980226e-64
9.29351986e-64
9.288622066e-64
9.28488867e-64
9.282108638e-64
9.280088989e-64
9.278660369e-64
9.277679498e-64
9.277029039e-64
9.276615637e-64
9.276366902e-64
9.276227998e-64
9.276158362e-64
9.276128848e-64
9.276119472e-64
9.276117773e-64
9.276117773e-64
9.276119472e-64
9.276128848e-64
9.276158362e-64
9.276227998e-64
9.276366902e-64
9.276615637e-64
9.277029039e-64
9.277679498e-64
9.278660369e-64
9.280088989e-64
9.282108638e-64
9.28488867e-64
9.288622066e-64
9.29351986e-64
9.29980226e-64
9.307686817e-64
9.317374553e-64
9.329035512e-64
9.342795492e-64
9.347714413e-64
9.333823965e-64
9.321919994e-64
9.311894095e-64
9.303599169e-64
9.296859946e-64
9.291484625e-64
9.287276305e-64
9.284043064e-64
9.281605921e-64
9.279804296e-64
9.278499001e-64
9.277573071e-64
9.276930936e-64
9.276496514e-64
9.276210733e-64
9.276028933e-64
9.275918452e-64
9.275856602e-64
9.275829115e-64
9.275829115e-64
9.275856602e-64
9.275918452e-64
9.276028933e-64
9.276210733e-64
9.276496514e-64
9.276930936e-64
9.277573071e-64
9.278499001e-64
9.279804296e-64
9.281605921e-64
9.284043064e-64
9.287276305e-64
9.291484625e-64
9.296859946e-64
9.303599169e-64
9.311894095e-64
9.321919994e-64
9.333823965e-64
9.347714413e-64
9.35095576e-64
9.336982513e-64
9.324924331e-64
9.314683517e-64
9.306127154e-64
9.299095982e-64
9.293414337e-64
9.288900085e-64
9.285373597e-64
9.282665094e-64
9.280619979e-64
9.279102093e-64
9.277995092e-64
9.277202295e-64
9.276645448e-64
9.276262846e-64
9.276007185e-64
9.275843474e-64
9.275747182e-64
9.27570279e-64
9.27570279e-64
9.275747182e-64
9.275843474e-64
9.276007185e-64
9.276262846e-64
9.276645448e-64
9.277202295e-64
9.277995092e-64
9.279102093e-64
9.280619979e-64
9.282665094e-64
9.285373597e-64
9.288900085e-64
9.293414337e-64
9.299095982e-64
9.306127154e-64
9.314683517e-64
9.32492433e-64
9.336982513e-64
9.35095576e-64
9.352565445e-64
9.338552002e-64
9.326418959e-64
9.316073725e-64
9.307390156e-64
9.300216663e-64
9.294385356e-64
9.289721257e-64
9.286050751e-64
9.283208617e-64
9.281043279e-64
9.279420176e-64
9.27822338e-64
9.277355759e-64
9.276738062e-64
9.276307324e-64
9.276014956e-64
9.275824805e-64
9.27571142e-64
9.275658642e-64
9.275658642e-64
9.27571142e-64
9.275824805e-64
9.276014956e-64
9.276307324e-64
9.276738062e-64
9.277355759e-64
9.27822338e-64
9.279420176e-64
9.281043279e-64
9.283208617e-64
9.286050751e-64
9.289721257e-64
9.294385356e-64
9.300216663e-64
9.307390156e-64
9.316073725e-64
9.326418959e-64
9.338552002e-64
9.352565445e-64
2.712134263e-63
2.894532984e-63
3.303406506e-63
4.034201179e-63
5.27879715e-63
7.416952966e-63
1.122398724e-62
1.83618721e-62
3.259921435e-62
6.2995491e-62
1.325804729e-61
3.02724491e-61
7.418718969e-61
1.91195405e-60
5.01864323e-60
1.28373625e-59
3.030746854e-59
6.22036166e-59
1.046823507e-58
1.376765851e-58
1.376765378e-58
1.046822182e-58
6.220346972e-59
3.030738232e-59
1.283732548e-59
5.018629262e-60
1.91194892e-60
7.418700168e-61
3.027237803e-61
1.325801786e-61
6.299535106e-62
3.259913796e-62
1.836182562e-62
1.12239566e-62
7.416931454e-63
5.278781171e-63
4.034188637e-63
3.303396086e-63
2.894523795e-63
2.712125633e-63
1.670348941e-63
1.72972565e-63
1.858289382e-63
2.071870387e-63
2.398815639e-63
2.886988202e-63
3.616530898e-63
4.723045438e-63
6.439926246e-63
9.175860134e-63
1.365519317e-62
2.116309297e-62
3.393862278e-62
5.569150514e-62
9.195189333e-62
1.493427511e-61
2.321360633e-61
3.351586657e-61
4.36721374e-61
5.017912335e-61
5.01791166e-61
4.367211832e-61
3.351584116e-61
2.321358363e-61
1.493425883e-61
9.195179094e-62
5.569144507e-62
3.393858836e-62
2.116307264e-62
1.365518012e-62
9.175850863e-63
6.439919096e-63
4.72303963e-63
3.616526032e-63
2.886984038e-63
2.398812007e-63
2.071867155e-63
1.858286434e-63
1.729722885e-63
1.670346264e-63
1.272456789e-63
1.295462895e-63
1.345093816e-63
1.424585591e-63
1.539383058e-63
1.6978605e-63
1.912422931e-63
2.201108455e-63
2.589819793e-63
3.115240525e-63
3.828206414e-63
4.796546003e-63
6.104787715e-63
7.845376203e-63
1.009290232e-62
1.285295573e-62
1.598821445e-62
1.915279814e-62
2.180026774e-62
2.332727539e-62
2.332727428e-62
2.180026456e-62
1.91527935e-62
1.598820939e-62
1.285295109e-62
1.009289853e-62
7.845373295e-63
6.104785509e-63
4.796544251e-63
3.828204914e-63
3.115239148e-63
2.589818481e-63
2.201107189e-63
1.912421709e-63
1.697859326e-63
1.539381935e-63
1.424584516e-63
1.345092782e-63
1.295461891e-63
1.2724558e-63
1.096627472e-63
1.106102055e-63
1.127235733e-63
1.160751408e-63
1.207836063e-63
1.270225525e-63
1.350305526e-63
1.451211949e-63
1.576898389e-63
1.732112997e-63
1.92218399e-63
2.152453343e-63
2.427136218e-63
2.747372618e-63
3.108389136e-63
3.496151394e-63
3.884710987e-63
4.236315689e-63
4.506408916e-63
4.653935691e-63
4.653935625e-63
4.506408724e-63
4.236315396e-63
3.884710639e-63
3.496151036e-63
3.108388799e-63
2.747372312e-63
2.427135933e-63
2.152453062e-63
1.922183693e-63
1.732112674e-63
1.576898037e-63
1.451211571e-63
1.35030513e-63
1.270225119e-63
1.207835653e-63
1.160751e-63
1.127235328e-63
1.106101653e-63
1.096627072e-63
1.013093869e-63
1.016788129e-63
1.025964188e-63
1.040778384e-63
1.061491021e-63
1.088475648e-63
1.122221991e-63
1.1633241e-63
1.212442795e-63
1.270228722e-63
1.337190059e-63
1.413488846e-63
1.498656544e-63
1.59123966e-63
1.688427289e-63
1.785773878e-63
1.877191384e-63
1.95539699e-63
2.01290845e-63
2.043462379e-63
2.043462373e-63
2.012908432e-63
1.955396961e-63
1.877191348e-63
1.785773839e-63
1.688427248e-63
1.591239617e-63
1.498656494e-63
1.413488784e-63
1.337189981e-63
1.270228625e-63
1.21244268e-63
1.163323969e-63
1.122221845e-63
1.088475493e-63
1.061490859e-63
1.040778218e-63
1.025964022e-63
1.016787962e-63
1.013093702e-63
9.722219108e-64
9.732575134e-64
9.769893947e-64
9.834400936e-64
9.92652968e-64
1.004692777e-63
1.019642145e-63
1.037590763e-63
1.058614104e-63
1.082738763e-63
1.109892605e-63
1.139840052e-63
1.172106673e-63
1.205903498e-63
1.240069757e-63
1.273061089e-63
1.303013312e-63
1.3279029e-63
1.345800165e-63
1.355174188e-63
1.355174188e-63
1.345800165e-63
1.3279029e-63
1.303013312e-63
1.273061088e-63
1.240069755e-63
1.205903493e-63
1.172106665e-63
1.139840037e-63
1.109892582e-63
1.082738731e-63
1.058614063e-63
1.037590714e-63
1.019642088e-63
1.004692715e-63
9.926529023e-64
9.834400256e-64
9.769893254e-64
9.732574435e-64
9.722218407e-64
9.521228338e-64
9.518959872e-64
9.530571876e-64
9.555978719e-64
9.595101249e-64
9.647870053e-64