/*--------------------------------*- C++ -*----------------------------------*\
  =========                 |
  \\      /  F ield         | OpenFOAM: The Open Source CFD Toolbox
   \\    /   O peration     | Website:  https://openfoam.org
    \\  /    A nd           | Version:  10
     \\/     M anipulation  |
\*---------------------------------------------------------------------------*/
FoamFile
{
    format      ascii;
    class       volScalarField;
    location    "0.0005";
    object      T;
}
// * * * * * * * * * * * * * * * * * * * * * * * * * * * * * * * * * * * * * //

dimensions      [0 0 0 1 0 0 0];

internalField   nonuniform List<scalar> 
16000
(
301.9915076
302.1133877
302.3611075
302.7368758
303.2446205
303.8904526
304.6828957
305.6326486
306.7516593
308.0512808
309.5392506
311.2152302
313.0648235
315.0525827
317.115585
319.1601576
321.0640082
322.6845248
323.8741405
324.506044
324.5060412
323.8741322
322.684513
321.0639975
319.1601499
317.1155791
315.0525769
313.0648173
311.2152237
309.5392441
308.0512744
306.7516528
305.6326418
304.6828887
303.8904454
303.2446132
302.7368684
302.3611002
302.1133804
301.9915004
301.0891818
301.1542804
301.2879019
301.4910142
301.7653162
302.1134032
302.5387993
303.0457442
303.6386283
304.3209867
305.0939717
305.9542597
306.8914406
307.8851696
308.9027377
309.8980886
310.813306
311.5831204
312.1425566
312.4377232
312.4377225
312.1425546
311.5831175
310.8133029
309.8980857
308.9027349
307.8851668
306.8914378
305.9542568
305.0939687
304.3209837
303.6386252
303.0457409
302.5387958
302.1133996
301.7653125
301.4910104
301.2878981
301.1542767
301.0891781
300.5846376
300.6179922
300.6878745
300.7946781
300.9390881
301.1221336
301.3451689
301.6097313
301.9172256
302.2684029
302.6626128
303.0968386
303.564572
304.0546811
304.550552
305.0299185
305.4657888
305.8286945
306.0902095
306.2274182
306.227418
306.0902089
305.8286936
305.4657878
305.0299175
304.5505508
304.0546799
303.5645709
303.0968373
302.6626116
302.2684015
301.9172241
301.6097297
301.3451673
301.1221318
300.9390863
300.7946763
300.6878727
300.6179904
300.5846358
300.3094063
300.3254616
300.3606331
300.4150612
300.488991
300.5827865
300.696908
300.8318295
300.9878739
301.1649554
301.3622244
301.577632
301.8074536
302.0458474
302.2845742
302.5130397
302.7188133
302.8886971
303.0102828
303.0737887
303.0737887
303.0102827
302.8886969
302.7188129
302.5130393
302.2845738
302.045847
301.8074531
301.5776315
301.3622238
301.1649548
300.9878732
300.8318287
300.6969072
300.5827857
300.4889901
300.4150603
300.3606323
300.3254607
300.3094054
300.1628868
300.1697495
300.1864884
300.2131379
300.2497624
300.2964588
300.3533417
300.4204996
300.4979144
300.585338
300.6821299
300.7870647
300.8981337
301.0123768
301.1257994
301.2334381
301.329629
301.4084988
301.4646385
301.4938572
301.4938572
301.4646384
301.4084987
301.3296289
301.2334379
301.1257992
301.0123766
300.8981335
300.7870645
300.6821297
300.5853378
300.4979141
300.4204993
300.3533413
300.2964584
300.249762
300.2131375
300.186488
300.1697491
300.1628864
300.0867485
300.0888466
300.0960376
300.1083142
300.1256715
300.1481064
300.1756113
300.2081522
300.2456319
300.287834
300.3343496
300.3844955
300.4372322
300.4911019
300.5442071
300.5942573
300.6386992
300.674937
300.7006195
300.7139492
300.7139492
300.7006194
300.6749369
300.6386991
300.5942572
300.5442071
300.4911018
300.4372322
300.3844954
300.3343495
300.2878338
300.2456318
300.208152
300.1756111
300.1481063
300.1256713
300.1083141
300.0960374
300.0888465
300.0867484
300.0481194
300.047808
300.0501731
300.0551928
300.0628373
300.0730704
300.0858467
300.1011032
300.1187434
300.1386128
300.1604678
300.1839413
300.2085096
300.2334697
300.2579359
300.2808657
300.3011208
300.3175632
300.329176
300.33519
300.33519
300.329176
300.3175632
300.3011208
300.2808657
300.2579358
300.2334696
300.2085096
300.1839412
300.1604677
300.1386127
300.1187434
300.1011032
300.0858466
300.0730703
300.0628372
300.0551927
300.0501731
300.047808
300.0481194
300.0289806
300.02748
300.0274643
300.0289071
300.0317713
300.0360114
300.0415737
300.0483945
300.056394
300.0654668
300.0754694
300.0862057
300.0974143
300.1087599
300.1198342
300.1301679
300.1392587
300.1466121
300.1517913
300.1544688
300.1544688
300.1517913
300.1466121
300.1392587
300.1301679
300.1198342
300.1087599
300.0974143
300.0862057
300.0754694
300.0654668
300.056394
300.0483945
300.0415737
300.0360113
300.0317713
300.0289071
300.0274643
300.0274799
300.0289806
300.0197192
300.0176454
300.0164831
300.0162045
300.0167709
300.0181356
300.0202452
300.0230411
300.0264583
300.0304223
300.0348447
300.0396173
300.0446073
300.0496539
300.0545687
300.0591418
300.063153
300.0663889
300.0686631
300.0698373
300.0698373
300.0686631
300.0663889
300.063153
300.0591418
300.0545687
300.0496539
300.0446073
300.0396173
300.0348447
300.0304223
300.0264583
300.0230411
300.0202451
300.0181356
300.0167709
300.0162044
300.0164831
300.0176454
300.0197192
300.0153413
300.0129978
300.011296
300.0102081
300.0096957
300.0097124
300.0102068
300.0111251
300.0124117
300.0140097
300.0158591
300.017895
300.0200457
300.022231
300.0243622
300.0263444
300.0280807
300.0294793
300.0304608
300.0309671
300.0309671
300.0304608
300.0294793
300.0280807
300.0263444
300.0243622
300.022231
300.0200457
300.017895
300.0158591
300.0140097
300.0124117
300.0111251
300.0102068
300.0097123
300.0096957
300.0102081
300.011296
300.0129978
300.0153413
300.0133199
300.0108524
300.0089026
300.007443
300.0064356
300.0058346
300.0055904
300.0056522
300.0059698
300.0064952
300.0071828
300.0079881
300.0088678
300.0097778
300.0106739
300.011511
300.0122457
300.0128378
300.0132533
300.0134675
300.0134675
300.0132533
300.0128378
300.0122457
300.011511
300.0106739
300.0097778
300.0088678
300.0079881
300.0071828
300.0064952
300.0059698
300.0056522
300.0055904
300.0058346
300.0064356
300.007443
300.0089026
300.0108524
300.0133199
300.0124088
300.0098856
300.0078244
300.006198
300.0049686
300.004091
300.0035167
300.0031964
300.0030829
300.0031327
300.0033067
300.0035702
300.0038922
300.004245
300.0046033
300.0049438
300.0052454
300.0054896
300.0056614
300.0057501
300.0057501
300.0056614
300.0054896
300.0052454
300.0049438
300.0046033
300.004245
300.0038922
300.0035702
300.0033067
300.0031327
300.0030829
300.0031964
300.0035167
300.004091
300.0049686
300.006198
300.0078244
300.0098856
300.0124088
300.0120094
300.0094618
300.0073519
300.0056525
300.0043259
300.0033276
300.0026093
300.0021227
300.001822
300.0016659
300.0016182
300.0016485
300.0017314
300.001846
300.0019753
300.0021049
300.0022231
300.0023203
300.0023893
300.0024251
300.0024251
300.0023893
300.0023203
300.0022231
300.0021049
300.0019753
300.001846
300.0017314
300.0016485
300.0016182
300.0016659
300.001822
300.0021227
300.0026093
300.0033276
300.0043259
300.0056525
300.0073519
300.0094618
300.0120094
300.0118426
300.0092846
300.0071542
300.0054241
300.0040567
300.0030077
300.002229
300.0016728
300.001294
300.0010521
300.0009124
300.0008461
300.0008303
300.000847
300.0008822
300.0009255
300.0009688
300.0010061
300.0010333
300.0010476
300.0010476
300.0010333
300.0010061
300.0009688
300.0009255
300.0008822
300.000847
300.0008303
300.0008461
300.0009124
300.0010521
300.001294
300.0016728
300.002229
300.0030077
300.0040567
300.0054241
300.0071542
300.0092846
300.0118426
300.0117842
300.0092225
300.0070845
300.0053431
300.0039609
300.0028934
300.0020929
300.0015115
300.0011045
300.0008317
300.0006589
300.0005581
300.0005071
300.0004888
300.0004907
300.0005033
300.0005201
300.0005363
300.0005487
300.0005554
300.0005554
300.0005487
300.0005363
300.0005201
300.0005033
300.0004907
300.0004888
300.0005071
300.0005581
300.0006589
300.0008317
300.0011045
300.0015115
300.0020929
300.0028934
300.0039609
300.0053431
300.0070845
300.0092225
300.0117842
300.0117906
300.0092287
300.0070904
300.0053485
300.0039657
300.0028975
300.0020963
300.0015143
300.0011067
300.0008333
300.00066
300.0005588
300.0005073
300.0004888
300.0004904
300.0005028
300.0005195
300.0005355
300.0005479
300.0005546
300.0005546
300.0005479
300.0005355
300.0005195
300.0005028
300.0004904
300.0004888
300.0005073
300.0005588
300.00066
300.0008333
300.0011067
300.0015143
300.0020963
300.0028975
300.0039657
300.0053485
300.0070904
300.0092287
300.0117906
300.0130433
300.010448
300.0082456
300.0064136
300.0049212
300.0037312
300.0028028
300.0020949
300.0015677
300.0011847
300.0009139
300.0007281
300.0006051
300.0005272
300.0004805
300.0004547
300.0004419
300.0004367
300.0004352
300.000435
300.000435
300.0004352
300.0004367
300.0004419
300.0004547
300.0004805
300.0005272
300.0006051
300.0007281
300.0009139
300.0011847
300.0015677
300.0020949
300.0028028
300.0037312
300.0049212
300.0064136
300.0082456
300.010448
300.0130433
300.0139662
300.0113477
300.0091005
300.0072055
300.0056361
300.0043599
300.0033414
300.0025435
300.0019303
300.0014681
300.0011263
300.0008788
300.0007033
300.0005817
300.0004995
300.0004456
300.0004114
300.0003906
300.000379
300.0003739
300.0003739
300.000379
300.0003906
300.0004114
300.0004456
300.0004995
300.0005817
300.0007033
300.0008788
300.0011263
300.0014681
300.0019303
300.0025435
300.0033414
300.0043599
300.0056361
300.0072055
300.0091005
300.0113477
300.0139662
300.014574
300.0119408
300.0096652
300.0077302
300.0061118
300.0047807
300.0037043
300.0028486
300.0021798
300.001666
300.001278
300.0009901
300.0007801
300.0006297
300.0005242
300.0004517
300.0004034
300.0003724
300.0003543
300.0003459
300.0003459
300.0003543
300.0003724
300.0004034
300.0004517
300.0005242
300.0006297
300.0007801
300.0009901
300.001278
300.001666
300.0021798
300.0028486
300.0037043
300.0047807
300.0061118
300.0077302
300.0096652
300.0119408
300.014574
300.0148757
300.0122354
300.0099461
300.0079916
300.0063494
300.0049915
300.0038869
300.0030028
300.0023068
300.0017677
300.0013568
300.0010488
300.0008217
300.0006571
300.00054
300.0004584
300.000403
300.000367
300.0003455
300.0003355
300.0003355
300.0003455
300.000367
300.000403
300.0004584
300.00054
300.0006571
300.0008217
300.0010488
300.0013568
300.0017677
300.0023068
300.0030028
300.0038869
300.0049915
300.0063494
300.0079916
300.0099461
300.0122354
300.0148757
301.9650436
302.0851783
302.3293423
302.6996041
303.1996595
303.8352738
304.6144909
305.5473817
306.6451154
307.9181391
309.3732253
311.0091592
312.8110102
314.7434893
316.7448832
318.7240102
320.5625241
322.1235465
323.2669788
323.8734685
323.8734667
323.2669729
322.1235374
320.5625152
318.724003
316.7448772
314.7434837
312.8110045
311.0091537
309.3732199
307.9181338
306.64511
305.5473759
304.6144849
303.8352675
303.1996531
302.6995976
302.3293357
302.0851718
301.9650371
301.0747664
301.1389214
301.2706249
301.4707788
301.7409737
302.0836451
302.5021001
303.0003002
303.5823028
304.2512733
305.0079973
305.8488569
306.7633287
307.7312764
308.7206684
309.6866967
310.5733079
311.317703
311.8578093
312.1424721
312.1424716
311.8578078
311.3177006
310.5733053
309.686694
308.7206658
307.7312739
306.7633263
305.8488546
305.0079949
304.2512708
303.5823002
303.0002974
302.5020971
302.083642
301.7409704
301.4707756
301.2706216
301.1389181
301.0747631
300.5769721
300.6098288
300.6787011
300.7839522
300.9262181
301.1064562
301.3259248
301.5860413
301.8880718
302.2326215
302.6189078
303.0438276
303.5008789
303.9790838
304.4621864
304.9285179
305.3519245
305.7039768
305.957381
306.0902322
306.0902321
305.9573806
305.7039761
305.3519237
304.928517
304.4621854
303.9790828
303.5008779
303.0438266
302.6189068
302.2326204
301.8880706
301.58604
301.3259234
301.1064547
300.9262166
300.7839507
300.6786995
300.6098272
300.5769705
300.305426
300.3212248
300.3558768
300.4095089
300.4823444
300.5747161
300.6870428
300.819748
300.9730986
301.1469531
301.340417
301.5514224
301.7762707
302.0092129
302.2421894
302.4648826
302.6652294
302.8304644
302.9486243
303.0103068
303.0103067
302.9486241
302.8304641
302.6652291
302.4648823
302.2421891
302.0092126
301.7762703
301.5514221
301.3404166
301.1469526
300.9730981
300.8197474
300.6870421
300.5747154
300.4823437
300.4095081
300.3558761
300.3212241
300.3054253
300.1608684
300.167602
300.1840798
300.2103304
300.2464088
300.2923986
300.3483969
300.4144716
300.4905825
300.5764612
300.6714531
300.7743325
300.8831109
300.9948784
301.105727
301.2108181
301.3046467
301.3815187
301.436202
301.4646512
301.4646512
301.436202
301.3815186
301.3046466
301.210818
301.1057269
300.9948783
300.8831108
300.7743323
300.671453
300.576461
300.4905823
300.4144714
300.3483966
300.2923983
300.2464085
300.2103301
300.1840794
300.1676016
300.1608681
300.0857489
300.0877835
300.0948462
300.1069274
300.1240181
300.1461099
300.1731877
300.2052096
300.2420699
300.283545
300.3292225
300.378422
300.4301164
300.4828729
300.5348345
300.5837659
300.6271818
300.6625605
300.6876218
300.7006251
300.7006251
300.6876218
300.6625605
300.6271817
300.5837659
300.5348345
300.4828729
300.4301163
300.3784219
300.3292224
300.2835449
300.2420698
300.2052095
300.1731876
300.1461098
300.124018
300.1069273
300.094846
300.0877833
300.0857487
300.047636
300.047294
300.0495976
300.0545236
300.0620409
300.0721108
300.0846852
300.099698
300.1170494
300.1365827
300.1580539
300.1810981
300.2051983
300.2296636
300.2536265
300.2760687
300.2958806
300.3119546
300.3233028
300.3291783
300.3291783
300.3233028
300.3119546
300.2958805
300.2760687
300.2536265
300.2296636
300.2051983
300.1810981
300.1580539
300.1365827
300.1170494
300.099698
300.0846852
300.0721107
300.0620408
300.0545235
300.0495975
300.047294
300.0476359
300.0287525
300.0272374
300.0271929
300.0285919
300.0313966
300.0355608
300.0410296
300.0477382
300.0556056
300.0645259
300.0743557
300.0849003
300.0959017
300.1070303
300.1178855
300.1280088
300.1369097
300.1441062
300.1491732
300.1517922
300.1517922
300.1491732
300.1441062
300.1369097
300.1280088
300.1178855
300.1070303
300.0959017
300.0849003
300.0743557
300.0645259
300.0556056
300.0477381
300.0410296
300.0355607
300.0313966
300.0285919
300.0271929
300.0272374
300.0287525
300.0196144
300.017534
300.0163584
300.0160597
300.016599
300.017929
300.0199962
300.0227415
300.0260994
300.0299955
300.0343414
300.0390299
300.0439296
300.0488823
300.0537031
300.0581864
300.0621171
300.0652868
300.0675139
300.0686635
300.0686635
300.0675139
300.0652868
300.0621171
300.0581864
300.0537031
300.0488823
300.0439296
300.0390299
300.0343414
300.0299955
300.0260994
300.0227414
300.0199962
300.017929
300.0165989
300.0160596
300.0163584
300.017534
300.0196143
300.0152947
300.0129482
300.0112404
300.0101435
300.0096189
300.0096202
300.0100958
300.0109916
300.0122523
300.0138205
300.0156366
300.0176362
300.0197482
300.0218935
300.0239849
300.0259293
300.0276319
300.0290029
300.0299649
300.030461
300.030461
300.0299649
300.0290029
300.0276319
300.0259293
300.0239849
300.0218935
300.0197482
300.0176362
300.0156366
300.0138205
300.0122523
300.0109916
300.0100958
300.0096202
300.0096189
300.0101435
300.0112404
300.0129482
300.0152947
300.0133
300.0108312
300.0088788
300.0074153
300.0064025
300.0057948
300.0055424
300.0055944
300.0059008
300.0064135
300.0070869
300.0078768
300.0087401
300.0096334
300.0105128
300.0113343
300.0120551
300.0126358
300.0130433
300.0132533
300.0132533
300.0130433
300.0126358
300.0120551
300.0113343
300.0105128
300.0096334
300.0087401
300.0078768
300.0070869
300.0064135
300.0059008
300.0055944
300.0055424
300.0057948
300.0064025
300.0074153
300.0088788
300.0108312
300.0133
300.012401
300.0098772
300.0078149
300.0061869
300.0049551
300.0040747
300.0034969
300.0031724
300.0030542
300.0030986
300.0032666
300.0035236
300.0038389
300.0041848
300.0045363
300.0048703
300.0051663
300.0054059
300.0055744
300.0056614
300.0056614
300.0055744
300.0054059
300.0051663
300.0048703
300.0045363
300.0041848
300.0038389
300.0035236
300.0032666
300.0030986
300.0030542
300.0031724
300.0034969
300.0040747
300.0049551
300.0061869
300.0078149
300.0098772
300.012401
300.0120069
300.009459
300.0073487
300.0056485
300.004321
300.0033215
300.0026017
300.0021134
300.0018107
300.0016523
300.0016022
300.0016298
300.0017099
300.0018218
300.0019482
300.0020752
300.0021911
300.0022865
300.0023542
300.0023894
300.0023894
300.0023542
300.0022865
300.0021911
300.0020752
300.0019482
300.0018218
300.0017099
300.0016298
300.0016022
300.0016523
300.0018107
300.0021134
300.0026017
300.0033215
300.004321
300.0056485
300.0073487
300.009459
300.0120069
300.0118423
300.0092843
300.0071536
300.0054232
300.0040554
300.0030058
300.0022265
300.0016696
300.00129
300.0010471
300.0009063
300.000839
300.000822
300.0008375
300.0008716
300.0009137
300.0009561
300.0009927
300.0010193
300.0010333
300.0010333
300.0010193
300.0009927
300.0009561
300.0009137
300.0008716
300.0008375
300.000822
300.000839
300.0009063
300.0010471
300.00129
300.0016696
300.0022265
300.0030058
300.0040554
300.0054232
300.0071536
300.0092843
300.0118423
300.0117847
300.009223
300.0070849
300.0053434
300.0039609
300.0028931
300.0020922
300.0015105
300.0011031
300.0008298
300.0006565
300.0005551
300.0005034
300.0004846
300.0004858
300.0004979
300.0005142
300.00053
300.0005422
300.0005487
300.0005487
300.0005422
300.00053
300.0005142
300.0004979
300.0004858
300.0004846
300.0005034
300.0005551
300.0006565
300.0008298
300.0011031
300.0015105
300.0020922
300.0028931
300.0039609
300.0053434
300.0070849
300.009223
300.0117847
300.0117911
300.0092292
300.0070908
300.0053488
300.0039657
300.0028973
300.0020957
300.0015133
300.0011052
300.0008314
300.0006576
300.0005557
300.0005037
300.0004845
300.0004856
300.0004975
300.0005136
300.0005293
300.0005414
300.0005479
300.0005479
300.0005414
300.0005293
300.0005136
300.0004975
300.0004856
300.0004845
300.0005037
300.0005557
300.0006576
300.0008314
300.0011052
300.0015133
300.0020957
300.0028973
300.0039657
300.0053488
300.0070908
300.0092292
300.0117911
300.013048
300.0104527
300.0082502
300.0064182
300.0049256
300.0037354
300.0028068
300.0020986
300.0015711
300.0011878
300.0009166
300.0007305
300.0006072
300.0005288
300.0004818
300.0004556
300.0004426
300.0004371
300.0004355
300.0004352
300.0004352
300.0004355
300.0004371
300.0004426
300.0004556
300.0004818
300.0005288
300.0006072
300.0007305
300.0009166
300.0011878
300.0015711
300.0020986
300.0028068
300.0037354
300.0049256
300.0064182
300.0082502
300.0104527
300.013048
300.0139743
300.0113558
300.0091085
300.0072135
300.005644
300.0043677
300.003349
300.002551
300.0019376
300.0014751
300.0011331
300.0008854
300.0007096
300.0005878
300.0005054
300.0004512
300.0004168
300.0003959
300.0003842
300.000379
300.000379
300.0003842
300.0003959
300.0004168
300.0004512
300.0005054
300.0005878
300.0007096
300.0008854
300.0011331
300.0014751
300.0019376
300.002551
300.003349
300.0043677
300.005644
300.0072135
300.0091085
300.0113558
300.0139743
300.0145845
300.0119513
300.0096756
300.0077406
300.0061221
300.0047909
300.0037144
300.0028586
300.0021897
300.0016757
300.0012876
300.0009994
300.0007893
300.0006388
300.0005331
300.0004605
300.000412
300.0003809
300.0003627
300.0003543
300.0003543
300.0003627
300.0003809
300.000412
300.0004605
300.0005331
300.0006388
300.0007893
300.0009994
300.0012876
300.0016757
300.0021897
300.0028586
300.0037144
300.0047909
300.0061221
300.0077406
300.0096756
300.0119513
300.0145845
300.0148874
300.0122471
300.0099577
300.0080033
300.006361
300.005003
300.0038983
300.0030141
300.002318
300.0017787
300.0013677
300.0010596
300.0008324
300.0006676
300.0005504
300.0004686
300.0004131
300.000377
300.0003555
300.0003455
300.0003455
300.0003555
300.000377
300.0004131
300.0004686
300.0005504
300.0006676
300.0008324
300.0010596
300.0013677
300.0017787
300.002318
300.0030141
300.0038983
300.005003
300.006361
300.0080033
300.0099577
300.0122471
300.0148874
301.9131468
302.0298762
302.267107
302.6266443
303.1117467
303.7275297
304.4811372
305.3814651
306.4382339
307.6602175
309.0524287
310.6120892
312.3233831
314.1514802
316.0371577
317.8942089
319.6119413
321.0640197
322.12347
322.6839258
322.683925
322.1234673
321.0640148
319.6119355
317.8942031
316.0371522
314.151475
312.3233783
310.6120847
309.0524245
307.6602133
306.4382296
305.3814604
304.4811322
303.7275245
303.1117413
302.6266387
302.2671013
302.0298705
301.9131411
301.0464972
301.1088105
301.2367723
301.4311607
301.6933622
302.0255128
302.4305115
302.9117999
303.4728157
304.116042
304.8415964
305.6453418
306.5165877
307.4356518
308.3718508
309.2828102
310.1160368
310.8133136
311.3177898
311.5831593
311.583159
311.317789
310.8133121
310.116035
309.2828081
308.3718487
307.4356498
306.5165858
305.64534
304.8415947
304.1160401
303.4728137
302.9117977
302.4305091
302.0255102
301.6933595
301.4311579
301.2367695
301.1088076
301.0464943
300.5619396
300.593824
300.6607249
300.7629488
300.9010388
301.0758179
301.2883645
301.5398715
301.8313473
302.1631281
302.5341913
302.9412854
303.377938
303.8334845
304.2923686
304.7340721
305.1340348
305.465767
305.704048
305.8287958
305.8287958
305.7040477
305.4657666
305.1340342
304.7340714
304.2923679
303.8334838
303.3779374
302.9412848
302.5341906
302.1631273
301.8313464
301.5398705
301.2883633
301.0758167
300.9010375
300.7629474
300.6607235
300.5938227
300.5619383
300.2976206
300.3129182
300.3465557
300.3986348
300.4693377
300.5589384
300.6677782
300.7961865
300.9443258
301.1119522
301.2980906
301.5006431
301.7159669
301.9384971
302.1605218
302.3722534
302.5623273
302.7187894
302.8305027
302.8887604
302.8887604
302.8305026
302.7187893
302.5623271
302.3722532
302.1605216
301.9384969
301.7159667
301.5006428
301.2980904
301.1119518
300.9443254
300.7961861
300.6677777
300.5589378
300.4693371
300.3986341
300.3465551
300.3129175
300.29762
300.1569103
300.1633915
300.1793593
300.2048313
300.2398449
300.2844584
300.3387365
300.4027089
300.476294
300.5591862
300.6507067
300.7496306
300.8540115
300.9610371
301.0669662
301.1671993
301.2565335
301.3296127
301.3815363
301.4085291
301.4085291
301.3815363
301.3296126
301.2565335
301.1671993
301.0669661
300.9610371
300.8540114
300.7496306
300.6507066
300.5591861
300.4762939
300.4027087
300.3387363
300.2844581
300.2398446
300.2048311
300.179359
300.1633912
300.15691
300.0837887
300.0856991
300.0925113
300.104211
300.1207816
300.1422044
300.1684512
300.1994648
300.2351238
300.2751917
300.3192501
300.366625
300.4163138
300.4669328
300.5167025
300.5634933
300.6049495
300.6386898
300.662568
300.67495
300.67495
300.662568
300.6386898
300.6049495
300.5634933
300.5167024
300.4669328
300.4163138
300.3666249
300.3192501
300.2751916
300.2351237
300.1994647
300.1684511
300.1422043
300.1207815
300.1042108
300.0925111
300.085699
300.0837886
300.0466882
300.0462865
300.0484698
300.0532129
300.0604818
300.0702335
300.0824148
300.0969535
300.1137443
300.1326264
300.1533549
300.1755702
300.1987681
300.2222812
300.2452772
300.2667838
300.2857464
300.3011156
300.3119578
300.3175686
300.3175686
300.3119578
300.3011156
300.2857464
300.2667838
300.2452772
300.2222812
300.1987681
300.1755701
300.1533549
300.1326264
300.1137443
300.0969535
300.0824147
300.0702335
300.0604817
300.0532129
300.0484697
300.0462865
300.0466881
300.0283055
300.0267624
300.0266614
300.0279747
300.0306633
300.0346793
300.0399659
300.046456
300.0540669
300.0626913
300.0721862
300.0823602
300.0929616
300.1036717
300.1141054
300.123824
300.1323601
300.1392556
300.1441075
300.1466143
300.1466143
300.1441075
300.1392556
300.1323601
300.123824
300.1141054
300.1036717
300.0929616
300.0823602
300.0721862
300.0626913
300.0540669
300.046456
300.0399659
300.0346792
300.0306633
300.0279746
300.0266614
300.0267624
300.0283055
300.0194093
300.017316
300.0161144
300.0157764
300.0162626
300.0175252
300.0195096
300.0221563
300.0253991
300.0291631
300.0333608
300.0378863
300.0426114
300.0473828
300.0520223
300.0563327
300.0601083
300.0631508
300.0652873
300.0663898
300.0663898
300.0652873
300.0631508
300.0601083
300.0563327
300.0520223
300.0473828
300.0426114
300.0378863
300.0333608
300.0291631
300.0253991
300.0221563
300.0195096
300.0175251
300.0162626
300.0157764
300.0161144
300.017316
300.0194092
300.0152037
300.0128514
300.011132
300.0100175
300.0094691
300.0094402
300.009879
300.0107313
300.0119412
300.0134516
300.0152033
300.0171324
300.0191695
300.0212374
300.023252
300.0251234
300.026761
300.0280788
300.0290031
300.0294796
300.0294796
300.0290031
300.0280788
300.026761
300.0251234
300.023252
300.0212374
300.0191695
300.0171324
300.0152033
300.0134516
300.0119412
300.0107313
300.009879
300.0094402
300.0094691
300.0100175
300.011132
300.0128514
300.0152037
300.0132617
300.0107903
300.0088328
300.0073615
300.0063383
300.0057174
300.005449
300.0054821
300.0057666
300.0062545
300.0069003
300.0076603
300.008492
300.0093528
300.0102001
300.0109913
300.0116852
300.012244
300.0126359
300.012838
300.012838
300.0126359
300.012244
300.0116852
300.0109913
300.0102001
300.0093528
300.008492
300.0076603
300.0069003
300.0062545
300.0057666
300.0054821
300.005449
300.0057174
300.0063383
300.0073615
300.0088328
300.0107903
300.0132617
300.0123863
300.0098614
300.0077969
300.0061655
300.0049293
300.0040432
300.0034586
300.0031261
300.0029985
300.0030325
300.003189
300.0034335
300.0037356
300.0040681
300.0044063
300.004728
300.005013
300.0052437
300.0054059
300.0054897
300.0054897
300.0054059
300.0052437
300.005013
300.004728
300.0044063
300.0040681
300.0037356
300.0034335
300.003189
300.0030325
300.0029985
300.0031261
300.0034586
300.0040432
300.0049293
300.0061655
300.0077969
300.0098614
300.0123863
300.0120026
300.0094543
300.007343
300.0056414
300.004312
300.0033101
300.0025874
300.0020957
300.0017892
300.0016264
300.0015715
300.0015939
300.0016686
300.001775
300.0018961
300.0020181
300.0021295
300.0022213
300.0022865
300.0023203
300.0023203
300.0022865
300.0022213
300.0021295
300.0020181
300.0018961
300.001775
300.0016686
300.0015939
300.0015715
300.0016264
300.0017892
300.0020957
300.0025874
300.0033101
300.004312
300.0056414
300.007343
300.0094543
300.0120026
300.0118424
300.0092842
300.0071531
300.005422
300.0040535
300.0030028
300.0022223
300.001664
300.0012826
300.0010379
300.0008951
300.0008255
300.0008063
300.0008195
300.0008513
300.0008914
300.0009319
300.0009671
300.0009927
300.0010061
300.0010061
300.0009927
300.0009671
300.0009319
300.0008914
300.0008513
300.0008195
300.0008063
300.0008255
300.0008951
300.0010379
300.0012826
300.001664
300.0022223
300.0030028
300.0040535
300.005422
300.0071531
300.0092842
300.0118424
300.0117864
300.0092245
300.0070862
300.0053444
300.0039615
300.0028932
300.0020916
300.0015092
300.0011008
300.0008266
300.0006522
300.0005497
300.0004969
300.0004768
300.0004769
300.000488
300.0005033
300.0005184
300.00053
300.0005363
300.0005363
300.00053
300.0005184
300.0005033
300.000488
300.0004769
300.0004768
300.0004969
300.0005497
300.0006522
300.0008266
300.0011008
300.0015092
300.0020916
300.0028932
300.0039615
300.0053444
300.0070862
300.0092245
300.0117864
300.0117928
300.0092308
300.0070922
300.0053498
300.0039664
300.0028974
300.0020951
300.001512
300.001103
300.0008282
300.0006533
300.0005504
300.0004972
300.0004769
300.0004767
300.0004876
300.0005028
300.0005178
300.0005293
300.0005356
300.0005356
300.0005293
300.0005178
300.0005028
300.0004876
300.0004767
300.0004769
300.0004972
300.0005504
300.0006533
300.0008282
300.001103
300.001512
300.0020951
300.0028974
300.0039664
300.0053498
300.0070922
300.0092308
300.0117928
300.0130585
300.0104631
300.0082605
300.0064282
300.0049354
300.0037448
300.0028158
300.0021071
300.001579
300.0011951
300.0009232
300.0007364
300.0006123
300.0005332
300.0004855
300.0004587
300.000445
300.0004391
300.0004371
300.0004367
300.0004367
300.0004371
300.0004391
300.000445
300.0004587
300.0004855
300.0005332
300.0006123
300.0007364
300.0009232
300.0011951
300.001579
300.0021071
300.0028158
300.0037448
300.0049354
300.0064282
300.0082605
300.0104631
300.0130585
300.0139918
300.0113732
300.0091259
300.0072307
300.005661
300.0043844
300.0033654
300.0025671
300.0019533
300.0014904
300.001148
300.0008998
300.0007235
300.0006012
300.0005184
300.0004638
300.000429
300.0004078
300.0003959
300.0003906
300.0003906
300.0003959
300.0004078
300.000429
300.0004638
300.0005184
300.0006012
300.0007235
300.0008998
300.001148
300.0014904
300.0019533
300.0025671
300.0033654
300.0043844
300.005661
300.0072307
300.0091259
300.0113732
300.0139918
300.0146068
300.0119735
300.0096979
300.0077627
300.0061441
300.0048127
300.003736
300.0028799
300.0022108
300.0016965
300.001308
300.0010195
300.0008091
300.0006582
300.0005522
300.0004793
300.0004306
300.0003993
300.0003809
300.0003724
300.0003724
300.0003809
300.0003993
300.0004306
300.0004793
300.0005522
300.0006582
300.0008091
300.0010196
300.001308
300.0016965
300.0022108
300.0028799
300.003736
300.0048127
300.0061441
300.0077627
300.0096979
300.0119735
300.0146068
300.0149123
300.0122719
300.0099824
300.0080279
300.0063855
300.0050274
300.0039225
300.0030381
300.0023418
300.0018022
300.001391
300.0010826
300.0008551
300.0006901
300.0005726
300.0004906
300.0004349
300.0003987
300.000377
300.000367
300.000367
300.000377
300.0003987
300.0004349
300.0004906
300.0005726
300.0006901
300.0008551
300.0010826
300.001391
300.0018022
300.0023418
300.0030381
300.0039225
300.0050274
300.0063855
300.0080279
300.0099824
300.0122719
300.0149123
301.8378108
301.9496371
302.176896
302.5210363
302.9847249
303.5721981
304.2893858
305.1436076
306.1426576
307.2931136
308.5977253
310.0517773
311.6384949
313.3239629
315.0526927
316.7456727
318.3029767
319.612278
320.5629084
321.0641032
321.0641032
320.5629078
319.6122758
318.3029731
316.7456684
315.0526881
313.3239586
311.6384912
310.0517741
308.5977223
307.2931106
306.1426543
305.143604
304.2893818
303.5721938
302.9847204
302.5210316
302.1768912
301.9496322
301.8378059
301.0054604
301.0651199
301.1876957
301.3737983
301.6245382
301.9416465
302.3274724
302.7847603
303.316124
303.9231524
304.6051086
305.3572257
306.1686863
307.020541
307.8840686
308.7203321
309.4817581
310.1162478
310.5736366
310.8136433
310.8136432
310.5736362
310.1162469
309.4817569
308.7203307
307.8840671