/*--------------------------------*- C++ -*----------------------------------*\
  =========                 |
  \\      /  F ield         | OpenFOAM: The Open Source CFD Toolbox
   \\    /   O peration     | Website:  https://openfoam.org
    \\  /    A nd           | Version:  10
     \\/     M anipulation  |
\*---------------------------------------------------------------------------*/
FoamFile
{
    format      ascii;
    class       volVectorField;
    location    "0.0005";
    object      U;
}
// * * * * * * * * * * * * * * * * * * * * * * * * * * * * * * * * * * * * * //

dimensions      [0 1 -1 0 0 0 0];

internalField   nonuniform List<vector> 
16000
(
(2.01897898e-12 2.918754164e-12 -1.398298727e-12)
(6.003511644e-12 2.594796365e-12 -1.324797986e-12)
(9.999800057e-12 1.809142793e-12 -1.2801937e-12)
(1.413971804e-11 4.928175879e-13 -1.266877664e-12)
(1.844089626e-11 -1.448660163e-12 -1.288786182e-12)
(2.289304116e-11 -4.12393879e-12 -1.348424475e-12)
(2.744705453e-11 -7.649019743e-12 -1.448366383e-12)
(3.201266868e-11 -1.213935267e-11 -1.591492629e-12)
(3.645480806e-11 -1.770052116e-11 -1.780708912e-12)
(4.058968492e-11 -2.441584514e-11 -2.018248976e-12)
(4.418237392e-11 -3.232933085e-11 -2.304601495e-12)
(4.694816258e-11 -4.142359556e-11 -2.637137473e-12)
(4.856011172e-11 -5.15933708e-11 -3.008791258e-12)
(4.866710782e-11 -6.261475683e-11 -3.407475327e-12)
(4.693118969e-11 -7.411341726e-11 -3.817022256e-12)
(4.308694241e-11 -8.55537704e-11 -4.219521585e-12)
(3.699528785e-11 -9.628132137e-11 -4.596715607e-12)
(2.866572544e-11 -1.055674347e-10 -4.924514702e-12)
(1.829409849e-11 -1.125853746e-10 -5.161809681e-12)
(6.409591196e-12 -1.163856529e-10 -5.251487236e-12)
(-6.045818681e-12 -1.163004276e-10 -5.155566052e-12)
(-1.793949422e-11 -1.123331237e-10 -4.877339172e-12)
(-2.832776673e-11 -1.051578019e-10 -4.460668086e-12)
(-3.668004262e-11 -9.572932003e-11 -3.967342037e-12)
(-4.28005238e-11 -8.487944286e-11 -3.442704155e-12)
(-4.668061272e-11 -7.334182047e-11 -2.915256028e-12)
(-4.845986611e-11 -6.177585111e-11 -2.407925975e-12)
(-4.840340239e-11 -5.0721284e-11 -1.942825184e-12)
(-4.68491495e-11 -4.055569896e-11 -1.539654709e-12)
(-4.414937961e-11 -3.150588959e-11 -1.213933328e-12)
(-4.063356021e-11 -2.36805745e-11 -9.769380342e-13)
(-3.659035399e-11 -1.71020174e-11 -8.370997682e-13)
(-3.226065262e-11 -1.173359362e-11 -8.023252048e-13)
(-2.783739386e-11 -7.503430015e-12 -8.828703766e-13)
(-2.346957342e-11 -4.323843989e-12 -1.094764408e-12)
(-1.926759395e-11 -2.107685449e-12 -1.464413163e-12)
(-1.530423911e-11 -7.85254268e-13 -2.036464769e-12)
(-1.158743034e-11 -3.2947194e-13 -2.890794558e-12)
(-7.892833079e-12 -8.000932742e-13 -4.178327162e-12)
(-2.999833898e-12 -2.368882016e-12 -6.137789247e-12)
(1.728301022e-12 4.596237657e-13 -1.091668138e-12)
(5.193038591e-12 -5.463237298e-14 -1.101068771e-12)
(8.699285754e-12 -1.019823428e-12 -1.13334872e-12)
(1.227968249e-11 -2.486318425e-12 -1.192065383e-12)
(1.593846703e-11 -4.517197958e-12 -1.280111354e-12)
(1.965502025e-11 -7.187824459e-12 -1.399450644e-12)
(2.337897283e-11 -1.057739906e-11 -1.551845247e-12)
(2.702790371e-11 -1.476089317e-11 -1.738903405e-12)
(3.048531206e-11 -1.980008954e-11 -1.96179538e-12)
(3.359948259e-11 -2.573276543e-11 -2.22073741e-12)
(3.618434192e-11 -3.255939994e-11 -2.514318881e-12)
(3.802382123e-11 -4.022750191e-11 -2.838756664e-12)
(3.888154427e-11 -4.861430874e-11 -3.18724933e-12)
(3.851812983e-11 -5.750931715e-11 -3.549662046e-12)
(3.671859009e-11 -6.660068708e-11 -3.912852786e-12)
(3.332848062e-11 -7.547534534e-11 -4.261510979e-12)
(2.828926119e-11 -8.364119785e-11 -4.57871867e-12)
(2.166551421e-11 -9.05577145e-11 -4.844582985e-12)
(1.367495803e-11 -9.566079557e-11 -5.034328903e-12)
(4.731353886e-12 -9.841512664e-11 -5.1210554e-12)
(-4.55817183e-12 -9.847698111e-11 -5.087210443e-12)
(-1.35031765e-11 -9.584386686e-11 -4.933507639e-12)
(-2.149614967e-11 -9.085511773e-11 -4.67874245e-12)
(-2.812310841e-11 -8.404274762e-11 -4.350818926e-12)
(-3.316650175e-11 -7.596794644e-11 -3.975458729e-12)
(-3.656214594e-11 -6.716805394e-11 -3.573514296e-12)
(-3.836887699e-11 -5.813156999e-11 -3.162899875e-12)
(-3.874128289e-11 -4.926815335e-11 -2.7597508e-12)
(-3.789458931e-11 -4.088664916e-11 -2.377907972e-12)
(-3.606857927e-11 -3.319452324e-11 -2.02816617e-12)
(-3.350012323e-11 -2.631071581e-11 -1.718066701e-12)
(-3.040583701e-11 -2.028242242e-11 -1.452284896e-12)
(-2.697252264e-11 -1.510156691e-11 -1.233409454e-12)
(-2.335315506e-11 -1.071915913e-11 -1.062878843e-12)
(-1.966722335e-11 -7.056452902e-12 -9.419432739e-13)
(-1.600676322e-11 -4.012577745e-12 -8.72905737e-13)
(-1.245720816e-11 -1.470352817e-12 -8.631706104e-13)
(-9.158353673e-12 6.880932321e-13 -9.478911046e-13)
(-6.411419991e-12 2.498369826e-12 -1.30875961e-12)
(-2.613778186e-12 3.552921928e-12 -2.776665811e-12)
(1.504722841e-12 -2.272825755e-12 -9.393910067e-13)
(4.524064451e-12 -2.696143772e-12 -9.602649855e-13)
(7.568114005e-12 -3.547053329e-12 -1.001670431e-12)
(1.064234351e-11 -4.856321451e-12 -1.065324309e-12)
(1.373939023e-11 -6.666113813e-12 -1.152761929e-12)
(1.683284006e-11 -9.025853415e-12 -1.265162071e-12)
(1.987398582e-11 -1.198572359e-11 -1.403492186e-12)
(2.27899782e-11 -1.558988059e-11 -1.568431539e-12)
(2.54829358e-11 -1.986889157e-11 -1.760133936e-12)
(2.783037452e-11 -2.483105406e-11 -1.977870437e-12)
(2.968763743e-11 -3.045248695e-11 -2.219604887e-12)
(3.089325379e-11 -3.666633258e-11 -2.481572209e-12)
(3.127829649e-11 -4.335195542e-11 -2.75795762e-12)
(3.068072947e-11 -5.032576857e-11 -3.040758637e-12)
(2.89651615e-11 -5.733654989e-11 -3.319939782e-12)
(2.604643164e-11 -6.406959541e-11 -3.583804145e-12)
(2.191291869e-11 -7.016248342e-11 -3.819405357e-12)
(1.664612773e-11 -7.522955751e-11 -4.012605116e-12)
(1.043668636e-11 -7.889288505e-11 -4.148343931e-12)
(3.593405652e-12 -8.082967357e-11 -4.212612953e-12)
(-3.474558908e-12 -8.084753819e-11 -4.196734387e-12)
(-1.031763084e-11 -7.894599414e-11 -4.100809344e-12)
(-1.652664749e-11 -7.531663256e-11 -3.933695116e-12)
(-2.179287133e-11 -7.028171957e-11 -3.709589699e-12)
(-2.592583012e-11 -6.421871791e-11 -3.443757716e-12)
(-2.884423627e-11 -5.751271276e-11 -3.15052628e-12)
(-3.055996552e-11 -5.052541377e-11 -2.843024054e-12)
(-3.115848155e-11 -4.357087317e-11 -2.533129999e-12)
(-3.07755194e-11 -3.6899731e-11 -2.231110292e-12)
(-2.957344627e-11 -3.069498135e-11 -1.945228681e-12)
(-2.772145938e-11 -2.507655881e-11 -1.681591459e-12)
(-2.538120509e-11 -2.011047216e-11 -1.444278397e-12)
(-2.269738934e-11 -1.581953151e-11 -1.235682404e-12)
(-1.979227985e-11 -1.219396403e-11 -1.056919619e-12)
(-1.676299203e-11 -9.200823886e-12 -9.081065727e-13)
(-1.368149387e-11 -6.790967033e-12 -7.880576702e-13)
(-1.060356814e-11 -4.900331331e-12 -6.927107115e-13)
(-7.618707699e-12 -3.436609559e-12 -6.170379678e-13)
(-5.028004381e-12 -2.241734124e-12 -6.187942726e-13)
(-1.945281795e-12 -1.104273249e-12 -1.303313306e-12)
(1.304983006e-12 -4.526266774e-12 -8.376413899e-13)
(3.918811017e-12 -4.90891505e-12 -8.563382669e-13)
(6.539108075e-12 -5.684907707e-12 -8.927957759e-13)
(9.16062201e-12 -6.874314636e-12 -9.477031007e-13)
(1.176893507e-11 -8.504341449e-12 -1.021747785e-12)
(1.433541048e-11 -1.060565342e-11 -1.115495294e-12)
(1.681494565e-11 -1.320749882e-11 -1.229326062e-12)
(1.914473574e-11 -1.633227337e-11 -1.363315679e-12)
(2.124413859e-11 -1.998948558e-11 -1.517049814e-12)
(2.301588721e-11 -2.416910993e-11 -1.689385375e-12)
(2.43490634e-11 -2.883446782e-11 -1.878186772e-12)
(2.512435276e-11 -3.391506295e-11 -2.080084064e-12)
(2.522210828e-11 -3.930017888e-11 -2.290312417e-12)
(2.453353537e-11 -4.483453239e-11 -2.502670538e-12)
(2.297476325e-11 -5.031778395e-11 -2.709636959e-12)
(2.050254708e-11 -5.551002328e-11 -2.902618197e-12)
(1.712929909e-11 -6.014441933e-11 -3.072289042e-12)
(1.293511258e-11 -6.394653037e-11 -3.208983186e-12)
(8.074841963e-12 -6.665969675e-11 -3.303301133e-12)
(2.776700743e-12 -6.807787457e-11 -3.347321574e-12)
(-2.674492398e-12 -6.808411992e-11 -3.336390992e-12)
(-7.972270865e-12 -6.667841408e-11 -3.270498422e-12)
(-1.28318751e-11 -6.397769695e-11 -3.154284826e-12)
(-1.702519376e-11 -6.018803329e-11 -2.995695083e-12)
(-2.039749494e-11 -5.556608558e-11 -2.804169396e-12)
(-2.28688418e-11 -5.038625833e-11 -2.589410992e-12)
(-2.442703741e-11 -4.491529541e-11 -2.3607919e-12)
(-2.511560013e-11 -3.939298689e-11 -2.126996449e-12)
(-2.501869749e-11 -3.401949384e-11 -1.895691045e-12)
(-2.424540708e-11 -2.894986681e-11 -1.673259313e-12)
(-2.291561405e-11 -2.429453882e-11 -1.464678272e-12)
(-2.114880971e-11 -2.01237012e-11 -1.273557595e-12)
(-1.90560145e-11 -1.647372939e-11 -1.102313112e-12)
(-1.673444743e-11 -1.335440268e-11 -9.524192999e-13)
(-1.426422636e-11 -1.075618257e-11 -8.246617498e-13)
(-1.170627067e-11 -8.657105603e-12 -7.191144149e-13)
(-9.102850687e-12 -7.027958955e-12 -6.336369951e-13)
(-6.499756466e-12 -5.828499809e-12 -5.588997323e-13)
(-4.079083681e-12 -4.968829749e-12 -4.932158721e-13)
(-1.476317312e-12 -4.201172356e-12 -7.449183143e-13)
(1.122074565e-12 -6.40784315e-12 -7.496776914e-13)
(3.365423518e-12 -6.757272316e-12 -7.649147464e-13)
(5.602714419e-12 -7.463568397e-12 -7.948820182e-13)
(7.822909768e-12 -8.539223039e-12 -8.398841858e-13)
(1.000805144e-11 -1.000053746e-11 -9.001821951e-13)
(1.212968269e-11 -1.186473364e-11 -9.759581431e-13)
(1.414736588e-11 -1.414626869e-11 -1.067224268e-12)
(1.600799144e-11 -1.685261946e-11 -1.173710936e-12)
(1.764609923e-11 -1.997965413e-11 -1.294729803e-12)
(1.898539227e-11 -2.350672394e-11 -1.429018035e-12)
(1.994168442e-11 -2.739171225e-11 -1.574578533e-12)
(2.042754272e-11 -3.156645648e-11 -1.728543191e-12)
(2.035882705e-11 -3.593319027e-11 -1.887095258e-12)
(1.96631244e-11 -4.036291875e-11 -2.045475889e-12)
(1.828967061e-11 -4.469682016e-11 -2.198086586e-12)
(1.621979626e-11 -4.875175741e-11 -2.338688111e-12)
(1.347641159e-11 -5.233046941e-11 -2.460683282e-12)
(1.013085031e-11 -5.523623125e-11 -2.557494086e-12)
(6.305342164e-12 -5.729137026e-11 -2.623076953e-12)
(2.168982476e-12 -5.835866315e-11 -2.65264567e-12)
(-2.075098416e-12 -5.836257125e-11 -2.643502689e-12)
(-6.211207868e-12 -5.730315232e-11 -2.595627388e-12)
(-1.003626671e-11 -5.525605801e-11 -2.511685765e-12)
(-1.338125996e-11 -5.235860472e-11 -2.396456365e-12)
(-1.612405516e-11 -4.878853698e-11 -2.255989247e-12)
(-1.819344609e-11 -4.474263108e-11 -2.096879872e-12)
(-1.956669408e-11 -4.041817044e-11 -1.925765773e-12)
(-2.026267999e-11 -3.59982644e-11 -1.748965709e-12)
(-2.033239931e-11 -3.164164485e-11 -1.57219574e-12)
(-1.984849125e-11 -2.747715712e-11 -1.400363727e-12)
(-1.889529378e-11 -2.36023669e-11 -1.237461511e-12)
(-1.756039566e-11 -2.008520469e-11 -1.086559066e-12)
(-1.592809082e-11 -1.696753517e-11 -9.498851028e-13)
(-1.407473303e-11 -1.426975776e-11 -8.289699968e-13)
(-1.206569495e-11 -1.199585139e-11 -7.248365566e-13)
(-9.953270251e-12 -1.01386393e-11 -6.381896246e-13)
(-7.774962344e-12 -8.685203721e-12 -5.690126304e-13)
(-5.559578493e-12 -7.620026392e-12 -5.128071882e-13)
(-3.400676928e-12 -6.908555729e-12 -4.569992976e-13)
(-1.177624402e-12 -6.401679986e-12 -5.322234619e-13)
(9.555538394e-13 -7.9788788e-12 -6.661290592e-13)
(2.863085771e-12 -8.295832217e-12 -6.783786446e-13)
(4.757157352e-12 -8.933926838e-12 -7.025662388e-13)
(6.623652949e-12 -9.900063878e-12 -7.388422209e-13)
(8.443424464e-12 -1.120267732e-11 -7.872587472e-13)
(1.018967924e-11 -1.284950156e-11 -8.477825803e-13)
(1.182705983e-11 -1.484478379e-11 -9.202218783e-13)
(1.33113503e-11 -1.718609376e-11 -1.004138792e-12)
(1.459003411e-11 -1.986088223e-11 -1.098753285e-12)
(1.560382909e-11 -2.284296703e-11 -1.202843815e-12)
(1.628933086e-11 -2.608919774e-11 -1.314653218e-12)
(1.658287474e-11 -2.95366556e-11 -1.431814328e-12)
(1.6425646e-11 -3.310087183e-11 -1.551316159e-12)
(1.576990548e-11 -3.66756725e-11 -1.669530564e-12)
(1.45859246e-11 -4.013530416e-11 -1.78230357e-12)
(1.286889783e-11 -4.333938937e-11 -1.885114983e-12)
(1.064482525e-11 -4.614094675e-11 -1.973303851e-12)
(7.974211734e-12 -4.839722956e-11 -2.042360874e-12)
(4.952410058e-12 -4.998269477e-11 -2.088295059e-12)
(1.705499754e-12 -5.080284422e-11 -2.108066423e-12)
(-1.618981562e-12 -5.080665686e-11 -2.100009973e-12)
(-4.865757629e-12 -4.999418213e-11 -2.064111939e-12)
(-7.887327496e-12 -4.841653367e-11 -2.002015909e-12)
(-1.055767273e-11 -4.616828598e-11 -1.916754456e-12)
(-1.278152131e-11 -4.337504569e-11 -1.812323733e-12)
(-1.449847526e-11 -4.017960997e-11 -1.693253847e-12)
(-1.568267072e-11 -3.672898836e-11 -1.564249531e-12)
(-1.633907453e-11 -3.316354753e-11 -1.429902929e-12)
(-1.649759021e-11 -2.960898121e-11 -1.294468222e-12)
(-1.620612913e-11 -2.617135043e-11 -1.161699853e-12)
(-1.552366162e-11 -2.293496508e-11 -1.034759104e-12)
(-1.451397797e-11 -1.99625516e-11 -9.16187306e-13)
(-1.324056757e-11 -1.729704501e-11 -8.079351317e-13)
(-1.176276366e-11 -1.496439493e-11 -7.114334433e-13)
(-1.01331079e-11 -1.29769105e-11 -6.277018813e-13)
(-8.395622993e-12 -1.133688962e-11 -5.575176757e-13)
(-6.584237777e-12 -1.004063256e-11 -5.015109881e-13)
(-4.723108474e-12 -9.082683891e-12 -4.58559374e-13)
(-2.860737275e-12 -8.452867686e-12 -4.198093388e-13)
(-9.694415691e-13 -8.081187185e-12 -4.344490959e-13)
(8.051211486e-13 -9.281760585e-12 -5.850121183e-13)
(2.410375479e-12 -9.567485687e-12 -5.9481161e-13)
(3.998482758e-12 -1.014084345e-11 -6.1415848e-13)
(5.554159289e-12 -1.100472762e-11 -6.431253669e-13)
(7.058613755e-12 -1.216202426e-11 -6.816610399e-13)
(8.487576216e-12 -1.361391468e-11 -7.296221439e-13)
(9.810773679e-12 -1.535778979e-11 -7.867205081e-13)
(1.0991893e-11 -1.738488913e-11 -8.524609456e-13)
(1.198922597e-11 -1.967781068e-11 -9.260769605e-13)
(1.275707677e-11 -2.220806932e-11 -1.006468831e-12)
(1.324799585e-11 -2.493392833e-11 -1.092149506e-12)
(1.341586863e-11 -2.779878799e-11 -1.181206592e-12)
(1.321981015e-11 -3.073047739e-11 -1.271292016e-12)
(1.262869207e-11 -3.364184057e-11 -1.359653777e-12)
(1.162595375e-11 -3.643299926e-11 -1.44321408e-12)
(1.021415367e-11 -3.899555827e-11 -1.518694528e-12)
(8.418571395e-12 -4.121879703e-11 -1.582787542e-12)
(6.289102287e-12 -4.299757487e-11 -1.632368395e-12)
(3.899727502e-12 -4.42413246e-11 -1.664742701e-12)
(1.34502039e-12 -4.48831079e-11 -1.677909353e-12)
(-1.266436323e-12 -4.488724698e-11 -1.670793653e-12)
(-3.821084685e-12 -4.425377177e-11 -1.643389713e-12)
(-6.210370554e-12 -4.301841628e-11 -1.596763982e-12)
(-8.339771976e-12 -4.124816732e-11 -1.532917642e-12)
(-1.013537915e-11 -3.903363428e-11 -1.454555023e-12)
(-1.154738876e-11 -3.647999102e-11 -1.364824193e-12)
(-1.255063165e-11 -3.369797423e-11 -1.267074105e-12)
(-1.314267284e-11 -3.079596716e-11 -1.164645373e-12)
(-1.334020221e-11 -2.787379849e-11 -1.060700897e-12)
(-1.317447511e-11 -2.501853298e-11 -9.58100808e-13)
(-1.268649495e-11 -2.230221281e-11 -8.593238247e-13)
(-1.192247559e-11 -1.978127917e-11 -7.664329362e-13)
(-1.092993415e-11 -1.749729138e-11 -6.810787109e-13)
(-9.754598525e-12 -1.547854538e-11 -6.04530633e-13)
(-8.438189632e-12 -1.374223542e-11 -5.377310289e-13)
(-7.016992311e-12 -1.2296897e-11 -4.813914384e-13)
(-5.52075662e-12 -1.114509907e-11 -4.361561738e-13)
(-3.971813616e-12 -1.028668091e-11 -4.021756341e-13)
(-2.399180222e-12 -9.720341166e-12 -3.751136219e-13)
(-8.05943901e-13 -9.418127879e-12 -3.720173199e-13)
(6.698287375e-13 -1.035133665e-11 -5.059915026e-13)
(2.004002906e-12 -1.060823624e-11 -5.137725708e-13)
(3.319915423e-12 -1.112241742e-11 -5.291059219e-13)
(4.602472137e-12 -1.189398298e-11 -5.520209623e-13)
(5.834237404e-12 -1.292200459e-11 -5.82418538e-13)
(6.99391371e-12 -1.420325381e-11 -6.201085647e-13)
(8.05608538e-12 -1.573066736e-11 -6.647734071e-13)
(8.991329416e-12 -1.749163791e-11 -7.159262726e-13)
(9.766853921e-12 -1.946626077e-11 -7.728702051e-13)
(1.034771144e-11 -2.162569213e-11 -8.346603637e-13)
(1.06986122e-11 -2.393080301e-11 -9.000735623e-13)
(1.078632567e-11 -2.633134429e-11 -9.675906645e-13)
(1.058259342e-11 -2.876586402e-11 -1.035398543e-12)
(1.006738362e-11 -3.116262375e-11 -1.10142058e-12)
(9.232206894e-12 -3.344172774e-11 -1.163380135e-12)
(8.08310005e-12 -3.551857965e-11 -1.218896551e-12)
(6.642808656e-12 -3.730861669e-11 -1.265611361e-12)
(4.951684165e-12 -3.87330597e-11 -1.301337982e-12)
(3.066877024e-12 -3.972517641e-11 -1.324226561e-12)
(1.059577379e-12 -4.023631746e-11 -1.33292707e-12)
(-9.896454309e-13 -4.024078969e-11 -1.326724925e-12)
(-2.996926933e-12 -3.973860821e-11 -1.305620163e-12)
(-4.881723047e-12 -3.875549463e-11 -1.270329371e-12)
(-6.572890727e-12 -3.734012307e-11 -1.222209432e-12)
(-8.013345003e-12 -3.55592463e-11 -1.163123832e-12)
(-9.162815213e-12 -3.349165659e-11 -1.095282478e-12)
(-9.998646859e-12 -3.122191629e-11 -1.02108056e-12)
(-1.051489879e-11 -2.883460108e-11 -9.429518249e-13)
(-1.072015603e-11 -2.640955949e-11 -8.632451473e-13)
(-1.063454345e-11 -2.401845374e-11 -7.841296121e-13)
(-1.028640781e-11 -2.172263123e-11 -7.075302512e-13)
(-9.709056539e-12 -1.957221171e-11 -6.350935594e-13)
(-8.937833782e-12 -1.760617747e-11 -5.681790511e-13)
(-8.007707698e-12 -1.585321576e-11 -5.078708168e-13)
(-6.951459521e-12 -1.433306401e-11 -4.550032268e-13)
(-5.798486652e-12 -1.305813642e-11 -4.102073682e-13)
(-4.574021689e-12 -1.203531099e-11 -3.740197315e-13)
(-3.298350565e-12 -1.126805379e-11 -3.468691785e-13)
(-1.992184248e-12 -1.075857363e-11 -3.270499384e-13)
(-6.672282817e-13 -1.049776832e-11 -3.201462902e-13)
(5.4822155e-13 -1.121784911e-11 -4.290047825e-13)
(1.63929471e-12 -1.144913905e-11 -4.351093772e-13)
(2.71273602e-12 -1.1911096e-11 -4.471124429e-13)
(3.754572116e-12 -1.260192554e-11 -4.650205128e-13)
(4.749342927e-12 -1.351814502e-11 -4.887180886e-13)
(5.678913449e-12 -1.465364712e-11 -5.180063404e-13)
(6.522389583e-12 -1.599859036e-11 -5.525786149e-13)
(7.256299591e-12 -1.753818986e-11 -5.919938172e-13)
(7.855171744e-12 -1.925151897e-11 -6.356511201e-13)
(8.292534524e-12 -2.111044915e-11 -6.827674559e-13)
(8.54234369e-12 -2.30788718e-11 -7.323608517e-13)
(8.580807625e-12 -2.511235981e-11 -7.832438126e-13)
(8.388530678e-12 -2.715843404e-11 -8.340310331e-13)
(7.952828355e-12 -2.915758758e-11 -8.831664385e-13)
(7.269997855e-12 -3.104518085e-11 -9.289727896e-13)
(6.347264711e-12 -3.275424068e-11 -9.697234936e-13)
(5.204091345e-12 -3.421907777e-11 -1.003733557e-12)
(3.872542571e-12 -3.537949438e-11 -1.029463775e-12)
(2.396469741e-12 -3.618520165e-11 -1.045630417e-12)
(8.294071095e-13 -3.659993399e-11 -1.051308471e-12)
(-7.687270756e-13 -3.660467129e-11 -1.046013851e-12)
(-2.33578963e-12 -3.61994195e-11 -1.029749946e-12)
(-3.811885416e-12 -3.540320929e-11 -1.00300872e-12)
(-5.143523645e-12 -3.425231334e-11 -9.667260518e-13)
(-6.286912661e-12 -3.279702259e-11 -9.222012296e-13)
(-7.210058751e-12 -3.109752919e-11 -8.709960787e-13)
(-7.893576145e-12 -2.921950576e-11 -8.148283524e-13)
(-8.330316036e-12 -2.722989453e-11 -7.554703733e-13)
(-8.524054859e-12 -2.519328708e-11 -6.946604998e-13)
(-8.487546849e-12 -2.316912355e-11 -6.340322347e-13)
(-8.240252927e-12 -2.120979616e-11 -5.75063337e-13)
(-7.80602183e-12 -1.935962499e-11 -5.190450648e-13)
(-7.210938192e-12 -1.765459442e-11 -4.670696655e-13)
(-6.481485067e-12 -1.612269691e-11 -4.200324842e-13)
(-5.643110296e-12 -1.478471579e-11 -3.786440563e-13)
(-4.719239291e-12 -1.365528027e-11 -3.434516393e-13)
(-3.73067399e-12 -1.274405733e-11 -3.148946704e-13)
(-2.695076253e-12 -1.205710755e-11 -2.933747693e-13)
(-1.628894758e-12 -1.159852578e-11 -2.783739743e-13)
(-5.451386001e-13 -1.136708231e-11 -2.716842811e-13)
(4.385387963e-13 -1.190740923e-11 -3.539698024e-13)
(1.310756016e-12 -1.21167735e-11 -3.586712382e-13)
(2.167128934e-12 -1.25342338e-11 -3.678975536e-13)
(2.995423116e-12 -1.315673546e-11 -3.816444324e-13)
(3.78251582e-12 -1.397913331e-11 -3.997985294e-13)
(4.513468373e-12 -1.499350537e-11 -4.221749641e-13)
(5.171542642e-12 -1.618836477e-11 -4.485017776e-13)
(5.738400808e-12 -1.754782481e-11 -4.784033138e-13)
(6.194594636e-12 -1.905080758e-11 -5.113847564e-13)
(6.520358606e-12 -2.067039692e-11 -5.468188721e-13)
(6.69670153e-12 -2.237344436e-11 -5.839373445e-13)
(6.706763439e-12 -2.412054186e-11 -6.218298115e-13)
(6.537365651e-12 -2.586647277e-11 -6.594534613e-13)
(6.180636799e-12 -2.756123364e-11 -6.956558259e-13)
(5.635553798e-12 -2.915168107e-11 -7.292125175e-13)
(4.909203133e-12 -3.058379488e-11 -7.588796069e-13)
(4.01755495e-12 -3.180546497e-11 -7.834579271e-13)
(2.985560282e-12 -3.276961368e-11 -8.018647086e-13)
(1.846437416e-12 -3.343737242e-11 -8.132065232e-13)
(6.401077418e-13 -3.378096042e-11 -8.168456421e-13)
(-5.891309406e-13 -3.378588839e-11 -8.124513484e-13)
(-1.795464934e-12 -3.34521571e-11 -8.000284456e-13)
(-2.93461689e-12 -3.279425578e-11 -7.799180196e-13)
(-3.966704022e-12 -3.183996076e-11 -7.527703699e-13)
(-4.858560846e-12 -3.062812968e-11 -7.194951345e-13)
(-5.585298385e-12 -2.920582088e-11 -6.811967396e-13)
(-6.131012202e-12 -2.762511525e-11 -6.391036892e-13)
(-6.488680121e-12 -2.593999305e-11 -5.944990034e-13)
(-6.659385042e-12 -2.420354644e-11 -5.486574878e-13)
(-6.651052524e-12 -2.246571512e-11 -5.027937974e-13)
(-6.476909251e-12 -2.077163765e-11 -4.580235185e-13)
(-6.153854799e-12 -1.916062786e-11 -4.153378458e-13)
(-5.700905704e-12 -1.766572404e-11 -3.755909564e-13)
(-5.137829072e-12 -1.631371942e-11 -3.394979519e-13)
(-4.484042884e-12 -1.512556267e-11 -3.076402582e-13)
(-3.757828194e-12 -1.411700888e-11 -2.804760097e-13)
(-2.975848963e-12 -1.329940595e-11 -2.583653125e-13)
(-2.152819013e-12 -1.268056951e-11 -2.416277617e-13)
(-1.302159008e-12 -1.226586068e-11 -2.301988235e-13)
(-4.357848085e-13 -1.205734337e-11 -2.246830222e-13)
(3.388572838e-13 -1.244199627e-11 -2.807318421e-13)
(1.012470147e-12 -1.263335419e-11 -2.842473762e-13)
(1.672774058e-12 -1.301440284e-11 -2.911363333e-13)
(2.309672607e-12 -1.358127082e-11 -3.013901763e-13)
(2.912573024e-12 -1.432776483e-11 -3.149087814e-13)
(3.469681984e-12 -1.524486537e-11 -3.315346008e-13)
(3.968070138e-12 -1.632017526e-11 -3.510433427e-13)
(4.393856784e-12 -1.753735718e-11 -3.731336527e-13)
(4.732599635e-12 -1.887563246e-11 -3.974175369e-13)
(4.969897743e-12 -2.030941946e-11 -4.234125884e-13)
(5.092198747e-12 -2.180819364e-11 -4.505378481e-13)
(5.087779214e-12 -2.333665091e-11 -4.781154377e-13)
(4.947838897e-12 -2.48552489e-11 -5.053798026e-13)
(4.667620052e-12 -2.632118033e-11 -5.314959261e-13)
(4.247436617e-12 -2.768979873e-11 -5.555872208e-13)
(3.693480815e-12 -2.891646825e-11 -5.767726962e-13)
(3.018272542e-12 -2.995874961e-11 -5.942113849e-13)
(2.240635124e-12 -3.077877099e-11 -6.071507514e-13)
(1.385123006e-12 -3.134557588e-11 -6.14974839e-13)
(4.808911323e-13 -3.163720338e-11 -6.172471017e-13)
(-4.399237569e-13 -3.164225208e-11 -6.137429152e-13)
(-1.34415702e-12 -3.136072052e-11 -6.04467455e-13)
(-2.199689073e-12 -3.080400537e-11 -5.896563032e-13)
(-2.97739754e-12 -2.999405756e-11 -5.697587349e-13)
(-3.652772782e-12 -2.896181586e-11 -5.45406331e-13)
(-4.207044317e-12 -2.774512495e-11 -5.173713734e-13)
(-4.627748319e-12 -2.638638674e-11 -4.865200648e-13)
(-4.90874723e-12 -2.493018967e-11 -4.537653339e-13)
(-5.049776926e-12 -2.342112308e-11 -4.200232405e-13)
(-5.055638059e-12 -2.190192714e-11 -3.86175973e-13)
(-4.935165673e-12 -2.041206598e-11 -3.530432606e-13)
(-4.70010822e-12 -1.898675283e-11 -3.213628446e-13)
(-4.364029751e-12 -1.765640846e-11 -2.917796085e-13)
(-3.941323691e-12 -1.644650019e-11 -2.648421375e-13)
(-3.446399753e-12 -1.537768827e-11 -2.410047904e-13)
(-2.893082575e-12 -1.446619509e-11 -2.206330237e-13)
(-2.294234616e-12 -1.372430809e-11 -2.0401456e-13)
(-1.661530986e-12 -1.31609502e-11 -1.913926491e-13)
(-1.005668622e-12 -1.278236034e-11 -1.828439283e-13)
(-3.366212889e-13 -1.259206381e-11 -1.786090844e-13)
(2.471808699e-13 -1.283945705e-11 -2.090580441e-13)
(7.383494481e-13 -1.301682312e-11 -2.11555378e-13)
(1.219212312e-12 -1.336964983e-11 -2.164435488e-13)
(1.682061125e-12 -1.389355265e-11 -2.237135988e-13)
(2.118921269e-12 -1.458170301e-11 -2.332855183e-13)
(2.521057943e-12 -1.542445028e-11 -2.450367585e-13)
(2.879050828e-12 -1.640893808e-11 -2.587969356e-13)
(3.182943609e-12 -1.751873274e-11 -2.743414678e-13)
(3.422532353e-12 -1.873352117e-11 -2.913856211e-13)
(3.587797425e-12 -2.002893974e-11 -3.095799982e-13)
(3.669470089e-12 -2.137659732e-11 -3.285088062e-13)
(3.659708175e-12 -2.274435212e-11 -3.47692249e-13)
(3.552836225e-12 -2.409689225e-11 -3.665941479e-13)
(3.346086972e-12 -2.539665001e-11 -3.846354808e-13)
(3.040265883e-12 -2.660505133e-11 -4.012140214e-13)
(2.64025225e-12 -2.768406355e-11 -4.157296237e-13)
(2.155252208e-12 -2.859796214e-11 -4.276137638e-13)
(1.598734013e-12 -2.931519442e-11 -4.363611738e-13)
(9.880050283e-13 -2.98101834e-11 -4.415607946e-13)
(3.434315467e-13 -3.006489631e-11 -4.42922924e-13)
(-3.126480895e-13 -3.007000681e-11 -4.402995885e-13)
(-9.572182255e-13 -2.982551363e-11 -4.336956843e-13)
(-1.567953922e-12 -2.934073845e-11 -4.232694231e-13)
(-2.124514513e-12 -2.863370357e-11 -4.093220391e-13)
(-2.609628234e-12 -2.772996658e-11 -3.922781828e-13)
(-3.009869263e-12 -2.66610498e-11 -3.72659505e-13)
(-3.316076926e-12 -2.546263557e-11 -3.510544327e-13)
(-3.523416463e-12 -2.417270267e-11 -3.280871521e-13)
(-3.631122514e-12 -2.282976042e-11 -3.043884736e-13)
(-3.641995429e-12 -2.147130156e-11 -2.805706617e-13)
(-3.561734944e-12 -2.013255334e-11 -2.572075584e-13)
(-3.398197273e-12 -1.884556324e-11 -2.348205544e-13)
(-3.160653058e-12 -1.763861943e-11 -2.138702571e-13)
(-2.859108887e-12 -1.653597667e-11 -1.947531638e-13)
(-2.503737787e-12 -1.555783925e-11 -1.778021977e-13)
(-2.104448013e-12 -1.472053995e-11 -1.632895333e-13)
(-1.670604072e-12 -1.403684721e-11 -1.514316314e-13)
(-1.210871259e-12 -1.351633751e-11 -1.424057665e-13)
(-7.332726166e-13 -1.316582715e-11 -1.363103078e-13)
(-2.454882807e-13 -1.298954416e-11 -1.332662455e-13)
(1.6149122e-13 -1.311355962e-11 -1.386402017e-13)
(4.822773677e-13 -1.328096987e-11 -1.402408526e-13)
(7.960445283e-13 -1.36137359e-11 -1.43370598e-13)
(1.097619427e-12 -1.410716984e-11 -1.480225222e-13)
(1.38167539e-12 -1.47540813e-11 -1.541411028e-13)
(1.642446919e-12 -1.554448088e-11 -1.616429646e-13)
(1.873787675e-12 -1.64653085e-11 -1.704140647e-13)
(2.069273688e-12 -1.750018716e-11 -1.803059796e-13)
(2.222392636e-12 -1.862924896e-11 -1.911324059e-13)
(2.326821599e-12 -1.982908384e-11 -2.026666774e-13)
(2.376786364e-12 -2.107286174e-11 -2.146411662e-13)
(2.367484278e-12 -2.233067375e-11 -2.267493412e-13)
(2.295541012e-12 -2.35701266e-11 -2.386510904e-13)
(2.159460972e-12 -2.475720626e-11 -2.499816459e-13)
(1.960023076e-12 -2.585740127e-11 -2.603640994e-13)
(1.700570005e-12 -2.68370465e-11 -2.694251173e-13)
(1.387141672e-12 -2.766481552e-11 -2.768129815e-13)
(1.028413861e-12 -2.83132603e-11 -2.822166513e-13)
(6.354211145e-13 -2.876027436e-11 -2.853842083e-13)
(2.210677223e-13 -2.899034616e-11 -2.861388857e-13)
(-2.005410712e-13 -2.899547754e-11 -2.843910089e-13)
(-6.148886519e-13 -2.877566877e-11 -2.801444956e-13)
(-1.007879019e-12 -2.833891638e-11 -2.73497124e-13)
(-1.366625673e-12 -2.770072379e-11 -2.646345373e-13)
(-1.680119011e-12 -2.688317933e-11 -2.538187379e-13)
(-1.939713305e-12 -2.591370024e-11 -2.413724395e-13)
(-2.139401191e-12 -2.482356806e-11 -2.27660975e-13)
(-2.275872079e-12 -2.364638882e-11 -2.130735304e-13)
(-2.348375814e-12 -2.241660158e-11 -1.980053189e-13)
(-2.358430982e-12 -2.116813639e-11 -1.828419903e-13)
(-2.309427356e-12 -1.9933293e-11 -1.679471341e-13)
(-2.206174308e-12 -1.874187956e-11 -1.536532732e-13)
(-2.054443172e-12 -1.762062098e-11 -1.402563197e-13)
(-1.860543515e-12 -1.659282162e-11 -1.280131154e-13)
(-1.630963038e-12 -1.567824876e-11 -1.1714141e-13)
(-1.372090535e-12 -1.489319073e-11 -1.078213157e-13)
(-1.090032176e-12 -1.425063637e-11 -1.001975872e-13)
(-7.905109241e-13 -1.376052104e-11 -9.438705386e-14)
(-4.78875275e-13 -1.34300113e-11 -9.046695075e-14)
(-1.60338303e-13 -1.326369034e-11 -8.850618399e-14)
(7.97706207e-14 -1.327405828e-11 -6.910083521e-14)
(2.38173163e-13 -1.34355498e-11 -6.988262854e-14)
(3.93012333e-13 -1.375633596e-11 -7.140959974e-14)
(5.417157315e-13 -1.423159439e-11 -7.367834209e-14)
(6.816102356e-13 -1.485395551e-11 -7.666038319e-14)
(8.098307419e-13 -1.561326995e-11 -8.031359611e-14)
(9.233445475e-13 -1.649640264e-11 -8.458094309e-14)
(1.019003145e-12 -1.748705787e-11 -8.938873618e-14)
(1.09363567e-12 -1.856567659e-11 -9.464499736e-14)
(1.144184647e-12 -1.970945078e-11 -1.002383487e-13)
(1.167880184e-12 -2.089249849e-11 -1.060378569e-13)
(1.162443311e-12 -2.208623745e-11 -1.118941838e-13)
(1.126303714e-12 -2.325998306e-11 -1.176423095e-13)
(1.058812302e-12 -2.438177875e-11 -1.231059621e-13)
(9.604256416e-13 -2.54194443e-11 -1.281037151e-13)
(8.328380027e-13 -2.634180206e-11 -1.324565261e-13)
(6.790384056e-13 -2.712001452e-11 -1.359962914e-13)
(5.032751748e-13 -2.772894391e-11 -1.385748077e-13)
(3.109191717e-13 -2.81484285e-11 -1.400723838e-13)
(1.082283677e-13 -2.83643651e-11 -1.404052842e-13)
(-9.797070329e-14 -2.836949625e-11 -1.395312471e-13)
(-3.006570742e-13 -2.8163824e-11 -1.374524761e-13)
(-4.930089372e-13 -2.775460753e-11 -1.342157579e-13)
(-6.687774589e-13 -2.715594486e-11 -1.299096885e-13)
(-8.226046878e-13 -2.638798168e-11 -1.246593395e-13)
(-9.502579939e-13 -2.547582564e-11 -1.186189713e-13)
(-1.048765508e-12 -2.444826814e-11 -1.119635624e-13)
(-1.11644998e-12 -2.333642418e-11 -1.0487997e-13)
(-1.152870078e-12 -2.217239577e-11 -9.755847655e-14)
(-1.158686847e-12 -2.098804807e-11 -9.018533968e-14)
(-1.135478122e-12 -1.981396449e-11 -8.293676759e-14)
(-1.08552526e-12 -1.867862043e-11 -7.59745299e-14)
(-1.011595118e-12 -1.760778991e-11 -6.94432089e-14)
(-9.167366649e-13 -1.662417699e-11 -6.346892467e-14)
(-8.041068932e-13 -1.574724615e-11 -5.815923232e-14)
(-6.768356172e-13 -1.499321374e-11 -5.360373793e-14)
(-5.379343838e-13 -1.437515544e-11 -4.987495894e-14)
(-3.902461898e-13 -1.390318145e-11 -4.70311739e-14)
(-2.364419095e-13 -1.358464446e-11 -4.511353747e-14)
(-7.916731868e-14 -1.342430586e-11 -4.415581314e-14)
(1.418021242e-14 -6.663438964e-12 -1.428889276e-18)
(1.198204391e-14 -6.743209847e-12 -1.290790543e-18)