/*--------------------------------*- C++ -*----------------------------------*\
  =========                 |
  \\      /  F ield         | OpenFOAM: The Open Source CFD Toolbox
   \\    /   O peration     | Website:  https://openfoam.org
    \\  /    A nd           | Version:  6
     \\/     M anipulation  |
\*---------------------------------------------------------------------------*/
FoamFile
{
    version     2.0;
    format      ascii;
    class       surfaceScalarField;
    location    "0.0057";
    object      phi;
}
// * * * * * * * * * * * * * * * * * * * * * * * * * * * * * * * * * * * * * //

dimensions      [0 3 -1 0 0 0 0];

internalField   nonuniform List<scalar> 
19000
(
1.497972194e-18
-2.3491316e-22
1.500694288e-18
-7.115091422e-22
1.503904955e-18
-1.197192504e-21
1.507666261e-18
-1.678770682e-21
1.511914348e-18
-2.155450376e-21
1.516641011e-18
-2.625609126e-21
1.521835416e-18
-3.088038661e-21
1.527484426e-18
-3.540841457e-21
1.53357245e-18
-3.982578259e-21
1.540081913e-18
-4.411097493e-21
1.546992888e-18
-4.824706953e-21
1.554283391e-18
-5.220965244e-21
1.56192886e-18
-5.597878599e-21
1.569902301e-18
-5.952671948e-21
1.578173655e-18
-6.283006018e-21
1.586709871e-18
-6.58572419e-21
1.595474232e-18
-6.858097314e-21
1.604426461e-18
-7.096530444e-21
1.613522068e-18
-7.29784255e-21
1.622712482e-18
-7.457947622e-21
1.631944367e-18
-7.573180473e-21
1.641159701e-18
-7.63895475e-21
1.650295031e-18
-7.651143418e-21
1.65928158e-18
-7.60469865e-21
1.668044592e-18
-7.495067698e-21
1.676503615e-18
-7.316774149e-21
1.684572005e-18
-7.064880276e-21
1.692157327e-18
-6.73355739e-21
1.699160868e-18
-6.317636385e-21
1.705478039e-18
-5.811175114e-21
1.710997929e-18
-5.209082557e-21
1.715603901e-18
-4.505653379e-21
1.719173472e-18
-3.696236972e-21
1.72157933e-18
-2.775732241e-21
1.722689602e-18
-1.740335576e-21
1.722369198e-18
-5.860453555e-22
1.720480316e-18
6.894717661e-22
1.716884036e-18
2.088362533e-21
1.711441144e-18
3.610635427e-21
1.704014221e-18
5.255692636e-21
1.694469043e-18
7.020340412e-21
1.682677324e-18
8.900404369e-21
1.668518726e-18
1.088869324e-20
1.651884162e-18
1.297666755e-20
1.632678233e-18
1.515232956e-20
1.610822897e-18
1.740194552e-20
1.58626013e-18
1.970788906e-20
1.558955731e-18
2.205048724e-20
1.528901981e-18
2.440589702e-20
1.496121354e-18
2.674817035e-20
1.460668964e-18
2.904724731e-20
1.422636023e-18
3.127130018e-20
1.382151881e-18
3.338487032e-20
1.339386923e-18
3.535149988e-20
1.294553668e-18
3.713198182e-20
1.247908358e-18
3.868725352e-20
1.199750279e-18
3.997674123e-20
1.150421351e-18
4.096151967e-20
1.100303356e-18
4.160277078e-20
1.049815624e-18
4.186522835e-20
9.994104744e-19
4.171570908e-20
9.49569238e-19
4.112672234e-20
9.007958263e-19
4.007486549e-20
8.536107348e-19
3.854433997e-20
8.085424537e-19
3.652496965e-20
7.661196644e-19
3.401544794e-20
7.268614356e-19
3.102088671e-20
6.91269178e-19
2.755574538e-20
6.598173358e-19
2.364086003e-20
6.329464663e-19
1.930594641e-20
6.110551764e-19
1.458597703e-20
5.944946057e-19
9.52313653e-21
5.835618462e-19
4.162538998e-21
5.784964278e-19
-1.446233227e-21
5.794762852e-19
-7.253764e-21
5.866175026e-19
-1.320930558e-20
5.99973759e-19
-1.926536312e-20
6.195394869e-19
-2.537592741e-20
6.452520246e-19
-3.150076037e-20
6.76996666e-19
-3.760318554e-20
7.146096571e-19
-4.365384976e-20
7.578833062e-19
-4.962780835e-20
8.06568293e-19
-5.550741775e-20
8.603776402e-19
-6.127844472e-20
9.18987398e-19
-6.693193252e-20
9.820386589e-19
-7.245947293e-20
1.049135849e-18
-7.785444366e-20
1.119846021e-18
-8.310709217e-20
1.193694157e-18
-8.820587003e-20
1.270159557e-18
-9.313306889e-20
1.348668686e-18
-9.786679286e-20
1.428590073e-18
-1.023775611e-19
1.509226949e-18
-1.066311456e-19
1.589813285e-18
-1.105862542e-19
1.669508754e-18
-1.141982298e-19
1.747397972e-18
-1.174177346e-19
1.822489187e-18
-1.201950215e-19
1.893717565e-18
-1.22479215e-19
1.959948066e-18
-1.242225679e-19
2.019982687e-18
-1.253796816e-19
2.072566663e-18
-1.259110834e-19
2.116397742e-18
-1.257819226e-19
2.15013312e-18
-1.249645244e-19
2.172398434e-18
-1.234365077e-19
2.181794882e-18
-1.211824505e-19
2.176909577e-18
-1.181916229e-19
2.156325196e-18
-1.144589851e-19
2.118632029e-18
-1.099827074e-19
2.062436548e-18
-1.04764637e-19
1.986369623e-18
-9.880799261e-20
1.889091092e-18
-9.211783296e-20
1.769295167e-18
-8.469931427e-20
1.625714984e-18
-7.655797423e-20
1.457129974e-18
-6.769892518e-20
1.262382935e-18
-5.812660569e-20
1.04041122e-18
-4.784589659e-20
7.901769899e-19
-3.685883445e-20
5.100570074e-19
-2.517086375e-20
1.856282254e-19
-1.278617676e-20
6.949008435e-32
1.49676045e-18
-4.784771152e-22
1.499468851e-18
-1.439729138e-21
1.502690809e-18
-2.404591388e-21
1.506458066e-18
-3.366314858e-21
1.510715043e-18
-4.319541842e-21
1.515452305e-18
-5.260954374e-21
1.520659748e-18
-6.186872724e-21
1.526323779e-18
-7.094276843e-21
1.532429644e-18
-7.979301038e-21
1.538959323e-18
-8.838565662e-21
1.545893774e-18
-9.667727983e-21
1.553210581e-18
-1.046288013e-20
1.560886108e-18
-1.12190721e-20
1.56889295e-18
-1.193175236e-20
1.577202019e-18
-1.259526699e-20
1.585779871e-18
-1.320432889e-20
1.594590822e-18
-1.375247092e-20
1.603594221e-18
-1.423355836e-20
1.612746663e-18
-1.464019248e-20
1.621999202e-18
-1.496527836e-20
1.631299606e-18
-1.520041848e-20
1.640589438e-18
-1.533755129e-20
1.649806352e-18
-1.536731883e-20
1.658881116e-18
-1.528075872e-20
1.667740081e-18
-1.506761758e-20
1.676302285e-18
-1.471808583e-20
1.684482147e-18
-1.422109265e-20
1.692186578e-18
-1.356615063e-20
1.699317777e-18
-1.274168184e-20
1.705770267e-18
-1.173699842e-20
1.711433847e-18
-1.054062437e-20
1.716190737e-18
-9.142348314e-21
1.719918944e-18
-7.531496431e-21
1.722489703e-18
-5.699065006e-21
1.723771306e-18
-3.63600389e-21
1.723626744e-18
-1.335526888e-21
1.721917887e-18
1.208529002e-21
1.718503302e-18
3.999217951e-21
1.71324291e-18
7.038125811e-21
1.705996193e-18
1.032281628e-20
1.696627564e-18
1.384857195e-20
1.685005091e-18
1.760580402e-20
1.671006586e-18
2.158187532e-20
1.654518739e-18
2.575842004e-20
1.635443783e-18
3.011321164e-20
1.613698884e-18
3.461739348e-20
1.589223213e-18
3.923746949e-20
1.561977394e-18
4.393257698e-20
1.531950772e-18
4.865676794e-20
1.499160666e-18
5.335649469e-20
1.463659614e-18
5.797334614e-20
1.425534213e-18
6.244184916e-20
1.384912124e-18
6.66927227e-20
1.341960161e-18
7.065100458e-20
1.296890506e-18
7.423978395e-20
1.249957313e-18
7.737860698e-20
1.201461334e-18
7.998768069e-20
1.151744354e-18
8.198656855e-20
1.101191916e-18
8.329892034e-20
1.050225612e-18
8.38514742e-20
9.993041192e-19
8.357921162e-20
9.489134801e-19
8.242439796e-20
8.995663069e-19
8.034173054e-20
8.517897186e-19
7.729691142e-20
8.06122493e-19
7.327132466e-20
7.631009709e-19
6.825981893e-20
7.232551571e-19
6.22747261e-20
6.870941531e-19
5.534274304e-20
6.551028595e-19
4.750813836e-20
6.27728277e-19
3.882849795e-20
6.05377569e-19
2.937681784e-20
5.884056475e-19
1.923591622e-20
5.771149934e-19
8.499397988e-21
5.717453267e-19
-2.734941505e-21
5.724763362e-19
-1.436469278e-20
5.794207172e-19
-2.628967302e-20
5.926306392e-19
-3.841131449e-20
6.1209423e-19
-5.063912143e-20
6.377449165e-19
-6.288941097e-20
6.694598874e-19
-7.509093929e-20
7.07070476e-19
-8.718252491e-20
7.503608658e-19
-9.911718137e-20
7.99077912e-19
-1.108579386e-19
8.529287514e-19
-1.223798904e-19
9.115888014e-19
-1.336639887e-19
9.746971678e-19
-1.446972828e-19
1.041861742e-18
-1.554655965e-19
1.112651562e-18
-1.659532183e-19
1.1865984e-18
-1.76135966e-19
1.263186103e-18
-1.859817415e-19
1.341849377e-18
-1.954451335e-19
1.421961748e-18
-2.044696396e-19
1.502833904e-18
-2.129843906e-19
1.583703056e-18
-2.20908282e-19
1.663733462e-18
-2.281489036e-19
1.742009439e-18
-2.346083821e-19
1.817539621e-18
-2.401839332e-19
1.889254695e-18
-2.447744466e-19
1.95601588e-18
-2.482814704e-19
2.016617333e-18
-2.506150791e-19
2.069797803e-18
-2.516940149e-19
2.114245583e-18
-2.514498514e-19
2.148610427e-18
-2.498256878e-19
2.171508571e-18
-2.467784609e-19
2.181534247e-18
-2.422764419e-19
2.177266385e-18
-2.363000654e-19
2.157282102e-18
-2.288386819e-19
2.120165359e-18
-2.198903467e-19
2.064518565e-18
-2.094583023e-19
1.988967524e-18
-1.975504339e-19
1.892168214e-18
-1.841764872e-19
1.772809479e-18
-1.693478307e-19
1.629617896e-18
-1.530757044e-19
1.461363054e-18
-1.353712463e-19
1.266868844e-18
-1.16245342e-19
1.045040385e-18
-9.570910633e-20
7.947464396e-19
-7.377875588e-20
5.142470674e-19
-5.047789686e-20
1.876454226e-19
-2.589324407e-20
6.960093581e-32
1.495084619e-18
-7.23609984e-22
1.497791461e-18
-2.173198653e-21
1.50101792e-18
-3.623384567e-21
1.504795388e-18
-5.06757529e-21
1.50906636e-18
-6.499977873e-21
1.513821793e-18
-7.915030653e-21
1.519050873e-18
-9.307790386e-21
1.52474091e-18
-1.067294187e-20
1.530876669e-18
-1.200534608e-20
1.537441195e-18
-1.329921301e-20
1.544415027e-18
-1.454876518e-20
1.551776902e-18
-1.574743538e-20
1.559502804e-18
-1.688857573e-20
1.567566549e-18
-1.796465482e-20
1.575938706e-18
-1.896799102e-20
1.584587135e-18
-1.988993007e-20
1.59347585e-18
-2.072159301e-20
1.602565594e-18
-2.145302265e-20
1.611812692e-18
-2.207395956e-20
1.621169637e-18
-2.257298707e-20
1.6305839e-18
-2.293836755e-20
1.639998484e-18
-2.315720642e-20
1.649350689e-18
-2.321633565e-20
1.658572723e-18
-2.310145975e-20
1.667590532e-18
-2.279805205e-20
1.676324569e-18
-2.22904863e-20
1.684688705e-18
-2.156300787e-20
1.692591097e-18
-2.059892639e-20
1.699933091e-18
-1.938173322e-20
1.706610152e-18
-1.789437552e-20
1.712510844e-18
-1.612046409e-20
1.717517997e-18
-1.40435519e-20
1.721507965e-18
-1.164838733e-20
1.724352169e-18
-8.920215908e-21
1.725916639e-18
-5.846185648e-21
1.726063869e-18
-2.414792828e-21
1.724652605e-18
1.38249842e-21
1.72154005e-18
5.551685571e-21
1.716582055e-18
1.009449772e-20
1.709635894e-18
1.500885091e-20
1.70056102e-18
2.028710912e-20
1.689222491e-18
2.591660164e-20
1.675492254e-18
3.187783504e-20
1.659253127e-18
3.814500531e-20
1.640400514e-18
4.468412879e-20
1.618846853e-18
5.145358876e-20
1.594523659e-18
5.840230989e-20
1.567386287e-18
6.547054772e-20
1.537416082e-18
7.258833703e-20
1.504625205e-18
7.967676394e-20
1.469058616e-18
8.664690467e-20
1.430798698e-18
9.340172451e-20
1.389966788e-18
9.98355916e-20
1.346727223e-18
1.05836845e-19
1.30128787e-18
1.112878506e-19
1.253902882e-18
1.160682183e-19
1.20487146e-18
1.200554197e-19
1.154538686e-18
1.231286994e-19
1.103292154e-18
1.251703196e-19
1.051560803e-18
1.260701579e-19
9.998094585e-19
1.257273746e-19
9.485356396e-19
1.240552543e-19
8.98261798e-19
1.209826469e-19
8.495297901e-19
1.164583214e-19
8.028907372e-19
1.104515343e-19
7.588976076e-19
1.029554317e-19
7.180937742e-19
9.398644743e-20
6.810052307e-19
8.358651087e-20
6.481294291e-19
7.182097517e-20
6.199283956e-19
5.877920619e-20
5.968186985e-19
4.457060327e-20
5.791660612e-19
2.932329229e-20
5.672771802e-19
1.31783062e-20
5.613968824e-19
-3.713119285e-21
5.617031287e-19
-2.119631041e-20
5.683079579e-19
-3.911620311e-20
5.812564059e-19
-5.732400192e-20
6.005311342e-19
-7.567969099e-20
6.260543757e-19
-9.405782165e-20
6.576947939e-19
-1.123487279e-19
6.952708027e-19
-1.304625172e-19
7.385579557e-19
-1.483278865e-19
7.872919847e-19
-1.658931644e-19
8.411750232e-19
-1.831218891e-19
8.998766526e-19
-1.999906054e-19
9.630372684e-19
-2.164817711e-19
1.030265691e-18
-2.325797025e-19
1.101138605e-18
-2.482627675e-19
1.175194255e-18
-2.634996988e-19
1.251928191e-18
-2.782432477e-19
1.330784121e-18
-2.924286119e-19
1.411147856e-18
-3.059699399e-19
1.49233794e-18
-3.187618809e-19
1.573600717e-18
-3.306795055e-19
1.654103648e-18
-3.41583129e-19
1.732934018e-18
-3.513213405e-19
1.809096865e-18
-3.597380479e-19
1.881518633e-18
-3.666769933e-19
1.949050403e-18
-3.719889785e-19
2.010476305e-18
-3.75535598e-19
2.064520782e-18
-3.771946087e-19
2.109859204e-18
-3.768614415e-19
2.145125854e-18
-3.744517876e-19
2.168923926e-18
-3.69900688e-19
2.179833373e-18
-3.631626979e-19
2.176421841e-18
-3.542090966e-19
2.157254808e-18
-3.430263776e-19
2.120907571e-18
-3.296124537e-19
2.065973575e-18
-3.139743346e-19
1.991071466e-18
-2.961245249e-19
1.894848776e-18
-2.760792524e-19
1.775985515e-18
-2.538560608e-19
1.633195898e-18
-2.294729669e-19
1.465231459e-18
-2.029475595e-19
1.270887189e-18
-1.742970752e-19
1.049014905e-18
-1.435409025e-19
7.983924863e-19
-1.10700076e-19
5.171060052e-19
-7.58121538e-20
1.887911613e-19
-3.891357132e-20
6.993619996e-32
1.492967343e-18
-9.709909603e-22
1.495676233e-18
-2.914151123e-21
1.498910598e-18
-4.854812461e-21
1.502701732e-18
-6.78657727e-21
1.506992196e-18
-8.702539272e-21
1.51177244e-18
-1.059608404e-20
1.517032015e-18
-1.246039845e-20
1.522758088e-18
-1.42887945e-20
1.528936099e-18
-1.607408684e-20
1.535549133e-18
-1.780896547e-20
1.542578556e-18
-1.948540578e-20
1.55000324e-18
-2.109509639e-20
1.557800096e-18
-2.262886555e-20
1.565943147e-18
-2.407713864e-20
1.574403981e-18
-2.542936508e-20
1.583150742e-18
-2.667448345e-20
1.592148569e-18
-2.780032798e-20
1.601358569e-18
-2.879410525e-20
1.610738269e-18
-2.964179068e-20
1.620240554e-18
-3.03286538e-20
1.629814102e-18
-3.083868696e-20
1.639402269e-18
-3.115518835e-20
1.648943545e-18
-3.126020035e-20
1.658370454e-18
-3.113511484e-20
1.667610111e-18
-3.076009163e-20
1.676583196e-18
-3.011470415e-20
1.685204602e-18
-2.917741434e-20
1.693382426e-18
-2.79263529e-20
1.701018677e-18
-2.633891871e-20
1.70800831e-18
-2.439269798e-20
1.714240102e-18
-2.206512116e-20
1.719595878e-18
-1.933444496e-20
1.723951688e-18
-1.617944195e-20
1.727177289e-18
-1.258049877e-20
1.72913761e-18
-8.519457583e-21
1.729692482e-18
-3.980959293e-21
1.72869843e-18
1.047511121e-21
1.726008761e-18
6.574089462e-21
1.721475893e-18
1.260241666e-20
1.714951983e-18
1.913005473e-20
1.706291883e-18
2.614839822e-20
1.695354313e-18
3.364105066e-20
1.682005385e-18
4.158370603e-20
1.666120251e-18
4.994242255e-20
1.647587164e-18
5.867348187e-20
1.626309596e-18
6.772165089e-20
1.602210813e-18
7.702020977e-20
1.575236344e-18
8.648947474e-20
1.545358865e-18
9.60372754e-20
1.512580728e-18
1.055580125e-19
1.476938821e-18
1.14933839e-19
1.438506838e-18
1.240344262e-19
1.397399766e-18
1.327189795e-19
1.353775466e-18
1.408368053e-19
1.307838255e-18
1.482301858e-19
1.259839119e-18
1.547357824e-19
1.210077666e-18
1.601884503e-19
1.158900352e-18
1.644235492e-19
1.10670038e-18
1.672817594e-19
1.053913676e-18
1.686122244e-19
1.001016553e-18
1.682780274e-19
9.485192251e-19
1.661595392e-19
8.969609384e-19
1.621597037e-19
8.469007945e-19
1.562066739e-19
7.989104379e-19
1.482580988e-19
7.535627967e-19
1.38302438e-19
7.114234578e-19
1.263617835e-19
6.730387869e-19
1.124914121e-19
6.389274613e-19
9.678061497e-20
6.095692124e-19
7.934985938e-20
5.853974923e-19
6.034904346e-20
5.667897617e-19
3.995198172e-20
5.540623928e-19
1.835223761e-20
5.474639042e-19
-4.244355603e-21
5.47173591e-19
-2.762514749e-20
5.532989289e-19
-5.157879303e-20
5.65878489e-19
-7.590070159e-20
5.848832845e-19
-1.004006334e-19
6.102230545e-19
-1.249070322e-19
6.417502578e-19
-1.492728389e-19
6.792682282e-19
-1.733772211e-19
7.225361929e-19
-1.971278704e-19
7.712774111e-19
-2.204584963e-19
8.251830281e-19
-2.433264784e-19
8.839177399e-19
-2.657058584e-19
9.471200897e-19
-2.875811961e-19
1.014403669e-18
-3.089380165e-19
1.085352595e-18
-3.297555034e-19
1.159517865e-18
-3.499974062e-19
1.236408587e-18
-3.696065473e-19
1.315484924e-18
-3.884987562e-19
1.396147345e-18
-4.065613247e-19
1.477729053e-18
-4.236516604e-19
1.559486556e-18
-4.39600652e-19
1.640594884e-18
-4.542163486e-19
1.720142515e-18
-4.672916797e-19
1.797131849e-18
-4.786114744e-19
1.870480209e-18
-4.879620004e-19
1.939026368e-18
-4.951382901e-19
2.001537301e-18
-4.999522017e-19
2.056719024e-18
-5.022372386e-19
2.10322599e-18
-5.018531384e-19
2.139672333e-18
-4.986869614e-19
2.16464064e-18
-4.926539219e-19
2.176692487e-18
-4.836952295e-19
2.174378014e-18
-4.717759558e-19
2.156248079e-18
-4.568807962e-19
2.120864636e-18
-4.390104031e-19
2.06681011e-18
-4.181765233e-19
1.992692367e-18
-3.943984797e-19
1.897148534e-18
-3.676994753e-19
1.778846379e-18
-3.381044449e-19
1.636484854e-18
-3.056381971e-19
1.468794449e-18
-2.703247239e-19
1.274537747e-18
-2.321875416e-19
1.052522478e-18
-1.912495303e-19
8.01449407e-19
-1.475385765e-19
5.19332817e-19
-1.010767297e-19
1.896474445e-19
-5.19096406e-20
7.033242002e-32
1.490400938e-18
-1.221114447e-21
1.493115128e-18
-3.663610523e-21
1.496360571e-18
-6.10136521e-21
1.500169527e-18
-8.527070079e-21
1.504484559e-18
-1.093310487e-20
1.509296395e-18
-1.331150844e-20
1.514594519e-18
-1.56542409e-20
1.520366615e-18
-1.795290713e-20
1.52659829e-18
-2.019885237e-20
1.53327336e-18
-2.238284327e-20
1.540373524e-18
-2.449517366e-20
1.547878534e-18
-2.652536491e-20
1.555765746e-18
-2.846229659e-20
1.56401018e-18
-3.029391624e-20
1.572583975e-18
-3.200738897e-20
1.581456399e-18
-3.358879598e-20
1.590593256e-18
-3.502328036e-20
1.599956899e-18
-3.629474114e-20
1.609505601e-18
-3.738599805e-20
1.619193541e-18
-3.827852013e-20
1.62897014e-18
-3.895264727e-20
1.638780039e-18
-3.938735129e-20
1.64856244e-18
-3.956049221e-20
1.658251139e-18
-3.944857765e-20
1.66777392e-18
-3.90270341e-20
1.677052637e-18
-3.827000877e-20
1.686002629e-18
-3.715074878e-20
1.694532838e-18
-3.564152865e-20
1.70254526e-18
-3.371418829e-20
1.709935188e-18
-3.134018424e-20
1.716590821e-18
-2.849121736e-20
1.722393733e-18
-2.51393473e-20
1.727218701e-18
-2.125772671e-20
1.730934399e-18
-1.682085884e-20
1.733403428e-18
-1.180556453e-20
1.73448329e-18
-6.191493619e-21
1.734026756e-18
3.765806892e-23
1.731883315e-18
6.893463909e-21
1.727900092e-18
1.438143389e-20
1.721923905e-18
2.250028247e-20
1.713802757e-18
3.124053348e-20
1.703388431e-18
4.058371522e-20
1.690538484e-18
5.050083936e-20
1.675119372e-18
6.09514978e-20
1.657008996e-18
7.188227621e-20
1.636100454e-18
8.322591853e-20
1.612305177e-18
9.489993857e-20
1.585557228e-18
1.068061671e-19
1.555816805e-18
1.188298648e-19
1.523074762e-18
1.308399421e-19
1.487356097e-18
1.426888456e-19
1.448724309e-18
1.542136661e-19
1.407284483e-18
1.652369982e-19
1.363187026e-18
1.75569125e-19
1.316629805e-18
1.850099681e-19
1.267860635e-18
1.933524819e-19
1.217177777e-18
2.003858442e-19
1.164930522e-18
2.059001525e-19
1.1115175e-18
2.096908804e-19
1.057384883e-18
2.115647011e-19
1.003022048e-18
2.113447134e-19
9.489569769e-19
2.088765919e-19
8.957489273e-19
2.040335646e-19
8.439809018e-19
1.967218185e-19
7.942496025e-19
1.868842672e-19
7.471557083e-19
1.745044109e-19
7.032922638e-19
1.596081804e-19
6.632341386e-19
1.422655169e-19
6.275262251e-19
1.225894794e-19
5.966733439e-19
1.007346852e-19
5.711294694e-19
7.68929894e-20
5.512894086e-19
5.128851384e-20
5.374806382e-19
2.41701792e-20
5.299585216e-19
-4.195790047e-21
5.289024155e-19
-3.353513113e-20
5.344155879e-19
-6.357405348e-20
5.465260214e-19
-9.404878316e-20
5.65190726e-19
-1.247136117e-19
5.903004374e-19
-1.553491308e-19
6.216872462e-19
-1.857679304e-19
6.59131913e-19
-2.15819276e-19
7.023731449e-19
-2.453899999e-19
7.511152562e-19
-2.744034e-19
8.050361346e-19
-3.028139104e-19
8.637918614e-19
-3.305999396e-19
9.270200664e-19
-3.577534646e-19
9.94338904e-19
-3.842692982e-19
1.065344286e-18
-4.101329588e-19
1.139602939e-18
-4.353102562e-19
1.216644397e-18
-4.597374653e-19
1.295949986e-18
-4.833148862e-19
1.376942233e-18
-5.059025517e-19
1.458973162e-18
-5.27320354e-19
1.541314945e-18
-5.473508205e-19
1.623151551e-18
-5.657461953e-19
1.7035745e-18
-5.822373374e-19
1.781581084e-18
-5.965451858e-19
1.856077433e-18
-6.083920786e-19
1.925884214e-18
-6.175132999e-19
1.989746341e-18
-6.236663325e-19
2.046343777e-18
-6.266387144e-19
2.094303979e-18
-6.262526107e-19
2.132213187e-18
-6.22367378e-19
2.158627752e-18
-6.148790813e-19
2.172084394e-18
-6.037184308e-19
2.171111615e-18
-5.888464209e-19
2.154241069e-18
-5.702494003e-19
2.120018851e-18
-5.479330268e-19
2.067013414e-18
-5.219166621e-19
1.993820403e-18
-4.922279743e-19
1.899064596e-18
-4.588988414e-19
1.78140047e-18
-4.219620619e-19
1.639510861e-18
-3.814494642e-19
1.472105162e-18
-3.373909802e-19
1.277919689e-18
-2.898140735e-19
1.055723485e-18
-2.387460796e-19
8.041856755e-19
-1.84210165e-19
5.212614098e-19
-1.262391691e-19
1.903919409e-19
-6.484007587e-20
7.083748146e-32
1.487377705e-18
-1.474563726e-21
1.490099404e-18
-4.423456353e-21
1.493359202e-18
-7.365765658e-21
1.497189938e-18
-1.029322557e-20
1.501534707e-18
-1.319716934e-20
1.506384412e-18
-1.606860211e-20
1.511728945e-18
-1.889813521e-20
1.51755629e-18
-2.167604602e-20
1.523852655e-18
-2.439207682e-20
1.530602355e-18
-2.703543062e-20
1.537787874e-18
-2.959456132e-20
1.545389626e-18
-3.205717825e-20
1.553385909e-18
-3.441004071e-20
1.561752541e-18
-3.66389831e-20
1.570462746e-18
-3.872870505e-20
1.579486739e-18
-4.066279432e-20
1.588791564e-18
-4.242351093e-20
1.598340654e-18
-4.399181391e-20
1.608093627e-18
-4.53471668e-20
1.618005796e-18
-4.646761032e-20
1.628027952e-18
-4.732961207e-20
1.638105864e-18
-4.790817927e-20
1.648180107e-18
-4.817672483e-20
1.658185593e-18
-4.810720135e-20
1.668051428e-18
-4.766999031e-20
1.677700443e-18
-4.683411318e-20
1.687049045e-18
-4.556723879e-20
1.696006756e-18
-4.383604374e-20
1.704476144e-18
-4.160636899e-20
1.712352502e-18
-3.884371127e-20
1.719523972e-18
-3.551347295e-20
1.725871415e-18
-3.158157101e-20
1.731268704e-18
-2.701483223e-20
1.735582748e-18
-2.178181915e-20
1.738673971e-18
-1.585349545e-20
1.740396606e-18
-9.204337521e-21
1.740599587e-18
-1.813242657e-21
1.73912737e-18
6.335167282e-21
1.735821436e-18
1.524950933e-20
1.730521704e-18
2.493021995e-20
1.723068586e-18
3.536838747e-20
1.713304896e-18
4.654415632e-20
1.701078411e-18
5.842537862e-20
1.686244333e-18
7.096586605e-20
1.668668519e-18
8.410401058e-20
1.648230682e-18
9.776113087e-20
1.624828373e-18
1.118403751e-19
1.598380842e-18
1.262255022e-19
1.568833537e-18
1.407803614e-19
1.536162261e-18
1.553483942e-19
1.500377779e-18
1.697529922e-19
1.461529856e-18
1.83797999e-19
1.419711548e-18
1.972692539e-19
1.375062664e-18
2.099364164e-19
1.327773204e-18
2.21555947e-19
1.278085606e-18
2.31874496e-19
1.226296639e-18
2.406335444e-19
1.172757717e-18
2.475744573e-19
1.117874498e-18
2.524447556e-19
1.062104518e-18
2.550045492e-19
1.005953766e-18
2.550337983e-19
9.499710181e-19
2.523391808e-19
8.947410126e-19
2.467611933e-19
8.40875463e-19
2.381802411e-19
7.890032499e-19
2.265224314e-19
7.397589373e-19
2.117638192e-19
6.937711067e-19
1.93933832e-19
6.516496542e-19
1.731165557e-19
6.13973596e-19
1.494506387e-19
5.812785403e-19
1.231265223e-19
5.540455195e-19
9.438203539e-20
5.326904659e-19
6.349533746e-20
5.175561654e-19
3.077659716e-20
5.089058778e-19
-3.442298659e-21
5.069202024e-19
-3.881848468e-20
5.116959721e-19
-7.500997569e-20
5.2324839e-19
-1.116870911e-19
5.415149605e-19
-1.485440332e-19
5.663623428e-19
-1.853088199e-19
5.975945789e-19
-2.217518913e-19
6.349635659e-19
-2.576914072e-19
6.781797518e-19
-2.929955544e-19
7.269233209e-19
-3.275803128e-19
7.808534054e-19
-3.614036277e-19
8.39615436e-19
-3.944552345e-19
9.028445151e-19
-4.267440191e-19
9.701655884e-19
-4.58282874e-19
1.041189129e-18
-4.890733948e-19
1.115503851e-18
-5.190908134e-19
1.192665829e-18
-5.482715012e-19
1.272185982e-18
-5.765032116e-19
1.353515817e-18
-6.03620109e-19
1.436033756e-18
-6.294021143e-19
1.51903227e-18
-6.535796296e-19
1.601708216e-18
-6.758423922e-19
1.683156405e-18
-6.958523399e-19
1.762368165e-18
-7.132582384e-19
1.83823413e-18
-7.277114906e-19
1.909551917e-18
-7.388806718e-19
1.975036949e-18
-7.464643075e-19
2.033335985e-18
-7.502003591e-19
2.083041061e-18
-7.498725405e-19
2.122703331e-18
-7.453126684e-19
2.150845511e-18
-7.364000721e-19
2.165973955e-18
-7.230577827e-19
2.166590391e-18
-7.052467964e-19
2.151204081e-18
-6.829587554e-19
2.118342445e-18
-6.562082877e-19
2.066558641e-18
-6.25025297e-19
1.994434929e-18
-5.894484357e-19
1.900583551e-18
-5.495196705e-19
1.783645726e-18
-5.052804927e-19
1.642288943e-18
-4.567695812e-19
1.475204726e-18
-4.040215974e-19
1.281105898e-18
-3.470676538e-19
1.058741106e-18
-2.859339541e-19
8.067446848e-19
-2.206478826e-19
5.230754561e-19
-1.512207855e-19
1.910988753e-19
-7.768962662e-20
7.150564691e-32
1.483888588e-18
-1.732032674e-21
1.486619682e-18
-5.195503455e-21
1.489896676e-18
-8.650984786e-21
1.493753019e-18
-1.2089084e-20
1.498132304e-18
-1.550017075e-20
1.503025896e-18
-1.88741523e-20
1.508424079e-18
-2.22005092e-20
1.514315398e-18
-2.546819373e-20
1.520686624e-18
-2.866558155e-20
1.527522831e-18
-3.178031703e-20
1.534807256e-18
-3.479924898e-20
1.542521258e-18
-3.770827048e-20
1.550644056e-18
-4.049225856e-20
1.55915259e-18
-4.313491912e-20
1.568021181e-18
-4.561872792e-20
1.577221343e-18
-4.792475844e-20
1.586721399e-18
-5.003262496e-20
1.596486235e-18
-5.192032422e-20
1.606476865e-18
-5.356420182e-20
1.616650139e-18
-5.493883626e-20
1.626958286e-18
-5.601705163e-20
1.637348647e-18
-5.676982501e-20
1.647763252e-18
-5.716632196e-20
1.658138585e-18
-5.717383171e-20
1.668405146e-18
-5.675785193e-20
1.678487169e-18
-5.588212314e-20
1.688302158e-18
-5.450885325e-20
1.697760617e-18
-5.259889698e-20
1.706765682e-18
-5.011212548e-20
1.715213018e-18
-4.700773207e-20
1.722990631e-18
-4.324472702e-20
1.729978929e-18
-3.878239578e-20
1.736050638e-18
-3.358101333e-20
1.741070968e-18
-2.760257013e-20
1.744897696e-18
-2.081179273e-20
1.747381644e-18
-1.317716412e-20
1.74836722e-18
-4.672190316e-21
1.747693482e-18
4.723382398e-21
1.745195289e-18
1.502212427e-20
1.740704942e-18
2.622751213e-20
1.734053845e-18
3.833224322e-20
1.72507462e-18
5.131655477e-20
1.713603287e-18
6.514627467e-20
1.699482037e-18
7.977097566e-20
1.68256219e-18
9.512200203e-20
1.662707856e-18
1.111107717e-19
1.639799788e-18
1.276271253e-19
1.613739829e-18
1.445381039e-19
1.584455389e-18
1.616868883e-19
1.551904323e-18
1.788923377e-19
1.516079624e-18
1.959488747e-19
1.477014333e-18
2.126271646e-19
1.434786029e-18
2.28675399e-19
1.389521297e-18
2.438216094e-19
1.341399461e-18
2.577767423e-19
1.290655953e-18
2.702389669e-19
1.237584534e-18
2.808988376e-19
1.182538701e-18
2.894456996e-19
1.125931421e-18
2.955748584e-19
1.068233532e-18
2.989957069e-19
1.009969998e-18
2.994401494e-19
9.517145073e-19
2.966713994e-19
8.940818255e-19
2.904923974e-19
8.377186512e-19
2.807539119e-19
7.832925536e-19
2.673615515e-19
7.314799118e-19
2.502817367e-19
6.829525014e-19
2.29545792e-19
6.383637339e-19
2.052522097e-19
5.983342689e-19
1.775662865e-19
5.634381903e-19
1.467173351e-19
5.341896497e-19
1.129929835e-19
5.110313721e-19
7.673113585e-20
4.943249578e-19
3.830943496e-20
4.843441994e-19
-1.866859464e-21
4.812709692e-19
-4.337862574e-20
4.851944759e-19
-8.580729579e-20
4.961131605e-19
-1.287498573e-19
5.139399104e-19
-1.718332746e-19
5.385098439e-19
-2.147278658e-19
5.695911607e-19
-2.571581211e-19
6.068978633e-19
-2.989102809e-19
6.501040809e-19
-3.398352188e-19
6.988579785e-19
-3.798464513e-19
7.527943695e-19
-4.189125799e-19
8.115438893e-19
-4.57044899e-19
8.747382997e-19
-4.9428064e-19
9.420106314e-19
-5.306635657e-19
1.012990736e-18
-5.662231565e-19
1.087295905e-18
-6.00954849e-19
1.164517878e-18
-6.348027376e-19
1.244206587e-18
-6.676469013e-19
1.325852561e-18
-6.992963569e-19
1.40886896e-18
-7.294887293e-19
1.492575581e-18
-7.578963034e-19
1.576185998e-18
-7.841383382e-19
1.658799823e-18
-8.077978218e-19
1.739400407e-18
-8.284412178e-19
1.816858747e-18
-8.456388852e-19
1.889942549e-18
-8.589843927e-19
1.957329801e-18
-8.681107041e-19
2.017624789e-18
-8.727025012e-19
2.069375161e-18
-8.72503584e-19
2.11108812e-18
-8.673195248e-19
2.14124536e-18
-8.57015817e-19
2.158316523e-18
-8.415123784e-19
2.160772166e-18
-8.207751794e-19
2.147095949e-18
-7.948065052e-19
2.115795066e-18
-7.636346325e-19
2.06540663e-18
-7.273041295e-19
1.994499827e-18
-6.858674904e-19
1.90167512e-18
-6.393786293e-19
1.785561796e-18
-5.878882997e-19
1.644814227e-18
-5.314415108e-19
1.478108026e-18
-4.700767539e-19
1.284140364e-18
-4.038255494e-19
1.061637311e-18
-3.327155903e-19
8.092312777e-19
-2.567653446e-19
5.248377376e-19
-1.760025876e-19
1.918038578e-19
-9.042094668e-20
7.219509926e-32
1.479923586e-18
-1.994112154e-21
1.482665543e-18
-5.98152757e-21
1.485962239e-18
-9.959818904e-21
1.4898476e-18
-1.391857395e-20
1.49426583e-18
-1.784718257e-20
1.499208779e-18
-2.173457134e-20
1.504667295e-18
-2.556913317e-20
1.510630528e-18
-2.933866637e-20
1.517085989e-18
-3.303025596e-20
1.524019548e-18
-3.663017224e-20
1.531415389e-18
-4.012373432e-20
1.539255866e-18
-4.349520944e-20
1.547521344e-18
-4.672766745e-20
1.556189956e-18
-4.980287829e-20
1.565237382e-18
-5.270116095e-20
1.57463654e-18
-5.540126744e-20
1.584357309e-18
-5.788023499e-20
1.594366161e-18
-6.011329077e-20
1.604625807e-18
-6.207372565e-20
1.615094785e-18
-6.373284288e-20
1.625727105e-18
-6.505986682e-20
1.636471864e-18
-6.602190495e-20
1.647272927e-18
-6.658388239e-20
1.658068539e-18
-6.670854993e-20
1.668790959e-18
-6.635648848e-20
1.679365996e-18
-6.548623897e-20
1.689712595e-18
-6.405445413e-20
1.699742403e-18
-6.201616555e-20
1.709359464e-18
-5.932507054e-20
1.718459952e-18
-5.59339365e-20
1.726932025e-18
-5.179503364e-20
1.734655659e-18
-4.686075459e-20
1.741502564e-18
-4.108432405e-20
1.747336085e-18
-3.442073037e-20
1.752011302e-18
-2.682776806e-20
1.755375282e-18
-1.826726394e-20
1.75726768e-18
-8.706362085e-21
1.757521589e-18
1.881021216e-21
1.755964736e-18
1.35126737e-20
1.752420857e-18
2.619633219e-20
1.746711358e-18
3.992779564e-20
1.738657166e-18
5.468879305e-20
1.728080989e-18
7.04447745e-20
1.71480993e-18
8.714258942e-20
1.698678681e-18
1.047082778e-19
1.679533169e-18
1.230449171e-19
1.657234763e-18
1.420307418e-19
1.631664817e-18
1.615174509e-19
1.602729617e-18
1.813289011e-19
1.570365506e-18
2.012601805e-19
1.534544228e-18
2.210773224e-19
1.495278285e-18
2.405176723e-19
1.452626295e-18
2.592912482e-19
1.406698074e-18
2.77083068e-19
1.357659407e-18
2.935566986e-19
1.305736134e-18
3.0835902e-19
1.251217455e-18
3.211263362e-19
1.194457978e-18
3.314917065e-19
1.135878313e-18
3.390935251e-19
1.075963747e-18
3.435849955e-19
1.015260869e-18
3.446443671e-19
9.543719036e-19
3.419854317e-19
8.939468914e-19
3.353680444e-19
8.346737005e-19
3.246080662e-19
7.772662229e-19
3.095864266e-19
7.224508275e-19