/*--------------------------------*- C++ -*----------------------------------*\
  =========                 |
  \\      /  F ield         | OpenFOAM: The Open Source CFD Toolbox
   \\    /   O peration     | Website:  https://openfoam.org
    \\  /    A nd           | Version:  6
     \\/     M anipulation  |
\*---------------------------------------------------------------------------*/
FoamFile
{
    version     2.0;
    format      ascii;
    class       volVectorField;
    location    "0.0057";
    object      U;
}
// * * * * * * * * * * * * * * * * * * * * * * * * * * * * * * * * * * * * * //

dimensions      [0 1 -1 0 0 0 0];

internalField   nonuniform List<vector> 
9600
(
(0 8.981299433e-10 -7.038936759e-14)
(0 8.994573637e-10 -2.132285715e-13)
(0 9.012887033e-10 -3.586208627e-13)
(0 9.03398121e-10 -5.030858315e-13)
(0 9.058019261e-10 -6.460509347e-13)
(0 9.084957261e-10 -7.870453262e-13)
(0 9.114738272e-10 -9.256756461e-13)
(0 9.147289926e-10 -1.061418594e-12)
(0 9.182525767e-10 -1.193806814e-12)
(0 9.220346214e-10 -1.322236035e-12)
(0 9.26063882e-10 -1.44615831e-12)
(0 9.303278024e-10 -1.564881558e-12)
(0 9.348124463e-10 -1.67776539e-12)
(0 9.395023827e-10 -1.784018099e-12)
(0 9.44380538e-10 -1.882894264e-12)
(0 9.494280224e-10 -1.973488777e-12)
(0 9.54623949e-10 -2.054938167e-12)
(0 9.599452601e-10 -2.126206947e-12)
(0 9.653665661e-10 -2.186295249e-12)
(0 9.708599907e-10 -2.234021448e-12)
(0 9.763950079e-10 -2.268239251e-12)
(0 9.819382587e-10 -2.287618544e-12)
(0 9.874533482e-10 -2.290873531e-12)
(0 9.929006471e-10 -2.276537643e-12)
(0 9.982371242e-10 -2.243196962e-12)
(0 1.003416234e-09 -2.189258702e-12)
(0 1.008387857e-09 -2.11319282e-12)
(0 1.013098279e-09 -2.013303082e-12)
(0 1.017490161e-09 -1.887989538e-12)
(0 1.021502515e-09 -1.735524372e-12)
(0 1.025070677e-09 -1.55433129e-12)
(0 1.028126348e-09 -1.342757154e-12)
(0 1.030597725e-09 -1.099358473e-12)
(0 1.032409775e-09 -8.226674264e-13)
(0 1.033484627e-09 -5.11494898e-13)
(0 1.033742053e-09 -1.647062481e-13)
(0 1.033100031e-09 2.184467023e-13)
(0 1.031475358e-09 6.385385041e-13)
(0 1.028784377e-09 1.095619346e-12)
(0 1.024943834e-09 1.589435728e-12)
(0 1.019871927e-09 2.119076209e-12)
(0 1.013489546e-09 2.683209889e-12)
(0 1.00572171e-09 3.279726665e-12)
(0 9.964991597e-10 3.905984199e-12)
(0 9.857600945e-10 4.558434155e-12)
(0 9.734520065e-10 5.232876795e-12)
(0 9.595335903e-10 5.924081586e-12)
(0 9.439766912e-10 6.626069287e-12)
(0 9.267682532e-10 7.331752068e-12)
(0 9.079122353e-10 8.03327176e-12)
(0 8.874314683e-10 8.72168459e-12)
(0 8.653694325e-10 9.387374404e-12)
(0 8.417919268e-10 1.001979079e-11)
(0 8.167885702e-10 1.060793765e-11)
(0 7.904740349e-10 1.11401567e-11)
(0 7.629888779e-10 1.160468208e-11)
(0 7.344998355e-10 1.198946194e-11)
(0 7.051994993e-10 1.228278079e-11)
(0 6.753053559e-10 1.247312535e-11)
(0 6.450582485e-10 1.254988008e-11)
(0 6.147203164e-10 1.250322665e-11)
(0 5.845724399e-10 1.232487725e-11)
(0 5.549111335e-10 1.200794523e-11)
(0 5.260448157e-10 1.154763855e-11)
(0 4.982894146e-10 1.094102834e-11)
(0 4.719633975e-10 1.01876496e-11)
(0 4.473824302e-10 9.289140252e-12)
(0 4.248539606e-10 8.249736163e-12)
(0 4.046719759e-10 7.075766154e-12)
(0 3.871121121e-10 5.776011419e-12)
(0 3.724271517e-10 4.361016289e-12)
(0 3.608429293e-10 2.843275398e-12)
(0 3.525546729e-10 1.23635631e-12)
(0 3.477239265e-10 -4.450455004e-13)
(0 3.46476247e-10 -2.186081809e-12)
(0 3.488998945e-10 -3.971713292e-12)
(0 3.550456044e-10 -5.787662375e-12)
(0 3.649274108e-10 -7.620296267e-12)
(0 3.785243053e-10 -9.457485954e-12)
(0 3.957824667e-10 -1.128835945e-11)
(0 4.166177381e-10 -1.310400475e-11)
(0 4.409181115e-10 -1.489701663e-11)
(0 4.685459956e-10 -1.666194481e-11)
(0 4.993401355e-10 -1.839454955e-11)
(0 5.33117043e-10 -2.009195043e-11)
(0 5.696718376e-10 -2.175162794e-11)
(0 6.087783639e-10 -2.337139003e-11)
(0 6.501884832e-10 -2.494831321e-11)
(0 6.936304421e-10 -2.647874635e-11)
(0 7.388063434e-10 -2.795740627e-11)
(0 7.85388843e-10 -2.937758557e-11)
(0 8.330173833e-10 -3.073052136e-11)
(0 8.812943506e-10 -3.200586959e-11)
(0 9.297815932e-10 -3.319137982e-11)
(0 9.779976514e-10 -3.427363564e-11)
(0 1.025415976e-09 -3.52380055e-11)
(0 1.071464278e-09 -3.606957295e-11)
(0 1.115525119e-09 -3.675324429e-11)
(0 1.156937771e-09 -3.727469537e-11)
(0 1.195001313e-09 -3.762044496e-11)
(0 1.228978753e-09 -3.777862377e-11)
(0 1.258101771e-09 -3.773886709e-11)
(0 1.281575634e-09 -3.749281132e-11)
(0 1.298583955e-09 -3.703378763e-11)
(0 1.308293443e-09 -3.635708107e-11)
(0 1.309859092e-09 -3.545948825e-11)
(0 1.302430246e-09 -3.433940248e-11)
(0 1.28515729e-09 -3.299627689e-11)
(0 1.257198e-09 -3.143058232e-11)
(0 1.217722622e-09 -2.964328734e-11)
(0 1.165917609e-09 -2.763584312e-11)
(0 1.100988472e-09 -2.540979448e-11)
(0 1.022162407e-09 -2.296675731e-11)
(0 9.286914939e-10 -2.030823194e-11)
(0 8.198595702e-10 -1.74355272e-11)
(0 6.949922043e-10 -1.43499987e-11)
(0 5.534896716e-10 -1.105272734e-11)
(0 3.946954359e-10 -7.547280909e-12)
(0 2.203412125e-10 -3.853516867e-12)
(0 2.072128349e-12 4.164573145e-23)
(0 8.974026466e-10 -2.135717819e-13)
(0 8.987279101e-10 -6.442739107e-13)
(0 9.005583226e-10 -1.079006696e-12)
(0 9.026708153e-10 -1.511798865e-12)
(0 9.050793645e-10 -1.940552115e-12)
(0 9.077790391e-10 -2.363737774e-12)
(0 9.107642177e-10 -2.779901741e-12)
(0 9.140277786e-10 -3.187570124e-12)
(0 9.175611936e-10 -3.58516403e-12)
(0 9.213546254e-10 -3.971017763e-12)
(0 9.253969602e-10 -4.34332796e-12)
(0 9.29675779e-10 -4.700179355e-12)
(0 9.341772931e-10 -5.039493933e-12)
(0 9.388862267e-10 -5.359061647e-12)
(0 9.437856731e-10 -5.656489027e-12)
(0 9.488569169e-10 -5.929230523e-12)
(0 9.540792618e-10 -6.174532264e-12)
(0 9.594298499e-10 -6.389462889e-12)
(0 9.64883505e-10 -6.570854129e-12)
(0 9.704125656e-10 -6.715339375e-12)
(0 9.759867243e-10 -6.819305753e-12)
(0 9.815728308e-10 -6.878947086e-12)
(0 9.871346964e-10 -6.890225627e-12)
(0 9.926328889e-10 -6.848928367e-12)
(0 9.980245724e-10 -6.750624547e-12)
(0 1.003263385e-09 -6.590721298e-12)
(0 1.008299375e-09 -6.364429849e-12)
(0 1.013078955e-09 -6.066850448e-12)
(0 1.017544866e-09 -5.692975667e-12)
(0 1.021636128e-09 -5.237814817e-12)
(0 1.025288026e-09 -4.696420306e-12)
(0 1.028432132e-09 -4.064022354e-12)
(0 1.030996449e-09 -3.336054195e-12)
(0 1.032905662e-09 -2.508296779e-12)
(0 1.034081517e-09 -1.576931175e-12)
(0 1.034443269e-09 -5.387380967e-13)
(0 1.033908219e-09 6.087887568e-13)
(0 1.032392319e-09 1.86718673e-12)
(0 1.029810894e-09 3.236882858e-12)
(0 1.026079501e-09 4.716934347e-12)
(0 1.021114998e-09 6.304905971e-12)
(0 1.014836774e-09 7.996628002e-12)
(0 1.007168198e-09 9.78608517e-12)
(0 9.980381917e-10 1.16651662e-11)
(0 9.873829736e-10 1.362354195e-11)
(0 9.751478837e-10 1.564840618e-11)
(0 9.612893266e-10 1.772437291e-11)
(0 9.457767419e-10 1.983326686e-11)
(0 9.285946216e-10 2.195411739e-11)
(0 9.097444814e-10 2.406308025e-11)
(0 8.892468099e-10 2.613360137e-11)
(0 8.671429138e-10 2.813652302e-11)
(0 8.4349668e-10 3.004044421e-11)
(0 8.183961341e-10 3.181201155e-11)
(0 7.919547553e-10 3.341645635e-11)
(0 7.643123576e-10 3.481804498e-11)
(0 7.356354691e-10 3.598077868e-11)
(0 7.061170661e-10 3.686901027e-11)
(0 6.759757062e-10 3.744832912e-11)
(0 6.454540361e-10 3.7686356e-11)
(0 6.148167811e-10 3.755377538e-11)
(0 5.8434816e-10 3.702519416e-11)
(0 5.543487321e-10 3.608012914e-11)
(0 5.251315469e-10 3.470369876e-11)
(0 4.970176375e-10 3.288735173e-11)
(0 4.703308963e-10 3.062924076e-11)
(0 4.453926066e-10 2.793461101e-11)
(0 4.225158537e-10 2.481581289e-11)
(0 4.020001183e-10 2.129229373e-11)
(0 3.841261627e-10 1.739015186e-11)
(0 3.691513182e-10 1.314160254e-11)
(0 3.573051623e-10 8.583971969e-12)
(0 3.487856967e-10 3.758630151e-12)
(0 3.437561515e-10 -1.290440691e-12)
(0 3.423426594e-10 -6.517978699e-12)
(0 3.446329731e-10 -1.187895245e-11)
(0 3.506763285e-10 -1.732981536e-11)
(0 3.604843778e-10 -2.282981158e-11)
(0 3.740329985e-10 -2.834194405e-11)
(0 3.912647014e-10 -3.383390113e-11)
(0 4.120913486e-10 -3.927853994e-11)
(0 4.363969354e-10 -4.465417159e-11)
(0 4.640402015e-10 -4.994425768e-11)
(0 4.948569054e-10 -5.513679096e-11)
(0 5.286615547e-10 -6.022309032e-11)
(0 5.652484623e-10 -6.519639537e-11)
(0 6.043919313e-10 -7.005013797e-11)
(0 6.458454965e-10 -7.477632841e-11)
(0 6.89340103e-10 -7.936397056e-11)
(0 7.345813289e-10 -8.379787238e-11)
(0 7.812457553e-10 -8.805771485e-11)
(0 8.289768807e-10 -9.211764093e-11)
(0 8.773809178e-10 -9.594619453e-11)
(0 9.260229966e-10 -9.950679677e-11)
(0 9.744240697e-10 -1.027585736e-10)
(0 1.022058907e-09 -1.056576258e-10)
(0 1.068355262e-09 -1.081585107e-10)
(0 1.112694442e-09 -1.102159108e-10)
(0 1.154413214e-09 -1.11786236e-10)
(0 1.192807115e-09 -1.128290858e-10)
(0 1.227134787e-09 -1.133083962e-10)
(0 1.256623054e-09 -1.131932455e-10)
(0 1.28047206e-09 -1.124582793e-10)
(0 1.297860316e-09 -1.110837992e-10)
(0 1.30794959e-09 -1.090555638e-10)
(0 1.309890293e-09 -1.063643441e-10)
(0 1.302827632e-09 -1.030052939e-10)
(0 1.285908421e-09 -9.897712642e-11)
(0 1.258287359e-09 -9.428124174e-11)
(0 1.219131999e-09 -8.892084836e-11)
(0 1.167626212e-09 -8.290029122e-11)
(0 1.102972845e-09 -7.62244424e-11)
(0 1.024395772e-09 -6.889826442e-11)
(0 9.311425071e-10 -6.092655908e-11)
(0 8.224893476e-10 -5.231386761e-11)
(0 6.977489821e-10 -4.306505872e-11)
(0 5.562947418e-10 -3.318615885e-11)
(0 3.974014313e-10 -2.268911022e-11)
(0 2.226768255e-10 -1.161471686e-11)
(0 2.074986363e-12 4.171153665e-23)
(0 8.963975788e-10 -3.601609618e-13)
(0 8.97721691e-10 -1.082610371e-12)
(0 8.995523186e-10 -1.806599964e-12)
(0 9.016694072e-10 -2.527822367e-12)
(0 9.040853059e-10 -3.242981858e-12)
(0 9.067946495e-10 -3.949362356e-12)
(0 9.097917594e-10 -4.644367956e-12)
(0 9.130695804e-10 -5.325477244e-12)
(0 9.166197235e-10 -5.989995878e-12)
(0 9.204325285e-10 -6.635156889e-12)
(0 9.244970784e-10 -7.257931852e-12)
(0 9.288011731e-10 -7.8551604e-12)
(0 9.333312578e-10 -8.423369779e-12)
(0 9.380723075e-10 -8.958916079e-12)
(0 9.430076798e-10 -9.457804732e-12)
(0 9.481189462e-10 -9.915834105e-12)
(0 9.533857125e-10 -1.032840737e-11)
(0 9.58785448e-10 -1.069067754e-11)
(0 9.642933167e-10 -1.099735505e-11)
(0 9.698820087e-10 -1.124286712e-11)
(0 9.75521562e-10 -1.142118153e-11)
(0 9.811791678e-10 -1.152599319e-11)
(0 9.86818965e-10 -1.155055577e-11)
(0 9.924018457e-10 -1.148787652e-11)
(0 9.978852888e-10 -1.133053794e-11)
(0 1.003223237e-09 -1.107089796e-11)
(0 1.008366009e-09 -1.070092912e-11)
(0 1.013260228e-09 -1.021246998e-11)
(0 1.017848759e-09 -9.59711973e-12)
(0 1.022070649e-09 -8.846553621e-12)
(0 1.025861098e-09 -7.952447032e-12)
(0 1.02915149e-09 -6.906810877e-12)
(0 1.031869526e-09 -5.701914598e-12)
(0 1.033939455e-09 -4.330649818e-12)
(0 1.035282412e-09 -2.786502917e-12)
(0 1.035816829e-09 -1.064013585e-12)
(0 1.035458932e-09 8.411612372e-13)
(0 1.034123321e-09 2.931699438e-12)
(0 1.031723693e-09 5.208513782e-12)
(0 1.028173719e-09 7.670194413e-12)
(0 1.023388107e-09 1.031293669e-11)
(0 1.017283857e-09 1.312999661e-11)
(0 1.009781679e-09 1.611162945e-11)
(0 1.000807572e-09 1.924451997e-11)
(0 9.902945436e-10 2.251170666e-11)
(0 9.781844569e-10 2.589199803e-11)
(0 9.644299883e-10 2.935994161e-11)
(0 9.489966755e-10 3.288532597e-11)
(0 9.318650062e-10 3.643331911e-11)
(0 9.130325157e-10 3.996418254e-11)
(0 8.925158446e-10 4.34336909e-11)
(0 8.703527279e-10 4.679313824e-11)
(0 8.466038649e-10 4.999008192e-11)
(0 8.213546096e-10 5.296864729e-11)
(0 7.947163777e-10 5.567057624e-11)
(0 7.668276537e-10 5.80358052e-11)
(0 7.378544718e-10 6.000381305e-11)
(0 7.079902972e-10 6.151449466e-11)
(0 6.774552717e-10 6.250984475e-11)
(0 6.46494846e-10 6.293513156e-11)
(0 6.153778048e-10 6.274083162e-11)
(0 5.843936744e-10 6.188389178e-11)
(0 5.538494509e-10 6.032958865e-11)
(0 5.24065601e-10 5.805250513e-11)
(0 4.953713389e-10 5.503797876e-11)
(0 4.680993036e-10 5.128255636e-11)
(0 4.425798464e-10 4.679489175e-11)
(0 4.191352041e-10 4.159558122e-11)
(0 3.980737791e-10 3.571738071e-11)
(0 3.796846941e-10 2.920423044e-11)
(0 3.64232696e-10 2.211057045e-11)
(0 3.519534926e-10 1.449940295e-11)
(0 3.430496387e-10 6.4407223e-12)
(0 3.376871755e-10 -1.991139275e-12)
(0 3.359932434e-10 -1.071952288e-11)
(0 3.38054852e-10 -1.966825972e-11)
(0 3.439188593e-10 -2.876358425e-11)
(0 3.535930788e-10 -3.793666168e-11)
(0 3.670483114e-10 -4.712504465e-11)
(0 3.842210497e-10 -5.627456699e-11)
(0 4.050165948e-10 -6.533993952e-11)
(0 4.293123367e-10 -7.428550223e-11)
(0 4.569609468e-10 -8.308441696e-11)
(0 4.877932283e-10 -9.17178409e-11)
(0 5.216203546e-10 -1.001725634e-10)
(0 5.582352472e-10 -1.084388484e-10)
(0 5.974128935e-10 -1.165071866e-10)
(0 6.389094717e-10 -1.243657833e-10)
(0 6.824602601e-10 -1.31997538e-10)
(0 7.27776419e-10 -1.393782266e-10)
(0 7.745408764e-10 -1.464745771e-10)
(0 8.224036677e-10 -1.532437824e-10)
(0 8.709771843e-10 -1.596331045e-10)
(0 9.198317876e-10 -1.655809663e-10)
(0 9.684922262e-10 -1.710181505e-10)
(0 1.016435189e-09 -1.758703048e-10)
(0 1.063088247e-09 -1.8006029e-10)
(0 1.107830329e-09 -1.83511349e-10)
(0 1.149993803e-09 -1.861496308e-10)
(0 1.188868061e-09 -1.879069522e-10)
(0 1.223704321e-09 -1.887225155e-10)
(0 1.253721135e-09 -1.885445117e-10)
(0 1.278110021e-09 -1.873306032e-10)
(0 1.296040861e-09 -1.850482652e-10)
(0 1.306667153e-09 -1.816741848e-10)
(0 1.309131606e-09 -1.771936372e-10)
(0 1.302572525e-09 -1.715991473e-10)
(0 1.286130663e-09 -1.648892477e-10)
(0 1.258955481e-09 -1.570668139e-10)
(0 1.220209804e-09 -1.481377663e-10)
(0 1.169072942e-09 -1.381097632e-10)
(0 1.104742777e-09 -1.269913727e-10)
(0 1.026437126e-09 -1.147913214e-10)
(0 9.333950128e-10 -1.015182209e-10)
(0 8.248796695e-10 -8.718060986e-11)
(0 7.001816144e-10 -7.178792102e-11)
(0 5.586346018e-10 -5.535201129e-11)
(0 3.994342436e-10 -3.789159841e-11)
(0 2.24061052e-10 -1.943829881e-11)
(0 2.080714046e-12 4.184439089e-23)
(0 8.951270174e-10 -5.079809982e-13)
(0 8.964513465e-10 -1.524971965e-12)
(0 8.9828471e-10 -2.54136547e-12)
(0 9.004082649e-10 -3.553317037e-12)
(0 9.028341293e-10 -4.556997012e-12)
(0 9.055567754e-10 -5.548740148e-12)
(0 9.085704576e-10 -6.52498091e-12)
(0 9.118681977e-10 -7.482114505e-12)
(0 9.154417728e-10 -8.416416785e-12)
(0 9.192817419e-10 -9.323962252e-12)
(0 9.233774487e-10 -1.020058657e-11)
(0 9.277169846e-10 -1.104183162e-11)
(0 9.322871126e-10 -1.184292756e-11)
(0 9.370731491e-10 -1.259874831e-11)
(0 9.42058818e-10 -1.330379934e-11)
(0 9.472260821e-10 -1.395217266e-11)
(0 9.525549697e-10 -1.453753032e-11)
(0 9.580233987e-10 -1.505305428e-11)
(0 9.636070051e-10 -1.549143508e-11)
(0 9.692789604e-10 -1.584483677e-11)
(0 9.750097829e-10 -1.610491143e-11)
(0 9.807671334e-10 -1.626279111e-11)
(0 9.865156122e-10 -1.630911718e-11)
(0 9.922165651e-10 -1.623403425e-11)
(0 9.978279196e-10 -1.602721638e-11)
(0 1.003304045e-09 -1.56778693e-11)
(0 1.008595639e-09 -1.517479296e-11)
(0 1.013649623e-09 -1.450644687e-11)
(0 1.018409046e-09 -1.366109231e-11)
(0 1.022813006e-09 -1.262692628e-11)
(0 1.026796612e-09 -1.139226778e-11)
(0 1.030291019e-09 -9.945712194e-12)
(0 1.03322354e-09 -8.276336511e-12)
(0 1.035517848e-09 -6.373897706e-12)
(0 1.037094259e-09 -4.229125777e-12)
(0 1.03787009e-09 -1.834042194e-12)
(0 1.037760103e-09 8.176213749e-13)
(0 1.036677067e-09 3.730006023e-12)
(0 1.034532479e-09 6.904655139e-12)
(0 1.031237445e-09 1.034008971e-11)
(0 1.026703759e-09 1.403134944e-11)
(0 1.020845142e-09 1.796957491e-11)
(0 1.013578657e-09 2.214153139e-11)
(0 1.004826254e-09 2.652915635e-11)
(0 9.94516491e-10 3.110905307e-11)
(0 9.825863831e-10 3.58520423e-11)
(0 9.689834202e-10 4.072272042e-11)
(0 9.536676908e-10 4.567915676e-11)
(0 9.366140967e-10 5.067267722e-11)
(0 9.17814592e-10 5.564786466e-11)
(0 8.972804103e-10 6.05427049e-11)
(0 8.750442181e-10 6.528899164e-11)
(0 8.511621591e-10 6.981289733e-11)
(0 8.257157e-10 7.403580921e-11)
(0 7.988132032e-10 7.787532674e-11)
(0 7.705910939e-10 8.124652806e-11)
(0 7.412145284e-10 8.406341324e-11)
(0 7.10877464e-10 8.624064518e-11)
(0 6.798021009e-10 8.769547775e-11)
(8.091620208e-53 6.482376558e-10 8.834994649e-11)
(7.600528648e-53 6.164584623e-10 8.813312492e-11)
(0 5.84761336e-10 8.698344309e-11)
(0 5.534621684e-10 8.485081802e-11)
(0 5.228917039e-10 8.169860334e-11)
(0 4.933905582e-10 7.750515678e-11)
(0 4.653035992e-10 7.226510137e-11)
(0 4.38973924e-10 6.599011077e-11)
(0 4.14736657e-10 5.870928869e-11)
(0 3.929128018e-10 5.046892863e-11)
(0 3.738032893e-10 4.133170279e-11)
(0 3.576833599e-10 3.137508986e-11)
(0 3.447974036e-10 2.068919439e-11)
(0 3.353544599e-10 9.373910872e-12)
(0 3.295246083e-10 -2.464261731e-12)
(0 3.274364919e-10 -1.471571092e-11)
(0 3.291761224e-10 -2.727117702e-11)
(0 3.34786995e-10 -4.002519455e-11)
(0 3.442714087e-10 -5.287922778e-11)
(0 3.575928068e-10 -6.574451391e-11)
(0 3.746789194e-10 -7.854428309e-11)
(0 3.954254755e-10 -9.12152966e-11)
(0 4.197002349e-10 -1.037083242e-10)
(0 4.473470278e-10 -1.159875543e-10)
(0 4.78189447e-10 -1.280287298e-10)
(0 5.120337911e-10 -1.398162753e-10)
(0 5.486709141e-10 -1.513395139e-10)
(0 5.878767083e-10 -1.625884982e-10)
(0 6.294111029e-10 -1.735496985e-10)
(0 6.73015577e-10 -1.842020911e-10)
(0 7.184093626e-10 -1.945138145e-10)
(0 7.652846006e-10 -2.044398021e-10)
(0 8.133008745e-10 -2.139204264e-10)
(0 8.620795899e-10 -2.228814272e-10)
(0 9.111987429e-10 -2.31235014e-10)
(0 9.601885528e-10 -2.388822286e-10)
(0 1.008528419e-09 -2.457162301e-10)
(0 1.055645496e-09 -2.516263358e-10)
(0 1.100915121e-09 -2.565022735e-10)
(0 1.143663124e-09 -2.60238375e-10)
(0 1.183169897e-09 -2.627371902e-10)
(0 1.218675821e-09 -2.639123964e-10)
(0 1.249387473e-09 -2.636907151e-10)
(0 1.274483909e-09 -2.620129406e-10)
(0 1.293122658e-09 -2.588340126e-10)
(0 1.304445436e-09 -2.541223691e-10)
(0 1.307584123e-09 -2.47858604e-10)
(0 1.301667375e-09 -2.400336967e-10)
(0 1.285827589e-09 -2.3064688e-10)
(0 1.259207006e-09 -2.197034615e-10)
(0 1.220962036e-09 -2.072127513e-10)
(0 1.170265811e-09 -1.931863828e-10)
(0 1.106309637e-09 -1.776370081e-10)
(0 1.02830343e-09 -1.605774435e-10)
(0 9.354757591e-10 -1.420202313e-10)
(0 8.270746557e-10 -1.219777599e-10)
(0 7.023682082e-10 -1.00463026e-10)
(0 5.606552395e-10 -7.749097045e-11)
(0 4.010830978e-10 -5.30796596e-11)
(0 2.25086193e-10 -2.725180074e-11)
(0 2.089346574e-12 4.206566623e-23)
(0 8.935862864e-10 -6.571662755e-13)
(0 8.94912459e-10 -1.971885505e-12)
(0 8.96750492e-10 -3.28437465e-12)
(0 8.988826381e-10 -4.590554668e-12)
(0 9.013212071e-10 -5.886084623e-12)
(0 9.040606838e-10 -7.166570429e-12)
(0 9.070953732e-10 -8.427544526e-12)
(0 9.104184326e-10 -9.66445467e-12)
(0 9.140218465e-10 -1.087254105e-11)
(0 9.178964457e-10 -1.204681776e-11)
(0 9.220318959e-10 -1.318196143e-11)
(0 9.264166525e-10 -1.427231309e-11)
(0 9.310378774e-10 -1.53117819e-11)
(0 9.358813193e-10 -1.629385813e-11)
(0 9.409311665e-10 -1.721152297e-11)
(0 9.461698835e-10 -1.805726121e-11)
(0 9.515780366e-10 -1.882296412e-11)
(0 9.571341189e-10 -1.949994187e-11)
(0 9.628143668e-10 -2.007883199e-11)
(0 9.685925662e-10 -2.054963531e-11)
(0 9.744398487e-10 -2.090165152e-11)
(0 9.803244829e-10 -2.112354383e-11)
(0 9.862116693e-10 -2.120328795e-11)
(0 9.920633512e-10 -2.112824036e-11)
(0 9.978380427e-10 -2.088508846e-11)
(0 1.003490673e-09 -2.045994083e-11)
(0 1.008972436e-09 -1.983832713e-11)
(0 1.014230647e-09 -1.900536836e-11)
(0 1.019208611e-09 -1.79458632e-11)
(0 1.023845525e-09 -1.664453563e-11)
(0 1.028076432e-09 -1.508616835e-11)
(0 1.031832245e-09 -1.325588482e-11)
(0 1.03503983e-09 -1.113932328e-11)
(0 1.037622169e-09 -8.722996064e-12)
(0 1.03949857e-09 -5.994580069e-12)
(0 1.040584962e-09 -2.943425288e-12)
(0 1.040794291e-09 4.390143282e-13)
(0 1.040037056e-09 4.158564056e-12)
(0 1.038222022e-09 8.217841089e-12)
(0 1.035257108e-09 1.26156131e-11)
(0 1.031050457e-09 1.734630235e-11)
(0 1.02551166e-09 2.23993148e-11)
(0 1.018553137e-09 2.775849883e-11)
(0 1.010091663e-09 3.340141555e-11)
(0 1.000050075e-09 3.92987668e-11)
(0 9.883591518e-10 4.541368566e-11)
(0 9.749596962e-10 5.170127102e-11)
(0 9.598047697e-10 5.810807221e-11)
(0 9.428620496e-10 6.457191444e-11)
(0 9.241162485e-10 7.102174936e-11)
(0 9.035715327e-10 7.737792148e-11)
(0 8.81253889e-10 8.355250812e-11)
(0 8.572133776e-10 8.945012161e-11)
(0 8.315261992e-10 9.49688064e-11)
(0 8.042964854e-10 1.000014269e-10)
(0 7.756577095e-10 1.044371678e-10)
(0 7.457736077e-10 1.081635648e-10)
(0 7.148385228e-10 1.110686694e-10)
(0 6.830770918e-10 1.130437486e-10)
(0 6.507432128e-10 1.139860369e-10)
(0 6.181182233e-10 1.138018587e-10)
(0 5.855082251e-10 1.124095357e-10)
(0 5.532405057e-10 1.097423657e-10)
(0 5.216590611e-10 1.057510896e-10)
(0 4.911192882e-10 1.004061983e-10)
(0 4.619820058e-10 9.369954122e-11)
(0 4.346070032e-10 8.564562221e-11)
(0 4.09346342e-10 7.628200854e-11)
(0 3.865376072e-10 6.566921735e-11)
(0 3.664972884e-10 5.388948644e-11)
(0 3.495144643e-10 4.10448694e-11)
(0 3.358450094e-10 2.725418902e-11)
(0 3.257065837e-10 1.264947821e-11)
(0 3.192746948e-10 -2.628400658e-12)
(0 3.16680064e-10 -1.843422432e-11)
(0 3.180074302e-10 -3.462326364e-11)
(0 3.232957861e-10 -5.105581852e-11)
(0 3.325399462e-10 -6.760176108e-11)
(0 3.456932936e-10 -8.414434288e-11)
(0 3.626715337e-10 -1.005835052e-10)
(0 3.833572533e-10 -1.16837852e-10)
(0 4.076050012e-10 -1.328454991e-10)
(0 4.35246493e-10 -1.485630729e-10)
(0 4.660954314e-10 -1.639633329e-10)
(0 4.999513959e-10 -1.790310603e-10)
(0 5.366023172e-10 -1.937580622e-10)
(0 5.758252103e-10 -2.081372614e-10)
(0 6.173850281e-10 -2.221568925e-10)
(0 6.610316965e-10 -2.357948319e-10)
(0 7.06495544e-10 -2.490140114e-10)
(0 7.534814766e-10 -2.61758833e-10)
(0 8.016623573e-10 -2.739533601e-10)
(0 8.50672158e-10 -2.855010288e-10)
(0 9.000994914e-10 -2.962863896e-10)
(0 9.494821575e-10 -3.061783295e-10)
(0 9.983032617e-10 -3.150348964e-10)
(0 1.045989344e-09 -3.227088362e-10)
(0 1.091910765e-09 -3.290536702e-10)
(0 1.135384394e-09 -3.339293397e-10)
(0 1.175678361e-09 -3.372072881e-10)
(0 1.212018372e-09 -3.387742662e-10)
(0 1.243594861e-09 -3.385350068e-10)
(0 1.26957021e-09 -3.364134065e-10)
(0 1.289085543e-09 -3.323525941e-10)
(0 1.301267122e-09 -3.263137647e-10)
(0 1.30523281e-09 -3.182742619e-10)
(0 1.300098995e-09 -3.082249107e-10)
(0 1.284987609e-09 -2.961671148e-10)
(0 1.259032055e-09 -2.821098089e-10)
(0 1.221381042e-09 -2.660667604e-10)
(0 1.171200519e-09 -2.480542778e-10)
(0 1.107674329e-09 -2.280895751e-10)
(0 1.030003806e-09 -2.061896524e-10)
(0 9.374067042e-10 -1.823707841e-10)
(0 8.291169503e-10 -1.566484707e-10)
(0 7.043835631e-10 -1.290379907e-10)
(0 5.624826045e-10 -9.955490549e-11)
(0 4.025336113e-10 -6.821537101e-11)
(0 2.259679231e-10 -3.503493687e-11)
(0 2.100949751e-12 4.233334589e-23)
(0 8.917708199e-10 -8.081438091e-13)
(0 8.930998768e-10 -2.424412761e-12)
(0 8.94944247e-10 -4.037227352e-12)
(0 8.970871423e-10 -5.641933035e-12)
(0 8.995411206e-10 -7.233644491e-12)
(0 9.023008351e-10 -8.807271349e-12)
(0 9.053607545e-10 -1.035756508e-11)
(0 9.087142436e-10 -1.187907729e-11)
(0 9.123535563e-10 -1.336611163e-11)
(0 9.162698546e-10 -1.481264722e-11)
(0 9.204531912e-10 -1.621228722e-11)
(0 9.248924571e-10 -1.755818977e-11)
(0 9.295752953e-10 -1.884302608e-11)
(0 9.344879763e-10 -2.005892047e-11)
(0 9.396152528e-10 -2.119741164e-11)
(0 9.449401995e-10 -2.2249391e-11)
(0 9.504440395e-10 -2.320505949e-11)
(0 9.561059648e-10 -2.405386504e-11)
(0 9.619029418e-10 -2.478447338e-11)
(0 9.67809503e-10 -2.538472947e-11)
(0 9.737975322e-10 -2.58416573e-11)
(0 9.798360487e-10 -2.614144675e-11)
(0 9.858910041e-10 -2.626946654e-11)
(0 9.919250911e-10 -2.621025579e-11)
(0 9.978975621e-10 -2.594755017e-11)
(0 1.003764045e-09 -2.546430824e-11)
(0 1.009476355e-09 -2.474280413e-11)
(0 1.014982311e-09 -2.376474099e-11)
(0 1.020225569e-09 -2.251143488e-11)
(0 1.025145503e-09 -2.096400426e-11)
(0 1.029677145e-09 -1.910361022e-11)
(0 1.033751188e-09 -1.691169809e-11)
(0 1.037294026e-09 -1.437031065e-11)
(0 1.04022786e-09 -1.146244074e-11)
(0 1.042470827e-09 -8.17249424e-12)
(0 1.043937237e-09 -4.48680639e-12)
(0 1.044537911e-09 -3.942542738e-13)
(0 1.044180693e-09 4.113117517e-12)
(0 1.042771148e-09 9.039414055e-12)
(0 1.040213441e-09 1.438421741e-11)
(0 1.036411375e-09 2.01418503e-11)
(0 1.031269584e-09 2.630062942e-11)
(0 1.024694867e-09 3.284204006e-11)
(0 1.016597689e-09 3.973991241e-11)
(0 1.006893885e-09 4.695956589e-11)
(0 9.95506587e-10 5.445703611e-11)
(0 9.823683855e-10 6.217836485e-11)
(0 9.674236954e-10 7.005907167e-11)
(0 9.506312769e-10 7.802377843e-11)
(0 9.319668481e-10 8.59860992e-11)
(0 9.114257277e-10 9.384875989e-11)
(0 8.890254461e-10 1.015040614e-10)
(0 8.648082628e-10 1.088346419e-10)
(0 8.388435147e-10 1.157146481e-10)
(0 8.112297099e-10 1.220112621e-10)
(0 7.820962633e-10 1.275866905e-10)
(0 7.516047655e-10 1.323005534e-10)
(0 7.199496744e-10 1.360127632e-10)
(0 6.873583168e-10 1.38586773e-10)
(0 6.540900839e-10 1.398931995e-10)
(0 6.204347129e-10 1.398135931e-10)
(0 5.867095686e-10 1.382442753e-10)
(0 5.532558891e-10 1.350999755e-10)
(0 5.204340204e-10 1.303172023e-10)
(0 4.886177408e-10 1.238571199e-10)
(0 4.581878291e-10 1.157079028e-10)
(0 4.295250685e-10 1.058863355e-10)
(0 4.030028839e-10 9.443860781e-11)
(0 3.789798161e-10 8.14400505e-11)
(0 3.577920405e-10 6.699379301e-11)
(0 3.397461826e-10 5.122819293e-11)
(0 3.251127307e-10 3.42931936e-11)
(0 3.141203889e-10 1.635566092e-11)
(0 3.069516942e-10 -2.405971966e-12)
(0 3.037401328e-10 -2.180761032e-11)
(0 3.04568865e-10 -4.166560269e-11)
(0 3.094710462e-10 -6.180291598e-11)
(0 3.184316692e-10 -8.205500134e-11)
(0 3.313908325e-10 -1.022751262e-10)
(0 3.482483193e-10 -1.223386471e-10)
(0 3.688692988e-10 -1.421458928e-10)
(0 3.930908101e-10 -1.616231406e-10)
(0 4.207284927e-10 -1.807215423e-10)
(0 4.515828791e-10 -1.994138387e-10)
(0 4.854445144e-10 -2.176891708e-10)
(0 5.22097276e-10 -2.355462978e-10)
(0 5.613194812e-10 -2.529859097e-10)
(0 6.028826293e-10 -2.700026052e-10)
(0 6.465478594e-10 -2.865773348e-10)
(0 6.920603938e-10 -3.026708771e-10)
(0 7.391423788e-10 -3.182190399e-10)
(0 7.874846785e-10 -3.331299554e-10)
(0 8.367382991e-10 -3.472838717e-10)
(0 8.865062247e-10 -3.605354132e-10)
(0 9.363364771e-10 -3.727182137e-10)
(0 9.857171504e-10 -3.836513694e-10)
(0 1.034073981e-09 -3.93147118e-10)
(0 1.080770757e-09 -4.010188655e-10)
(0 1.125112554e-09 -4.070888568e-10)
(0 1.166351441e-09 -4.111947522e-10)
(0 1.203693999e-09 -4.131947203e-10)
(0 1.236309757e-09 -4.129707213e-10)
(0 1.26333967e-09 -4.104299961e-10)
(0 1.283904017e-09 -4.055048048e-10)
(0 1.297109704e-09 -3.981507102e-10)
(0 1.302057368e-09 -3.88343677e-10)
(0 1.297848646e-09 -3.760764285e-10)
(0 1.283593223e-09 -3.613544246e-10)
(0 1.258414453e-09 -3.441919187e-10)
(0 1.221452626e-09 -3.24608412e-10)
(0 1.171866123e-09 -3.026257976e-10)
(0 1.108831248e-09 -2.782662705e-10)
(0 1.031540967e-09 -2.515510168e-10)
(0 9.392031467e-10 -2.224995624e-10)
(0 8.310394709e-10 -1.911296904e-10)
(0 7.062849039e-10 -1.574577018e-10)
(0 5.641993e-10 -1.214988149e-10)
(0 4.038916018e-10 -8.326642308e-11)
(0 2.268020246e-10 -4.277312428e-11)
(0 2.115596939e-12 4.268545796e-23)
(0 8.896754899e-10 -9.613279063e-13)
(0 8.910082317e-10 -2.883713643e-12)
(0 8.928603705e-10 -4.801684012e-12)
(0 8.950160067e-10 -6.709934634e-12)
(0 8.974879583e-10 -8.602975591e-12)
(0 9.002711312e-10 -1.047506921e-11)
(0 9.033602402e-10 -1.232023132e-11)
(0 9.067489317e-10 -1.413221122e-11)
(0 9.104297962e-10 -1.590442802e-11)
(0 9.143943917e-10 -1.762991508e-11)
(0 9.186332252e-10 -1.930124707e-11)
(0 9.231356976e-10 -2.091048327e-11)
(0 9.278900123e-10 -2.244909903e-11)
(0 9.328830523e-10 -2.390793552e-11)
(0 9.381002354e-10 -2.527712943e-11)
(0 9.435253556e-10 -2.654605892e-11)
(0 9.49140411e-10 -2.770327108e-11)
(0 9.549254157e-10 -2.873643172e-11)
(0 9.608581942e-10 -2.963226944e-11)
(0 9.669141605e-10 -3.037655085e-11)
(0 9.730660924e-10 -3.095405087e-11)
(0 9.792839126e-10 -3.134854984e-11)
(0 9.855344838e-10 -3.154281439e-11)
(0 9.917814114e-10 -3.151860653e-11)
(0 9.979848442e-10 -3.125668976e-11)
(0 1.004101259e-09 -3.073688959e-11)
(0 1.01008323e-09 -2.993817647e-11)
(0 1.015879208e-09 -2.883881858e-11)
(0 1.02143332e-09 -2.741655215e-11)
(0 1.026685229e-09 -2.564880946e-11)
(0 1.03157005e-09 -2.351295713e-11)
(0 1.03601831e-09 -2.098660237e-11)
(0 1.039955943e-09 -1.804793974e-11)
(0 1.043304311e-09 -1.467620571e-11)
(0 1.045980265e-09 -1.085219894e-11)
(0 1.047896309e-09 -6.558908758e-12)
(0 1.048960892e-09 -1.782184293e-12)
(0 1.049078891e-09 3.488523055e-12)
(0 1.048152275e-09 9.259401535e-12)
(0 1.046080949e-09 1.553144714e-11)
(0 1.042763742e-09 2.229959573e-11)
(0 1.03809954e-09 2.955175789e-11)
(0 1.031988563e-09 3.726781849e-11)
(0 1.024333842e-09 4.541857569e-11)
(0 1.015042934e-09 5.396472167e-11)
(0 1.004029904e-09 6.285586068e-11)
(0 9.912175921e-10 7.202967309e-11)
(0 9.765401075e-10 8.141120928e-11)
(0 9.599455264e-10 9.091241465e-11)
(0 9.413987091e-10 1.004318693e-10)
(0 9.208841874e-10 1.09854856e-10)
(0 8.98409061e-10 1.190537501e-10)
(0 8.740058382e-10 1.278888551e-10)
(0 8.477351458e-10 1.362096695e-10)
(0 8.196882166e-10 1.438566976e-10)
(0 7.899890514e-10 1.506637721e-10)
(0 7.587961311e-10 1.564609794e-10)
(0 7.263035432e-10 1.610781126e-10)
(0 6.927413637e-10 1.643486727e-10)
(0 6.583751322e-10 1.661142417e-10)
(0 6.235042706e-10 1.662291436e-10)
(0 5.884593477e-10 1.645651324e-10)
(0 5.535981568e-10 1.610159871e-10)
(0 5.193006535e-10 1.555017484e-10)
(0 4.859628585e-10 1.479724946e-10)
(0 4.539898782e-10 1.38411389e-10)
(0 4.237882117e-10 1.268368799e-10)
(0 3.957575411e-10 1.133037644e-10)
(0 3.702822172e-10 9.790300678e-11)
(0 3.477227114e-10 8.07600976e-11)
(0 3.284073659e-10 6.203199487e-11)
(0 3.12624841e-10 4.190263693e-11)
(0 3.006176741e-10 2.057729025e-11)
(0 2.925773067e-10 -1.724112726e-12)
(0 2.886408164e-10 -2.477429187e-11)
(0 2.888894496e-10 -4.834641038e-11)
(0 2.93348966e-10 -7.22219521e-11)
(0 3.019917767e-10 -9.619840919e-11)
(0 3.147408645e-10 -1.200962164e-10)
(0 3.31475432e-10 -1.437644603e-10)
(0 3.520380857e-10 -1.670846823e-10)
(0 3.762431222e-10 -1.899723503e-10)