/*--------------------------------*- C++ -*----------------------------------*\
  =========                 |
  \\      /  F ield         | OpenFOAM: The Open Source CFD Toolbox
   \\    /   O peration     | Website:  https://openfoam.org
    \\  /    A nd           | Version:  6
     \\/     M anipulation  |
\*---------------------------------------------------------------------------*/
FoamFile
{
    version     2.0;
    format      ascii;
    class       volScalarField;
    location    "0.0003";
    object      Num_divU;
}
// * * * * * * * * * * * * * * * * * * * * * * * * * * * * * * * * * * * * * //

dimensions      [0 0 -1 0 0 0 0];

internalField   nonuniform List<scalar> 
600
(
1.860873856e-09
-5.748855076e-10
-5.739422649e-10
-7.479545557e-10
-9.548271011e-10
-1.353720607e-09
-1.9832818e-09
-2.984319734e-09
-4.341859798e-09
-5.520025899e-09
-3.550441563e-09
1.16185114e-08
6.625992405e-08
1.750860798e-07
-4.030009172e-08
-6.997490044e-07
-3.168740749e-06
-7.674564424e-11
-8.107608531e-11
-4.466798752e-11
3.604978552e-12
3.601422359e-11
3.200379521e-11
6.925535963e-12
2.853248469e-11
1.498170835e-10
8.992091795e-11
2.491469954e-11
1.53836269e-06
-4.155813157e-11
2.003158131e-09
-7.44575138e-10
-7.51450497e-10
-9.526754722e-10
-1.206152145e-09
-1.688079483e-09
-2.436685635e-09
-3.562997491e-09
-5.066604726e-09
-7.074629672e-09
-1.013464875e-08
-1.779761947e-08
-4.344400619e-08
-1.299091369e-07
-2.626538942e-07
-1.920905709e-07
1.550801623e-06
3.276767012e-06
-7.099667904e-07
1.23975985e-11
-6.636864501e-13
2.665350796e-11
4.509852859e-12
-2.461745682e-11
4.68335116e-11
7.797524607e-18
-1.332276424e-06
-1.315488011e-06
-1.089712053e-07
1.005762398e-06
1.931834551e-09
-8.707065313e-10
-8.28820034e-10
-9.945233222e-10
-1.249493366e-09
-1.742381699e-09
-2.568374936e-09
-3.824774477e-09
-5.751427707e-09
-9.211750958e-09
-1.766800881e-08
-4.261072289e-08
-1.162400332e-07
-3.086738467e-07
-6.654375091e-07
-1.085912876e-06
-1.422853613e-06
-4.573726766e-07
5.017718964e-06
1.51045987e-05
-2.49546079e-11
2.050390245e-11
-5.687254614e-12
8.02517475e-11
6.645840631e-12
9.586304516e-06
-2.007830969e-06
-2.053767e-06
-2.779559243e-06
-1.508612495e-06
1.660026113e-09
-9.657259361e-10
-7.979353894e-10
-8.922206216e-10
-1.080683062e-09
-1.534305212e-09
-2.321726103e-09
-3.52278491e-09
-5.15748582e-09
-7.335777795e-09
-1.073823469e-08
-1.895818757e-08
-4.625354249e-08
-1.367363008e-07
-2.830029015e-07
-2.590523574e-07
1.429589265e-06
3.149440575e-06
-8.618418218e-07
-7.170829392e-11
-9.340871638e-12
1.871562703e-11
5.060125751e-11
2.005398422e-11
1.11897531e-10
3.393656814e-11
-1.767135579e-06
-1.448594633e-06
-2.277342159e-07
9.225829909e-07
1.20368817e-09
-1.015517509e-09
-6.746844586e-10
-6.401727446e-10
-7.153001464e-10
-1.05472452e-09
-1.749432539e-09
-2.901168008e-09
-4.524628682e-09
-6.111303876e-09
-4.865477921e-09
8.565122086e-09
5.770343341e-08
1.514270488e-07
-1.037342697e-07
-8.36251675e-07
-3.318300064e-06
-4.887426984e-11
-5.658235024e-11
-4.825666199e-11
-8.095329875e-12
1.531476803e-11
2.750577867e-11
7.9747352e-11
6.447009831e-11
4.563734299e-11
6.079186128e-11
3.217049195e-11
1.504850646e-06
2.555059801e-11
6.271625481e-10
-1.029489456e-09
-4.7340444e-10
-2.727890625e-10
-1.733497183e-10
-3.111836218e-10
-8.126846238e-10
-2.025823327e-09
-4.906473499e-09
-1.174941078e-08
-2.663597552e-08
-5.280532811e-08
-7.166403282e-08
-7.205324059e-08
3.601857921e-07
4.409332967e-07
-2.94475371e-11
-3.449701982e-11
-5.523276986e-11
-3.590963597e-11
-2.480405583e-12
1.9841256e-11
3.142249635e-11
4.719547173e-11
6.438205917e-11
6.713303308e-11
6.149369158e-11
9.883418814e-11
7.725150193e-11
4.641459285e-11
-3.449298149e-12
-1.018465112e-09
-2.329478258e-10
1.613730666e-10
4.937583353e-10
7.021319949e-10
7.52370905e-10
2.979471253e-10
-2.271138966e-09
-1.30375956e-08
-5.113049109e-08
-1.664176464e-07
-3.968438173e-07
-1.977308821e-07
2.763115447e-07
2.529772048e-06
-4.067278866e-11
-4.193038191e-11
-3.925885959e-11
-2.589405464e-11
-2.670538863e-12
1.648678614e-11
2.838633503e-11
4.532901472e-11
5.007563568e-11
5.53878019e-11
7.794926754e-11
8.55869556e-11
7.266047107e-11
4.866457082e-11
-5.986741233e-10
-9.952605674e-10
-5.514965368e-13
5.756926298e-10
1.142952866e-09
1.778172847e-09
2.768399859e-09
4.694164324e-09
8.560825871e-09
1.512611646e-08
2.075225299e-08
-4.211598807e-09
-3.89580788e-07
-1.206677636e-06
-2.316969625e-06
-3.972197309e-11
-3.679444657e-11
-3.598882827e-11
-3.617672892e-11
-2.541252686e-11
-6.260569691e-12
1.154837876e-11
2.351830776e-11
3.525660209e-11
4.736421395e-11
5.743202101e-11
7.150694724e-11
8.333184973e-11
7.156637741e-11
4.938104886e-11
-1.087476642e-09
-9.799036231e-10
1.703244243e-10
8.64521683e-10
1.558832486e-09
2.368203126e-09
3.664851818e-09
6.256450929e-09
1.200603799e-08
2.470362582e-08
4.997665746e-08
6.721599817e-08
-5.507440242e-07
-1.558049767e-06
-1.631560614e-06
-2.770784082e-11
-3.266228792e-11
-3.604166618e-11
-3.569296335e-11
-2.660735248e-11
-1.179528376e-11
3.531467075e-12
1.839629876e-11
3.479932678e-11
5.124097831e-11
6.555614728e-11
7.71177596e-11
8.22002999e-11
7.024058238e-11
4.932388359e-11
-1.402720149e-09
-9.779713391e-10
2.496465446e-10
9.824998098e-10
1.667925611e-09
2.355992672e-09
3.102996073e-09
3.649701405e-09
2.443879561e-09
-5.981280234e-09
-3.650215132e-08
-1.112224338e-07
-7.510814643e-09
-1.608292732e-07
1.527975046e-07
-3.011229691e-11
-3.332499072e-11
-3.582827143e-11
-3.615629278e-11
-3.175963154e-11
-1.904793092e-11
-3.521386079e-12
1.626865174e-11
3.984379154e-11
6.059928292e-11
7.714296666e-11
8.497174514e-11
7.793863693e-11
7.132467603e-11
5.074117154e-11
-1.518218964e-09
-9.975487359e-10
2.310112165e-10
9.416817176e-10
1.591469577e-09
2.240119917e-09
2.97141835e-09
3.531219117e-09
2.374846077e-09
-6.059296754e-09
-3.661762515e-08
-1.1182818e-07
-8.470541995e-09
-1.650092875e-07
1.481506556e-07
-3.01775297e-11
-3.8290623e-11
-4.017164546e-11
-4.197128815e-11
-3.171281498e-11
-2.145568558e-11
-2.978427418e-12
2.219883837e-11
4.853964466e-11
7.639945751e-11
8.50754124e-11
7.330162373e-11
7.868294952e-11
4.853485538e-11
4.104858569e-11
-1.427207613e-09
-1.036710851e-09
1.151326742e-10
7.507630769e-10
1.342165073e-09
2.052227679e-09
3.301319659e-09
5.953185985e-09
1.183832629e-08
2.463862969e-08
4.960948877e-08
6.600605887e-08
-5.539568547e-07
-1.571494811e-06
-1.648973476e-06
-3.441991659e-11
-5.244476087e-11
-4.436485777e-11
-3.286222257e-11
-3.630203892e-11
-2.007173433e-11
5.304283971e-12
3.339460289e-11
6.361532698e-11
7.360583567e-11
7.473140417e-11
6.515577804e-11
1.700160404e-11
5.025187519e-11
2.717547683e-11
-1.169912542e-09
-1.098341577e-09
-9.113942309e-11
4.002668258e-10
8.217694114e-10
1.317306646e-09
2.253709954e-09
4.273582827e-09
8.374926764e-09
1.51445152e-08
2.078626403e-08
-4.858917342e-09
-3.981082888e-07
-1.230605362e-06
-2.301458176e-06
-3.151605363e-11
-4.134318131e-11
-4.468268639e-11
-5.501408624e-11
-2.431896866e-11
-6.730454568e-12
1.841516091e-11
4.695624339e-11
5.753954081e-11
8.076497298e-11
4.670376714e-11
-5.695112866e-12
8.158100185e-11
4.778142727e-11
3.761302395e-11
-7.978127748e-10
-1.171773127e-09
-3.538874663e-10
-5.251675594e-11
1.145531644e-10
1.703221514e-10
1.650638347e-10
-1.882008865e-10
-2.530527696e-09
-1.309305466e-08
-5.125074817e-08
-1.673692148e-07
-4.003105654e-07
-2.032355608e-07
2.783670619e-07
2.485371599e-06
-4.72350774e-11
-4.858299264e-11
6.784155513e-12
-6.03090058e-11
-2.265100015e-12
4.058222644e-11
5.05202411e-11
6.637704576e-11
1.169178242e-11
5.25257971e-11
7.787438795e-11
6.67061458e-11
7.903303499e-11
3.081278579e-11
-3.926061778e-10
-1.243137434e-09
-6.176578437e-10
-5.002444219e-10
-5.651070158e-10
-8.542388828e-10
-1.417564895e-09
-2.559629376e-09
-5.288904677e-09
-1.201436623e-08
-2.701815176e-08
-5.366201434e-08
-7.47092699e-08
-9.148923155e-08
3.019295202e-07
4.106319425e-07
-1.64446005e-11
3.322335266e-11
-1.007688285e-10
-2.091933684e-11
-2.440743004e-11
2.446873684e-11
3.808066616e-11
-1.625162551e-11
1.609996879e-10
6.066438194e-11
4.261247569e-11
5.527972412e-11
3.375649098e-11
1.593432563e-11
-2.379068098e-11
-1.297408799e-09
-8.331062378e-10
-8.62523761e-10
-1.082751285e-09
-1.576043147e-09
-2.343739239e-09
-3.492850131e-09
-5.048470273e-09
-6.597329974e-09
-5.221661557e-09
8.595683236e-09
5.935032193e-08
1.515994344e-07
-1.386501245e-07
-8.617639891e-07
-3.392030234e-06
-4.630433192e-11
-1.325611936e-11
-1.01295109e-10
-3.620692682e-11
1.400110665e-11
9.217281067e-14
1.586521121e-10
7.527276079e-11
3.026211579e-11
1.065315423e-11
5.452460538e-17
1.538603274e-06
1.898767519e-12
2.284596464e-10
-1.319263129e-09
-9.752519329e-10
-1.085540568e-09
-1.411200853e-09
-2.003653277e-09
-2.913962687e-09
-4.168208474e-09
-5.877980844e-09
-8.148292249e-09
-1.167924427e-08
-1.996099548e-08
-4.727536803e-08
-1.381222932e-07
-2.869359656e-07
-2.985127547e-07
1.331737311e-06
3.044663835e-06
-8.136817419e-07
-3.540532451e-11
7.992372068e-12
3.108818106e-11
6.859786083e-11
5.833200112e-11
1.33545476e-11
9.020068825e-18
-1.438213898e-06
-1.378293038e-06
-2.332575334e-07
1.099251859e-06
3.360829629e-10
-1.318027603e-09
-1.019003038e-09
-1.168579956e-09
-1.523164699e-09
-2.162384509e-09
-3.135533431e-09
-4.535705458e-09
-6.630711727e-09
-1.031864312e-08
-1.9043328e-08
-4.419767709e-08
-1.18004407e-07
-3.105301393e-07
-6.686503453e-07
-1.122400188e-06
-1.510421312e-06
-4.546060322e-07
4.78772879e-06
1.487951146e-05
2.651704546e-11
3.299335964e-11
2.72696228e-11
-1.381727089e-11
-2.317571117e-12
9.514983498e-06
-2.126212559e-06
-2.073480515e-06
-2.911234906e-06
-1.371823401e-06
2.747949103e-10
-1.297607153e-09
-9.592072846e-10
-1.106046395e-09
-1.409880745e-09
-2.034216976e-09
-2.941962273e-09
-4.286314162e-09
-6.021351219e-09
-8.338626185e-09
-1.174602847e-08
-2.000406485e-08
-4.722631632e-08
-1.368678617e-07
-2.834327965e-07
-3.144100883e-07
1.330142312e-06
3.037674797e-06
-8.379261226e-07
-2.710452632e-11
1.265003745e-11
2.29191474e-11
6.640631769e-12
-2.074407468e-12
4.402949187e-11
2.918652868e-11
-1.635870399e-06
-1.546363256e-06
9.285999128e-08
1.020376267e-06
4.869079061e-11
-1.217573277e-09
-8.390867362e-10
-8.66079792e-10
-1.116384895e-09
-1.583604471e-09
-2.424807216e-09
-3.643291808e-09
-5.373580245e-09
-6.902491033e-09
-5.464423681e-09
8.741820839e-09
6.024860988e-08
1.525257523e-07
-1.572288538e-07
-8.835198649e-07
-3.438931075e-06
-9.069950639e-11
-6.832242735e-11
-3.549201993e-11
-3.471857438e-12
1.790893064e-11
1.213303274e-11
2.748152061e-11
2.129314493e-11
1.353250277e-10
6.68511154e-11
1.335017354e-11
1.451783307e-06
-6.59976177e-11
)
;

boundaryField
{
    lowerWall
    {
        type            calculated;
        value           nonuniform 0();
    }
    atmosphere
    {
        type            calculated;
        value           nonuniform List<scalar> 
20
(
1.860873856e-09
2.003158131e-09
1.931834551e-09
1.660026113e-09
1.20368817e-09
6.271625481e-10
-3.449298149e-12
-5.986741233e-10
-1.087476642e-09
-1.402720149e-09
-1.518218964e-09
-1.427207613e-09
-1.169912542e-09
-7.978127748e-10
-3.926061778e-10
-2.379068098e-11
2.284596464e-10
3.360829629e-10
2.747949103e-10
4.869079061e-11
)
;
    }
    rightWall
    {
        type            empty;
    }
    leftWall
    {
        type            empty;
    }
    frontAndBack
    {
        type            calculated;
        value           nonuniform 0();
    }
    procBoundary2to0
    {
        type            processor;
        value           nonuniform List<scalar> 
30
(
1.454733445e-09
-4.265862502e-10
-3.92927651e-10
-4.466897525e-10
-5.743989055e-10
-7.984859914e-10
-1.28876814e-09
-2.344093545e-09
-5.001514884e-09
-1.152315641e-08
-2.584341032e-08
-4.95271751e-08
-5.835318538e-08
-3.331064309e-08
4.7457824e-07
5.874353077e-07
-3.95346701e-11
-4.854855367e-11
-7.138070021e-11
-6.150942311e-11
-1.445840227e-11
1.562639855e-11
2.058736656e-11
4.508269189e-12
7.108886814e-11
1.019989643e-10
1.075936983e-10
5.03187665e-11
-2.428171203e-11
9.72044786e-11
)
;
    }
    procBoundary2to3
    {
        type            processor;
        value           nonuniform List<scalar> 
20
(
5.707936866e-11
-4.721979719e-11
-4.098817237e-11
-2.631415275e-11
1.715055748e-11
4.672616861e-11
5.180571922e-11
5.813738999e-11
6.313183243e-11
6.577643268e-11
5.759418548e-11
3.306180553e-11
1.080599956e-11
4.81651446e-11
3.208285527e-11
-2.53416226e-11
-3.439822362e-11
-2.554206789e-12
-3.668161038e-11
9.0043293e-11
)
;
    }
    procBoundary2to4
    {
        type            processor;
        value           nonuniform List<scalar> 
30
(
-2.526158928e-10
-1.154283814e-09
-6.159923755e-10
-5.513619818e-10
-5.997791174e-10
-8.899954474e-10
-1.472335317e-09
-2.79387024e-09
-5.728103306e-09
-1.265026554e-08
-2.768627676e-08
-5.475379409e-08
-7.738337153e-08
-9.754186464e-08
2.767876819e-07
3.770491753e-07
-4.11558829e-11
-5.502617556e-11
-9.737386659e-11
-6.715522141e-11
-1.536198587e-11
2.300217997e-11
3.407642074e-11
4.155113905e-12
7.903356925e-11
8.891926585e-11
1.175502103e-10
5.739457562e-11
-2.646991939e-11
1.151070177e-10
)
;
    }
}


// ************************************************************************* //
