/*--------------------------------*- C++ -*----------------------------------*\
  =========                 |
  \\      /  F ield         | OpenFOAM: The Open Source CFD Toolbox
   \\    /   O peration     | Website:  https://openfoam.org
    \\  /    A nd           | Version:  6
     \\/     M anipulation  |
\*---------------------------------------------------------------------------*/
FoamFile
{
    version     2.0;
    format      ascii;
    class       volScalarField;
    location    "0.0043";
    object      TRHS;
}
// * * * * * * * * * * * * * * * * * * * * * * * * * * * * * * * * * * * * * //

dimensions      [1 -1 -3 0 0 0 0];

internalField   nonuniform List<scalar> 
9600
(
-1.477998718e-09
-3.296970044e-09
-4.24314587e-09
-4.335624566e-09
-4.019307369e-09
-3.528951849e-09
-3.012515383e-09
-2.52950276e-09
-2.122834745e-09
-1.79552452e-09
-1.562004078e-09
-1.411542788e-09
-1.352952882e-09
-1.373830024e-09
-1.483548666e-09
-1.671058781e-09
-1.947576185e-09
-2.303799845e-09
-2.752726681e-09
-3.286683778e-09
-3.920257776e-09
-4.647037911e-09
-5.482622042e-09
-6.421216949e-09
-7.478862569e-09
-8.650162739e-09
-9.951341786e-09
-1.137676995e-08
-1.294129315e-08
-1.463670224e-08
-1.647402815e-08
-1.844103778e-08
-2.054494933e-08
-2.277053684e-08
-2.512166546e-08
-2.757869796e-08
-3.013809315e-08
-3.277039466e-08
-3.546032112e-08
-3.816783884e-08
-4.08690034e-08
-4.351807679e-08
-4.608550633e-08
-4.851960236e-08
-5.078368397e-08
-5.282220547e-08
-5.460041419e-08
-5.607483232e-08
-5.723249068e-08
-5.806548827e-08
-5.861290093e-08
-5.894716243e-08
-5.923001149e-08
-5.972873536e-08
-6.091461472e-08
-6.354850781e-08
-6.886554502e-08
-7.871686863e-08
-9.556497289e-08
-1.218196931e-07
-1.577501815e-07
-1.989099571e-07
-2.396129485e-07
-3.097922504e-07
-4.545745053e-07
-1.155193634e-06
-1.82976656e-06
-0.002039352951
268.4828431
0
0
0
0
0
0
0
0
0
0
0
0
0
0
0
0
0
0
0
0
0
0
0
0
0
0
0
0
0
0
0
0
0
0
0
0
0
0
0
0
0
0
-0.00775470148
-0.00103107338
-1.265545111e-06
-6.305558638e-07
-1.067671211e-07
-1.745733068e-08
-7.672324428e-08
-1.915974612e-07
5.474422678e-08
-3.417438052e-09
-5.886087784e-09
-6.639163817e-09
-6.191777031e-09
-5.373057898e-09
-4.500047908e-09
-3.706810506e-09
-3.031691911e-09
-2.488008363e-09
-2.066227546e-09
-1.762775274e-09
-1.564003886e-09
-1.46749457e-09
-1.462592073e-09
-1.550458945e-09
-1.723881172e-09
-1.987216852e-09
-2.335971516e-09
-2.777006548e-09
-3.308026706e-09
-3.937873583e-09
-4.665869474e-09
-5.502119908e-09
-6.446964672e-09
-7.51133698e-09
-8.696345921e-09
-1.001339542e-08
-1.146335886e-08
-1.305629362e-08
-1.479062255e-08
-1.667327111e-08
-1.869980223e-08
-2.087483112e-08
-2.319216562e-08
-2.565380762e-08
-2.824897345e-08
-3.097225441e-08
-3.380382029e-08
-3.672932158e-08
-3.972259866e-08
-4.276558094e-08
-4.582997698e-08
-4.889418939e-08
-5.192488606e-08
-5.489570774e-08
-5.777416963e-08
-6.054386879e-08
-6.319363613e-08
-6.57389775e-08
-6.821290541e-08
-7.069129683e-08
-7.329455566e-08
-7.622887931e-08
-7.981490762e-08
-8.456295621e-08
-9.124157745e-08
-1.009818766e-07
-1.153373658e-07
-1.362787309e-07
-1.660047941e-07
-2.069204347e-07
-2.625440033e-07
-3.43808423e-07
-4.802290251e-07
-7.146688966e-07
-1.102177716e-06
-1.5301319e-06
-1.275925931e-06
-0.0006146762281
218.7121761
0
0
0
0
0
0
0
0
0
0
0
0
0
0
0
0
0
0
0
0
0
0
0
0
0
0
0
0
0
0
0
0
0
0
0
0
0
0
0
0
-0.007487406358
-8.988367505e-07
-1.440301168e-06
-1.565934032e-06
-1.017297351e-06
-6.544311883e-07
-4.462566555e-07
-3.790657543e-07
-3.355146971e-07
1.609351198e-08
-9.101459063e-09
-1.104652183e-08
-1.030320612e-08
-8.554313092e-09
-6.880951189e-09
-5.480843515e-09
-4.358157728e-09
-3.477704291e-09
-2.798035351e-09
-2.288695418e-09
-1.922588792e-09
-1.683150132e-09
-1.554723201e-09
-1.529859225e-09
-1.600081178e-09
-1.763645779e-09
-2.016653848e-09
-2.361095385e-09
-2.796217196e-09
-3.326765897e-09
-3.954334057e-09
-4.685624022e-09
-5.523796213e-09
-6.476867175e-09
-7.549178284e-09
-8.749797918e-09
-1.008373692e-08
-1.155989504e-08
-1.318204227e-08
-1.49569305e-08
-1.688597904e-08
-1.897412916e-08
-2.122186509e-08
-2.36332384e-08
-2.620658702e-08
-2.894125018e-08
-3.182842642e-08
-3.48595855e-08
-3.802004345e-08
-4.129882571e-08
-4.468161345e-08
-4.815757304e-08
-5.171000117e-08
-5.532348493e-08
-5.897901562e-08
-6.266647922e-08
-6.638335275e-08
-7.01468094e-08
-7.399087432e-08
-7.797893122e-08
-8.220562907e-08
-8.68184694e-08
-9.203435884e-08
-9.818180636e-08
-1.057437438e-07
-1.154233155e-07
-1.281993728e-07
-1.453866537e-07
-1.686822037e-07
-2.00279295e-07
-2.432599309e-07
-3.027606293e-07
-3.882495637e-07
-5.146423858e-07
-6.8913304e-07
-8.808266824e-07
-9.066059997e-07
-1.020681769e-06
-9.551861397e-07
-0.001793730736
1203.953807
0
0
0
0
0
0
0
0
0
0
0
0
0
0
0
0
0
0
0
0
0
0
0
0
0
0
0
0
0
0
0
0
0
0
0
0
0
0
840.1641334
-0.00106000502
-1.593351208e-06
-1.521410247e-06
-1.293197015e-06
-1.166396301e-06
-9.430088334e-07
-7.383382147e-07
-6.117046425e-07
-5.67268128e-07
-9.810428931e-08
-3.358490265e-08
-2.310185947e-08
-1.54249004e-08
-1.107802111e-08
-8.243447554e-09
-6.275163328e-09
-4.850727327e-09
-3.795898671e-09
-3.012142936e-09
-2.435375894e-09
-2.026768243e-09
-1.757167259e-09
-1.609710056e-09
-1.569976434e-09
-1.631460336e-09
-1.787284485e-09
-2.036650825e-09
-2.377180556e-09
-2.811811845e-09
-3.341308825e-09
-3.971308158e-09
-4.704772458e-09
-5.549180987e-09
-6.509075165e-09
-7.593396381e-09
-8.807947376e-09
-1.016243584e-08
-1.16626018e-08
-1.331707018e-08
-1.512993431e-08
-1.710825883e-08
-1.925541801e-08
-2.157850653e-08
-2.40806589e-08
-2.676686815e-08
-2.963552303e-08
-3.268495265e-08
-3.590752437e-08
-3.929872823e-08
-4.285215663e-08
-4.656633418e-08
-5.043622322e-08
-5.445795013e-08
-5.862262343e-08
-6.29265082e-08
-6.737050261e-08
-7.197176562e-08
-7.676103896e-08
-8.179143933e-08
-8.713650304e-08
-9.290367454e-08
-9.9239848e-08
-1.063549167e-07
-1.14542339e-07
-1.242212211e-07
-1.359734226e-07
-1.505898929e-07
-1.691038803e-07
-1.928461867e-07
-2.2354591e-07
-2.635607127e-07
-3.161858301e-07
-3.855817494e-07
-4.743016105e-07
-5.743231272e-07
-6.552532891e-07
-6.67026461e-07
-6.591043782e-07
-1.041927583e-06
-1.034938748e-06
-0.001519600852
2049.595184
4962.536073
0
0
0
0
0
0
0
0
0
0
0
0
0
0
0
0
0
0
0
0
0
0
0
0
0
0
0
0
0
0
0
0
0
0
4718.21628
1904.959969
-0.001061631309
-1.887943233e-06
-1.883434819e-06
-1.410111743e-06
-1.315421041e-06
-1.234684439e-06
-1.087957195e-06
-9.499773099e-07
-8.555487568e-07
-8.184211353e-07
-2.686554624e-07
-4.105531746e-08
-2.70723274e-08
-1.729268245e-08
-1.2062359e-08
-8.793013307e-09
-6.597923223e-09
-5.046038268e-09
-3.917833515e-09
-3.088775818e-09
-2.48509525e-09
-2.058585114e-09
-1.778781261e-09
-1.623919136e-09
-1.580740902e-09
-1.639271132e-09
-1.794671763e-09
-2.043246488e-09
-2.385056041e-09
-2.820453221e-09
-3.352926577e-09
-3.985702759e-09
-4.724707803e-09
-5.575181492e-09
-6.544839461e-09
-7.640550211e-09
-8.871423786e-09
-1.024518633e-08
-1.177098781e-08
-1.345578298e-08
-1.530760152e-08
-1.733270022e-08
-1.953925772e-08
-2.193423063e-08
-2.452576417e-08
-2.73186669e-08
-3.031640604e-08
-3.35181162e-08
-3.692339417e-08
-4.053159745e-08
-4.434626887e-08
-4.837126552e-08
-5.261143564e-08
-5.706801075e-08
-6.174303523e-08
-6.664111879e-08
-7.177795818e-08
-7.718134792e-08
-8.289551764e-08
-8.89793583e-08
-9.551241014e-08
-1.02597666e-07
-1.103724581e-07
-1.190162639e-07
-1.287699154e-07
-1.399555859e-07
-1.530045644e-07
-1.684734176e-07
-1.870544707e-07
-2.095757705e-07
-2.370076372e-07
-2.704416256e-07
-3.109153252e-07
-3.58696349e-07
-4.113433899e-07
-4.603165418e-07
-4.908040391e-07
-4.944504002e-07
-5.108520592e-07
-4.97126691e-07
-3.590629091e-07
7.131471498e-07
-0.005166005593
-0.05020947142
14955.47909
0
0
0
0
0
0
0
0
0
0
0
0
0
0
0
0
0
0
0
0
0
0
0
0
0
0
0
0
0
0
0
0
14788.00611
-0.04917122948
-0.00480208521
-1.131013253e-07
-1.404733143e-06
-1.48328631e-06
-1.430206012e-06
-1.329106863e-06
-1.255618069e-06
-1.178899858e-06
-1.130983536e-06
-1.081516714e-06
-1.111944277e-06
-4.745770039e-07
-2.320447165e-08
-1.92885757e-08
-1.46299041e-08
-1.099314906e-08
-8.307962798e-09
-6.341877378e-09
-4.890839741e-09
-3.812303473e-09
-3.011855555e-09
-2.426081987e-09
-2.012747021e-09
-1.742522972e-09
-1.595876518e-09
-1.55905406e-09
-1.623549377e-09
-1.783687965e-09
-2.037105983e-09
-2.382989963e-09
-2.823055846e-09
-3.35999652e-09
-3.998500971e-09
-4.743762625e-09
-5.602624283e-09
-6.582171866e-09
-7.690974478e-09
-8.93757368e-09
-1.033145943e-08
-1.188137902e-08
-1.359642489e-08
-1.548484062e-08
-1.75557442e-08
-1.981817566e-08
-2.228224769e-08
-2.495691775e-08
-2.785001936e-08
-3.096624326e-08
-3.430914167e-08
-3.788191016e-08
-4.169089152e-08
-4.574490209e-08
-5.005496065e-08
-5.463048946e-08
-5.947985086e-08
-6.461163309e-08
-7.004107659e-08
-7.579337434e-08
-8.190678601e-08
-8.84307614e-08
-9.542717385e-08
-1.029712724e-07
-1.11157207e-07
-1.201005557e-07
-1.299437031e-07
-1.408602791e-07
-1.530655483e-07
-1.668214003e-07
-1.824318972e-07
-2.00214207e-07
-2.20448282e-07
-2.43291724e-07
-2.686314778e-07
-2.95772281e-07
-3.228242993e-07
-3.457154957e-07
-3.573402572e-07
-3.489462815e-07
-3.149237213e-07
-2.544897101e-07
-1.095183881e-07
2.815840268e-07
9.644529863e-07
1.255362533e-06
2.719382451e-06
-1.250705943e-06
1391.63738
4852.309699
0
0
0
0
0
0
0
0
0
0
0
0
0
0
0
0
0
0
0
0
0
0
0
0
0
0
0
0
4638.77641
1263.691911
-1.899280477e-06
1.851378969e-06
8.575027829e-07
2.547407258e-07
-7.243875204e-07
-1.151718624e-06
-1.259063674e-06
-1.2705359e-06
-1.24760994e-06
-1.256753651e-06
-1.24230788e-06
-1.280686936e-06
-1.398346623e-06
-6.869614618e-07
-1.484362467e-08
-1.367417138e-08
-1.140210393e-08
-9.142855128e-09
-7.210626929e-09
-5.657727652e-09
-4.441391307e-09
-3.503205025e-09
-2.790998043e-09
-2.263952325e-09
-1.891244149e-09
-1.650618617e-09
-1.525924649e-09
-1.506260096e-09
-1.584139062e-09
-1.755377043e-09
-2.017850608e-09
-2.371846022e-09
-2.819105255e-09
-3.363280822e-09
-4.009028827e-09
-4.762505849e-09
-5.630544702e-09
-6.621235443e-09
-7.743170789e-09
-9.00589472e-09
-1.041897319e-08
-1.199236982e-08
-1.373568162e-08
-1.565894973e-08
-1.777237913e-08
-2.008716861e-08
-2.261450905e-08
-2.536530011e-08
-2.834840641e-08
-3.157115849e-08
-3.503987087e-08
-3.876268242e-08
-4.275058486e-08
-4.701787972e-08
-5.157939487e-08
-5.64491263e-08
-6.163989872e-08
-6.716774143e-08
-7.305598119e-08
-7.933889473e-08
-8.606044656e-08
-9.327288093e-08
-1.01035265e-07
-1.09416231e-07
-1.184958219e-07
-1.283667363e-07
-1.391310121e-07
-1.508973706e-07
-1.637752675e-07
-1.778639529e-07
-1.932210697e-07
-2.098063361e-07
-2.273894205e-07
-2.45421711e-07
-2.628456549e-07
-2.778113401e-07
-2.872723209e-07
-2.865401226e-07
-2.690963974e-07
-2.271885688e-07
-1.522147241e-07
-3.03123005e-08
1.789239274e-07
5.303174554e-07
1.090342236e-06
1.141261721e-06
2.536556304e-06
3.752150086e-06
-0.003506586066
-0.0137855612
616.2809487
3174.084098
0
0
0
0
0
0
0
0
0
0
0
0
0
0
0
0
0
0
0
0
0
0
0
0
2951.405507
480.4967044
-0.01290492619
-0.003184835713
2.291656368e-06
1.574109697e-06
5.423225602e-07
2.357000565e-07
-4.040225686e-07
-8.164811502e-07
-1.035343962e-06
-1.153832646e-06
-1.205673531e-06
-1.293948993e-06
-1.340271172e-06
-1.429871568e-06
-1.657919893e-06
-8.87551056e-07
-9.351410827e-09
-9.320435137e-09
-8.363012542e-09
-7.101039319e-09
-5.842148286e-09
-4.726668138e-09
-3.793790075e-09
-3.041976003e-09
-2.455435616e-09
-2.015360239e-09
-1.704684378e-09
-1.50935303e-09
-1.418717935e-09
-1.42507616e-09
-1.523430989e-09
-1.710944913e-09
-1.986877712e-09
-2.352174738e-09
-2.809494327e-09
-3.362907289e-09
-4.017829864e-09
-4.780716558e-09
-5.659112616e-09
-6.661383792e-09
-7.796780612e-09
-9.075107041e-09
-1.050668489e-08
-1.210194991e-08
-1.387165544e-08
-1.582680905e-08
-1.797918056e-08
-2.034103821e-08
-2.292489906e-08
-2.574242778e-08
-2.88039704e-08
-3.211863302e-08
-3.569602409e-08
-3.954798405e-08
-4.368979397e-08
-4.813896917e-08
-5.29133195e-08
-5.802946486e-08
-6.350481805e-08
-6.936143591e-08
-7.563033433e-08
-8.235194455e-08
-8.957399857e-08
-9.73480117e-08
-1.05729042e-07
-1.147773675e-07
-1.245604308e-07
-1.351501605e-07
-1.466157684e-07
-1.590111125e-07
-1.723577729e-07
-1.866151892e-07
-2.016321119e-07
-2.170664153e-07
-2.322752164e-07
-2.461682454e-07
-2.570248909e-07
-2.622641299e-07
-2.581859112e-07
-2.397437484e-07
-2.004717041e-07
-1.325943482e-07
-2.66884366e-08
1.303525649e-07
3.588669074e-07
6.724755572e-07
1.053298748e-06
1.311408347e-06
1.605461601e-06
2.508213384e-06
3.067886273e-06
5.097414697e-06
2.985295599e-06
-0.02202755763
5563.554862
-0.09849847288
13552.0111
0
0
0
0
0
0
0
0
0
0
0
0
0
0
0
0
0
0
13221.19698
-0.1069294435
5423.059159
-0.02111209425
2.189528091e-06
3.927351073e-06
2.201293696e-06
1.519166591e-06
7.814383613e-07
4.837027664e-07
1.852918351e-07
-2.587173382e-07
-6.487948203e-07
-8.855757206e-07
-1.045669946e-06
-1.191810558e-06
-1.309405583e-06
-1.421249763e-06
-1.60179702e-06
-1.889583542e-06
-1.055577942e-06
-5.531882484e-09
-5.995141111e-09
-5.757081612e-09
-5.160537734e-09
-4.42622509e-09
-3.697379822e-09
-3.041520767e-09
-2.48690491e-09
-2.041446685e-09
-1.703570951e-09
-1.468017632e-09
-1.328891638e-09
-1.280972291e-09
-1.320372487e-09
-1.444667798e-09
-1.652959947e-09
-1.945842038e-09
-2.32540097e-09
-2.795089279e-09
-3.359731397e-09
-4.025279692e-09
-4.798795749e-09
-5.688248171e-09
-6.702523836e-09
-7.851224652e-09
-9.14465248e-09
-1.059351671e-08
-1.22089767e-08
-1.400253783e-08
-1.598632109e-08
-1.817302685e-08
-2.057591743e-08
-2.320810486e-08
-2.608195798e-08
-2.920874115e-08
-3.259942916e-08
-3.626625661e-08
-4.022433318e-08
-4.44916817e-08
-4.908785094e-08
-5.403192194e-08
-5.934264885e-08
-6.504109402e-08
-7.115511338e-08
-7.772156491e-08
-8.478539068e-08
-9.239538618e-08
-1.00601286e-07
-1.094535773e-07
-1.190063115e-07
-1.293183117e-07
-1.404493116e-07
-1.52448208e-07
-1.653341775e-07
-1.790676923e-07
-1.935092724e-07
-2.083549238e-07
-2.230473244e-07
-2.366562131e-07
-2.47734379e-07
-2.541462832e-07
-2.528790981e-07
-2.398508544e-07
-2.09765246e-07
-1.560693056e-07
-7.104584081e-08
5.404165872e-08
2.285155848e-07
4.600337223e-07
7.450985261e-07
1.058953345e-06
1.347592158e-06
1.701479419e-06
2.534354934e-06
2.762622357e-06
3.797007165e-06
3.421250292e-06
5.078064844e-06
1.079644245e-06
-6.651003283e-07
-0.03416345135
9223.36405
-0.1416273323
11575.92008
4149.438172
0
0
0
0
0
0
0
0
0
0
4108.587483
11508.17565
-0.1463281679
8939.768724
-0.03332963153
-7.571253965e-07
3.666538132e-07
3.900873934e-06
2.420405079e-06
2.774910047e-06
1.80841604e-06
1.633452069e-06
7.935420798e-07
4.447987716e-07
1.344802897e-07
-1.930072685e-07
-5.228283673e-07
-7.779033626e-07
-9.798927485e-07
-1.155093322e-06
-1.315035859e-06
-1.47177148e-06
-1.703549636e-06
-2.040623418e-06
-1.178102947e-06
-2.722539675e-09
-3.423215552e-09
-3.594077142e-09
-3.433073008e-09
-3.084576612e-09
-2.669730382e-09
-2.258164735e-09
-1.889519159e-09
-1.584539253e-09
-1.352853956e-09
-1.198039986e-09
-1.120849279e-09
-1.120929667e-09
-1.197961441e-09
-1.352125279e-09
-1.584477703e-09
-1.897096486e-09
-2.293219057e-09
-2.77722116e-09
-3.354650328e-09
-4.032091655e-09
-4.817119804e-09
-5.718200506e-09
-6.744609063e-09
-7.906359694e-09
-9.21407083e-09
-1.067891688e-08
-1.231257354e-08
-1.412728139e-08
-1.613588752e-08
-1.835185834e-08
-2.078890005e-08
-2.346046798e-08
-2.637924085e-08
-2.955728665e-08
-3.300707519e-08
-3.674299904e-08
-4.07823111e-08
-4.5144557e-08
-4.984982985e-08
-5.491768134e-08
-6.036823548e-08
-6.622593733e-08
-7.252308293e-08
-7.930089067e-08
-8.660637575e-08
-9.448805111e-08
-1.029931609e-07
-1.121692235e-07
-1.220677594e-07
-1.327463441e-07
-1.442639569e-07
-1.566667852e-07
-1.699630748e-07
-1.840876636e-07
-1.988508868e-07
-2.138701894e-07
-2.28476094e-07
-2.415956879e-07
-2.516094771e-07
-2.561876205e-07
-2.521081193e-07
-2.350820251e-07
-1.996223128e-07
-1.39013136e-07
-4.545318104e-08
8.941514302e-08
2.729530197e-07
5.077315541e-07
7.851992114e-07
1.085009603e-06
1.392920173e-06
1.767669177e-06
2.318782385e-06
2.484232561e-06
2.517372489e-06
2.217934481e-06
2.03623592e-06
2.558020834e-07
2.570065859e-06
8.102609785e-06
-0.02324489227
-3.570349516e-07
-0.02918088694
-0.02052889607
3994.277974
0
0
0
0
0
0
0
0
3748.04382
-0.01980520493
-0.02901011493
-3.689124337e-07
-0.02253000317
7.580914131e-06
2.014572596e-06
-7.4037289e-07
1.033579654e-06
1.20941792e-06
1.512922477e-06
1.498876731e-06
1.344847762e-06
7.975321156e-07
4.096044064e-07
1.049633815e-07
-1.920564522e-07
-4.848459026e-07
-7.429327365e-07
-9.430059136e-07
-1.153211857e-06
-1.342136587e-06
-1.533258719e-06
-1.752169293e-06
-2.138492017e-06
-1.247025065e-06
-5.888574885e-10
-1.410330927e-09
-1.821673768e-09
-1.945699334e-09
-1.873789076e-09
-1.702776872e-09
-1.494393507e-09
-1.289667659e-09
-1.11469217e-09
-9.852895754e-10
-9.108621701e-10
-8.969567661e-10
-9.471593196e-10
-1.064138139e-09
-1.250450978e-09
-1.508979079e-09
-1.843255172e-09
-2.257628311e-09
-2.757406122e-09
-3.348822245e-09
-4.03909273e-09
-4.836293402e-09
-5.749335018e-09
-6.787867023e-09
-7.962228987e-09
-9.283331637e-09
-1.076271218e-08
-1.241246731e-08
-1.42453488e-08
-1.627473177e-08
-1.851444152e-08
-2.097835667e-08
-2.367992189e-08
-2.663189868e-08
-2.984685483e-08
-3.333834959e-08
-3.71221926e-08
-4.121672641e-08
-4.564170525e-08
-5.041671983e-08
-5.55609318e-08
-6.109545029e-08
-6.704715698e-08
-7.345157689e-08
-8.035199632e-08
-8.77956725e-08
-9.582936326e-08
-1.044982498e-07
-1.138490841e-07
-1.239359849e-07
-1.348239541e-07
-1.465843313e-07
-1.592784955e-07
-1.729299739e-07
-1.874846075e-07
-2.027597274e-07
-2.183757718e-07
-2.336693526e-07
-2.475787167e-07
-2.585000935e-07
-2.641097383e-07
-2.611653032e-07
-2.453107704e-07
-2.10927152e-07
-1.510584139e-07
-5.744263196e-08
7.915764176e-08
2.674351393e-07
5.110418191e-07
8.00207723e-07
1.109725975e-06
1.419551352e-06
1.786959233e-06
2.31892921e-06
2.461932088e-06
2.465080755e-06
2.123678495e-06
1.969524763e-06
1.089200735e-07
2.588202606e-06
8.002060676e-06
-0.02320460579
-3.58723498e-07
-0.02912897376
-0.02047011977
3993.507447
0
0
0
0
0
0
0
0
3747.185658
-0.01975050479
-0.0289627641
-3.704106698e-07
-0.02249377562
7.614563527e-06
1.973879148e-06
-7.606896666e-07
9.274751801e-07
1.133198502e-06
1.471200015e-06
1.438790897e-06
1.267171581e-06
7.162747832e-07
3.602365167e-07
1.087180214e-07
-1.863444931e-07
-4.794164533e-07
-7.414850258e-07
-9.518003758e-07
-1.162808123e-06
-1.351118582e-06
-1.513695695e-06
-1.765781936e-06
-2.14206477e-06
-1.260600533e-06
1.062587043e-09
1.78782165e-10
-3.775147147e-10
-6.892424164e-10
-8.133160084e-10
-8.269192588e-10
-7.815686291e-10
-7.152117818e-10
-6.548317132e-10
-6.190295003e-10
-6.204649227e-10
-6.679180518e-10
-7.677618264e-10
-9.250598759e-10
-1.144323972e-09
-1.430048877e-09
-1.787051814e-09
-2.22074563e-09
-2.737244707e-09
-3.343490968e-09
-4.047236359e-09
-4.857030428e-09
-5.782205178e-09
-6.832720188e-09
-8.01916241e-09
-9.352714029e-09
-1.084512307e-08
-1.250881588e-08
-1.43568339e-08
-1.64028135e-08
-1.866062603e-08
-2.11440154e-08
-2.386613727e-08
-2.683962711e-08
-3.007724249e-08
-3.359311199e-08
-3.740355685e-08
-4.152685858e-08
-4.598186429e-08
-5.078678639e-08
-5.595992628e-08
-6.15226905e-08
-6.750334167e-08
-7.393853093e-08
-8.08714516e-08
-8.834741588e-08
-9.641061615e-08
-1.051046428e-07
-1.144781626e-07
-1.24593183e-07
-1.355303578e-07
-1.473848923e-07
-1.602496944e-07
-1.741865917e-07
-1.891898818e-07
-2.051409825e-07
-2.21752538e-07
-2.384913576e-07
-2.544700087e-07
-2.682892133e-07
-2.778303294e-07
-2.800147787e-07
-2.705734574e-07
-2.438726767e-07
-1.927858184e-07
-1.084378898e-07
2.036320366e-08
2.073368146e-07
4.64815345e-07
7.877383947e-07
1.134441e-06
1.433519589e-06
1.766754932e-06
2.55625351e-06
2.638816591e-06
3.635222253e-06
3.164047652e-06
4.953091953e-06
9.602975844e-07
-7.362592075e-07
-0.03408955695
9207.413537
-0.1423037436
11555.32636
4126.892416
0
0
0
0
0
0
0
0
0
0
4087.746362
11489.39177
-0.1469344455
8925.379894
-0.03326498943
-7.483643482e-07
2.035536356e-07
3.704632496e-06
2.011211093e-06
2.443545608e-06
1.563304505e-06
1.427232977e-06
6.293936276e-07
3.411238296e-07
1.03081386e-07
-1.993803831e-07
-5.024278443e-07
-7.768564049e-07
-9.634798643e-07
-1.166011872e-06
-1.329184811e-06
-1.527142456e-06
-1.732169896e-06
-2.083343531e-06
-1.212866619e-06
2.352901427e-09
1.439142718e-09
7.9467543e-10
3.58809713e-10
9.675240857e-11
-5.441265283e-11
-1.368265364e-10
-1.838289657e-10
-2.211041868e-10
-2.678138155e-10
-3.381489489e-10
-4.427494478e-10
-5.898735393e-10
-7.863045298e-10
-1.038122071e-09
-1.351103986e-09
-1.73118528e-09
-2.184658661e-09
-2.718405495e-09
-3.33993282e-09
-4.057518107e-09
-4.880157871e-09
-5.817486815e-09
-6.879762051e-09
-8.077758672e-09
-9.42278547e-09
-1.09267681e-08
-1.260225602e-08
-1.44624273e-08
-1.652086845e-08
-1.879127261e-08
-2.128695005e-08
-2.402057995e-08
-2.700437155e-08
-3.025092622e-08
-3.377426829e-08
-3.759034936e-08
-4.171635047e-08
-4.616925922e-08
-5.096525131e-08
-5.612117841e-08
-6.16579251e-08
-6.760347002e-08
-7.399341886e-08
-8.086825817e-08
-8.826951604e-08
-9.623776154e-08
-1.048154815e-07
-1.140554464e-07
-1.240316887e-07
-1.348464732e-07
-1.466266671e-07
-1.595073161e-07
-1.736071739e-07
-1.890006894e-07
-2.056892191e-07
-2.235646586e-07
-2.423517668e-07
-2.615013957e-07
-2.800139639e-07
-2.961897144e-07
-3.073289262e-07
-3.09443103e-07
-2.970658234e-07
-2.631779811e-07
-1.988963066e-07
-9.16009254e-08
7.96714978e-08
3.472693612e-07
7.311686278e-07
1.179868574e-06
1.471358895e-06
1.736913248e-06
2.500944386e-06
2.883570035e-06
4.857246154e-06
2.803178439e-06
-0.02192305851
5548.404928
-0.09934342961
13522.65712
0
0
0
0
0
0
0
0
0
0
0
0
0
0
0
0
0
0
13195.55003
-0.1076563891
5410.19045
-0.02102477083
1.821343668e-06
3.379242486e-06
1.744659941e-06
1.259040122e-06
4.857688069e-07
3.759947263e-07
1.721951281e-07
-2.092355409e-07
-5.711479267e-07
-8.339658264e-07
-1.017763524e-06
-1.190071304e-06
-1.325438798e-06
-1.469909604e-06
-1.644194706e-06
-1.96387449e-06
-1.116644294e-06
3.363299192e-09
2.438880327e-09
1.741721009e-09
1.224079307e-09
8.655757714e-10
6.131754094e-10
4.324025319e-10
2.945275435e-10
1.761621933e-10
5.87211855e-11
-7.235127197e-11
-2.285852082e-10
-4.193604391e-10
-6.526800371e-10
-9.356940857e-10
-1.275242114e-09
-1.678102683e-09
-2.151353182e-09
-2.702423639e-09
-3.339405839e-09
-4.070991627e-09
-4.90654277e-09
-5.85599285e-09
-6.929778364e-09
-8.138776068e-09
-9.494385743e-09
-1.100856111e-08
-1.269385971e-08
-1.456336431e-08
-1.663042834e-08
-1.890827085e-08
-2.140958805e-08
-2.414631738e-08
-2.713004272e-08
-3.037272926e-08
-3.388765623e-08
-3.768946805e-08
-4.179332215e-08
-4.621361688e-08
-5.096395477e-08
-5.605909821e-08
-6.151815313e-08
-6.736687408e-08
-7.36372022e-08
-8.036449833e-08
-8.758445857e-08
-9.533295491e-08
-1.036513255e-07
-1.125975224e-07
-1.222592761e-07
-1.327621546e-07
-1.442661548e-07
-1.569523111e-07
-1.710061269e-07
-1.866065234e-07
-2.039212792e-07
-2.23100437e-07
-2.442416284e-07
-2.672917485e-07
-2.918586838e-07
-3.169225725e-07
-3.40457238e-07
-3.590003862e-07
-3.673521412e-07
-3.587519169e-07
-3.254972068e-07
-2.572369158e-07
-1.314950723e-07
1.192634176e-07
5.834284747e-07
1.245167011e-06
1.471043538e-06
2.758345311e-06
3.704236187e-06
-0.003466351662
-0.01367694839
599.805732
3147.737433
0
0
0
0
0
0
0
0
0
0
0
0
0
0
0
0
0
0
0
0
0
0
0
0
2929.58301
467.0315035
-0.01281789974
-0.003153553146
2.250188697e-06
1.667109826e-06
5.097717216e-07
3.84991774e-07
-2.35602374e-07
-6.971359797e-07
-9.220487408e-07
-1.110993257e-06
-1.223886703e-06
-1.299941129e-06
-1.390327134e-06
-1.526790294e-06
-1.793489157e-06
-9.710016092e-07
4.15105201e-09
3.228438021e-09
2.501669726e-09
1.931150417e-09
1.506112242e-09
1.180191457e-09
9.248419131e-10
7.15486769e-10
5.311225304e-10
3.544093482e-10
1.710682763e-10
-3.067710374e-11
-2.608039554e-10
-5.280111035e-10
-8.402592388e-10
-1.205091899e-09
-1.629988704e-09
-2.122536027e-09
-2.690736216e-09
-3.343075688e-09
-4.088642301e-09
-4.937092927e-09
-5.898584524e-09
-6.983632233e-09
-8.203167309e-09
-9.568561384e-09
-1.109171365e-08
-1.278506166e-08
-1.466142956e-08
-1.673371002e-08
-1.901447473e-08
-2.151555564e-08
-2.424801415e-08
-2.722243131e-08
-3.044974146e-08
-3.394177385e-08
-3.771113268e-08
-4.177016315e-08
-4.613007976e-08
-5.0801328e-08
-5.579571377e-08
-6.112910205e-08
-6.682275468e-08
-7.29024272e-08
-7.939585044e-08
-8.633085064e-08
-9.373710889e-08
-1.016538646e-07
-1.101434604e-07
-1.193058002e-07
-1.292859474e-07
-1.402715319e-07
-1.524841448e-07
-1.661760811e-07
-1.816416904e-07
-1.992451797e-07
-2.194495516e-07
-2.428112789e-07
-2.699075099e-07
-3.011728799e-07
-3.366238295e-07
-3.753799529e-07
-4.149092289e-07
-4.501698629e-07
-4.736971661e-07
-4.781135095e-07
-4.621527378e-07
-4.176013987e-07
-2.423859978e-07
2.733209017e-07
1.25758238e-06
1.725152098e-06
3.050256036e-06
-1.148759688e-06
1375.675847
4825.653923
0
0
0
0
0
0
0
0
0
0
0
0
0
0
0
0
0
0
0
0
0
0
0
0
0
0
0
0
4617.619145
1251.214293
-1.731390339e-06
2.268026575e-06
1.441049586e-06
7.112588003e-07
-3.787069504e-07
-8.636994487e-07
-1.086193754e-06
-1.186805171e-06
-1.231105486e-06
-1.287917169e-06
-1.290272333e-06
-1.395551694e-06
-1.549780946e-06
-7.903999831e-07
4.758419336e-09
3.845929579e-09
3.105276116e-09
2.502093695e-09
2.032284165e-09
1.653932196e-09
1.343012841e-09
1.078358969e-09
8.413117355e-10
6.158730816e-10
3.884578445e-10
1.473856944e-10
-1.174665737e-10
-4.152374816e-10
-7.54332732e-10
-1.142801975e-09
-1.58858542e-09
-2.09971698e-09
-2.684558561e-09
-3.351990861e-09
-4.111409983e-09
-4.972703576e-09
-5.946129883e-09
-7.04225248e-09
-8.27194124e-09
-9.646483732e-09
-1.117764454e-08
-1.287762906e-08
-1.475884714e-08
-1.683357988e-08
-1.911353453e-08
-2.160955619e-08
-2.433155014e-08
-2.728888713e-08
-3.049097389e-08
-3.394764033e-08
-3.766873153e-08
-4.166324302e-08
-4.593866832e-08
-5.050168952e-08
-5.536007964e-08
-6.052468388e-08
-6.601003242e-08
-7.183324608e-08
-7.801204087e-08
-8.456429167e-08
-9.151156419e-08
-9.888904961e-08
-1.067604547e-07
-1.152319732e-07
-1.244588418e-07
-1.346432941e-07
-1.460334713e-07
-1.589365431e-07
-1.737570107e-07
-1.91058933e-07
-2.116294106e-07
-2.365124006e-07
-2.669936492e-07
-3.045443896e-07
-3.506684678e-07
-4.06438084e-07
-4.712630655e-07
-5.406164927e-07
-6.031742861e-07
-6.458845163e-07
-6.669659753e-07
-7.105004077e-07
-6.970086221e-07
-4.249161237e-07
1.073283352e-06
-0.005123934585
-0.05008451612
14934.86698
0
0
0
0
0
0
0
0
0
0
0
0
0
0
0
0
0
0
0
0
0
0
0
0
0
0
0
0
0
0
0
0
14772.36254
-0.04907817872
-0.004771322173
7.148941313e-07
-7.560956233e-07
-1.202956916e-06
-1.250912965e-06
-1.235203671e-06
-1.244980644e-06
-1.245274911e-06
-1.214717786e-06
-1.205466923e-06
-1.29224848e-06
-5.873497411e-07
5.217465387e-09
4.321106065e-09
3.577571915e-09
2.956176698e-09
2.457617709e-09
2.042941099e-09
1.691510774e-09
1.384920261e-09
1.106573175e-09
8.418290474e-10
5.778955462e-10
3.034777705e-10
8.472833115e-12
-3.163704584e-10
-6.797404166e-10
-1.089964853e-09
-1.555270815e-09
-2.084014604e-09
-2.684896946e-09
-3.367044271e-09
-4.140132449e-09
-5.014180127e-09
-5.999490163e-09
-7.106552128e-09
-8.346150477e-09
-9.729411678e-09
-1.126792232e-08
-1.297355112e-08
-1.485821192e-08
-1.693338884e-08
-1.920980056e-08
-2.169710148e-08
-2.440389203e-08
-2.733803197e-08
-3.050707282e-08
-3.391832767e-08
-3.757843355e-08
-4.149251352e-08
-4.566386057e-08
-5.00946499e-08
-5.478740313e-08
-5.974621221e-08
-6.497680339e-08
-7.048537341e-08
-7.627751242e-08
-8.23587886e-08
-8.874026723e-08
-9.544987195e-08
-1.025473138e-07
-1.101359867e-07
-1.183666787e-07
-1.274372837e-07
-1.376003094e-07
-1.491940326e-07
-1.627076495e-07
-1.788727268e-07
-1.987556892e-07
-2.238305028e-07
-2.560579952e-07
-2.980257541e-07
-3.531214487e-07
-4.254636216e-07
-5.188145905e-07
-6.320003793e-07
-7.508039762e-07
-8.357680818e-07
-8.340853594e-07
-8.645320198e-07
-1.203334229e-06
-1.077171677e-06
-0.001469926876
2032.98644
4933.644358
0
0
0
0
0
0
0
0
0
0
0
0
0
0
0
0
0
0
0
0
0
0
0
0
0
0
0
0
0
0
0
0
0
0
4697.079632
1893.035375
-0.001026827277
-1.029800503e-06
-1.367847547e-06
-1.210978436e-06
-1.232497858e-06
-1.239500014e-06
-1.18556986e-06
-1.084934249e-06
-1.004385429e-06
-1.017023563e-06
-3.820486318e-07
5.553382125e-09
4.677455005e-09
3.939033747e-09
3.310002829e-09
2.794676198e-09
2.356024662e-09
1.975990124e-09
1.638391147e-09
1.328349012e-09
1.032495049e-09
7.388522065e-10
4.365973511e-10
1.158308622e-10
-2.326790458e-10
-6.176771622e-10
-1.047649088e-09
-1.531009553e-09
-2.076313972e-09
-2.692500655e-09
-3.388965627e-09
-4.175504107e-09
-5.062238056e-09
-6.059398907e-09
-7.177384849e-09
-8.426798741e-09
-9.818618804e-09
-1.136418271e-08
-1.307501125e-08
-1.496235087e-08
-1.703682927e-08
-1.930800721e-08
-2.178424799e-08
-2.447267846e-08
-2.737945835e-08
-3.05099661e-08
-3.386867556e-08
-3.745861901e-08
-4.128073563e-08
-4.533362226e-08
-4.961414148e-08
-5.411829949e-08
-5.884182859e-08
-6.377975595e-08
-6.892557188e-08
-7.427056752e-08
-7.980593716e-08
-8.552944346e-08
-9.14575019e-08
-9.763842338e-08
-1.041603716e-07
-1.111522644e-07
-1.187847951e-07
-1.272871688e-07
-1.369953846e-07
-1.484374699e-07
-1.624432357e-07
-1.802519289e-07
-2.036202455e-07
-2.349910654e-07
-2.778212753e-07
-3.371741926e-07
-4.207582728e-07
-5.395632941e-07
-7.066996302e-07
-9.157678246e-07
-1.111778211e-06
-1.082130685e-06
-1.089284468e-06
-1.018510448e-06
-0.001691066907
1164.572683
0
0
0
0
0
0
0
0
0
0
0
0
0
0
0
0
0
0
0
0
0
0
0
0
0
0
0
0
0
0
0
0
0
0
0
0
0
0
812.887481
-0.00102518825
-8.320796116e-07
-1.116317816e-06
-1.25538538e-06
-1.262271883e-06
-1.113304165e-06
-8.953253593e-07
-8.110229289e-07
-7.490655569e-07
-1.99548359e-07
5.786217162e-09
4.934075382e-09
4.206658781e-09
3.577871273e-09
3.054796861e-09
2.601735564e-09
2.202537414e-09
1.842812831e-09
1.509100473e-09
1.189160823e-09
8.717843285e-10
5.466688377e-10
2.041927616e-10
-1.647166523e-10
-5.6877436e-10
-1.016493867e-09
-1.516372526e-09
-2.077143569e-09
-2.707912268e-09
-3.418246908e-09
-4.218061819e-09
-5.117426981e-09
-6.126505292e-09