/*--------------------------------*- C++ -*----------------------------------*\
  =========                 |
  \\      /  F ield         | OpenFOAM: The Open Source CFD Toolbox
   \\    /   O peration     | Website:  https://openfoam.org
    \\  /    A nd           | Version:  6
     \\/     M anipulation  |
\*---------------------------------------------------------------------------*/
FoamFile
{
    version     2.0;
    format      ascii;
    class       volScalarField;
    location    "0.0041";
    object      ViscousDissipation;
}
// * * * * * * * * * * * * * * * * * * * * * * * * * * * * * * * * * * * * * //

dimensions      [1 -1 -3 0 0 0 0];

internalField   nonuniform List<scalar> 
9600
(
1.14300648e-18
1.087937621e-18
1.041784507e-18
1.015535952e-18
1.008394887e-18
1.015743877e-18
1.033563641e-18
1.059161966e-18
1.090932958e-18
1.128029036e-18
1.170084713e-18
1.21706484e-18
1.269148901e-18
1.326689861e-18
1.390164273e-18
1.460173808e-18
1.537415928e-18
1.622705332e-18
1.716951654e-18
1.821194889e-18
1.936580973e-18
2.064404223e-18
2.206072959e-18
2.363159968e-18
2.537359383e-18
2.730546347e-18
2.944710872e-18
3.182003413e-18
3.444615126e-18
3.734796927e-18
4.054691853e-18
4.406346145e-18
4.791484399e-18
5.211454828e-18
5.666831062e-18
6.157161422e-18
6.680305993e-18
7.231977606e-18
7.804850921e-18
8.387901795e-18
8.965198539e-18
9.514901101e-18
1.00077553e-17
1.040619425e-17
1.066358068e-17
1.072504047e-17
1.052968566e-17
1.001626245e-17
9.132873661e-18
7.853774829e-18
6.20455358e-18
4.298619216e-18
2.385640418e-18
9.137273766e-19
6.056228696e-19
2.550648388e-18
8.306532554e-18
1.997850075e-17
4.018843747e-17
7.193118635e-17
1.192963957e-16
1.934854884e-16
3.326484516e-16
6.187626986e-16
1.056621144e-15
1.527102536e-15
2.88858486e-16
5.962452017e-16
1.320521684e-15
1.892215642e-15
2.520497171e-15
3.957255732e-15
1.370803023e-15
4.588564523e-16
2.636129374e-17
4.151187279e-17
1.329788441e-16
2.327232131e-16
3.290993767e-16
4.07575232e-16
4.527983845e-16
4.619875723e-16
4.446062348e-16
4.097452004e-16
3.632561804e-16
3.116729229e-16
2.620610738e-16
2.203327103e-16
1.905737042e-16
1.753847355e-16
1.764525307e-16
1.948793424e-16
2.310418509e-16
2.839694404e-16
3.503305965e-16
4.235379642e-16
4.940118248e-16
5.511657951e-16
5.843714862e-16
5.792800957e-16
5.217584141e-16
4.155171097e-16
2.841686119e-16
1.520782766e-16
4.594295776e-17
5.895941582e-17
5.578097696e-16
1.319459393e-15
3.4450791e-15
2.321689303e-15
1.85202367e-15
2.037131553e-15
2.838025921e-16
1.822856873e-15
3.087758288e-15
1.379000731e-15
1.184848785e-15
1.884276219e-15
3.960027895e-15
1.487595488e-15
1.106646568e-18
1.00892111e-18
9.437620155e-19
9.142883893e-19
9.095374492e-19
9.200644183e-19
9.402744579e-19
9.671771918e-19
9.992537918e-19
1.035816374e-18
1.076632256e-18
1.121765376e-18
1.171452901e-18
1.226085038e-18
1.286145247e-18
1.352233263e-18
1.425019277e-18
1.505287487e-18
1.59389289e-18
1.691819844e-18
1.800132387e-18
1.920040496e-18
2.052838919e-18
2.199983416e-18
2.363019658e-18
2.543668e-18
2.743725502e-18
2.965134795e-18
3.209835534e-18
3.479814514e-18
3.776921969e-18
4.102920802e-18
4.459249028e-18
4.846993616e-18
5.266478738e-18
5.717053146e-18
6.19645774e-18
6.700459738e-18
7.222049027e-18
7.750882103e-18
8.272144382e-18
8.765616528e-18
9.204240736e-18
9.55329361e-18
9.769668621e-18
9.802610312e-18
9.595677518e-18
9.091913123e-18
8.243012429e-18
7.025667363e-18
5.467096675e-18
3.683986457e-18
1.938152428e-18
7.146463081e-19
8.281479739e-19
3.56617085e-18
1.087500982e-17
2.5585056e-17
5.166421683e-17
9.458354735e-17
1.623887968e-16
2.690444812e-16
4.399037122e-16
7.010419171e-16
9.83710042e-16
9.055434962e-16
8.116972887e-17
1.170091482e-15
4.20580151e-16
1.19896719e-15
1.360232004e-14
3.963734412e-14
1.163577629e-14
3.303158224e-15
2.184748802e-16
1.312469703e-16
2.669567711e-16
4.203370803e-16
5.941469606e-16
7.37376166e-16
7.993453156e-16
7.802792452e-16
7.202506016e-16
6.399326528e-16
5.425372932e-16
4.384568247e-16
3.415341148e-16
2.622623354e-16
2.065010511e-16
1.771286018e-16
1.758606149e-16
2.042867796e-16
2.637859812e-16
3.54216371e-16
4.713183991e-16
6.039040247e-16
7.341698448e-16
8.455107917e-16
9.284940874e-16
9.54949866e-16
8.746854313e-16
6.878657778e-16
4.62395736e-16
2.596426975e-16
9.20932251e-17
2.233723619e-16
3.560247756e-15
1.159093246e-14
3.809218095e-14
1.364966924e-14
2.053022718e-15
8.708191388e-17
4.193235348e-16
1.143513e-15
1.945786957e-15
1.853893756e-15
1.58081028e-15
1.672989231e-15
2.63586388e-15
9.758228921e-16
1.064629321e-18
9.178101632e-19
8.376388103e-19
8.126330946e-19
8.142584709e-19
8.294270311e-19
8.523473991e-19
8.804649405e-19
9.126691134e-19
9.485360659e-19
9.880109916e-19
1.031250281e-18
1.078559039e-18
1.130344803e-18
1.18711039e-18
1.24943268e-18
1.317973142e-18
1.39346446e-18
1.476731874e-18
1.568681599e-18
1.670326025e-18
1.78276704e-18
1.907222583e-18
2.045006162e-18
2.197557497e-18
2.36641299e-18
2.553224617e-18
2.759697888e-18
2.98758404e-18
3.238588935e-18
3.514359871e-18
3.816378052e-18
4.145913252e-18
4.503817751e-18
4.890337746e-18
5.304726744e-18
5.744911359e-18
6.2069891e-18
6.684792907e-18
7.169192345e-18
7.647342662e-18
8.101597356e-18
8.508516925e-18
8.837908527e-18
9.052527294e-18
9.108505966e-18
8.957474018e-18
8.551131799e-18
7.850388913e-18
6.841251649e-18
5.561213578e-18
4.140428477e-18
2.864278426e-18
2.265468015e-18
3.257090267e-18
7.320452513e-18
1.676349377e-17
3.506222158e-17
6.729478917e-17
1.207016581e-16
2.054813271e-16
3.356816513e-16
5.271299026e-16
7.783908889e-16
1.003205382e-15
9.422029903e-16
4.773431268e-16
7.633173604e-16
1.766048716e-15
6.93476793e-16
3.75846185e-14
2.585025952e-13
1.748747959e-13
3.336970136e-14
7.043649952e-15
1.065564955e-15
8.047604138e-16
8.61922081e-16
1.212394361e-15
1.508729148e-15
1.553615392e-15
1.392179468e-15
1.213285856e-15
1.045420285e-15
8.485852637e-16
6.406227059e-16
4.535933252e-16
3.066886979e-16
2.065288095e-16
1.538524506e-16
1.487519531e-16
1.933454905e-16
2.919718775e-16
4.484446933e-16
6.596332925e-16
9.060999544e-16
1.149189168e-15
1.360268506e-15
1.573053596e-15
1.752590924e-15
1.686053779e-15
1.321358964e-15
9.000668865e-16
7.753821753e-16
9.613065967e-16
6.861596418e-15
3.394032377e-14
1.737817811e-13
2.552293201e-13
3.520036661e-14
3.303025323e-16
2.060567588e-16
2.881526624e-16
1.074404155e-15
1.96376819e-15
1.988362261e-15
1.533158132e-15
1.207071881e-15
1.494088725e-15
5.809863159e-16
1.452887219e-18
8.623226373e-19
7.39700072e-19
7.187496438e-19
7.265994697e-19
7.456744082e-19
7.705620723e-19
7.993405346e-19
8.312995676e-19
8.66247821e-19
9.042612682e-19
9.455734703e-19
9.905291803e-19
1.039555406e-18
1.093154571e-18
1.151892571e-18
1.216404891e-18
1.287391621e-18
1.36563091e-18
1.451975866e-18
1.54736875e-18
1.652834642e-18
1.769494475e-18
1.898557429e-18
2.041334076e-18
2.199221456e-18
2.373700197e-18
2.566294275e-18
2.778543628e-18
3.011949139e-18
3.267941835e-18
3.547820977e-18
3.85268465e-18
4.183280553e-18
4.539804382e-18
4.921618199e-18
5.326954388e-18
5.752587424e-18
6.193470749e-18
6.642242727e-18
7.08856022e-18
7.518276082e-18
7.91260576e-18
8.247510538e-18
8.49353932e-18
8.616497041e-18
8.579520799e-18
8.347749325e-18
7.897373175e-18
7.23185829e-18
6.409122605e-18
5.585380259e-18
5.083572934e-18
5.497727031e-18
7.84786345e-18
1.380411119e-17
2.600012422e-17
4.845176965e-17
8.707697273e-17
1.502580816e-16
2.492072408e-16
3.972096508e-16
6.043972048e-16
8.594095525e-16
1.088326771e-15
1.129839281e-15
9.314163283e-16
1.130273381e-15
2.474060354e-15
4.022809971e-15
2.655365655e-15
1.214286735e-13
5.324482289e-13
5.805948967e-13
1.435918265e-13
5.044170274e-15
2.25252759e-15
1.508183114e-15
2.785312803e-15
3.639467518e-15
3.433968473e-15
2.571552176e-15
2.081297107e-15
1.803933087e-15
1.419661751e-15
9.981851929e-16
6.349332832e-16
3.656297713e-16
1.910037444e-16
1.014738001e-16
9.052829394e-17
1.606603196e-16
3.241493695e-16
5.980067625e-16
9.893140095e-16
1.464892607e-15
1.917230717e-15
2.251170321e-15
2.783312597e-15
3.689693446e-15
3.889410529e-15
2.922483201e-15
1.549733868e-15
2.221447656e-15
4.891453762e-15
1.421582716e-13
5.759922178e-13
5.367314608e-13
1.232059142e-13
1.055098626e-15
1.001554871e-15
8.240506647e-16
9.985445759e-16
1.680841762e-15
2.140913157e-15
1.901270697e-15
1.265899053e-15
7.276733548e-16
7.069088755e-16
3.23162157e-16
5.552304419e-19
5.90872062e-19
6.114597753e-19
6.258702977e-19
6.446325251e-19
6.677665431e-19
6.942158049e-19
7.233171812e-19
7.548177599e-19
7.887323184e-19
8.252443829e-19
8.646479037e-19
9.073186385e-19
9.536971551e-19
1.00428308e-18
1.059630431e-18
1.120350151e-18
1.18711152e-18
1.260649812e-18
1.341768905e-18
1.431347898e-18
1.530340518e-18
1.639780557e-18
1.76077968e-18
1.894531686e-18
2.042301813e-18
2.205416338e-18
2.385230005e-18
2.583098985e-18
2.800340398e-18
3.038208301e-18
3.297846461e-18
3.580229863e-18
3.886037845e-18
4.215493658e-18
4.568149634e-18
4.942695181e-18
5.336746042e-18
5.746628283e-18
6.167028513e-18
6.590531667e-18
7.007030985e-18
7.403227332e-18
7.762337818e-18
8.064304505e-18
8.286736845e-18
8.407303122e-18
8.408656794e-18
8.287911822e-18
8.073429069e-18
7.853258748e-18
7.821463128e-18
8.351803647e-18
1.011182838e-17
1.423483917e-17
2.257044334e-17
3.80347209e-17
6.506992167e-17
1.101851081e-16
1.824416708e-16
2.934718267e-16
4.559383106e-16
6.778768561e-16
9.487230505e-16
1.217259443e-15
1.390713256e-15
1.442493971e-15
1.669906985e-15
2.485357057e-15
4.360275519e-15
5.85300675e-15
1.364096161e-15
2.182630004e-15
2.49248214e-13
8.400371444e-13
1.709591752e-13
3.455753382e-15
1.232956113e-15
8.887344657e-15
1.146930839e-14
9.47869824e-15
4.552544831e-15
3.410274296e-15
3.367168621e-15
2.622091562e-15
1.717225866e-15
9.872918915e-16
4.888669745e-16
1.888108233e-16
4.240011762e-17
2.325934671e-17
1.335342687e-16
4.057602413e-16
8.961424299e-16
1.655642059e-15
2.642492237e-15
3.501889505e-15
3.605848862e-15
4.744180575e-15
9.742072438e-15
1.185854753e-14
9.092774204e-15
1.259688093e-15
3.418266143e-15
1.698055748e-13
8.339432289e-13
2.447542947e-13
2.08345036e-15
2.531160796e-16
1.815599108e-15
2.92588034e-15
2.397420291e-15
2.29025867e-15
2.334634776e-15
2.180385149e-15
1.645746741e-15
9.362301702e-16
3.7441212e-16
2.854092267e-16
1.882237692e-16
4.114029943e-19
4.689845466e-19
5.098166689e-19
5.394840262e-19
5.666178746e-19
5.938686866e-19
6.221053615e-19
6.516592476e-19
6.827698276e-19
7.157028299e-19
7.507745664e-19
7.883510306e-19
8.288455031e-19
8.727144253e-19
9.204580619e-19
9.726196292e-19
1.029789954e-18
1.092610026e-18
1.161778456e-18
1.238053736e-18
1.32225992e-18
1.41528549e-18
1.51808721e-18
1.631687329e-18
1.757174591e-18
1.89569331e-18
2.048430526e-18
2.21658892e-18
2.401362816e-18
2.603909789e-18
2.825331655e-18
3.06664163e-18
3.328713484e-18
3.612186284e-18
3.917343344e-18
4.243980833e-18
4.591307537e-18
4.957865563e-18
5.34143833e-18
5.738878001e-18
6.145844742e-18
6.556525584e-18
6.963482199e-18
7.357793269e-18
7.729671323e-18
8.06986951e-18
8.372523816e-18
8.640659008e-18
8.896314075e-18
9.198285634e-18
9.671958238e-18
1.055809779e-17
1.229078532e-17
1.561896961e-17
2.179037216e-17
3.281936917e-17
5.185757615e-17
8.366847332e-17
1.35154705e-16
2.157582527e-16
3.372746032e-16
5.120959081e-16
7.481483628e-16
1.03872602e-15
1.349645781e-15
1.620487137e-15
1.813200044e-15
1.997894578e-15
2.229553458e-15
2.230839696e-15
1.435050109e-15
5.673019885e-15
7.913412722e-15
6.287626449e-15
2.891087431e-13
4.710417451e-13
6.27343947e-14
2.013850122e-14
6.77766334e-14
5.520013363e-14
4.150569908e-14
6.09920387e-15
4.536098697e-15
7.438104951e-15
5.606580169e-15
3.380975588e-15
1.789925522e-15
8.231389732e-16
3.003726897e-16
6.459080461e-17
3.518331408e-17
2.121482714e-16
6.793289414e-16
1.608772957e-15
3.219304584e-15
5.585136483e-15
7.684735867e-15
4.817815643e-15
5.997639557e-15
4.112704453e-14
5.574567356e-14
6.816800537e-14
1.982913702e-14
6.176750058e-14
4.736521065e-13
2.849403886e-13
4.013370872e-15
4.051083949e-15
2.716343578e-15
3.729552591e-16
1.895866834e-15
2.561666878e-15
2.610367775e-15
2.374268303e-15
1.920653737e-15
1.291821865e-15
6.5035943e-16
1.873508677e-16
1.729132159e-16
1.469283871e-16
2.903374556e-19
3.629408971e-19
4.171133916e-19
4.582115015e-19
4.925600876e-19
5.238231256e-19
5.53979425e-19
5.841254146e-19
6.149582343e-19
6.47005792e-19
6.807328431e-19
7.165891393e-19
7.550325277e-19
7.965405684e-19
8.416176313e-19
8.908003123e-19
9.446628806e-19
1.003822961e-18
1.068947144e-18
1.140755045e-18
1.220021998e-18
1.307579669e-18
1.40431632e-18
1.511175165e-18
1.629150729e-18
1.759279326e-18
1.902623982e-18
2.060253061e-18
2.233219221e-18
2.422540491e-18
2.629185273e-18
2.854049189e-18
3.097915004e-18
3.361386092e-18
3.644812573e-18
3.948235166e-18
4.271379197e-18
4.61368483e-18
4.974341655e-18
5.352277471e-18
5.746126556e-18
6.154257756e-18
6.575015825e-18
7.007302765e-18
7.451680106e-18
7.912295037e-18
8.400335952e-18
8.940249278e-18
9.580753441e-18
1.041368289e-17
1.160535136e-17
1.344754559e-17
1.643887689e-17
2.141152408e-17
2.972274649e-17
4.353227506e-17
6.618141878e-17
1.026669543e-16
1.601435513e-16
2.482574069e-16
3.788656098e-16
5.643100941e-16
8.130398513e-16
1.121710537e-15
1.46567573e-15
1.796305168e-15
2.057230342e-15
2.208065252e-15
2.177072639e-15
1.803975637e-15
1.264665837e-15
4.107429298e-15
1.783841399e-14
1.545093934e-14
5.344566017e-15
2.768731865e-15
1.790963078e-14
7.879541923e-14
7.223186701e-13
4.414617452e-13
3.56930887e-13
2.234082503e-14
6.392602015e-15
2.618141501e-14
1.482358903e-14
7.861733628e-15
3.782896792e-15
1.710912381e-15
7.507681094e-16
3.625696754e-16
3.224092455e-16
6.249045505e-16
1.486496951e-15
3.456528857e-15
7.497744392e-15
1.471670392e-14
2.70866539e-14
7.331307401e-15
2.063674193e-14
3.495938209e-13
4.396453505e-13
7.199175851e-13
8.19681642e-14
1.894830262e-14
1.817536174e-15
2.62136103e-15
8.35968751e-15
1.261052305e-14
2.157483199e-15
4.89292638e-16
1.526443057e-15
2.232461895e-15
2.305585455e-15
2.003303016e-15
1.512590539e-15
9.579231419e-16
4.729202987e-16
1.624809988e-16
2.721231305e-16
1.665453154e-16
2.25795357e-19
2.89097013e-19
3.433229421e-19
3.87835799e-19
4.255711541e-19
4.591755257e-19
4.905630782e-19
5.210356892e-19
5.515079532e-19
5.826725465e-19
6.151048169e-19
6.49323674e-19
6.858270428e-19
7.251122641e-19
7.676893542e-19
8.14090174e-19
8.648762958e-19
9.206455515e-19
9.820380831e-19
1.049739814e-18
1.124484838e-18
1.207055354e-18
1.298280958e-18
1.399035449e-18
1.510231562e-18
1.632810542e-18
1.767727613e-18
1.915933748e-18
2.078358853e-18
2.255897483e-18
2.449397261e-18
2.659641449e-18
2.887319696e-18
3.132988322e-18
3.397041728e-18
3.679724529e-18
3.981205024e-18
4.301698861e-18
4.641609912e-18
5.001672411e-18
5.383136011e-18
5.788101919e-18
6.220137574e-18
6.685294301e-18
7.193682158e-18
7.761949385e-18
8.417380864e-18
9.204909649e-18
1.019907556e-17
1.152405144e-17
1.338648024e-17
1.612841982e-17
2.031125865e-17
2.684586174e-17
3.718816743e-17
5.362053566e-17
7.963179293e-17
1.20383447e-16
1.831874153e-16
2.777949296e-16
4.160785411e-16
6.103923824e-16
8.696710413e-16
1.19264151e-15
1.559200441e-15
1.924207531e-15
2.219318591e-15
2.360462764e-15
2.247060893e-15
1.806323562e-15
1.297356367e-15
2.209304218e-15
6.497414436e-15
7.753093532e-15
1.165198565e-14
1.631234576e-14
8.543488541e-15
3.206303388e-15
8.535337874e-13
8.114478735e-13
4.803359695e-13
9.029197179e-14
1.234456811e-13
2.09510417e-13
5.451211882e-14
2.20762513e-14
8.673841893e-15
3.73372769e-15
1.864591016e-15
1.193968898e-15
1.145715398e-15
1.705234732e-15
3.417090442e-15
8.125187002e-15
2.126507191e-14
5.397969903e-14
2.143569059e-13
1.29466316e-13
8.329300116e-14
4.728909982e-13
7.926310933e-13
8.545553088e-13
2.29513613e-15
5.443125933e-15
9.69456789e-15
5.814066822e-15
4.416426997e-15
4.182043812e-15
1.134811724e-15
7.065834885e-16
1.394105508e-15
1.85458038e-15
1.846811411e-15
1.542102874e-15
1.120247063e-15
7.087113754e-16
3.996236481e-16
2.370136734e-16
4.687071324e-16
2.135728153e-16
1.856853727e-19
2.376014038e-19
2.864676247e-19
3.294117191e-19
3.671636454e-19
4.011148313e-19
4.32634518e-19
4.62854501e-19
4.926770102e-19
5.228325691e-19
5.539402804e-19
5.865539099e-19
6.211938951e-19
6.583691547e-19
6.985920176e-19
7.423894133e-19
7.9031183e-19
8.429405884e-19
9.008933563e-19
9.648278713e-19
1.035443415e-18
1.113480741e-18
1.1997198e-18
1.294975722e-18
1.400091554e-18
1.515927554e-18
1.643347044e-18
1.783200892e-18
1.936312851e-18
2.103467768e-18
2.285400881e-18
2.482783089e-18
2.696200769e-18
2.926139062e-18
3.172992684e-18
3.43713244e-18
3.719040759e-18
4.019503191e-18
4.339834682e-18
4.682148528e-18
5.049737024e-18
5.447675657e-18
5.883770475e-18
6.369949483e-18
6.924264646e-18
7.573867683e-18
8.359724082e-18
9.34437139e-18
1.062479535e-17
1.235355583e-17
1.477296303e-17
1.826961752e-17
2.346018827e-17
3.132352817e-17
4.339801348e-17
6.206340644e-17
9.09183659e-17
1.352375183e-16
2.024295982e-16
3.022970437e-16
4.467005177e-16
6.479806011e-16
9.153156884e-16
1.248418986e-15
1.629057565e-15
2.012875477e-15
2.325690175e-15
2.468172746e-15
2.335525065e-15
1.884162539e-15
1.297951298e-15
1.178121097e-15
2.099422293e-15
2.817735043e-15
4.508926748e-15
9.778496778e-15
1.602023706e-14
2.129199702e-14
1.979107383e-14
1.522149068e-14
1.498638886e-14
7.540157702e-13
7.296126933e-13
3.988329748e-13
4.413035196e-13
6.786960877e-14
1.872713095e-14
7.328779722e-15
3.752413825e-15
2.587506392e-15
2.536742409e-15
3.574386473e-15
6.927775411e-15
1.787192788e-14
6.606656133e-14
4.376787176e-13
3.955094059e-13
7.012605573e-13
7.5118164e-13
1.451056071e-14
1.376215596e-14
1.609313355e-14
1.47498429e-14
1.011544688e-14
6.032388304e-15
2.320618126e-15
1.628131795e-15
1.28446154e-15
6.426053447e-16
7.997908141e-16
1.278363292e-15
1.538958815e-15
1.459399568e-15
1.167626385e-15
8.33973054e-16
5.574839201e-16
3.916690057e-16
3.466794269e-16
6.69706666e-16
2.614117587e-16
1.576257973e-19
2.000640953e-19
2.424257399e-19
2.81567986e-19
3.172372909e-19
3.499638127e-19
3.805650383e-19
4.09876558e-19
4.386625503e-19
4.675985576e-19
4.972867308e-19
5.282782592e-19
5.610940943e-19
5.962421518e-19
6.34230805e-19
6.7557959e-19
7.208279622e-19
7.705424208e-19
8.253216116e-19
8.857996471e-19
9.526473423e-19
1.026571412e-18
1.108311524e-18
1.198634643e-18
1.298326735e-18
1.408181383e-18
1.528986345e-18
1.661509077e-18
1.806483193e-18
1.964596326e-18
2.136477822e-18
2.322684063e-18
2.523684424e-18
2.739861883e-18
2.971553253e-18
3.219153452e-18
3.483290247e-18
3.76505701e-18
4.066295214e-18
4.389959059e-18
4.740648244e-18
5.125424059e-18
5.555008766e-18
6.045463394e-18
6.62051177e-18
7.314914974e-18
8.179681355e-18
9.290455893e-18
1.076116132e-17
1.276604529e-17
1.557492258e-17
1.960889992e-17
2.55273373e-17
3.43609454e-17
4.770948144e-17
6.802281842e-17
9.897535094e-17
1.459159448e-16
2.16312198e-16
3.199889283e-16
4.687732164e-16
6.749293228e-16
9.476139558e-16
1.286757804e-15
1.67459988e-15
2.066673724e-15
2.386066846e-15
2.52750879e-15
2.383977585e-15
1.916919711e-15
1.261988003e-15
7.332743751e-16
5.654256526e-16
6.046510385e-16
6.969688356e-16
1.456159146e-15
2.804027506e-15
7.864501375e-15
1.751707783e-14
1.148836766e-14
3.680929145e-14
1.69013397e-14
6.825084438e-16
1.047211548e-15
5.066418117e-16
1.465462084e-13
3.426488654e-14
1.164802278e-14
5.627981224e-15
3.861306755e-15
3.81216418e-15
5.446227142e-15
1.118739089e-14
3.304656435e-14
1.427862461e-13
4.987086356e-16
1.027185446e-15
6.725466993e-16
1.607640483e-14
3.376500262e-14
1.076517038e-14
1.641400505e-14
7.049594239e-15
2.023020148e-15
8.223329735e-16
3.277840545e-16
4.016184126e-16
3.706394434e-16
4.60400396e-16
7.957320165e-16
1.167942236e-15
1.327981124e-15
1.21045776e-15
9.40732178e-16
6.680325032e-16
4.792826948e-16
4.001402622e-16
4.27171803e-16
7.988988831e-16
2.932653532e-16
1.363058369e-19
1.713167299e-19
2.075758014e-19
2.422692839e-19
2.748440504e-19
3.053732241e-19
3.342801855e-19
3.621258183e-19
3.895038918e-19
4.169917132e-19
4.451367472e-19
4.744594513e-19
5.054622806e-19
5.386400726e-19
5.744900799e-19
6.13520978e-19
6.562601534e-19
7.032601335e-19
7.551031053e-19
8.124036751e-19
8.758098803e-19
9.460018248e-19
1.023687742e-18
1.109597204e-18
1.204471657e-18
1.309052743e-18
1.424068918e-18
1.550221351e-18
1.688169426e-18
1.838516267e-18
2.001792573e-18
2.178439461e-18
2.368796614e-18
2.573113177e-18
2.791605077e-18
3.024578353e-18
3.272618794e-18
3.536837845e-18
3.819180028e-18
4.122843632e-18
4.452912549e-18
4.817306844e-18
5.228138106e-18
5.703552725e-18
6.270251748e-18
6.967112135e-18
7.850734352e-18
9.00426409e-18
1.055157274e-17
1.26799282e-17
1.567591039e-17
1.998178627e-17
2.628299622e-17
3.564149635e-17
4.969332164e-17
7.09289319e-17
1.030660614e-16
1.514959068e-16
2.237185658e-16
3.295627286e-16
4.807984642e-16
6.895307021e-16
9.646276222e-16
1.305632798e-15
1.694393926e-15
2.08601629e-15
2.402428889e-15
2.534761476e-15
2.369410818e-15
1.866177453e-15
1.18445959e-15
6.934342845e-16
6.526791166e-16
8.029836469e-16
8.947973567e-16
1.564696954e-15
2.776281631e-15
7.552509576e-15
1.710376306e-14
1.160225324e-14
3.678361035e-14
1.693106533e-14
6.839086087e-16
1.047268385e-15
5.067250714e-16
1.465746561e-13
3.426801109e-14
1.164601642e-14
5.625161002e-15
3.858624163e-15
3.809958316e-15
5.445058106e-15
1.118917444e-14
3.30583143e-14
1.428365347e-13
4.988137852e-16
1.027281151e-15
6.738271642e-16
1.599514652e-14
3.377677221e-14
1.099503982e-14
1.585884187e-14
6.524030356e-15
1.786397456e-15
8.172716622e-16
4.899608304e-16
5.590403801e-16
4.76471318e-16
4.838684459e-16
7.559800502e-16
1.09138876e-15
1.241490878e-15
1.131145215e-15
8.782755073e-16
6.255593348e-16
4.592482397e-16
4.045444174e-16
4.417125641e-16
8.229130199e-16
2.985152756e-16
1.191597867e-19
1.48343437e-19
1.793007064e-19
2.096377133e-19
2.387959083e-19
2.666534683e-19
2.933995917e-19
3.193925378e-19
3.450748243e-19
3.709194329e-19
3.974046362e-19
4.250052417e-19
4.54192825e-19
4.854402717e-19
5.192280015e-19
5.560503477e-19
5.964214928e-19
6.408803827e-19
6.899947241e-19
7.443633682e-19
8.046169265e-19
8.714158652e-19
9.454456543e-19
1.027408964e-18
1.118015352e-18
1.217969305e-18
1.327956738e-18
1.448629968e-18
1.580591133e-18
1.724373286e-18
1.880418796e-18
2.049057058e-18
2.230490994e-18
2.424810036e-18
2.63205164e-18
2.852324162e-18
3.085987908e-18
3.333886926e-18
3.597649485e-18
3.880122792e-18
4.186042368e-18
4.523033397e-18
4.903011619e-18
5.344067639e-18
5.873033574e-18
6.529190201e-18
7.369951746e-18
8.479888785e-18
9.985148493e-18
1.207635615e-17
1.504467644e-17
1.933817497e-17
2.564909656e-17
3.504688061e-17
4.917543122e-17
7.05335817e-17
1.028484815e-16
1.515217982e-16
2.240606879e-16
3.302794756e-16
4.818625102e-16
6.906508026e-16
9.649049181e-16
1.303107745e-15
1.68588699e-15
2.068029478e-15
2.372905059e-15
2.491226866e-15
2.297186614e-15
1.740301969e-15
1.08179356e-15
1.093285061e-15
2.391016485e-15
3.349592948e-15
4.883401111e-15
9.85222616e-15
1.609336845e-14
2.081553108e-14
1.935907714e-14
1.525234441e-14
1.510729213e-14
7.554900072e-13
7.300566043e-13
3.994206248e-13
4.416782363e-13
6.794303008e-14
1.873819893e-14
7.32552454e-15
3.74608549e-15
2.581099418e-15
2.531525693e-15
3.572028223e-15
6.932851293e-15
1.789919392e-14
6.616789549e-14
4.380872254e-13
3.960824756e-13
7.017148055e-13
7.525317789e-13
1.444545881e-14
1.372114204e-14
1.535049186e-14
1.412196361e-14
9.930415782e-15
6.02884079e-15
2.756897143e-15
2.085570911e-15
1.607482537e-15
7.291487934e-16
7.043944201e-16
1.067932028e-15
1.287151707e-15
1.217732189e-15
9.722956323e-16
6.999853481e-16
4.933138494e-16
3.832263862e-16
3.843151703e-16
7.320287093e-16
2.766169607e-16
1.048247062e-19
1.293606321e-19
1.558205813e-19
1.821792524e-19
2.079717412e-19
2.330200024e-19
2.573928401e-19
2.813177491e-19
3.051224614e-19
3.291892529e-19
3.539285555e-19
3.7976564e-19
4.071359817e-19
4.36485739e-19
4.682748902e-19
5.029811734e-19
5.411045293e-19
5.831707941e-19
6.297350598e-19
6.813838192e-19
7.387352779e-19
8.024368425e-19
8.73159426e-19
9.515889505e-19
1.038415595e-18
1.134321598e-18
1.239967315e-18
1.355974664e-18
1.482906987e-18
1.621244805e-18
1.771357187e-18
1.933472677e-18
2.107659661e-18
2.293833993e-18
2.491811498e-18
2.701413072e-18
2.922615649e-18
3.155745653e-18
3.401742865e-18
3.662566855e-18
3.941843281e-18
4.245830423e-18
4.584761989e-18
4.974647449e-18
5.439748606e-18
6.01620575e-18
6.75766429e-18
7.744245371e-18
9.096868953e-18
1.099991613e-17
1.373679573e-17
1.774549682e-17
2.370481786e-17
3.266630696e-17
4.625091108e-17
6.692985126e-17
9.840006758e-17
1.460338473e-16
2.173116356e-16
3.220105814e-16
4.717002102e-16
6.778307778e-16
9.476022673e-16
1.277365441e-15
1.645069948e-15
2.005479983e-15
2.289938546e-15
2.401434908e-15
2.200794784e-15
1.596115778e-15
1.001519424e-15
2.183776702e-15
6.96115842e-15
8.29459539e-15
1.19155574e-14
1.58835445e-14
8.470076505e-15
3.090286778e-15
8.530637825e-13
8.098105084e-13
4.806274959e-13
9.038142054e-14
1.232897339e-13
2.097263961e-13
5.464021443e-14
2.212509264e-14
8.686028281e-15
3.732050155e-15
1.858414337e-15
1.187093813e-15
1.14026836e-15
1.703591167e-15
3.423804377e-15
8.150172442e-15
2.132835108e-14
5.410798284e-14
2.145035187e-13
1.292989906e-13
8.336544821e-14
4.730784832e-13
7.911680492e-13
8.542756004e-13
2.054863785e-15
4.996947981e-15
9.09967608e-15
6.45429744e-15
4.899649221e-15
4.621889948e-15
1.286462796e-15
6.095732531e-16
1.079368382e-15
1.448120376e-15
1.449091504e-15
1.212084758e-15
8.942171277e-16
5.904117381e-16
3.682151294e-16
2.760084498e-16
5.56233495e-16
2.352892748e-16
9.251927259e-20
1.13278992e-19
1.359399531e-19
1.5877372e-19
1.814265875e-19
2.037271896e-19
2.256923758e-19
2.47473138e-19
2.693180127e-19
2.915386128e-19
3.14486875e-19
3.385417221e-19
3.641026592e-19
3.915879459e-19
4.214356996e-19
4.541061636e-19
4.900845791e-19
5.298843661e-19
5.740498964e-19
6.231585752e-19
6.778207561e-19
7.386767995e-19
8.063907822e-19
8.816415435e-19
9.651120517e-19
1.057477132e-18
1.159388987e-18
1.27145841e-18
1.394230586e-18
1.528154625e-18
1.673547544e-18
1.830556599e-18
1.999130522e-18
2.179014389e-18
2.369782292e-18
2.57090933e-18
2.781875628e-18
3.002301681e-18
3.232150103e-18
3.472066248e-18
3.723944941e-18
3.991788041e-18
4.282897001e-18
4.609487824e-18
4.990957887e-18
5.457293305e-18
6.054460837e-18
6.853090552e-18
7.962360081e-18
9.551914924e-18
1.188624148e-17
1.537852412e-17
2.067475283e-17
2.878338537e-17
4.126998974e-17
6.053718767e-17
9.02016609e-17
1.355505495e-16
2.039872037e-16
3.052233983e-16
4.507015087e-16
6.513658129e-16
9.127397589e-16
1.22717682e-15
1.566564531e-15
1.884312846e-15
2.132456322e-15
2.265248684e-15
2.151630604e-15
1.576559898e-15
1.015404768e-15
4.279259724e-15
1.812937275e-14
1.600840588e-14
5.734692329e-15
2.793752543e-15
1.798762169e-14
7.918310658e-14
7.215441456e-13
4.410955367e-13
3.568186892e-13
2.233564151e-14
6.400529369e-15
2.625630791e-14
1.488463793e-14
7.894502485e-15
3.795047821e-15
1.712033213e-15
7.471124661e-16
3.577334616e-16
3.188626413e-16
6.251600331e-16
1.494073323e-15
3.476614062e-15
7.535861963e-15
1.477228283e-14
2.71368108e-14
7.326018437e-15
2.063948589e-14
3.494198285e-13
4.392673139e-13
7.193606924e-13
8.231255153e-14
1.906279688e-14
1.689677166e-15
3.076179118e-15
8.961217997e-15
1.288212898e-14
2.250313252e-15
4.534593677e-16
1.164765357e-15
1.710739746e-15
1.778346089e-15
1.555485544e-15
1.188373243e-15
7.726892e-16
4.01501413e-16
1.783160097e-16
3.52206314e-16
1.870864364e-16
8.176689139e-20
9.940719456e-20
1.188485546e-19
1.385988121e-19
1.584043153e-19
1.781236675e-19
1.977583072e-19
2.174182922e-19
2.373009149e-19
2.576662021e-19
2.788194712e-19
3.01099838e-19
3.248739561e-19
3.505335543e-19
3.784952559e-19
4.092018457e-19
4.431242663e-19
4.807644576e-19
5.226580137e-19
5.693762074e-19
6.215256718e-19
6.797451073e-19
7.446986871e-19
8.170672442e-19
8.975381421e-19
9.867934568e-19
1.085494689e-18
1.194261702e-18
1.313644074e-18
1.444084638e-18
1.585875906e-18
1.739113544e-18
1.903655542e-18
2.079099345e-18
2.264785542e-18
2.459826461e-18
2.663150502e-18
2.873566e-18
3.089880993e-18
3.311147671e-18
3.537104579e-18
3.768865993e-18
4.009898011e-18
4.267373106e-18
4.554146879e-18
4.89184795e-18
5.315907883e-18
5.883767395e-18
6.688022089e-18
7.877136018e-18
9.687950892e-18
1.249689626e-17
1.690062587e-17
2.384134216e-17
3.479634037e-17
5.205284636e-17
7.908314388e-17
1.210101198e-16
1.850823723e-16
2.809057507e-16
4.198268516e-16
6.123077265e-16
8.616606651e-16
1.153507746e-15
1.446420501e-15
1.683891803e-15
1.855055873e-15
2.058800297e-15
2.281870767e-15
2.081590988e-15
1.372740563e-15
5.694384251e-15
8.52464809e-15
6.804773615e-15
2.885462463e-13
4.714342012e-13
6.26330616e-14
2.013981562e-14
6.766839606e-14
5.512351838e-14
4.151894173e-14
6.125736986e-15
4.55981616e-15
7.476036305e-15
5.642108514e-15
3.404651179e-15
1.801786355e-15
8.269435952e-16
2.999240872e-16
6.279906219e-17
3.437178268e-17
2.145145168e-16
6.872822036e-16
1.624658711e-15
3.243853307e-15
5.614435786e-15
7.708390406e-15
4.827313443e-15
6.008143011e-15
4.110439611e-14
5.56583995e-14
6.810406305e-14
1.982386221e-14
6.169571295e-14
4.738918328e-13
2.844741088e-13
4.477781402e-15
4.347942152e-15
2.784336412e-15
4.41335319e-16
1.549695643e-15
2.034049381e-15
2.052181307e-15
1.878148008e-15
1.535360727e-15
1.043556325e-15
5.353010208e-16
1.576973907e-16
2.054348105e-16
1.536612175e-16
7.226082919e-20
8.728906746e-20
1.039864663e-19
1.210517389e-19
1.383131859e-19
1.556641021e-19
1.731078278e-19
1.907346253e-19
2.087100122e-19
2.272578416e-19
2.466478121e-19
2.671865143e-19
2.892123068e-19
3.130929259e-19
3.392249052e-19
3.680343898e-19
3.999789287e-19
4.355501342e-19
4.752767153e-19
5.197264059e-19
5.695056568e-19
6.252560355e-19
6.876478882e-19
7.573722508e-19
8.351318415e-19
9.216299671e-19
1.01755469e-18
1.123555446e-18
1.240210439e-18
1.367984759e-18
1.507180211e-18
1.657880145e-18
1.819895478e-18
1.992720568e-18
2.175502651e-18
2.367020393e-18
2.565662537e-18
2.769412369e-18
2.975873511e-18
3.182396818e-18
3.386367016e-18
3.585686621e-18
3.779495599e-18