/*--------------------------------*- C++ -*----------------------------------*\
  =========                 |
  \\      /  F ield         | OpenFOAM: The Open Source CFD Toolbox
   \\    /   O peration     | Website:  https://openfoam.org
    \\  /    A nd           | Version:  6
     \\/     M anipulation  |
\*---------------------------------------------------------------------------*/
FoamFile
{
    version     2.0;
    format      ascii;
    class       volScalarField;
    location    "0.0039";
    object      Num_divU;
}
// * * * * * * * * * * * * * * * * * * * * * * * * * * * * * * * * * * * * * //

dimensions      [0 0 -1 0 0 0 0];

internalField   nonuniform List<scalar> 
9600
(
2.932002951e-08
2.746437489e-08
2.591568091e-08
2.452513126e-08
2.34018387e-08
2.235434156e-08
2.122294044e-08
2.005607993e-08
1.870773992e-08
1.72314694e-08
1.548208096e-08
1.35119171e-08
1.116668476e-08
8.48873561e-09
5.308799924e-09
1.655609507e-09
-2.655895373e-09
-7.611600805e-09
-1.341676198e-08
-2.007841312e-08
-2.782714002e-08
-3.669238426e-08
-4.692432252e-08
-5.856619863e-08
-7.188406315e-08
-8.693984693e-08
-1.040265269e-07
-1.232334993e-07
-1.448730186e-07
-1.690339815e-07
-1.960118375e-07
-2.258737172e-07
-2.589049251e-07
-2.951756519e-07
-3.349704303e-07
-3.783311859e-07
-4.254804023e-07
-4.763838594e-07
-5.312012408e-07
-5.898518646e-07
-6.524364171e-07
-7.187712021e-07
-7.888163313e-07
-8.622661146e-07
-9.390377478e-07
-1.018887239e-06
-1.101854517e-06
-1.187817767e-06
-1.276914728e-06
-1.369164364e-06
-1.465013748e-06
-1.56501378e-06
-1.670330382e-06
-1.782398062e-06
-1.903592491e-06
-2.037258863e-06
-2.189305649e-06
-2.370448472e-06
-2.60085115e-06
-2.907949599e-06
-3.301956036e-06
-3.667696719e-06
-3.499985335e-06
-2.290832114e-06
-4.458407854e-07
-7.551489736e-06
-1.500845419e-05
9.704966295e-11
2.084700211e-10
2.037530463e-10
2.04460427e-10
1.945319577e-10
1.772391853e-10
1.855880661e-10
1.901142876e-10
2.167690766e-10
2.26198348e-10
2.458819493e-10
2.374664141e-10
2.470443951e-10
2.350214314e-10
2.411781332e-10
2.092424391e-10
1.841957143e-10
1.21482516e-10
7.70505848e-11
1.079484484e-11
-1.493825008e-11
-3.78418383e-11
-1.570675961e-11
-1.737628853e-11
-1.200300479e-11
-3.973700794e-11
-5.246861897e-11
-9.205796799e-11
-1.223070976e-10
-1.673816821e-10
-1.931879117e-10
-2.267148943e-10
-2.380298379e-10
-2.422183055e-10
-2.259366463e-10
-2.167764489e-10
-2.025800001e-10
-1.985448644e-10
-1.998124013e-10
-1.929742792e-10
-1.935057337e-10
-1.641041275e-10
-2.453325305e-10
-1.420157425e-10
-1.567007286e-10
-3.815605321e-11
-1.001282509e-05
2.633911626e-06
5.752474422e-06
3.815173067e-06
-7.591899844e-08
-2.765246159e-06
5.812660274e-07
3.124572208e-08
2.910388588e-08
2.731664841e-08
2.569112149e-08
2.438064389e-08
2.314436226e-08
2.186982291e-08
2.055294683e-08
1.909579305e-08
1.74987861e-08
1.566470494e-08
1.359172947e-08
1.117470946e-08
8.401031965e-09
5.152528871e-09
1.404088627e-09
-2.97717102e-09
-8.032174314e-09
-1.391385893e-08
-2.068473342e-08
-2.852089402e-08
-3.750372081e-08
-4.782544927e-08
-5.95815075e-08
-7.298153423e-08
-8.81441919e-08
-1.053062948e-07
-1.2460795e-07
-1.462924747e-07
-1.704878014e-07
-1.974160009e-07
-2.271895904e-07
-2.600296021e-07
-2.960510135e-07
-3.35456771e-07
-3.783072367e-07
-4.247217409e-07
-4.746765342e-07
-5.282232761e-07
-5.852738997e-07
-6.457831571e-07
-7.095164959e-07
-7.762571025e-07
-8.456334038e-07
-9.173679266e-07
-9.911036713e-07
-1.066603792e-06
-1.143539046e-06
-1.221708611e-06
-1.30092171e-06
-1.381307616e-06
-1.463190712e-06
-1.547305751e-06
-1.634544093e-06
-1.725971583e-06
-1.82246047e-06
-1.925767795e-06
-2.042755776e-06
-2.19684545e-06
-2.446960084e-06
-2.896527285e-06
-3.527648307e-06
-3.581374064e-06
-2.919102833e-06
9.505628652e-06
1.31729802e-05
1.248851198e-10
1.228253844e-10
1.194471406e-10
1.241429053e-10
1.224554245e-10
1.231621877e-10
1.186148629e-10
1.243105668e-10
1.295294864e-10
1.465385988e-10
1.539383809e-10
1.646982639e-10
1.59568611e-10
1.614179244e-10
1.51389195e-10
1.505433956e-10
1.320438139e-10
1.169057171e-10
8.115281214e-11
5.236590578e-11
1.238314396e-11
-5.717365928e-12
-1.924033109e-11
-8.173988461e-12
-8.580799559e-12
-8.722735137e-12
-3.040465226e-11
-4.819766139e-11
-7.769180649e-11
-9.779495425e-11
-1.223557424e-10
-1.35480563e-10
-1.500357912e-10
-1.511764562e-10
-1.494556421e-10
-1.411965405e-10
-1.403511148e-10
-1.377057853e-10
-1.387387603e-10
-1.323838316e-10
-1.28105272e-10
-1.177093417e-10
-1.094939579e-10
-1.072271075e-10
-1.165653575e-10
-8.254368707e-11
-1.230808573e-10
-7.358144815e-11
1.774967919e-05
8.676109335e-06
2.630360845e-06
3.108385724e-07
-3.202645278e-06
3.771452112e-07
3.320282708e-08
3.075089073e-08
2.871706438e-08
2.684220131e-08
2.533994132e-08
2.390394514e-08
2.248560143e-08
2.101107501e-08
1.944714432e-08
1.772323078e-08
1.580811717e-08
1.362742889e-08
1.114250208e-08
8.268473933e-09
4.955681635e-09
1.107055594e-09
-3.340476048e-09
-8.500332611e-09
-1.445540776e-08
-2.134129874e-08
-2.926120435e-08
-3.836776383e-08
-4.87771883e-08
-6.065636272e-08
-7.414076602e-08
-8.942302014e-08
-1.066647298e-07
-1.260736699e-07
-1.478069108e-07
-1.720510177e-07
-1.989392715e-07
-2.286487002e-07
-2.613180042e-07
-2.971236508e-07
-3.361697457e-07
-3.785541725e-07
-4.242788555e-07
-4.733476834e-07
-5.256872924e-07
-5.812174237e-07
-6.397332551e-07
-7.009659989e-07
-7.645036975e-07
-8.299066237e-07
-8.966584989e-07
-9.642621062e-07
-1.032145855e-06
-1.099740883e-06
-1.16644595e-06
-1.231812935e-06
-1.295587825e-06
-1.357874317e-06
-1.419063575e-06
-1.479679321e-06
-1.539478723e-06
-1.595944676e-06
-1.642547606e-06
-1.669510322e-06
-1.672615163e-06
-1.705902865e-06
-1.972309442e-06
-2.97206485e-06
-5.013388059e-06
5.367353231e-06
1.125822966e-05
2.079738454e-05
1.342044219e-10
1.11141928e-10
1.076431994e-10
1.078720061e-10
1.110680235e-10
1.12002586e-10
1.157336305e-10
1.192508384e-10
1.299825927e-10
1.404379089e-10
1.532038811e-10
1.567152133e-10
1.58174008e-10
1.515835523e-10
1.483861697e-10
1.390268802e-10
1.303682858e-10
1.094112779e-10
8.565395099e-11
5.164632682e-11
2.365475519e-11
-6.368178083e-13
-6.629191744e-12
-7.656015157e-12
-4.52013906e-12
-1.538833894e-11
-3.240190287e-11
-5.864484529e-11
-8.008703216e-11
-1.017191695e-10
-1.170910579e-10
-1.327809237e-10
-1.411400418e-10
-1.448367977e-10
-1.409252213e-10
-1.386970296e-10
-1.384438329e-10
-1.413239285e-10
-1.378527635e-10
-1.287743415e-10
-1.166122266e-10
-1.089192306e-10
-9.933834457e-11
-9.530434503e-11
-8.697631909e-11
-1.07801866e-10
-1.487564178e-10
-5.598338097e-11
1.055249143e-05
1.954570185e-05
1.50663629e-05
5.826223454e-07
-3.138803246e-06
9.633556548e-07
3.515522274e-08
3.239974409e-08
3.007702228e-08
2.796522252e-08
2.623593187e-08
2.46186092e-08
2.302596225e-08
2.14172047e-08
1.971930557e-08
1.78954596e-08
1.587347912e-08
1.361310159e-08
1.103470109e-08
8.088937329e-09
4.685957856e-09
7.658329763e-10
-3.774150247e-09
-9.010347989e-09
-1.506608361e-08
-2.203862068e-08
-3.00703071e-08
-3.927262322e-08
-4.979963092e-08
-6.177696697e-08
-7.537993033e-08
-9.07611789e-08
-1.081196635e-07
-1.27616031e-07
-1.494354459e-07
-1.737103554e-07
-2.006034691e-07
-2.302441464e-07
-2.628044861e-07
-2.984071415e-07
-3.37171678e-07
-3.791210402e-07
-4.24257835e-07
-4.72504554e-07
-5.237797444e-07
-5.77900775e-07
-6.34618871e-07
-6.935220413e-07
-7.541130886e-07
-8.157640614e-07
-8.778078723e-07
-9.394636884e-07
-9.998883021e-07
-1.058110445e-06
-1.113163236e-06
-1.164142933e-06
-1.210434947e-06
-1.251820552e-06
-1.288664586e-06
-1.321622378e-06
-1.350503737e-06
-1.371105351e-06
-1.368521099e-06
-1.301136778e-06
-1.075502358e-06
-4.8040084e-07
8.858138952e-07
3.323289222e-06
2.731859366e-06
4.381465809e-06
-4.875648503e-06
1.113439531e-10
1.018376295e-10
9.413340979e-11
9.195341708e-11
9.534995533e-11
9.9239356e-11
1.052333809e-10
1.088842769e-10
1.157372186e-10
1.232041458e-10
1.354714672e-10
1.43599569e-10
1.498058019e-10
1.471979553e-10
1.443464131e-10
1.369385942e-10
1.322841513e-10
1.20650628e-10
1.064969063e-10
8.155128316e-11
5.582166306e-11
2.695382862e-11
8.597722354e-12
-2.8249929e-12
-2.975797957e-12
-7.734869274e-12
-1.796537557e-11
-3.975629248e-11
-6.056288414e-11
-8.109152878e-11
-9.560979569e-11
-1.107790528e-10
-1.225480516e-10
-1.329944075e-10
-1.359465187e-10
-1.353835021e-10
-1.335384882e-10
-1.366574825e-10
-1.38456862e-10
-1.335693792e-10
-1.204386259e-10
-1.072298303e-10
-9.922402661e-11
-9.228729774e-11
-8.545802427e-11
-7.630939914e-11
-1.089924985e-10
-1.036915085e-10
-1.361973671e-10
-4.376884677e-11
1.446659221e-06
2.266854793e-05
8.080833853e-06
1.887189823e-06
2.843219484e-06
3.709854677e-08
3.400343516e-08
3.139263138e-08
2.90187042e-08
2.70700533e-08
2.525227926e-08
2.349881781e-08
2.174079141e-08
1.99262033e-08
1.798927792e-08
1.587905657e-08
1.352633088e-08
1.087340281e-08
7.842927464e-09
4.368928171e-09
3.64373375e-10
-4.249185451e-09
-9.575539786e-09
-1.571334322e-08
-2.278732271e-08
-3.091306395e-08
-4.022745121e-08
-5.085658651e-08
-6.295206517e-08
-7.666233775e-08
-9.216607638e-08
-1.096320583e-07
-1.292399282e-07
-1.5113709e-07
-1.754720604e-07
-2.023727739e-07
-2.319911123e-07
-2.64466087e-07
-2.999332891e-07
-3.384609841e-07
-3.800673524e-07
-4.246951855e-07
-4.722595481e-07
-5.226119124e-07
-5.755394765e-07
-6.30690885e-07
-6.875824028e-07
-7.455714e-07
-8.03903463e-07
-8.616851989e-07
-9.17892171e-07
-9.713105778e-07
-1.020569842e-06
-1.064183547e-06
-1.100710088e-06
-1.128938099e-06
-1.148243928e-06
-1.158990511e-06
-1.162797162e-06
-1.162093044e-06
-1.158117037e-06
-1.143609337e-06
-1.083496118e-06
-8.550427191e-07
-1.254178667e-07
1.841965859e-06
5.601005655e-06
1.411274713e-05
1.177877696e-05
4.511949442e-11
7.508956571e-11
7.971460328e-11
7.79519825e-11
7.953670216e-11
8.422221901e-11
9.179797672e-11
9.848805241e-11
1.048956385e-10
1.104309411e-10
1.185406954e-10
1.268971638e-10
1.352652295e-10
1.384743101e-10
1.380926517e-10
1.329100653e-10
1.278517798e-10
1.20731507e-10
1.12766955e-10
9.845282727e-11
7.966313761e-11
5.521836689e-11
3.248094519e-11
1.351476478e-11
3.636479491e-12
-2.983476526e-12
-1.015109059e-11
-2.518140385e-11
-4.373956728e-11
-6.284932916e-11
-7.673420634e-11
-8.889372579e-11
-1.004223421e-10
-1.138880109e-10
-1.242908584e-10
-1.293568816e-10
-1.284969986e-10
-1.286478894e-10
-1.31609237e-10
-1.333638848e-10
-1.260123093e-10
-1.119847454e-10
-9.966823443e-11
-9.341199633e-11
-8.794415037e-11
-8.159202776e-11
-7.322138846e-11
-8.49326249e-11
-1.213420443e-10
-9.05881826e-11
-2.340263728e-11
-1.470133958e-12
2.159392639e-05
1.506364042e-05
-1.879110062e-06
9.44977915e-07
3.898747349e-08
3.554352488e-08
3.262156247e-08
2.998522583e-08
2.780345154e-08
2.579232941e-08
2.387046747e-08
2.197528636e-08
2.003938746e-08
1.800362046e-08
1.58013641e-08
1.337060875e-08
1.063932592e-08
7.538803474e-09
3.989922706e-09
-8.464760527e-11
-4.776197641e-09
-1.017897738e-08
-1.64047654e-08
-2.356752152e-08
-3.17945263e-08
-4.121017661e-08
-5.19514112e-08
-6.415767143e-08
-7.798880543e-08
-9.361020187e-08
-1.111980592e-07
-1.309127878e-07
-1.529044855e-07
-1.773023764e-07
-2.042422287e-07
-2.338615415e-07
-2.663049658e-07
-3.016819902e-07
-3.400501116e-07
-3.813900663e-07
-4.256313775e-07
-4.726530152e-07
-5.222857951e-07
-5.742594925e-07
-6.281682016e-07
-6.834331088e-07
-7.393148391e-07
-7.94906349e-07
-8.491276378e-07
-9.006723292e-07
-9.479718673e-07
-9.891737258e-07
-1.022192221e-06
-1.044817763e-06
-1.054967402e-06
-1.051151892e-06
-1.033222322e-06
-1.003359624e-06
-9.674272579e-07
-9.363981408e-07
-9.247942215e-07
-9.293959985e-07
-8.697293564e-07
-2.916816763e-07
1.453977658e-06
1.358700132e-05
1.836455351e-05
1.150210435e-05
3.092285463e-11
5.392379217e-11
6.168465056e-11
6.491170736e-11
6.913321437e-11
7.67182887e-11
8.573895718e-11
9.43304892e-11
1.006886862e-10
1.063155512e-10
1.121598077e-10
1.192603039e-10
1.25151363e-10
1.283658576e-10
1.270178314e-10
1.230142039e-10
1.17309807e-10
1.116752614e-10
1.039321235e-10
9.273942612e-11
7.594712168e-11
5.586488924e-11
3.499301154e-11
1.812277541e-11
5.698803139e-12
-3.51779634e-12
-1.512811657e-11
-3.043661213e-11
-4.78032653e-11
-6.145244865e-11
-7.095001168e-11
-7.901128403e-11
-9.0788915e-11
-1.05284796e-10
-1.182271254e-10
-1.239003588e-10
-1.237394327e-10
-1.230807205e-10
-1.256814567e-10
-1.261755543e-10
-1.187185449e-10
-1.055156851e-10
-9.577261845e-11
-9.13562738e-11
-8.793088257e-11
-8.216240663e-11
-7.725189044e-11
-8.014251766e-11
-8.614401196e-11
-6.324495467e-11
-1.859506034e-11
-6.631097874e-12
5.910288811e-08
3.923243473e-05
7.940404306e-06
-1.078146911e-07
4.078909281e-08
3.697234169e-08
3.373170837e-08
3.082230156e-08
2.840915854e-08
2.620249682e-08
2.412063452e-08
2.209083331e-08
2.004531337e-08
1.791464203e-08
1.563274598e-08
1.312809259e-08
1.033073147e-08
7.164090429e-09
3.552493754e-09
-5.885628243e-10
-5.347012283e-09
-1.082435564e-08
-1.71286942e-08
-2.438016698e-08
-3.270062399e-08
-4.221944097e-08
-5.306736464e-08
-6.538881249e-08
-7.93375946e-08
-9.508229366e-08
-1.127892056e-07
-1.326174134e-07
-1.547049398e-07
-1.791823525e-07
-2.061788333e-07
-2.358361779e-07
-2.68287569e-07
-3.036334544e-07
-3.419067763e-07
-3.830745875e-07
-4.270469844e-07
-4.736945944e-07
-5.228229129e-07
-5.741313435e-07
-6.27159606e-07
-6.812690613e-07
-7.356333499e-07
-7.892342902e-07
-8.408183967e-07
-8.888335169e-07
-9.31354268e-07
-9.660357705e-07
-9.900984363e-07
-1.000374137e-06
-9.935121903e-07
-9.664649412e-07
-9.173308612e-07
-8.467299223e-07
-7.604955269e-07
-6.747007941e-07
-6.170031929e-07
-6.198054104e-07
-5.505428453e-07
3.973065969e-07
2.356374665e-06
1.285677511e-05
1.306919626e-05
-2.244876054e-12
2.322125588e-11
4.206679188e-11
5.150599281e-11
5.654730827e-11
6.265727736e-11
7.139843143e-11
8.169507569e-11
9.076109129e-11
9.749928817e-11
1.022611145e-10
1.068333602e-10
1.116126244e-10
1.160223552e-10
1.180674389e-10
1.170866288e-10
1.132526733e-10
1.082845994e-10
1.027074738e-10
9.605760513e-11
8.625668299e-11
7.237004124e-11
5.49055933e-11
3.683439793e-11
2.059231221e-11
7.315257708e-12
-5.354456248e-12
-1.956350826e-11
-3.559374342e-11
-4.947214809e-11
-5.829282076e-11
-6.299450519e-11
-6.967439164e-11
-8.249482374e-11
-9.99820607e-11
-1.143011752e-10
-1.197540781e-10
-1.1767726e-10
-1.159641783e-10
-1.18186972e-10
-1.19574118e-10
-1.133161846e-10
-1.023158656e-10
-9.464031406e-11
-9.213892887e-11
-8.861465705e-11
-8.314917802e-11
-7.875218414e-11
-7.862946127e-11
-7.781144588e-11
-5.013048286e-11
-2.696802012e-11
4.64394014e-11
2.432090213e-11
2.564118135e-05
1.934833801e-05
1.349636183e-06
4.245038587e-08
3.824620753e-08
3.467424257e-08
3.148990707e-08
2.884487717e-08
2.644994257e-08
2.421485158e-08
2.2062765e-08
1.991722753e-08
1.770546293e-08
1.535366861e-08
1.278891748e-08
9.935034362e-09
6.715732062e-09
3.050167962e-09
-1.14536505e-09
-5.963793252e-09
-1.150596162e-08
-1.788413774e-08
-2.52166573e-08
-3.362768414e-08
-4.324334779e-08
-5.419656005e-08
-6.662838966e-08
-8.069432446e-08
-9.65578589e-08
-1.14383472e-07
-1.343225028e-07
-1.565114276e-07
-1.81077115e-07
-2.081522305e-07
-2.378751702e-07
-2.703746949e-07
-3.057362326e-07
-3.439804551e-07
-3.85062343e-07
-4.288906964e-07
-4.753317542e-07
-5.241839935e-07
-5.751252907e-07
-6.276677514e-07
-6.811352962e-07
-7.346568144e-07
-7.871421387e-07
-8.372206972e-07
-8.831496287e-07
-9.227068806e-07
-9.530899987e-07
-9.708091281e-07
-9.716284867e-07
-9.506449433e-07
-9.026356039e-07
-8.22671397e-07
-7.071903377e-07
-5.565795884e-07
-3.809174914e-07
-2.268853204e-07
-2.077424035e-07
-5.961708983e-07
-1.343098458e-06
3.600130839e-06
8.922931164e-06
1.331279944e-05
3.242208823e-12
2.43609889e-11
3.881364493e-11
4.668568281e-11
5.209804365e-11
5.87065968e-11
6.797523018e-11
7.842277468e-11
8.760896204e-11
9.403853537e-11
9.80597467e-11
1.011710015e-10
1.043627123e-10
1.073822664e-10
1.08922633e-10
1.080705172e-10
1.048545299e-10
1.004063641e-10
9.533176614e-11
8.933171987e-11
8.072933413e-11
6.859251839e-11
5.323198845e-11
3.678240057e-11
2.113929051e-11
6.761635327e-12
-7.621458487e-12
-2.294393215e-11
-3.759470096e-11
-4.799678047e-11
-5.244709879e-11
-5.466370054e-11
-6.162900228e-11
-7.730002729e-11
-9.734153134e-11
-1.12303816e-10
-1.156702657e-10
-1.109422385e-10
-1.075543256e-10
-1.105559798e-10
-1.141946941e-10
-1.110246001e-10
-1.023691203e-10
-9.597842543e-11
-9.277143381e-11
-8.814610803e-11
-8.191314256e-11
-7.862180251e-11
-7.632461649e-11
-7.038846806e-11
-5.350410358e-11
7.17888379e-13
3.01685617e-11
7.130560905e-12
-5.062650708e-06
4.171724018e-05
7.307570347e-06
4.391315474e-08
3.930363648e-08
3.539467618e-08
3.193504405e-08
2.906498939e-08
2.649135608e-08
2.411767e-08
2.185783092e-08
1.962947658e-08
1.735214316e-08
1.494785807e-08
1.233786156e-08
9.443992935e-09
6.185741729e-09
2.481091569e-09
-1.757525622e-09
-6.624183119e-09
-1.222298012e-08
-1.866600743e-08
-2.607308362e-08
-3.456687352e-08
-4.427372825e-08
-5.53246739e-08
-6.786146608e-08
-8.203721946e-08
-9.801415104e-08
-1.159519644e-07
-1.359992161e-07
-1.582895452e-07
-1.829517065e-07
-2.101193771e-07
-2.399308129e-07
-2.725069447e-07
-3.079230305e-07
-3.461904341e-07
-3.872646047e-07
-4.310613205e-07
-4.774564049e-07
-5.262504543e-07
-5.771173827e-07
-6.295639905e-07
-6.829144875e-07
-7.363002214e-07
-7.886213509e-07
-8.384673682e-07
-8.839976435e-07
-9.228066845e-07
-9.517522017e-07
-9.667451792e-07
-9.625274128e-07
-9.325871685e-07
-8.692982153e-07
-7.64263977e-07
-6.08491564e-07
-3.903231883e-07
-8.606675758e-08
3.79738028e-07
1.212728037e-06
2.868497666e-06
-2.949835157e-07
6.909299411e-06
-1.656716596e-07
2.865376572e-12
1.622665627e-11
2.913615907e-11
3.904529214e-11
4.548045189e-11
5.048265232e-11
5.685649366e-11
6.557377157e-11
7.547366412e-11
8.424621308e-11
9.028548473e-11
9.374769603e-11
9.586695387e-11
9.794496401e-11
1.000159553e-10
1.013499157e-10
1.008284471e-10
9.837396538e-11
9.433786467e-11
8.950920113e-11
8.342111795e-11
7.530135965e-11
6.405272267e-11
5.024176179e-11
3.515601866e-11
2.038515845e-11
5.944724775e-12
-8.823400896e-12
-2.382966425e-11
-3.648937676e-11
-4.370350751e-11
-4.558941681e-11
-4.765763421e-11
-5.720245666e-11
-7.622485504e-11
-9.79749711e-11
-1.113128378e-10
-1.108982917e-10
-1.025544568e-10
-9.829345566e-11
-1.032996538e-10
-1.109554449e-10
-1.115130304e-10
-1.047668678e-10
-9.733832385e-11
-9.17229864e-11
-8.548461631e-11
-7.959825064e-11
-7.771740205e-11
-7.648613694e-11
-7.200912639e-11
-5.527181572e-11
-2.277842204e-11
-3.899827395e-12
-1.747880428e-10
-1.005562327e-10
4.447890145e-05
-1.319102332e-10
4.510340324e-08
4.0076229e-08
3.582605947e-08
3.209677486e-08
2.901319257e-08
2.627847863e-08
2.378561296e-08
2.144049733e-08
1.915124043e-08
1.683098928e-08
1.439529767e-08
1.17616049e-08
8.847033171e-09
5.568618754e-09
1.840831197e-09
-2.426090891e-09
-7.329040507e-09
-1.297310171e-08
-1.947162769e-08
-2.694349206e-08
-3.551095179e-08
-4.529891828e-08
-5.643834079e-08
-6.906967872e-08
-8.334567504e-08
-9.94256422e-08
-1.174670313e-07
-1.376154201e-07
-1.600048235e-07
-1.847655046e-07
-2.120331165e-07
-2.419434964e-07
-2.746114423e-07
-3.101043816e-07
-3.484325788e-07
-3.89560066e-07
-4.334195883e-07
-4.799043277e-07
-5.288285503e-07
-5.798793119e-07
-6.325857518e-07
-6.863121351e-07
-7.402452943e-07
-7.93348824e-07
-8.442657838e-07
-8.911918797e-07
-9.31706789e-07
-9.625481562e-07
-9.792691848e-07
-9.758295019e-07
-9.442344304e-07
-8.744964859e-07
-7.554531441e-07
-5.77619768e-07
-3.387175037e-07
-4.095337285e-08
3.409036926e-07
1.045133894e-06
2.99847374e-06
6.506194647e-06
1.730125296e-05
1.675204463e-05
4.074097768e-11
3.756032703e-11
3.868396683e-11
4.267039741e-11
4.64934422e-11
5.051101181e-11
5.609502523e-11
6.389964272e-11
7.277604933e-11
8.062538557e-11
8.602088485e-11
8.890674422e-11
9.062561493e-11
9.227641848e-11
9.431520659e-11
9.579206326e-11
9.586274998e-11
9.376488802e-11
9.001568323e-11
8.483642922e-11
7.851569609e-11
7.0119641e-11
5.93784105e-11
4.635640876e-11
3.253368224e-11
1.874002998e-11
5.273001221e-12
-8.498803197e-12
-2.170874709e-11
-3.209740836e-11
-3.737477376e-11
-3.924339365e-11
-4.375158867e-11
-5.711196431e-11
-7.893587211e-11
-1.002537388e-10
-1.099346492e-10
-1.046387527e-10
-9.331542083e-11
-8.947659063e-11
-9.805562167e-11
-1.100672691e-10
-1.135829108e-10
-1.069402122e-10
-9.739944524e-11
-8.926211185e-11
-8.172811736e-11
-7.727807977e-11
-7.73873254e-11
-7.923892002e-11
-7.540854162e-11
-6.679587964e-11
-4.390609514e-11
-1.118890199e-10
-1.542220838e-10
-4.280230652e-10
-3.348226154e-10
-2.152538744e-10
4.593328369e-08
4.047659481e-08
3.588800989e-08
3.190142566e-08
2.86243668e-08
2.575328537e-08
2.31702193e-08
2.076910597e-08
1.844923726e-08
1.61152652e-08
1.367657922e-08
1.104512344e-08
8.134449234e-09
4.857379727e-09
1.125693354e-09
-3.153488317e-09
-8.07837833e-09
-1.375543093e-08
-2.029734651e-08
-2.782235549e-08
-3.645104293e-08
-4.630760136e-08
-5.752210481e-08
-7.023510098e-08
-8.459790106e-08
-1.007684562e-07
-1.189013648e-07
-1.391410052e-07
-1.616213091e-07
-1.864749162e-07
-2.138380888e-07
-2.438445092e-07
-2.766029287e-07
-3.121773064e-07
-3.505829609e-07
-3.918007982e-07
-4.357876684e-07
-4.82460721e-07
-5.316568261e-07
-5.830914451e-07
-6.363433302e-07
-6.908557112e-07
-7.459269531e-07
-8.006550194e-07
-8.53843367e-07
-9.038713913e-07
-9.485330604e-07
-9.847642032e-07
-1.008189999e-06
-1.012424941e-06
-9.881292588e-07
-9.218619326e-07
-7.955076087e-07
-5.894739385e-07
-2.962385799e-07
3.640092752e-08
2.380428674e-07
-3.123469322e-08
-3.910007172e-08
1.377026474e-05
2.468184209e-05
2.823736818e-05
7.490709902e-11
5.415302449e-11
4.671420912e-11
4.601736754e-11
4.801158853e-11
5.1309683e-11
5.617327027e-11
6.270940802e-11
7.006628121e-11
7.666548816e-11
8.130833787e-11
8.410861739e-11
8.595875577e-11
8.800640642e-11
9.025601196e-11
9.214147781e-11
9.235130315e-11
9.047708407e-11
8.636188654e-11
8.0733847e-11
7.354346088e-11
6.482000215e-11
5.409483734e-11
4.206607855e-11
2.952044309e-11
1.751378998e-11
5.734877912e-12
-5.991753961e-12
-1.730117066e-11
-2.615856861e-11
-3.161660578e-11
-3.589457993e-11
-4.451919713e-11
-6.144145733e-11
-8.377188187e-11
-1.017617091e-10
-1.059416735e-10
-9.632048682e-11
-8.413060479e-11
-8.290210906e-11
-9.534853208e-11
-1.104927528e-10
-1.151861674e-10
-1.074742714e-10
-9.536214626e-11
-8.524129684e-11
-7.89420781e-11
-7.724965766e-11
-8.099002966e-11
-8.463562288e-11
-8.345032505e-11
-7.564019186e-11
-6.462699477e-11
-9.337181505e-11
-2.463664286e-10
-3.072226795e-10
-2.776380806e-10
-2.039456682e-10
4.629472171e-08
4.040277552e-08
3.548429357e-08
3.126159631e-08
2.782096967e-08
2.484984114e-08
2.221552936e-08
1.979889147e-08
1.748774825e-08
1.517782294e-08
1.277133035e-08
1.017448288e-08
7.296160777e-09
4.04553804e-09
3.309724442e-10
-3.941991666e-09
-8.873217904e-09
-1.456836002e-08
-2.113951201e-08
-2.870272718e-08
-3.737766431e-08
-4.728730443e-08
-5.856165187e-08
-7.13406714e-08
-8.577501915e-08
-1.020206507e-07
-1.202300089e-07
-1.405457635e-07
-1.631026161e-07
-1.880336982e-07
-2.154756372e-07
-2.455584601e-07
-2.783875229e-07
-3.140274885e-07
-3.525048602e-07
-3.938221618e-07
-4.37963298e-07
-4.848729344e-07
-5.344171625e-07
-5.863553354e-07
-6.403383314e-07
-6.959225764e-07
-7.525595726e-07
-8.09546139e-07
-8.659374418e-07
-9.204543423e-07
-9.713535305e-07
-1.01619432e-06
-1.051358973e-06
-1.071174401e-06
-1.066240717e-06
-1.020152339e-06
-9.032029839e-07
-6.614284662e-07
-2.007051129e-07
6.219425996e-07
2.027485151e-06
4.326200839e-06
3.877683314e-06
9.32332218e-06
3.442446521e-06
8.51105549e-11
7.32453318e-11
5.902158262e-11
5.08479449e-11
4.841311705e-11
4.949293706e-11
5.245044034e-11
5.662689075e-11
6.19152053e-11
6.764684873e-11
7.279432807e-11
7.671978475e-11
7.952655265e-11
8.208602522e-11
8.484028193e-11
8.777241272e-11
8.974393143e-11
8.988716432e-11
8.740664307e-11
8.274700417e-11
7.627628839e-11
6.865715194e-11
5.964975377e-11
4.946245505e-11
3.831416264e-11
2.739317937e-11
1.709103069e-11
7.45353659e-12
-2.402534249e-12
-1.219167155e-11
-2.108948236e-11
-2.85573935e-11
-3.673273503e-11
-4.931666583e-11
-6.779705189e-11
-8.773154311e-11
-1.001506255e-10
-9.872993385e-11
-8.669618606e-11
-7.642400941e-11
-7.958396766e-11
-9.588566314e-11
-1.122095171e-10
-1.153229149e-10
-1.049273978e-10
-9.112127699e-11
-8.211947387e-11
-7.888953091e-11
-8.163498063e-11
-8.841864311e-11
-9.334085695e-11
-9.097702227e-11
-8.628206325e-11
-8.199019822e-11
-1.054797723e-10
-1.717708283e-10
-2.563853026e-10
-2.313130632e-10
-1.674988059e-10
4.605669938e-08
3.972719656e-08
3.449801045e-08
3.007304799e-08
2.651307794e-08
2.349225613e-08
2.086006041e-08
1.848090443e-08
1.622953919e-08
1.399126372e-08
1.166005798e-08
9.13600489e-09
6.323018986e-09
3.126586538e-09
-5.470618498e-10
-4.794005885e-09
-9.713298995e-09
-1.540965292e-08
-2.199288085e-08
-2.957749077e-08
-3.828132171e-08
-4.822682807e-08
-5.95438012e-08
-7.237199403e-08
-8.686067003e-08
-1.031636091e-07
-1.21430439e-07
-1.418020265e-07
-1.644120113e-07
-1.893941537e-07
-2.168835359e-07
-2.470078314e-07
-2.798700551e-07
-3.155394858e-07
-3.540570619e-07
-3.954492634e-07
-4.397274676e-07
-4.868636734e-07
-5.367576141e-07
-5.892216102e-07
-6.439968367e-07
-7.00773311e-07
-7.591854169e-07
-8.187645403e-07
-8.788832548e-07
-9.387116434e-07
-9.971836355e-07
-1.052889593e-06
-1.103817644e-06
-1.146793592e-06
-1.176236542e-06
-1.181029594e-06
-1.136665075e-06
-9.855369014e-07
-5.924588423e-07
3.562276555e-07
2.509098549e-06
6.740612569e-06
3.525366703e-06
1.522826503e-05
6.647238301e-06
7.004668133e-11
6.879936098e-11
5.943411006e-11
5.219205592e-11
4.954499796e-11
5.079671689e-11
5.38630393e-11
5.759810401e-11
6.155488076e-11
6.553697407e-11
6.926855833e-11
7.263996106e-11
7.595884949e-11
7.942997944e-11
8.311285416e-11
8.618109114e-11
8.780277582e-11
8.694101196e-11
8.361263974e-11
7.809184567e-11
7.133863482e-11
6.360330323e-11
5.51269206e-11
4.564701224e-11
3.581967135e-11
2.622331213e-11
1.764717316e-11
9.473925776e-12
9.608114356e-13
-8.641929835e-12
-1.88829602e-11
-2.960699731e-11
-4.165822753e-11
-5.64724297e-11
-7.333854864e-11
-8.766853408e-11
-9.326834916e-11
-8.787690531e-11
-7.725715409e-11
-7.253346935e-11
-8.122703175e-11
-9.931290561e-11
-1.132701098e-10
-1.125565118e-10
-9.958505227e-11
-8.606352469e-11
-8.015075519e-11
-8.224994685e-11
-8.879915706e-11
-9.627046514e-11
-9.930536315e-11
-9.552042753e-11
-8.829159455e-11
-8.724146148e-11
-1.047061712e-10
-1.559383583e-10
-1.924287512e-10
-1.790282272e-10
-1.444154816e-10
4.50574863e-08
3.829761196e-08
3.278853167e-08
2.821223957e-08
2.459591724e-08
2.159549736e-08
1.903658388e-08
1.676450348e-08
1.463768113e-08
1.252952582e-08
1.032504574e-08
7.917953107e-09
5.207142379e-09
2.095723673e-09
-1.511666872e-09
-5.710062491e-09
-1.0597347e-08
-1.62754226e-08
-2.285180929e-08
-3.043875231e-08
-3.915307162e-08
-4.911668495e-08
-6.045885401e-08
-7.331835791e-08
-8.784255543e-08
-1.041820168e-07
-1.224827756e-07
-1.428828534e-07
-1.65514491e-07
-1.905100185e-07
-2.180028971e-07
-2.481181573e-07
-2.809593504e-07
-3.166021821e-07
-3.551034969e-07
-3.965113053e-07
-4.40860708e-07
-4.881488896e-07
-5.383104259e-07
-5.912178845e-07
-6.467093598e-07
-7.046169691e-07
-7.647609491e-07
-8.269163375e-07
-8.907845107e-07
-9.560168372e-07
-1.022278064e-06
-1.089327703e-06
-1.157110767e-06
-1.225969801e-06
-1.29707143e-06
-1.373026017e-06
-1.45799788e-06
-1.55343963e-06
-1.63303929e-06
-1.556680267e-06
-8.108287113e-07
2.18067006e-06
1.781229602e-05
3.456501591e-05
3.048201906e-05
7.976689418e-11
7.293051447e-11
6.122376372e-11
5.32586922e-11
5.078477131e-11
5.230910421e-11
5.549290061e-11
5.868920101e-11
6.148017586e-11
6.399569186e-11
6.661618013e-11
6.977822888e-11
7.36159544e-11
7.799598011e-11
8.20305663e-11
8.479739739e-11
8.519398975e-11
8.303089199e-11
7.849601705e-11
7.263692194e-11
6.607830496e-11
5.930393018e-11
5.185177602e-11
4.365690325e-11
3.475884713e-11
2.619043583e-11
1.826296017e-11
1.074765556e-11
2.188334598e-12
-8.290616581e-12
-2.074705627e-11
-3.4291333e-11
-4.827336586e-11
-6.209951274e-11
-7.425255247e-11
-8.173594909e-11
-8.200399389e-11
-7.627634777e-11
-7.082998703e-11
-7.352204241e-11
-8.701652834e-11
-1.044209572e-10
-1.134279e-10
-1.072741712e-10
-9.219496381e-11
-8.106402257e-11
-8.070977225e-11
-8.761102637e-11
-9.601652069e-11
-1.01885217e-10
-1.020208657e-10
-9.482983359e-11
-8.646360567e-11
-8.57230739e-11
-9.911266005e-11
-1.279313762e-10
-1.573174073e-10
-1.489079078e-10
-1.20111451e-10
4.309888759e-08
3.592309081e-08
3.018509465e-08
2.553224854e-08
2.194942395e-08
1.906504935e-08
1.667486586e-08
1.459896091e-08
1.267740766e-08
1.076980696e-08
8.752037951e-09
6.511336655e-09
3.943493934e-09
9.501752911e-10
-2.562904242e-09
-6.688779777e-09
-1.15215115e-08
-1.716027354e-08
-2.370948614e-08
-3.127961208e-08
-3.998636311e-08
-4.995058351e-08
-6.130058523e-08
-7.417307547e-08
-8.871210917e-08
-1.050640091e-07
-1.23370255e-07
-1.437650543e-07
-1.663778816e-07
-1.913393576e-07
-2.1878052e-07
-2.488249253e-07
-2.81576679e-07
-3.171185952e-07
-3.555206039e-07
-3.96848026e-07
-4.4115337e-07
-4.884545498e-07
-5.387197154e-07
-5.918816381e-07
-6.478751886e-07
-7.066665282e-07
-7.682494232e-07
-8.326190004e-07
-8.99775178e-07
-9.697889962e-07
-1.042936678e-06
-1.119871325e-06
-1.20190823e-06
-1.291638143e-06
-1.394361618e-06
-1.521250267e-06
-1.696102947e-06
-1.966683952e-06
-2.420548207e-06
-3.15024494e-06
-4.013769752e-06
-3.561457213e-06
1.37518408e-05
3.35540059e-05
3.521050082e-05
9.567725489e-11
7.662808637e-11
6.239586874e-11
5.406699396e-11
5.172526364e-11
5.360313771e-11
5.688054891e-11
5.970451584e-11
6.154102218e-11
6.29618877e-11
6.496363181e-11
6.821321658e-11
7.274062496e-11
7.755766645e-11
8.139853765e-11
8.28983625e-11
8.1649286e-11
7.785355271e-11
7.266559978e-11
6.70376335e-11
6.175888262e-11
5.645954846e-11
5.058055684e-11
4.329605397e-11
3.499072269e-11
2.632437046e-11
1.819829221e-11
1.009368499e-11
8.079658854e-13
-1.094986181e-11
-2.497832211e-11
-3.976062318e-11
-5.311931517e-11
-6.33369081e-11
-6.926906143e-11
-7.070767371e-11