/*--------------------------------*- C++ -*----------------------------------*\
  =========                 |
  \\      /  F ield         | OpenFOAM: The Open Source CFD Toolbox
   \\    /   O peration     | Website:  https://openfoam.org
    \\  /    A nd           | Version:  6
     \\/     M anipulation  |
\*---------------------------------------------------------------------------*/
FoamFile
{
    version     2.0;
    format      ascii;
    class       volScalarField;
    location    "0.0004";
    object      Num_divU;
}
// * * * * * * * * * * * * * * * * * * * * * * * * * * * * * * * * * * * * * //

dimensions      [0 0 -1 0 0 0 0];

internalField   nonuniform List<scalar> 
9600
(
1.009318679e-09
9.791487516e-10
1.072736016e-09
1.222255533e-09
1.565121505e-09
1.940764663e-09
2.224010924e-09
2.501601924e-09
2.670585919e-09
2.831926988e-09
2.892765062e-09
2.962607739e-09
2.949289085e-09
2.962284337e-09
2.905135416e-09
2.885902618e-09
2.805700038e-09
2.773007785e-09
2.685306672e-09
2.648017565e-09
2.552443346e-09
2.50189813e-09
2.388842655e-09
2.323269056e-09
2.202338024e-09
2.136616263e-09
2.013942401e-09
1.932699702e-09
1.773773225e-09
1.644130112e-09
1.444824509e-09
1.302401458e-09
1.118732761e-09
1.000609459e-09
8.250692219e-10
6.916220858e-10
4.926821501e-10
3.441190667e-10
1.258954451e-10
-9.478969679e-11
-5.00630464e-10
-1.07999705e-09
-2.085785492e-09
-3.668173973e-09
-6.419080687e-09
-1.105728895e-08
-1.895040161e-08
-3.17430729e-08
-5.183132498e-08
-8.199241791e-08
-1.258738399e-07
-1.875324834e-07
-2.717432934e-07
-3.834317846e-07
-5.281954936e-07
-7.123699687e-07
-9.449702091e-07
-1.240669916e-06
-1.625551231e-06
-2.136278951e-06
-2.796990547e-06
-3.512327857e-06
-3.804008766e-06
-3.192421558e-06
-2.127001302e-06
-9.853717289e-06
-1.633491587e-05
9.7049663e-11
2.084700212e-10
2.037530463e-10
2.04460427e-10
1.945319577e-10
1.772391853e-10
1.855880661e-10
1.901142876e-10
2.167690766e-10
2.26198348e-10
2.458819493e-10
2.374664141e-10
2.470443951e-10
2.350214314e-10
2.411781332e-10
2.092424391e-10
1.841957143e-10
1.21482516e-10
7.70505848e-11
1.079484484e-11
-1.493825008e-11
-3.78418383e-11
-1.570675961e-11
-1.737628853e-11
-1.200300479e-11
-3.973700794e-11
-5.246861897e-11
-9.205796799e-11
-1.223070976e-10
-1.673816821e-10
-1.931879117e-10
-2.267148943e-10
-2.380298379e-10
-2.422183055e-10
-2.259366463e-10
-2.167764489e-10
-2.025800001e-10
-1.985448644e-10
-1.998124013e-10
-1.929742792e-10
-1.935057337e-10
-1.641041275e-10
-2.453325305e-10
-1.420157425e-10
-1.567007286e-10
-3.815605311e-11
-1.052785095e-05
1.875902276e-06
5.418528444e-06
3.900886168e-06
2.363975236e-07
-2.310333035e-06
8.317328807e-07
1.101590883e-09
1.035776097e-09
1.119356702e-09
1.239871496e-09
1.580189805e-09
1.932118684e-09
2.219480734e-09
2.478850348e-09
2.657115236e-09
2.804526359e-09
2.878783425e-09
2.937072957e-09
2.938262946e-09
2.939046648e-09
2.895742946e-09
2.863929332e-09
2.798327407e-09
2.7533199e-09
2.679650799e-09
2.627193551e-09
2.542283019e-09
2.475151031e-09
2.375471814e-09
2.299202143e-09
2.197268074e-09
2.119857902e-09
2.006393176e-09
1.898396748e-09
1.737857186e-09
1.583161512e-09
1.396779541e-09
1.244988469e-09
1.076207395e-09
9.301490264e-10
7.388568513e-10
5.506233462e-10
3.210252733e-10
1.061907396e-10
-1.674747371e-10
-5.032258374e-10
-1.037411066e-09
-1.837561574e-09
-3.150497144e-09
-5.286802142e-09
-8.942329094e-09
-1.511158688e-08
-2.538024723e-08
-4.17941984e-08
-6.712428733e-08
-1.047225271e-07
-1.587044664e-07
-2.33578102e-07
-3.341065075e-07
-4.646537352e-07
-6.288641333e-07
-8.291668225e-07
-1.068091886e-06
-1.353199078e-06
-1.709710063e-06
-2.200987312e-06
-2.939382991e-06
-3.923165458e-06
-4.427763306e-06
-4.375430741e-06
6.678618734e-06
1.170897598e-05
1.248851198e-10
1.228253845e-10
1.194471406e-10
1.241429053e-10
1.224554245e-10
1.231621877e-10
1.186148629e-10
1.243105668e-10
1.295294864e-10
1.465385988e-10
1.539383809e-10
1.646982639e-10
1.59568611e-10
1.614179244e-10
1.51389195e-10
1.505433956e-10
1.320438139e-10
1.169057171e-10
8.115281214e-11
5.236590578e-11
1.238314396e-11
-5.717365928e-12
-1.924033109e-11
-8.173988461e-12
-8.580799559e-12
-8.722735137e-12
-3.040465226e-11
-4.819766139e-11
-7.769180649e-11
-9.779495425e-11
-1.223557424e-10
-1.35480563e-10
-1.500357912e-10
-1.511764562e-10
-1.494556421e-10
-1.411965405e-10
-1.403511148e-10
-1.377057853e-10
-1.387387603e-10
-1.323838316e-10
-1.28105272e-10
-1.177093417e-10
-1.094939579e-10
-1.072271075e-10
-1.165653575e-10
-8.254368707e-11
-1.230808576e-10
-7.358144858e-11
1.738254518e-05
8.256596875e-06
2.512562331e-06
3.798576599e-07
-3.063013741e-06
4.878500127e-07
1.197358489e-09
1.090248612e-09
1.170605639e-09
1.260035951e-09
1.602860849e-09
1.927538945e-09
2.223822751e-09
2.460799456e-09
2.652957057e-09
2.7820761e-09
2.873871488e-09
2.915805052e-09
2.935405296e-09
2.919102796e-09
2.893516181e-09
2.844222478e-09
2.796918042e-09
2.734710201e-09
2.678910939e-09
2.607230481e-09
2.538355129e-09
2.451291752e-09
2.370327921e-09
2.278401798e-09
2.198093638e-09
2.102172251e-09
2.000690662e-09
1.861635616e-09
1.705748009e-09
1.52363532e-09
1.354838407e-09
1.187075491e-09
1.033575084e-09
8.513315042e-10
6.452191507e-10
3.93849233e-10
1.308079679e-10
-1.652659235e-10
-5.056458653e-10
-9.821085391e-10
-1.677632058e-09
-2.765947246e-09
-4.487459907e-09
-7.337394003e-09
-1.210964426e-08
-2.009935141e-08
-3.31185848e-08
-5.366065621e-08
-8.48950901e-08
-1.307825659e-07
-1.959041693e-07
-2.852495053e-07
-4.036233724e-07
-5.54893266e-07
-7.405536176e-07
-9.579250058e-07
-1.198553143e-06
-1.449656268e-06
-1.70410894e-06
-2.014439215e-06
-2.583941148e-06
-3.911861413e-06
-6.296033904e-06
3.824841013e-06
9.545103869e-06
1.929939004e-05
1.34204422e-10
1.11141928e-10
1.076431994e-10
1.078720061e-10
1.110680235e-10
1.12002586e-10
1.157336305e-10
1.192508384e-10
1.299825927e-10
1.404379089e-10
1.532038811e-10
1.567152133e-10
1.58174008e-10
1.515835523e-10
1.483861697e-10
1.390268802e-10
1.303682858e-10
1.094112779e-10
8.565395099e-11
5.164632682e-11
2.365475519e-11
-6.368178083e-13
-6.629191744e-12
-7.656015157e-12
-4.52013906e-12
-1.538833894e-11
-3.240190287e-11
-5.864484529e-11
-8.008703216e-11
-1.017191695e-10
-1.170910579e-10
-1.327809237e-10
-1.411400418e-10
-1.448367977e-10
-1.409252213e-10
-1.386970296e-10
-1.384438329e-10
-1.413239285e-10
-1.378527635e-10
-1.287743415e-10
-1.166122266e-10
-1.089192306e-10
-9.933834457e-11
-9.530434503e-11
-8.697631909e-11
-1.07801866e-10
-1.487564178e-10
-5.598337649e-11
1.047940055e-05
1.922829385e-05
1.485543609e-05
5.010411811e-07
-3.1345583e-06
9.98768172e-07
1.283032903e-09
1.159018277e-09
1.208508942e-09
1.290451738e-09
1.609096237e-09
1.930838103e-09
2.209380976e-09
2.449640405e-09
2.629265153e-09
2.766377642e-09
2.849013581e-09
2.900915344e-09
2.911585798e-09
2.904894778e-09
2.869554966e-09
2.829841905e-09
2.77351843e-09
2.721575652e-09
2.656407931e-09
2.593859581e-09
2.514078483e-09
2.436517286e-09
2.346904613e-09
2.267542821e-09
2.179111092e-09
2.090994202e-09
1.971591452e-09
1.830653299e-09
1.653838119e-09
1.477026441e-09
1.299809341e-09
1.144245824e-09
9.739703581e-10
7.800478198e-10
5.272668963e-10
2.390922606e-10
-8.963143901e-11
-4.466290758e-10
-8.970367158e-10
-1.512016625e-09
-2.439367973e-09
-3.857596572e-09
-6.123361225e-09
-9.817966465e-09
-1.595291338e-08
-2.602366328e-08
-4.218659853e-08
-6.728301835e-08
-1.049805176e-07
-1.597052225e-07
-2.365560676e-07
-3.408885332e-07
-4.777916729e-07
-6.509885489e-07
-8.609653806e-07
-1.101363805e-06
-1.352373791e-06
-1.565489377e-06
-1.639812555e-06
-1.357893421e-06
-3.144263496e-07
1.795952659e-06
8.837156726e-07
2.470213025e-06
-5.831811625e-06
1.113439531e-10
1.018376295e-10
9.413340979e-11
9.195341708e-11
9.534995533e-11
9.9239356e-11
1.052333809e-10
1.088842769e-10
1.157372186e-10
1.232041458e-10
1.354714672e-10
1.43599569e-10
1.498058019e-10
1.471979553e-10
1.443464131e-10
1.369385942e-10
1.322841513e-10
1.20650628e-10
1.064969063e-10
8.155128316e-11
5.582166306e-11
2.695382862e-11
8.597722354e-12
-2.8249929e-12
-2.975797957e-12
-7.734869274e-12
-1.796537557e-11
-3.975629248e-11
-6.056288414e-11
-8.109152878e-11
-9.560979569e-11
-1.107790528e-10
-1.225480516e-10
-1.329944075e-10
-1.359465187e-10
-1.353835021e-10
-1.335384882e-10
-1.366574825e-10
-1.38456862e-10
-1.335693792e-10
-1.204386259e-10
-1.072298303e-10
-9.922402661e-11
-9.228729774e-11
-8.545802427e-11
-7.630939914e-11
-1.089924985e-10
-1.036915085e-10
-1.361973667e-10
-4.376884932e-11
1.313726757e-06
2.247359722e-05
7.917256871e-06
1.822470894e-06
2.841932626e-06
1.381360345e-09
1.222519585e-09
1.255477183e-09
1.3150218e-09
1.624009112e-09
1.927872127e-09
2.203933586e-09
2.432443246e-09
2.615055316e-09
2.744769319e-09
2.833346206e-09
2.879131595e-09
2.895799611e-09
2.882072476e-09
2.852562884e-09
2.806336816e-09
2.756962144e-09
2.699640039e-09
2.641584566e-09
2.572560129e-09
2.499124542e-09
2.415055408e-09
2.33334422e-09
2.248982211e-09
2.167053762e-09
2.068356726e-09
1.947357417e-09
1.789809841e-09
1.61296965e-09
1.428861129e-09
1.262037911e-09
1.100379648e-09
9.260088741e-10
6.993934267e-10
4.146345332e-10
7.273483351e-11
-3.062629102e-10
-7.471047463e-10
-1.306700578e-09
-2.104883731e-09
-3.295314463e-09
-5.134947619e-09
-8.043556849e-09
-1.276380493e-08
-2.047092246e-08
-3.293160663e-08
-5.258596198e-08
-8.266905925e-08
-1.272321206e-07
-1.911091574e-07
-2.796759307e-07
-3.985214489e-07
-5.529357941e-07
-7.471597042e-07
-9.830130982e-07
-1.257332544e-06
-1.55473596e-06
-1.82923118e-06
-1.94627672e-06
-1.563550038e-06
5.534536113e-08
3.447221652e-06
1.126711988e-05
1.029959177e-05
4.51194944e-11
7.50895658e-11
7.971460328e-11
7.79519825e-11
7.953670216e-11
8.422221901e-11
9.179797672e-11
9.848805241e-11
1.048956385e-10
1.104309411e-10
1.185406954e-10
1.268971638e-10
1.352652295e-10
1.384743101e-10
1.380926517e-10
1.329100653e-10
1.278517798e-10
1.20731507e-10
1.12766955e-10
9.845282727e-11
7.966313761e-11
5.521836689e-11
3.248094519e-11
1.351476478e-11
3.636479491e-12
-2.983476526e-12
-1.015109059e-11
-2.518140385e-11
-4.373956728e-11
-6.284932916e-11
-7.673420634e-11
-8.889372579e-11
-1.004223421e-10
-1.138880109e-10
-1.242908584e-10
-1.293568816e-10
-1.284969986e-10
-1.286478894e-10
-1.31609237e-10
-1.333638848e-10
-1.260123093e-10
-1.119847454e-10
-9.966823443e-11
-9.341199633e-11
-8.794415037e-11
-8.159202776e-11
-7.322138846e-11
-8.49326249e-11
-1.213420443e-10
-9.05881826e-11
-2.340263775e-11
-1.470135171e-12
2.147816692e-05
1.497583521e-05
-1.935780371e-06
9.217382076e-07
1.481098118e-09
1.295056825e-09
1.301484467e-09
1.346529687e-09
1.637212798e-09
1.931923227e-09
2.197119242e-09
2.423028783e-09
2.599989346e-09
2.730849387e-09
2.816001563e-09
2.863702394e-09
2.876659317e-09
2.864600211e-09
2.831522312e-09
2.788121587e-09
2.73690953e-09
2.683548314e-09
2.623744469e-09
2.557978168e-09
2.48176291e-09
2.400937612e-09
2.316907833e-09
2.235647204e-09
2.148944233e-09
2.048172284e-09
1.917095429e-09
1.756316046e-09
1.574812752e-09
1.397119676e-09
1.231842392e-09
1.071005456e-09
8.789481028e-10
6.269998211e-10
3.017476391e-10
-8.186543064e-11
-5.200298455e-10
-1.040847125e-09
-1.733293089e-09
-2.732942022e-09
-4.242059681e-09
-6.569056536e-09
-1.024504924e-08
-1.615138244e-08
-2.567560159e-08
-4.083140449e-08
-6.437671413e-08
-9.987544216e-08
-1.516930021e-07
-2.248337877e-07
-3.246380889e-07
-4.563890664e-07
-6.249406533e-07
-8.344755266e-07
-1.088757166e-06
-1.391893762e-06
-1.746842902e-06
-2.135048945e-06
-2.458456972e-06
-2.244265297e-06
-8.187989718e-07
1.107975664e-05
1.600665518e-05
1.019886267e-05
3.092285484e-11
5.392379217e-11
6.168465056e-11
6.491170736e-11
6.913321437e-11
7.67182887e-11
8.573895718e-11
9.43304892e-11
1.006886862e-10
1.063155512e-10
1.121598077e-10
1.192603039e-10
1.25151363e-10
1.283658576e-10
1.270178314e-10
1.230142039e-10
1.17309807e-10
1.116752614e-10
1.039321235e-10
9.273942612e-11
7.594712168e-11
5.586488924e-11
3.499301154e-11
1.812277541e-11
5.698803139e-12
-3.51779634e-12
-1.512811657e-11
-3.043661213e-11
-4.78032653e-11
-6.145244865e-11
-7.095001168e-11
-7.901128403e-11
-9.0788915e-11
-1.05284796e-10
-1.182271254e-10
-1.239003588e-10
-1.237394327e-10
-1.230807205e-10
-1.256814567e-10
-1.261755543e-10
-1.187185449e-10
-1.055156851e-10
-9.577261845e-11
-9.13562738e-11
-8.793088257e-11
-8.216240663e-11
-7.725189044e-11
-8.014251766e-11
-8.614401196e-11
-6.324495467e-11
-1.859506034e-11
-6.631091484e-12
6.123090734e-08
3.917127205e-05
7.857131117e-06
-1.180721941e-07
1.589662605e-09
1.369661398e-09
1.352786174e-09
1.379421656e-09
1.655338225e-09
1.937341089e-09
2.195900369e-09
2.415640125e-09
2.590659949e-09
2.718395654e-09
2.80324389e-09
2.848123944e-09
2.860635679e-09
2.845967717e-09
2.813643663e-09
2.769471541e-09
2.720860335e-09
2.667864546e-09
2.610486522e-09
2.543755015e-09
2.468753086e-09
2.386378167e-09
2.303464285e-09
2.219859774e-09
2.131907112e-09
2.02536155e-09
1.891000043e-09
1.727057124e-09
1.550034435e-09
1.377614427e-09
1.217989436e-09
1.05092148e-09
8.424731952e-10
5.612077965e-10
2.03728259e-10
-2.195063365e-10
-7.091078754e-10
-1.316508927e-09
-2.149826142e-09
-3.378128209e-09
-5.242371945e-09
-8.127358359e-09
-1.267580477e-08
-1.994078021e-08
-3.152868288e-08
-4.973074013e-08
-7.761435732e-08
-1.190511905e-07
-1.786050447e-07
-2.612205443e-07
-3.717404935e-07
-5.143511541e-07
-6.920996482e-07
-9.068375609e-07
-1.160665511e-06
-1.460257712e-06
-1.818402143e-06
-2.248481678e-06
-2.597373279e-06
-2.041452289e-06
-4.370694049e-07
9.538063765e-06
1.125561485e-05
-2.24487624e-12
2.322125588e-11
4.206679188e-11
5.150599281e-11
5.654730827e-11
6.265727736e-11
7.139843143e-11
8.169507569e-11
9.076109129e-11
9.749928817e-11
1.022611145e-10
1.068333602e-10
1.116126244e-10
1.160223552e-10
1.180674389e-10
1.170866288e-10
1.132526733e-10
1.082845994e-10
1.027074738e-10
9.605760513e-11
8.625668299e-11
7.237004124e-11
5.49055933e-11
3.683439793e-11
2.059231221e-11
7.315257708e-12
-5.354456248e-12
-1.956350826e-11
-3.559374342e-11
-4.947214809e-11
-5.829282076e-11
-6.299450519e-11
-6.967439164e-11
-8.249482374e-11
-9.99820607e-11
-1.143011752e-10
-1.197540781e-10
-1.1767726e-10
-1.159641783e-10
-1.18186972e-10
-1.19574118e-10
-1.133161846e-10
-1.023158656e-10
-9.464031406e-11
-9.213892887e-11
-8.861465705e-11
-8.314917802e-11
-7.875218414e-11
-7.862946127e-11
-7.781144588e-11
-5.013048286e-11
-2.696802012e-11
4.643940135e-11
2.432089663e-11
2.561775432e-05
1.935712303e-05
1.344690988e-06
1.704134163e-09
1.451123738e-09
1.407370761e-09
1.416851206e-09
1.676169173e-09
1.947438343e-09
2.197743091e-09
2.41289892e-09
2.583909818e-09
2.709566702e-09
2.791449886e-09
2.834634415e-09
2.84467188e-09
2.829441861e-09
2.796549725e-09
2.754204653e-09
2.706676536e-09
2.655776306e-09
2.59845878e-09
2.532264813e-09
2.455813987e-09
2.373347687e-09
2.288866045e-09
2.204534222e-09
2.113758966e-09
2.005288628e-09
1.869467654e-09
1.709019063e-09
1.538375644e-09
1.37446393e-09
1.216953491e-09
1.043062989e-09
8.160057285e-10
5.11392816e-10
1.279630058e-10
-3.242228329e-10
-8.60872571e-10
-1.552119575e-09
-2.532805116e-09
-4.00121692e-09
-6.248701816e-09
-9.742097388e-09
-1.525806465e-08
-2.403931438e-08
-3.794311816e-08
-5.956567525e-08
-9.231064432e-08
-1.403508079e-07
-2.083779854e-07
-3.010978048e-07
-4.224817348e-07
-5.748951457e-07
-7.581846712e-07
-9.691344691e-07
-1.202676581e-06
-1.456914409e-06
-1.760333932e-06
-2.203161311e-06
-3.032125407e-06
-4.164101003e-06
4.972708703e-07
6.037385642e-06
1.198210551e-05
3.242209127e-12
2.43609889e-11
3.881364493e-11
4.668568281e-11
5.209804365e-11
5.87065968e-11
6.797523018e-11
7.842277468e-11
8.760896204e-11
9.403853537e-11
9.80597467e-11
1.011710015e-10
1.043627123e-10
1.073822664e-10
1.08922633e-10
1.080705172e-10
1.048545299e-10
1.004063641e-10
9.533176614e-11
8.933171987e-11
8.072933413e-11
6.859251839e-11
5.323198845e-11
3.678240057e-11
2.113929051e-11
6.761635327e-12
-7.621458487e-12
-2.294393215e-11
-3.759470096e-11
-4.799678047e-11
-5.244709879e-11
-5.466370054e-11
-6.162900228e-11
-7.730002729e-11
-9.734153134e-11
-1.12303816e-10
-1.156702657e-10
-1.109422385e-10
-1.075543256e-10
-1.105559798e-10
-1.141946941e-10
-1.110246001e-10
-1.023691203e-10
-9.597842543e-11
-9.277143381e-11
-8.814610803e-11
-8.191314256e-11
-7.862180251e-11
-7.632461649e-11
-7.038846806e-11
-5.350410358e-11
7.17888379e-13
3.01685617e-11
7.130569505e-12
-5.076739934e-06
4.173163405e-05
7.306271535e-06
1.826534403e-09
1.5367497e-09
1.46661888e-09
1.458057738e-09
1.701473157e-09
1.961142752e-09
2.203919777e-09
2.413383654e-09
2.580466905e-09
2.702382381e-09
2.781310327e-09
2.821745386e-09
2.830276427e-09
2.814377617e-09
2.782444154e-09
2.741352347e-09
2.695781178e-09
2.645544722e-09
2.588341364e-09
2.520677773e-09
2.443226077e-09
2.359208104e-09
2.274337138e-09
2.1892324e-09
2.098083123e-09
1.989647715e-09
1.856683097e-09
1.702451449e-09
1.541368001e-09
1.385108774e-09
1.228944494e-09
1.046115363e-09
8.036613166e-10
4.825461436e-10
8.571515269e-11
-3.835902497e-10
-9.567627943e-10
-1.72642589e-09
-2.850498954e-09
-4.55843821e-09
-7.194871784e-09
-1.132200394e-08
-1.786912237e-08
-2.829549645e-08
-4.474418083e-08
-7.015832788e-08
-1.083301325e-07
-1.637779331e-07
-2.413471177e-07
-3.454517022e-07
-4.790300903e-07
-6.422930935e-07
-8.313560816e-07
-1.036630268e-06
-1.239286999e-06
-1.401221914e-06
-1.426020174e-06
-1.083418998e-06
1.017072692e-07
-3.503833176e-06
2.97026555e-06
-2.443360601e-06
2.865376321e-12
1.622665627e-11
2.913615907e-11
3.904529214e-11
4.548045189e-11
5.048265232e-11
5.685649366e-11
6.557377157e-11
7.547366412e-11
8.424621308e-11
9.028548473e-11
9.374769603e-11
9.586695387e-11
9.794496401e-11
1.000159553e-10
1.013499157e-10
1.008284471e-10
9.837396538e-11
9.433786467e-11
8.950920113e-11
8.342111795e-11
7.530135965e-11
6.405272267e-11
5.024176179e-11
3.515601866e-11
2.038515845e-11
5.944724775e-12
-8.823400896e-12
-2.382966425e-11
-3.648937676e-11
-4.370350751e-11
-4.558941681e-11
-4.765763421e-11
-5.720245666e-11
-7.622485504e-11
-9.79749711e-11
-1.113128378e-10
-1.108982917e-10
-1.025544568e-10
-9.829345566e-11
-1.032996538e-10
-1.109554449e-10
-1.115130304e-10
-1.047668678e-10
-9.733832385e-11
-9.17229864e-11
-8.548461631e-11
-7.959825064e-11
-7.771740205e-11
-7.648613694e-11
-7.200912639e-11
-5.527181572e-11
-2.277842204e-11
-3.899827395e-12
-1.74788043e-10
-1.005562398e-10
4.448289652e-05
-1.319102343e-10
1.955608097e-09
1.629154423e-09
1.530669955e-09
1.504175468e-09
1.731015e-09
1.97925186e-09
2.213685044e-09
2.41701738e-09
2.579036596e-09
2.69677048e-09
2.772036673e-09
2.810073265e-09
2.817332804e-09
2.801861332e-09
2.771073934e-09
2.731810379e-09
2.686938399e-09
2.636655817e-09
2.577817689e-09
2.50847011e-09
2.429086844e-09
2.344705163e-09
2.260010156e-09
2.176083385e-09
2.086487668e-09
1.981255554e-09
1.853710803e-09
1.708210471e-09
1.556561595e-09
1.406929725e-09
1.25029122e-09
1.06037736e-09
8.087156348e-10
4.829798067e-10
8.656167065e-11
-3.860669782e-10
-9.837965451e-10
-1.81900779e-09
-3.070450076e-09
-4.998018045e-09
-8.003923527e-09
-1.275632735e-08
-2.035228837e-08
-3.249332451e-08
-5.164246278e-08
-8.115108789e-08
-1.252806473e-07
-1.890126471e-07
-2.774725644e-07
-3.949027097e-07
-5.432183657e-07
-7.204239937e-07
-9.195520346e-07
-1.129580812e-06
-1.339372017e-06
-1.534131885e-06
-1.663649109e-06
-1.457526986e-06
5.014397498e-08
3.222733437e-06
1.377875334e-05
1.490234264e-05
4.074097772e-11
3.756032703e-11
3.868396683e-11
4.267039741e-11
4.64934422e-11
5.051101181e-11
5.609502523e-11
6.389964272e-11
7.277604933e-11
8.062538557e-11
8.602088485e-11
8.890674422e-11
9.062561493e-11
9.227641848e-11
9.431520659e-11
9.579206326e-11
9.586274998e-11
9.376488802e-11
9.001568323e-11
8.483642922e-11
7.851569609e-11
7.0119641e-11
5.93784105e-11
4.635640876e-11
3.253368224e-11
1.874002998e-11
5.273001221e-12
-8.498803197e-12
-2.170874709e-11
-3.209740836e-11
-3.737477376e-11
-3.924339365e-11
-4.375158867e-11
-5.711196431e-11
-7.893587211e-11
-1.002537388e-10
-1.099346492e-10
-1.046387527e-10
-9.331542083e-11
-8.947659063e-11
-9.805562167e-11
-1.100672691e-10
-1.135829108e-10
-1.069402122e-10
-9.739944524e-11
-8.926211185e-11
-8.172811736e-11
-7.727807977e-11
-7.73873254e-11
-7.923892002e-11
-7.540854162e-11
-6.679587964e-11
-4.390609514e-11
-1.118890199e-10
-1.542220838e-10
-4.280230633e-10
-3.348225886e-10
-2.152538822e-10
2.091897684e-09
1.726109072e-09
1.599622806e-09
1.554916053e-09
1.765152842e-09
2.001117628e-09
2.226645257e-09
2.422899236e-09
2.579056556e-09
2.691936625e-09
2.76388912e-09
2.799783533e-09
2.806823332e-09
2.792052056e-09
2.762775363e-09
2.724124113e-09
2.679110049e-09
2.627027039e-09
2.565820502e-09
2.494101472e-09
2.413854939e-09
2.330005043e-09
2.247700391e-09
2.166839219e-09
2.081048897e-09
1.980527307e-09
1.859885264e-09
1.723101876e-09
1.580338816e-09
1.436176714e-09
1.279721686e-09
1.08668519e-09
8.351931949e-10
5.181719639e-10
1.37648151e-10
-3.233735439e-10
-9.308088048e-10
-1.813011654e-09
-3.164688061e-09
-5.272569067e-09
-8.598847913e-09
-1.392310221e-08
-2.252224759e-08
-3.635379691e-08
-5.823467266e-08
-9.198055374e-08
-1.424415336e-07
-2.152534853e-07
-3.161143539e-07
-4.493945864e-07
-6.160065361e-07
-8.105833918e-07
-1.018895323e-06
-1.21901098e-06
-1.39322954e-06
-1.57059782e-06
-1.894499882e-06
-2.670286805e-06
-3.115874496e-06
1.039820694e-05
2.159131572e-05
2.696009406e-05
7.490709935e-11
5.415302449e-11
4.671420912e-11
4.601736754e-11
4.801158853e-11
5.1309683e-11
5.617327027e-11
6.270940802e-11
7.006628121e-11
7.666548816e-11
8.130833787e-11
8.410861739e-11
8.595875577e-11
8.800640642e-11
9.025601196e-11
9.214147781e-11
9.235130315e-11
9.047708407e-11
8.636188654e-11
8.0733847e-11
7.354346088e-11
6.482000215e-11
5.409483734e-11
4.206607855e-11
2.952044309e-11
1.751378998e-11
5.734877912e-12
-5.991753961e-12
-1.730117066e-11
-2.615856861e-11
-3.161660578e-11
-3.589457993e-11
-4.451919713e-11
-6.144145733e-11
-8.377188187e-11
-1.017617091e-10
-1.059416735e-10
-9.632048682e-11
-8.413060479e-11
-8.290210906e-11
-9.534853208e-11
-1.104927528e-10
-1.151861674e-10
-1.074742714e-10
-9.536214626e-11
-8.524129684e-11
-7.89420781e-11
-7.724965766e-11
-8.099002966e-11
-8.463562288e-11
-8.345032505e-11
-7.564019186e-11
-6.462699477e-11
-9.337181505e-11
-2.463664286e-10
-3.072226645e-10
-2.776380779e-10
-2.03945683e-10
2.234165078e-09
1.829144017e-09
1.673430083e-09
1.610392132e-09
1.80303694e-09
2.026138439e-09
2.241701872e-09
2.430073432e-09
2.579733308e-09
2.687911382e-09
2.756671277e-09
2.7915643e-09
2.798777565e-09
2.785034281e-09
2.756293259e-09
2.717189833e-09
2.670142058e-09
2.615141026e-09
2.55099368e-09
2.477715494e-09
2.397975281e-09
2.316963301e-09
2.238646384e-09
2.162609234e-09
2.081643762e-09
1.986522069e-09
1.872454511e-09
1.743560332e-09
1.608267149e-09
1.469313938e-09
1.315612091e-09
1.126963461e-09
8.872586266e-10
5.929577259e-10
2.417840021e-10
-1.948112431e-10
-7.961391106e-10
-1.700864635e-09
-3.113276697e-09
-5.344493583e-09
-8.914358646e-09
-1.471357356e-08
-2.419373108e-08
-3.957038385e-08
-6.402396515e-08
-1.018894185e-07
-1.587292111e-07
-2.411161555e-07
-3.558530992e-07
-5.083505386e-07
-6.996870412e-07
-9.215572502e-07
-1.14786858e-06
-1.321690102e-06
-1.337810885e-06
-1.03382305e-06
-1.632487896e-07
1.606792803e-06
6.507851853e-07
5.299660683e-06
1.064780056e-06
8.51105546e-11
7.324533179e-11
5.902158262e-11
5.08479449e-11
4.841311705e-11
4.949293706e-11
5.245044034e-11
5.662689075e-11
6.19152053e-11
6.764684873e-11
7.279432807e-11
7.671978475e-11
7.952655265e-11
8.208602522e-11
8.484028193e-11
8.777241272e-11
8.974393143e-11
8.988716432e-11
8.740664307e-11
8.274700417e-11
7.627628839e-11
6.865715194e-11
5.964975377e-11
4.946245505e-11
3.831416264e-11
2.739317937e-11
1.709103069e-11
7.45353659e-12
-2.402534249e-12
-1.219167155e-11
-2.108948236e-11
-2.85573935e-11
-3.673273503e-11
-4.931666583e-11
-6.779705189e-11
-8.773154311e-11
-1.001506255e-10
-9.872993385e-11
-8.669618606e-11
-7.642400941e-11
-7.958396766e-11
-9.588566314e-11
-1.122095171e-10
-1.153229149e-10
-1.049273978e-10
-9.112127699e-11
-8.211947387e-11
-7.888953091e-11
-8.163498063e-11
-8.841864311e-11
-9.334085695e-11
-9.097702227e-11
-8.628206325e-11
-8.199019822e-11
-1.054797723e-10
-1.717708283e-10
-2.563852983e-10
-2.3131308e-10
-1.674988037e-10
2.381366907e-09
1.935299029e-09
1.750747706e-09
1.669211879e-09
1.84376252e-09
2.053065656e-09
2.257933277e-09
2.437622791e-09
2.580963873e-09
2.684628162e-09
2.751236393e-09
2.785537673e-09
2.793117025e-09
2.779633041e-09
2.75006496e-09
2.708723917e-09
2.658312265e-09
2.599818874e-09
2.533493887e-09
2.460198973e-09
2.383108008e-09
2.306724332e-09
2.234128113e-09
2.16322877e-09
2.086798263e-09
1.995974659e-09
1.887263765e-09
1.764905586e-09
1.637000932e-09
1.505034935e-09
1.359342213e-09
1.183473113e-09
9.666414216e-10
7.065576843e-10
3.953769911e-10
-5.99122899e-12
-5.85703485e-10
-1.485620885e-09
-2.913393438e-09
-5.198164459e-09
-8.912798809e-09
-1.504745141e-08
-2.521284345e-08
-4.185584842e-08
-6.850338517e-08
-1.10011361e-07
-1.727399534e-07
-2.644583475e-07
-3.937675014e-07
-5.687596219e-07
-7.944511008e-07
-1.067809454e-06
-1.367704152e-06
-1.63298904e-06
-1.716262769e-06
-1.282174773e-06
3.484800386e-07
4.086519826e-06
4.572267328e-07
1.171867598e-05
4.750773587e-06
7.004668141e-11
6.879936098e-11
5.943411006e-11
5.219205592e-11
4.954499796e-11
5.079671689e-11
5.38630393e-11
5.759810401e-11
6.155488076e-11
6.553697407e-11
6.926855833e-11
7.263996106e-11
7.595884949e-11
7.942997944e-11
8.311285416e-11
8.618109114e-11
8.780277582e-11
8.694101196e-11
8.361263974e-11
7.809184567e-11
7.133863482e-11
6.360330323e-11
5.51269206e-11
4.564701224e-11
3.581967135e-11
2.622331213e-11
1.764717316e-11
9.473925776e-12
9.608114356e-13
-8.641929835e-12
-1.88829602e-11
-2.960699731e-11
-4.165822753e-11
-5.64724297e-11
-7.333854864e-11
-8.766853408e-11
-9.326834916e-11
-8.787690531e-11
-7.725715409e-11
-7.253346935e-11
-8.122703175e-11
-9.931290561e-11
-1.132701098e-10
-1.125565118e-10
-9.958505227e-11
-8.606352469e-11
-8.015075519e-11
-8.224994685e-11
-8.879915706e-11
-9.627046514e-11
-9.930536315e-11
-9.552042753e-11
-8.829159455e-11
-8.724146148e-11
-1.047061712e-10
-1.559383583e-10
-1.924287512e-10
-1.790282342e-10
-1.444154816e-10
2.530551908e-09
2.044285064e-09
1.829895826e-09
1.729897197e-09
1.885471747e-09
2.08034692e-09
2.273948064e-09
2.445178188e-09
2.582425264e-09
2.682610708e-09
2.747617069e-09
2.78156743e-09
2.789010143e-09
2.774217138e-09
2.742055733e-09
2.696893099e-09
2.642450207e-09
2.581180216e-09
2.514260219e-09
2.44324083e-09
2.370833945e-09
2.300278018e-09
2.233192203e-09
2.166641137e-09
2.093146848e-09
2.005219663e-09
1.900468359e-09
1.784378235e-09
1.664715401e-09
1.543299403e-09
1.411758951e-09
1.257478916e-09
1.072419413e-09
8.536027182e-10
5.87209445e-10
2.273176605e-10
-3.168987693e-10
-1.183770386e-09
-2.578424738e-09
-4.844009453e-09
-8.595574215e-09
-1.490435871e-08
-2.55039553e-08
-4.302606325e-08
-7.127933944e-08
-1.155739043e-07
-1.829990758e-07
-2.825185932e-07
-4.247361157e-07
-6.213122131e-07
-8.840447199e-07
-1.223615941e-06
-1.647472527e-06
-2.153286944e-06
-2.701971829e-06
-3.13026469e-06
-2.889975843e-06
-3.56494e-07
1.49399922e-05
3.150462649e-05
2.893287031e-05
7.976689421e-11
7.293051446e-11
6.122376372e-11
5.32586922e-11
5.078477131e-11
5.230910421e-11
5.549290061e-11
5.868920101e-11
6.148017586e-11
6.399569186e-11
6.661618013e-11
6.977822888e-11
7.36159544e-11
7.799598011e-11
8.20305663e-11
8.479739739e-11
8.519398975e-11
8.303089199e-11
7.849601705e-11
7.263692194e-11
6.607830496e-11
5.930393018e-11
5.185177602e-11
4.365690325e-11
3.475884713e-11
2.619043583e-11
1.826296017e-11
1.074765556e-11
2.188334598e-12
-8.290616581e-12
-2.074705627e-11
-3.4291333e-11
-4.827336586e-11
-6.209951274e-11
-7.425255247e-11
-8.173594909e-11
-8.200399389e-11
-7.627634777e-11
-7.082998703e-11
-7.352204241e-11
-8.701652834e-11
-1.044209572e-10
-1.134279e-10
-1.072741712e-10
-9.219496381e-11
-8.106402257e-11
-8.070977225e-11
-8.761102637e-11
-9.601652069e-11
-1.01885217e-10
-1.020208657e-10
-9.482983359e-11
-8.646360567e-11
-8.57230739e-11
-9.911266005e-11
-1.279313762e-10
-1.573174073e-10
-1.489079078e-10
-1.20111451e-10
2.677976556e-09
2.150194414e-09
1.907235179e-09
1.789000776e-09
1.925712557e-09
2.10607586e-09
2.288852468e-09
2.452156412e-09
2.584475645e-09
2.681896484e-09
2.745882949e-09
2.778932994e-09
2.78469676e-09
2.766882252e-09
2.730391172e-09
2.680620136e-09
2.622804578e-09
2.560369835e-09
2.495323824e-09
2.428583247e-09
2.361789211e-09
2.296853952e-09
2.233905702e-09
2.169531181e-09
2.097116897e-09
2.01045037e-09
1.909495273e-09
1.80058683e-09
1.6921007e-09
1.585702584e-09
1.474387265e-09
1.347344493e-09
1.198036056e-09
1.021539805e-09
7.997709602e-10
4.837015856e-10
-1.410437836e-11
-8.228973397e-10
-2.141769559e-09
-4.321628049e-09
-8.00922644e-09
-1.433080669e-08
-2.510193045e-08
-4.30726552e-08
-7.224217633e-08
-1.182312003e-07
-1.886362705e-07
-2.932202847e-07
-4.438775861e-07
-6.544568759e-07
-9.40858268e-07
-1.322342101e-06
-1.826101113e-06
-2.496424567e-06
-3.408773732e-06
-4.633873029e-06
-5.9972344e-06
-5.998580937e-06
1.098430312e-05
3.094194196e-05
3.415174507e-05
9.56772553e-11
7.662808637e-11
6.239586874e-11
5.406699396e-11
5.172526364e-11
5.360313771e-11
5.688054891e-11
5.970451584e-11
6.154102218e-11
6.29618877e-11
6.496363181e-11
6.821321658e-11
7.274062496e-11
7.755766645e-11
8.139853765e-11
8.28983625e-11
8.1649286e-11
7.785355271e-11
7.266559978e-11
6.70376335e-11
6.175888262e-11
5.645954846e-11
5.058055684e-11
4.329605397e-11
3.499072269e-11
2.632437046e-11
1.819829221e-11
1.009368499e-11
8.079658854e-13
-1.094986181e-11
-2.497832211e-11
-3.976062318e-11
-5.311931517e-11
-6.33369081e-11
-6.926906143e-11
-7.070767371e-11
-6.888655594e-11
-6.717707366e-11
-7.013776668e-11
-8.058774593e-11
-9.619523783e-11
-1.090218382e-10
-1.104841754e-10
-9.938686934e-11
-8.46621284e-11
-7.808870894e-11
-8.312109474e-11
-9.358049645e-11
-1.012868526e-10
-1.029529483e-10
-9.844150172e-11
-9.001193058e-11
-8.278771327e-11