/*--------------------------------*- C++ -*----------------------------------*\
  =========                 |
  \\      /  F ield         | OpenFOAM: The Open Source CFD Toolbox
   \\    /   O peration     | Website:  https://openfoam.org
    \\  /    A nd           | Version:  6
     \\/     M anipulation  |
\*---------------------------------------------------------------------------*/
FoamFile
{
    version     2.0;
    format      ascii;
    class       volScalarField;
    location    "0.0056";
    object      TRHS;
}
// * * * * * * * * * * * * * * * * * * * * * * * * * * * * * * * * * * * * * //

dimensions      [1 -1 -3 0 0 0 0];

internalField   nonuniform List<scalar> 
9600
(
3.383751163e-09
7.221468608e-09
7.227959734e-09
7.472629395e-09
7.505454615e-09
7.53271856e-09
7.549424034e-09
7.554201214e-09
7.543516871e-09
7.518050025e-09
7.475593306e-09
7.417597211e-09
7.342082171e-09
7.250427152e-09
7.140101925e-09
7.011841654e-09
6.862389337e-09
6.691989616e-09
6.497039794e-09
6.277690276e-09
6.030087935e-09
5.75397528e-09
5.444795863e-09
5.101622593e-09
4.719424771e-09
4.297486559e-09
3.831368892e-09
3.321250284e-09
2.763177651e-09
2.157400281e-09
1.4994794e-09
7.893099e-10
2.25244746e-11
-7.999887384e-10
-1.681073062e-09
-2.618060087e-09
-3.612519054e-09
-4.6609605e-09
-5.764678833e-09
-6.919678031e-09
-8.126296344e-09
-9.378559538e-09
-1.067416853e-08
-1.200381259e-08
-1.336188695e-08
-1.473586772e-08
-1.611768046e-08
-1.749293022e-08
-1.885270202e-08
-2.018227482e-08
-2.147295069e-08
-2.270991227e-08
-2.388407302e-08
-2.497948238e-08
-2.598608465e-08
-2.688756617e-08
-2.76754193e-08
-2.833662789e-08
-2.886769341e-08
-2.926058198e-08
-2.951607431e-08
-2.962869182e-08
-2.960127492e-08
-2.943076866e-08
-2.912468157e-08
-2.868656258e-08
-2.813202535e-08
-2.747187027e-08
-2.672732605e-08
-2.591245142e-08
-2.505128508e-08
-2.416165852e-08
-2.327444089e-08
-2.241697706e-08
-2.163164487e-08
-2.095688955e-08
-2.044480821e-08
-2.014144873e-08
-2.010587438e-08
-2.039180252e-08
-2.106856296e-08
-2.220300972e-08
-2.388005982e-08
-2.618270936e-08
-2.921063137e-08
-3.305834847e-08
-3.783319966e-08
-4.363393503e-08
-5.057005028e-08
-5.874205964e-08
-6.826144905e-08
-7.923100672e-08
-9.176326688e-08
-1.059598594e-07
-1.219287427e-07
-1.397640587e-07
-1.595634899e-07
-1.814090829e-07
-2.053840828e-07
-2.31554353e-07
-2.599849545e-07
-2.907244087e-07
-3.238222585e-07
-3.593148149e-07
-3.972379147e-07
-4.376070127e-07
-4.804233244e-07
-5.256561555e-07
-5.732571082e-07
-6.231530051e-07
-6.75260653e-07
-7.294774936e-07
-7.856857876e-07
-8.437393955e-07
-9.034281664e-07
-9.644311851e-07
-1.02666704e-06
-1.092284865e-06
-1.207119935e-06
-6.52374988e-07
3.326874945e-09
7.111999802e-09
7.231848477e-09
7.462429786e-09
7.506299478e-09
7.535756633e-09
7.557409687e-09
7.562835085e-09
7.556683631e-09
7.531763358e-09
7.494000904e-09
7.436697511e-09
7.366177027e-09
7.275400042e-09
7.17036104e-09
7.043162393e-09
6.899321499e-09
6.730224012e-09
6.54125557e-09
6.323423569e-09
6.082040668e-09
5.807416684e-09
5.504386827e-09
5.162384557e-09
4.786104664e-09
4.36490842e-09
3.904308812e-09
3.394112722e-09
2.840457449e-09
2.232809902e-09
1.577147833e-09
8.623741166e-10
9.494703035e-11
-7.355460954e-10
-1.620946194e-09
-2.570453189e-09
-3.574518188e-09
-4.641986978e-09
-5.762584299e-09
-6.944799528e-09
-8.176730914e-09
-9.465080454e-09
-1.079480899e-08
-1.216977688e-08
-1.357134708e-08
-1.500071951e-08
-1.64363558e-08
-1.787786101e-08
-1.930199934e-08
-2.070800302e-08
-2.207174579e-08
-2.339229874e-08
-2.464416095e-08
-2.582553694e-08
-2.690932482e-08
-2.789390812e-08
-2.875311471e-08
-2.948901164e-08
-3.007945279e-08
-3.053163435e-08
-3.082675077e-08
-3.097515584e-08
-3.095993329e-08
-3.079522972e-08
-3.046911493e-08
-3.000373819e-08
-2.939532705e-08
-2.867436105e-08
-2.784276612e-08
-2.693568495e-08
-2.595856718e-08
-2.495203741e-08
-2.392898898e-08
-2.294039825e-08
-2.201013336e-08
-2.119986475e-08
-2.054204394e-08
-2.010544463e-08
-1.992896403e-08
-2.008900349e-08
-2.063446862e-08
-2.165422894e-08
-2.321164503e-08
-2.540994466e-08
-2.832577962e-08
-3.207249235e-08
-3.673437075e-08
-4.24292099e-08
-4.924521865e-08
-5.730297796e-08
-6.669479401e-08
-7.754401961e-08
-8.994558896e-08
-1.040216574e-07
-1.198641817e-07
-1.375877665e-07
-1.572757574e-07
-1.790300492e-07
-2.029205344e-07
-2.290309657e-07
-2.574132238e-07
-2.881310958e-07
-3.212212685e-07
-3.567332418e-07
-3.946908774e-07
-4.351208567e-07
-4.780128651e-07
-5.233451636e-07
-5.710595889e-07
-6.210917747e-07
-6.733528089e-07
-7.277494132e-07
-7.84168649e-07
-8.424794777e-07
-9.025114359e-07
-9.639961742e-07
-1.027115401e-06
-1.094145938e-06
-1.216080229e-06
-6.596005391e-07
3.315554421e-09
7.087491668e-09
7.207054342e-09
7.449862711e-09
7.497909467e-09
7.533843693e-09
7.555918173e-09
7.565773015e-09
7.558935795e-09
7.537983618e-09
7.499199174e-09
7.44575173e-09
7.3739885e-09
7.286938021e-09
7.180347057e-09
7.056675148e-09
6.910923746e-09
6.745152222e-09
6.553921375e-09
6.339090569e-09
6.094737635e-09
5.822277768e-09
5.515018612e-09
5.173922566e-09
4.791930478e-09
4.370290967e-09
3.902245025e-09
3.389598788e-09
2.825639533e-09
2.212110805e-09
1.541861013e-09
8.166545812e-10
2.963041888e-11
-8.163983112e-10
-1.727235676e-09
-2.698804913e-09
-3.736242969e-09
-4.834732332e-09
-5.998908286e-09
-7.222680386e-09
-8.509056231e-09
-9.849354921e-09
-1.124387574e-08
-1.268072629e-08
-1.415741884e-08
-1.565909512e-08
-1.718091756e-08
-1.870560765e-08
-2.022665092e-08
-2.17250215e-08
-2.319309233e-08
-2.461034442e-08
-2.596798585e-08
-2.724387736e-08
-2.84284358e-08
-2.949926573e-08
-3.044846635e-08
-3.125635646e-08
-3.191917836e-08
-3.242098163e-08
-3.276163009e-08
-3.292776634e-08
-3.292257894e-08
-3.273694996e-08
-3.238084712e-08
-3.185328794e-08
-3.117345883e-08
-3.03483729e-08
-2.940403043e-08
-2.835258806e-08
-2.722555454e-08
-2.604166609e-08
-2.484136399e-08
-2.365359986e-08
-2.252945422e-08
-2.15071277e-08
-2.064540714e-08
-1.99889438e-08
-1.960327217e-08
-1.954129373e-08
-1.987894809e-08
-2.068144477e-08
-2.20377546e-08
-2.402587918e-08
-2.674592779e-08
-3.028534969e-08
-3.475153713e-08
-4.023816466e-08
-4.685767403e-08
-5.470900898e-08
-6.390906419e-08
-7.456094145e-08
-8.678331976e-08
-1.006792508e-07
-1.163637635e-07
-1.339342765e-07
-1.53496781e-07
-1.751377924e-07
-1.98948273e-07
-2.2499734e-07
-2.533551329e-07
-2.840711994e-07
-3.171979614e-07
-3.527717852e-07
-3.908303151e-07
-4.31388283e-07
-4.744465955e-07
-5.199726726e-07
-5.679179707e-07
-6.182114505e-07
-6.707752998e-07
-7.255174795e-07
-7.823415811e-07
-8.411385149e-07
-9.017763762e-07
-9.640817191e-07
-1.028337387e-06
-1.097103421e-06
-1.221949843e-06
-6.636925643e-07
3.307717528e-09
7.067930059e-09
7.190108843e-09
7.435305663e-09
7.488607557e-09
7.526274167e-09
7.551919911e-09
7.561991389e-09
7.5577759e-09
7.536360086e-09
7.499752419e-09
7.445404021e-09
7.375432369e-09
7.28693007e-09
7.181565672e-09
7.055753179e-09
6.910608676e-09
6.741979153e-09
6.550634633e-09
6.331923745e-09
6.086195587e-09
5.808126641e-09
5.49753487e-09
5.148583931e-09
4.761040764e-09
4.329086674e-09
3.852793037e-09
3.326399726e-09
2.74995025e-09
2.117395847e-09
1.428716605e-09
6.779483602e-10
-1.342701879e-10
-1.013164844e-09
-1.957142342e-09
-2.970841696e-09
-4.052029551e-09
-5.20481913e-09
-6.425807275e-09
-7.717524024e-09
-9.074112106e-09
-1.049545239e-08
-1.19726979e-08
-1.350307211e-08
-1.507496181e-08
-1.668313754e-08
-1.831323128e-08
-1.995745134e-08
-2.159862877e-08
-2.322659216e-08
-2.482175482e-08
-2.637208635e-08
-2.785610262e-08
-2.926054204e-08
-3.056299715e-08
-3.1750566e-08
-3.28020552e-08
-3.370716678e-08
-3.444761167e-08
-3.501643013e-08
-3.539822471e-08
-3.558945619e-08
-3.557878057e-08
-3.536872065e-08
-3.49555775e-08
-3.435114254e-08
-3.356088813e-08
-3.260524164e-08
-3.149685793e-08
-3.026300748e-08
-2.892339927e-08
-2.751391929e-08
-2.60640574e-08
-2.462012266e-08
-2.322110314e-08
-2.192137776e-08
-2.076652018e-08
-1.98172803e-08
-1.912659456e-08
-1.876440593e-08
-1.879455011e-08
-1.929862522e-08
-2.035200233e-08
-2.204674329e-08
-2.446778914e-08
-2.771578365e-08
-3.188398057e-08
-3.708072156e-08
-4.340682133e-08
-5.09770978e-08
-5.989807424e-08
-7.02882673e-08
-8.225635828e-08
-9.59203162e-08
-1.113864827e-07
-1.287675765e-07
-1.481625928e-07
-1.696729696e-07
-1.933830659e-07
-2.193748753e-07
-2.47711358e-07
-2.784526442e-07
-3.116439649e-07
-3.473307757e-07
-3.855440311e-07
-4.263059307e-07
-4.696107895e-07
-5.154318222e-07
-5.637156125e-07
-6.143981601e-07
-6.674020715e-07
-7.226462861e-07
-7.800452779e-07
-8.395105413e-07
-9.009507368e-07
-9.64217128e-07
-1.029718523e-06
-1.099889598e-06
-1.226837142e-06
-6.667402801e-07
3.302803321e-09
7.056413066e-09
7.175640976e-09
7.422289309e-09
7.476513514e-09
7.516645722e-09
7.54271028e-09
7.554505562e-09
7.54996804e-09
7.529649483e-09
7.492126082e-09
7.438304106e-09
7.366705405e-09
7.277947457e-09
7.170015077e-09
7.042982868e-09
6.894201777e-09
6.723275847e-09
6.527026321e-09
6.304496364e-09
6.051858984e-09
5.767572609e-09
5.447257732e-09
5.089137154e-09
4.688700698e-09
4.244233901e-09
3.751136885e-09
3.207512763e-09
2.60843473e-09
1.95183279e-09
1.232825096e-09
4.498211481e-10
-4.014594891e-10
-1.321902993e-09
-2.315408156e-09
-3.382528963e-09
-4.526845906e-09
-5.748048384e-09
-7.048180126e-09
-8.424528876e-09
-9.876329791e-09
-1.139783946e-08
-1.298558537e-08
-1.463128507e-08
-1.632917297e-08
-1.806836421e-08
-1.984021318e-08
-2.163038577e-08
-2.342667067e-08
-2.52111016e-08
-2.696833582e-08
-2.8677685e-08
-3.032186397e-08
-3.187876872e-08
-3.333060124e-08
-3.465540346e-08
-3.583646811e-08
-3.685340696e-08
-3.769166927e-08
-3.83332196e-08
-3.876659422e-08
-3.897775704e-08
-3.896100347e-08
-3.870973288e-08
-3.822734738e-08
-3.751693216e-08
-3.659156481e-08
-3.546316706e-08
-3.415324803e-08
-3.268214031e-08
-3.108074985e-08
-2.937975075e-08
-2.762091588e-08
-2.584501353e-08
-2.410235814e-08
-2.24404704e-08
-2.091568479e-08
-1.958213573e-08
-1.850445944e-08
-1.774682613e-08
-1.738472795e-08
-1.749285503e-08
-1.815603276e-08
-1.94573654e-08
-2.148979919e-08
-2.434532505e-08
-2.812654539e-08
-3.293560181e-08
-3.88844444e-08
-4.608314607e-08
-5.464932795e-08
-6.469681009e-08
-7.634492982e-08
-8.970789145e-08
-1.049035271e-07
-1.220426284e-07
-1.41236221e-07
-1.625843527e-07
-1.86181941e-07
-2.121084929e-07
-2.40435173e-07
-2.712186949e-07
-3.045108762e-07
-3.403536254e-07
-3.787831705e-07
-4.198178075e-07
-4.634554805e-07
-5.096655603e-07
-5.583981638e-07
-6.095885015e-07
-6.631657481e-07
-7.190539285e-07
-7.771784831e-07
-8.374671591e-07
-8.998387632e-07
-9.641927047e-07
-1.030870778e-06
-1.102501265e-06
-1.230929013e-06
-6.69380488e-07
3.299146608e-09
7.046088851e-09
7.163217344e-09
7.408580817e-09
7.463344515e-09
7.503469541e-09
7.530235973e-09
7.541689546e-09
7.537320237e-09
7.516060754e-09
7.478070087e-09
7.422533555e-09
7.349565619e-09
7.258029233e-09
7.147545354e-09
7.016391426e-09
6.863697181e-09
6.687136919e-09
6.485215229e-09
6.25490363e-09
5.993985545e-09
5.698804767e-09
5.366761467e-09
4.99400673e-09
4.577891197e-09
4.114389782e-09
3.600512486e-09
3.031716095e-09
2.404599258e-09
1.714464228e-09
9.582235877e-10
1.3177912e-10
-7.67325074e-10
-1.742856279e-09
-2.797192324e-09
-3.93416494e-09
-5.155768559e-09
-6.464676887e-09
-7.860697203e-09
-9.343578224e-09
-1.090988677e-08
-1.255637641e-08
-1.42770194e-08
-1.606638183e-08
-1.791614569e-08
-1.981813486e-08
-2.176044397e-08
-2.373064535e-08
-2.571214787e-08
-2.768801276e-08
-2.963763944e-08
-3.154096762e-08
-3.337510067e-08
-3.511858925e-08
-3.674779283e-08
-3.824114844e-08
-3.957526628e-08
-4.072925994e-08
-4.168082381e-08
-4.241107383e-08
-4.290102604e-08
-4.313708257e-08
-4.31075437e-08
-4.280792522e-08
-4.223661298e-08
-4.139950222e-08
-4.030496166e-08
-3.896862243e-08
-3.740867784e-08
-3.565144807e-08
-3.37267934e-08
-3.167330119e-08
-2.953246608e-08
-2.73527499e-08
-2.51832275e-08
-2.307834925e-08
-2.109305379e-08
-1.928903345e-08
-1.773034217e-08
-1.648894511e-08
-1.563889256e-08
-1.526065165e-08
-1.543525264e-08
-1.624967318e-08
-1.779268655e-08
-2.016117158e-08
-2.345578752e-08
-2.778571645e-08
-3.326264973e-08
-4.000412778e-08
-4.812747746e-08
-5.775368953e-08
-6.900249599e-08
-8.199648907e-08
-9.685599116e-08
-1.137016684e-07
-1.326479758e-07
-1.538040708e-07
-1.772669207e-07
-2.031227681e-07
-2.314430648e-07
-2.622893719e-07
-2.957128531e-07
-3.317588852e-07
-3.704620685e-07
-4.118424446e-07
-4.558953198e-07
-5.025909177e-07
-5.518777524e-07
-6.036936501e-07
-6.579698445e-07
-7.146358983e-07
-7.736242163e-07
-8.348672173e-07
-8.983029304e-07
-9.63799478e-07
-1.031782772e-06
-1.10462633e-06
-1.234711829e-06
-6.718786419e-07
3.295216229e-09
7.036041041e-09
7.150367761e-09
7.394178158e-09
7.447916732e-09
7.487648441e-09
7.513642485e-09
7.524546914e-09
7.518986288e-09
7.49660261e-09
7.456675237e-09
7.399109417e-09
7.323111406e-09
7.228250446e-09
7.113257325e-09
6.9772058e-09
6.818262624e-09
6.634874604e-09
6.424445156e-09
6.184590759e-09
5.911939033e-09
5.603507507e-09
5.255619667e-09
4.865202661e-09
4.428405544e-09
3.941801712e-09
3.400876919e-09
2.801492671e-09
2.138640038e-09
1.40815699e-09
6.05499238e-10
-2.728636176e-10
-1.231031888e-09
-2.272509332e-09
-3.401704998e-09
-4.622256932e-09
-5.938050951e-09
-7.351044996e-09
-8.86241222e-09
-1.04707572e-08
-1.217390151e-08
-1.396755853e-08
-1.584724364e-08
-1.780653702e-08
-1.983848798e-08
-2.193328762e-08
-2.407956202e-08
-2.626220592e-08
-2.846426302e-08
-3.066530007e-08
-3.284380018e-08
-3.497571308e-08
-3.703689463e-08
-3.900143282e-08
-4.08439169e-08
-4.253746116e-08
-4.405591548e-08
-4.537195124e-08
-4.645979997e-08
-4.729398456e-08
-4.785283152e-08
-4.811746655e-08
-4.807515815e-08
-4.771747244e-08
-4.704276286e-08
-4.605355977e-08
-4.475903372e-08
-4.317271353e-08
-4.131572347e-08
-3.921481098e-08
-3.690533377e-08
-3.442810362e-08
-3.183090384e-08
-2.916423279e-08
-2.648292906e-08
-2.384324118e-08
-2.130625349e-08
-1.893615561e-08
-1.680345477e-08
-1.498187113e-08
-1.35498837e-08
-1.258701582e-08
-1.217627689e-08
-1.240258604e-08
-1.33572068e-08
-1.513691965e-08
-1.784721657e-08
-2.159910505e-08
-2.65099108e-08
-3.269904571e-08
-4.028928192e-08
-4.940412095e-08
-6.017029407e-08
-7.271545145e-08
-8.716934746e-08
-1.036594414e-07
-1.223096383e-07
-1.432346627e-07
-1.665385923e-07
-1.923108976e-07
-2.206278659e-07
-2.515526361e-07
-2.851394569e-07
-3.214336182e-07
-3.604705913e-07
-4.02268406e-07
-4.468215493e-07
-4.94097786e-07
-5.440453714e-07
-5.966017649e-07
-6.517002355e-07
-7.092729726e-07
-7.69254752e-07
-8.315848751e-07
-8.961887553e-07
-9.629689783e-07
-1.032229925e-06
-1.106630588e-06
-1.238202897e-06
-6.743617274e-07
3.291001752e-09
7.024894033e-09
7.13653557e-09
7.377964418e-09
7.430276157e-09
7.468570685e-09
7.493319156e-09
7.502635605e-09
7.495432857e-09
7.470844923e-09
7.42844741e-09
7.367626192e-09
7.287865734e-09
7.188239821e-09
7.067807448e-09
6.925118285e-09
6.758675662e-09
6.566299579e-09
6.345601916e-09
6.093493445e-09
5.806773271e-09
5.481826513e-09
5.115200174e-09
4.703144808e-09
4.241909259e-09
3.72711406e-09
3.154131176e-09
2.517722922e-09
1.812797444e-09
1.034202128e-09
1.773329568e-10
-7.624523662e-10
-1.789612337e-09
-2.909112698e-09
-4.125897233e-09
-5.445012573e-09
-6.870453581e-09
-8.405104785e-09
-1.004979977e-08
-1.180393211e-08
-1.366510804e-08
-1.563012666e-08
-1.769444016e-08
-1.985255427e-08
-2.209682346e-08
-2.441743736e-08
-2.680124593e-08
-2.923220138e-08
-3.169080988e-08
-3.415516575e-08
-3.660072055e-08
-3.900142836e-08
-4.13293874e-08
-4.355580447e-08
-4.56504071e-08
-4.758222274e-08
-4.931899914e-08
-5.082837241e-08
-5.207798871e-08
-5.303761182e-08
-5.367988957e-08
-5.398255855e-08
-5.39285454e-08
-5.350718549e-08
-5.271334479e-08
-5.154829364e-08
-5.001903851e-08
-4.813993515e-08
-4.593261106e-08
-4.342763251e-08
-4.066352128e-08
-3.768676545e-08
-3.454916865e-08
-3.130705884e-08
-2.801934184e-08
-2.474847573e-08
-2.156034075e-08
-1.852574687e-08
-1.571939678e-08
-1.321955882e-08
-1.110576337e-08
-9.458811212e-09
-8.360581402e-09
-7.896938576e-09
-8.159492613e-09
-9.248331812e-09
-1.127148804e-08
-1.434447746e-08
-1.858734357e-08
-2.412389498e-08
-3.108022904e-08
-3.958607305e-08
-4.977463044e-08
-6.178330111e-08
-7.575116614e-08
-9.18165393e-08
-1.101120435e-07
-1.307610638e-07
-1.538737766e-07
-1.795456991e-07
-2.078570725e-07
-2.388749543e-07
-2.726551752e-07
-3.092439737e-07
-3.486753123e-07
-3.909652555e-07
-4.36104946e-07
-4.840596232e-07
-5.347750894e-07
-5.881879206e-07
-6.442311106e-07
-7.028372766e-07
-7.639432684e-07
-8.274838198e-07
-8.933976521e-07
-9.615361505e-07
-1.032314641e-06
-1.108098703e-06
-1.241638482e-06
-6.768771643e-07
3.286131231e-09
7.012371168e-09
7.120923403e-09
7.359663995e-09
7.409873168e-09
7.446249199e-09
7.468953782e-09
7.476149125e-09
7.466454237e-09
7.439052786e-09
7.393221754e-09
7.328380028e-09
7.24373563e-09
7.138392761e-09
7.011153135e-09
6.860648445e-09
6.68500225e-09
6.482031172e-09
6.248883698e-09
5.982398622e-09
5.678927111e-09
5.334833155e-09
4.946224806e-09
4.509198185e-09
4.019364534e-09
3.471952826e-09
2.861513127e-09
2.182401467e-09
1.428762022e-09
5.950734474e-10
-3.241370493e-10
-1.334167023e-09
-2.440715776e-09
-3.649685915e-09
-4.967276697e-09
-6.399152356e-09
-7.950092125e-09
-9.623116804e-09
-1.141965706e-08
-1.333937807e-08
-1.538087429e-08
-1.75415262e-08
-1.981773408e-08
-2.220404127e-08
-2.469275435e-08
-2.727290859e-08
-2.993023364e-08
-3.264674343e-08
-3.540134241e-08
-3.816978474e-08
-4.092538551e-08
-4.363889546e-08
-4.627910084e-08
-4.881257547e-08
-5.120418515e-08
-5.341683396e-08
-5.54121603e-08
-5.715083819e-08
-5.859420185e-08
-5.970546334e-08
-6.045187296e-08
-6.080568828e-08
-6.074550585e-08
-6.025611394e-08
-5.932912718e-08
-5.796270995e-08
-5.616277244e-08
-5.394341573e-08
-5.132853344e-08
-4.835185283e-08
-4.505704628e-08
-4.149580225e-08
-3.772617777e-08
-3.381038141e-08
-2.981428944e-08
-2.580723116e-08
-2.186282797e-08
-1.805856092e-08
-1.447496397e-08
-1.119345087e-08
-8.295120609e-09
-5.860294992e-09
-3.970665671e-09
-2.711999226e-09
-2.177714768e-09
-2.470155217e-09
-3.700761104e-09
-5.987756577e-09
-9.454569299e-09
-1.422818678e-08
-2.044008703e-08
-2.822696479e-08
-3.773212174e-08
-4.910430469e-08
-6.249536176e-08
-7.805537964e-08
-9.592804828e-08
-1.162459229e-07
-1.391274578e-07
-1.646749907e-07
-1.929747006e-07
-2.240976579e-07
-2.581018532e-07
-2.950329918e-07
-3.349225969e-07
-3.777825474e-07
-4.235994141e-07
-4.72333816e-07
-5.239278626e-07
-5.783151692e-07
-6.354267653e-07
-6.951944774e-07
-7.575529187e-07
-8.224412476e-07
-8.897791122e-07
-9.594625143e-07
-1.03176377e-06
-1.10944943e-06
-1.244824722e-06
-6.794422348e-07
3.280525517e-09
6.998007062e-09
7.10324559e-09
7.338816764e-09
7.386520746e-09
7.420390365e-09
7.440537743e-09
7.444929059e-09
7.432138721e-09
7.401148261e-09
7.351151876e-09
7.281374098e-09
7.190940948e-09
7.078796617e-09
6.943668593e-09
6.783976813e-09
6.597730543e-09
6.382390743e-09
6.13493931e-09
5.851835991e-09
5.529308579e-09
5.163358439e-09
4.749890109e-09
4.284478641e-09
3.762261102e-09
3.17772781e-09
2.524898063e-09
1.797405072e-09
9.889270151e-10
9.316644659e-11
-8.960852805e-10
-1.985285872e-09
-3.181263286e-09
-4.491234585e-09
-5.922351157e-09
-7.481143784e-09
-9.172807646e-09
-1.10009603e-08
-1.296752336e-08
-1.507318599e-08
-1.73175372e-08
-1.969919663e-08
-2.221522406e-08
-2.486046794e-08
-2.762661396e-08
-3.050176241e-08
-3.347010958e-08
-3.651221135e-08
-3.96051225e-08
-4.272271008e-08
-4.583560893e-08
-4.891137013e-08
-5.191439362e-08
-5.480615712e-08
-5.754529008e-08
-6.008795735e-08
-6.238829621e-08
-6.439951125e-08
-6.607525642e-08
-6.737161024e-08
-6.824875168e-08
-6.867254754e-08
-6.861527112e-08
-6.805630584e-08
-6.698239081e-08
-6.538851114e-08
-6.327875812e-08
-6.0667786e-08
-5.758177948e-08
-5.405890384e-08
-5.014842911e-08
-4.590879537e-08
-4.140530836e-08
-3.670824483e-08
-3.189219503e-08
-2.703595477e-08
-2.222241226e-08
-1.753727751e-08
-1.306692236e-08
-8.895992361e-09
-5.106194738e-09
-1.777242425e-09
1.010146155e-09
3.17005738e-09
4.608113155e-09
5.219949508e-09
4.892261939e-09
3.504673232e-09
9.315669052e-10
-2.958074386e-09
-8.302021538e-09
-1.524692115e-08
-2.39487011e-08
-3.457092919e-08
-4.728026684e-08
-6.224098369e-08
-7.960929002e-08
-9.952910321e-08
-1.221290652e-07
-1.475207289e-07
-1.757977777e-07
-2.070362471e-07
-2.412957911e-07
-2.786203468e-07
-3.190367863e-07
-3.625505969e-07
-4.091413065e-07
-4.58762798e-07
-5.11351117e-07
-5.66834868e-07
-6.251413279e-07
-6.861993398e-07
-7.499440644e-07
-8.163085746e-07
-8.852311785e-07
-9.565512513e-07
-1.030692219e-06
-1.110086045e-06
-1.24792022e-06
-6.820325804e-07
3.274041844e-09
6.981622858e-09
7.083173641e-09
7.31518788e-09
7.359955818e-09
7.390884951e-09
7.407924767e-09
7.408970858e-09
7.392446401e-09
7.357201547e-09
7.302278715e-09
7.226761218e-09
7.129622806e-09
7.009706467e-09
6.865590493e-09
6.695512487e-09
6.497218699e-09
6.26794722e-09
6.004329803e-09
5.702623489e-09
5.358767963e-09
4.968520514e-09
4.52736953e-09
4.030396982e-09
3.472060406e-09
2.846229366e-09
2.146199786e-09
1.36507382e-09
4.958030761e-10
-4.686311994e-10
-1.535519054e-09
-2.712532838e-09
-4.00788452e-09
-5.430010858e-09
-6.987110262e-09
-8.68640746e-09
-1.053373672e-08
-1.253335258e-08
-1.468824015e-08
-1.700034329e-08
-1.947079675e-08
-2.209945332e-08
-2.48841935e-08
-2.781987669e-08
-3.08976595e-08
-3.410456082e-08
-3.742361198e-08
-4.083401001e-08
-4.431133297e-08
-4.7827379e-08
-5.135000641e-08
-5.484285547e-08
-5.826539125e-08
-6.157298038e-08
-6.471725912e-08
-6.764652382e-08
-7.030656563e-08
-7.264183763e-08
-7.459726398e-08
-7.61201329e-08
-7.716209759e-08
-7.768055846e-08
-7.763990574e-08
-7.701226959e-08
-7.577860396e-08
-7.3929786e-08
-7.146816057e-08
-6.840904071e-08
-6.478174699e-08
-6.062975983e-08
-5.600922632e-08
-5.098679571e-08
-4.563685343e-08
-4.004004417e-08
-3.428225828e-08
-2.845429631e-08
-2.265038087e-08
-1.696567715e-08
-1.149290731e-08
-6.319717966e-09
-1.528080924e-09
2.803586217e-09
6.596026749e-09
9.764338202e-09
1.221433353e-08
1.384154022e-08
1.453230742e-08
1.416574683e-08
1.261435666e-08
9.742699936e-09
5.404490351e-09
-5.596089286e-10
-8.321816834e-09
-1.806348592e-08
-2.99690557e-08
-4.421913801e-08
-6.098499515e-08
-8.04246629e-08
-1.026802869e-07
-1.278757252e-07
-1.561143338e-07
-1.874779063e-07
-2.220268374e-07
-2.598012303e-07
-3.008204404e-07
-3.450804723e-07
-3.925506399e-07
-4.431749296e-07
-4.968803158e-07
-5.535877612e-07
-6.132185864e-07
-6.756987257e-07
-7.40960607e-07
-8.089452404e-07
-8.79573296e-07
-9.527474542e-07
-1.028730116e-06
-1.110472565e-06
-1.250591533e-06
-6.846120561e-07
3.266580692e-09
6.962932274e-09
7.060481278e-09
7.28854561e-09
7.330009051e-09
7.3575518e-09
7.371024829e-09
7.368206198e-09
7.347378814e-09
7.30725387e-09
7.246698052e-09
7.164659354e-09
7.059999494e-09
6.931378817e-09
6.777248418e-09
6.595610691e-09
6.383969337e-09
6.13922493e-09
5.857775586e-09
5.535577237e-09
5.168344796e-09
4.751472663e-09
4.280002524e-09
3.748413292e-09
3.150486564e-09
2.47935964e-09
1.727719491e-09
8.879495594e-10
-4.766613392e-11
-1.08717125e-09
-2.239010862e-09
-3.512289974e-09
-4.916604487e-09
-6.461663265e-09
-8.156603927e-09
-1.000945873e-08
-1.202683404e-08
-1.421405475e-08
-1.657550592e-08
-1.911491628e-08
-2.183511197e-08
-2.473735955e-08
-2.78202162e-08
-3.107859499e-08
-3.450311636e-08
-3.808010428e-08
-4.179174761e-08
-4.561633378e-08
-4.952806297e-08
-5.349664119e-08
-5.74867074e-08
-6.145750197e-08
-6.53628074e-08
-6.91511919e-08
-7.276638433e-08
-7.614790293e-08
-7.923195947e-08
-8.195294713e-08
-8.424529453e-08
-8.604565663e-08
-8.729485618e-08
-8.79397035e-08
-8.793444358e-08
-8.724228687e-08
-8.583701506e-08
-8.370473369e-08
-8.084588959e-08
-7.727680829e-08
-7.303090291e-08
-6.815800667e-08
-6.272281827e-08
-5.680180375e-08
-5.048094355e-08
-4.385380284e-08
-3.702073419e-08
-3.008725054e-08
-2.316127999e-08
-1.634891858e-08
-9.750138598e-09
-3.455939318e-09
2.451576821e-09
7.895886071e-09
1.28006629e-08
1.708415049e-08
2.065516181e-08
2.341180271e-08
2.524242225e-08
2.602700772e-08
2.563668265e-08
2.393064469e-08
2.075196486e-08
1.592525994e-08
9.258391476e-09
5.484851134e-10
-1.040974527e-08
-2.381633514e-08
-3.986096581e-08
-5.871998768e-08
-8.055369636e-08
-1.055024133e-07
-1.336819307e-07
-1.651802516e-07
-2.000571519e-07
-2.383457713e-07
-2.800541685e-07
-3.251645155e-07
-3.736316249e-07
-4.253852272e-07
-4.803393746e-07
-5.384040056e-07
-5.994927711e-07
-6.63527098e-07
-7.304418809e-07
-8.001754645e-07
-8.726783479e-07
-9.477956478e-07
-1.025985525e-06
-1.109819478e-06
-1.252950622e-06
-6.871037464e-07
3.25803854e-09
6.941797675e-09
7.034991198e-09
7.258706946e-09
7.29652231e-09
7.320293392e-09
7.329777636e-09
7.322613879e-09
7.296951156e-09
7.251339663e-09
7.184501628e-09
7.095242916e-09
6.982249451e-09
6.844102684e-09
6.678994109e-09
6.484727481e-09
6.258476015e-09
5.99688196e-09
5.696028316e-09
5.351646925e-09
4.959116666e-09
4.513475343e-09
4.009226649e-09
3.440176289e-09
2.799389969e-09
2.079313569e-09
1.271928362e-09
3.689319458e-10
-6.383161133e-10
-1.758929772e-09
-3.002767188e-09
-4.380377732e-09
-5.902802651e-09
-7.580935231e-09
-9.424930098e-09
-1.144371407e-08
-1.364501111e-08
-1.60356276e-08
-1.862187953e-08
-2.140955144e-08
-2.440341169e-08
-2.760604694e-08
-3.101673342e-08
-3.463048731e-08
-3.843780416e-08
-4.242476656e-08
-4.657334134e-08
-5.086125727e-08
-5.526150935e-08
-5.974150513e-08
-6.426233613e-08
-6.877834057e-08
-7.323711777e-08
-7.757975298e-08
-8.174128851e-08
-8.565131483e-08
-8.923509591e-08
-9.241511322e-08
-9.511322953e-08
-9.725290785e-08
-9.876154215e-08
-9.957258652e-08
-9.962773178e-08
-9.887924648e-08
-9.729225639e-08
-9.48474195e-08
-9.15430101e-08
-8.739711793e-08
-8.244799122e-08
-7.675346366e-08
-7.03881358e-08
-6.344064039e-08
-5.601094445e-08
-4.820888306e-08
-4.015251983e-08
-3.196535261e-08
-2.377173691e-08
-1.569102e-08
-7.83225915e-09
-2.910565889e-10
6.849875128e-09
1.351686612e-08
1.96391666e-08
2.514229799e-08
2.994273419e-08
3.394502462e-08
3.704209241e-08
3.911606733e-08
4.003714399e-08
3.965844067e-08
3.781047537e-08
3.42984816e-08
2.89062541e-08
2.140502354e-08
1.156448435e-08
-8.388613829e-10
-1.601777597e-08
-3.417284043e-08
-5.548905222e-08
-8.012880487e-08
-1.082235699e-07
-1.398678769e-07
-1.751184012e-07
-2.139971504e-07
-2.564955064e-07
-3.025761345e-07
-3.521733015e-07
-4.051968556e-07
-4.615426188e-07
-5.211058416e-07
-5.837899792e-07
-6.495130647e-07
-7.182098132e-07
-7.898339782e-07
-8.643238962e-07
-9.416111611e-07
-1.021975897e-06
-1.108639125e-06
-1.254524303e-06
-6.894193712e-07
3.248311824e-09
6.917939277e-09
7.006498496e-09
7.225507713e-09
7.259346174e-09
7.278998865e-09
7.284103405e-09
7.272154804e-09
7.241167904e-09
7.189519725e-09
7.1158115e-09
7.018655708e-09
6.896651833e-09
6.748163964e-09
6.571210319e-09
6.363286419e-09
6.121309741e-09
5.841587767e-09
5.519941426e-09
5.151820576e-09
4.732281644e-09
4.255902858e-09
3.716584308e-09
3.107449709e-09
2.420850998e-09
1.648480166e-09
7.816300085e-10
-1.888512025e-10
-1.272599418e-09
-2.480051211e-09
-3.822489941e-09
-5.31202887e-09
-6.961050029e-09
-8.781678782e-09
-1.078509686e-08
-1.298144005e-08
-1.537993446e-08
-1.798941033e-08
-2.081847759e-08
-2.387529887e-08
-2.716656054e-08
-3.069624878e-08
-3.446438608e-08
-3.846648988e-08
-4.26934641e-08
-4.713192568e-08
-5.176419129e-08
-5.656786032e-08
-6.151478564e-08
-6.656998869e-08
-7.169075345e-08
-7.682625731e-08
-8.191751047e-08
-8.689759631e-08
-9.169193333e-08
-9.62189613e-08
-1.003911909e-07
-1.041170515e-07
-1.073031002e-07
-1.098566305e-07
-1.116883573e-07
-1.127152267e-07
-1.128636354e-07
-1.120725242e-07
-1.102969934e-07
-1.075111602e-07
-1.037113416e-07
-9.891754841e-08
-9.317414393e-08
-8.654789984e-08
-7.912524932e-08
-7.100906943e-08
-6.23164346e-08
-5.317694134e-08
-4.37301561e-08
-3.412137253e-08
-2.449507018e-08
-1.49876939e-08
-5.720944666e-09
3.202011238e-09
1.169665289e-08
1.969362956e-08
2.713246239e-08
3.395330649e-08
4.008763269e-08
4.545168013e-08
4.99449807e-08
5.345282166e-08
5.584498588e-08
5.696918537e-08
5.664216654e-08
5.464685322e-08
5.073772692e-08
4.465413934e-08
3.613485227e-08
2.492764483e-08
1.079060694e-08
-6.50893845e-09
-2.718982283e-08
-5.144430113e-08
-7.942358244e-08
-1.112286399e-07
-1.46909368e-07
-1.864706325e-07
-2.298797823e-07
-2.770719621e-07
-3.279529828e-07
-3.824050858e-07
-4.402996485e-07
-5.015123732e-07
-5.659346442e-07
-6.334796097e-07
-7.040888314e-07
-7.777197846e-07
-8.543554275e-07
-9.33872276e-07
-1.016797189e-06
-1.105929586e-06
-1.255370591e-06
-6.914197241e-07
3.237295264e-09
6.891246935e-09
6.974856483e-09
7.18880397e-09
7.218360632e-09
7.233588577e-09
7.233947412e-09
7.21681591e-09
7.180058113e-09
7.121883136e-09
7.040738714e-09
6.935109066e-09
6.803440518e-09
6.643907574e-09
6.454297158e-09
6.231819562e-09
5.973076827e-09
5.674093037e-09
5.330419387e-09
4.937185824e-09
4.489092684e-09
3.980192522e-09
3.403758289e-09
2.752193338e-09
2.017108479e-09
1.189502422e-09
2.598366939e-10
-7.81951483e-10
-1.946712141e-09
-3.246236003e-09
-4.693400632e-09
-6.301753496e-09
-8.085097647e-09
-1.00566919e-08
-1.222901921e-08
-1.46137122e-08
-1.72220511e-08
-2.006529994e-08
-2.315478849e-08
-2.65011096e-08
-3.011297422e-08
-3.399575097e-08
-3.815058646e-08
-4.257402388e-08
-4.725825013e-08
-5.219118202e-08
-5.735619082e-08
-6.27310684e-08
-6.828671701e-08
-7.398576473e-08
-7.978174413e-08
-8.561859055e-08
-9.143056784e-08
-9.714216374e-08
-1.026682585e-07
-1.079145493e-07
-1.127787914e-07
-1.17152635e-07
-1.209241771e-07
-1.239809361e-07
-1.262131387e-07
-1.275177609e-07
-1.278025629e-07
-1.269909147e-07
-1.250257596e-07
-1.218739875e-07
-1.175292331e-07
-1.120139438e-07
-1.053788659e-07
-9.770086414e-08
-8.907971859e-08
-7.963507797e-08
-6.950457857e-08
-5.884146357e-08
-4.781124258e-08
-3.658563036e-08
-2.53348765e-08
-1.42186091e-08
-3.377594889e-09
7.072114667e-09
1.704171004e-08
2.646831784e-08
3.530977949e-08
4.353298101e-08
5.109644904e-08
5.79343584e-08