/*--------------------------------*- C++ -*----------------------------------*\
  =========                 |
  \\      /  F ield         | OpenFOAM: The Open Source CFD Toolbox
   \\    /   O peration     | Website:  https://openfoam.org
    \\  /    A nd           | Version:  6
     \\/     M anipulation  |
\*---------------------------------------------------------------------------*/
FoamFile
{
    version     2.0;
    format      ascii;
    class       volScalarField;
    location    "0.0043";
    object      ViscousDissipation;
}
// * * * * * * * * * * * * * * * * * * * * * * * * * * * * * * * * * * * * * //

dimensions      [1 -1 -3 0 0 0 0];

internalField   nonuniform List<scalar> 
600
(
5.95039245e-22
2.21487903e-21
4.035061225e-21
5.25833497e-21
5.102267183e-21
3.407684507e-21
1.71059946e-21
4.551605286e-21
2.091632799e-20
6.517070527e-20
1.56215806e-19
3.130536545e-19
5.457470305e-19
8.44229731e-19
1.173499741e-18
1.486167404e-18
1.75064895e-18
1.963021306e-18
2.093178334e-18
1.981533471e-18
1.426279209e-18
6.191398073e-19
1.384769803e-19
5.306937333e-19
2.231232386e-18
5.272715271e-18
8.105412223e-18
7.798708294e-18
2.546960181e-18
1.053936392e-19
2.983502506e-21
4.627342785e-21
6.432562839e-21
7.654080444e-21
7.574431732e-21
6.083530437e-21
4.746284824e-21
8.106883523e-21
2.514831302e-20
7.034181782e-20
1.629797871e-19
3.228294521e-19
5.603067339e-19
8.628388366e-19
1.186668558e-18
1.471713879e-18
1.689223312e-18
1.886829156e-18
2.121946492e-18
2.227969798e-18
1.83567937e-18
1.107736671e-18
7.078469101e-19
1.156838668e-18
2.954578846e-18
6.34299648e-18
9.637465951e-18
9.573346931e-18
4.247999856e-18
7.248231214e-19
7.921233372e-21
9.707011201e-21
1.16624828e-20
1.311870674e-20
1.342581333e-20
1.248922135e-20
1.181139516e-20
1.575411836e-20
3.303613604e-20
7.79868572e-20
1.703892523e-19
3.315700165e-19
5.73678137e-19
8.812033106e-19
1.193891043e-18
1.419456953e-18
1.516531957e-18
1.629602313e-18
2.041195713e-18
2.610130489e-18
2.502076965e-18
1.75530716e-18
1.320720665e-18
1.720796639e-18
3.671337677e-18
7.822212912e-18
1.214691441e-17
1.280023795e-17
8.173303228e-18
2.174908576e-18
1.720552696e-20
1.929514088e-20
2.164523834e-20
2.369405182e-20
2.487125646e-20
2.508769413e-20
2.571821128e-20
3.079096396e-20
4.848558494e-20
9.267835274e-20
1.835841822e-19
3.450497264e-19
5.935681028e-19
9.133880764e-19
1.22159441e-18
1.36292568e-18
1.232135496e-18
1.116572403e-18
1.816953706e-18
3.2569225e-18
3.516219234e-18
2.293174111e-18
1.463256779e-18
1.681731047e-18
4.286863043e-18
1.009899059e-17
1.619158046e-17
1.814100866e-17
1.609589928e-17
5.119616296e-18
3.339224397e-20
3.605035806e-20
3.922133719e-20
4.24646434e-20
4.526811644e-20
4.749316377e-20
5.027464226e-20
5.709262665e-20
7.523870677e-20
1.176532613e-19
2.047230355e-19
3.640335101e-19
6.217767925e-19
9.726000442e-19
1.31691349e-18
1.406718331e-18
9.723630257e-19
4.641393624e-19
1.950190205e-18
4.736852763e-18
5.11201099e-18
2.362421474e-18
6.996239088e-19
1.062623758e-18
5.989779808e-18
1.435827086e-17
2.236349901e-17
2.555807876e-17
3.034246732e-17
1.080713749e-17
6.001084021e-20
6.36077925e-20
6.821223437e-20
7.348897644e-20
7.890595533e-20
8.415273294e-20
8.993693244e-20
9.892772953e-20
1.17126712e-19
1.558818978e-19
2.349325064e-19
3.862944488e-19
6.541003985e-19
1.06960757e-18
1.559025758e-18
1.814121879e-18
1.392768887e-18
7.300996706e-19
5.490571955e-18
8.587265088e-18
8.315864907e-18
2.544390401e-18
5.68412409e-19
3.83033826e-18
1.701472124e-17
2.276458249e-17
2.913994063e-17
3.069269695e-17
5.176295946e-17
2.133251292e-17
1.015168982e-19
1.065110557e-19
1.133159419e-19
1.216319193e-19
1.30735498e-19
1.398877104e-19
1.490341092e-19
1.596655329e-19
1.761055165e-19
2.07468817e-19
2.713861136e-19
4.025621167e-19
6.6986032e-19
1.189949826e-18
2.045270172e-18
3.071925434e-18
4.49822667e-18
5.546644311e-18
2.949984346e-17
1.410120833e-17
4.314231219e-18
1.410294805e-18
3.264537149e-18
1.915727999e-17
1.577833071e-17
2.4758712e-17
3.136075523e-17
2.096551706e-17
6.837144041e-17
3.947531007e-17
1.630440261e-19
1.699503427e-19
1.798289876e-19
1.922702027e-19
2.060347817e-19
2.194420392e-19
2.309802501e-19
2.402311726e-19
2.493500402e-19
2.651292046e-19
3.025349896e-19
3.946222043e-19
6.260197744e-19
1.238001842e-18
2.801883517e-18
6.210246623e-18
1.390666766e-17
2.321513887e-17
6.751847937e-19
1.079550508e-17
7.212001818e-18
2.017100025e-18
2.068145444e-18
1.697230202e-18
6.573176577e-18
2.734088988e-17
6.696487711e-17
6.082531741e-17
3.324392721e-17
6.744882603e-17
2.499075848e-19
2.592606411e-19
2.731857886e-19
2.909555103e-19
3.103027979e-19
3.276856397e-19
3.387304262e-19
3.393694254e-19
3.282322046e-19
3.105445426e-19
3.041151466e-19
3.50842496e-19
5.48616321e-19
1.183715466e-18
3.739129602e-18
2.012565846e-17
5.704888534e-18
4.714658437e-18
1.362583234e-17
1.694605269e-16
1.65045749e-16
4.597349713e-17
6.345743597e-17
7.591576337e-17
1.83715874e-16
8.994653782e-17
4.235053487e-17
1.455124118e-16
8.993857522e-17
9.657336283e-17
3.667963631e-19
3.79073863e-19
3.982059937e-19
4.230039488e-19
4.49562869e-19
4.711827401e-19
4.783511856e-19
4.599569065e-19
4.074464051e-19
3.248532184e-19
2.506660337e-19
3.086142452e-19
8.612090996e-19
2.900553754e-18
7.985706382e-18
5.733758881e-18
7.287230636e-18
8.640072911e-17
1.878303465e-16
1.876874522e-16
5.494128407e-17
2.972699966e-17
1.351922764e-17
4.936053876e-17
9.745298013e-17
1.270059498e-16
8.228394796e-18
2.208389909e-16
1.006680874e-16
3.271011119e-20
5.165542405e-19
5.3186368e-19
5.576710001e-19
5.925271972e-19
6.304880825e-19
6.605568125e-19
6.658270452e-19
6.241930553e-19
5.146580489e-19
3.405443931e-19
2.033249708e-19
5.203842073e-19
2.569575588e-18
9.095503335e-18
2.346354278e-17
3.878533281e-18
8.949593242e-17
1.816908176e-16
4.060738698e-17
1.303944902e-17
4.388686898e-18
1.305525829e-18
1.533776998e-18
5.682555811e-18
1.660179623e-17
3.16492295e-17
3.649441165e-17
3.417731091e-16
2.865959917e-16
1.940183473e-18
6.98430269e-19
7.154128917e-19
7.495587231e-19
7.998775642e-19
8.584351625e-19
9.099572116e-19
9.304034172e-19
8.873085436e-19
7.487165787e-19
5.23780118e-19
4.269311591e-19
1.543514073e-18
7.88101338e-18
3.79829596e-17
7.808641998e-19
1.19924847e-17
1.92232214e-16
4.344055208e-17
2.297318614e-18
1.361545533e-18
5.397706651e-19
1.902270463e-20
1.61357305e-19
8.444098723e-19
3.489650741e-18
8.075416131e-18
1.489083474e-17
1.495801321e-16
1.36119454e-16
2.009778896e-19
9.055075834e-19
9.186249613e-19
9.625588082e-19
1.036933164e-18
1.131500452e-18
1.22798999e-18
1.299195734e-18
1.311046721e-18
1.237424648e-18
1.108753818e-18
1.14836189e-18
2.119506158e-18
5.659258125e-18
1.574731129e-17
1.210892996e-17
1.569718408e-16
1.841307273e-16
1.31617297e-17
1.475328447e-18
6.495677346e-19
1.824701016e-19
2.445907245e-20
2.246532612e-20
1.988674326e-19
1.088233921e-18
2.623321248e-18
3.652521938e-18
2.828124401e-18
6.184953924e-17
5.590866026e-17
1.118884707e-18
1.11573793e-18
1.171583083e-18
1.282761921e-18
1.433478526e-18
1.603120754e-18
1.763490262e-18
1.879933507e-18
1.926439987e-18
1.924924807e-18
2.003498177e-18
2.37611474e-18
3.531705004e-18
4.31181726e-18
7.903084762e-18
1.590928123e-16
4.610146518e-17
3.137344146e-18
7.120371578e-19
4.246760147e-19
1.745027365e-19
4.305473198e-20
1.258497765e-20
1.410595992e-19
6.398233504e-19
1.360664047e-18
1.599160727e-18
9.298874257e-19
1.665792809e-19
7.216771054e-18
1.288620753e-18
1.263166306e-18
1.339793288e-18
1.506520933e-18
1.735177693e-18
2.004068247e-18
2.282350939e-18
2.519813899e-18
2.641018849e-18
2.543148917e-18
2.104546125e-18
1.388366411e-18
2.480345839e-18
1.346934191e-18
1.870641107e-18
8.568175771e-17
3.146280311e-17
9.818656267e-19
3.15977664e-19
4.52327577e-19
3.205551556e-19
1.890738062e-19
1.674263106e-19
3.280616568e-19
7.346830952e-19
1.19175933e-18
1.247015164e-18
7.962128216e-19
3.60301414e-19
5.43427517e-19
1.769497822e-18
1.366809625e-18
1.448101754e-18
1.682112431e-18
2.00464759e-18
2.395440337e-18
2.824530889e-18
3.224315007e-18
3.456559713e-18
3.272019329e-18
2.344671467e-18
9.348741978e-19
3.332949187e-18
1.499379872e-17
1.536845514e-18
1.026643829e-16
4.35482594e-17
4.483092618e-18
1.405738962e-18
1.019119981e-18
7.951491715e-19
6.371494604e-19
6.318020313e-19
8.373025998e-19
1.232531865e-18
1.579170994e-18
1.509362196e-18
1.027844209e-18
4.827361515e-19
3.055033023e-19
7.751325059e-19
1.126070464e-18
1.429324342e-18
1.773482944e-18
2.203896818e-18
2.736753551e-18
3.362891113e-18
4.029212841e-18
4.606999733e-18
4.869657939e-18
4.614363647e-18
4.419567356e-18
9.42451045e-18
1.244740521e-17
6.1655878e-18
1.640067892e-16
5.228403918e-17
5.489495635e-18
2.656061317e-18
2.352866255e-18
1.990659861e-18
1.72249238e-18
1.696218284e-18
1.965067422e-18
2.439609473e-18
2.782764071e-18
2.520522081e-18
1.884642417e-18
1.953961459e-18
9.910207981e-18
6.634357444e-19
9.938024453e-19
1.347825989e-18
1.764097423e-18
2.29301415e-18
2.973488962e-18
3.828657903e-18
4.852098215e-18
5.991726258e-18
7.159185359e-18
8.345796794e-18
9.959332786e-18
1.327806762e-17
1.107597037e-17
1.153802712e-17
1.334508714e-16
1.382405004e-16
3.455960479e-18
3.165830234e-18
5.296919936e-18
4.749559169e-18
4.076892792e-18
3.869205952e-18
4.324265063e-18
5.284808838e-18
6.098724581e-18
5.214630587e-18
2.803002368e-18
5.634119445e-17
7.696424214e-17
5.063447788e-19
8.20907102e-19
1.188038712e-18
1.645421715e-18
2.248283924e-18
3.05633306e-18
4.126650748e-18
5.50090536e-18
7.186970099e-18
9.141836122e-18
1.125768265e-17
1.330029667e-17
1.433361025e-17
1.614362055e-17
2.963252102e-17
3.234757816e-17
2.194684615e-16
7.594053744e-17
2.260136139e-17
1.810710378e-17
1.182204761e-17
8.880439007e-18
7.665279917e-18
8.827888141e-18
1.215808249e-17
1.770657902e-17
1.755911156e-17
8.34551225e-17
6.83198497e-17
1.655918597e-19
3.878345196e-19
6.491491935e-19
9.886617611e-19
1.445963454e-18
2.082058102e-18
2.973216764e-18
4.204036817e-18
5.848782986e-18
7.926961525e-18
1.030067558e-17
1.243063323e-17
1.286328003e-17
8.829572464e-18
1.980171026e-18
3.94332799e-17
3.276152174e-17
1.20823716e-16
2.659533667e-16
9.839569195e-17
8.244103316e-17
3.00185676e-17
1.764320684e-17
1.190038348e-17
1.56417746e-17
2.77579789e-17
8.986399774e-17
2.067169158e-16
5.563406155e-16
2.133259355e-16
1.686080287e-18
)
;

boundaryField
{
    lowerWall
    {
        type            calculated;
        value           nonuniform 0();
    }
    atmosphere
    {
        type            calculated;
        value           nonuniform List<scalar> 
20
(
4.456957907e-22
2.839514958e-21
7.789468461e-21
1.709083958e-20
3.329543092e-20
5.992772714e-20
1.01440196e-19
1.629680222e-19
2.498424707e-19
3.668162628e-19
5.169771339e-19
7.00491977e-19
9.138564796e-19
1.150717963e-18
1.408766954e-18
2.251619325e-18
5.321576481e-19
4.771873629e-19
3.720010011e-19
2.912354239e-19
)
;
    }
    rightWall
    {
        type            empty;
    }
    leftWall
    {
        type            empty;
    }
    frontAndBack
    {
        type            calculated;
        value           nonuniform List<scalar> 
30
(
3.272379269e-22
1.952671522e-21
3.776151579e-21
4.989520274e-21
4.795590965e-21
3.020260246e-21
1.188617174e-21
3.845933098e-21
2.001081206e-20
6.412156313e-20
1.551849842e-19
3.123078842e-19
5.456545646e-19
8.453654674e-19
1.17704692e-18
1.494270625e-18
1.765343668e-18
1.982183326e-18
2.106256462e-18
1.975322918e-18
1.402072646e-18
5.794925409e-19
7.999880406e-20
4.620318931e-19
2.162346568e-18
5.185862888e-18
7.990228718e-18
7.691095327e-18
2.48116768e-18
1.051836479e-19
)
;
    }
    procBoundary0to1
    {
        type            processor;
        value           nonuniform List<scalar> 
20
(
3.296419074e-19
3.756722023e-19
4.927764539e-19
7.594206098e-19
1.42252167e-18
3.418714185e-18
1.145408027e-17
5.893872118e-17
1.266643919e-16
2.746338502e-16
5.982630057e-16
1.319702049e-16
4.667146792e-17
1.807740602e-17
3.270604592e-18
2.818011614e-18
1.581936396e-17
3.670231981e-17
1.062191981e-16
4.917676919e-16
)
;
    }
    procBoundary0to2
    {
        type            processor;
        value           nonuniform List<scalar> 
30
(
2.829081293e-19
4.849499914e-19
7.765095058e-19
1.202393426e-18
1.830698079e-18
2.751882977e-18
4.074047298e-18
5.901384005e-18
8.27608928e-18
1.104419717e-17
1.358361163e-17
1.441560366e-17
1.150504226e-17
7.927294666e-18
3.605091873e-17
9.682594557e-17
7.309505252e-17
2.261041983e-17
1.137739427e-16
4.012742193e-16
7.867314288e-17
3.1115964e-17
1.002791916e-17
2.281885123e-17
5.143572361e-17
5.013065155e-16
4.09153908e-16
1.167376957e-17
5.951685182e-18
5.772200898e-20
)
;
    }
}


// ************************************************************************* //
