/*--------------------------------*- C++ -*----------------------------------*\
  =========                 |
  \\      /  F ield         | OpenFOAM: The Open Source CFD Toolbox
   \\    /   O peration     | Website:  https://openfoam.org
    \\  /    A nd           | Version:  6
     \\/     M anipulation  |
\*---------------------------------------------------------------------------*/
FoamFile
{
    version     2.0;
    format      ascii;
    class       volScalarField;
    location    "0.0057";
    object      TRHS;
}
// * * * * * * * * * * * * * * * * * * * * * * * * * * * * * * * * * * * * * //

dimensions      [1 -1 -3 0 0 0 0];

internalField   nonuniform List<scalar> 
600
(
2.166498385e-09
-8.81990914e-10
-3.656542904e-09
-6.385850399e-09
-9.042046513e-09
-1.158365514e-08
-1.387070426e-08
-1.568107983e-08
-1.663975904e-08
-1.613419766e-08
-1.283860343e-08
-3.420420668e-09
2.142241994e-08
7.289197537e-08
2.253620092e-07
-0.0001032043543
40.9977723
0
0
0
0
0
0
0
0
0
0
0
391.0692514
-0.002065449672
6.271489947e-10
-1.906998703e-09
-4.457685166e-09
-7.170590726e-09
-1.000672932e-08
-1.295743174e-08
-1.598378282e-08
-1.906574206e-08
-2.227281765e-08
-2.602622498e-08
-3.154159895e-08
-4.147115773e-08
-5.30589088e-08
1.595474478e-09
8.81987379e-08
-0.0006577911509
105.4936056
0
0
0
0
0
0
0
0
0
0
0
-0.005433004659
-2.643300587e-05
-6.125437712e-10
-2.754163366e-09
-5.157098976e-09
-7.889030089e-09
-1.090225849e-08
-1.420614598e-08
-1.78197883e-08
-2.177909437e-08
-2.616108892e-08
-3.11464064e-08
-3.720967898e-08
-4.595955815e-08
-8.59000352e-08
-1.356064156e-07
-2.660308363e-07
155.5736887
0
0
0
0
0
0
0
0
0
0
0
0
0
-0.002462870183
-1.209095001e-09
-3.22289332e-09
-5.630259236e-09
-8.453869579e-09
-1.164515452e-08
-1.524754114e-08
-1.934919864e-08
-2.409938124e-08
-2.969828563e-08
-3.635527519e-08
-4.413873671e-08
-5.495553815e-08
-1.295527218e-07
-2.247695623e-07
-1.882638691e-07
-0.006276739491
0
0
0
0
0
0
0
0
0
0
0
0
0
0
-9.661013922e-10
-3.213794937e-09
-5.831053524e-09
-8.832648868e-09
-1.218967734e-08
-1.598798275e-08
-2.041370868e-08
-2.583854649e-08
-3.297888547e-08
-4.314963826e-08
-5.848142096e-08
-8.045136951e-08
-8.149819002e-08
-9.924756977e-08
-0.0001683460756
66.77977147
0
0
0
0
0
0
0
0
0
0
0
0
0
0
1.060274175e-10
-2.775456778e-09
-5.818040754e-09
-9.074156917e-09
-1.254277223e-08
-1.632335672e-08
-2.060787005e-08
-2.577445839e-08
-3.255720333e-08
-4.231026274e-08
-5.72088897e-08
-7.884553025e-08
-7.982089253e-08
-9.730096924e-08
-0.0001645250794
65.26519055
0
0
0
0
0
0
0
0
0
0
0
0
0
0
1.74582454e-09
-2.129346407e-09
-5.779711171e-09
-9.344502581e-09
-1.28621906e-08
-1.641440293e-08
-2.010042728e-08
-2.407897561e-08
-2.859639715e-08
-3.39719132e-08
-4.047011671e-08
-5.020876855e-08
-1.25329466e-07
-2.192285185e-07
-1.770472691e-07
-0.006438666525
0
0
0
0
0
0
0
0
0
0
0
0
0
0
3.448976851e-09
-1.662100001e-09
-6.022706019e-09
-9.915234596e-09
-1.344387315e-08
-1.667572475e-08
-1.962553989e-08
-2.231492549e-08
-2.486004433e-08
-2.762349129e-08
-3.149471684e-08
-3.889928104e-08
-8.010528425e-08
-1.324418234e-07
-3.017691977e-07
149.7272741
0
0
0
0
0
0
0
0
0
0
0
0
0
-0.002961357906
4.518157962e-09
-1.878624439e-09
-6.921646834e-09
-1.10972501e-08
-1.46013794e-08
-1.748253928e-08
-1.965502964e-08
-2.100129832e-08
-2.155430789e-08
-2.186382205e-08
-2.363951343e-08
-3.055102348e-08
-4.235788179e-08
-6.701975338e-09
4.278528607e-08
-0.0005674508295
75.50276747
0
0
0
0
0
0
0
0
0
0
0
-0.005872336876
-1.698030901e-05
4.179420845e-09
-3.305876608e-09
-8.836253779e-09
-1.317010272e-08
-1.660753956e-08
-1.914243195e-08
-2.050241561e-08
-2.022865751e-08
-1.775238937e-08
-1.246770623e-08
-3.599903101e-09
1.081253537e-08
3.78518552e-08
8.503462661e-08
2.307881403e-07
-1.438322697e-06
0.5892347337
0
0
0
0
0
0
0
0
0
0
0
381.0144694
-0.00199176543
1.741508005e-09
-6.345363563e-09
-1.198819442e-08
-1.630051662e-08
-1.967173342e-08
-2.199495941e-08
-2.27639717e-08
-2.112620421e-08
-1.586842476e-08
-5.415678466e-09
1.210363867e-08
3.910129789e-08
7.999178485e-08
1.422490273e-07
1.462739872e-07
1.062797047e-07
-4.234852477e-07
697.495254
95.21606311
0
0
0
0
0
0
0
-0.0008339508787
369.2903067
-4.775366136e-07
-6.155990491e-09
-3.316429768e-09
-1.11148935e-08
-1.630811593e-08
-2.043548525e-08
-2.38566915e-08
-2.629126142e-08
-2.700539265e-08
-2.483275244e-08
-1.805711712e-08
-4.433108471e-09
1.784737695e-08
4.769234776e-08
7.56706651e-08
1.008724781e-07
1.635149548e-07
3.841736552e-07
6.719846853e-07
-0.001757096252
-0.0004547442866
85.17665405
281.8246233
158.0677184
0
157.0954245
279.6009393
-0.002697986191
-2.99902475e-09
-0.0009305566541
-5.515100101e-09
-3.118323405e-07
-1.154297004e-08
-1.738416477e-08
-2.133014757e-08
-2.524634143e-08
-2.903826336e-08
-3.209715627e-08
-3.350205311e-08
-3.192328776e-08
-2.521815638e-08
-9.756115945e-09
1.88651618e-08
6.302342807e-08
1.009129591e-07
1.451838743e-07
2.804187968e-07
4.286940514e-07
7.804833312e-07
7.773671117e-07
-7.489292384e-09
-0.000290531784
-0.001966397994
-0.0006774385405
-0.04744438141
-0.0006583180445
-0.001917430424
-0.0001896341459
-1.664187732e-08
-9.03814732e-08
3.645017712e-08
-2.365444177e-09
-2.824716575e-08
-2.571190378e-08
-2.632797733e-08
-3.025111602e-08
-3.501228025e-08
-3.936284682e-08
-4.225439084e-08
-4.256018668e-08
-3.839002887e-08
-2.491511571e-08
6.963136132e-09
7.679096416e-08
1.228291582e-07
3.017870792e-07
5.07450682e-07
-2.326818897e-05
-0.0001090813413
-0.003842296925
-0.002970354061
115.2503912
498.2361608
110.6456952
0
104.0320347
481.034642
75.22462674
-0.006601396974
-0.01150572174
-0.000202506169
-0.0009502427948
-2.616801302e-08
-2.574390198e-08
-2.873500743e-08
-3.483067879e-08
-4.172433981e-08
-4.813253996e-08
-5.303939763e-08
-5.58510491e-08
-5.65376824e-08
-5.163765596e-08
-3.226599288e-08
3.217616329e-08
1.127795075e-07
3.216259755e-07
-3.404501742e-08
9.403951857
43.32202135
0
0
0
0
0
0
0
0
0
0
0
80.45939334
160.7790504
-9.847653929e-09
-1.980001907e-08
-2.958430304e-08
-3.955435446e-08
-4.967286438e-08
-5.899658959e-08
-6.614159339e-08
-7.017935801e-08
-7.389775756e-08
-8.037127831e-08
-1.12647004e-07
-8.689536772e-08
-0.0001378980056
-0.0008204726105
230.6622461
0
0
0
0
0
0
0
0
0
0
0
0
0
0
0
-6.677294796e-09
-1.86920623e-08
-3.180071134e-08
-4.53150016e-08
-5.949053029e-08
-7.338109167e-08
-8.427281168e-08
-8.664045376e-08
-7.837450997e-08
-1.02019332e-07
-2.068331309e-07
-4.236836697e-07
54.75643434
94.92021822
0
0
0
0
0
0
0
0
0
0
0
0
0
0
0
0
-5.902815189e-09
-1.900050676e-08
-3.451866607e-08
-5.138696548e-08
-7.064692349e-08
-9.269319695e-08
-1.161484964e-07
-1.330996086e-07
-1.289136067e-07
-6.571715323e-08
-0.0001872411192
74.2742702
0
0
0
0
0
0
0
0
0
0
0
0
0
0
0
0
0
0
-5.736916129e-09
-1.943993105e-08
-3.648527577e-08
-5.569026655e-08
-7.913081474e-08
-1.097591907e-07
-1.520098465e-07
-2.022008258e-07
-1.766746105e-07
-7.181087863e-08
-0.000680760676
172.9872056
0
0
0
0
0
0
0
0
0
0
0
0
0
0
0
0
0
0
-5.595139582e-09
-1.928577586e-08
-3.657668597e-08
-5.584636435e-08
-7.886367522e-08
-1.079984601e-07
-1.47828597e-07
-2.496433685e-07
-3.363857876e-07
-3.730349547e-07
97.15187189
0
0
0
0
0
0
0
0
0
0
0
0
0
0
0
0
0
0
0
)
;

boundaryField
{
    lowerWall
    {
        type            calculated;
        value           nonuniform 0();
    }
    atmosphere
    {
        type            calculated;
        value           nonuniform List<scalar> 
20
(
2.166498385e-09
6.271489947e-10
-6.125437712e-10
-1.209095001e-09
-9.661013922e-10
1.060274175e-10
1.74582454e-09
3.448976851e-09
4.518157962e-09
4.179420845e-09
1.741508005e-09
-3.316429768e-09
-1.154297004e-08
-2.824716575e-08
-2.616801302e-08
-9.847653929e-09
-6.677294796e-09
-5.902815189e-09
-5.736916129e-09
-5.595139582e-09
)
;
    }
    rightWall
    {
        type            empty;
    }
    leftWall
    {
        type            empty;
    }
    frontAndBack
    {
        type            calculated;
        value           nonuniform List<scalar> 
30
(
-5.595139582e-09
-1.928577586e-08
-3.657668597e-08
-5.584636435e-08
-7.886367522e-08
-1.079984601e-07
-1.47828597e-07
-2.496433685e-07
-3.363857876e-07
-3.730349547e-07
97.15187189
0
0
0
0
0
0
0
0
0
0
0
0
0
0
0
0
0
0
0
)
;
    }
    procBoundary4to2
    {
        type            processor;
        value           nonuniform List<scalar> 
30
(
3.606539875e-09
7.531550508e-11
-2.917117256e-09
-5.657753446e-09
-8.145028293e-09
-1.028562685e-08
-1.185608766e-08
-1.2418434e-08
-1.12549185e-08
-7.088798743e-09
2.359205221e-09
2.134769512e-08
5.726572456e-08
1.15878172e-07
1.544628895e-07
1.585968016e-07
-2.258038518e-07
17.05672269
9.759568854
0
0
0
0
0
0
0
-0.006121988256
18.3328613
-4.610312289e-05
-8.18533442e-11
)
;
    }
    procBoundary4to5
    {
        type            processor;
        value           nonuniform List<scalar> 
20
(
428.2798371
10.47795229
0
0
0
0
0
0
6.727174156
409.0996093
-0.002441608337
-0.01412385648
-0.00546205929
216.1777766
0
0
0
0
0
0
)
;
    }
}


// ************************************************************************* //
