/*--------------------------------*- C++ -*----------------------------------*\
  =========                 |
  \\      /  F ield         | OpenFOAM: The Open Source CFD Toolbox
   \\    /   O peration     | Website:  https://openfoam.org
    \\  /    A nd           | Version:  6
     \\/     M anipulation  |
\*---------------------------------------------------------------------------*/
FoamFile
{
    version     2.0;
    format      ascii;
    class       volVectorField;
    location    "0.0015";
    object      gradT;
}
// * * * * * * * * * * * * * * * * * * * * * * * * * * * * * * * * * * * * * //

dimensions      [0 -1 0 1 0 0 0];

internalField   nonuniform List<vector> 
600
(
(0 1.064021607e-05 3.151375475e-05)
(0 2.094024284e-05 1.050585562e-05)
(0 1.902393637e-05 3.460976603e-06)
(0 1.594793624e-05 9.643470051e-07)
(0 1.323023125e-05 7.718587805e-08)
(0 1.094228919e-05 -2.096406533e-07)
(0 9.003113147e-06 -2.725328493e-07)
(0 7.355528305e-06 -2.534746119e-07)
(0 5.959512026e-06 -2.115464774e-07)
(0 4.781712719e-06 -1.696183468e-07)
(0 3.79830753e-06 -1.324547784e-07)
(0 2.987379309e-06 -1.000557663e-07)
(0 2.324152515e-06 -7.528005277e-08)
(0 1.787663052e-06 -5.622181241e-08)
(0 1.360758422e-06 -4.09752186e-08)
(0 1.025333377e-06 -2.858736181e-08)
(0 7.623296598e-07 -2.191697772e-08)
(0 5.612652036e-07 -1.524659297e-08)
(0 4.087992739e-07 -9.529120604e-09)
(0 2.93496919e-07 -7.623296598e-09)
(0 2.096406533e-07 -4.764560302e-09)
(0 1.477013694e-07 -1.905824121e-09)
(0 1.010086799e-07 -1.905824149e-09)
(0 7.146840453e-08 -1.905824121e-09)
(0 4.859851508e-08 0)
(0 3.239901054e-08 -9.529120747e-10)
(0 2.191697739e-08 0)
(0 1.524659297e-08 9.529120604e-10)
(0 9.529120747e-09 0)
(0 7.623296483e-09 0)
(0 5.636474837e-06 1.249267711e-05)
(0 1.310730559e-05 6.32447744e-06)
(0 1.49330849e-05 2.605261573e-06)
(0 1.418600184e-05 8.890669524e-07)
(0 1.254318164e-05 1.839120304e-07)
(0 1.070406117e-05 -7.432714071e-08)
(0 8.945938423e-06 -1.477013694e-07)
(0 7.364104513e-06 -1.515130199e-07)
(0 5.987146476e-06 -1.343606005e-07)
(0 4.811252993e-06 -1.086319749e-07)
(0 3.824989068e-06 -8.576208672e-08)
(0 3.008343375e-06 -6.670384423e-08)
(0 2.343210757e-06 -4.955142714e-08)
(0 1.803862557e-06 -3.811648299e-08)
(0 1.371240455e-06 -2.763444975e-08)
(0 1.033909586e-06 -2.096406533e-08)
(0 7.680471322e-07 -1.52465932e-08)
(0 5.660297639e-07 -1.143494473e-08)
(0 4.116580101e-07 -8.576208544e-09)
(0 2.963556552e-07 -3.811648299e-09)
(0 2.105935654e-07 -3.811648242e-09)
(0 1.486542814e-07 -1.905824121e-09)
(0 1.029145041e-07 -9.529120747e-10)
(0 7.051549247e-08 9.529120604e-10)
(0 4.859851508e-08 0)
(0 3.335192261e-08 0)
(0 2.191697739e-08 -9.529120604e-10)
(0 1.524659297e-08 -9.529120604e-10)
(0 9.529120747e-09 -9.529120747e-10)
(0 7.623296483e-09 -9.529120604e-10)
(0 4.466298834e-06 -3.058847719e-07)
(0 1.105378008e-05 -2.7539159e-07)
(0 1.358947891e-05 -2.334634552e-07)
(0 1.352658672e-05 -1.934411486e-07)
(0 1.226779007e-05 -1.581834046e-07)
(0 1.060876998e-05 -1.286431283e-07)
(0 8.925927283e-06 -1.029145027e-07)
(0 7.370774909e-06 -8.38562627e-08)
(0 6.002393078e-06 -6.670384433e-08)
(0 4.830311242e-06 -5.336307546e-08)
(0 3.840235667e-06 -4.00223072e-08)
(0 3.021684148e-06 -3.23990101e-08)
(0 2.352739881e-06 -2.572862567e-08)
(0 1.810532945e-06 -2.00111536e-08)
(0 1.378863753e-06 -1.619950505e-08)
(0 1.037721235e-06 -1.143494474e-08)
(0 7.718587817e-07 -8.576208685e-09)
(0 5.679355889e-07 -6.670384433e-09)
(0 4.15469659e-07 -4.764560309e-09)
(0 2.982614798e-07 -2.858736228e-09)
(0 2.124993898e-07 0)
(0 1.496071937e-07 0)
(0 1.038674163e-07 0)
(0 7.146840464e-08 9.529120618e-10)
(0 4.764560309e-08 0)
(0 3.239901059e-08 0)
(0 2.096406536e-08 -9.529120618e-10)
(0 1.429368093e-08 -1.905824124e-09)
(0 9.529120761e-09 -1.905824152e-09)
(0 1.048203268e-08 -9.529120618e-10)
(0 5.667920935e-06 -1.316162138e-05)
(0 1.317877399e-05 -6.906706718e-06)
(0 1.501503534e-05 -3.09410546e-06)
(0 1.42612819e-05 -1.29024293e-06)
(0 1.260702675e-05 -5.126666962e-07)
(0 1.075933007e-05 -1.924882362e-07)
(0 8.991678202e-06 -6.860966835e-08)
(0 7.39936226e-06 -2.286988979e-08)
(0 6.016686749e-06 -7.623296483e-09)
(0 4.837934531e-06 -4.764560302e-09)
(0 3.845953134e-06 -3.811648299e-09)
(0 3.02454288e-06 -4.764560302e-09)
(0 2.355598613e-06 -4.764560302e-09)
(0 1.812438766e-06 -6.670384523e-09)
(0 1.379816663e-06 -6.670384423e-09)
(0 1.04057997e-06 -7.623296483e-09)
(0 7.737646047e-07 -4.764560374e-09)
(0 5.698414121e-07 -1.905824121e-09)
(0 4.164225704e-07 -1.905824121e-09)
(0 2.992143915e-07 -9.529120747e-10)
(0 2.134523015e-07 -1.905824121e-09)
(0 1.505601055e-07 0)
(0 1.029145041e-07 0)
(0 7.146840453e-08 0)
(0 4.859851508e-08 0)
(0 3.144609847e-08 0)
(0 2.096406533e-08 9.529120604e-10)
(0 1.334076885e-08 0)
(0 1.048203282e-08 -9.529120747e-10)
(0 1.048203266e-08 9.529120604e-10)
(0 1.072597815e-05 -3.238185764e-05)
(0 2.112129614e-05 -1.118623485e-05)
(0 1.92078484e-05 -4.004136478e-06)
(0 1.610707256e-05 -1.402686553e-06)
(0 1.336459185e-05 -4.373866423e-07)
(0 1.10537799e-05 -8.480917338e-08)
(0 9.095545617e-06 2.954027387e-08)
(0 7.430808359e-06 5.526890033e-08)
(0 6.02145131e-06 5.145725126e-08)
(0 4.83316997e-06 4.002230654e-08)
(0 3.841188573e-06 2.763445017e-08)
(0 3.021684144e-06 1.905824121e-08)
(0 2.350834053e-06 1.238785679e-08)
(0 1.808627118e-06 5.717472448e-09)
(0 1.378863751e-06 3.811648242e-09)
(0 1.04057997e-06 1.905824121e-09)
(0 7.737646047e-07 9.529120747e-10)
(0 5.707943242e-07 0)
(0 4.164225704e-07 9.529120604e-10)
(0 3.001673035e-07 0)
(0 2.134523015e-07 9.529120604e-10)
(0 1.505601055e-07 0)
(0 1.029145041e-07 -9.529120747e-10)
(0 7.146840453e-08 0)
(0 4.859851508e-08 -9.529120604e-10)
(0 3.239901054e-08 0)
(0 2.096406533e-08 0)
(0 1.334076885e-08 9.529120604e-10)
(0 1.048203282e-08 1.905824149e-09)
(0 9.529120604e-09 0)
(0 4.439807879e-05 -4.148979117e-06)
(0 4.155649564e-05 -1.587551519e-06)
(0 2.479477185e-05 -4.259516916e-07)
(0 1.782993759e-05 5.336307546e-08)
(0 1.392585708e-05 2.105935688e-07)
(0 1.122530409e-05 2.286988948e-07)
(0 9.132709201e-06 1.962998847e-07)
(0 7.422232161e-06 1.515130201e-07)
(0 6.000487253e-06 1.105377992e-07)
(0 4.812205912e-06 7.623296495e-08)
(0 3.824989074e-06 5.145725211e-08)
(0 3.009296291e-06 3.525774629e-08)
(0 2.342257848e-06 2.096406536e-08)
(0 1.802909648e-06 1.334076907e-08)
(0 1.376005017e-06 7.623296495e-09)
(0 1.038674147e-06 5.717472371e-09)
(0 7.718587817e-07 3.811648305e-09)
(0 5.69841413e-07 9.529120618e-10)
(0 4.16422571e-07 9.529120618e-10)
(0 3.00167304e-07 0)
(0 2.124993898e-07 0)
(0 1.505601058e-07 0)
(0 1.029145042e-07 0)
(0 7.146840464e-08 0)
(0 4.764560309e-08 0)
(0 3.239901059e-08 0)
(0 2.286988948e-08 0)
(0 1.429368093e-08 9.529120618e-10)
(0 9.529120761e-09 9.529120761e-10)
(0 8.576208557e-09 0)
(0 2.136905295e-05 2.67139367e-05)
(0 2.484527652e-05 9.250870421e-06)
(0 2.084781006e-05 3.738274013e-06)
(0 1.674457073e-05 1.764793136e-06)
(0 1.353992767e-05 9.510062506e-07)
(0 1.103853331e-05 5.622181156e-07)
(0 9.017406828e-06 3.516245503e-07)
(0 7.345046272e-06 2.286988979e-07)
(0 5.947124169e-06 1.486542814e-07)
(0 4.776948159e-06 9.910285428e-08)
(0 3.79830753e-06 6.479802108e-08)
(0 2.991190958e-06 4.192813066e-08)
(0 2.329869988e-06 2.763444975e-08)
(0 1.796239261e-06 1.810532942e-08)
(0 1.370287543e-06 1.143494473e-08)
(0 1.034862498e-06 6.670384423e-09)
(0 7.709058684e-07 3.811648299e-09)
(0 5.688885001e-07 3.811648242e-09)
(0 4.135638342e-07 2.858736181e-09)
(0 2.992143915e-07 1.905824149e-09)
(0 2.124993895e-07 9.529120604e-10)
(0 1.505601055e-07 0)
(0 1.038674161e-07 9.529120747e-10)
(0 7.051549247e-08 9.529120604e-10)
(0 4.859851508e-08 0)
(0 3.239901054e-08 9.529120747e-10)
(0 2.191697739e-08 0)
(0 1.429368091e-08 0)
(0 9.529120747e-09 -9.529120747e-10)
(0 9.529120604e-09 0)
(0 1.685224979e-05 1.342462511e-05)
(0 1.858178546e-05 8.000649779e-06)
(0 1.730964758e-05 4.268093119e-06)
(0 1.504266979e-05 2.255542847e-06)
(0 1.272232911e-05 1.222586192e-06)
(0 1.06268753e-05 6.870495956e-07)
(0 8.797284142e-06 4.011759774e-07)
(0 7.22021479e-06 2.429925791e-07)
(0 5.871844116e-06 1.524659297e-07)
(0 4.729302556e-06 9.719703016e-08)
(0 3.767814343e-06 6.193928486e-08)
(0 2.971179804e-06 3.906939448e-08)
(0 2.317482131e-06 2.477571357e-08)
(0 1.787663052e-06 1.619950527e-08)
(0 1.364570071e-06 1.048203266e-08)
(0 1.031050849e-06 6.670384423e-09)
(0 7.690000443e-07 4.764560374e-09)
(0 5.688885001e-07 3.811648242e-09)
(0 4.135638342e-07 1.905824121e-09)
(0 2.973085673e-07 1.905824149e-09)
(0 2.124993895e-07 0)
(0 1.496071935e-07 9.529120604e-10)
(0 1.048203282e-07 1.905824149e-09)
(0 7.051549247e-08 0)
(0 4.764560302e-08 1.905824121e-09)
(0 3.239901054e-08 9.529120747e-10)
(0 2.096406533e-08 9.529120604e-10)
(0 1.524659297e-08 0)
(0 8.576208672e-09 0)
(0 9.529120604e-09 0)
(0 1.502742321e-05 7.158275405e-06)
(0 1.568874441e-05 4.965624827e-06)
(0 1.510175035e-05 3.006437554e-06)
(0 1.369811088e-05 1.712382974e-06)
(0 1.197143441e-05 9.586295482e-07)
(0 1.021807603e-05 5.393482268e-07)
(0 8.574302729e-06 3.087435079e-07)
(0 7.095383316e-06 1.810532944e-07)
(0 5.800375718e-06 1.076790629e-07)
(0 4.685468606e-06 6.575093224e-08)
(0 3.741132809e-06 4.097521926e-08)
(0 2.95402739e-06 2.572862566e-08)
(0 2.306047189e-06 1.524659298e-08)
(0 1.781945582e-06 8.576208681e-09)
(0 1.360758424e-06 5.717472369e-09)
(0 1.029145026e-06 2.858736184e-09)
(0 7.690000451e-07 9.529120757e-10)
(0 5.669826765e-07 0)
(0 4.126109226e-07 0)
(0 2.963556555e-07 -9.529120757e-10)
(0 2.124993897e-07 0)
(0 1.496071936e-07 0)
(0 1.038674163e-07 0)
(0 7.242131667e-08 0)
(0 4.859851513e-08 0)
(0 3.049318642e-08 0)
(0 2.001115329e-08 0)
(0 1.524659298e-08 -9.529120614e-10)
(0 8.576208681e-09 0)
(0 9.529120614e-09 0)
(0 1.391823356e-05 2.292706418e-06)
(0 1.442899464e-05 1.641867505e-06)
(0 1.406021746e-05 1.036768322e-06)
(0 1.299295595e-05 6.041462466e-07)
(0 1.154834144e-05 3.373308746e-07)
(0 9.976989277e-06 1.848649398e-07)
(0 8.439942123e-06 1.019615905e-07)
(0 7.019150346e-06 5.526890036e-08)
(0 5.757494672e-06 3.144609801e-08)
(0 4.661645802e-06 1.524659297e-08)
(0 3.726839126e-06 7.623296601e-09)
(0 2.94545118e-06 3.811648243e-09)
(0 2.301282627e-06 1.905824122e-09)
(0 1.778133932e-06 1.90582415e-09)
(0 1.358852599e-06 0)
(0 1.027239202e-06 0)
(0 7.670942205e-07 0)
(0 5.650768521e-07 -1.905824122e-09)
(0 4.135638344e-07 -1.905824122e-09)
(0 2.963556554e-07 -1.90582415e-09)
(0 2.134523016e-07 -9.529120608e-10)
(0 1.505601056e-07 -9.529120608e-10)
(0 1.038674162e-07 -1.90582415e-09)
(0 7.05154925e-08 -9.529120608e-10)
(0 4.85985151e-08 -9.529120608e-10)
(0 3.144609848e-08 -1.90582415e-09)
(0 2.096406534e-08 -2.858736183e-09)
(0 1.334076885e-08 -1.905824122e-09)
(0 1.14349449e-08 -1.90582415e-09)
(0 8.576208548e-09 0)
(0 1.391823356e-05 -2.398479657e-06)
(0 1.443185338e-05 -1.745734922e-06)
(0 1.406402911e-05 -1.131106616e-06)
(0 1.299962633e-05 -6.870495959e-07)
(0 1.1553106e-05 -4.087992802e-07)
(0 9.982706749e-06 -2.468042238e-07)
(0 8.444706683e-06 -1.515130177e-07)
(0 7.023914906e-06 -9.624411959e-08)
(0 5.76130632e-06 -6.289219602e-08)
(0 4.662598714e-06 -4.192813068e-08)
(0 3.729697862e-06 -2.954027433e-08)
(0 2.947357004e-06 -2.001115328e-08)
(0 2.304141363e-06 -1.429368091e-08)
(0 1.779086844e-06 -8.576208676e-09)
(0 1.360758423e-06 -5.717472365e-09)
(0 1.027239202e-06 -4.764560304e-09)
(0 7.661413084e-07 -3.811648301e-09)
(0 5.660297641e-07 -2.858736183e-09)
(0 4.135638344e-07 -2.858736183e-09)
(0 2.982614795e-07 -1.90582415e-09)
(0 2.115464775e-07 -1.905824122e-09)
(0 1.505601056e-07 -2.858736183e-09)
(0 1.038674162e-07 -9.529120751e-10)
(0 7.05154925e-08 -1.905824122e-09)
(0 4.764560304e-08 -1.905824122e-09)
(0 3.144609848e-08 -2.858736225e-09)
(0 2.096406534e-08 -1.905824122e-09)
(0 1.524659297e-08 0)
(0 1.14349449e-08 9.529120751e-10)
(0 9.529120608e-09 0)
(0 1.502265865e-05 -7.281201061e-06)
(0 1.569827354e-05 -5.083785924e-06)
(0 1.511794985e-05 -3.113163705e-06)
(0 1.371335748e-05 -1.807674181e-06)
(0 1.198953974e-05 -1.039627075e-06)
(0 1.023618136e-05 -6.060520711e-07)
(0 8.58859641e-06 -3.630594954e-07)
(0 7.108724085e-06 -2.258401619e-07)
(0 5.810857751e-06 -1.448426333e-07)
(0 4.694044815e-06 -9.433829408e-08)
(0 3.749709018e-06 -6.193928492e-08)
(0 2.961650687e-06 -4.19281307e-08)
(0 2.312717573e-06 -2.668153772e-08)
(0 1.78575723e-06 -1.905824151e-08)
(0 1.362664248e-06 -1.143494474e-08)
(0 1.029145026e-06 -8.576208553e-09)
(0 7.690000451e-07 -5.717472454e-09)
(0 5.679355886e-07 -3.811648246e-09)
(0 4.126109226e-07 -1.905824123e-09)
(0 2.982614797e-07 -1.905824151e-09)
(0 2.124993897e-07 -9.529120614e-10)
(0 1.496071936e-07 -9.529120614e-10)
(0 1.048203283e-07 -1.905824151e-09)
(0 7.051549255e-08 -9.529120614e-10)
(0 4.859851513e-08 -9.529120614e-10)
(0 3.14460985e-08 0)
(0 2.191697741e-08 0)
(0 1.619950504e-08 0)
(0 1.048203283e-08 0)
(0 9.529120614e-09 0)
(0 1.683223864e-05 -1.360472549e-05)
(0 1.86008437e-05 -8.152162799e-06)
(0 1.733918785e-05 -4.396736247e-06)
(0 1.507411588e-05 -2.366080646e-06)
(0 1.275472812e-05 -1.316924487e-06)
(0 1.06583214e-05 -7.651883845e-07)
(0 8.824918592e-06 -4.669269096e-07)
(0 7.24308468e-06 -2.954027432e-07)
(0 5.89185527e-06 -1.924882362e-07)
(0 4.744549149e-06 -1.276902161e-07)
(0 3.782108025e-06 -8.67149988e-08)
(0 2.983567661e-06 -6.003345981e-08)
(0 2.327011252e-06 -4.002230654e-08)
(0 1.795286349e-06 -2.763445017e-08)
(0 1.370287543e-06 -1.905824121e-08)
(0 1.032956673e-06 -1.143494473e-08)
(0 7.718587805e-07 -7.623296598e-09)
(0 5.688885001e-07 -5.717472363e-09)
(0 4.145167463e-07 -4.764560302e-09)
(0 2.992143915e-07 -2.858736224e-09)
(0 2.134523015e-07 -1.905824121e-09)
(0 1.496071935e-07 -9.529120604e-10)
(0 1.029145041e-07 -1.905824149e-09)
(0 7.242131659e-08 -1.905824121e-09)
(0 4.859851508e-08 -1.905824121e-09)
(0 3.239901054e-08 -9.529120747e-10)
(0 2.096406533e-08 0)
(0 1.619950503e-08 -9.529120604e-10)
(0 1.048203282e-08 -1.905824149e-09)
(0 1.048203266e-08 -1.905824121e-09)
(0 2.133093647e-05 -2.693977686e-05)
(0 2.490340416e-05 -9.435735364e-06)
(0 2.090307896e-05 -3.898363239e-06)
(0 1.679602798e-05 -1.902965385e-06)
(0 1.35894791e-05 -1.067261524e-06)
(0 1.1085226e-05 -6.594151458e-07)
(0 9.06028787e-06 -4.307162513e-07)
(0 7.382209843e-06 -2.887323586e-07)
(0 5.978570267e-06 -1.991586206e-07)
(0 4.80077096e-06 -1.362664246e-07)
(0 3.818318683e-06 -9.43382954e-08)
(0 3.008343375e-06 -6.575093217e-08)
(0 2.344163669e-06 -4.478686684e-08)
(0 1.807674206e-06 -3.049318639e-08)
(0 1.377910839e-06 -2.096406533e-08)
(0 1.039627058e-06 -1.619950503e-08)
(0 7.747175167e-07 -9.529120747e-09)
(0 5.717472363e-07 -6.670384423e-09)
(0 4.164225704e-07 -3.811648242e-09)
(0 3.001673035e-07 -2.858736224e-09)
(0 2.144052136e-07 -1.905824121e-09)
(0 1.496071935e-07 0)
(0 1.038674161e-07 0)
(0 7.146840453e-08 -9.529120604e-10)
(0 4.859851508e-08 -9.529120604e-10)
(0 3.239901054e-08 -9.529120747e-10)
(0 2.191697739e-08 -1.905824121e-09)
(0 1.524659297e-08 -9.529120604e-10)
(0 1.048203282e-08 -9.529120747e-10)
(0 1.238785679e-08 0)
(0 4.43752089e-05 3.927903519e-06)
(0 4.164416355e-05 1.370287565e-06)
(0 2.487100481e-05 2.239343345e-07)
(0 1.790426473e-05 -2.30604719e-07)
(0 1.400018422e-05 -3.592478527e-07)
(0 1.129391376e-05 -3.506716388e-07)
(0 9.194648485e-06 -2.93496915e-07)
(0 7.475595237e-06 -2.286988983e-07)
(0 6.044321208e-06 -1.705712591e-07)
(0 4.849369483e-06 -1.23878568e-07)
(0 3.852623524e-06 -8.671499893e-08)
(0 3.032166181e-06 -6.00334599e-08)
(0 2.362269001e-06 -4.383395485e-08)
(0 1.818156241e-06 -2.954027436e-08)
(0 1.38648705e-06 -2.096406536e-08)
(0 1.046297444e-06 -1.23878568e-08)
(0 7.794820783e-07 -8.576208685e-09)
(0 5.727001492e-07 -4.764560309e-09)
(0 4.192813072e-07 -4.764560309e-09)
(0 3.030260402e-07 -1.905824152e-09)
(0 2.144052139e-07 0)
(0 1.515130178e-07 -9.529120618e-10)
(0 1.029145042e-07 0)
(0 7.146840464e-08 0)
(0 4.859851515e-08 -9.529120618e-10)
(0 3.144609851e-08 0)
(0 2.191697742e-08 0)
(0 1.524659299e-08 -9.529120618e-10)
(0 1.048203284e-08 0)
(0 1.334076887e-08 0)
(0 1.075837716e-05 3.210456023e-05)
(0 2.119943493e-05 1.089750249e-05)
(0 1.930313961e-05 3.739226925e-06)
(0 1.62128458e-05 1.17494057e-06)
(0 1.346750635e-05 2.468042274e-07)
(0 1.115097693e-05 -7.146840453e-08)
(0 9.183213526e-06 -1.543717538e-07)
(0 7.5051355e-06 -1.543717561e-07)
(0 6.083390594e-06 -1.26737304e-07)
(0 4.88367431e-06 -9.719703016e-08)
(0 3.880257968e-06 -7.242131768e-08)
(0 3.05217733e-06 -5.241016332e-08)
(0 2.375609767e-06 -3.62106583e-08)
(0 1.829591183e-06 -2.572862602e-08)
(0 1.395063256e-06 -1.715241709e-08)
(0 1.052967827e-06 -9.529120604e-09)
(0 7.823408133e-07 -7.623296598e-09)
(0 5.755588845e-07 -5.717472363e-09)
(0 4.202342186e-07 -1.905824121e-09)
(0 3.030260398e-07 -1.905824149e-09)
(0 2.153581257e-07 -1.905824121e-09)
(0 1.515130176e-07 -1.905824121e-09)
(0 1.038674161e-07 -1.905824149e-09)
(0 7.051549247e-08 -9.529120604e-10)
(0 4.859851508e-08 -1.905824121e-09)
(0 3.335192261e-08 9.529120747e-10)
(0 2.096406533e-08 0)
(0 1.619950503e-08 0)
(0 1.238785697e-08 1.905824149e-09)
(0 1.048203266e-08 9.529120604e-10)
(0 5.704131594e-06 1.272518765e-05)
(0 1.327882976e-05 6.497907437e-06)
(0 1.514844302e-05 2.733904701e-06)
(0 1.441088909e-05 9.853110705e-07)
(0 1.275377521e-05 2.630037326e-07)
(0 1.089464359e-05 -5.717472363e-09)
(0 9.11079221e-06 -8.957373368e-08)
(0 7.502276764e-06 -1.01961592e-07)
(0 6.101495923e-06 -8.67149975e-08)
(0 4.904638375e-06 -6.765675629e-08)
(0 3.89931621e-06 -5.241016411e-08)
(0 3.067423922e-06 -3.62106583e-08)
(0 2.388950535e-06 -2.668153769e-08)
(0 1.838167392e-06 -1.619950527e-08)
(0 1.401733641e-06 -1.048203266e-08)
(0 1.055826563e-06 -6.670384423e-09)
(0 7.851995496e-07 -4.764560374e-09)
(0 5.765117966e-07 -1.905824121e-09)
(0 4.221400428e-07 -1.905824121e-09)
(0 3.030260398e-07 -1.905824149e-09)
(0 2.163110377e-07 -9.529120604e-10)
(0 1.515130176e-07 -9.529120604e-10)
(0 1.048203282e-07 0)
(0 7.051549247e-08 0)
(0 4.955142714e-08 1.905824121e-09)
(0 3.239901054e-08 -9.529120747e-10)
(0 2.096406533e-08 0)
(0 1.619950503e-08 9.529120604e-10)
(0 1.238785697e-08 0)
(0 1.048203266e-08 9.529120604e-10)
(0 4.523473558e-06 -3.430483423e-07)
(0 1.120719893e-05 -3.049318644e-07)
(0 1.379244918e-05 -2.572862567e-07)
(0 1.374289776e-05 -2.067819174e-07)
(0 1.24755249e-05 -1.619950529e-07)
(0 1.079744657e-05 -1.248314801e-07)
(0 9.087922334e-06 -9.433829412e-08)
(0 7.50894716e-06 -6.860966948e-08)
(0 6.115789613e-06 -5.050433928e-08)
(0 4.919884975e-06 -3.621065835e-08)
(0 3.91075116e-06 -2.286988983e-08)
(0 3.07790596e-06 -1.619950505e-08)
(0 2.396573836e-06 -1.048203268e-08)
(0 1.844837779e-06 -5.717472457e-09)
(0 1.405545291e-06 -3.811648247e-09)
(0 1.056779477e-06 -2.858736186e-09)
(0 7.871053749e-07 -9.529120761e-10)
(0 5.793705336e-07 9.529120618e-10)
(0 4.211871313e-07 9.529120618e-10)
(0 3.030260402e-07 0)
(0 2.16311038e-07 0)
(0 1.515130178e-07 0)
(0 1.048203284e-07 0)
(0 7.146840464e-08 0)
(0 4.859851515e-08 9.529120618e-10)
(0 3.144609851e-08 -9.529120761e-10)
(0 2.286988948e-08 0)
(0 1.619950505e-08 0)
(0 1.238785699e-08 -9.529120761e-10)
(0 1.048203268e-08 0)
(0 5.743200988e-06 -1.346083577e-05)
(0 1.336554476e-05 -7.136358528e-06)
(0 1.524564005e-05 -3.258006335e-06)
(0 1.450522738e-05 -1.403639465e-06)
(0 1.283667856e-05 -5.908054863e-07)
(0 1.096325326e-05 -2.420396633e-07)
(0 9.165108197e-06 -9.814994222e-08)
(0 7.545157808e-06 -3.716357091e-08)
(0 6.136753669e-06 -1.334076885e-08)
(0 4.931319913e-06 -2.858736181e-09)
(0 3.918374451e-06 1.905824149e-09)
(0 3.080764691e-06 4.764560302e-09)
(0 2.397526744e-06 4.764560302e-09)
(0 1.845790689e-06 1.905824149e-09)
(0 1.405545289e-06 2.858736181e-09)
(0 1.058685299e-06 1.905824121e-09)
(0 7.880582858e-07 1.905824149e-09)
(0 5.793705327e-07 1.905824121e-09)
(0 4.211871307e-07 2.858736181e-09)
(0 3.020731277e-07 2.858736224e-09)
(0 2.163110377e-07 9.529120604e-10)
(0 1.515130176e-07 0)
(0 1.048203282e-07 0)
(0 7.242131659e-08 9.529120604e-10)
(0 4.764560302e-08 0)
(0 3.144609847e-08 0)
(0 2.286988945e-08 0)
(0 1.619950503e-08 0)
(0 1.14349449e-08 0)
(0 1.143494473e-08 0)
(0 1.085557419e-05 -3.301363833e-05)
(0 2.141098141e-05 -1.16007516e-05)
(0 1.952421521e-05 -4.28715136e-06)
(0 1.64110515e-05 -1.598986437e-06)
(0 1.36371247e-05 -5.688885086e-07)
(0 1.128914918e-05 -1.73429995e-07)
(0 9.292798413e-06 -2.477571357e-08)
(0 7.594709235e-06 2.477571394e-08)
(0 6.150094438e-06 3.811648242e-08)
(0 4.934178649e-06 3.525774624e-08)
(0 3.918374451e-06 2.954027432e-08)
(0 3.079811779e-06 2.382280151e-08)
(0 2.394668008e-06 2.001115327e-08)
(0 1.843884865e-06 1.52465932e-08)
(0 1.401733641e-06 9.529120604e-09)
(0 1.057732387e-06 7.623296483e-09)
(0 7.871053737e-07 5.717472448e-09)
(0 5.803234448e-07 4.764560302e-09)
(0 4.202342186e-07 3.811648242e-09)
(0 3.020731277e-07 9.529120747e-10)
(0 2.144052136e-07 1.905824121e-09)
(0 1.505601055e-07 1.905824121e-09)
(0 1.048203282e-07 0)
(0 7.242131659e-08 9.529120604e-10)
(0 4.859851508e-08 0)
(0 3.144609847e-08 9.529120747e-10)
(0 2.286988945e-08 1.905824121e-09)
(0 1.619950503e-08 9.529120604e-10)
(0 1.048203282e-08 9.529120747e-10)
(0 1.143494473e-08 0)
)
;

boundaryField
{
    lowerWall
    {
        type            calculated;
        value           nonuniform List<vector> 
20
(
(0 6.821210229e-09 0)
(0 8.526512786e-09 -9.529120604e-10)
(0 1.19371179e-08 -9.529120618e-10)
(0 1.19371179e-08 9.529120604e-10)
(0 1.023181534e-08 0)
(0 8.526512786e-09 0)
(0 1.023181534e-08 0)
(0 1.19371179e-08 0)
(0 8.526512786e-09 0)
(0 8.526512786e-09 0)
(0 8.526512786e-09 0)
(0 8.526512786e-09 0)
(0 1.19371179e-08 -1.905824121e-09)
(0 1.364242046e-08 0)
(0 1.364242046e-08 0)
(0 1.19371179e-08 9.529120604e-10)
(0 1.19371179e-08 9.529120604e-10)
(0 8.526512786e-09 0)
(0 1.023181534e-08 0)
(0 1.023181534e-08 0)
)
;
    }
    atmosphere
    {
        type            calculated;
        value           nonuniform 0();
    }
    rightWall
    {
        type            empty;
    }
    leftWall
    {
        type            empty;
    }
    frontAndBack
    {
        type            calculated;
        value           nonuniform 0();
    }
    procBoundary3to1
    {
        type            processor;
        value           nonuniform List<vector> 
30
(
(0 4.40121494e-05 3.120787003e-06)
(0 4.116008422e-05 8.214102096e-07)
(0 2.447554631e-05 -1.829591159e-07)
(0 1.757074551e-05 -5.507831717e-07)
(0 1.371621642e-05 -6.212986736e-07)
(0 1.105282701e-05 -5.69841413e-07)
(0 8.989772391e-06 -4.793147671e-07)
(0 7.304071064e-06 -3.859293908e-07)
(0 5.904243135e-06 -3.020731236e-07)
(0 4.731208387e-06 -2.334634552e-07)
(0 3.755426492e-06 -1.772416462e-07)
(0 2.95307448e-06 -1.343606007e-07)
(0 2.297470981e-06 -1.010086786e-07)
(0 1.768604813e-06 -7.337422986e-08)
(0 1.346464743e-06 -5.336307546e-08)
(0 1.013898434e-06 -3.906939454e-08)
(0 7.537534522e-07 -2.763445021e-08)
(0 5.5459482e-07 -1.905824124e-08)
(0 4.040347142e-07 -1.334076887e-08)
(0 2.896852711e-07 -9.529120761e-09)
(0 2.067819174e-07 -5.717472371e-09)
(0 1.457955455e-07 -3.811648247e-09)
(0 1.010086801e-07 -2.858736228e-09)
(0 7.051549258e-08 -2.858736186e-09)
(0 4.764560309e-08 -9.529120618e-10)
(0 3.144609851e-08 0)
(0 2.286988948e-08 0)
(0 1.429368093e-08 0)
(0 1.048203284e-08 0)
(0 7.623296495e-09 -9.529120618e-10)
)
;
    }
    procBoundary3to2
    {
        type            processor;
        value           nonuniform List<vector> 
20
(
(0 5.238919949e-05 4.88824831e-05)
(0 3.79992744e-05 1.249744173e-05)
(0 3.525107606e-05 -3.049318612e-07)
(0 3.832707615e-05 -1.316733891e-05)
(0 5.297142877e-05 -4.991639269e-05)
(0 3.509098684e-05 -1.223157928e-05)
(0 2.540272982e-05 3.679669938e-05)
(0 1.748212474e-05 1.434418531e-05)
(0 1.4065935e-05 7.897735201e-06)
(0 1.270517656e-05 2.751057132e-06)
(0 1.270422365e-05 -2.850159987e-06)
(0 1.406117044e-05 -7.99874388e-06)
(0 1.746497232e-05 -1.445853476e-05)
(0 2.533221433e-05 -3.697870558e-05)
(0 3.495090876e-05 1.194189401e-05)
(0 5.283706816e-05 4.956857978e-05)
(0 3.843284939e-05 1.27318581e-05)
(0 3.593812566e-05 -3.430483438e-07)
(0 3.945437113e-05 -1.346750621e-05)
(0 5.467428262e-05 -5.114374342e-05)
)
;
    }
    procBoundary3to5
    {
        type            processor;
        value           nonuniform List<vector> 
30
(
(0 4.528619283e-05 -4.917026239e-06)
(0 4.20901264e-05 -2.111653161e-06)
(0 2.52493109e-05 -7.871053631e-07)
(0 1.822158445e-05 -1.943940606e-07)
(0 1.426318796e-05 4.288104343e-08)
(0 1.150831897e-05 1.22925656e-07)
(0 9.36331392e-06 1.324547766e-07)
(0 7.607097104e-06 1.172081854e-07)
(0 6.145329887e-06 9.433829412e-08)
(0 4.924649536e-06 7.432714082e-08)
(0 3.907892424e-06 5.622181249e-08)
(0 3.070282663e-06 4.288104278e-08)
(0 2.387997627e-06 3.23990101e-08)
(0 1.836261571e-06 2.477571398e-08)
(0 1.399827819e-06 1.905824124e-08)
(0 1.054873652e-06 1.429368093e-08)
(0 7.832937266e-07 1.143494491e-08)
(0 5.774647095e-07 6.670384433e-09)
(0 4.192813072e-07 4.764560309e-09)
(0 3.011202161e-07 3.811648305e-09)
(0 2.144052139e-07 1.905824124e-09)
(0 1.496071937e-07 1.905824124e-09)
(0 1.038674163e-07 1.905824152e-09)
(0 7.24213167e-08 9.529120618e-10)
(0 4.764560309e-08 0)
(0 3.239901059e-08 9.529120761e-10)
(0 2.286988948e-08 0)
(0 1.619950505e-08 9.529120618e-10)
(0 1.143494491e-08 0)
(0 9.529120618e-09 0)
)
;
    }
}


// ************************************************************************* //
