/*--------------------------------*- C++ -*----------------------------------*\
  =========                 |
  \\      /  F ield         | OpenFOAM: The Open Source CFD Toolbox
   \\    /   O peration     | Website:  https://openfoam.org
    \\  /    A nd           | Version:  6
     \\/     M anipulation  |
\*---------------------------------------------------------------------------*/
FoamFile
{
    version     2.0;
    format      ascii;
    class       surfaceScalarField;
    location    "0.0004";
    object      phi;
}
// * * * * * * * * * * * * * * * * * * * * * * * * * * * * * * * * * * * * * //

dimensions      [0 3 -1 0 0 0 0];

internalField   nonuniform List<scalar> 
19000
(
2.457772361e-21
-6.608263387e-22
2.434851549e-21
-1.87189439e-21
2.361363714e-21
-3.031936553e-21
2.243546835e-21
-4.182321911e-21
2.081375282e-21
-5.340763328e-21
1.875409851e-21
-6.511566771e-21
1.623107825e-21
-7.693918125e-21
1.32310365e-21
-8.884937557e-21
9.720428685e-22
-1.008193214e-20
5.683981953e-22
-1.128228012e-20
1.089322007e-22
-1.248421113e-20
-4.076559325e-22
-1.368605034e-20
-9.844209055e-22
-1.488676933e-20
-1.622551408e-21
-1.608517399e-20
-2.325117292e-21
-1.728049277e-20
-3.093418063e-21
-1.847159733e-20
-3.930726181e-21
-1.965762935e-20
-4.838584918e-21
-2.083724267e-20
-5.820561444e-21
-2.200924605e-20
-6.87853205e-21
-2.317186043e-20
-8.016461906e-21
-2.432337261e-20
-9.236664659e-21
-2.546138035e-20
-1.054356511e-20
-2.658343608e-20
-1.19399407e-20
-2.768626717e-20
-1.343070634e-20
-2.876640424e-20
-1.501922016e-20
-2.981939818e-20
-1.671110939e-20
-3.084044093e-20
-1.851056072e-20
-3.182354115e-20
-2.042399354e-20
-3.276204802e-20
-2.245616871e-20
-3.364769451e-20
-2.461370766e-20
-3.447098017e-20
-2.690124611e-20
-3.522014524e-20
-2.932507587e-20
-3.588155858e-20
-3.188950921e-20
-3.643875136e-20
-3.460042196e-20
-3.687279978e-20
-3.746128265e-20
-3.716120921e-20
-4.047592414e-20
-3.727793431e-20
-4.364383186e-20
-3.719185641e-20
-4.696222311e-20
-3.686651614e-20
-5.04211011e-20
-3.625864901e-20
-5.400504961e-20
-3.531826239e-20
-5.768790454e-20
-3.398762059e-20
-6.143335137e-20
-3.220149489e-20
-6.518809941e-20
-2.988603911e-20
-6.888072286e-20
-2.695885202e-20
-7.241368723e-20
-2.332823297e-20
-7.566105043e-20
-1.889477239e-20
-7.845931644e-20
-1.355398779e-20
-8.06028126e-20
-7.203700204e-21
-8.18317086e-20
2.439597428e-22
-8.182363219e-20
8.840982254e-21
-8.017819177e-20
1.857062454e-20
-7.64052917e-20
2.929703234e-20
-6.990929098e-20
4.069452904e-20
-5.998389395e-20
5.215068289e-20
-4.582079576e-20
6.264313352e-20
-2.656463273e-20
7.059409624e-20
-1.434939186e-21
7.372770269e-20
3.009236967e-20
6.89895186e-20
6.825447991e-20
5.264791139e-20
1.13858822e-19
2.072032813e-20
1.712516929e-19
-3.046064554e-20
2.531757016e-19
-1.048771178e-19
3.749361335e-19
-2.124724406e-19
5.216979752e-19
-3.813335268e-19
4.247074557e-19
-6.309076152e-19
-2.665196104e-20
-7.231764932e-19
-6.937769886e-21
-2.94436103e-19
1.250725135e-21
6.937766047e-21
2.57256846e-21
3.53806533e-23
7.281071686e-21
-1.380450264e-20
2.303046942e-20
-3.196368065e-20
2.811186201e-20
-1.810716754e-20
2.655370843e-20
-6.487445658e-21
2.611623463e-20
-5.059523354e-21
2.751896723e-20
-5.397310297e-21
2.983257364e-20
-4.499425923e-21
3.215875608e-20
-1.822706981e-21
3.382467257e-20
2.499910993e-21
3.424581604e-20
8.216434078e-21
3.313700636e-20
1.462615694e-20
3.061155914e-20
2.082351055e-20
2.699912403e-20
2.617069117e-20
2.269951014e-20
3.033056668e-20
1.811233473e-20
3.318741464e-20
1.356985289e-20
3.483206163e-20
9.281902518e-21
3.551496559e-20
5.322021585e-21
3.555607852e-20
1.646698669e-21
3.525603205e-20
-1.866491546e-21
3.483734377e-20
-5.379867351e-21
3.441496001e-20
-9.055064373e-21
3.39861547e-20
-1.301332707e-20
3.34310927e-20
-1.72936648e-20
3.252452816e-20
-2.181833351e-20
3.096601792e-20
-2.637471426e-20
2.843946685e-20
-3.063146923e-20
2.470368199e-20
-3.419453915e-20
1.96828769e-20
-3.667773516e-20
1.351171171e-20
-3.777160768e-20
6.542477954e-21
-3.738595215e-20
-5.779301585e-22
-3.582898111e-20
-6.945029895e-21
-3.370492464e-20
-1.186273687e-20
-3.17038468e-20
-1.508594088e-20
-3.073738544e-20
-1.648501018e-20
-3.17473118e-20
-1.660015252e-20
-3.40270389e-20
-1.841268974e-20
-2.985562475e-20
-3.028938087e-20
-1.528603091e-20
-4.42223801e-20
-1.19604295e-20
-2.611183485e-20
-1.213181159e-20
-1.231899336e-20
-5.430470461e-21
-5.430474263e-21
-1.710339831e-19
-7.193926203e-20
-1.065903317e-18
2.728524569e-19
-1.315407671e-18
1.129464545e-18
-1.104888476e-18
2.038484981e-18
-7.131142372e-19
2.501433929e-18
-2.900335472e-19
2.378333927e-18
-2.693450012e-21
1.562666384e-18
-8.332916608e-32
1.362278741e-21
-7.714343051e-22
1.311222537e-21
-1.926682945e-21
1.210866796e-21
-2.995829799e-21
1.072790378e-21
-4.064336377e-21
8.970269079e-22
-5.152551482e-21
6.821655001e-22
-6.261080205e-21
4.244788523e-22
-7.385874172e-21
1.212952965e-22
-8.521639025e-21
-2.311290407e-22
-9.664335262e-21
-6.35023541e-22
-1.081031061e-20
-1.093594433e-21
-1.195733597e-20
-1.608557632e-21
-1.310323375e-20
-2.182729175e-21
-1.424682615e-20
-2.817572499e-21
-1.538659257e-20
-3.51580442e-21
-1.652170494e-20
-4.278902129e-21
-1.765075295e-20
-5.10969083e-21
-1.877284076e-20
-6.009799396e-21
-1.988634003e-20
-6.98226017e-21
-2.099001831e-20
-8.028948912e-21
-2.208180136e-20
-9.153196656e-21
-2.315992383e-20
-1.035720513e-20
-2.422168105e-20
-1.164462818e-20
-2.526456679e-20
-1.30179817e-20
-2.628501282e-20
-1.448125308e-20
-2.727951193e-20
-1.603736849e-20
-2.824335584e-20
-1.769081527e-20
-2.917174157e-20
-1.944503832e-20
-3.005845804e-20
-2.130487833e-20
-3.089689146e-20
-2.327378667e-20
-3.167859946e-20
-2.535617044e-20
-3.239421854e-20
-2.755471972e-20
-3.30320248e-20
-2.987292407e-20
-3.357889119e-20
-3.231254315e-20
-3.401893025e-20
-3.487588975e-20
-3.433442738e-20
-3.75627819e-20
-3.450433449e-20
-4.037201338e-20
-3.450487481e-20
-4.329768079e-20
-3.430777705e-20
-4.633027872e-20
-3.38808333e-20
-4.945304057e-20
-3.318650496e-20
-5.264281994e-20
-3.218310099e-20
-5.586575473e-20
-3.082406852e-20
-5.907656743e-20
-2.905954519e-20
-6.221242028e-20
-2.683590707e-20
-6.519050518e-20
-2.409773481e-20
-6.790094467e-20
-2.078867558e-20
-7.020346346e-20
-1.685600428e-20
-7.191891617e-20
-1.225587932e-20
-7.282320738e-20
-6.964505843e-21
-7.263513131e-20
-9.934527872e-22
-7.100577134e-20
5.583995861e-21
-6.750219864e-20
1.259482026e-20
-6.159394204e-20
1.970775187e-20
-5.263813109e-20
2.635211338e-20
-3.987540877e-20
3.160596514e-20
-2.243824353e-20
3.405570838e-20
6.125469788e-22
3.163176917e-20
3.022680863e-20
2.144807048e-20
6.730410545e-20
-3.077631257e-22
1.127422673e-19
-3.835913392e-20
1.677181651e-19
-9.815624217e-20
2.340399748e-19
-1.856189201e-19
3.122687829e-19
-3.072168132e-19
3.914330368e-19
-4.701420451e-19
4.240681574e-19
-6.781320646e-19
3.000540677e-19
-9.02466731e-19
5.682952587e-20
-1.022261126e-18
-1.596826167e-20
-7.332468066e-19
-5.651660258e-21
-2.656132146e-19
-1.126731495e-20
5.651664094e-21
-1.08781063e-20
-1.419195535e-20
3.688698253e-20
-7.972688465e-20
3.973158389e-20
-2.09512809e-20
2.798163078e-20
5.263239993e-21
2.577844768e-20
-2.855703949e-21
2.841685158e-20
-8.033475918e-21
3.250929262e-20
-8.588428491e-21
3.648137405e-20
-5.790194268e-21
3.954119572e-20
-5.553899517e-22
4.065553887e-20
7.106638373e-21
3.933435998e-20
1.595028856e-20
3.595873993e-20
2.420180663e-20
3.115899939e-20
3.097221292e-20
2.555635809e-20
3.593516775e-20
1.975698194e-20
3.898890487e-20
1.425275665e-20
4.033819127e-20
9.323015441e-21
4.044535305e-20
5.021975327e-21
3.985635376e-20
1.228010173e-21
3.904837228e-20
-2.288875305e-21
3.835313818e-20
-5.808672461e-21
3.793441751e-20
-9.610126573e-21
3.778773527e-20
-1.391989161e-20
3.774114495e-20
-1.885217486e-20
3.745813365e-20
-2.434488476e-20
3.645980759e-20
-3.011049912e-20
3.420433753e-20
-3.565227422e-20
3.024224434e-20
-4.036570448e-20
2.439401717e-20
-4.364696892e-20
1.678979097e-20
-4.489201582e-20
7.784683912e-21
-4.37530519e-20
-1.720312941e-21
-4.074668808e-20
-9.954051081e-21
-3.692812875e-20
-1.568482816e-20
-3.310291601e-20
-1.891393061e-20
-3.085252778e-20
-1.873868121e-20
-3.355984914e-20
-1.389473218e-20
-4.590372996e-20
-6.071962445e-21
-4.378862398e-20
-3.240951916e-20
2.824514243e-21
-9.083874769e-20
1.832412182e-21
-2.512125358e-20
-5.24329249e-21
-5.243288687e-21
-2.027624531e-19
-8.719890893e-20
-6.810151526e-19
-4.886159445e-20
-1.132343189e-18
2.616681863e-19
-1.274742467e-18
9.85888732e-19
-1.06593203e-18
1.658380962e-18
-6.768576251e-19
2.012195952e-18
-2.71404344e-19
1.900167519e-18
-2.920089641e-21
1.239735527e-18
-6.702439892e-32
3.978225069e-22
-1.231372986e-21
2.532782844e-22
-2.084284438e-21
1.091801839e-22
-2.993176746e-21
-5.256208086e-23
-3.958741865e-21
-2.409681557e-22
-4.969749933e-21
-4.63112088e-22
-6.013903353e-21
-7.243623171e-22
-7.080424257e-21
-1.029272858e-21
-8.161100791e-21
-1.381517722e-21
-9.249677462e-21
-1.784381458e-21
-1.034185357e-20
-2.240541497e-21
-1.143437887e-20
-2.752515212e-21
-1.252509128e-20
-3.32241624e-21
-1.36121485e-20
-3.952394044e-21
-1.469424268e-20
-4.644363739e-21
-1.576998394e-20
-5.400405006e-21
-1.683823006e-20
-6.22244764e-21
-1.789754228e-20
-7.112639904e-21
-1.894656949e-20
-8.073026496e-21
-1.998353519e-20
-9.105922685e-21
-2.100664698e-20
-1.021357743e-20
-2.201359771e-20
-1.139852291e-20
-2.300197559e-20
-1.266320768e-20
-2.396875247e-20
-1.401034204e-20
-2.491068443e-20
-1.544256665e-20
-2.582379305e-20
-1.696283822e-20
-2.670375812e-20
-1.857408405e-20
-2.754537468e-20
-2.02794653e-20
-2.834288014e-20
-2.208184185e-20
-2.908932558e-20
-2.398387102e-20
-2.977681634e-20
-2.598745699e-20
-3.039584021e-20
-2.809401291e-20
-3.093553357e-20
-3.030411907e-20
-3.138309194e-20
-3.261781489e-20
-3.172409423e-20
-3.50339213e-20
-3.194187622e-20
-3.754965092e-20
-3.201767232e-20
-4.015919836e-20
-3.192975596e-20
-4.285291478e-20
-3.165347167e-20
-4.561592851e-20
-3.116060255e-20
-4.842753854e-20
-3.041997744e-20
-5.125969209e-20
-2.939764277e-20
-5.407537846e-20
-2.805818784e-20
-5.682536594e-20
-2.636545342e-20
-5.944474458e-20
-2.428440837e-20
-6.184847429e-20
-2.178298991e-20
-6.392750244e-20
-1.88361954e-20
-6.554397775e-20
-1.543159248e-20
-6.652616659e-20
-1.157869865e-20
-6.666122808e-20
-7.321956805e-21
-6.568692064e-20
-2.761037483e-21
-6.32812528e-20
1.919704997e-21
-5.905224698e-20
6.406413922e-21
-5.252860552e-20
1.01915272e-20
-4.315659621e-20
1.248290189e-20
-3.030816998e-20
1.20833538e-20
-1.330928474e-20
7.238935464e-21
8.50511329e-21
-4.533715332e-21
3.570354272e-20
-2.661741951e-20
6.863889033e-20
-6.341358314e-20
1.072883562e-19
-1.203414341e-19
1.509521622e-19
-2.036304539e-19
1.973883515e-19
-3.198027261e-19
2.402019393e-19
-4.745753646e-19
2.630931681e-19
-6.700832106e-19
2.342866768e-19
-8.970812157e-19
1.198896869e-19
-1.116269177e-18
-3.651532377e-20
-1.233929416e-18
-9.175142528e-20
-1.115316038e-18
-3.709330134e-20
-7.902028934e-19
-3.11109343e-20
-2.832257687e-19
-7.641303505e-20
3.11109343e-20
9.566258553e-20
-2.518027947e-19
6.594610442e-20
8.765906424e-21
1.986268669e-20
5.134684374e-20
2.060067561e-20
-3.591660654e-21
2.786189879e-20
-1.529137426e-20
3.530752668e-20
-1.602970579e-20
4.17161781e-20
-1.219477462e-20
4.72032238e-20
-6.037808198e-21
4.949918871e-20
4.814032388e-21
4.758587774e-20
1.786741656e-20
4.272914615e-20
2.906024532e-20
3.612195383e-20
3.758133591e-20
2.861009503e-20
4.344932566e-20
2.110626845e-20
4.649517098e-20
1.435991811e-20
4.708607004e-20
8.734016097e-21
4.607111272e-20
4.213994054e-21
4.437461338e-20
5.327758355e-22
4.272763483e-20
-2.707595957e-21
4.159247544e-20
-5.955354436e-21
4.118206078e-20
-9.656717059e-21
4.148938328e-20
-1.420290283e-20
4.228890951e-20
-1.985050059e-20
4.310836149e-20
-2.660035488e-20
4.321103481e-20
-3.407259209e-20
4.167475977e-20
-4.1500501e-20
3.76686696e-20
-4.796993053e-20
3.085972439e-20
-5.265207564e-20
2.146905466e-20
-5.439701235e-20
9.52572821e-21
-5.198678972e-20
-4.133893788e-21
-4.647746486e-20
-1.546784586e-20
-4.015723108e-20
-2.200793154e-20
-3.292766631e-20
-2.614661863e-20
-2.600857861e-20
-2.565820878e-20
-2.573707928e-20
-1.417380431e-20
-7.224128621e-20
4.042998359e-20
-1.022178517e-19
-2.434185695e-21
6.854200778e-20
-2.615997225e-19
2.17103771e-20
2.17103771e-20
-1.050018054e-19
-2.182125017e-19
-4.351998298e-19
-2.788238207e-19
-7.53392335e-19
-1.961146767e-19
-1.01836488e-18
1.539518979e-19
-1.057811782e-18
7.141006779e-19
-8.640274265e-19
1.234464386e-18
-5.303667205e-19
1.51885233e-18
-1.886281231e-19
1.442195465e-18
1.642655759e-20
9.371679035e-19
-5.424711615e-32
-6.495786723e-22
-1.764029523e-21
-8.180505921e-22
-2.264220081e-21
-9.753878271e-22
-2.998302449e-21
-1.145235714e-21
-3.856498981e-21
-1.33840957e-21
-4.789432097e-21
-1.562939812e-21
-5.769103524e-21
-1.825032677e-21
-6.777900923e-21
-2.129360778e-21
-7.803866675e-21
-2.480015974e-21
-8.839062478e-21
-2.880165509e-21
-9.877921085e-21
-3.332764001e-21
-1.091679152e-20
-3.840105702e-21
-1.195292573e-20
-4.404504477e-21
-1.298445319e-20
-5.027819251e-21
-1.400968161e-20
-5.712100767e-21
-1.502730118e-20
-6.459062626e-21
-1.603583492e-20
-7.270692284e-21
-1.703395126e-20
-8.148690653e-21
-1.801997487e-20
-9.095080639e-21
-1.899224676e-20
-1.011165075e-20
-1.994866544e-20
-1.120054502e-20
-2.088706184e-20
-1.23636697e-20
-2.180473919e-20
-1.360325751e-20
-2.269884764e-20
-1.492127561e-20
-2.356591785e-20
-1.632001924e-20
-2.440222196e-20
-1.78015441e-20
-2.520329646e-20
-1.936821162e-20
-2.596426846e-20
-2.102197886e-20
-2.667931562e-20
-2.276475546e-20
-2.7341923e-20
-2.459757505e-20
-2.794429264e-20
-2.652099467e-20
-2.84775982e-20
-2.853447845e-20
-2.893146259e-20
-3.063698513e-20
-2.92942854e-20
-3.282629057e-20
-2.95527477e-20
-3.509911188e-20
-2.969205541e-20
-3.744971935e-20
-2.969527447e-20
-3.986944737e-20
-2.954343057e-20
-4.234518806e-20
-2.921493031e-20
-4.485925828e-20
-2.868607787e-20
-4.738832382e-20
-2.793122595e-20
-4.990305132e-20
-2.692408665e-20
-5.236587776e-20
-2.563856108e-20
-5.47289038e-20
-2.405062131e-20
-5.693025452e-20
-2.21400319e-20
-5.889157129e-20
-1.989397951e-20
-6.051487187e-20
-1.731182992e-20
-6.168044646e-20
-1.441315221e-20
-6.224322406e-20
-1.124834629e-20
-6.202930242e-20
-7.914580256e-21
-6.083110657e-20
-4.577895271e-21
-5.840407218e-20
-1.506376975e-21
-5.446461077e-20
8.823682559e-22
-4.869429013e-20
1.95267183e-21
-4.075373471e-20
7.573437151e-22
-3.031585775e-20
-4.085567959e-21
-1.712598416e-20
-1.454327192e-20
-1.100055663e-21
-3.333644306e-20
1.753041854e-20
-6.409688474e-20
3.801011964e-20
-1.114647565e-19
5.875675659e-20
-1.810412206e-19
7.687856441e-20
-2.79070391e-19
8.735033549e-20
-4.11643818e-19
8.170748398e-20
-5.830411992e-19
4.69784636e-20
-7.924052478e-19
-3.119577177e-20
-1.027521403e-18
-1.525815411e-19
-1.255619681e-18
-2.675644982e-19
-1.418669233e-18
-2.665676816e-19
-1.455398383e-18
-1.717695045e-19
-1.376136567e-18
1.766618976e-19
-1.181702927e-18
7.139858386e-19
-8.916848599e-19
3.562312864e-19
1.05952041e-19
1.085270424e-19
2.564701972e-19
-3.50758179e-20
1.94951707e-19
8.900962156e-21
-4.756572329e-20
2.712356733e-20
-3.351128276e-20
3.914245816e-20
-2.804690117e-20
4.787314475e-20
-2.092165562e-20
5.80550647e-20
-1.621722759e-20
6.255257315e-20
3.200875791e-22
5.877870676e-20
2.164326997e-20
5.125023721e-20
3.659217434e-20
4.198994357e-20
4.68448058e-20
3.165594051e-20
5.378649429e-20
2.169716792e-20
5.645689295e-20
1.33449606e-20
5.543974603e-20
7.03751681e-21
5.237770522e-20
2.567015793e-21
4.884272366e-20
-6.023838076e-22
4.589476609e-20
-3.118010635e-21
4.410718906e-20
-5.648031727e-21
4.37121931e-20
-8.857191133e-21
4.469957371e-20
-1.338345093e-20
4.681779026e-20
-1.974782714e-20
4.947619437e-20
-2.813663034e-20
5.160038859e-20
-3.807868245e-20
5.161565466e-20
-4.830944627e-20
4.789611424e-20
-5.736060074e-20
3.990937524e-20
-6.459540237e-20
2.869930152e-20
-6.80566347e-20
1.29818354e-20
-6.332074208e-20
-8.874340716e-21
-5.30175508e-20
-2.57706157e-20
-4.429591856e-20
-3.073302593e-20
-3.24392565e-20
-3.800422683e-20
-1.452417433e-20
-4.357800944e-20
2.886670871e-20
-5.756668053e-20
-1.151054562e-19
1.844014326e-19
-3.613833884e-19
2.438434385e-19
-7.214604953e-19
9.847738437e-20
-4.183466091e-19
-7.354255704e-19
-3.841198504e-19
-8.919612098e-19
-4.938961801e-19
-7.589276311e-19
-6.252620766e-19
-4.863903831e-19
-7.447668943e-19
-8.874721454e-20
-7.3430874e-19
3.934026294e-19
-5.722626602e-19
8.245384344e-19
-3.16807892e-19
1.070689685e-18
-6.926679495e-20
1.03645881e-18
4.909357372e-20
6.783918482e-19
-4.434585422e-32
-1.818981806e-21
-1.99642261e-21
-1.918330865e-21
-2.362310253e-21
-2.049387355e-21
-2.978978079e-21
-2.208386214e-21
-3.747028422e-21
-2.396657858e-21
-4.607802311e-21
-2.618424537e-21
-5.525694565e-21
-2.878084025e-21
-6.478141845e-21
-3.179784075e-21
-7.450501684e-21
-3.527108563e-21
-8.433086532e-21
-3.9232428e-21
-9.419524243e-21
-4.370858304e-21
-1.04054818e-20
-4.872356261e-21
-1.138800832e-20
-5.429792357e-21
-1.23648888e-20
-6.045122712e-21
-1.333441524e-20
-6.720100426e-21
-1.429502842e-20
-7.456483941e-21
-1.52452893e-20
-8.255893154e-21
-1.61836427e-20
-9.12000503e-21
-1.71084687e-20
-1.00504068e-20
-1.801790428e-20
-1.104879255e-20
-1.890992827e-20
-1.211679342e-20
-1.978220033e-20
-1.325613885e-20
-2.06321497e-20
-1.446845719e-20
-2.145681239e-20
-1.575543342e-20
-2.225291595e-20
-1.711863864e-20
-2.30167059e-20
-1.855968933e-20
-2.374401127e-20
-2.008000689e-20
-2.443003075e-20
-2.168082832e-20
-2.506934019e-20
-2.336279655e-20
-2.565563068e-20
-2.512590103e-20
-2.618170563e-20
-2.696916982e-20
-2.663925603e-20
-2.889082273e-20
-2.701892933e-20
-3.088811289e-20
-2.731016582e-20
-3.295731639e-20
-2.750123936e-20
-3.509304082e-20
-2.757897386e-20
-3.728754675e-20
-2.752864169e-20
-3.952965959e-20
-2.733364924e-20
-4.180428254e-20
-2.697568278e-20
-4.409196041e-20
-2.643496159e-20
-4.636888965e-20
-2.56911143e-20
-4.860618309e-20
-2.472411431e-20
-5.076865692e-20
-2.351568416e-20
-5.281263261e-20
-2.205081916e-20
-5.468406484e-20
-2.032036642e-20
-5.631701591e-20
-1.832479576e-20
-5.763329318e-20
-1.608028137e-20
-5.854222333e-20
-1.362713302e-20
-5.894083445e-20
-1.104174114e-20
-5.871411935e-20
-8.452814175e-21
-5.773717932e-20
-6.064683584e-21
-5.588033079e-20
-4.190548448e-21
-5.30202714e-20
-3.300475136e-21
-4.906053428e-20
-4.088353525e-21
-4.3968365e-20
-7.562683871e-21
-3.783633075e-20
-1.516290098e-20
-3.097946658e-20
-2.889895753e-20
-2.407697038e-20
-5.150105423e-20
-1.836777139e-20
-8.655118584e-20
-1.59080898e-20
-1.385428106e-19
-1.989975049e-20
-2.127821669e-19
-3.508643311e-20
-3.149981005e-19
-6.815720825e-20
-4.504658365e-19
-1.27871722e-19
-6.223669892e-19
-2.239643127e-19
-8.290483202e-19
-3.626804154e-19
-1.060100413e-18
-5.367475494e-19
-1.292541223e-18
-7.131801599e-19
-1.491718616e-18
-8.418944908e-19
-1.62389644e-18
-8.829495384e-19
-1.676425184e-18
-7.944304378e-19
-1.624307393e-18
-6.184985678e-19
-1.199174242e-18
5.744543132e-31
-1.627493896e-19
-7.729293266e-19
1.289445858e-18
-2.775932501e-19
-3.003832748e-19
2.295540268e-20
-3.481139535e-19
3.258794877e-20
-4.314426424e-20
4.62677039e-20
-4.172227739e-20
5.257757278e-20
-2.722848762e-20
7.459237992e-20
-3.82268383e-20
8.38757556e-20
-8.958919737e-21
7.372761113e-20
3.179792469e-20
6.150286898e-20
4.881945864e-20
4.89316318e-20
5.94186347e-20
3.432633918e-20
6.839535886e-20
2.068002133e-20
7.01063504e-20
1.028291944e-20
6.583783935e-20
3.50253525e-21
5.915645422e-20
-3.809415127e-22
5.272321393e-20
-2.389961112e-21
4.790155297e-20
-3.513006601e-21
4.522954642e-20
-4.66065084e-21
4.486017557e-20
-6.738974845e-21
4.677984698e-20
-1.072504682e-20
5.080790933e-20
-1.76236326e-20
5.63775599e-20
-2.812136458e-20
6.209854311e-20
-4.179822288e-20
6.529021331e-20
-5.629618505e-20
6.239358e-20
-6.857067473e-20
5.217949355e-20
-8.031286849e-20
4.043716977e-20
-8.991281094e-20
2.257686372e-20
-8.021701706e-20
-1.856884036e-20
-5.797996103e-20
-4.801549872e-20
-5.156711972e-20
-3.715211019e-20
-3.80130389e-20
-5.156130741e-20
-2.851284541e-20
-5.30793585e-20
2.708348236e-19
-3.569151368e-19
7.642744288e-19
-3.090381726e-19
-6.64867309e-31
1.321231566e-18
2.909875346e-19
6.806512478e-20
3.104025839e-19
-9.441287846e-19
1.435875454e-19
-1.213361572e-18
-3.481359936e-20
-1.047492662e-18
-2.049064837e-19
-7.275862294e-19
-3.187949932e-19
-3.212051893e-19
-3.279864091e-19
1.097876733e-19
-2.306363029e-19
4.775041656e-19
-7.1376744e-20
6.937676946e-19
7.039814493e-20
7.000115018e-19
9.015290734e-20
4.632822669e-19
-3.538371038e-32
-2.903721563e-21
-2.092198884e-21
-2.975301926e-21
-2.39115152e-21
-3.085749363e-21
-2.929295994e-21
-3.231875237e-21
-3.625424333e-21
-3.412067564e-21
-4.422536879e-21
-3.628244242e-21
-5.282750437e-21
-3.883402245e-21
-6.181157009e-21
-4.180749385e-21
-7.101313312e-21
-4.523419487e-21
-8.032431395e-21
-4.914233555e-21
-8.967375756e-21
-5.35573454e-21
-9.901418401e-21
-5.850131656e-21
-1.083128703e-20
-6.399434365e-21
-1.175463644e-20
-7.005427384e-21
-1.266958571e-20
-7.669806483e-21
-1.357453206e-20
-8.394117747e-21
-1.446790639e-20
-9.179866743e-21
-1.534813589e-20
-1.002846219e-20
-1.621349747e-20
-1.094131997e-20
-1.706213697e-20
-1.191980682e-20
-1.789196486e-20
-1.296531964e-20
-1.870069601e-20
-1.407919049e-20
-1.948574804e-20
-1.526273552e-20
-2.024428104e-20
-1.651715303e-20
-2.097309377e-20
-1.784359038e-20
-2.166865333e-20
-1.924302433e-20
-2.232696395e-20
-2.071624777e-20
-2.294355591e-20
-2.226360926e-20
-2.351330919e-20
-2.388486599e-20
-2.403041871e-20
-2.557890054e-20
-2.448823643e-20
-2.734370023e-20
-2.487929657e-20
-2.917627481e-20
-2.519522765e-20
-3.107270719e-20
-2.542679999e-20
-3.302782624e-20
-2.556376397e-20
-3.503471603e-20
-2.559475529e-20
-3.708383833e-20
-2.550702866e-20
-3.916240427e-20
-2.528644459e-20
-4.125398607e-20
-2.491758071e-20
-4.33387004e-20
-2.438432795e-20
-4.539328765e-20
-2.367063637e-20
-4.73908879e-20
-2.276157868e-20
-4.929999315e-20
-2.164442711e-20
-5.108332e-20
-2.031030025e-20
-5.269708688e-20
-1.875660816e-20
-5.40916762e-20
-1.699119976e-20
-5.521337515e-20
-1.503835767e-20
-5.600720155e-20
-1.29472995e-20
-5.642048456e-20
-1.080342086e-20
-5.640857009e-20
-8.743823203e-21
-5.594421723e-20
-6.978963916e-21
-5.503349267e-20
-5.823799878e-21
-5.374080503e-20
-5.741780015e-21
-5.222799681e-20
-7.405921057e-21
-5.08140951e-20
-1.177990509e-20
-5.006531616e-20
-2.022063218e-20
-5.092431828e-20
-3.459790154e-20
-5.48859674e-20
-5.741842449e-20
-6.422100819e-20
-9.192577938e-20
-8.224143643e-20
-1.421273126e-19
-1.135830461e-19
-2.126696715e-19
-1.644417017e-19
-3.084520532e-19
-2.426106897e-19
-4.33833801e-19
-3.56991584e-19
-5.912860001e-19
-5.159636029e-19
-7.79410846e-19
-7.23822451e-19
-9.905670877e-19
-9.753976697e-19
-1.209078779e-18
-1.252054625e-18
-1.411871369e-18
-1.526708259e-18
-1.572218617e-18
-1.771439701e-18
-1.659640947e-18
-1.947206214e-18
-1.610485461e-18
-1.858323788e-18
-1.291180552e-18
-1.505230567e-18
-4.152275112e-19
2.623698978e-19
-6.619131777e-22
7.479886719e-19
-7.774447077e-19
3.279250891e-19
7.194919656e-20
3.400993516e-20
2.507735567e-19
6.076149355e-20
-6.846946351e-20
4.157922189e-20
-8.03859079e-21
1.038602978e-19
-1.005015081e-19
1.246325993e-19
-2.972553535e-20
9.074914449e-20
6.567755299e-20
7.210204495e-20
6.747404721e-20
5.790835526e-20
7.361484354e-20
3.60373305e-20
9.026785309e-20
1.641151058e-20
8.973345641e-20
3.601533897e-21
7.864735228e-20
-2.930705008e-21
6.568589336e-20
-5.202602155e-21
5.499152909e-20
-5.061967913e-21
4.775859163e-20
-3.882377428e-21
4.404944739e-20
-2.740979135e-21
4.371971028e-20
-2.710912753e-21
4.67523315e-20
-5.155396238e-21
5.325595718e-20
-1.190264895e-20
6.312757345e-20
-2.492969461e-20
7.51249545e-20
-4.46948559e-20
8.505586929e-20
-6.651027079e-20
8.42091616e-20
-8.031299834e-20
6.598910515e-20
-9.81731739e-20
5.828565033e-20
-1.310585143e-19
5.546096448e-20
-1.096636746e-19
-3.996926e-20
-4.711657225e-20
-1.105717844e-19
-6.597631685e-20
-1.830192745e-20
-3.953108945e-20
-7.800904654e-20
-3.323486208e-19
2.397378839e-19
-7.546008129e-19
6.533705547e-20
-4.259990114e-19
-7.259969031e-19
1.060974835e-18
1.987441825e-19
1.34334377e-18
-9.774981355e-20
1.259657844e-18
-9.048678614e-19
9.436899508e-19
-1.175607742e-18
6.226885311e-19
-1.083017835e-18
3.610065471e-19
-8.078327154e-19
1.827616097e-19
-4.524803761e-19
1.094284468e-19
-8.756008508e-20
1.2012535e-19
2.203331714e-19
1.790199392e-19
4.097184013e-19
2.136465241e-19
4.41812419e-19
1.32245373e-19
2.9805804e-19
-2.750310481e-32
-3.915020089e-21
-2.106230051e-21
-3.974578908e-21
-2.367342715e-21
-4.072630683e-21
-2.851642571e-21
-4.208703851e-21
-3.490950887e-21
-4.38102832e-21
-4.232781901e-21
-4.590903933e-21
-5.039963811e-21
-4.84052019e-21
-5.88700106e-21
-5.132477311e-21
-6.756707531e-21
-5.469430042e-21
-7.637635644e-21
-5.853917389e-21
-8.522214681e-21
-6.288245736e-21
-9.405389369e-21
-6.774501899e-21
-1.028370734e-20
-7.314543325e-21
-1.115466322e-20
-7.910068539e-21
-1.201630295e-20
-8.562614314e-21
-1.286692395e-20
-9.273610371e-21
-1.370492134e-20
-1.004436267e-20
-1.452865014e-20
-1.08761155e-20
-1.533637729e-20
-1.177004094e-20
-1.612621429e-20
-1.27272961e-20
-1.689610812e-20
-1.374898307e-20
-1.764379109e-20
-1.483616686e-20
-1.836678207e-20
-1.598980432e-20
-1.906233655e-20
-1.721075167e-20
-1.972744524e-20
-1.849969252e-20
-2.035877128e-20
-1.985711703e-20
-2.095262197e-20
-2.128317095e-20
-2.150485107e-20
-2.277751247e-20
-2.201079382e-20
-2.433906629e-20
-2.246516857e-20
-2.596589741e-20
-2.286205788e-20
-2.765509377e-20
-2.319487227e-20
-2.940279603e-20
-2.345638658e-20
-3.120406987e-20
-2.363868289e-20
-3.305263382e-20
-2.373307089e-20
-3.494023554e-20
-2.372989025e-20
-3.685601311e-20
-2.361837684e-20
-3.878600486e-20
-2.338664273e-20
-4.071321357e-20
-2.302198567e-20
-4.261796304e-20
-2.251142429e-20
-4.447829803e-20
-2.18424498e-20
-4.626984613e-20
-2.100375898e-20
-4.796536768e-20
-1.998614761e-20
-4.953446067e-20
-1.878379276e-20
-5.094449347e-20
-1.739659008e-20
-5.216307001e-20
-1.583386332e-20
-5.316214283e-20
-1.41198254e-20
-5.392336899e-20
-1.230078534e-20
-5.44454534e-20
-1.045469148e-20
-5.475500217e-20
-8.703964364e-21
-5.492370703e-20
-7.233662978e-21
-5.509461174e-20
-6.317365055e-21
-5.552112231e-20
-6.353853034e-21
-5.66233545e-20
-7.917445011e-21
-5.906905533e-20
-1.182446322e-20
-6.388729497e-20
-1.921587713e-20
-7.262257838e-20
-3.165215247e-20
-8.753158852e-20
-5.120811642e-20
-1.118165656e-19
-8.054444688e-20
-1.498738863e-19
-1.229152104e-19
-2.075118042e-19
-1.820512406e-19
-2.920459311e-19
-2.618377597e-19
-4.121106337e-19
-3.656946972e-19
-5.769296553e-19
-4.955866509e-19
-7.947168716e-19
-6.506737953e-19
-1.069991884e-18
-8.258093394e-19
-1.400234649e-18
-1.010370735e-18
-1.773366447e-18
-1.187936131e-18
-2.167501638e-18
-1.336253115e-18
-2.547360158e-18
-1.424261482e-18
-2.844536026e-18
-1.401818687e-18
-2.898718863e-18
-1.202919099e-18
-2.480427613e-18
-7.992070416e-19
-1.538020763e-18
-5.433213727e-19
-8.163948883e-19
-8.171199228e-19
1.444258579e-30
-1.55739219e-19
-3.185835983e-20
3.335812267e-19
1.21192367e-19
-2.215163551e-19
-5.088369487e-20
1.640407168e-19
1.74636271e-19
-3.260202687e-19
2.200356886e-19
-7.513329582e-20
9.254563926e-20
1.931798553e-19
7.824284215e-20
8.177758664e-20
7.456136472e-20
7.730163924e-20
3.550293403e-20
1.293286016e-19
5.325407015e-21
1.199117897e-19
-9.359925472e-21
9.333113882e-20
-1.362506926e-20
6.994721721e-20
-1.243553936e-20
5.379793412e-20
-8.77111247e-21
4.409192316e-20
-4.212114561e-21
3.949006006e-20
2.91642349e-22
3.921692366e-20
3.792712627e-21
4.325400784e-20
4.716219971e-21
5.233636308e-20
9.473247349e-23
6.775208544e-20
-1.499878041e-20
9.022055228e-20
-4.554156386e-20
1.156030993e-19
-8.473032724e-20
1.234143761e-19
-8.801645404e-20
6.925169016e-20
-1.009978603e-19
7.126327458e-20
-2.264887398e-19
1.809550466e-19
-1.802661995e-19
-8.619384685e-20
4.515328416e-20
-3.359982639e-19
-1.256834368e-19
1.52532403e-19
2.484111577e-20
-2.285335991e-19
-1.512028503e-30
3.405730283e-19
6.107108788e-19
-8.55574876e-20
9.79700716e-19
-6.598577946e-19
1.746696453e-18
-2.904635222e-19
2.114963151e-18
-4.465126452e-19
1.998834734e-18
-8.285964813e-19
1.646564439e-18
-9.99257099e-19
1.255800108e-18
-9.414068832e-19
9.209638423e-19
-7.387123718e-19
6.7275477e-19
-4.64452969e-19
5.230022596e-19
-1.777850144e-19
4.45336571e-19
6.274520788e-20
4.08759848e-19
2.187900792e-19
3.470108805e-19
2.630203782e-19
1.722255707e-19
1.843349774e-19
-2.001060602e-32
-4.862109947e-21
-2.07177132e-21
-4.916098533e-21
-2.308062101e-21
-5.006969561e-21
-2.752682816e-21
-5.135990368e-21
-3.345752475e-21
-5.301748975e-21
-4.039197921e-21
-5.505551563e-21
-4.79762568e-21
-5.749314811e-21
-5.596015866e-21
-6.035271808e-21
-6.417113716e-21
-6.365772019e-21
-7.249268639e-21
-6.743098041e-21
-8.084690288e-21
-7.169381041e-21
-8.918158904e-21
-7.646553749e-21
-9.746087059e-21
-8.176365118e-21
-1.056588414e-20
-8.760384761e-21
-1.13755151e-20
-9.40003577e-21
-1.21732301e-20
-1.009659487e-20
-1.295737115e-20
-1.085122091e-20
-1.372627104e-20
-1.166497399e-20
-1.447817801e-20
-1.253884656e-20
-1.521122281e-20
-1.347377348e-20
-1.592338292e-20
-1.447063994e-20
-1.661247253e-20
-1.553024456e-20
-1.727610929e-20
-1.665327529e-20
-1.791171042e-20
-1.784025699e-20
-1.851646008e-20
-1.909151119e-20
-1.908728826e-20
-2.040707039e-20
-1.962081572e-20
-2.178656182e-20
-2.011330241e-20
-2.322903062e-20
-2.056057226e-20
-2.473277093e-20
-2.095797862e-20
-2.62951802e-20
-2.130038152e-20
-2.791270743e-20
-2.158217728e-20
-2.958079281e-20
-2.179729904e-20
-3.129372711e-20
-2.193919153e-20
-3.30442739e-20
-2.200067545e-20
-3.482312085e-20
-2.197378571e-20
-3.66183565e-20
-2.184964553e-20
-3.841529342e-20
-2.161853946e-20
-4.019674886e-20
-2.12702201e-20
-4.194362627e-20
-2.079441588e-20
-4.363533111e-20
-2.018132304e-20
-4.524984537e-20
-1.942204564e-20
-4.676370577e-20
-1.850905011e-20
-4.815276407e-20
-1.743709701e-20
-4.939447162e-20
-1.620502783e-20