/*--------------------------------*- C++ -*----------------------------------*\
  =========                 |
  \\      /  F ield         | OpenFOAM: The Open Source CFD Toolbox
   \\    /   O peration     | Website:  https://openfoam.org
    \\  /    A nd           | Version:  6
     \\/     M anipulation  |
\*---------------------------------------------------------------------------*/
FoamFile
{
    version     2.0;
    format      ascii;
    class       volScalarField;
    location    "0.0004";
    object      ViscousDissipation;
}
// * * * * * * * * * * * * * * * * * * * * * * * * * * * * * * * * * * * * * //

dimensions      [1 -1 -3 0 0 0 0];

internalField   nonuniform List<scalar> 
9600
(
9.824052971e-21
9.660035038e-21
9.750508421e-21
9.991931259e-21
1.029817345e-20
1.061702843e-20
1.093224482e-20
1.124601427e-20
1.156800026e-20
1.190933648e-20
1.22803114e-20
1.268962094e-20
1.314443995e-20
1.365108877e-20
1.421511793e-20
1.484220093e-20
1.553759173e-20
1.630723299e-20
1.715686107e-20
1.809364482e-20
1.912479907e-20
2.025948359e-20
2.150674544e-20
2.287805941e-20
2.438536391e-20
2.60447871e-20
2.78742368e-20
2.989679704e-20
3.213635746e-20
3.462103154e-20
3.737962162e-20
4.044926229e-20
4.387524242e-20
4.772119377e-20
5.206646629e-20
5.701316397e-20
6.268162836e-20
6.922421845e-20
7.683466104e-20
8.578108943e-20
9.643218075e-20
1.093094942e-19
1.251534774e-19
1.450729005e-19
1.708035035e-19
2.051792293e-19
2.528810248e-19
3.216380412e-19
4.240712026e-19
5.805127764e-19
8.231683018e-19
1.202178281e-18
1.794327516e-18
2.71573617e-18
4.14067845e-18
6.330132475e-18
9.674514206e-18
1.475593084e-17
2.244745916e-17
3.417092478e-17
5.290351664e-17
8.686033076e-17
1.584783616e-16
3.04198047e-16
5.103829948e-16
9.350615848e-16
3.456170785e-16
5.724472263e-16
1.320521684e-15
1.892215642e-15
2.520497171e-15
3.957255732e-15
1.370803023e-15
4.588564523e-16
2.636129374e-17
4.151187279e-17
1.329788441e-16
2.327232131e-16
3.290993767e-16
4.07575232e-16
4.527983845e-16
4.619875723e-16
4.446062348e-16
4.097452004e-16
3.632561804e-16
3.116729229e-16
2.620610738e-16
2.203327103e-16
1.905737042e-16
1.753847355e-16
1.764525307e-16
1.948793424e-16
2.310418509e-16
2.839694404e-16
3.503305965e-16
4.235379642e-16
4.940118248e-16
5.511657951e-16
5.843714862e-16
5.792800957e-16
5.217584141e-16
4.155171097e-16
2.841686119e-16
1.520782766e-16
4.594295776e-17
5.895941582e-17
5.578097696e-16
1.319459393e-15
3.4450791e-15
2.321689303e-15
1.85202367e-15
2.037131553e-15
3.538610612e-16
1.868348949e-15
2.816633682e-15
1.249864428e-15
1.207440563e-15
1.970752679e-15
3.97111285e-15
1.453384453e-15
9.026323157e-21
8.65604569e-21
8.736201743e-21
9.041791913e-21
9.396436381e-21
9.73860144e-21
1.005803498e-20
1.03642153e-20
1.067094128e-20
1.099224772e-20
1.133909864e-20
1.172108969e-20
1.21448137e-20
1.261692198e-20
1.314190745e-20
1.372551312e-20
1.43715506e-20
1.508579745e-20
1.587217744e-20
1.673748658e-20
1.768662492e-20
1.872786928e-20
1.986716531e-20
2.111445439e-20
2.247766692e-20
2.397040658e-20
2.560471342e-20
2.739849369e-20
2.936597282e-20
3.152608695e-20
3.389399985e-20
3.649423322e-20
3.935417943e-20
4.2518164e-20
4.603604805e-20
4.997384018e-20
5.440118279e-20
5.94107282e-20
6.511763948e-20
7.169043779e-20
7.935156631e-20
8.840755131e-20
9.926543605e-20
1.125246263e-19
1.291204295e-19
1.50620041e-19
1.796794472e-19
2.208401183e-19
2.818365079e-19
3.758128927e-19
5.24974465e-19
7.666365291e-19
1.163311585e-18
1.819811602e-18
2.912764005e-18
4.741916885e-18
7.818521065e-18
1.301252258e-17
2.179001492e-17
3.661313198e-17
6.174807718e-17
1.05036425e-16
1.802305142e-16
3.010643697e-16
4.362606991e-16
4.062940566e-16
1.409644577e-17
8.469586141e-16
3.004676025e-16
1.19896719e-15
1.360232004e-14
3.963734412e-14
1.163577629e-14
3.303158224e-15
2.184748802e-16
1.312469703e-16
2.669567711e-16
4.203370803e-16
5.941469606e-16
7.37376166e-16
7.993453156e-16
7.802792452e-16
7.202506016e-16
6.399326528e-16
5.425372932e-16
4.384568247e-16
3.415341148e-16
2.622623354e-16
2.065010511e-16
1.771286018e-16
1.758606149e-16
2.042867796e-16
2.637859812e-16
3.54216371e-16
4.713183991e-16
6.039040247e-16
7.341698448e-16
8.455107917e-16
9.284940874e-16
9.54949866e-16
8.746854313e-16
6.878657778e-16
4.62395736e-16
2.596426975e-16
9.20932251e-17
2.233723619e-16
3.560247756e-15
1.159093246e-14
3.809218095e-14
1.364966924e-14
2.053022718e-15
1.45985174e-16
5.762802078e-16
1.030797654e-15
1.630652079e-15
1.671670201e-15
1.595947147e-15
1.793153666e-15
2.701044478e-15
9.523863352e-16
1.024123476e-20
7.802787596e-21
7.765213413e-21
8.142716362e-21
8.546145897e-21
8.907217517e-21
9.227183254e-21
9.523168185e-21
9.813772271e-21
1.011463332e-20
1.043818578e-20
1.079355908e-20
1.118803598e-20
1.162706452e-20
1.211570424e-20
1.265799871e-20
1.32582917e-20
1.392020233e-20
1.464822857e-20
1.544647161e-20
1.632032092e-20
1.727462559e-20
1.831555154e-20
1.944871629e-20
2.068182243e-20
2.20226811e-20
2.348161019e-20
2.506789173e-20
2.679147088e-20
2.865951242e-20
3.068085044e-20
3.28655334e-20
3.523153987e-20
3.780232628e-20
4.06092077e-20
4.368474493e-20
4.706723883e-20
5.08025595e-20
5.495929316e-20
5.963330439e-20
6.495400399e-20
7.107605932e-20
7.818823944e-20
8.654045426e-20
9.652380901e-20
1.088063237e-19
1.245870387e-19
1.460669694e-19
1.773670964e-19
2.26267483e-19
3.074610477e-19
4.486257745e-19
7.018112908e-19
1.164856196e-18
2.021451212e-18
3.615009444e-18
6.580760994e-18
1.20705156e-17
2.21102692e-17
4.012980519e-17
7.169142575e-17
1.252527709e-16
2.11330213e-16
3.324545534e-16
4.443341435e-16
3.964397241e-16
1.23797172e-16
3.488592336e-16
1.089268276e-15
5.743649779e-16
3.75846185e-14
2.585025952e-13
1.748747959e-13
3.336970136e-14
7.043649952e-15
1.065564955e-15
8.047604138e-16
8.61922081e-16
1.212394361e-15
1.508729148e-15
1.553615392e-15
1.392179468e-15
1.213285856e-15
1.045420285e-15
8.485852637e-16
6.406227059e-16
4.535933252e-16
3.066886979e-16
2.065288095e-16
1.538524506e-16
1.487519531e-16
1.933454905e-16
2.919718775e-16
4.484446933e-16
6.596332925e-16
9.060999544e-16
1.149189168e-15
1.360268506e-15
1.573053596e-15
1.752590924e-15
1.686053779e-15
1.321358964e-15
9.000668865e-16
7.753821753e-16
9.613065967e-16
6.861596418e-15
3.394032377e-14
1.737817811e-13
2.552293201e-13
3.520036661e-14
4.304119002e-16
3.712845863e-16
2.480460606e-16
7.770332967e-16
1.567544652e-15
1.756578905e-15
1.536307564e-15
1.346670257e-15
1.595530643e-15
5.655311856e-16
4.072052092e-21
5.646291059e-21
6.618671396e-21
7.259082721e-21
7.739165963e-21
8.119971685e-21
8.438658247e-21
8.723792323e-21
8.99833207e-21
9.279669915e-21
9.580927377e-21
9.911367257e-21
1.027815168e-20
1.068644414e-20
1.114086361e-20
1.164495412e-20
1.220236256e-20
1.281607815e-20
1.348973215e-20
1.422661609e-20
1.503092837e-20
1.590636548e-20
1.685742305e-20
1.788809849e-20
1.900367586e-20
2.020923657e-20
2.151091991e-20
2.291315945e-20
2.441947671e-20
2.60304251e-20
2.774701356e-20
2.957122959e-20
3.151033244e-20
3.357457051e-20
3.577702892e-20
3.812892877e-20
4.064348014e-20
4.334019924e-20
4.625610634e-20
4.944668052e-20
5.298154277e-20
5.692796372e-20
6.134224924e-20
6.626824512e-20
7.175429838e-20
7.788580939e-20
8.487924605e-20
9.333651513e-20
1.04876933e-19
1.235436581e-19
1.587790377e-19
2.316005005e-19
3.872332435e-19
7.205043743e-19
1.425600587e-18
2.890572187e-18
5.869095299e-18
1.177439196e-17
2.314140749e-17
4.426875675e-17
8.191470193e-17
1.454585239e-16
2.443818981e-16
3.770599344e-16
5.015727737e-16
5.067625609e-16
3.243947004e-16
3.519433185e-16
1.08390522e-15
2.204838322e-15
1.800417046e-15
1.214286735e-13
5.324482289e-13
5.805948967e-13
1.435918265e-13
5.044170274e-15
2.25252759e-15
1.508183114e-15
2.785312803e-15
3.639467518e-15
3.433968473e-15
2.571552176e-15
2.081297107e-15
1.803933087e-15
1.419661751e-15
9.981851929e-16
6.349332832e-16
3.656297713e-16
1.910037444e-16
1.014738001e-16
9.052829394e-17
1.606603196e-16
3.241493695e-16
5.980067625e-16
9.893140095e-16
1.464892607e-15
1.917230717e-15
2.251170321e-15
2.783312597e-15
3.689693446e-15
3.889410529e-15
2.922483201e-15
1.549733868e-15
2.221447656e-15
4.891453762e-15
1.421582716e-13
5.759922178e-13
5.367314608e-13
1.232059142e-13
9.217408129e-16
8.093469261e-16
4.570776906e-16
6.089802013e-16
1.181471216e-15
1.666605105e-15
1.633246839e-15
1.25157231e-15
8.695503425e-16
8.105515465e-16
3.069771653e-16
3.349655714e-21
4.662787829e-21
5.716165593e-21
6.446694227e-21
6.973473257e-21
7.370416319e-21
7.688572444e-21
7.964269651e-21
8.224163359e-21
8.487509929e-21
8.768004399e-21
9.075275193e-21
9.416223844e-21
9.795970009e-21
1.021855094e-20
1.06872446e-20
1.12049309e-20
1.177424548e-20
1.239792675e-20
1.307879221e-20
1.381988261e-20
1.462413037e-20
1.549449995e-20
1.643379652e-20
1.74450263e-20
1.853101335e-20
1.969407973e-20
2.093471626e-20
2.225109082e-20
2.363882125e-20
2.509280921e-20
2.660894902e-20
2.818573985e-20
2.982290114e-20
3.151930514e-20
3.327123498e-20
3.507590372e-20
3.69383677e-20
3.887908632e-20
4.093327796e-20
4.314088509e-20
4.552892753e-20
4.809423528e-20
5.078432515e-20
5.347011407e-20
5.590861246e-20
5.773220502e-20
5.85626519e-20
5.845368735e-20
5.907210271e-20
6.650109375e-20
9.756250788e-20
1.935571762e-19
4.490415574e-19
1.069820287e-18
2.484925192e-18
5.551914406e-18
1.190859202e-17
2.452153625e-17
4.842363932e-17
9.143089594e-17
1.640873843e-16
2.768367067e-16
4.304663312e-16
5.968540467e-16
7.054649932e-16
7.006813947e-16
7.364314352e-16
1.098443497e-15
2.249923807e-15
2.76441431e-15
4.177055216e-16
1.905290891e-15
2.49248214e-13
8.400371444e-13
1.709591752e-13
3.455753382e-15
1.232956113e-15
8.887344657e-15
1.146930839e-14
9.47869824e-15
4.552544831e-15
3.410274296e-15
3.367168621e-15
2.622091562e-15
1.717225866e-15
9.872918915e-16
4.888669745e-16
1.888108233e-16
4.240011762e-17
2.325934671e-17
1.335342687e-16
4.057602413e-16
8.961424299e-16
1.655642059e-15
2.642492237e-15
3.501889505e-15
3.605848862e-15
4.744180575e-15
9.742072438e-15
1.185854753e-14
9.092774204e-15
1.259688093e-15
3.418266143e-15
1.698055748e-13
8.339432289e-13
2.447542947e-13
1.998869964e-15
7.881554157e-17
1.057367952e-15
2.038322498e-15
1.633764142e-15
1.575392361e-15
1.666125431e-15
1.647777338e-15
1.355785446e-15
8.953974423e-16
4.832202273e-16
3.400007398e-16
1.589013967e-16
2.612226683e-21
3.856111808e-21
4.921960774e-21
5.696039082e-21
6.25161414e-21
6.660095313e-21
6.977554009e-21
7.244902698e-21
7.491667804e-21
7.738571869e-21
8.000018259e-21
8.285834085e-21
8.602926336e-21
8.956182007e-21
9.349353513e-21
9.785279156e-21
1.026643727e-20
1.079496182e-20
1.137312532e-20
1.200313303e-20
1.268736009e-20
1.342788256e-20
1.422669263e-20
1.508530982e-20
1.600510359e-20
1.698660817e-20
1.802923466e-20
1.912993896e-20
2.028307346e-20
2.148023187e-20
2.271205477e-20
2.39692442e-20
2.524348921e-20
2.652556389e-20
2.780392591e-20
2.90644255e-20
3.029552463e-20
3.149551962e-20
3.267892044e-20
3.38742039e-20
3.511412109e-20
3.641995551e-20
3.778342152e-20
3.91365932e-20
4.029883515e-20
4.089800742e-20
4.030188962e-20
3.765025237e-20
3.218042365e-20
2.426557588e-20
1.812150619e-20
2.828896542e-20
9.427589869e-20
3.120191834e-19
8.983604094e-19
2.316838899e-18
5.509494327e-18
1.229451524e-17
2.598497372e-17
5.221554335e-17
9.97438999e-17
1.80480842e-16
3.070787903e-16
4.854984877e-16
7.016818154e-16
9.118293494e-16
1.064698138e-15
1.169441926e-15
1.239632185e-15
1.065981742e-15
2.090548775e-16
3.213242231e-15
4.494460638e-15
4.552561324e-15
2.891087431e-13
4.710417451e-13
6.27343947e-14
2.013850122e-14
6.77766334e-14
5.520013363e-14
4.150569908e-14
6.09920387e-15
4.536098697e-15
7.438104951e-15
5.606580169e-15
3.380975588e-15
1.789925522e-15
8.231389732e-16
3.003726897e-16
6.459080461e-17
3.518331408e-17
2.121482714e-16
6.793289414e-16
1.608772957e-15
3.219304584e-15
5.585136483e-15
7.684735867e-15
4.817815643e-15
5.997639557e-15
4.112704453e-14
5.574567356e-14
6.816800537e-14
1.982913702e-14
6.176750058e-14
4.736521065e-13
2.849403886e-13
3.218712839e-15
2.64072876e-15
2.122674916e-15
1.099915368e-16
1.296539302e-15
1.802719323e-15
1.825738628e-15
1.661795972e-15
1.379227917e-15
9.874447252e-16
5.66517938e-16
2.258648504e-16
1.258021009e-16
9.228284076e-17
2.196139688e-21
3.281611572e-21
4.279310819e-21
5.03683997e-21
5.591022961e-21
5.998042371e-21
6.310014233e-21
6.567882353e-21
6.80189963e-21
7.033452791e-21
7.277239038e-21
7.543238462e-21
7.838254304e-21
8.167040669e-21
8.533020451e-21
8.938772679e-21
9.386374266e-21
9.877688551e-21
1.041454419e-20
1.099878891e-20
1.163219229e-20
1.23162778e-20
1.305215512e-20
1.384041531e-20
1.468092616e-20
1.557242729e-20
1.651184136e-20
1.749350933e-20
1.850880564e-20
1.954651949e-20
2.059391276e-20
2.163760391e-20
2.266338824e-20
2.365486232e-20
2.459245344e-20
2.545531958e-20
2.622735244e-20
2.690506501e-20
2.750264983e-20
2.805054225e-20
2.858828053e-20
2.915427857e-20
2.976998069e-20
3.040650214e-20
3.091999303e-20
3.095678925e-20
2.986166465e-20
2.667207745e-20
2.038081525e-20
1.089633846e-20
1.715277472e-21
6.568302408e-21
6.477948523e-20
2.747536035e-19
8.632834109e-19
2.321616307e-18
5.657166491e-18
1.282649963e-17
2.741161842e-17
5.553305027e-17
1.067792037e-16
1.944698276e-16
3.338477203e-16
5.362451999e-16
7.984887343e-16
1.092189864e-15
1.364770207e-15
1.553470649e-15
1.555274911e-15
1.166673524e-15
3.730743626e-16
1.720363298e-15
1.274704641e-14
9.693328052e-15
3.371317622e-15
2.170661489e-15
1.790963078e-14
7.879541923e-14
7.223186701e-13
4.414617452e-13
3.56930887e-13
2.234082503e-14
6.392602015e-15
2.618141501e-14
1.482358903e-14
7.861733628e-15
3.782896792e-15
1.710912381e-15
7.507681094e-16
3.625696754e-16
3.224092455e-16
6.249045505e-16
1.486496951e-15
3.456528857e-15
7.497744392e-15
1.471670392e-14
2.70866539e-14
7.331307401e-15
2.063674193e-14
3.495938209e-13
4.396453505e-13
7.199175851e-13
8.19681642e-14
1.894830262e-14
1.512777485e-15
1.776596308e-15
5.843544639e-15
1.015160179e-14
1.215378968e-15
2.061983824e-16
1.122740797e-15
1.630955789e-15
1.620683911e-15
1.35975742e-15
1.011997662e-15
6.493899792e-16
3.299678443e-16
9.796022562e-17
8.948017424e-17
7.843968149e-17
1.909041798e-21
2.853537402e-21
3.758134247e-21
4.467077502e-21
4.99686041e-21
5.389243513e-21
5.6893115e-21
5.935104152e-21
6.155826608e-21
6.372499195e-21
6.599678894e-21
6.847218604e-21
7.121783228e-21
7.427912842e-21
7.768797963e-21
8.146760539e-21
8.56365558e-21
9.021104199e-21
9.520693933e-21
1.006395997e-20
1.065229739e-20
1.128674708e-20
1.196783646e-20
1.269533016e-20
1.346798267e-20
1.428301882e-20
1.513553674e-20
1.601784687e-20
1.691931049e-20
1.782660994e-20
1.872448029e-20
1.959597841e-20
2.04219535e-20
2.117991206e-20
2.184422074e-20
2.238943392e-20
2.279724698e-20
2.306418522e-20
2.320642786e-20
2.325991276e-20
2.327788267e-20
2.332695476e-20
2.347628109e-20
2.376620641e-20
2.414470772e-20
2.4375359e-20
2.394836737e-20
2.20696451e-20
1.790484902e-20
1.152022516e-20
6.582821848e-21
1.719588897e-20
8.385575237e-20
3.084614054e-19
9.270858939e-19
2.45332776e-18
5.944324744e-18
1.346017753e-17
2.878655335e-17
5.84262661e-17
1.12663895e-16
2.060845515e-16
3.562933478e-16
5.790832357e-16
8.789131543e-16
1.236413933e-15
1.598322691e-15
1.872474909e-15
1.918769717e-15
1.570442849e-15
8.745186528e-16
9.348708316e-16
3.891055739e-15
4.700790029e-15
7.36851314e-15
1.219664573e-14
6.903609412e-15
2.849899304e-15
8.535337874e-13
8.114478735e-13
4.803359695e-13
9.029197179e-14
1.234456811e-13
2.09510417e-13
5.451211882e-14
2.20762513e-14
8.673841893e-15
3.73372769e-15
1.864591016e-15
1.193968898e-15
1.145715398e-15
1.705234732e-15
3.417090442e-15
8.125187002e-15
2.126507191e-14
5.397969903e-14
2.143569059e-13
1.29466316e-13
8.329300116e-14
4.728909982e-13
7.926310933e-13
8.545553088e-13
2.099162452e-15
4.615161284e-15
7.696865211e-15
3.942032578e-15
3.107146619e-15
2.935465229e-15
5.698664474e-16
5.209506847e-16
1.157674068e-15
1.447635648e-15
1.331678898e-15
1.022257212e-15
6.852320432e-16
4.005878874e-16
1.921484175e-16
6.326718159e-17
1.414626146e-16
8.959632935e-17
1.684545534e-21
2.512558192e-21
3.32403825e-21
3.972311514e-21
4.464834631e-21
4.833328824e-21
5.116044141e-21
5.347105326e-21
5.553638553e-21
5.755587822e-21
5.966924803e-21
6.197156894e-21
6.452673923e-21
6.73778928e-21
7.055471561e-21
7.407872173e-21
7.796688309e-21
8.223418987e-21
8.689485454e-21
9.196234378e-21
9.744793007e-21
1.03358983e-20
1.096964733e-20
1.16452292e-20
1.236054216e-20
1.311170521e-20
1.389248447e-20
1.469384085e-20
1.550376419e-20
1.630747313e-20
1.708766488e-20
1.782435744e-20
1.849405838e-20
1.906915268e-20
1.95191042e-20
1.981498419e-20
1.993677611e-20
1.988080143e-20
1.966455904e-20
1.932917537e-20
1.894196704e-20
1.859909655e-20
1.842094905e-20
1.852739936e-20
1.898430495e-20
1.972794817e-20
2.04972649e-20
2.08443959e-20
2.040101157e-20
1.985850852e-20
2.376731289e-20
4.761653755e-20
1.343449838e-19
3.905348549e-19
1.061633582e-18
2.680257776e-18
6.341979025e-18
1.418339165e-17
3.013900312e-17
6.099404522e-17
1.175583271e-16
2.153847919e-16
3.738532555e-16
6.119018552e-16
9.388938944e-16
1.340842037e-15
1.765254131e-15
2.110521797e-15
2.230152961e-15
1.985967726e-15
1.415989528e-15
9.945968442e-16
1.43522335e-15
1.825086137e-15
2.666097263e-15
7.147845591e-15
1.281093076e-14
1.87276981e-14
1.871581717e-14
1.494668287e-14
1.487942535e-14
7.540157702e-13
7.296126933e-13
3.988329748e-13
4.413035196e-13
6.786960877e-14
1.872713095e-14
7.328779722e-15
3.752413825e-15
2.587506392e-15
2.536742409e-15
3.574386473e-15
6.927775411e-15
1.787192788e-14
6.606656133e-14
4.376787176e-13
3.955094059e-13
7.012605573e-13
7.5118164e-13
1.443913323e-14
1.358969913e-14
1.547782861e-14
1.338048462e-14
8.490991064e-15
4.758953057e-15
1.526113666e-15
1.251843426e-15
9.930956769e-16
5.575383214e-16
8.157153392e-16
1.209211962e-15
1.308685154e-15
1.105319457e-15
7.697492628e-16
4.635617959e-16
2.484540079e-16
1.277593722e-16
7.767037589e-17
2.198208228e-16
1.068186431e-16
1.495468292e-21
2.226054988e-21
2.95153625e-21
3.537122601e-21
3.987103859e-21
4.326709909e-21
4.588603755e-21
4.803026743e-21
4.994666048e-21
5.18200138e-21
5.378137606e-21
5.592044171e-21
5.829752053e-21
6.095313382e-21
6.391514701e-21
6.720383916e-21
7.083544445e-21
7.482433249e-21
7.918395982e-21
8.392663667e-21
8.906232796e-21
9.459661557e-21
1.005281145e-20
1.068449268e-20
1.135204954e-20
1.205085789e-20
1.27738627e-20
1.351121077e-20
1.425009221e-20
1.49747174e-20
1.566617074e-20
1.630181201e-20
1.685439408e-20
1.729189224e-20
1.757960469e-20
1.768535255e-20
1.758677003e-20
1.727820816e-20
1.67758716e-20
1.612268451e-20
1.539560175e-20
1.471427729e-20
1.42432898e-20
1.417695893e-20
1.470189108e-20
1.594682068e-20
1.794987901e-20
2.071441781e-20
2.453801539e-20
3.109298505e-20
4.640201914e-20
8.823397159e-20
2.031732106e-19
5.037930478e-19
1.245626992e-18
2.97870697e-18
6.829437285e-18
1.498998039e-17
3.149532224e-17
6.331061211e-17
1.215634886e-16
2.223645197e-16
3.860680996e-16
6.332607949e-16
9.757674889e-16
1.402229153e-15
1.860756383e-15
2.246365673e-15
2.410946114e-15
2.228425522e-15
1.728594563e-15
1.178334139e-15
8.896896419e-16
7.45137202e-16
4.165801883e-16
8.928271975e-16
2.299537432e-15
7.612976285e-15
1.735152609e-14
1.134333397e-14
3.629435757e-14
1.676900628e-14
6.825084438e-16
1.047211548e-15
5.066418117e-16
1.465462084e-13
3.426488654e-14
1.164802278e-14
5.627981224e-15
3.861306755e-15
3.81216418e-15
5.446227142e-15
1.118739089e-14
3.304656435e-14
1.427862461e-13
4.987086356e-16
1.027185446e-15
6.725466993e-16
1.598873143e-14
3.343636208e-14
1.070708504e-14
1.641019851e-14
7.051589518e-15
1.891322596e-15
6.477111431e-16
2.909895221e-16
5.542193164e-16
5.618716811e-16
6.590610805e-16
9.555060118e-16
1.207059364e-15
1.207610341e-15
9.611117572e-16
6.219934256e-16
3.409246708e-16
1.723971115e-16
1.032738025e-16
9.89642618e-17
2.736566078e-16
1.203029717e-16
1.32985595e-21
1.976649884e-21
2.624106026e-21
3.149325748e-21
3.555898801e-21
3.864780982e-21
4.104259555e-21
4.3011061e-21
4.477570779e-21
4.650532114e-21
4.832080656e-21
5.030545578e-21
5.25154218e-21
5.498860454e-21
5.775132294e-21
6.082314386e-21
6.422006686e-21
6.795640273e-21
7.204542854e-21
7.649915253e-21
8.132726112e-21
8.653503931e-21
9.21203621e-21
9.806971449e-21
1.043536658e-20
1.109223287e-20
1.177013567e-20
1.245889771e-20
1.314536559e-20
1.381314741e-20
1.44420744e-20
1.500728273e-20
1.547831907e-20
1.581938741e-20
1.599202892e-20
1.59605761e-20
1.569900883e-20
1.519722572e-20
1.446643291e-20
1.35461627e-20
1.251553996e-20
1.15071793e-20
1.071627135e-20
1.039651032e-20
1.084193083e-20
1.236785646e-20
1.532443354e-20
2.022008359e-20
2.815248478e-20
4.204757824e-20
6.98830224e-20
1.324657649e-19
2.810768474e-19
6.355003393e-19
1.462275563e-18
3.328179271e-18
7.385014402e-18
1.586293099e-17
3.285147713e-17
6.538795791e-17
1.246829248e-16
2.269227543e-16
3.925104686e-16
6.42062763e-16
9.87476112e-16
1.417474983e-15
1.879572063e-15
2.265326137e-15
2.417893818e-15
2.20233795e-15
1.662216361e-15
1.119967914e-15
9.317879022e-16
8.957967105e-16
5.901926939e-16
9.894526485e-16
2.26502366e-15
7.305414052e-15
1.69399416e-14
1.145663923e-14
3.626753433e-14
1.679849622e-14
6.839086087e-16
1.047268385e-15
5.067250714e-16
1.465746561e-13
3.426801109e-14
1.164601642e-14
5.625161002e-15
3.858624163e-15
3.809958316e-15
5.445058106e-15
1.118917444e-14
3.30583143e-14
1.428365347e-13
4.988137852e-16
1.027281151e-15
6.738271642e-16
1.591013215e-14
3.345308287e-14
1.093070993e-14
1.58549987e-14
6.519458297e-15
1.643659938e-15
6.346948713e-16
4.262047324e-16
6.639064925e-16
6.250943901e-16
6.553884118e-16
9.034001122e-16
1.13449749e-15
1.135406781e-15
8.980141218e-16
5.751459289e-16
3.100877385e-16
1.565430134e-16
1.018161843e-16
1.038128768e-16
2.856163916e-16
1.228397186e-16
1.18179746e-21
1.754819054e-21
2.331575014e-21
2.800313894e-21
3.164864274e-21
3.443166505e-21
3.660022046e-21
3.839184495e-21
4.000621545e-21
4.159623379e-21
4.327223708e-21
4.511068965e-21
4.71634697e-21
4.946599498e-21
5.204339949e-21
5.49148782e-21
5.809657034e-21
6.160307466e-21
6.544796805e-21
6.964379682e-21
7.420103501e-21
7.912597525e-21
8.441735299e-21
9.006200673e-21
9.603029089e-21
1.022720607e-20
1.087133324e-20
1.152534608e-20
1.217616688e-20
1.280717588e-20
1.339734361e-20
1.392007509e-20
1.434233532e-20
1.46251957e-20
1.472678255e-20
1.460755766e-20
1.423643553e-20
1.359626772e-20
1.268938068e-20
1.15462461e-20
1.023981263e-20
8.903679774e-21
7.747691009e-21
7.065431497e-21
7.236865179e-21
8.744251806e-21
1.224163998e-20
1.876641124e-20
3.030696223e-20
5.124774967e-20
9.189247013e-20
1.766633182e-19
3.623212062e-19
7.767475387e-19
1.698090192e-18
3.709032491e-18
7.981355457e-18
1.676549459e-17
3.4158412e-17
6.715764217e-17
1.2681063e-16
2.288699484e-16
3.927974677e-16
6.375066757e-16
9.72464847e-16
1.384085393e-15
1.818956589e-15
2.166724586e-15
2.255711481e-15
1.920686246e-15
1.243289578e-15
8.668599687e-16
1.608485592e-15
2.235414059e-15
2.994867592e-15
7.213812322e-15
1.28559144e-14
1.827285201e-14
1.829525294e-14
1.497746499e-14
1.500005945e-14
7.554900072e-13
7.300566043e-13
3.994206248e-13
4.416782363e-13
6.794303008e-14
1.873819893e-14
7.32552454e-15
3.74608549e-15
2.581099418e-15
2.531525693e-15
3.572028223e-15
6.932851293e-15
1.789919392e-14
6.616789549e-14
4.380872254e-13
3.960824756e-13
7.017148055e-13
7.525317789e-13
1.437556259e-14
1.354829876e-14
1.475285085e-14
1.277179085e-14
8.286991943e-15
4.741596827e-15
1.885029588e-15
1.57144293e-15
1.20269498e-15
5.718389396e-16
6.865976031e-16
1.008339758e-15
1.102474295e-15
9.2162571e-16
6.29784372e-16
3.659214115e-16
1.943221823e-16
1.086842051e-16
8.85626759e-17
2.475792317e-16
1.136712313e-16
1.048060501e-21
1.555147606e-21
2.067696388e-21
2.484256609e-21
2.809207504e-21
3.058171459e-21
3.253075346e-21
3.415032898e-21
3.56192139e-21
3.707527882e-21
3.861848675e-21
4.03185196e-21
4.222320257e-21
4.436572188e-21
4.677026797e-21
4.945599122e-21
5.243937234e-21
5.573550788e-21
5.935880539e-21
6.332306504e-21
6.764059686e-21
7.231989307e-21
7.736200555e-21
8.275592409e-21
8.847424771e-21
9.446979417e-21
1.006728052e-20
1.069878093e-20
1.132887372e-20
1.19411169e-20
1.251408716e-20
1.302006171e-20
1.342418185e-20
1.368513616e-20
1.375807642e-20
1.359939758e-20
1.317188638e-20
1.244933213e-20
1.142201326e-20
1.01065179e-20
8.562339456e-21
6.913510649e-21
5.370207455e-21
4.247746383e-21
3.990801453e-21
5.227431727e-21
8.903140045e-21
1.659772155e-20
3.125588851e-20
5.886906636e-20
1.123230996e-19
2.200234591e-19
4.446473041e-19
9.225065658e-19
1.943061187e-18
4.102505265e-18
8.584459944e-18
1.76377461e-17
3.531509707e-17
6.846194087e-17
1.277271908e-16
2.279402199e-16
3.86622599e-16
6.191013189e-16
9.295316562e-16
1.299528683e-15
1.677041559e-15
1.960667426e-15
1.971900557e-15
1.497822709e-15
6.726178875e-16
8.710455332e-16
4.229289393e-15
5.129445821e-15
7.598131235e-15
1.182800843e-14
6.82907337e-15
2.739747516e-15
8.530637825e-13
8.098105084e-13
4.806274959e-13
9.038142054e-14
1.232897339e-13
2.097263961e-13
5.464021443e-14
2.212509264e-14
8.686028281e-15
3.732050155e-15
1.858414337e-15
1.187093813e-15
1.14026836e-15
1.703591167e-15
3.423804377e-15
8.150172442e-15
2.132835108e-14
5.410798284e-14
2.145035187e-13
1.292989906e-13
8.336544821e-14
4.730784832e-13
7.911680492e-13
8.542756004e-13
1.869482718e-15
4.196015545e-15
7.154540366e-15
4.460568173e-15
3.409358775e-15
3.256331165e-15
6.563198243e-16
3.892188266e-16
8.71145117e-16
1.11989995e-15
1.029898362e-15
7.781621407e-16
5.132519525e-16
2.970608927e-16
1.464940143e-16
6.58776721e-17
1.779552658e-16
9.803743189e-17
9.267203808e-22
1.374391855e-21
1.828532789e-21
2.197198503e-21
2.485385641e-21
2.706807149e-21
2.88091976e-21
3.026505036e-21
3.159542926e-21
3.292412361e-21
3.434131552e-21
3.591036875e-21
3.767532424e-21
3.966741186e-21
4.191016495e-21
4.442280466e-21
4.722222575e-21
5.032427511e-21
5.374465892e-21
5.749914858e-21
6.160280914e-21
6.606743121e-21
7.089753579e-21
7.608589399e-21
8.160961742e-21
8.742755594e-21
9.347779742e-21
9.967395523e-21
1.058987775e-20
1.119940181e-20
1.177471541e-20
1.228771884e-20
1.270265736e-20
1.297679049e-20
1.306303406e-20
1.291397709e-20
1.248595308e-20
1.174275762e-20
1.066097158e-20
9.240564235e-21
7.523151009e-21
5.616556669e-21
3.722128732e-21
2.165374583e-21
1.442778831e-21
2.317269559e-21
6.024532962e-21
1.470834402e-20
3.233079699e-20
6.660433785e-20
1.331636921e-19
2.64582838e-19
5.295358911e-19
1.072380962e-18
2.192081322e-18
4.492844194e-18
9.156293586e-18
1.839933596e-17
3.617110602e-17
6.905613075e-17
1.271033667e-16
2.238092551e-16
3.738329217e-16
5.868551708e-16
8.579156801e-16
1.159993342e-15
1.447464123e-15
1.657036509e-15
1.63874251e-15
1.114821573e-15
2.487498937e-16
1.868613067e-15
1.301141685e-14
1.013931767e-14
3.6873014e-15
2.192120756e-15
1.798762169e-14
7.918310658e-14
7.215441456e-13
4.410955367e-13
3.568186892e-13
2.233564151e-14
6.400529369e-15
2.625630791e-14
1.488463793e-14
7.894502485e-15
3.795047821e-15
1.712033213e-15
7.471124661e-16
3.577334616e-16
3.188626413e-16
6.251600331e-16
1.494073323e-15
3.476614062e-15
7.535861963e-15
1.477228283e-14
2.71368108e-14
7.326018437e-15
2.063948589e-14
3.494198285e-13
4.392673139e-13
7.193606924e-13
8.231255153e-14
1.906279688e-14
1.392410479e-15
2.14243517e-15
6.299211705e-15
1.040108538e-14
1.263327016e-15
1.425343202e-16
8.046748232e-16
1.207098286e-15
1.208367156e-15
1.012406995e-15
7.50713265e-16
4.834231465e-16
2.441351062e-16
7.489524677e-17
1.092207956e-16
8.289389526e-17
8.165200339e-22
1.210455405e-21
1.611465859e-21
1.936360297e-21
2.19073208e-21
2.386640665e-21
2.541358161e-21
2.671585435e-21
2.79157908e-21
2.912414044e-21
3.042210773e-21
3.186723533e-21
3.350015781e-21
3.535047231e-21
3.74411423e-21
3.979145956e-21
4.241882492e-21
4.534005772e-21
4.857260828e-21
5.213495945e-21
5.604563487e-21
6.032054432e-21
6.496865974e-21
6.998792052e-21
7.536210739e-21
8.10589656e-21
8.702792039e-21
9.319556609e-21
9.945759944e-21
1.05667047e-20
1.116197746e-20
1.170401009e-20
1.215728181e-20
1.24788585e-20
1.262056669e-20
1.253212384e-20
1.216413907e-20
1.147102624e-20
1.041619187e-20
8.983262594e-21
7.195774774e-21
5.144559069e-21
3.02104874e-21
1.16050261e-21
1.135636715e-22
7.875254975e-22
4.732470873e-21
1.470553182e-20
3.577090397e-20
7.748578869e-20
1.583803786e-19
3.152919018e-19
6.226919414e-19
1.231814408e-18
2.447342103e-18
4.871666189e-18
9.662585696e-18
1.896297614e-17
3.654731399e-17
6.863331868e-17
1.245231208e-16
2.161419681e-16
3.546684295e-16
5.421389253e-16
7.59195591e-16
9.621417426e-16
1.116796194e-15
1.258242809e-15
1.357299659e-15
1.0478911e-15
1.979001585e-16
3.176643164e-15
4.943589449e-15
4.992065813e-15
2.885462463e-13
4.714342012e-13
6.26330616e-14
2.013981562e-14
6.766839606e-14
5.512351838e-14
4.151894173e-14
6.125736986e-15
4.55981616e-15
7.476036305e-15
5.642108514e-15
3.404651179e-15
1.801786355e-15
8.269435952e-16
2.999240872e-16
6.279906219e-17
3.437178268e-17
2.145145168e-16
6.872822036e-16
1.624658711e-15
3.243853307e-15
5.614435786e-15
7.708390406e-15
4.827313443e-15
6.008143011e-15
4.110439611e-14
5.56583995e-14
6.810406305e-14
1.982386221e-14
6.169571295e-14
4.738918328e-13
2.844741088e-13
3.616217421e-15
2.843616891e-15
2.086740896e-15
1.284417604e-16
9.872582264e-16
1.365169979e-15
1.375126608e-15
1.258782033e-15
1.051701014e-15
7.57597393e-16
4.358593473e-16
1.585893821e-16
1.016039433e-16
8.399846315e-17
7.165510163e-22
1.061866079e-21
1.414614396e-21
1.699665561e-21
1.923132435e-21
2.09560915e-21
2.232419012e-21
2.348375507e-21
2.456164649e-21
2.565679617e-21
2.6842162e-21
2.817005204e-21
2.967807656e-21
3.139435087e-21
3.334131406e-21
3.553831204e-21
3.800327431e-21
4.075426326e-21
4.381090114e-21
4.719491561e-21
5.092889849e-21
5.503334993e-21
5.952248121e-21
6.440061101e-21
6.966019526e-21
7.528060437e-21
8.122595709e-21
8.743954943e-21
9.383439108e-21
1.002803764e-20
1.065895018e-20
1.125020889e-20
1.176787498e-20
1.2170377e-20
1.24101119e-20
1.24356671e-20
1.219390553e-20
1.163231383e-20
1.070427038e-20
9.381016541e-21
7.67293393e-21
5.660235723e-21