/*--------------------------------*- C++ -*----------------------------------*\
  =========                 |
  \\      /  F ield         | OpenFOAM: The Open Source CFD Toolbox
   \\    /   O peration     | Website:  https://openfoam.org
    \\  /    A nd           | Version:  6
     \\/     M anipulation  |
\*---------------------------------------------------------------------------*/
FoamFile
{
    version     2.0;
    format      ascii;
    class       surfaceScalarField;
    location    "0.006";
    object      phi;
}
// * * * * * * * * * * * * * * * * * * * * * * * * * * * * * * * * * * * * * //

dimensions      [0 3 -1 0 0 0 0];

internalField   nonuniform List<scalar> 
19000
(
1.577260959e-18
-2.479219746e-22
1.580032654e-18
-7.505480865e-22
1.583320938e-18
-1.262192975e-21
1.58718777e-18
-1.769591717e-21
1.591568772e-18
-2.271883845e-21
1.596455099e-18
-2.767377535e-21
1.601835129e-18
-3.254792871e-21
1.607694789e-18
-3.732160736e-21
1.614017397e-18
-4.197964416e-21
1.620784127e-18
-4.649974598e-21
1.62797364e-18
-5.086414335e-21
1.635562372e-18
-5.504755898e-21
1.643524003e-18
-5.902913732e-21
1.651829607e-18
-6.278015133e-21
1.660447005e-18
-6.627621815e-21
1.669340836e-18
-6.948470529e-21
1.678471883e-18
-7.237721887e-21
1.687797169e-18
-7.491666857e-21
1.697269304e-18
-7.707007155e-21
1.706836617e-18
-7.879535647e-21
1.71644247e-18
-8.005463931e-21
1.726025344e-18
-8.08008121e-21
1.735518093e-18
-8.099134701e-21
1.744848062e-18
-8.057454658e-21
1.753936437e-18
-7.950368065e-21
1.762698547e-18
-7.772280884e-21
1.771043384e-18
-7.518146894e-21
1.778874016e-18
-7.182037002e-21
1.786087134e-18
-6.758691626e-21
1.792573478e-18
-6.242093314e-21
1.798217421e-18
-5.627090738e-21
1.802897606e-18
-4.907937913e-21
1.806486863e-18
-4.079964101e-21
1.808853275e-18
-3.138073222e-21
1.809860489e-18
-2.078493191e-21
1.809369119e-18
-8.972829253e-22
1.807237299e-18
4.077986033e-22
1.803322345e-18
1.83877301e-21
1.79748163e-18
3.395487526e-21
1.789574742e-18
5.077146877e-21
1.779464939e-18
6.880323322e-21
1.76702196e-18
8.800570497e-21
1.752124092e-18
1.083038873e-20
1.73466153e-18
1.296089382e-20
1.71453887e-18
1.517970936e-20
1.691678824e-18
1.747269168e-20
1.666024926e-18
1.982177507e-20
1.637545374e-18
2.220682278e-20
1.606235709e-18
2.4603508e-20
1.572122552e-18
2.698538331e-20
1.535266052e-18
2.93218804e-20
1.495763341e-18
3.158065982e-20
1.453750559e-18
3.372575422e-20
1.40940572e-18
3.572020748e-20
1.362949772e-18
3.752433129e-20
1.314648126e-18
3.909860553e-20
1.264809911e-18
4.040202995e-20
1.213787487e-18
4.139529041e-20
1.161973573e-18
4.203922319e-20
1.109798834e-18
4.229826576e-20
1.057727204e-18
4.213899246e-20
1.006251789e-18
4.153372849e-20
9.558882967e-19
4.045894848e-20
9.071689108e-19
3.88987949e-20
8.606335534e-19
3.684309779e-20
8.168219393e-19
3.429062212e-20
7.76263626e-19
3.124661595e-20
7.394698243e-19
2.772573821e-20
7.0692395e-19
2.374908498e-20
6.790745669e-19
1.934668928e-20
6.56327197e-19
1.455389454e-20
6.390386833e-19
9.413304184e-21
6.275105026e-19
3.970495292e-21
6.219851545e-19
-1.724449223e-21
6.226420492e-19
-7.621579505e-21
6.295971828e-19
-1.366958743e-20
6.429025351e-19
-1.982039556e-20
6.625491943e-19
-2.602739601e-20
6.884694961e-19
-3.224974005e-20
7.205420736e-19
-3.845013324e-20
7.585948797e-19
-4.459860101e-20
8.02410336e-19
-5.066957581e-20
8.517277007e-19
-5.664479507e-20
9.062471203e-19
-6.250941023e-20
9.65630405e-19
-6.825385682e-20
1.029503162e-18
-7.386912417e-20
1.09745321e-18
-7.93479994e-20
1.16903002e-18
-8.46801474e-20
1.243740177e-18
-8.985344855e-20
1.321043937e-18
-9.484963547e-20
1.40034826e-18
-9.964626656e-20
1.481001906e-18
-1.042133305e-19
1.562288268e-18
-1.085160873e-19
1.643421623e-18
-1.12512754e-19
1.723542313e-18
-1.161582057e-19
1.801716189e-18
-1.194026691e-19
1.876933533e-18
-1.221959947e-19
1.948112552e-18
-1.244869464e-19
2.014102462e-18
-1.262274634e-19
2.07369094e-18
-1.2737189e-19
2.125610525e-18
-1.27880557e-19
2.168548068e-18
-1.277184884e-19
2.201151838e-18
-1.268579615e-19
2.222040675e-18
-1.252766316e-19
2.229811232e-18
-1.229592047e-19
2.223048449e-18
-1.198951744e-19
2.200335281e-18
-1.160798265e-19
2.160264819e-18
-1.115117594e-19
2.101448889e-18
-1.061933525e-19
2.022526279e-18
-1.001284615e-19
1.922167283e-18
-9.332288612e-20
1.799079079e-18
-8.57826156e-20
1.652010202e-18
-7.75141118e-20
1.479757848e-18
-6.852348857e-20
1.281184856e-18
-5.881625435e-20
1.055250947e-18
-4.83983989e-20
8.009420935e-19
-3.727307286e-20
5.166742664e-19
-2.544675019e-20
1.878941389e-19
-1.292431358e-20
7.381936899e-32
1.576009784e-18
-5.045538862e-22
1.578767933e-18
-1.517951966e-21
1.582067744e-18
-2.534817376e-21
1.585940852e-18
-3.548262854e-21
1.590331161e-18
-4.552797153e-21
1.595228602e-18
-5.544962687e-21
1.600622283e-18
-6.520940444e-21
1.606497679e-18
-7.477564495e-21
1.612838948e-18
-8.410818246e-21
1.619626826e-18
-9.31716488e-21
1.62684086e-18
-1.019209477e-20
1.634457061e-18
-1.103152473e-20
1.642450042e-18
-1.183032346e-20
1.650790466e-18
-1.258374811e-20
1.659447134e-18
-1.328594029e-20
1.668384295e-18
-1.39314033e-20
1.67756377e-18
-1.451345165e-20
1.68694221e-18
-1.502571988e-20
1.696473316e-18
-1.546057584e-20
1.706105041e-18
-1.581068219e-20
1.715781856e-18
-1.606739491e-20
1.725441825e-18
-1.622240276e-20
1.735018907e-18
-1.626609906e-20
1.744439989e-18
-1.618927412e-20
1.753627362e-18
-1.59814321e-20
1.762495837e-18
-1.563253142e-20
1.77095546e-18
-1.513128132e-20
1.778908634e-18
-1.446699235e-20
1.786252951e-18
-1.362790684e-20
1.792878245e-18
-1.260318298e-20
1.798669582e-18
-1.138122376e-20
1.80350444e-18
-9.951734311e-21
1.807256119e-18
-8.30400015e-21
1.80979122e-18
-6.429024937e-21
1.810973527e-18
-4.317820406e-21
1.810661705e-18
-1.963718818e-21
1.808713529e-18
6.392592626e-22
1.804983768e-18
3.49391868e-21
1.799328892e-18
6.601525552e-21
1.791605356e-18
9.959251165e-21
1.781675016e-18
1.356191073e-20
1.76940393e-18
1.739937406e-20
1.754668495e-18
2.145838842e-20
1.737354651e-18
2.571990074e-20
1.717364588e-18
3.016092854e-20
1.694616197e-18
3.475179553e-20
1.669050176e-18
3.945812932e-20
1.64062952e-18
4.423814084e-20
1.609346815e-18
4.904491488e-20
1.575223507e-18
5.382390664e-20
1.538317153e-18
5.851568826e-20
1.498720265e-18
6.305376379e-20
1.45656729e-18
6.736783564e-20
1.412032672e-18
7.138194515e-20
1.36533703e-18
7.501821893e-20
1.316743699e-18
7.819528871e-20
1.266563296e-18
8.083250877e-20
1.215148066e-18
8.284866439e-20
1.162894521e-18
8.416671436e-20
1.110235619e-18
8.471280406e-20
1.05764169e-18
8.44214303e-20
1.005610592e-18
8.323449009e-20
9.546667784e-19
8.110643525e-20
9.053491003e-19
7.800284995e-20
8.582078149e-19
7.39051303e-20
8.137903442e-19
6.880826811e-20
7.726372297e-19
6.272486764e-20
7.352674206e-19
5.568202432e-20
7.021748349e-19
4.77245265e-20
6.73814525e-19
3.891059437e-20
6.506006112e-19
2.931396395e-20
6.328937493e-19
1.901829124e-20
6.210008425e-19
8.118104752e-21
6.151646153e-19
-3.287799996e-21
6.155662635e-19
-1.50959483e-20
6.223184241e-19
-2.720503899e-20
6.354715933e-19
-3.951534286e-20
6.550105791e-19
-5.193516957e-20
6.808638281e-19
-6.437961915e-20
7.129018878e-19
-7.67762162e-20
7.509478192e-19
-8.906254044e-20
7.947759347e-19
-1.011903673e-19
8.441216869e-19
-1.13121493e-19
8.986793517e-19
-1.248297875e-19
9.581101251e-19
-1.362949911e-19
1.022037642e-18
-1.475029601e-19
1.090053203e-18
-1.58438339e-19
1.161708282e-18
-1.6908426e-19
1.236516269e-18
-1.794154046e-19
1.313941982e-18
-1.893985633e-19
1.39340064e-18
-1.989872396e-19
1.474246009e-18
-2.081238763e-19
1.555768953e-18
-2.167365841e-19
1.637187001e-18
-2.247432808e-19
1.71764508e-18
-2.320506277e-19
1.796208751e-18
-2.385598793e-19
1.871868679e-18
-2.44167451e-19
1.943538585e-18
-2.487715114e-19
2.010063934e-18
-2.522729833e-19
2.070224551e-18
-2.545814233e-19
2.122746464e-18
-2.556151829e-19
2.166307041e-18
-2.55305582e-19
2.199547078e-18
-2.53595621e-19
2.221075975e-18
-2.504423065e-19
2.229483375e-18
-2.458141608e-19
2.223345982e-18
-2.396920634e-19
2.20124114e-18
-2.320660071e-19
2.161755549e-18
-2.22934899e-19
2.103496906e-18
-2.123030433e-19
2.025098853e-18
-2.001795923e-19
1.92522775e-18
-1.86575762e-19
1.802585304e-18
-1.715045811e-19
1.655913369e-18
-1.549791296e-19
1.483999125e-18
-1.370125366e-19
1.285686238e-18
-1.176178043e-19
1.05990171e-18
-9.680824125e-20
8.055370858e-19
-7.460225926e-20
5.208893926e-19
-5.102550872e-20
1.899230052e-19
-2.616628048e-20
7.393427534e-32
1.57426814e-18
-7.628364973e-22
1.577024974e-18
-2.290851934e-21
1.580329668e-18
-3.819243254e-21
1.584213509e-18
-5.341218173e-21
1.588618481e-18
-6.850784728e-21
1.593534908e-18
-8.342177019e-21
1.598951195e-18
-9.810244898e-21
1.604853725e-18
-1.124945407e-20
1.611226181e-18
-1.265444244e-20
1.618050371e-18
-1.401918227e-20
1.625305431e-18
-1.533765111e-20
1.63296853e-18
-1.660302019e-20
1.641013907e-18
-1.780836908e-20
1.649413459e-18
-1.894587793e-20
1.658135647e-18
-2.000756429e-20
1.667146032e-18
-2.098445998e-20
1.67640614e-18
-2.186735443e-20
1.685874022e-18
-2.264595161e-20
1.695503111e-18
-2.330963647e-20
1.705242808e-18
-2.384663183e-20
1.715037285e-18
-2.42448295e-20
1.724826048e-18
-2.449096077e-20
1.734542701e-18
-2.457148254e-20
1.744115567e-18
-2.447172791e-20
1.753466527e-18
-2.417680613e-20
1.762511796e-18
-2.367074122e-20
1.771160863e-18
-2.293744631e-20
1.779317361e-18
-2.195992638e-20
1.786878011e-18
-2.072139895e-20
1.793733567e-18
-1.920457966e-20
1.799767837e-18
-1.739289424e-20
1.804858879e-18
-1.526976672e-20
1.808878307e-18
-1.281988034e-20
1.811692873e-18
-1.002848917e-20
1.813164062e-18
-6.882828612e-21
1.813149997e-18
-3.371569202e-21
1.811505285e-18
5.13554905e-22
1.808083282e-18
4.778171616e-21
1.802736341e-18
9.423534999e-21
1.795318653e-18
1.444697656e-20
1.785687065e-18
1.984016475e-20
1.773704569e-18
2.558962114e-20
1.759241646e-18
3.167493336e-20
1.742180309e-18
3.806927073e-20
1.722415871e-18
4.473752017e-20
1.699861445e-18
5.163683967e-20
1.674450027e-18
5.871484226e-20
1.646139302e-18
6.591039709e-20
1.614913817e-18
7.315209235e-20
1.580789829e-18
8.035952008e-20
1.543817291e-18
8.744223488e-20
1.504084479e-18
9.430166919e-20
1.461719502e-18
1.008306685e-19
1.416894321e-18
1.069160786e-19
1.369825237e-18
1.12438823e-19
1.320775595e-18
1.172771411e-19
1.27005447e-18
1.213072262e-19
1.218017429e-18
1.244071564e-19
1.165063058e-18
1.26458158e-19
1.111631697e-18
1.273492203e-19
1.058199863e-18
1.269787765e-19
1.005276932e-18
1.252595595e-19
9.533972449e-19
1.221200507e-19
9.03114441e-19
1.175088425e-19
8.549911744e-19
1.113952096e-19
8.095915491e-19
1.037725123e-19
7.674695313e-19
9.465759247e-20
7.291610185e-19
8.409297659e-20
6.951725368e-19
7.214479623e-20
6.659742185e-19
5.890336629e-20
6.419896438e-19
4.447919454e-20
6.235903315e-19
2.900165943e-20
6.110874511e-19
1.261317623e-20
6.047288829e-19
-4.533524329e-21
6.046941408e-19
-2.228217717e-20
6.110952501e-19
-4.047604717e-20
6.239756176e-19
-5.896460474e-20
6.433146262e-19
-7.760605244e-20
6.690295698e-19
-9.627312613e-20
7.009825126e-19
-1.148543246e-19
7.389836359e-19
-1.332579105e-19
7.827986651e-19
-1.514107379e-19
8.321519709e-19
-1.692593004e-19
8.867328712e-19
-1.867653157e-19
9.461967684e-19
-2.039035313e-19
1.010168638e-18
-2.206546279e-19
1.078240755e-18
-2.370011751e-19
1.149972291e-18
-2.529198221e-19
1.224883159e-18
-2.683776155e-19
1.302449933e-18
-2.833256553e-19
1.382096885e-18
-2.976975274e-19
1.463190118e-18
-3.114058131e-19
1.545028399e-18
-3.243436465e-19
1.626838438e-18
-3.363846414e-19
1.707768411e-18
-3.4738773e-19
1.786886886e-18
-3.572002043e-19
1.863180965e-18
-3.656647737e-19
1.935560155e-18
-3.726241047e-19
2.002859805e-18
-3.779280618e-19
2.063849723e-18
-3.814374649e-19
2.117241638e-18
-3.830294781e-19
2.161699992e-18
-3.825991483e-19
2.195850096e-18
-3.80062012e-19
2.218288283e-18
-3.75353207e-19
2.227589882e-18
-3.684276549e-19
2.222320275e-18
-3.592572891e-19
2.201045105e-18
-3.478295574e-19
2.162342343e-18
-3.341436352e-19
2.104810642e-18
-3.182081069e-19
2.02707639e-18
-3.000373632e-19
1.927797386e-18
-2.796498177e-19
1.805666355e-18
-2.570654875e-19
1.65941261e-18
-2.323051239e-19
1.487805019e-18
-2.053892796e-19
1.289657994e-18
-1.763383342e-19
1.063844691e-18
-1.451749358e-19
8.091649311e-19
-1.119233989e-19
5.237405143e-19
-7.662442976e-20
1.910669705e-19
-3.931724635e-20
7.427267141e-32
1.572058491e-18
-1.023485089e-21
1.57481771e-18
-3.071582036e-21
1.57813083e-18
-5.116880088e-21
1.582029045e-18
-7.152724576e-21
1.586454414e-18
-9.17194451e-21
1.591396755e-18
-1.116766054e-20
1.596844851e-18
-1.313278268e-20
1.602784941e-18
-1.506033964e-20
1.609201398e-18
-1.694284703e-20
1.616076072e-18
-1.877268401e-20
1.623388941e-18
-2.054149843e-20
1.631117317e-18
-2.224063516e-20
1.639236376e-18
-2.386056009e-20
1.647718232e-18
-2.539131801e-20
1.656532372e-18
-2.682195724e-20
1.665644657e-18
-2.814099824e-20
1.675017739e-18
-2.933583835e-20
1.684610046e-18
-3.039322921e-20
1.694376218e-18
-3.129867706e-20
1.704266054e-18
-3.203696754e-20
1.714224935e-18
-3.259160044e-20
1.724192722e-18
-3.294537323e-20
1.734104208e-18
-3.307982932e-20
1.743888028e-18
-3.297586263e-20
1.753467223e-18
-3.261314601e-20
1.762758228e-18
-3.197078297e-20
1.771671535e-18
-3.102679071e-20
1.780110703e-18
-2.975888837e-20
1.787973089e-18
-2.8144108e-20
1.795148915e-18
-2.615971946e-20
1.801522166e-18
-2.378290231e-20
1.806969863e-18
-2.09917349e-20
1.811363272e-18
-1.776489726e-20
1.814567436e-18
-1.408277877e-20
1.816442692e-18
-9.927331011e-21
1.816844444e-18
-5.28342114e-21
1.815625021e-18
-1.388835789e-22
1.812633822e-18
5.513931867e-21
1.807719702e-18
1.167804106e-20
1.80073167e-18
1.835023645e-20
1.791521903e-18
2.552099347e-20
1.779946985e-18
3.317284693e-20
1.765871494e-18
4.128027453e-20
1.749169707e-18
4.980797412e-20
1.72972972e-18
5.871072856e-20
1.707455614e-18
6.793167911e-20
1.682272076e-18
7.740236471e-20
1.654126908e-18
8.704126041e-20
1.622995933e-18
9.675427153e-20
1.588885554e-18
1.064338141e-19
1.551837615e-18
1.159600162e-19
1.511931666e-18
1.252005111e-19
1.469289443e-18
1.340124776e-19
1.424076414e-18
1.422432348e-19
1.376505323e-18
1.497331454e-19
1.326836344e-18
1.563170456e-19
1.275378973e-18
1.61828089e-19
1.222490164e-18
1.661000822e-19
1.168574137e-18
1.689723261e-19
1.114078252e-18
1.702927808e-19
1.059490551e-18
1.69923562e-19
1.005333152e-18
1.67744305e-19
9.521572402e-19
1.636574638e-19
9.005337547e-19
1.57590956e-19
8.510459317e-19
1.495024547e-19
8.042778974e-19
1.393807046e-19
7.608058948e-19
1.272483407e-19
7.211862589e-19
1.131614342e-19
6.859468061e-19
9.721031122e-20
6.555754399e-19
7.951670101e-20
6.305126887e-19
6.023197439e-20
6.111418727e-19
3.953160962e-20
5.977838998e-19
1.761100513e-20
5.906904039e-19
-5.322022324e-21
5.900422934e-19
-2.905271187e-20
5.959470909e-19
-5.336750469e-20
6.084417973e-19
-7.805951376e-20
6.274942075e-19
-1.029361424e-19
6.53009181e-19
-1.278234345e-19
6.848326392e-19
-1.525719071e-19
7.227597452e-19
-1.770582938e-19
7.665399645e-19
-2.011878548e-19
8.158852634e-19
-2.248918831e-19
8.704740405e-19
-2.481253638e-19
9.299568907e-19
-2.708599707e-19
9.939570117e-19
-2.930779304e-19
1.062071534e-18
-3.147624716e-19
1.133867145e-18
-3.358905187e-19
1.208876596e-18
-3.564236069e-19
1.286590111e-18
-3.763023891e-19
1.366448502e-18
-3.954405764e-19
1.447832623e-18
-4.13723399e-19
1.53005599e-18
-4.310062677e-19
1.612355562e-18
-4.471181544e-19
1.693887165e-18
-4.618652826e-19
1.773720639e-18
-4.750388655e-19
1.850840518e-18
-4.864221485e-19
1.924147251e-18
-4.95799971e-19
1.992463931e-18
-5.029661195e-19
2.054543257e-18
-5.077314175e-19
2.109078563e-18
-5.099285748e-19
2.154713391e-18
-5.094168084e-19
2.19005291e-18
-5.060829602e-19
2.213672841e-18
-4.998423575e-19
2.224130112e-18
-4.906366801e-19
2.219972558e-18
-4.784318508e-19
2.199751155e-18
-4.632138131e-19
2.162030458e-18
-4.449848758e-19
2.105398005e-18
-4.237588588e-19
2.028469298e-18
-3.995575673e-19
1.92989159e-18
-3.724070886e-19
1.808345196e-18
-3.423356205e-19
1.662543953e-18
-3.093715814e-19
1.491235421e-18
-2.735428784e-19
1.293201263e-18
-2.348771874e-19
1.067270114e-18
-1.934017191e-19
8.121641879e-19
-1.49148759e-19
5.259329548e-19
-1.021447134e-19
1.919117082e-19
-5.243940012e-20
7.467585629e-32
1.569372917e-18
-1.28702282e-21
1.572137854e-18
-3.861261719e-21
1.5754627e-18
-6.430382899e-21
1.579379626e-18
-8.986761814e-21
1.583830692e-18
-1.15224563e-20
1.588806006e-18
-1.402917857e-20
1.594294285e-18
-1.64985499e-20
1.600282302e-18
-1.892182288e-20
1.6067546e-18
-2.128997657e-20
1.613693778e-18
-2.359339167e-20
1.621080153e-18
-2.582195785e-20
1.628891929e-18
-2.796476928e-20
1.637104743e-18
-3.00102557e-20
1.645691717e-18
-3.194589368e-20
1.654622902e-18
-3.375835119e-20
1.66386529e-18
-3.54331875e-20
1.673382217e-18
-3.6955002e-20
1.68313336e-18
-3.83071265e-20
1.693074119e-18
-3.947179587e-20
1.703155588e-18
-4.042987416e-20
1.713323902e-18
-4.116108649e-20
1.723520203e-18
-4.164378028e-20
1.733679998e-18
-4.185518637e-20
1.743733189e-18
-4.17711894e-20
1.753603478e-18
-4.136660445e-20
1.763208461e-18
-4.061498769e-20
1.77245906e-18
-3.948902428e-20
1.781259654e-18
-3.796047034e-20
1.789507566e-18
-3.600069822e-20
1.797093318e-18
-3.358076323e-20
1.803900284e-18
-3.067204232e-20
1.809805186e-18
-2.724636519e-20
1.814677973e-18
-2.327675719e-20
1.818382548e-18
-1.873771436e-20
1.820776859e-18
-1.360618224e-20
1.821713919e-18
-7.862080302e-21
1.821042232e-18
-1.489530674e-21
1.818607302e-18
5.522448561e-21
1.814252617e-18
1.31785996e-20
1.807821765e-18
2.147668776e-20
1.79915999e-18
3.040610245e-20
1.788116857e-18
3.994705055e-20
1.7745483e-18
5.006903669e-20
1.758319818e-18
6.072996504e-20
1.739309069e-18
7.187456231e-20
1.717409683e-18
8.343355219e-20
1.692534431e-18
9.53222837e-20
1.664619578e-18
1.074402973e-19
1.633628404e-18
1.196704599e-19
1.599555752e-18
1.318792094e-19
1.562431521e-18
1.439164715e-19
1.522325026e-18
1.556167968e-19
1.479348062e-18
1.668002543e-19
1.433658618e-18
1.772746495e-19
1.38546297e-18
1.868375102e-19
1.335018118e-18
1.952795151e-19
1.282632209e-18
2.023877191e-19
1.228665048e-18
2.079502824e-19
1.173526304e-18
2.117609577e-19
1.117673614e-18
2.136249419e-19
1.061608124e-18
2.133641266e-19
1.005869765e-18
2.108232693e-19
9.510297885e-19
2.058749868e-19
8.976830946e-19
1.984251724e-19
8.46438041e-19
1.884167703e-19
7.979065725e-19
1.758336359e-19
7.526924615e-19
1.607023773e-19
7.113806196e-19
1.430939255e-19
6.745251526e-19
1.231226286e-19
6.426391289e-19
1.009446752e-19
6.161836736e-19
7.67537528e-20
5.955595289e-19
5.077605269e-20
5.810987815e-19
2.326277577e-20
5.730599849e-19
-5.517389725e-21
5.716241832e-19
-3.528756301e-20
5.768947658e-19
-6.577120849e-20
5.888982197e-19
-9.670170869e-20
6.075884139e-19
-1.278304379e-19
6.328512822e-19
-1.589350224e-19
6.645124595e-19
-1.898250594e-19
7.023446205e-19
-2.203468125e-19
7.460767982e-19
-2.503841204e-19
7.954021072e-19
-2.798573071e-19
8.49985788e-19
-3.087178629e-19
9.094699234e-19
-3.369412898e-19
9.734769063e-19
-3.645167009e-19
1.041608546e-18
-3.914360922e-19
1.11344344e-18
-4.176822147e-19
1.188530197e-18
-4.432181612e-19
1.266379588e-18
-4.679775481e-19
1.346453721e-18
-4.918580752e-19
1.428155634e-18
-5.147172437e-19
1.510817792e-18
-5.363724936e-19
1.593692943e-18
-5.566039905e-19
1.675945974e-18
-5.751617273e-19
1.756649883e-18
-5.917744445e-19
1.8347842e-18
-6.061611193e-19
1.909238281e-18
-6.180423166e-19
1.9788172e-18
-6.271517696e-19
2.042251666e-18
-6.332456648e-19
2.098209018e-18
-6.361105422e-19
2.145305849e-18
-6.355679033e-19
2.182119457e-18
-6.31476811e-19
2.207199337e-18
-6.237334477e-19
2.219077551e-18
-6.122690827e-19
2.216280267e-18
-5.970457379e-19
2.197339206e-18
-5.780512845e-19
2.16080299e-18
-5.552934115e-19
2.105245091e-18
-5.287940248e-19
2.029268669e-18
-4.985838499e-19
1.931508478e-18
-4.646983186e-19
1.810631363e-18
-4.271742589e-19
1.665334829e-18
-3.860479616e-19
1.494345087e-18
-3.41354205e-19
1.296417239e-18
-2.931256181e-19
1.070340924e-18
-2.413949372e-19
8.148064257e-19
-1.861908768e-19
5.27803794e-19
-1.275518802e-19
1.926363915e-19
-6.549047253e-20
7.519458036e-32
1.566203425e-18
-1.554065239e-21
1.568976371e-18
-4.661861884e-21
1.572316342e-18
-7.762625595e-21
1.576256101e-18
-1.084771962e-20
1.580738242e-18
-1.390809953e-20
1.585753059e-18
-1.693438573e-20
1.591289688e-18
-1.991679036e-20
1.597335207e-18
-2.284517589e-20
1.603874777e-18
-2.570884931e-20
1.610891505e-18
-2.849655897e-20
1.618366512e-18
-3.119627835e-20
1.626278675e-18
-3.379521066e-20
1.634604587e-18
-3.627958242e-20
1.643318183e-18
-3.863466284e-20
1.652390617e-18
-4.084456309e-20
1.66178984e-18
-4.289224788e-20
1.671480442e-18
-4.475932665e-20
1.681423191e-18
-4.642608346e-20
1.691574842e-18
-4.787127845e-20
1.701887634e-18
-4.907223099e-20
1.712309073e-18
-5.000466812e-20
1.722781438e-18
-5.064284699e-20
1.733241604e-18
-5.095942469e-20
1.743620585e-18
-5.092560322e-20
1.753843395e-18
-5.051102541e-20
1.763828596e-18
-4.968399748e-20
1.773488154e-18
-4.84115091e-20
1.78272701e-18
-4.665960468e-20
1.791443021e-18
-4.439355609e-20
1.799526678e-18
-4.157836699e-20
1.80686125e-18
-3.817904047e-20
1.813322698e-18
-3.416120067e-20
1.818780009e-18
-2.949150961e-20
1.82309526e-18
-2.413850486e-20
1.826124151e-18
-1.807328277e-20
1.827716349e-18
-1.127062544e-20
1.827716443e-18
-3.709922443e-21
1.825964816e-18
4.623512508e-21
1.82229922e-18
1.373739599e-20
1.816556249e-18
2.363104597e-20
1.80857346e-18
3.429420936e-20
1.798191347e-18
4.570546499e-20
1.785255966e-18
5.783087678e-20
1.769621459e-18
7.062225184e-20
1.751153344e-18
8.40157691e-20
1.729731765e-18
9.793034268e-20
1.705255527e-18
1.122665406e-19
1.677645988e-18
1.269053899e-19
1.646851601e-18
1.417078828e-19
1.612852082e-18
1.565145091e-19
1.575663032e-18
1.711456487e-19
1.535339974e-18
1.854021094e-19
1.491982631e-18
1.990667109e-19
1.445738357e-18
2.119061502e-19
1.396805534e-18
2.236740241e-19
1.345435774e-18
2.341142602e-19
1.291935729e-18
2.42965799e-19
1.236667336e-18
2.499676874e-19
1.180047313e-18
2.548653866e-19
1.122544689e-18
2.574172395e-19
1.064677264e-18
2.574017619e-19
1.007005811e-18
2.54624534e-19
9.501271198e-19
2.489253214e-19
8.946648637e-19
2.401841784e-19
8.41259649e-19
2.28327249e-19
7.9055738e-19
2.133310136e-19
7.43197444e-19
1.952257099e-19
6.997998599e-19
1.740966069e-19
6.60952941e-19
1.500838934e-19
6.272006269e-19
1.233798874e-19
5.990311864e-19
9.422460401e-20
5.768665725e-19
6.289867066e-20
5.610542673e-19
2.97149727e-20
5.518608069e-19
-4.99167046e-21
5.494685654e-19
-4.087527986e-20
5.539745853e-19
-7.759061012e-20
5.653926652e-19
-1.148046063e-19
5.836572603e-19
-1.522080153e-19
6.086303245e-19
-1.895253451e-19
6.401095449e-19
-2.265234997e-19
6.778388374e-19
-2.630170979e-19
7.215190883e-19
-2.988707987e-19
7.708193997e-19
-3.339970826e-19
8.253863825e-19
-3.68350436e-19
8.848516008e-19
-4.019171838e-19
9.488350603e-19
-4.347028537e-19
1.016945508e-18
-4.667170384e-19
1.088776258e-18
-4.979580905e-19
1.163898064e-18
-5.283980633e-19
1.241848401e-18
-5.579702113e-19
1.322119138e-18
-5.8655924e-19
1.404142459e-18
-6.13996344e-19
1.487277397e-18
-6.400585615e-19
1.570797163e-18
-6.644735143e-19
1.65387969e-18
-6.869282851e-19
1.73560142e-18
-7.070823047e-19
1.814936065e-18
-7.245820141e-19
1.890757613e-18
-7.390767048e-19
1.961848209e-18
-7.502330982e-19
2.026909172e-18
-7.577481662e-19
2.084574724e-18
-7.613586607e-19
2.133426101e-18
-7.608474765e-19
2.172005564e-18
-7.560460539e-19
2.198828996e-18
-7.468338246e-19
2.212398098e-18
-7.331344466e-19
2.211212239e-18
-7.149101016e-19
2.193780703e-18
-6.921542032e-19
2.158633366e-18
-6.648837546e-19
2.104328308e-18
-6.3313165e-19
2.029455177e-18
-5.969401409e-19
1.932636037e-18
-5.563553915e-19
1.812524292e-18
-5.114236561e-19
1.667801891e-18
-4.621889017e-19
1.497176937e-18
-4.08691546e-19
1.299380792e-18
-3.50968853e-19
1.073182448e-18
-2.89053492e-19
8.172371997e-19
-2.229795376e-19
5.295385134e-19
-1.527651675e-19
1.933159969e-19
-7.845419871e-20
7.587548898e-32
1.562540588e-18
-1.825333789e-21
1.565323496e-18
-5.475283818e-21
1.568681543e-18
-9.116726001e-21
1.572648112e-18
-1.273984412e-20
1.5771663e-18
-1.633458143e-20
1.582226872e-18
-1.989040232e-20
1.587819364e-18
-2.339633293e-20
1.593931433e-18
-2.684085033e-20
1.600548814e-18
-3.021183234e-20
1.607655387e-18
-3.349640032e-20
1.615233043e-18
-3.668084964e-20
1.62326162e-18
-3.975049273e-20
1.631718654e-18
-4.26895899e-20
1.640579211e-18
-4.548119896e-20
1.649815565e-18
-4.810710912e-20
1.659396981e-18
-5.054767563e-20
1.669289341e-18
-5.278175867e-20
1.679454886e-18
-5.478656892e-20
1.689851776e-18
-5.653763595e-20
1.700433796e-18
-5.800869626e-20
1.711149899e-18
-5.917171235e-20
1.721943937e-18
-5.999678388e-20
1.732754243e-18
-6.045219316e-20
1.743513395e-18
-6.050434884e-20
1.754147794e-18
-6.011788113e-20
1.764577388e-18
-5.925568956e-20
1.77471522e-18
-5.787918047e-20
1.784467185e-18
-5.594845981e-20
1.793731674e-18
-5.342272155e-20
1.802399505e-18
-5.026057051e-20
1.810353767e-18
-4.642053291e-20
1.817469911e-18
-4.186153662e-20
1.823615711e-18
-3.654364347e-20
1.828651474e-18
-3.04287933e-20
1.832430174e-18
-2.348184481e-20
1.834797983e-18
-1.56716136e-20
1.83559487e-18
-6.972154616e-21
1.834655722e-18
2.636005614e-21
1.831811566e-18
1.316441339e-20
1.826891269e-18
2.461526757e-20
1.819723269e-18
3.697972877e-20
1.810137752e-18
5.023623603e-20
1.797968905e-18
6.434855855e-20
1.783057741e-18
7.926395644e-20
1.765255126e-18
9.491121983e-20
1.744425493e-18
1.111989865e-19
1.720450736e-18
1.280141116e-19
1.69323471e-18
1.452204725e-19
1.66270773e-18
1.626579382e-19
1.628831479e-18
1.801419461e-19
1.591603707e-18
1.974634227e-19
1.551063146e-18
2.1438951e-19
1.507293984e-18
2.306648925e-19
1.460430304e-18
2.460141598e-19
1.410659785e-18
2.601449304e-19
1.358227007e-18
2.727522088e-19
1.30343561e-18
2.835235957e-19
1.246649616e-18
2.921457408e-19
1.188293072e-18
2.983115546e-19
1.128848339e-18
3.017283755e-19
1.068852229e-18
3.021264281e-19
1.00889048e-18
2.992676503e-19
9.495899668e-19
2.92954133e-19
8.916094171e-19
2.830362374e-19
8.356281995e-19
2.694196156e-19
7.823341137e-19
2.520711836e-19
7.324098255e-19
2.310232072e-19
6.865189584e-19
2.063755536e-19
6.452915598e-19
1.782953079e-19
6.093101382e-19
1.470139592e-19
5.790961766e-19
1.128216702e-19
5.55098516e-19
7.605920229e-20
5.376835502e-19
3.71073417e-20
5.271284458e-19
-3.625263357e-21
5.236169493e-19
-4.57158982e-20
5.272385813e-19
-8.874223597e-20
5.37990482e-19
-1.322973817e-19
5.557825993e-19
-1.760043285e-19
5.804454588e-19
-2.195293685e-19
6.117410244e-19
-2.625929414e-19
6.493754442e-19
-3.049772394e-19
6.930134198e-19
-3.465291103e-19
7.422921766e-19
-3.871580849e-19
7.968341577e-19
-4.2682883e-19
8.562562949e-19
-4.65548767e-19
9.201754223e-19
-5.033513183e-19
9.882085536e-19
-5.402765066e-19
1.059968569e-18
-5.763501408e-19
1.135054993e-18
-6.115640549e-19
1.213041171e-18
-6.458588131e-19
1.293458186e-18
-6.791110398e-19
1.375777456e-18
-7.111263777e-19
1.459392954e-18
-7.416391722e-19
1.543605421e-18
-7.703185413e-19
1.62760971e-18
-7.967807061e-19
1.710487248e-18
-8.206057837e-19
1.791203954e-18
-8.413575607e-19
1.868614342e-18
-8.586039591e-19
1.941470793e-18
-8.719363965e-19
2.008437329e-18
-8.809860197e-19
2.068105805e-18
-8.854360837e-19
2.11901316e-18
-8.850294092e-19
2.159657769e-18
-8.795710867e-19
2.188514533e-18
-8.689266805e-19
2.204048455e-18
-8.530167818e-19
2.204727722e-18
-8.318086736e-19
2.189035973e-18
-8.053066323e-19
2.155482787e-18
-7.735416237e-19
2.102610104e-18
-7.365616162e-19
2.028994368e-18
-6.94423214e-19
1.933245706e-18
-6.471851338e-19
1.81400541e-18
-5.949035927e-19
1.669942099e-18
-5.376296802e-19
1.499747743e-18
-4.754085237e-19
1.302137816e-18
-4.082787523e-19
1.075858508e-18
-3.362755648e-19
8.195630087e-19
-2.594252302e-19
5.312011133e-19
-1.777635439e-19
1.939866006e-19
-9.129221302e-20
7.658153572e-32
1.558373984e-18
-2.101443821e-21
1.561168385e-18
-6.30338301e-21
1.564547115e-18
-1.049561238e-20
1.568544035e-18
-1.466725238e-20
1.573102869e-18
-1.880721734e-20
1.578214871e-18
-2.290394264e-20
1.583870157e-18
-2.694531197e-20
1.590057e-18
-3.091859331e-20
1.596761892e-18
-3.481031384e-20
1.603969529e-18
-3.860615652e-20
1.61166276e-18
-4.229082065e-20
1.619822444e-18
-4.584791697e-20
1.628427275e-18
-4.925982144e-20
1.637453542e-18
-5.250757008e-20
1.646874887e-18
-5.557070784e-20
1.656662005e-18
-5.842717209e-20
1.66678235e-18
-6.105314364e-20
1.677199763e-18
-6.342295647e-20
1.687874117e-18
-6.550897182e-20
1.698760896e-18
-6.728153381e-20
1.709810843e-18
-6.870888143e-20
1.720969572e-18
-6.97571186e-20
1.732177248e-18
-7.03901583e-20
1.74336821e-18
-7.056973978e-20
1.754470603e-18
-7.025544556e-20
1.765405936e-18
-6.940484652e-20
1.776088671e-18
-6.797366571e-20
1.786425814e-18
-6.591606673e-20
1.796316628e-18
-6.318495729e-20
1.805652395e-18
-5.973241155e-20
1.814316301e-18
-5.55101272e-20
1.822183303e-18
-5.047006447e-20
1.829120087e-18
-4.456517764e-20
1.83498502e-18
-3.775037074e-20
1.83962829e-18
-2.998355914e-20
1.842892217e-18
-2.122691895e-20
1.844611916e-18
-1.144818797e-20
1.8446162e-18
-6.221402014e-22
1.842728847e-18
1.126787647e-20
1.838770039e-18
2.422817474e-20
1.832558091e-18
3.825283411e-20
1.823911367e-18
5.332156395e-20
1.81265061e-18
6.9397498e-20
1.798601616e-18
8.642487858e-20
1.781598496e-18
1.043268619e-19
1.761487371e-18
1.230033806e-19
1.738130632e-18
1.423292907e-19
1.711411526e-18
1.621527052e-19
1.681239137e-18
1.822937268e-19
1.647553534e-18
2.025435582e-19
1.610331129e-18
2.22664264e-19
1.569590036e-18
2.423891852e-19
1.525395411e-18
2.614243534e-19
1.477864519e-18
2.794508724e-19
1.427171455e-18
2.96128523e-19
1.373551182e-18
3.111005839e-19
1.317302766e-18
3.239999976e-19
1.258791341e-18
3.344567549e-19
1.198448613e-18
3.421065237e-19
1.136771417e-18
3.466001688e-19
1.074318234e-18
3.47614028e-19
1.011703388e-18
3.448604415e-19
9.495890911e-19
3.380982987e-19
8.886753118e-19
3.271429982e-19
8.29687821e-19
3.118755203e-19
7.733644936e-19
2.922499022e-19
7.204403509e-19