/*--------------------------------*- C++ -*----------------------------------*\
  =========                 |
  \\      /  F ield         | OpenFOAM: The Open Source CFD Toolbox
   \\    /   O peration     | Website:  https://openfoam.org
    \\  /    A nd           | Version:  6
     \\/     M anipulation  |
\*---------------------------------------------------------------------------*/
FoamFile
{
    version     2.0;
    format      ascii;
    class       volVectorField;
    location    "0.006";
    object      U;
}
// * * * * * * * * * * * * * * * * * * * * * * * * * * * * * * * * * * * * * //

dimensions      [0 1 -1 0 0 0 0];

internalField   nonuniform List<vector> 
9600
(
(0 9.456925055e-10 -7.42891846e-14)
(0 9.470413182e-10 -2.249314129e-13)
(0 9.489107859e-10 -3.781064891e-13)
(0 9.510752166e-10 -5.303120262e-13)
(0 9.535506389e-10 -6.809551572e-13)
(0 9.563323197e-10 -8.295442974e-13)
(0 9.59414137e-10 -9.75664246e-13)
(0 9.627883369e-10 -1.118770451e-12)
(0 9.664456666e-10 -1.258372115e-12)
(0 9.70375466e-10 -1.393841705e-12)
(0 9.745656924e-10 -1.524605741e-12)
(0 9.790028927e-10 -1.649946163e-12)
(0 9.836721304e-10 -1.769195198e-12)
(0 9.885568681e-10 -1.881531628e-12)
(0 9.936388174e-10 -1.986180484e-12)
(0 9.988977604e-10 -2.08220438e-12)
(0 1.004311367e-09 -2.168707079e-12)
(0 1.009855021e-09 -2.244618646e-12)
(0 1.015501652e-09 -2.308904085e-12)
(0 1.021221585e-09 -2.36034549e-12)
(0 1.026982373e-09 -2.397759525e-12)
(0 1.032748616e-09 -2.419778815e-12)
(0 1.038481761e-09 -2.42507989e-12)
(0 1.044139907e-09 -2.412159549e-12)
(0 1.049677641e-09 -2.379567948e-12)
(0 1.05504593e-09 -2.325676962e-12)
(0 1.060192079e-09 -2.248924191e-12)
(0 1.06505971e-09 -2.147583228e-12)
(0 1.069588755e-09 -2.020027116e-12)
(0 1.073715439e-09 -1.864505552e-12)
(0 1.077372278e-09 -1.679424188e-12)
(0 1.080488136e-09 -1.463117829e-12)
(0 1.082988381e-09 -1.214137106e-12)
(0 1.084795187e-09 -9.31015722e-13)
(0 1.085827947e-09 -6.125742624e-13)
(0 1.086003795e-09 -2.576962429e-13)
(0 1.085238191e-09 1.34338586e-13)
(0 1.083445576e-09 5.640671665e-13)
(0 1.080540128e-09 1.03149116e-12)
(0 1.076436665e-09 1.536297746e-12)
(0 1.07105172e-09 2.077505138e-12)
(0 1.064304827e-09 2.653700692e-12)
(0 1.056119991e-09 3.262681777e-12)
(0 1.046427316e-09 3.901702448e-12)
(0 1.035164778e-09 4.567100769e-12)
(0 1.022280085e-09 5.254553867e-12)
(0 1.007732622e-09 5.958699428e-12)
(0 9.914954138e-10 6.673418973e-12)
(0 9.735571002e-10 7.391479525e-12)
(0 9.539238604e-10 8.104873072e-12)
(0 9.326212791e-10 8.804503329e-12)
(0 9.09696125e-10 9.480600578e-12)
(0 8.852180135e-10 1.012246187e-11)
(0 8.592808947e-10 1.071894159e-11)
(0 8.320042652e-10 1.125823712e-11)
(0 8.035339704e-10 1.172844535e-11)
(0 7.740424622e-10 1.211738657e-11)
(0 7.437284296e-10 1.241322859e-11)
(0 7.128157871e-10 1.26043545e-11)
(0 6.815520761e-10 1.268005989e-11)
(0 6.50206339e-10 1.263045375e-11)
(0 6.190664919e-10 1.244719303e-11)
(0 5.884361409e-10 1.212335427e-11)
(0 5.586307715e-10 1.165412777e-11)
(0 5.299732688e-10 1.10365865e-11)
(0 5.027888617e-10 1.027028695e-11)
(0 4.773996946e-10 9.356907871e-12)
(0 4.541193234e-10 8.300745021e-12)
(0 4.332473875e-10 7.108205205e-12)
(0 4.150646363e-10 5.788164831e-12)
(0 3.998283472e-10 4.35127952e-12)
(0 3.877681575e-10 2.810169579e-12)
(0 3.790823368e-10 1.178541549e-12)
(0 3.739346491e-10 -5.287588976e-13)
(0 3.724519956e-10 -2.296723264e-12)
(0 3.747230616e-10 -4.110144002e-12)
(0 3.807980525e-10 -5.954568623e-12)
(0 3.906894929e-10 -7.816184502e-12)
(0 4.043738713e-10 -9.682679232e-12)
(0 4.217938654e-10 -1.154299515e-11)
(0 4.428608276e-10 -1.338803353e-11)
(0 4.674572883e-10 -1.521020199e-11)
(0 4.954392534e-10 -1.700386417e-11)
(0 5.266381661e-10 -1.876459539e-11)
(0 5.608623873e-10 -2.048933239e-11)
(0 5.978981009e-10 -2.21753747e-11)
(0 6.375095031e-10 -2.38203525e-11)
(0 6.794381758e-10 -2.54211672e-11)
(0 7.234015472e-10 -2.697399589e-11)
(0 7.690904607e-10 -2.847338725e-11)
(0 8.161659799e-10 -2.991246982e-11)
(0 8.642557346e-10 -3.128232122e-11)
(0 9.129501979e-10 -3.257244347e-11)
(0 9.617993274e-10 -3.377043866e-11)
(0 1.010309923e-09 -3.486274985e-11)
(0 1.057943973e-09 -3.583461459e-11)
(0 1.104118139e-09 -3.667099567e-11)
(0 1.148204472e-09 -3.735669124e-11)
(0 1.1895324e-09 -3.787728292e-11)
(0 1.227391956e-09 -3.821921246e-11)
(0 1.261038013e-09 -3.83705518e-11)
(0 1.289695145e-09 -3.832089875e-11)
(0 1.312562649e-09 -3.806187557e-11)
(0 1.3288194e-09 -3.75868245e-11)
(0 1.337628686e-09 -3.689106937e-11)
(0 1.338143469e-09 -3.597147418e-11)
(0 1.329512514e-09 -3.482653007e-11)
(0 1.310887123e-09 -3.345581911e-11)
(0 1.281427515e-09 -3.185997208e-11)
(0 1.240307917e-09 -3.004014913e-11)
(0 1.1867203e-09 -2.79980242e-11)
(0 1.119877209e-09 -2.573539245e-11)
(0 1.039014364e-09 -2.325414781e-11)
(0 9.433938001e-10 -2.05560921e-11)
(0 8.323107114e-10 -1.764285675e-11)
(0 7.051033671e-10 -1.451613349e-11)
(0 5.611861814e-10 -1.117734329e-11)
(0 3.999170503e-10 -7.630370533e-12)
(0 2.230603087e-10 -3.895271577e-12)
(0 2.072128349e-12 4.424237794e-23)
(0 9.449415205e-10 -2.252875956e-13)
(0 9.462882402e-10 -6.794231546e-13)
(0 9.48156895e-10 -1.13752661e-12)
(0 9.503245687e-10 -1.593562918e-12)
(0 9.528049576e-10 -2.045373169e-12)
(0 9.555927924e-10 -2.491365706e-12)
(0 9.586820246e-10 -2.930023095e-12)
(0 9.620650176e-10 -3.359805852e-12)
(0 9.65732638e-10 -3.779066618e-12)
(0 9.696743493e-10 -4.186068961e-12)
(0 9.738782424e-10 -4.578933957e-12)
(0 9.783310038e-10 -4.955667695e-12)
(0 9.830178481e-10 -5.314110112e-12)
(0 9.879223956e-10 -5.651964446e-12)
(0 9.930265276e-10 -5.96674597e-12)
(0 9.98310204e-10 -6.255814333e-12)
(0 1.003751288e-09 -6.516316888e-12)
(0 1.009325365e-09 -6.745218864e-12)
(0 1.015005581e-09 -6.939246713e-12)
(0 1.020762476e-09 -7.0949248e-12)
(0 1.026563824e-09 -7.208529326e-12)
(0 1.032374435e-09 -7.276141906e-12)
(0 1.03815596e-09 -7.293612502e-12)
(0 1.043866695e-09 -7.256617454e-12)
(0 1.049461418e-09 -7.160617267e-12)
(0 1.05489128e-09 -7.000914368e-12)
(0 1.060103747e-09 -6.772621592e-12)
(0 1.065042563e-09 -6.47074867e-12)
(0 1.06964773e-09 -6.090207367e-12)
(0 1.073855477e-09 -5.625938418e-12)
(0 1.077598255e-09 -5.072940205e-12)
(0 1.080804789e-09 -4.426405962e-12)
(0 1.08340024e-09 -3.681751043e-12)
(0 1.085306485e-09 -2.834760511e-12)
(0 1.086442518e-09 -1.881643815e-12)
(0 1.086724937e-09 -8.192357873e-13)
(0 1.086068508e-09 3.548867107e-13)
(0 1.084386805e-09 1.642148231e-12)
(0 1.08159297e-09 3.042831122e-12)
(0 1.077600608e-09 4.555815167e-12)
(0 1.07232489e-09 6.178454297e-12)
(0 1.065683828e-09 7.906334405e-12)
(0 1.057599754e-09 9.733162548e-12)
(0 1.048000931e-09 1.165051753e-11)
(0 1.036823332e-09 1.364772942e-11)
(0 1.024012495e-09 1.571162279e-11)
(0 1.009525494e-09 1.782641662e-11)
(0 9.933329336e-10 1.99735183e-11)
(0 9.754209853e-10 2.213152165e-11)
(0 9.557933732e-10 2.427613321e-11)
(0 9.344733301e-10 2.638034119e-11)
(0 9.115054444e-10 2.84145273e-11)
(0 8.869574157e-10 3.034683285e-11)
(0 8.609216005e-10 3.21434559e-11)
(0 8.335163053e-10 3.376919453e-11)
(0 8.048866388e-10 3.518790345e-11)
(0 7.752048541e-10 3.636320005e-11)
(0 7.44670038e-10 3.7259087e-11)
(0 7.135071917e-10 3.784084265e-11)
(0 6.819656789e-10 3.8075821e-11)
(0 6.50317149e-10 3.79344884e-11)
(0 6.188528803e-10 3.739128597e-11)
(0 5.878805491e-10 3.642562005e-11)
(0 5.577202985e-10 3.5022556e-11)
(0 5.287001466e-10 3.317354802e-11)
(0 5.01150776e-10 3.087681324e-11)
(0 4.753999773e-10 2.813771945e-11)
(0 4.517669726e-10 2.496879656e-11)
(0 4.305569228e-10 2.138972591e-11)
(0 4.12055731e-10 1.742689147e-11)
(0 3.965252496e-10 1.311284196e-11)
(0 3.841988836e-10 8.485280846e-12)
(0 3.752776997e-10 3.585994453e-12)
(0 3.699271694e-10 -1.540584346e-12)
(0 3.6827479e-10 -6.848713493e-12)
(0 3.704087574e-10 -1.229285733e-11)
(0 3.763777944e-10 -1.78289453e-11)
(0 3.861920588e-10 -2.341568275e-11)
(0 3.998249387e-10 -2.901552332e-11)
(0 4.172154567e-10 -3.459559946e-11)
(0 4.382709961e-10 -4.012820898e-11)
(0 4.628701016e-10 -4.559110348e-11)
(0 4.908651203e-10 -5.096718727e-11)
(0 5.220845187e-10 -5.624389995e-11)
(0 5.563346641e-10 -6.141201307e-11)
(0 5.934009435e-10 -6.646422597e-11)
(0 6.330480211e-10 -7.1393438e-11)
(0 6.750191623e-10 -7.619113614e-11)
(0 7.190345034e-10 -8.084581049e-11)
(0 7.64788373e-10 -8.534176628e-11)
(0 8.119457688e-10 -8.965819386e-11)
(0 8.601383854e-10 -9.37687592e-11)
(0 9.089605295e-10 -9.764154545e-11)
(0 9.579654473e-10 -1.01239532e-10)
(0 1.006662355e-09 -1.045214252e-10)
(0 1.054514565e-09 -1.074429326e-10)
(0 1.10093878e-09 -1.099582504e-10)
(0 1.145305795e-09 -1.12021736e-10)
(0 1.186942531e-09 -1.135895178e-10)
(0 1.225135466e-09 -1.146209626e-10)
(0 1.2591351e-09 -1.150798307e-10)
(0 1.288161136e-09 -1.149350871e-10)
(0 1.31140773e-09 -1.14161334e-10)
(0 1.328048631e-09 -1.127389056e-10)
(0 1.337242162e-09 -1.10653675e-10)
(0 1.338136676e-09 -1.078966151e-10)
(0 1.329876767e-09 -1.04463171e-10)
(0 1.311610134e-09 -1.003524412e-10)
(0 1.282493878e-09 -9.556630538e-11)
(0 1.241699491e-09 -9.010854488e-11)
(0 1.188416317e-09 -8.398416952e-11)
(0 1.121854185e-09 -7.719880148e-11)
(0 1.041245424e-09 -6.975823459e-11)
(0 9.458474248e-10 -6.166817144e-11)
(0 8.349477161e-10 -5.293411286e-11)
(0 7.078714874e-10 -4.356192317e-11)
(0 5.640058265e-10 -3.355862641e-11)
(0 4.026391226e-10 -2.293708212e-11)
(0 2.254099248e-10 -1.173872393e-11)
(0 2.074986363e-12 4.431003171e-23)
(0 9.438969085e-10 -3.797368173e-13)
(0 9.452425841e-10 -1.141328408e-12)
(0 9.471116409e-10 -1.90435121e-12)
(0 9.492841808e-10 -2.664395956e-12)
(0 9.517722752e-10 -3.418066747e-12)
(0 9.545702232e-10 -4.162544045e-12)
(0 9.576719215e-10 -4.895127745e-12)
(0 9.61069803e-10 -5.613186789e-12)
(0 9.647548768e-10 -6.313914298e-12)
(0 9.687167877e-10 -6.994424695e-12)
(0 9.729438277e-10 -7.651565755e-12)
(0 9.774229062e-10 -8.282045865e-12)
(0 9.821394752e-10 -8.882255915e-12)
(0 9.870774116e-10 -9.448407907e-12)
(0 9.922188655e-10 -9.976355525e-12)
(0 9.975440869e-10 -1.046173998e-11)
(0 1.003031247e-09 -1.089979929e-11)
(0 1.00865626e-09 -1.128551555e-11)
(0 1.014392616e-09 -1.161342243e-11)
(0 1.02021121e-09 -1.187776623e-11)
(0 1.026080163e-09 -1.207232963e-11)
(0 1.031964627e-09 -1.219062039e-11)
(0 1.037826581e-09 -1.222570517e-11)
(0 1.043624642e-09 -1.21704057e-11)
(0 1.049313903e-09 -1.201712269e-11)
(0 1.054845814e-09 -1.175803974e-11)
(0 1.060168104e-09 -1.138496397e-11)
(0 1.06522472e-09 -1.08895823e-11)
(0 1.069955781e-09 -1.026335814e-11)
(0 1.074297528e-09 -9.49785151e-12)
(0 1.078182315e-09 -8.5846464e-12)
(0 1.081538663e-09 -7.515690496e-12)
(0 1.08429141e-09 -6.283221981e-12)
(0 1.086361979e-09 -4.88013788e-12)
(0 1.08766873e-09 -3.299969894e-12)
(0 1.088127416e-09 -1.537346225e-12)
(0 1.087651696e-09 4.11939504e-13)
(0 1.08615377e-09 2.550378812e-12)
(0 1.08354512e-09 4.878645332e-12)
(0 1.079737433e-09 7.395035419e-12)
(0 1.074643702e-09 1.009539489e-11)
(0 1.068179515e-09 1.297257426e-11)
(0 1.060264513e-09 1.60163678e-11)
(0 1.050824006e-09 1.921294541e-11)
(0 1.039790726e-09 2.25447793e-11)
(0 1.027106701e-09 2.599006393e-11)
(0 1.012725251e-09 2.95226898e-11)
(0 9.966130517e-10 3.311175113e-11)
(0 9.787522458e-10 3.672169124e-11)
(0 9.591425564e-10 4.031202384e-11)
(0 9.378033505e-10 4.383776161e-11)
(0 9.147756304e-10 4.724943151e-11)
(0 8.901238979e-10 5.049382882e-11)
(0 8.639378314e-10 5.35143316e-11)
(0 8.363336714e-10 5.625196004e-11)
(0 8.074551992e-10 5.864596488e-11)
(0 7.774741801e-10 6.063518538e-11)
(0 7.465902001e-10 6.215893295e-11)
(0 7.150298588e-10 6.315868405e-11)
(0 6.830453422e-10 6.35792624e-11)
(0 6.509123802e-10 6.337078102e-11)
(0 6.189275832e-10 6.248991053e-11)
(0 5.874050917e-10 6.090174341e-11)
(0 5.566724952e-10 5.858077411e-11)
(0 5.270660246e-10 5.551234928e-11)
(0 4.989251412e-10 5.169312291e-11)
(0 4.725867374e-10 4.713195317e-11)
(0 4.483792204e-10 4.184973512e-11)
(0 4.266167071e-10 3.587961438e-11)
(0 4.075934941e-10 2.926600649e-11)
(0 3.915788825e-10 2.206390643e-11)
(0 3.788124393e-10 1.433694405e-11)
(0 3.694998153e-10 6.155806128e-12)
(0 3.638093229e-10 -2.404425734e-12)
(0 3.618694955e-10 -1.126629474e-11)
(0 3.637678134e-10 -2.035279413e-11)
(0 3.695506477e-10 -2.958928837e-11)
(0 3.792243433e-10 -3.890604835e-11)
(0 3.927572365e-10 -4.823971523e-11)
(0 4.100823564e-10 -5.753520096e-11)
(0 4.311005497e-10 -6.674628926e-11)
(0 4.556837805e-10 -7.583639358e-11)
(0 4.836783532e-10 -8.477775268e-11)
(0 5.149078046e-10 -9.355060819e-11)
(0 5.491751943e-10 -1.02140844e-10)
(0 5.862645459e-10 -1.105378304e-10)
(0 6.259412365e-10 -1.187311775e-10)
(0 6.679512044e-10 -1.267082256e-10)
(0 7.120189495e-10 -1.344510246e-10)
(0 7.578444135e-10 -1.419345191e-10)
(0 8.050989721e-10 -1.491246256e-10)
(0 8.534208879e-10 -1.559777481e-10)
(0 9.024106767e-10 -1.62440386e-10)
(0 9.516268449e-10 -1.6845023e-10)
(0 1.000582433e-09 -1.739373677e-10)
(0 1.048742697e-09 -1.788267949e-10)
(0 1.09552418e-09 -1.830407718e-10)
(0 1.140295316e-09 -1.865020015e-10)
(0 1.182378642e-09 -1.891361641e-10)
(0 1.221054503e-09 -1.908746887e-10)
(0 1.25556598e-09 -1.91656483e-10)
(0 1.285124503e-09 -1.914295472e-10)
(0 1.308915597e-09 -1.901514686e-10)
(0 1.326104374e-09 -1.877897738e-10)
(0 1.335840867e-09 -1.843213365e-10)
(0 1.337265703e-09 -1.797317632e-10)
(0 1.329516546e-09 -1.740140601e-10)
(0 1.311734996e-09 -1.67167396e-10)
(0 1.283072874e-09 -1.591954396e-10)
(0 1.24269689e-09 -1.501050598e-10)
(0 1.189791765e-09 -1.399050144e-10)
(0 1.123562284e-09 -1.286051142e-10)
(0 1.043234627e-09 -1.162154615e-10)
(0 9.480575648e-10 -1.027461569e-10)
(0 8.373053888e-10 -8.820731953e-11)
(0 7.102808606e-10 -7.261001851e-11)
(0 5.663310973e-10 -5.59677471e-11)
(0 4.04664682e-10 -3.830076002e-11)
(0 2.267920235e-10 -1.964193555e-11)
(0 2.080714046e-12 4.444590326e-23)
(0 9.425708507e-10 -5.354773511e-13)
(0 9.439168897e-10 -1.60743785e-12)
(0 9.457889379e-10 -2.678644389e-12)
(0 9.479683123e-10 -3.74511502e-12)
(0 9.504668559e-10 -4.802880588e-12)
(0 9.532787081e-10 -5.848134748e-12)
(0 9.563977024e-10 -6.877166419e-12)
(0 9.598163531e-10 -7.886219796e-12)
(0 9.635258396e-10 -8.87141375e-12)
(0 9.675160308e-10 -9.828657916e-12)
(0 9.71775485e-10 -1.075361592e-11)
(0 9.762914089e-10 -1.164164779e-11)
(0 9.810495784e-10 -1.248779295e-11)
(0 9.860342179e-10 -1.328672436e-11)
(0 9.912278488e-10 -1.403273677e-11)
(0 9.966111193e-10 -1.471970225e-11)
(0 1.002162628e-09 -1.534105232e-11)
(0 1.007858743e-09 -1.588973055e-11)
(0 1.013673431e-09 -1.635818003e-11)
(0 1.019578072e-09 -1.673831141e-11)
(0 1.025541269e-09 -1.702151778e-11)
(0 1.031528645e-09 -1.719866891e-11)
(0 1.037502642e-09 -1.726014392e-11)
(0 1.043422329e-09 -1.719582682e-11)
(0 1.049243243e-09 -1.699513657e-11)
(0 1.054917254e-09 -1.664703328e-11)
(0 1.060392466e-09 -1.614008408e-11)
(0 1.065613113e-09 -1.546253406e-11)
(0 1.070519485e-09 -1.460245276e-11)
(0 1.075047859e-09 -1.354787333e-11)
(0 1.079130482e-09 -1.228698456e-11)
(0 1.082695624e-09 -1.080829034e-11)
(0 1.085667714e-09 -9.100821022e-12)
(0 1.087967571e-09 -7.154337718e-12)
(0 1.089512711e-09 -4.959630353e-12)
(0 1.090217735e-09 -2.508841316e-12)
(0 1.08999481e-09 2.041109048e-13)
(0 1.088754267e-09 3.18310995e-12)
(0 1.08640535e-09 6.429368225e-12)
(0 1.082857143e-09 9.940999505e-12)
(0 1.078019683e-09 1.371255812e-11)
(0 1.071805239e-09 1.773462074e-11)
(0 1.064129763e-09 2.199331113e-11)
(0 1.054914476e-09 2.646984965e-11)
(0 1.044087615e-09 3.114005023e-11)
(0 1.031586325e-09 3.597387741e-11)
(0 1.017358698e-09 4.093501091e-11)
(0 1.001365927e-09 4.598055094e-11)
(0 9.835845348e-10 5.106081141e-11)
(0 9.64008634e-10 5.611933082e-11)
(0 9.426521584e-10 6.10930304e-11)
(0 9.195510203e-10 6.591263201e-11)
(0 8.947651483e-10 7.050324273e-11)
(0 8.683803209e-10 7.478520523e-11)
(0 8.405097179e-10 7.867510981e-11)
(0 8.112950586e-10 8.208707574e-11)
(0 7.809072329e-10 8.493420862e-11)
(0 7.495463268e-10 8.713035521e-11)
(0 7.174410105e-10 8.85920446e-11)
(8.09162028e-53 6.84847253e-10 8.924069046e-11)
(7.600528624e-53 6.520463547e-10 8.900485788e-11)
(0 6.193422405e-10 8.78225905e-11)
(0 5.870579752e-10 8.564354783e-11)
(0 5.55531458e-10 8.243095974e-11)
(0 5.251103551e-10 7.816319666e-11)
(0 4.961463937e-10 7.283503149e-11)
(0 4.689892491e-10 6.64584234e-11)
(0 4.439802552e-10 5.906289369e-11)
(0 4.21446169e-10 5.069528017e-11)
(0 4.016931348e-10 4.141891887e-11)
(0 3.850009864e-10 3.131206338e-11)
(0 3.716180117e-10 2.046569392e-11)
(0 3.61756384e-10 8.980671114e-12)
(0 3.555884915e-10 -3.035461387e-12)
(0 3.532444072e-10 -1.547197915e-11)
(0 3.548106491e-10 -2.821845545e-11)
(0 3.603302618e-10 -4.116821381e-11)
(0 3.698041109e-10 -5.422147475e-11)
(0 3.831932113e-10 -6.728820862e-11)
(0 4.004218657e-10 -8.02903651e-11)
(0 4.213813858e-10 -9.316341893e-11)
(0 4.45934144e-10 -1.058568545e-10)
(0 4.739176437e-10 -1.183335815e-10)
(0 5.051482527e-10 -1.305680747e-10)
(0 5.394241994e-10 -1.425435055e-10)
(0 5.765274858e-10 -1.542479602e-10)
(0 6.162244417e-10 -1.656702747e-10)
(0 6.582648061e-10 -1.767957219e-10)
(0 7.023793315e-10 -1.876021044e-10)
(0 7.482760839e-10 -1.980564108e-10)
(0 7.956357057e-10 -2.08112452e-10)
(0 8.441060615e-10 -2.177095087e-10)
(0 8.932967353e-10 -2.267722641e-10)
(0 9.427739211e-10 -2.352119131e-10)
(0 9.920561805e-10 -2.429285328e-10)
(0 1.040611528e-09 -2.498143763e-10)
(0 1.087856134e-09 -2.55757925e-10)
(0 1.133154884e-09 -2.606481548e-10)
(0 1.175823809e-09 -2.64378742e-10)
(0 1.215134286e-09 -2.668516936e-10)
(0 1.250318579e-09 -2.679802718e-10)
(0 1.28057616e-09 -2.676909275e-10)
(0 1.305080101e-09 -2.659243444e-10)
(0 1.322983158e-09 -2.626355268e-10)
(0 1.333423575e-09 -2.577931658e-10)
(0 1.335531132e-09 -2.513783093e-10)
(0 1.328433818e-09 -2.433826001e-10)
(0 1.311264837e-09 -2.338061495e-10)
(0 1.283168743e-09 -2.226553628e-10)
(0 1.243305772e-09 -2.099408637e-10)
(0 1.190854392e-09 -1.956758102e-10)
(0 1.125012722e-09 -1.798745788e-10)
(0 1.044998925e-09 -1.625518922e-10)
(0 9.500511815e-10 -1.437223593e-10)
(0 8.394283993e-10 -1.234005607e-10)
(0 7.124106819e-10 -1.016017689e-10)
(0 5.683099293e-10 -7.834322276e-11)
(0 4.062861452e-10 -5.364522929e-11)
(0 2.278033099e-10 -2.753257376e-11)
(0 2.089346574e-12 4.46679196e-23)
(0 9.409585286e-10 -6.926625516e-13)
(0 9.42306595e-10 -2.078336679e-12)
(0 9.441836317e-10 -3.46157746e-12)
(0 9.463720576e-10 -4.83813349e-12)
(0 9.488839102e-10 -6.203487442e-12)
(0 9.517133446e-10 -7.553067225e-12)
(0 9.548542494e-10 -8.88222031e-12)
(0 9.582992795e-10 -1.018620321e-11)
(0 9.620398277e-10 -1.146005622e-11)
(0 9.660660408e-10 -1.269858401e-11)
(0 9.703668058e-10 -1.389624334e-11)
(0 9.749297006e-10 -1.504714358e-11)
(0 9.797409073e-10 -1.614494998e-11)
(0 9.847850904e-10 -1.718289696e-11)
(0 9.900452433e-10 -1.815369598e-11)
(0 9.955025223e-10 -1.904954969e-11)
(0 1.001136071e-09 -1.986205483e-11)
(0 1.006922841e-09 -2.058221485e-11)
(0 1.012837402e-09 -2.120035091e-11)
(0 1.018851756e-09 -2.170613715e-11)
(0 1.02493512e-09 -2.208854099e-11)
(0 1.031053729e-09 -2.233588818e-11)
(0 1.037170624e-09 -2.243581612e-11)
(0 1.04324547e-09 -2.237534516e-11)
(0 1.049234388e-09 -2.214083346e-11)
(0 1.055089802e-09 -2.171807163e-11)
(0 1.060760301e-09 -2.109228771e-11)
(0 1.066190503e-09 -2.02483242e-11)
(0 1.071320939e-09 -1.917073006e-11)
(0 1.076087968e-09 -1.78440146e-11)
(0 1.08042375e-09 -1.625278888e-11)
(0 1.084256287e-09 -1.438205463e-11)
(0 1.087509537e-09 -1.2217385e-11)
(0 1.090103593e-09 -9.745292009e-12)
(0 1.09195493e-09 -6.953523776e-12)
(0 1.092976725e-09 -3.831580136e-12)
(0 1.093079287e-09 -3.711489065e-13)
(0 1.092170634e-09 3.433270877e-12)
(0 1.090157233e-09 7.583877356e-12)
(0 1.086944933e-09 1.207892136e-11)
(0 1.082440069e-09 1.69122078e-11)
(0 1.076550732e-09 2.207242442e-11)
(0 1.069188179e-09 2.754260128e-11)
(0 1.060268404e-09 3.32993839e-11)
(0 1.049713873e-09 3.931246557e-11)
(0 1.037455446e-09 4.554388447e-11)
(0 1.02343448e-09 5.194756657e-11)
(0 1.007605095e-09 5.846882071e-11)
(0 9.899365486e-10 6.504417567e-11)
(0 9.704156728e-10 7.1601245e-11)
(0 9.490493004e-10 7.805900866e-11)
(0 9.258666345e-10 8.432816968e-11)
(0 9.009214961e-10 9.031197393e-11)
(0 8.742943791e-10 9.590712591e-11)
(0 8.460942195e-10 1.010051952e-10)
(0 8.164597777e-10 1.05494136e-10)
(0 7.855605226e-10 1.092603359e-10)
(0 7.535969303e-10 1.121907989e-10)
(0 7.208001186e-10 1.141758618e-10)
(0 6.87430754e-10 1.151119607e-10)
(0 6.537771621e-10 1.149047673e-10)
(0 6.201525801e-10 1.134721072e-10)
(0 5.868914991e-10 1.107469481e-10)
(0 5.543451038e-10 1.066798717e-10)
(0 5.228758794e-10 1.012413854e-10)
(0 4.928515433e-10 9.442353092e-11)
(0 4.646385053e-10 8.62411782e-11)
(0 4.385950796e-10 7.673243007e-11)
(0 4.150646491e-10 6.59585013e-11)
(0 3.943689619e-10 5.400248032e-11)
(0 3.76801735e-10 4.096741293e-11)
(0 3.626227859e-10 2.697324289e-11)
(0 3.520529536e-10 1.215323891e-11)
(0 3.45270099e-10 -3.350401021e-12)
(0 3.424064177e-10 -1.93910333e-11)
(0 3.435471998e-10 -3.58224391e-11)
(0 3.487310318e-10 -5.250337394e-11)
(0 3.579513406e-10 -6.930212493e-11)
(0 3.711591268e-10 -8.610033105e-11)
(0 3.882667164e-10 -1.027963051e-10)
(0 4.091523287e-10 -1.193070167e-10)
(0 4.336651768e-10 -1.3556895e-10)
(0 4.616307035e-10 -1.515371101e-10)
(0 4.928554443e-10 -1.671826504e-10)
(0 5.271309693e-10 -1.82488765e-10)
(0 5.642364204e-10 -1.974456972e-10)
(0 6.039393173e-10 -2.120448308e-10)
(0 6.459944933e-10 -2.262728875e-10)
(0 6.901412195e-10 -2.401062595e-10)
(0 7.360987335e-10 -2.535064255e-10)
(0 7.835605195e-10 -2.664163674e-10)
(0 8.321877991e-10 -2.787587667e-10)
(0 8.816027999e-10 -2.904357209e-10)
(0 9.31382408e-10 -3.013304936e-10)
(0 9.810528406e-10 -3.113107461e-10)
(0 1.030085889e-09 -3.202333732e-10)
(0 1.077897177e-09 -3.279500558e-10)
(0 1.123846674e-09 -3.343133536e-10)
(0 1.167241506e-09 -3.391823681e-10)
(0 1.207340835e-09 -3.424278437e-10)
(0 1.24336229e-09 -3.439359943e-10)
(0 1.274489234e-09 -3.436111986e-10)
(0 1.299878083e-09 -3.413772013e-10)
(0 1.318665198e-09 -3.371772026e-10)
(0 1.329973371e-09 -3.309727089e-10)
(0 1.332918352e-09 -3.227416306e-10)
(0 1.326615838e-09 -3.124756271e-10)
(0 1.310188532e-09 -3.001772123e-10)
(0 1.282772099e-09 -2.858567098e-10)
(0 1.243519011e-09 -2.695295529e-10)
(0 1.191600471e-09 -2.51213986e-10)
(0 1.126207037e-09 -2.309294146e-10)
(0 1.046548172e-09 -2.086952645e-10)
(0 9.518511012e-10 -1.845304413e-10)
(0 8.41360464e-10 -1.58453245e-10)
(0 7.1433711e-10 -1.304818737e-10)
(0 5.700699857e-10 -1.006348716e-10)
(0 4.076911306e-10 -6.893138203e-11)
(0 2.286612646e-10 -3.538987545e-11)
(0 2.100949751e-12 4.494321604e-23)
(0 9.390551956e-10 -8.517379098e-13)
(0 9.404063643e-10 -2.55514294e-12)
(0 9.42290117e-10 -4.254845326e-12)
(0 9.444898385e-10 -5.945983975e-12)
(0 9.47017817e-10 -7.623463173e-12)
(0 9.498683798e-10 -9.281978629e-12)
(0 9.530355853e-10 -1.091605987e-11)
(0 9.565123013e-10 -1.252002797e-11)
(0 9.602901971e-10 -1.408794554e-11)
(0 9.643597581e-10 -1.561353917e-11)
(0 9.687102665e-10 -1.709014616e-11)
(0 9.733297447e-10 -1.851064421e-11)
(0 9.78204864e-10 -1.986740941e-11)
(0 9.833208194e-10 -2.115225489e-11)
(0 9.886611786e-10 -2.235639326e-11)
(0 9.942077165e-10 -2.347037223e-11)
(0 9.999402422e-10 -2.448403416e-11)
(0 1.005836412e-09 -2.538645415e-11)
(0 1.011871536e-09 -2.616591126e-11)
(0 1.018018365e-09 -2.680985251e-11)
(0 1.024246874e-09 -2.730489527e-11)
(0 1.030524051e-09 -2.763681704e-11)
(0 1.036813689e-09 -2.779057132e-11)
(0 1.043076201e-09 -2.775028522e-11)
(0 1.04926844e-09 -2.749928975e-11)
(0 1.055343525e-09 -2.702015195e-11)
(0 1.061250656e-09 -2.62947741e-11)
(0 1.06693494e-09 -2.530451475e-11)
(0 1.072337243e-09 -2.403037963e-11)
(0 1.07739408e-09 -2.245321967e-11)
(0 1.082037577e-09 -2.055397987e-11)
(0 1.086195487e-09 -1.831394972e-11)
(0 1.089791265e-09 -1.571508543e-11)
(0 1.092744185e-09 -1.27403713e-11)
(0 1.094969514e-09 -9.37429167e-12)
(0 1.096378764e-09 -5.603355669e-12)
(0 1.096880074e-09 -1.416717321e-12)
(0 1.096378754e-09 3.193192358e-12)
(0 1.09477802e-09 8.229976548e-12)
(0 1.091979908e-09 1.36925955e-11)
(0 1.08788636e-09 1.957462771e-11)
(0 1.082400446e-09 2.586352221e-11)
(0 1.075427743e-09 3.253977428e-11)
(0 1.066877876e-09 3.957610488e-11)
(0 1.056666248e-09 4.69366104e-11)
(0 1.044716012e-09 5.457599762e-11)
(0 1.030960258e-09 6.243888347e-11)
(0 1.015344405e-09 7.045927959e-11)
(0 9.978287413e-10 7.856023129e-11)
(0 9.783910585e-10 8.665372435e-11)
(0 9.570292999e-10 9.464082379e-11)
(0 9.337641753e-10 1.024121567e-10)
(0 9.086416741e-10 1.098486968e-10)
(0 8.817354015e-10 1.16822958e-10)
(0 8.53148652e-10 1.232005444e-10)
(0 8.230161162e-10 1.288421623e-10)
(0 7.915051126e-10 1.336060323e-10)
(0 7.588162345e-10 1.373507895e-10)
(0 7.251832984e-10 1.399387526e-10)
(0 6.908724787e-10 1.412395647e-10)
(0 6.561805222e-10 1.411339804e-10)
(0 6.214319557e-10 1.395177166e-10)
(0 5.869752526e-10 1.363050998e-10)
(0 5.531779841e-10 1.31432445e-10)
(0 5.204210566e-10 1.248609365e-10)
(0 4.89092191e-10 1.165789831e-10)
(0 4.595788366e-10 1.066038159e-10)
(0 4.322607192e-10 9.498227663e-11)
(0 4.075022266e-10 8.179054559e-11)
(0 3.856448429e-10 6.713278721e-11)
(0 3.66999883e-10 5.113856556e-11)
(0 3.518418295e-10 3.39591864e-11)
(0 3.404026169e-10 1.576301618e-11)
(0 3.328671874e-10 -3.269891287e-12)
(0 3.293705534e-10 -2.295371965e-11)
(0 3.29996479e-10 -4.310301338e-11)
(0 3.347777671e-10 -6.353887113e-11)
(0 3.436980775e-10 -8.409482894e-11)
(0 3.566951829e-10 -1.046222079e-10)
(0 3.73665546e-10 -1.249944018e-10)
(0 3.944700301e-10 -1.451097719e-10)
(0 4.189404036e-10 -1.648926344e-10)
(0 4.46886102e-10 -1.842921937e-10)
(0 4.781005635e-10 -2.032792642e-10)
(0 5.123664013e-10 -2.218410862e-10)
(0 5.494587857e-10 -2.399745463e-10)
(0 5.891466247e-10 -2.576784934e-10)
(0 6.311913883e-10 -2.749457171e-10)
(0 6.753436548e-10 -2.917553934e-10)
(0 7.213376526e-10 -3.080665624e-10)
(0 7.688842057e-10 -3.238133322e-10)
(0 8.176626373e-10 -3.389021794e-10)
(0 8.673123101e-10 -3.53211747e-10)
(0 9.17424582e-10 -3.665951129e-10)
(0 9.675359893e-10 -3.788844357e-10)
(0 1.017123406e-09 -3.898974209e-10)
(0 1.065601741e-09 -3.994450186e-10)
(0 1.112324474e-09 -4.073394679e-10)
(0 1.156587015e-09 -4.134019915e-10)
(0 1.197632529e-09 -4.174693951e-10)
(0 1.234659577e-09 -4.193991858e-10)
(0 1.266830664e-09 -4.190728804e-10)
(0 1.29328081e-09 -4.16397521e-10)
(0 1.313125557e-09 -4.113054363e-10)
(0 1.325468346e-09 -4.03752548e-10)
(0 1.329407697e-09 -3.937154884e-10)
(0 1.324044535e-09 -3.811879734e-10)
(0 1.30848928e-09 -3.66176789e-10)
(0 1.2818675e-09 -3.486978536e-10)
(0 1.243323179e-09 -3.287726704e-10)
(0 1.192019868e-09 -3.064254627e-10)
(0 1.127140485e-09 -2.816810679e-10)
(0 1.04788601e-09 -2.545636019e-10)
(0 9.53473641e-10 -2.250957752e-10)
(0 8.431356298e-10 -1.932987694e-10)
(0 7.161186169e-10 -1.59192448e-10)
(0 5.716951968e-10 -1.227957034e-10)
(0 4.089867226e-10 -8.412566536e-11)
(0 2.294625713e-10 -4.319866187e-11)
(0 2.115596939e-12 4.530410647e-23)
(0 9.368555079e-10 -1.013135653e-12)
(0 9.382106112e-10 -3.03907019e-12)
(0 9.401025653e-10 -5.0602982e-12)
(0 9.423156518e-10 -7.071276565e-12)
(0 9.448624224e-10 -9.066273522e-12)
(0 9.477374612e-10 -1.10393026e-11)
(0 9.509350792e-10 -1.298412296e-11)
(0 9.544484328e-10 -1.489421629e-11)
(0 9.582695357e-10 -1.676272127e-11)
(0 9.623892778e-10 -1.858237737e-11)
(0 9.667974052e-10 -2.034544865e-11)
(0 9.714824597e-10 -2.204366787e-11)
(0 9.764316839e-10 -2.366816503e-11)
(0 9.816308952e-10 -2.5209417e-11)
(0 9.870643361e-10 -2.665717749e-11)
(0 9.927145127e-10 -2.800042195e-11)
(0 9.985620174e-10 -2.922727586e-11)
(0 1.004585338e-09 -3.032496633e-11)
(0 1.010760651e-09 -3.127976611e-11)
(0 1.017061595e-09 -3.207697258e-11)
(0 1.023459044e-09 -3.270088003e-11)
(0 1.029920894e-09 -3.313478068e-11)
(0 1.036411849e-09 -3.336094942e-11)
(0 1.042893233e-09 -3.336065922e-11)
(0 1.049322793e-09 -3.311419206e-11)
(0 1.055654486e-09 -3.260090707e-11)
(0 1.061838263e-09 -3.179933091e-11)
(0 1.067819848e-09 -3.068731822e-11)
(0 1.073540559e-09 -2.924223213e-11)
(0 1.078937178e-09 -2.744118126e-11)
(0 1.083941885e-09 -2.526126826e-11)
(0 1.088482237e-09 -2.267990637e-11)
(0 1.092481192e-09 -1.967517791e-11)
(0 1.095857147e-09 -1.622629806e-11)
(0 1.098524034e-09 -1.231414631e-11)
(0 1.100391512e-09 -7.921904989e-12)
(0 1.101365295e-09 -3.035737185e-12)
(0 1.101347666e-09 2.354462461e-12)
(0 1.100238186e-09 8.25430317e-12)
(0 1.097934569e-09 1.466406028e-11)
(0 1.094333713e-09 2.157780447e-11)
(0 1.089332875e-09 2.898243544e-11)
(0 1.082830985e-09 3.685668225e-11)
(0 1.07473016e-09 4.517004613e-11)
(0 1.064937459e-09 5.388178745e-11)
(0 1.053366901e-09 6.293995338e-11)
(0 1.039941757e-09 7.228055305e-11)
(0 1.024597078e-09 8.182686656e-11)
(0 1.007282411e-09 9.148898735e-11)
(0 9.879646322e-10 1.011635821e-10)
(0 9.666308493e-10 1.107339799e-10)
(0 9.432912971e-10 1.200705873e-10)
(0 9.179821764e-10 1.290317486e-10)
(0 8.907683515e-10 1.374650402e-10)
(0 8.617458182e-10 1.452091079e-10)
(0 8.310438371e-10 1.520960173e-10)
(0 7.988266086e-10 1.579542061e-10)
(0 7.65294355e-10 1.626119623e-10)
(0 7.306836488e-10 1.659014502e-10)
(0 6.95266827e-10 1.676631049e-10)
(0 6.593503421e-10 1.677503125e-10)
(0 6.232719519e-10 1.660341149e-10)
(0 5.873967183e-10 1.624078166e-10)
(0 5.521118602e-10 1.567912306e-10)
(0 5.178205695e-10 1.491344592e-10)
(0 4.84934941e-10 1.39420942e-10)
(0 4.538681898e-10 1.27669653e-10)
(0 4.250263508e-10 1.139361569e-10)
(0 3.987996759e-10 9.831241739e-11)
(0 3.755540006e-10 8.09251415e-11)
(0 3.55622413e-10 6.193270457e-11)
(0 3.39297625e-10 4.152064387e-11)
(0 3.268254618e-10 1.989598559e-11)
(0 3.183998288e-10 -2.719439494e-12)
(0 3.141593888e-10 -2.609633677e-11)
(0 3.141860524e-10 -5.000576089e-11)
(0 3.185052885e-10 -7.422701523e-11)
(0 3.270882391e-10 -9.855536004e-11)
(0 3.398556277e-10 -1.228089651e-10)
(0 3.566834057e-10 -1.46834636e-10)
(0 3.774099474e-10 -1.705116321e-10)
(0 4.018443567e-10 -1.937531496e-10)
(0 4.297751844e-10 -2.165050445e-10)
(0 4.609786535e-10 -2.38741804e-10)