/*--------------------------------*- C++ -*----------------------------------*\
  =========                 |
  \\      /  F ield         | OpenFOAM: The Open Source CFD Toolbox
   \\    /   O peration     | Website:  https://openfoam.org
    \\  /    A nd           | Version:  6
     \\/     M anipulation  |
\*---------------------------------------------------------------------------*/
FoamFile
{
    version     2.0;
    format      ascii;
    class       volScalarField;
    location    "0.006";
    object      ViscousDissipation;
}
// * * * * * * * * * * * * * * * * * * * * * * * * * * * * * * * * * * * * * //

dimensions      [1 -1 -3 0 0 0 0];

internalField   nonuniform List<scalar> 
9600
(
5.477786993e-21
2.618872603e-20
4.534976673e-20
6.49331133e-20
8.87621481e-20
1.160581617e-19
1.465057107e-19
1.797208499e-19
2.152709576e-19
2.526667373e-19
2.913706384e-19
3.307854461e-19
3.702631537e-19
4.090929871e-19
4.465133897e-19
4.817039452e-19
5.138051384e-19
5.419180001e-19
5.651330858e-19
5.825371965e-19
5.932506424e-19
5.964430088e-19
5.913843766e-19
5.774791976e-19
5.54338064e-19
5.218309761e-19
4.801734724e-19
4.299914903e-19
3.724162217e-19
3.091618137e-19
2.426313607e-19
1.760056025e-19
1.133441241e-19
5.965776084e-20
2.096939105e-20
4.337692601e-21
1.78471197e-20
7.055392684e-20
1.723650804e-19
3.338565938e-19
5.659820072e-19
8.797113052e-19
1.28553033e-18
1.792885858e-18
2.409481441e-18
3.140562202e-18
3.988069207e-18
4.949869907e-18
6.018920464e-18
7.18263673e-18
8.422290708e-18
9.712776103e-18
1.102251682e-17
1.231393571e-17
1.354420241e-17
1.466670929e-17
1.563286157e-17
1.63945746e-17
1.690688816e-17
1.713105452e-17
1.703741843e-17
1.660846948e-17
1.584130729e-17
1.47498504e-17
1.336592486e-17
1.173956493e-17
9.937785343e-18
8.042400095e-18
6.146469966e-18
4.350165057e-18
2.755812091e-18
1.462908234e-18
5.629906288e-19
1.351220219e-19
2.420404702e-19
9.275884372e-19
2.215407692e-18
4.109064544e-18
6.593361179e-18
9.636541541e-18
1.319309419e-17
1.720663533e-17
2.161272271e-17
2.634101483e-17
3.131687705e-17
3.646190667e-17
4.169381321e-17
4.692529812e-17
5.206273699e-17
5.70045463e-17
6.164031977e-17
6.585073781e-17
6.950926935e-17
7.248546554e-17
7.46504109e-17
7.588380262e-17
7.608269462e-17
7.517117429e-17
7.311045736e-17
6.990856406e-17
6.562862117e-17
6.039543718e-17
5.439975087e-17
4.790096841e-17
4.122790135e-17
3.477829524e-17
2.901548603e-17
2.446323224e-17
2.169795982e-17
2.134154304e-17
2.405369972e-17
3.052584107e-17
4.147381008e-17
5.762804821e-17
7.971962717e-17
1.084392181e-16
1.445503632e-16
1.851591042e-16
2.714284825e-16
8.533856794e-17
1.36956043e-20
3.455948458e-20
5.376790819e-20
7.34414152e-20
9.726809086e-20
1.245507073e-19
1.549815209e-19
1.881876154e-19
2.237286672e-19
2.61126894e-19
2.998371283e-19
3.392755043e-19
3.787865034e-19
4.176743759e-19
4.551702273e-19
4.904702398e-19
5.227076483e-19
5.510010695e-19
5.744332218e-19
5.92108563e-19
6.031387795e-19
6.067110818e-19
6.020870288e-19
5.886885883e-19
5.661177328e-19
5.342600169e-19
4.933211625e-19
4.439393469e-19
3.872356692e-19
3.249339774e-19
2.594292494e-19
1.939096714e-19
1.324301446e-19
8.00068891e-20
4.266488503e-20
2.746893352e-20
4.251791508e-20
9.687781365e-20
2.004870864e-19
3.639378443e-19
5.982397893e-19
9.143934442e-19
1.322978495e-18
1.833495862e-18
2.453787913e-18
3.189174069e-18
4.041769734e-18
5.009517296e-18
6.085561277e-18
7.257368085e-18
8.506390159e-18
9.807525223e-18
1.112934895e-17
1.243421769e-17
1.367939537e-17
1.481810398e-17
1.580175048e-17
1.65819528e-17
1.71136573e-17
1.7357728e-17
1.728438871e-17
1.687574904e-17
1.612885661e-17
1.505734618e-17
1.369311032e-17
1.208602556e-17
1.030328657e-17
8.426661183e-18
6.54945238e-18
4.77182246e-18
3.196277064e-18
1.922194154e-18
1.041047228e-18
6.315066385e-19
7.558678636e-19
1.457236953e-18
2.758434756e-18
4.662048649e-18
7.151897404e-18
1.019534878e-17
1.374621386e-17
1.774787591e-17
2.21360608e-17
2.684125103e-17
3.179002806e-17
3.690576973e-17
4.21080667e-17
4.731171059e-17
5.242483598e-17
5.73473911e-17
6.196978856e-17
6.617295056e-17
6.982971104e-17
7.280832477e-17
7.497794043e-17
7.621597373e-17
7.641720942e-17
7.550367106e-17
7.343524711e-17
7.021919702e-17
6.591901189e-17
6.066033758e-17
5.463582903e-17
4.810682104e-17
4.140484192e-17
3.492979204e-17
2.914763973e-17
2.458373876e-17
2.18164502e-17
2.146846446e-17
2.420089721e-17
3.070602009e-17
4.170172425e-17
5.792235294e-17
8.010639237e-17
1.089666033e-16
1.45323626e-16
1.864380257e-16
2.758887532e-16
8.732048829e-17
2.409940078e-20
4.500916762e-20
6.43346341e-20
8.41513722e-20
1.080743603e-19
1.35431492e-19
1.659425991e-19
1.992361342e-19
2.348893717e-19
2.724209376e-19
3.113025601e-19
3.509462886e-19
3.907151183e-19
4.299096509e-19
4.677814236e-19
5.035236708e-19
5.362915758e-19
5.652007539e-19
5.893558746e-19
6.07857069e-19
6.198367983e-19
6.244767216e-19
6.210579805e-19
6.089959953e-19
5.879094409e-19
5.576742394e-19
5.185065468e-19
4.710303831e-19
4.163703761e-19
3.562338705e-19
2.930139504e-19
2.298825427e-19
1.708880382e-19
1.210339006e-19
8.633739928e-20
7.386177172e-20
9.170419236e-20
1.489504084e-19
2.555517251e-19
4.221545175e-19
6.598103949e-19
9.796300504e-19
1.392284513e-18
1.907460846e-18
2.533150708e-18
3.274934221e-18
4.135116303e-18
5.111947771e-18
6.198765236e-18
7.383350415e-18
8.647303527e-18
9.965794866e-18
1.130744677e-17
1.263478203e-17
1.390493977e-17
1.50711288e-17
1.60843956e-17
1.689612445e-17
1.746067435e-17
1.773852274e-17
1.76992159e-17
1.732450087e-17
1.661085507e-17
1.557174383e-17
1.423873139e-17
1.266179236e-17
1.090807045e-17
9.059673949e-18
7.210057947e-18
5.459806892e-18
3.911547253e-18
2.664841482e-18
1.810900699e-18
1.427989507e-18
1.577476967e-18
2.30130315e-18
3.620693946e-18
5.53650252e-18
8.030705331e-18
1.106902982e-17
1.460406652e-17
1.857865156e-17
2.292887958e-17
2.758654875e-17
3.248057177e-17
3.753739257e-17
4.268024179e-17
4.782763473e-17
5.289121925e-17
5.777374939e-17
6.236743499e-17
6.655370178e-17
7.020442614e-17
7.318561158e-17
7.536294545e-17
7.660990378e-17
7.681705232e-17
7.590299625e-17
7.382491365e-17
7.058913001e-17
6.625926907e-17
6.096308404e-17
5.489597745e-17
4.832354575e-17
4.158134484e-17
3.507410957e-17
2.92715284e-17
2.470291593e-17
2.194904243e-17
2.16352596e-17
2.442425613e-17
3.10109611e-17
4.211676594e-17
5.848334478e-17
8.0864942e-17
1.100064838e-16
1.468152924e-16
1.886958798e-16
2.799907548e-16
8.873739703e-17
3.823469826e-20
5.918679123e-20
7.862477003e-20
9.86005722e-20
1.226757934e-19
1.501816603e-19
1.808446166e-19
2.143097708e-19
2.501619122e-19
2.879340613e-19
3.271044116e-19
3.670995817e-19
4.072899127e-19
4.469919017e-19
4.854661535e-19
5.219234361e-19
5.55529579e-19
5.854183229e-19
6.107048896e-19
6.305061767e-19
6.439639144e-19
6.502746959e-19
6.487279398e-19
6.38751905e-19
6.199708383e-19
5.922676934e-19
5.558575527e-19
5.113625744e-19
4.598992375e-19
4.031656678e-19
3.435427112e-19
2.841879033e-19
2.291351393e-19
1.833701303e-19
1.528977778e-19
1.447674139e-19
1.670770636e-19
2.28915634e-19
3.402645075e-19
5.118086906e-19
7.546819772e-19
1.080094707e-18
1.498879048e-18
2.020904927e-18
2.654417637e-18
3.40526357e-18
4.276080711e-18
5.265443029e-18
6.367061659e-18
7.56904825e-18
8.853357321e-18
1.019542166e-17
1.156411239e-17
1.292205322e-17
1.42264277e-17
1.543028724e-17
1.648443473e-17
1.733978739e-17
1.795017548e-17
1.827537817e-17
1.828428505e-17
1.795793385e-17
1.729226091e-17
1.630023737e-17
1.501317543e-17
1.348088007e-17
1.177057364e-17
9.964495635e-18
8.156407675e-18
6.447127021e-18
4.939501174e-18
3.733008825e-18
2.918512591e-18
2.573400448e-18
2.757741135e-18
3.511599719e-18
4.853987032e-18
6.783205777e-18
9.278738866e-18
1.230403369e-17
1.58101232e-17
1.973919833e-17
2.402806537e-17
2.86105658e-17
3.341913702e-17
3.838480028e-17
4.343622025e-17
4.849742013e-17
5.348527306e-17
5.830656559e-17
6.285612912e-17
6.701585018e-17
7.065615997e-17
7.363939664e-17
7.582631111e-17
7.70843156e-17
7.729825588e-17
7.638154202e-17
7.428814126e-17
7.102282679e-17
6.665035921e-17
6.130127754e-17
5.517601237e-17
4.854586938e-17
4.175324109e-17
3.520911306e-17
2.938944133e-17
2.482828647e-17
2.211065519e-17
2.186465739e-17
2.475583853e-17
3.148190548e-17
4.276906104e-17
5.936776838e-17
8.204801643e-17
1.115884448e-16
1.489435948e-16
1.915842522e-16
2.841831127e-16
9.002648414e-17
5.638647305e-20
7.741319569e-20
9.697873749e-20
1.171250336e-19
1.413950976e-19
1.691088689e-19
1.999993049e-19
2.337199151e-19
2.698697034e-19
3.079929843e-19
3.475833988e-19
3.880801209e-19
4.288702599e-19
4.692848566e-19
5.086032168e-19
5.460530307e-19
5.80820539e-19
6.120576555e-19
6.388996726e-19
6.604807152e-19
6.75960574e-19
6.845517594e-19
6.855598972e-19
6.78427298e-19
6.627901008e-19
6.38538951e-19
6.05891171e-19
5.654664302e-19
5.18373006e-19
4.662986997e-19
4.116090843e-19
3.574462151e-19
3.078226302e-19
2.677043089e-19
2.430721673e-19
2.40960338e-19
2.694548456e-19
3.376537605e-19
4.555617257e-19
6.339231064e-19
8.839578254e-19
1.217014693e-18
1.644102917e-18
2.175334524e-18
2.8192403e-18
3.582020274e-18
4.466701983e-18
5.472305132e-18
6.592996246e-18
7.817364277e-18
9.127800281e-18
1.050013977e-17
1.190355099e-17
1.330085943e-17
1.464928207e-17
1.590175536e-17
1.700875324e-17
1.792069584e-17
1.85907156e-17
1.897779086e-17
1.904992006e-17
1.878729436e-17
1.818506415e-17
1.725559316e-17
1.602973886e-17
1.455708303e-17
1.29047857e-17
1.115522557e-17
9.402375458e-18
7.747311001e-18
6.292970578e-18
5.138672337e-18
4.37462195e-18
4.077015457e-18
4.304043545e-18
5.093327941e-18
6.460889146e-18
8.401814427e-18
1.089234497e-17
1.389317527e-17
1.735339799e-17
2.121466038e-17
2.541484684e-17
2.989085486e-17
3.457995423e-17
3.941964654e-17
4.43459631e-17
4.929062261e-17
5.417741405e-17
5.891863555e-17
6.341220575e-17
6.754047221e-17
7.117122668e-17
7.41616849e-17
7.636528335e-17
7.764134652e-17
7.786658551e-17
7.694786973e-17
7.483465314e-17
7.153037923e-17
6.710127544e-17
6.168253585e-17
5.548123904e-17
4.877720732e-17
4.192165039e-17
3.533452444e-17
2.949948109e-17
2.495723278e-17
2.229752616e-17
2.215222341e-17
2.518960119e-17
3.21106088e-17
4.36461272e-17
6.055459372e-17
8.362098425e-17
1.136425705e-16
1.516130231e-16
1.949758609e-16
2.887461967e-16
9.135486469e-17
7.874513158e-20
9.989330886e-20
1.196155765e-19
1.39957186e-19
1.644601563e-19
1.924396682e-19
2.236305516e-19
2.576960912e-19
2.942469012e-19
3.328430621e-19
3.729936076e-19
4.141561588e-19
4.557357748e-19
4.970844507e-19
5.375022656e-19
5.76240547e-19
6.125087521e-19
6.454837438e-19
6.743241697e-19
6.981879093e-19
7.162566824e-19
7.277648778e-19
7.320385263e-19
7.285390234e-19
7.16918118e-19
6.970770875e-19
6.692378791e-19
6.340180784e-19
5.925190007e-19
5.464163667e-19
4.980609979e-19
4.505748756e-19
4.079477269e-19
3.751168596e-19
3.580356931e-19
3.63711957e-19
4.002193253e-19
4.76658778e-19
6.030688748e-19
7.902579176e-19
1.049556754e-18
1.392468419e-18
1.830218351e-18
2.373190234e-18
3.030261555e-18
3.808041403e-18
4.710043729e-18
5.735824386e-18
6.880136669e-18
8.132157085e-18
9.474851216e-18
1.088455211e-17
1.233083417e-17
1.377677422e-17
1.517967985e-17
1.649235777e-17
1.766493876e-17
1.864724571e-17
1.939160896e-17
1.985601416e-17
2.000738912e-17
1.982483403e-17
1.930251571e-17
1.845195625e-17
1.730339831e-17
1.590601815e-17
1.432681776e-17
1.264819486e-17
1.096429041e-17
9.37633397e-18
7.987274592e-18
6.896050685e-18
6.191946763e-18
5.949506819e-18
6.224528961e-18
7.051504394e-18
8.442794609e-18
1.038952069e-17
1.286408352e-17
1.58238936e-17
1.921593069e-17
2.298140829e-17
2.70599929e-17
3.139278086e-17
3.592368193e-17
4.059878982e-17
4.536399038e-17
5.016097895e-17
5.492254451e-17
5.956773178e-17
6.399810088e-17
6.809580859e-17
7.172465387e-17
7.473434766e-17
7.696844249e-17
7.82751854e-17
7.852077657e-17
7.760343217e-17
7.546725711e-17
7.211414573e-17
6.761302662e-17
6.210540489e-17
5.580775448e-17
4.901096226e-17
4.207807679e-17
3.54402031e-17
2.959087415e-17
2.507850197e-17
2.249853841e-17
2.248655585e-17
2.571360898e-17
3.288331356e-17
4.473049051e-17
6.202058862e-17
8.554790299e-17
1.161277381e-16
1.547567848e-16
1.988758815e-16
2.937882929e-16
9.279593858e-17
1.055546185e-19
1.268656867e-19
1.467843721e-19
1.673575533e-19
1.921392623e-19
2.204445222e-19
2.520131987e-19
2.865175534e-19
3.235817886e-19
3.627820144e-19
4.036461079e-19
4.456521129e-19
4.882275015e-19
5.307482586e-19
5.725403845e-19
6.128826566e-19
6.510131969e-19
6.86138192e-19
7.174452961e-19
7.441210303e-19
7.653746265e-19
7.804677806e-19
7.887520893e-19
7.897130596e-19
7.830218265e-19
7.685942074e-19
7.466586029e-19
7.178332994e-19
6.832129465e-19
6.444629114e-19
6.039173446e-19
5.64677585e-19
5.307046669e-19
5.069033975e-19
4.991906862e-19
5.145444042e-19
5.610197003e-19
6.477245325e-19
7.847341951e-19
9.829362336e-19
1.253785187e-18
1.60896454e-18
2.059940055e-18
2.617410505e-18
3.290647529e-18
4.086745951e-18
5.009791543e-18
6.059993171e-18
7.2328088e-18
8.518140372e-18
9.899649453e-18
1.135429284e-17
1.285214557e-17
1.435662401e-17
1.582516973e-17
1.721048343e-17
1.846231385e-17
1.952981282e-17
2.036436109e-17
2.092277149e-17
2.117066192e-17
2.108579733e-17
2.066108861e-17
1.99069708e-17
1.885282378e-17
1.754721972e-17
1.605681445e-17
1.4463892e-17
1.28626232e-17
1.135427303e-17
1.004161285e-17
9.022961655e-18
8.38630473e-18
8.204070845e-18
8.529062717e-18
9.391995547e-18
1.080084922e-17
1.274210745e-17
1.518370009e-17
1.807935204e-17
2.137379534e-17
2.500818779e-17
2.892489145e-17
3.307083152e-17
3.739874996e-17
4.186606335e-17
4.643136169e-17
5.104908048e-17
5.56631345e-17
6.020064985e-17
6.456694778e-17
6.864303544e-17
7.228653212e-17
7.533672032e-17
7.762370068e-17
7.898117878e-17
7.926163941e-17
7.835247694e-17
7.619125777e-17
7.277865008e-17
6.818765093e-17
6.256868299e-17
5.615064205e-17
4.923896481e-17
4.221158024e-17
3.551350971e-17
2.964994569e-17
2.517823023e-17
2.269974822e-17
2.285364298e-17
2.631296302e-17
3.37830712e-17
4.600163255e-17
6.373855958e-17
8.779695135e-17
1.189961413e-16
1.583529418e-16
2.032443778e-16
2.993831679e-16
9.437395449e-17
1.371026156e-19
1.58615455e-19
1.787747788e-19
1.996260127e-19
2.247408007e-19
2.534396136e-19
2.854700066e-19
3.205155426e-19
3.58214995e-19
3.981627233e-19
4.399074437e-19
4.82950703e-19
5.267456143e-19
5.706962253e-19
6.141584927e-19
6.564433354e-19
6.968222996e-19
7.345358577e-19
7.688060306e-19
7.988533875e-19
8.239206913e-19
8.433024118e-19
8.56381679e-19
8.626728026e-19
8.618712269e-19
8.539105018e-19
8.390295598e-19
8.17849544e-19
7.914617595e-19
7.615218342e-19
7.30348248e-19
7.010185152e-19
6.774621466e-19
6.645447623e-19
6.681427008e-19
6.951985182e-19
7.537495792e-19
8.529119021e-19
1.00280628e-18
1.214408128e-18
1.499312055e-18
1.869399452e-18
2.336406413e-18
2.911384888e-18
3.604060902e-18
4.422090585e-18
5.370233016e-18
6.449463985e-18
7.656077878e-18
8.980834736e-18
1.040823056e-17
1.191597372e-17
1.34747618e-17
1.504844784e-17
1.659467993e-17
1.806607775e-17
1.941198376e-17
2.058078687e-17
2.152276721e-17
2.219335004e-17
2.255658611e-17
2.25886097e-17
2.22807676e-17
2.164209126e-17
2.070079857e-17
1.950457668e-17
1.811949402e-17
1.662750318e-17
1.512261218e-17
1.370590702e-17
1.247972951e-17
1.15414345e-17
1.097727575e-17
1.085701966e-17
1.122985795e-17
1.212203833e-17
1.353646007e-17
1.545427119e-17
1.783835487e-17
2.063837661e-17
2.379686795e-17
2.725552931e-17
3.096078086e-17
3.486750546e-17
3.89401706e-17
4.315086667e-17
4.747440196e-17
5.188108143e-17
5.632832304e-17
6.075248556e-17
6.506246081e-17
6.913641122e-17
7.282283889e-17
7.594658918e-17
7.831983278e-17
7.97572025e-17
8.009366105e-17
7.920307432e-17
7.701543161e-17
7.35307364e-17
6.882827588e-17
6.307068069e-17
5.650331791e-17
4.945018551e-17
4.230779408e-17
3.553785304e-17
2.96590978e-17
2.523851981e-17
2.288335703e-17
2.323542059e-17
2.696850988e-17
3.478827307e-17
4.743348194e-17
6.567772683e-17
9.032787492e-17
1.222145721e-16
1.623445733e-16
2.080907079e-16
3.055171423e-16
9.610211045e-17
1.737122897e-19
1.954631237e-19
2.159101254e-19
2.37093152e-19
2.626046652e-19
2.917739798e-19
3.243597801e-19
3.600591285e-19
3.985276831e-19
4.393800535e-19
4.821883362e-19
5.264803947e-19
5.717384825e-19
6.173983925e-19
6.62850415e-19
7.074420506e-19
7.504830462e-19
7.912533702e-19
8.29014753e-19
8.630277321e-19
8.925745913e-19
9.169889602e-19
9.356912396e-19
9.482300839e-19
9.543299195e-19
9.539467105e-19
9.473339303e-19
9.351201402e-19
9.183965856e-19
8.988119269e-19
8.786688282e-19
8.61019694e-19
8.497582267e-19
8.497072741e-19
8.666986318e-19
9.076393335e-19
9.805498173e-19
1.094559391e-18
1.259839594e-18
1.48746277e-18
1.789173752e-18
2.177070651e-18
2.663187376e-18
3.258975954e-18
3.974680575e-18
4.81860655e-18
5.796289857e-18
6.909595289e-18
8.155783796e-18
9.526615809e-18
1.100756655e-17
1.257724656e-17
1.420711726e-17
1.58615954e-17
1.74986248e-17
1.907078643e-17
2.052699042e-17
2.181476852e-17
2.288312962e-17
2.36858778e-17
2.41852017e-17
2.4355268e-17
2.418548591e-17
2.368309851e-17
2.287477527e-17
2.180695812e-17
2.05447944e-17
1.916960776e-17
1.777495294e-17
1.646143548e-17
1.533060847e-17
1.447843108e-17
1.398889873e-17
1.392851336e-17
1.434218156e-17
1.525097063e-17
1.665195579e-17
1.852024039e-17
2.081306771e-17
2.347575097e-17
2.644882821e-17
2.967550657e-17
3.310814512e-17
3.671246677e-17
4.046839403e-17
4.436695929e-17
4.84034502e-17
5.25677297e-17
5.68332436e-17
6.114657414e-17
6.541939593e-17
6.952450948e-17
7.329720034e-17
7.654262944e-17
7.904916041e-17
8.060664348e-17
8.102772666e-17
8.016966471e-17
7.795388723e-17
7.438101461e-17
6.953978909e-17
6.360958422e-17
5.685731171e-17
4.963048992e-17
4.234834853e-17
3.549229198e-17
2.959619554e-17
2.523702669e-17
2.3027039e-17
2.360914906e-17
2.765592735e-17
3.587128519e-17
4.899365864e-17
6.779801007e-17
9.309735489e-17
1.257220098e-16
1.667006221e-16
2.133327613e-16
3.121839686e-16
9.797021943e-17
2.157392298e-19
2.377624748e-19
2.5854611e-19
2.801209732e-19
3.06101435e-19
3.358283638e-19
3.690742777e-19
4.055523926e-19
4.449376557e-19
4.868673479e-19
5.309395573e-19
5.76711543e-19
6.236980176e-19
6.713704169e-19
7.191575967e-19
7.664480961e-19
8.1259487e-19
8.56922409e-19
8.98737945e-19
9.373479908e-19
9.720810098e-19
1.002316123e-18
1.027517424e-18
1.047273535e-18
1.061343342e-18
1.069710403e-18
1.072648413e-18
1.070798562e-18
1.065256982e-18
1.057668191e-18
1.050320173e-18
1.046238356e-18
1.049278439e-18
1.064217921e-18
1.096844259e-18
1.154030571e-18
1.243784964e-18
1.375254255e-18
1.558665593e-18
1.805192484e-18
2.126739045e-18
2.535636927e-18
3.044251412e-18
3.664486316e-18
4.407178616e-18
5.281375382e-18
6.29349938e-18
7.446426044e-18
8.738518819e-18
1.016268741e-17
1.170555117e-17
1.334679632e-17
1.505882146e-17
1.68067602e-17
1.854896636e-17
2.023803591e-17
2.182242803e-17
2.324871744e-17
2.446446175e-17
2.542158496e-17
2.608008255e-17
2.641175646e-17
2.640363052e-17
2.606067832e-17
2.540753537e-17
2.448892808e-17
2.336864665e-17
2.212697786e-17
2.085662972e-17
1.96573141e-17
1.862933385e-17
1.78667177e-17
1.745059337e-17
1.744352094e-17
1.788539081e-17
1.879130754e-17
2.015170975e-17
2.193486363e-17
2.409174225e-17
2.656305133e-17
2.928775668e-17
3.221195942e-17
3.529655057e-17
3.852193333e-17
4.188838306e-17
4.541132293e-17
4.911181229e-17
5.300359586e-17
5.707884099e-17
6.129497603e-17
6.556488805e-17
6.975231882e-17
7.367380126e-17
7.71078707e-17
7.981147112e-17
8.154233462e-17
8.20848728e-17
8.127616861e-17
7.90284827e-17
7.53453433e-17
7.032961253e-17
6.418349369e-17
5.720194711e-17
4.976195664e-17
4.231018198e-17
3.535074809e-17
2.943392744e-17
2.514625532e-17
2.310331199e-17
2.394659942e-17
2.834467804e-17
3.699729385e-17
5.064047647e-17
7.005088049e-17
9.60443153e-17
1.294645498e-16
1.713300894e-16
2.189460963e-16
3.19294672e-16
9.997045258e-17
2.635664185e-19
2.85895126e-19
3.070663548e-19
3.290986609e-19
3.556286022e-19
3.860105329e-19
4.200332248e-19
4.574285499e-19
4.978932737e-19
5.410898556e-19
5.866452965e-19
6.341492827e-19
6.831525051e-19
7.331659072e-19
7.836611072e-19
8.340723495e-19
8.838006672e-19
9.322204278e-19
9.786902395e-19
1.022569048e-18
1.063238271e-18
1.100129446e-18
1.13275685e-18
1.160755326e-18
1.183924332e-18
1.202281391e-18
1.216127006e-18
1.226121712e-18
1.233372146e-18
1.239522493e-18
1.246847273e-18
1.258344724e-18
1.277831661e-18
1.310041118e-18
1.36071907e-18
1.436710171e-18
1.546015369e-18
1.697803091e-18
1.902357593e-18
2.170955856e-18
2.515668337e-18
2.949081017e-18
3.483929165e-18
4.132629371e-18
4.906691891e-18
5.816003277e-18
6.867983195e-18
8.066642713e-18
9.411590008e-18
1.089705005e-17
1.251097491e-17
1.423433244e-17
1.604066379e-17
1.789600379e-17
1.975925435e-17
2.158309974e-17
2.331554085e-17
2.490210091e-17
2.628869851e-17
2.742509543e-17
2.826871445e-17
2.878852304e-17
2.896861134e-17
2.881108651e-17
2.833793355e-17
2.759156241e-17
2.663383699e-17
2.554347509e-17
2.441182473e-17
2.333718101e-17
2.241803293e-17
2.17458539e-17
2.139821621e-17
2.143298909e-17
2.188423292e-17
2.276019755e-17
2.404372326e-17
2.5695288e-17
2.765883662e-17
2.987020856e-17
3.226742028e-17
3.480137437e-17
3.744498309e-17
4.0198469e-17
4.308894135e-17
4.6163309e-17
4.947505333e-17
5.306690927e-17
5.695250118e-17
6.110009416e-17
6.542104903e-17
6.976481899e-17
7.392178458e-17
7.763478765e-17
8.061945932e-17
8.259200825e-17
8.330124292e-17
8.256010953e-17
8.027178956e-17
7.644664312e-17
7.12084102e-17
6.479033645e-17
5.752367453e-17
4.982198565e-17
4.216455102e-17
3.508112357e-17
2.913898657e-17
2.493285985e-17
2.307878577e-17
2.421318342e-17
2.899689874e-17
3.812238257e-17
5.232180347e-17
7.237215748e-17
9.909765722e-17
1.333451827e-16
1.761661712e-16
2.247890473e-16
3.2678338e-16
1.020727355e-16
3.175987009e-19
3.40265e-19
3.618767799e-19
3.844374463e-19
4.116053817e-19
4.427500466e-19
4.776785228e-19
5.161436973e-19
5.578666056e-19
6.025376776e-19
6.498156076e-19
6.993257573e-19
7.506583388e-19
8.033677373e-19
8.569725889e-19
9.109575372e-19
9.647766203e-19
1.017859709e-18
1.069622911e-18
1.119484337e-18
1.166885406e-18
1.211317172e-18
1.25235113e-18
1.289675159e-18
1.32313628e-18
1.352793386e-18
1.378981784e-18
1.402388931e-18
1.424138449e-18
1.44587862e-18
1.469872976e-18
1.499093879e-18
1.537321414e-18
1.589248197e-18
1.660585334e-18
1.758156168e-18
1.889960193e-18
2.065189375e-18
2.294184603e-18
2.588327019e-18
2.959863435e-18
3.421659672e-18
3.986867882e-18
4.668484637e-18
5.478778084e-18
6.428571665e-18
7.526393488e-18
8.777519852e-18
1.018296071e-17
1.173844541e-17
1.343347955e-17
1.525055272e-17
1.71645896e-17
1.914274278e-17
2.114463188e-17
2.312313094e-17
2.502580054e-17
2.679703235e-17
2.838091674e-17
2.972474195e-17
3.078291936e-17
3.152101587e-17
3.191951554e-17
3.197691071e-17
3.171175693e-17
3.116337842e-17
3.039098374e-17
2.947104588e-17
2.849291621e-17
2.755285139e-17
2.674688162e-17
2.616324023e-17
2.587520279e-17
2.593513819e-17
2.637035883e-17
2.718119532e-17
2.834168108e-17
2.980326487e-17
3.15018463e-17
3.336801216e-17
3.533959759e-17
3.737478392e-17
3.946313218e-17
4.163157927e-17
4.394278527e-17
4.648456073e-17
4.935130559e-17
5.262073199e-17
5.633041179e-17
6.045828135e-17
6.49097468e-17
6.951276213e-17
7.402189741e-17
7.81325921e-17
8.15063527e-17
8.38057193e-17
8.47347123e-17
8.407786349e-17
8.173068333e-17
7.771679679e-17
7.219058591e-17
6.542734995e-17
5.780500119e-17
4.978201818e-17
4.187583079e-17
3.46442981e-17
2.867132266e-17
2.455706042e-17
2.291363688e-17
2.436729322e-17
2.956629193e-17
3.9192225e-17
5.39713438e-17
7.468302015e-17
1.021587567e-16
1.372687592e-16
1.810622396e-16
2.307897403e-16
3.344883532e-16
1.042531195e-16
3.782564104e-19
4.012915368e-19
4.23399019e-19
4.465641179e-19
4.744663559e-19
5.064917463e-19
5.424674676e-19
5.821695831e-19
6.253459172e-19
6.717175499e-19
7.209778812e-19
7.727910537e-19
8.267904914e-19
8.825779675e-19
9.397235202e-19
9.977668478e-19
1.056220216e-18
1.114574703e-18
1.172310345e-18
1.228911351e-18
1.283886493e-18
1.336793743e-18
1.387269238e-18
1.435061413e-18
1.480072888e-18
1.522412609e-18
1.562459565e-18
1.600936744e-18
1.638991957e-18
1.678282994e-18
1.721066413e-18
1.770292792e-18
1.829710923e-18
1.903980993e-18
1.998788343e-18
2.120943281e-18
2.278448405e-18
2.480519468e-18
2.737552109e-18
3.061034678e-18
3.463405334e-18
3.957843457e-18
4.557971262e-18
5.277436151e-18
6.129347599e-18
7.125562265e-18
8.275830204e-18
9.586834389e-18
1.106116487e-17
1.269627556e-17
1.448348124e-17
1.640707082e-17
1.844363054e-17
2.056168788e-17
2.272179275e-17
2.487715579e-17
2.697495494e-17
2.89583975e-17
3.076955675e-17
3.235290327e-17
3.365932039e-17
3.465028916e-17
3.530185245e-17
3.560794673e-17
3.558270741e-17
3.526138991e-17
3.469962691e-17
3.397080842e-17
3.31615389e-17
3.236533518e-17
3.167508997e-17
3.117510258e-17
3.093361885e-17
3.099667234e-17
3.138380477e-17
3.208613153e-17
3.306730871e-17
3.426805322e-17
3.561472326e-17
3.70319035e-17
3.845797062e-17
3.986139775e-17
4.125441528e-17
4.269996851e-17
4.430821163e-17
4.622065503e-17
4.858364767e-17
5.15167295e-17
5.508299557e-17
5.926680507e-17
6.396074222e-17
6.896166832e-17
7.397616297e-17
7.863744839e-17
8.25363215e-17
8.526578349e-17
8.647346416e-17
8.591111829e-17
8.347031957e-17
7.919829498e-17
7.329410824e-17
6.608977956e-17
5.802272119e-17
4.96058191e-17
4.140015514e-17
3.399324449e-17
2.798369812e-17
2.397249588e-17
2.256153535e-17
2.436000379e-17
2.999742953e-17
4.014014124e-17
5.550738179e-17
7.688136937e-17
1.051108093e-16
1.410811646e-16
1.858947111e-16
2.367299345e-16
3.422768738e-16
1.064618241e-16
4.459680858e-19
4.694024968e-19
4.920629599e-19
5.159136811e-19
5.446540393e-19
5.776880752e-19
6.148646837e-19
6.55985272e-19
7.00826831e-19
7.49143711e-19
8.00666952e-19
8.551028274e-19
9.121315768e-19
9.714063391e-19
1.032553019e-18
1.095171093e-18
1.158836475e-18
1.223107436e-18
1.287534485e-18
1.351675138e-18
1.415112988e-18
1.477480721e-18
1.538487042e-18
1.597949334e-18
1.655834876e-18
1.712312391e-18
1.767814577e-18
1.823109219e-18
1.879376389e-18
1.938290121e-18
2.00210638e-18
2.073761216e-18
2.15698172e-18
2.256406761e-18
2.377707054e-18
2.527687767e-18
2.71435777e-18
2.946955462e-18
3.235931302e-18
3.592888806e-18
4.030480842e-18
4.562241417e-18
5.202320514e-18
5.965085532e-18
6.864567438e-18
7.913750803e-18
9.123728336e-18
1.050274893e-17
1.205518986e-17
1.378048386e-17
1.567204839e-17
1.771628848e-17
1.989177555e-17
2.216872205e-17
2.450888324e-17
2.686601766e-17
2.918703797e-17
3.1413952e-17
3.348663421e-17
3.534635146e-17
3.693984818e-17
3.822367868e-17
3.916839855e-17
3.976219427e-17
4.001351091e-17
3.995228624e-17
3.962941649e-17
3.911419872e-17
3.848962299e-17
3.784572967e-17
3.727162135e-17
3.684706617e-17
3.663466553e-17
3.667336489e-17
3.697386937e-17
3.751655217e-17
3.825266452e-17
3.910981237e-17
4.000248134e-17
4.084768637e-17
4.158457527e-17
4.219521306e-17
4.272211285e-17
4.327680446e-17
4.40336537e-17
4.520577318e-17
4.700605008e-17
4.960327112e-17
5.308529777e-17
5.743593839e-17
6.252465808e-17
6.810511773e-17
7.382141877e-17
7.922635797e-17
8.381845475e-17
8.709989927e-17
8.864689365e-17
8.817443039e-17
8.557799212e-17
8.094486658e-17
7.453892175e-17
6.676820255e-17
5.814511254e-17
4.924719194e-17
4.06839648e-17
3.307247178e-17
2.702187776e-17
2.312690663e-17
2.197045682e-17
2.413565694e-17
3.022554305e-17
4.088633205e-17
5.682882386e-17
7.884312893e-17
1.077981359e-16
1.44623373e-16
1.90437881e-16
2.424711946e-16
3.498995685e-16
1.086570488e-16
5.211623861e-19
5.450256668e-19
5.682984475e-19
5.929207482e-19
6.226102024e-19
6.567902688e-19
6.953332722e-19
7.380678798e-19
7.848025283e-19
8.353275301e-19
8.894143999e-19
9.468149119e-19
1.007259739e-18
1.070457475e-18
1.13609425e-18
1.203834335e-18
1.273322802e-18
1.344191199e-18
1.416067349e-18
1.488589419e-18
1.561423609e-18
1.634285336e-18
1.706964323e-18
1.779356237e-18
1.851503149e-18
1.923644354e-18
1.99627701e-18
2.070223824e-18
2.146706198e-18
2.227422974e-18
2.314638808e-18
2.411286433e-18
2.521084395e-18
2.648664199e-18
2.79969375e-18
2.980980256e-18
3.200540485e-18
3.467635647e-18
3.792775371e-18
4.187694848e-18
4.66529353e-18
5.239507202e-18
5.925070778e-18
6.737136615e-18
7.690732213e-18
8.800066963e-18
1.00777095e-17
1.153365842e-17
1.317431668e-17
1.500138633e-17
1.701071965e-17
1.919120173e-17
2.152377094e-17
2.398070889e-17
2.652533564e-17
2.911225911e-17
3.168832239e-17
3.419437604e-17
3.656792593e-17
3.87466042e-17
4.067228463e-17
4.229555012e-17
4.358014728e-17
4.450697722e-17
4.507717051e-17
4.531374468e-17
4.526141255e-17
4.498414247e-17
4.456032678e-17
4.407578198e-17
4.361530259e-17
4.325379e-17
4.304793176e-17
4.302915791e-17
4.319846091e-17
4.352387213e-17
4.394174897e-17
4.436326219e-17
4.468728602e-17
4.482004147e-17
4.47002608e-17
4.432648499e-17
4.378068507e-17
4.323998518e-17
4.296693185e-17
4.327218325e-17
4.445495233e-17
4.674034759e-17
5.023500544e-17
5.490859154e-17
6.059252357e-17
6.698338346e-17
7.364736931e-17
8.003541522e-17
8.552521576e-17
8.949833692e-17
9.143920887e-17
9.102347716e-17
8.816579879e-17
8.301975166e-17
7.594269638e-17
6.744358458e-17
5.81276629e-17
4.864713908e-17
3.966283976e-17
3.181838339e-17
2.572617744e-17
2.196440101e-17
2.108517695e-17
2.363398657e-17
3.017791888e-17
4.133740551e-17
5.781504175e-17
8.041309603e-17
1.100376116e-16
1.476596943e-16
1.944862806e-16
2.476958938e-16
3.571393401e-16
1.107663731e-16
6.042590239e-19
6.285797121e-19
6.525258543e-19
6.780102048e-19
7.087663618e-19
7.442387785e-19
7.843247526e-19
8.288820994e-19
8.777529472e-19
9.307660596e-19
9.877364803e-19
1.048464649e-18
1.112735313e-18
1.180316612e-18
1.250959414e-18
1.324397843e-18
1.400351748e-18
1.478532286e-18
1.558651568e-18
1.640435879e-18
1.723641925e-18
1.808076214e-18
1.893618732e-18
1.980253562e-18
2.068108641e-18
2.157505527e-18
2.249017371e-18
2.343532716e-18
2.442324723e-18
2.547128016e-18
2.660228509e-18
2.784570588e-18
2.923880857e-18
3.082799164e-18
3.267002404e-18
3.483305895e-18
3.739736641e-18
4.045582083e-18
4.411423413e-18
4.849152943e-18
5.37195662e-18
5.994220729e-18
6.73131874e-18