/*--------------------------------*- C++ -*----------------------------------*\
  =========                 |
  \\      /  F ield         | OpenFOAM: The Open Source CFD Toolbox
   \\    /   O peration     | Website:  https://openfoam.org
    \\  /    A nd           | Version:  6
     \\/     M anipulation  |
\*---------------------------------------------------------------------------*/
FoamFile
{
    version     2.0;
    format      ascii;
    class       volScalarField;
    location    "0.0034";
    object      TRHS;
}
// * * * * * * * * * * * * * * * * * * * * * * * * * * * * * * * * * * * * * //

dimensions      [1 -1 -3 0 0 0 0];

internalField   nonuniform List<scalar> 
3600
(
1.895823826e-10
2.507659913e-10
-1.90006965e-10
-6.561904688e-10
-1.215223677e-09
-1.867333001e-09
-2.633029629e-09
-3.53456404e-09
-4.593492093e-09
-5.835432204e-09
-7.28275412e-09
-8.957517782e-09
-1.088307753e-08
-1.310508948e-08
-1.568551954e-08
-1.86247739e-08
-2.164860325e-08
-2.398726952e-08
-2.457844824e-08
-2.334352041e-08
-2.237573851e-08
-2.263616446e-08
-2.2885709e-08
-2.327880134e-08
-2.564864628e-08
-3.22135306e-08
-4.133278368e-08
-5.32280864e-08
-6.171727611e-08
-2.175490882e-08
-0.0007016256525
0
0
0
0
0
0
0
0
0
0
0
0
0
0
0
0
0
0
0
0
0
0
0
0
0
0
0
0
0
2.089744124e-10
2.973098137e-10
-1.205961845e-10
-5.70933552e-10
-1.119039913e-09
-1.76880953e-09
-2.554625232e-09
-3.508982164e-09
-4.677746353e-09
-6.10186242e-09
-7.822559273e-09
-9.85257575e-09
-1.218996593e-08
-1.482056623e-08
-1.777560855e-08
-2.111808018e-08
-2.481307177e-08
-2.828033386e-08
-2.996244797e-08
-2.86793407e-08
-2.746781057e-08
-2.764940688e-08
-2.661808096e-08
-2.451618571e-08
-2.294174843e-08
-2.567659822e-08
-3.140744499e-08
-4.133758562e-08
-5.693288415e-08
-1.999099918e-08
-0.0007267870745
0
0
0
0
0
0
0
0
0
0
0
0
0
0
0
0
0
0
0
0
0
0
0
0
0
0
0
0
0
2.270800799e-10
3.27567128e-10
-1.007384804e-10
-5.697644791e-10
-1.149021836e-09
-1.857429451e-09
-2.740156153e-09
-3.85688505e-09
-5.274216825e-09
-7.062842239e-09
-9.270383062e-09
-1.190325507e-08
-1.490149796e-08
-1.817637621e-08
-2.170068065e-08
-2.571153782e-08
-3.066974289e-08
-3.65058676e-08
-4.019136949e-08
-3.711387927e-08
-3.449828082e-08
-3.531463643e-08
-3.22525881e-08
-2.611749779e-08
-1.803249482e-08
-1.712990189e-08
-2.067917453e-08
-2.802676127e-08
-4.282355232e-08
-7.921974511e-09
-0.0007815697776
0
0
0
0
0
0
0
0
0
0
0
0
0
0
0
0
0
0
0
0
0
0
0
0
0
0
0
0
0
2.438472207e-10
3.474873262e-10
-1.139963152e-10
-6.252488682e-10
-1.270924933e-09
-2.082456877e-09
-3.129070493e-09
-4.496542342e-09
-6.288080394e-09
-8.606231552e-09
-1.152902452e-08
-1.506015994e-08
-1.908261282e-08
-2.333541228e-08
-2.75776423e-08
-3.210043928e-08
-3.837456626e-08
-4.850323904e-08
-5.729514798e-08
-4.964737358e-08
-4.38388405e-08
-4.714984409e-08
-4.080062082e-08
-2.978269171e-08
-1.112831736e-08
-6.755380675e-09
-8.144904719e-09
-9.61444717e-09
-2.104847357e-08
1.231319497e-08
-0.0008767608228
0
0
0
0
0
0
0
0
0
0
0
0
0
0
0
0
0
0
0
0
0
0
0
0
0
0
0
0
0
2.584957231e-10
3.52404562e-10
-1.6186984e-10
-7.411400337e-10
-1.485398009e-09
-2.446637434e-09
-3.718263353e-09
-5.419839821e-09
-7.692335211e-09
-1.068781881e-08
-1.454194226e-08
-1.931479143e-08
-2.487017979e-08
-3.069442446e-08
-3.590870957e-08
-4.018824976e-08
-4.606341604e-08
-6.279138411e-08
-8.483362696e-08
-6.834916347e-08
-5.740077607e-08
-6.331047673e-08
-5.06010024e-08
-3.632321606e-08
-4.753912381e-09
2.884771229e-09
3.856913713e-09
1.782845371e-08
7.847053789e-09
3.991904642e-08
-0.001034720649
0
0
0
0
0
0
0
0
0
0
0
0
0
0
0
0
0
0
0
0
0
0
0
0
0
0
0
0
0
2.684272605e-10
3.392126735e-10
-2.479312501e-10
-9.191206398e-10
-1.795971928e-09
-2.9527346e-09
-4.510613081e-09
-6.619196282e-09
-9.455996105e-09
-1.322696306e-08
-1.81650578e-08
-2.449584724e-08
-3.225009825e-08
-4.079160069e-08
-4.805372107e-08
-5.118001268e-08
-5.044344557e-08
-7.345550745e-08
-1.186094166e-07
-1.245684012e-07
-1.331460515e-07
-5.460923861e-08
-4.363323127e-08
-2.051703877e-08
-6.499884491e-08
-1.634525419e-08
1.56525638e-08
6.447257119e-08
4.856153151e-08
7.412959297e-08
-0.001302726059
0
0
0
0
0
0
0
0
0
0
0
0
0
0
0
0
0
0
0
0
0
0
0
0
0
0
0
0
0
2.71584523e-10
3.032937491e-10
-3.750495318e-10
-1.162706024e-09
-2.206565006e-09
-3.608252965e-09
-5.516235232e-09
-8.10389066e-09
-1.156735804e-08
-1.614147665e-08
-2.215413724e-08
-3.010143699e-08
-4.059410522e-08
-5.367526537e-08
-6.646219971e-08
-7.135132691e-08
-5.170270744e-08
-8.311762186e-08
-6.967263651e-08
-2.034468045e-07
-2.365767111e-07
-5.140781345e-08
-1.111996384e-08
-1.036831566e-08
-1.438438439e-07
-4.505074098e-08
5.205623421e-08
1.674021906e-07
1.229795503e-07
1.156649743e-07
-0.001789203814
0
0
0
0
0
0
0
0
0
0
0
0
0
0
0
0
0
0
0
0
0
0
0
0
0
0
0
0
0
2.651542425e-10
2.401119515e-10
-5.461610403e-10
-1.472299016e-09
-2.717354959e-09
-4.416584386e-09
-6.750179901e-09
-9.909956552e-09
-1.408321704e-08
-1.946026361e-08
-2.632335478e-08
-3.531632824e-08
-4.791937024e-08
-6.658918277e-08
-9.054532047e-08
-1.097891512e-07
-9.805869694e-08
-4.080304614e-08
3.651239802e-08
-2.401375068e-07
-2.079832489e-07
-0.000174347004
-0.0001109656949
-0.0001494662693
-1.367208164e-07
-2.976170007e-07
1.067613778e-07
3.861687781e-07
3.641662306e-07
1.807731516e-07
-0.002771116141
0
0
0
0
0
0
0
0
0
0
0
0
0
0
0
0
0
0
0
0
0
0
0
0
0
0
0
0
0
2.455249445e-10
1.43349843e-10
-7.631339596e-10
-1.84273638e-09
-3.314493072e-09
-5.359850715e-09
-8.205422459e-09
-1.207796627e-08
-1.715519262e-08
-2.350518676e-08
-3.106783173e-08
-3.993085245e-08
-5.154469186e-08
-7.231585383e-08
-1.099952902e-07
-1.695886558e-07
-2.311969695e-07
-0.0001712311978
-0.0007740856484
167.3375045
-0.005864834831
69.16524582
44.03840478
59.30549084
-0.006562082662
144.7813271
-0.0004247928244
1.108825838e-07
4.380042756e-07
3.595486e-07
-0.005046438311
0
0
0
0
0
0
0
0
0
0
0
0
0
0
0
0
0
0
0
0
0
0
0
0
0
0
0
0
0
2.056919961e-10
1.52918924e-12
-1.029830178e-09
-2.260725808e-09
-3.960887006e-09
-6.372861061e-09
-9.797728264e-09
-1.45503286e-08
-2.089378808e-08
-2.887767216e-08
-3.798650794e-08
-4.656913949e-08
-5.158227639e-08
-5.421784331e-08
-9.822201832e-08
-2.259912366e-07
-4.446888651e-07
67.93940422
139.838192
0
0
0
0
0
0
0
23.86716737
106.5964686
-0.0002681157818
-0.0001400846667
55.57092529
0
0
0
0
0
0
0
0
0
0
0
0
0
0
0
0
0
0
0
0
0
0
0
0
0
0
0
0
0
1.288001912e-10
-2.132164572e-10
-1.361710732e-09
-2.712552206e-09
-4.59676628e-09
-7.328246647e-09
-1.130057653e-08
-1.698123876e-08
-2.491062483e-08
-3.564562432e-08
-4.942264474e-08
-6.503029345e-08
-7.652667776e-08
-8.358277844e-08
-4.680365659e-08
-0.0001722385497
68.33770731
0
0
0
0
0
0
0
0
0
0
0
384.7933079
-0.002109749049
452.1333347
0
0
0
0
0
0
0
0
0
0
0
0
0
0
0
0
0
0
0
0
0
0
0
0
0
0
0
0
0
-3.191918668e-11
-5.679317804e-10
-1.805003014e-09
-3.200663191e-09
-5.165045094e-09
-8.07226089e-09
-1.237657378e-08
-1.864551551e-08
-2.766900878e-08
-4.070385684e-08
-5.991259911e-08
-8.864390825e-08
-1.23388388e-07
-7.088535354e-08
5.350187329e-08
-0.0007853594311
141.4249345
0
0
0
0
0
0
0
0
0
0
0
-0.005128010861
-4.382135836e-05
17.37719386
0
0
0
0
0
0
0
0
0
0
0
0
0
0
0
0
0
0
0
0
0
0
0
0
0
0
0
0
0
-4.168219009e-10
-1.220697228e-09
-2.4642606e-09
-3.766159503e-09
-5.652956542e-09
-8.534757453e-09
-1.284505924e-08
-1.906162396e-08
-2.771832664e-08
-3.94345395e-08
-5.499711755e-08
-7.618628153e-08
-1.310869739e-07
-2.066001899e-07
-2.399827104e-07
170.2180285
0
0
0
0
0
0
0
0
0
0
0
0
0
-0.001403000509
0
0
0
0
0
0
0
0
0
0
0
0
0
0
0
0
0
0
0
0
0
0
0
0
0
0
0
0
0
0
-1.504361535e-09
-2.538603283e-09
-3.52498466e-09
-4.479519607e-09
-6.093998343e-09
-8.779984858e-09
-1.292873513e-08
-1.895257677e-08
-2.726886289e-08
-3.82023691e-08
-5.18030319e-08
-6.956179776e-08
-1.466127202e-07
-2.439468048e-07
-2.110450419e-07
-0.005605843987
0
0
0
0
0
0
0
0
0
0
0
0
0
0
0
0
0
0
0
0
0
0
0
0
0
0
0
0
0
0
0
0
0
0
0
0
0
0
0
0
0
0
0
0
-4.776843559e-09
-5.280979093e-09
-5.206196472e-09
-5.362033081e-09
-6.466237976e-09
-8.798604048e-09
-1.266038784e-08
-1.84895492e-08
-2.697195658e-08
-3.922518028e-08
-5.691821221e-08
-8.057566639e-08
-7.648855801e-08
-8.026611558e-08
-0.000214219019
84.98058361
0
0
0
0
0
0
0
0
0
0
0
0
0
0
0
0
0
0
0
0
0
0
0
0
0
0
0
0
0
0
0
0
0
0
0
0
0
0
0
0
0
0
0
0
-1.941704158e-08
-1.203013889e-08
-7.616813036e-09
-6.239595233e-09
-6.621332613e-09
-8.443110162e-09
-1.172046394e-08
-1.670042651e-08
-2.388823973e-08
-3.419637359e-08
-4.906487817e-08
-6.877793261e-08
-6.027450251e-08
-5.693658674e-08
-0.0002081243548
82.56918763
0
0
0
0
0
0
0
0
0
0
0
0
0
0
0
0
0
0
0
0
0
0
0
0
0
0
0
0
0
0
0
0
0
0
0
0
0
0
0
0
0
0
0
0
-2.199308248e-08
-1.318602358e-08
-7.887112676e-09
-6.16042019e-09
-6.262575483e-09
-7.670933956e-09
-1.020702724e-08
-1.380994005e-08
-1.839887311e-08
-2.371044533e-08
-2.908566866e-08
-3.52397591e-08
-9.885234982e-08
-1.714762237e-07
-1.548744339e-07
-0.005844851033
0
0
0
0
0
0
0
0
0
0
0
0
0
0
0
0
0
0
0
0
0
0
0
0
0
0
0
0
0
0
0
0
0
0
0
0
0
0
0
0
0
0
0
0
-8.096916288e-09
-6.883465143e-09
-5.438699138e-09
-4.957439776e-09
-5.408579035e-09
-6.678700459e-09
-8.654480771e-09
-1.120209963e-08
-1.412682755e-08
-1.716781476e-08
-2.011087319e-08
-2.351185607e-08
-5.272162409e-08
-7.981501592e-08
-2.442618267e-07
162.6843961
0
0
0
0
0
0
0
0
0
0
0
0
0
-0.002528936189
0
0
0
0
0
0
0
0
0
0
0
0
0
0
0
0
0
0
0
0
0
0
0
0
0
0
0
0
0
0
-9.00794636e-10
-2.364117661e-09
-2.919090675e-09
-3.509946872e-09
-4.400061523e-09
-5.662206962e-09
-7.236875938e-09
-9.000930064e-09
-1.081248458e-08
-1.27432149e-08
-1.552438608e-08
-2.105916436e-08
-2.662237806e-08
4.001680017e-08
1.267380909e-07
-0.0007007559968
115.4395655
0
0
0
0
0
0
0
0
0
0
0
-0.00529066684
-1.894237256e-05
7.506527781
0
0
0
0
0
0
0
0
0
0
0
0
0
0
0
0
0
0
0
0
0
0
0
0
0
0
0
0
0
3.959612066e-09
9.781333751e-10
-8.209381659e-10
-2.193617807e-09
-3.455274793e-09
-4.710490785e-09
-5.88397327e-09
-6.691018082e-09
-6.605473839e-09
-4.688532335e-09
8.642541775e-10
1.412691579e-08
4.539058312e-08
1.072367126e-07
2.798774923e-07
-0.0001163668445
46.23581439
0
0
0
0
0
0
0
0
0
0
0
393.7128196
-0.002066295491
425.9718306
0
0
0
0
0
0
0
0
0
0
0
0
0
0
0
0
0
0
0
0
0
0
0
0
0
0
0
0
0
7.143790539e-09
3.244174412e-09
6.988969691e-10
-1.194441493e-09
-2.71500171e-09
-3.967303909e-09
-4.807299128e-09
-4.804145886e-09
-3.096146551e-09
1.850833314e-09
1.276615193e-08
3.446455181e-08
7.495347576e-08
1.410787144e-07
1.955823551e-07
2.089424068e-07
-1.784250732e-07
21.92721345
18.22874913
0
0
0
0
0
0
0
-0.005972238653
20.34657071
-5.117087122e-05
-2.519401748e-10
-9.828763159e-05
0
0
0
0
0
0
0
0
0
0
0
0
0
0
0
0
0
0
0
0
0
0
0
0
0
0
0
0
0
8.942089532e-09
4.560603106e-09
1.613645815e-09
-5.815513503e-10
-2.280227882e-09
-3.570875685e-09
-4.277216055e-09
-3.910406716e-09
-1.550198548e-09
4.255927836e-09
1.559097731e-08
3.498796235e-08
6.47353395e-08
1.046851307e-07
1.615813557e-07
2.582790201e-07
5.611196003e-07
-5.471208887e-05
-4.604624483e-05
441.0458492
132.9583696
126.7899674
66.44120738
117.6990121
105.8928943
360.0707085
-1.792481119e-07
-1.470324472e-07
-1.451746591e-08
7.103006662e-08
-0.008773702983
0
0
0
0
0
0
0
0
0
0
0
0
0
0
0
0
0
0
0
0
0
0
0
0
0
0
0
0
0
9.500823267e-09
5.032130988e-09
1.967726071e-09
-3.547935622e-10
-2.174812711e-09
-3.570779432e-09
-4.369390327e-09
-4.080577143e-09
-1.824915966e-09
3.699934399e-09
1.405379135e-08
3.045141506e-08
5.241156655e-08
7.616795496e-08
1.0183907e-07
1.400498096e-07
1.915915749e-07
2.504361532e-07
7.105812984e-07
-0.00221153748
-0.0006554113317
-0.0006224748264
-0.0003180323844
-0.0005775872143
-0.0005205318966
-0.001805471508
-1.831204604e-07
-2.022567477e-07
-3.107798262e-07
-1.953335466e-07
-0.007212221876
0
0
0
0
0
0
0
0
0
0
0
0
0
0
0
0
0
0
0
0
0
0
0
0
0
0
0
0
0
8.963185501e-09
4.768957092e-09
1.83118652e-09
-4.790128118e-10
-2.379860016e-09
-3.957492636e-09
-5.059249016e-09
-5.226745818e-09
-3.581237468e-09
1.293634285e-09
1.144185132e-08
2.940288762e-08
5.747448659e-08
9.56506726e-08
1.504375279e-07
2.42871239e-07
5.411541463e-07
-4.391115854e-05
-2.758758372e-05
436.8921333
127.0402084
120.1428564
59.72073683
111.4271103
100.5996502
356.5225472
-2.254542443e-07
-1.621763562e-07
-2.302355853e-08
6.348983916e-08
-0.008774500233
0
0
0
0
0
0
0
0
0
0
0
0
0
0
0
0
0
0
0
0
0
0
0
0
0
0
0
0
0
7.528914591e-09
3.917372148e-09
1.301524864e-09
-8.848410793e-10
-2.841212049e-09
-4.672314486e-09
-6.285972557e-09
-7.31885915e-09
-6.994705235e-09
-3.862232363e-09
4.735891542e-09
2.357456832e-08
6.065160555e-08
1.229991292e-07
1.733247137e-07
1.832490999e-07
-2.011999752e-07
17.63588928
10.89959331
0
0
0
0
0
0
0
-0.006186229415
17.08496159
-4.295231665e-05
-2.154444654e-10
-8.647299967e-05
0
0
0
0
0
0
0
0
0
0
0
0
0
0
0
0
0
0
0
0
0
0
0
0
0
0
0
0
0
5.471473108e-09
2.659039427e-09
5.01977376e-10
-1.482922782e-09
-3.4729636e-09
-5.604695852e-09
-7.885127468e-09
-1.015271616e-08
-1.200464877e-08
-1.263535777e-08
-1.034718563e-08
-1.176549596e-09
2.512583383e-08
8.184621766e-08
2.476697704e-07
-0.0001045885477
41.55317049
0
0
0
0
0
0
0
0
0
0
0
391.8050893
-0.002065114083
427.410757
0
0
0
0
0
0
0
0
0
0
0
0
0
0
0
0
0
0
0
0
0
0
0
0
0
0
0
0
0
3.116754059e-09
1.202713128e-09
-4.311804897e-10
-2.172294197e-09
-4.171868557e-09
-6.594628827e-09
-9.544236852e-09
-1.306984964e-08
-1.721840282e-08
-2.223500454e-08
-2.900361073e-08
-3.96098486e-08
-5.073831695e-08
6.188252802e-09
9.266069966e-08
-0.000662762757
106.5547472
0
0
0
0
0
0
0
0
0
0
0
-0.005417580673
-2.511078054e-05
9.95338304
0
0
0
0
0
0
0
0
0
0
0
0
0
0
0
0
0
0
0
0
0
0
0
0
0
0
0
0
0
8.101172418e-10
-2.372347811e-10
-1.362612759e-09
-2.859877688e-09
-4.852532207e-09
-7.518347905e-09
-1.101094608e-08
-1.54414569e-08
-2.086145685e-08
-2.729520611e-08
-3.487956761e-08
-4.475647246e-08
-8.414719587e-08
-1.302796741e-07
-2.682500547e-07
156.4892919
0
0
0
0
0
0
0
0
0
0
0
0
0
-0.002528705261
0
0
0
0
0
0
0
0
0
0
0
0
0
0
0
0
0
0
0
0
0
0
0
0
0
0
0
0
0
0
-1.132369515e-09
-1.467114431e-09
-2.173011897e-09
-3.470184735e-09
-5.46361517e-09
-8.352815486e-09
-1.235598716e-08
-1.769496824e-08
-2.454865842e-08
-3.296981339e-08
-4.272878949e-08
-5.525210427e-08
-1.305372534e-07
-2.239893504e-07
-1.873909213e-07
-0.006212997051
0
0
0
0
0
0
0
0
0
0
0
0
0
0
0
0
0
0
0
0
0
0
0
0
0
0
0
0
0
0
0
0
0
0
0
0
0
0
0
0
0
0
0
0
-2.465636167e-09
-2.335891464e-09
-2.766725556e-09
-3.934168499e-09
-5.938041709e-09
-9.006219338e-09
-1.344927727e-08
-1.970997151e-08
-2.848293469e-08
-4.093616069e-08
-5.891651178e-08
-8.351942749e-08
-8.596337492e-08
-1.035592052e-07
-0.0001753787638
69.5680886
0
0
0
0
0
0
0
0
0
0
0
0
0
0
0
0
0
0
0
0
0
0
0
0
0
0
0
0
0
0
0
0
0
0
0
0
0
0
0
0
0
0
0
0
-3.053124448e-09
-2.75719876e-09
-3.084216138e-09
-4.198107016e-09
-6.193273893e-09
-9.295508102e-09
-1.381647753e-08
-2.020904155e-08
-2.918622031e-08
-4.195550953e-08
-6.040256465e-08
-8.572085207e-08
-8.909885861e-08
-1.083456733e-07
-0.0001753104992
69.53973364
0
0
0
0
0
0
0
0
0
0
0
0
0
0
0
0
0
0
0
0
0
0
0
0
0
0
0
0
0
0
0
0
0
0
0
0
0
0
0
0
0
0
0
0
-2.882086317e-09
-2.720591122e-09
-3.116816585e-09
-4.253768317e-09
-6.221368694e-09
-9.210622832e-09
-1.344572459e-08
-1.917268858e-08
-2.66276419e-08
-3.595786359e-08
-4.709157937e-08
-6.163573799e-08
-1.397864346e-07
-2.384878767e-07
-1.979494409e-07
-0.006215769986
0
0
0
0
0
0
0
0
0
0
0
0
0
0
0
0
0
0
0
0
0
0
0
0
0
0
0
0
0
0
0
0
0
0
0
0
0
0
0
0
0
0
0
0
-2.064493931e-09
-2.291709523e-09
-2.906091907e-09
-4.139939242e-09
-6.090160312e-09
-8.920872696e-09
-1.279343721e-08
-1.785687413e-08
-2.424162792e-08
-3.210783003e-08
-4.177743689e-08
-5.470102288e-08
-9.904825499e-08
-1.548449532e-07
-2.751003972e-07
156.406716
0
0
0
0
0
0
0
0
0
0
0
0
0
-0.00247837817
0
0
0
0
0
0
0
0
0
0
0
0
0
0
0
0
0
0
0
0
0
0
0
0
0
0
0
0
0
0
-8.115953203e-10
-1.594958543e-09
-2.526939704e-09
-3.909270531e-09
-5.855155787e-09
-8.510108016e-09
-1.198805927e-08
-1.638509284e-08
-2.184065968e-08
-2.873892666e-08
-3.813598493e-08
-5.229523851e-08
-6.78952189e-08
-1.543749988e-08
7.411821107e-08
-0.0006619079033
106.2901468
0
0
0
0
0
0
0
0
0
0
0
-0.005430656131
-2.640565848e-05
10.46709155
0
0
0
0
0
0
0
0
0
0
0
0
0
0
0
0
0
0
0
0
0
0
0
0
0
0
0
0
0
6.019897976e-10
-7.909638772e-10
-2.073246813e-09
-3.61973575e-09
-5.557989156e-09
-8.000848607e-09
-1.096890008e-08
-1.435555894e-08
-1.78597721e-08
-2.081658564e-08
-2.170542305e-08
-1.675897879e-08
3.891613236e-09
5.196549696e-08
2.01396638e-07
-0.0001041004984
41.34922237
0
0
0
0
0
0
0
0
0
0
0
391.1475364
-0.002065608438
428.2645126
0
0
0
0
0
0
0
0
0
0
0
0
0
0
0
0
0
0
0
0
0
0
0
0
0
0
0
0
0
1.890953045e-09
-4.855988667e-11
-1.646864925e-09
-3.342756128e-09
-5.272560522e-09
-7.516908024e-09
-9.99911334e-09
-1.242162489e-08
-1.410840777e-08
-1.373887457e-08
-8.769224696e-09
5.481907704e-09
3.705453874e-08
9.266598493e-08
1.324260769e-07
1.405660409e-07
-2.31040576e-07
17.2768163
10.02012392
0
0
0
0
0
0
0
-0.006133422172
18.12055558
-4.555929522e-05
-8.500694533e-11
-3.379468263e-05
0
0
0
0
0
0
0
0
0
0
0
0
0
0
0
0
0
0
0
0
0
0
0
0
0
0
0
0
0
2.807249301e-09
4.858767924e-10
-1.34037518e-09
-3.148246895e-09
-5.086109443e-09
-7.210277667e-09
-9.397342818e-09
-1.125812941e-08
-1.20295024e-08
-1.041237386e-08
-4.465803238e-09
8.316071631e-09
3.030909511e-08
6.182795611e-08
1.10126644e-07
1.959349497e-07
4.892680381e-07
-4.30377213e-05
-2.536521054e-05
435.2302211
128.5608766
122.6369614
62.44464494
113.9959277
102.5664572
357.0164545
-1.909232113e-07
-1.538073819e-07
-2.181223692e-08
8.190991628e-08
-0.008695011692
0
0
0
0
0
0
0
0
0
0
0
0
0
0
0
0
0
0
0
0
0
0
0
0
0
0
0
0
0
3.19020663e-09
7.135035429e-10
-1.215040412e-09
-3.087668955e-09
-5.056115885e-09
-7.175771161e-09
-9.311260034e-09
-1.106368265e-08
-1.167984735e-08
-9.99060112e-09
-4.533879434e-09
5.899233575e-09
2.098298304e-08
3.746126059e-08
5.648940269e-08
8.814007719e-08
1.380111722e-07
2.22650572e-07
6.746200107e-07
-0.00219259266
-0.0006481286377
-0.0006184153561
-0.0003150798948
-0.000575085263
-0.0005175344094
-0.001799387947
-1.940864476e-07
-2.079887652e-07
-3.282778424e-07
-1.786728166e-07
-0.007138562331
0
0
0
0
0
0
0
0
0
0
0
0
0
0
0
0
0
0
0
0
0
0
0
0
0
0
0
0
0
2.990243735e-09
6.045772646e-10
-1.28995543e-09
-3.176874115e-09
-5.200672514e-09
-7.437702126e-09
-9.765891643e-09
-1.1819584e-08
-1.282844434e-08
-1.150933517e-08
-5.907428221e-09
6.448967395e-09
2.794252084e-08
5.898007699e-08
1.068154554e-07
1.899752112e-07
4.849231642e-07
-4.248483047e-05
-2.471098627e-05
435.1811727
128.5486931
122.6854901
62.54606192
114.1376788
102.736998
357.160159
-2.120580214e-07
-1.730019596e-07
8.385614928e-09
7.471759918e-08
-0.008690896168
0
0
0
0
0
0
0
0
0
0
0
0
0
0
0
0
0
0
0
0
0
0
0
0
0
0
0
0
0
2.280642383e-09
2.08032043e-10
-1.541480226e-09
-3.391752718e-09
-5.502655069e-09
-7.963314474e-09
-1.07345296e-08
-1.352992607e-08
-1.570373037e-08
-1.591929206e-08
-1.165941385e-08
1.77711159e-09
3.242204948e-08
8.686002699e-08
1.23259158e-07
1.294231961e-07
-2.395092756e-07
17.05672269
9.759568854
0
0
0
0
0
0
0
-0.006121988256
18.3328613
-4.610326004e-05
-8.18533442e-11
-2.985053753e-05
0
0
0
0
0
0
0
0
0
0
0
0
0
0
0
0
0
0
0
0
0
0
0
0
0
0
0
0
0
1.251138808e-09
-3.73739256e-10
-1.895707576e-09
-3.689298065e-09
-5.896557101e-09
-8.666841845e-09
-1.205444146e-08
-1.600223281e-08
-2.022626486e-08
-2.408168402e-08
-2.604497497e-08
-2.240197168e-08
-3.321532843e-09
4.300117928e-08
1.892490229e-07
-0.0001032246218
40.9977723
0
0
0
0
0
0
0
0
0
0
0
391.0692514
-0.002065449672
428.2798371
0
0
0
0
0
0
0
0
0
0
0
0
0
0
0
0
0
0
0
0
0
0
0
0
0
0
0
0
0
1.614760964e-10
-9.805566542e-10
-2.26431524e-09
-3.991474877e-09
-6.302107487e-09
-9.387092928e-09
-1.341171405e-08
-1.853410881e-08
-2.493333039e-08
-3.302424552e-08
-4.385707376e-08
-5.972515223e-08
-7.722633339e-08
-2.743994397e-08
6.030371601e-08
-0.0006578043457
105.4936056
0
0
0
0
0
0
0
0
0
0
0
-0.005433004659
-2.643300587e-05
10.47795229
0
0
0
0
0
0
0
0
0
0
0
0
0
0
0
0
0
0
0
0
0
0
0
0
0
0
0
0
0
-6.994418939e-10
-1.452114656e-09
-2.556401642e-09
-4.245953706e-09
-6.660447689e-09
-1.001600652e-08
-1.454357747e-08
-2.046702958e-08
-2.7987535e-08
-3.73046666e-08
-4.878101916e-08
-6.382057496e-08
-1.106377611e-07
-1.704119411e-07
-2.867588418e-07
155.5736887
0
0
0
0
0
0
0
0
0
0
0
0
0
-0.002462870183
0
0
0
0
0
0
0
0
0
0
0
0
0
0
0
0
0
0
0
0
0
0
0
0
0
0
0
0
0
0
-1.075150741e-09
-1.653500311e-09
-2.703184068e-09
-4.421295728e-09
-6.952608088e-09
-1.055141255e-08
-1.552081262e-08
-2.220048839e-08
-3.091624809e-08
-4.189383241e-08
-5.50709466e-08
-7.206717376e-08
-1.530646909e-07
-2.556563402e-07
-2.064481829e-07
-0.006276739491
0
0
0
0
0
0
0
0
0
0
0
0
0
0
0
0
0
0
0
0
0
0
0
0
0
0
0
0
0
0
0
0
0
0
0
0
0
0
0
0
0
0
0
0
-8.083424477e-10
-1.511276374e-09
-2.680132925e-09
-4.509741281e-09
-7.166887639e-09
-1.094823388e-08
-1.625265572e-08
-2.363756911e-08
-3.393686208e-08
-4.846783144e-08
-6.920363471e-08
-9.727626328e-08
-1.044458759e-07
-1.287762042e-07
-0.0001683631043
66.77977147
0
0
0
0
0
0
0
0
0
0
0
0
0
0
0
0
0
0
0
0
0
0
0
0
0
0
0
0
0
0
0
0
0
0
0
0
0
0
0
0
0
0
0
0
1.158618708e-10
-1.047163171e-09
-2.522071507e-09
-4.542929333e-09
-7.301956677e-09
-1.110460944e-08
-1.63479532e-08
-2.358469928e-08
-3.365151722e-08
-4.788752311e-08
-6.829372808e-08
-9.610687128e-08
-1.03250427e-07
-1.273811674e-07
-0.0001645424628
65.26519055
0
0
0
0
0
0
0
0
0
0
0
0
0
0
0
0
0
0
0
0
0
0
0
0
0
0
0
0
0
0
0
0
0
0
0
0
0
0
0
0
0
0
0
0
1.528397091e-09
-4.01125049e-10
-2.347117156e-09
-4.62640544e-09
-7.462294578e-09
-1.113231836e-08
-1.592783794e-08
-2.216435502e-08
-3.016839069e-08
-4.02215009e-08
-5.240377943e-08
-6.850801918e-08
-1.501078596e-07
-2.515010212e-07
-1.961663859e-07
-0.006438666525
0
0
0
0
0
0
0
0
0
0
0
0
0
0
0
0
0
0
0
0
0
0
0
0
0
0
0
0
0
0
0
0
0
0
0
0
0
0
0
0
0
0
0
0
3.067308654e-09
1.619240148e-10
-2.356725796e-09
-4.937856718e-09
-7.854432995e-09
-1.135389118e-08
-1.562493302e-08
-2.082109012e-08
-2.710524138e-08
-3.476398051e-08
-4.447455357e-08
-5.837274839e-08
-1.06383844e-07
-1.685380823e-07
-3.223485768e-07
149.7272741
0
0
0
0
0
0
0
0
0
0
0
0
0
-0.002961357906
0
0
0
0
0
0
0
0
0
0
0
0
0
0
0
0
0
0
0
0
0
0
0
0
0
0
0
0
0
0
4.178578257e-09
2.610895983e-10
-2.814271205e-09
-5.684184437e-09
-8.686880972e-09
-1.202959088e-08
-1.57786882e-08
-1.991759507e-08
-2.447908432e-08
-2.986788733e-08
-3.747567279e-08
-5.04690582e-08
-6.784310197e-08
-3.616439985e-08
1.632705901e-08
-0.0005674638461
75.50276747
0
0
0
0
0
0
0
0
0
0
0
-0.005872336876
-1.698030901e-05
6.727174156
0
0
0
0
0
0
0
0
0
0
0
0
0
0
0
0
0
0
0
0
0
0
0
0
0
0
0
0
0
4.128654907e-09
-5.781044897e-10
-4.011336898e-09
-7.066575433e-09
-1.014104128e-08
-1.335677649e-08
-1.656980651e-08
-1.939060354e-08
-2.120123757e-08
-2.118233457e-08
-1.815960285e-08
-9.598333545e-09
1.226851652e-08
5.565292963e-08
1.977518564e-07
-1.45571111e-06
0.5892347337
0
0
0
0
0
0
0
0
0
0
0
381.0144694
-0.00199176543
409.0996093
0
0
0
0
0
0
0
0
0
0
0
0
0
0
0
0
0
0
0
0
0
0
0
0
0
0
0
0
0
1.954792063e-09
-2.895662374e-09
-6.208319987e-09
-9.240052074e-09
-1.237959797e-08
-1.559630859e-08
-1.848545825e-08
-2.023414319e-08
-1.953267956e-08
-1.452449363e-08
-2.853748048e-09
1.855729441e-08
5.49159733e-08
1.145474046e-07
1.187451286e-07
8.419519686e-08
-4.329677311e-07
697.495254
95.21606311
0
0
0
0
0
0
0
-0.0008339508787
369.2903067
-4.77451185e-07
-6.155990491e-09
-0.002441608337
0
0
0
0
0
0
0
0
0
0
0
0
0
0
0
0
0
0
0
0
0
0
0
0
0
0
0
0
0
-3.600722274e-09
-7.173452689e-09
-9.487415537e-09
-1.22199005e-08
-1.548043785e-08
-1.897099875e-08
-2.202695355e-08
-2.349568175e-08
-2.152217481e-08
-1.351689177e-08
2.88867405e-09
2.733933709e-08
5.123736182e-08
7.441597856e-08
1.379355176e-07
3.638616628e-07
6.592706379e-07
-0.001757101327
-0.0004547442866
85.17665405
281.8246233
158.0677184
0
157.0954245
279.6009393
-0.002697986191
-2.99902475e-09
-0.0009305560714
-3.467681364e-09
-3.125103925e-07
-0.01412385648
0
0
0
0
0
0
0
0
0
0
0
0
0
0
0
0
0
0
0
0
0
0
0
0
0
0
0
0
0
-1.714906477e-08
-1.423393365e-08
-1.352481546e-08
-1.57618667e-08
-1.937582777e-08
-2.356714695e-08
-2.745726411e-08
-2.971438625e-08
-2.802226355e-08
-1.835012559e-08
4.337803335e-09
4.322283661e-08
7.738993722e-08
1.19830254e-07
2.55786788e-07
4.094729518e-07
7.690443062e-07
7.729573443e-07
-7.489292384e-09
-0.000290531784
-0.001966397994
-0.0006774385405
-0.04744438141
-0.0006583180445
-0.001917430424
-0.0001896341459
-1.664187732e-08
-9.008549384e-08
3.496507012e-08
-2.478553154e-09
-0.00546205929
0
0
0
0
0
0
0
0
0
0
0
0
0
0
0
0
0
0
0
0
0
0
0
0
0
0
0
0
0
-1.745908189e-08
-1.545549157e-08
-1.58040851e-08
-1.90806802e-08
-2.386492279e-08
-2.937622191e-08
-3.480833716e-08
-3.907290805e-08
-4.008979111e-08
-3.258449632e-08
-6.746477554e-09
5.785757237e-08
1.007571898e-07
2.777766564e-07
4.811691183e-07
-2.328188237e-05
-0.0001090823677
-0.003842296925
-0.002970354061
115.2503912
498.2361608
110.6456952
0
104.0320347
481.034642
75.22462674
-0.006601396974
-0.01150572174
-0.0002025069043
-0.0009502427948
216.1777766
0
0
0
0
0
0
0
0
0
0
0
0
0
0
0
0
0
0
0
0
0
0
0
0
0
0
0
0
0
-6.251400085e-09
-1.151793977e-08
-1.651910406e-08
-2.230850947e-08
-2.911806027e-08
-3.654210974e-08
-4.392919795e-08
-5.074657759e-08
-5.676508808e-08
-5.805328674e-08
-4.493159647e-08
1.417803537e-08
9.337816274e-08
3.00212634e-07
-4.690482554e-08
9.403951857
43.32202135
0
0
0
0
0
0
0
0
0
0
0
80.45939334
160.7790504
0
0
0
0
0
0
0
0
0
0
0
0
0
0
0
0
0
0
0
0
0
0
0
0
0
0
0
0
0
0
-4.003197854e-09
-1.071730213e-08
-1.811390446e-08
-2.635660512e-08
-3.573973598e-08
-4.573461575e-08
-5.519307074e-08
-6.321506934e-08
-7.239084851e-08
-8.538307229e-08
-1.244626174e-07
-1.069188867e-07
-0.0001379116249
-0.0008204742214
230.6622461
0
0
0
0
0
0
0
0
0
0
0
0
0
0
0
0
0
0
0
0
0
0
0
0
0
0
0
0
0
0
0
0
0
0
0
0
0
0
0
0
0
0
0
0
0
-3.425008455e-09
-1.101047258e-08
-2.042622462e-08
-3.133795459e-08
-4.422140974e-08
-5.842381052e-08
-7.141120419e-08
-7.766905916e-08
-7.488731524e-08
-1.051879909e-07
-2.169013724e-07
-4.315237586e-07
54.75643434
94.92021822
0
0
0
0
0
0
0
0
0
0
0
0
0
0
0
0
0
0
0
0
0
0
0
0
0
0
0
0
0
0
0
0
0
0
0
0
0
0
0
0
0
0
0
0
0
0
-3.324065498e-09
-1.162396817e-08
-2.283847035e-08
-3.655864324e-08
-5.410093522e-08
-7.613572245e-08
-1.014508798e-07
-1.221531086e-07
-1.234536967e-07
-6.815517943e-08
-0.0001872440336
74.2742702
0
0
0
0
0
0
0
0
0
0
0
0
0
0
0
0
0
0
0
0
0
0
0
0
0
0
0
0
0
0
0
0
0
0
0
0
0
0
0
0
0
0
0
0
0
0
0
0
-3.269075316e-09
-1.197221833e-08
-2.437296762e-08
-4.008537182e-08
-6.150170866e-08
-9.185048655e-08
-1.35707795e-07
-1.893322321e-07
-1.687133227e-07
-6.910379695e-08
-0.0006807620609
172.9872056
0
0
0
0
0
0
0
0
0
0
0
0
0
0
0
0
0
0
0
0
0
0
0
0
0
0
0
0
0
0
0
0
0
0
0
0
0
0
0
0
0
0
0
0
0
0
0
0
-3.105070506e-09
-1.164740951e-08
-2.409684328e-08
-3.967674109e-08
-6.048727722e-08
-8.917703354e-08
-1.304622249e-07
-2.355825953e-07
-3.273911402e-07
-3.700452836e-07
97.15187189
0
0
0
0
0
0
0
0
0
0
0
0
0
0
0
0
0
0
0
0
0
0
0
0
0
0
0
0
0
0
0
0
0
0
0
0
0
0
0
0
0
0
0
0
0
0
0
0
0
)
;

boundaryField
{
    lowerWall
    {
        type            calculated;
        value           uniform 0;
    }
    atmosphere
    {
        type            calculated;
        value           nonuniform List<scalar> 
60
(
1.895823826e-10
2.089744124e-10
2.270800799e-10
2.438472207e-10
2.584957231e-10
2.684272605e-10
2.71584523e-10
2.651542425e-10
2.455249445e-10
2.056919961e-10
1.288001912e-10
-3.191918668e-11
-4.168219009e-10
-1.504361535e-09
-4.776843559e-09
-1.941704158e-08
-2.199308248e-08
-8.096916288e-09
-9.00794636e-10
3.959612066e-09
7.143790539e-09
8.942089532e-09
9.500823267e-09
8.963185501e-09
7.528914591e-09
5.471473108e-09
3.116754059e-09
8.101172418e-10
-1.132369515e-09
-2.465636167e-09
-3.053124448e-09
-2.882086317e-09
-2.064493931e-09
-8.115953203e-10
6.019897976e-10
1.890953045e-09
2.807249301e-09
3.19020663e-09
2.990243735e-09
2.280642383e-09
1.251138808e-09
1.614760964e-10
-6.994418939e-10
-1.075150741e-09
-8.083424477e-10
1.158618708e-10
1.528397091e-09
3.067308654e-09
4.178578257e-09
4.128654907e-09
1.954792063e-09
-3.600722274e-09
-1.714906477e-08
-1.745908189e-08
-6.251400085e-09
-4.003197854e-09
-3.425008455e-09
-3.324065498e-09
-3.269075316e-09
-3.105070506e-09
)
;
    }
    rightWall
    {
        type            empty;
    }
    leftWall
    {
        type            empty;
    }
    frontAndBack
    {
        type            calculated;
        value           nonuniform List<scalar> 
120
(
1.895823826e-10
2.507659913e-10
-1.90006965e-10
-6.561904688e-10
-1.215223677e-09
-1.867333001e-09
-2.633029629e-09
-3.53456404e-09
-4.593492093e-09
-5.835432204e-09
-7.28275412e-09
-8.957517782e-09
-1.088307753e-08
-1.310508948e-08
-1.568551954e-08
-1.86247739e-08
-2.164860325e-08
-2.398726952e-08
-2.457844824e-08
-2.334352041e-08
-2.237573851e-08
-2.263616446e-08
-2.2885709e-08
-2.327880134e-08
-2.564864628e-08
-3.22135306e-08
-4.133278368e-08
-5.32280864e-08
-6.171727611e-08
-2.175490882e-08
-0.0007016256525
0
0
0
0
0
0
0
0
0
0
0
0
0
0
0
0
0
0
0
0
0
0
0
0
0
0
0
0
0
-3.105070506e-09
-1.164740951e-08
-2.409684328e-08
-3.967674109e-08
-6.048727722e-08
-8.917703354e-08
-1.304622249e-07
-2.355825953e-07
-3.273911402e-07
-3.700452836e-07
97.15187189
0
0
0
0
0
0
0
0
0
0
0
0
0
0
0
0
0
0
0
0
0
0
0
0
0
0
0
0
0
0
0
0
0
0
0
0
0
0
0
0
0
0
0
0
0
0
0
0
0
)
;
    }
}


// ************************************************************************* //
