/*--------------------------------*- C++ -*----------------------------------*\
  =========                 |
  \\      /  F ield         | OpenFOAM: The Open Source CFD Toolbox
   \\    /   O peration     | Website:  https://openfoam.org
    \\  /    A nd           | Version:  6
     \\/     M anipulation  |
\*---------------------------------------------------------------------------*/
FoamFile
{
    version     2.0;
    format      ascii;
    class       surfaceScalarField;
    location    "0.0007";
    object      phi;
}
// * * * * * * * * * * * * * * * * * * * * * * * * * * * * * * * * * * * * * //

dimensions      [0 3 -1 0 0 0 0];

internalField   nonuniform List<scalar> 
114720
(
1.867702313e-19
-2.381266788e-23
1.884230495e-19
-7.798661446e-23
1.899452615e-19
-1.425341541e-22
1.914092547e-19
-2.056070397e-22
1.927706576e-19
-2.677190448e-22
1.940444762e-19
-3.2857498e-22
1.952463808e-19
-3.883427347e-22
1.963922164e-19
-4.465670118e-22
1.974971547e-19
-5.033298062e-22
1.985755771e-19
-5.581009574e-22
1.996402946e-19
-6.109135907e-22
2.007025993e-19
-6.611758627e-22
2.01771671e-19
-7.088770284e-22
2.02854828e-19
-7.533679047e-22
2.039571124e-19
-7.945969644e-22
2.050817012e-19
-8.318591675e-22
2.062296353e-19
-8.650554217e-22
2.074003633e-19
-8.934080214e-22
2.085915541e-19
-9.167479221e-22
2.097996818e-19
-9.341952574e-22
2.110197711e-19
-9.45495278e-22
2.122458889e-19
-9.4966957e-22
2.134707609e-19
-9.463941893e-22
2.146862037e-19
-9.346093093e-22
2.158827493e-19
-9.139203488e-22
2.170501575e-19
-8.831557034e-22
2.181770937e-19
-8.418065339e-22
2.192516414e-19
-7.885545852e-22
2.202608647e-19
-7.227800815e-22
2.211911736e-19
-6.43073632e-22
2.220277618e-19
-5.487926412e-22
2.227549839e-19
-4.38519709e-22
2.233558985e-19
-3.116392527e-22
2.238128339e-19
-1.667286722e-22
2.241070513e-19
-3.189598161e-24
2.242193405e-19
1.80378446e-22
2.241295954e-19
3.84455002e-22
2.238173154e-19
6.102367218e-22
2.232611372e-19
8.578525544e-22
2.224394298e-19
1.128068166e-21
2.213300096e-19
1.420481327e-21
2.199109958e-19
1.735316434e-21
2.181607341e-19
2.071570356e-21
2.160588348e-19
2.428853371e-21
2.135861871e-19
2.80543685e-21
2.107260614e-19
3.200111753e-21
2.074641166e-19
3.610138542e-21
2.037894969e-19
4.033159502e-21
1.996947794e-19
4.465098035e-21
1.951770562e-19
4.902184583e-21
1.902378808e-19
5.338848353e-21
1.848844633e-19
5.769886387e-21
1.791297476e-19
6.188344073e-21
1.729937566e-19
6.587807768e-21
1.665036319e-19
6.960230327e-21
1.596947421e-19
7.298314096e-21
1.526101991e-19
7.593268616e-21
1.453013719e-19
7.837313571e-21
1.378268345e-19
8.021426759e-21
1.302525959e-19
8.138042881e-21
1.226509242e-19
8.178826933e-21
1.151005633e-19
8.137540968e-21
1.076852699e-19
8.007741308e-21
1.004934669e-19
7.785672621e-21
9.361587826e-20
7.467771278e-21
8.71443796e-20
7.053534392e-21
8.116910981e-20
6.542853444e-21
7.577741554e-20
5.938912018e-21
7.105140561e-20
5.245378823e-21
6.70675632e-20
4.469280293e-21
6.389468552e-20
3.617939642e-21
6.159366546e-20
2.701679762e-21
6.021534103e-20
1.730442513e-21
5.980044001e-20
7.163495624e-22
6.037795268e-20
-3.298371995e-22
6.196621811e-20
-1.396101318e-21
6.457268781e-20
-2.472678988e-21
6.819647158e-20
-3.549313322e-21
7.28291128e-20
-4.618720757e-21
7.845768218e-20
-5.67377479e-21
8.506549989e-20
-6.710913596e-21
9.263490429e-20
-7.727158279e-21
1.011474257e-19
-8.723227854e-21
1.105860793e-19
-9.700149469e-21
1.209350459e-19
-1.066187738e-20
1.3218151e-19
-1.161149903e-20
1.443146828e-19
-1.255352904e-20
1.57326751e-19
-1.349007959e-20
1.712106353e-19
-1.442322387e-20
1.859595045e-19
-1.535150773e-20
2.015631216e-19
-1.627259391e-20
2.180063504e-19
-1.718024338e-20
2.35265114e-19
-1.806723577e-20
2.533051491e-19
-1.892282327e-20
2.72078683e-19
-1.973590689e-20
2.915240426e-19
-2.049296496e-20
3.115630656e-19
-2.118139216e-20
3.321011327e-19
-2.178775002e-20
3.530245479e-19
-2.230097135e-20
3.741997682e-19
-2.271059872e-20
3.954688065e-19
-2.300947543e-20
4.166446151e-19
-2.319172194e-20
4.375007888e-19
-2.325474313e-20
4.577597172e-19
-2.319695412e-20
4.770750732e-19
-2.30191882e-20
4.950137433e-19
-2.272226768e-20
5.110334408e-19
-2.230784513e-20
5.244596626e-19
-2.177573622e-20
5.344570403e-19
-2.112410758e-20
5.399996144e-19
-2.034674699e-20
5.398385917e-19
-1.943296804e-20
5.324742676e-19
-1.83651816e-20
5.161327504e-19
-1.71184488e-20
4.887533527e-19
-1.565899646e-20
4.479949909e-19
-1.394356539e-20
3.912622669e-19
-1.192069701e-20
3.156813209e-19
-9.528979988e-21
2.168750667e-19
-6.70878105e-21
8.497674687e-20
-3.413184085e-21
6.907094634e-21
2.140032588e-33
6.892715901e-21
9.526716085e-24
6.867574038e-21
1.90029106e-23
6.832992972e-21
2.831863214e-23
6.789878359e-21
3.747280162e-23
6.73877765e-21
4.635236914e-23
6.680096932e-21
5.496054855e-23
6.614039997e-21
6.319820799e-23
6.540813362e-21
7.107099877e-23
6.460586639e-21
7.849312022e-23
6.373648973e-21
8.547569849e-23
6.280322464e-21
9.194873888e-23
6.18105791e-21
9.793090602e-23
6.076325455e-21
1.03368026e-22
5.966682665e-21
1.082868164e-22
5.852668048e-21
1.126481067e-22
5.734863698e-21
1.164863714e-22
5.613804521e-21
1.197757814e-22
5.490043624e-21
1.225574053e-22
5.364077338e-21
1.24816587e-22
5.236410935e-21
1.265991894e-22
5.107493464e-21
1.278994504e-22
4.977779429e-21
1.287661819e-22
4.847669247e-21
1.292001682e-22
4.717565256e-21
1.29251478e-22
4.587816778e-21
1.28925336e-22
4.458771324e-21
1.282714163e-22
4.330724316e-21
1.272976115e-22
4.203966677e-21
1.260518723e-22
4.078739293e-21
1.245431775e-22
3.955277413e-21
1.22816799e-22
3.833769498e-21
1.208816448e-22
3.714398636e-21
1.187795293e-22
3.59730507e-21
1.165185387e-22
3.482624717e-21
1.14136609e-22
3.370454933e-21
1.116404168e-22
3.260890092e-21
1.090639091e-22
3.153990268e-21
1.064120695e-22
3.049814073e-21
1.037148158e-22
2.948389865e-21
1.009753988e-22
2.849746058e-21
9.821987273e-23
2.753884677e-21
9.544973241e-23
2.660809205e-21
9.26874883e-23
2.570500309e-21
8.993300282e-23
2.482941448e-21
8.7205515e-23
2.398096457e-21
8.450348399e-23
2.315933131e-21
8.184323132e-23
2.236402527e-21
7.922197077e-23
2.159460597e-21
7.665351259e-23
2.085049084e-21
7.413403826e-23
2.013115407e-21
7.167515179e-23
1.943594927e-21
6.927225114e-23
1.876429266e-21
6.693505964e-23
1.81154985e-21
6.465834314e-23
1.748894753e-21
6.245027789e-23
1.688393427e-21
6.03051683e-23
1.62998225e-21
5.822987085e-23
1.573590258e-21
5.62184119e-23
1.51915357e-21
5.427655791e-23
1.466602045e-21
5.239815189e-23
1.415872633e-21
5.058809731e-23
1.36689692e-21
4.884015825e-23
1.319613547e-21
4.715851104e-23
1.273956508e-21
4.553695465e-23
1.229866757e-21
4.39790772e-23
1.187281189e-21
4.247875764e-23
1.146143458e-21
4.103913539e-23
1.106393625e-21
3.96542237e-23
1.067978302e-21
3.832677904e-23
1.030840903e-21
3.705101144e-23
9.949311956e-22
3.582936708e-23
9.601960799e-22
3.465626655e-23
9.265885104e-22
3.353392771e-23
8.94058776e-22
3.245700722e-23
8.625629109e-22
3.142751698e-23
8.320545024e-22
3.044037902e-23
8.024926865e-22
2.949742905e-23
7.73834409e-22
2.859385111e-23
7.460418555e-22
2.773135596e-23
7.190750527e-22
2.690540456e-23
6.928988269e-22
2.611758338e-23
6.674759235e-22
2.536363527e-23
6.427737596e-22
2.464501841e-23
6.187580592e-22
2.39577408e-23
5.953990552e-22
2.330317525e-23
5.726652036e-22
2.267762317e-23
5.505287432e-22
2.208237731e-23
5.289599044e-22
2.151401625e-23
5.079326031e-22
2.097370498e-23
4.874194735e-22
2.045825453e-23
4.673970879e-22
1.996874758e-23
4.478406884e-22
1.950229661e-23
4.287283972e-22
1.905993436e-23
4.100364142e-22
1.863903815e-23
3.917437607e-22
1.824048986e-23
3.738286083e-22
1.786186051e-23
3.562724052e-22
1.750395491e-23
3.390554333e-22
1.716465546e-23
3.221598116e-22
1.684472901e-23
3.055659622e-22
1.654227726e-23
2.892567273e-22
1.625787763e-23
2.732148906e-22
1.598980065e-23
2.574259353e-22
1.573858343e-23
2.418740982e-22
1.550283017e-23
2.265441418e-22
1.528303964e-23
2.114191453e-22
1.507796492e-23
1.964840253e-22
1.488787917e-23
1.817242029e-22
1.471169348e-23
1.671274032e-22
1.454967528e-23
1.526810694e-22
1.440099814e-23
1.383732444e-22
1.426587312e-23
1.241896043e-22
1.414377493e-23
1.10113847e-22
1.403492479e-23
9.612844869e-23
1.393854413e-23
8.222401188e-23
1.385476181e-23
6.839490326e-23
1.378195567e-23
5.464113887e-23
1.372263636e-23
4.09426742e-23
1.367431097e-23
2.728202846e-23
1.364070722e-23
1.362456358e-23
1.361398431e-23
1.360547056e-23
1.862373345e-19
-5.520796044e-23
1.878731123e-19
-1.700410452e-22
1.894014012e-19
-2.911543326e-22
1.908641707e-19
-4.143989397e-22
1.922252859e-19
-5.369966078e-22
1.934984864e-19
-6.582631123e-22
1.947001127e-19
-7.7725056e-22
1.958454724e-19
-8.938060618e-22
1.969504684e-19
-1.007091882e-21
1.980289101e-19
-1.116949065e-21
1.990943342e-19
-1.222470662e-21
2.001574193e-19
-1.323427826e-21
2.012280669e-19
-1.418818523e-21
2.023129495e-19
-1.508331354e-21
2.034178371e-19
-1.59086297e-21
2.045452464e-19
-1.66601667e-21
2.056969733e-19
-1.732573791e-21
2.068718052e-19
-1.79001608e-21
2.080682051e-19
-1.836953624e-21
2.092819741e-19
-1.872698718e-21
2.105089522e-19
-1.895660841e-21
2.117425072e-19
-1.904987707e-21
2.129762011e-19
-1.898924223e-21
2.142011471e-19
-1.876482166e-21
2.154087654e-19
-1.835726123e-21
2.165881215e-19
-1.775469475e-21
2.17728809e-19
-1.69350815e-21
2.188181804e-19
-1.588397969e-21
2.198442067e-19
-1.457687817e-21
2.207924904e-19
-1.299790047e-21
2.216491134e-19
-1.112173554e-21
2.223975816e-19
-8.932568675e-22
2.230218736e-19
-6.405022468e-22
2.235034395e-19
-3.523415013e-22
2.238244474e-19
-2.622624793e-23
2.239646903e-19
3.393254297e-22
2.239048591e-19
7.466539995e-22
2.23623275e-19
1.196787432e-21
2.230992621e-19
1.691412625e-21
2.223098802e-19
2.230675904e-21
2.212336023e-19
2.815285375e-21
2.198471544e-19
3.444290995e-21
2.181295039e-19
4.117271343e-21
2.160587213e-19
4.832001312e-21
2.136161837e-19
5.586641377e-21
2.107833737e-19
6.377247173e-21
2.075462454e-19
7.199977746e-21
2.038919071e-19
8.048510181e-21
1.998131128e-19
8.916369516e-21
1.953048019e-19
9.794346844e-21
1.903687574e-19
1.06730363e-20
1.850100888e-19
1.154029473e-20
1.792421676e-19
1.238398606e-20
1.730830625e-19
1.318943203e-20
1.665605941e-19
1.394229821e-20
1.5970836e-19
1.462597507e-20
1.52570475e-19
1.522460353e-20
1.451968612e-19
1.572044899e-20
1.376476494e-19
1.609719814e-20
1.29987997e-19
1.633745466e-20
1.22292521e-19
1.642636132e-20
1.146398276e-19
1.634913474e-20
1.071167653e-19
1.609479628e-20
9.981213935e-20
1.565347953e-20
9.282024453e-20
1.502005685e-20
8.623361228e-20
1.419114786e-20
8.014623897e-20
1.316869298e-20
7.464623572e-20
1.195676152e-20
6.981962696e-20
1.056508355e-20
6.574340923e-20
9.005534732e-21
6.248982795e-20
7.295365135e-21
6.01194379e-20
5.453121258e-21
5.868549321e-20
3.501439146e-21
5.822715777e-20
1.462521224e-21
5.877466842e-20
-6.392128125e-22
6.034367159e-20
-2.781696838e-21
6.294190102e-20
-4.942410804e-21
6.656487725e-20
-7.102841341e-21
7.120363869e-20
-9.245550179e-21
7.68409751e-20
-1.13585563e-20
8.34592309e-20
-1.34322338e-20
9.103635594e-20
-1.546330555e-20
9.955329854e-20
-1.745111294e-20
1.089896749e-19
-1.940069196e-20
1.193305715e-19
-2.131810282e-20
1.305616545e-19
-2.321259166e-20
1.426749779e-19
-2.50914269e-20
1.556630582e-19
-2.696183118e-20
1.695230978e-19
-2.882614703e-20
1.842496663e-19
-3.068420733e-20
1.998373017e-19
-3.252930824e-20
2.16272395e-19
-3.435121748e-20
2.335351966e-19
-3.613306264e-20
2.515921974e-19
-3.785500376e-20
2.703986273e-19
-3.94920827e-20
2.898920376e-19
-4.101851329e-20
3.099953804e-19
-4.240633493e-20
3.306115282e-19
-4.362987132e-20
3.516262071e-19
-4.466458433e-20
3.729022808e-19
-4.549092175e-20
3.942804375e-19
-4.609267186e-20
4.155700785e-19
-4.645966324e-20
4.365438085e-19
-4.658536397e-20
4.569214412e-19
-4.646841628e-20
4.763567316e-19
-4.610964043e-20
4.944155405e-19
-4.551254743e-20
5.105572169e-19
-4.467981353e-20
5.241081157e-19
-4.361271495e-20
5.342359882e-19
-4.230707146e-20
5.39917028e-19
-4.075187059e-20
5.399059749e-19
-3.892537376e-20
5.327055711e-19
-3.679354627e-20
5.165442545e-19
-3.430686528e-20
4.893628432e-19
-3.139910564e-20
4.488184806e-19
-2.798653032e-20
3.923143171e-19
-2.396897695e-20
3.169497027e-19
-1.923789735e-20
2.183776967e-19
-1.368746876e-20
8.585839664e-20
-7.289802065e-21
6.916620935e-21
2.185733504e-33
6.902191683e-21
1.909227672e-23
6.876889345e-21
3.804332633e-23
6.842146731e-21
5.677315583e-23
6.798757521e-21
7.509654746e-23
6.747385422e-21
9.295356145e-23
6.68833419e-21
1.101865359e-22
6.621912395e-21
1.267481295e-22
6.548235086e-21
1.425025509e-22
6.467568829e-21
1.574167738e-22
6.380121636e-21
1.713809638e-22
6.286304248e-21
1.843807969e-22
6.186494659e-21
1.963342301e-22
6.081243887e-21
2.072471293e-22
5.971043591e-21
2.170646378e-22
5.856505961e-21
2.258125425e-22
5.738152771e-21
2.334611101e-22
5.6165858e-21
2.400538143e-22
5.492302476e-21
2.455826835e-22
5.365859626e-21
2.501054718e-22
5.237710874e-21
2.536315638e-22
5.108359889e-21
2.56229191e-22
4.978213124e-21
2.579206481e-22
4.847720258e-21
2.587805801e-22
4.717238831e-21
2.588400937e-22
4.587162591e-21
2.581766129e-22
4.457797244e-21
2.56826126e-22
4.329478317e-21
2.548658269e-22
4.202457737e-21
2.523333974e-22
4.077012662e-21
2.493031257e-22
3.953342022e-21
2.458120234e-22
3.83166716e-21
2.419295952e-22
3.712137416e-21
2.376902321e-22
3.594922924e-21
2.33157543e-22
3.480128322e-21
2.283621062e-22
3.367878216e-21
2.233608163e-22
3.258238057e-21
2.181798975e-22
3.151292831e-21
2.128692934e-22
3.047074467e-21
2.074504997e-22
2.945634162e-21
2.019667382e-22
2.846975753e-21
1.964348306e-22
2.751122262e-21
1.90891521e-22
2.65805456e-21
1.853493364e-22
2.567772672e-21
1.79839062e-22
2.480239263e-21
1.743692291e-22
2.395436061e-21
1.68965375e-22
2.313311736e-21
1.636325122e-22
2.23383393e-21
1.583914801e-22
2.156940993e-21
1.532443685e-22
2.082590077e-21
1.482079613e-22
2.010712382e-21
1.432818343e-22
1.941257619e-21
1.38479411e-22
1.874152441e-21
1.337982191e-22
1.809341672e-21
1.292488038e-22
1.746749539e-21
1.248271436e-22
1.686318032e-21
1.205414081e-22
1.62797069e-21
1.1638633e-22
1.57164831e-21
1.123682128e-22
1.517275076e-21
1.084808675e-22
1.464791899e-21
1.047290471e-22
1.414124609e-21
1.011059756e-22
1.365215194e-21
9.761517485e-23
1.317991908e-21
9.424945115e-23
1.272398555e-21
9.101141789e-23
1.228366366e-21
8.789365203e-23
1.185841493e-21
8.489802823e-23
1.144758478e-21
8.201709662e-23
1.105066116e-21
7.92521698e-23
1.066702468e-21
7.659584081e-23
1.029619197e-21
7.404904372e-23
9.937580375e-22
7.160450736e-23
9.590736815e-22
6.926285977e-23
9.255115344e-22
6.701708245e-23
8.93029234e-22
6.486758542e-23
8.615757194e-22
6.28076146e-23
8.311115026e-22
6.083745693e-23
8.015890622e-22
5.895065634e-23
7.729718657e-22
5.714739376e-23
7.452158595e-22
5.542158108e-23
7.1828719e-22
5.377333669e-23
6.921448357e-22
5.219692363e-23
6.667572667e-22
5.069243601e-23
6.420864449e-22
4.92544791e-23
6.181034551e-22
4.788310782e-23
5.947734675e-22
4.657332328e-23
5.720699247e-22
4.532518494e-23
5.499603478e-22
4.413407587e-23
5.284195615e-22
4.300005899e-23
5.074171234e-22
4.191883747e-23
4.869299361e-22
4.089042329e-23
4.669306089e-22
3.991089537e-23
4.473983004e-22
3.898029889e-23
4.283074742e-22
3.809510749e-23
4.096378413e-22
3.72553645e-23
3.91365109e-22
3.645780991e-23
3.734706792e-22
3.570240104e-23
3.559330844e-22
3.498623307e-23
3.387354875e-22
3.43093245e-23
3.218573395e-22
3.366915186e-23
3.052815443e-22
3.306568678e-23
2.889886339e-22
3.249659307e-23
2.72963656e-22
3.196173887e-23
2.571901666e-22
3.145915345e-23
2.416542941e-22
3.098880598e-23
2.263390526e-22
3.054906817e-23
2.112290469e-22
3.013979973e-23
1.963078287e-22
2.975947803e-23
1.815621729e-22
2.940787579e-23
1.669787161e-22
2.908383646e-23
1.525459361e-22
2.878721523e-23
1.382511371e-22
2.8517121e-23
1.240807467e-22
2.82733879e-23
1.100174605e-22
2.805539241e-23
9.604465976e-23
2.786294338e-23
8.215120081e-23
2.769488835e-23
6.833558068e-23
2.755144667e-23
5.459280938e-23
2.743135093e-23
4.0909068e-23
2.73367215e-23
2.725530473e-23
2.726507553e-23
1.36160482e-23
2.72214343e-23
2.719359634e-23
1.856959855e-19
-8.666282946e-23
1.873248851e-19
-2.628757402e-22
1.888494179e-19
-4.438047385e-22
1.903110876e-19
-6.266367442e-22
1.916717574e-19
-8.093787818e-22
1.92945448e-19
-9.903682314e-22
1.941476474e-19
-1.168718354e-21
1.952944014e-19
-1.343365693e-21
1.964009244e-19
-1.513672293e-21
1.974818542e-19
-1.678632921e-21
1.985500324e-19
-1.837583945e-21
1.996169779e-19
-1.989431837e-21
2.006918691e-19
-2.13340757e-21
2.017822279e-19
-2.268294605e-21
2.028930771e-19
-2.39319881e-21
2.040278101e-19
-2.506762074e-21
2.051874796e-19
-2.607932947e-21
2.063718028e-19
-2.695150146e-21
2.075785006e-19
-2.76713108e-21
2.088043423e-19
-2.822037336e-21
2.100443961e-19
-2.858319035e-21
2.112930085e-19
-2.873876523e-21
2.125429465e-19
-2.866930073e-21
2.137863534e-19
-2.835141972e-21
2.150138749e-19
-2.776469945e-21
2.162156813e-19
-2.688237466e-21
2.173805816e-19
-2.568021174e-21
2.184970273e-19
-2.412743676e-21
2.195521025e-19
-2.219650585e-21
2.20532447e-19
-1.98542903e-21
2.214231649e-19
-1.707213584e-21
2.222088075e-19
-1.381636535e-21
2.22872345e-19
-1.005812357e-21
2.2339629e-19
-5.763306719e-22
2.237616942e-19
-9.031062173e-23
2.239492825e-19
4.555435227e-22
2.239383681e-19
1.063751376e-21
2.237079888e-19
1.736958235e-21
2.232358386e-19
2.476705629e-21
2.224995753e-19
3.284417194e-21
2.21475898e-19
4.160212124e-21
2.201420781e-19
5.103978659e-21
2.184751403e-19
6.114143197e-21
2.164535366e-19
7.188714796e-21
2.140563714e-19
8.323908705e-21
2.112651976e-19
9.515125453e-21
2.080632812e-19
1.075546757e-20
2.044375134e-19
1.203675762e-20
2.003776753e-19
1.334807864e-20
1.958784255e-19
1.467695894e-20
1.909385586e-19
1.600803174e-20
1.855631122e-19
1.732443313e-20
1.797626736e-19
1.860656517e-20
1.735556022e-19
1.983365626e-20
1.669672299e-19
2.098254939e-20
1.600318945e-19
2.202937825e-20
1.527916671e-19
2.294840535e-20
1.452979399e-19
2.371393123e-20
1.376096507e-19
2.429936147e-20
1.297946162e-19
2.467950887e-20
1.219274897e-19
2.482991783e-20
1.140908872e-19
2.472939953e-20
1.063728148e-19
2.43592939e-20
9.886710657e-20
2.370587341e-20
9.166991484e-20
2.275928392e-20
8.487943023e-20
2.151574006e-20
7.859190245e-20
1.997621855e-20
7.290143277e-20
1.814853134e-20
6.789627739e-20
1.604572859e-20
6.3659082e-20
1.368780343e-20
6.026339618e-20
1.109943878e-20
5.777404628e-20
8.311006202e-21
5.624374388e-20
5.355550057e-21
5.57139209e-20
2.26926398e-21
5.621220942e-20
-9.118433059e-22
5.775462491e-20
-4.151494834e-21
6.034452835e-20
-7.416411241e-21
6.39762016e-20
-1.067572859e-20
6.863482324e-20
-1.390418858e-20
7.430066914e-20
-1.708141793e-20
8.094937221e-20
-2.019478553e-20
8.855617146e-20
-2.323798898e-20
9.709605159e-20
-2.621279112e-20
1.065476253e-19
-2.912619105e-20
1.168926659e-19
-3.199061744e-20
1.281189977e-19
-3.481982566e-20
1.402187663e-19
-3.762822904e-20
1.531897105e-19
-4.042659012e-20
1.670317314e-19
-4.322163351e-20
1.817463681e-19
-4.601254035e-20
1.973319259e-19
-4.879152561e-20
2.137818644e-19
-5.154158372e-20
2.310796081e-19
-5.423829688e-20
2.491971328e-19
-5.684903006e-20
2.680906431e-19
-5.933608294e-20
2.877001475e-19
-6.165728681e-20
3.079463795e-19
-6.377008088e-20
3.287312482e-19
-6.563273761e-20
3.499354398e-19
-6.720825461e-20
3.714184959e-19
-6.846498304e-20
3.93014833e-19
-6.93792295e-20
4.145299694e-19
-6.993454138e-20
4.357307428e-19
-7.012263912e-20
4.563339751e-19
-6.994135461e-20
4.759892733e-19
-6.939409062e-20
4.942612022e-19
-6.848662359e-20
5.106071648e-19
-6.722522072e-20
5.243541901e-19
-6.561237867e-20
5.346700398e-19
-6.364374034e-20
5.405324648e-19
-6.13032909e-20
5.406964324e-19
-5.855995643e-20
5.336649429e-19
-5.536322738e-20
5.176644067e-19
-5.164021768e-20
4.90630732e-19
-4.729295095e-20
4.502110023e-19
-4.219752298e-20
3.937846432e-19
-3.620735985e-20
3.184085874e-19
-2.915642605e-20
2.196322013e-19
-2.08824303e-20
8.638582906e-20
-1.122240086e-20
6.935713626e-21
2.373617022e-33
6.921143149e-21
2.877509326e-23
6.895619585e-21
5.737711071e-23
6.860470532e-21
8.557908184e-23
6.816614949e-21
1.132242421e-22
6.764618795e-21
1.40112867e-22
6.704896184e-21
1.661096948e-22
6.637667222e-21
1.910412604e-22
6.563149693e-21
2.147961851e-22
6.481533407e-21
2.372333869e-22
6.393121863e-21
2.582724799e-22
6.298258048e-21
2.778098844e-22
6.197407929e-21
2.957999906e-22
6.091061774e-21
3.121779246e-22
5.979791841e-21
3.26932787e-22
5.864154879e-21
3.400367059e-22
5.744745834e-21
3.515107408e-22
5.622114992e-21
3.613595863e-22
5.496825594e-21
3.696315737e-22
5.369386055e-21
3.763581389e-22
5.2403088e-21
3.816086963e-22
5.110051653e-21
3.854351575e-22
4.97907337e-21
3.879217348e-22
4.847780047e-21
3.891341925e-22
4.716575633e-21
3.891657302e-22
4.585812395e-21
3.880900369e-22
4.455837197e-21
3.860037181e-22
4.326946147e-21
3.82983475e-22
4.199427733e-21
3.791248413e-22
4.07352179e-21
3.745031954e-22
3.949459831e-21
3.692097472e-22
3.827428041e-21
3.633154744e-22
3.707604935e-21
3.569046158e-22
3.590127703e-21
3.500418609e-22
3.475127254e-21
3.428029535e-22
3.362697486e-21
3.352448723e-22
3.252927648e-21
3.274343039e-22
3.145874239e-21
3.194199858e-22
3.041590876e-21
3.112592188e-22
2.940102431e-21
3.029926783e-22
2.841432626e-21
2.946685803e-22
2.745580231e-21
2.863197482e-22
2.652544446e-21
2.779860846e-22
2.562303004e-21
2.696931889e-22
2.474835547e-21
2.614732861e-22
2.390103342e-21
2.53345674e-22
2.308070852e-21
2.45335786e-22
2.228686943e-21
2.374573063e-22
2.151904715e-21
2.297299256e-22
2.077664083e-21
2.221625482e-22
2.005910071e-21
2.147698746e-22
1.936576544e-21
2.075569503e-22
1.869603145e-21
2.005343093e-22
1.804920113e-21
1.937037495e-22
1.742463909e-21
1.870724983e-22
1.682163062e-21
1.806397579e-22
1.623952663e-21
1.744100021e-22
1.567761059e-21
1.683805102e-22
1.513523353e-21
1.625535734e-22
1.461168909e-21
1.569249391e-22
1.410633893e-21
1.514952924e-22
1.361849557e-21
1.462592571e-22
1.314753948e-21
1.412162303e-22
1.269280865e-21
1.363601346e-22
1.225370821e-21
1.316894155e-22
1.182960628e-21
1.271974945e-22
1.14199362e-21
1.228822136e-22
1.102409858e-21
1.187367137e-22
1.064155731e-21
1.147583767e-22
1.027174723e-21
1.109403027e-22
9.914164537e-22
1.072795849e-22
9.568279575e-22
1.037693581e-22
9.233620929e-22
1.004066253e-22
8.909693206e-22
9.718466077e-23
8.596056096e-22
9.410041729e-23
8.29224752e-22
9.114743413e-23
7.997858511e-22
8.83226848e-23
7.71246096e-22
8.561997977e-23
7.435676598e-22
8.303642612e-23
7.167108232e-22
8.056614988e-23
6.906403864e-22
7.820637827e-23
6.653193498e-22
7.595160805e-23
6.40715115e-22
7.379919575e-23
6.167937048e-22
7.174397917e-23
5.935253648e-22
6.978352126e-23
5.708788526e-22
6.791303413e-23
5.488263613e-22
6.613026125e-23
5.273383717e-22
6.443079589e-23
5.063887421e-22
6.28125135e-23
4.859504349e-22
6.127132628e-23
4.660000405e-22
5.980531214e-23
4.465131381e-22
5.841076545e-23
4.274677546e-22
5.708595779e-23
4.088403113e-22
5.582753273e-23
3.906097257e-22
5.463384965e-23
3.727545315e-22
5.350182133e-23
3.552561972e-22
5.242999633e-23
3.380953372e-22
5.141566662e-23
3.212538917e-22
5.045755781e-23
3.047124689e-22
4.955323912e-23
2.88453799e-22
4.870145703e-23
2.72461085e-22
4.790000832e-23
2.567198346e-22
4.714783626e-23
2.412145726e-22
4.644311422e-23
2.259297959e-22
4.57849296e-23
2.108487379e-22
4.517164765e-23
1.9595624e-22
4.460232575e-23
1.812381427e-22
4.407554026e-23
1.666821049e-22
4.359055335e-23
1.522758527e-22
4.314625299e-23
1.380074106e-22
4.274198363e-23
1.238627586e-22
4.237688193e-23
1.098250198e-22
4.205044945e-23
9.587660883e-23
4.176183402e-23
8.200776407e-23
4.151056022e-23
6.821549069e-23
4.129526232e-23
5.449818157e-23
4.111715285e-23
4.083742449e-23
4.097417739e-23
2.721166676e-23
4.086980473e-23
1.358820942e-23
4.07943941e-23
4.076403465e-23
1.851678904e-19
-1.18273596e-22
1.867916653e-19
-3.569603702e-22
1.883129676e-19
-5.987264226e-22
1.897730666e-19
-8.420710987e-22
1.911337612e-19
-1.08504847e-21
1.924083827e-19
-1.326160998e-21
1.936125751e-19
-1.563915908e-21
1.947619746e-19
-1.797221199e-21
1.958721725e-19
-2.024813165e-21
1.969574916e-19
-2.245684046e-21
1.980312109e-19
-2.458546152e-21
1.991045451e-19
-2.662312433e-21
2.001871193e-19
-2.855568059e-21
2.012861469e-19
-3.037082365e-21
2.024071091e-19
-3.205278989e-21
2.035531051e-19
-3.358746644e-21
2.047256911e-19
-3.495689592e-21
2.059243191e-19
-3.614436391e-21
2.071472625e-19
-3.712869701e-21
2.083910223e-19
-3.788973945e-21
2.096512209e-19
-3.84027431e-21
2.109219138e-19
-3.864421813e-21
2.121964375e-19
-3.858618366e-21
2.134666719e-19
-3.820185025e-21
2.147239081e-19
-3.745934366e-21
2.159580956e-19
-3.632731642e-21
2.171587092e-19
-3.476869216e-21
2.183139145e-19
-3.274707269e-21
2.194113707e-19
-3.022101085e-21
2.204373102e-19
-2.715104777e-21
2.213773538e-19
-2.34937638e-21
2.222156032e-19
-1.92085097e-21
2.229355564e-19
-1.425077432e-21
2.235192188e-19
-8.579092071e-22
2.239480523e-19
-2.148804903e-22
2.24202024e-19
5.079674602e-22
2.242605621e-19
1.314619703e-21
2.241016095e-19
2.208172399e-21
2.237027158e-19
3.191396364e-21
2.230402231e-19
4.265863686e-21
2.220905513e-19
5.432601934e-21
2.208294799e-19
6.691227409e-21
2.192335512e-19
8.040581071e-21
2.172793799e-19
9.477732654e-21
2.149451763e-19
1.099851621e-20
2.122101355e-19
1.259639584e-20
2.090561442e-19
1.426297651e-20
2.054672758e-19
1.598686347e-20
2.014316404e-19
1.775429121e-20
1.969409124e-19
1.954810169e-20
1.919922693e-19
2.134857928e-20
1.8658793e-19
2.313257911e-20
1.807371979e-19
2.487456337e-20
1.744559829e-19
2.654583954e-20
1.677688234e-19
2.811574965e-20
1.607081563e-19
2.955101203e-20
1.533160448e-19
3.081714284e-20
1.456429939e-19
3.187806177e-20
1.377493338e-19
3.269795361e-20
1.297036481e-19
3.324128437e-20
1.215838677e-19
3.34750755e-20
1.13475205e-19
3.336908603e-20
1.054706477e-19
3.289809742e-20
9.766801351e-20
3.204185055e-20
9.016960536e-20
3.078706815e-20
8.307850049e-20
2.912707571e-20
7.649785237e-20
2.706361429e-20
7.052708846e-20
2.460616441e-20
6.526142536e-20
2.177338947e-20
6.078823398e-20
1.859179148e-20
5.718672007e-20
1.509631038e-20
5.452437548e-20
1.132795846e-20
5.285698142e-20
7.333497047e-21
5.22257229e-20
3.162338037e-21
5.265835805e-20
-1.134176839e-21
5.416778561e-20
-5.506051974e-21
5.675477528e-20
-9.905376592e-21
6.040789258e-20
-1.428961653e-20
6.510731088e-20
-1.862232329e-20
7.082554858e-20
-2.287622873e-20
7.753189937e-20
-2.703337563e-20
8.519362274e-20
-3.108707985e-20
9.378052979e-20
-3.504037781e-20
1.032659238e-19
-3.890590244e-20
1.136303177e-19
-4.270222846e-20
1.248609835e-19
-4.645193741e-20
1.369537576e-19
-5.017682502e-20
1.499104937e-19
-5.389553093e-20
1.637386472e-19
-5.761910405e-20
1.78446761e-19
-6.134952737e-20
1.940423349e-19
-6.50766966e-20
2.105262523e-19
-6.877862551e-20
2.278901228e-19
-7.242048097e-20
2.461110323e-19
-7.59569255e-20
2.651496972e-19
-7.933344221e-20
2.849466532e-19
-8.24906353e-20
3.054219301e-19
-8.536708315e-20
3.264728882e-19
-8.790425716e-20
3.479749414e-19
-9.004920419e-20
3.697796823e-19
-9.175827708e-20
3.917140425e-19
-9.299814233e-20
4.135748197e-19
-9.37473204e-20
4.351216493e-19
-9.399505194e-20
4.560639734e-19
-9.374062198e-20
4.760461006e-19
-9.299034243e-20
4.946277074e-19
-9.175496447e-20
5.112634978e-19
-9.004506218e-20
5.252782569e-19
-8.786683973e-20
5.358389831e-19
-8.521635339e-20
5.419221631e-19
-8.207445403e-20
5.422813467e-19
-7.840096462e-20
5.354161345e-19
-7.412993204e-20
5.195470029e-19
-6.916495076e-20
4.925995242e-19
-6.337600853e-20
4.52201688e-19
-5.659835547e-20
3.957058332e-19
-4.863266659e-20
3.201120976e-19
-3.925359624e-20
2.209123496e-19
-2.820483264e-20
8.689263586e-20
-1.523529356e-20
6.96448872e-21
2.54683119e-33
6.949745171e-21
3.86772567e-23
6.923821554e-21
7.708210303e-23
6.888115693e-21
1.149729601e-22
6.843503583e-21
1.520841777e-22
6.790615615e-21
1.881988479e-22
6.72982775e-21
2.230812872e-22
6.661422161e-21
2.565449043e-22
6.585586883e-21
2.883923658e-22
6.5025725e-21
3.184774382e-22
6.412659285e-21
3.466499815e-22
6.316248138e-21
3.728110286e-22
6.213785863e-21
3.968619736e-22
6.105816656e-21
4.187531534e-22
5.992895741e-21
4.384367026e-22
5.875628914e-21
4.559100906e-22
5.754594701e-21
4.711717409e-22
5.630386958e-21
4.842602908e-22
5.503552159e-21
4.952135798e-22
5.374636636e-21
5.04103628e-22
5.244135238e-21
5.109989441e-22
5.11253823e-21
5.159965772e-22
4.980285851e-21
5.191868873e-22
4.847811561e-21
5.206831302e-22
4.71549994e-21
5.205893935e-22
4.583726099e-21
5.190272828e-22
4.45281693e-21
5.161068789e-22
4.323087513e-21
5.119516824e-22
4.194806109e-21
5.066715956e-22
4.068228319e-21
5.003863666e-22
3.943565558e-21
4.932012514e-22
3.821017203e-21
4.852282992e-22
3.700742159e-21
4.765645053e-22
3.582888796e-21
4.67311872e-22
3.467569193e-21
4.575570452e-22
3.354886898e-21
4.473902526e-22
3.24491333e-21
4.368869998e-22
3.13771349e-21
4.261251959e-22
3.033324317e-21
4.151687314e-22
2.931778333e-21
4.040835895e-22
2.83308381e-21
3.9292241e-22
2.73724655e-21
3.8173967e-22
2.64425155e-21
3.705777484e-22
2.554083116e-21
3.594805781e-22
2.466707919e-21
3.484810807e-22
2.382093454e-21
3.376139855e-22
2.300192387e-21
3.269038904e-22
2.220959548e-21
3.163773345e-22
2.144337338e-21
3.060519395e-22
2.070271422e-21
2.959472486e-22
1.998697133e-21
2.860748596e-22
1.929553903e-21
2.764486183e-22
1.862772597e-21
2.670751456e-22
1.79828885e-21
2.579634662e-22
1.736031168e-21
2.491163214e-22
1.675933317e-21
2.405388363e-22
1.617923161e-21
2.32230563e-22
1.561934122e-21
2.241936684e-22
1.507894728e-21
2.164252331e-22
1.455739253e-21
2.089250242e-22
1.405397858e-21
2.016883807e-22
1.356806539e-21
1.947132461e-22
1.309897844e-21
1.879936086e-22
1.264610146e-21
1.815261776e-22
1.220878907e-21
1.753040074e-22
1.178645339e-21
1.693228621e-22
1.13784812e-21
1.635752981e-22
1.098431528e-21
1.580564465e-22
1.06033765e-21
1.527585365e-22
1.023514005e-21
1.476764014e-22
9.87906233e-22
1.428021527e-22
9.534652184e-22
1.381304389e-22
9.201401284e-22
1.336534997e-22
8.878850826e-22
1.293659473e-22