/*--------------------------------*- C++ -*----------------------------------*\
  =========                 |
  \\      /  F ield         | OpenFOAM: The Open Source CFD Toolbox
   \\    /   O peration     | Website:  https://openfoam.org
    \\  /    A nd           | Version:  6
     \\/     M anipulation  |
\*---------------------------------------------------------------------------*/
FoamFile
{
    version     2.0;
    format      ascii;
    class       volVectorField;
    location    "0.0012";
    object      gradT;
}
// * * * * * * * * * * * * * * * * * * * * * * * * * * * * * * * * * * * * * //

dimensions      [0 -1 0 1 0 0 0];

internalField   nonuniform List<vector> 
3600
(
(0 -2.382280151e-08 -3.34376842e-06)
(0 -6.956258052e-08 -3.435247983e-06)
(0 -1.172081834e-07 -3.622018742e-06)
(0 -1.667596106e-07 -3.904080712e-06)
(0 -2.144052139e-07 -4.285245542e-06)
(0 -2.668153769e-07 -4.767419038e-06)
(0 -3.211313644e-07 -5.352507043e-06)
(0 -3.725886162e-07 -6.046227032e-06)
(0 -4.249987789e-07 -6.846673154e-06)
(0 -4.755031181e-07 -7.751939612e-06)
(0 -5.221958099e-07 -8.760120585e-06)
(0 -5.641239398e-07 -9.858828177e-06)
(0 -5.917583895e-07 -1.102805128e-05)
(0 -6.012875108e-07 -1.224301417e-05)
(-1.239779192e-25 -5.94617126e-07 -1.346560033e-05)
(1.239779192e-25 -5.574535556e-07 -1.464911711e-05)
(0 -4.926555358e-07 -1.573353105e-05)
(0 -3.964114171e-07 -1.665404408e-05)
(0 -2.734857613e-07 -1.734776406e-05)
(0 -1.315018645e-07 -1.776323374e-05)
(0 1.143494473e-08 -1.788234773e-05)
(0 1.524659297e-07 -1.771558812e-05)
(0 2.944498271e-07 -1.727343695e-05)
(0 4.526332287e-07 -1.654541211e-05)
(0 6.355923443e-07 -1.548482098e-05)
(0 8.499975592e-07 -1.402591264e-05)
(0 1.086319749e-06 -1.209531278e-05)
(0 1.321689028e-06 -9.669198677e-06)
(0 1.525612211e-06 -6.771393112e-06)
(0 8.099752514e-07 -3.492422701e-06)
(0 3.335192196e-08 -3.491469774e-06)
(0 9.243247083e-08 -3.359015048e-06)
(0 1.391251602e-07 -3.108399127e-06)
(0 1.70571258e-07 -2.777738644e-06)
(0 1.829591175e-07 -2.405150066e-06)
(0 1.829591148e-07 -2.023032295e-06)
(0 1.70571258e-07 -1.657114066e-06)
(0 1.515130192e-07 -1.328359426e-06)
(0 1.305489517e-07 -1.039627053e-06)
(0 1.095848865e-07 -7.98540303e-07)
(0 8.671499841e-08 -6.012875164e-07)
(0 6.860966804e-08 -4.459628423e-07)
(0 5.241016309e-08 -3.249430111e-07)
(0 3.906939489e-08 -2.344163693e-07)
(0 3.04931858e-08 -1.648537857e-07)
(0 2.096406523e-08 -1.153023588e-07)
(0 1.524659313e-08 -7.909170185e-08)
(0 1.143494467e-08 -5.241016309e-08)
(0 7.623296449e-09 -3.525774608e-08)
(0 4.764560352e-09 -2.382280176e-08)
(0 2.858736168e-09 -1.52465929e-08)
(0 2.858736168e-09 -9.529120561e-09)
(0 9.529120704e-10 -5.717472423e-09)
(0 9.529120561e-10 -2.858736168e-09)
(0 1.905824112e-09 -1.905824112e-09)
(0 0 -9.529120704e-10)
(0 0 0)
(0 9.529120561e-10 9.529120561e-10)
(0 0 -9.529120704e-10)
(0 -9.529120561e-10 0)
(0 -6.860966938e-08 -3.323757317e-06)
(0 -2.086877447e-07 -3.418095617e-06)
(0 -3.516245556e-07 -3.603913467e-06)
(0 -4.983730151e-07 -3.885975441e-06)
(0 -6.470272997e-07 -4.268093189e-06)
(0 -8.013990548e-07 -4.751219605e-06)
(0 -9.595824592e-07 -5.339166355e-06)
(0 -1.119671689e-06 -6.03574509e-06)
(0 -1.28166674e-06 -6.844767433e-06)
(0 -1.437944321e-06 -7.764327585e-06)
(0 -1.581834046e-06 -8.791566814e-06)
(0 -1.704759702e-06 -9.916003049e-06)
(0 -1.794333437e-06 -1.112238974e-05)
(0 -1.835308658e-06 -1.238595116e-05)
(0 -1.813391679e-06 -1.367047663e-05)
(0 -1.710477175e-06 -1.492165018e-05)
(0 -1.511318552e-06 -1.608039128e-05)
(0 -1.216868719e-06 -1.706951399e-05)
(0 -8.357038895e-07 -1.781564415e-05)
(0 -4.030818082e-07 -1.825779538e-05)
(0 3.621065884e-08 -1.836928606e-05)
(0 4.583507079e-07 -1.818632695e-05)
(0 8.747732859e-07 -1.774798742e-05)
(0 1.335029817e-06 -1.705617323e-05)
(0 1.884860084e-06 -1.605561555e-05)
(0 2.538557771e-06 -1.46453057e-05)
(0 3.272300065e-06 -1.272328202e-05)
(0 4.003183626e-06 -1.024475772e-05)
(0 4.647352195e-06 -7.234508482e-06)
(0 2.469948098e-06 -3.790684233e-06)
(0 1.019615915e-07 -3.790684216e-06)
(0 2.906381858e-07 -3.631547955e-06)
(0 4.411982886e-07 -3.342815543e-06)
(0 5.326778474e-07 -2.965462363e-06)
(0 5.698414267e-07 -2.547134002e-06)
(0 5.669826819e-07 -2.125946829e-06)
(0 5.260074629e-07 -1.727629584e-06)
(0 4.650210973e-07 -1.372193402e-06)
(0 3.983172454e-07 -1.069167343e-06)
(0 3.297075764e-07 -8.156927323e-07)
(0 2.658624716e-07 -6.117695584e-07)
(0 2.077348314e-07 -4.516803214e-07)
(0 1.591363158e-07 -3.268488402e-07)
(0 1.200669227e-07 -2.344163728e-07)
(0 8.862082255e-08 -1.658067003e-07)
(0 6.575093286e-08 -1.153023605e-07)
(0 4.669269215e-08 -7.718587886e-08)
(0 3.144609832e-08 -5.336307594e-08)
(0 2.286988969e-08 -3.335192246e-08)
(0 1.524659336e-08 -2.191697795e-08)
(0 9.529120704e-09 -1.429368106e-08)
(0 7.623296563e-09 -8.576208634e-09)
(0 3.811648339e-09 -5.717472508e-09)
(0 2.858736211e-09 -2.858736211e-09)
(0 2.858736211e-09 -1.905824141e-09)
(0 9.529120847e-10 -1.905824169e-09)
(0 9.529120704e-10 -9.529120704e-10)
(0 0 -9.529120704e-10)
(0 0 0)
(0 0 0)
(0 -1.153023593e-07 -3.288499521e-06)
(0 -3.487658146e-07 -3.379979083e-06)
(0 -5.860409172e-07 -3.566749842e-06)
(0 -8.299864046e-07 -3.848811812e-06)
(0 -1.079649366e-06 -4.230929555e-06)
(0 -1.338841445e-06 -4.715961787e-06)
(0 -1.60470391e-06 -5.309626001e-06)
(0 -1.878189674e-06 -6.016686759e-06)
(0 -2.153581257e-06 -6.84000277e-06)
(0 -2.42325537e-06 -7.784338622e-06)
(0 -2.674824158e-06 -8.847788494e-06)
(0 -2.893993927e-06 -1.00265407e-05)
(0 -3.06170645e-06 -1.130344286e-05)
(0 -3.148421451e-06 -1.266229547e-05)
(-1.239779192e-25 -3.129363208e-06 -1.406498202e-05)
(1.239779192e-25 -2.96832107e-06 -1.545909236e-05)
(0 -2.640519322e-06 -1.677220519e-05)
(0 -2.132617191e-06 -1.791665256e-05)
(0 -1.460814189e-06 -1.878666127e-05)
(0 -6.851437725e-07 -1.92840814e-05)
(0 8.19504372e-08 -1.935078521e-05)
(0 7.72811681e-07 -1.91125572e-05)
(0 1.425556445e-06 -1.867421768e-05)
(0 2.14595796e-06 -1.806435393e-05)
(0 3.045506945e-06 -1.721054472e-05)
(0 4.182331039e-06 -1.593936006e-05)
(0 5.488773468e-06 -1.404306503e-05)
(0 6.808556672e-06 -1.146639082e-05)
(0 7.98159143e-06 -8.218866533e-06)
(0 4.25475235e-06 -4.413888664e-06)
(0 1.905824112e-07 -4.413888644e-06)
(0 5.393482319e-07 -4.200436406e-06)
(0 8.061635995e-07 -3.822130257e-06)
(0 9.662528249e-07 -3.343768405e-06)
(0 1.023427564e-06 -2.826337201e-06)
(0 1.001510571e-06 -2.322246681e-06)
(0 9.224188703e-07 -1.86294307e-06)
(0 8.099752599e-07 -1.461767116e-06)
(0 6.889554166e-07 -1.125389138e-06)
(0 5.650768493e-07 -8.519033782e-07)
(0 4.507274093e-07 -6.336865268e-07)
(0 3.525774608e-07 -4.659739954e-07)
(0 2.706270239e-07 -3.373308679e-07)
(0 2.020173589e-07 -2.391809297e-07)
(0 1.496071928e-07 -1.686654339e-07)
(0 1.086319744e-07 -1.162552708e-07)
(0 7.71858777e-08 -8.004461392e-08)
(0 5.526889926e-08 -5.241016309e-08)
(0 3.716357019e-08 -3.621065813e-08)
(0 2.57286259e-08 -2.382280176e-08)
(0 1.715241701e-08 -1.52465929e-08)
(0 1.048203262e-08 -8.576208505e-09)
(0 7.623296563e-09 -4.764560352e-09)
(0 3.811648225e-09 -4.764560281e-09)
(0 2.858736168e-09 -2.858736168e-09)
(0 1.905824141e-09 -1.905824141e-09)
(0 9.529120561e-10 -9.529120561e-10)
(0 1.905824112e-09 9.529120561e-10)
(0 0 0)
(0 0 -9.529120561e-10)
(0 -1.619950503e-07 -3.229418973e-06)
(0 -4.878909757e-07 -3.32280436e-06)
(0 -8.20457284e-07 -3.506716382e-06)
(0 -1.161599802e-06 -3.788778352e-06)
(0 -1.514177266e-06 -4.168990271e-06)
(0 -1.881048407e-06 -4.657834151e-06)
(0 -2.258401583e-06 -5.258168749e-06)
(0 -2.651001356e-06 -5.97571154e-06)
(0 -3.050271505e-06 -6.820944528e-06)
(0 -3.444777098e-06 -7.798632302e-06)
(0 -3.823083192e-06 -8.912586514e-06)
(0 -4.161366968e-06 -1.016376004e-05)
(0 -4.431041081e-06 -1.154738835e-05)
(0 -4.596847784e-06 -1.304536612e-05)
(1.239779192e-25 -4.61018855e-06 -1.462910596e-05)
(-1.239779192e-25 -4.417700314e-06 -1.624810355e-05)
(0 -3.968878736e-06 -1.782136137e-05)
(0 -3.230371885e-06 -1.923262412e-05)
(0 -2.203132684e-06 -2.033133172e-05)
(0 -9.681586548e-07 -2.094119547e-05)
(0 2.067819171e-07 -2.084971588e-05)
(0 1.135871176e-06 -2.044663408e-05)
(0 1.922976541e-06 -1.99720839e-05)
(0 2.798702721e-06 -1.951468609e-05)
(0 4.010806862e-06 -1.896485583e-05)
(0 5.705084514e-06 -1.802242583e-05)
(0 7.744316315e-06 -1.618902299e-05)
(0 9.829287903e-06 -1.347608236e-05)
(0 1.16998543e-05 -9.838817039e-06)
(0 6.273020094e-06 -5.422069624e-06)
(0 3.163668026e-07 -5.420163775e-06)
(0 8.814436651e-07 -5.104749961e-06)
(0 1.298819133e-06 -4.561590013e-06)
(0 1.52942385e-06 -3.903127782e-06)
(0 1.591363158e-06 -3.227513183e-06)
(0 1.528470938e-06 -2.596685353e-06)
(0 1.387439954e-06 -2.04399636e-06)
(0 1.203527945e-06 -1.576116564e-06)
(0 1.007228043e-06 -1.196857543e-06)
(0 8.233160165e-07 -8.938315087e-07)
(0 6.508389441e-07 -6.603680648e-07)
(0 5.059963018e-07 -4.783618522e-07)
(0 3.849764707e-07 -3.430483402e-07)
(0 2.868265332e-07 -2.4394549e-07)
(0 2.115464765e-07 -1.69618346e-07)
(0 1.543717531e-07 -1.18161095e-07)
(0 1.095848881e-07 -8.004461392e-08)
(0 7.623296449e-08 -5.43159872e-08)
(0 5.336307514e-08 -3.621065813e-08)
(0 3.525774661e-08 -2.286988969e-08)
(0 2.38228014e-08 -1.52465929e-08)
(0 1.715241701e-08 -1.048203262e-08)
(0 1.048203277e-08 -6.670384493e-09)
(0 4.764560281e-09 -1.905824112e-09)
(0 4.764560281e-09 -1.905824112e-09)
(0 1.905824141e-09 -9.529120704e-10)
(0 2.858736168e-09 -9.529120561e-10)
(0 9.529120561e-10 -9.529120561e-10)
(0 0 -9.529120704e-10)
(0 0 9.529120561e-10)
(0 -2.077348323e-07 -3.149374407e-06)
(0 -6.251103219e-07 -3.239901059e-06)
(0 -1.052967843e-06 -3.424765997e-06)
(0 -1.492260309e-06 -3.703969234e-06)
(0 -1.949658108e-06 -4.084181158e-06)
(0 -2.426114142e-06 -4.572072134e-06)
(0 -2.923534245e-06 -5.17621839e-06)
(0 -3.440965507e-06 -5.906149048e-06)
(0 -3.975549176e-06 -6.770440291e-06)
(0 -4.513944498e-06 -7.78529165e-06)
(0 -5.040904883e-06 -8.958326428e-06)
(0 -5.528795857e-06 -1.02990737e-05)
(0 -5.942359698e-06 -1.181229808e-05)
(0 -6.232044975e-06 -1.349323499e-05)
(0 -6.332100739e-06 -1.532187326e-05)
(0 -6.159623654e-06 -1.725628477e-05)
(0 -5.624087071e-06 -1.921547201e-05)
(0 -4.642587628e-06 -2.105840394e-05)
(0 -3.170338473e-06 -2.256972249e-05)
(0 -1.203527952e-06 -2.351977586e-05)
(0 5.774647173e-07 -2.286988979e-05)
(0 1.649490801e-06 -2.207039656e-05)
(0 2.357504476e-06 -2.146529743e-05)
(0 3.152233143e-06 -2.12604213e-05)
(0 4.538720212e-06 -2.130044361e-05)
(0 6.95816398e-06 -2.117656507e-05)
(0 1.003511706e-05 -1.936507918e-05)
(0 1.315780993e-05 -1.653397741e-05)
(0 1.603560442e-05 -1.232972935e-05)
(0 8.674358616e-06 -6.920047487e-06)
(0 5.088550456e-07 -6.919094543e-06)
(0 1.397922028e-06 -6.409286682e-06)
(0 2.007785732e-06 -5.57834726e-06)
(0 2.299376826e-06 -4.634011398e-06)
(0 2.329870047e-06 -3.723027515e-06)
(0 2.18598029e-06 -2.915910936e-06)
(0 1.942987712e-06 -2.24124919e-06)
(0 1.657114115e-06 -1.697136423e-06)
(0 1.369334645e-06 -1.266420142e-06)
(0 1.102519265e-06 -9.33853829e-07)
(0 8.671499971e-07 -6.813321406e-07)
(0 6.679913614e-07 -4.888438921e-07)
(0 5.059963094e-07 -3.487658178e-07)
(0 3.754473614e-07 -2.448984058e-07)
(0 2.753915884e-07 -1.705712606e-07)
(0 2.001115348e-07 -1.153023605e-07)
(0 1.400780765e-07 -8.004461512e-08)
(0 9.910285532e-08 -5.336307594e-08)
(0 6.860966907e-08 -3.430483454e-08)
(0 4.573978007e-08 -2.191697795e-08)
(0 3.049318625e-08 -1.334076899e-08)
(0 2.191697762e-08 -9.529120704e-09)
(0 1.23878571e-08 -5.717472508e-09)
(0 8.576208634e-09 -2.858736211e-09)
(0 4.764560352e-09 -9.529120704e-10)
(0 2.858736254e-09 -9.529120847e-10)
(0 1.905824141e-09 -9.529120704e-10)
(0 1.905824141e-09 -9.529120704e-10)
(0 0 0)
(0 0 0)
(0 -2.534746081e-07 -3.049318593e-06)
(0 -7.613767374e-07 -3.13793942e-06)
(0 -1.282619633e-06 -3.318039794e-06)
(0 -1.82196786e-06 -3.594384292e-06)
(0 -2.382280155e-06 -3.968878738e-06)
(0 -2.973085629e-06 -4.452958058e-06)
(0 -3.592478468e-06 -5.057104305e-06)
(0 -4.245223236e-06 -5.791799512e-06)
(0 -4.930367001e-06 -6.674196071e-06)
(0 -5.632663189e-06 -7.721446426e-06)
(0 -6.336865211e-06 -8.952608821e-06)
(0 -7.014385677e-06 -1.038960019e-05)
(0 -7.62615522e-06 -1.2049573e-05)
(0 -8.106422907e-06 -1.394586802e-05)
(0 -8.373238279e-06 -1.607562647e-05)
(0 -8.310346083e-06 -1.841883722e-05)
(0 -7.771950773e-06 -2.091737266e-05)
(0 -6.584622338e-06 -2.342067262e-05)
(0 -4.664504536e-06 -2.558759465e-05)
(0 -1.269278866e-06 -2.792794671e-05)
(0 1.658066985e-06 -2.527408658e-05)
(0 2.539510641e-06 -2.372560448e-05)
(0 2.733904705e-06 -2.278793905e-05)
(0 2.963556508e-06 -2.297756851e-05)
(0 4.0927573e-06 -2.401433683e-05)
(0 7.640448912e-06 -2.621651665e-05)
(0 1.238785679e-05 -2.374180399e-05)
(0 1.686559056e-05 -2.110319049e-05)
(0 2.131283118e-05 -1.612898956e-05)
(0 1.168365477e-05 -9.119368418e-06)
(0 8.261747527e-07 -9.118415465e-06)
(0 2.224096772e-06 -8.219819519e-06)
(0 3.073141381e-06 -6.880977957e-06)
(0 3.385696535e-06 -5.494490916e-06)
(0 3.308510709e-06 -4.254752394e-06)
(0 3.011202097e-06 -3.231324782e-06)
(0 2.605261561e-06 -2.420396623e-06)
(0 2.178356993e-06 -1.793380517e-06)
(0 1.771463512e-06 -1.316924462e-06)
(0 1.407451107e-06 -9.595824405e-07)
(0 1.095848881e-06 -6.908612511e-07)
(0 8.385626094e-07 -4.945613571e-07)
(0 6.28921957e-07 -3.497187246e-07)
(0 4.650210904e-07 -2.448984021e-07)
(0 3.411425161e-07 -1.69618346e-07)
(0 2.439454864e-07 -1.172081829e-07)
(0 1.734299968e-07 -8.004461392e-08)
(0 1.210198311e-07 -5.336307514e-08)
(0 8.4809173e-08 -3.430483402e-08)
(0 5.526890008e-08 -2.286988969e-08)
(0 3.716357019e-08 -1.52465929e-08)
(0 2.477571346e-08 -9.529120561e-09)
(0 1.715241727e-08 -5.717472423e-09)
(0 1.048203262e-08 -2.858736168e-09)
(0 5.717472337e-09 -1.905824112e-09)
(0 3.811648282e-09 -9.529120704e-10)
(0 1.905824112e-09 0)
(0 9.529120561e-10 0)
(0 0 -9.529120704e-10)
(0 1.905824112e-09 -9.529120561e-10)
(0 -2.982614749e-07 -2.925440025e-06)
(0 -8.947844261e-07 -3.012155028e-06)
(0 -1.509412704e-06 -3.187490842e-06)
(0 -2.143099224e-06 -3.455259131e-06)
(0 -2.809184758e-06 -3.82213028e-06)
(0 -3.513386767e-06 -4.29668048e-06)
(0 -4.262375646e-06 -4.891297606e-06)
(0 -5.058057224e-06 -5.622181165e-06)
(0 -5.905196038e-06 -6.510295197e-06)
(0 -6.792357167e-06 -7.577556704e-06)
(0 -7.70905858e-06 -8.856364703e-06)
(0 -8.626712883e-06 -1.038007107e-05)
(0 -9.497674506e-06 -1.218869816e-05)
(0 -1.025714543e-05 -1.431083334e-05)
(0 -1.080506986e-05 -1.677696974e-05)
(0 -1.100232265e-05 -1.960616565e-05)
(0 -1.062496948e-05 -2.281176184e-05)
(0 -9.312809566e-06 -2.632896023e-05)
(0 -7.679518295e-06 -2.865978313e-05)
(0 -8.890669537e-07 -3.757522842e-05)
(0 4.779806895e-06 -2.68168512e-05)
(0 4.136591254e-06 -2.501680032e-05)
(0 3.104587498e-06 -2.321960821e-05)
(0 1.927741098e-06 -2.408485233e-05)
(0 1.29977205e-06 -2.579532948e-05)
(0 7.230696725e-06 -3.616110692e-05)
(0 1.514558429e-05 -2.847491819e-05)
(0 2.076967127e-05 -2.817951545e-05)
(0 2.802133209e-05 -2.20808783e-05)
(0 1.568493251e-05 -1.241930288e-05)
(0 1.407451107e-06 -1.241834992e-05)
(0 3.635359549e-06 -1.066118024e-05)
(0 4.733114183e-06 -8.414213456e-06)
(0 4.92655533e-06 -6.365452535e-06)
(0 4.593036179e-06 -4.716914749e-06)
(0 4.021288877e-06 -3.460976588e-06)
(0 3.379026151e-06 -2.525216949e-06)
(0 2.759633356e-06 -1.835308648e-06)
(0 2.205038498e-06 -1.327406494e-06)
(0 1.727629558e-06 -9.557707923e-07)
(0 1.331218162e-06 -6.841908666e-07)
(0 1.010086779e-06 -4.859851486e-07)
(0 7.556592605e-07 -3.420954282e-07)
(0 5.555477371e-07 -2.382280176e-07)
(0 4.040347118e-07 -1.639008737e-07)
(0 2.896852651e-07 -1.114907106e-07)
(0 2.039231831e-07 -7.528005356e-08)
(0 1.448426325e-07 -5.145725103e-08)
(0 9.719702973e-08 -3.430483402e-08)
(0 6.575093286e-08 -2.382280176e-08)
(0 4.478686664e-08 -1.429368084e-08)
(0 2.954027374e-08 -9.529120561e-09)
(0 2.001115348e-08 -5.717472423e-09)
(0 1.238785673e-08 -4.764560281e-09)
(0 6.670384393e-09 -1.905824112e-09)
(0 4.764560352e-09 0)
(0 2.858736168e-09 9.529120561e-10)
(0 9.529120561e-10 9.529120561e-10)
(0 0 9.529120704e-10)
(0 9.529120561e-10 0)
(0 -3.392366986e-07 -2.780597434e-06)
(0 -1.024380482e-06 -2.862547877e-06)
(0 -1.725723767e-06 -3.03121331e-06)
(0 -2.455654417e-06 -3.285640834e-06)
(0 -3.223701554e-06 -3.638218307e-06)
(0 -4.042253021e-06 -4.094663185e-06)
(0 -4.91893213e-06 -4.670222078e-06)
(0 -5.865173829e-06 -5.383000318e-06)
(0 -6.883836828e-06 -6.25586777e-06)
(0 -7.978732802e-06 -7.322176382e-06)
(0 -9.140332634e-06 -8.623854289e-06)
(0 -1.034767222e-05 -1.021045288e-05)
(0 -1.155596473e-05 -1.214295857e-05)
(0 -1.269469467e-05 -1.44804519e-05)
(0 -1.366857081e-05 -1.727820175e-05)
(0 -1.434513838e-05 -2.059624159e-05)
(0 -1.449474558e-05 -2.459561359e-05)
(0 -1.243359675e-05 -3.065041688e-05)
(0 -1.590982e-05 -2.537795437e-05)
(0 5.746059819e-07 -2.219999264e-05)
(0 1.421649524e-05 -1.354945679e-05)
(0 6.136753761e-06 -1.275853977e-05)
(0 3.663946933e-06 -1.154929436e-05)
(0 3.868823023e-07 -1.22010862e-05)
(0 -7.98254445e-06 -1.308824735e-05)
(0 4.96181318e-06 -2.148816732e-05)
(0 2.037040142e-05 -2.604594574e-05)
(0 2.325867792e-05 -4.125251663e-05)
(0 3.707304432e-05 -3.174245417e-05)
(0 2.13471363e-05 -1.769748305e-05)
(0 2.585250447e-06 -1.769462424e-05)
(0 6.226327562e-06 -1.380293155e-05)
(0 7.369821953e-06 -9.940778719e-06)
(0 7.082042507e-06 -7.005809542e-06)
(0 6.212986792e-06 -4.936084599e-06)
(0 5.201946992e-06 -3.500046035e-06)
(0 4.232835417e-06 -2.495676712e-06)
(0 3.375214604e-06 -1.785757247e-06)
(0 2.65100138e-06 -1.279760911e-06)
(0 2.051619688e-06 -9.138426755e-07)
(0 1.565634555e-06 -6.508389539e-07)
(0 1.179705143e-06 -4.6025653e-07)
(0 8.776320169e-07 -3.230371919e-07)
(0 6.432156572e-07 -2.239343399e-07)
(0 4.659740024e-07 -1.543717554e-07)
(0 3.325663126e-07 -1.038674157e-07)
(0 2.334634608e-07 -7.051549427e-08)
(0 1.639008761e-07 -4.669269145e-08)
(0 1.124436243e-07 -3.049318625e-08)
(0 7.528005469e-08 -1.905824169e-08)
(0 5.050433973e-08 -1.429368106e-08)
(0 3.430483454e-08 -7.623296563e-09)
(0 2.096406586e-08 -4.764560424e-09)
(0 1.429368106e-08 -3.811648282e-09)
(0 9.529120704e-09 -1.905824141e-09)
(0 5.717472508e-09 -9.529120847e-10)
(0 3.811648282e-09 -9.529120704e-10)
(0 9.529120704e-10 -9.529120704e-10)
(0 0 0)
(0 9.529120704e-10 0)
(0 -3.79259e-07 -2.61764943e-06)
(0 -1.145400298e-06 -2.695788223e-06)
(0 -1.931552746e-06 -2.851112885e-06)
(0 -2.75201003e-06 -3.090293812e-06)
(0 -3.617254187e-06 -3.419048478e-06)
(0 -4.54634344e-06 -3.8478589e-06)
(0 -5.548806928e-06 -4.38911295e-06)
(0 -6.644655807e-06 -5.064727609e-06)
(0 -7.844372081e-06 -5.898525654e-06)
(0 -9.160343637e-06 -6.931482327e-06)
(0 -1.059733504e-05 -8.210290325e-06)
(0 -1.214486421e-05 -9.811182574e-06)
(0 -1.376672054e-05 -1.181801537e-05)
(0 -1.539238853e-05 -1.432703284e-05)
(0 -1.692276529e-05 -1.741446791e-05)
(0 -1.831878146e-05 -2.108317935e-05)
(0 -2.068009756e-05 -2.452986229e-05)
(0 -1.009610328e-05 -1.669406639e-05)
(0 7.718587689e-07 -1.005131641e-05)
(0 1.093943047e-05 9.268975626e-06)
(0 1.422125959e-05 5.48496182e-06)
(0 6.135800757e-06 6.758052332e-06)
(0 3.66489979e-06 6.171058513e-06)
(0 3.868822965e-07 6.299701631e-06)
(0 -7.98730889e-06 5.200994026e-06)
(0 -5.72604858e-06 8.881140416e-06)
(0 -4.619717669e-06 -8.535233325e-06)
(0 1.507411588e-05 -2.500155373e-05)
(0 5.157541244e-05 -4.613047291e-05)
(0 2.97318092e-05 -2.712083015e-05)
(0 5.30200268e-06 -2.711606547e-05)
(0 1.139015798e-05 -1.715337018e-05)
(0 1.153023588e-05 -1.075075382e-05)
(0 9.929343625e-06 -6.962928394e-06)
(0 8.099752599e-06 -4.679751178e-06)
(0 6.461696653e-06 -3.236089343e-06)
(0 5.094267852e-06 -2.281271462e-06)
(0 3.97650207e-06 -1.625667992e-06)
(0 3.076953029e-06 -1.162552708e-06)
(0 2.355598603e-06 -8.328451371e-07)
(0 1.78575722e-06 -5.927113078e-07)
(0 1.337888527e-06 -4.202342168e-07)
(0 9.900756263e-07 -2.954027374e-07)
(0 7.251660856e-07 -2.067819193e-07)
(0 5.241016309e-07 -1.419838964e-07)
(0 3.73541526e-07 -9.719702973e-08)
(0 2.610979073e-07 -6.575093286e-08)
(0 1.820062027e-07 -4.383395458e-08)
(0 1.267373035e-07 -2.954027374e-08)
(0 8.38562622e-08 -2.001115348e-08)
(0 5.622181131e-08 -1.238785673e-08)
(0 3.811648225e-08 -7.623296449e-09)
(0 2.382280176e-08 -4.764560352e-09)
(0 1.619950495e-08 -2.858736168e-09)
(0 1.048203262e-08 -1.905824112e-09)
(0 4.764560352e-09 0)
(0 3.811648225e-09 -9.529120561e-10)
(0 9.529120561e-10 -9.529120561e-10)
(0 9.529120704e-10 0)
(0 9.529120561e-10 9.529120561e-10)
(0 -4.164225704e-07 -2.434690314e-06)
(0 -1.257843922e-06 -2.505205811e-06)
(0 -2.121182246e-06 -2.647189704e-06)
(0 -3.023589968e-06 -2.865406566e-06)
(0 -3.981266594e-06 -3.164620957e-06)
(0 -5.01327035e-06 -3.556267809e-06)
(0 -6.135800757e-06 -4.049876257e-06)
(0 -7.373633535e-06 -4.664504543e-06)
(0 -8.751544363e-06 -5.428740008e-06)
(0 -1.029049734e-05 -6.378793332e-06)
(0 -1.202003275e-05 -7.576603804e-06)
(0 -1.395444421e-05 -9.11079221e-06)
(0 -1.607276772e-05 -1.11090488e-05)
(0 -1.829209993e-05 -1.372765116e-05)
(0 -2.04237642e-05 -1.7120971e-05)
(0 -2.146053252e-05 -2.195985844e-05)
(0 -1.010563241e-05 -1.246790141e-05)
(0 2.046855106e-06 5.524031214e-06)
(0 1.005226933e-05 1.00027179e-05)
(0 1.610993132e-05 1.686844932e-05)
(0 1.170366593e-05 1.137395835e-05)
(0 6.823803265e-06 1.240882085e-05)
(0 3.205596176e-06 1.160170435e-05)
(0 -5.822292689e-07 1.178561636e-05)
(0 -5.401105558e-06 1.083842178e-05)
(0 -8.774414266e-06 1.56658743e-05)
(0 -1.351324593e-05 8.569538159e-06)
(0 -1.433560904e-05 6.461696682e-06)
(0 3.495567316e-05 -3.266010801e-05)
(0 4.035963741e-05 -5.067967502e-05)
(0 1.255271052e-05 -3.898553804e-05)
(0 2.25944981e-05 -1.720482743e-05)
(0 1.755931046e-05 -9.16224942e-06)
(0 1.315304511e-05 -5.602169978e-06)
(0 9.939825807e-06 -3.733509492e-06)
(0 7.598520736e-06 -2.611931946e-06)
(0 5.843256728e-06 -1.874378014e-06)
(0 4.494886236e-06 -1.358852612e-06)
(0 3.442871259e-06 -9.872168902e-07)
(0 2.621461066e-06 -7.156369542e-07)
(0 1.978245458e-06 -5.14572518e-07)
(0 1.478919511e-06 -3.678240537e-07)
(0 1.091084304e-06 -2.601449913e-07)
(0 7.956815788e-07 -1.820062055e-07)
(0 5.755588819e-07 -1.276902155e-07)
(0 4.097521841e-07 -8.766790916e-08)
(0 2.868265332e-07 -5.81276363e-08)
(0 1.991586197e-07 -3.90693943e-08)
(0 1.372193361e-07 -2.763444963e-08)
(0 9.147955876e-08 -1.810532934e-08)
(0 6.193928365e-08 -1.048203262e-08)
(0 4.192813047e-08 -7.623296449e-09)
(0 2.668153797e-08 -5.717472423e-09)
(0 1.715241701e-08 -1.905824112e-09)
(0 1.238785673e-08 -9.529120561e-10)
(0 5.717472423e-09 0)
(0 2.858736168e-09 0)
(0 1.905824112e-09 0)
(0 9.529120704e-10 9.529120704e-10)
(0 9.529120561e-10 -9.529120561e-10)
(0 -4.507274113e-07 -2.234578815e-06)
(0 -1.357899709e-06 -2.295565191e-06)
(0 -2.29175354e-06 -2.423255406e-06)
(0 -3.269441328e-06 -2.615743645e-06)
(0 -4.308115496e-06 -2.881606118e-06)
(0 -5.429693002e-06 -3.222748637e-06)
(0 -6.65990249e-06 -3.655370719e-06)
(0 -8.022566769e-06 -4.189954399e-06)
(0 -9.558661021e-06 -4.848416636e-06)
(0 -1.13091605e-05 -5.664109372e-06)
(0 -1.332838121e-05 -6.697066071e-06)
(0 -1.567730945e-05 -8.046389559e-06)
(0 -1.838357975e-05 -9.891227336e-06)
(0 -2.140335813e-05 -1.247171325e-05)
(6.198896052e-26 -2.515497296e-05 -1.551722023e-05)
(-6.198896052e-26 -1.366666498e-05 -1.40630764e-05)
(0 6.801886396e-06 -1.134918282e-06)
(0 1.23745162e-05 9.33282086e-06)
(0 1.211818285e-05 1.546862171e-05)
(0 1.231162402e-05 1.308538863e-05)
(0 9.761631293e-06 1.070596716e-05)
(0 6.363546835e-06 1.015041942e-05)
(0 3.041695347e-06 9.83119389e-06)
(0 -3.764002695e-07 1.005608112e-05)
(0 -4.108003954e-06 1.070692007e-05)
(0 -7.993979407e-06 1.298152121e-05)
(0 -1.382484838e-05 1.441088931e-05)
(0 -2.615648354e-05 1.910398127e-05)
(0 -5.565006525e-06 2.082208178e-05)
(0 2.340637929e-05 -7.279295339e-06)
(0 3.877685088e-05 -3.59438433e-06)
(0 4.121249475e-05 -3.808789603e-06)
(0 2.313289342e-05 -3.318992741e-06)
(0 1.535903675e-05 -2.732951818e-06)
(0 1.108999084e-05 -2.193603619e-06)
(0 8.321781111e-06 -1.73048832e-06)
(0 6.347347301e-06 -1.344558931e-06)
(0 4.862710368e-06 -1.031050876e-06)
(0 3.720168723e-06 -7.794820736e-07)
(0 2.828243025e-06 -5.803234509e-07)
(0 2.132617246e-06 -4.27857526e-07)
(0 1.59231607e-06 -3.10649335e-07)
(0 1.176846407e-06 -2.229814245e-07)
(0 8.585737883e-07 -1.562775819e-07)
(0 6.193928458e-07 -1.08631976e-07)
(0 4.411982886e-07 -7.528005356e-08)
(0 3.096964275e-07 -5.145725257e-08)
(0 2.144052158e-07 -3.525774661e-08)
(0 1.467484588e-07 -2.191697762e-08)
(0 1.000557689e-07 -1.334076919e-08)
(0 6.670384493e-08 -8.576208634e-09)
(0 4.383395524e-08 -5.717472423e-09)
(0 2.858736254e-08 -3.811648339e-09)
(0 2.001115348e-08 -2.858736211e-09)
(0 1.238785692e-08 -9.529120704e-10)
(0 6.670384593e-09 0)
(0 2.858736211e-09 0)
(0 2.858736211e-09 0)
(0 9.529120847e-10 0)
(0 0 0)
(0 -4.793147664e-07 -2.023985216e-06)
(0 -1.445567598e-06 -2.078301207e-06)
(0 -2.440407787e-06 -2.185027355e-06)
(0 -3.482893581e-06 -2.350834053e-06)
(0 -4.588271578e-06 -2.575721303e-06)
(0 -5.787034943e-06 -2.864453654e-06)
(0 -7.103006498e-06 -3.2237015e-06)
(0 -8.566679436e-06 -3.658229405e-06)
(0 -1.022474641e-05 -4.183283945e-06)
(0 -1.213914674e-05 -4.814111729e-06)
(0 -1.44023129e-05 -5.584064682e-06)
(0 -1.714860544e-05 -6.574140305e-06)
(0 -2.049809133e-05 -8.035907406e-06)
(0 -2.391904565e-05 -1.086033876e-05)
(0 -2.201322152e-05 -1.852556337e-05)
(0 -7.0791837e-06 -4.867474807e-06)
(0 1.329121743e-05 5.876608683e-06)
(0 1.865134776e-05 8.192184983e-06)
(0 1.380578993e-05 9.895038835e-06)
(0 1.13444181e-05 9.251823208e-06)
(0 8.769649692e-06 8.171220918e-06)
(0 5.949029993e-06 7.619484835e-06)
(0 3.11030497e-06 7.484171334e-06)
(0 2.954027387e-07 7.878676916e-06)
(0 -2.476618445e-06 8.952608808e-06)
(0 -5.070445081e-06 1.115764733e-05)
(0 -7.389833029e-06 1.47510787e-05)
(0 -7.925369607e-06 2.250492413e-05)
(0 8.570491084e-06 4.060548878e-05)
(0 1.594507751e-05 3.533207338e-05)
(0 1.602226331e-05 2.810518818e-05)
(0 2.286798387e-05 8.596219787e-06)
(0 1.863514817e-05 2.20599141e-06)
(0 1.427843425e-05 2.858736168e-09)
(0 1.094324222e-05 -7.223073494e-07)
(0 8.447565378e-06 -8.900198604e-07)
(0 6.543647089e-06 -8.423742576e-07)
(0 5.059010182e-06 -7.194486132e-07)
(0 3.894551573e-06 -5.812763542e-07)
(0 2.973085615e-06 -4.526332267e-07)
(0 2.248872486e-06 -3.440012574e-07)
(0 1.681889779e-06 -2.54427519e-07)
(0 1.245456057e-06 -1.858178509e-07)
(0 9.090781152e-07 -1.334076899e-07)
(0 6.556034946e-07 -9.433829356e-08)
(0 4.688327316e-07 -6.575093187e-08)
(0 3.287546643e-07 -4.383395524e-08)
(0 2.277459814e-07 -2.858736168e-08)
(0 1.572304893e-07 -1.905824112e-08)
(0 1.048203277e-07 -1.238785692e-08)
(0 7.051549215e-08 -9.529120561e-09)
(0 4.669269075e-08 -4.764560281e-09)
(0 2.954027418e-08 -4.764560352e-09)
(0 2.096406523e-08 -2.858736168e-09)
(0 1.429368084e-08 -1.905824112e-09)
(0 6.670384493e-09 -1.905824141e-09)
(0 4.764560281e-09 0)
(0 1.905824112e-09 0)
(0 0 -9.529120704e-10)
(0 9.529120561e-10 1.905824112e-09)
(0 -5.031375679e-07 -1.808627091e-06)
(0 -1.518941827e-06 -1.851508136e-06)
(0 -2.567145091e-06 -1.942034779e-06)
(0 -3.6582294e-06 -2.07639538e-06)
(0 -4.819829209e-06 -2.258401587e-06)
(0 -6.076720209e-06 -2.487100478e-06)
(0 -7.454631049e-06 -2.765350799e-06)
(0 -8.983102007e-06 -3.096964201e-06)
(0 -1.071454321e-05 -3.47336446e-06)
(0 -1.270994106e-05 -3.890739943e-06)
(0 -1.50893625e-05 -4.3214562e-06)
(0 -1.812915195e-05 -4.707385578e-06)
(0 -2.266977792e-05 -4.898920903e-06)
(0 -3.189301378e-05 -4.50250949e-06)
(0 -1.916115572e-05 -2.40896169e-06)
(0 1.073646019e-05 6.853343542e-06)
(0 1.986059318e-05 1.132631276e-05)
(0 1.639104035e-05 7.597567858e-06)
(0 1.31787738e-05 6.602727667e-06)
(0 1.058780592e-05 5.794658248e-06)
(0 8.128339875e-06 5.048528096e-06)
(0 5.676497144e-06 4.612094372e-06)
(0 3.302793206e-06 4.562542952e-06)
(0 1.090131397e-06 4.991353372e-06)
(0 -8.299864046e-07 6.037650815e-06)
(0 -2.194556478e-06 7.935851651e-06)
(0 -2.476618445e-06 1.094610084e-05)
(0 -3.011202111e-07 1.559154713e-05)
(0 7.260236999e-06 2.113940118e-05)
(0 1.090607853e-05 1.301773166e-05)
(0 1.204194965e-05 1.405068827e-05)
(0 1.531234406e-05 7.643307717e-06)
(0 1.454143798e-05 3.345674229e-06)
(0 1.243169068e-05 1.107283809e-06)
(0 1.019615915e-05 6.289219665e-08)
(0 8.201714067e-06 -3.668711416e-07)
(0 6.517918464e-06 -4.955142692e-07)
(0 5.123808203e-06 -4.897968042e-07)
(0 3.986031131e-06 -4.278575132e-07)
(0 3.066470997e-06 -3.487658125e-07)
(0 2.329870012e-06 -2.734857642e-07)
(0 1.750499447e-06 -2.077348282e-07)
(0 1.298819133e-06 -1.53418841e-07)
(0 9.500533342e-07 -1.114907122e-07)
(0 6.870495925e-07 -7.81387886e-08)
(0 4.907497089e-07 -5.526889926e-08)
(0 3.459070816e-07 -3.716357075e-08)
(0 2.38228014e-07 -2.477571346e-08)
(0 1.648537857e-07 -1.715241701e-08)
(0 1.095848881e-07 -1.143494485e-08)
(0 7.432714038e-08 -6.670384393e-09)
(0 4.859851486e-08 -5.717472337e-09)
(0 3.144609832e-08 -1.905824141e-09)
(0 2.191697729e-08 -1.905824112e-09)
(0 1.429368084e-08 -1.905824112e-09)
(0 7.623296563e-09 -1.905824141e-09)
(0 3.811648225e-09 -1.905824112e-09)
(0 3.811648225e-09 9.529120561e-10)
(0 9.529120704e-10 9.529120704e-10)
(0 0 0)
(0 -5.241016411e-07 -1.591363165e-06)
(0 -1.57897531e-06 -1.627573826e-06)
(0 -2.664342161e-06 -1.696183493e-06)
(0 -3.79830753e-06 -1.801003821e-06)
(0 -4.999929664e-06 -1.939176075e-06)
(0 -6.29684299e-06 -2.111653158e-06)
(0 -7.710964509e-06 -2.312717605e-06)
(0 -9.272787413e-06 -2.539510683e-06)
(0 -1.101947523e-05 -2.779644522e-06)
(0 -1.298723867e-05 -3.00834342e-06)
(0 -1.521895877e-05 -3.165573917e-06)
(0 -1.772607041e-05 -3.100775891e-06)
(0 -2.029416846e-05 -2.411820461e-06)
(0 -2.142908676e-05 8.957373512e-08)
(0 -1.065832156e-05 8.321781152e-06)
(0 6.656090845e-06 8.325592801e-06)
(0 1.403544196e-05 6.099590197e-06)
(0 1.392966871e-05 4.197577689e-06)
(0 1.200192758e-05 3.053130287e-06)
(0 9.79021867e-06 2.200273984e-06)
(0 7.588038851e-06 1.540858825e-06)
(0 5.463044924e-06 1.154929435e-06)
(0 3.487658199e-06 1.094895975e-06)
(0 1.770510635e-06 1.427462288e-06)
(0 4.697856528e-07 2.22314387e-06)