/*--------------------------------*- C++ -*----------------------------------*\
  =========                 |
  \\      /  F ield         | OpenFOAM: The Open Source CFD Toolbox
   \\    /   O peration     | Website:  https://openfoam.org
    \\  /    A nd           | Version:  6
     \\/     M anipulation  |
\*---------------------------------------------------------------------------*/
FoamFile
{
    version     2.0;
    format      ascii;
    class       volScalarField;
    location    "0.0012";
    object      TRHS;
}
// * * * * * * * * * * * * * * * * * * * * * * * * * * * * * * * * * * * * * //

dimensions      [1 -1 -3 0 0 0 0];

internalField   nonuniform List<scalar> 
3600
(
1.865137436e-10
3.534624991e-10
1.541175428e-10
-5.442585655e-12
-1.662888624e-10
-3.087715481e-10
-4.30669939e-10
-5.286080962e-10
-5.965085699e-10
-6.322568394e-10
-6.325881698e-10
-5.990624017e-10
-5.461941786e-10
-5.368514367e-10
-7.000483662e-10
-1.177265304e-09
-1.911034132e-09
-2.37976292e-09
-1.715587753e-09
9.604181818e-11
1.039580151e-09
3.188814548e-10
-7.123155908e-10
-2.334208842e-09
-6.968509285e-09
-1.801565435e-08
-3.541512911e-08
-6.047630459e-08
-8.884820051e-08
-4.63470018e-08
-0.0007016256525
0
0
0
0
0
0
0
0
0
0
0
0
0
0
0
0
0
0
0
0
0
0
0
0
0
0
0
0
0
1.924832035e-10
3.684924866e-10
1.835231174e-10
3.480719552e-11
-1.120951334e-10
-2.358227701e-10
-3.406570364e-10
-4.24207825e-10
-4.944097895e-10
-5.552173289e-10
-6.176593227e-10
-6.785795426e-10
-7.440821962e-10
-8.44484016e-10
-1.106394693e-09
-1.750069186e-09
-2.956057338e-09
-4.388378364e-09
-4.709435174e-09
-2.882075763e-09
-1.994516282e-09
-3.315697465e-09
-4.187645865e-09
-4.85302439e-09
-7.328503545e-09
-1.620617419e-08
-3.119724109e-08
-5.399864859e-08
-8.706539039e-08
-4.478203001e-08
-0.0007267870745
0
0
0
0
0
0
0
0
0
0
0
0
0
0
0
0
0
0
0
0
0
0
0
0
0
0
0
0
0
1.986865001e-10
3.813806881e-10
2.011930216e-10
5.814547392e-11
-7.778600322e-11
-1.909431125e-10
-2.849369745e-10
-3.717161334e-10
-4.673464699e-10
-5.961919203e-10
-7.739380704e-10
-1.001757493e-09
-1.253834824e-09
-1.525783604e-09
-1.931271118e-09
-2.903955913e-09
-5.146215605e-09
-8.854226194e-09
-1.12582656e-08
-7.969859312e-09
-6.426014236e-09
-9.641017673e-09
-1.027771689e-08
-9.139977794e-09
-7.492338195e-09
-1.481319858e-08
-2.884882518e-08
-4.904633437e-08
-7.999696577e-08
-3.505149506e-08
-0.0007815697776
0
0
0
0
0
0
0
0
0
0
0
0
0
0
0
0
0
0
0
0
0
0
0
0
0
0
0
0
0
2.045072102e-10
3.946918685e-10
2.158961617e-10
7.96960149e-11
-4.671889668e-11
-1.47251e-10
-2.343038091e-10
-3.296712562e-10
-4.712477187e-10
-7.060283291e-10
-1.08212777e-09
-1.6175248e-09
-2.270839093e-09
-2.9279292e-09
-3.562654116e-09
-4.730798097e-09
-8.189630089e-09
-1.632730628e-08
-2.421818731e-08
-1.700355666e-08
-1.342143494e-08
-2.086230334e-08
-2.053540889e-08
-1.727913296e-08
-7.878448512e-09
-1.397671222e-08
-2.68860789e-08
-4.091624531e-08
-6.680494851e-08
-1.735852276e-08
-0.0008767608228
0
0
0
0
0
0
0
0
0
0
0
0
0
0
0
0
0
0
0
0
0
0
0
0
0
0
0
0
0
2.107544434e-10
4.071777334e-10
2.300438463e-10
1.00156423e-10
-1.479377171e-11
-1.030165683e-10
-1.827499549e-10
-2.912250571e-10
-4.891175247e-10
-8.665865873e-10
-1.538553945e-09
-2.611807855e-09
-4.08737974e-09
-5.689204526e-09
-6.862402424e-09
-7.650506242e-09
-1.09339724e-08
-2.626051321e-08
-4.828088156e-08
-3.317179441e-08
-2.600295605e-08
-3.810139875e-08
-3.402596077e-08
-3.050303159e-08
-1.104972583e-08
-1.573346938e-08
-2.615483732e-08
-2.354489489e-08
-4.502748354e-08
9.394207381e-09
-0.001034720649
0
0
0
0
0
0
0
0
0
0
0
0
0
0
0
0
0
0
0
0
0
0
0
0
0
0
0
0
0
2.164201814e-10
4.18822642e-10
2.429898468e-10
1.203541953e-10
1.611617956e-11
-6.104831695e-11
-1.36757453e-10
-2.597467468e-10
-5.152518555e-10
-1.048216076e-09
-2.092248363e-09
-3.969178941e-09
-6.930545863e-09
-1.069590809e-08
-1.366549108e-08
-1.349419325e-08
-1.089243879e-08
-3.378099985e-08
-8.060158766e-08
-8.899240238e-08
-1.032756881e-07
-3.299469748e-08
-3.309602667e-08
-2.345149859e-08
-8.245408606e-08
-4.687892197e-08
-2.357520408e-08
1.610174124e-08
-6.768885368e-09
4.599148871e-08
-0.001302726059
0
0
0
0
0
0
0
0
0
0
0
0
0
0
0
0
0
0
0
0
0
0
0
0
0
0
0
0
0
2.211927541e-10
4.282576756e-10
2.543111367e-10
1.376872204e-10
4.051664143e-11
-3.41880646e-11
-1.179254287e-10
-2.66928743e-10
-5.802247921e-10
-1.245742674e-09
-2.632120832e-09
-5.402580967e-09
-1.049161755e-08
-1.843151209e-08
-2.696423589e-08
-2.917460522e-08
-8.954972727e-09
-4.24405138e-08
-3.366315849e-08
-1.687163932e-07
-2.107158061e-07
-3.577057059e-08
-8.740842994e-09
-2.401871184e-08
-1.745375056e-07
-9.016345416e-08
9.704476438e-09
1.180778958e-07
7.237647793e-08
9.37177257e-08
-0.001789203814
0
0
0
0
0
0
0
0
0
0
0
0
0
0
0
0
0
0
0
0
0
0
0
0
0
0
0
0
0
2.242967482e-10
4.34515063e-10
2.628203626e-10
1.497497825e-10
5.057032609e-11
-4.117497792e-11
-1.672134747e-10
-3.903309686e-10
-8.071210922e-10
-1.594486048e-09
-3.141415898e-09
-6.355223204e-09
-1.315630211e-08
-2.661535125e-08
-4.670521459e-08
-6.430953859e-08
-5.370793043e-08
-7.46659668e-10
6.309025195e-08
-2.254514974e-07
-2.000658085e-07
-0.0001743440333
-0.0001109693789
-0.0001494783077
-1.583551152e-07
-3.136665833e-07
8.19641811e-08
3.424422847e-07
3.262346003e-07
1.677747077e-07
-0.002771116141
0
0
0
0
0
0
0
0
0
0
0
0
0
0
0
0
0
0
0
0
0
0
0
0
0
0
0
0
0
2.250524337e-10
4.363526718e-10
2.684516663e-10
1.561575065e-10
4.364854334e-11
-9.477592404e-11
-3.25960313e-10
-7.412757925e-10
-1.447700036e-09
-2.556928967e-09
-4.212937876e-09
-6.892814623e-09
-1.261139004e-08
-2.847633893e-08
-6.299999338e-08
-1.224704349e-07
-1.85180315e-07
-0.0001712051021
-0.0007740777881
167.3375045
-0.005864834831
69.16524582
44.03840478
59.30549084
-0.006562082662
144.7813271
-0.0004248119628
9.219976062e-08
4.215115928e-07
3.555015552e-07
-0.005046438311
0
0
0
0
0
0
0
0
0
0
0
0
0
0
0
0
0
0
0
0
0
0
0
0
0
0
0
0
0
2.221066113e-10
4.322306909e-10
2.721760988e-10
1.623690856e-10
3.055994881e-11
-1.795329533e-10
-5.879661994e-10
-1.373075333e-09
-2.759996145e-09
-4.921386692e-09
-7.67486008e-09
-9.917022749e-09
-9.304909537e-09
-7.771766609e-09
-4.968978125e-08
-1.78948152e-07
-4.194813437e-07
67.93940422
139.838192
0
0
0
0
0
0
0
23.86716737
106.5964686
-0.0002681213842
-0.0001400846667
55.57092529
0
0
0
0
0
0
0
0
0
0
0
0
0
0
0
0
0
0
0
0
0
0
0
0
0
0
0
0
0
2.120673564e-10
4.169345424e-10
2.731537557e-10
1.763501122e-10
3.738472157e-11
-2.362148969e-10
-8.362510929e-10
-2.097240555e-09
-4.563259107e-09
-9.008405572e-09
-1.615248883e-08
-2.551462052e-08
-3.198432674e-08
-3.58941287e-08
4.87719239e-09
-0.0001722092458
68.33770731
0
0
0
0
0
0
0
0
0
0
0
384.7933079
-0.002109749049
452.1333347
0
0
0
0
0
0
0
0
0
0
0
0
0
0
0
0
0
0
0
0
0
0
0
0
0
0
0
0
0
1.844245532e-10
3.75878674e-10
2.615320458e-10
1.991025008e-10
8.59945491e-11
-1.907021891e-10
-8.666281604e-10
-2.386379657e-09
-5.590777707e-09
-1.205141847e-08
-2.457216281e-08
-4.746474572e-08
-7.853422576e-08
-2.614370448e-08
8.574282397e-08
-0.0007853422281
141.4249345
0
0
0
0
0
0
0
0
0
0
0
-0.005128010861
-4.382135836e-05
17.37719386
0
0
0
0
0
0
0
0
0
0
0
0
0
0
0
0
0
0
0
0
0
0
0
0
0
0
0
0
0
1.061988954e-10
2.708190236e-10
2.078713894e-10
2.080250443e-10
1.578529147e-10
-5.315650894e-11
-6.372582926e-10
-1.973531838e-09
-4.699505697e-09
-9.829591821e-09
-1.886968547e-08
-3.450073445e-08
-8.568993376e-08
-1.560762295e-07
-2.192994526e-07
170.2180285
0
0
0
0
0
0
0
0
0
0
0
0
0
-0.001403000509
0
0
0
0
0
0
0
0
0
0
0
0
0
0
0
0
0
0
0
0
0
0
0
0
0
0
0
0
0
0
-1.4044922e-10
1.014903159e-11
5.627069921e-11
1.597589565e-10
1.88847851e-10
3.96166547e-11
-4.93025216e-10
-1.779510545e-09
-4.419905416e-09
-9.239520607e-09
-1.713441795e-08
-3.063904927e-08
-1.059071676e-07
-2.026050722e-07
-1.919364145e-07
-0.005605843987
0
0
0
0
0
0
0
0
0
0
0
0
0
0
0
0
0
0
0
0
0
0
0
0
0
0
0
0
0
0
0
0
0
0
0
0
0
0
0
0
0
0
0
0
-9.340484609e-10
-6.043240786e-10
-2.645795143e-10
2.244458593e-11
1.48308577e-10
3.378505436e-11
-5.455350155e-10
-2.091010835e-09
-5.585692889e-09
-1.277903025e-08
-2.632594768e-08
-4.791391484e-08
-4.483016198e-08
-5.183428889e-08
-0.000214208012
84.98058361
0
0
0
0
0
0
0
0
0
0
0
0
0
0
0
0
0
0
0
0
0
0
0
0
0
0
0
0
0
0
0
0
0
0
0
0
0
0
0
0
0
0
0
0
-4.731726307e-09
-2.276968044e-09
-8.175795394e-10
-1.871401232e-10
6.739210315e-11
1.802035523e-11
-4.950283395e-10
-1.935177715e-09
-5.250936872e-09
-1.214166721e-08
-2.518499517e-08
-4.593855477e-08
-4.223148981e-08
-4.708295573e-08
-0.0002081243824
82.56918763
0
0
0
0
0
0
0
0
0
0
0
0
0
0
0
0
0
0
0
0
0
0
0
0
0
0
0
0
0
0
0
0
0
0
0
0
0
0
0
0
0
0
0
0
-5.198986005e-09
-2.53239723e-09
-9.299013776e-10
-2.709744395e-10
-5.883145392e-12
-1.50091951e-11
-3.859321664e-10
-1.401649498e-09
-3.571775782e-09
-7.582604252e-09
-1.407278232e-08
-2.517336846e-08
-9.84498811e-08
-1.864526011e-07
-1.709126804e-07
-0.005844851033
0
0
0
0
0
0
0
0
0
0
0
0
0
0
0
0
0
0
0
0
0
0
0
0
0
0
0
0
0
0
0
0
0
0
0
0
0
0
0
0
0
0
0
0
-1.419190112e-09
-1.008467331e-09
-5.003838654e-10
-2.085409679e-10
-9.791147897e-11
-1.857023048e-10
-5.929786534e-10
-1.603871164e-09
-3.739142223e-09
-7.82998314e-09
-1.508786845e-08
-2.762340378e-08
-7.181290089e-08
-1.261202499e-07
-2.648267769e-07
162.6843961
0
0
0
0
0
0
0
0
0
0
0
0
0
-0.002528936189
0
0
0
0
0
0
0
0
0
0
0
0
0
0
0
0
0
0
0
0
0
0
0
0
0
0
0
0
0
0
2.575178536e-10
-1.401813813e-10
-1.68423215e-10
-1.767711253e-10
-2.428106011e-10
-4.730508814e-10
-1.038254466e-09
-2.298250617e-09
-4.927742962e-09
-1.017781047e-08
-2.01813177e-08
-3.799549818e-08
-6.070035247e-08
-1.301888149e-08
7.170987135e-08
-0.0007007989273
115.4395655
0
0
0
0
0
0
0
0
0
0
0
-0.00529066684
-1.894237256e-05
7.506527781
0
0
0
0
0
0
0
0
0
0
0
0
0
0
0
0
0
0
0
0
0
0
0
0
0
0
0
0
0
1.254592933e-09
3.864970067e-10
3.117002174e-11
-1.861387584e-10
-3.990865212e-10
-7.361468716e-10
-1.37614454e-09
-2.581243882e-09
-4.732639566e-09
-8.165267271e-09
-1.255710315e-08
-1.51070804e-08
-5.99730336e-09
2.839230691e-08
1.603727425e-07
-0.0001164385952
46.23581439
0
0
0
0
0
0
0
0
0
0
0
393.7128196
-0.002066295491
425.9718306
0
0
0
0
0
0
0
0
0
0
0
0
0
0
0
0
0
0
0
0
0
0
0
0
0
0
0
0
0
1.84317029e-09
6.775832449e-10
1.358057346e-10
-2.182125227e-10
-5.216296235e-10
-9.236159927e-10
-1.565723497e-09
-2.614623322e-09
-4.177636944e-09
-6.042974936e-09
-6.953667001e-09
-3.209273522e-09
1.329723876e-08
5.186651459e-08
8.06209664e-08
8.490879176e-08
-2.454370394e-07
21.92721345
18.22874913
0
0
0
0
0
0
0
-0.005972238653
20.34657071
-5.116997729e-05
-2.519401748e-10
-9.828763159e-05
0
0
0
0
0
0
0
0
0
0
0
0
0
0
0
0
0
0
0
0
0
0
0
0
0
0
0
0
0
2.129227238e-09
8.074966793e-10
1.72242287e-10
-2.491440046e-10
-6.021052844e-10
-1.040642042e-09
-1.696613095e-09
-2.708729744e-09
-4.159561125e-09
-5.941590288e-09
-7.424842532e-09
-7.071868582e-09
-2.17181287e-09
1.020442341e-08
4.337524499e-08
1.320594006e-07
4.446213462e-07
-5.476628352e-05
-4.604619426e-05
441.0458492
132.9583696
126.7899674
66.44120738
117.6990121
105.8928943
360.0707085
-1.790014821e-07
-1.461133748e-07
-1.42078957e-08
7.11813925e-08
-0.008773702983
0
0
0
0
0
0
0
0
0
0
0
0
0
0
0
0
0
0
0
0
0
0
0
0
0
0
0
0
0
2.162137425e-09
8.201992144e-10
1.747651136e-10
-2.557805447e-10
-6.204758872e-10
-1.072984757e-09
-1.753983623e-09
-2.808505286e-09
-4.37259407e-09
-6.506550264e-09
-9.119647301e-09
-1.198843353e-08
-1.510921712e-08
-1.901663718e-08
-1.668901406e-08
1.319758724e-08
7.953926482e-08
1.834975812e-07
6.853737286e-07
-0.0022115459
-0.0006554113317
-0.0006224748264
-0.0003180323844
-0.0005775872143
-0.0005205318966
-0.001805470678
-1.813316457e-07
-2.049489602e-07
-3.123006028e-07
-1.949928402e-07
-0.007212221876
0
0
0
0
0
0
0
0
0
0
0
0
0
0
0
0
0
0
0
0
0
0
0
0
0
0
0
0
0
1.974063771e-09
7.392870022e-10
1.607723715e-10
-2.293498715e-10
-5.682015378e-10
-1.012899126e-09
-1.711159542e-09
-2.824411264e-09
-4.484529742e-09
-6.660092747e-09
-8.84612796e-09
-9.632970758e-09
-6.461404098e-09
3.605080406e-09
3.36164348e-08
1.165611571e-07
4.235225048e-07
-4.396555802e-05
-2.758763428e-05
436.8921333
127.0402084
120.1428564
59.72073683
111.4271103
100.5996502
356.5225472
-2.257448364e-07
-1.611791771e-07
-2.438636072e-08
6.324197965e-08
-0.008774500233
0
0
0
0
0
0
0
0
0
0
0
0
0
0
0
0
0
0
0
0
0
0
0
0
0
0
0
0
0
1.603906327e-09
5.88882172e-10
1.402041878e-10
-1.648600534e-10
-4.465548857e-10
-8.626661248e-10
-1.587524004e-09
-2.837887528e-09
-4.821748671e-09
-7.49063956e-09
-9.832421397e-09
-8.455858492e-09
4.412510553e-09
3.798189855e-08
6.024044674e-08
5.704462033e-08
-2.687081568e-07
17.63588928
10.89959331
0
0
0
0
0
0
0
-0.006186229415
17.08496159
-4.295267927e-05
-2.154444654e-10
-8.647299967e-05
0
0
0
0
0
0
0
0
0
0
0
0
0
0
0
0
0
0
0
0
0
0
0
0
0
0
0
0
0
1.108990402e-09
3.932193855e-10
1.203443746e-10
-6.669795531e-11
-2.623397119e-10
-6.264716294e-10
-1.380044194e-09
-2.876657451e-09
-5.642557463e-09
-1.026671511e-08
-1.679121653e-08
-2.29226874e-08
-1.935171899e-08
7.93366975e-09
1.30082105e-07
-0.0001046611749
41.55317049
0
0
0
0
0
0
0
0
0
0
0
391.8050893
-0.002065114083
427.410757
0
0
0
0
0
0
0
0
0
0
0
0
0
0
0
0
0
0
0
0
0
0
0
0
0
0
0
0
0
5.586629594e-10
1.791058508e-10
1.031226557e-10
5.299274826e-11
-3.230848459e-11
-3.035377816e-10
-1.012914212e-09
-2.639977896e-09
-6.075958547e-09
-1.290532842e-08
-2.574947497e-08
-4.837109812e-08
-7.795396807e-08
-4.358660496e-08
3.161930388e-08
-0.0006628035922
106.5547472
0
0
0
0
0
0
0
0
0
0
0
-0.005417580673
-2.511078054e-05
9.95338304
0
0
0
0
0
0
0
0
0
0
0
0
0
0
0
0
0
0
0
0
0
0
0
0
0
0
0
0
0
2.966067776e-11
-2.681815123e-11
8.544789344e-11
1.681327007e-10
1.968550678e-10
4.609317119e-11
-5.192845602e-10
-1.952150975e-09
-5.057735332e-09
-1.114773689e-08
-2.216424675e-08
-4.133450161e-08
-9.748167008e-08
-1.743050175e-07
-2.958912497e-07
156.4892919
0
0
0
0
0
0
0
0
0
0
0
0
0
-0.002528705261
0
0
0
0
0
0
0
0
0
0
0
0
0
0
0
0
0
0
0
0
0
0
0
0
0
0
0
0
0
0
-4.078628971e-10
-2.015360025e-10
6.085427462e-11
2.44602296e-10
3.519542194e-10
2.678239324e-10
-2.505359308e-10
-1.687956884e-09
-4.885950284e-09
-1.109562417e-08
-2.181010439e-08
-4.038332247e-08
-1.280297855e-07
-2.410675532e-07
-2.066954242e-07
-0.006212997051
0
0
0
0
0
0
0
0
0
0
0
0
0
0
0
0
0
0
0
0
0
0
0
0
0
0
0
0
0
0
0
0
0
0
0
0
0
0
0
0
0
0
0
0
-6.98235363e-10
-3.253635188e-10
2.797619853e-11
2.661987841e-10
4.018254342e-10
3.107662116e-10
-3.072634636e-10
-2.108341231e-09
-6.388722321e-09
-1.54476576e-08
-3.278151971e-08
-6.130499027e-08
-7.331900048e-08
-1.058714628e-07
-0.0001753883216
69.5680886
0
0
0
0
0
0
0
0
0
0
0
0
0
0
0
0
0
0
0
0
0
0
0
0
0
0
0
0
0
0
0
0
0
0
0
0
0
0
0
0
0
0
0
0
-8.1167304e-10
-3.866994976e-10
-9.252845524e-12
2.377377786e-10
3.72882139e-10
2.765619849e-10
-3.476563144e-10
-2.158106698e-09
-6.459106891e-09
-1.557787956e-08
-3.303945291e-08
-6.185130605e-08
-7.430512115e-08
-1.078725547e-07
-0.0001753184667
69.53973364
0
0
0
0
0
0
0
0
0
0
0
0
0
0
0
0
0
0
0
0
0
0
0
0
0
0
0
0
0
0
0
0
0
0
0
0
0
0
0
0
0
0
0
0
-7.461647406e-10
-3.842794434e-10
-4.9636805e-11
1.615989584e-10
2.684747023e-10
1.71240763e-10
-3.645952678e-10
-1.825559135e-09
-5.080995343e-09
-1.144417639e-08
-2.253714354e-08
-4.187367365e-08
-1.309017852e-07
-2.471343221e-07
-2.122273553e-07
-0.006215769986
0
0
0
0
0
0
0
0
0
0
0
0
0
0
0
0
0
0
0
0
0
0
0
0
0
0
0
0
0
0
0
0
0
0
0
0
0
0
0
0
0
0
0
0
-5.301941823e-10
-3.28666546e-10
-9.492179927e-11
3.584154929e-11
6.794159322e-11
-1.001007771e-10
-6.891732108e-10
-2.155689659e-09
-5.340203436e-09
-1.164484183e-08
-2.315891988e-08
-4.338180757e-08
-1.02077666e-07
-1.843177974e-07
-2.959298524e-07
156.406716
0
0
0
0
0
0
0
0
0
0
0
0
0
-0.00247837817
0
0
0
0
0
0
0
0
0
0
0
0
0
0
0
0
0
0
0
0
0
0
0
0
0
0
0
0
0
0
-2.142985716e-10
-2.366217997e-10
-1.414664685e-10
-1.203325972e-10
-1.946622178e-10
-4.831923578e-10
-1.220514496e-09
-2.890499131e-09
-6.426352533e-09
-1.350836253e-08
-2.692072082e-08
-5.067166789e-08
-8.218680001e-08
-5.018369513e-08
2.651827548e-08
-0.0006619404875
106.2901468
0
0
0
0
0
0
0
0
0
0
0
-0.005430656131
-2.640565848e-05
10.46709155
0
0
0
0
0
0
0
0
0
0
0
0
0
0
0
0
0
0
0
0
0
0
0
0
0
0
0
0
0
1.349352663e-10
-1.288626774e-10
-1.808233788e-10
-2.715934733e-10
-4.459494348e-10
-8.257214921e-10
-1.612811827e-09
-3.167049137e-09
-6.061908632e-09
-1.09870661e-08
-1.816650353e-08
-2.558561118e-08
-2.447985663e-08
-2.621907255e-09
1.080174115e-07
-0.0001041592548
41.34922237
0
0
0
0
0
0
0
0
0
0
0
391.1475364
-0.002065608438
428.2645126
0
0
0
0
0
0
0
0
0
0
0
0
0
0
0
0
0
0
0
0
0
0
0
0
0
0
0
0
0
4.496266058e-10
-2.774540948e-11
-2.075378379e-10
-3.91704337e-10
-6.404399132e-10
-1.072083263e-09
-1.839639987e-09
-3.172202699e-09
-5.323263358e-09
-8.346740113e-09
-1.138213223e-08
-1.128318743e-08
-5.38440228e-10
2.926467028e-08
4.292595128e-08
3.725291829e-08
-2.870360337e-07
17.2768163
10.02012392
0
0
0
0
0
0
0
-0.006133422172
18.12055558
-4.555923286e-05
-8.500694533e-11
-3.379468263e-05
0
0
0
0
0
0
0
0
0
0
0
0
0
0
0
0
0
0
0
0
0
0
0
0
0
0
0
0
0
6.690954491e-10
4.6719427e-11
-2.215200618e-10
-4.665302118e-10
-7.638472525e-10
-1.22478703e-09
-1.984851386e-09
-3.216699736e-09
-5.115013708e-09
-7.754278522e-09
-1.081259449e-08
-1.314207511e-08
-1.252939281e-08
-6.35808797e-09
1.836242722e-08
9.310252108e-08
3.913554059e-07
-4.308342571e-05
-2.536525925e-05
435.2302211
128.5608766
122.6369614
62.44464494
113.9959277
102.5664572
357.0164545
-1.901444039e-07
-1.539654022e-07
-2.25218302e-08
8.220285045e-08
-0.008695011692
0
0
0
0
0
0
0
0
0
0
0
0
0
0
0
0
0
0
0
0
0
0
0
0
0
0
0
0
0
7.560177098e-10
7.89749991e-11
-2.227233353e-10
-4.918637291e-10
-8.070534117e-10
-1.282553354e-09
-2.049495368e-09
-3.280475678e-09
-5.187820562e-09
-7.974337786e-09
-1.177442437e-08
-1.66766864e-08
-2.304814611e-08
-3.165524508e-08
-3.531652108e-08
-1.420503827e-08
4.530865243e-08
1.665221375e-07
6.532969118e-07
-0.002192599829
-0.0006481286377
-0.0006184153561
-0.0003150798948
-0.000575085263
-0.0005175344094
-0.001799387922
-1.938552183e-07
-2.098763136e-07
-3.270869259e-07
-1.7882918e-07
-0.007138562331
0
0
0
0
0
0
0
0
0
0
0
0
0
0
0
0
0
0
0
0
0
0
0
0
0
0
0
0
0
6.976338009e-10
6.449157635e-11
-2.110466908e-10
-4.652960829e-10
-7.65725231e-10
-1.23748152e-09
-2.010616123e-09
-3.275939158e-09
-5.219617313e-09
-7.937753631e-09
-1.110933649e-08
-1.36439816e-08
-1.334793361e-08
-7.530969772e-09
1.679825269e-08
8.892433281e-08
3.886963918e-07
-4.253005349e-05
-2.471093756e-05
435.1811727
128.5486931
122.6854901
62.54606192
114.1376788
102.736998
357.160159
-2.119863029e-07
-1.728295772e-07
8.67342895e-09
7.425830157e-08
-0.008690896168
0
0
0
0
0
0
0
0
0
0
0
0
0
0
0
0
0
0
0
0
0
0
0
0
0
0
0
0
0
5.105750443e-10
1.493803411e-11
-1.88610887e-10
-3.840649105e-10
-6.465465208e-10
-1.090380083e-09
-1.892586401e-09
-3.283253869e-09
-5.544729044e-09
-8.728371987e-09
-1.203303975e-08
-1.234298994e-08
-2.210146498e-09
2.661390165e-08
3.701505201e-08
2.973283812e-08
-2.940855028e-07
17.05672269
9.759568854
0
0
0
0
0
0
0
-0.006121988256
18.3328613
-4.610300241e-05
-8.18533442e-11
-2.985053753e-05
0
0
0
0
0
0
0
0
0
0
0
0
0
0
0
0
0
0
0
0
0
0
0
0
0
0
0
0
0
2.445932892e-10
-5.964726154e-11
-1.466285652e-10
-2.615202089e-10
-4.500040149e-10
-8.513274453e-10
-1.681248473e-09
-3.335061566e-09
-6.404096086e-09
-1.162338362e-08
-1.927060812e-08
-2.746948457e-08
-2.758741895e-08
-7.383135745e-09
9.998600402e-08
-0.0001032806809
40.9977723
0
0
0
0
0
0
0
0
0
0
0
391.0692514
-0.002065449672
428.2798371
0
0
0
0
0
0
0
0
0
0
0
0
0
0
0
0
0
0
0
0
0
0
0
0
0
0
0
0
0
-3.747436495e-11
-1.279013669e-10
-8.744642617e-11
-9.928843305e-11
-1.923330681e-10
-5.047587905e-10
-1.296636971e-09
-3.097531535e-09
-6.885983334e-09
-1.441470442e-08
-2.854891184e-08
-5.345259748e-08
-8.660466498e-08
-5.738760429e-08
1.706466216e-08
-0.0006578361245
105.4936056
0
0
0
0
0
0
0
0
0
0
0
-0.005433004659
-2.643300587e-05
10.47795229
0
0
0
0
0
0
0
0
0
0
0
0
0
0
0
0
0
0
0
0
0
0
0
0
0
0
0
0
0
-2.613100945e-10
-1.674279734e-10
-1.577266751e-11
7.015671265e-11
7.82767299e-11
-1.118090771e-10
-7.594658455e-10
-2.379046138e-09
-5.895799327e-09
-1.281456953e-08
-2.538915168e-08
-4.72425719e-08
-1.083516806e-07
-1.948129478e-07
-3.047438885e-07
155.5736887
0
0
0
0
0
0
0
0
0
0
0
0
0
-0.002462870183
0
0
0
0
0
0
0
0
0
0
0
0
0
0
0
0
0
0
0
0
0
0
0
0
0
0
0
0
0
0
-3.563758094e-10
-1.579926441e-10
6.077853883e-11
2.10115938e-10
2.891046691e-10
1.749309445e-10
-4.107648154e-10
-2.033181995e-09
-5.67710484e-09
-1.28246533e-08
-2.527860752e-08
-4.680528446e-08
-1.39096159e-07
-2.603851974e-07
-2.200250331e-07
-0.006276739491
0
0
0
0
0
0
0
0
0
0
0
0
0
0
0
0
0
0
0
0
0
0
0
0
0
0
0
0
0
0
0
0
0
0
0
0
0
0
0
0
0
0
0
0
-2.763540584e-10
-8.555328814e-11
1.333589215e-10
2.981830894e-10
4.004375001e-10
2.964051965e-10
-3.610554664e-10
-2.324930439e-09
-7.06042368e-09
-1.712266201e-08
-3.634037855e-08
-6.796006277e-08
-8.515205964e-08
-1.25784307e-07
-0.0001683714441
66.77977147
0
0
0
0
0
0
0
0
0
0
0
0
0
0
0
0
0
0
0
0
0
0
0
0
0
0
0
0
0
0
0
0
0
0
0
0
0
0
0
0
0
0
0
0
-3.69364697e-12
5.08393379e-11
1.963155258e-10
3.27684703e-10
4.229457965e-10
3.318332005e-10
-2.991415182e-10
-2.236091149e-09
-6.973527219e-09
-1.712308312e-08
-3.65840863e-08
-6.875932999e-08
-8.701436996e-08
-1.290782607e-07
-0.0001645540854
65.26519055
0
0
0
0
0
0
0
0
0
0
0
0
0
0
0
0
0
0
0
0
0
0
0
0
0
0
0
0
0
0
0
0
0
0
0
0
0
0
0
0
0
0
0
0
4.336783859e-10
2.325903187e-10
2.346322486e-10
2.826980417e-10
3.336314067e-10
2.460701852e-10
-2.744090033e-10
-1.824973321e-09
-5.469352404e-09
-1.283944736e-08
-2.59851776e-08
-4.896754147e-08
-1.44958333e-07
-2.698858021e-07
-2.198775349e-07
-0.006438666525
0
0
0
0
0
0
0
0
0
0
0
0
0
0
0
0
0
0
0
0
0
0
0
0
0
0
0
0
0
0
0
0
0
0
0
0
0
0
0
0
0
0
0
0
9.599457846e-10
4.179753025e-10
2.234597548e-10
1.379361413e-10
7.820619997e-11
-1.074604848e-10
-6.948963839e-10
-2.232127422e-09
-5.734368024e-09
-1.291832441e-08
-2.644236778e-08
-5.071274378e-08
-1.173707561e-07
-2.137592346e-07
-3.480085232e-07
149.7272741
0
0
0
0
0
0
0
0
0
0
0
0
0
-0.002961357906
0
0
0
0
0
0
0
0
0
0
0
0
0
0
0
0
0
0
0
0
0
0
0
0
0
0
0
0
0
0
1.440660473e-09
5.382683552e-10
1.339935984e-10
-1.144001121e-10
-3.449951009e-10
-7.324766543e-10
-1.55037751e-09
-3.326672979e-09
-7.078612496e-09
-1.467170945e-08
-2.926635812e-08
-5.554263817e-08
-9.248632276e-08
-8.352332267e-08
-3.793456969e-08
-0.0005675076625
75.50276747
0
0
0
0
0
0
0
0
0
0
0
-0.005872336876
-1.698030901e-05
6.727174156
0
0
0
0
0
0
0
0
0
0
0
0
0
0
0
0
0
0
0
0
0
0
0
0
0
0
0
0
0
1.673366075e-09
4.908869149e-10
-6.79701781e-11
-4.632532914e-10
-8.874040116e-10
-1.524112699e-09
-2.595758429e-09
-4.446063369e-09
-7.604627309e-09
-1.276569693e-08
-2.037029313e-08
-2.90111547e-08
-3.074397146e-08
-1.502337708e-08
9.066805662e-08
-1.515619371e-06
0.5892347337
0
0
0
0
0
0
0
0
0
0
0
381.0144694
-0.00199176543
409.0996093
0
0
0
0
0
0
0
0
0
0
0
0
0
0
0
0
0
0
0
0
0
0
0
0
0
0
0
0
0
1.343260325e-09
1.223881961e-10
-4.266105816e-10
-8.939826787e-10
-1.505555333e-09
-2.44211711e-09
-3.870251131e-09
-5.93283332e-09
-8.648551409e-09
-1.171426427e-08
-1.415009918e-08
-1.332827752e-08
-2.507055816e-09
3.125363341e-08
1.738983453e-08
-7.636863739e-09
-4.784513122e-07
697.495254
95.21606311
0
0
0
0
0
0
0
-0.0008339508787
369.2903067
-4.773506965e-07
-6.155990491e-09
-0.002441608337
0
0
0
0
0
0
0
0
0
0
0
0
0
0
0
0
0
0
0
0
0
0
0
0
0
0
0
0
0
-4.135983345e-11
-7.668818538e-10
-9.759925323e-10
-1.381031037e-09
-2.156759415e-09
-3.470752808e-09
-5.488607997e-09
-8.263745302e-09
-1.146340522e-08
-1.409488392e-08
-1.493418892e-08
-1.418477234e-08
-1.791395525e-08
-2.084624016e-08
2.758979754e-08
2.642276955e-07
5.910115461e-07
-0.001757132029
-0.0004547442866
85.17665405
281.8246233
158.0677184
0
157.0954245
279.6009393
-0.002697986191
-2.99902475e-09
-0.0009305566083
-4.896894291e-09
-3.119675395e-07
-0.01412385648
0
0
0
0
0
0
0
0
0
0
0
0
0
0
0
0
0
0
0
0
0
0
0
0
0
0
0
0
0
-4.2668646e-09
-2.59800814e-09
-1.685925636e-09
-1.866129709e-09
-2.794309539e-09
-4.575606971e-09
-7.465372313e-09
-1.159406944e-08
-1.635360329e-08
-1.934076577e-08
-1.643231385e-08
-3.77670048e-09
1.106598484e-09
1.584160857e-08
1.354769328e-07
3.019135537e-07
6.995942697e-07
7.455786681e-07
-7.489292384e-09
-0.000290531784
-0.001966397994
-0.0006774385405
-0.04744438141
-0.0006583180445
-0.001917430424
-0.0001896341459
-1.664187732e-08
-9.109542371e-08
3.578651886e-08
-2.231905263e-09
-0.00546205929
0
0
0
0
0
0
0
0
0
0
0
0
0
0
0
0
0
0
0
0
0
0
0
0
0
0
0
0
0
-4.558220427e-09
-2.733504355e-09
-1.86195879e-09
-2.177834136e-09
-3.40811553e-09
-5.77519318e-09
-9.784982979e-09
-1.601287453e-08
-2.422873988e-08
-3.076661026e-08
-2.64304282e-08
1.037681929e-08
2.445258191e-08
1.716042541e-07
3.435257674e-07
-2.336022459e-05
-0.0001090913388
-0.003842296925
-0.002970354061
115.2503912
498.2361608
110.6456952
0
104.0320347
481.034642
75.22462674
-0.006601396974
-0.01150572174
-0.0002025056396
-0.0009502427948
216.1777766
0
0
0
0
0
0
0
0
0
0
0
0
0
0
0
0
0
0
0
0
0
0
0
0
0
0
0
0
0
-1.085283111e-09
-1.26563838e-09
-1.582893974e-09
-2.468241292e-09
-4.242745492e-09
-7.33077243e-09
-1.247360916e-08
-2.095871042e-08
-3.449970825e-08
-5.069227962e-08
-6.003456967e-08
-2.941492486e-08
2.856040004e-08
2.0448482e-07
-1.112299453e-07
9.403951857
43.32202135
0
0
0
0
0
0
0
0
0
0
0
80.45939334
160.7790504
0
0
0
0
0
0
0
0
0
0
0
0
0
0
0
0
0
0
0
0
0
0
0
0
0
0
0
0
0
0
-3.313866884e-10
-7.305276292e-10
-1.631691059e-09
-3.209095729e-09
-5.920788444e-09
-1.015282436e-08
-1.631640557e-08
-2.55154312e-08
-4.237250011e-08
-7.109200081e-08
-1.339895289e-07
-1.544999405e-07
-0.0001379557297
-0.0008204829432
230.6622461
0
0
0
0
0
0
0
0
0
0
0
0
0
0
0
0
0
0
0
0
0
0
0
0
0
0
0
0
0
0
0
0
0
0
0
0
0
0
0
0
0
0
0
0
0
-5.061813183e-11
-5.143313379e-10
-2.011251727e-09
-4.650236245e-09
-9.220988582e-09
-1.61636642e-08
-2.473431335e-08
-3.162353304e-08
-3.650914334e-08
-8.239036769e-08
-2.147504853e-07
-4.42166273e-07
54.75643434
94.92021822
0
0
0
0
0
0
0
0
0
0
0
0
0
0
0
0
0
0
0
0
0
0
0
0
0
0
0
0
0
0
0
0
0
0
0
0
0
0
0
0
0
0
0
0
0
0
1.166175953e-10
-3.51884739e-10
-2.442433057e-09
-6.470298558e-09
-1.41774783e-08
-2.752679085e-08
-4.738099188e-08
-6.839842516e-08
-7.811395994e-08
-4.234176611e-08
-0.00018723094
74.2742702
0
0
0
0
0
0
0
0
0
0
0
0
0
0
0
0
0
0
0
0
0
0
0
0
0
0
0
0
0
0
0
0
0
0
0
0
0
0
0
0
0
0
0
0
0
0
0
0
3.046490362e-10
1.145403076e-11
-2.323460292e-09
-7.206165057e-09
-1.750873291e-08
-3.790073873e-08
-7.525102588e-08
-1.285708008e-07
-1.161913792e-07
-3.317724259e-08
-0.0006807591694
172.9872056
0
0
0
0
0
0
0
0
0
0
0
0
0
0
0
0
0
0
0
0
0
0
0
0
0
0
0
0
0
0
0
0
0
0
0
0
0
0
0
0
0
0
0
0
0
0
0
0
5.492673091e-10
7.352663152e-10
-1.108196311e-09
-5.146854707e-09
-1.39501722e-08
-3.165663511e-08
-6.537212654e-08
-1.693189987e-07
-2.687798279e-07
-3.431061453e-07
97.15187189
0
0
0
0
0
0
0
0
0
0
0
0
0
0
0
0
0
0
0
0
0
0
0
0
0
0
0
0
0
0
0
0
0
0
0
0
0
0
0
0
0
0
0
0
0
0
0
0
0
)
;

boundaryField
{
    lowerWall
    {
        type            calculated;
        value           uniform 0;
    }
    atmosphere
    {
        type            calculated;
        value           nonuniform List<scalar> 
60
(
1.865137436e-10
1.924832035e-10
1.986865001e-10
2.045072102e-10
2.107544434e-10
2.164201814e-10
2.211927541e-10
2.242967482e-10
2.250524337e-10
2.221066113e-10
2.120673564e-10
1.844245532e-10
1.061988954e-10
-1.4044922e-10
-9.340484609e-10
-4.731726307e-09
-5.198986005e-09
-1.419190112e-09
2.575178536e-10
1.254592933e-09
1.84317029e-09
2.129227238e-09
2.162137425e-09
1.974063771e-09
1.603906327e-09
1.108990402e-09
5.586629594e-10
2.966067776e-11
-4.078628971e-10
-6.98235363e-10
-8.1167304e-10
-7.461647406e-10
-5.301941823e-10
-2.142985716e-10
1.349352663e-10
4.496266058e-10
6.690954491e-10
7.560177098e-10
6.976338009e-10
5.105750443e-10
2.445932892e-10
-3.747436495e-11
-2.613100945e-10
-3.563758094e-10
-2.763540584e-10
-3.69364697e-12
4.336783859e-10
9.599457846e-10
1.440660473e-09
1.673366075e-09
1.343260325e-09
-4.135983345e-11
-4.2668646e-09
-4.558220427e-09
-1.085283111e-09
-3.313866884e-10
-5.061813183e-11
1.166175953e-10
3.046490362e-10
5.492673091e-10
)
;
    }
    rightWall
    {
        type            empty;
    }
    leftWall
    {
        type            empty;
    }
    frontAndBack
    {
        type            calculated;
        value           nonuniform List<scalar> 
120
(
1.865137436e-10
3.534624991e-10
1.541175428e-10
-5.442585655e-12
-1.662888624e-10
-3.087715481e-10
-4.30669939e-10
-5.286080962e-10
-5.965085699e-10
-6.322568394e-10
-6.325881698e-10
-5.990624017e-10
-5.461941786e-10
-5.368514367e-10
-7.000483662e-10
-1.177265304e-09
-1.911034132e-09
-2.37976292e-09
-1.715587753e-09
9.604181818e-11
1.039580151e-09
3.188814548e-10
-7.123155908e-10
-2.334208842e-09
-6.968509285e-09
-1.801565435e-08
-3.541512911e-08
-6.047630459e-08
-8.884820051e-08
-4.63470018e-08
-0.0007016256525
0
0
0
0
0
0
0
0
0
0
0
0
0
0
0
0
0
0
0
0
0
0
0
0
0
0
0
0
0
5.492673091e-10
7.352663152e-10
-1.108196311e-09
-5.146854707e-09
-1.39501722e-08
-3.165663511e-08
-6.537212654e-08
-1.693189987e-07
-2.687798279e-07
-3.431061453e-07
97.15187189
0
0
0
0
0
0
0
0
0
0
0
0
0
0
0
0
0
0
0
0
0
0
0
0
0
0
0
0
0
0
0
0
0
0
0
0
0
0
0
0
0
0
0
0
0
0
0
0
0
)
;
    }
}


// ************************************************************************* //
