/*--------------------------------*- C++ -*----------------------------------*\
  =========                 |
  \\      /  F ield         | OpenFOAM: The Open Source CFD Toolbox
   \\    /   O peration     | Website:  https://openfoam.org
    \\  /    A nd           | Version:  6
     \\/     M anipulation  |
\*---------------------------------------------------------------------------*/
FoamFile
{
    version     2.0;
    format      ascii;
    class       surfaceScalarField;
    location    "0.0017";
    object      alphaPhi0.phase1;
}
// * * * * * * * * * * * * * * * * * * * * * * * * * * * * * * * * * * * * * //

dimensions      [0 3 -1 0 0 0 0];

internalField   nonuniform List<scalar> 
7080
(
0
0
0
0
0
0
0
0
0
0
0
0
0
0
0
0
0
0
0
0
0
0
0
0
0
0
0
0
0
0
0
0
0
0
0
0
0
0
0
0
0
0
0
0
0
0
0
0
0
0
0
0
0
0
0
0
0
0
0
0
1.516620287e-20
5.638423451e-22
1.414749283e-20
1.027979565e-21
1.282186763e-20
1.334876162e-21
1.13516783e-20
1.478299307e-21
9.871145235e-21
1.487259795e-21
8.472532347e-21
1.403973187e-21
7.208213738e-21
1.268615203e-21
6.099636672e-21
1.112034272e-21
5.14777986e-21
9.547527081e-22
4.341732186e-21
8.085008e-22
3.665012181e-21
6.788639316e-22
3.099441782e-21
5.674243723e-22
2.627483252e-21
4.735851051e-22
2.233277412e-21
3.95602076e-22
1.903118767e-21
3.313728952e-22
1.625413926e-21
2.787387378e-22
1.390560523e-21
2.35752498e-22
1.19064827e-21
2.00688928e-22
1.019239078e-21
1.721189524e-22
8.710669376e-22
1.488414123e-22
7.418305257e-22
1.298983459e-22
6.279540514e-22
1.145023909e-22
5.264804573e-22
1.020349235e-22
4.349754634e-22
9.199397545e-23
3.514659796e-22
8.399143006e-23
2.742240794e-22
7.771973939e-23
2.018333683e-22
7.298131204e-23
1.326189343e-22
6.948234316e-23
6.604212302e-23
6.744142231e-23
6.617310622e-23
0
0
0
0
0
0
0
0
0
0
0
0
0
0
0
0
0
0
0
0
0
0
0
0
0
0
0
0
0
0
0
0
0
0
0
0
0
0
0
0
0
0
0
0
0
0
0
0
0
0
0
0
0
0
0
0
0
0
0
0
1.563033987e-20
1.227625676e-21
1.445438919e-20
2.213625826e-21
1.296529058e-20
2.833546405e-21
1.136063864e-20
3.091470722e-21
9.787858458e-21
3.067047782e-21
8.337174239e-21
2.860335553e-21
7.051632718e-21
2.558635252e-21
5.942355002e-21
2.224965086e-21
5.001527878e-21
1.898564925e-21
4.212095264e-21
1.600502899e-21
3.553572558e-21
1.339580182e-21
3.00560247e-21
1.117335303e-21
2.549500191e-21
9.31356039e-22
2.169048193e-21
7.775251834e-22
1.850484583e-21
6.511895315e-22
1.582427666e-21
5.478924586e-22
1.355496929e-21
4.636150542e-22
1.162078278e-21
3.949348701e-22
9.95961525e-22
3.38974863e-22
8.521238562e-22
2.933935131e-22
7.2643456e-22
2.562805555e-22
6.154865763e-22
2.261129974e-22
5.164395e-22
2.016661268e-22
4.269729117e-22
1.81973624e-22
3.451942849e-22
1.662730825e-22
2.694856468e-22
1.539787265e-22
1.983343964e-22
1.446208823e-22
1.305780125e-22
1.379529437e-22
6.477380494e-23
1.334145141e-22
1.31476234e-22
0
0
0
0
0
0
0
0
0
0
0
0
0
0
0
0
0
0
0
0
0
0
0
0
0
0
0
0
0
0
0
0
0
0
0
0
0
0
0
0
0
0
0
0
0
0
0
0
0
0
0
0
0
0
0
0
0
0
0
0
1.661634029e-20
2.133136263e-21
1.507430996e-20
3.765235826e-21
1.322321509e-20
4.694178339e-21
1.133621592e-20
4.986890535e-21
9.58114633e-21
4.829161337e-21
8.035474065e-21
4.411656507e-21
6.717962691e-21
3.880658684e-21
5.615954897e-21
3.330567586e-21
4.703465929e-21
2.814017547e-21
3.95117263e-21
2.355278322e-21
3.331327712e-21
1.961578523e-21
2.819623253e-21
1.630904222e-21
2.395669385e-21
1.356950071e-21
2.042712562e-21
1.13189957e-21
1.747187538e-21
9.479514442e-22
1.498150292e-21
7.979888972e-22
1.286816759e-21
6.758695315e-22
1.106118288e-21
5.764322417e-22
9.503801945e-22
4.954426729e-22
8.15010907e-22
4.294565258e-22
6.96267013e-22
3.757097746e-22
5.910397179e-22
3.319873664e-22
4.96747002e-22
2.96531129e-22
4.112723766e-22
2.67947316e-22
3.328999365e-22
2.45143015e-22
2.601278043e-22
2.272638965e-22
1.916664608e-22
2.136913884e-22
1.260395869e-22
2.037930505e-22
6.283552382e-23
1.976947665e-22
1.943149423e-22
0
0
0
0
0
0
0
0
0
0
0
0
0
0
0
0
0
0
0
0
0
0
0
0
0
0
0
0
0
0
0
0
0
0
0
0
0
0
0
0
0
0
0
0
0
0
0
0
0
0
0
0
0
0
0
0
0
0
0
0
1.824843992e-20
3.539721981e-21
1.600325242e-20
6.020123372e-21
1.351592728e-20
7.190961432e-21
1.117848679e-20
7.33265297e-21
9.163641424e-21
6.850905812e-21
7.504476242e-21
6.076394761e-21
6.167871639e-21
5.221672083e-21
5.099404804e-21
4.402554319e-21
4.244726704e-21
3.671540482e-21
3.557472858e-21
3.044915842e-21
3.00065338e-21
2.520430052e-21
2.545669102e-21
2.08766389e-21
2.1706189e-21
1.733545271e-21
1.858764418e-21
1.44510798e-21
1.597224991e-21
1.210660399e-21
1.376030935e-21
1.020197995e-21
1.187379458e-21
8.653928899e-22
1.02512872e-21
7.394483688e-22
8.843940532e-22
6.368689248e-22
7.612641489e-22
5.532527686e-22
6.525446048e-22
4.850840307e-22
5.555834847e-22
4.295704568e-22
4.681631845e-22
3.844970404e-22
3.884680756e-22
3.481171319e-22
3.150208212e-22
3.190609879e-22
2.465552927e-22
2.96269705e-22
1.81768123e-22
2.788920857e-22
1.199413058e-22
2.664923145e-22
5.945569664e-23
2.580731106e-22
2.543751911e-22
0
0
0
0
0
0
0
0
0
0
0
0
0
0
0
0
0
0
0
0
0
0
0
0
0
0
0
0
0
0
0
0
0
0
0
0
0
0
0
0
0
0
0
0
0
0
0
0
0
0
0
0
0
0
0
0
0
0
0
0
2.072884109e-20
6.005733644e-21
1.717409013e-20
9.584339208e-21
1.365761861e-20
1.071656486e-20
1.069673958e-20
1.030145929e-20
8.389130144e-21
9.165103481e-21
6.649753472e-21
7.821084414e-21
5.34875386e-21
6.526901402e-21
4.368390835e-21
5.386267769e-21
3.618102015e-21
4.424534173e-21
3.032987059e-21
3.632265658e-21
2.567887142e-21
2.987437304e-21
2.191550452e-21
2.46565291e-21
1.882181602e-21
2.044363512e-21
1.624316791e-21
1.70423701e-21
1.406762567e-21
1.429316944e-21
1.221225825e-21
1.206686175e-21
1.061434908e-21
1.026007445e-21
9.225492625e-22
8.790518896e-22
8.007778934e-22
7.592939198e-22
6.930953922e-22
6.615633809e-22
5.970310225e-22
5.817706226e-22
5.105100664e-22
5.166807546e-22
4.317832638e-22
4.637403469e-22
3.594119263e-22
4.209382067e-22
2.922295384e-22
3.866976806e-22
2.291776656e-22
3.597860022e-22
1.693683493e-22
3.393059549e-22
1.115221041e-22
3.243508999e-22
5.57577725e-23
3.150901672e-22
3.100136226e-22
0
0
0
0
0
0
0
0
0
0
0
0
0
0
0
0
0
0
0
0
0
0
0
0
0
0
0
0
0
0
0
0
0
0
0
0
0
0
0
0
0
0
0
0
0
0
0
0
0
0
0
0
0
0
0
0
0
0
0
0
2.430744711e-20
1.090148069e-20
1.83063159e-20
1.559722431e-20
1.324251325e-20
1.579046117e-20
9.560384067e-21
1.399163626e-20
7.045111065e-21
1.168671984e-20
5.355570569e-21
9.515639206e-21
4.208120388e-21
7.678305309e-21
3.406657224e-21
6.190860296e-21
2.82583356e-21
5.007865487e-21
2.388158796e-21
4.072006961e-21
2.046102741e-21
3.331243439e-21
1.77026109e-21
2.743013475e-21
1.542055155e-21
2.273898667e-21
1.349396723e-21
1.898061855e-21
1.184131821e-21
1.595598139e-21
1.040547128e-21
1.351153056e-21
9.144793536e-22
1.152836919e-21
8.027913073e-22
9.914063519e-22
7.030473765e-22
8.596436955e-22
6.133026344e-22
7.518944986e-22
5.319411639e-22
6.637148734e-22
4.575696733e-22
5.916066054e-22
3.889811231e-22
5.328134559e-22
3.251714059e-22
4.851673597e-22
2.653178698e-22
4.469701767e-22
2.086976163e-22
4.169081351e-22
1.54413297e-22
3.939183821e-22
1.022613777e-22
3.774802835e-22
5.068122399e-23
3.662944093e-22
3.61361475e-22
0
0
0
0
0
0
0
0
0
0
0
0
0
0
0
0
0
0
0
0
0
0
0
0
0
0
0
0
0
0
0
0
0
0
0
0
0
0
0
0
0
0
0
0
0
0
0
0
0
0
0
0
0
0
0
0
0
0
0
0
2.900319099e-20
2.200367485e-20
1.849955253e-20
2.611422998e-20
1.144368834e-20
2.285759856e-20
7.25546781e-21
1.818831148e-20
4.874030238e-21
1.407444688e-20
3.518236672e-21
1.087621227e-20
2.720675457e-21
8.479562804e-21
2.223662313e-21
6.69076314e-21
1.889975034e-21
5.343852591e-21
1.647395319e-21
4.316465813e-21
1.457872722e-21
3.522352636e-21
1.301146283e-21
2.901112561e-21
1.166218368e-21
2.410031451e-21
1.046932975e-21
2.018405487e-21
9.396867382e-22
1.703770699e-21
8.422310071e-22
1.44941309e-21
7.530487683e-22
1.242715361e-21
6.710286509e-22
1.074034745e-21
5.952981901e-22
9.35929178e-22
5.251229972e-22
8.226094361e-22
4.59832896e-22
7.295456831e-22
3.987765313e-22
6.531781579e-22
3.413350186e-22
5.907043656e-22
2.869742229e-22
5.399187975e-22
2.352558342e-22
4.990893371e-22
1.857078569e-22
4.66856525e-22
1.379751983e-22
4.422371514e-22
9.107550895e-23
4.241917188e-22
4.574828422e-23
4.130217265e-22
4.068723936e-22
0
0
0
0
0
0
0
0
0
0
0
0
0
0
0
0
0
0
0
0
0
0
0
0
0
0
0
0
0
0
0
0
0
0
0
0
0
0
0
0
0
0
0
-5.719277036e-20
0
-3.641537506e-20
0
-4.903973489e-20
0
0
0
0
0
0
0
0
0
0
0
0
3.311374601e-20
5.0987698e-20
1.524292049e-20
4.399306934e-20
6.77440119e-21
3.133535727e-20
3.141603373e-21
2.182865815e-20
1.675795395e-21
1.554594916e-20
1.121587202e-21
1.143471465e-20
9.318758803e-22
8.67256265e-21
8.767516504e-22
6.748441801e-21
8.625882508e-22
5.3600364e-21
8.532821816e-22
4.327416532e-21
8.366325828e-22
3.540386366e-21
8.100651639e-22
2.928879348e-21
7.745924235e-22
2.446559299e-21
7.322981461e-22
2.061631434e-21
6.853291205e-22
1.751557948e-21
6.355332873e-22
1.499922179e-21
5.843681246e-22
1.294498212e-21
5.329230774e-22
1.126020324e-21
4.819784533e-22
9.873687447e-22
4.320592254e-22
8.730150551e-22
3.834653656e-22
7.786317177e-22
3.363027428e-22
7.008123893e-22
2.905494373e-22
6.36868011e-22
2.461447591e-22
5.846755133e-22
2.030230261e-22
5.425646329e-22
1.610884738e-22
5.092386362e-22
1.199297641e-22
4.836291153e-22
7.990552166e-23
4.652732598e-22
3.959894454e-23
4.526946937e-22
4.471820572e-22
0
0
0
0
0
0
0
0
0
0
0
0
0
0
0
0
0
0
0
0
0
0
0
0
0
0
0
0
0
0
0
0
0
0
0
-5.618461263e-20
-1.383785852e-19
-1.156322596e-19
1.475526313e-21
5.344032835e-20
7.971029041e-20
5.319646254e-20
2.077739529e-20
1.749203768e-21
-1.26243598e-20
-3.001790771e-21
-7.223869839e-20
1.058672454e-20
1.550870523e-21
7.325902751e-20
1.197275608e-19
9.37633521e-20
0
-1.973577072e-20
0
0
0
0
0
0
2.611911851e-20
1.379599005e-19
2.585207995e-21
6.753573405e-20
-2.732297758e-21
3.666150269e-20
-3.14110534e-21
2.224432669e-20
-2.435439326e-21
1.484537594e-20
-1.640564758e-21
1.064362288e-20
-9.922448538e-22
8.027100399e-21
-5.116538377e-22
6.270044651e-21
-1.700315971e-22
5.020132687e-21
6.625208187e-23
4.092520729e-21
2.251255238e-22
3.382677733e-21
3.277451304e-22
2.827270078e-21
3.896646013e-22
2.385533721e-21
4.222246405e-22
2.029865328e-21
4.336933633e-22
1.740790998e-21
4.301093493e-22
1.504119994e-21
4.158902258e-22
1.309250093e-21
3.942715073e-22
1.148105984e-21
3.67624784e-22
1.014446442e-21
3.376758814e-22
9.033932537e-22
3.056460435e-22
8.111014303e-22
2.723583791e-22
7.345228578e-22
2.383569345e-22
6.712349236e-22
2.040338826e-22
6.193131404e-22
1.696970401e-22
5.77231501e-22
1.354789478e-22
5.437772944e-22
1.015739106e-22
5.180845948e-22
6.732696351e-23
4.991356364e-22
3.408630185e-23
4.874459364e-22
4.809207087e-22
0
0
0
0
0
0
0
0
0
0
0
0
0
0
0
0
0
0
0
0
0
0
0
0
0
0
0
0
0
0
0
0
0
0
6.723970586e-20
2.536732701e-20
-3.264967436e-20
-1.574736407e-20
1.231660426e-21
1.955913543e-20
2.826303118e-20
2.616842014e-20
1.60264007e-20
1.399110332e-20
9.641556485e-22
1.206876467e-20
-9.566394863e-21
2.112233495e-20
2.205519545e-20
4.163704402e-20
6.957211561e-20
4.623072862e-20
2.417850151e-20
2.564532684e-20
8.814950328e-20
6.716379315e-20
0
0
-4.595162154e-20
0
-4.430504745e-20
1.362921067e-19
-2.82890246e-20
5.15255783e-20
-1.714947376e-20
2.55285861e-20
-1.054005592e-20
1.564032493e-20
-6.637192636e-21
1.094656864e-20
-4.257087243e-21
8.266524964e-21
-2.749300521e-21
6.521569389e-21
-1.761565905e-21
5.284024595e-21
-1.097643556e-21
4.357539266e-21
-6.435908684e-22
3.639534197e-21
-3.302821857e-22
3.070263405e-21
-1.139912269e-22
2.611761303e-21
3.399623556e-23
2.238246686e-21
1.331502786e-22
1.931342403e-21
1.970223591e-22
1.677483177e-21
2.352394663e-22
1.466400919e-21
2.547460962e-22
1.290177762e-21
2.606119651e-22
1.14262328e-21
2.565716086e-22
1.018845323e-21
2.453840437e-22
9.149458718e-22
2.29067471e-22
8.277991436e-22
2.090704545e-22
7.548887282e-22
1.864351407e-22
6.941869386e-22
1.619522432e-22
6.440633878e-22
1.362428415e-22
6.03214013e-22
1.097862398e-22
5.706137149e-22
8.262495222e-23
5.453791518e-22
5.563727069e-23
5.27236476e-22
2.756106676e-23
5.146519669e-22
5.092197899e-22
0
0
0
0
0
0
0
0
0
0
0
0
0
0
0
0
0
0
0
0
0
0
0
0
0
0
0
0
0
0
-5.651395658e-20
0
2.569667332e-20
6.625697602e-20
2.612501432e-20
2.493487711e-20
2.656825208e-21
7.717741346e-21
7.840945006e-21
1.437479036e-20
1.60857141e-20
1.792531851e-20
1.410406186e-20
1.597542356e-20
1.001772578e-20
1.615964017e-20
1.094831407e-20
2.019691011e-20
2.664887973e-20
2.593252171e-20
4.898671298e-20
2.388412526e-20
6.569696689e-20
8.935101514e-21
1.521343381e-19
-1.927977026e-20
3.181864348e-19
-1.473030118e-19
-3.738692394e-19
0
-1.290715732e-19
-1.085107745e-19
-5.428601676e-20
-2.32570461e-20
-2.703773445e-20
-1.715853964e-21
-1.523381182e-20
3.839837331e-21
-9.317236338e-21
5.032704029e-21
-6.002042715e-21
4.953395715e-21
-3.986845176e-21
4.507931642e-21
-2.688051273e-21
3.986408405e-21
-1.815648593e-21
3.486037833e-21
-1.212861596e-21
3.037462751e-21
-7.887843212e-22
2.646788805e-21
-4.875058346e-22
2.311019227e-21
-2.729080141e-22
2.024142826e-21
-1.207089748e-22
1.779600555e-21
-1.405989634e-23
1.57125274e-21
5.901632751e-23
1.393699987e-21
1.071915929e-22
1.242333765e-21
1.368340067e-22
1.113277024e-21
1.526721693e-22
1.003291287e-21
1.582372995e-22
9.09679459e-22
1.561570537e-22
8.301988238e-22
1.483686731e-22
7.629878592e-22
1.363115776e-22
7.065086474e-22
1.211028669e-22
6.59498783e-22
1.036425504e-22
6.209264183e-22
8.455166683e-23
5.899423512e-22
6.448227557e-23
5.659582046e-22
4.305276869e-23
5.481026478e-22
2.212888175e-23
5.371615851e-22
5.309027904e-22
0
0
0
0
0
0
0
0
0
0
0
0
0
0
0
0
0
0
0
0
0
0
0
0
0
0
0
0
0
0
-1.169443376e-19
-1.407604038e-19
-1.562542535e-20
-3.506366263e-20
8.907878921e-21
3.980233053e-22
9.313874301e-21
7.309314899e-21
1.139147326e-20
1.229674857e-20
1.413581939e-20
1.51815594e-20
1.42882787e-20
1.58234122e-20
1.405499585e-20
1.639375419e-20
1.668392584e-20
1.756926085e-20
2.460048372e-20
1.801469314e-20
3.40376899e-20
1.444090171e-20
3.748209606e-20
5.487667347e-21
2.411109829e-20
-5.91328052e-21
0
-8.288360752e-21
-1.436920892e-20
0
-4.381784702e-20
-7.907231409e-20
-3.274482509e-20
-3.433022598e-20
-2.14820436e-20
-1.297737937e-20
-1.404094528e-20
-3.599799511e-21
-9.396544867e-21
3.895589942e-22
-6.447506874e-21
2.005341814e-21
-4.508368413e-21
2.569533214e-21
-3.188421945e-21
2.667005014e-21
-2.264223698e-21
2.562237454e-21
-1.603535522e-21
2.377083292e-21
-1.124553951e-21
2.168073791e-21
-7.743822404e-22
1.961104406e-21
-5.174502625e-22
1.76747052e-21
-3.290568186e-22
1.591469233e-21
-1.916126474e-22
1.43406426e-21
-9.234987544e-23
1.294677389e-21
-2.186516473e-23
1.172067821e-21
2.684827248e-23
1.064766022e-21
5.906035687e-23
9.712832107e-22
7.875665307e-23
8.9021081e-22
8.894609193e-23
8.202633578e-22
9.18894741e-23
7.602963134e-22
8.930170458e-23
7.093113522e-22
8.253050432e-23
6.664522055e-22
7.265849369e-23
6.309952585e-22
6.056751265e-23
6.023491735e-22
4.662671982e-23
5.799394784e-22
3.211171474e-23
5.637623466e-22
1.587007929e-23
5.523260815e-22
5.475167778e-22
0
0
0
0
0
0
0
0
0
0
0
0
0
0
0
0
0
0
0
0
0
0
0
0
0
0
0
0
0
0
5.209608187e-20
-1.946383795e-21
1.983626096e-20
-2.807309288e-21
1.581917058e-20
4.410810918e-21
1.430130804e-20
8.823826703e-21
1.42762841e-20
1.231995409e-20
1.477767219e-20
1.467887792e-20
1.485862072e-20
1.574081788e-20
1.52305025e-20
1.602043557e-20
1.712935814e-20
1.566996301e-20
2.102669227e-20
1.41162728e-20
2.508445542e-20
1.038080733e-20
2.608114809e-20
4.488678614e-21
2.173601802e-20
-1.573044662e-21
1.74068248e-20
-3.964527442e-21
5.08545697e-20
-2.015772116e-21
9.242409089e-22
-2.914935571e-20
-1.13919778e-20
-2.201648001e-20
-1.210446374e-20
-1.226600576e-20
-1.005158674e-20
-5.653144928e-21
-7.78076204e-21
-1.88148187e-21
-5.883315474e-21
1.077679318e-22
-4.410896572e-21
1.097010942e-21
-3.293189546e-21
1.549189904e-21
-2.44937786e-21
1.718311807e-21
-1.812544991e-21
1.740145629e-21
-1.33152337e-21
1.686978993e-21
-9.68016126e-22
1.597570025e-21
-6.934515277e-22
1.49292844e-21
-4.864618159e-22
1.384542825e-21
-3.309995188e-22
1.278692498e-21
-2.14959427e-22
1.178739926e-21
-1.291669821e-22
1.08638064e-21
-6.663453871e-23
1.002341465e-21
-2.20120311e-23
9.267844264e-22
8.809186981e-24
8.595454005e-22
2.897904754e-23
8.002812909e-22
4.090452318e-23
7.485636137e-22
4.644254693e-23
7.039396261e-22
4.707355726e-23
6.659688711e-22
4.401241759e-23
6.342391746e-22
3.815780829e-23
6.083636035e-22
3.0449588e-23
5.881054332e-22
2.067545792e-23
5.728114126e-22
1.106076725e-23
5.635523201e-22
5.58043841e-22
0
0
0
0
0
0
0
0
0
0
0
0
0
0
0
0
0
0
0
0
0
0
0
0
0
0
0
0
0
0
5.12351556e-20
7.243630854e-20
2.705438078e-20
2.136779545e-20
2.023218606e-20
1.122659829e-20
1.779743518e-20
1.125287888e-20
1.663520767e-20
1.347757616e-20
1.583961191e-20
1.547037225e-20
1.513823822e-20
1.643817527e-20
1.488002969e-20
1.62757472e-20
1.55756677e-20
1.497394234e-20
1.729122655e-20
1.24020591e-20
1.919232639e-20
8.480913581e-21
2.001942451e-20
3.662507617e-21
1.934453494e-20
-8.992453333e-22
1.935557985e-20
-3.97962565e-21
2.37209859e-20
-6.385159808e-21
8.057116166e-21
-1.349512252e-20
-1.641503202e-21
-1.232216569e-20
-5.491602878e-21
-8.418884428e-21
-6.27992361e-21
-4.866987904e-21
-5.791512124e-21
-2.371532514e-21
-4.894072398e-21
-7.909418618e-22
-3.958717528e-21
1.606571135e-22
-3.124067619e-21
7.137335526e-22
-2.427544001e-21
1.021125249e-21
-1.865711574e-21
1.177768013e-21
-1.420932342e-21
1.241765065e-21
-1.072657694e-21
1.248967185e-21
-8.018371104e-22
1.221877354e-21
-5.923121551e-22
1.174869511e-21
-4.309520834e-22
1.117245959e-21
-3.073186921e-22
1.055062823e-21
-2.132061695e-22
9.922520464e-22
-1.421915749e-22
9.313341495e-22
-8.925104281e-23
8.738814582e-22
-5.04549347e-23
8.208287876e-22
-2.273862899e-23
7.726845557e-22
-3.71945372e-24
7.296794202e-22
8.471781158e-24
6.918687553e-22
1.534386087e-23
6.592020577e-22
1.813685526e-23
6.315679381e-22
1.789962864e-23
6.088408595e-22
1.515556729e-23
5.907814209e-22
1.141637368e-23
5.776872006e-22
5.552279685e-24
5.681553964e-22
5.643230163e-22
0
0
0
0
0
0
0
0
0
0
0
0
0
0
0
0
0
0
0
0
0
0
0
0
0
0
0
0
-7.027048021e-20
0
1.666431611e-22
1.993984327e-21
1.691318398e-20
4.613189446e-21
2.025846696e-20
7.872153656e-21
2.002213275e-20
1.148094133e-20
1.862800399e-20
1.486456361e-20
1.680741517e-20
1.728434184e-20
1.49758104e-20
1.826436755e-20
1.357822502e-20
1.767108018e-20
1.300378469e-20
1.555006891e-20
1.33700813e-20
1.204033902e-20
1.437392069e-20
7.482977992e-21
1.545767185e-20
2.582903405e-21
1.62641549e-20
-1.703936371e-21
1.695004598e-20
-4.66568668e-21
1.661102361e-20
-6.051745428e-21
9.230072936e-21
-6.120572128e-21
2.261778217e-21
-5.359223906e-21
-1.939706463e-21
-4.221851297e-21
-3.78446835e-21
-3.025860394e-21
-4.210921523e-21
-1.948024785e-21
-3.942473503e-21
-1.06174112e-21
-3.405641138e-21
-3.780438407e-22
-2.816675981e-21
1.232778569e-22
-2.270901275e-21
4.741431493e-22
-1.801714531e-21
7.075971692e-22
-1.413730262e-21
8.529826396e-22
-1.099747541e-21
9.343510983e-22
-8.488449476e-22
9.704860614e-22
-6.49935734e-22
9.755935729e-22
-4.931352252e-22
9.601757402e-22
-3.701294582e-22
9.318599237e-22
-2.741240845e-22
8.961034226e-22
-1.996442679e-22
8.567550131e-22
-1.423037024e-22
8.1648729e-22
-9.859917967e-23
7.771227615e-22
-6.574376455e-23
7.398769672e-22
-4.153010834e-23
7.055387764e-22
-2.419492665e-23
6.746024934e-22
-1.229025827e-23
6.473602648e-22
-4.590213977e-24
6.239656449e-22
-1.598188512e-25
6.044563944e-22
2.061347346e-24
5.889400718e-22
1.884578146e-24
5.769873074e-22
1.719891174e-24
5.699195088e-22
5.654328688e-22
0
0
0
0
0
0
0
0
0
0
0
0
0
0
0
0
0
0
0
0
0
0
0
0
0
0
0
0
-6.827649556e-20
0
2.785848291e-21
-6.907438349e-20
2.017214811e-20
-1.278168249e-20
2.386725456e-20
4.168171619e-21
2.340575498e-20
1.193229921e-20
2.104778212e-20
1.721260138e-20
1.778744081e-20
2.053629159e-20
1.438252299e-20
2.166382988e-20
1.145721366e-20
2.059619194e-20
9.494054728e-21
1.75181647e-20
8.812720208e-21
1.272922611e-20
9.47384601e-21
6.827929764e-21
1.117083199e-20
8.93210276e-22
1.33024045e-20
-3.830481732e-21
1.556398716e-20
-6.926920566e-21
1.654219686e-20
-7.030071663e-21
9.991421037e-21
4.214370224e-22
3.399150897e-21
1.225790263e-21
-7.437155595e-22
-8.546286013e-23
-2.706632752e-21
-1.068411942e-21
-3.324637809e-21
-1.334494299e-21
-3.258776211e-21
-1.131169898e-21
-2.904319422e-21
-7.353205705e-22
-2.465810677e-21
-3.174585977e-22
-2.037447246e-21
4.399235615e-23
-1.65632904e-21
3.250303625e-22
-1.33236181e-21
5.278331314e-22
-1.063612573e-21
6.646457776e-22
-8.437374177e-22
7.49847092e-22
-6.653535783e-22
7.966094033e-22
-5.214510393e-22
8.158055355e-22
-4.058859443e-22
8.159315395e-22
-3.134725061e-22
8.034076459e-22
-2.399119899e-22
7.829776702e-22
-1.816682186e-22
7.580888559e-22
-1.358449852e-22
7.312091763e-22
-1.000819548e-22
7.040839087e-22
-7.246638099e-23
6.779296291e-22
-5.143716535e-23
6.535846166e-22
-3.568487791e-23
6.316140591e-22
-2.409945536e-23
6.123892759e-22
-1.567615053e-23
5.961543939e-22
-9.891416984e-24
5.829804325e-22
-5.183211959e-24
5.73401705e-22
-2.766757346e-24
5.660831019e-22
5.633984364e-22
0
0
0
0
0
0
0
0
0
0
0
0
0
0
0
0
0
0
0
0
0
0
0
0
0
0
0
0
0
0
5.907854922e-20
2.819809753e-21
3.712200218e-20
9.168675889e-21
3.163138209e-20
9.64755288e-21
2.868605714e-20
1.486701335e-20
2.437147226e-20
2.151694029e-20
1.891497907e-20
2.598376968e-20
1.331488505e-20
2.725989764e-20
8.379186382e-21
2.553410296e-20
4.705116138e-21
2.119901292e-20
2.911423866e-21
1.453036318e-20
3.539126507e-21
6.21215023e-21
6.44713998e-21
-2.008128683e-21
1.020596564e-20
-7.58292989e-21
1.546083605e-20
-1.217314979e-20
2.399370548e-20
-1.556745517e-20
1.079577428e-20
1.361750311e-20
2.087897756e-21
9.92618359e-21
-1.726664629e-21
3.721322885e-21
-2.972715123e-21
1.706433686e-22
-3.121313385e-21
-1.191735927e-21
-2.862926883e-21
-1.394284326e-21
-2.486457451e-21
-1.115525471e-21
-2.104359716e-21
-7.025214834e-22
-1.75640924e-21
-3.063207174e-22
-1.453526262e-21
2.022661568e-23
-1.19554917e-21
2.682896018e-22
-9.784112576e-22
4.462247214e-22
-7.969750934e-22
5.673726167e-22
-6.461574572e-22
6.449570227e-22
-5.213250346e-22
6.90308823e-22
-4.184098251e-22
7.124882346e-22
-3.339024934e-22
7.184804885e-22
-2.648008036e-22
7.135444391e-22
-2.085478868e-22
7.015828154e-22
-1.629702635e-22
6.85456294e-22
-1.262362341e-22
6.672444321e-22
-9.681138341e-23
6.484461913e-22
-7.340773248e-23
6.301347567e-22
-5.490966093e-23
6.130725595e-22
-4.03343283e-23
5.977798611e-22
-2.885012077e-23
5.846162593e-22
-1.947014442e-23
5.739287234e-22
-1.250180651e-23
5.654357205e-22
-5.451431307e-24
5.606866728e-22
5.573079008e-22
0
0
0
0
0
0
0
0
0
0
0
0
0
0
0
0
0
0
0
0
0
0
0
0
0
0
0
0
0
0
6.542741545e-20
1.345310693e-19
3.760087922e-20
3.699030711e-20
3.685084261e-20
1.03940016e-20
3.533598415e-20
1.63660318e-20
2.883830166e-20
2.799926689e-20
2.019110705e-20
3.462127689e-20
1.158909043e-20
3.586035008e-20
4.044096321e-21
3.308500753e-20
-1.963533589e-21
2.721495665e-20
-5.406789073e-21
1.798228138e-20
-4.681152411e-21
5.484944535e-21
8.723387876e-22
-7.542474681e-21
5.615745734e-21
-1.231002566e-20
1.206653072e-20
-1.863806727e-20
5.317866365e-20
0
7.104454936e-21
5.967918525e-20
-4.116963081e-21
2.113392964e-20
-5.277344114e-21
4.869635997e-21
-4.335094438e-21
-7.813608741e-22
-3.32386177e-21
-2.210659754e-21
-2.584168035e-21
-2.139981634e-21
-2.073453479e-21
-1.630934851e-21
-1.708158944e-21
-1.071497489e-21
-1.429861912e-21
-5.875537127e-22
-1.205463274e-21
-2.065413206e-22
-1.017614057e-21
7.849591972e-23
-8.57263365e-22
2.842816647e-22
-7.193906791e-22
4.281933552e-22
-6.008056676e-22
5.253155442e-22
-4.99145624e-22
5.877938159e-22
-4.124175611e-22
6.250768732e-22
-3.38838554e-22
6.443502393e-22
-2.767624276e-22
6.51030118e-22
-2.246743981e-22
6.491503863e-22
-1.81182136e-22
6.417122024e-22
-1.450344748e-22
6.309251114e-22
-1.151228087e-22
6.184207447e-22
-9.046993921e-23
6.053904779e-22
-7.020235925e-23
5.927039074e-22
-5.349792132e-23
5.809867048e-22
-3.953766547e-23
5.707176178e-22
-2.796314727e-23
5.621274025e-22
-1.725084579e-23
5.559335258e-22
-8.830211757e-24
5.507861323e-22
5.491667412e-22
0
0
0
0
0
0
0
0
0
0
0
0
0
0
0
0
0
0
0
0
0
0
0
0
0
0
0
0
0
0
-9.545702465e-20
0
1.100457365e-20
-6.946889869e-20
4.282287282e-20
-2.145260642e-20
4.696921929e-20
1.219201831e-20
3.546031161e-20
3.948639032e-20
2.143018025e-20
4.864079673e-20
8.813747921e-21
4.847672987e-20
-1.825954614e-21
4.373062217e-20
-1.119620886e-20
3.65884469e-20
-1.790412592e-20
2.468408219e-20
-1.770857164e-20
5.330537551e-21
-3.89521219e-21
-2.131820231e-20
-7.122959081e-22
-1.549529629e-20
0
9.922657392e-20
-6.207150958e-21
0
-3.144080031e-20
8.492919743e-20
-2.038125701e-20
1.0066175e-20
-1.092834093e-20
-4.594929675e-21
-5.764393349e-21
-5.955707598e-21
-3.253183617e-21
-4.730220226e-21
-2.075121256e-21
-3.324566835e-21
-1.514016135e-21
-2.19713323e-21
-1.224215152e-21
-1.365304097e-21
-1.048849524e-21
-7.661114573e-22
-9.204260331e-22
-3.375576235e-22
-8.118283133e-22
-3.222495509e-23
-7.133516758e-22
1.840479211e-22
-6.222684824e-22
3.356731502e-22
-5.383274038e-22
4.401949697e-22
-4.618625671e-22
5.103806517e-22
-3.931441854e-22
5.555871963e-22
-3.32158685e-22
5.827506951e-22
-2.786421592e-22
5.970156621e-22
-2.321125724e-22
6.022342367e-22
-1.919692366e-22
6.012739959e-22
-1.575388413e-22
5.962909073e-22
-1.281530665e-22
5.888884766e-22
-1.031565188e-22
5.802752757e-22
-8.19195618e-23
5.713403718e-22
-6.376699969e-23
5.627614488e-22
-4.812788929e-23
5.550031087e-22
-3.415702394e-23
5.485456415e-22
-2.239823102e-23
5.431075692e-22
-1.044961112e-23
5.404413986e-22
5.376333359e-22
0
0
0
0
0
0
0
0
0
0
0
0
0
0
0
0
0
0
0
0
0
0
0
0
0
0
0
0
0
0
-3.823856705e-20
0
5.902086589e-20
0
7.646749741e-20
-3.892081507e-20
7.426359125e-20
1.436419971e-20
4.46147179e-20
6.910792615e-20
2.126611335e-20
7.198297533e-20
4.067640282e-21
6.568214801e-20
-8.968129941e-21
5.677554234e-20
-2.310057352e-20
5.072289415e-20
-3.725767049e-20
3.887277421e-20
-4.435731145e-20
1.247551138e-20
1.927693822e-21
-6.755538816e-20
1.140095743e-19
-1.275548129e-19
3.25565439e-19
0
-3.522362841e-19
0
-1.063038223e-19
-1.610219413e-19
-3.504236175e-20
-6.121071704e-20
-1.228911883e-20
-2.736342899e-20
-4.538906043e-21
-1.371817277e-20
-1.847530156e-21
-7.430909238e-21
-9.476876608e-22
-4.231537451e-21
-6.821870233e-22
-2.468169544e-21
-6.250224917e-22
-1.426841621e-21
-6.202956932e-22
-7.743521318e-22
-6.15093365e-22
-3.456244524e-22
-5.955554362e-22
-5.413697768e-23
-5.617264473e-22
1.482536977e-22
-5.177466557e-22
2.900577724e-22
-4.681417278e-22
3.892524937e-22
-4.166560224e-22
4.577955016e-22
-3.659806773e-22
5.040273137e-22
-3.178937263e-22
5.339413621e-22
-2.734235843e-22
5.519696185e-22
-2.330728038e-22
5.614188794e-22
-1.969523339e-22
5.648004534e-22
-1.649412717e-22
5.640149212e-22
-1.367662584e-22
5.60523488e-22
-1.120914312e-22
5.554345987e-22
-9.049848459e-23
5.496051636e-22
-7.152533132e-23
5.436656794e-22
-5.458536475e-23
5.381362884e-22
-3.959509608e-23
5.33204593e-22
-2.50643935e-23
5.29908588e-22
-1.325768191e-23
5.259301761e-22
5.259946543e-22
0
0
0
0
0
0
0
0
0
0
0
0
0
0
0
0
0
0
0
0
0
0
0
0
0
0
0
0
0
0
0
0
0
0
1.297525123e-19
1.81385166e-20
1.290073179e-19
1.507336024e-20
4.748976704e-20
1.506056246e-19
1.496528607e-20
1.045090585e-19
-4.838965296e-21
8.550240569e-20
-1.502077822e-20
6.697157917e-20
-3.495069349e-20
7.065588743e-20
-6.365493336e-20
6.758969518e-20
-1.243882111e-19
7.327537447e-20
-5.807173082e-20
0
1.683205816e-20
0
0
0
0
0
-6.49259934e-21
-1.523014457e-19
-1.195072914e-21
-6.653012324e-20
1.356137247e-21
-2.99387617e-20
1.748357353e-21
-1.413023601e-20
1.351841732e-21
-7.049618904e-21
8.156802278e-22
-3.70702925e-21
3.591408746e-22
-2.020700289e-21
2.746701649e-23
-1.102343141e-21
-1.915680189e-22
-5.610879285e-22
-3.236058927e-22
-2.183073297e-22
-3.931647614e-22
1.151831842e-23
-4.199223748e-22
1.717595672e-22
-4.185519295e-22
2.859934236e-22
-3.995987266e-22
3.680733692e-22
-3.704242114e-22
4.268052511e-22
-3.360666215e-22
4.681890547e-22
-2.998654785e-22
4.965458785e-22
-2.639743239e-22
5.151093138e-22
-2.296912217e-22
5.263628132e-22
-1.977378748e-22
5.322403546e-22
-1.684327051e-22
5.342597318e-22
-1.418551396e-22
5.336126343e-22
-1.179208747e-22
5.312365639e-22
-9.643796889e-23
5.278723822e-22
-7.705471433e-23
5.241090706e-22
-5.95170683e-23
5.203725267e-22
-4.289110109e-23
5.171508255e-22
-2.904279759e-23
5.140151114e-22
-1.319321162e-23
5.131239257e-22
5.112119559e-22
0
0
0
0
0
0
0
0
0
0
0
0
0
0
0
0
0
0
0
0
0
0
0
0
0
0
0
0
0
0
0
0
0
0
0
0
0
0
1.393200721e-21
3.64708947e-19
-4.041366761e-21
1.09943331e-19
-2.336979173e-20
1.048426767e-19
-1.133647006e-20
5.494026189e-20
-3.801688574e-20
9.732536201e-20
-5.796925396e-20
8.75628783e-20
0
2.977530403e-19
0
0
0
0
0
0
0
0
7.927872194e-20
-3.499123244e-20
3.539628958e-20
-2.2669812e-20
1.716466279e-20
-1.17256033e-20
8.828974344e-21
-5.808594728e-21
4.694431487e-21
-2.925622816e-21
2.502009174e-21
-1.522700621e-21
1.277498004e-21
-8.025900717e-22
5.68722245e-22
-3.987474944e-22
1.512125768e-22
-1.478404465e-22
-9.378024469e-23
2.313384599e-23
-2.32923513e-22
1.476854372e-22
-3.056885194e-22
2.420232541e-22
-3.364719786e-22
3.146879676e-22
-3.408668504e-22
3.707302796e-22
-3.290404081e-22
4.135492634e-22
-3.077097903e-22
4.456852779e-22
-2.813020507e-22
4.691851668e-22
-2.527208246e-22
4.857526275e-22
-2.238136723e-22
4.968347517e-22
-1.957185056e-22
5.036547193e-22
-1.690798026e-22
5.072474172e-22
-1.44231202e-22
5.084743821e-22
-1.212850644e-22
5.080541281e-22
-1.002012804e-22
5.065760997e-22
-8.079125051e-23
5.045327442e-22
-6.273877729e-23
5.023292111e-22
-4.60268151e-23
5.001537448e-22
-2.993397563e-23
4.986451339e-22
-1.510518908e-23
4.968390601e-22
4.966388046e-22
0
0
0
0
0
0
0
0
0
0
0
0
0
0
0
0
0
0
0
0
0
0
0
0
0
0
0
0
0
0
0
0
0
0
0
0
0
0
0
-3.612743643e-19
0
-1.050496011e-19
0
-9.934617784e-20
0
-4.938310201e-20
0
-9.213912378e-20
0
-8.318589255e-20
0
-2.948191725e-19
0
0
0
0
0
0
0
0
9.160014188e-20
3.500909802e-20
4.634049852e-20
2.25702524e-20
2.308167127e-20
1.151653523e-20
1.171194619e-20
5.548065657e-21
6.097353712e-21
2.678903894e-21
3.222119712e-21
1.344606426e-21
1.681340572e-21
7.317792033e-22