/*--------------------------------*- C++ -*----------------------------------*\
  =========                 |
  \\      /  F ield         | OpenFOAM: The Open Source CFD Toolbox
   \\    /   O peration     | Website:  https://openfoam.org
    \\  /    A nd           | Version:  6
     \\/     M anipulation  |
\*---------------------------------------------------------------------------*/
FoamFile
{
    version     2.0;
    format      ascii;
    class       volScalarField;
    location    "0.0017";
    object      Num_divU;
}
// * * * * * * * * * * * * * * * * * * * * * * * * * * * * * * * * * * * * * //

dimensions      [0 0 -1 0 0 0 0];

internalField   nonuniform List<scalar> 
3600
(
2.005226998e-09
3.693503496e-09
1.411159923e-09
-5.851451412e-10
-2.714862463e-09
-4.763570657e-09
-6.698731084e-09
-8.49420825e-09
-1.012098409e-08
-1.161989749e-08
-1.306526864e-08
-1.464767761e-08
-1.676660355e-08
-2.033684539e-08
-2.681506318e-08
-3.743640879e-08
-5.096392227e-08
-6.121939549e-08
-5.8806828e-08
-4.369523185e-08
-3.717437721e-08
-4.909284747e-08
-6.783530281e-08
-9.696563562e-08
-1.584245201e-07
-2.790040643e-07
-4.460564928e-07
-6.604698235e-07
-8.68597545e-07
-3.861642944e-07
1.645868025e-11
2.085643528e-11
2.081465655e-11
1.82474562e-11
1.51351386e-11
1.206067354e-11
9.667338253e-12
7.778715067e-12
6.515764488e-12
5.519533286e-12
4.823834853e-12
4.171440642e-12
3.659794657e-12
3.141530877e-12
2.732063114e-12
2.326265959e-12
2.022965365e-12
1.747518929e-12
1.596959597e-12
1.505862096e-12
1.489351418e-12
1.408312409e-12
1.262991048e-12
1.100208458e-12
1.08437906e-12
1.075138093e-12
1.328852076e-12
6.027957402e-13
1.945374776e-12
2.947121817e-13
2.107487699e-09
3.953716391e-09
1.868242925e-09
3.865766803e-11
-1.894994314e-09
-3.712412476e-09
-5.467426909e-09
-7.1788488e-09
-9.008407698e-09
-1.112024539e-08
-1.379134878e-08
-1.719576028e-08
-2.162205746e-08
-2.757160859e-08
-3.637558247e-08
-5.002933304e-08
-6.976862901e-08
-9.138512163e-08
-1.006887505e-07
-8.694378907e-08
-8.13616979e-08
-9.774865709e-08
-1.108377066e-07
-1.234668218e-07
-1.538122974e-07
-2.421685452e-07
-3.767542277e-07
-5.662431292e-07
-8.298167782e-07
-3.643581459e-07
1.698943098e-11
2.181506972e-11
2.153615628e-11
1.91688296e-11
1.576756107e-11
1.277582824e-11
1.007668699e-11
8.219470265e-12
6.716457877e-12
5.78134272e-12
4.935474339e-12
4.366897218e-12
3.754472777e-12
3.309995978e-12
2.819308287e-12
2.467808447e-12
2.096595471e-12
1.861403233e-12
1.663105502e-12
1.607471822e-12
1.559055272e-12
1.490901292e-12
1.314285885e-12
1.154385566e-12
1.131807726e-12
1.238285337e-12
1.098719845e-12
1.606987431e-12
3.799893903e-13
1.190976356e-12
2.216983179e-09
4.186786504e-09
2.171126151e-09
4.197792257e-10
-1.398472537e-09
-3.143521523e-09
-4.900404647e-09
-6.887799572e-09
-9.42382129e-09
-1.296289767e-08
-1.790701823e-08
-2.451409411e-08
-3.272695367e-08
-4.259948469e-08
-5.51946497e-08
-7.453197481e-08
-1.070219268e-07
-1.537289176e-07
-1.859066956e-07
-1.587189749e-07
-1.457999895e-07
-1.775348053e-07
-1.812519035e-07
-1.652698058e-07
-1.409756885e-07
-1.995692604e-07
-3.128038378e-07
-4.698987717e-07
-7.123585072e-07
-2.454386532e-07
1.721838543e-11
2.155426162e-11
2.145838878e-11
1.894645386e-11
1.584892752e-11
1.27095483e-11
1.015213179e-11
8.08809093e-12
6.668220009e-12
5.584779009e-12
4.845200918e-12
4.195035235e-12
3.690369924e-12
3.189518219e-12
2.782999758e-12
2.383182734e-12
2.07212445e-12
1.797527656e-12
1.641861258e-12
1.560881643e-12
1.541981463e-12
1.455916374e-12
1.287644081e-12
1.12289986e-12
1.11935786e-12
1.154335036e-12
1.37061561e-12
4.797740591e-13
2.421426122e-12
7.165237536e-15
2.329828457e-09
4.428868555e-09
2.429091449e-09
7.420434963e-10
-1.015919419e-09
-2.735406782e-09
-4.645646177e-09
-7.144357009e-09
-1.087237392e-08
-1.662642884e-08
-2.523224082e-08
-3.715527425e-08
-5.211640289e-08
-6.888010839e-08
-8.683166005e-08
-1.109419442e-07
-1.58010118e-07
-2.509617052e-07
-3.393701406e-07
-2.732892322e-07
-2.377876701e-07
-3.060459038e-07
-2.901076977e-07
-2.386358635e-07
-1.195266723e-07
-1.486908515e-07
-2.377146723e-07
-3.264036443e-07
-5.189904683e-07
-4.130365884e-08
1.730500087e-11
2.18251137e-11
2.128039257e-11
1.872437531e-11
1.552299166e-11
1.253941184e-11
9.919790942e-12
7.91976908e-12
6.400879842e-12
5.363266259e-12
4.572115232e-12
3.994624801e-12
3.476244661e-12
3.046337896e-12
2.631439846e-12
2.283844064e-12
1.961732587e-12
1.722123906e-12
1.556067439e-12
1.49926166e-12
1.473102054e-12
1.3994332e-12
1.227625241e-12
1.068090754e-12
1.059116758e-12
1.215629953e-12
9.304370157e-13
1.963005313e-12
-2.41346568e-13
1.360242347e-12
2.450994572e-09
4.660809261e-09
2.657651739e-09
9.989773856e-10
-7.284530173e-10
-2.507398289e-09
-4.700637688e-09
-7.965103285e-09
-1.329977629e-08
-2.207095132e-08
-3.587885451e-08
-5.609181609e-08
-8.27113872e-08
-1.125425489e-07
-1.391838948e-07
-1.619677189e-07
-2.086034011e-07
-3.736016139e-07
-6.025588565e-07
-4.564962225e-07
-3.80873039e-07
-4.877411234e-07
-4.216339858e-07
-3.501776092e-07
-1.106880623e-07
-1.081649697e-07
-1.639172452e-07
-8.395325623e-08
-2.406052134e-07
2.485638616e-07
1.754237386e-11
2.129598725e-11
2.05467858e-11
1.783638497e-11
1.482353198e-11
1.195420759e-11
9.516840563e-12
7.538458341e-12
6.08595947e-12
5.028434692e-12
4.291503823e-12
3.717744834e-12
3.26113006e-12
2.84449142e-12
2.480221152e-12
2.140737734e-12
1.853184636e-12
1.615219421e-12
1.470658307e-12
1.413250214e-12
1.399999786e-12
1.326018794e-12
1.162133778e-12
1.011909056e-12
1.022185767e-12
1.044954955e-12
1.360244202e-12
2.776549513e-14
2.818631323e-12
-2.685174308e-13
2.566874455e-09
4.875094828e-09
2.840931159e-09
1.183615668e-09
-5.815654648e-10
-2.533287881e-09
-5.202649091e-09
-9.485955727e-09
-1.677214909e-08
-2.911305139e-08
-4.937764686e-08
-8.104088411e-08
-1.263614973e-07
-1.815946368e-07
-2.291504956e-07
-2.436595268e-07
-2.305675472e-07
-4.680418773e-07
-9.401775379e-07
-1.026689078e-06
-1.158717427e-06
-4.323679872e-07
-3.943205469e-07
-2.435236008e-07
-7.687602034e-07
-3.497040624e-07
-7.317277206e-08
3.725616009e-07
1.823755372e-07
6.226580113e-07
2.340911737e-11
2.644624946e-11
2.271075047e-11
1.810751307e-11
1.427255763e-11
1.128216628e-11
8.89588263e-12
7.04106578e-12
5.64221012e-12
4.649714457e-12
3.937680454e-12
3.417555523e-12
2.990745257e-12
2.624428471e-12
2.286659762e-12
1.984921796e-12
1.713823433e-12
1.49943623e-12
1.363150874e-12
1.31934497e-12
1.311255811e-12
1.247310284e-12
1.090257373e-12
9.437305791e-13
9.426599524e-13
1.129228823e-12
7.382425553e-13
2.199294744e-12
-8.45801227e-13
1.499914083e-12
2.669939476e-09
5.048700052e-09
2.962633913e-09
1.25134982e-09
-6.619470107e-10
-2.995388393e-09
-6.451879215e-09
-1.213821647e-08
-2.171784986e-08
-3.777044993e-08
-6.451991713e-08
-1.087045793e-07
-1.790490823e-07
-2.793167226e-07
-3.844616684e-07
-4.223584181e-07
-2.294682628e-07
-5.652311226e-07
-4.699928719e-07
-1.828585369e-06
-2.224874508e-06
-4.415658629e-07
-1.18287844e-07
-1.978543719e-07
-1.616183384e-06
-6.893646971e-07
3.001380962e-07
1.424224202e-06
9.753061024e-07
1.090690021e-06
2.500726449e-11
3.007622547e-11
2.536468971e-11
1.902307578e-11
1.415130597e-11
1.075387991e-11
8.316630235e-12
6.501824456e-12
5.174604882e-12
4.228057825e-12
3.569849216e-12
3.088456601e-12
2.710955795e-12
2.381038014e-12
2.084227323e-12
1.809681735e-12
1.566457475e-12
1.368619147e-12
1.248798875e-12
1.214425265e-12
1.21659438e-12
1.159172352e-12
1.011143388e-12
8.789446109e-13
9.01736099e-13
9.009283927e-13
1.318748949e-12
-4.235714916e-13
3.150208238e-12
-5.340726305e-13
2.747147978e-09
5.160920039e-09
2.998475256e-09
1.162258783e-09
-1.072418168e-09
-4.122574172e-09
-8.924652154e-09
-1.678894346e-08
-2.945772166e-08
-4.940941396e-08
-8.092822048e-08
-1.328693954e-07
-2.23328322e-07
-3.808358373e-07
-6.01919203e-07
-7.9141258e-07
-6.888926707e-07
-1.517148086e-07
5.307950273e-07
-2.0987725e-06
-1.893596422e-06
7.314842175e-08
4.447891285e-07
2.538295378e-07
-1.316756105e-06
-2.812419611e-06
9.610104916e-07
3.663819272e-06
3.466144687e-06
1.81523206e-06
-3.947732696e-13
1.803114545e-11
2.078866934e-11
1.69849234e-11
1.281217496e-11
9.661906522e-12
7.399179229e-12
5.747469243e-12
4.545923101e-12
3.700462371e-12
3.11429669e-12
2.698576743e-12
2.373991373e-12
2.096255675e-12
1.841003049e-12
1.604825473e-12
1.38979871e-12
1.216197216e-12
1.113621094e-12
1.094379739e-12
1.107393384e-12
1.061119442e-12
9.232648382e-13
7.92084541e-13
7.955163928e-13
1.00700749e-12
5.24822041e-13
2.378921741e-12
-1.425622475e-12
1.599117802e-12
2.784438982e-09
5.1850161e-09
2.935670336e-09
9.06114193e-10
-1.839836325e-09
-6.040896907e-09
-1.303630436e-08
-2.455889443e-08
-4.250769692e-08
-6.858928601e-08
-1.042785321e-07
-1.535497518e-07
-2.347909731e-07
-4.163939039e-07
-7.801244829e-07
-1.38364988e-06
-2.013931114e-06
6.571734771e-07
2.774896158e-06
2.69115229e-12
1.380567007e-11
2.042777192e-11
2.661568241e-11
2.727189296e-11
-2.524148336e-12
-9.507720867e-12
3.561958479e-06
1.177883641e-06
4.310976637e-06
3.704172087e-06
1.277488762e-11
1.969692405e-11
1.943924748e-11
1.543714989e-11
1.145878698e-11
8.511311098e-12
6.429719145e-12
4.936200267e-12
3.866686944e-12
3.122720274e-12
2.620819469e-12
2.273258464e-12
2.011260189e-12
1.786348688e-12
1.578988744e-12
1.381053061e-12
1.198704323e-12
1.050618742e-12
9.696912513e-13
9.659160047e-13
9.897178606e-13
9.513091601e-13
8.223032398e-13
7.077941328e-13
7.425574855e-13
7.212733823e-13
1.238495134e-12
-8.652835824e-13
3.398807324e-12
-7.822133868e-13
2.755118011e-09
5.081034153e-09
2.766757482e-09
5.415621356e-10
-2.82148382e-09
-8.523820821e-09
-1.861177217e-08
-3.582787844e-08
-6.326013848e-08
-1.029717692e-07
-1.525696205e-07
-1.993194555e-07
-2.171096944e-07
-2.221260246e-07
-6.551724993e-07
-1.951331054e-06
-3.948830905e-06
-1.847707317e-11
-1.009046252e-11
3.192027654e-13
7.488783103e-12
1.185542056e-11
1.869836769e-11
1.138477084e-11
-8.84652718e-13
-3.533243946e-11
-2.816222994e-11
1.06021605e-11
6.099909336e-06
-6.788986578e-13
-4.774429139e-11
1.320096029e-11
1.492706238e-11
1.218618319e-11
9.125973533e-12
6.766815206e-12
5.075352305e-12
3.857757586e-12
2.990087407e-12
2.398850166e-12
2.012297789e-12
1.759913656e-12
1.575960621e-12
1.420016194e-12
1.26958261e-12
1.120573082e-12
9.771731898e-13
8.621205488e-13
8.066794577e-13
8.213697344e-13
8.575663248e-13
8.299212979e-13
7.125775991e-13
6.01537432e-13
6.144982414e-13
8.545923182e-13
2.998562812e-13
2.504605505e-12
-1.95789019e-12
1.660532691e-12
2.594304055e-09
4.743074007e-09
2.443951623e-09
1.499560383e-10
-3.693654821e-09
-1.083397123e-08
-2.423133524e-08
-4.834131723e-08
-8.942888923e-08
-1.552323948e-07
-2.515839038e-07
-3.707633368e-07
-4.577559616e-07
-5.122707793e-07
-1.202289693e-07
6.509281572e-07
-6.54261175e-12
-9.245001758e-12
-6.938320903e-12
-5.068515713e-13
3.751789036e-12
6.003019776e-12
1.021371355e-11
1.161773982e-11
-8.902463854e-12
-1.973274985e-11
6.43153037e-14
-1.393247649e-11
-1.643219556e-11
-2.7430289e-11
-1.173370754e-11
6.597026062e-12
8.645039283e-12
7.728812621e-12
6.099458388e-12
4.644840563e-12
3.509531269e-12
2.649856772e-12
2.027805167e-12
1.609989833e-12
1.356018262e-12
1.206922218e-12
1.111412049e-12
1.02868122e-12
9.419433925e-13
8.444069096e-13
7.453536366e-13
6.663564283e-13
6.392862913e-13
6.721141407e-13
7.187274256e-13
6.991884693e-13
5.953800233e-13
5.100401438e-13
5.671995884e-13
5.349437934e-13
1.146738588e-12
-1.2675039e-12
3.567895477e-12
-1.003232883e-12
2.115249984e-09
3.902323429e-09
1.774913533e-09
-2.851481871e-10
-4.174767509e-09
-1.204685697e-08
-2.750229008e-08
-5.625426294e-08
-1.075280684e-07
-1.966864055e-07
-3.495303765e-07
-6.047748192e-07
-9.340243102e-07
-4.133871011e-07
7.476113715e-07
2.71658354e-06
-3.884455942e-12
-7.986457766e-12
-5.469901474e-12
-9.963835215e-13
1.320787646e-12
1.007890229e-12
1.870124337e-12
2.881648664e-12
-2.859045144e-12
-1.3539072e-11
-6.813016049e-12
-1.014306187e-11
-2.261146561e-11
-1.109974086e-11
-2.289970962e-11
-3.55399454e-13
2.826177465e-12
3.288339977e-12
2.824594173e-12
2.214208382e-12
1.66507141e-12
1.221924649e-12
8.952031379e-13
6.946129697e-13
5.997549369e-13
5.780014792e-13
5.842622738e-13
5.897733391e-13
5.753068022e-13
5.403904832e-13
4.922246865e-13
4.554780178e-13
4.590174874e-13
5.122061987e-13
5.714387637e-13
5.66631738e-13
4.836043475e-13
4.100000833e-13
4.428664193e-13
7.106428191e-13
9.108200898e-14
2.575560758e-12
-2.42356287e-12
1.673793254e-12
7.499304443e-10
1.900339522e-09
2.738854732e-10
-1.068738688e-09
-4.419508693e-09
-1.209910136e-08
-2.764158883e-08
-5.623148121e-08
-1.050544373e-07
-1.836253045e-07
-3.041663999e-07
-4.885524691e-07
-1.020417656e-06
-1.744214836e-06
-2.054943567e-06
-2.982549747e-12
-7.802018245e-12
-9.681233933e-12
-7.539156065e-12
-4.091432027e-12
-2.910127907e-12
-3.703023344e-12
-3.232892431e-12
-9.949442242e-13
-2.443972804e-12
-5.245260215e-12
-5.166150208e-12
-1.101197617e-11
-1.20597945e-11
-1.770198869e-11
-1.658344469e-11
-5.563650669e-12
-2.502759195e-12
-1.053916785e-12
-4.863803213e-13
-2.864625291e-13
-2.32582093e-13
-2.431914052e-13
-2.564097203e-13
-2.357869042e-13
-1.64648695e-13
-6.105867458e-14
5.066631001e-14
1.424341404e-13
2.037018373e-13
2.309140751e-13
2.368433632e-13
2.427452484e-13
2.783774812e-13
3.50569272e-13
4.225358375e-13
4.337457937e-13
3.741697958e-13
3.322707096e-13
4.112471683e-13
3.595964132e-13
1.029902687e-12
-1.631394048e-12
3.625982708e-12
-1.200834078e-12
-3.471152435e-09
-2.800540538e-09
-2.942481542e-09
-2.754797128e-09
-5.070018348e-09
-1.224768373e-08
-2.780563355e-08
-5.685962742e-08
-1.061158342e-07
-1.828332675e-07
-2.923922413e-07
-4.540564259e-07
-1.221952832e-06
-2.19460263e-06
-1.853906164e-06
-7.910346114e-12
-1.275769736e-11
-1.441652597e-11
-1.282208447e-11
-1.036225709e-11
-9.228204046e-12
-9.036683265e-12
-6.518021498e-12
-8.610042372e-13
3.026588576e-12
2.713681243e-12
2.086023679e-12
-2.453030414e-12
-9.119923019e-12
-8.958703609e-12
-2.168220534e-11
-9.686360316e-12
-6.701267445e-12
-4.868343494e-12
-3.688104715e-12
-2.857653048e-12
-2.247655531e-12
-1.814495039e-12
-1.491616141e-12
-1.226674103e-12
-9.780649982e-13
-7.384328715e-13
-5.186324103e-13
-3.338070764e-13
-1.945515517e-13
-9.835125572e-14
-3.615911424e-14
1.637741644e-14
8.451879178e-14
1.788644012e-13
2.69033743e-13
3.037090926e-13
2.70818996e-13
2.368493056e-13
2.739552162e-13
5.400661925e-13
-1.531657892e-13
2.557337385e-12
-2.837289851e-12
1.635515067e-12
-1.674898788e-08
-1.343266101e-08
-8.962485556e-09
-5.713329925e-09
-6.400942696e-09
-1.296164138e-08
-2.895016867e-08
-6.062685467e-08
-1.182506369e-07
-2.178105288e-07
-3.814593347e-07
-6.189578584e-07
-5.950733212e-07
-6.578446883e-07
7.779389215e-08
-1.170188206e-11
-1.814667807e-11
-2.061369172e-11
-1.861147469e-11
-1.606793319e-11
-1.489325126e-11
-1.217809075e-11
-5.06790096e-12
3.794048904e-12
1.02971878e-11
1.328355427e-11
9.330634629e-12
4.03203342e-12
-3.823844371e-13
-1.261799221e-11
-1.440062372e-11
-1.204411132e-11
-1.001598298e-11
-8.177349087e-12
-6.627252043e-12
-5.290284923e-12
-4.204323538e-12
-3.353712598e-12
-2.716634788e-12
-2.214227197e-12
-1.795851872e-12
-1.425070014e-12
-1.099573543e-12
-8.251298367e-13
-6.068464919e-13
-4.435472772e-13
-3.223125703e-13
-2.234695144e-13
-1.206061524e-13
-3.382656346e-15
1.076097309e-13
1.642778089e-13
1.550697048e-13
1.414697176e-13
2.199398982e-13
1.033426806e-13
8.54588628e-13
-1.972490291e-12
3.598707284e-12
-1.372586925e-12
-7.844774201e-08
-4.119420529e-08
-1.857713393e-08
-9.5046587e-09
-7.912997217e-09
-1.327678717e-08
-2.804396698e-08
-5.772686285e-08
-1.117595874e-07
-2.049288577e-07
-3.576785996e-07
-5.774639683e-07
-5.341805957e-07
-5.568787749e-07
1.610713646e-07
-1.355392913e-11
-1.928726367e-11
-1.997008902e-11
-2.281882727e-11
-2.23539493e-11
-1.888100492e-11
-1.227484948e-11
-4.44528546e-13
1.110790754e-11
1.699328737e-11
1.367454031e-11
1.640892592e-11
1.131107964e-11
7.847398079e-13
-2.622121501e-13
-1.972500737e-11
-1.63259372e-11
-1.457554491e-11
-1.230466549e-11
-1.006778433e-11
-8.026157931e-12
-6.344866501e-12
-5.012346789e-12
-4.021563998e-12
-3.259351667e-12
-2.660125584e-12
-2.151187485e-12
-1.718582655e-12
-1.350742766e-12
-1.052247811e-12
-8.174004895e-13
-6.352616398e-13
-4.878601338e-13
-3.47991162e-13
-2.032916577e-13
-6.756307403e-14
1.445974231e-14
2.551240907e-14
1.368410479e-14
2.037040269e-14
2.729345895e-13
-3.9353801e-13
2.525855703e-12
-3.194892738e-12
1.647731002e-12
-8.732546523e-08
-4.566285292e-08
-2.030527729e-08
-1.054853072e-08
-8.604001098e-09
-1.315013545e-08
-2.561213483e-08
-4.92824834e-08
-8.858780134e-08
-1.473219697e-07
-2.254754702e-07
-3.351016184e-07
-1.042945159e-06
-1.868462797e-06
-1.526639411e-06
-1.019590102e-11
-1.392447261e-11
-2.5287365e-11
-2.387432011e-11
-2.305341479e-11
-2.028398754e-11
-9.059081894e-12
4.977785076e-12
1.525045296e-11
1.675080122e-11
2.682699004e-11
1.501765671e-11
1.434938762e-11
1.944265581e-11
-1.015667264e-11
-4.19652449e-12
-1.68371878e-11
-1.749743966e-11
-1.573916202e-11
-1.313975108e-11
-1.063783402e-11
-8.404804444e-12
-6.671588644e-12
-5.315843146e-12
-4.32172953e-12
-3.524486151e-12
-2.887073279e-12
-2.336199872e-12
-1.87817502e-12
-1.494652383e-12
-1.188214269e-12
-9.44608073e-13
-7.459679141e-13
-5.695280844e-13
-3.943328563e-13
-2.372563279e-13
-1.318208836e-13
-1.03970323e-13
-9.771329458e-14
-7.668484776e-14
-1.213358098e-13
7.386013587e-13
-2.244704707e-12
3.721378919e-12
-1.437984642e-12
-2.691987824e-08
-2.010952764e-08
-1.215359307e-08
-8.311784295e-09
-8.664803559e-09
-1.386262226e-08
-2.565013245e-08
-4.695163904e-08
-8.163576769e-08
-1.340379405e-07
-2.088427904e-07
-3.167712607e-07
-7.119422081e-07
-1.153446591e-06
-2.386373051e-06
-4.695752179e-12
-1.103627663e-11
-8.072760575e-12
-3.564002336e-11
-3.455076545e-11
-2.179663984e-11
-3.519401715e-12
1.329854191e-11
1.87060834e-11
1.949109928e-11
-3.530322748e-12
4.30767018e-11
3.670015073e-11
-3.17981065e-11
1.947114607e-11
-2.818476933e-11
-3.076193716e-11
-2.715282186e-11
-2.194777532e-11
-1.730510934e-11
-1.350803802e-11
-1.056335426e-11
-8.283308247e-12
-6.60591884e-12
-5.330920342e-12
-4.375045703e-12
-3.58282074e-12
-2.939795142e-12
-2.377050629e-12
-1.923668075e-12
-1.537421694e-12
-1.240294674e-12
-9.859382226e-13
-7.748990521e-13
-5.666164016e-13
-3.862339187e-13
-2.560061822e-13
-2.056707921e-13
-2.274122122e-13
-1.996163539e-13
1.386322654e-13
-5.103060377e-13
2.722740245e-12
-3.329789585e-12
1.550367422e-12
1.800060821e-09
-3.96068761e-09
-4.878551887e-09
-5.996487561e-09
-8.962364073e-09
-1.551295012e-08
-2.778368199e-08
-4.905949591e-08
-8.410064415e-08
-1.40659791e-07
-2.320518151e-07
-3.790900805e-07
-5.466389839e-07
1.089700182e-08
8.88405394e-07
3.416372677e-06
5.383111979e-12
-6.369491209e-11
-6.225078258e-11
-4.901457782e-11
-2.387591932e-11
-1.182233228e-13
1.330224376e-11
7.281010063e-12
-1.376156047e-11
9.258140143e-11
8.467160265e-11
-5.297292671e-12
4.134882187e-11
-4.341859004e-11
3.681636364e-11
-1.847552126e-11
-2.621158238e-11
-2.339806336e-11
-1.878916724e-11
-1.467638955e-11
-1.145983001e-11
-9.012658142e-12
-7.182261541e-12
-5.833827603e-12
-4.777098747e-12
-3.953488727e-12
-3.233276083e-12
-2.653865875e-12
-2.133736759e-12
-1.735414266e-12
-1.38159832e-12
-1.120342915e-12
-8.697663302e-13
-6.634589601e-13
-4.58569637e-13
-3.296099871e-13
-2.669724758e-13
-2.848019499e-13
-1.635611736e-13
-1.696470758e-13
8.754846822e-13
-2.401118252e-12
3.608743925e-12
-2.438537e-12
1.984749441e-08
6.768601313e-09
3.385129286e-10
-4.323991439e-09
-9.450492209e-09
-1.699482034e-08
-2.900827207e-08
-4.742087983e-08
-7.346223094e-08
-1.049367736e-07
-1.296392029e-07
-1.084092689e-07
6.661769491e-08
5.334824017e-07
2.048991055e-06
1.606144579e-06
-3.95346701e-11
-4.854855367e-11
-7.138070021e-11
-6.150942311e-11
-1.445840227e-11
1.562639855e-11
2.058736656e-11
4.508269189e-12
7.108886814e-11
1.019989643e-10
1.075936983e-10
5.03187665e-11
-2.428171202e-11
9.72044786e-11
-4.202293239e-11
-3.472091532e-11
-3.432687951e-11
-2.756786574e-11
-2.095453021e-11
-1.603827192e-11
-1.245527123e-11
-9.83923211e-12
-7.906221154e-12
-6.445126415e-12
-5.341711133e-12
-4.421777754e-12
-3.680068752e-12
-3.009483331e-12
-2.473750366e-12
-1.99020944e-12
-1.625359514e-12
-1.295778453e-12
-1.045298099e-12
-7.944134562e-13
-5.960787403e-13
-4.274443767e-13
-3.731622251e-13
-3.200885625e-13
-2.758863e-13
1.645790931e-13
-7.892545571e-13
2.996373111e-12
-6.085149664e-12
3.642750659e-12
3.094364942e-08
1.330080464e-08
3.62808182e-09
-3.364266048e-09
-9.883478259e-09
-1.80316558e-08
-2.934144976e-08
-4.451447095e-08
-6.164017352e-08
-7.25748961e-08
-5.533510903e-08
3.826367946e-08
2.973974177e-07
8.116825781e-07
1.240061637e-06
1.365644327e-06
-1.762229837e-06
-7.674564424e-11
-8.107608531e-11
-4.466798752e-11
3.604978552e-12
3.601422359e-11
3.200379521e-11
6.925535963e-12
2.853248469e-11
1.498170835e-10
8.992091795e-11
2.491469953e-11
1.541076936e-06
-4.155813155e-11
5.707936866e-11
-4.922950572e-11
-5.427572503e-11
-4.464706713e-11
-3.425689536e-11
-2.62199337e-11
-2.040772015e-11
-1.614460129e-11
-1.298437188e-11
-1.062169018e-11
-8.783038424e-12
-7.316423725e-12
-6.061282863e-12
-5.008323816e-12
-4.085404349e-12
-3.331505708e-12
-2.687266313e-12
-2.180587642e-12
-1.739169106e-12
-1.365191745e-12
-1.012544171e-12
-7.498986462e-13
-5.934820477e-13
-5.622201368e-13
-3.900469354e-13
-5.08760388e-13
1.287449241e-12
-4.60163944e-12
6.847505114e-12
-3.576345107e-12
3.665961263e-08
1.662855858e-08
5.289183466e-09
-2.923100081e-09
-1.025210607e-08
-1.880748917e-08
-2.995162579e-08
-4.397711387e-08
-5.853943086e-08
-6.631924814e-08
-5.142841021e-08
1.261995331e-08
1.602403971e-07
4.151484164e-07
8.830291269e-07
1.850266834e-06
4.9738439e-06
5.548408346e-06
-7.04250168e-07
1.23975985e-11
-6.636864524e-13
2.665350795e-11
4.509852858e-12
-2.461745682e-11
4.68335116e-11
7.7942746e-18
-1.329217563e-06
-1.232144975e-06
-1.175110437e-07
9.367583319e-07
-4.721979719e-11
-4.977252757e-11
-4.155388126e-11
-3.160611232e-11
-2.373023177e-11
-1.821078743e-11
-1.440214548e-11
-1.165525253e-11
-9.589918967e-12
-7.991202868e-12
-6.69633656e-12
-5.62796908e-12
-4.700059172e-12
-3.910413003e-12
-3.216477276e-12
-2.639607833e-12
-2.144187122e-12
-1.744785539e-12
-1.397045458e-12
-1.103554525e-12
-8.406258645e-13
-6.517162815e-13
-5.316710261e-13
-4.781215463e-13
-3.741671918e-13
2.060481997e-14
-6.415164837e-13
1.626439432e-12
-3.276177959e-12
1.197084824e-12
3.776382181e-08
1.740585092e-08
5.778917156e-09
-2.720508429e-09
-1.03489159e-08
-1.9216279e-08
-3.079118216e-08
-4.544683558e-08
-6.13723439e-08
-7.288382668e-08
-6.938411923e-08
-3.739735916e-08
3.041718117e-08
1.227427793e-07
2.808599764e-07
6.613283309e-07
1.297978199e-06
2.14811794e-06
6.976051663e-06
1.636577493e-05
-2.49546079e-11
2.050390245e-11
-5.687254614e-12
8.02517475e-11
6.645840632e-12
1.000657677e-05
-1.800503469e-06
-2.03803285e-06
-3.150589265e-06
-1.765910638e-06
-4.098817237e-11
-4.405264605e-11
-3.754962095e-11
-2.939556211e-11
-2.264797558e-11
-1.783564246e-11
-1.442219746e-11
-1.192194885e-11
-9.984002943e-12
-8.434065343e-12
-7.146139158e-12
-6.048407309e-12
-5.093740016e-12
-4.258239336e-12
-3.533251376e-12
-2.908792983e-12
-2.382332417e-12
-1.938778985e-12
-1.56611125e-12
-1.243155226e-12
-9.727586785e-13
-7.698001588e-13
-6.467671589e-13
-5.431791681e-13
-3.744031102e-13
-4.150919338e-13
5.177303938e-13
-2.634800019e-12
2.686470908e-12
-1.518714182e-12
3.484651748e-08
1.608700351e-08
5.415251894e-09
-2.584064652e-09
-1.004242144e-08
-1.915878964e-08
-3.15862305e-08
-4.802101203e-08
-6.677113028e-08
-8.131531273e-08
-7.679116008e-08
-2.739462078e-08
1.007083447e-07
3.323079483e-07
7.709673656e-07
1.685580563e-06
4.757431334e-06
5.380774868e-06
-8.703157291e-07
-7.170829392e-11
-9.34087164e-12
1.871562702e-11
5.060125751e-11
2.005398422e-11
1.11897531e-10
3.393656814e-11
-1.791026466e-06
-1.396889521e-06
-2.302677557e-07
8.567814427e-07
-2.631415275e-11
-3.250055204e-11
-2.967664969e-11
-2.459535174e-11
-1.996747309e-11
-1.638149627e-11
-1.372356144e-11
-1.166186777e-11
-1.000656241e-11
-8.607235759e-12
-7.399820168e-12
-6.327998637e-12
-5.374869149e-12
-4.525639334e-12
-3.778968435e-12
-3.129927282e-12
-2.574627695e-12
-2.105538396e-12
-1.708927206e-12
-1.372863271e-12
-1.093089443e-12
-8.803246422e-13
-7.341403677e-13
-6.316793047e-13
-5.213923247e-13
-1.535397778e-13
-7.711078777e-13
1.822035139e-12
-3.361150882e-12
9.828273269e-13
2.864844797e-08
1.316413675e-08
4.459291697e-09
-2.366646528e-09
-9.283787055e-09
-1.860359678e-08
-3.24585542e-08
-5.240428172e-08
-7.784554519e-08
-1.023221788e-07
-1.058120168e-07
-4.198025525e-08
1.769459634e-07
6.417251694e-07
1.011168679e-06
1.074311627e-06
-1.992891472e-06
-4.887426984e-11
-5.658235024e-11
-4.825666199e-11
-8.095329875e-12
1.531476803e-11
2.750577867e-11
7.9747352e-11
6.447009831e-11
4.563734298e-11
6.079186128e-11
3.217049194e-11
1.518793533e-06
2.555059802e-11
1.715055748e-11
-1.48347442e-11
-1.925907359e-11
-1.868846636e-11
-1.667773274e-11
-1.461466207e-11
-1.279404625e-11
-1.125338859e-11
-9.895887963e-12
-8.68489272e-12
-7.567311361e-12
-6.542131188e-12
-5.59673837e-12
-4.743969677e-12
-3.980363969e-12
-3.312330898e-12
-2.733803602e-12
-2.242984033e-12
-1.827972493e-12
-1.480971655e-12
-1.196419391e-12
-9.766641824e-13
-8.187256891e-13
-6.870125361e-13
-5.204995136e-13
-5.712288805e-13
2.808143613e-13
-2.417438607e-12
2.344950418e-12
-1.460293461e-12
2.020113999e-08
9.17483931e-09
3.160687895e-09
-2.009238378e-09
-8.066115726e-09
-1.749452805e-08
-3.319898013e-08
-5.855614883e-08
-9.668606617e-08
-1.479603001e-07
-2.030129586e-07
-2.258129173e-07
-1.106110093e-07
2.874911197e-07
1.713733637e-06
1.330201896e-06
-2.94475371e-11
-3.449701982e-11
-5.523276986e-11
-3.590963597e-11
-2.480405583e-12
1.9841256e-11
3.142249635e-11
4.719547173e-11
6.438205917e-11
6.713303308e-11
6.149369158e-11
9.883418813e-11
7.725150194e-11
4.641459285e-11
4.672616861e-11
-3.400000578e-12
-1.12807558e-11
-1.383082693e-11
-1.39705918e-11
-1.311800666e-11
-1.20010028e-11
-1.084841338e-11
-9.753530429e-12
-8.691497269e-12
-7.672869587e-12
-6.687091382e-12
-5.762047509e-12
-4.903709996e-12
-4.132286072e-12
-3.446063315e-12
-2.852419395e-12
-2.343900323e-12
-1.9181578e-12
-1.564017657e-12
-1.276105664e-12
-1.046828792e-12
-8.698258627e-13
-7.352875523e-13
-6.359358206e-13
-2.979002665e-13
-9.209433905e-13
1.599407172e-12
-3.206648116e-12
7.852649572e-13
1.074083269e-08
4.71641395e-09
1.72460782e-09
-1.528399177e-09
-6.466701442e-09
-1.56645169e-08
-3.270546159e-08
-6.278462666e-08
-1.133738822e-07
-1.955235383e-07
-3.262758356e-07
-5.307884635e-07
-7.70602459e-07
-3.38755639e-07
4.775702477e-07
3.222450009e-06
-4.067278867e-11
-4.193038191e-11
-3.925885959e-11
-2.589405464e-11
-2.670538863e-12
1.648678614e-11
2.838633503e-11
4.532901472e-11
5.007563568e-11
5.53878019e-11
7.794926754e-11
8.55869556e-11
7.266047106e-11
4.866457082e-11
5.180571923e-11
5.207308807e-12
-4.300926925e-12
-9.399988615e-12
-1.140263899e-11
-1.170554157e-11
-1.121029686e-11
-1.044230555e-11
-9.569021226e-12
-8.664970571e-12
-7.728618512e-12
-6.796421986e-12
-5.884875752e-12
-5.032406448e-12
-4.24942337e-12
-3.554263952e-12
-2.944675532e-12
-2.425332206e-12
-1.988145408e-12
-1.630105004e-12
-1.339398082e-12
-1.105986582e-12
-9.174847529e-13
-7.602368521e-13
-6.015028549e-13
-6.790388522e-13
1.280497881e-13
-2.347900727e-12
1.930948787e-12
-1.377542758e-12
1.605865552e-09
3.901254916e-10
3.007309791e-10
-1.086630367e-09
-4.857729957e-09
-1.351276989e-08
-3.08297505e-08
-6.230085278e-08
-1.152483154e-07
-1.98680717e-07
-3.231418277e-07
-5.074606868e-07
-1.025834952e-06
-1.68904149e-06
-2.694515941e-06
-3.972197309e-11
-3.679444657e-11
-3.598882827e-11
-3.617672892e-11
-2.541252686e-11
-6.260569691e-12
1.154837876e-11
2.351830776e-11
3.525660209e-11
4.736421395e-11
5.743202101e-11
7.150694724e-11
8.333184973e-11
7.15663774e-11
4.938104886e-11
5.813739e-11
1.201063239e-11
7.872084849e-13
-6.348487668e-12
-9.831818817e-12
-1.092279865e-11
-1.082783601e-11
-1.023539703e-11
-9.482041431e-12
-8.646656125e-12
-7.771502207e-12
-6.865754914e-12
-5.973821668e-12
-5.118545777e-12
-4.33365715e-12
-3.626498173e-12
-3.009997533e-12
-2.480080444e-12
-2.038734079e-12
-1.677034667e-12
-1.38629993e-12
-1.146651595e-12
-9.460361442e-13
-7.877456581e-13
-6.906504108e-13
-3.818858558e-13
-9.806087381e-13
1.313352407e-12
-2.991931322e-12
5.879590861e-13
-5.977594334e-09
-3.271774373e-09
-1.01798466e-09
-9.442193632e-10
-3.891037832e-09
-1.239753405e-08
-3.061600812e-08
-6.483139303e-08
-1.23353257e-07
-2.152741835e-07
-3.472758162e-07
-5.401003181e-07
-1.39251374e-06
-2.46024046e-06
-1.887913298e-06
-2.770784082e-11
-3.266228792e-11
-3.604166618e-11
-3.569296335e-11
-2.660735248e-11
-1.179528376e-11
3.531467075e-12
1.839629876e-11
3.479932678e-11
5.124097831e-11
6.555614728e-11
7.71177596e-11
8.22002999e-11
7.024058238e-11
4.932388359e-11
6.313183243e-11
1.707871536e-11
4.887915283e-12
-3.899326659e-12
-8.534564976e-12
-1.027096082e-11
-1.045608387e-11
-1.000952795e-11
-9.331319297e-12
-8.57024866e-12
-7.743045539e-12
-6.881767584e-12
-6.007823213e-12
-5.166698392e-12
-4.380116784e-12
-3.673916877e-12
-3.050811112e-12
-2.517930071e-12
-2.070825387e-12
-1.709967923e-12
-1.420577419e-12
-1.182112259e-12
-9.757607228e-13
-7.998440144e-13
-6.412933646e-13
-7.280448846e-13
2.934554578e-14
-2.204350779e-12
1.521584834e-12
-1.255661764e-12
-1.104941365e-08
-5.841760981e-09
-2.126575675e-09
-1.204113436e-09
-3.820381789e-09
-1.268360399e-08
-3.269442224e-08
-7.213311823e-08
-1.442449774e-07
-2.690598495e-07
-4.737559495e-07
-7.75160067e-07
-8.832310805e-07
-1.165281991e-06
-2.089907175e-07
-3.011229691e-11
-3.332499072e-11
-3.582827143e-11
-3.615629278e-11
-3.175963154e-11
-1.904793092e-11
-3.521386079e-12
1.626865174e-11
3.984379154e-11
6.059928292e-11
7.714296666e-11
8.497174514e-11
7.793863693e-11
7.132467603e-11
5.074117154e-11
6.577643268e-11
2.014293677e-11
6.998088478e-12
-2.822171191e-12
-8.164424623e-12
-1.020483263e-11
-1.046240159e-11