/*--------------------------------*- C++ -*----------------------------------*\
  =========                 |
  \\      /  F ield         | OpenFOAM: The Open Source CFD Toolbox
   \\    /   O peration     | Website:  https://openfoam.org
    \\  /    A nd           | Version:  6
     \\/     M anipulation  |
\*---------------------------------------------------------------------------*/
FoamFile
{
    version     2.0;
    format      ascii;
    class       volScalarField;
    location    "0.0017";
    object      ViscousDissipation;
}
// * * * * * * * * * * * * * * * * * * * * * * * * * * * * * * * * * * * * * //

dimensions      [1 -1 -3 0 0 0 0];

internalField   nonuniform List<scalar> 
3600
(
1.120831207e-22
4.829498646e-22
8.337432961e-22
1.048010012e-21
1.021377628e-21
6.877341542e-22
2.532557927e-22
4.893226109e-22
3.172169416e-21
1.159097792e-20
3.079190816e-20
6.682520231e-20
1.241694939e-19
2.016775173e-19
2.904112054e-19
3.789239923e-19
4.662624205e-19
5.679419678e-19
6.87050813e-19
7.421609912e-19
5.834501309e-19
2.635529233e-19
7.4212387e-20
3.067522947e-19
1.253536097e-18
3.048782442e-18
4.764603927e-18
4.395646025e-18
1.249778327e-18
3.373446997e-19
3.296419074e-19
5.963995139e-20
9.793667119e-20
1.194357501e-19
1.208969361e-19
1.079350403e-19
8.831421352e-20
6.798852079e-20
5.018789529e-20
3.602467103e-20
2.541124476e-20
1.775674039e-20
1.236803256e-20
8.628085791e-21
6.051275136e-21
4.279578592e-21
3.059541123e-21
2.215677236e-21
1.628335349e-21
1.216460282e-21
9.254413763e-22
7.183396161e-22
5.699871637e-22
4.630275812e-22
3.85641726e-22
3.298153395e-22
2.904982092e-22
2.635726555e-22
2.470336905e-22
2.39529014e-22
4.427680426e-22
8.340538348e-22
1.204888734e-21
1.458173247e-21
1.525475116e-21
1.384530717e-21
1.302652814e-21
2.132911497e-21
5.761021952e-21
1.563564444e-20
3.704574672e-20
7.634046554e-20
1.379780846e-19
2.193776152e-19
3.072130493e-19
3.835360847e-19
4.479242275e-19
5.412698963e-19
7.154857319e-19
8.975210639e-19
8.516548396e-19
6.097858945e-19
5.213698347e-19
8.909533641e-19
2.084086619e-18
4.303747837e-18
6.329096142e-18
5.840799103e-18
2.34106467e-18
7.936444657e-19
3.756722023e-19
9.608757925e-20
1.286837118e-19
1.426517102e-19
1.366971434e-19
1.177535339e-19
9.39487536e-20
7.099626726e-20
5.167896973e-20
3.670028603e-20
2.567525787e-20
1.782730223e-20
1.235551798e-20
8.585729454e-21
6.002646922e-21
4.234295512e-21
3.020520847e-21
2.18321443e-21
1.601598845e-21
1.194438425e-21
9.071172415e-22
7.028907106e-22
5.567313592e-22
4.514537777e-22
3.753041243e-22
3.204976234e-22
2.816836735e-22
2.553990268e-22
2.392000138e-22
2.316650325e-22
1.129720844e-21
1.573046074e-21
2.010190776e-21
2.378238471e-21
2.668198231e-21
2.929580076e-21
3.523910587e-21
5.422299935e-21
1.06675785e-20
2.296061021e-20
4.805447276e-20
9.299870698e-20
1.625682104e-19
2.518378125e-19
3.385225746e-19
3.882901373e-19
3.937361369e-19
4.453662326e-19
7.205717193e-19
1.188719664e-18
1.356970481e-18
1.137794256e-18
1.067580255e-18
1.549777245e-18
3.246663947e-18
6.512163564e-18
9.377441273e-18
8.842956846e-18
5.076705383e-18
1.853514999e-18
4.927764539e-19
1.913215557e-19
2.044364574e-19
1.968613735e-19
1.719686161e-19
1.388635718e-19
1.056836578e-19
7.708511663e-20
5.461830653e-20
3.799322177e-20
2.615947072e-20
1.794073805e-20
1.231530832e-20
8.493256233e-21
5.902138354e-21
4.1426681e-21
2.942655407e-21
2.118917842e-21
1.549004111e-21
1.1512887e-21
8.713724771e-22
6.728336377e-22
5.310113646e-22
4.290118232e-22
3.553521373e-22
3.023288499e-22
2.650188505e-22
2.395688719e-22
2.237083607e-22
2.168283583e-22
2.439476917e-21
2.975211657e-21
3.543839736e-21
4.136172482e-21
4.834294793e-21
5.800313031e-21
7.541632688e-21
1.121020939e-20
1.909119244e-20
3.529452239e-20
6.636914093e-20
1.207136575e-19
2.04242885e-19
3.094228089e-19
3.99881642e-19
4.094450386e-19
3.014094825e-19
2.494874653e-19
7.266764031e-19
1.762491475e-18
2.245279492e-18
1.700565719e-18
1.273139356e-18
1.689697347e-18
4.546512936e-18
1.014685235e-17
1.476394511e-17
1.435305579e-17
1.13034672e-17
4.208095879e-18
7.594206098e-19
4.115611225e-19
3.634187868e-19
3.011583847e-19
2.350479762e-19
1.743609579e-19
1.24395876e-19
8.634570083e-20
5.889074467e-20
3.978013411e-20
2.67774934e-20
1.804677023e-20
1.222121518e-20
8.3389881e-21
5.745651808e-21
4.004547433e-21
2.827473845e-21
2.025046287e-21
1.472925158e-21
1.089335864e-21
8.203463576e-22
6.301350969e-22
4.946105993e-22
3.973616147e-22
3.27240441e-22
2.76955644e-22
2.413616138e-22
2.17322376e-22
2.027203806e-22
1.956380091e-22
4.756487432e-21
5.445245263e-21
6.249855337e-21
7.235262371e-21
8.603373449e-21
1.06632735e-20
1.41057673e-20
2.03028637e-20
3.184470077e-20
5.341437667e-20
9.285741063e-20
1.612647966e-19
2.684655688e-19
4.075134108e-19
5.26213352e-19
5.119049676e-19
2.639796536e-19
8.782379965e-20
1.269985097e-18
3.18275459e-18
3.848230366e-18
2.098766933e-18
6.824210546e-19
9.741832224e-19
6.528174139e-18
1.605566474e-17
2.324962984e-17
2.28217279e-17
2.379844701e-17
9.1845323e-18
1.42252167e-18
9.398773035e-19
6.955539222e-19
4.947274345e-19
3.409698529e-19
2.290427887e-19
1.511250995e-19
9.870214011e-20
6.422317022e-20
4.184037224e-20
2.739322304e-20
1.807210648e-20
1.203804858e-20
8.10841156e-21
5.529160493e-21
3.820780981e-21
2.677886877e-21
1.905167333e-21
1.376976431e-21
1.011970352e-21
7.571309698e-22
5.775807153e-22
4.500443362e-22
3.587669759e-22
2.931390598e-22
2.460591405e-22
2.130988912e-22
1.906199921e-22
1.766137738e-22
1.70614685e-22
8.618322748e-21
9.542879504e-21
1.073126856e-20
1.233922836e-20
1.470528208e-20
1.829641031e-20
2.397915731e-20
3.331258484e-20
4.914686838e-20
7.6776039e-20
1.258461484e-19
2.124096554e-19
3.572224638e-19
5.684134317e-19
7.93169566e-19
8.918658048e-19
7.960069519e-19
8.999853616e-19
5.26288841e-18
7.088803373e-18
7.486015053e-18
2.92975414e-18
5.428358848e-19
2.686281811e-18
1.576410728e-17
2.495710547e-17
3.276314112e-17
3.010617996e-17
4.438614954e-17
1.907031439e-17
3.418714185e-18
2.311177887e-18
1.41344951e-18
8.554912612e-19
5.144113321e-19
3.088961331e-19
1.864027785e-19
1.135667288e-19
7.00549071e-20
4.382118476e-20
2.781701597e-20
1.792442961e-20
1.172526906e-20
7.786600278e-21
5.249693686e-21
3.59353733e-21
2.497991062e-21
1.7638297e-21
1.265553304e-21
9.232070201e-22
6.853224112e-22
5.183760648e-22
4.001882034e-22
3.158594035e-22
2.55360154e-22
2.121870569e-22
1.816979502e-22
1.611912597e-22
1.488338326e-22
1.427083401e-22
1.47153712e-20
1.597937308e-20
1.773914651e-20
2.024604921e-20
2.39638465e-20
2.947160115e-20
3.769840262e-20
5.017818004e-20
6.970132428e-20
1.018156957e-19
1.579866143e-19
2.615403041e-19
4.562803873e-19
8.074760031e-19
1.342048128e-18
1.996411648e-18
3.636283562e-18
5.864308777e-18
2.890360125e-17
1.256621155e-17
4.116191176e-18
2.239560813e-18
2.017475721e-18
1.500805783e-17
1.232340589e-17
2.412891727e-17
3.614070209e-17
2.232088608e-17
6.256118579e-17
3.6956983e-17
1.145408027e-17
6.203273402e-18
3.04891397e-18
1.53783424e-18
7.906667191e-19
4.182595693e-19
2.287398082e-19
1.29318646e-19
7.541105975e-20
4.522859611e-20
2.782015552e-20
1.750574755e-20
1.124541137e-20
7.362800046e-21
4.907575565e-21
3.327264863e-21
2.293357083e-21
1.606528917e-21
1.143647651e-21
8.27445405e-22
6.08765181e-22
4.558956599e-22
3.480301582e-22
2.712873876e-22
2.164121307e-22
1.772183021e-22
1.499173538e-22
1.313363485e-22
1.197226459e-22
1.148139792e-22
2.386162604e-20
2.55883094e-20
2.814365089e-20
3.185836341e-20
3.726095588e-20
4.489338621e-20
5.542801145e-20
6.97920744e-20
8.98226708e-20
1.202550982e-19
1.736789059e-19
2.817175444e-19
5.203097904e-19
1.075776821e-18
2.355151108e-18
5.025004677e-18
1.24013575e-17
2.216514559e-17
9.388409701e-19
1.035775176e-17
6.635700065e-18
1.400514941e-18
1.360965809e-18
9.400585931e-19
5.878536269e-18
2.487534933e-17
6.130264037e-17
5.641879951e-17
3.196350543e-17
6.5345927e-17
5.893872118e-17
1.875897335e-17
7.116933639e-18
2.820971761e-18
1.198970367e-18
5.511849908e-19
2.721375751e-19
1.428144324e-19
7.888611044e-20
4.547872804e-20
2.717391257e-20
1.673386216e-20
1.057450144e-20
6.834984785e-21
4.508208776e-21
3.029174475e-21
2.070981921e-21
1.439431249e-21
1.016513546e-21
7.291247536e-22
5.31228323e-22
3.933755049e-22
2.963936555e-22
2.275848757e-22
1.784764508e-22
1.43595881e-22
1.190247838e-22
1.025596611e-22
9.268897576e-23
8.770665791e-23
3.693102728e-20
3.926953216e-20
4.28996038e-20
4.81949115e-20
5.56354551e-20
6.544790362e-20
7.743352334e-20
9.072309965e-20
1.042741962e-19
1.19830116e-19
1.512409074e-19
2.475641221e-19
5.404326368e-19
1.34839178e-18
3.999708562e-18
1.956180262e-17
3.727107808e-18
4.006429351e-18
1.417226047e-17
1.694605269e-16
1.65045749e-16
4.597349713e-17
6.345743597e-17
7.591576337e-17
1.83715874e-16
8.994653782e-17
4.002888128e-17
1.425981787e-16
8.751783984e-17
9.570130583e-17
1.266643919e-16
8.758903657e-17
1.776737088e-17
4.908873542e-18
1.689936306e-18
6.77662388e-19
3.044940178e-19
1.495968137e-19
7.890754848e-20
4.404144995e-20
2.571439828e-20
1.556913627e-20
9.712282634e-21
6.213354764e-21
4.06294033e-21
2.709165027e-21
1.838904238e-21
1.268936075e-21
8.892519751e-22
6.323596122e-22
4.560878828e-22
3.336430483e-22
2.476946269e-22
1.86829401e-22
1.434975008e-22
1.126581246e-22
9.124313969e-23
7.669953227e-23
6.758162808e-23
6.374302449e-23
5.474540827e-20
5.789007288e-20
6.299696403e-20
7.045967413e-20
8.060379474e-20
9.303448946e-20
1.059061571e-19
1.148477114e-19
1.128533486e-19
9.510654295e-20
8.006322425e-20
1.789472738e-19
8.182303092e-19
3.231789152e-18
9.589479902e-18
3.60898532e-18
6.491199387e-18
8.640072911e-17
1.878303465e-16
1.876874522e-16
5.494128407e-17
2.972699966e-17
1.351922764e-17
4.936053876e-17
9.745298013e-17
1.270059498e-16
8.228394796e-18
2.208389909e-16
9.97611871e-17
3.271011119e-20
2.746338502e-16
1.695744866e-16
2.940739391e-17
6.950798492e-18
2.074778284e-18
7.455368434e-19
3.106072274e-19
1.45295928e-19
7.429099271e-20
4.06440448e-20
2.341276168e-20
1.403683649e-20
8.688278729e-21
5.521232647e-21
3.588539548e-21
2.379054807e-21
1.605520431e-21
1.101130006e-21
7.663884773e-22
5.406069319e-22
3.860584341e-22
2.788890838e-22
2.037516736e-22
1.505974542e-22
1.127691299e-22
8.595821435e-23
6.709694858e-23
5.446925148e-23
4.690684282e-23
4.304591725e-23
7.787998233e-20
8.208344525e-20
8.930712718e-20
1.000341248e-19
1.145028625e-19
1.317226464e-19
1.479987222e-19
1.546058891e-19
1.366998726e-19
8.259662908e-20
3.61687464e-20
2.923311805e-19
1.964851027e-18
7.800125424e-18
2.214816369e-17
3.544176942e-18
8.949593242e-17
1.816908176e-16
4.060738698e-17
1.303944902e-17
4.388686898e-18
1.305525829e-18
1.533776998e-18
5.682555811e-18
1.660179623e-17
3.16492295e-17
3.649441165e-17
3.417731091e-16
2.865959917e-16
1.940183473e-18
5.982630057e-16
3.584121825e-16
4.453730878e-17
8.167993438e-18
2.091700706e-18
6.926329713e-19
2.773692655e-19
1.275953686e-19
6.48797074e-20
3.545628543e-20
2.04213501e-20
1.223487892e-20
7.560543444e-21
4.792623594e-21
3.105261414e-21
2.051281868e-21
1.378752233e-21
9.412548277e-22
6.515232219e-22
4.564283733e-22
3.230258263e-22
2.305499205e-22
1.656951058e-22
1.197879942e-22
8.711975467e-23
6.387928162e-23
4.77158326e-23
3.674671967e-23
2.985233039e-23
2.69075657e-23
1.063305685e-19
1.118310335e-19
1.221309997e-19
1.380329114e-19
1.601147499e-19
1.87672755e-19
2.168700939e-19
2.378076099e-19
2.337468996e-19
1.994564097e-19
2.569458588e-19
1.210754468e-18
6.420618989e-18
3.260795821e-17
9.036023869e-19
1.365617228e-17
1.92232214e-16
4.344055208e-17
2.297318614e-18
1.361545533e-18
5.397706651e-19
1.902270463e-20
1.61357305e-19
8.444098723e-19
3.489650741e-18
8.075416131e-18
1.489083474e-17
1.495801321e-16
1.36119454e-16
2.009778896e-19
1.319702049e-16
1.148263818e-16
1.848474384e-17
4.429368137e-18
1.342408947e-18
4.881174195e-19
2.071225569e-19
9.937800194e-20
5.217836836e-20
2.918482172e-20
1.706951941e-20
1.031983923e-20
6.405868519e-21
4.066640687e-21
2.633878123e-21
1.737361669e-21
1.165251782e-21
7.932970416e-22
5.471193671e-22
3.813834425e-22
2.679965963e-22
1.89285569e-22
1.339670406e-22
9.472129088e-23
6.672451881e-23
4.681815114e-23
3.279167557e-23
2.335189064e-23
1.765622946e-23
1.475284104e-23
1.389720025e-19
1.456985928e-19
1.602869782e-19
1.840990986e-19
2.187226122e-19
2.654337312e-19
3.239432705e-19
3.910360965e-19
4.639582876e-19
5.658055455e-19
8.481704528e-19
1.90253821e-18
5.311209124e-18
1.271263189e-17
1.086947257e-17
1.569718408e-16
1.841307273e-16
1.31617297e-17
1.475328447e-18
6.495677346e-19
1.824701016e-19
2.445907245e-20
2.246532612e-20
1.988674326e-19
1.088233921e-18
2.623321248e-18
3.652521938e-18
2.828124401e-18
6.184953924e-17
5.590866026e-17
4.667146792e-17
3.425982098e-17
7.90259198e-18
2.188452849e-18
7.272960209e-19
2.888646323e-19
1.341711753e-19
6.98794634e-20
3.912852686e-20
2.288988388e-20
1.377487894e-20
8.467649677e-21
5.302652787e-21
3.380035088e-21
2.192425489e-21
1.446491093e-21
9.698300079e-22
6.597861998e-22
4.544691789e-22
3.160711347e-22
2.211729546e-22
1.550716972e-22
1.084164936e-22
7.516813436e-23
5.13562964e-23
3.432763977e-23
2.236960441e-23
1.422772849e-23
9.100535798e-24
6.819694251e-24
1.725060308e-19
1.797463497e-19
2.000119264e-19
2.349459796e-19
2.874370437e-19
3.619953028e-19
4.637621235e-19
5.974104632e-19
7.694476532e-19
1.0032052e-18
1.383085809e-18
2.099587289e-18
4.090104656e-18
3.594778098e-18
6.389908557e-18
1.590928123e-16
4.610146518e-17
3.137344146e-18
7.120371578e-19
4.246760147e-19
1.745027365e-19
4.305473198e-20
1.258497765e-20
1.410595992e-19
6.398233504e-19
1.360664047e-18
1.599160727e-18
9.298874257e-19
1.665792809e-19
7.216771054e-18
1.807740602e-17
6.814301208e-18
2.785410046e-18
9.710568682e-19
3.476189514e-19
1.488915242e-19
7.789807602e-20
4.580188441e-20
2.812007606e-20
1.746303726e-20
1.088577904e-20
6.820801601e-21
4.311932578e-21
2.760136672e-21
1.793590245e-21
1.184652009e-21
7.952323445e-22
5.418309227e-22
3.738264995e-22
2.602931581e-22
1.821223509e-22
1.27362808e-22
8.845115728e-23
6.05269035e-23
4.039764915e-23
2.592350044e-23
1.564946203e-23
8.634803655e-24
4.320370119e-24
2.170207084e-24
1.98555371e-19
2.067594787e-19
2.348346168e-19
2.843490944e-19
3.591758173e-19
4.676374671e-19
6.192912487e-19
8.18239807e-19
1.047511647e-18
1.238203386e-18
1.238064469e-18
1.000493531e-18
2.377161404e-18
1.783622816e-18
1.06745109e-18
8.568175771e-17
3.146280311e-17
9.818656267e-19
3.15977664e-19
4.52327577e-19
3.205551556e-19
1.890738062e-19
1.674263106e-19
3.280616568e-19
7.346830952e-19
1.19175933e-18
1.247015164e-18
7.962128216e-19
3.60301414e-19
5.43427517e-19
3.270604592e-18
2.848329222e-18
1.29689707e-18
4.269241413e-19
1.368583746e-19
6.233942512e-20
4.084716232e-20
2.917660875e-20
2.015611497e-20
1.333852048e-20
8.582424891e-21
5.454044178e-21
3.465442372e-21
2.2208164e-21
1.443490866e-21
9.543903813e-22
6.422591026e-22
4.393453485e-22
3.046524159e-22
2.132898259e-22
1.49992216e-22
1.052826068e-22
7.320667314e-23
4.996259512e-23
3.30482473e-23
2.07898703e-23
1.199850349e-23
5.957035047e-24
2.162284782e-24
3.592383811e-25
2.571543247e-19
2.249579371e-19
2.596837504e-19
3.256623756e-19
4.255665414e-19
5.72736234e-19
7.830813012e-19
1.062155337e-18
1.371164397e-18
1.556972721e-18
1.301075698e-18
5.997349318e-19
2.935349521e-18
1.202816186e-17
7.555546399e-19
1.026643829e-16
4.35482594e-17
4.483092618e-18
1.405738962e-18
1.019119981e-18
7.951491715e-19
6.371494604e-19
6.318020313e-19
8.373025998e-19
1.232531865e-18
1.579170994e-18
1.509362196e-18
1.027844209e-18
4.827361515e-19
3.055033023e-19
2.818011614e-18
2.410241644e-18
9.407072808e-19
2.16900015e-19
3.473484997e-20
1.693765987e-20
2.079945166e-20
1.976700758e-20
1.527863662e-20
1.055402684e-20
6.880718959e-21
4.373046834e-21
2.765228032e-21
1.762807411e-21
1.142186267e-21
7.553040713e-22
5.10180667e-22
3.513917871e-22
2.459022591e-22
1.739839734e-22
1.237206175e-22
8.780913839e-23
6.17089086e-23
4.254063853e-23
2.84355925e-23
1.80616969e-23
1.059039461e-23
5.382651962e-24
2.076183223e-24
5.109959406e-25
1.180293721e-19
1.938021064e-19
2.636209251e-19
3.50944704e-19
4.772201115e-19
6.671896732e-19
9.511848546e-19
1.356964157e-18
1.881266082e-18
2.435617648e-18
2.847090405e-18
3.323752374e-18
7.579641337e-18
1.0042054e-17
5.818601023e-18
1.640067892e-16
5.228403918e-17
5.489495635e-18
2.656061317e-18
2.352866255e-18
1.990659861e-18
1.72249238e-18
1.696218284e-18
1.965067422e-18
2.439609473e-18
2.782764071e-18
2.520522081e-18
1.884642417e-18
1.953961459e-18
9.910207981e-18
1.581936396e-17
4.527986645e-18
1.313412654e-18
2.224606124e-19
1.192388622e-20
5.594510875e-21
1.567497088e-20
1.673468923e-20
1.308185735e-20
8.908402201e-21
5.684614665e-21
3.533941759e-21
2.191884275e-21
1.377487596e-21
8.85558661e-22
5.850508112e-22
3.973363191e-22
2.765760214e-22
1.963140363e-22
1.412037941e-22
1.022152388e-22
7.392126378e-23
5.300209146e-23
3.738285967e-23
2.569585863e-23
1.702094972e-23
1.061061212e-23
6.144321257e-24
3.358043424e-24
1.924181663e-24
1.048094073e-19
1.759745566e-19
2.54173196e-19
3.550913708e-19
5.038170982e-19
7.353647626e-19
1.100107868e-18
1.665463877e-18
2.507860038e-18
3.69500158e-18
5.297874089e-18
7.525411518e-18
1.076861966e-17
8.386852456e-18
9.059693123e-18
1.334508714e-16
1.382405004e-16
3.455960479e-18
3.165830234e-18
5.296919936e-18
4.749559169e-18
4.076892792e-18
3.869205952e-18
4.324265063e-18
5.284808838e-18
6.098724581e-18
5.214630587e-18
2.803002368e-18
5.634119445e-17
7.696424214e-17
3.670231981e-17
2.337374951e-17
3.731467394e-18
5.568978898e-19
8.62584518e-20
3.173854882e-20
2.508747274e-20
1.917492362e-20
1.294219872e-20
8.071503855e-21
4.839008397e-21
2.868313592e-21
1.716056784e-21
1.052155328e-21
6.677397814e-22
4.405307006e-22
3.017456582e-22
2.134111352e-22
1.54643629e-22
1.138588213e-22
8.449344109e-23
6.272467631e-23
4.626180124e-23
3.370306564e-23
2.413842006e-23
1.686993271e-23
1.154546615e-23
7.726412997e-24
5.200311373e-24
4.145774662e-24
8.253213033e-20
1.489295856e-19
2.277863716e-19
3.348553335e-19
4.980878809e-19
7.615374082e-19
1.194774515e-18
1.902878832e-18
3.029418738e-18
4.738253464e-18
7.154059297e-18
1.024909705e-17
1.334809698e-17
1.925307644e-17
1.861451157e-17
2.676950101e-17
2.194684615e-16
7.594053744e-17
2.260136139e-17
1.810710378e-17
1.182204761e-17
8.880439007e-18
7.665279917e-18
8.827888141e-18
1.215808249e-17
1.770657902e-17
1.755911156e-17
8.34551225e-17
6.83198497e-17
1.655918597e-19
1.062191981e-16
8.31074629e-17
9.872274533e-18
1.654063608e-18
3.586472748e-19
1.115292064e-19
4.92688437e-20
2.575051272e-20
1.401869411e-20
7.64708911e-21
4.175648926e-21
2.307888253e-21
1.310315626e-21
7.754710476e-22
4.836349804e-22
3.190790122e-22
2.217390204e-22
1.606681861e-22
1.198969936e-22
9.109678523e-23
6.980419267e-23
5.353908077e-23
4.086742534e-23
3.094044219e-23
2.319594634e-23
1.727950055e-23
1.274988825e-23
9.500396652e-24
7.644073078e-24
6.431576852e-24
6.353900661e-20
1.185133288e-19
1.901814354e-19
2.945612777e-19
4.615112369e-19
7.414859284e-19
1.218311669e-18
2.022911502e-18
3.331419204e-18
5.296751601e-18
7.784562951e-18
9.688503312e-18
7.950507176e-18
1.648511823e-18
2.624308144e-17
2.328310418e-17
1.20823716e-16
2.659533667e-16
9.839569195e-17
8.244103316e-17
3.00185676e-17
1.764320684e-17
1.190038348e-17
1.56417746e-17
2.77579789e-17
8.986399774e-17
2.067169158e-16
5.563406155e-16
2.133259355e-16
1.686080287e-18
4.917676919e-16
3.399929304e-16
3.567386988e-17
4.984197307e-18
9.38967045e-19
2.42047807e-19
8.239776744e-20
3.37622872e-20
1.526515029e-20
7.254934396e-21
3.560833294e-21
1.806348377e-21
9.585084375e-22
5.414912493e-22
3.307459601e-22
2.193826112e-22
1.564509921e-22
1.176777388e-22
9.151463272e-23
7.242423568e-23
5.770084735e-23
4.595159573e-23
3.643340063e-23
2.872310984e-23
2.258118669e-23
1.772885989e-23
1.410503993e-23
1.136954811e-23
9.496732297e-24
8.798835833e-24
4.523629504e-20
8.696606392e-20
1.472026527e-19
2.422933647e-19
4.032015216e-19
6.845419127e-19
1.180501114e-18
2.042694086e-18
3.480549631e-18
5.683056459e-18
8.523893459e-18
1.088769345e-17
1.008842118e-17
5.825944181e-18
2.245305845e-17
6.912769332e-17
6.266261273e-17
2.261041983e-17
1.137739427e-16
4.012742193e-16
7.867314288e-17
3.1115964e-17
1.002791916e-17
2.281885123e-17
5.143572361e-17
5.013065155e-16
4.09153908e-16
1.167376957e-17
5.941148906e-18
5.772200898e-20
1.435056316e-16
2.273313307e-16
3.458604478e-17
6.304342526e-18
1.369339386e-18
3.580616371e-19
1.116212256e-19
4.00388234e-20
1.582625853e-20
6.664123687e-21
2.935088834e-21
1.349268542e-21
6.568658183e-22
3.485436079e-22
2.077164956e-22
1.402176659e-22
1.048213805e-22
8.358191817e-23
6.881450457e-23
5.731212173e-23
4.776242467e-23
3.962724119e-23
3.267590901e-23
2.682246237e-23
2.198702437e-23
1.821509983e-23
1.501689361e-23
1.289357606e-23
1.151256677e-23
1.06146579e-23
2.885149935e-20
5.797885408e-20
1.055826207e-19
1.878314054e-19
3.358550657e-19
6.064432344e-19
1.100803968e-18
1.988044717e-18
3.518202289e-18
5.977956989e-18
9.503386139e-18
1.371274994e-17
1.758724694e-17
2.177587311e-17
3.852109247e-17
1.22260667e-16
1.998743625e-16
2.188976661e-16
4.122687633e-16
3.508944712e-16
1.301371505e-15
2.144432839e-16
2.649722982e-17
1.257073431e-16
8.787138787e-16
1.436770233e-16
1.309964029e-16
3.562081968e-17
6.282634458e-18
7.820809264e-18
1.860922253e-16
1.862061202e-16
3.552878145e-17
7.362515799e-18
1.695349554e-18
4.415030512e-19
1.302339931e-19
4.286799478e-20
1.536314957e-20
5.844829067e-21
2.316426929e-21
9.509995752e-22
4.117626401e-22
1.982307229e-22
1.141031454e-22
8.052268408e-23
6.579166403e-23
5.751226871e-23
5.115222853e-23
4.529649413e-23
3.966187924e-23
3.432055955e-23
2.940858201e-23
2.505568749e-23
2.136229874e-23
1.830580835e-23
1.591927182e-23
1.408580605e-23
1.273243917e-23
1.237357356e-23
1.621993396e-20
3.519197186e-20
7.127376038e-20
1.398952506e-19
2.713691694e-19
5.22562488e-19
9.973043551e-19
1.873567714e-18
3.425414413e-18
6.003536012e-18
9.921892043e-18
1.52903468e-17
2.223916563e-17
3.283161078e-17
5.653033225e-17
1.204473951e-16
1.580686896e-16
1.002169088e-16
3.583147327e-16
5.405428864e-16
1.826591654e-19
6.2358191e-19
3.903200249e-19
4.996646825e-19
1.030795303e-19
1.66204465e-16
3.004662163e-17
1.709680397e-16
3.548559004e-17
3.871726291e-18
2.418357159e-16
1.123901364e-16
3.001855473e-17
7.215928596e-18
1.75843907e-18
4.594367586e-19
1.314559451e-19
4.110594729e-20
1.381243394e-20
4.868060181e-21
1.754644339e-21
6.346881309e-22
2.318161207e-22
9.292757509e-23
5.004492563e-23
3.984931348e-23
3.889999303e-23
3.913924508e-23
3.832908446e-23
3.627288618e-23
3.335747537e-23
3.002582781e-23
2.663590286e-23
2.345065301e-23
2.06274459e-23
1.82984135e-23
1.631010609e-23
1.477721241e-23
1.403686688e-23
1.333672152e-23
8.296093542e-21
2.046808108e-20
4.751099092e-20
1.036881001e-19
2.176226086e-19
4.441780031e-19
8.848968631e-19
1.714758996e-18
3.200782067e-18
5.665999985e-18
9.312862045e-18
1.387164041e-17
1.849528528e-17
2.397722583e-17
4.192414479e-17
1.250697747e-16
1.955722982e-16
2.132779478e-16
4.124554068e-16
3.558224833e-16
1.314240483e-15
2.152005406e-16
2.586927747e-17
1.279706141e-16
8.921381701e-16
1.478252457e-16
1.302248542e-16
3.427673802e-17
6.239268973e-18
7.492504378e-18
1.863852562e-16
1.868659981e-16
3.560583337e-17
7.321931613e-18
1.652323955e-18
4.141950726e-19
1.153010261e-19
3.516566115e-20
1.146827261e-20
3.873177998e-21
1.303607323e-21
4.172986722e-22
1.203098742e-22
3.16742574e-23
1.375467412e-23
1.66380998e-23
2.302344166e-23
2.773376718e-23
2.990161108e-23
2.999112666e-23
2.871409226e-23
2.668173344e-23
2.43410269e-23
2.199585093e-23
1.98585855e-23
1.798234995e-23
1.651206087e-23
1.530225674e-23
1.440544653e-23
1.415630448e-23
4.653778122e-21
1.318880323e-20
3.398574991e-20
7.9884999e-20
1.771595626e-19
3.770170328e-19
7.749810771e-19
1.535259472e-18
2.901738198e-18
5.132226678e-18
8.207373473e-18
1.1125763e-17
1.119928386e-17
7.641541165e-18
2.277774987e-17
6.765287929e-17
6.258886985e-17
2.331147669e-17
1.106805732e-16
4.091967357e-16
8.264785792e-17
3.314081789e-17
1.073574563e-17
2.414112741e-17
5.284892551e-17
5.020292614e-16
4.00977447e-16
1.009837305e-17
5.486621471e-18
5.830573616e-20
1.417982993e-16
2.293221981e-16
3.49669634e-17
6.3236292e-18
1.327433703e-18
3.216580738e-19
8.884606764e-20
2.726509242e-20
8.967449656e-21
3.029803945e-21
1.000244676e-21
3.005878142e-22
7.15568456e-23
8.677757825e-24
8.422710986e-25
7.871494351e-24
1.618218888e-23
2.203146683e-23
2.508296663e-23
2.597482342e-23
2.545752531e-23
2.413855571e-23
2.245025865e-23
2.068670154e-23
1.901949391e-23
1.759551185e-23
1.63215708e-23
1.534276612e-23
1.483283236e-23
1.440380985e-23
3.789141652e-21
1.080985649e-20
2.760446232e-20
6.548570869e-20
1.479591092e-19
3.214796291e-19
6.734553682e-19
1.355424642e-18
2.595524949e-18
4.642049298e-18
7.481247344e-18
1.003913181e-17
8.908337439e-18
1.963643486e-18
2.219534457e-17
2.188933385e-17
1.14589842e-16
2.566016725e-16
9.418460761e-17
8.425904403e-17
3.296326721e-17
1.992880844e-17
1.329159987e-17
1.652216843e-17
2.732581947e-17
8.650795959e-17
2.029781961e-16
5.604978959e-16
2.173774157e-16
1.678811276e-18
4.899696499e-16
3.430807232e-16
3.655246402e-17
5.185705153e-18
9.555561804e-19
2.209818685e-19
6.159742168e-20
1.967403348e-20
6.806021776e-21
2.416220179e-21
8.360579309e-22
2.655526279e-22
7.070446191e-23
1.415953111e-23
5.195866744e-24
9.791716689e-24
1.607826751e-23
2.063328952e-23
2.302915792e-23
2.372365315e-23
2.330143094e-23
2.224457368e-23
2.089652675e-23
1.948272197e-23
1.816054615e-23
1.696504768e-23
1.603956239e-23
1.526015134e-23
1.461224148e-23
1.450889965e-23
3.91022188e-21
1.024406916e-20
2.434433292e-20
5.601441732e-20
1.258119252e-19
2.747789661e-19
5.807235942e-19
1.180781642e-18
2.292791979e-18
4.210328098e-18
7.214639561e-18
1.132629414e-17
1.563471865e-17
2.334585892e-17
1.524109864e-17
2.385147483e-17
2.2383094e-16
7.047618274e-17
1.976524239e-17
1.857940098e-17
1.402907914e-17
1.118189447e-17
9.280762699e-18
9.434626553e-18
1.121421791e-17
1.515001317e-17
1.631785479e-17
8.756429141e-17
7.055533873e-17
1.634707329e-19
1.062582801e-16
8.281060763e-17
1.037651155e-17
1.897945469e-18
4.253334528e-19
1.132520922e-19
3.582344642e-20
1.295610824e-20
5.028169468e-21
1.981165855e-21
7.62860623e-22
2.8027014e-22
9.843971667e-23
3.668779666e-23
2.002680376e-23
1.832069785e-23
2.023355352e-23
2.202279705e-23
2.281201081e-23
2.267528944e-23
2.191305929e-23
2.081120196e-23
1.958204396e-23
1.836910851e-23
1.724775505e-23
1.630925891e-23
1.545919017e-23
1.480616509e-23
1.449088719e-23
1.419523441e-23
3.739194868e-21
9.280285008e-21
2.119828396e-20
4.791362203e-20
1.071198339e-19
2.342661803e-19
4.962900603e-19
1.010315979e-18
1.961959044e-18
3.611724071e-18
6.282071767e-18
1.026850927e-17
1.513803054e-17
1.142978754e-17
8.560183024e-18
1.393705362e-16
1.41968296e-16
4.266651693e-18
2.352096098e-18
5.743291962e-18
6.610839585e-18
6.318030737e-18
5.545973323e-18
4.827365895e-18
4.280102012e-18
4.040510051e-18
3.819826711e-18
2.357935273e-18
5.198702018e-17
8.040239034e-17
3.404919444e-17
2.207653413e-17
3.792639976e-18
7.191548015e-19
1.585806462e-19
4.523368307e-20
1.72756256e-20
7.788976792e-21
3.639511326e-21
1.663601306e-21
7.340682604e-22
3.158444808e-22
1.376133926e-22
6.608296835e-23
3.920453727e-23
2.970381452e-23
2.631647429e-23
2.473973259e-23
2.351542803e-23
2.225883916e-23
2.094364111e-23
1.96350494e-23
1.839929902e-23
1.727781684e-23
1.630796395e-23
1.546445095e-23
1.483999529e-23
1.431583347e-23
1.385429016e-23
1.382459673e-23
2.910410773e-21
7.294468507e-21
1.720339411e-20
3.989750029e-20
9.05939288e-20
1.99719182e-19
4.236485101e-19
8.561893782e-19
1.627863507e-18
2.864521774e-18
4.596361551e-18
6.723198734e-18
1.094347577e-17
7.715745259e-18
6.904818966e-18
1.499116381e-16
4.783517324e-17
4.354355863e-18
2.02846159e-18
2.848933068e-18
3.742648509e-18
3.955367363e-18
3.440754825e-18
2.508248536e-18
1.547681771e-18
1.033150191e-18
1.197789791e-18
1.571987958e-18
2.685917268e-18
1.268398302e-17
1.392487135e-17
3.452934555e-18
1.130656731e-18
2.689992314e-19
5.287472672e-20
1.369394748e-20
7.155616802e-21
4.613889425e-21
2.729159482e-21
1.460859374e-21
7.320525984e-22
3.570548428e-22
1.775557924e-22
9.529008137e-23
5.81401863e-23
4.096514721e-23
3.239662473e-23
2.753292046e-23
2.433192809e-23
2.195845529e-23
2.006983603e-23
1.851973532e-23
1.723619432e-23
1.617545858e-23
1.529429402e-23
1.460943081e-23
1.400967772e-23
1.355401691e-23
1.336216851e-23
1.316391722e-23
1.808505409e-21
4.971511208e-21
1.313836508e-20
3.270362397e-20
7.706707282e-20
1.730329421e-19
3.693585581e-19
7.419927759e-19
1.372783401e-18
2.242412832e-18
2.969652331e-18
2.734727102e-18
2.86485421e-18
6.645125272e-18
1.664685802e-19
1.000235391e-16
3.829876944e-17
2.12726364e-18
4.849997708e-19
1.525979667e-18
2.614780906e-18
3.002535251e-18
2.56417538e-18
1.59303636e-18
5.886450064e-19
1.044887395e-19
3.571685474e-19
9.011412555e-19
1.291653549e-18
1.157415057e-18
1.468325068e-18
1.367110062e-18
5.587047022e-19
1.275310883e-19
1.494152832e-20
1.562872095e-21
2.945396821e-21
3.207897148e-21
2.327327895e-21
1.394333311e-21
7.605631825e-22
4.007710602e-22
2.13841939e-22
1.204619345e-22
7.393694563e-23
5.005524105e-23
3.706946817e-23
2.945788692e-23
2.46356007e-23
2.136591232e-23
1.90318136e-23
1.730760316e-23
1.600561047e-23
1.500238094e-23
1.422866599e-23
1.360495975e-23
1.317285708e-23
1.281967236e-23
1.24988649e-23
1.251231782e-23
1.037992704e-21
3.372337687e-21
1.031808826e-20
2.772716641e-20
6.799447157e-20
1.562958092e-19
3.391884062e-19
6.909000575e-19
1.295775329e-18
2.149845175e-18
2.909003943e-18
2.779003321e-18
2.883001104e-18
5.488058228e-18
1.71794644e-19
1.00227952e-16
3.845222519e-17
2.180714062e-18
5.084985349e-19
1.539704117e-18
2.623454351e-18
3.007517285e-18
2.565493276e-18
1.590339554e-18
5.824237339e-19
9.713282224e-20
3.505144795e-19
8.952051378e-19
1.282884461e-18
1.133928042e-18
1.447623802e-18
1.36961816e-18
5.658571112e-19
1.321239763e-19
1.699851764e-20
2.352146298e-21
3.262233222e-21
3.37696128e-21
2.447264921e-21
1.486769574e-21
8.293912683e-22
4.488748663e-22