/*--------------------------------*- C++ -*----------------------------------*\
  =========                 |
  \\      /  F ield         | OpenFOAM: The Open Source CFD Toolbox
   \\    /   O peration     | Website:  https://openfoam.org
    \\  /    A nd           | Version:  6
     \\/     M anipulation  |
\*---------------------------------------------------------------------------*/
FoamFile
{
    version     2.0;
    format      ascii;
    class       volVectorField;
    location    "0.0004";
    object      gradT;
}
// * * * * * * * * * * * * * * * * * * * * * * * * * * * * * * * * * * * * * //

dimensions      [0 -1 0 1 0 0 0];

internalField   nonuniform List<vector> 
57600
(
(0 -3.811648179e-09 -2.626225595e-06)
(0 -1.524659281e-08 -2.641472204e-06)
(0 -2.286988907e-08 -2.675777022e-06)
(0 -3.049318543e-08 -2.729140096e-06)
(0 -3.430483381e-08 -2.793938132e-06)
(0 -4.573977815e-08 -2.88922932e-06)
(0 -6.098637086e-08 -2.99214382e-06)
(0 -6.860966763e-08 -3.117928229e-06)
(0 -8.385625993e-08 -3.270394137e-06)
(0 -8.766790811e-08 -3.438106657e-06)
(0 -9.910285324e-08 -3.628689088e-06)
(0 -1.105377972e-07 -3.838329716e-06)
(0 -1.219727417e-07 -4.067028607e-06)
(0 -1.295960389e-07 -4.318597412e-06)
(0 -1.448426308e-07 -4.600659352e-06)
(0 -1.600892235e-07 -4.89796791e-06)
(0 -1.715241691e-07 -5.225769684e-06)
(0 -1.829591126e-07 -5.580252934e-06)
(0 -1.943940571e-07 -5.957606103e-06)
(0 -2.058290029e-07 -6.361640849e-06)
(0 -2.286988907e-07 -6.803791999e-06)
(0 -2.439454834e-07 -7.268813077e-06)
(0 -2.591920777e-07 -7.771950683e-06)
(0 -2.744386689e-07 -8.305581382e-06)
(0 -2.896852616e-07 -8.87351696e-06)
(0 -3.125551525e-07 -9.471945781e-06)
(0 -3.316133916e-07 -1.011230262e-05)
(0 -3.506716324e-07 -1.079458764e-05)
(0 -3.659182274e-07 -1.151117757e-05)
(0 -3.887881142e-07 -1.226969549e-05)
(0 -4.078463551e-07 -1.306251831e-05)
(0 -4.34527895e-07 -1.391251594e-05)
(0 -4.573977815e-07 -1.480062988e-05)
(0 -4.840793187e-07 -1.574210698e-05)
(0 -4.955142662e-07 -1.671788901e-05)
(0 -5.33630745e-07 -1.775465722e-05)
(0 -5.565006341e-07 -1.88371653e-05)
(0 -5.793705267e-07 -1.996922493e-05)
(0 -6.060520604e-07 -2.116227069e-05)
(0 -6.327335977e-07 -2.240486799e-05)
(0 -6.632267871e-07 -2.369701687e-05)
(0 -6.937199685e-07 -2.505396348e-05)
(0 -7.204015058e-07 -2.64718966e-05)
(0 -7.470830475e-07 -2.793556967e-05)
(0 -7.851995248e-07 -2.947166372e-05)
(0 -8.080694139e-07 -3.106112101e-05)
(0 -8.385626044e-07 -3.271156487e-05)
(0 -8.728674329e-07 -3.4430618e-05)
(0 -9.071722666e-07 -3.62030344e-05)
(0 -9.300421612e-07 -3.804024905e-05)
(0 -9.681586374e-07 -3.994226127e-05)
(0 -9.948401747e-07 -4.190907173e-05)
(0 -1.025333366e-06 -4.392924552e-05)
(0 -1.059638194e-06 -4.601421681e-05)
(0 -1.090131381e-06 -4.816779812e-05)
(0 -1.113001271e-06 -5.036711916e-05)
(0 -1.143494456e-06 -5.26274265e-05)
(0 -1.170175993e-06 -5.49449086e-05)
(0 -1.193045883e-06 -5.731194215e-05)
(0 -1.219727419e-06 -5.972852707e-05)
(0 -1.23878566e-06 -6.21908518e-05)
(0 -1.254032254e-06 -6.46874814e-05)
(0 -1.273090494e-06 -6.72222274e-05)
(0 -1.284525439e-06 -6.978365498e-05)
(0 -1.292148736e-06 -7.236414085e-05)
(0 -1.299772031e-06 -7.496368487e-05)
(0 -1.303583677e-06 -7.757085209e-05)
(0 -1.295960389e-06 -8.017039663e-05)
(0 -1.292148733e-06 -8.276612855e-05)
(0 -1.273090492e-06 -8.533517943e-05)
(0 -1.25022061e-06 -8.786611434e-05)
(0 -1.231162362e-06 -9.035130843e-05)
(0 -1.19304588e-06 -9.279076326e-05)
(0 -1.154929405e-06 -9.513873911e-05)
(0 -1.10918962e-06 -9.741810415e-05)
(0 -1.055826546e-06 -9.959455526e-05)
(0 -9.948401806e-07 -0.0001016528459)
(0 -9.414771002e-07 -0.0001035967859)
(0 -8.728674329e-07 -0.0001054073187)
(0 -7.813878813e-07 -0.0001070653863)
(0 -7.051549131e-07 -0.0001085595518)
(0 -6.136753568e-07 -0.0001098860053)
(0 -5.145725072e-07 -0.0001110180655)
(0 -4.192812997e-07 -0.0001119633536)
(0 -3.20178447e-07 -0.000112706625)
(0 -2.058290029e-07 -0.0001132288215)
(0 -9.910285265e-08 -0.0001135413759)
(0 1.905824089e-08 -0.0001136214206)
(0 1.334076871e-07 -0.0001134689553)
(0 2.591920762e-07 -0.0001130877898)
(0 3.773531697e-07 -0.0001124512446)
(0 4.993259144e-07 -0.0001115745662)
(0 6.212986531e-07 -0.0001104501293)
(0 7.508946912e-07 -0.0001090779359)
(0 8.728674382e-07 -0.0001074503628)
(0 1.002463471e-06 -0.0001055712196)
(0 1.132059509e-06 -0.0001034443199)
(0 1.246408962e-06 -0.0001010582288)
(0 1.372193344e-06 -9.843581422e-05)
(0 1.494166086e-06 -9.556564314e-05)
(0 1.604703893e-06 -9.246296208e-05)
(0 1.722864977e-06 -8.912395772e-05)
(0 1.833402774e-06 -8.556768997e-05)
(0 1.940128935e-06 -8.178653546e-05)
(0 2.043043424e-06 -7.779955098e-05)
(0 2.138334628e-06 -7.361436128e-05)
(0 2.222190902e-06 -6.924621288e-05)
(0 2.313670445e-06 -6.469891619e-05)
(0 2.393715056e-06 -5.998771904e-05)
(0 2.466136386e-06 -5.511262135e-05)
(0 2.534746039e-06 -5.011173861e-05)
(0 2.591920762e-06 -4.497363686e-05)
(0 2.652907148e-06 -3.971356261e-05)
(0 2.702458559e-06 -3.435438504e-05)
(0 2.748198337e-06 -2.889610484e-05)
(0 2.774879891e-06 -2.336159183e-05)
(0 2.812996356e-06 -1.776228051e-05)
(0 2.839677893e-06 -1.210579462e-05)
(0 2.854924503e-06 -6.399757331e-06)
(0 1.433179715e-06 -6.670384313e-07)
(0 0 -6.670384193e-07)
(0 0 -6.670384593e-07)
(0 3.81164811e-09 -6.594151231e-07)
(0 3.81164811e-09 -6.55603475e-07)
(0 3.811648339e-09 -6.441685693e-07)
(0 7.62329622e-09 -6.289219382e-07)
(0 7.62329622e-09 -6.174869938e-07)
(0 7.623296678e-09 -5.946171409e-07)
(0 1.524659244e-08 -5.793705127e-07)
(0 7.62329622e-09 -5.603122722e-07)
(0 1.143494502e-08 -5.374424158e-07)
(0 1.143494433e-08 -5.18384143e-07)
(0 1.143494433e-08 -4.917026062e-07)
(0 1.143494502e-08 -4.688327457e-07)
(0 1.524659244e-08 -4.421511808e-07)
(0 1.143494433e-08 -4.15469644e-07)
(0 1.143494502e-08 -3.849764822e-07)
(0 1.143494433e-08 -3.621065705e-07)
(0 1.905824055e-08 -3.354250337e-07)
(0 1.524659336e-08 -3.049318671e-07)
(0 7.62329622e-09 -2.820619602e-07)
(0 1.143494433e-08 -2.630037196e-07)
(0 7.623296678e-09 -2.401338453e-07)
(0 7.62329622e-09 -2.134522942e-07)
(0 1.524659244e-08 -1.982057017e-07)
(0 1.143494502e-08 -1.753358236e-07)
(0 7.62329622e-09 -1.562775725e-07)
(0 7.62329622e-09 -1.410309801e-07)
(0 3.811648339e-09 -1.295960435e-07)
(0 1.143494433e-08 -1.105377952e-07)
(0 7.62329622e-09 -9.529120275e-08)
(0 3.811648339e-09 -8.385626346e-08)
(0 3.81164811e-09 -6.860966598e-08)
(0 7.62329622e-09 -6.479801787e-08)
(0 3.811648339e-09 -4.955142841e-08)
(0 3.81164811e-09 -4.573977732e-08)
(0 7.62329622e-09 -3.430483299e-08)
(0 0 -2.668153837e-08)
(0 3.81164811e-09 -1.524659244e-08)
(0 3.81164811e-09 -1.143494433e-08)
(0 0 -1.143494502e-08)
(0 -3.81164811e-09 -1.143494433e-08)
(0 3.81164811e-09 -1.143494433e-08)
(0 0 -7.623296678e-09)
(0 0 -3.81164811e-09)
(0 3.81164811e-09 -7.62329622e-09)
(0 0 -3.811648339e-09)
(0 -3.81164811e-09 -3.81164811e-09)
(0 3.81164811e-09 -3.81164811e-09)
(0 0 -7.623296678e-09)
(0 0 -3.81164811e-09)
(0 -3.81164811e-09 -3.81164811e-09)
(0 3.811648339e-09 -7.623296678e-09)
(0 3.81164811e-09 -3.81164811e-09)
(0 -3.81164811e-09 0)
(0 0 0)
(0 3.81164811e-09 0)
(0 -3.81164811e-09 0)
(0 0 -3.811648339e-09)
(0 0 -3.81164811e-09)
(0 0 -3.81164811e-09)
(0 0 -3.811648339e-09)
(0 0 -3.81164811e-09)
(0 3.81164811e-09 -3.81164811e-09)
(0 -3.811648339e-09 0)
(0 -3.81164811e-09 -7.62329622e-09)
(0 0 -1.143494433e-08)
(0 0 -7.623296678e-09)
(0 3.81164811e-09 -7.62329622e-09)
(0 -3.81164811e-09 -3.81164811e-09)
(0 0 -7.623296678e-09)
(0 3.81164811e-09 -7.62329622e-09)
(0 3.81164811e-09 0)
(0 0 0)
(0 0 0)
(0 -3.81164811e-09 0)
(0 0 0)
(0 0 3.81164811e-09)
(0 3.81164811e-09 3.81164811e-09)
(0 0 3.811648339e-09)
(0 0 0)
(0 -3.81164811e-09 0)
(0 0 -3.811648339e-09)
(0 -3.81164811e-09 -3.81164811e-09)
(0 3.81164811e-09 -3.81164811e-09)
(0 0 -3.811648339e-09)
(0 -3.81164811e-09 -3.81164811e-09)
(0 7.62329622e-09 -3.81164811e-09)
(0 3.811648339e-09 3.811648339e-09)
(0 -7.62329622e-09 7.62329622e-09)
(0 0 3.81164811e-09)
(0 0 0)
(0 -3.81164811e-09 -3.81164811e-09)
(0 3.81164811e-09 0)
(0 0 3.811648339e-09)
(0 0 3.81164811e-09)
(0 0 3.81164811e-09)
(0 0 3.811648339e-09)
(0 0 0)
(0 0 -3.81164811e-09)
(0 0 -3.811648339e-09)
(0 -3.81164811e-09 -3.81164811e-09)
(0 3.81164811e-09 -3.81164811e-09)
(0 0 0)
(0 0 -3.81164811e-09)
(0 0 -7.62329622e-09)
(0 0 -3.811648339e-09)
(0 0 -3.81164811e-09)
(0 0 -7.62329622e-09)
(0 0 -3.811648339e-09)
(0 0 0)
(0 0 -3.81164811e-09)
(0 0 -3.811648339e-09)
(0 -3.81164811e-09 0)
(0 3.81164811e-09 3.81164811e-09)
(0 0 3.811648339e-09)
(0 -3.81164811e-09 0)
(0 3.81164811e-09 0)
(0 0 0)
(0 0 -3.81164811e-09)
(0 -1.524659363e-08 -2.626225753e-06)
(0 -3.81164843e-08 -2.645284011e-06)
(0 -6.479802293e-08 -2.67958883e-06)
(0 -8.766791337e-08 -2.72914026e-06)
(0 -1.143494529e-07 -2.801561596e-06)
(0 -1.524659363e-07 -2.889229493e-06)
(0 -1.753358267e-07 -2.999767297e-06)
(0 -2.058290152e-07 -3.129363361e-06)
(0 -2.401338497e-07 -3.270394334e-06)
(0 -2.668153885e-07 -3.441918512e-06)
(0 -2.973085776e-07 -3.624877657e-06)
(0 -3.316134115e-07 -3.834518298e-06)
(0 -3.659182471e-07 -4.074652148e-06)
(0 -3.925997883e-07 -4.330032617e-06)
(0 -4.345279185e-07 -4.604471276e-06)
(0 -4.726444025e-07 -4.9055915e-06)
(0 -5.107608897e-07 -5.229581646e-06)
(0 -5.488773707e-07 -5.584064917e-06)
(0 -5.869938548e-07 -5.965229758e-06)
(0 -6.327336394e-07 -6.376887824e-06)
(0 -6.822850649e-07 -6.807604056e-06)
(0 -7.280248458e-07 -7.280248458e-06)
(0 -7.737646314e-07 -7.779574446e-06)
(0 -8.271277044e-07 -8.309393528e-06)
(0 -8.766791337e-07 -8.881140789e-06)
(0 -9.30042217e-07 -9.487192943e-06)
(0 -9.872169375e-07 -1.012754982e-05)
(0 -1.048203312e-06 -1.080221159e-05)
(0 -1.105378045e-06 -1.151880156e-05)
(0 -1.170176061e-06 -1.228113117e-05)
(0 -1.234974084e-06 -1.308538898e-05)
(0 -1.299772115e-06 -1.393157501e-05)
(0 -1.368381778e-06 -1.482731231e-05)
(0 -1.440803098e-06 -1.575735452e-05)
(0 -1.509412778e-06 -1.674457155e-05)
(0 -1.585645738e-06 -1.777752817e-05)
(0 -1.669502002e-06 -1.886003632e-05)
(0 -1.741923333e-06 -1.999971931e-05)
(0 -1.821967939e-06 -2.119276515e-05)
(0 -1.909635852e-06 -2.243917417e-05)
(0 -1.989680481e-06 -2.374275807e-05)
(0 -2.073536734e-06 -2.509970476e-05)
(0 -2.165016295e-06 -2.650620303e-05)
(0 -2.248872574e-06 -2.798893442e-05)
(0 -2.344163771e-06 -2.952121692e-05)
(0 -2.431831684e-06 -3.11182976e-05)
(0 -2.527122909e-06 -3.277636485e-05)
(0 -2.614790808e-06 -3.449160644e-05)
(0 -2.717705315e-06 -3.627545789e-05)
(0 -2.801561596e-06 -3.81164843e-05)
(0 -2.900664438e-06 -4.002611993e-05)
(0 -2.992144e-06 -4.198911886e-05)
(0 -3.079811932e-06 -4.402072772e-05)
(0 -3.175103123e-06 -4.611713408e-05)
(0 -3.266582691e-06 -4.825928057e-05)
(0 -3.342815661e-06 -5.047003668e-05)
(0 -3.434295221e-06 -5.273415581e-05)
(0 -3.514339838e-06 -5.50554497e-05)
(0 -3.58676116e-06 -5.743010669e-05)
(0 -3.662994126e-06 -5.98581267e-05)
(0 -3.720168852e-06 -6.232426322e-05)
(0 -3.773531932e-06 -6.483613957e-05)
(0 -3.82308336e-06 -6.737850902e-05)
(0 -3.857388195e-06 -6.99513717e-05)
(0 -3.887881385e-06 -7.255091596e-05)
(0 -3.906939625e-06 -7.515808343e-05)
(0 -3.910751266e-06 -7.777668575e-05)
(0 -3.895504696e-06 -8.039528869e-05)
(0 -3.87644643e-06 -8.300245572e-05)
(0 -3.826895001e-06 -8.558294169e-05)
(0 -3.765908649e-06 -8.813293501e-05)
(0 -3.689675658e-06 -9.063337583e-05)
(0 -3.598196097e-06 -9.307664246e-05)
(0 -3.47241172e-06 -9.545892329e-05)
(0 -3.342815653e-06 -9.774591176e-05)
(0 -3.178914772e-06 -9.99376096e-05)
(0 -3.003578963e-06 -0.0001020187702)
(0 -2.820619822e-06 -0.0001039817686)
(0 -2.599544214e-06 -0.0001057999248)
(0 -2.363222027e-06 -0.0001074656158)
(0 -2.115464866e-06 -0.0001089788396)
(0 -1.848649478e-06 -0.0001103091049)
(0 -1.562775856e-06 -0.0001114564118)
(0 -1.265467271e-06 -0.0001124131348)
(0 -9.529121019e-07 -0.0001131602179)
(0 -6.212986941e-07 -0.000113697661)
(0 -2.934969274e-07 -0.0001140064039)
(0 4.95514293e-08 -0.0001140940718)
(0 4.040347336e-07 -0.0001139492298)
(0 7.585180331e-07 -0.000113560441)
(0 1.132059577e-06 -0.000112931519)
(0 1.501789482e-06 -0.0001120586522)
(0 1.871519368e-06 -0.0001109342153)
(0 2.256495857e-06 -0.0001095543985)
(0 2.626225769e-06 -0.0001079230137)
(0 3.007390594e-06 -0.0001060438703)
(0 3.388555434e-06 -0.0001039055356)
(0 3.754473704e-06 -0.0001015194443)
(0 4.120391928e-06 -9.888559464e-05)
(0 4.478686879e-06 -9.600398844e-05)
(0 4.83317021e-06 -9.28860606e-05)
(0 5.180030186e-06 -8.953180944e-05)
(0 5.507831949e-06 -8.595267159e-05)
(0 5.820387153e-06 -8.216008192e-05)
(0 6.132942288e-06 -7.81578506e-05)
(0 6.418815918e-06 -7.39536024e-05)
(0 6.685631347e-06 -6.95663955e-05)
(0 6.948635047e-06 -6.499622864e-05)
(0 7.188768897e-06 -6.026597297e-05)
(0 7.409844549e-06 -5.537944004e-05)
(0 7.608050221e-06 -5.034425217e-05)
(0 7.80244429e-06 -4.518709187e-05)
(0 7.966345219e-06 -3.990414742e-05)
(0 8.11499946e-06 -3.452209963e-05)
(0 8.248407154e-06 -2.904476087e-05)
(0 8.355133359e-06 -2.348737763e-05)
(0 8.446612871e-06 -1.785376114e-05)
(0 8.526657488e-06 -1.217440501e-05)
(0 8.576208968e-06 -6.445497496e-06)
(0 4.303351052e-06 -6.899083618e-07)
(0 0 -6.899083493e-07)
(0 3.811648568e-09 -6.899083907e-07)
(0 7.623296678e-09 -6.86096701e-07)
(0 1.143494502e-08 -6.708501076e-07)
(0 1.905824284e-08 -6.632268508e-07)
(0 1.905824169e-08 -6.517918659e-07)
(0 3.049318671e-08 -6.289219759e-07)
(0 2.286989141e-08 -6.136754194e-07)
(0 3.049318671e-08 -5.984287892e-07)
(0 3.430483505e-08 -5.755588992e-07)
(0 3.049318854e-08 -5.565006909e-07)
(0 3.430483505e-08 -5.298191191e-07)
(0 3.430483505e-08 -5.069492291e-07)
(0 3.430483711e-08 -4.840793681e-07)
(0 4.192813173e-08 -4.49774504e-07)
(0 4.192813173e-08 -4.26904614e-07)
(0 4.192813424e-08 -4.002230996e-07)
(0 3.811648339e-08 -3.659182405e-07)
(0 4.192813173e-08 -3.430483505e-07)
(0 3.811648568e-08 -3.201784797e-07)
(0 3.430483505e-08 -2.973085704e-07)
(0 3.811648339e-08 -2.668153837e-07)
(0 3.430483711e-08 -2.363222112e-07)
(0 3.049318671e-08 -2.172639553e-07)
(0 2.668153837e-08 -1.982057136e-07)
(0 2.668153997e-08 -1.791474827e-07)
(0 2.668153837e-08 -1.639008786e-07)
(0 2.286989003e-08 -1.486542852e-07)
(0 2.286989141e-08 -1.295960513e-07)
(0 2.668153837e-08 -1.143494502e-07)
(0 1.905824169e-08 -9.910285681e-08)
(0 2.286989141e-08 -8.766791705e-08)
(0 1.143494502e-08 -6.86096701e-08)
(0 1.524659336e-08 -6.098637342e-08)
(0 1.14349457e-08 -5.717472851e-08)
(0 1.524659336e-08 -4.955142841e-08)
(0 1.524659336e-08 -3.811648339e-08)
(0 7.623297135e-09 -2.668153997e-08)
(0 1.143494502e-08 -2.668153837e-08)
(0 7.623296678e-09 -1.905824169e-08)
(0 0 -1.14349457e-08)
(0 3.811648339e-09 -1.143494502e-08)
(0 3.811648339e-09 -3.811648339e-09)
(0 0 -7.623297135e-09)
(0 0 -7.623296678e-09)
(0 0 0)
(0 3.811648568e-09 0)
(0 0 0)
(0 0 0)
(0 0 0)
(0 -3.811648339e-09 -3.811648339e-09)
(0 3.811648339e-09 0)
(0 0 -3.811648568e-09)
(0 0 -3.811648339e-09)
(0 3.811648339e-09 -3.811648339e-09)
(0 0 0)
(0 0 0)
(0 -3.811648339e-09 0)
(0 0 0)
(0 -3.811648339e-09 0)
(0 3.811648339e-09 0)
(0 0 0)
(0 0 0)
(0 0 0)
(0 0 -3.811648568e-09)
(0 -3.811648339e-09 0)
(0 -3.811648339e-09 0)
(0 0 -3.811648568e-09)
(0 3.811648339e-09 -3.811648339e-09)
(0 0 -7.623296678e-09)
(0 0 0)
(0 3.811648339e-09 3.811648339e-09)
(0 3.811648339e-09 0)
(0 0 0)
(0 0 0)
(0 0 0)
(0 0 0)
(0 3.811648339e-09 0)
(0 0 0)
(0 0 0)
(0 -3.811648339e-09 0)
(0 -3.811648339e-09 0)
(0 0 0)
(0 -3.811648339e-09 0)
(0 3.811648339e-09 -3.811648339e-09)
(0 0 0)
(0 0 0)
(0 3.811648339e-09 0)
(0 3.811648568e-09 0)
(0 3.811648339e-09 0)
(0 -7.623296678e-09 0)
(0 0 0)
(0 0 3.811648339e-09)
(0 3.811648339e-09 3.811648339e-09)
(0 0 0)
(0 0 3.811648339e-09)
(0 0 0)
(0 0 0)
(0 -7.623296678e-09 0)
(0 -3.811648339e-09 0)
(0 0 -3.811648568e-09)
(0 3.811648339e-09 0)
(0 3.811648339e-09 0)
(0 0 0)
(0 -7.623296678e-09 0)
(0 3.811648339e-09 0)
(0 0 0)
(0 -3.811648339e-09 0)
(0 3.811648339e-09 0)
(0 0 0)
(0 0 0)
(0 0 0)
(0 0 0)
(0 7.623296678e-09 3.811648339e-09)
(0 0 3.811648339e-09)
(0 0 0)
(0 -3.811648339e-09 0)
(0 0 0)
(0 0 0)
(0 0 0)
(0 -2.668153725e-08 -2.630037243e-06)
(0 -6.479801943e-08 -2.6490955e-06)
(0 -1.06726149e-07 -2.683400318e-06)
(0 -1.524659272e-07 -2.740575041e-06)
(0 -1.982057065e-07 -2.812996373e-06)
(0 -2.439454834e-07 -2.900664264e-06)
(0 -2.973085579e-07 -3.011202061e-06)
(0 -3.430483381e-07 -3.13698647e-06)
(0 -3.964114106e-07 -3.28564073e-06)
(0 -4.421511887e-07 -3.449541602e-06)
(0 -4.993259144e-07 -3.643935681e-06)
(0 -5.565006341e-07 -3.857387957e-06)
(0 -6.098637086e-07 -4.086086848e-06)
(0 -6.632267871e-07 -4.34527895e-06)
(0 -7.204015058e-07 -4.623529241e-06)
(0 -7.89011173e-07 -4.920837799e-06)
(0 -8.461859008e-07 -5.252451222e-06)
(0 -9.147955629e-07 -5.603122823e-06)
(0 -9.834052301e-07 -5.984287641e-06)
(0 -1.0596382e-06 -6.395945682e-06)
(0 -1.132059509e-06 -6.834285185e-06)
(0 -1.212104121e-06 -7.303117911e-06)
(0 -1.29214874e-06 -7.802443869e-06)
(0 -1.379816641e-06 -8.343697863e-06)
(0 -1.463672901e-06 -8.91544509e-06)
(0 -1.551340818e-06 -9.513873911e-06)
(0 -1.646632013e-06 -1.01580424e-05)
(0 -1.749546514e-06 -1.084413907e-05)
(0 -1.84483773e-06 -1.156454064e-05)
(0 -1.955375516e-06 -1.232305856e-05)
(0 -2.058290017e-06 -1.312731633e-05)
(0 -2.168827827e-06 -1.39811256e-05)
(0 -2.283177259e-06 -1.486923955e-05)
(0 -2.401338353e-06 -1.581071665e-05)
(0 -2.523311109e-06 -1.680174527e-05)
(0 -2.645283836e-06 -1.783851348e-05)
(0 -2.778691522e-06 -1.892864486e-05)
(0 -2.908287578e-06 -2.007213943e-05)
(0 -3.049318543e-06 -2.126518519e-05)
(0 -3.182726229e-06 -2.251540579e-05)
(0 -3.316133935e-06 -2.382280126e-05)
(0 -3.464788195e-06 -2.518737117e-05)
(0 -3.609630825e-06 -2.660911594e-05)
(0 -3.762096775e-06 -2.80880356e-05)
(0 -3.910751031e-06 -2.963556459e-05)
(0 -4.067028607e-06 -3.123645683e-05)
(0 -4.211871263e-06 -3.289833563e-05)
(0 -4.371960461e-06 -3.462501206e-05)
(0 -4.528238036e-06 -3.641267505e-05)
(0 -4.680703992e-06 -3.826894794e-05)
(0 -4.840793187e-06 -4.01747718e-05)
(0 -4.997070762e-06 -4.216064051e-05)
(0 -5.145725072e-06 -4.420368419e-05)
(0 -5.29437932e-06 -4.629627878e-05)
(0 -5.446845257e-06 -4.846129503e-05)
(0 -5.591687892e-06 -5.068348595e-05)
(0 -5.728907223e-06 -5.296285154e-05)
(0 -5.866126558e-06 -5.529939188e-05)
(0 -5.9957226e-06 -5.769310697e-05)
(0 -6.11388369e-06 -6.013256178e-05)
(0 -6.216798191e-06 -6.261394475e-05)
(0 -6.308277751e-06 -6.514487918e-05)
(0 -6.388322359e-06 -6.770630672e-05)
(0 -6.456932026e-06 -7.030585078e-05)
(0 -6.49886016e-06 -7.292064148e-05)
(0 -6.525541694e-06 -7.555830198e-05)
(0 -6.540788275e-06 -7.819977404e-05)
(0 -6.514106777e-06 -8.084505836e-05)
(0 -6.483613552e-06 -8.347128347e-05)
(0 -6.407380589e-06 -8.608607412e-05)
(0 -6.300654477e-06 -8.867037212e-05)
(0 -6.17487005e-06 -9.120892927e-05)
(0 -6.014780826e-06 -9.368268894e-05)
(0 -5.820386804e-06 -9.608402787e-05)
(0 -5.595499526e-06 -9.840913268e-05)
(0 -5.332495802e-06 -0.0001006351352)
(0 -5.035187274e-06 -0.0001027506006)
(0 -4.718820445e-06 -0.0001047402803)
(0 -4.356713868e-06 -0.000106585118)
(0 -3.960302482e-06 -0.0001082851138)
(0 -3.544832806e-06 -0.0001098173957)
(0 -3.095058321e-06 -0.0001111705308)
(0 -2.622413963e-06 -0.0001123368958)
(0 -2.119276387e-06 -0.0001133164887)
(0 -1.604703883e-06 -0.0001140750067)
(0 -1.052014904e-06 -0.000114631508)
(0 -4.955142632e-07 -0.0001149516858)
(0 7.623296358e-08 -0.0001150507886)
(0 6.632267871e-07 -0.0001149097583)
(0 1.273090492e-06 -0.0001145324045)
(0 1.8829542e-06 -0.0001139072942)
(0 2.50044122e-06 -0.0001130306158)
(0 3.121739858e-06 -0.0001118985556)
(0 3.758285104e-06 -0.0001105225506)
(0 4.391018728e-06 -0.0001088835425)
(0 5.019940651e-06 -0.0001069891527)
(0 5.652674249e-06 -0.0001048470065)
(0 6.266349644e-06 -0.0001024418571)
(0 6.887648259e-06 -9.978513767e-05)
(0 7.493700319e-06 -9.688066176e-05)
(0 8.080694188e-06 -9.373605258e-05)
(0 8.652441366e-06 -9.035512008e-05)
(0 9.205130352e-06 -8.675311255e-05)
(0 9.734949507e-06 -8.292621828e-05)
(0 1.024952195e-05 -7.888205906e-05)
(0 1.072597798e-05 -7.464731793e-05)
(0 1.118337582e-05 -7.021055987e-05)
(0 1.1614092e-05 -6.560608845e-05)
(0 1.201431506e-05 -6.082628164e-05)
(0 1.238404501e-05 -5.589782088e-05)
(0 1.272709327e-05 -5.082070517e-05)
(0 1.303583677e-05 -4.56178054e-05)
(0 1.331408717e-05 -4.030055644e-05)
(0 1.356184422e-05 -3.486133424e-05)
(0 1.378291981e-05 -2.933825603e-05)
(0 1.396587901e-05 -2.372751006e-05)
(0 1.412596815e-05 -1.805196577e-05)
(0 1.424412924e-05 -1.231924691e-05)
(0 1.433942053e-05 -6.544599962e-06)
(0 7.192580113e-06 -7.432713949e-07)
(0 3.81164811e-09 -7.432713815e-07)
(0 7.623296678e-09 -7.394597777e-07)
(0 1.524659244e-08 -7.318364372e-07)
(0 2.286988866e-08 -7.28024789e-07)
(0 3.049318671e-08 -7.127782394e-07)
(0 3.430483299e-08 -6.975316042e-07)
(0 4.573977732e-08 -6.784733636e-07)
(0 4.573978007e-08 -6.63226811e-07)
(0 4.573977732e-08 -6.403568825e-07)
(0 5.336307354e-08 -6.174869938e-07)
(0 5.717472508e-08 -5.908054925e-07)
(0 6.098636976e-08 -5.679355684e-07)
(0 6.479801787e-08 -5.374423835e-07)
(0 6.479802176e-08 -5.069492291e-07)
(0 6.860966598e-08 -4.802676619e-07)
(0 6.860966598e-08 -4.49774477e-07)
(0 6.479802176e-08 -4.230929656e-07)
(0 6.860966598e-08 -3.964114035e-07)
(0 6.479801787e-08 -3.621065705e-07)
(0 6.098637342e-08 -3.392367022e-07)
(0 6.098636976e-08 -3.12555145e-07)
(0 6.860966598e-08 -2.896852564e-07)
(0 6.098637342e-08 -2.630037354e-07)
(0 4.955142543e-08 -2.401338309e-07)
(0 4.955142543e-08 -2.172639423e-07)
(0 4.192813173e-08 -1.943940653e-07)
(0 4.573977732e-08 -1.791474612e-07)
(0 3.81164811e-08 -1.600892206e-07)
(0 3.811648339e-08 -1.410309885e-07)
(0 4.192812921e-08 -1.257843876e-07)
(0 3.430483299e-08 -1.105377952e-07)
(0 3.430483505e-08 -9.910285681e-08)
(0 2.668153677e-08 -8.766790653e-08)
(0 2.286988866e-08 -7.242131409e-08)
(0 1.905824169e-08 -6.479802176e-08)
(0 2.286988866e-08 -5.336307354e-08)
(0 2.668153677e-08 -4.573977732e-08)
(0 1.524659336e-08 -4.192813173e-08)
(0 1.905824055e-08 -3.049318488e-08)
(0 1.143494433e-08 -2.668153677e-08)
(0 3.811648339e-09 -2.286989003e-08)
(0 3.81164811e-09 -1.905824055e-08)
(0 7.62329622e-09 -1.905824055e-08)
(0 0 -1.143494502e-08)
(0 7.62329622e-09 -1.143494433e-08)
(0 3.81164811e-09 -3.81164811e-09)
(0 0 -7.623296678e-09)
(0 3.81164811e-09 -3.81164811e-09)
(0 0 -3.81164811e-09)
(0 0 -3.811648339e-09)
(0 -3.81164811e-09 -3.81164811e-09)
(0 -3.81164811e-09 -7.62329622e-09)
(0 0 -3.811648339e-09)
(0 3.81164811e-09 0)
(0 7.62329622e-09 3.81164811e-09)
(0 3.811648339e-09 3.811648339e-09)
(0 -3.81164811e-09 0)
(0 0 7.62329622e-09)
(0 0 7.623296678e-09)
(0 0 1.143494433e-08)
(0 0 7.62329622e-09)
(0 0 7.623296678e-09)
(0 0 3.81164811e-09)
(0 0 3.81164811e-09)
(0 0 0)
(0 -7.62329622e-09 7.62329622e-09)
(0 -3.81164811e-09 3.81164811e-09)
(0 0 0)
(0 0 3.81164811e-09)
(0 0 0)
(0 7.623296678e-09 3.811648339e-09)
(0 3.81164811e-09 3.81164811e-09)
(0 3.81164811e-09 3.81164811e-09)
(0 0 3.811648339e-09)
(0 -3.81164811e-09 3.81164811e-09)
(0 3.81164811e-09 0)
(0 0 7.623296678e-09)
(0 0 0)
(0 0 -3.81164811e-09)
(0 0 -3.811648339e-09)
(0 -7.62329622e-09 -3.81164811e-09)
(0 3.81164811e-09 0)
(0 0 3.811648339e-09)
(0 -3.81164811e-09 3.81164811e-09)
(0 3.81164811e-09 7.62329622e-09)
(0 0 3.811648339e-09)
(0 0 0)
(0 3.81164811e-09 3.81164811e-09)
(0 3.811648339e-09 3.811648339e-09)
(0 0 0)
(0 -3.81164811e-09 3.81164811e-09)
(0 0 7.623296678e-09)
(0 3.81164811e-09 7.62329622e-09)
(0 0 7.62329622e-09)
(0 0 7.623296678e-09)
(0 3.81164811e-09 0)
(0 -7.62329622e-09 3.81164811e-09)
(0 0 0)
(0 -3.81164811e-09 7.62329622e-09)
(0 -3.81164811e-09 3.81164811e-09)
(0 0 7.623296678e-09)
(0 3.81164811e-09 3.81164811e-09)
(0 0 3.81164811e-09)
(0 0 -3.811648339e-09)
(0 -3.81164811e-09 0)
(0 0 3.81164811e-09)
(0 0 0)
(0 3.81164811e-09 0)
(0 -3.81164811e-09 3.81164811e-09)
(0 0 3.811648339e-09)
(0 3.81164811e-09 3.81164811e-09)
(0 0 7.62329622e-09)
(0 3.811648339e-09 7.623296678e-09)
(0 3.81164811e-09 3.81164811e-09)
(0 -3.81164811e-09 0)
(0 -3.811648339e-09 0)
(0 -3.81164811e-09 0)
(0 3.81164811e-09 -3.81164811e-09)
(0 0 0)
(0 0 3.81164811e-09)
(0 -3.430483361e-08 -2.641472188e-06)
(0 -9.147955684e-08 -2.656718797e-06)
(0 -1.524659272e-07 -2.694835262e-06)
(0 -2.172639462e-07 -2.744386689e-06)
(0 -2.782503187e-07 -2.820619669e-06)
(0 -3.468599843e-07 -2.912099209e-06)
(0 -4.154696515e-07 -3.018825358e-06)
(0 -4.802676734e-07 -3.152233063e-06)
(0 -5.526889859e-07 -3.300887323e-06)
(0 -6.251103013e-07 -3.468599843e-06)
(0 -6.937199727e-07 -3.655370625e-06)
(0 -7.737645803e-07 -3.861199605e-06)
(0 -8.614324884e-07 -4.097521792e-06)
(0 -9.300421612e-07 -4.356713894e-06)
(0 -1.013898416e-06 -4.631152537e-06)
(0 -1.097754675e-06 -4.936084392e-06)
(0 -1.189234239e-06 -5.267697815e-06)
(0 -1.284525436e-06 -5.622181064e-06)
(0 -1.387439937e-06 -6.010969178e-06)
(0 -1.478919502e-06 -6.42262722e-06)
(0 -1.585645642e-06 -6.868590018e-06)
(0 -1.699995088e-06 -7.337422744e-06)
(0 -1.810532896e-06 -7.840560351e-06)
(0 -1.932505627e-06 -8.374191049e-06)
(0 -2.054478368e-06 -8.945938276e-06)
(0 -2.176451123e-06 -9.555802042e-06)
(0 -2.309858796e-06 -1.020378217e-05)
(0 -2.454701427e-06 -1.08860672e-05)
(0 -2.584297481e-06 -1.160646877e-05)
(0 -2.736763392e-06 -1.237642164e-05)
(0 -2.88922932e-06 -1.318449105e-05)
(0 -3.045506913e-06 -1.403448868e-05)
(0 -3.205596118e-06 -1.493403756e-05)
(0 -3.365685342e-06 -1.588313796e-05)
(0 -3.537209531e-06 -1.687797824e-05)
(0 -3.712545326e-06 -1.792618138e-05)
(0 -3.899316087e-06 -1.902012441e-05)
(0 -4.082275224e-06 -2.016743063e-05)
(0 -4.272857608e-06 -2.137191134e-05)
(0 -4.459628369e-06 -2.262975524e-05)
(0 -4.661645751e-06 -2.3944774e-05)
(0 -4.863663076e-06 -2.53169672e-05)
(0 -5.061868781e-06 -2.675014692e-05)
(0 -5.279132759e-06 -2.824050153e-05)
(0 -5.484961729e-06 -2.978803052e-05)
(0 -5.702225675e-06 -3.14003577e-05)
(0 -5.911866361e-06 -3.307748309e-05)
(0 -6.13294192e-06 -3.481178282e-05)
(0 -6.354017514e-06 -3.661088076e-05)
(0 -6.567469851e-06 -3.847477695e-05)
(0 -6.796168703e-06 -4.041109399e-05)
(0 -7.009621001e-06 -4.240077434e-05)
(0 -7.22688499e-06 -4.445144133e-05)
(0 -7.436525597e-06 -4.65745291e-05)
(0 -7.642354612e-06 -4.875479194e-05)
(0 -7.848183619e-06 -5.099604111e-05)
(0 -8.054012616e-06 -5.329065328e-05)
(0 -8.240783377e-06 -5.565387516e-05)
(0 -8.416119199e-06 -5.806283685e-05)
(-9.918233385e-25 -8.583831714e-06 -6.052516154e-05)
(9.918233385e-25 -8.74010929e-06 -6.304466099e-05)
(0 -8.865893685e-06 -6.559846531e-05)
(0 -8.980243125e-06 -6.819419769e-05)
(0 -9.07553433e-06 -7.081661164e-05)
(0 -9.140332355e-06 -7.347333047e-05)
(0 -9.186072127e-06 -7.614148416e-05)
(0 -9.193695407e-06 -7.882107269e-05)
(0 -9.174637221e-06 -8.150828514e-05)
(0 -9.117462444e-06 -8.418406168e-05)
(0 -9.018359591e-06 -8.683696881e-05)
(0 -8.88114031e-06 -8.946700659e-05)
(0 -8.70580444e-06 -9.204749187e-05)
(0 -8.47710555e-06 -9.457080296e-05)
(0 -8.20266693e-06 -9.703312827e-05)
(0 -7.89011173e-06 -9.94077845e-05)
(0 -7.520381857e-06 -0.0001016795268)
(0 -7.112535544e-06 -0.0001038369203)
(0 -6.651326072e-06 -0.0001058685282)
(0 -6.144376864e-06 -0.0001077629173)
(0 -5.59549956e-06 -0.0001095010295)
(0 -5.004694059e-06 -0.0001110714279)
(0 -4.371960461e-06 -0.0001124664912)
(0 -3.701110404e-06 -0.000113667161)
(0 -3.003578765e-06 -0.0001146620005)
(0 -2.271742315e-06 -0.0001154624466)
(0 -1.497977743e-06 -0.0001160227596)
(0 -7.127782094e-07 -0.0001163734305)
(0 9.529120447e-08 -0.0001164839683)
(0 9.186072166e-07 -0.0001163581847)
(0 1.768604755e-06 -0.0001159846424)
(0 2.633848892e-06 -0.0001153595321)
(0 3.502904697e-06 -0.0001144866654)
(0 4.383395406e-06 -0.0001133546052)
(0 5.267697783e-06 -0.0001119709769)
(0 6.159623494e-06 -0.0001103243455)
(0 7.047737483e-06 -0.0001084185208)
(0 7.935851508e-06 -0.0001062420697)
(0 8.812530642e-06 -0.0001038178621)
(0 9.681586374e-06 -0.0001011344611)
(0 1.052777227e-05 -9.819949203e-05)
(0 1.135489999e-05 -9.502057802e-05)
(0 1.216678099e-05 -9.159771738e-05)
(0 1.294054557e-05 -8.794234678e-05)
(0 1.369144034e-05 -8.406590109e-05)
(0 1.441184176e-05 -7.997981374e-05)
(0 1.508650349e-05 -7.568027459e-05)
(0 1.572686048e-05 -7.119396511e-05)
(0 1.633672409e-05 -6.652088402e-05)
(0 1.689703638e-05 -6.167246753e-05)
(0 1.741160899e-05 -5.667920876e-05)
(0 1.78880649e-05 -5.154110667e-05)
(0 1.833021609e-05 -4.627340889e-05)
(0 1.871900432e-05 -4.087230367e-05)
(0 1.907729913e-05 -3.53720951e-05)
(0 1.937841934e-05 -2.977659557e-05)
(0 1.963761153e-05 -2.409342828e-05)
(0 1.986249866e-05 -1.834546268e-05)
(0 2.003021118e-05 -1.253269921e-05)
(0 2.015599569e-05 -6.689442594e-06)
(0 1.010849097e-05 -8.118810621e-07)
(0 3.81164811e-09 -8.118810475e-07)
(0 1.143494502e-08 -8.042577995e-07)
(0 2.286988866e-08 -8.042577512e-07)
(0 3.049318488e-08 -7.928228069e-07)
(0 4.573978007e-08 -7.775762611e-07)
(0 5.717472165e-08 -7.62329622e-07)
(0 6.098636976e-08 -7.432713815e-07)
(0 6.479802176e-08 -7.20401536e-07)
(0 7.242131409e-08 -6.937199561e-07)
(0 8.385625842e-08 -6.708500674e-07)
(0 8.004461512e-08 -6.441685693e-07)
(0 9.147955464e-08 -6.136753457e-07)
(0 9.147955464e-08 -5.831821609e-07)
(0 9.529120847e-08 -5.565006575e-07)
(0 9.529120275e-08 -5.260074392e-07)
(0 9.910285086e-08 -4.993259024e-07)
(0 9.910285681e-08 -4.61209449e-07)
(0 9.910285086e-08 -4.307162365e-07)
(0 9.529120275e-08 -4.002230516e-07)
(0 8.385626346e-08 -3.697298889e-07)
(0 8.766790653e-08 -3.430483299e-07)
(0 8.766790653e-08 -3.163667931e-07)
(0 8.385626346e-08 -2.934969221e-07)
(0 8.004461031e-08 -2.630037196e-07)
(0 7.242131409e-08 -2.363221828e-07)
(0 6.098637342e-08 -2.172639553e-07)
(0 6.479801787e-08 -1.905824055e-07)
(0 6.098636976e-08 -1.71524165e-07)
(0 5.336307674e-08 -1.524659336e-07)
(0 5.717472165e-08 -1.37219332e-07)
(0 5.336307354e-08 -1.219727395e-07)
(0 4.192813173e-08 -1.067261535e-07)
(0 4.192812921e-08 -9.910285086e-08)
(0 3.430483299e-08 -7.62329622e-08)
(0 2.668153837e-08 -6.479802176e-08)
(0 3.049318488e-08 -5.717472165e-08)
(0 3.049318488e-08 -5.336307354e-08)
(0 2.286989003e-08 -4.573978007e-08)
(0 2.668153677e-08 -3.81164811e-08)
(0 1.524659244e-08 -3.049318488e-08)