/*--------------------------------*- C++ -*----------------------------------*\
  =========                 |
  \\      /  F ield         | OpenFOAM: The Open Source CFD Toolbox
   \\    /   O peration     | Website:  https://openfoam.org
    \\  /    A nd           | Version:  6
     \\/     M anipulation  |
\*---------------------------------------------------------------------------*/
FoamFile
{
    version     2.0;
    format      ascii;
    class       volScalarField;
    location    "0.0004";
    object      ViscousDissipation;
}
// * * * * * * * * * * * * * * * * * * * * * * * * * * * * * * * * * * * * * //

dimensions      [1 -1 -3 0 0 0 0];

internalField   nonuniform List<scalar> 
57600
(
1.214367098e-21
5.083892485e-21
5.057555206e-21
3.684772469e-21
2.863019021e-21
2.303486449e-21
1.948245741e-21
1.745082753e-21
1.654174068e-21
1.645714315e-21
1.698485978e-21
1.796116338e-21
1.925932385e-21
2.076748256e-21
2.239008631e-21
2.403597062e-21
2.562582562e-21
2.708305095e-21
2.834278429e-21
2.934159483e-21
3.002593766e-21
3.034058386e-21
3.023908989e-21
2.967543142e-21
2.861976628e-21
2.705317353e-21
2.498382944e-21
2.243909246e-21
1.947908069e-21
1.618944527e-21
1.269882266e-21
9.1782736e-22
5.861992761e-22
3.047485557e-22
1.110768778e-22
5.035939043e-23
1.764461757e-22
5.518154422e-22
1.248286521e-21
2.346632708e-21
3.935612735e-21
6.110112816e-21
8.967674985e-21
1.260506165e-20
1.711219253e-20
2.256724163e-20
2.902794248e-20
3.652582718e-20
4.505590419e-20
5.457150534e-20
6.497324092e-20
7.610502303e-20
8.77431337e-20
9.959661782e-20
1.11303161e-19
1.224432564e-19
1.325510789e-19
1.411444421e-19
1.477445706e-19
1.519107308e-19
1.532605307e-19
1.515085135e-19
1.46492796e-19
1.38219324e-19
1.268832562e-19
1.128909905e-19
9.684432772e-20
7.951953698e-20
6.181757137e-20
4.472181396e-20
2.924112991e-20
1.636160602e-20
6.986345757e-21
1.88286204e-21
1.634678565e-21
6.614539399e-21
1.698372512e-20
3.271335519e-20
5.362975044e-20
7.945937462e-20
1.09886251e-19
1.445898443e-19
1.83293324e-19
2.257812133e-19
2.719283262e-19
3.216865034e-19
3.750817301e-19
4.32157809e-19
4.929334713e-19
5.573063922e-19
6.249912613e-19
6.954256075e-19
7.677428961e-19
8.407337584e-19
9.128917874e-19
9.824472386e-19
1.047484879e-18
1.106039224e-18
1.156256288e-18
1.196488758e-18
1.22538392e-18
1.24182126e-18
1.24479156e-18
1.233155895e-18
1.205438198e-18
1.159594288e-18
1.092833713e-18
1.001470216e-18
8.812428205e-19
7.289827867e-19
5.473193985e-19
3.54882078e-19
2.054709075e-19
2.201424227e-19
6.352182436e-19
1.86446449e-18
4.586292528e-18
9.251057206e-18
2.435968401e-17
9.355545995e-18
2.063966606e-17
7.089808762e-21
1.414856227e-20
2.307136226e-20
3.361980884e-20
4.563289946e-20
5.894589642e-20
7.338747944e-20
8.870206381e-20
1.045966093e-19
1.207093302e-19
1.366901098e-19
1.521748266e-19
1.668623083e-19
1.804742402e-19
1.928161218e-19
2.037219151e-19
2.131027828e-19
2.20887193e-19
2.270662954e-19
2.316377927e-19
2.346507932e-19
2.361545849e-19
2.36241127e-19
2.349974261e-19
2.325441413e-19
2.289913414e-19
2.244733555e-19
2.191085931e-19
2.130313604e-19
2.063562659e-19
1.992074575e-19
1.916875902e-19
1.839045884e-19
1.759447962e-19
1.678972413e-19
1.59830473e-19
1.518143373e-19
1.439000289e-19
1.361394588e-19
1.28568092e-19
1.21222043e-19
1.141233144e-19
1.072947899e-19
1.007475241e-19
9.449381567e-20
8.853624438e-20
8.287901399e-20
7.751847424e-20
7.245292893e-20
6.76744212e-20
6.317719491e-20
5.895055497e-20
5.498615721e-20
5.127178775e-20
4.779764594e-20
4.455091414e-20
4.152117956e-20
3.86956828e-20
3.606400017e-20
3.361387376e-20
3.133526475e-20
2.92166923e-20
2.724875806e-20
2.542092853e-20
2.372460181e-20
2.215026481e-20
2.069016245e-20
1.933578766e-20
1.808022594e-20
1.691595106e-20
1.583688742e-20
1.483645276e-20
1.390935258e-20
1.304983596e-20
1.225328176e-20
1.151468018e-20
1.083005534e-20
1.019512193e-20
9.606509002e-21
9.060530248e-21
8.554250305e-21
8.08443491e-21
7.648558803e-21
7.243916552e-21
6.868472622e-21
6.519977573e-21
6.196644057e-21
5.896405464e-21
5.61764489e-21
5.358653177e-21
5.118231105e-21
4.895046373e-21
4.688026991e-21
4.4958547e-21
4.317510741e-21
4.151971432e-21
3.998585335e-21
3.856570104e-21
3.725218064e-21
3.603620792e-21
3.491125482e-21
3.387199013e-21
3.291598569e-21
3.203944611e-21
3.123787779e-21
3.050495147e-21
2.98357721e-21
2.922640633e-21
2.867571605e-21
2.818462894e-21
2.775537461e-21
2.738394438e-21
2.705962793e-21
2.676981876e-21
2.651822617e-21
2.631827784e-21
2.618719869e-21
2.610371897e-21
2.604923965e-21
1.554162377e-21
5.450496169e-21
5.401917643e-21
4.060296815e-21
3.236854891e-21
2.676386453e-21
2.320245263e-21
2.117182855e-21
2.025295317e-21
2.015742761e-21
2.066089668e-21
2.160882438e-21
2.286545483e-21
2.432778269e-21
2.589221324e-21
2.747661426e-21
2.899323459e-21
3.037449398e-21
3.154571774e-21
3.245239276e-21
3.303020381e-21
3.323375556e-21
3.30058862e-21
3.231128512e-21
3.110858904e-21
2.938874126e-21
2.714680532e-21
2.441937108e-21
2.125413427e-21
1.774737986e-21
1.401752112e-21
1.024659995e-21
6.659194945e-22
3.562194285e-22
1.3235432e-22
4.048651533e-23
1.341856227e-22
4.770795374e-22
1.141204529e-21
2.208329702e-21
3.767821325e-21
5.91546296e-21
8.750367122e-21
1.237068766e-20
1.686953862e-20
2.23270531e-20
2.880552605e-20
3.633814e-20
4.492496073e-20
5.451978877e-20
6.502845846e-20
7.629418959e-20
8.809904693e-20
1.001504313e-19
1.120920315e-19
1.235004931e-19
1.339140608e-19
1.428422054e-19
1.498065837e-19
1.543538815e-19
1.561004264e-19
1.54747551e-19
1.501334893e-19
1.422527071e-19
1.313020183e-19
1.176778122e-19
1.019840737e-19
8.498900731e-20
6.759664882e-20
5.07855409e-20
3.556843008e-20
2.292944439e-20
1.377427742e-20
8.869021721e-21
8.794766224e-21
1.391969786e-20
2.439364066e-20
4.017766261e-20
6.10781149e-20
8.681120225e-20
1.170431512e-19
1.514576389e-19
1.897779199e-19
2.318191844e-19
2.774789336e-19
3.267612931e-19
3.797248296e-19
4.364696167e-19
4.970394531e-19
5.613769257e-19
6.292016541e-19
6.999717222e-19
7.727913305e-19
8.464329025e-19
9.193182818e-19
9.896241685e-19
1.055341427e-18
1.114449737e-18
1.165021661e-18
1.205392843e-18
1.234187027e-18
1.250317837e-18
1.2528033e-18
1.240580778e-18
1.212241354e-18
1.165848377e-18
1.098705284e-18
1.007229892e-18
8.872054944e-19
7.35418347e-19
5.542630126e-19
3.618147552e-19
2.10832363e-19
2.206364781e-19
6.247756473e-19
1.833145714e-18
4.517906798e-18
9.125321746e-18
2.451522235e-17
9.544216639e-18
2.069807685e-17
9.648922658e-21
1.670896831e-20
2.561946583e-20
3.61639325e-20
4.815663681e-20
6.14599153e-20
7.587298103e-20
9.116953699e-20
1.070243578e-19
1.231069168e-19
1.390334423e-19
1.544726531e-19
1.690895945e-19
1.826398604e-19
1.948959901e-19
2.057259211e-19
2.150091513e-19
2.227071747e-19
2.287811002e-19
2.332599942e-19
2.361648095e-19
2.375740926e-19
2.375536817e-19
2.36217467e-19
2.33662068e-19
2.300219286e-19
2.254094078e-19
2.19964766e-19
2.1380237e-19
2.070562337e-19
1.99832536e-19
1.922510355e-19
1.844035778e-19
1.763914917e-19
1.682895138e-19
1.601792606e-19
1.521179556e-19
1.441681488e-19
1.363706646e-19
1.28770812e-19
1.213950145e-19
1.142737959e-19
1.074216016e-19
1.008568575e-19
9.45845365e-20
8.86135946e-20
8.294188877e-20
7.757128755e-20
7.249460216e-20
6.770865762e-20
6.320294579e-20
5.897092107e-20
5.500012618e-20
5.128195434e-20
4.780304115e-20
4.45537109e-20
4.15204584e-20
3.869326682e-20
3.605902415e-20
3.360787147e-20
3.1327428e-20
2.920831563e-20
2.723909152e-20
2.541106888e-20
2.371385763e-20
2.213956942e-20
2.06788819e-20
1.932471924e-20
1.806879071e-20
1.690483243e-20
1.582555903e-20
1.482550306e-20
1.389830548e-20
1.303919993e-20
1.224262707e-20
1.150444651e-20
1.081985565e-20
1.018533776e-20
9.596794163e-21
9.051217325e-21
8.545030107e-21
8.075595721e-21
7.639823469e-21
7.235535252e-21
6.860200361e-21
6.512034018e-21
6.188813072e-21
5.888876022e-21
5.610223546e-21
5.351502858e-21
5.111184609e-21
4.888247637e-21
4.681330043e-21
4.489379101e-21
4.311125642e-21
4.145779447e-21
3.992479009e-21
3.850640625e-21
3.719372122e-21
3.597928252e-21
3.485502957e-21
3.381705925e-21
3.286171552e-21
3.198634064e-21
3.118538177e-21
3.045342778e-21
2.978479727e-21
2.917624708e-21
2.862594479e-21
2.813545138e-21
2.770646849e-21
2.733602042e-21
2.701175564e-21
2.672280117e-21
2.647034496e-21
2.627259906e-21
2.613997773e-21
2.605626508e-21
2.600329501e-21
1.523158035e-21
5.384881685e-21
5.346201993e-21
4.025562611e-21
3.20770429e-21
2.646668153e-21
2.289546655e-21
2.083905197e-21
1.989883793e-21
1.977363906e-21
2.025180513e-21
2.116887367e-21
2.239906801e-21
2.383085418e-21
2.537001611e-21
2.692645034e-21
2.842225896e-21
2.978156833e-21
3.093990038e-21
3.183348876e-21
3.240860875e-21
3.261013395e-21
3.239261962e-21
3.171112606e-21
3.053678049e-21
2.885015522e-21
2.665828393e-21
2.398643189e-21
2.089401233e-21
1.746646528e-21
1.383443294e-21
1.017020531e-21
6.710571709e-22
3.753913693e-22
1.680388439e-22
9.455406872e-23
2.097187185e-22
5.767618793e-22
1.268745976e-21
2.36728909e-21
3.962856561e-21
6.152087472e-21
9.036115716e-21
1.271582282e-20
1.728751199e-20
2.283566472e-20
2.9425956e-20
3.709645614e-20
4.584973852e-20
5.564456409e-20
6.638838516e-20
7.792984841e-20
9.005197369e-20
1.024676688e-19
1.148193994e-19
1.266866544e-19
1.376008383e-19
1.470683748e-19
1.545971216e-19
1.597260006e-19
1.620547835e-19
1.612777035e-19
1.57219036e-19
1.498698889e-19
1.394170717e-19
1.262568963e-19
1.109873678e-19
9.438013722e-20
7.733871623e-20
6.084914547e-20
4.592874458e-20
3.35701717e-20
2.46838423e-20
2.003796528e-20
2.021021371e-20
2.555601387e-20
3.620735512e-20
5.209534551e-20
7.299812297e-20
9.859682518e-20
1.285390597e-19
1.624940918e-19
2.00202478e-19
2.415066919e-19
2.863672272e-19
3.348532957e-19
3.871149462e-19
4.433294932e-19
5.036309292e-19
5.680211385e-19
6.362775956e-19
7.078671659e-19
7.81885505e-19
8.570339749e-19
9.316441322e-19
1.003751532e-18
1.07121322e-18
1.131860639e-18
1.183662514e-18
1.224868584e-18
1.254079165e-18
1.2702099e-18
1.272335765e-18
1.259466575e-18
1.230304683e-18
1.183030999e-18
1.115086371e-18
1.02300729e-18
9.026541016e-19
7.507935426e-19
5.696351952e-19
3.768309276e-19
2.243686874e-19
2.304577364e-19
6.275330336e-19
1.825477593e-18
4.504334346e-18
9.138279959e-18
2.474829815e-17
9.674865923e-18
2.081553978e-17
1.48427085e-20
2.190575296e-20
3.081621503e-20
4.134178077e-20
5.331505013e-20
6.658021654e-20
8.095536586e-20
9.619331307e-20
1.119877542e-19
1.27985584e-19
1.438228911e-19
1.59145674e-19
1.736405557e-19
1.870415841e-19
1.991443211e-19
2.097966714e-19
2.189015154e-19
2.264016504e-19
2.322809043e-19
2.365508436e-19
2.392538479e-19
2.404521203e-19
2.402312735e-19
2.386899697e-19
2.359427326e-19
2.321098366e-19
2.273195741e-19
2.21699055e-19
2.153766262e-19
2.084741599e-19
2.011099741e-19
1.933927013e-19
1.854246537e-19
1.772970545e-19
1.690936275e-19
1.608868934e-19
1.527417777e-19
1.447127155e-19
1.368471307e-19
1.291831496e-19
1.217528582e-19
1.145804672e-19
1.076852907e-19
1.010802382e-19
9.477448078e-20
8.877217602e-20
8.307481228e-20
7.768009815e-20
7.258399628e-20
6.777973324e-20
6.325954427e-20
5.901377435e-20
5.503236151e-20
5.13040126e-20
4.781746037e-20
4.456070706e-20
4.152208835e-20
3.868957807e-20
3.605168355e-20
3.359680412e-20
3.131398586e-20
2.919233803e-20
2.722167714e-20
2.539200069e-20
2.369403176e-20
2.211873538e-20
2.06577735e-20
1.930306852e-20
1.804720034e-20
1.688302903e-20
1.580404031e-20
1.480400025e-20
1.387723236e-20
1.301829791e-20
1.222224041e-20
1.148432937e-20
1.08002956e-20
1.016610612e-20
9.578134245e-21
9.03291937e-21
8.527298653e-21
8.058236434e-21
7.623006655e-21
7.21908485e-21
6.844263665e-21
6.496456301e-21
6.173718985e-21
5.874122484e-21
5.595910435e-21
5.337502934e-21
5.09758784e-21
4.874948167e-21
4.668402307e-21
4.476722004e-21
4.298793548e-21
4.133686787e-21
3.980680331e-21
3.839069501e-21
3.708068217e-21
3.586822714e-21
3.474619703e-21
3.370992935e-21
3.275658909e-21
3.188283563e-21
3.108363672e-21
3.035302508e-21
2.968581226e-21
2.907840279e-21
2.85292481e-21
2.803959298e-21
2.7611666e-21
2.724211823e-21
2.691896829e-21
2.663039351e-21
2.637837657e-21
2.617958052e-21
2.604872824e-21
2.596775653e-21
2.591032388e-21
1.494657355e-21
5.32453127e-21
5.291020479e-21
3.986999021e-21
3.177128345e-21
2.620098561e-21
2.263714774e-21
2.058036578e-21
1.963081324e-21
1.949819882e-21
1.996796797e-21
2.088172418e-21
2.211112019e-21
2.354889783e-21
2.50988723e-21
2.667507075e-21
2.819821018e-21
2.959678769e-21
3.080487443e-21
3.176285816e-21
3.241512652e-21
3.271090403e-21
3.260327952e-21
3.20528427e-21
3.102992452e-21
2.95210007e-21
2.753143423e-21
2.509151031e-21
2.225798624e-21
1.912154464e-21
1.581087616e-21
1.250519262e-21
9.440560382e-22
6.923728281e-22
5.334521079e-22
5.137459081e-22
6.879579641e-22
1.120247648e-21
1.883614476e-21
3.060959298e-21
4.743299675e-21
7.029767063e-21
1.002350527e-20
1.382967213e-20
1.854806499e-20
2.426871299e-20
3.106137723e-20
3.8970058e-20
4.800132368e-20
5.811993551e-20
6.92370824e-20
8.120727043e-20
9.381630595e-20
1.067814564e-19
1.197447431e-19
1.322854138e-19
1.43927637e-19
1.541699725e-19
1.625049803e-19
1.684576668e-19
1.716089944e-19
1.716396461e-19
1.68358113e-19
1.617470503e-19
1.519829315e-19
1.394591228e-19
1.247687974e-19
1.086867331e-19
9.211877948e-20
7.606144288e-20
6.154103602e-20
4.956335191e-20
4.104545156e-20
3.675849911e-20
3.727089794e-20
4.291946208e-20
5.380513344e-20
6.982006473e-20
9.069915193e-20
1.160823744e-19
1.455883366e-19
1.78875555e-19
2.157041053e-19
2.559655479e-19
2.997056367e-19
3.471023023e-19
3.984375229e-19
4.540219418e-19
5.141219511e-19
5.78844463e-19
6.480428443e-19
7.212022745e-19
7.97383288e-19
8.751786895e-19
9.527609397e-19
1.02795517e-18
1.098400156e-18
1.161710445e-18
1.215684612e-18
1.258447557e-18
1.288548763e-18
1.304905876e-18
1.306659457e-18
1.292916893e-18
1.262517126e-18
1.213787344e-18
1.144328788e-18
1.050809794e-18
9.291785987e-19
7.761893008e-19
5.939320437e-19
3.997971332e-19
2.454518797e-19
2.489990517e-19
6.437654056e-19
1.844196901e-18
4.541910646e-18
9.239177842e-18
2.50613525e-17
9.805839977e-18
2.099303224e-17
2.280231059e-20
2.987670716e-20
3.878558567e-20
4.929420363e-20
6.123374589e-20
7.444828239e-20
8.875652324e-20
1.03908849e-19
1.195989623e-19
1.3546978e-19
1.511576031e-19
1.663050824e-19
1.806006231e-19
1.937769191e-19
2.056332977e-19
2.160181829e-19
2.248395037e-19
2.320415697e-19
2.376136209e-19
2.415689953e-19
2.43955249e-19
2.448362125e-19
2.443021069e-19
2.424528409e-19
2.394067745e-19
2.352848969e-19
2.302184636e-19
2.243347133e-19
2.177640929e-19
2.106280617e-19
2.030462731e-19
1.951265153e-19
1.869718194e-19
1.786722676e-19
1.703118442e-19
1.619617629e-19
1.536868956e-19
1.45540314e-19
1.37569195e-19
1.298103279e-19
1.222954509e-19
1.150475216e-19
1.080854722e-19
1.014210763e-19
9.50631326e-20
8.90147967e-20
8.327722018e-20
7.78472458e-20
7.272054845e-20
6.788961875e-20
6.334645711e-20
5.908079072e-20
5.508237394e-20
5.133939994e-20
4.784046418e-20
4.457314495e-20
4.152568097e-20
3.868569788e-20
3.604163927e-20
3.358161883e-20
3.129464535e-20
2.916959383e-20
2.719626452e-20
2.536446312e-20
2.366491286e-20
2.208842112e-20
2.062666119e-20
1.927142461e-20
1.801531043e-20
1.685107032e-20
1.577221555e-20
1.477242242e-20
1.384604324e-20
1.298756293e-20
1.219205433e-20
1.145472209e-20
1.077132808e-20
1.01377859e-20
9.55050045e-21
9.00596434e-21
8.501042419e-21
8.032656689e-21
7.59810857e-21
7.194840921e-21
6.820676041e-21
6.473498045e-21
6.151385026e-21
5.852376664e-21
5.574737501e-21
5.316867958e-21
5.077482576e-21
4.855345995e-21
4.649290806e-21
4.458063993e-21
4.280567699e-21
4.115862398e-21
3.963249835e-21
3.82201177e-21
3.691367972e-21
3.570444675e-21
3.458542101e-21
3.355192966e-21
3.260132396e-21
3.173014138e-21
3.09333451e-21
3.020484036e-21
2.953956873e-21
2.893388999e-21
2.838628983e-21
2.789805801e-21
2.747154086e-21
2.710353376e-21
2.678146733e-21
2.649333496e-21
2.624141545e-21
2.604488641e-21
2.591407529e-21
2.582905531e-21
2.577811083e-21
1.495537744e-21
5.299810687e-21
5.270139882e-21
3.978969365e-21
3.178491888e-21
2.6266579e-21
2.273253323e-21
2.068852469e-21
1.974776523e-21
1.962176712e-21
2.010255267e-21
2.103198679e-21
2.22852719e-21
2.375512147e-21
2.534809187e-21
2.697872632e-21
2.857072955e-21
3.005361024e-21
3.136440501e-21
3.24441971e-21
3.323996958e-21
3.370171817e-21
3.378607557e-21
3.345577093e-21
3.268601249e-21
3.146562816e-21
2.980417938e-21
2.773274796e-21
2.531153994e-21
2.263223147e-21
1.982903119e-21
1.708446639e-21
1.464258626e-21
1.28139912e-21
1.198653138e-21
1.262721995e-21
1.529142736e-21
2.062423771e-21
2.936916511e-21
4.236575963e-21
6.054992995e-21
8.493648856e-21
1.165990992e-20
1.566268333e-20
2.060751875e-20
2.658929267e-20
3.368483148e-20
4.194390673e-20
5.138130914e-20
6.196795159e-20
7.362332816e-20
8.620669549e-20
9.95100588e-20
1.132516286e-19
1.270750929e-19
1.405541884e-19
1.532073093e-19
1.645182244e-19
1.739646135e-19
1.810483228e-19
1.853305778e-19
1.86467835e-19
1.842522766e-19
1.786484057e-19
1.698238441e-19
1.581613204e-19
1.442527521e-19
1.288711204e-19
1.129311787e-19
9.743913583e-20
8.343905641e-20
7.195016317e-20
6.390064674e-20
6.00592687e-20
6.098036267e-20
6.697085836e-20
7.809017164e-20
9.418043351e-20
1.14922738e-19
1.399093746e-19
1.687232942e-19
2.010162156e-19
2.365746656e-19
2.75365952e-19
3.175532936e-19
3.634790156e-19
4.136119365e-19
4.684667483e-19
5.284951221e-19
5.939617763e-19
6.64811053e-19
7.40549274e-19
8.201576481e-19
9.020661935e-19
9.841940576e-19
1.064068238e-18
1.138999455e-18
1.206303498e-18
1.263523281e-18
1.308617113e-18
1.340048112e-18
1.356746102e-18
1.357929486e-18
1.342849525e-18
1.310517105e-18
1.259458493e-18
1.187462751e-18
1.091362212e-18
9.671967343e-19
8.117342655e-19
6.269961778e-19
4.303111839e-19
2.73491595e-19
2.75521866e-19
6.726153799e-19
1.885807553e-18
4.622743284e-18
9.400530728e-18
2.546842154e-17
9.958582805e-18
2.123295395e-17
3.373938689e-20
4.082586144e-20
4.972894337e-20
6.021040591e-20
7.209745207e-20
8.52373913e-20
9.944475427e-20
1.144732861e-19
1.300096621e-19
1.456995417e-19
1.611715611e-19
1.760724628e-19
1.900848702e-19
2.029482095e-19
2.144587384e-19
2.244738664e-19
2.329004164e-19
2.396926499e-19
2.448395675e-19
2.483643273e-19
2.503143895e-19
2.507626322e-19
2.497989311e-19
2.475311046e-19
2.44076681e-19
2.395632183e-19
2.341205358e-19
2.278810519e-19
2.20973184e-19
2.135222763e-19
2.056454743e-19
1.974533443e-19
1.890460988e-19
1.805157173e-19
1.719432276e-19
1.634010808e-19
1.549512055e-19
1.466474436e-19
1.385341566e-19
1.306485944e-19
1.230198863e-19
1.15671259e-19
1.086192877e-19
1.018759084e-19
9.544783322e-20
8.933832991e-20
8.354673251e-20
7.806998129e-20
7.29021878e-20
6.803594504e-20
6.34619214e-20
5.916996009e-20
5.514868832e-20
5.138643127e-20
4.787083523e-20
4.458962521e-20
4.153024302e-20
3.868047223e-20
3.602808787e-20
3.356136814e-20
3.126876054e-20
2.91393071e-20
2.716233663e-20
2.532782137e-20
2.362608796e-20
2.204810637e-20
2.058521449e-20
1.92293594e-20
1.797285561e-20
1.680860264e-20
1.572987072e-20
1.473047542e-20
1.380456335e-20
1.294674775e-20
1.215192437e-20
1.141541585e-20
1.073283322e-20
1.010019961e-20
9.513791034e-21
8.970198257e-21
8.466172553e-21
7.998722673e-21
7.565053152e-21
7.162688575e-21
6.789371031e-21
6.443056578e-21
6.121748728e-21
5.823545706e-21
5.546648776e-21
5.289517459e-21
5.050818943e-21
4.829367902e-21
4.623946679e-21
4.433337667e-21
4.256403514e-21
4.092247507e-21
3.940146251e-21
3.799412218e-21
3.669230117e-21
3.548744752e-21
3.43723562e-21
3.334266218e-21
3.239560734e-21
3.152787106e-21
3.073417329e-21
3.000850541e-21
2.934574942e-21
2.874242917e-21
2.819695451e-21
2.771063257e-21
2.728596139e-21
2.691956536e-21
2.659909215e-21
2.631197459e-21
2.606125679e-21
2.586319207e-21
2.573444994e-21
2.565490123e-21
2.559660559e-21
1.524144809e-21
5.309339881e-21
5.283496925e-21
4.004198643e-21
3.212448866e-21
2.666752812e-21
2.317084348e-21
2.115199191e-21
2.022968582e-21
2.012323408e-21
2.06275511e-21
2.158867192e-21
2.288317763e-21
2.440638062e-21
2.606599575e-21
2.777923007e-21
2.947159724e-21
3.10755909e-21
3.253010641e-21
3.377885417e-21
3.477039998e-21
3.545778774e-21
3.580045179e-21
3.576596434e-21
3.533371025e-21
3.449763776e-21
3.327031915e-21
3.168649794e-21
2.98087755e-21
2.773393777e-21
2.560159651e-21
2.360294962e-21
2.198947761e-21
2.108045469e-21
2.12691941e-21
2.303007741e-21
2.692489636e-21
3.36119519e-21
4.38512578e-21
5.850968825e-21
7.855432168e-21
1.050421145e-20
1.390902183e-20
1.818420214e-20
2.344086177e-20
2.97810073e-20
3.728908637e-20
4.602452734e-20
5.601186827e-20
6.723294086e-20
7.961633655e-20
9.302977109e-20
1.072699188e-19
1.220580281e-19
1.370359895e-19
1.517734515e-19
1.657782059e-19
1.785196363e-19
1.894530911e-19
1.980552043e-19
2.038569781e-19
2.06487179e-19
2.057106866e-19
2.014715011e-19
1.939188549e-19
1.834242318e-19
1.705709148e-19
1.561322156e-19
1.410286512e-19
1.262819491e-19
1.129538545e-19
1.020812211e-19
9.459903163e-20
9.12692023e-20
9.262084396e-20
9.89204211e-20
1.101742727e-19
1.261640313e-19
1.465088791e-19
1.707447835e-19
1.984175283e-19
2.291738884e-19
2.628469105e-19
2.995104643e-19
3.395023409e-19
3.833953836e-19
4.319315451e-19
4.859077975e-19
5.460397399e-19
6.127954673e-19
6.862363019e-19
7.658660865e-19
8.505386343e-19
9.38425968e-19
1.027087642e-18
1.113617159e-18
1.194875015e-18
1.267752339e-18
1.329449331e-18
1.37768796e-18
1.410827096e-18
1.427811743e-18
1.427984934e-18
1.410795087e-18
1.375501131e-18
1.320890678e-18
1.245004175e-18
1.144873314e-18
1.016662801e-18
8.571797399e-19
6.684594822e-19
4.679667846e-19
3.0812844e-19
3.097581201e-19
7.132972861e-19
1.949103034e-18
4.739115576e-18
9.620380482e-18
2.597194425e-17
1.014366805e-17
2.153780596e-17
4.795376564e-20
5.504794819e-20
6.393375709e-20
7.436643559e-20
8.617373825e-20
9.920116886e-20
1.132659389e-19
1.281176107e-19
1.434433656e-19
1.588824615e-19
1.740641007e-19
1.886299857e-19
2.022661647e-19
2.147104408e-19
2.257659067e-19
2.352913807e-19
2.432026144e-19
2.494568021e-19
2.540523763e-19
2.570157098e-19
2.584031731e-19
2.582904522e-19
2.567752573e-19
2.539674252e-19
2.499909268e-19
2.449743356e-19
2.390523875e-19
2.323574667e-19
2.250214305e-19
2.171686501e-19
2.089184255e-19
2.003796228e-19
1.916535882e-19
1.828301181e-19
1.739906279e-19
1.652051309e-19
1.565354432e-19
1.48032903e-19
1.397414597e-19
1.316959334e-19
1.239248936e-19
1.164493045e-19
1.092851401e-19
1.024422955e-19
9.592690864e-20
8.974045111e-20
8.3881749e-20
7.834619267e-20
7.312746993e-20
6.821685659e-20
6.36046851e-20
5.927969242e-20
5.523025265e-20
5.144377043e-20
4.790771236e-20
4.460904282e-20
4.153508592e-20
3.867299951e-20
3.60104909e-20
3.353532474e-20
3.123591974e-20
2.910089715e-20
2.711958678e-20
2.528161652e-20
2.357733578e-20
2.199743195e-20
2.053328009e-20
1.917659437e-20
1.79197359e-20
1.675541252e-20
1.567694739e-20
1.467799795e-20
1.375276595e-20
1.289573237e-20
1.210184745e-20
1.136632351e-20
1.068482583e-20
1.005328652e-20
9.468033748e-21
8.92558068e-21
8.422725359e-21
7.956409852e-21
7.523883292e-21
7.122617052e-21
6.7503964e-21
6.405131085e-21
6.08485909e-21
5.787635762e-21
5.511694946e-21
5.255466007e-21
5.017649876e-21
4.797033427e-21
4.592420618e-21
4.402565024e-21
4.22635204e-21
4.06287053e-21
3.911422033e-21
3.77130156e-21
3.641704005e-21
3.521755325e-21
3.410750996e-21
3.308250815e-21
3.213995262e-21
3.12764025e-21
3.048659278e-21
2.976441783e-21
2.910487729e-21
2.850449683e-21
2.79617154e-21
2.747784143e-21
2.705531149e-21
2.669108658e-21
2.637216176e-21
2.608642467e-21
2.583616463e-21
2.56417586e-21
2.551260255e-21
2.542757048e-21
2.537827362e-21
1.58130421e-21
5.35143062e-21
5.331131217e-21
4.063230813e-21
3.280206004e-21
2.74073383e-21
2.395402731e-21
2.19659118e-21
2.10701048e-21
2.099126035e-21
2.152936859e-21
2.253350313e-21
2.388310334e-21
2.5475534e-21
2.722075066e-21
2.903835094e-21
3.085655204e-21
3.261070621e-21
3.424237741e-21
3.569789523e-21
3.692848257e-21
3.789055341e-21
3.854782574e-21
3.887320165e-21
3.885166973e-21
3.848240447e-21
3.77823646e-21
3.679032598e-21
3.557361464e-21
3.42356295e-21
3.292494731e-21
3.184309167e-21
3.125205238e-21
3.147981279e-21
3.292762932e-21
3.607775541e-21
4.150472611e-21
4.988583019e-21
6.201102625e-21
7.87849183e-21
1.012219424e-20
1.30429151e-20
1.675806424e-20
2.138786757e-20
2.705070578e-20
3.385695182e-20
4.190197963e-20
5.125753608e-20
6.196249039e-20
7.401228096e-20
8.734852858e-20
1.018482811e-19
1.173151894e-19
1.334726211e-19
1.499620898e-19
1.663470165e-19
1.821248669e-19
1.967458553e-19
2.096400689e-19
2.202499667e-19
2.280701885e-19
2.326905837e-19
2.338422072e-19
2.314377307e-19
2.256024715e-19
2.166870092e-19
2.052623044e-19
1.920956169e-19
1.781136774e-19
1.643517192e-19
1.518909642e-19
1.41781925e-19
1.34961462e-19
1.32173457e-19
1.339102206e-19
1.403847718e-19
1.515389137e-19
1.670832871e-19
1.865643056e-19
2.094539255e-19
2.352567547e-19
2.63625873e-19
2.944684325e-19
3.280210312e-19
3.648732069e-19
4.059311158e-19
4.523182552e-19
5.052251019e-19
5.657178599e-19
6.345286687e-19
7.118465975e-19
7.971432419e-19
8.89060332e-19
9.853931837e-19
1.083182361e-18
1.178918072e-18
1.268830359e-18
1.349231796e-18
1.416852308e-18
1.469107275e-18
1.504225896e-18
1.521201896e-18
1.519568645e-18
1.499071624e-18
1.459321276e-18
1.399473951e-18
1.317907243e-18
1.211923544e-18
1.077859875e-18
9.126164579e-19
7.183292149e-19
5.128029587e-19
3.4950762e-19
3.518335354e-19
7.658905316e-19
2.031927808e-18
4.891179563e-18
9.890460406e-18
2.658431954e-17
1.036454822e-17
2.191129137e-17
6.583419569e-20
7.292945072e-20
8.177981477e-20
9.213631262e-20
1.038243101e-19
1.166922226e-19
1.305558284e-19
1.451658469e-19
1.602042043e-19
1.753091458e-19
1.901041676e-19
2.042319864e-19
2.173763946e-19
2.292805034e-19
2.397493985e-19
2.486507157e-19
2.55904867e-19
2.614793139e-19
2.653779414e-19
2.67637216e-19
2.683185921e-19
2.675067932e-19
2.653036468e-19
2.618265037e-19
2.572021579e-19
2.515649362e-19
2.45050976e-19
2.377966357e-19
2.299338288e-19
2.215892998e-19
2.128812925e-19
2.039197454e-19
1.948041424e-19
1.856243903e-19
1.764595419e-19
1.673790764e-19
1.584422111e-19
1.496993695e-19
1.411918722e-19
1.32953447e-19
1.250101493e-19
1.17381818e-19
1.100821184e-19
1.031198808e-19
9.649918844e-20
9.022056227e-20
8.428104377e-20
7.867521126e-20
7.339523207e-20
6.843171297e-20
6.377371033e-20
5.94094272e-20
5.532617955e-20
5.151095881e-20
4.795036249e-20
4.463104512e-20
4.153962202e-20
3.866302661e-20
3.598839086e-20
3.35033236e-20
3.119577809e-20
2.905427388e-20
2.706776523e-20
2.522582014e-20
2.351848516e-20
2.193641866e-20
2.04707507e-20
1.911318862e-20
1.785589525e-20
1.669158804e-20
1.561342998e-20
1.461509929e-20
1.369066709e-20
1.283464112e-20
1.204186425e-20
1.130757954e-20
1.062736513e-20
9.997186811e-21
9.413301366e-21
8.872254735e-21
8.370784177e-21
7.905862675e-21
7.474689937e-21
7.074769488e-21
6.703847401e-21
6.359862186e-21
6.040815387e-21
5.744785741e-21
5.469978086e-21
5.214848372e-21
4.978077261e-21
4.758473085e-21
4.554816111e-21
4.365874429e-21
4.190517265e-21
4.027854729e-21
3.877179386e-21
3.737799371e-21
3.608893024e-21
3.489593914e-21
3.379190592e-21
3.277258857e-21
3.183536103e-21
3.097683391e-21
3.01916252e-21
2.947366419e-21
2.881795559e-21
2.822112724e-21
2.768160754e-21
2.720064523e-21
2.678080088e-21
2.64186972e-21
2.610200957e-21
2.581802777e-21
2.557002899e-21
2.537364614e-21
2.524663639e-21
2.516908902e-21
2.511035119e-21
1.66808731e-21
5.42590229e-21
5.412861355e-21
4.157086481e-21
3.382864469e-21
2.849856825e-21
2.509116385e-21
2.31383708e-21
2.227405137e-21
2.222938223e-21
2.280883768e-21
2.38653554e-21
2.528102814e-21
2.695584312e-21
2.880216049e-21
3.07423955e-21
3.270767996e-21
3.463656054e-21
3.647358344e-21
3.81682476e-21
3.967512388e-21
4.095496741e-21
4.197675912e-21
4.271963465e-21
4.317485763e-21
4.334755941e-21
4.325992027e-21
4.295625833e-21
4.251072037e-21
4.203608252e-21
4.169244946e-21
4.169407442e-21
4.231468727e-21
4.389268606e-21
4.683886314e-21
5.164807489e-21
5.891415179e-21
6.934500082e-21
8.377248236e-21
1.031539557e-20
1.285624987e-20
1.611682074e-20
2.022108478e-20
2.529676349e-20
3.147119222e-20
3.886628219e-20
4.759162604e-20
5.77359198e-20
6.935615244e-20
8.246581107e-20
9.702222564e-20
1.12915142e-19
1.299566505e-19
1.47874929e-19
1.663115734e-19
1.848252018e-19
2.029006615e-19
2.199666911e-19
2.354208457e-19
2.486644382e-19
2.591444704e-19
2.664026087e-19
2.701235097e-19
2.701787639e-19
2.666568912e-19
2.598781402e-19
2.503899482e-19
2.389474299e-19
2.264769275e-19
2.140245701e-19
2.02685291e-19
1.935168253e-19
1.874459143e-19
1.851850137e-19
1.871742967e-19
1.935593816e-19
2.042038825e-19
2.187328688e-19
2.366052146e-19
2.572156973e-19
2.8002659e-19
3.047151952e-19
3.313133741e-19
3.603041643e-19
3.926494752e-19
4.29731157e-19
4.732092508e-19
5.24808343e-19
5.860588683e-19
6.580188603e-19
7.410132382e-19
8.344227556e-19
9.365623207e-19
1.044675526e-18
1.155069301e-18
1.263383466e-18
1.364974401e-18
1.455355594e-18
1.530627845e-18
1.587810007e-18
1.624996494e-18
1.64129081e-18
1.636536786e-18
1.610924687e-18
1.564579728e-18
1.497178344e-18
1.407569294e-18
1.293427803e-18
1.151344283e-18
9.78381039e-19
7.768718933e-19
5.651398179e-19
3.980470152e-19
4.022567971e-19
8.303546385e-19
2.135087476e-18
5.074920263e-18
1.021849501e-17
2.730594062e-17
1.062624228e-17
2.235779701e-17
8.788428622e-20
9.496738891e-20
1.037575932e-19
1.139990119e-19
1.255169594e-19
1.38160845e-19
1.517488839e-19
1.660301895e-19
1.806851381e-19
1.953472864e-19
2.096382468e-19
2.231982448e-19
2.357133801e-19
2.469293511e-19
2.566585195e-19
2.647752866e-19
2.712102343e-19
2.759393207e-19
2.789771361e-19
2.803684795e-19
2.801846155e-19
2.785174485e-19
2.754770176e-19
2.711862124e-19
2.657780875e-19
2.593906435e-19
2.521642269e-19
2.442370253e-19
2.357432518e-19
2.268098716e-19
2.175558399e-19
2.080900711e-19
1.985115725e-19
1.889083752e-19
1.79358261e-19
1.69928338e-19
1.606760957e-19
1.516493797e-19
1.428875887e-19
1.344218786e-19
1.262763771e-19
1.184684992e-19
1.110101003e-19