/*--------------------------------*- C++ -*----------------------------------*\
  =========                 |
  \\      /  F ield         | OpenFOAM: The Open Source CFD Toolbox
   \\    /   O peration     | Website:  https://openfoam.org
    \\  /    A nd           | Version:  6
     \\/     M anipulation  |
\*---------------------------------------------------------------------------*/
FoamFile
{
    version     2.0;
    format      ascii;
    class       volVectorField;
    location    "0.0046";
    object      gradT;
}
// * * * * * * * * * * * * * * * * * * * * * * * * * * * * * * * * * * * * * //

dimensions      [0 -1 0 1 0 0 0];

internalField   nonuniform List<vector> 
9600
(
(0 1.480062997e-05 -0.0002319197348)
(0 4.309068551e-05 -0.0002271399416)
(0 6.94139254e-05 -0.0002182625993)
(0 9.282125701e-05 -0.0002063207055)
(0 0.0001129048382 -0.0001924386943)
(0 0.0001296798951 -0.0001775961247)
(0 0.0001433675238 -0.0001625096211)
(0 0.0001543145867 -0.0001477318699)
(0 0.0001628984092 -0.0001335906462)
(0 0.0001694887489 -0.000120276559)
(0 0.0001743981623 -0.0001079001438)
(0 0.0001779086798 -9.648043928e-05)
(0 0.0001802642784 -8.600984167e-05)
(0 0.0001816517292 -7.647691411e-05)
(0 0.0001822349005 -6.780159821e-05)
(0 0.0001821472326 -5.994579127e-05)
(0 0.0001814992633 -5.284088219e-05)
(0 0.0001803748162 -4.643349839e-05)
(0 0.0001788539686 -4.065885137e-05)
(0 0.0001770053298 -3.545976535e-05)
(0 0.0001748784195 -3.078287088e-05)
(0 0.0001725190093 -2.659005785e-05)
(0 0.0001699614035 -2.28241508e-05)
(0 0.0001672436881 -1.944702912e-05)
(0 0.0001643963869 -1.642820375e-05)
(0 0.0001614309343 -1.37181227e-05)
(0 0.0001583739828 -1.130153692e-05)
(0 0.0001552522429 -9.159390629e-06)
(0 0.0001520733374 -7.245943666e-06)
(0 0.0001488562972 -5.538324837e-06)
(0 0.000145608773 -4.028912149e-06)
(0 0.0001423460106 -2.683400495e-06)
(0 0.0001390717963 -1.497977743e-06)
(0 0.0001358090254 -4.497744878e-07)
(0 0.0001325500742 4.726444054e-07)
(0 0.0001293101652 1.276902148e-06)
(0 0.0001260893225 1.985868713e-06)
(0 0.000122891357 2.595732581e-06)
(0 0.00011972387 3.13698647e-06)
(0 0.0001165983185 3.594384254e-06)
(0 0.0001135070786 3.986984258e-06)
(0 0.0001104615649 4.318597412e-06)
(0 0.0001074541745 4.596847731e-06)
(0 0.0001044925301 4.829358561e-06)
(0 0.0001015880479 5.019940682e-06)
(0 9.873693502e-05 5.17240661e-06)
(0 9.592013275e-05 5.286756373e-06)
(0 9.316811699e-05 5.374423964e-06)
(0 9.046184677e-05 5.435410336e-06)
(0 8.780894489e-05 5.469715498e-06)
(0 8.520939555e-05 5.484961762e-06)
(0 8.267846114e-05 5.484961762e-06)
(0 8.018564803e-05 5.458280552e-06)
(0 7.775762331e-05 5.423975391e-06)
(0 7.538296648e-05 5.378235613e-06)
(0 7.305786546e-05 5.31724956e-06)
(0 7.07899304e-05 5.252451222e-06)
(0 6.857917444e-05 5.17240661e-06)
(0 6.642178555e-05 5.084739006e-06)
(0 6.43215634e-05 4.993259144e-06)
(0 6.226708502e-05 4.890344643e-06)
(0 6.026216168e-05 4.787430429e-06)
(0 5.831821749e-05 4.688327288e-06)
(0 5.642001668e-05 4.57778949e-06)
(0 5.458280552e-05 4.46725196e-06)
(0 5.27837043e-05 4.360525543e-06)
(0 5.104559272e-05 4.249987745e-06)
(0 4.934560058e-05 4.131826899e-06)
(0 4.770277724e-05 4.021288853e-06)
(0 4.610569665e-05 3.910751055e-06)
(0 4.455054685e-05 3.792590188e-06)
(0 4.304875479e-05 3.678240515e-06)
(0 4.158508188e-05 3.563891069e-06)
(0 4.016715116e-05 3.453353478e-06)
(0 3.879114375e-05 3.342815473e-06)
(0 3.746850182e-05 3.236089323e-06)
(0 3.61801669e-05 3.125551713e-06)
(0 3.493375577e-05 3.018825376e-06)
(0 3.371783999e-05 2.919722522e-06)
(0 3.25514776e-05 2.81680819e-06)
(0 3.143085107e-05 2.710081871e-06)
(0 3.034071969e-05 2.610979018e-06)
(0 2.929251819e-05 2.511876316e-06)
(0 2.827861801e-05 2.424208256e-06)
(0 2.729902442e-05 2.321293755e-06)
(0 2.63575489e-05 2.23362598e-06)
(0 2.544656339e-05 2.142146289e-06)
(0 2.457369596e-05 2.054478381e-06)
(0 2.373513478e-05 1.970622238e-06)
(0 2.292706393e-05 1.879142563e-06)
(0 2.214567605e-05 1.806721248e-06)
(0 2.140240594e-05 1.726676739e-06)
(0 2.070106138e-05 1.646632023e-06)
(0 2.001877636e-05 1.574210707e-06)
(0 1.936317403e-05 1.497977833e-06)
(0 1.874187421e-05 1.425556427e-06)
(0 1.815106874e-05 1.35694676e-06)
(0 1.757932256e-05 1.284525521e-06)
(0 1.704950241e-05 1.219727425e-06)
(0 1.65425532e-05 1.147306109e-06)
(0 1.605847484e-05 1.086319803e-06)
(0 1.560107609e-05 1.013898422e-06)
(0 1.517417149e-05 9.529120504e-07)
(0 1.477013767e-05 8.881140843e-07)
(0 1.438897196e-05 8.271276598e-07)
(0 1.403830033e-05 7.699529367e-07)
(0 1.37104994e-05 7.08966608e-07)
(0 1.340937837e-05 6.594151389e-07)
(0 1.312731641e-05 6.022404159e-07)
(0 1.286431345e-05 5.412540771e-07)
(0 1.263942544e-05 4.91702618e-07)
(0 1.243740808e-05 4.383395432e-07)
(0 1.225063806e-05 3.849764915e-07)
(0 1.208673645e-05 3.354250417e-07)
(0 1.194189382e-05 2.782503187e-07)
(0 1.182373343e-05 2.286989058e-07)
(0 1.173606481e-05 1.791474655e-07)
(0 1.166745515e-05 1.257843907e-07)
(0 1.161790442e-05 7.623296861e-08)
(0 1.159884548e-05 2.668153741e-08)
(0 1.757550975e-05 -0.0002691099847)
(0 5.095030426e-05 -0.000262409123)
(0 8.129483236e-05 -0.0002502461379)
(0 0.0001073893758 -0.0002343858698)
(0 0.000128944254 -0.0002165359344)
(0 0.0001462072008 -0.000197992253)
(0 0.0001596851888 -0.0001796696602)
(0 0.0001699766491 -0.000162128465)
(0 0.00017765711 -0.0001456697584)
(0 0.0001831992464 -0.0001304384123)
(0 0.0001870223408 -0.0001164687287)
(0 0.0001894579727 -0.0001037378168)
(0 0.0001907806146 -9.21923345e-05)
(0 0.0001911884725 -8.17484234e-05)
(0 0.0001908682826 -7.23184009e-05)
(0 0.0001899382404 -6.382223711e-05)
(0 0.0001885203186 -5.617607423e-05)
(0 0.0001866983394 -4.930366919e-05)
(0 0.0001845447582 -4.312879914e-05)
(0 0.0001821129376 -3.758666495e-05)
(0 0.0001794638312 -3.260865017e-05)
(0 0.0001766317766 -2.815283345e-05)
(0 0.0001736510781 -2.416203926e-05)
(0 0.0001705483861 -2.058290017e-05)
(0 0.0001673466016 -1.738873899e-05)
(0 0.0001640685941 -1.453762703e-05)
(0 0.0001607295804 -1.198763352e-05)
(0 0.0001573448368 -9.719702856e-06)
(0 0.0001539334209 -7.695718135e-06)
(0 0.0001505143633 -5.904243029e-06)
(0 0.0001470838799 -4.307162442e-06)
(0 0.0001436419702 -2.900664438e-06)
(0 0.0001402267248 -1.642820365e-06)
(0 0.0001368267347 -5.374423932e-07)
(0 0.0001334381874 4.345279185e-07)
(0 0.000130095364 1.284525436e-06)
(0 0.0001267639835 2.023985183e-06)
(0 0.0001234783502 2.671965534e-06)
(0 0.0001202384418 3.228466007e-06)
(0 0.000117040469 3.712545326e-06)
(0 0.0001138806195 4.131826874e-06)
(0 0.0001107741194 4.482498258e-06)
(0 0.0001077209892 4.779806816e-06)
(0 0.0001047174167 5.027564249e-06)
(0 0.0001017633831 5.225769653e-06)
(0 9.887415376e-05 5.389670525e-06)
(0 9.602685833e-05 5.507831949e-06)
(0 9.324053775e-05 5.595499526e-06)
(0 9.051139765e-05 5.656485897e-06)
(0 8.78356259e-05 5.698414369e-06)
(0 8.522082998e-05 5.717472268e-06)
(0 8.265940241e-05 5.71366062e-06)
(0 8.016277766e-05 5.690791072e-06)
(0 7.771569472e-05 5.652674249e-06)
(0 7.532579131e-05 5.606934471e-06)
(0 7.2993067e-05 5.542136784e-06)
(0 7.072132031e-05 5.465903488e-06)
(0 6.849531777e-05 5.385858877e-06)
(0 6.633030559e-05 5.302002935e-06)
(0 6.421864852e-05 5.206711412e-06)
(0 6.216417015e-05 5.099985263e-06)
(0 6.015543517e-05 4.993259414e-06)
(0 5.821149099e-05 4.882721317e-06)
(0 5.631710184e-05 4.775995168e-06)
(0 5.446845574e-05 4.661646002e-06)
(0 5.267316618e-05 4.547296277e-06)
(0 5.092743132e-05 4.429135184e-06)
(0 4.922743918e-05 4.310974349e-06)
(0 4.758842751e-05 4.1851897e-06)
(0 4.598753528e-05 4.070840255e-06)
(0 4.443238549e-05 3.952679399e-06)
(0 4.293440509e-05 3.83070642e-06)
(0 4.147073219e-05 3.716356974e-06)
(0 4.005280147e-05 3.598196097e-06)
(0 3.868441737e-05 3.487658084e-06)
(0 3.73579638e-05 3.36949699e-06)
(0 3.606200558e-05 3.258959388e-06)
(0 3.482702941e-05 3.144609748e-06)
(0 3.361873694e-05 3.041695247e-06)
(0 3.244856289e-05 2.931157625e-06)
(0 3.132793638e-05 2.828242949e-06)
(0 3.0237805e-05 2.717705151e-06)
(0 2.91896035e-05 2.622414104e-06)
(0 2.818332663e-05 2.515687798e-06)
(0 2.720373305e-05 2.420396594e-06)
(0 2.625844588e-05 2.317482232e-06)
(0 2.536270698e-05 2.226002536e-06)
(0 2.44860279e-05 2.138334628e-06)
(0 2.363984342e-05 2.046855195e-06)
(0 2.284701918e-05 1.96681046e-06)
(0 2.206563131e-05 1.871519256e-06)
(0 2.132617284e-05 1.7952864e-06)
(0 2.062101665e-05 1.71524168e-06)
(0 1.994254327e-05 1.631385421e-06)
(0 1.928694094e-05 1.558964199e-06)
(0 1.867326443e-05 1.482731142e-06)
(0 1.807864731e-05 1.406498178e-06)
(0 1.751071278e-05 1.337888591e-06)
(0 1.697708099e-05 1.265467195e-06)
(0 1.647394343e-05 1.196857528e-06)
(0 1.598986507e-05 1.128247929e-06)
(0 1.553246633e-05 1.063449842e-06)
(0 1.511318503e-05 9.948401747e-07)
(0 1.470533956e-05 9.338538598e-07)
(0 1.433179715e-05 8.652441366e-07)
(0 1.397350222e-05 8.042577657e-07)
(0 1.36533246e-05 7.470830879e-07)
(0 1.335220357e-05 6.82285024e-07)
(0 1.307014161e-05 6.251103013e-07)
(0 1.281476195e-05 5.679356127e-07)
(0 1.258225064e-05 5.183841523e-07)
(0 1.238023328e-05 4.573977815e-07)
(0 1.218965161e-05 4.040347312e-07)
(0 1.20333733e-05 3.430483361e-07)
(0 1.189615397e-05 2.896852616e-07)
(0 1.177418193e-05 2.363222013e-07)
(0 1.168651332e-05 1.829591126e-07)
(0 1.161028035e-05 1.295960381e-07)
(0 1.156835292e-05 7.242131974e-08)
(0 1.154548233e-05 2.668153725e-08)
(0 2.153200056e-05 -0.000313027795)
(0 6.195834486e-05 -0.0003031747027)
(0 9.743335075e-05 -0.0002859612813)
(0 0.0001265314729 -0.0002644940788)
(0 0.0001493022681 -0.0002413383306)
(0 0.0001665461555 -0.0002181978)
(0 0.0001792313207 -0.0001960711823)
(0 0.0001883144896 -0.0001754501762)
(0 0.0001945884512 -0.0001565367674)
(0 0.000198685973 -0.0001393500458)
(0 0.0002010949467 -0.0001238175869)
(0 0.0002021888776 -0.0001098364539)
(0 0.000202261299 -9.727707317e-05)
(0 0.000201525663 -8.600222302e-05)
(0 0.0002001610808 -7.590516183e-05)
(0 0.0001982857499 -6.684868576e-05)
(0 0.0001960140194 -5.873369031e-05)
(0 0.0001934258985 -5.146868536e-05)
(0 0.0001905785973 -4.495076697e-05)
(0 0.0001875178551 -3.912275925e-05)
(0 0.000184308436 -3.391223385e-05)
(0 0.0001809694322 -2.924296483e-05)
(0 0.0001775313362 -2.506158828e-05)
(0 0.0001740131743 -2.132998321e-05)
(0 0.0001704454716 -1.800241435e-05)
(0 0.0001668320391 -1.502932967e-05)
(0 0.0001631919051 -1.238023328e-05)
(0 0.0001595403462 -1.001701141e-05)
(0 0.0001558849849 -7.916793742e-06)
(0 0.0001522486632 -6.052897308e-06)
(0 0.0001486161625 -4.398641998e-06)
(0 0.0001450065404 -2.931157625e-06)
(0 0.0001414312057 -1.631385421e-06)
(0 0.0001378901845 -4.840793187e-07)
(0 0.0001343682297 5.260074802e-07)
(0 0.0001309034334 1.40268653e-06)
(0 0.0001274805733 2.17645111e-06)
(0 0.0001240920256 2.84730136e-06)
(0 0.0001207720725 3.426671713e-06)
(0 0.0001174978668 3.929809272e-06)
(0 0.0001142732193 4.352902481e-06)
(0 0.0001111057328 4.718820445e-06)
(0 0.0001079992395 5.0237523e-06)
(0 0.0001049461156 5.279133044e-06)
(0 0.0001019501538 5.477338433e-06)
(0 9.901137309e-05 5.641239305e-06)
(0 9.613358449e-05 5.770835689e-06)
(0 9.332058236e-05 5.858503251e-06)
(0 9.056094908e-05 5.92330127e-06)
(0 8.786611909e-05 5.957606461e-06)
(0 8.522845328e-05 5.972852696e-06)
(0 8.264796746e-05 5.972852696e-06)
(0 8.012847282e-05 5.949983164e-06)
(0 7.766995494e-05 5.911866325e-06)
(0 7.526861659e-05 5.854691603e-06)
(0 7.292445733e-05 5.789893931e-06)
(0 7.06412757e-05 5.709848972e-06)
(0 6.841146151e-05 5.62980436e-06)
(0 6.623501438e-05 5.530701839e-06)
(0 6.411954566e-05 5.427787007e-06)
(0 6.20498207e-05 5.324872506e-06)
(0 6.004870901e-05 5.214335021e-06)
(0 5.810476484e-05 5.099985263e-06)
(0 5.619894075e-05 4.978012521e-06)
(0 5.434648299e-05 4.856040071e-06)
(0 5.255881674e-05 4.737878686e-06)
(0 5.080545858e-05 4.612094296e-06)
(0 4.910546643e-05 4.486310176e-06)
(0 4.746264312e-05 4.368148813e-06)
(0 4.586556254e-05 4.238552775e-06)
(0 4.431422439e-05 4.112768632e-06)
(0 4.28086207e-05 3.994607291e-06)
(0 4.135257109e-05 3.865011253e-06)
(0 3.993845201e-05 3.746850385e-06)
(0 3.856625627e-05 3.628689066e-06)
(0 3.724361435e-05 3.510527973e-06)
(0 3.595146778e-05 3.392367083e-06)
(0 3.471267996e-05 3.278017434e-06)
(0 3.350438749e-05 3.156044692e-06)
(0 3.233802509e-05 3.049318726e-06)
(0 3.122121023e-05 2.934969098e-06)
(0 3.013870215e-05 2.832054597e-06)
(0 2.9086689e-05 2.725328611e-06)
(0 2.807660048e-05 2.614790651e-06)
(0 2.71046302e-05 2.51187615e-06)
(0 2.616696632e-05 2.41658509e-06)
(0 2.526360413e-05 2.321293741e-06)
(0 2.439454834e-05 2.226002536e-06)
(0 2.355598716e-05 2.13071146e-06)
(0 2.275172798e-05 2.039231776e-06)
(0 2.19855867e-05 1.955375516e-06)
(0 2.123850493e-05 1.86770772e-06)
(0 2.053716039e-05 1.780039699e-06)
(0 1.986631031e-05 1.69618344e-06)
(0 1.921070797e-05 1.616138925e-06)
(0 1.859703146e-05 1.543717512e-06)
(0 1.79986027e-05 1.459861252e-06)
(0 1.743829146e-05 1.379816724e-06)
(0 1.690847132e-05 1.311206974e-06)
(0 1.640533376e-05 1.238785658e-06)
(0 1.59212554e-05 1.170176061e-06)
(0 1.546766831e-05 1.101566324e-06)
(0 1.504457536e-05 1.032956656e-06)
(0 1.464435318e-05 9.643470471e-07)
(0 1.426699913e-05 9.033606184e-07)
(0 1.39087042e-05 8.385625993e-07)
(0 1.358852657e-05 7.775762751e-07)
(0 1.32912172e-05 7.127782094e-07)
(0 1.301296688e-05 6.556034868e-07)
(0 1.275377557e-05 5.946171516e-07)
(0 1.253269921e-05 5.33630745e-07)
(0 1.231924691e-05 4.726443742e-07)
(0 1.213628853e-05 4.154696764e-07)
(0 1.197619858e-05 3.62106577e-07)
(0 1.18351676e-05 3.011202061e-07)
(0 1.172081885e-05 2.477571465e-07)
(0 1.162933859e-05 1.867707608e-07)
(0 1.156454057e-05 1.334076863e-07)
(0 1.151117819e-05 8.385626496e-08)
(0 1.149593091e-05 2.668153725e-08)
(0 2.746292529e-05 -0.000366821588)
(0 7.802063172e-05 -0.000351350129)
(0 0.0001199754388 -0.0003259759659)
(0 0.0001520161536 -0.0002963365894)
(0 0.0001752367249 -0.0002661559749)
(0 0.0001914743358 -0.0002374199432)
(0 0.000202436636 -0.0002109861629)
(0 0.0002095148793 -0.0001870871399)
(0 0.0002137534195 -0.000165684724)
(0 0.0002159184357 -0.0001466036131)
(0 0.000216532124 -0.0001296227282)
(0 0.0002160022919 -0.0001145171586)
(0 0.0002146072287 -0.0001010734754)
(0 0.000212564198 -8.910490536e-05)
(0 0.0002100294392 -7.843228505e-05)
(0 0.0002071097167 -6.891841113e-05)
(0 0.0002038965095 -6.043368586e-05)
(0 0.0002004812605 -5.285231396e-05)
(0 0.0001968830646 -4.609045005e-05)
(0 0.0001931552842 -4.005280171e-05)
(0 0.0001893512477 -3.46440705e-05)
(0 0.0001854786131 -2.981852388e-05)
(0 0.0001815602497 -2.551517459e-05)
(0 0.0001776113713 -2.166922003e-05)
(0 0.0001736472571 -1.823873664e-05)
(0 0.0001696907765 -1.51817957e-05)
(0 0.0001657418988 -1.245646632e-05)
(0 0.0001618082778 -1.003225807e-05)
(0 0.0001579013479 -7.878677306e-06)
(0 0.0001540287038 -5.965229436e-06)
(0 0.0001502094323 -4.269045986e-06)
(0 0.0001464092279 -2.763445112e-06)
(0 0.0001426738038 -1.44080302e-06)
(0 0.0001389726934 -2.706270223e-07)
(0 0.0001353287659 7.508947408e-07)
(0 0.0001317381851 1.650443671e-06)
(0 0.0001282085989 2.439454849e-06)
(0 0.0001247285716 3.121740064e-06)
(0 0.0001213247623 3.712545348e-06)
(0 0.0001179628885 4.223306207e-06)
(0 0.000114673443 4.657834382e-06)
(0 0.0001114487818 5.02375233e-06)
(0 0.0001082774905 5.332495834e-06)
(0 0.0001051710035 5.580253302e-06)
(0 0.0001021369252 5.793705267e-06)
(0 9.915621632e-05 5.953794491e-06)
(0 9.624412287e-05 6.075767598e-06)
(0 9.339681589e-05 6.16724679e-06)
(0 9.061050105e-05 6.224421513e-06)
(0 8.788898951e-05 6.262538371e-06)
(0 8.523226544e-05 6.27397294e-06)
(0 8.263653301e-05 6.258726347e-06)
(0 8.009416847e-05 6.228233535e-06)
(0 7.762421563e-05 6.182493383e-06)
(0 7.520381902e-05 6.129130308e-06)
(0 7.28482248e-05 6.056709356e-06)
(0 7.055741986e-05 5.97666438e-06)
(0 6.831998237e-05 5.877561527e-06)
(0 6.612828862e-05 5.77845902e-06)
(0 6.401663155e-05 5.667920876e-06)
(0 6.194690657e-05 5.561194726e-06)
(0 5.993054827e-05 5.443033959e-06)
(0 5.797516915e-05 5.32106089e-06)
(0 5.607696834e-05 5.199088147e-06)
(0 5.422832222e-05 5.069492412e-06)
(0 5.242540937e-05 4.939896069e-06)
(0 5.067967449e-05 4.806488382e-06)
(0 4.897968233e-05 4.676892624e-06)
(0 4.733685902e-05 4.543484656e-06)
(0 4.574359007e-05 4.417700266e-06)
(0 4.41846286e-05 4.284292836e-06)
(0 4.268283656e-05 4.15469654e-06)
(0 4.122678695e-05 4.028912149e-06)
(0 3.981266786e-05 3.899316344e-06)
(0 3.844428376e-05 3.77353172e-06)
(0 3.712164184e-05 3.647747329e-06)
(0 3.583330689e-05 3.52196315e-06)
(0 3.459070743e-05 3.403801844e-06)
(0 3.339384989e-05 3.28564075e-06)
(0 3.222367583e-05 3.167479846e-06)
(0 3.111067262e-05 3.056941858e-06)
(0 3.002435288e-05 2.938780763e-06)
(0 2.897996302e-05 2.824431487e-06)
(0 2.797368615e-05 2.717705168e-06)
(0 2.700171586e-05 2.618602315e-06)
(0 2.606405197e-05 2.511876316e-06)
(0 2.516831308e-05 2.405150015e-06)
(0 2.429544564e-05 2.306047162e-06)
(0 2.346450774e-05 2.21075609e-06)
(0 2.266406021e-05 2.123088048e-06)
(0 2.189029562e-05 2.023985195e-06)
(0 2.115464879e-05 1.932505754e-06)
(0 2.04494926e-05 1.84483773e-06)
(0 1.977864252e-05 1.760981469e-06)
(0 1.913066347e-05 1.669502012e-06)
(0 1.851698696e-05 1.5894573e-06)
(0 1.792236984e-05 1.509412688e-06)
(0 1.736587025e-05 1.436991458e-06)
(0 1.683223846e-05 1.35694676e-06)
(0 1.63291009e-05 1.280713796e-06)
(0 1.585264582e-05 1.208292552e-06)
(0 1.539905873e-05 1.139682812e-06)
(0 1.497596578e-05 1.067261496e-06)
(0 1.45757436e-05 9.986518888e-07)
(0 1.42022012e-05 9.300421612e-07)
(0 1.384771792e-05 8.652441418e-07)
(0 1.352372863e-05 8.004461704e-07)
(0 1.323404256e-05 7.394597511e-07)
(0 1.295198059e-05 6.784733799e-07)
(0 1.269660092e-05 6.174870457e-07)
(0 1.246408962e-05 5.526889892e-07)
(0 1.226207226e-05 4.91702618e-07)
(0 1.207530223e-05 4.307162726e-07)
(0 1.191902393e-05 3.659182274e-07)
(0 1.177418129e-05 3.125551525e-07)
(0 1.16636442e-05 2.553804448e-07)
(0 1.157597559e-05 1.943940583e-07)
(0 1.150736592e-05 1.372193353e-07)
(0 1.145400353e-05 8.004461704e-08)
(0 1.14425679e-05 2.286988921e-08)
(0 3.704540865e-05 -0.0004361211613)
(0 0.0001028039692 -0.0004094815768)
(0 0.0001524506806 -0.0003703016206)
(0 0.0001863476678 -0.0003287584671)
(0 0.0002082151059 -0.0002895861761)
(0 0.0002217159513 -0.0002543932111)
(0 0.0002295641349 -0.0002233968881)
(0 0.0002336083076 -0.0001962732114)
(0 0.0002350757781 -0.0001725533131)
(0 0.0002347479764 -0.0001517950771)
(0 0.0002331852146 -0.0001335830301)
(0 0.0002307419342 -0.0001175512298)
(0 0.0002276735574 -0.0001034100151)
(0 0.0002241630428 -9.090019122e-05)
(0 0.0002203437579 -7.981972451e-05)
(0 0.0002162919759 -6.998186056e-05)
(0 0.0002120763057 -6.122650837e-05)
(0 0.0002077691306 -5.344693076e-05)
(0 0.0002033819235 -4.650973108e-05)
(0 0.0001989642352 -4.03234285e-05)
(0 0.0001945350881 -3.480797117e-05)
(0 0.0001901059529 -2.988332172e-05)
(0 0.0001856806405 -2.549992785e-05)
(0 0.0001812896107 -2.158917528e-05)
(0 0.0001769290852 -1.81015172e-05)
(0 0.0001726104981 -1.499502484e-05)
(0 0.0001683414418 -1.223539065e-05)
(0 0.0001641219473 -9.77306593e-06)
(0 0.0001599558254 -7.592803628e-06)
(0 0.000155858294 -5.652674249e-06)
(0 0.0001518141353 -3.937432569e-06)
(0 0.0001478385951 -2.420396739e-06)
(0 0.0001439278352 -1.074884786e-06)
(0 0.0001400780706 9.910285265e-08)
(0 0.0001363007354 1.132059577e-06)
(0 0.0001325843703 2.039231776e-06)
(0 0.0001289480579 2.820619652e-06)
(0 0.0001253727394 3.514339832e-06)
(0 0.0001218698272 4.108956737e-06)
(0 0.0001184393439 4.608282648e-06)
(0 0.0001150736654 5.042810843e-06)
(0 0.0001117880178 5.404917118e-06)
(0 0.0001085595518 5.709848972e-06)
(0 0.0001053997018 5.965229758e-06)
(0 0.0001023160721 6.159623457e-06)
(0 9.930105835e-05 6.31971268e-06)
(0 9.63470368e-05 6.43787416e-06)
(0 9.347304829e-05 6.521730034e-06)
(0 9.065624028e-05 6.582716405e-06)
(0 8.790804722e-05 6.601775042e-06)
(0 8.522845328e-05 6.601774646e-06)
(0 8.260603933e-05 6.586528053e-06)
(0 8.00560515e-05 6.552223612e-06)
(0 7.757085209e-05 6.498860145e-06)
(0 7.51428322e-05 6.430250478e-06)
(0 7.27643681e-05 6.354017895e-06)
(0 7.046212823e-05 6.25872631e-06)
(0 6.821706746e-05 6.159623457e-06)
(0 6.602537371e-05 6.049086023e-06)
(0 6.390228172e-05 5.938547863e-06)
(0 6.182493346e-05 5.812763473e-06)
(0 5.980857516e-05 5.690791072e-06)
(0 5.785319606e-05 5.565006341e-06)
(0 5.594737197e-05 5.427787007e-06)
(0 5.409110255e-05 5.29056799e-06)
(0 5.229581301e-05 5.157159986e-06)
(0 5.05386432e-05 5.019940651e-06)
(0 4.885008599e-05 4.88272161e-06)
(0 4.720345105e-05 4.749313631e-06)
(0 4.560255881e-05 4.604471e-06)
(0 4.405122065e-05 4.471063582e-06)
(0 4.255705192e-05 4.333843979e-06)
(0 4.109719066e-05 4.200436293e-06)
(0 3.968688322e-05 4.067028851e-06)
(0 3.831468749e-05 3.933620921e-06)
(0 3.699204558e-05 3.804024882e-06)
(0 3.570752228e-05 3.674429065e-06)
(0 3.446492283e-05 3.544832806e-06)
(0 3.327187695e-05 3.419048416e-06)
(0 3.211313783e-05 3.297075872e-06)
(0 3.098869969e-05 3.178914581e-06)
(0 2.991000326e-05 3.060753488e-06)
(0 2.886561339e-05 2.942592571e-06)
(0 2.786695984e-05 2.832054597e-06)
(0 2.68911779e-05 2.717705151e-06)
(0 2.59611373e-05 2.610979159e-06)
(0 2.506158678e-05 2.504252853e-06)
(0 2.420015429e-05 2.401338353e-06)
(0 2.336921639e-05 2.302235638e-06)
(0 2.256876887e-05 2.203132647e-06)
(0 2.179881593e-05 2.107841443e-06)
(0 2.105935745e-05 2.012550359e-06)
(0 2.036182457e-05 1.921070682e-06)
(0 1.969097449e-05 1.825779478e-06)
(0 1.904299544e-05 1.741923322e-06)
(0 1.843313059e-05 1.650443661e-06)
(0 1.784232512e-05 1.57039905e-06)
(0 1.728201388e-05 1.486542879e-06)
(0 1.675981704e-05 1.406498178e-06)
(0 1.625667948e-05 1.334076863e-06)
(0 1.578022441e-05 1.261655623e-06)
(0 1.533044898e-05 1.189234232e-06)
(0 1.489973273e-05 1.113001268e-06)
(0 1.450332219e-05 1.040580015e-06)
(0 1.413359145e-05 9.681586374e-07)
(0 1.378673146e-05 9.033606184e-07)
(0 1.346274218e-05 8.385626496e-07)
(0 1.316543281e-05 7.661412839e-07)
(0 1.288718249e-05 7.013432649e-07)
(0 1.263180282e-05 6.365452841e-07)
(0 1.240310317e-05 5.717472268e-07)
(0 1.219727417e-05 5.145725041e-07)
(0 1.201431578e-05 4.459628637e-07)
(0 1.186184913e-05 3.887881142e-07)
(0 1.17170065e-05 3.278017434e-07)
(0 1.16064694e-05 2.668153885e-07)
(0 1.15111775e-05 2.096406498e-07)
(0 1.144637948e-05 1.48654279e-07)
(0 1.140064039e-05 9.529121019e-08)
(0 1.138539311e-05 3.430483361e-08)
(0 5.415970897e-05 -0.0005321022741)
(0 0.0001438325527 -0.0004801914664)
(0 0.0002006985232 -0.0004170705437)
(0 0.0002327354261 -0.0003588552411)
(0 0.000249605796 -0.0003090636995)
(0 0.0002576597936 -0.0002672117839)
(0 0.0002605604579 -0.0002319578499)
(0 0.0002603546445 -0.0002020554821)
(0 0.0002582315408 -0.0001764907456)
(0 0.0002548887254 -0.0001544670424)
(0 0.0002507797837 -0.0001353592582)
(0 0.000246171486 -0.0001187099709)
(0 0.0002412582715 -0.0001041189817)
(0 0.0002361506771 -9.128516771e-05)
(0 0.0002309515748 -7.996456714e-05)
(0 0.0002256991236 -6.994374408e-05)
(0 0.0002204352507 -6.106260749e-05)
(0 0.0002151942212 -5.318011539e-05)
(0 0.0002100065681 -4.616668274e-05)
(0 0.000204864667 -3.991558212e-05)
(0 0.0001997875393 -3.435819668e-05)
(0 0.0001947828452 -2.94068657e-05)
(0 0.0001898582072 -2.499679026e-05)
(0 0.0001850059677 -2.106697948e-05)
(0 0.0001802452191 -1.756788646e-05)
(0 0.0001755569024 -1.445377076e-05)
(0 0.0001709638558 -1.168270167e-05)
(0 0.000166454676 -9.220376944e-06)
(0 0.0001620217389 -7.03630296e-06)
(0 0.0001576878852 -5.096173615e-06)
(0 0.0001534340858 -3.380931935e-06)
(0 0.0001492717749 -1.871519368e-06)
(0 0.0001451856791 -5.450656896e-07)
(0 0.0001411834485 6.289219495e-07)
(0 0.0001372650825 1.658067057e-06)
(0 0.0001334305561 2.55380428e-06)
(0 0.000129683706 3.335192156e-06)
(0 0.0001260130964 4.006042476e-06)
(0 0.0001224225162 4.593036055e-06)
(0 0.0001189043649 5.092361967e-06)
(0 0.0001154662652 5.507831949e-06)
(0 0.0001121120079 5.862314899e-06)
(0 0.0001088339904 6.155811809e-06)
(0 0.000105624589 6.395946028e-06)
(0 0.0001024875962 6.586528053e-06)
(0 9.943827769e-05 6.731370684e-06)
(0 9.644232801e-05 6.84572054e-06)
(0 9.353784631e-05 6.918141445e-06)
(0 9.069054512e-05 6.956257926e-06)
(0 8.791948217e-05 6.979128234e-06)
(0 8.521320668e-05 6.971504519e-06)
(0 8.258316944e-05 6.944822982e-06)
(0 8.000268842e-05 6.899083618e-06)
(0 7.750605407e-05 6.830473536e-06)
(0 7.505897594e-05 6.750428925e-06)
(0 7.267670019e-05 6.658949768e-06)
(0 7.035921373e-05 6.563658164e-06)
(0 6.811034131e-05 6.449308719e-06)
(0 6.591483591e-05 6.338771302e-06)
(0 6.377649733e-05 6.212986531e-06)
(0 6.170296072e-05 6.087202142e-06)
(0 5.967897912e-05 5.953794812e-06)
(0 5.771597672e-05 5.816575121e-06)
(0 5.580634099e-05 5.67173249e-06)
(0 5.395007156e-05 5.530701839e-06)
(0 5.215859368e-05 5.385858877e-06)
(0 5.040142387e-05 5.241016246e-06)
(0 4.8709055e-05 5.096173921e-06)
(0 4.705860842e-05 4.947519336e-06)
(0 4.546533948e-05 4.806488353e-06)
(0 4.39140013e-05 4.661646002e-06)
(0 4.241220929e-05 4.52061474e-06)
(0 4.096378298e-05 4.375772109e-06)
(0 3.954585223e-05 4.234741381e-06)
(0 3.817746816e-05 4.097521792e-06)
(0 3.685863789e-05 3.95649081e-06)
(0 3.557411459e-05 3.815460056e-06)
(0 3.433913844e-05 3.682052141e-06)
(0 3.314609256e-05 3.560079399e-06)
(0 3.198735344e-05 3.426671918e-06)
(0 3.08705386e-05 3.297075675e-06)
(0 2.979184217e-05 3.182726229e-06)
(0 2.874745229e-05 3.060753671e-06)
(0 2.774879874e-05 2.938780746e-06)
(0 2.678445175e-05 2.8244313e-06)
(0 2.585441115e-05 2.717705315e-06)
(0 2.495104898e-05 2.607167354e-06)
(0 2.409723979e-05 2.492817909e-06)
(0 2.326630188e-05 2.3937152e-06)
(0 2.246585437e-05 2.279365611e-06)
(0 2.169971308e-05 2.187886055e-06)
(0 2.096406624e-05 2.084971679e-06)
(0 2.026272172e-05 1.982057053e-06)
(0 1.960711823e-05 1.894389145e-06)
(0 1.895532753e-05 1.806721345e-06)
(0 1.834546268e-05 1.711430032e-06)
(0 1.775846886e-05 1.631385421e-06)
(0 1.719815761e-05 1.547529253e-06)
(0 1.668358408e-05 1.467484549e-06)
(0 1.618425817e-05 1.387439937e-06)
(0 1.570017979e-05 1.303583755e-06)
(0 1.525802766e-05 1.223539065e-06)
(0 1.482731142e-05 1.154929398e-06)
(0 1.443471252e-05 1.078696499e-06)
(0 1.406117013e-05 1.010086767e-06)
(0 1.371431015e-05 9.338538038e-07)
(0 1.339032086e-05 8.614325401e-07)
(0 1.309682314e-05 7.966344694e-07)
(0 1.281857283e-05 7.204015058e-07)
(0 1.257081645e-05 6.556035261e-07)
(0 1.23421168e-05 5.908054677e-07)
(0 1.21362878e-05 5.33630745e-07)
(0 1.195332941e-05 4.688327541e-07)
(0 1.179323947e-05 4.078463551e-07)
(0 1.165983178e-05 3.430483361e-07)
(0 1.154167138e-05 2.820619822e-07)
(0 1.145400278e-05 2.210755944e-07)
(0 1.138539311e-05 1.562775753e-07)
(0 1.134346566e-05 9.147956178e-08)
(0 1.132059509e-05 3.049318543e-08)
(0 8.90172321e-05 -0.0006800285324)
(0 0.0002178318961 -0.0005621914619)
(0 0.000273783067 -0.0004589872415)
(0 0.0002943469091 -0.0003805930729)
(0 0.000299862382 -0.0003206777941)
(0 0.0002988255957 -0.0002734628886)
(0 0.0002947204506 -0.0002352129989)
(0 0.0002890792286 -0.0002035458378)
(0 0.000282668019 -0.0001769062163)
(0 0.0002758756619 -0.0001542230979)
(0 0.0002689346667 -0.0001347189021)
(0 0.0002619860158 -0.0001178180459)
(0 0.0002550983675 -0.000103082214)
(0 0.0002483212719 -9.016454362e-05)
(0 0.0002416813659 -7.880201492e-05)
(0 0.0002351863173 -6.87735685e-05)
(0 0.0002288513718 -5.990005508e-05)
(0 0.000222665053 -5.20251863e-05)
(0 0.0002166464605 -4.50346235e-05)
(0 0.0002107689116 -3.881782761e-05)
(0 0.0002050438034 -3.329093539e-05)
(0 0.000199467362 -2.837390921e-05)
(0 0.0001940205284 -2.399813852e-05)
(0 0.0001887185141 -2.010263262e-05)
(0 0.0001835422959 -1.66302211e-05)
(0 0.000178499496 -1.354659852e-05)
(0 0.0001735748358 -1.0802211e-05)
(0 0.0001687683474 -8.374191099e-06)
(0 0.0001640724067 -6.21679859e-06)
(0 0.0001595098539 -4.307162468e-06)
(0 0.0001550426023 -2.618602315e-06)
(0 0.0001506820857 -1.132059584e-06)
(0 0.000146432089 1.753358173e-07)
(0 0.0001422773924 1.318830278e-06)
(0 0.0001382179954 2.325105543e-06)
(0 0.0001342614963 3.197972841e-06)
(0 0.0001304041083 3.956490833e-06)
(0 0.0001266305842 4.615906249e-06)
(0 0.0001229561477 5.176218258e-06)
(0 0.0001193541401 5.656485931e-06)
(0 0.0001158474307 6.060521004e-06)
(0 0.0001124283754 6.395945682e-06)
(0 0.0001090969948 6.674196001e-06)
(0 0.0001058342303 6.891460362e-06)
(0 0.0001026476861 7.070607414e-06)
(0 9.956025103e-05 7.204015101e-06)
(0 9.653380815e-05 7.295495096e-06)
(0 9.358358665e-05 7.356481029e-06)
(0 9.07172272e-05 7.386974215e-06)
(0 8.791948269e-05 7.386974658e-06)
(0 8.519414896e-05 7.371727622e-06)
(0 8.253361851e-05 7.325987844e-06)
(0 7.994170253e-05 7.268813557e-06)
(0 7.742600992e-05 7.192580157e-06)
(0 7.497512013e-05 7.104912248e-06)
(0 7.257759776e-05 7.005809815e-06)
(0 7.024867636e-05 6.891459949e-06)
(0 6.798836897e-05 6.773298854e-06)
(0 6.578905191e-05 6.639891566e-06)
(0 6.364690167e-05 6.50648348e-06)
(0 6.15695534e-05 6.365452497e-06)
(0 5.953794848e-05 6.224421887e-06)
(0 5.757113444e-05 6.071955585e-06)
(0 5.566149869e-05 5.927112954e-06)
(0 5.380141759e-05 5.774647372e-06)
(0 5.200612806e-05 5.622181097e-06)
(0 5.025658154e-05 5.465903521e-06)
(0 4.855658935e-05 5.313437912e-06)
(0 4.691376607e-05 5.160971665e-06)
(0 4.531287382e-05 5.004694089e-06)
(0 4.376915893e-05 4.852228452e-06)
(0 4.227117856e-05 4.707385529e-06)
(0 4.081512894e-05 4.558731249e-06)
(0 3.940100982e-05 4.406265585e-06)
(0 3.80364374e-05 4.257611041e-06)
(0 3.671379548e-05 4.116580058e-06)
(0 3.543689546e-05 3.975549313e-06)
(0 3.420573096e-05 3.834518091e-06)
(0 3.301649672e-05 3.693487107e-06)
(0 3.185013428e-05 3.560079634e-06)
(0 3.074475439e-05 3.426671733e-06)
(0 2.966605795e-05 3.297075694e-06)
(0 2.862929136e-05 3.171291494e-06)
(0 2.763063781e-05 3.05313021e-06)
(0 2.666629082e-05 2.931157467e-06)
(0 2.57362502e-05 2.809184893e-06)
(0 2.484432298e-05 2.694835279e-06)
(0 2.398670213e-05 2.588109129e-06)
(0 2.315576421e-05 2.469948183e-06)
(0 2.236294e-05 2.370845181e-06)
(0 2.160442201e-05 2.264119032e-06)
(0 2.086115186e-05 2.165016308e-06)
(0 2.017124228e-05 2.069724974e-06)