/*--------------------------------*- C++ -*----------------------------------*\
  =========                 |
  \\      /  F ield         | OpenFOAM: The Open Source CFD Toolbox
   \\    /   O peration     | Website:  https://openfoam.org
    \\  /    A nd           | Version:  6
     \\/     M anipulation  |
\*---------------------------------------------------------------------------*/
FoamFile
{
    version     2.0;
    format      ascii;
    class       volScalarField;
    location    "0.0007";
    object      Num_divU;
}
// * * * * * * * * * * * * * * * * * * * * * * * * * * * * * * * * * * * * * //

dimensions      [0 0 -1 0 0 0 0];

internalField   nonuniform List<scalar> 
600
(
1.625086106e-09
3.108350864e-09
1.326598096e-09
1.35294198e-10
-9.406440716e-10
-1.794536681e-09
-2.464444783e-09
-2.946561269e-09
-3.196032553e-09
-3.208327207e-09
-2.96303075e-09
-2.438480526e-09
-1.601559519e-09
-6.711628121e-10
-3.57751487e-10
-1.734529527e-09
-4.818640807e-09
-6.19911102e-09
9.212676265e-10
1.692609861e-08
2.446653371e-08
1.867847287e-08
1.593293577e-08
1.795360813e-08
5.869923183e-09
-5.5164941e-08
-1.811730666e-07
-4.195059534e-07
-7.652003376e-07
-4.562166085e-07
1.64809843e-09
3.163558235e-09
1.475688873e-09
3.31448979e-10
-6.761852141e-10
-1.418509923e-09
-1.986959051e-09
-2.365328902e-09
-2.611304024e-09
-2.725907547e-09
-2.764534444e-09
-2.600156433e-09
-2.09990704e-09
-1.203722059e-09
-6.517858259e-10
-2.203959113e-09
-7.865616403e-09
-1.56303095e-08
-1.422586012e-08
5.673065051e-09
1.449802233e-08
2.223539193e-09
-1.280624076e-09
5.697719546e-09
6.516107401e-09
-4.648104674e-08
-1.639757958e-07
-3.901352498e-07
-7.774633132e-07
-4.52498098e-07
1.670500903e-09
3.205732761e-09
1.542388957e-09
4.18183117e-10
-5.22512248e-10
-1.197289858e-09
-1.669723048e-09
-2.030053607e-09
-2.358965404e-09
-2.779141994e-09
-3.294530724e-09
-3.732384286e-09
-3.594521846e-09
-2.474574433e-09
-9.500004113e-10
-2.689870903e-09
-1.447180119e-08
-3.93676506e-08
-5.257669418e-08
-1.314488734e-08
4.020859399e-09
-2.894313469e-08
-3.462946706e-08
-1.702701339e-08
1.300658236e-08
-4.228015507e-08
-1.721906474e-07
-3.944575896e-07
-7.792794934e-07
-3.968129488e-07
1.682545914e-09
3.246405245e-09
1.585847448e-09
5.031622651e-10
-3.746345227e-10
-9.446067174e-10
-1.326904922e-09
-1.653992564e-09
-2.1306279e-09
-2.964549896e-09
-4.303651678e-09
-5.96974059e-09
-7.227134968e-09
-6.656853454e-09
-3.635755376e-09
-3.085624043e-09
-2.188834165e-08
-8.436535263e-08
-1.445588159e-07
-5.905082206e-08
-1.926185067e-08
-9.784191885e-08
-1.01618313e-07
-7.481465143e-08
1.403565474e-08
-5.592963952e-08
-2.061615244e-07
-3.998414817e-07
-7.619508655e-07
-2.807949716e-07
1.693673663e-09
3.274267481e-09
1.62941338e-09
5.913823889e-10
-1.930007029e-10
-6.42340472e-10
-8.925933155e-10
-1.151308459e-09
-1.71119512e-09
-2.988266061e-09
-5.495160914e-09
-9.630222488e-09
-1.494031464e-08
-1.866077809e-08
-1.567109669e-08
-6.675465963e-09
-1.983753991e-08
-1.496088124e-07
-3.443468386e-07
-1.718712611e-07
-9.387158564e-08
-2.24690817e-07
-2.033545756e-07
-1.929506957e-07
-3.251348323e-08
-1.270855573e-07
-2.892500769e-07
-3.542902217e-07
-6.934669526e-07
-7.751207309e-08
1.695688382e-09
3.291956374e-09
1.668051967e-09
6.946533274e-10
1.363785725e-11
-2.950203539e-10
-3.852958311e-10
-4.762375825e-10
-9.213026958e-10
-2.381365799e-09
-6.125095488e-09
-1.422685418e-08
-2.848964632e-08
-4.656641853e-08
-5.452267915e-08
-3.171028158e-08
1.374763426e-08
-1.944890751e-07
-6.379021181e-07
-6.933771529e-07
-8.290271126e-07
-1.445796839e-07
-1.824411224e-07
-1.385893239e-07
-8.038706066e-07
-5.457418553e-07
-3.964997386e-07
-1.23413785e-07
-4.689109376e-07
2.476140062e-07
1.688449426e-09
3.291027083e-09
1.703658771e-09
7.988891304e-10
2.178571118e-10
2.763437645e-11
9.129157974e-11
2.43415459e-10
2.054540135e-10
-7.820438386e-10
-4.872562164e-09
-1.701263419e-08
-4.547021066e-08
-9.645045443e-08
-1.515912592e-07
-1.488783012e-07
6.711975812e-08
-2.625027385e-07
-1.669980292e-07
-1.475512195e-06
-1.894011186e-06
-1.739954158e-07
3.617878288e-08
-2.085873025e-07
-1.851786868e-06
-1.19384795e-06
-2.134080718e-07
7.268554039e-07
2.091604255e-07
7.401782057e-07
1.667851069e-09
3.268550359e-09
1.731797098e-09
8.939158058e-10
3.742377517e-10
2.151960815e-10
2.886657262e-10
5.278917223e-10
8.987509853e-10
1.0114205e-09
-1.220150369e-09
-1.291316891e-08
-5.194244033e-08
-1.499355129e-07
-3.122100642e-07
-4.592146098e-07
-3.471295459e-07
1.646154541e-07
7.502801223e-07
-1.943398062e-06
-1.770670821e-06
1.589525734e-07
4.62592691e-07
1.679970203e-07
-1.55788829e-06
-3.02217241e-06
5.159801385e-07
2.836758526e-06
2.749721214e-06
1.573914173e-06
1.631938351e-09
3.220088447e-09
1.756732398e-09
9.792521475e-10
4.676432753e-10
1.828675188e-10
-8.290294282e-11
-4.513631417e-10
-8.225110577e-10
-8.269731372e-10
-3.158213936e-10
-2.694345047e-09
-2.735327374e-08
-1.460245186e-07
-4.48134611e-07
-1.009301853e-06
-1.622323514e-06
8.694674546e-07
2.836559846e-06
2.691152288e-12
1.380567007e-11
2.042777192e-11
2.661568241e-11
2.727189296e-11
-2.524148336e-12
-9.507720869e-12
3.183089227e-06
7.673966047e-07
3.925866577e-06
3.619420863e-06
1.576178414e-09
3.144261055e-09
1.791895955e-09
1.093930816e-09
5.649056083e-10
1.956496419e-11
-1.029741399e-09
-3.230369814e-09
-7.333966695e-09
-1.356683631e-08
-1.931166897e-08
-1.412215954e-08
2.367133561e-08
7.325720414e-08
-3.09868265e-07
-1.566336779e-06
-3.730676746e-06
-1.847707317e-11
-1.009046252e-11
3.192027652e-13
7.488783103e-12
1.185542056e-11
1.869836769e-11
1.138477084e-11
-8.84652718e-13
-3.533243946e-11
-2.816222994e-11
1.060216051e-11
5.958302221e-06
-6.788986617e-13
1.489151648e-09
3.024431564e-09
1.847415041e-09
1.294935566e-09
8.354192397e-10
1.150495139e-10
-1.749967472e-09
-6.49370829e-09
-1.753304529e-08
-4.09367622e-08
-8.408503859e-08
-1.457599339e-07
-1.81462785e-07
-1.999226235e-07
2.310402124e-07
8.649752364e-07
-6.54261175e-12
-9.245001758e-12
-6.938320903e-12
-5.068515713e-13
3.751789036e-12
6.003019776e-12
1.021371355e-11
1.161773982e-11
-8.902463854e-12
-1.973274985e-11
6.431530367e-14
-1.393247649e-11
-1.643219556e-11
-2.743028899e-11
1.330090562e-09
2.809123851e-09
1.89468479e-09
1.606738363e-09
1.423440364e-09
9.772634914e-10
-7.271956918e-10
-5.986246312e-09
-2.046779777e-08
-5.765920533e-08
-1.4625337e-07
-3.358279772e-07
-6.178294039e-07
-9.149601305e-08
9.702322186e-07
2.820019951e-06
-3.884455941e-12
-7.986457766e-12
-5.469901474e-12
-9.963835215e-13
1.320787646e-12
1.007890229e-12
1.870124337e-12
2.881648664e-12
-2.859045144e-12
-1.3539072e-11
-6.813016049e-12
-1.014306187e-11
-2.261146561e-11
-1.109974086e-11
9.617848693e-10
2.342462552e-09
1.809600208e-09
1.906206879e-09
2.185575801e-09
2.452994679e-09
2.19705249e-09
2.45036335e-10
-6.296744631e-09
-2.446888562e-08
-6.948673636e-08
-1.752326211e-07
-6.469442638e-07
-1.324723385e-06
-1.879867804e-06
-2.982549749e-12
-7.802018245e-12
-9.681233933e-12
-7.539156065e-12
-4.091432027e-12
-2.910127907e-12
-3.703023344e-12
-3.232892431e-12
-9.949442242e-13
-2.443972804e-12
-5.245260215e-12
-5.166150208e-12
-1.101197617e-11
-1.205979449e-11
-1.770198869e-11
-1.479415338e-10
1.227347874e-09
1.336568376e-09
1.941923554e-09
2.639901301e-09
3.361270885e-09
3.781722956e-09
3.097265223e-09
-7.052677438e-10
-1.211489811e-08
-3.978781708e-08
-1.166739613e-07
-8.225754906e-07
-1.765979801e-06
-1.661797294e-06
-7.910346114e-12
-1.275769736e-11
-1.441652597e-11
-1.282208447e-11
-1.036225709e-11
-9.228204046e-12
-9.036683265e-12
-6.518021498e-12
-8.610042372e-13
3.026588576e-12
2.713681243e-12
2.086023679e-12
-2.453030414e-12
-9.119923019e-12
-8.958703609e-12
-3.802785302e-09
-1.470775974e-09
1.251606159e-10
1.528498251e-09
2.597465484e-09
3.351373436e-09
3.20187991e-09
8.25053117e-11
-1.171250758e-08
-4.579467959e-08
-1.285822746e-07
-2.855064354e-07
-2.100991257e-07
-2.646020815e-07
2.378606524e-07
-1.170188206e-11
-1.814667807e-11
-2.061369172e-11
-1.861147469e-11
-1.606793319e-11
-1.489325126e-11
-1.217809075e-11
-5.06790096e-12
3.794048904e-12
1.02971878e-11
1.328355427e-11
9.330634629e-12
4.03203342e-12
-3.823844371e-13
-1.261799221e-11
-2.233325337e-08
-9.31879645e-09
-2.237946389e-09
6.99393266e-10
2.304875348e-09
3.351726294e-09
3.591146683e-09
1.16451983e-09
-9.495066487e-09
-4.191511308e-08
-1.226260526e-07
-2.774190341e-07
-2.073737138e-07
-2.616653269e-07
2.524445554e-07
-1.355392913e-11
-1.928726367e-11
-1.997008902e-11
-2.281882727e-11
-2.23539493e-11
-1.888100492e-11
-1.227484948e-11
-4.44528546e-13
1.110790754e-11
1.699328737e-11
1.367454031e-11
1.640892592e-11
1.131107964e-11
7.847398079e-13
-2.622121501e-13
-2.403267983e-08
-1.04752085e-08
-2.821038697e-09
2.212356818e-10
1.89123161e-09
3.259567911e-09
4.641222105e-09
5.716952915e-09
4.799428809e-09
-2.450775521e-09
-2.478354416e-08
-9.622443337e-08
-8.177105573e-07
-1.743696455e-06
-1.56189314e-06
-1.019590102e-11
-1.392447261e-11
-2.5287365e-11
-2.387432011e-11
-2.305341479e-11
-2.028398754e-11
-9.059081894e-12
4.977785076e-12
1.525045296e-11
1.675080122e-11
2.682699004e-11
1.501765671e-11
1.434938762e-11
1.944265581e-11
-1.015667264e-11
-5.244490073e-09
-3.602986499e-09
-1.296185994e-09
8.268161404e-11
1.046853414e-09
1.916707571e-09
2.738294379e-09
2.844102206e-09
-3.774480689e-10
-1.416101476e-08
-5.515176321e-08
-1.600480727e-07
-6.200923675e-07
-1.275242974e-06
-2.393789171e-06
-4.69575218e-12
-1.103627663e-11
-8.072760575e-12
-3.564002336e-11
-3.455076545e-11
-2.179663984e-11
-3.519401715e-12
1.329854191e-11
1.87060834e-11
1.949109928e-11
-3.530322748e-12
4.30767018e-11
3.670015073e-11
-3.179810649e-11
1.947114607e-11
2.0381907e-09
-4.697054498e-10
-5.05417685e-10
-4.063179181e-10
-2.913614146e-10
-4.678745289e-10
-1.444487042e-09
-5.11864784e-09
-1.665468841e-08
-4.909198361e-08
-1.301599696e-07
-3.06708917e-07
-5.736670573e-07
-1.942210004e-07
5.821158792e-07
3.032079695e-06
5.38311198e-12
-6.369491209e-11
-6.225078258e-11
-4.901457782e-11
-2.387591932e-11
-1.182233228e-13
1.330224376e-11
7.281010063e-12
-1.376156047e-11
9.258140143e-11
8.467160265e-11
-5.297292671e-12
4.134882187e-11
-4.341859004e-11
5.972330719e-09
1.071559178e-09
-3.264781047e-10
-1.056693299e-09
-1.670403347e-09
-2.622783068e-09
-4.65995073e-09
-9.222901515e-09
-1.954283803e-08
-4.102317161e-08
-7.884561316e-08
-1.240612396e-07
-1.096132543e-07
6.758624814e-08
1.045475964e-06
9.535287428e-07
-3.95346701e-11
-4.854855367e-11
-7.138070021e-11
-6.150942311e-11
-1.445840227e-11
1.562639855e-11
2.058736656e-11
4.508269189e-12
7.108886814e-11
1.019989643e-10
1.075936983e-10
5.03187665e-11
-2.428171203e-11
9.72044786e-11
)
;

boundaryField
{
    lowerWall
    {
        type            calculated;
        value           nonuniform 0();
    }
    atmosphere
    {
        type            calculated;
        value           nonuniform List<scalar> 
20
(
1.625086106e-09
1.64809843e-09
1.670500903e-09
1.682545914e-09
1.693673663e-09
1.695688382e-09
1.688449426e-09
1.667851069e-09
1.631938351e-09
1.576178414e-09
1.489151648e-09
1.330090562e-09
9.617848693e-10
-1.479415338e-10
-3.802785302e-09
-2.233325337e-08
-2.403267983e-08
-5.244490073e-09
2.0381907e-09
5.972330719e-09
)
;
    }
    rightWall
    {
        type            empty;
    }
    leftWall
    {
        type            empty;
    }
    frontAndBack
    {
        type            calculated;
        value           nonuniform List<scalar> 
30
(
1.625086106e-09
3.108350864e-09
1.326598096e-09
1.35294198e-10
-9.406440716e-10
-1.794536681e-09
-2.464444783e-09
-2.946561269e-09
-3.196032553e-09
-3.208327207e-09
-2.96303075e-09
-2.438480526e-09
-1.601559519e-09
-6.711628121e-10
-3.57751487e-10
-1.734529527e-09
-4.818640807e-09
-6.19911102e-09
9.212676265e-10
1.692609861e-08
2.446653371e-08
1.867847287e-08
1.593293577e-08
1.795360813e-08
5.869923183e-09
-5.5164941e-08
-1.811730666e-07
-4.195059534e-07
-7.652003376e-07
-4.562166085e-07
)
;
    }
    procBoundary0to1
    {
        type            processor;
        value           nonuniform List<scalar> 
20
(
1.645868024e-11
1.698943098e-11
1.721838543e-11
1.730500087e-11
1.754237386e-11
2.340911737e-11
2.500726449e-11
-3.947732706e-13
1.277488762e-11
-4.774429139e-11
-1.173370754e-11
-2.289970962e-11
-1.658344469e-11
-2.168220534e-11
-1.440062372e-11
-1.972500737e-11
-4.19652449e-12
-2.818476933e-11
3.681636363e-11
-4.202293239e-11
)
;
    }
    procBoundary0to2
    {
        type            processor;
        value           nonuniform List<scalar> 
30
(
8.183939181e-09
1.718303862e-09
-3.876946508e-10
-1.672521588e-09
-2.690836432e-09
-4.106425519e-09
-6.437902696e-09
-1.053476869e-08
-1.74747433e-08
-2.785347056e-08
-3.787766109e-08
-2.923838239e-08
4.99073826e-08
2.630773383e-07
2.865916101e-07
6.709207837e-08
-2.566780134e-06
-7.674564424e-11
-8.107608531e-11
-4.466798752e-11
3.604978552e-12
3.601422359e-11
3.200379521e-11
6.925535963e-12
2.853248469e-11
1.498170835e-10
8.992091795e-11
2.491469953e-11
1.543000096e-06
-4.155813156e-11
)
;
    }
}


// ************************************************************************* //
