/*--------------------------------*- C++ -*----------------------------------*\
  =========                 |
  \\      /  F ield         | OpenFOAM: The Open Source CFD Toolbox
   \\    /   O peration     | Website:  https://openfoam.org
    \\  /    A nd           | Version:  6
     \\/     M anipulation  |
\*---------------------------------------------------------------------------*/
FoamFile
{
    version     2.0;
    format      ascii;
    class       volScalarField;
    location    "0.0007";
    object      p_rgh;
}
// * * * * * * * * * * * * * * * * * * * * * * * * * * * * * * * * * * * * * //

dimensions      [1 -1 -2 0 0 0 0];

internalField   nonuniform List<scalar> 
600
(
-1.804617717e-13
-5.479671125e-13
-9.233998394e-13
-1.301566007e-12
-1.68306483e-12
-2.067932462e-12
-2.455437944e-12
-2.84395994e-12
-3.230825207e-12
-3.612116628e-12
-3.982301926e-12
-4.33387422e-12
-4.657161755e-12
-4.940782295e-12
-5.172793412e-12
-5.342252292e-12
-5.440082676e-12
-5.457723761e-12
-5.383474861e-12
-5.200957435e-12
-4.898199937e-12
-4.486284092e-12
-4.005224598e-12
-3.512028439e-12
-3.07712218e-12
-2.796429653e-12
-2.803785581e-12
-3.249870296e-12
-4.257537536e-12
-7.471018886e-12
-1.798658714e-13
-5.46177081e-13
-9.205826247e-13
-1.298045937e-12
-1.679339991e-12
-2.064639765e-12
-2.453484779e-12
-2.844514832e-12
-3.23544223e-12
-3.622623693e-12
-4.000746495e-12
-4.362145957e-12
-4.696658177e-12
-4.991827864e-12
-5.234489166e-12
-5.413019281e-12
-5.519747194e-12
-5.549540699e-12
-5.492121758e-12
-5.322031838e-12
-5.008549453e-12
-4.556938656e-12
-4.019131612e-12
-3.45575796e-12
-2.924846291e-12
-2.510278061e-12
-2.366059395e-12
-2.692607732e-12
-3.659998264e-12
-7.02484188e-12
-1.785680649e-13
-5.42378829e-13
-9.145894097e-13
-1.290511052e-12
-1.671167417e-12
-2.057131688e-12
-2.448377259e-12
-2.844195452e-12
-3.24295461e-12
-3.641737823e-12
-4.03565981e-12
-4.417103381e-12
-4.77495218e-12
-5.094597166e-12
-5.359345678e-12
-5.554945304e-12
-5.676011564e-12
-5.728779256e-12
-5.714048886e-12
-5.587502208e-12
-5.258462037e-12
-4.715757551e-12
-4.060829905e-12
-3.369447869e-12
-2.658316289e-12
-1.955397192e-12
-1.460003142e-12
-1.495158092e-12
-2.350955281e-12
-5.969467635e-12
-1.764794e-13
-5.362146807e-13
-9.048105025e-13
-1.278001738e-12
-1.657250463e-12
-2.043648021e-12
-2.437887538e-12
-2.840141908e-12
-3.249864583e-12
-3.665282215e-12
-4.082633844e-12
-4.494939617e-12
-4.890455602e-12
-5.250996945e-12
-5.552315583e-12
-5.770576033e-12
-5.900284863e-12
-5.97539961e-12
-6.047747539e-12
-6.055972685e-12
-5.723377745e-12
-4.988754028e-12
-4.141631343e-12
-3.305525263e-12
-2.386538611e-12
-1.196721447e-12
-2.630443395e-14
5.142470093e-13
-9.175172826e-14
-4.151077678e-12
-1.734263482e-13
-5.2717677e-13
-8.90321556e-13
-1.259165283e-12
-1.63569568e-12
-2.021693551e-12
-2.418726041e-12
-2.82810815e-12
-3.250703068e-12
-3.68653443e-12
-4.134050874e-12
-4.588669907e-12
-5.039807478e-12
-5.465621222e-12
-5.82759155e-12
-6.07434034e-12
-6.178672014e-12
-6.224218015e-12
-6.445499707e-12
-6.864708297e-12
-6.591512289e-12
-5.37687767e-12
-4.214399638e-12
-3.327463303e-12
-2.388246771e-12
-4.214582652e-13
2.031302005e-12
3.669381667e-12
3.583730064e-12
-1.206992465e-12
-1.692063991e-13
-5.146158085e-13
-8.699982685e-13
-1.232319994e-12
-1.604193067e-12
-1.988166778e-12
-2.386786985e-12
-2.802600268e-12
-3.238111641e-12
-3.695741824e-12
-4.177685816e-12
-4.684976331e-12
-5.213516468e-12
-5.743365172e-12
-6.217307184e-12
-6.519388298e-12
-6.514557642e-12
-6.295976024e-12
-6.641208343e-12
-8.357623242e-12
-8.394117102e-12
-5.714040078e-12
-4.012636622e-12
-3.401307842e-12
-3.411308287e-12
-1.260212417e-13
4.902859804e-12
8.536816567e-12
9.567046334e-12
3.534916278e-12
-1.635797691e-13
-4.978003323e-13
-8.425612451e-13
-1.195585896e-12
-1.560149856e-12
-1.9396038e-12
-2.337437825e-12
-2.75733015e-12
-3.203299046e-12
-3.680272368e-12
-4.195346757e-12
-4.759263229e-12
-5.385295484e-12
-6.076195097e-12
-6.777385424e-12
-7.269241814e-12
-7.060983498e-12
-5.798319781e-12
-5.448159451e-12
-1.124591208e-11
-1.26806873e-11
-5.064980219e-12
-2.719564613e-12
-2.846931479e-12
-7.499394622e-12
-1.291537935e-12
9.153412562e-12
1.601052341e-11
1.959250025e-11
1.129830947e-11
-1.562950161e-13
-4.759511712e-13
-8.066630942e-13
-1.146981269e-12
-1.500865348e-12
-1.872440798e-12
-2.266019115e-12
-2.686075349e-12
-3.137455286e-12
-3.626441538e-12
-4.163759889e-12
-4.77107308e-12
-5.491663294e-12
-6.397293637e-12
-7.544103946e-12
-8.716472918e-12
-8.648656039e-12
-4.352667561e-12
2.111245264e-12
-2.572419602e-11
-3.937167634e-11
6.769413204e-12
4.807572637e-12
7.303337415e-12
-3.741851041e-11
-1.218020967e-11
1.722015062e-11
2.681273812e-11
3.74303791e-11
2.428266637e-11
-1.470989797e-13
-4.482908991e-13
-7.609524727e-13
-1.08452508e-12
-1.423653321e-12
-1.783227705e-12
-2.168275885e-12
-2.583700799e-12
-3.034073317e-12
-3.524178679e-12
-4.062048883e-12
-4.66940098e-12
-5.412058952e-12
-6.474874148e-12
-8.284834512e-12
-1.142385483e-11
-1.421661627e-11
-5.751230676e-12
5.575568181e-11
1383.785865
1369.030602
571.9277019
364.1537501
490.3973474
1212.784328
1197.275623
4.366198801e-11
4.582384298e-11
7.231853626e-11
1.118068506e-10
-1.357547468e-13
-4.140821915e-13
-7.041355566e-13
-1.006289709e-12
-1.325891619e-12
-1.668660299e-12
-2.040464855e-12
-2.446695711e-12
-2.891152074e-12
-3.374273156e-12
-3.891038977e-12
-4.432263195e-12
-5.011010085e-12
-5.804485685e-12
-7.718408852e-12
-1.403694315e-11
-4.407239978e-11
1195.282893
522.8858369
849.3825788
837.0659746
554.4356641
394.1716579
384.5301015
480.1940497
259.6420964
-436.0790561
-677.8640701
1.60315502e-10
3030.028178
-1.220600055e-13
-3.726886487e-13
-6.350527401e-13
-9.10471802e-13
-1.204994498e-12
-1.525335739e-12
-1.878668511e-12
-2.271903245e-12
-2.709893587e-12
-3.191053276e-12
-3.695836359e-12
-4.157296177e-12
-4.393752867e-12
-4.001541944e-12
-2.476285358e-12
-2.247333176e-12
1198.576359
941.6096232
680.3594772
653.7912248
575.381774
414.5246314
273.4840114
173.3067526
63.82361076
-202.6651892
-692.5323238
-1349.502
-2870.845395
8630.571322
-1.058750237e-13
-3.236444995e-13
-5.527923582e-13
-7.955037639e-13
-1.058450736e-12
-1.349443379e-12
-1.677540858e-12
-2.052864997e-12
-2.485871669e-12
-2.984607775e-12
-3.544310537e-12
-4.106991905e-12
-4.39954393e-12
-3.227396923e-12
4.161474574e-12
6.350310585e-11
536.0066
692.2608528
603.182064
510.0433214
396.1285895
254.7703962
111.8876099
-28.66234785
-195.5016055
-441.5064414
-781.8833386
-1156.704298
-1397.815279
7310.679656
-8.715833957e-14
-2.667817853e-13
-4.569023612e-13
-6.603631762e-13
-8.841665958e-13
-1.137009787e-12
-1.429836203e-12
-1.776695377e-12
-2.196517269e-12
-2.71760837e-12
-3.39015197e-12
-4.324601936e-12
-5.809024218e-12
-8.449393351e-12
-2.153705043e-11
1407.604044
886.6432283
688.2806197
530.0889146
387.075835
244.3129948
96.53627353
-52.04993294
-204.3549571
-375.6485378
-585.9154594
-836.7600123
-1097.571492
-1314.931671
-1488.999918
-6.601671866e-14
-2.023711656e-13
-3.476724801e-13
-5.050433285e-13
-6.812756286e-13
-8.852374777e-13
-1.128761239e-12
-1.428004858e-12
-1.806156908e-12
-2.299530887e-12
-2.974401182e-12
-3.98394606e-12
-5.780557429e-12
-9.78238466e-12
-3.52747557e-11
1427.067882
914.7163211
644.1725106
441.8506479
263.8762943
97.52421604
-60.87190476
-212.2542884
-361.0545868
-516.8112654
-689.7235326
-881.6467984
-1081.841046
-1275.286397
-1468.842197
-4.274467459e-14
-1.312863831e-13
-2.264469743e-13
-3.311370182e-13
-4.511732288e-13
-5.945834682e-13
-7.725432742e-13
-1.000718584e-12
-1.300772214e-12
-1.700499371e-12
-2.224987498e-12
-2.851097982e-12
-3.318415125e-12
-2.383601251e-12
1.215229996e-11
702.7047986
701.038367
531.9065281
329.3218594
129.1005329
-57.17950597
-225.2536569
-375.0117602
-510.7940097
-640.831856
-774.5326683
-918.2718744
-1072.848592
-1235.49014
-1404.990599
-1.786751615e-14
-5.51017143e-14
-9.584989795e-14
-1.422302901e-13
-1.982574034e-13
-2.699879288e-13
-3.665427781e-13
-5.016932676e-13
-6.959284409e-13
-9.775789767e-13
-1.375985492e-12
-1.879769286e-12
-2.25670079e-12
-1.322711873e-12
1.280106827e-11
682.7649553
654.9064724
453.1849914
214.5124458
-19.54510376
-230.0229248
-407.8973329
-551.7225626
-666.2946992
-761.2352465
-849.3624485
-944.1009085
-1055.809228
-1188.833273
-1344.473145
7.86401469e-15
2.388071295e-14
4.014781096e-14
5.593492655e-14
6.982475871e-14
7.893299467e-14
7.775728563e-14
5.62807896e-14
-4.155486002e-15
-1.394320503e-13
-4.243688562e-13
-1.039357149e-12
-2.503111506e-12
-6.394995824e-12
-3.29942892e-11
1373.50879
782.7232974
411.5032752
95.18945384
-191.6711177
-435.3858406
-624.5356315
-757.6844822
-841.476346
-888.5275075
-917.6417462
-953.0330113
-1017.504411
-1119.564068
-1274.172428
3.350601578e-14
1.026990827e-13
1.763761092e-13
2.555864436e-13
3.422541436e-13
4.377314576e-13
5.421387665e-13
6.529179953e-13
7.615607066e-13
8.462612899e-13
8.541029686e-13
6.537112145e-13
-9.410760499e-14
-2.071007253e-12
-1.39314753e-11
1345.310693
691.0365385
315.0277465
-53.48067959
-406.8405208
-695.2235372
-897.1346077
-1013.025512
-1053.466475
-1033.831139
-979.7632485
-932.9517245
-941.6751123
-997.8325696
-1118.497877
5.797454726e-14
1.779763331e-13
3.067915295e-13
4.47424937e-13
6.055109472e-13
7.872694876e-13
9.998435992e-13
1.251130898e-12
1.549887647e-12
1.906244866e-12
2.337865188e-12
2.900432255e-12
3.827579149e-12
6.195324878e-12
1.436995413e-11
6.990854831e-11
321.133467
211.0877306
-217.1409976
-686.8331902
-1041.436306
-1255.738109
-1343.875588
-1325.616042
-1213.653953
-1034.612694
-857.5269776
-818.5748557
-811.4518967
7933.492617
8.014290604e-14
2.462717494e-13
4.250802528e-13
6.215831276e-13
8.447587169e-13
1.105696226e-12
1.418326408e-12
1.801065315e-12
2.27895226e-12
2.888431739e-12
3.687925716e-12
4.783876832e-12
6.385474861e-12
8.879393497e-12
1.262069504e-11
1.653837884e-11
1015.822454
425.6137946
-339.0611806
-1081.697094
-1527.844273
-1740.505407
-1781.18181
-1691.50051
-1460.494775
-1087.91807
-644.3449547
-663.6218929
-1803.717637
9623.909018
)
;

boundaryField
{
    lowerWall
    {
        type            fixedFluxPressure;
        gradient        nonuniform 0();
        value           nonuniform 0();
    }
    atmosphere
    {
        type            totalPressure;
        rho             rho;
        psi             none;
        gamma           1;
        p0              uniform 0;
        value           nonuniform List<scalar> 
20
(
-7.327583289e-23
-7.261095145e-23
-7.149664896e-23
-6.980850793e-23
-6.741054249e-23
-6.417139033e-23
-5.997878199e-23
-5.476158033e-23
-4.851617251e-23
-4.133462846e-23
-3.343274595e-23
-2.517469683e-23
-1.708843921e-23
-9.858848538e-24
-4.275155549e-24
-1.034410402e-24
0
0
0
0
)
;
    }
    rightWall
    {
        type            empty;
    }
    leftWall
    {
        type            empty;
    }
    frontAndBack
    {
        type            fixedFluxPressure;
        gradient        uniform 0;
        value           nonuniform List<scalar> 
30
(
-1.804617717e-13
-5.479671125e-13
-9.233998394e-13
-1.301566007e-12
-1.68306483e-12
-2.067932462e-12
-2.455437944e-12
-2.84395994e-12
-3.230825207e-12
-3.612116628e-12
-3.982301926e-12
-4.33387422e-12
-4.657161755e-12
-4.940782295e-12
-5.172793412e-12
-5.342252292e-12
-5.440082676e-12
-5.457723761e-12
-5.383474861e-12
-5.200957435e-12
-4.898199937e-12
-4.486284092e-12
-4.005224598e-12
-3.512028439e-12
-3.07712218e-12
-2.796429653e-12
-2.803785581e-12
-3.249870296e-12
-4.257537536e-12
-7.471018886e-12
)
;
    }
    procBoundary0to1
    {
        type            processor;
        value           nonuniform List<scalar> 
20
(
-157.2273021
-162.8657255
-175.1419822
-196.4733448
-231.8705643
-291.9279003
-400.9427072
-620.9794541
-1130.85643
-2510.455435
-3873.376492
-2788.268755
-1997.545614
-1706.052059
-1571.100835
-1509.895114
-1514.109484
-1650.284514
-2247.076364
-3096.368334
)
;
    }
    procBoundary0to2
    {
        type            processor;
        value           nonuniform List<scalar> 
30
(
9.907290219e-14
3.04389518e-13
5.255255018e-13
7.688072708e-13
1.046038408e-12
1.371984108e-12
1.766114548e-12
2.254813014e-12
2.874889394e-12
3.678358646e-12
4.739411662e-12
6.160488745e-12
8.057625982e-12
1.043422474e-11
1.26361483e-11
1.169918648e-11
-1.452551995e-11
814.821945
-482.7031776
-1772.776356
-2247.674026
-2397.326886
-2348.937234
-2198.729451
-1849.222517
-1212.673183
31.20892641
611.9262346
2002.964741
4535.876175
)
;
    }
}


// ************************************************************************* //
