/*--------------------------------*- C++ -*----------------------------------*\
  =========                 |
  \\      /  F ield         | OpenFOAM: The Open Source CFD Toolbox
   \\    /   O peration     | Website:  https://openfoam.org
    \\  /    A nd           | Version:  6
     \\/     M anipulation  |
\*---------------------------------------------------------------------------*/
FoamFile
{
    version     2.0;
    format      ascii;
    class       volVectorField;
    location    "0.0007";
    object      gradT;
}
// * * * * * * * * * * * * * * * * * * * * * * * * * * * * * * * * * * * * * //

dimensions      [0 -1 0 1 0 0 0];

internalField   nonuniform List<vector> 
9600
(
(0 -1.524659272e-08 -1.468246878e-05)
(0 -3.811648202e-08 -1.47320203e-05)
(0 -5.717472268e-08 -1.482731142e-05)
(0 -8.004461175e-08 -1.49683424e-05)
(0 -1.029145014e-07 -1.51513016e-05)
(0 -1.295960381e-07 -1.539524699e-05)
(0 -1.524659272e-07 -1.567349731e-05)
(0 -1.753358173e-07 -1.60051108e-05)
(0 -2.096406498e-07 -1.638627552e-05)
(0 -2.286988907e-07 -1.682080341e-05)
(0 -2.477571331e-07 -1.729725954e-05)
(0 -2.820619652e-07 -1.783089018e-05)
(0 -3.049318543e-07 -1.84102607e-05)
(0 -3.316133935e-07 -1.904299442e-05)
(0 -3.582949288e-07 -1.973671427e-05)
(0 -3.811648179e-07 -2.046855072e-05)
(0 -4.040347094e-07 -2.126137367e-05)
(0 -4.345278924e-07 -2.210374779e-05)
(0 -4.650210778e-07 -2.300710841e-05)
(0 -4.91702618e-07 -2.396383224e-05)
(0 -5.260074487e-07 -2.498154216e-05)
(0 -5.526889859e-07 -2.605642695e-05)
(0 -5.793705267e-07 -2.718848662e-05)
(0 -6.136753568e-07 -2.838153234e-05)
(0 -6.441685422e-07 -2.963556459e-05)
(0 -6.746617317e-07 -3.095439505e-05)
(0 -7.051549131e-07 -3.23342115e-05)
(0 -7.356480985e-07 -3.377882616e-05)
(0 -7.699529367e-07 -3.527680411e-05)
(0 -8.080694139e-07 -3.686244954e-05)
(0 -8.385625993e-07 -3.850145825e-05)
(0 -8.728674382e-07 -4.022051182e-05)
(0 -9.071722666e-07 -4.200055128e-05)
(0 -9.414771002e-07 -4.384920065e-05)
(0 -9.719702914e-07 -4.576264831e-05)
(0 -1.013898416e-06 -4.775232838e-05)
(0 -1.052014897e-06 -4.981443005e-05)
(0 -1.082508089e-06 -5.194514169e-05)
(0 -1.120624565e-06 -5.415970897e-05)
(0 -1.154929398e-06 -5.643526294e-05)
(0 -1.196857535e-06 -5.878323857e-05)
(0 -1.23497401e-06 -6.12112581e-05)
(0 -1.265467195e-06 -6.371551096e-05)
(0 -1.307395333e-06 -6.628456223e-05)
(0 -1.341700159e-06 -6.894128061e-05)
(0 -1.376004993e-06 -7.165136246e-05)
(0 -1.414121483e-06 -7.444911267e-05)
(0 -1.452237956e-06 -7.731547166e-05)
(0 -1.482731142e-06 -8.025044076e-05)
(0 -1.517035984e-06 -8.325402002e-05)
(0 -1.555152457e-06 -8.63300196e-05)
(0 -1.585645642e-06 -8.94708177e-05)
(0 -1.616138838e-06 -9.267641438e-05)
(0 -1.650443661e-06 -9.593537301e-05)
(0 -1.677125202e-06 -9.92667537e-05)
(0 -1.699995092e-06 -0.0001026514973)
(0 -1.730488276e-06 -0.000106078169)
(0 -1.749546517e-06 -0.0001095658271)
(0 -1.768604759e-06 -0.0001130877901)
(0 -1.787662999e-06 -0.0001166593044)
(0 -1.810532888e-06 -0.0001202536886)
(0 -1.810532889e-06 -0.0001238747545)
(0 -1.818156185e-06 -0.0001275110668)
(0 -1.818156185e-06 -0.0001311473791)
(0 -1.814344537e-06 -0.0001347913149)
(0 -1.80672124e-06 -0.0001384200039)
(0 -1.791474644e-06 -0.0001420220111)
(0 -1.772416414e-06 -0.000145597338)
(0 -1.745734866e-06 -0.0001491269233)
(0 -1.711430032e-06 -0.0001525878999)
(0 -1.669501912e-06 -0.0001559764561)
(0 -1.619950476e-06 -0.0001592735308)
(0 -1.562775753e-06 -0.000162467692)
(0 -1.497977743e-06 -0.0001655360697)
(0 -1.421744771e-06 -0.0001684634146)
(0 -1.337888511e-06 -0.0001712306711)
(0 -1.25022061e-06 -0.0001738225929)
(0 -1.147306102e-06 -0.0001762315535)
(0 -1.040579953e-06 -0.0001784308745)
(0 -9.26230513e-07 -0.0001804014977)
(0 -8.004461175e-07 -0.0001821396082)
(0 -6.708500795e-07 -0.0001836147161)
(0 -5.298191e-07 -0.000184819198)
(0 -3.887881142e-07 -0.0001857530507)
(0 -2.363221871e-07 -0.0001863857843)
(0 -8.004461223e-08 -0.0001867059639)
(0 8.004461175e-08 -0.0001867097744)
(0 2.439454834e-07 -0.0001863895959)
(0 4.078463576e-07 -0.0001857378052)
(0 5.908054677e-07 -0.0001847391523)
(0 7.661412839e-07 -0.0001833783939)
(0 9.45288754e-07 -0.0001816707766)
(0 1.132059509e-06 -0.0001796010505)
(0 1.307395325e-06 -0.000177169219)
(0 1.486542799e-06 -0.0001743676586)
(0 1.677125199e-06 -0.000171200178)
(0 1.863895959e-06 -0.0001676629684)
(0 2.039231788e-06 -0.0001637522184)
(0 2.21837924e-06 -0.0001594946064)
(0 2.401338353e-06 -0.0001548672655)
(0 2.56523924e-06 -0.0001498968772)
(0 2.744386689e-06 -0.0001445758154)
(0 2.912099209e-06 -0.0001389193295)
(0 3.064565154e-06 -0.0001329350427)
(0 3.224654359e-06 -0.0001266343874)
(0 3.373308638e-06 -0.0001200326128)
(0 3.514339642e-06 -0.0001131373419)
(0 3.643935659e-06 -0.0001059714427)
(0 3.777343345e-06 -9.853491707e-05)
(0 3.891692814e-06 -9.085825818e-05)
(0 3.99841894e-06 -8.296052261e-05)
(0 4.105145089e-06 -7.484933529e-05)
(0 4.19662467e-06 -6.652850771e-05)
(0 4.280480905e-06 -5.804377847e-05)
(0 4.356713868e-06 -4.938752545e-05)
(0 4.42913521e-06 -4.059405335e-05)
(0 4.482498258e-06 -3.167479637e-05)
(0 4.528238036e-06 -2.266024842e-05)
(0 4.558731249e-06 -1.355422101e-05)
(0 2.294612204e-06 -4.387207054e-06)
(0 -3.811648407e-08 -1.467865802e-05)
(0 -1.06726156e-07 -1.472439789e-05)
(0 -1.791474752e-07 -1.481587736e-05)
(0 -2.439454981e-07 -1.495690835e-05)
(0 -3.163668197e-07 -1.515130251e-05)
(0 -3.92599786e-07 -1.538381297e-05)
(0 -4.650211057e-07 -1.567349825e-05)
(0 -5.336307802e-07 -1.600511176e-05)
(0 -6.098637452e-07 -1.639008815e-05)
(0 -6.822850649e-07 -1.681699277e-05)
(0 -7.547063892e-07 -1.729726058e-05)
(0 -8.347510012e-07 -1.782326795e-05)
(0 -9.109839694e-07 -1.841026181e-05)
(0 -9.910285919e-07 -1.904299556e-05)
(0 -1.071073203e-06 -1.972146886e-05)
(0 -1.143494522e-06 -2.04647403e-05)
(0 -1.227350795e-06 -2.12575633e-05)
(0 -1.307395404e-06 -2.210374912e-05)
(0 -1.395063317e-06 -2.300329814e-05)
(0 -1.478919591e-06 -2.396383368e-05)
(0 -1.574210792e-06 -2.498154366e-05)
(0 -1.654255409e-06 -2.606024016e-05)
(0 -1.741923333e-06 -2.718848825e-05)
(0 -1.837214532e-06 -2.838153404e-05)
(0 -1.928694094e-06 -2.963937802e-05)
(0 -2.023985317e-06 -3.09543969e-05)
(0 -2.115464866e-06 -3.233421344e-05)
(0 -2.214567725e-06 -3.378263984e-05)
(0 -2.313670597e-06 -3.529967611e-05)
(0 -2.41658509e-06 -3.687007505e-05)
(0 -2.519499597e-06 -3.851670716e-05)
(0 -2.62241412e-06 -4.022813753e-05)
(0 -2.717705315e-06 -4.20081771e-05)
(0 -2.82443147e-06 -4.385682658e-05)
(0 -2.931157643e-06 -4.577789765e-05)
(0 -3.034072132e-06 -4.777138949e-05)
(0 -3.152233233e-06 -4.982967963e-05)
(0 -3.25514776e-06 -5.19680147e-05)
(0 -3.365685544e-06 -5.417495882e-05)
(0 -3.472411699e-06 -5.646194786e-05)
(0 -3.579137876e-06 -5.881754693e-05)
(0 -3.697298955e-06 -6.124175496e-05)
(0 -3.811648407e-06 -6.374600797e-05)
(0 -3.914562938e-06 -6.632649434e-05)
(0 -4.028912367e-06 -6.897558958e-05)
(0 -4.131826874e-06 -7.169710654e-05)
(0 -4.246176351e-06 -7.449485692e-05)
(0 -4.349090833e-06 -7.736502773e-05)
(0 -4.459628637e-06 -8.030380865e-05)
(0 -4.558731523e-06 -8.331501139e-05)
(0 -4.665457651e-06 -8.639101116e-05)
(0 -4.756937213e-06 -8.953943274e-05)
(0 -4.852228452e-06 -9.274502961e-05)
(0 -4.943707985e-06 -9.602304668e-05)
(0 -5.031375907e-06 -9.935061592e-05)
(0 -5.111420527e-06 -0.0001027353598)
(0 -5.187653492e-06 -0.0001061810899)
(0 -5.26388646e-06 -0.0001096725598)
(0 -5.317249541e-06 -0.0001132097696)
(0 -5.366800967e-06 -0.0001167736608)
(0 -5.416352397e-06 -0.0001203794802)
(0 -5.439222291e-06 -0.0001240081696)
(0 -5.462092178e-06 -0.000127655917)
(0 -5.462092178e-06 -0.0001313112879)
(0 -5.454468884e-06 -0.0001349666588)
(0 -5.427787342e-06 -0.0001386105946)
(0 -5.389670848e-06 -0.0001422392836)
(0 -5.328684506e-06 -0.000145822234)
(0 -5.248639857e-06 -0.0001493670661)
(0 -5.138102053e-06 -0.0001528509128)
(0 -5.016129334e-06 -0.0001562509041)
(0 -4.867475016e-06 -0.0001595708489)
(0 -4.699762486e-06 -0.0001627802569)
(0 -4.497745148e-06 -0.0001658562582)
(0 -4.272857865e-06 -0.0001688026614)
(0 -4.025100718e-06 -0.000171592788)
(0 -3.750662055e-06 -0.0001742113915)
(0 -3.457165106e-06 -0.0001766317872)
(0 -3.133174991e-06 -0.0001788425433)
(0 -2.778691706e-06 -0.0001808360365)
(0 -2.412773442e-06 -0.000182585582)
(0 -2.016362008e-06 -0.0001840759365)
(0 -1.604703989e-06 -0.0001853032884)
(0 -1.170176061e-06 -0.0001862371412)
(0 -7.20401549e-07 -0.0001868813098)
(0 -2.47757148e-07 -0.0001872205476)
(0 2.401338497e-07 -0.0001872357931)
(0 7.280248458e-07 -0.0001869232379)
(0 1.242597388e-06 -0.0001862676355)
(0 1.768604861e-06 -0.0001852689825)
(0 2.294612341e-06 -0.000183919659)
(0 2.832054784e-06 -0.0001822158532)
(0 3.377120489e-06 -0.000180146127)
(0 3.929809508e-06 -0.0001777104837)
(0 4.478686906e-06 -0.0001749089232)
(0 5.027564249e-06 -0.0001717376306)
(0 5.584064917e-06 -0.0001681966093)
(0 6.125319028e-06 -0.000164285859)
(0 6.666573065e-06 -0.0001600130001)
(0 7.196392193e-06 -0.0001553780357)
(0 7.718588071e-06 -0.0001503924005)
(0 8.240783857e-06 -0.0001450522801)
(0 8.73629815e-06 -0.000139384359)
(0 9.212754256e-06 -0.0001333810135)
(0 9.681586955e-06 -0.000127057488)
(0 1.012373817e-05 -0.0001204328431)
(0 1.054683121e-05 -0.0001135223252)
(0 1.095467752e-05 -0.000106329744)
(0 1.133584236e-05 -9.888559464e-05)
(0 1.168651409e-05 -9.11860654e-05)
(0 1.201050413e-05 -8.325783616e-05)
(0 1.232687095e-05 -7.511615517e-05)
(0 1.260130971e-05 -6.67800805e-05)
(0 1.286812502e-05 -5.826104591e-05)
(0 1.308920063e-05 -4.958192248e-05)
(0 1.327978313e-05 -4.076557996e-05)
(0 1.345511888e-05 -3.18272642e-05)
(0 1.359614987e-05 -2.277841088e-05)
(0 1.37104994e-05 -1.364951303e-05)
(0 6.880025376e-06 -4.444382043e-06)
(0 -6.098637086e-08 -1.468246878e-05)
(0 -1.715241691e-07 -1.47320203e-05)
(0 -2.973085579e-07 -1.482731142e-05)
(0 -4.116580033e-07 -1.497215405e-05)
(0 -5.260074518e-07 -1.515511325e-05)
(0 -6.556034868e-07 -1.539143535e-05)
(0 -7.699529321e-07 -1.567730896e-05)
(0 -8.919256792e-07 -1.600892245e-05)
(0 -1.013898416e-06 -1.638627552e-05)
(0 -1.139682805e-06 -1.682080341e-05)
(0 -1.261655555e-06 -1.730107119e-05)
(0 -1.391251585e-06 -1.783470183e-05)
(0 -1.520847623e-06 -1.841407235e-05)
(0 -1.646632023e-06 -1.904680606e-05)
(0 -1.780039699e-06 -1.973290262e-05)
(0 -1.917259034e-06 -2.046855072e-05)
(0 -2.043043436e-06 -2.126518532e-05)
(0 -2.184074406e-06 -2.211518273e-05)
(0 -2.325105389e-06 -2.3022355e-05)
(0 -2.469948035e-06 -2.397907884e-05)
(0 -2.618602299e-06 -2.499678876e-05)
(0 -2.759633281e-06 -2.606405025e-05)
(0 -2.908287578e-06 -2.720754486e-05)
(0 -3.060753488e-06 -2.840059058e-05)
(0 -3.213219415e-06 -2.965843448e-05)
(0 -3.36949701e-06 -3.097345329e-05)
(0 -3.533397862e-06 -3.235708139e-05)
(0 -3.693487085e-06 -3.38055077e-05)
(0 -3.85738798e-06 -3.531492059e-05)
(0 -4.028912125e-06 -3.689675437e-05)
(0 -4.196624645e-06 -3.853957474e-05)
(0 -4.371960487e-06 -4.025481666e-05)
(0 -4.535861333e-06 -4.204247941e-05)
(0 -4.707385501e-06 -4.389494043e-05)
(0 -4.886532995e-06 -4.581219974e-05)
(0 -5.06568043e-06 -4.780950311e-05)
(0 -5.248639542e-06 -4.987922807e-05)
(0 -5.427787039e-06 -5.201756301e-05)
(0 -5.618369416e-06 -5.422831864e-05)
(0 -5.793705232e-06 -5.651530755e-05)
(0 -5.97666438e-06 -5.887471812e-05)
(0 -6.163435105e-06 -6.13141726e-05)
(0 -6.350205866e-06 -6.381842546e-05)
(0 -6.533165018e-06 -6.640272332e-05)
(0 -6.716124091e-06 -6.90594417e-05)
(0 -6.895271555e-06 -7.17962051e-05)
(0 -7.082042359e-06 -7.459395531e-05)
(0 -7.261189781e-06 -7.747174923e-05)
(0 -7.432713949e-06 -8.042196492e-05)
(0 -7.608049811e-06 -8.343697913e-05)
(0 -7.779573933e-06 -8.652060201e-05)
(0 -7.939663156e-06 -8.968045835e-05)
(0 -8.09594078e-06 -9.289748997e-05)
(0 -8.252218307e-06 -9.618313014e-05)
(0 -8.393249305e-06 -9.952975742e-05)
(0 -8.530468645e-06 -0.0001029335593)
(0 -8.663876326e-06 -0.0001063869125)
(0 -8.774414123e-06 -0.0001098936288)
(0 -8.87732863e-06 -0.0001134384617)
(0 -8.964996533e-06 -0.0001170328459)
(0 -9.037417848e-06 -0.0001206539117)
(0 -9.08696928e-06 -0.0001243016591)
(0 -9.121274108e-06 -0.0001279684645)
(0 -9.132709053e-06 -0.0001316543283)
(0 -9.113650817e-06 -0.0001353325689)
(0 -9.071722682e-06 -0.0001390069977)
(0 -9.006924646e-06 -0.0001426585564)
(0 -8.900198551e-06 -0.000146279623)
(0 -8.774414108e-06 -0.0001498435132)
(0 -8.595266643e-06 -0.0001533616645)
(0 -8.389437692e-06 -0.0001568035837)
(0 -8.14168051e-06 -0.0001601463982)
(0 -7.859618545e-06 -0.0001633939225)
(0 -7.52419355e-06 -0.000166519475)
(0 -7.154463632e-06 -0.0001695039945)
(0 -6.742805628e-06 -0.0001723322375)
(0 -6.281596236e-06 -0.000174981334)
(0 -5.786081935e-06 -0.000177439846)
(0 -5.248639542e-06 -0.0001796887184)
(0 -4.661645751e-06 -0.0001817127047)
(0 -4.04034707e-06 -0.0001834927433)
(0 -3.392366879e-06 -0.0001850212142)
(0 -2.694835279e-06 -0.0001862676243)
(0 -1.970622108e-06 -0.0001872319702)
(0 -1.215915769e-06 -0.000187895197)
(0 -4.307162468e-07 -0.000188253493)
(0 3.811648179e-07 -0.0001882877967)
(0 1.212104121e-06 -0.0001879828649)
(0 2.058290029e-06 -0.0001873386975)
(0 2.938780746e-06 -0.0001863552911)
(0 3.823083123e-06 -0.0001850174026)
(0 4.715008825e-06 -0.000183313597)
(0 5.62980436e-06 -0.0001812514942)
(0 6.548411571e-06 -0.0001788120394)
(0 7.463207179e-06 -0.0001760028557)
(0 8.39324929e-06 -0.0001728239401)
(0 9.315668149e-06 -0.0001692752956)
(0 1.022284048e-05 -0.0001653531106)
(0 1.112238939e-05 -0.0001610573821)
(0 1.202193836e-05 -0.0001564033597)
(0 1.289099422e-05 -0.0001513910433)
(0 1.375242663e-05 -0.0001460280534)
(0 1.458336593e-05 -0.0001403258277)
(0 1.538762379e-05 -0.0001342881778)
(0 1.616901157e-05 -0.0001279417828)
(0 1.691228297e-05 -0.0001212713985)
(0 1.761362634e-05 -0.0001143151412)
(0 1.829209961e-05 -0.0001070806323)
(0 1.892483321e-05 -9.958312032e-05)
(0 1.951563879e-05 -9.184166342e-05)
(0 2.006832766e-05 -8.385625993e-05)
(0 2.058290017e-05 -7.566883965e-05)
(0 2.105173302e-05 -6.728321406e-05)
(0 2.147482584e-05 -5.871462855e-05)
(0 2.185599066e-05 -4.998595422e-05)
(0 2.218379253e-05 -4.11124375e-05)
(0 2.246966601e-05 -3.211694755e-05)
(0 2.270979985e-05 -2.301092006e-05)
(0 2.28927591e-05 -1.382103638e-05)
(0 1.149211926e-05 -4.570166166e-06)
(0 -8.385625993e-08 -1.468246878e-05)
(0 -2.477571331e-07 -1.472820865e-05)
(0 -4.154696515e-07 -1.482349977e-05)
(0 -5.75558875e-07 -1.49607191e-05)
(0 -7.394597511e-07 -1.51513016e-05)
(0 -9.147955629e-07 -1.539143535e-05)
(0 -1.082508083e-06 -1.567730896e-05)
(0 -1.246408962e-06 -1.600892245e-05)
(0 -1.421744771e-06 -1.639008717e-05)
(0 -1.593268939e-06 -1.681699176e-05)
(0 -1.764793117e-06 -1.730107119e-05)
(0 -1.947752219e-06 -1.783089018e-05)
(0 -2.130711332e-06 -1.841407235e-05)
(0 -2.306047162e-06 -1.905061771e-05)
(0 -2.492817909e-06 -1.973671427e-05)
(0 -2.683400318e-06 -2.047998566e-05)
(0 -2.866359448e-06 -2.127280861e-05)
(0 -3.064565136e-06 -2.212280603e-05)
(0 -3.258959193e-06 -2.302616665e-05)
(0 -3.457164919e-06 -2.398670213e-05)
(0 -3.659182252e-06 -2.50006004e-05)
(0 -3.865011253e-06 -2.608310849e-05)
(0 -4.070840279e-06 -2.721516816e-05)
(0 -4.291915849e-06 -2.840821388e-05)
(0 -4.505368147e-06 -2.967368107e-05)
(0 -4.715008825e-06 -3.099251153e-05)
(0 -4.947519336e-06 -3.237613963e-05)
(0 -5.180029875e-06 -3.382837759e-05)
(0 -5.401105502e-06 -3.534541377e-05)
(0 -5.641239305e-06 -3.692343591e-05)
(0 -5.885184788e-06 -3.857387957e-05)
(0 -6.113883715e-06 -4.028912149e-05)
(0 -6.36164081e-06 -4.207678425e-05)
(0 -6.594151349e-06 -4.393305691e-05)
(0 -6.84572017e-06 -4.586175116e-05)
(0 -7.101100557e-06 -4.786286618e-05)
(0 -7.356480985e-06 -4.993640279e-05)
(0 -7.608049811e-06 -5.208236103e-05)
(0 -7.867241841e-06 -5.430073996e-05)
(0 -8.118810621e-06 -5.659154051e-05)
(0 -8.378002747e-06 -5.896238603e-05)
(0 -8.641006421e-06 -6.140565216e-05)
(0 -8.900198497e-06 -6.392515161e-05)
(0 -9.15557898e-06 -6.651326112e-05)
(0 -9.41858265e-06 -6.918141445e-05)
(0 -9.662528133e-06 -7.192198949e-05)
(0 -9.921720269e-06 -7.473498629e-05)
(0 -1.018091229e-05 -7.761659186e-05)
(0 -1.042485777e-05 -8.05782425e-05)
(0 -1.065736837e-05 -8.36085033e-05)
(0 -1.090512544e-05 -8.670737277e-05)
(0 -1.113763598e-05 -8.987866406e-05)
(0 -1.135871164e-05 -9.311856557e-05)
(0 -1.157216387e-05 -9.641945233e-05)
(0 -1.178180454e-05 -9.978513785e-05)
(0 -1.196857531e-05 -0.000103207998)
(0 -1.215153442e-05 -0.0001066842211)
(0 -1.231162364e-05 -0.0001102099956)
(0 -1.245646628e-05 -0.0001137891334)
(-9.918233384e-25 -1.258606231e-05 -0.0001174025758)
(9.918233384e-25 -1.268135351e-05 -0.0001210579464)
(0 -1.276139813e-05 -0.0001247323753)
(0 -1.28071379e-05 -0.0001284372973)
(0 -1.283000779e-05 -0.0001321536542)
(0 -1.280713791e-05 -0.000135873823)
(0 -1.274996318e-05 -0.0001395863682)
(0 -1.26584836e-05 -0.0001432760434)
(0 -1.251745269e-05 -0.0001469390382)
(0 -1.233068186e-05 -0.0001505677264)
(0 -1.209817132e-05 -0.0001541239941)
(0 -1.180467448e-05 -0.0001576230881)
(0 -1.146543772e-05 -0.000161026889)
(0 -1.106521466e-05 -0.0001643239646)
(0 -1.060019365e-05 -0.0001675066919)
(0 -1.008562108e-05 -0.0001705407628)
(0 -9.506250558e-06 -0.0001734223688)
(0 -8.858270421e-06 -0.0001761248285)
(0 -8.160738751e-06 -0.0001786443268)
(0 -7.406032411e-06 -0.0001809465623)
(0 -6.586528092e-06 -0.0001830201001)
(0 -5.71366062e-06 -0.0001848496901)
(0 -4.795053409e-06 -0.0001864162775)
(0 -3.81545985e-06 -0.0001877046157)
(0 -2.801561411e-06 -0.0001887108897)
(0 -1.741923218e-06 -0.0001894084213)
(0 -6.327336015e-07 -0.0001897895873)
(0 5.031375596e-07 -0.0001898467608)
(0 1.677125199e-06 -0.0001895685105)
(0 2.862547799e-06 -0.0001889548363)
(0 4.093710144e-06 -0.0001879828649)
(0 5.340119098e-06 -0.0001866525997)
(0 6.601774685e-06 -0.000184960229)
(0 7.878676786e-06 -0.0001828905029)
(0 9.170825518e-06 -0.0001804548597)
(0 1.046297431e-05 -0.0001776418644)
(0 1.175893463e-05 -0.0001744553255)
(0 1.305870666e-05 -0.0001708914344)
(0 1.434323218e-05 -0.0001669501912)
(0 1.561251094e-05 -0.0001626277812)
(0 1.687035484e-05 -0.0001579432656)
(0 1.809008237e-05 -0.0001528928327)
(0 1.930218638e-05 -0.0001474917263)
(0 2.047236237e-05 -0.0001417399492)
(0 2.160823366e-05 -0.0001356527478)
(0 2.270217655e-05 -0.0001292415548)
(0 2.374275651e-05 -0.0001225254307)
(0 2.474140848e-05 -0.0001155081871)
(0 2.568288543e-05 -0.0001082012569)
(0 2.65748111e-05 -0.0001006351352)
(0 2.740575057e-05 -9.281744536e-05)
(0 2.818713828e-05 -8.47710555e-05)
(0 2.889991649e-05 -7.65035906e-05)
(0 2.95593318e-05 -6.804173205e-05)
(0 3.016157204e-05 -5.939310192e-05)
(0 3.068757949e-05 -5.058438298e-05)
(0 3.115260075e-05 -4.163463331e-05)
(0 3.155663527e-05 -3.25552871e-05)
(0 3.188824866e-05 -2.336921498e-05)
(0 3.215506423e-05 -1.40916634e-05)
(0 1.613851839e-05 -4.753125279e-06)
(0 -1.067261554e-07 -1.468246967e-05)
(0 -3.163668197e-07 -1.472439789e-05)
(0 -5.298191286e-07 -1.481968901e-05)
(0 -7.394597911e-07 -1.496072e-05)
(0 -9.529121076e-07 -1.515130251e-05)
(0 -1.177799358e-06 -1.538762462e-05)
(0 -1.391251669e-06 -1.56696866e-05)
(0 -1.604703989e-06 -1.600511176e-05)
(0 -1.821967939e-06 -1.63862765e-05)
(0 -2.054478492e-06 -1.681318113e-05)
(0 -2.275554113e-06 -1.729344893e-05)
(0 -2.504253004e-06 -1.78270796e-05)
(0 -2.732951908e-06 -1.841026181e-05)
(0 -2.969274127e-06 -1.904680721e-05)
(0 -3.209407959e-06 -1.973671545e-05)
(0 -3.449541809e-06 -2.047617525e-05)
(0 -3.693487329e-06 -2.127280989e-05)
(0 -3.941244453e-06 -2.212661901e-05)
(0 -4.192813248e-06 -2.302997968e-05)
(0 -4.440570421e-06 -2.399432687e-05)
(0 -4.711197432e-06 -2.501966015e-05)
(0 -4.97801282e-06 -2.609835665e-05)
(0 -5.237204943e-06 -2.723422803e-05)
(0 -5.519266894e-06 -2.843489712e-05)
(0 -5.793705579e-06 -2.969274109e-05)
(0 -6.075767598e-06 -3.101919493e-05)
(0 -6.365452841e-06 -3.241044641e-05)
(0 -6.658949768e-06 -3.38588728e-05)
(0 -6.952446737e-06 -3.537590908e-05)
(0 -7.257378568e-06 -3.696536626e-05)
(0 -7.566122089e-06 -3.861581002e-05)
(0 -7.86724236e-06 -4.033486369e-05)
(0 -8.183609131e-06 -4.21263382e-05)
(0 -8.499975949e-06 -4.399023427e-05)
(0 -8.812531171e-06 -4.593036359e-05)
(0 -9.140332881e-06 -4.793529037e-05)
(0 -9.468134644e-06 -5.00164504e-05)
(0 -9.795936466e-06 -5.217003207e-05)
(0 -1.011992652e-05 -5.439984607e-05)
(0 -1.046297488e-05 -5.669827006e-05)
(0 -1.078315341e-05 -5.907673902e-05)
(0 -1.112239005e-05 -6.152762859e-05)
(0 -1.145781511e-05 -6.405093984e-05)
(0 -1.179324024e-05 -6.665810775e-05)
(0 -1.212485358e-05 -6.933388453e-05)
(0 -1.245265535e-05 -7.208970633e-05)
(0 -1.277664554e-05 -7.49179499e-05)
(0 -1.310444722e-05 -7.782242554e-05)
(0 -1.342462569e-05 -8.079551129e-05)
(0 -1.373336929e-05 -8.384101887e-05)
(0 -1.404973603e-05 -8.696657007e-05)
(0 -1.435085625e-05 -9.014548484e-05)
(0 -1.463291832e-05 -9.340444479e-05)
(0 -1.491879187e-05 -9.673201329e-05)
(0 -1.518560728e-05 -0.0001001167573)
(0 -1.543336444e-05 -0.0001035662991)
(0 -1.566206333e-05 -0.0001070730156)
(0 -1.588313894e-05 -0.0001106292836)
(0 -1.606609808e-05 -0.0001142389147)
(0 -1.62338106e-05 -0.0001178904738)
(0 -1.636721829e-05 -0.0001215763378)
(0 -1.647013281e-05 -0.00012530413)
(0 -1.653874247e-05 -0.0001290509804)
(0 -1.656542401e-05 -0.0001328092657)
(0 -1.654255413e-05 -0.0001365789861)
(0 -1.648156774e-05 -0.0001403487063)
(0 -1.636340661e-05 -0.0001441031797)
(0 -1.618807088e-05 -0.0001478233494)
(0 -1.595174859e-05 -0.0001515092125)
(0 -1.565825166e-05 -0.0001551455251)
(0 -1.528471021e-05 -0.0001587056057)
(0 -1.484637055e-05 -0.0001621818281)
(0 -1.433942131e-05 -0.0001655551369)
(0 -1.374480424e-05 -0.0001688102857)
(0 -1.307395404e-05 -0.0001719282131)
(0 -1.23306826e-05 -0.0001748860522)
(0 -1.149974331e-05 -0.0001776685566)
(0 -1.060400587e-05 -0.0001802490415)
(0 -9.624412229e-06 -0.0001826275101)
(0 -8.564774023e-06 -0.000184765846)
(0 -7.440337691e-06 -0.0001866564225)
(0 -6.24729174e-06 -0.0001882839964)
(0 -4.985636147e-06 -0.0001896333211)
(0 -3.674429065e-06 -0.0001906815232)
(0 -2.29842399e-06 -0.0001914247947)
(0 -8.690558421e-07 -0.0001918440771)
(0 5.984288e-07 -0.0001919431789)
(0 2.111653218e-06 -0.0001916992334)
(0 3.647747548e-06 -0.0001911046174)
(0 5.237204912e-06 -0.0001901517041)
(0 6.841908891e-06 -0.0001888366854)
(0 8.480917758e-06 -0.0001871557496)
(0 1.013136147e-05 -0.0001850936467)
(0 1.180086347e-05 -0.0001826580033)
(0 1.346274226e-05 -0.0001798411962)
(0 1.514367912e-05 -0.0001766355989)
(0 1.682461607e-05 -0.0001730450261)
(0 1.847887159e-05 -0.0001690809127)
(0 2.013312689e-05 -0.0001647280092)
(0 2.175307746e-05 -0.0001600015652)
(0 2.334634664e-05 -0.0001548977689)
(0 2.490912234e-05 -0.0001494432991)
(0 2.641853511e-05 -0.0001436267236)
(0 2.788220827e-05 -0.0001374747239)
(0 2.930395296e-05 -0.0001309911092)
(0 3.06456532e-05 -0.0001241911284)
(0 3.193399055e-05 -0.0001170900281)
(0 3.316134115e-05 -0.0001097068645)
(0 3.430483567e-05 -0.0001020454512)
(0 3.538353238e-05 -9.413628128e-05)
(0 3.638980735e-05 -8.598697642e-05)
(0 3.731222626e-05 -7.762040817e-05)
(0 3.815841244e-05 -6.904801132e-05)
(0 3.893217683e-05 -6.030027781e-05)
(0 3.961827355e-05 -5.138483218e-05)
(0 4.021289094e-05 -4.232073252e-05)
(0 4.073508653e-05 -3.313084796e-05)
(0 4.116961445e-05 -2.384186079e-05)
(0 4.150503976e-05 -1.44575825e-05)
(0 2.083065855e-05 -5.008506007e-06)
(0 -1.295960381e-07 -1.467865714e-05)
(0 -3.849764684e-07 -1.4724397e-05)
(0 -6.479801904e-07 -1.481587647e-05)
(0 -9.071722666e-07 -1.495690745e-05)
(0 -1.16636435e-06 -1.514748995e-05)
(0 -1.436991363e-06 -1.538381205e-05)
(0 -1.699995088e-06 -1.567349731e-05)
(0 -1.962998824e-06 -1.60051108e-05)
(0 -2.229814185e-06 -1.638627552e-05)
(0 -2.504252853e-06 -1.682080341e-05)
(0 -2.782503187e-06 -1.730488284e-05)
(0 -3.060753488e-06 -1.783089018e-05)
(0 -3.350438749e-06 -1.8417884e-05)
(0 -3.628689088e-06 -1.905061771e-05)
(0 -3.922185976e-06 -1.974433757e-05)
(0 -4.219494534e-06 -2.048760896e-05)
(0 -4.512991471e-06 -2.128043191e-05)
(0 -4.825546594e-06 -2.213424097e-05)
(0 -5.1266668e-06 -2.304141324e-05)
(0 -5.439221984e-06 -2.400576037e-05)
(0 -5.763212046e-06 -2.503109359e-05)
(0 -6.083390493e-06 -2.611360167e-05)
(0 -6.411192275e-06 -2.725709629e-05)
(0 -6.746617276e-06 -2.84653886e-05)
(0 -7.093477261e-06 -2.97232325e-05)
(0 -7.432713993e-06 -3.10534979e-05)
(0 -7.791008877e-06 -3.244856095e-05)
(0 -8.145492158e-06 -3.39007989e-05)
(0 -8.503787138e-06 -3.542545839e-05)
(0 -8.877328608e-06 -3.701110382e-05)
(0 -9.254681778e-06 -3.866917077e-05)
(0 -9.632035006e-06 -4.040347094e-05)
(0 -1.001319977e-05 -4.219875699e-05)
(0 -1.039817623e-05 -4.407408789e-05)
(0 -1.079077606e-05 -4.601802874e-05)
(0 -1.11871874e-05 -4.803439035e-05)
(0 -1.159122211e-05 -5.01193619e-05)
(0 -1.199144524e-05 -5.228056673e-05)
(0 -1.239166823e-05 -5.45180039e-05)
(0 -1.279570294e-05 -5.683167435e-05)
(0 -1.320736102e-05 -5.921776646e-05)
(0 -1.361901894e-05 -6.168390248e-05)
(0 -1.403067695e-05 -6.422627181e-05)
(0 -1.444233504e-05 -6.683725122e-05)
(0 -1.484636966e-05 -6.953208608e-05)
(0 -1.524659272e-05 -7.23031543e-05)
(0 -1.565062752e-05 -7.51466443e-05)
(0 -1.605847378e-05 -7.8070178e-05)
(0 -1.644345024e-05 -8.106613347e-05)
(0 -1.682842681e-05 -8.413451076e-05)
(0 -1.721340318e-05 -8.727530835e-05)
(0 -1.75793214e-05 -9.048852776e-05)
(0 -1.794142809e-05 -9.377416906e-05)
(0 -1.828828796e-05 -9.712841889e-05)
(0 -1.861227809e-05 -0.0001005398442)
(0 -1.892483325e-05 -0.000104019879)
(0 -1.92145185e-05 -0.0001075647118)
(0 -1.948133388e-05 -0.000111159096)
(0 -1.971384443e-05 -0.0001148030318)
(0 -1.992348507e-05 -0.0001185003304)
(0 -2.009500923e-05 -0.0001222357457)
(0 -2.022841693e-05 -0.0001260092774)
(0 -2.031608483e-05 -0.0001298094906)
(0 -2.036182461e-05 -0.0001336363854)
(0 -2.034657803e-05 -0.0001374670919)
(0 -2.02741567e-05 -0.0001413016099)
(0 -2.013693733e-05 -0.0001451285044)
(0 -1.992348515e-05 -0.0001489325302)
(0 -1.965285801e-05 -0.0001526984377)
(0 -1.929456308e-05 -0.0001564186063)
(0 -1.884097706e-05 -0.0001600663546)
(0 -1.83149695e-05 -0.000163637868)
(0 -1.769748249e-05 -0.0001671064678)
(0 -1.696945779e-05 -0.0001704530959)
(0 -1.615757663e-05 -0.0001736663143)
(0 -1.523896942e-05 -0.0001767194445)
(0 -1.422888274e-05 -0.00017959724)
(0 -1.312731633e-05 -0.0001822806392)
(0 -1.191521221e-05 -0.0001847391523)
(0 -1.061544024e-05 -0.0001869651559)
(0 -9.239435185e-06 -0.0001889357769)
(0 -7.76432734e-06 -0.000190635772)
(0 -6.212986569e-06 -0.0001920537063)
(0 -4.593036055e-06 -0.0001931628948)
(0 -2.904475912e-06 -0.0001939709642)
(0 -1.151117757e-06 -0.0001944436097)
(0 6.479801904e-07 -0.0001945808279)
(0 2.515687798e-06 -0.0001943749989)
(0 4.413888618e-06 -0.0001938070645)
(0 6.36164081e-06 -0.0001928808328)
(0 8.332262919e-06 -0.0001915848724)
(0 1.034100157e-05 -0.0001899191833)
(0 1.238023328e-05 -0.0001878723271)
(0 1.442708836e-05 -0.0001854328722)
(0 1.648537847e-05 -0.0001826046304)
(0 1.855129169e-05 -0.0001793799749)
(0 2.061339335e-05 -0.0001757703441)
(0 2.266024856e-05 -0.0001717643029)
(0 2.46918569e-05 -0.0001673732832)
(0 2.66929722e-05 -0.0001625934764)
(0 2.865597118e-05 -0.0001574325057)
(0 3.057323004e-05 -0.0001519018032)
(0 3.244093765e-05 -0.0001460128068)
(0 3.424384744e-05 -0.0001397731396)
(0 3.598577046e-05 -0.000133194234)
(0 3.764383741e-05 -0.0001262951508)
(0 3.922567164e-05 -0.0001190873248)
(0 4.072746079e-05 -0.0001115898121)
(0 4.214920556e-05 -0.0001038178614)
(0 4.346422444e-05 -9.578290766e-05)
(0 4.470300984e-05 -8.751163054e-05)
(0 4.5838881e-05 -7.901546675e-05)
(0 4.687946123e-05 -7.032109767e-05)
(0 4.78247497e-05 -6.143614535e-05)
(0 4.866712395e-05 -5.239491587e-05)
(0 4.939896069e-05 -4.319359742e-05)
(0 5.003550564e-05 -3.387411736e-05)
(0 5.056532474e-05 -2.444028812e-05)
(0 5.098841799e-05 -1.491879106e-05)
(0 2.559140587e-05 -5.321060858e-06)
(0 -1.524659272e-07 -1.467103384e-05)
(0 -4.53586136e-07 -1.471677371e-05)
(0 -7.623296358e-07 -1.480825317e-05)
(0 -1.078696435e-06 -1.495309581e-05)
(0 -1.383628297e-06 -1.514748995e-05)
(0 -1.69618344e-06 -1.538381205e-05)
(0 -2.00873859e-06 -1.566587401e-05)
(0 -2.321293755e-06 -1.600129915e-05)
(0 -2.645283836e-06 -1.639008717e-05)
(0 -2.961650635e-06 -1.682461506e-05)
(0 -3.281829102e-06 -1.730107119e-05)
(0 -3.624877418e-06 -1.784232512e-05)
(0 -3.95649081e-06 -1.842169565e-05)
(0 -4.295727523e-06 -1.906205266e-05)
(0 -4.642587482e-06 -1.975196086e-05)
(0 -4.985635818e-06 -2.049523226e-05)
(0 -5.336307482e-06 -2.128805521e-05)
(0 -5.698414027e-06 -2.214186427e-05)
(0 -6.068143901e-06 -2.305284819e-05)
(0 -6.437873813e-06 -2.402481862e-05)
(0 -6.819038592e-06 -2.504634018e-05)
(0 -7.196391762e-06 -2.613647156e-05)
(0 -7.585179921e-06 -2.727996618e-05)
(0 -7.989214583e-06 -2.848444684e-05)
(0 -8.385625993e-06 -2.975753733e-05)
(0 -8.797284049e-06 -3.109161438e-05)
(0 -9.216565296e-06 -3.248667743e-05)
(0 -9.632034948e-06 -3.394653868e-05)
(0 -1.00665629e-05 -3.547882146e-05)
(0 -1.050490238e-05 -3.707590184e-05)
(0 -1.095086522e-05 -3.874159209e-05)
(0 -1.140063977e-05 -4.04797039e-05)
(0 -1.185422584e-05 -4.22864249e-05)
(0 -1.231162362e-05 -4.415794415e-05)
(0 -1.277283312e-05 -4.611331994e-05)
(0 -1.324166577e-05 -4.813730485e-05)
(0 -1.37181218e-05 -5.0237523e-05)
(0 -1.41945779e-05 -5.241016277e-05)
(0 -1.467484549e-05 -5.465903488e-05)
(0 -1.515892481e-05 -5.698414027e-05)
(0 -1.563919257e-05 -5.938547898e-05)
(0 -1.613089509e-05 -6.186686159e-05)
(0 -1.661116276e-05 -6.442447752e-05)
(0 -1.710286548e-05 -6.705832681e-05)
(0 -1.75869447e-05 -6.976459662e-05)
(0 -1.807102402e-05 -7.255853473e-05)
(0 -1.85436685e-05 -7.542489461e-05)
(0 -1.902393606e-05 -7.836367491e-05)
(0 -1.948514549e-05 -8.137868862e-05)
(0 -1.994254339e-05 -8.447755909e-05)
(0 -2.04037527e-05 -8.764122657e-05)
(0 -2.084590389e-05 -9.088875082e-05)
(0 -2.127280861e-05 -9.420107366e-05)
(0 -2.168827814e-05 -9.758581667e-05)
(0 -2.207706629e-05 -0.0001010391701)
(0 -2.245441948e-05 -0.0001045535098)
(0 -2.27974678e-05 -0.000108136459)
(0 -2.312526954e-05 -0.000111776583)
(0 -2.341114317e-05 -0.0001154776935)
(0 -2.366271194e-05 -0.000119220732)