/*--------------------------------*- C++ -*----------------------------------*\
  =========                 |
  \\      /  F ield         | OpenFOAM: The Open Source CFD Toolbox
   \\    /   O peration     | Website:  https://openfoam.org
    \\  /    A nd           | Version:  6
     \\/     M anipulation  |
\*---------------------------------------------------------------------------*/
FoamFile
{
    version     2.0;
    format      ascii;
    class       volScalarField;
    location    "0.0007";
    object      TRHS;
}
// * * * * * * * * * * * * * * * * * * * * * * * * * * * * * * * * * * * * * //

dimensions      [1 -1 -3 0 0 0 0];

internalField   nonuniform List<scalar> 
9600
(
2.777602367e-09
5.648589394e-09
4.934791802e-09
4.488422085e-09
3.887763242e-09
3.347836262e-09
2.870452023e-09
2.457748294e-09
2.106702989e-09
1.816022234e-09
1.57952618e-09
1.393470903e-09
1.249932977e-09
1.144240769e-09
1.068175855e-09
1.017425166e-09
9.845685842e-10
9.666643679e-10
9.579426147e-10
9.573209473e-10
9.605668371e-10
9.678197365e-10
9.754968013e-10
9.841928327e-10
9.90746964e-10
9.966354444e-10
9.997853242e-10
1.002860035e-09
1.004439911e-09
1.007241888e-09
1.009202e-09
1.012404631e-09
1.014403536e-09
1.017673731e-09
1.0205233e-09
1.026292762e-09
1.033472032e-09
1.044942994e-09
1.058038617e-09
1.074560726e-09
1.091043579e-09
1.109374431e-09
1.126748618e-09
1.14630273e-09
1.16639762e-09
1.191251581e-09
1.219585584e-09
1.255459167e-09
1.296550035e-09
1.345547721e-09
1.398467687e-09
1.456958455e-09
1.516653734e-09
1.579974065e-09
1.643622017e-09
1.710988315e-09
1.778357538e-09
1.847508707e-09
1.91196478e-09
1.971326432e-09
2.018192495e-09
2.053489257e-09
2.072132534e-09
2.077463934e-09
2.064989256e-09
2.037086201e-09
1.987139272e-09
1.916567331e-09
1.819719522e-09
1.701609473e-09
1.560894067e-09
1.406214455e-09
1.237094836e-09
1.060682663e-09
8.733699727e-10
6.79973132e-10
4.763435872e-10
2.692936607e-10
5.771640688e-11
-1.488870922e-10
-3.512297724e-10
-5.42132242e-10
-7.270714345e-10
-9.043526535e-10
-1.083956268e-09
-1.266092229e-09
-1.459629436e-09
-1.661362381e-09
-1.87600835e-09
-2.097346898e-09
-2.329092611e-09
-2.566269231e-09
-2.814830097e-09
-3.072371457e-09
-3.346978982e-09
-3.639060018e-09
-3.961202464e-09
-4.322191629e-09
-4.748030073e-09
-5.26862598e-09
-5.941244974e-09
-6.843167756e-09
-8.099412057e-09
-9.880408577e-09
-1.242785648e-08
-1.604875539e-08
-2.113489246e-08
-2.815680925e-08
-3.768595628e-08
-5.039001548e-08
-6.704267639e-08
-8.850056825e-08
-1.156843383e-07
-1.495342419e-07
-1.909378083e-07
-2.40661589e-07
-2.995213216e-07
-3.727689169e-07
-4.797389027e-07
-2.897391043e-07
2.720151805e-09
5.536538975e-09
4.934675572e-09
4.472458504e-09
3.881000606e-09
3.341493429e-09
2.86730562e-09
2.453495663e-09
2.105249379e-09
1.813305321e-09
1.579667578e-09
1.39232439e-09
1.251678123e-09
1.144620532e-09
1.071446292e-09
1.019185865e-09
9.892145266e-10
9.697666355e-10
9.640649364e-10
9.619126032e-10
9.683227477e-10
9.739986752e-10
9.848773486e-10
9.919257993e-10
1.001861619e-09
1.006290861e-09
1.013241825e-09
1.015130118e-09
1.020769372e-09
1.022296649e-09
1.028239635e-09
1.029900946e-09
1.035910692e-09
1.037679444e-09
1.044810711e-09
1.049036161e-09
1.060282831e-09
1.069395963e-09
1.085600294e-09
1.098487577e-09
1.117143689e-09
1.131033457e-09
1.150307986e-09
1.165122788e-09
1.186975306e-09
1.206381425e-09
1.235471624e-09
1.264121287e-09
1.304020498e-09
1.343459879e-09
1.393281041e-09
1.440486311e-09
1.496191967e-09
1.547581109e-09
1.607165859e-09
1.662256855e-09
1.725324733e-09
1.781489307e-09
1.841315827e-09
1.887568984e-09
1.930887578e-09
1.954931084e-09
1.973107696e-09
1.970516102e-09
1.961338024e-09
1.928903713e-09
1.885892713e-09
1.814318235e-09
1.728488175e-09
1.613341423e-09
1.487480458e-09
1.33836956e-09
1.185366243e-09
1.013960243e-09
8.410989495e-10
6.503475802e-10
4.590547475e-10
2.528941927e-10
5.22158284e-11
-1.552562973e-10
-3.493308705e-10
-5.447690988e-10
-7.258200351e-10
-9.116714515e-10
-1.090176796e-09
-1.281355681e-09
-1.472057239e-09
-1.678937629e-09
-1.886015135e-09
-2.107308709e-09
-2.327097823e-09
-2.560173097e-09
-2.793650743e-09
-3.043934696e-09
-3.301057425e-09
-3.583552375e-09
-3.887258245e-09
-4.238346072e-09
-4.647146065e-09
-5.159374078e-09
-5.817260657e-09
-6.711798731e-09
-7.953968869e-09
-9.726400077e-09
-1.22581606e-08
-1.586691503e-08
-2.09325597e-08
-2.793429471e-08
-3.743350695e-08
-5.010636704e-08
-6.672021969e-08
-8.813964095e-08
-1.152869559e-07
-1.491101082e-07
-1.90518324e-07
-2.40286711e-07
-2.993727753e-07
-3.728697483e-07
-4.835876079e-07
-2.928558359e-07
2.707232353e-09
5.508917629e-09
4.906584588e-09
4.456026419e-09
3.868159968e-09
3.334478019e-09
2.860085861e-09
2.450109152e-09
2.10055614e-09
1.812009494e-09
1.576734982e-09
1.392678506e-09
1.250193739e-09
1.146293625e-09
1.071004064e-09
1.021781457e-09
9.895123062e-10
9.731519041e-10
9.651379558e-10
9.662473356e-10
9.702748806e-10
9.791930995e-10
9.874593485e-10
9.977460156e-10
1.005109411e-09
1.013223252e-09
1.018011573e-09
1.02408346e-09
1.027622246e-09
1.033245256e-09
1.036631686e-09
1.042214451e-09
1.045562423e-09
1.051649816e-09
1.056402991e-09
1.065181912e-09
1.073526717e-09
1.086277705e-09
1.098046932e-09
1.113308801e-09
1.126470676e-09
1.14260586e-09
1.156666463e-09
1.174627077e-09
1.191816049e-09
1.21469074e-09
1.238405793e-09
1.269328381e-09
1.301877958e-09
1.341867348e-09
1.382737673e-09
1.429983607e-09
1.476742972e-09
1.529084184e-09
1.580381744e-09
1.636971108e-09
1.6911748e-09
1.747926257e-09
1.797432462e-09
1.843668343e-09
1.876751513e-09
1.902348969e-09
1.912269367e-09
1.913649405e-09
1.897868383e-09
1.8708449e-09
1.822155075e-09
1.7575544e-09
1.667957651e-09
1.562379374e-09
1.434801636e-09
1.29635408e-09
1.140832046e-09
9.779300428e-10
7.996096963e-10
6.151221725e-10
4.175660781e-10
2.186248314e-10
1.361662166e-11
-1.849770302e-10
-3.83083105e-10
-5.712606859e-10
-7.591560309e-10
-9.407567081e-10
-1.127581341e-09
-1.314042714e-09
-1.510243765e-09
-1.70872895e-09
-1.917423579e-09
-2.127984789e-09
-2.348056075e-09
-2.570539718e-09
-2.804133195e-09
-3.043590322e-09
-3.299186904e-09
-3.569275149e-09
-3.869239577e-09
-4.206970243e-09
-4.611120887e-09
-5.110355403e-09
-5.763191076e-09
-6.644852587e-09
-7.880931084e-09
-9.640307027e-09
-1.216553278e-08
-1.57623828e-08
-2.082230584e-08
-2.781411899e-08
-3.730933917e-08
-4.997778005e-08
-6.659770751e-08
-8.803344903e-08
-1.152199355e-07
-1.491179894e-07
-1.906564948e-07
-2.406678052e-07
-3.001390785e-07
-3.743466155e-07
-4.863560092e-07
-2.946897615e-07
2.697504953e-09
5.48591894e-09
4.88674292e-09
4.438816992e-09
3.856369272e-09
3.324531419e-09
2.853817264e-09
2.444147986e-09
2.097357117e-09
1.808490934e-09
1.575630774e-09
1.390918638e-09
1.250594665e-09
1.145719201e-09
1.072321066e-09
1.021834002e-09
9.913442893e-10
9.736450956e-10
9.675298925e-10
9.673120546e-10
9.732238026e-10
9.805991325e-10
9.905730084e-10
9.991986597e-10
1.008516529e-09
1.015390999e-09
1.022763131e-09
1.027962748e-09
1.034188387e-09
1.038582951e-09
1.044272032e-09
1.048287765e-09
1.054094646e-09
1.058969083e-09
1.066647364e-09
1.074138759e-09
1.084764416e-09
1.094796231e-09
1.107236166e-09
1.11826007e-09
1.131414554e-09
1.143398874e-09
1.15844842e-09
1.173427024e-09
1.192699714e-09
1.212840213e-09
1.238133297e-09
1.264867911e-09
1.297327109e-09
1.331470358e-09
1.371464099e-09
1.412860696e-09
1.459799135e-09
1.507570698e-09
1.560269697e-09
1.612469394e-09
1.667382091e-09
1.718073951e-09
1.766775491e-09
1.806006498e-09
1.838793802e-09
1.85882376e-09
1.870537431e-09
1.867866425e-09
1.854686404e-09
1.82343225e-09
1.777161659e-09
1.708498662e-09
1.622498543e-09
1.514344532e-09
1.391550868e-09
1.25020794e-09
1.097496303e-09
9.283771776e-10
7.496347203e-10
5.570771213e-10
3.596167188e-10
1.55237911e-10
-4.606861498e-11
-2.471149756e-10
-4.404050462e-10
-6.319208453e-10
-8.170961422e-10
-1.003641533e-09
-1.187717052e-09
-1.376739115e-09
-1.56640468e-09
-1.763350066e-09
-1.962928235e-09
-2.171210972e-09
-2.383490594e-09
-2.605493497e-09
-2.832831137e-09
-3.071655131e-09
-3.319706925e-09
-3.586624479e-09
-3.876874356e-09
-4.209468533e-09
-4.603067672e-09
-5.096334225e-09
-5.73830246e-09
-6.613131543e-09
-7.838262985e-09
-9.591334708e-09
-1.210847546e-08
-1.570373904e-08
-2.076313451e-08
-2.776275267e-08
-3.727082641e-08
-4.996564589e-08
-6.662683406e-08
-8.812956641e-08
-1.154173775e-07
-1.49465928e-07
-1.912332805e-07
-2.415577746e-07
-3.015269667e-07
-3.762847403e-07
-4.893766575e-07
-2.964342812e-07
2.690362315e-09
5.470709842e-09
4.869898217e-09
4.424428199e-09
3.8437991e-09
3.31529147e-09
2.845832248e-09
2.438750655e-09
2.092505513e-09
1.805695641e-09
1.572929963e-09
1.389935279e-09
1.249330339e-09
1.14579878e-09
1.071727127e-09
1.022308386e-09
9.909546764e-10
9.743376279e-10
9.673780119e-10
9.682809997e-10
9.732138536e-10
9.814866718e-10
9.902410374e-10
9.997669012e-10
1.008128888e-09
1.016502985e-09
1.023490427e-09
1.030584324e-09
1.036354224e-09
1.042309337e-09
1.047083793e-09
1.052529361e-09
1.057603577e-09
1.064390239e-09
1.071585201e-09
1.080756064e-09
1.089845973e-09
1.100000964e-09
1.10917955e-09
1.119156837e-09
1.128677325e-09
1.140283876e-09
1.152936009e-09
1.169000483e-09
1.186811932e-09
1.208262658e-09
1.231362141e-09
1.258186072e-09
1.287034862e-09
1.320393183e-09
1.356638045e-09
1.398150827e-09
1.442769305e-09
1.49225711e-09
1.543490693e-09
1.597281672e-09
1.649383428e-09
1.69987711e-09
1.744150685e-09
1.782744816e-09
1.811835984e-09
1.832917315e-09
1.842420012e-09
1.841433222e-09
1.825250812e-09
1.794076119e-09
1.743026933e-09
1.673512024e-09
1.582639968e-09
1.474033099e-09
1.346072592e-09
1.202593661e-09
1.041409746e-09
8.662135714e-10
6.758019471e-10
4.761728671e-10
2.687164817e-10
6.100202979e-11
-1.460099157e-10
-3.471395659e-10
-5.447392229e-10
-7.365473667e-10
-9.264637755e-10
-1.112599528e-09
-1.29858843e-09
-1.482704648e-09
-1.669315428e-09
-1.857844758e-09
-2.053242344e-09
-2.254745073e-09
-2.46589168e-09
-2.684257011e-09
-2.911952266e-09
-3.146758723e-09
-3.392884361e-09
-3.652978036e-09
-3.938471565e-09
-4.26233529e-09
-4.649606329e-09
-5.133024177e-09
-5.767199668e-09
-6.631187573e-09
-7.848256511e-09
-9.592620139e-09
-1.210668418e-08
-1.570227347e-08
-2.077136485e-08
-2.778894621e-08
-3.732980051e-08
-5.00744691e-08
-6.681191773e-08
-8.84244618e-08
-1.158675955e-07
-1.501324795e-07
-1.921849688e-07
-2.429086981e-07
-3.033260274e-07
-3.78800158e-07
-4.926299834e-07
-2.983796306e-07
2.684254077e-09
5.456671743e-09
4.85578111e-09
4.410725919e-09
3.832287401e-09
3.305352412e-09
2.838157606e-09
2.432293981e-09
2.087855229e-09
1.801814739e-09
1.570451891e-09
1.387798661e-09
1.248172239e-09
1.144540423e-09
1.071051361e-09
1.021211505e-09
9.902906153e-10
9.731892475e-10
9.666948102e-10
9.670532322e-10
9.722833511e-10
9.797654135e-10
9.886649318e-10
9.974784253e-10
1.006394041e-09
1.014622913e-09
1.022715486e-09
1.029898612e-09
1.036690456e-09
1.042391582e-09
1.047930835e-09
1.053113395e-09
1.059266634e-09
1.066112036e-09
1.074410316e-09
1.082994692e-09
1.091924246e-09
1.099878074e-09
1.107507771e-09
1.114546337e-09
1.122750136e-09
1.132402765e-09
1.145134131e-09
1.160417146e-09
1.178935362e-09
1.199435532e-09
1.22253731e-09
1.247463774e-09
1.275682096e-09
1.307110145e-09
1.343515128e-09
1.384448398e-09
1.430815978e-09
1.480872664e-09
1.534177785e-09
1.587737299e-09
1.640376431e-09
1.688932069e-09
1.73276172e-09
1.769518193e-09
1.799315182e-09
1.819892051e-09
1.830735196e-09
1.828361538e-09
1.8112049e-09
1.775445845e-09
1.720416286e-09
1.644081819e-09
1.54789572e-09
1.431261539e-09
1.296052545e-09
1.141247105e-09
9.684657719e-10
7.775891446e-10
5.727347516e-10
3.570851628e-10
1.374048722e-10
-8.255972617e-11
-2.979760614e-10
-5.086208298e-10
-7.131422002e-10
-9.132847903e-10
-1.107919228e-09
-1.29809055e-09
-1.482593732e-09
-1.663865858e-09
-1.843429459e-09
-2.026400336e-09
-2.215492314e-09
-2.414642232e-09
-2.623510896e-09
-2.842337522e-09
-3.06839937e-09
-3.301935216e-09
-3.543385754e-09
-3.798805855e-09
-4.076818862e-09
-4.393682796e-09
-4.77144853e-09
-5.245484607e-09
-5.867752891e-09
-6.720418875e-09
-7.925669909e-09
-9.661939805e-09
-1.217189432e-08
-1.577202495e-08
-2.085534435e-08
-2.790205388e-08
-3.749011004e-08
-5.030768156e-08
-6.715073653e-08
-8.891197237e-08
-1.165581737e-07
-1.510893636e-07
-1.934951114e-07
-2.446348365e-07
-3.056286279e-07
-3.816152432e-07
-4.96467543e-07
-3.006467057e-07
2.677757347e-09
5.443014252e-09
4.842080401e-09
4.397865886e-09
3.820731768e-09
3.295695753e-09
2.829990227e-09
2.425866217e-09
2.082593002e-09
1.797896228e-09
1.567283436e-09
1.38554424e-09
1.246194372e-09
1.143008948e-09
1.069368678e-09
1.019669449e-09
9.884163332e-10
9.714124945e-10
9.645344383e-10
9.648675541e-10
9.695080525e-10
9.7677093e-10
9.850140406e-10
9.938152204e-10
1.002519364e-09
1.011285681e-09
1.019580785e-09
1.027448337e-09
1.034306197e-09
1.040504596e-09
1.046028487e-09
1.05188596e-09
1.058304241e-09
1.065923177e-09
1.074088212e-09
1.082455087e-09
1.089835438e-09
1.096187948e-09
1.101374958e-09
1.10675359e-09
1.113224772e-09
1.122396557e-09
1.134505762e-09
1.149982814e-09
1.167897895e-09
1.188155138e-09
1.210078656e-09
1.234498504e-09
1.261826261e-09
1.293684484e-09
1.330574353e-09
1.373447407e-09
1.421471165e-09
1.473970292e-09
1.5285302e-09
1.583409977e-09
1.635870408e-09
1.684693232e-09
1.728122895e-09
1.765871671e-09
1.796372472e-09
1.818571451e-09
1.829353938e-09
1.826123515e-09
1.804974616e-09
1.763875945e-09
1.700657221e-09
1.615605987e-09
1.508405165e-09
1.380106216e-09
1.23001277e-09
1.058545638e-09
8.653426749e-10
6.529886052e-10
4.248536876e-10
1.873875572e-10
-5.383702424e-11
-2.92977903e-10
-5.275204987e-10
-7.555026852e-10
-9.771660546e-10
-1.191203676e-09
-1.396928072e-09
-1.592322904e-09
-1.777907513e-09
-1.955300633e-09
-2.12988e-09
-2.307047467e-09
-2.492851662e-09
-2.689790831e-09
-2.898567653e-09
-3.1164096e-09
-3.341048754e-09
-3.570469301e-09
-3.806662483e-09
-4.054494943e-09
-4.324276671e-09
-4.630701272e-09
-4.996803844e-09
-5.45635935e-09
-6.062834756e-09
-6.898337644e-09
-8.088072948e-09
-9.812027004e-09
-1.231681261e-08
-1.592124212e-08
-2.102297098e-08
-2.810597768e-08
-3.775482042e-08
-5.066450505e-08
-6.764044947e-08
-8.958535651e-08
-1.174759554e-07
-1.523270067e-07
-1.951245221e-07
-2.46774065e-07
-3.082914067e-07
-3.851261217e-07
-5.008539328e-07
-3.033044401e-07
2.670906668e-09
5.428495299e-09
4.828336073e-09
4.384828955e-09
3.80927602e-09
3.285767038e-09
2.821752012e-09
2.419034458e-09
2.077181034e-09
1.793525e-09
1.56390391e-09
1.382732316e-09
1.243877452e-09
1.140761118e-09
1.067202236e-09
1.0172704e-09
9.859339421e-10
9.685900314e-10
9.615011801e-10
9.613215948e-10
9.65547352e-10
9.721622863e-10
9.800720433e-10
9.885228272e-10
9.973600909e-10
1.006226405e-09
1.014916831e-09
1.022921547e-09
1.030102683e-09
1.036400659e-09
1.042416585e-09
1.048634353e-09
1.055689208e-09
1.063420557e-09
1.071401995e-09
1.07860312e-09
1.08443767e-09
1.088656833e-09
1.092093661e-09
1.095909559e-09
1.101702302e-09
1.110362023e-09
1.122383489e-09
1.137280689e-09
1.154590282e-09
1.17370085e-09
1.194893036e-09
1.218739066e-09
1.246602721e-09
1.279543456e-09
1.318599666e-09
1.363746812e-09
1.4144363e-09
1.468932311e-09
1.525289017e-09
1.581051596e-09
1.634454697e-09
1.683948803e-09
1.728874472e-09
1.768223147e-09
1.80079607e-09
1.823945019e-09
1.83441326e-09
1.828013933e-09
1.801327232e-09
1.751534832e-09
1.677641025e-09
1.579248119e-09
1.456825937e-09
1.310038911e-09
1.138520139e-09
9.414730057e-10
7.197379668e-10
4.759118945e-10
2.15457664e-10
-5.507497919e-11
-3.28790604e-10
-6.007330521e-10
-8.674701775e-10
-1.127268263e-09
-1.377985166e-09
-1.61705727e-09
-1.840995644e-09
-2.047691266e-09
-2.237375448e-09
-2.414469634e-09
-2.586028823e-09
-2.760487064e-09
-2.944127763e-09
-3.140049654e-09
-3.347104141e-09
-3.562103863e-09
-3.781294699e-09
-4.00336615e-09
-4.229968974e-09
-4.466915072e-09
-4.723670143e-09
-5.014870639e-09
-5.362239003e-09
-5.799908709e-09
-6.381588651e-09
-7.191715255e-09
-8.357722134e-09
-1.006320136e-08
-1.255781464e-08
-1.616463684e-08
-2.128545498e-08
-2.841029085e-08
-3.813042339e-08
-5.114960022e-08
-6.828279354e-08
-9.044308374e-08
-1.186192642e-07
-1.538319561e-07
-1.970918565e-07
-2.492667213e-07
-3.114999855e-07
-3.889659096e-07
-5.060301278e-07
-3.063870416e-07
2.663395204e-09
5.412969029e-09
4.813863987e-09
4.371392342e-09
3.797418523e-09
3.27561134e-09
2.813175284e-09
2.411981432e-09
2.071405151e-09
1.788897099e-09
1.560107968e-09
1.379573383e-09
1.241013761e-09
1.138050081e-09
1.064381262e-09
1.014317082e-09
9.82671416e-10
9.650269062e-10
9.574471718e-10
9.567494002e-10
9.603151473e-10
9.663875718e-10
9.738186934e-10
9.821196306e-10
9.909008216e-10
9.999200909e-10
1.008677378e-09
1.016834514e-09
1.024100079e-09
1.03073598e-09
1.037153384e-09
1.043975987e-09
1.051346559e-09
1.059017719e-09
1.0661178e-09
1.071863437e-09
1.075724136e-09
1.078119683e-09
1.080071569e-09
1.083161265e-09
1.088604516e-09
1.09716877e-09
1.108690592e-09
1.122728287e-09
1.138668698e-09
1.156569137e-09
1.176949928e-09
1.20106085e-09
1.230114205e-09
1.265268008e-09
1.306900144e-09
1.354811259e-09
1.407814914e-09
1.464264993e-09
1.521968982e-09
1.578995706e-09
1.63364284e-09
1.684955029e-09
1.732021023e-09
1.773790608e-09
1.808015398e-09
1.831429861e-09
1.839568214e-09
1.828022126e-09
1.792819354e-09
1.731578314e-09
1.643022362e-09
1.527006854e-09
1.383157851e-09
1.210825037e-09
1.008673855e-09
7.760979997e-10
5.14097104e-10
2.265549568e-10
-8.036589975e-11
-3.991860326e-10
-7.231123013e-10
-1.046708716e-09
-1.36603873e-09
-1.677171448e-09
-1.975400375e-09
-2.254743758e-09
-2.50972218e-09
-2.737255688e-09
-2.939133335e-09
-3.121909616e-09
-3.295676695e-09
-3.470372658e-09
-3.653160739e-09
-3.846271035e-09
-4.04794539e-09
-4.254121882e-09
-4.461551436e-09
-4.669288155e-09
-4.879830616e-09
-5.098610186e-09
-5.334407243e-09
-5.600367509e-09
-5.917542729e-09
-6.320153415e-09
-6.863723409e-09
-7.635325125e-09
-8.765955754e-09
-1.044275875e-08
-1.291942067e-08
-1.652326161e-08
-2.166157615e-08
-2.883091872e-08
-3.863078141e-08
-5.17741729e-08
-6.908637984e-08
-9.149177172e-08
-1.199889028e-07
-1.556147286e-07
-1.993730868e-07
-2.521894055e-07
-3.150788897e-07
-3.936276342e-07
-5.118520003e-07
-3.099274719e-07
2.655207129e-09
5.396050418e-09
4.798443674e-09
4.357184288e-09
3.785028294e-09
3.264973577e-09
2.804238803e-09
2.404551519e-09
2.0653317e-09
1.783911184e-09
1.555973843e-09
1.375971486e-09
1.237725182e-09
1.134803312e-09
1.061052896e-09
1.010745495e-09
9.787956124e-10
9.606939835e-10
9.525617701e-10
9.511730803e-10
9.540615687e-10
9.595345621e-10
9.665996539e-10
9.746877084e-10
9.834535207e-10
9.924356202e-10
1.001198204e-09
1.009325761e-09
1.016746787e-09
1.023703863e-09
1.030675662e-09
1.03796231e-09
1.04547642e-09
1.052579315e-09
1.05842503e-09
1.062307428e-09
1.06427322e-09
1.065104374e-09
1.066237084e-09
1.069069851e-09
1.074576531e-09
1.08288113e-09
1.093587082e-09
1.106122456e-09
1.120397089e-09
1.136951577e-09
1.157000384e-09
1.181910803e-09
1.212904537e-09
1.25058332e-09
1.294925543e-09
1.345173732e-09
1.400059107e-09
1.457853804e-09
1.51673552e-09
1.574991701e-09
1.631346387e-09
1.684786547e-09
1.734261751e-09
1.777925248e-09
1.812784159e-09
1.834503421e-09
1.838096759e-09
1.818592741e-09
1.772063045e-09
1.695838935e-09
1.588541822e-09
1.449250796e-09
1.276850242e-09
1.06956591e-09
8.254765505e-10
5.437766791e-10
2.260815075e-10
-1.229222682e-10
-4.962853444e-10
-8.862405216e-10
-1.285719705e-09
-1.688597507e-09
-2.088872947e-09
-2.479293288e-09
-2.850737485e-09
-3.193243206e-09
-3.498535129e-09
-3.763150732e-09
-3.990182244e-09
-4.188900814e-09
-4.371641481e-09
-4.54990619e-09
-4.730899529e-09
-4.916576735e-09
-5.104839248e-09
-5.292407249e-09
-5.477213657e-09
-5.659787809e-09
-5.842950942e-09
-6.03138782e-09
-6.231978022e-09
-6.456227709e-09
-6.724550897e-09
-7.072459583e-09
-7.558318038e-09
-8.273118589e-09
-9.352008649e-09
-1.098618677e-08
-1.343350113e-08
-1.702613399e-08
-2.217743885e-08
-2.939154157e-08
-3.927685576e-08
-5.255643015e-08
-7.006651469e-08
-9.274265563e-08
-1.215972289e-07
-1.576737254e-07
-2.020066446e-07
-2.554764063e-07
-3.192614236e-07
-3.986168656e-07
-5.185664512e-07
-3.139394615e-07
2.646243503e-09
5.377667362e-09
4.781833524e-09
4.342011782e-09
3.771861349e-09
3.25375248e-09
2.794791422e-09
2.396716955e-09
2.058867947e-09
1.778556215e-09
1.551427485e-09
1.371970179e-09
1.233967786e-09
1.131091314e-09
1.057206271e-09
1.006659889e-09
9.743125944e-10
9.556839688e-10
9.468705281e-10
9.447425384e-10
9.46916954e-10
9.518365161e-10
9.585413305e-10
9.664632084e-10
9.751080117e-10
9.83996073e-10
9.926119162e-10
1.000698291e-09
1.00827713e-09
1.015651792e-09
1.023127132e-09
1.03074182e-09
1.038024624e-09
1.044168712e-09
1.048352197e-09
1.050325365e-09
1.050584706e-09
1.05040438e-09
1.05124528e-09
1.054273746e-09
1.059820527e-09
1.067570245e-09
1.076880185e-09
1.087519866e-09
1.099959142e-09
1.115481775e-09
1.1356631e-09
1.161931934e-09
1.195064867e-09
1.235144247e-09
1.281588768e-09
1.333415637e-09
1.389308343e-09
1.447803185e-09
1.507364359e-09
1.566628742e-09
1.624407334e-09
1.679574608e-09
1.730507397e-09
1.77463071e-09
1.80800247e-09
1.825621008e-09
1.821914302e-09
1.79169634e-09
1.730675035e-09
1.635772013e-09
1.504720983e-09
1.335387503e-09
1.125158253e-09
8.708033321e-10
5.695356286e-10
2.203191469e-10
-1.74642328e-10
-6.100496032e-10
-1.078399705e-09
-1.571766113e-09
-2.082456792e-09
-2.602633031e-09
-3.122797442e-09
-3.630590553e-09
-4.111109622e-09
-4.549244343e-09
-4.933474437e-09
-5.259367204e-09
-5.531141536e-09
-5.760023605e-09
-5.960316981e-09
-6.144480311e-09
-6.320063213e-09
-6.489253309e-09
-6.651162976e-09
-6.804640413e-09
-6.950317576e-09
-7.090481947e-09
-7.228048709e-09
-7.365800787e-09
-7.508061462e-09
-7.664564788e-09
-7.856190171e-09
-8.1212861e-09
-8.522779894e-09
-9.156704366e-09
-1.016281473e-08
-1.173653252e-08
-1.413988993e-08
-1.771027693e-08
-2.286761697e-08
-3.012423173e-08
-4.009796618e-08
-5.35224611e-08
-7.124530065e-08
-9.421507646e-08
-1.234557614e-07
-1.600313145e-07
-2.04969601e-07
-2.592236871e-07
-3.238198398e-07
-4.045289978e-07
-5.259640007e-07
-3.184449049e-07
2.636456528e-09
5.357607615e-09
4.763867529e-09
4.325690219e-09
3.757782446e-09
3.241779935e-09
2.784749437e-09
2.388372879e-09
2.051958324e-09
1.772780434e-09
1.54648069e-09
1.367519031e-09
1.22976015e-09
1.12691201e-09
1.052895456e-09
1.002047439e-09
9.692794067e-10
9.500261351e-10
9.404789085e-10
9.375604682e-10
9.390417103e-10
9.434300842e-10
9.498229921e-10
9.5753925e-10
9.660252483e-10
9.746917356e-10
9.831449533e-10
9.911906711e-10
9.989802267e-10
1.006760457e-09
1.014639554e-09
1.022286488e-09
1.028954676e-09
1.033751811e-09
1.036147668e-09
1.036340457e-09
1.035375837e-09
1.0347275e-09
1.035757753e-09
1.039050707e-09
1.044400343e-09
1.05105855e-09
1.058526628e-09
1.067062189e-09
1.077902851e-09
1.09285202e-09
1.113678746e-09
1.141469307e-09
1.176469749e-09
1.21816729e-09
1.26565627e-09
1.317863001e-09
1.373661361e-09
1.431840152e-09
1.491163217e-09
1.550405994e-09
1.608369692e-09
1.663572402e-09
1.71384659e-09
1.755831083e-09
1.784933124e-09
1.795558624e-09
1.781798518e-09
1.738024747e-09
1.659303025e-09
1.541449828e-09
1.380506463e-09
1.172292258e-09
9.117984601e-10
5.939312981e-10
2.145611407e-10
-2.274393574e-10
-7.295503152e-10
-1.2857629e-09
-1.888281175e-09
-2.528653541e-09
-3.197915284e-09
-3.885191422e-09
-4.575915875e-09
-5.251080544e-09
-5.888604658e-09
-6.467054329e-09
-6.970398108e-09
-7.391925697e-09
-7.735490659e-09
-8.01332219e-09
-8.241049632e-09
-8.432262551e-09
-8.595444615e-09
-8.734319411e-09
-8.850782246e-09
-8.947709406e-09
-9.029650398e-09
-9.101143186e-09
-9.164516425e-09
-9.219799645e-09
-9.268182212e-09
-9.318414667e-09
-9.393744715e-09
-9.537813266e-09
-9.82012868e-09
-1.034283365e-08
-1.12505833e-08
-1.274262382e-08
-1.508499155e-08
-1.862006338e-08
-2.377455205e-08
-3.106908695e-08
-4.113126146e-08
-5.470549989e-08
-7.265185476e-08
-9.593208035e-08
-1.255875986e-07
-1.626917553e-07
-2.083113572e-07
-2.633483672e-07
-3.290298695e-07
-4.107354732e-07
-5.343154486e-07
-3.234442213e-07
2.625793869e-09
5.335807743e-09
4.744419917e-09
4.30809139e-09
3.742657202e-09
3.228954328e-09
2.774004942e-09
2.379438973e-09
2.044527707e-09
1.766541424e-09
1.541056206e-09
1.36261843e-09
1.225103355e-09
1.122284502e-09
1.048119132e-09
9.969744827e-10
9.636932345e-10
9.437868514e-10
9.334544146e-10
9.297478805e-10
9.305551504e-10
9.344704094e-10
9.405417155e-10
9.480435163e-10
9.562743652e-10
9.647059923e-10
9.729570129e-10
9.81014372e-10
9.890344731e-10
9.971754064e-10
1.005223488e-09
1.012553378e-09
1.018226941e-09
1.021467748e-09
1.022123553e-09
1.020937928e-09
1.019302734e-09
1.018747134e-09
1.020162238e-09
1.023575313e-09
1.028208923e-09
1.033263803e-09
1.038595352e-09
1.045190654e-09
1.054909809e-09
1.069862879e-09
1.091583699e-09
1.120648095e-09
1.156659675e-09
1.198703238e-09
1.245725648e-09
1.296768095e-09
1.350892098e-09
1.40710601e-09
1.464294817e-09
1.521292198e-09
1.576747598e-09
1.628894389e-09
1.675045949e-09
1.711355736e-09
1.732755294e-09
1.733319579e-09
1.70672208e-09
1.646555038e-09
1.546612113e-09
1.400538498e-09
1.201707713e-09
9.424793213e-10
6.147197269e-10
2.105373289e-10
-2.7543613e-10
-8.446238512e-10
-1.4938152e-09
-2.216370813e-09
-3.003807762e-09
-3.846617016e-09
-4.733520317e-09
-5.649404105e-09
-6.573465173e-09
-7.478934908e-09
-8.335484201e-09
-9.113804814e-09
-9.791009234e-09
-1.03550974e-08
-1.080676709e-08
-1.11576045e-08
-1.142439917e-08
-1.162280016e-08
-1.176338079e-08
-1.185285795e-08
-1.189750083e-08
-1.190596203e-08
-1.188808392e-08
-1.18513229e-08
-1.17971519e-08
-1.172207586e-08
-1.162426927e-08
-1.151323642e-08
-1.141787146e-08
-1.139063584e-08
-1.151007667e-08
-1.188539788e-08
-1.266573584e-08
-1.405327754e-08
-1.631699957e-08
-1.980365948e-08
-2.494610366e-08
-3.227295245e-08
-4.242119633e-08
-5.614658113e-08
-7.43221213e-08
-9.792575064e-08
-1.280141017e-07
-1.656868767e-07
-2.12005403e-07
-2.679607942e-07
-3.346027001e-07
-4.179395498e-07
-5.433411249e-07
-3.289458753e-07
2.614201674e-09
5.312099381e-09
4.7233467e-09
4.289083147e-09
3.726356733e-09
3.215168924e-09
2.762463853e-09
2.369842402e-09
2.036531036e-09
1.759762892e-09
1.535159442e-09
1.357237106e-09
1.219984642e-09
1.117211003e-09
1.04290276e-09
9.914153148e-10
9.576134683e-10
9.369957151e-10
9.258752372e-10
9.213955191e-10
9.215854334e-10
9.250466744e-10
9.308093484e-10
9.380191092e-10
9.459809198e-10
9.541266435e-10
9.622471144e-10
9.703487889e-10
9.785988804e-10
9.869214178e-10
9.948542978e-10
1.001485128e-09
1.005880883e-09
1.007526033e-09
1.006752392e-09
1.004731207e-09
1.003045141e-09
1.002909349e-09
1.004700771e-09
1.007788884e-09
1.011169536e-09
1.014228203e-09
1.017482992e-09
1.02259083e-09
1.031839568e-09
1.047209921e-09
1.069740201e-09
1.099298264e-09
1.134981729e-09
1.175634821e-09
1.22025513e-09
1.268014459e-09
1.318110173e-09
1.36958461e-09
1.421356051e-09
1.472205574e-09
1.520741251e-09
1.565007676e-09
1.602157911e-09
1.628156278e-09
1.637801035e-09
1.624944043e-09
1.582525156e-09
1.502812345e-09
1.377047875e-09
1.195600515e-09
9.473447963e-10
6.20144244e-10
2.013944023e-10
-3.196763457e-10
-9.498707406e-10
-1.690362655e-09
-2.536970591e-09
-3.481872991e-09
-4.515210172e-09
-5.625543476e-09
-6.79833627e-09
-8.013767507e-09
-9.244669645e-09
-1.04565963e-08
-1.161037345e-08
-1.266664587e-08
-1.359143095e-08
-1.436164817e-08
-1.496984651e-08
-1.542466348e-08
-1.574519371e-08
-1.595101729e-08
-1.605657436e-08
-1.607214572e-08
-1.600946419e-08
-1.588425803e-08
-1.571384247e-08
-1.551017978e-08
-1.527462493e-08
-1.499985168e-08
-1.46815188e-08
-1.433295409e-08
-1.399393595e-08
-1.373097296e-08
-1.363477918e-08
-1.38222765e-08
-1.444576806e-08
-1.570829885e-08
-1.787957578e-08
-2.130873714e-08
-2.643323298e-08
-3.378834574e-08
-4.402009012e-08
-5.789551328e-08
-7.630228857e-08
-1.002350443e-07
-1.307728322e-07
-1.690285474e-07
-2.161116473e-07
-2.729561658e-07
-3.408537191e-07
-4.253597136e-07
-5.5332716e-07
-3.349270822e-07
2.601619909e-09
5.286448668e-09
4.700567793e-09
4.268561137e-09
3.70879515e-09
3.200331184e-09
2.750055268e-09
2.35950857e-09
2.027900454e-09
1.752414327e-09
1.528708577e-09
1.351371354e-09
1.214402434e-09
1.111697323e-09
1.037240179e-09
9.854028262e-10
9.5104059e-10
9.29697546e-10
9.177901894e-10
9.126004703e-10
9.122018381e-10
9.152468405e-10
9.206648228e-10
9.275714394e-10
9.35207215e-10
9.431189114e-10
9.511231907e-10
9.593164085e-10
9.677024172e-10
9.760097555e-10
9.834646731e-10
9.890859943e-10
9.920587328e-10
9.922884181e-10
9.905559469e-10
9.883440529e-10
9.870746192e-10
9.875328778e-10
9.893945622e-10
9.91646704e-10
9.932945645e-10
9.942893822e-10
9.958450337e-10
1.000170664e-09
1.009548907e-09
1.02550119e-09
1.048266499e-09
1.077071746e-09
1.110615115e-09
1.147707526e-09
1.187400714e-09
1.228928953e-09
1.271401513e-09
1.313784431e-09
1.354910366e-09
1.393640651e-09
1.428673051e-09
1.458260928e-09
1.479790568e-09
1.489489546e-09
1.482362192e-09
1.451831479e-09
1.389721148e-09
1.285622861e-09
1.127081594e-09
8.991171353e-10
5.848001411e-10
1.65827375e-10
-3.752552559e-10
-1.052291155e-09
-1.872916532e-09
-2.837398655e-09
-3.939897624e-09
-5.170368345e-09
-6.516549021e-09
-7.96397853e-09
-9.494882569e-09
-1.108562571e-08
-1.270464008e-08
-1.431172323e-08
-1.585920753e-08
-1.729482038e-08
-1.856611954e-08
-1.96287716e-08
-2.045815451e-08
-2.105742389e-08
-2.14508738e-08
-2.166671356e-08
-2.172420588e-08
-2.163633551e-08
-2.141879391e-08
-2.109567731e-08
-2.069526018e-08
-2.023879516e-08
-1.973005942e-08
-1.915785319e-08
-1.851553236e-08
-1.782502042e-08
-1.714560523e-08
-1.656596818e-08
-1.619333766e-08
-1.61521052e-08
-1.659502818e-08
-1.772170292e-08
-1.979838664e-08
-2.317267158e-08
-2.828336821e-08
-3.567022838e-08
-4.598698827e-08
-6.001240579e-08
-7.864964775e-08
-1.029136565e-07
-1.339031083e-07
-1.727636191e-07
-2.206008052e-07
-2.784561816e-07
-3.474191867e-07
-4.338017863e-07
-5.638965389e-07
-3.413660935e-07
2.588012904e-09
5.258661216e-09