/*--------------------------------*- C++ -*----------------------------------*\
  =========                 |
  \\      /  F ield         | OpenFOAM: The Open Source CFD Toolbox
   \\    /   O peration     | Website:  https://openfoam.org
    \\  /    A nd           | Version:  6
     \\/     M anipulation  |
\*---------------------------------------------------------------------------*/
FoamFile
{
    version     2.0;
    format      ascii;
    class       surfaceScalarField;
    location    "0.003";
    object      phi;
}
// * * * * * * * * * * * * * * * * * * * * * * * * * * * * * * * * * * * * * //

dimensions      [0 3 -1 0 0 0 0];

internalField   nonuniform List<scalar> 
19000
(
-9.691932755e-20
8.834384031e-21
-9.697603406e-20
8.927252975e-21
-9.706788661e-20
9.125955648e-21
-9.719746294e-20
9.417243667e-21
-9.736177192e-20
9.785556842e-21
-9.756255319e-20
1.021552128e-20
-9.780334339e-20
1.069152908e-20
-9.808567648e-20
1.11984367e-20
-9.841242225e-20
1.172109003e-20
-9.878426241e-20
1.224505014e-20
-9.920313645e-20
1.27560603e-20
-9.966880845e-20
1.324073726e-20
-1.001824933e-19
1.368598108e-20
-1.007434942e-19
1.407963016e-20
-1.01352966e-19
1.44098344e-20
-1.02010548e-19
1.466571554e-20
-1.02718215e-19
1.483672829e-20
-1.034769477e-19
1.491331645e-20
-1.042907441e-19
1.488622642e-20
-1.051633991e-19
1.474712308e-20
-1.061026665e-19
1.44878649e-20
-1.071170431e-19
1.410113609e-20
-1.082199545e-19
1.357976453e-20
-1.094265156e-19
1.291740784e-20
-1.107578498e-19
1.210785678e-20
-1.12238045e-19
1.114563571e-20
-1.138987425e-19
1.002516067e-20
-1.15776181e-19
8.741249841e-21
-1.179156396e-19
7.288326439e-21
-1.203680756e-19
5.661111658e-21
-1.231941997e-19
3.853998703e-21
-1.264609644e-19
1.861737984e-21
-1.302457626e-19
-3.21475706e-22
-1.346328997e-19
-2.701702546e-21
-1.397172064e-19
-5.28636639e-21
-1.455992104e-19
-8.083761158e-21
-1.52387123e-19
-1.110371848e-20
-1.601906076e-19
-1.435674714e-20
-1.691216452e-19
-1.785460616e-20
-1.792868036e-19
-2.160936768e-20
-1.90785473e-19
-2.563344831e-20
-2.0369839e-19
-2.993734747e-20
-2.180819526e-19
-3.45277188e-20
-2.339538705e-19
-3.94028557e-20
-2.512859136e-19
-4.45483039e-20
-2.699887521e-19
-4.992932851e-20
-2.899036621e-19
-5.548248091e-20
-3.107863369e-19
-6.110302381e-20
-3.32299189e-19
-6.663148348e-20
-3.539999344e-19
-7.183837544e-20
-3.753440903e-19
-7.641355653e-20
-3.956865509e-19
-7.996281129e-20
-4.142946385e-19
-8.202301453e-20
-4.303514714e-19
-8.210496123e-20
-4.429552127e-19
-7.977990443e-20
-4.510859561e-19
-7.481167596e-20
-4.535563566e-19
-6.731989027e-20
-4.489821068e-19
-5.791108406e-20
-4.359251271e-19
-4.765527078e-20
-4.132999639e-19
-3.774163385e-20
-3.807553777e-19
-2.891808205e-20
-3.362975971e-19
-2.198436959e-20
-2.62582158e-19
-2.266982707e-20
-1.071461713e-19
-5.357457995e-20
1.959306708e-19
-1.00752203e-19
5.200369366e-19
-1.037718068e-19
-3.346285364e-20
7.097304534e-19
1.424621512e-20
-8.116922695e-20
1.648380949e-20
-1.59295223e-20
1.44672978e-20
2.145351505e-21
1.580327842e-20
9.307594953e-21
2.120006135e-20
1.243603808e-20
2.444207326e-20
1.147670365e-20
2.526655995e-20
8.98256696e-21
2.582267415e-20
6.764234096e-21
2.686175216e-20
4.836543827e-21
2.823050869e-20
2.751599576e-21
2.95139423e-20
1.960561282e-22
3.029403337e-20
-2.920712261e-21
3.022520706e-20
-6.507940965e-21
2.912836824e-20
-1.033205878e-20
2.703173885e-20
-1.409248917e-20
2.410986081e-20
-1.751414872e-20
2.060995122e-20
-2.040024821e-20
1.679268315e-20
-2.264848615e-20
1.288551333e-20
-2.424701863e-20
9.046033452e-21
-2.525538268e-20
5.35008324e-21
-2.577358337e-20
1.797070167e-21
-2.590907328e-20
-1.668078704e-21
-2.574849068e-20
-5.129917714e-21
-2.533906974e-20
-8.671945725e-21
-2.467932462e-20
-1.234918001e-20
-2.371965156e-20
-1.61602646e-20
-2.237180807e-20
-2.002920261e-20
-2.052848004e-20
-2.379810218e-20
-1.809132013e-20
-2.724326257e-20
-1.500438935e-20
-3.011050184e-20
-1.128418973e-20
-3.216526463e-20
-7.038144273e-21
-3.324891595e-20
-2.466887916e-21
-3.3353379e-20
2.152633384e-21
-3.267804752e-20
6.520577974e-21
-3.158969889e-20
1.040551791e-20
-3.052597909e-20
1.371891232e-20
-2.992223736e-20
1.65513106e-20
-2.995282958e-20
1.921148704e-20
-2.989252619e-20
2.213575772e-20
-2.762739868e-20
2.528952898e-20
-2.345250023e-20
2.683787926e-20
-2.356591931e-20
2.419677859e-20
-2.718354163e-20
1.735063338e-20
-2.653920468e-20
-7.115230914e-22
1.994099956e-20
-6.64222637e-20
-7.547162855e-19
7.234796361e-19
-8.797991324e-19
-7.082443996e-19
-7.920015061e-19
-1.903023762e-18
-5.232040097e-19
-2.686095665e-18
-1.925622827e-19
-2.814478206e-18
3.924469566e-20
-1.982442545e-18
1.860577142e-31
-9.574961146e-20
9.461455842e-21
-9.581599042e-20
9.56215974e-21
-9.592416314e-20
9.777031235e-21
-9.607711076e-20
1.009182238e-20
-9.627180336e-20
1.048957263e-20
-9.651033449e-20
1.095372234e-20
-9.679605695e-20
1.146723809e-20
-9.713078472e-20
1.201380711e-20
-9.751712491e-20
1.25768818e-20
-9.795597138e-20
1.314090581e-20
-9.84489401e-20
1.369028944e-20
-9.899597249e-20
1.421060563e-20
-9.959793903e-20
1.468749186e-20
-1.00254318e-19
1.510782696e-20
-1.009659018e-19
1.545859296e-20
-1.01732494e-19
1.572806071e-20
-1.025557026e-19
1.590464196e-20
-1.034367155e-19
1.59780678e-20
-1.043792553e-19
1.593819267e-20
-1.053874667e-19
1.577614097e-20
-1.064689794e-19
1.548307894e-20
-1.076327865e-19
1.505139014e-20
-1.088923306e-19
1.447349165e-20
-1.102634268e-19
1.374306042e-20
-1.117675531e-19
1.2853812e-20
-1.134300249e-19
1.18006394e-20
-1.152835083e-19
1.057825265e-20
-1.1736617e-19
9.182253616e-21
-1.197249336e-19
7.607834059e-21
-1.224132422e-19
5.851013569e-21
-1.254941112e-19
3.907436916e-21
-1.290379879e-19
1.773486441e-21
-1.331260066e-19
-5.553116576e-22
-1.37847665e-19
-3.083630943e-21
-1.43303152e-19
-5.818187165e-21
-1.495995042e-19
-8.767011498e-21
-1.568513609e-19
-1.194107588e-20
-1.651759372e-19
-1.535356223e-20
-1.746926524e-19
-1.902177662e-20
-1.85516187e-19
-2.296671179e-20
-1.97752791e-19
-2.721478228e-20
-2.114890385e-19
-3.179652557e-20
-2.267839361e-19
-3.67469086e-20
-2.436545878e-19
-4.210227542e-20
-2.620662026e-19
-4.789833631e-20
-2.819160307e-19
-5.416365441e-20
-3.030215195e-19
-6.091232542e-20
-3.251035022e-19
-6.813023741e-20
-3.477775472e-19
-7.575937074e-20
-3.705478978e-19
-8.367645008e-20
-3.928190691e-19
-9.16730644e-20
-4.139184588e-19
-9.943762022e-20
-4.331417127e-19
-1.065536266e-19
-4.498069958e-19
-1.125265061e-19
-4.633137442e-19
-1.168661461e-19
-4.731684666e-19
-1.192417944e-19
-4.789703426e-19
-1.197155206e-19
-4.804066994e-19
-1.189808525e-19
-4.775556212e-19
-1.183505312e-19
-4.723201161e-19
-1.188071304e-19
-4.725434843e-19
-1.180123803e-19
-4.984027493e-19
-1.039196051e-19
-5.798468776e-19
-5.141908324e-20
-7.473088423e-19
2.116633331e-20
-3.642554525e-19
-2.338885888e-19
-1.102074279e-19
5.564394987e-31
2.489500689e-19
3.505764257e-19
7.948592034e-20
8.829833342e-20
3.455868334e-20
2.900103268e-20
2.162954139e-20
1.507794186e-20
1.893172158e-20
1.20088163e-20
2.024072705e-20
1.113045378e-20
2.194793677e-20
9.772788788e-21
2.304822718e-20
7.885729625e-21
2.389498405e-20
5.921075272e-21
2.477680809e-20
3.958790297e-21
2.567496539e-20
1.857718341e-21
2.63971741e-20
-5.215776271e-22
2.670680481e-20
-3.225910509e-21
2.640108947e-20
-6.197741791e-21
2.536793803e-20
-9.294702088e-21
2.361007936e-20
-1.233044873e-20
2.122376157e-20
-1.512416305e-20
1.836171341e-20
-1.753495267e-20
1.519415063e-20
-1.947866912e-20
1.18771495e-20
-2.09285629e-20
8.527832812e-21
-2.190572201e-20
5.214593205e-21
-2.246050258e-20
1.957652933e-21
-2.265266746e-20
-1.258657772e-21
-2.253240703e-20
-4.470172774e-21
-2.212779309e-20
-7.712272564e-21
-2.143746713e-20
-1.10013366e-20
-2.043143209e-20
-1.431693678e-20
-1.905754672e-20
-1.759204271e-20
-1.725553222e-20
-2.071117155e-20
-1.497490782e-20
-2.352306318e-20
-1.219589649e-20
-2.58644565e-20
-8.946559758e-21
-2.759400848e-20
-5.312759953e-21
-2.862939484e-20
-1.435700904e-21
-2.898543462e-20
2.504521626e-21
-2.879310779e-20
6.324329017e-21
-2.82763046e-20
9.884816073e-21
-2.769358107e-20
1.313236363e-20
-2.726206111e-20
1.611593678e-20
-2.702855896e-20
1.897430756e-20
-2.673875524e-20
2.184239552e-20
-2.607904857e-20
2.462655261e-20
-2.609360089e-20
2.684939008e-20
-3.041206481e-20
2.851226398e-20
-4.524569821e-20
3.218102885e-20
-9.224994586e-20
4.629043168e-20
-2.634697033e-19
1.047940748e-19
9.645824352e-20
3.635496453e-19
-1.184039186e-19
6.130016171e-31
-1.837367416e-19
-1.595620101e-18
-3.586146862e-19
-2.437388097e-18
-1.665533532e-19
-2.996683461e-18
5.387907618e-20
-2.292948183e-18
2.38917499e-31
-9.448906053e-20
1.013303372e-20
-9.4566017e-20
1.024237668e-20
-9.469175461e-20
1.047544669e-20
-9.487011842e-20
1.081638399e-20
-9.509765193e-20
1.124722294e-20
-9.537723564e-20
1.17496233e-20
-9.571161883e-20
1.230552512e-20
-9.610332878e-20
1.289684189e-20
-9.655428143e-20
1.350603648e-20
-9.706602007e-20
1.411582875e-20
-9.763939995e-20
1.470971243e-20
-9.827498694e-20
1.527160321e-20
-9.897285569e-20
1.578631357e-20
-9.973309835e-20
1.623915169e-20
-1.00555675e-19
1.661638966e-20
-1.014409736e-19
1.69048527e-20
-1.023897431e-19
1.709238776e-20
-1.034037793e-19
1.716743443e-20
-1.044860041e-19
1.711946119e-20
-1.056412777e-19
1.693849628e-20
-1.068765289e-19
1.661555962e-20
-1.082015628e-19
1.614222267e-20
-1.096292103e-19
1.551109377e-20
-1.111762721e-19
1.471540716e-20
-1.128639193e-19
1.374948181e-20
-1.147189432e-19
1.260820846e-20
-1.167743093e-19
1.128740989e-20
-1.190702886e-19
9.783283925e-21
-1.216546686e-19
8.092844785e-21
-1.245835676e-19
6.213490125e-21
-1.279216495e-19
4.143454884e-21
-1.317432746e-19
1.881141354e-21
-1.36132975e-19
-5.74891349e-22
-1.411862498e-19
-3.227086269e-21
-1.470088441e-19
-6.079179194e-21
-1.537159095e-19
-9.137406498e-21
-1.614299122e-19
-1.241086921e-20
-1.702788807e-19
-1.591311774e-20
-1.803932233e-19
-1.966322457e-20
-1.919016899e-19
-2.368805738e-20
-2.049243355e-19
-2.802362798e-20
-2.195637504e-19
-3.271706825e-20
-2.358936039e-19
-3.782725612e-20
-2.53946333e-19
-4.342564776e-20
-2.73698641e-19
-4.959490235e-20
-2.950558747e-19
-5.642593665e-20
-3.178340955e-19
-6.401010831e-20
-3.417429002e-19
-7.242664957e-20
-3.663717991e-19
-8.172223955e-20
-3.911877371e-19
-9.188347588e-20
-4.155501179e-19
-1.028004746e-19
-4.387532439e-19
-1.142258274e-19
-4.601036366e-19
-1.257359747e-19
-4.790356973e-19
-1.367153405e-19
-4.952471045e-19
-1.463941926e-19
-5.088031087e-19
-1.539928253e-19
-5.20110994e-19
-1.59036673e-19
-5.296335477e-19
-1.618772573e-19
-5.373038059e-19
-1.642231846e-19
-5.427126486e-19
-1.688808109e-19
-5.491193441e-19
-1.754545999e-19
-5.805918767e-19
-1.649372251e-19
-7.233083272e-19
-5.857173416e-20
-9.202769713e-19
3.565647917e-19
-1.624028916e-18
7.725990017e-19
-2.663804473e-19
-7.848970613e-19
-1.332802367e-20
9.752773001e-20
2.01886189e-20
5.478477813e-20
2.063559252e-20
2.855704914e-20
1.85604159e-20
1.715611494e-20
1.805335899e-20
1.251895843e-20
1.888306206e-20
1.030386189e-20
2.006087765e-20
8.598188021e-21
2.108357277e-20
6.866347027e-21
2.193269907e-20
5.075559602e-21
2.267573614e-20
3.219654281e-21
2.329566941e-20
1.242040739e-21
2.369284122e-20
-9.143962381e-22
2.373497348e-20
-3.263649051e-21
2.33041292e-20
-5.762686852e-21
2.233219139e-20
-8.318642445e-21
2.081636494e-20
-1.081076042e-20
1.881297204e-20
-1.311714881e-20
1.641799695e-20
-1.513693838e-20
1.374425672e-20
-1.680254962e-20
1.089999051e-20
-1.808286207e-20
7.973052241e-21
-1.897812666e-20
5.022428185e-21
-1.950989622e-20
2.077913498e-21
-1.970833692e-20
-8.540438316e-22
-1.960066237e-20
-3.779846938e-21
-1.920211555e-20
-6.706237393e-21
-1.851150413e-20
-9.62745123e-21
-1.751111831e-20
-1.251492238e-20
-1.617170459e-20
-1.53114182e-20
-1.446126104e-20
-1.793216023e-20
-1.235699132e-20
-2.027372648e-20
-9.857582767e-21
-2.223065663e-20
-6.993317973e-21
-2.371694943e-20
-3.830387707e-21
-2.468917228e-20
-4.675012974e-22
-2.516562724e-20
2.977061993e-21
-2.523262073e-20
6.387469821e-21
-2.502875695e-20
9.677106623e-21
-2.4710008e-20
1.280968902e-20
-2.440369033e-20
1.580578987e-20
-2.416047086e-20
1.872751102e-20
-2.395459827e-20
2.16332837e-20
-2.38562111e-20
2.45251399e-20
-2.443072682e-20
2.742114641e-20
-2.674330009e-20
3.08221899e-20
-3.113629538e-20
3.657160813e-20
-3.374630189e-20
4.88974437e-20
-4.714132661e-21
7.575777349e-20
2.396580407e-19
1.191759169e-19
1.292381892e-18
-7.592877698e-19
1.56660422e-20
2.244133482e-19
-3.486174889e-19
-1.656385346e-18
-2.366992153e-19
-3.094323263e-18
5.140247382e-20
-2.666784281e-18
3.218765035e-31
-9.312920294e-20
1.085003037e-20
-9.321733541e-20
1.096922755e-20
-9.336225831e-20
1.122246789e-20
-9.35678209e-20
1.159277013e-20
-9.383105113e-20
1.206047766e-20
-9.415475085e-20
1.26059341e-20
-9.454196469e-20
1.320936347e-20
-9.499505072e-20
1.385137106e-20
-9.551613617e-20
1.451273811e-20
-9.610651707e-20
1.51749357e-20
-9.676720614e-20
1.581984185e-20
-9.749847391e-20
1.643020773e-20
-9.830052521e-20
1.698931752e-20
-9.917311495e-20
1.748142534e-20
-1.001162847e-19
1.789139718e-20
-1.01130028e-19
1.820514919e-20
-1.022151323e-19
1.840927819e-20
-1.033729851e-19
1.849148728e-20
-1.046065774e-19
1.844017991e-20
-1.059204101e-19
1.824486975e-20
-1.073215249e-19
1.789577553e-20
-1.088193942e-19
1.738427161e-20
-1.104270033e-19
1.670253645e-20
-1.121609288e-19
1.5844031e-20
-1.140427467e-19
1.480311578e-20
-1.160994154e-19
1.357545368e-20
-1.183647939e-19
1.215755337e-20
-1.208798064e-19
1.054717905e-20
-1.236935943e-19
8.742971087e-21
-1.268634724e-19
6.744941545e-21
-1.304563153e-19
4.554016641e-21
-1.345490553e-19
2.172211698e-21
-1.392303598e-19
-3.983231608e-22
-1.446006089e-19
-3.155609813e-21
-1.507722009e-19
-6.099086864e-21
-1.578679494e-19
-9.230103667e-21
-1.660203175e-19
-1.255352561e-20
-1.753692408e-19
-1.607900988e-20
-1.860603314e-19
-1.982373609e-20
-1.982401661e-19
-2.381479621e-20
-2.120502683e-19
-2.809269179e-20
-2.276174416e-19
-3.271412816e-20
-2.450431045e-19
-3.775564282e-20
-2.643894745e-19
-4.331614403e-20
-2.856644476e-19
-4.9519196e-20
-3.088022547e-19
-5.651202285e-20
-3.336421937e-19
-6.446084611e-20
-3.599051156e-19
-7.353854009e-20
-3.871743649e-19
-8.390324369e-20
-4.148862017e-19
-9.566281831e-20
-4.423421662e-19
-1.088226508e-19
-4.687560724e-19
-1.232128439e-19
-4.933567148e-19
-1.383990402e-19
-5.155604193e-19
-1.535885732e-19
-5.352137282e-19
-1.675666893e-19
-5.528525134e-19
-1.787364289e-19
-5.697937851e-19
-1.8541539e-19
-5.874987869e-19
-1.86641038e-19
-6.051051061e-19
-1.83835022e-19
-6.12685196e-19
-1.829863064e-19
-5.776651912e-19
-1.951727609e-19
-4.342773082e-19
-2.262140524e-19
-1.826639902e-19
-2.452910389e-19
3.909358757e-19
-1.06352954e-19
2.884155393e-19
7.341155002e-19
-2.038935316e-19
-2.925848975e-19
-5.607097489e-20
-5.029199791e-20
-6.039110382e-21
4.75552844e-21
9.234658301e-21
1.328583472e-20
1.392325939e-20
1.247016246e-20
1.583826228e-20
1.060671219e-20
1.717738809e-20
8.967659222e-21
1.832903659e-20
7.449564089e-21
1.929278519e-20
5.905813349e-21
2.007679364e-20
4.294973494e-21
2.069812248e-20
2.602088532e-21
2.113923229e-20
8.049198017e-22
2.134358828e-20
-1.114590954e-21
2.123593552e-20
-3.151907455e-21
2.074817351e-20
-5.270915225e-21
1.984007331e-20
-7.40673839e-21
1.850997635e-20
-9.476988899e-21
1.679318245e-20
-1.13970035e-20
1.475238562e-20
-1.309318331e-20
1.246394409e-20
-1.451184278e-20
1.000472597e-20
-1.562209334e-20
7.441282642e-21
-1.641393462e-20
4.823987332e-21
-1.689236208e-20
2.185588153e-21
-1.707001621e-20
-4.554970052e-22
-1.695965987e-20
-3.089235614e-21
-1.65685918e-20
-5.705851425e-21
-1.589538736e-20
-8.288037469e-21
-1.493003661e-20
-1.080447885e-20
-1.365694552e-20
-1.320714831e-20
-1.206084412e-20
-1.543275159e-20
-1.013404387e-20
-1.740946163e-20
-7.883949923e-21
-1.90677262e-20
-5.33845751e-21
-2.035406291e-20
-2.547745291e-21
-2.124460884e-20
4.192683471e-22
-2.175521929e-20
3.483911791e-21
-2.194298381e-20
6.571524934e-21
-2.189617434e-20
9.626501112e-21
-2.171390709e-20
1.262357574e-20
-2.148196907e-20
1.557014159e-20
-2.125469792e-20
1.849689435e-20
-2.106274206e-20
2.143834924e-20
-2.096020448e-20
2.44198461e-20
-2.102968302e-20
2.748806141e-20
-2.099388192e-20
3.078401497e-20
-1.881045974e-20
3.438606624e-20
-6.885971604e-21
3.696992799e-20
3.870401006e-20
3.016491151e-20
1.81132233e-19
-2.325608935e-20
-3.140248316e-19
-2.64131921e-19
-8.107896051e-19
7.615496983e-19
-8.564335504e-19
-9.791502337e-19
-5.053598885e-19
-3.222107304e-18
1.896472398e-20
-3.140218189e-18
4.599468639e-31
-9.166051988e-20
1.161324158e-20
-9.176078103e-20
1.174339822e-20
-9.192623315e-20
1.201927823e-20
-9.216114688e-20
1.242232035e-20
-9.246268299e-20
1.293137442e-20
-9.283396932e-20
1.352501774e-20
-9.327797924e-20
1.418195634e-20
-9.379729736e-20
1.488103912e-20
-9.439388806e-20
1.560156668e-20
-9.506920107e-20
1.632331035e-20
-9.582402214e-20
1.7026743e-20
-9.665872817e-20
1.769300213e-20
-9.757324795e-20
1.830407068e-20
-9.856738672e-20
1.884270867e-20
-9.964083349e-20
1.92926228e-20
-1.007935552e-19
1.963838426e-20
-1.02025916e-19
1.986559682e-20
-1.033392366e-19
1.996079343e-20
-1.047360644e-19
1.991158023e-20
-1.062208255e-19
1.970652426e-20
-1.078000911e-19
1.933532242e-20
-1.09483213e-19
1.878873821e-20
-1.112826715e-19
1.805882567e-20
-1.13214954e-19
1.713889346e-20
-1.153012743e-19
1.602370928e-20
-1.175687568e-19
1.470941647e-20
-1.200511986e-19
1.319371232e-20
-1.22789987e-19
1.147580381e-20
-1.258345003e-19
9.556675189e-21
-1.292429731e-19
7.439072823e-21
-1.33083353e-19
5.127627921e-21
-1.374348676e-19
2.628474331e-21
-1.423891726e-19
-5.111627502e-23
-1.480512564e-19
-2.903534864e-21
-1.545391633e-19
-5.921492533e-21
-1.619835148e-19
-9.099146622e-21
-1.705265871e-19
-1.243341654e-20
-1.803216398e-19
-1.592625975e-20
-1.915310802e-19
-1.958748737e-20
-2.043231194e-19
-2.343854139e-20
-2.188656061e-19
-2.751662403e-20
-2.353177257e-19
-3.187966002e-20
-2.538191017e-19
-3.66116171e-20
-2.744766717e-19
-4.182841066e-20
-2.973477029e-19
-4.768311265e-20
-3.224183753e-19
-5.436940591e-20
-3.495768591e-19
-6.212062858e-20
-3.785827917e-19
-7.120174573e-20
-4.090362429e-19
-8.188944508e-20
-4.403533113e-19
-9.443427982e-20
-4.717592614e-19
-1.08995969e-19
-5.023193413e-19
-1.25542768e-19
-5.310364494e-19
-1.437064983e-19
-5.570548382e-19
-1.62590196e-19
-5.800155398e-19
-1.805402962e-19
-6.006029044e-19
-1.949400069e-19
-6.212071712e-19
-2.021872662e-19
-6.462772182e-19
-1.982737585e-19
-6.807686228e-19
-1.80692585e-19
-7.230389683e-19
-1.527767672e-19
-7.471265324e-19
-1.294755081e-19
-6.849130292e-19
-1.434294313e-19
-2.994765101e-19
-2.514325384e-19
-8.582237714e-20
1.338949229e-30
3.350277451e-19
3.132666312e-19
3.839936675e-20
4.045566688e-21
-1.023448843e-21
-1.086696802e-20
2.491195833e-21
1.243049098e-21
8.418986102e-21
7.360253803e-21
1.205980926e-20
8.831678807e-21
1.419920934e-20
8.469862064e-21
1.565929307e-20
7.510311268e-21
1.6785286e-20
6.32648493e-21
1.768194541e-20
5.012221456e-21
1.83839088e-20
3.596302907e-21
1.890095388e-20
2.088568371e-21
1.921972166e-20
4.899093884e-22
1.930627192e-20
-1.197294701e-21
1.911692784e-20
-2.958727476e-21
1.86123505e-20
-4.762645938e-21
1.776982292e-20
-6.560659372e-21
1.658996179e-20
-8.293774111e-21
1.509700281e-20
-9.900912113e-21
1.333372625e-20
-1.132717194e-20
1.135369351e-20
-1.252959717e-20
9.212884848e-21
-1.347975083e-20
6.962855225e-21
-1.416300274e-20
4.646333123e-21
-1.457546457e-20
2.295944608e-21
-1.471952669e-20
-6.44289301e-23
-1.459936921e-20
-2.41603129e-21
-1.421727141e-20
-4.740500611e-21
-1.357161752e-20
-7.014946435e-21
-1.265680577e-20
-9.208377592e-21
-1.146526017e-20
-1.128034806e-20
-9.991005162e-21
-1.318265774e-20
-8.234203458e-21
-1.486396935e-20
-6.205427822e-21
-1.627701407e-20
-3.92857635e-21
-1.73870494e-20
-1.441162481e-21
-1.817996551e-20
1.208591207e-21
-1.86676063e-20
3.967983225e-21
-1.888800777e-20
6.788352853e-21
-1.889909977e-20
9.633937295e-21
-1.876734144e-20
1.248811287e-20
-1.855521645e-20
1.535451626e-20
-1.831324302e-20
1.825181023e-20
-1.808124547e-20
2.120358312e-20
-1.78919893e-20
2.422799515e-20
-1.773372939e-20
2.732735861e-20
-1.739183096e-20
3.04398501e-20
-1.622659811e-20
3.321879945e-20
-1.369098795e-20
3.44319586e-20
-1.471699074e-20
3.118754368e-20
-5.974359679e-20
2.176800036e-20
-3.61655813e-19
3.777964512e-20
5.838817006e-20
3.415056744e-19
-3.208556198e-19
1.578973663e-30
-2.728912977e-19
-2.853347429e-18
1.049056035e-19
-3.569612681e-18
7.248774679e-31
-9.007299883e-20
1.242274514e-20
-9.018618716e-20
1.256527235e-20
-9.037369805e-20
1.286642635e-20
-9.064001052e-20
1.33061225e-20
-9.098268426e-20
1.386140222e-20
-9.140496399e-20
1.450910532e-20
-9.191000418e-20
1.522610307e-20
-9.250040068e-20
1.598951883e-20
-9.317820803e-20
1.677685868e-20
-9.394480977e-20
1.756623092e-20
-9.480101554e-20
1.833639742e-20
-9.574707591e-20
1.906693383e-20
-9.67828791e-20
1.973822784e-20
-9.790802261e-20
2.033161247e-20
-9.912206376e-20
2.082934638e-20
-1.004246572e-19
2.121473533e-20
-1.018159423e-19
2.147209625e-20
-1.032968513e-19
2.158686521e-20
-1.048696417e-19
2.154554732e-20
-1.065382739e-19
2.133583459e-20
-1.083089231e-19
2.094659547e-20
-1.101903446e-19
2.036805323e-20
-1.121944984e-19
1.959183698e-20
-1.143371988e-19
1.861119755e-20
-1.166391408e-19
1.742105283e-20
-1.191268397e-19
1.601819313e-20
-1.218336457e-19
1.440135305e-20
-1.248003856e-19
1.257148841e-20
-1.280760813e-19
1.053193431e-20
-1.317186989e-19
8.288683876e-21
-1.35796524e-19
5.850354367e-21
-1.403897238e-19
3.228097888e-21
-1.455919658e-19
4.351498669e-22
-1.515112374e-19
-2.513601467e-21
-1.582701098e-19
-5.602339106e-21
-1.660055208e-19
-8.815197334e-21
-1.748688961e-19
-1.21378999e-20
-1.850261546e-19
-1.556010229e-20
-1.966570814e-19
-1.907881597e-20
-2.09952717e-19
-2.270258343e-20
-2.251105637e-19
-2.645671776e-20
-2.423273623e-19
-3.038950325e-20
-2.617897446e-19
-3.457982514e-20
-2.836617344e-19
-3.914586212e-20
-3.080677797e-19
-4.425442976e-20
-3.350691634e-19
-5.012939905e-20
-3.646326741e-19
-5.705729502e-20
-3.965911604e-19
-6.53866178e-20
-4.30597538e-19
-7.551573993e-20
-4.660760434e-19
-8.786071392e-20
-5.021803255e-19
-1.02790601e-19
-5.377773965e-19
-1.205139151e-19
-5.714899948e-19
-1.408959851e-19
-6.018502951e-19
-1.63182815e-19
-6.276586859e-19
-1.856059071e-19
-6.487054444e-19
-2.048525524e-19
-6.67053591e-19
-2.154394128e-19
-6.888107049e-19
-2.092110589e-19
-7.252675191e-19
-1.762264578e-19
-7.86174311e-19
-1.087215188e-19
-8.735204067e-19
-1.13151555e-20
-7.789549651e-19
1.292627885e-19
-6.538297819e-19
1.240863507e-19
-2.793051938e-19
-5.961946767e-20
2.580667921e-20
8.155617141e-21
2.348683202e-20
6.36691176e-21
1.108656832e-20
1.535009134e-21
8.608400549e-21
3.723019974e-21
9.890411105e-21
6.080163614e-21
1.169799257e-20
7.026228406e-21
1.323965849e-20
6.930577786e-21
1.447546673e-20
6.277123314e-21
1.547102255e-20
5.333726019e-21
1.626602683e-20
4.220170384e-21
1.687617426e-20
2.989271025e-21
1.73022949e-20
1.665760526e-21
1.753251756e-20
2.63163147e-22
1.754483914e-20
-1.206050562e-21
1.731300935e-20
-2.72336941e-21
1.681433709e-20
-4.26055662e-21
1.603670819e-20
-5.779771861e-21
1.498282372e-20
-7.236787555e-21
1.367074304e-20
-8.585944428e-21
1.213130102e-20
-9.785153822e-21
1.040353977e-20
-1.079972629e-20
8.529633014e-21
-1.160429227e-20
6.550393404e-21
-1.218279111e-20
4.502270914e-21
-1.252683867e-20
2.416102172e-21
-1.263319964e-20
3.176688704e-22
-1.250103363e-20
-1.77037748e-21
-1.212964529e-20
-3.825688776e-21
-1.151715169e-20
-5.82340084e-21
-1.066042157e-20
-7.734122635e-21
-9.556245391e-21
-9.523546291e-21
-8.20355234e-21
-1.11538821e-20
-6.606062402e-21
-1.258711789e-20
-4.774713947e-21
-1.378960017e-20
-2.729018656e-21
-1.473729571e-20
-4.967510233e-22
-1.542057346e-20
1.888427276e-21
-1.584723669e-20
4.391209252e-21
-1.604242333e-20
6.980120586e-21
-1.604492411e-20
9.632946924e-21
-1.590093811e-20
1.234062199e-20
-1.565792249e-20
1.51082029e-20
-1.536146998e-20
1.795242673e-20
-1.505683356e-20
2.089628635e-20
-1.479262584e-20
2.396124975e-20
-1.462123772e-20
2.715352797e-20
-1.461288178e-20
3.042921187e-20
-1.501343896e-20
3.361721075e-20
-1.69354027e-20
3.635169615e-20
-2.413653428e-20
3.838628237e-20
-4.373195204e-20
4.136166132e-20
-5.79297807e-20
5.197695725e-20
2.236319448e-19
5.994376479e-20
2.227070018e-19
2.602432632e-21
-3.937152733e-19
-1.145725965e-18
1.931208791e-19
-3.934906803e-18
1.291484209e-30
-8.835568452e-20
1.327806139e-20
-8.848270651e-20
1.343446395e-20
-8.869374919e-20
1.376392929e-20
-8.89936306e-20
1.424460953e-20
-8.93802552e-20
1.485165115e-20
-8.985710281e-20
1.555992018e-20
-9.042744169e-20
1.6344364e-20
-9.109399403e-20
1.718014532e-20
-9.185883814e-20
1.804289027e-20
-9.272340131e-20
1.890882249e-20
-9.368844395e-20
1.975492195e-20
-9.475419017e-20
2.0558995e-20
-9.592039525e-20
2.129978395e-20
-9.718653209e-20
2.195700322e-20
-9.85519105e-20
2.251142096e-20
-1.000159433e-19
2.294487766e-20
-1.015784065e-19
2.324035235e-20
-1.032398792e-19
2.338196727e-20
-1.050021363e-19
2.335505713e-20
-1.068686379e-19
2.314619966e-20
-1.088448861e-19
2.274334767e-20
-1.1093891e-19
2.213593127e-20
-1.131617608e-19
2.131506019e-20
-1.155283191e-19
2.027367219e-20
-1.180581999e-19
1.900675659e-20
-1.207768182e-19
1.751153781e-20
-1.237162473e-19
1.578776659e-20
-1.269159845e-19
1.383801475e-20
-1.304235935e-19
1.16680578e-20
-1.342957501e-19
9.287148364e-21
-1.385996966e-19
6.708206743e-21
-1.434151444e-19
3.947775019e-21
-1.488359174e-19
1.025896755e-21
-1.549710794e-19
-2.034151006e-21
-1.619454183e-19
-5.206229613e-21
-1.698999974e-19
-8.46216105e-21
-1.78993057e-19
-1.177320512e-20
-1.894011951e-19
-1.511252595e-20
-2.013197511e-19
-1.845861329e-20
-2.149616147e-19
-2.179978424e-20
-2.305539671e-19
-2.513985753e-20
-2.483332397e-19
-2.850548713e-20
-2.685379554e-19
-3.195548439e-20
-2.9139844e-19
-3.559235164e-20
-3.171211502e-19
-3.957563685e-20
-3.458651249e-19
-4.413627768e-20
-3.77708007e-19
-4.959040407e-20
-4.125994328e-19
-5.634983133e-20
-4.502997473e-19
-6.492408243e-20
-4.903034056e-19
-7.590467561e-20
-5.317511106e-19
-8.991737254e-20
-5.733424761e-19
-1.075215566e-19
-6.132712543e-19
-1.29028499e-19
-6.492228072e-19
-1.542012833e-19
-6.785173738e-19
-1.817888092e-19
-6.985747254e-19
-2.088146011e-19
-7.079520306e-19
-2.294149331e-19
-7.085807262e-19
-2.329489655e-19
-7.076597218e-19
-2.005160008e-19
-7.109747335e-19
-1.033607444e-19
-7.373816386e-19
7.064398578e-20
-2.868917786e-19
2.434271212e-20
1.937552478e-19
6.982275651e-31
4.184462223e-20
9.229109558e-20
2.401797368e-20
2.598291072e-20
1.865492928e-20
1.173112468e-20
1.327457911e-20
6.91679003e-21
1.09655441e-20
6.033625738e-21
1.083647583e-20
6.210972364e-21
1.160234192e-20
6.262345603e-21
1.25862039e-20
5.94898512e-21
1.353206936e-20
5.333778994e-21
1.435746685e-20
4.511036839e-21
1.503512736e-20
3.545350465e-21
1.555266367e-20
2.474702302e-21
1.589969742e-20
1.321827128e-21
1.606330376e-20
1.027796563e-22
1.60275202e-20
-1.166987356e-21
1.577582202e-20
-2.468418821e-21
1.529512178e-20
-3.776710478e-21
1.457969241e-20
-5.061334579e-21
1.363366672e-20
-6.287908877e-21
1.247153362e-20
-7.42114307e-21
1.111672849e-20
-8.427952664e-21
9.598973658e-21
-9.279961182e-21
7.951134202e-21
-9.954927662e-21
6.206345808e-21
-1.043697953e-20
4.395909834e-21
-1.071583068e-20
2.548268251e-21
-1.078535486e-20
6.89057205e-22
-1.064197131e-20
-1.157883941e-21
-1.028324757e-20
-2.968958579e-21
-9.707065763e-21
-4.719224631e-21
-8.911529748e-21
-6.381429594e-21
-7.895659673e-21
-7.926056256e-21
-6.660675525e-21
-9.322533599e-21
-5.211520459e-21
-1.054142256e-20
-3.558116512e-21
-1.155733245e-20
-1.715886044e-21
-1.235211734e-20
2.948588407e-22
-1.291779138e-20
2.450774807e-21
-1.32583253e-20
4.728474364e-21
-1.338959692e-20
7.108170977e-21
-1.333724889e-20
9.577315925e-21
-1.31333572e-20
1.213340879e-20
-1.281369859e-20
1.478539662e-20
-1.241761017e-20
1.755349619e-20
-1.199187021e-20
2.046791749e-20
-1.160034756e-20
2.356716769e-20
-1.134555356e-20
2.689627246e-20
-1.142488303e-20
3.050623164e-20
-1.227895349e-20
3.446909364e-20
-1.490081616e-20
3.897137468e-20
-2.116115543e-20
4.464446022e-20
-3.311665594e-20
5.331576931e-20
-4.99629725e-20
6.88225247e-20
-8.708411271e-20
9.706619499e-20
-2.559771472e-19
1.714961427e-19
-6.896978636e-19
1.247902865e-30
2.725830091e-19
-4.359861006e-18
1.044097074e-30
-8.649685967e-20
1.417782227e-20
-8.663858276e-20
1.43498536e-20
-8.687468722e-20
1.471101136e-20
-8.721031145e-20
1.523756673e-20
-8.764379331e-20
1.59025518e-20
-8.817883354e-20
1.66787071e-20
-8.881888911e-20
1.753882953e-20
-8.956679373e-20
1.845597392e-20
-9.042472022e-20
1.940367442e-20
-9.139412181e-20
2.035613933e-20
-9.247577481e-20
2.128837905e-20
-9.366984325e-20
2.21763294e-20
-9.497599942e-20
2.299692093e-20
-9.639354744e-20
2.372815718e-20
-9.79215894e-20
2.434915233e-20
-9.955923787e-20
2.484018107e-20
-1.013059288e-19
2.518269656e-20
-1.031617942e-19
2.535938146e-20
-1.051280978e-19
2.535417963e-20
-1.072076287e-19
2.515239922e-20
-1.094050968e-19
2.474082648e-20
-1.117275311e-19
2.410790878e-20
-1.141848365e-19
2.324395147e-20
-1.167905354e-19
2.214136242e-20
-1.195627241e-19
2.079490077e-20
-1.225250466e-19
1.920199771e-20
-1.257075656e-19
1.736312252e-20
-1.291474619e-19
1.528224621e-20
-1.328897901e-19
1.296731715e-20
-1.369885998e-19
1.043071091e-20
-1.415086102e-19
7.689545284e-21
-1.465271753e-19
4.765909858e-21
-1.521360751e-19
1.687006947e-21
-1.584427531e-19
-1.514719455e-21
-1.655712419e-19
-4.801642388e-21
-1.736633526e-19
-8.13143381e-21
-1.828805615e-19
-1.145832227e-20
-1.934062124e-19
-1.473526684e-20
-2.054471586e-19
-1.791713913e-20
-2.192340596e-19
-2.096497275e-20
-2.350202709e-19
-2.385167329e-20
-2.530795373e-19
-2.656976893e-20
-2.737021911e-19
-2.914187508e-20
-2.971884322e-19
-3.16343182e-20
-3.238361901e-19
-3.417402458e-20
-3.539205558e-19
-3.696857936e-20
-3.876611824e-19
-4.032891372e-20
-4.251732923e-19
-4.46932521e-20
-4.663963111e-19
-5.064838558e-20
-5.109943742e-19
-5.89403807e-20