/*--------------------------------*- C++ -*----------------------------------*\
  =========                 |
  \\      /  F ield         | OpenFOAM: The Open Source CFD Toolbox
   \\    /   O peration     | Website:  https://openfoam.org
    \\  /    A nd           | Version:  6
     \\/     M anipulation  |
\*---------------------------------------------------------------------------*/
FoamFile
{
    version     2.0;
    format      ascii;
    class       volVectorField;
    location    "0.0058";
    object      gradT;
}
// * * * * * * * * * * * * * * * * * * * * * * * * * * * * * * * * * * * * * //

dimensions      [0 -1 0 1 0 0 0];

internalField   nonuniform List<vector> 
600
(
(0 8.576208505e-08 -1.875807382e-05)
(0 2.458513142e-07 -1.841121411e-05)
(0 3.859293827e-07 -1.774989287e-05)
(0 4.91702621e-07 -1.683605021e-05)
(0 5.641239457e-07 -1.574401323e-05)
(0 6.070049798e-07 -1.454143798e-05)
(0 6.184399244e-07 -1.328835862e-05)
(0 6.098637251e-07 -1.204099692e-05)
(0 5.898525627e-07 -1.082698678e-05)
(0 5.545948167e-07 -9.673963194e-06)
(0 5.13619606e-07 -8.599078524e-06)
(0 4.74550204e-07 -7.606144032e-06)
(0 4.316691614e-07 -6.699924667e-06)
(0 3.887881247e-07 -5.879467475e-06)
(0 3.506716367e-07 -5.140960543e-06)
(0 3.135080665e-07 -4.477733752e-06)
(0 2.801561487e-07 -3.885975423e-06)
(0 2.477571346e-07 -3.358062086e-06)
(0 2.21075597e-07 -2.891135178e-06)
(0 1.953469744e-07 -2.478524295e-06)
(0 1.734299942e-07 -2.110700204e-06)
(0 1.553246651e-07 -1.782898457e-06)
(0 1.372193381e-07 -1.494166126e-06)
(0 1.229256552e-07 -1.234021113e-06)
(0 1.105377985e-07 -1.002463483e-06)
(0 1.010086795e-07 -7.928228426e-07)
(0 9.433829356e-08 -5.984287713e-07)
(0 8.862082122e-08 -4.164225685e-07)
(0 8.290335013e-08 -2.468042262e-07)
(0 8.195043683e-08 -8.099752477e-08)
(0 2.649095556e-07 -1.925358838e-05)
(0 7.623296678e-07 -1.886765928e-05)
(0 1.189234264e-06 -1.814344582e-05)
(0 1.513224368e-06 -1.7155276e-05)
(0 1.730488346e-06 -1.598510022e-05)
(0 1.848649417e-06 -1.471486819e-05)
(0 1.882001339e-06 -1.340842574e-05)
(0 1.851508181e-06 -1.211437133e-05)
(0 1.778133923e-06 -1.086986799e-05)
(0 1.673313596e-06 -9.696833229e-06)
(0 1.552293786e-06 -8.603843213e-06)
(0 1.425556457e-06 -7.60328541e-06)
(0 1.295960416e-06 -6.690395646e-06)
(0 1.169223128e-06 -5.866126794e-06)
(0 1.052014926e-06 -5.124761115e-06)
(0 9.405242135e-07 -4.463440138e-06)
(0 8.395155466e-07 -3.873587624e-06)
(0 7.451772391e-07 -3.348533015e-06)
(0 6.603680648e-07 -2.881606101e-06)
(0 5.869938442e-07 -2.467089387e-06)
(0 5.193370784e-07 -2.100218203e-06)
(0 4.621623542e-07 -1.777181011e-06)
(0 4.107051085e-07 -1.487495764e-06)
(0 3.687769713e-07 -1.231162395e-06)
(0 3.325663126e-07 -9.996047619e-07)
(0 3.020731309e-07 -7.880582941e-07)
(0 2.830148849e-07 -5.965229561e-07)
(0 2.639566435e-07 -4.154696627e-07)
(0 2.515687904e-07 -2.458513179e-07)
(0 2.448984021e-07 -8.099752599e-08)
(0 4.716914678e-07 -2.02817802e-05)
(0 1.355040964e-06 -1.981294777e-05)
(0 2.098312348e-06 -1.894770332e-05)
(0 2.650048428e-06 -1.779467974e-05)
(0 3.006437582e-06 -1.646250893e-05)
(0 3.182726267e-06 -1.505219884e-05)
(0 3.219889838e-06 -1.36342657e-05)
(0 3.147468569e-06 -1.225444923e-05)
(0 3.007390449e-06 -1.094895952e-05)
(0 2.820619686e-06 -9.733043741e-06)
(0 2.607167425e-06 -8.613372205e-06)
(0 2.387997613e-06 -7.593756175e-06)
(0 2.16882784e-06 -6.671337305e-06)
(0 1.954422656e-06 -5.841350992e-06)
(0 1.753358183e-06 -5.099985324e-06)
(0 1.565634508e-06 -4.435805621e-06)
(0 1.395063271e-06 -3.846906028e-06)
(0 1.240691497e-06 -3.323757252e-06)
(0 1.100613425e-06 -2.860641993e-06)
(0 9.74829048e-07 -2.450889845e-06)
(0 8.642912349e-07 -2.087830315e-06)
(0 7.680471172e-07 -1.764793128e-06)
(0 6.841908666e-07 -1.477013709e-06)
(0 6.1176954e-07 -1.220680344e-06)
(0 5.536419046e-07 -9.891227143e-07)
(0 5.031375732e-07 -7.823408098e-07)
(0 4.669269075e-07 -5.908054748e-07)
(0 4.383395458e-07 -4.135638324e-07)
(0 4.183283989e-07 -2.448984021e-07)
(0 4.097521841e-07 -8.099752477e-08)
(0 7.366010194e-07 -2.192936515e-05)
(0 2.095453643e-06 -2.130330225e-05)
(0 3.208454893e-06 -2.018458317e-05)
(0 3.998418988e-06 -1.874663888e-05)
(0 4.472016347e-06 -1.715432309e-05)
(0 4.677845284e-06 -1.552484322e-05)
(0 4.678798196e-06 -1.393729173e-05)
(0 4.534908543e-06 -1.243645543e-05)
(0 4.300492109e-06 -1.104425073e-05)
(0 4.010806844e-06 -9.767348575e-06)
(0 3.690628449e-06 -8.61146638e-06)
(0 3.366638294e-06 -7.56802755e-06)
(0 3.04931858e-06 -6.635126647e-06)
(0 2.741528027e-06 -5.800375773e-06)
(0 2.455654369e-06 -5.055198458e-06)
(0 2.193603553e-06 -4.395783315e-06)
(0 1.950611008e-06 -3.807836633e-06)
(0 1.731441206e-06 -3.287546594e-06)
(0 1.536094234e-06 -2.827290071e-06)
(0 1.358852612e-06 -2.420396659e-06)
(0 1.206386663e-06 -2.061148777e-06)
(0 1.072026063e-06 -1.742876151e-06)
(0 9.538649825e-07 -1.459861292e-06)
(0 8.547621144e-07 -1.204480839e-06)
(0 7.718587655e-07 -9.786406816e-07)
(0 7.022961959e-07 -7.71858777e-07)
(0 6.508389343e-07 -5.831821784e-07)
(0 6.098637159e-07 -4.0784636e-07)
(0 5.841350992e-07 -2.420396659e-07)
(0 5.707943216e-07 -8.004461272e-08)
(0 1.099660529e-06 -2.435262087e-05)
(0 3.0988701e-06 -2.344354311e-05)
(0 4.655928376e-06 -2.188839026e-05)
(0 5.681261764e-06 -2.000067145e-05)
(0 6.227280474e-06 -1.80176617e-05)
(0 6.400710377e-06 -1.608420284e-05)
(0 6.308277906e-06 -1.427557573e-05)
(0 6.042415529e-06 -1.261941474e-05)
(0 5.674591379e-06 -1.112238969e-05)
(0 5.25149842e-06 -9.782595315e-06)
(0 4.807441467e-06 -8.586690795e-06)
(0 4.365290195e-06 -7.52038206e-06)
(0 3.936479763e-06 -6.574140374e-06)
(0 3.53339801e-06 -5.73653075e-06)
(0 3.157950601e-06 -4.992306337e-06)
(0 2.814902256e-06 -4.332891184e-06)
(0 2.502347134e-06 -3.75256779e-06)
(0 2.220285124e-06 -3.238948127e-06)
(0 1.967763425e-06 -2.783456158e-06)
(0 1.740970379e-06 -2.3813273e-06)
(0 1.542764642e-06 -2.026843974e-06)
(0 1.370287557e-06 -1.713335903e-06)
(0 1.221633293e-06 -1.434132688e-06)
(0 1.092990145e-06 -1.184469704e-06)
(0 9.862639929e-07 -9.60535367e-07)
(0 8.985960959e-07 -7.594709315e-07)
(0 8.309393254e-07 -5.717472423e-07)
(0 7.794820736e-07 -4.011759816e-07)
(0 7.461301623e-07 -2.372751091e-07)
(0 7.30883558e-07 -7.909170185e-08)
(0 1.647584945e-06 -2.784790193e-05)
(0 4.561590081e-06 -2.638422941e-05)
(0 6.65037324e-06 -2.407722892e-05)
(0 7.868194847e-06 -2.149579016e-05)
(0 8.387532044e-06 -1.897152641e-05)
(0 8.42088384e-06 -1.665118527e-05)
(0 8.144539344e-06 -1.458050737e-05)
(0 7.687141672e-06 -1.275472806e-05)
(0 7.1373113e-06 -1.115478853e-05)
(0 6.546505826e-06 -9.750196158e-06)
(0 5.953794616e-06 -8.518080998e-06)
(0 5.378235645e-06 -7.437478598e-06)
(0 4.833169949e-06 -6.484566542e-06)
(0 4.324314976e-06 -5.644098193e-06)
(0 3.858340915e-06 -4.905591265e-06)
(0 3.433342138e-06 -4.253799419e-06)
(0 3.046459889e-06 -3.679193504e-06)
(0 2.700552767e-06 -3.173197147e-06)
(0 2.391809261e-06 -2.727234305e-06)
(0 2.116417708e-06 -2.332728748e-06)
(0 1.874378014e-06 -1.984915813e-06)
(0 1.664737362e-06 -1.675219395e-06)
(0 1.482731182e-06 -1.40363948e-06)
(0 1.328359406e-06 -1.159693972e-06)
(0 1.19590463e-06 -9.414771115e-07)
(0 1.090131409e-06 -7.423185029e-07)
(0 1.009133867e-06 -5.612652011e-07)
(0 9.452887597e-07 -3.916468551e-07)
(0 9.06219379e-07 -2.315576331e-07)
(0 8.881140363e-07 -7.81387886e-08)
(0 2.567145079e-06 -3.298123917e-05)
(0 6.870496028e-06 -3.033595576e-05)
(0 9.544367154e-06 -2.670345455e-05)
(0 1.078791739e-05 -2.308429456e-05)
(0 1.107093243e-05 -1.985964046e-05)
(0 1.079077612e-05 -1.710000685e-05)
(0 1.020473521e-05 -1.476156066e-05)
(0 9.470040156e-06 -1.27814096e-05)
(0 8.679123007e-06 -1.109189633e-05)
(0 7.886300177e-06 -9.641564184e-06)
(0 7.122064814e-06 -8.39039078e-06)
(0 6.398804457e-06 -7.302165086e-06)
(0 5.728907281e-06 -6.351158854e-06)
(0 5.110467434e-06 -5.520219624e-06)
(0 4.55110798e-06 -4.791241818e-06)
(0 4.040347118e-06 -4.151837829e-06)
(0 3.581043561e-06 -3.587713945e-06)
(0 3.174150059e-06 -3.094105446e-06)
(0 2.807278917e-06 -2.657671725e-06)
(0 2.484241768e-06 -2.274601112e-06)
(0 2.199321026e-06 -1.933458562e-06)
(0 1.950610979e-06 -1.634244176e-06)
(0 1.738111616e-06 -1.367428821e-06)
(0 1.5570583e-06 -1.131106611e-06)
(0 1.402686547e-06 -9.176543101e-07)
(0 1.278807999e-06 -7.242131735e-07)
(0 1.18161095e-06 -5.469715202e-07)
(0 1.108236721e-06 -3.811648225e-07)
(0 1.061544046e-06 -2.248872486e-07)
(0 1.039627053e-06 -7.432714038e-08)
(0 4.296680526e-06 -4.093805546e-05)
(0 1.083842205e-05 -3.545595285e-05)
(0 1.390108128e-05 -2.948500528e-05)
(0 1.471296237e-05 -2.443838296e-05)
(0 1.437277297e-05 -2.042662345e-05)
(0 1.351801063e-05 -1.725437886e-05)
(0 1.246313697e-05 -1.470819781e-05)
(0 1.135775914e-05 -1.262608512e-05)
(0 1.027620377e-05 -1.08946437e-05)
(0 9.248964556e-06 -9.431923673e-06)
(0 8.294146785e-06 -8.180750247e-06)
(0 7.416514644e-06 -7.104912397e-06)
(0 6.614162681e-06 -6.17201148e-06)
(0 5.884232123e-06 -5.359177564e-06)
(0 5.227675618e-06 -4.647352167e-06)
(0 4.634964311e-06 -4.024147673e-06)
(0 4.105145261e-06 -3.478129109e-06)
(0 3.6315479e-06 -2.996908461e-06)
(0 3.212266589e-06 -2.574768414e-06)
(0 2.839678012e-06 -2.20313274e-06)
(0 2.514734954e-06 -1.875330955e-06)
(0 2.230767157e-06 -1.582786949e-06)
(0 1.985868785e-06 -1.324547798e-06)
(0 1.777181011e-06 -1.095848881e-06)
(0 1.603751015e-06 -8.881140496e-07)
(0 1.461767138e-06 -7.013432944e-07)
(0 1.350276404e-06 -5.298191112e-07)
(0 1.267373054e-06 -3.697298833e-07)
(0 1.213057084e-06 -2.191697795e-07)
(0 1.18732844e-06 -7.146840528e-08)
(0 8.056871435e-06 -5.458280258e-05)
(0 1.832449911e-05 -4.126299847e-05)
(0 2.056288926e-05 -3.151661334e-05)
(0 1.984439357e-05 -2.49129328e-05)
(0 1.825493653e-05 -2.030369748e-05)
(0 1.650920137e-05 -1.691704773e-05)
(0 1.483302907e-05 -1.431273908e-05)
(0 1.328264135e-05 -1.223443807e-05)
(0 1.187519004e-05 -1.052681948e-05)
(0 1.05992408e-05 -9.101263048e-06)
(0 9.447170266e-06 -7.887253207e-06)
(0 8.409448895e-06 -6.844767299e-06)
(0 7.47559508e-06 -5.942359582e-06)
(0 6.636079658e-06 -5.159065949e-06)
(0 5.884231947e-06 -4.474875016e-06)
(0 5.209570211e-06 -3.876446244e-06)
(0 4.608282773e-06 -3.351391752e-06)
(0 4.076557776e-06 -2.88732353e-06)
(0 3.602960484e-06 -2.482335906e-06)
(0 3.182726315e-06 -2.123088093e-06)
(0 2.818713862e-06 -1.806721258e-06)
(0 2.501394147e-06 -1.528470938e-06)
(0 2.226002597e-06 -1.279760911e-06)
(0 1.992539109e-06 -1.058685294e-06)
(0 1.796239226e-06 -8.585737626e-07)
(0 1.637102937e-06 -6.784733941e-07)
(0 1.514177257e-06 -5.136195983e-07)
(0 1.421744788e-06 -3.57342021e-07)
(0 1.358852612e-06 -2.105935676e-07)
(0 1.33026523e-06 -6.95625801e-08)
(0 1.76336376e-05 -7.396408088e-05)
(0 3.390270564e-05 -4.370626502e-05)
(0 3.025114613e-05 -3.05961003e-05)
(0 2.592683122e-05 -2.356265641e-05)
(0 2.236961085e-05 -1.910112245e-05)
(0 1.950801561e-05 -1.593173667e-05)
(0 1.714574663e-05 -1.351134004e-05)
(0 1.514272571e-05 -1.157692874e-05)
(0 1.340937845e-05 -9.983659612e-06)
(0 1.189138955e-05 -8.642912349e-06)
(0 1.054968953e-05 -7.501323818e-06)
(0 9.359502215e-06 -6.517918464e-06)
(0 8.299864009e-06 -5.666015086e-06)
(0 7.352669535e-06 -4.922743756e-06)
(0 6.510295167e-06 -4.273810572e-06)
(0 5.761306291e-06 -3.703969162e-06)
(0 5.092362104e-06 -3.202737469e-06)
(0 4.500603641e-06 -2.764397875e-06)
(0 3.975549098e-06 -2.376562668e-06)
(0 3.514339716e-06 -2.03446727e-06)
(0 3.111257863e-06 -1.732394118e-06)
(0 2.758680403e-06 -1.46462583e-06)
(0 2.455654405e-06 -1.227350747e-06)
(0 2.199321026e-06 -1.013898428e-06)
(0 1.983962901e-06 -8.242689286e-07)
(0 1.806721286e-06 -6.4893312e-07)
(0 1.671407746e-06 -4.907497089e-07)
(0 1.567540332e-06 -3.440012523e-07)
(0 1.499883599e-06 -2.02970271e-07)
(0 1.468437478e-06 -6.765675599e-08)
(0 8.495687564e-05 -3.69863291e-05)
(0 6.169343419e-05 -2.922676655e-05)
(0 4.070649782e-05 -2.378277945e-05)
(0 3.133937217e-05 -1.980151282e-05)
(0 2.588585678e-05 -1.675219445e-05)
(0 2.209993674e-05 -1.432417424e-05)
(0 1.918688454e-05 -1.234021131e-05)
(0 1.681032209e-05 -1.068214447e-05)
(0 1.480920649e-05 -9.277551918e-06)
(0 1.308062399e-05 -8.074976885e-06)
(0 1.157216436e-05 -7.036302834e-06)
(0 1.024475767e-05 -6.131989173e-06)
(0 9.07172291e-06 -5.343930891e-06)
(0 8.027331402e-06 -4.652116798e-06)
(0 7.103006573e-06 -4.044158827e-06)
(0 6.279690544e-06 -3.51148098e-06)
(0 5.549759981e-06 -3.03978955e-06)
(0 4.902732602e-06 -2.626225666e-06)
(0 4.331938272e-06 -2.260307431e-06)
(0 3.827847844e-06 -1.936317356e-06)
(0 3.38760241e-06 -1.651396618e-06)
(0 3.00548467e-06 -1.397922007e-06)
(0 2.676730046e-06 -1.172081864e-06)
(0 2.396573857e-06 -9.681586636e-07)
(0 2.161204576e-06 -7.871053702e-07)
(0 1.969669279e-06 -6.222515913e-07)
(0 1.820062055e-06 -4.707385628e-07)
(0 1.709524254e-06 -3.287546643e-07)
(0 1.635197137e-06 -1.934411532e-07)
(0 1.600892278e-06 -6.384510872e-08)
(0 5.791799477e-05 2.844442488e-06)
(0 4.71072082e-05 -1.265181356e-05)
(0 3.967449346e-05 -1.569255574e-05)
(0 3.295741637e-05 -1.526850988e-05)
(0 2.784694943e-05 -1.391728079e-05)
(0 2.391999843e-05 -1.24011975e-05)
(0 2.078968233e-05 -1.095181826e-05)
(0 1.820347928e-05 -9.635846856e-06)
(0 1.601845166e-05 -8.463764883e-06)
(0 1.41326387e-05 -7.426043653e-06)
(0 1.249172433e-05 -6.511248177e-06)
(0 1.105282694e-05 -5.702225744e-06)
(0 9.779736432e-06 -4.987541702e-06)
(0 8.651488687e-06 -4.355761074e-06)
(0 7.651883811e-06 -3.798307456e-06)
(0 6.764722686e-06 -3.303746099e-06)
(0 5.977617418e-06 -2.868265332e-06)
(0 5.280085703e-06 -2.480430082e-06)
(0 4.665457427e-06 -2.13642883e-06)
(0 4.123250529e-06 -1.834355736e-06)
(0 3.649653175e-06 -1.565634508e-06)
(0 3.239900991e-06 -1.32550067e-06)
(0 2.883511925e-06 -1.112048386e-06)
(0 2.583344584e-06 -9.233717824e-07)
(0 2.330822889e-06 -7.508947002e-07)
(0 2.124041005e-06 -5.936642199e-07)
(0 1.963951748e-06 -4.488215784e-07)
(0 1.844837741e-06 -3.135080665e-07)
(0 1.764793154e-06 -1.848649417e-07)
(0 1.726676646e-06 -6.098637159e-08)
(0 4.764941445e-05 -4.11086261e-06)
(0 4.315643476e-05 -8.724862917e-06)
(0 3.809075362e-05 -1.122625693e-05)
(0 3.311559977e-05 -1.179895708e-05)
(0 2.875316881e-05 -1.136919391e-05)
(0 2.506444581e-05 -1.051633745e-05)
(0 2.195128213e-05 -9.527214737e-06)
(0 1.930028107e-05 -8.536186327e-06)
(0 1.70171035e-05 -7.597567824e-06)
(0 1.50331406e-05 -6.733276589e-06)
(0 1.329788794e-05 -5.948077144e-06)
(0 1.176751098e-05 -5.241969221e-06)
(0 1.041818751e-05 -4.607329791e-06)
(0 9.217518457e-06 -4.039394267e-06)
(0 8.154068464e-06 -3.533397904e-06)
(0 7.210685529e-06 -3.084576326e-06)
(0 6.373075927e-06 -2.682447478e-06)
(0 5.632663164e-06 -2.325105417e-06)
(0 4.978012581e-06 -2.00683279e-06)
(0 4.399595029e-06 -1.72572376e-06)
(0 3.896457398e-06 -1.473202039e-06)
(0 3.45716494e-06 -1.250220618e-06)
(0 3.0788589e-06 -1.051062014e-06)
(0 2.759633315e-06 -8.719145314e-07)
(0 2.491865027e-06 -7.080136577e-07)
(0 2.270789464e-06 -5.593593853e-07)
(0 2.101171084e-06 -4.230929529e-07)
(0 1.973480868e-06 -2.954027374e-07)
(0 1.887718812e-06 -1.75335821e-07)
(0 1.844837741e-06 -5.622181131e-08)
(0 4.22206751e-05 -3.868823006e-06)
(0 3.999181437e-05 -7.042973218e-06)
(0 3.65994468e-05 -8.817295388e-06)
(0 3.281543297e-05 -9.450981914e-06)
(0 2.912861661e-05 -9.357596672e-06)
(0 2.576293074e-05 -8.869705552e-06)
(0 2.276888101e-05 -8.198855454e-06)
(0 2.013407944e-05 -7.467019096e-06)
(0 1.781945572e-05 -6.734229602e-06)
(0 1.578212971e-05 -6.032886318e-06)
(0 1.398398484e-05 -5.37537707e-06)
(0 1.239357439e-05 -4.770277825e-06)
(0 1.09813587e-05 -4.217588824e-06)
(0 9.724467825e-06 -3.71635713e-06)
(0 8.607654732e-06 -3.262770929e-06)
(0 7.616626179e-06 -2.854924563e-06)
(0 6.736135527e-06 -2.489959277e-06)
(0 5.956653352e-06 -2.1631104e-06)
(0 5.265792101e-06 -1.871519306e-06)
(0 4.656881358e-06 -1.612327247e-06)
(0 4.126109265e-06 -1.378863766e-06)
(0 3.662041087e-06 -1.170176022e-06)
(0 3.261818066e-06 -9.824523593e-07)
(0 2.924487144e-06 -8.147398202e-07)
(0 2.641472259e-06 -6.63226801e-07)
(0 2.409914662e-06 -5.260074708e-07)
(0 2.227908421e-06 -3.973643334e-07)
(0 2.094500731e-06 -2.792032366e-07)
(0 2.003021202e-06 -1.648537907e-07)
(0 1.958234305e-06 -5.622181216e-08)
(0 3.950678094e-05 -5.514502069e-06)
(0 3.820700946e-05 -6.865731467e-06)
(0 3.568369777e-05 -7.652836723e-06)
(0 3.257529864e-05 -7.931087043e-06)
(0 2.933444518e-05 -7.832937219e-06)
(0 2.622223396e-05 -7.493700409e-06)
(0 2.335396867e-05 -7.019150205e-06)
(0 2.076490693e-05 -6.476943343e-06)
(0 1.845218905e-05 -5.912819308e-06)
(0 1.63929461e-05 -5.351554107e-06)
(0 1.455859061e-05 -4.813158868e-06)
(0 1.292625204e-05 -4.303350845e-06)
(0 1.147210824e-05 -3.830706466e-06)
(0 1.017424218e-05 -3.391414059e-06)
(0 9.012642227e-06 -2.992143856e-06)
(0 7.982544294e-06 -2.627178539e-06)
(0 7.065843002e-06 -2.299376826e-06)
(0 6.251103088e-06 -2.003974054e-06)
(0 5.529748662e-06 -1.73811159e-06)
(0 4.89225057e-06 -1.497977775e-06)
(0 4.338608592e-06 -1.284525452e-06)
(0 3.852623443e-06 -1.092037216e-06)
(0 3.434295102e-06 -9.186072359e-07)
(0 3.078858853e-06 -7.613767328e-07)
(0 2.78059738e-06 -6.212986606e-07)
(0 2.537604844e-06 -4.917026283e-07)
(0 2.347975306e-06 -3.725886139e-07)
(0 2.20599141e-06 -2.610979034e-07)
(0 2.11260606e-06 -1.543717554e-07)
(0 2.064960426e-06 -5.145725103e-08)
(0 3.905700662e-05 -7.686188679e-06)
(0 3.785347926e-05 -7.322176382e-06)
(0 3.553409073e-05 -7.076324961e-06)
(0 3.263437933e-05 -6.862872659e-06)
(0 2.956600294e-05 -6.621786007e-06)
(0 2.657767028e-05 -6.328288993e-06)
(0 2.378563794e-05 -5.975711531e-06)
(0 2.124041015e-05 -5.576441461e-06)
(0 1.894293885e-05 -5.150489687e-06)
(0 1.688274297e-05 -4.711197227e-06)
(0 1.503218798e-05 -4.274763567e-06)
(0 1.33769795e-05 -3.851670548e-06)
(0 1.189329543e-05 -3.448588747e-06)
(0 1.056207744e-05 -3.074094353e-06)
(0 9.373795938e-06 -2.724375581e-06)
(0 8.309393167e-06 -2.402291304e-06)
(0 7.360292865e-06 -2.106888597e-06)
(0 6.517918493e-06 -1.841026101e-06)
(0 5.769882526e-06 -1.601845174e-06)
(0 5.108561633e-06 -1.383628332e-06)
(0 4.532049759e-06 -1.188281339e-06)
(0 4.029865104e-06 -1.01294552e-06)
(0 3.593431434e-06 -8.509504827e-07)
(0 3.222748588e-06 -7.070607488e-07)
(0 2.910193433e-06 -5.765117966e-07)
(0 2.657671776e-06 -4.564448838e-07)
(0 2.458513116e-06 -3.459070779e-07)
(0 2.311764659e-06 -2.410867513e-07)
(0 2.211708925e-06 -1.429368112e-07)
(0 2.165016201e-06 -4.669269096e-08)
(0 4.057594851e-05 -9.549131772e-06)
(0 3.881592051e-05 -7.715729081e-06)
(0 3.614395451e-05 -6.523635975e-06)
(0 3.30307908e-05 -5.877561597e-06)
(0 2.986807611e-05 -5.528795866e-06)
(0 2.686926141e-05 -5.281038647e-06)
(0 2.410581643e-05 -5.038998983e-06)
(0 2.159012891e-05 -4.763607469e-06)
(0 1.931838623e-05 -4.452958065e-06)
(0 1.726771947e-05 -4.119438843e-06)
(0 1.541716448e-05 -3.772578909e-06)
(0 1.375147396e-05 -3.426671774e-06)
(0 1.225063747e-05 -3.091246729e-06)
(0 1.089845541e-05 -2.769162493e-06)
(0 9.686351109e-06 -2.464230592e-06)
(0 8.598125534e-06 -2.18121571e-06)
(0 7.625202433e-06 -1.921070746e-06)
(0 6.757099431e-06 -1.683795613e-06)
(0 5.988099397e-06 -1.466531663e-06)
(0 5.306767352e-06 -1.269278885e-06)
(0 4.70929141e-06 -1.091084311e-06)
(0 4.189954336e-06 -9.300421724e-07)
(0 3.739226987e-06 -7.871053749e-07)
(0 3.352344634e-06 -6.546505865e-07)
(0 3.032166181e-06 -5.336307546e-07)
(0 2.768209581e-06 -4.221400497e-07)
(0 2.562380534e-06 -3.182726287e-07)
(0 2.409914604e-06 -2.229814225e-07)
(0 2.306047224e-06 -1.324547786e-07)
(0 2.25554285e-06 -4.288104278e-08)
(0 4.361478501e-05 -1.054301904e-05)
(0 4.088088092e-05 -7.492747643e-06)
(0 3.736939936e-05 -5.46209193e-06)
(0 3.362921952e-05 -4.645446295e-06)
(0 3.016347881e-05 -4.383395544e-06)
(0 2.706651416e-05 -4.285245536e-06)
(0 2.430497501e-05 -4.187095593e-06)
(0 2.182549816e-05 -4.037488461e-06)
(0 1.958901323e-05 -3.833565219e-06)
(0 1.756312219e-05 -3.58866682e-06)
(0 1.572400214e-05 -3.32089858e-06)
(0 1.405831163e-05 -3.040742385e-06)
(0 1.255080475e-05 -2.757727503e-06)
(0 1.118814067e-05 -2.483288867e-06)
(0 9.960789768e-06 -2.221238013e-06)
(0 8.853505953e-06 -1.972527965e-06)
(0 7.859618792e-06 -1.742876185e-06)
(0 6.970551722e-06 -1.531329681e-06)
(0 6.18344636e-06 -1.337888533e-06)
(0 5.485914814e-06 -1.159693995e-06)
(0 4.870333541e-06 -9.996047514e-07)
(0 4.334796963e-06 -8.528562941e-07)
(0 3.869775935e-06 -7.213544406e-07)
(0 3.474317372e-06 -6.022404222e-07)
(0 3.143656887e-06 -4.907497111e-07)
(0 2.872076993e-06 -3.897410386e-07)
(0 2.657671737e-06 -2.954027387e-07)
(0 2.498535422e-06 -2.067819171e-07)
(0 2.39276222e-06 -1.229256576e-07)
(0 2.34035202e-06 -4.002230654e-08)
(0 5.047956349e-05 -2.037993024e-05)
(0 4.389684763e-05 -6.253961946e-06)
(0 3.899316151e-05 -3.204643259e-06)
(0 3.410758138e-05 -2.880653159e-06)
(0 3.022922975e-05 -3.108399188e-06)
(0 2.706556125e-05 -3.330427651e-06)
(0 2.435357353e-05 -3.430483418e-06)
(0 2.194365926e-05 -3.410472315e-06)
(0 1.976530196e-05 -3.301840289e-06)
(0 1.778133905e-05 -3.130316118e-06)
(0 1.596699472e-05 -2.919722597e-06)
(0 1.431369206e-05 -2.691976571e-06)
(0 1.280713809e-05 -2.454701468e-06)
(0 1.14349449e-05 -2.21837931e-06)
(0 1.019711196e-05 -1.992539118e-06)
(0 9.077440288e-06 -1.776228081e-06)
(0 8.066400712e-06 -1.574210747e-06)
(0 7.163039958e-06 -1.386487048e-06)
(0 6.358782179e-06 -1.213057053e-06)
(0 5.645051131e-06 -1.054873667e-06)
(0 5.016129086e-06 -9.090781056e-07)
(0 4.466298827e-06 -7.785291534e-07)
(0 3.990795769e-06 -6.594151557e-07)
(0 3.583902259e-06 -5.488773468e-07)
(0 3.243712654e-06 -4.497744925e-07)
(0 2.965462377e-06 -3.563891159e-07)
(0 2.745339646e-06 -2.715799372e-07)
(0 2.581438772e-06 -1.896295e-07)
(0 2.471853922e-06 -1.124436248e-07)
(0 2.418490809e-06 -3.906939448e-08)
(0 7.677707774e-05 1.394682094e-05)
(0 5.805616824e-05 6.07672031e-06)
(0 4.074270812e-05 1.778133907e-06)
(0 3.372546369e-05 -5.841350939e-07)
(0 2.971275145e-05 -1.865801845e-06)
(0 2.674442993e-05 -2.529028612e-06)
(0 2.422397752e-05 -2.828243e-06)
(0 2.195509423e-05 -2.913052217e-06)
(0 1.98691694e-05 -2.866359482e-06)
(0 1.794428704e-05 -2.743433826e-06)
(0 1.616329464e-05 -2.576674254e-06)
(0 1.452428565e-05 -2.384185979e-06)
(0 1.302344915e-05 -2.183121534e-06)
(0 1.165030304e-05 -1.981104206e-06)
(0 1.040294098e-05 -1.782898468e-06)
(0 9.271834362e-06 -1.594221879e-06)
(0 8.248406931e-06 -1.416027345e-06)
(0 7.332658316e-06 -1.249267713e-06)
(0 6.516012679e-06 -1.093943047e-06)
(0 5.78798795e-06 -9.529120761e-07)
(0 5.146678046e-06 -8.242689335e-07)
(0 4.585412842e-06 -7.061078378e-07)
(0 4.098474839e-06 -5.984287838e-07)
(0 3.684910943e-06 -5.002788325e-07)
(0 3.336145129e-06 -4.087992745e-07)
(0 3.049318644e-06 -3.24943018e-07)
(0 2.824431351e-06 -2.45851312e-07)
(0 2.656718828e-06 -1.753358194e-07)
(0 2.545228155e-06 -1.019615921e-07)
(0 2.49091213e-06 -3.430483423e-08)
)
;

boundaryField
{
    lowerWall
    {
        type            calculated;
        value           nonuniform List<vector> 
20
(
(0 8.014922019e-08 -8.099752477e-08)
(0 2.421529631e-07 -8.099752599e-08)
(0 4.075673112e-07 -8.099752477e-08)
(0 5.66160449e-07 -8.004461272e-08)
(0 7.264588894e-07 -7.909170185e-08)
(0 8.833467247e-07 -7.81387886e-08)
(0 1.035118652e-06 -7.432714038e-08)
(0 1.18006937e-06 -7.146840528e-08)
(0 1.323314784e-06 -6.95625801e-08)
(0 1.459738989e-06 -6.765675599e-08)
(0 1.592752589e-06 -6.384510872e-08)
(0 1.717239675e-06 -6.098637159e-08)
(0 1.831494947e-06 -5.622181131e-08)
(0 1.94745552e-06 -5.622181216e-08)
(0 2.053184279e-06 -5.145725103e-08)
(0 2.15379713e-06 -4.669269096e-08)
(0 2.242472863e-06 -4.288104278e-08)
(0 2.324327386e-06 -4.002230654e-08)
(0 2.404476606e-06 -3.906939448e-08)
(0 2.477804616e-06 -3.430483423e-08)
)
;
    }
    atmosphere
    {
        type            calculated;
        value           nonuniform 0();
    }
    rightWall
    {
        type            empty;
    }
    leftWall
    {
        type            empty;
    }
    frontAndBack
    {
        type            calculated;
        value           nonuniform List<vector> 
30
(
(0 8.576208505e-08 -1.863554635e-05)
(0 2.458513142e-07 -1.829789644e-05)
(0 3.859293827e-07 -1.764988147e-05)
(0 4.91702621e-07 -1.675630293e-05)
(0 5.641239457e-07 -1.568366762e-05)
(0 6.070049798e-07 -1.449507174e-05)
(0 6.184399244e-07 -1.325702208e-05)
(0 6.098637251e-07 -1.202408833e-05)
(0 5.898525627e-07 -1.081673412e-05)
(0 5.545948167e-07 -9.665654895e-06)
(0 5.13619606e-07 -8.598135494e-06)
(0 4.74550204e-07 -7.607354708e-06)
(0 4.316691614e-07 -6.70183905e-06)
(0 3.887881247e-07 -5.879883218e-06)
(0 3.506716367e-07 -5.144897815e-06)
(0 3.135080665e-07 -4.479829818e-06)
(0 2.801561487e-07 -3.889795133e-06)
(0 2.477571346e-07 -3.36115134e-06)
(0 2.21075597e-07 -2.895603742e-06)
(0 1.953469744e-07 -2.481215221e-06)
(0 1.734299942e-07 -2.112869868e-06)
(0 1.553246651e-07 -1.785451777e-06)
(0 1.372193381e-07 -1.49384504e-06)
(0 1.229256552e-07 -1.234639051e-06)
(0 1.105377985e-07 -1.002717904e-06)
(0 1.010086795e-07 -7.912603866e-07)
(0 9.433829356e-08 -5.985611976e-07)
(0 8.862082122e-08 -4.16093824e-07)
(0 8.290335013e-08 -2.455635683e-07)
(0 8.195043683e-08 -8.014922019e-08)
)
;
    }
    procBoundary1to0
    {
        type            processor;
        value           nonuniform List<vector> 
20
(
(0 2.921628377e-06 -1.875997973e-05)
(0 8.890669657e-06 -1.925454138e-05)
(0 1.524849879e-05 -2.028463903e-05)
(0 2.232196502e-05 -2.193127107e-05)
(0 3.055417276e-05 -2.435547972e-05)
(0 4.061597075e-05 -2.785266661e-05)
(0 5.362703202e-05 -3.298409806e-05)
(0 7.170091615e-05 -4.094472603e-05)
(0 9.89380005e-05 -5.459995524e-05)
(0 0.0001398731968 -0.0001206062678)
(0 9.332916151e-05 -6.951207711e-05)
(0 7.034206248e-05 2.465374083e-05)
(0 5.020321899e-05 6.975316282e-06)
(0 4.197863563e-05 1.099660534e-06)
(0 3.876446262e-05 -3.701110443e-06)
(0 3.850050615e-05 -8.392296554e-06)
(0 4.10266761e-05 -1.227350741e-05)
(0 4.79667346e-05 -1.739731557e-05)
(0 6.532402786e-05 -3.941625464e-05)
(0 8.284141047e-05 4.136305405e-05)
)
;
    }
    procBoundary1to3
    {
        type            processor;
        value           nonuniform List<vector> 
30
(
(0 1.519132407e-05 4.14497688e-05)
(0 3.172816044e-05 1.485780507e-05)
(0 3.233230621e-05 4.821735026e-06)
(0 3.046459857e-05 6.136753669e-07)
(0 2.828528911e-05 -1.267373059e-06)
(0 2.610312007e-05 -2.117370598e-06)
(0 2.396859706e-05 -2.474712621e-06)
(0 2.190458986e-05 -2.577627162e-06)
(0 1.99349203e-05 -2.546181025e-06)
(0 1.807197723e-05 -2.439454875e-06)
(0 1.632624258e-05 -2.29175354e-06)
(0 1.470629183e-05 -2.123088071e-06)
(0 1.321117281e-05 -1.945846427e-06)
(0 1.18380267e-05 -1.766698987e-06)
(0 1.058208843e-05 -1.591363141e-06)
(0 9.444311431e-06 -1.425556442e-06)
(0 8.411354883e-06 -1.268325971e-06)
(0 7.484171323e-06 -1.117765847e-06)
(0 6.654184918e-06 -9.814994222e-07)
(0 5.91567816e-06 -8.585737793e-07)
(0 5.263886222e-06 -7.404126709e-07)
(0 4.692138986e-06 -6.346394322e-07)
(0 4.196624777e-06 -5.383953222e-07)
(0 3.772578847e-06 -4.507274046e-07)
(0 3.420001385e-06 -3.697298794e-07)
(0 3.126504517e-06 -2.944498311e-07)
(0 2.895899752e-06 -2.248872463e-07)
(0 2.726281405e-06 -1.58183402e-07)
(0 2.610979085e-06 -9.43382954e-08)
(0 2.556663058e-06 -3.049318593e-08)
)
;
    }
}


// ************************************************************************* //
