/*--------------------------------*- C++ -*----------------------------------*\
  =========                 |
  \\      /  F ield         | OpenFOAM: The Open Source CFD Toolbox
   \\    /   O peration     | Website:  https://openfoam.org
    \\  /    A nd           | Version:  6
     \\/     M anipulation  |
\*---------------------------------------------------------------------------*/
FoamFile
{
    version     2.0;
    format      ascii;
    class       volVectorField;
    location    "0.0059";
    object      gradT;
}
// * * * * * * * * * * * * * * * * * * * * * * * * * * * * * * * * * * * * * //

dimensions      [0 -1 0 1 0 0 0];

internalField   nonuniform List<vector> 
9600
(
(0 1.549816149e-05 0.00024810018)
(0 4.524807825e-05 0.0002439912379)
(0 7.351907007e-05 0.0002362192726)
(0 9.941921945e-05 0.0002254818597)
(0 0.0001225140031 0.0002126061249)
(0 0.0001426356865 0.0001983772295)
(0 0.0001598185965 0.0001834774967)
(0 0.0001742418837 0.0001684253082)
(0 0.0001861532738 0.0001536132333)
(0 0.0001958348601 0.0001393157409)
(0 0.0002035496483 0.0001257195994)
(0 0.0002095567936 0.0001129238889)
(0 0.0002140964666 0.0001009896185)
(0 0.0002173668737 8.992059758e-05)
(0 0.0002195433118 7.971681001e-05)
(0 0.0002207744742 7.034015549e-05)
(0 0.0002212090153 6.176395079e-05)
(0 0.0002209536216 5.393101008e-05)
(0 0.0002201036241 4.679560469e-05)
(0 0.0002187428788 4.03234285e-05)
(0 0.0002169552027 3.445348789e-05)
(0 0.0002147863749 2.914386198e-05)
(0 0.0002123088163 2.434499838e-05)
(0 0.0002095644169 2.002639953e-05)
(0 0.0002065951429 1.613470674e-05)
(0 0.0002034314872 1.263561447e-05)
(0 0.0002001115294 9.498627262e-06)
(0 0.0001966657994 6.685630906e-06)
(0 0.0001931057316 4.166131709e-06)
(0 0.0001894694077 1.92488233e-06)
(0 0.0001857644856 -7.24213154e-08)
(0 0.0001820176464 -1.837214532e-06)
(0 0.0001782402921 -3.407613472e-06)
(0 0.0001744438906 -4.791241761e-06)
(0 0.000170628441 -6.014781187e-06)
(0 0.0001668282175 -7.078230668e-06)
(0 0.0001630318159 -7.996837879e-06)
(0 0.0001592582938 -8.804907821e-06)
(0 0.000155511434 -9.491003965e-06)
(0 0.0001517988887 -1.008180943e-05)
(0 0.0001481168455 -1.057732433e-05)
(0 0.0001444881475 -1.0996605e-05)
(0 0.0001408899516 -1.133203004e-05)
(0 0.0001373413154 -1.161028105e-05)
(0 0.0001338612724 -1.18351676e-05)
(0 0.0001304155424 -1.198763352e-05)
(0 0.0001270422414 -1.210198369e-05)
(0 0.0001237222882 -1.216296934e-05)
(0 0.0001204557057 -1.220108582e-05)
(0 0.00011725774 -1.219346326e-05)
(0 0.0001141207465 -1.215153439e-05)
(0 0.0001110409347 -1.209054802e-05)
(0 0.0001080259275 -1.200288084e-05)
(0 0.000105068082 -1.189234232e-05)
(0 0.0001021826644 -1.175512298e-05)
(0 9.935442739e-05 -1.161028105e-05)
(0 9.65909765e-05 -1.144637948e-05)
(0 9.388851794e-05 -1.127866696e-05)
(0 9.124705123e-05 -1.109189687e-05)
(0 8.867799488e-05 -1.089750214e-05)
(0 8.616611873e-05 -1.069929644e-05)
(0 8.371142233e-05 -1.048965642e-05)
(0 8.131770225e-05 -1.027620349e-05)
(0 7.898497356e-05 -1.00475046e-05)
(0 7.67094242e-05 -9.826429595e-06)
(0 7.449866365e-05 -9.605353411e-06)
(0 7.233745914e-05 -9.372842872e-06)
(0 7.022962191e-05 -9.14414453e-06)
(0 6.819419757e-05 -8.91544509e-06)
(0 6.620451722e-05 -8.690557848e-06)
(0 6.42682038e-05 -8.458047816e-06)
(0 6.239286904e-05 -8.22553677e-06)
(0 6.056327791e-05 -8.000649527e-06)
(0 5.878324174e-05 -7.760516158e-06)
(0 5.706799653e-05 -7.535628449e-06)
(0 5.539468298e-05 -7.306929559e-06)
(0 5.376711244e-05 -7.08585439e-06)
(0 5.219289851e-05 -6.872401666e-06)
(0 5.067205089e-05 -6.651326072e-06)
(0 4.9196946e-05 -6.434062512e-06)
(0 4.777138662e-05 -6.232044772e-06)
(0 4.639156998e-05 -6.022404122e-06)
(0 4.504606088e-05 -5.81657547e-06)
(0 4.374628615e-05 -5.614557767e-06)
(0 4.248844225e-05 -5.416352062e-06)
(0 4.12839639e-05 -5.21814667e-06)
(0 4.011759708e-05 -5.027563948e-06)
(0 3.900078417e-05 -4.836981539e-06)
(0 3.791065506e-05 -4.646399409e-06)
(0 3.687388448e-05 -4.471063314e-06)
(0 3.587523266e-05 -4.291915849e-06)
(0 3.491088776e-05 -4.11658028e-06)
(0 3.398846681e-05 -3.937432569e-06)
(0 3.309654114e-05 -3.765908401e-06)
(0 3.224654553e-05 -3.602007745e-06)
(0 3.143466253e-05 -3.434295009e-06)
(0 3.066089795e-05 -3.270394137e-06)
(0 2.992144e-05 -3.110305101e-06)
(0 2.922390659e-05 -2.954027339e-06)
(0 2.854924486e-05 -2.801561411e-06)
(0 2.791270129e-05 -2.652907292e-06)
(0 2.731427085e-05 -2.496629557e-06)
(0 2.675014692e-05 -2.355598574e-06)
(0 2.62127061e-05 -2.206944428e-06)
(0 2.571719026e-05 -2.062101665e-06)
(0 2.524454589e-05 -1.921070682e-06)
(0 2.480620784e-05 -1.780039806e-06)
(0 2.440598329e-05 -1.642820365e-06)
(0 2.403244177e-05 -1.505601031e-06)
(0 2.36855832e-05 -1.372193427e-06)
(0 2.338827323e-05 -1.231162362e-06)
(0 2.311002291e-05 -1.101566324e-06)
(0 2.28660788e-05 -9.643470471e-07)
(0 2.264881348e-05 -8.30939303e-07)
(0 2.246585437e-05 -7.013432649e-07)
(0 2.230576648e-05 -5.755589095e-07)
(0 2.21837924e-05 -4.497744851e-07)
(0 2.209612449e-05 -3.20178447e-07)
(0 2.20313278e-05 -1.905824204e-07)
(0 2.200083329e-05 -6.479801904e-08)
(0 1.372193344e-05 0.00021373436)
(0 4.01023529e-05 0.0002106011978)
(0 6.544599923e-05 0.0002046130859)
(0 8.903628981e-05 0.0001962350832)
(0 0.0001104653825 0.0001860122539)
(0 0.0001295579216 0.0001745239352)
(0 0.0001462415057 0.0001622847329)
(0 0.0001605885591 0.0001497329844)
(0 0.0001727477071 0.0001372155228)
(0 0.0001828943146 0.0001249801321)
(0 0.0001912342123 0.0001132059577)
(0 0.0001979617598 0.0001020187635)
(0 0.0002032561391 9.148717959e-05)
(0 0.0002073041219 8.165694383e-05)
(0 0.0002102581368 7.253185319e-05)
(0 0.0002122363822 6.410429907e-05)
(0 0.0002133798895 5.635141006e-05)
(0 0.0002138067813 4.925030612e-05)
(0 0.0002135895173 4.276288092e-05)
(0 0.0002128233888 3.68510168e-05)
(0 0.0002115845904 3.147277901e-05)
(0 0.0002099341467 2.660149264e-05)
(0 0.000207921609 2.219141703e-05)
(0 0.0002056079261 1.820062005e-05)
(0 0.0002030274402 1.460623582e-05)
(0 0.0002002297025 1.13701472e-05)
(0 0.00019724517 8.465670605e-06)
(0 0.0001940891253 5.858503251e-06)
(0 0.000190803496 3.51815148e-06)
(0 0.000187418741 1.440803012e-06)
(0 0.0001839463295 -4.192812997e-07)
(0 0.0001803938842 -2.073536734e-06)
(0 0.0001768109241 -3.533397862e-06)
(0 0.000173182235 -4.829358243e-06)
(0 0.0001695230629 -5.961418109e-06)
(0 0.0001658638705 -6.944822982e-06)
(0 0.0001621932533 -7.817690415e-06)
(0 0.0001585302689 -8.572397268e-06)
(0 0.0001548863237 -9.216565296e-06)
(0 0.0001512690696 -9.769254282e-06)
(0 0.0001476746943 -1.023808762e-05)
(0 0.0001441222293 -1.062306347e-05)
(0 0.0001405926431 -1.094324192e-05)
(0 0.0001371049932 -1.119862302e-05)
(0 0.0001336668783 -1.14006397e-05)
(0 0.0001302935697 -1.154929398e-05)
(0 0.0001269507619 -1.165602083e-05)
(0 0.0001236765485 -1.172081815e-05)
(0 0.0001204480824 -1.174368804e-05)
(0 0.0001172767982 -1.17398771e-05)
(0 0.0001141664863 -1.170557156e-05)
(0 0.0001111133561 -1.164458519e-05)
(0 0.0001081250304 -1.155691797e-05)
(0 0.0001051900548 -1.145019113e-05)
(0 0.0001023122604 -1.132440674e-05)
(0 9.950308168e-05 -1.118718808e-05)
(0 9.675106572e-05 -1.103472148e-05)
(0 9.406004211e-05 -1.086319731e-05)
(0 9.143763365e-05 -1.068786213e-05)
(0 8.886857729e-05 -1.050109073e-05)
(0 8.636813608e-05 -1.030669668e-05)
(0 8.391343969e-05 -1.010849158e-05)
(0 8.153877784e-05 -9.906473617e-06)
(0 7.920223751e-05 -9.693021319e-06)
(0 7.693049981e-05 -9.475757941e-06)
(0 7.471973925e-05 -9.262305074e-06)
(0 7.255853473e-05 -9.04122948e-06)
(0 7.045450916e-05 -8.827777712e-06)
(0 6.841527316e-05 -8.60288994e-06)
(0 6.643321611e-05 -8.381814345e-06)
(0 6.449309105e-05 -8.156927592e-06)
(0 6.262156793e-05 -7.935851508e-06)
(0 6.078435351e-05 -7.718587562e-06)
(0 5.901194064e-05 -7.501324066e-06)
(0 5.728526048e-05 -7.280248021e-06)
(0 5.561194693e-05 -7.066795723e-06)
(0 5.398818804e-05 -6.853343837e-06)
(0 5.240635081e-05 -6.643702776e-06)
(0 5.088550319e-05 -6.430250478e-06)
(0 4.940277501e-05 -6.224421849e-06)
(0 4.797340398e-05 -6.022404122e-06)
(0 4.659358734e-05 -5.824198417e-06)
(0 4.52442666e-05 -5.629804698e-06)
(0 4.394068021e-05 -5.435410303e-06)
(0 4.26904596e-05 -5.244827894e-06)
(0 4.147073467e-05 -5.05043414e-06)
(0 4.030817949e-05 -4.867474724e-06)
(0 3.918374328e-05 -4.684515612e-06)
(0 3.809361418e-05 -4.505368418e-06)
(0 3.705303195e-05 -4.330032331e-06)
(0 3.605056847e-05 -4.154696515e-06)
(0 3.507478865e-05 -3.983172586e-06)
(0 3.415999098e-05 -3.819271475e-06)
(0 3.326425366e-05 -3.651558955e-06)
(0 3.241806971e-05 -3.487658293e-06)
(0 3.15985634e-05 -3.32756886e-06)
(0 3.081717553e-05 -3.167479637e-06)
(0 3.007390594e-05 -3.018825539e-06)
(0 2.937637251e-05 -2.862547782e-06)
(0 2.869789914e-05 -2.713893503e-06)
(0 2.806135558e-05 -2.565239378e-06)
(0 2.746292513e-05 -2.42801989e-06)
(0 2.68911779e-05 -2.279365611e-06)
(0 2.635754874e-05 -2.142146405e-06)
(0 2.585822124e-05 -2.004926942e-06)
(0 2.538176522e-05 -1.860084311e-06)
(0 2.494342718e-05 -1.726676729e-06)
(0 2.453939098e-05 -1.593268939e-06)
(0 2.416584945e-05 -1.459861252e-06)
(0 2.382280255e-05 -1.326453646e-06)
(0 2.352168091e-05 -1.196857528e-06)
(0 2.324343059e-05 -1.06726149e-06)
(0 2.299186319e-05 -9.376655082e-07)
(0 2.278222116e-05 -8.156927103e-07)
(0 2.259163876e-05 -6.860966722e-07)
(0 2.243155088e-05 -5.565006675e-07)
(0 2.230957679e-05 -4.307162442e-07)
(0 2.222190888e-05 -3.125551507e-07)
(0 2.215711219e-05 -1.86770772e-07)
(0 2.212661768e-05 -6.098637086e-08)
(0 1.234592853e-05 0.0001825283974)
(0 3.613442712e-05 0.0001801080116)
(0 5.91415335e-05 0.0001754501667)
(0 8.081837682e-05 0.0001688522037)
(0 0.0001008028544 0.0001607105328)
(0 0.0001189119889 0.0001514444063)
(0 0.0001350276375 0.0001414426415)
(0 0.0001491688613 0.0001310482847)
(0 0.0001614004315 0.0001205509977)
(0 0.0001718214776 0.0001101833146)
(0 0.0001805844677 0.0001001091344)
(0 0.000187841835 9.045803512e-05)
(0 0.0001937346431 8.130626779e-05)
(0 0.0001984115474 7.269957051e-05)
(0 0.0002019906732 6.465698844e-05)
(0 0.0002045978405 5.719378127e-05)
(0 0.0002063588344 5.030613598e-05)
(0 0.0002073612855 4.396355036e-05)
(0 0.0002077081455 3.815078685e-05)
(0 0.0002074527775 3.283735123e-05)
(0 0.0002066980587 2.799655604e-05)
(0 0.0002055088244 2.359410237e-05)
(0 0.0002039079444 1.959949623e-05)
(0 0.0002019868615 1.598224091e-05)
(0 0.000199760859 1.271947005e-05)
(0 0.0001972832995 9.773066575e-06)
(0 0.0001946036989 7.127782137e-06)
(0 0.0001917259045 4.741690363e-06)
(0 0.0001886842206 2.614790823e-06)
(0 0.0001855281646 7.127782137e-07)
(0 0.0001822615821 -9.83405236e-07)
(0 0.0001789035307 -2.492818073e-06)
(0 0.0001754844716 -3.830706443e-06)
(0 0.00017201206 -5.012317385e-06)
(0 0.0001685053538 -6.052897707e-06)
(0 0.0001649719458 -6.967692913e-06)
(0 0.0001614080547 -7.760515739e-06)
(0 0.0001578594197 -8.45042457e-06)
(0 0.0001543069541 -9.045041183e-06)
(0 0.0001507811796 -9.551990393e-06)
(0 0.0001472668488 -9.975083942e-06)
(0 0.0001437753702 -1.033337827e-05)
(0 0.0001403182052 -1.062687519e-05)
(0 0.0001368839184 -1.085938638e-05)
(0 0.0001335029783 -1.103472154e-05)
(0 0.0001301677861 -1.117194088e-05)
(0 0.0001268783413 -1.126342111e-05)
(0 0.0001236308094 -1.131678351e-05)
(0 0.0001204328366 -1.134346505e-05)
(0 0.0001172996688 -1.132821914e-05)
(0 0.0001142160384 -1.129391362e-05)
(0 0.0001111895897 -1.122530395e-05)
(0 0.0001082203222 -1.114144836e-05)
(0 0.0001053005932 -1.103853319e-05)
(0 0.0001024456687 -1.092418375e-05)
(0 9.964792491e-05 -1.077934176e-05)
(0 9.690734388e-05 -1.063068683e-05)
(0 9.423156684e-05 -1.047059761e-05)
(0 9.161297002e-05 -1.030288571e-05)
(0 8.905916023e-05 -1.011992598e-05)
(0 8.655871901e-05 -9.929343565e-06)
(0 8.411164591e-05 -9.73876174e-06)
(0 8.174079568e-05 -9.544367097e-06)
(0 7.941187863e-05 -9.342349742e-06)
(0 7.714014093e-05 -9.140332936e-06)
(0 7.492938035e-05 -8.930691736e-06)
(0 7.277579911e-05 -8.724862734e-06)
(0 7.067177355e-05 -8.511410945e-06)
(0 6.863253752e-05 -8.294146487e-06)
(0 6.664666881e-05 -8.084505836e-06)
(0 6.471416705e-05 -7.874865657e-06)
(0 6.283120896e-05 -7.661412885e-06)
(0 6.100161782e-05 -7.455583882e-06)
(0 5.922539331e-05 -7.242132018e-06)
(0 5.750252477e-05 -7.028679284e-06)
(0 5.582539956e-05 -6.822850281e-06)
(0 5.418639409e-05 -6.613210027e-06)
(0 5.261599178e-05 -6.415003923e-06)
(0 5.10913325e-05 -6.212986569e-06)
(0 4.960098102e-05 -6.018592872e-06)
(0 4.817160997e-05 -5.820386804e-06)
(0 4.678035838e-05 -5.633616042e-06)
(0 4.543484929e-05 -5.443033959e-06)
(0 4.413888618e-05 -5.260074518e-06)
(0 4.287341897e-05 -5.06568046e-06)
(0 4.16575057e-05 -4.886533288e-06)
(0 4.049113885e-05 -4.703573881e-06)
(0 3.935907933e-05 -4.528238064e-06)
(0 3.826513859e-05 -4.364337453e-06)
(0 3.722455634e-05 -4.181378077e-06)
(0 3.622209286e-05 -4.021288853e-06)
(0 3.524250139e-05 -3.849764915e-06)
(0 3.432008041e-05 -3.685863811e-06)
(0 3.342815473e-05 -3.533397883e-06)
(0 3.257434749e-05 -3.373308861e-06)
(0 3.175102952e-05 -3.22084273e-06)
(0 3.097345329e-05 -3.072188451e-06)
(0 3.022637205e-05 -2.919722698e-06)
(0 2.951740367e-05 -2.778691539e-06)
(0 2.884655359e-05 -2.633848907e-06)
(0 2.820238674e-05 -2.492818073e-06)
(0 2.760395628e-05 -2.347975292e-06)
(0 2.703602069e-05 -2.214567605e-06)
(0 2.649476824e-05 -2.073536746e-06)
(0 2.599544074e-05 -1.940128935e-06)
(0 2.551898471e-05 -1.806721248e-06)
(0 2.507683502e-05 -1.669502012e-06)
(0 2.466898716e-05 -1.543717522e-06)
(0 2.429544564e-05 -1.414121483e-06)
(0 2.395239874e-05 -1.284525521e-06)
(0 2.364746544e-05 -1.154929405e-06)
(0 2.336921512e-05 -1.032956663e-06)
(0 2.312145938e-05 -9.109839749e-07)
(0 2.290419404e-05 -7.851995295e-07)
(0 2.271742328e-05 -6.632267871e-07)
(0 2.255352376e-05 -5.450657255e-07)
(0 2.243536131e-05 -4.230929504e-07)
(0 2.234769341e-05 -3.011202079e-07)
(0 2.227908508e-05 -1.791474762e-07)
(0 2.22447789e-05 -6.098637123e-08)
(0 1.127866696e-05 0.0001537771341)
(0 3.30241218e-05 0.0001518903774)
(0 5.419401381e-05 0.0001482464326)
(0 7.42966463e-05 0.0001430511561)
(0 9.305758422e-05 0.0001365751741)
(0 0.0001102824168 0.000129131017)
(0 0.0001258453763 0.0001210122064)
(0 0.0001396969141 0.0001124855562)
(0 0.0001518865566 0.0001037911799)
(0 0.0001624600687 9.51196803e-05)
(0 0.0001715089317 8.663114501e-05)
(0 0.0001791474644 7.842847293e-05)
(0 0.0001855014819 7.059553592e-05)
(0 0.0001906548417 6.317807235e-05)
(0 0.0001947561637 5.622562229e-05)
(0 0.0001978855268 4.973819709e-05)
(0 0.0002001458462 4.371960723e-05)
(0 0.0002016514353 3.815840992e-05)
(0 0.000202467128 3.305080136e-05)
(0 0.0002026691575 2.83624758e-05)
(0 0.0002023413436 2.408199319e-05)
(0 0.0002015370858 2.017886546e-05)
(0 0.0002003059355 1.663403365e-05)
(0 0.0001987279011 1.341700159e-05)
(0 0.0001968182654 1.050109073e-05)
(0 0.0001946380143 7.878677258e-06)
(0 0.0001922099827 5.507831618e-06)
(0 0.0001895799455 3.380931935e-06)
(0 0.0001867745836 1.475107934e-06)
(0 0.0001838167334 -2.325105389e-07)
(0 0.0001807369217 -1.75716981e-06)
(0 0.0001775465828 -3.106493452e-06)
(0 0.000174287613 -4.303350794e-06)
(0 0.0001709600441 -5.366800636e-06)
(0 0.0001675714989 -6.300654818e-06)
(0 0.0001641600638 -7.11634715e-06)
(0 0.0001607105222 -7.829125359e-06)
(0 0.0001572457434 -8.446612871e-06)
(0 0.0001537923807 -8.972619813e-06)
(0 0.0001503352158 -9.422394298e-06)
(0 0.0001468894947 -9.803559704e-06)
(0 0.0001434666258 -1.012373756e-05)
(0 0.0001400704473 -1.038292964e-05)
(0 0.0001366933352 -1.058494763e-05)
(0 0.0001333581348 -1.074122457e-05)
(0 0.0001300648708 -1.085176237e-05)
(0 0.0001268059192 -1.092418434e-05)
(0 0.0001235965038 -1.096611181e-05)
(0 0.0001204366475 -1.097373511e-05)
(0 0.000117322538 -1.095848917e-05)
(0 0.0001142694008 -1.091274874e-05)
(0 0.0001112620103 -1.085176237e-05)
(0 0.0001083156128 -1.076790675e-05)
(0 0.0001054111304 -1.06649916e-05)
(0 0.0001025714525 -1.053920721e-05)
(0 9.978895531e-05 -1.04096118e-05)
(0 9.706362087e-05 -1.026476855e-05)
(0 9.439546715e-05 -1.010849097e-05)
(0 9.1780682e-05 -9.93315575e-06)
(0 8.923830716e-05 -9.761630986e-06)
(0 8.674548925e-05 -9.590106818e-06)
(0 8.430603948e-05 -9.399524973e-06)
(0 8.19313776e-05 -9.205130352e-06)
(0 7.961008386e-05 -9.018359591e-06)
(0 7.734215784e-05 -8.820154415e-06)
(0 7.513139725e-05 -8.618136532e-06)
(0 7.298543933e-05 -8.419930827e-06)
(0 7.088141379e-05 -8.214102318e-06)
(0 6.884217776e-05 -8.008272824e-06)
(0 6.68601207e-05 -7.798632174e-06)
(0 6.491618403e-05 -7.596615276e-06)
(0 6.303703758e-05 -7.398409115e-06)
(0 6.120744645e-05 -7.192580113e-06)
(0 5.943503362e-05 -6.990563179e-06)
(0 5.770454178e-05 -6.796168703e-06)
(0 5.602360493e-05 -6.590339701e-06)
(0 5.439222277e-05 -6.395946028e-06)
(0 5.281419717e-05 -6.193928291e-06)
(0 5.12819146e-05 -6.00715753e-06)
(0 4.97953748e-05 -5.81657547e-06)
(0 4.836219209e-05 -5.62980436e-06)
(0 4.696712886e-05 -5.443033599e-06)
(0 4.561780814e-05 -5.263886451e-06)
(0 4.431803337e-05 -5.080927022e-06)
(0 4.305637783e-05 -4.905591206e-06)
(0 4.184427622e-05 -4.730255674e-06)
(0 4.065885112e-05 -4.554919574e-06)
(0 3.952679161e-05 -4.387207054e-06)
(0 3.843666254e-05 -4.215683139e-06)
(0 3.739226863e-05 -4.051782014e-06)
(0 3.638599351e-05 -3.887881142e-06)
(0 3.541021371e-05 -3.727792143e-06)
(0 3.448016943e-05 -3.571514344e-06)
(0 3.358062046e-05 -3.415236768e-06)
(0 3.272300158e-05 -3.270394334e-06)
(0 3.189968361e-05 -3.11792821e-06)
(0 3.111829573e-05 -2.976897228e-06)
(0 3.037121451e-05 -2.835866415e-06)
(0 2.966224613e-05 -2.691023614e-06)
(0 2.89875844e-05 -2.55380428e-06)
(0 2.834341756e-05 -2.412773442e-06)
(0 2.77373638e-05 -2.279365611e-06)
(0 2.716942822e-05 -2.149769573e-06)
(0 2.662817577e-05 -2.012550359e-06)
(0 2.612503662e-05 -1.886765849e-06)
(0 2.565239224e-05 -1.75716981e-06)
(0 2.521024257e-05 -1.62757387e-06)
(0 2.479858305e-05 -1.494166086e-06)
(0 2.442504153e-05 -1.368381696e-06)
(0 2.407818299e-05 -1.242597381e-06)
(0 2.376943804e-05 -1.124436213e-06)
(0 2.348737608e-05 -1.002463471e-06)
(0 2.323962034e-05 -8.804907821e-07)
(0 2.30299783e-05 -7.585179876e-07)
(0 2.283558424e-05 -6.441685422e-07)
(0 2.267549638e-05 -5.221958318e-07)
(0 2.255352227e-05 -4.078463551e-07)
(0 2.245823107e-05 -2.896852616e-07)
(0 2.239724604e-05 -1.791474752e-07)
(0 2.237056316e-05 -6.098637086e-08)
(0 1.044010436e-05 0.0001269088261)
(0 3.059991342e-05 0.0001254451607)
(0 5.030232102e-05 0.0001226016637)
(0 6.914710961e-05 0.0001185346351)
(0 8.68903371e-05 0.0001134346566)
(0 0.0001033490287 0.0001075113485)
(0 0.0001183821691 0.0001009972418)
(0 0.0001319478329 9.410578753e-05)
(0 0.0001440307497 8.700849298e-05)
(0 0.0001546614365 7.988833418e-05)
(0 0.0001638932582 7.285965931e-05)
(0 0.0001718024184 6.602536975e-05)
(0 0.0001784956726 5.945408829e-05)
(0 0.0001840416317 5.321442342e-05)
(0 0.0001885431772 4.732161214e-05)
(0 0.0001920956333 4.180234558e-05)
(0 0.0001947790453 3.666805768e-05)
(0 0.0001966886693 3.191111855e-05)
(0 0.0001979083967 2.751247655e-05)
(0 0.0001984877792 2.347975419e-05)
(0 0.0001985182604 1.97786424e-05)
(0 0.000198057051 1.640152211e-05)
(0 0.0001971422673 1.332171118e-05)
(0 0.00019585773 1.052777227e-05)
(0 0.0001942263446 7.996837879e-06)
(0 0.0001922938505 5.709849314e-06)
(0 0.0001901021413 3.643935659e-06)
(0 0.000187689368 1.791474644e-06)
(0 0.0001850745884 1.21972749e-07)
(0 0.0001822958858 -1.372193344e-06)
(0 0.0001793875982 -2.698646911e-06)
(0 0.0001763573485 -3.87644643e-06)
(0 0.0001732279748 -4.932272743e-06)
(0 0.000170018567 -5.850879954e-06)
(0 0.0001667519945 -6.666573065e-06)
(0 0.0001634434739 -7.379350874e-06)
(0 0.0001600816002 -7.996837879e-06)
(0 0.0001567121126 -8.534280784e-06)
(0 0.0001533273596 -8.995489702e-06)
(0 0.0001499502394 -9.388089464e-06)
(0 0.0001465655046 -9.712080142e-06)
(0 0.0001431998104 -9.98270658e-06)
(0 0.000139856995 -1.019615888e-05)
(0 0.0001365256227 -1.036768367e-05)
(0 0.0001332399737 -1.049346744e-05)
(0 0.0001299848262 -1.058113534e-05)
(0 0.0001267563678 -1.063449906e-05)
(0 0.0001235812573 -1.066117996e-05)
(0 0.0001204442708 -1.065355666e-05)
(0 0.0001173644661 -1.061925246e-05)
(0 0.0001143227638 -1.056588875e-05)
(0 0.0001113344317 -1.050109073e-05)
(0 0.0001084032807 -1.04172351e-05)
(0 0.0001055331031 -1.030669668e-05)
(0 0.0001026972369 -1.018472393e-05)
(0 9.992617465e-05 -1.00551285e-05)
(0 9.72160868e-05 -9.910285265e-06)
(0 9.455555637e-05 -9.750196041e-06)
(0 9.195220618e-05 -9.590107393e-06)
(0 8.941364298e-05 -9.41858265e-06)
(0 8.692082507e-05 -9.243246834e-06)
(0 8.449281025e-05 -9.067911561e-06)
(0 8.211814836e-05 -8.881140257e-06)
(0 7.980447792e-05 -8.694369496e-06)
(0 7.753655191e-05 -8.503787597e-06)
(0 7.532960296e-05 -8.313204678e-06)
(0 7.317602174e-05 -8.114998973e-06)
(0 7.108343115e-05 -7.920605391e-06)
(0 6.904800676e-05 -7.730022507e-06)
(0 6.705832641e-05 -7.531816801e-06)
(0 6.511820139e-05 -7.333611536e-06)
(0 6.323524329e-05 -7.135405391e-06)
(0 6.140565216e-05 -6.941011334e-06)
(0 5.962561604e-05 -6.742806033e-06)
(0 5.789893584e-05 -6.552223219e-06)
(0 5.622181064e-05 -6.365452459e-06)
(0 5.458661684e-05 -6.17487042e-06)
(0 5.300477957e-05 -5.988099289e-06)
(0 5.146868536e-05 -5.801328528e-06)
(0 4.998214557e-05 -5.618369753e-06)
(0 4.854515121e-05 -5.431598655e-06)
(0 4.714627632e-05 -5.256262839e-06)
(0 4.579314397e-05 -5.080927327e-06)
(0 4.449336919e-05 -4.905591206e-06)
(0 4.323171364e-05 -4.737878686e-06)
(0 4.20081771e-05 -4.570166441e-06)
(0 4.083418694e-05 -4.402453647e-06)
(0 3.969450413e-05 -4.234741127e-06)
(0 3.860056342e-05 -4.074652148e-06)
(0 3.755616951e-05 -3.918374328e-06)
(0 3.654227109e-05 -3.758285104e-06)
(0 3.556267964e-05 -3.605819393e-06)
(0 3.463263535e-05 -3.457164898e-06)
(0 3.372927473e-05 -3.308510619e-06)
(0 3.286784422e-05 -3.15985653e-06)
(0 3.204452624e-05 -3.018825358e-06)
(0 3.125932671e-05 -2.881606023e-06)
(0 3.05122455e-05 -2.740575205e-06)
(0 2.979946546e-05 -2.603355706e-06)
(0 2.912099209e-05 -2.46994802e-06)
(0 2.84806369e-05 -2.336540474e-06)
(0 2.786695984e-05 -2.210755944e-06)
(0 2.73028359e-05 -2.077348257e-06)
(0 2.675777182e-05 -1.951563985e-06)
(0 2.625082101e-05 -1.821967829e-06)
(0 2.577817663e-05 -1.703806736e-06)
(0 2.533602696e-05 -1.578022441e-06)
(0 2.492436744e-05 -1.452237956e-06)
(0 2.454701427e-05 -1.326453566e-06)
(0 2.420396739e-05 -1.212104194e-06)
(0 2.388759914e-05 -1.086319731e-06)
(0 2.361316047e-05 -9.719702856e-07)
(0 2.336159309e-05 -8.499975949e-07)
(0 2.314432774e-05 -7.356480985e-07)
(0 2.295374533e-05 -6.212986531e-07)
(0 2.278603418e-05 -5.069492382e-07)
(0 2.266787172e-05 -3.925997624e-07)
(0 2.257639216e-05 -2.820619652e-07)
(0 2.250778385e-05 -1.715241783e-07)
(0 2.248491261e-05 -5.717472268e-08)
(0 9.795935878e-06 0.0001015232499)
(0 2.872077092e-05 0.0001004026313)
(0 4.727968429e-05 9.821855086e-05)
(0 6.512582117e-05 9.507775274e-05)
(0 8.203429752e-05 9.111745573e-05)
(0 9.785263263e-05 8.650154429e-05)
(0 0.0001124283754 8.138250075e-05)
(0 0.0001257119769 7.592041344e-05)
(0 0.0001376729214 7.027916954e-05)
(0 0.0001483074199 6.456932054e-05)
(0 0.0001576459674 5.889759155e-05)
(0 0.0001657457104 5.335926318e-05)
(0 0.0001726829101 4.801152075e-05)
(0 0.0001785261775 4.289629144e-05)
(0 0.0001833479018 3.805549565e-05)
(0 0.0001872319713 3.350057604e-05)
(0 0.0001902508081 2.923915511e-05)
(0 0.0001924958575 2.528266252e-05)
(0 0.0001940357634 2.162348025e-05)
(0 0.000194935324 1.825017268e-05)
(0 0.0001952631141 1.51513016e-05)
(0 0.000195080155 1.231543534e-05)
(0 0.0001944398097 9.727326794e-06)
(0 0.0001933915948 7.37553927e-06)
(0 0.0001920003432 5.237204629e-06)
(0 0.0001902851129 3.304699189e-06)
(0 0.0001882954212 1.566587411e-06)
(0 0.0001860617953 0)
(0 0.0001836071049 -1.406498271e-06)
(0 0.0001809999265 -2.668153741e-06)
(0 0.000178221235 -3.792589961e-06)
(0 0.0001753243929 -4.795053725e-06)
(0 0.0001723131803 -5.67935582e-06)
(0 0.0001692219336 -6.456932054e-06)
(0 0.0001660430289 -7.143029158e-06)
(0 0.0001628259879 -7.745269146e-06)
(0 0.0001595517821 -8.263653301e-06)
(0 0.0001562547158 -8.709616663e-06)
(0 0.0001529423841 -9.094592609e-06)
(0 0.0001496186269 -9.407147762e-06)
(0 0.0001462910668 -9.681587013e-06)
(0 0.0001429825473 -9.89885038e-06)
(0 0.0001396854716 -1.007037455e-05)
(0 0.0001363960274 -1.01999712e-05)
(0 0.0001331446833 -1.029907344e-05)
(0 0.000129920029 -1.035624816e-05)
(0 0.000126729687 -1.038674197e-05)
(0 0.0001235850696 -1.0390553e-05)
(0 0.0001204709531 -1.036768311e-05)
(0 0.000117406395 -1.032194395e-05)
(0 0.0001143913742 -1.026095696e-05)
(0 0.0001114144769 -1.018091235e-05)
(0 0.0001085061959 -1.00818101e-05)
(0 0.0001056398299 -9.978894992e-06)
(0 0.0001028306452 -9.853110601e-06)
(0 0.0001000633946 -9.712080201e-06)
(0 9.736093001e-05 -9.571048634e-06)
(0 9.471564616e-05 -9.418582706e-06)
(0 9.211991926e-05 -9.254682389e-06)
(0 8.958135604e-05 -9.098404257e-06)
(0 8.709997306e-05 -8.919256792e-06)
(0 8.466814658e-05 -8.747733148e-06)
(0 8.230110797e-05 -8.572396806e-06)
(0 7.998743751e-05 -8.389437692e-06)
(0 7.772713479e-05 -8.202667422e-06)
(0 7.552018582e-05 -8.015896168e-06)
(0 7.337422788e-05 -7.832937054e-06)
(0 7.127020235e-05 -7.638543454e-06)
(0 6.923858958e-05 -7.447960586e-06)
(0 6.724509757e-05 -7.257378176e-06)
(0 6.53164075e-05 -7.070607838e-06)
(0 6.342963772e-05 -6.880025004e-06)
(0 6.159623494e-05 -6.693254242e-06)
(0 5.981619882e-05 -6.506483871e-06)
(0 5.808951859e-05 -6.319712718e-06)
(0 5.640477009e-05 -6.140565253e-06)
(0 5.47695763e-05 -5.957606497e-06)
(0 5.318773901e-05 -5.778458674e-06)
(0 5.164783313e-05 -5.59549956e-06)
(0 5.016510499e-05 -5.423975716e-06)
(0 4.872811061e-05 -5.244827925e-06)
(0 4.731780078e-05 -5.069492108e-06)
(0 4.596848007e-05 -4.897968233e-06)
(0 4.466108198e-05 -4.734067066e-06)
(0 4.339561478e-05 -4.566354546e-06)
(0 4.216826659e-05 -4.406265585e-06)
(0 4.099808806e-05 -4.253799393e-06)
(0 3.98545936e-05 -4.093710169e-06)
(0 3.875684124e-05 -3.929809532e-06)
(0 3.770863566e-05 -3.777343368e-06)
(0 3.669473724e-05 -3.628689088e-06)
(0 3.571514579e-05 -3.483846665e-06)
(0 3.477747819e-05 -3.335192176e-06)
(0 3.387411757e-05 -3.194161193e-06)
(0 3.300506376e-05 -3.056942041e-06)
(0 3.218555741e-05 -2.919722522e-06)
(0 3.140035789e-05 -2.782503187e-06)
(0 3.064184173e-05 -2.649095659e-06)
(0 2.993668498e-05 -2.515687813e-06)
(0 2.925439995e-05 -2.386091774e-06)
(0 2.860260982e-05 -2.256495871e-06)
(0 2.799655604e-05 -2.126899697e-06)
(0 2.742862046e-05 -2.004926954e-06)
(0 2.688355638e-05 -1.886765973e-06)
(0 2.637660556e-05 -1.760981469e-06)
(0 2.590014953e-05 -1.639008727e-06)
(0 2.545799987e-05 -1.517036075e-06)
(0 2.504634033e-05 -1.39887489e-06)
(0 2.466517551e-05 -1.284525444e-06)
(0 2.431831699e-05 -1.16636442e-06)
(0 2.400957202e-05 -1.055826552e-06)
(0 2.372751006e-05 -9.376654576e-07)
(0 2.347213103e-05 -8.309393578e-07)
(0 2.325867733e-05 -7.165898619e-07)
(0 2.306428327e-05 -6.060520641e-07)
(0 2.290419542e-05 -4.993259444e-07)
(0 2.277840965e-05 -3.811648202e-07)
(0 2.26869301e-05 -2.706270223e-07)
(0 2.261832179e-05 -1.600892341e-07)
(0 2.259545054e-05 -5.717472302e-08)
(0 9.308044853e-06 7.726210858e-05)
(0 2.729521425e-05 7.642736222e-05)
(0 4.497744851e-05 7.480359551e-05)
(0 6.205363235e-05 7.245562023e-05)
(0 7.831031653e-05 6.948253882e-05)
(0 9.360645597e-05 6.599487657e-05)
(0 0.0001078162804 6.211461872e-05)
(0 0.0001208406895 5.795611404e-05)
(0 0.0001326758498 5.362988988e-05)
(0 0.000143279855 4.922743623e-05)
(0 0.0001526870119 4.483260857e-05)
(0 0.0001609201628 4.052163179e-05)
(0 0.000168025075 3.633644209e-05)
(0 0.0001740817944 3.231896685e-05)
(0 0.0001791474644 2.849969343e-05)
(0 0.000183279291 2.48976859e-05)
(0 0.000186564943 2.151294361e-05)
(0 0.0001890729963 1.836070928e-05)
(0 0.0001908720942 1.544098677e-05)
(0 0.0001920194118 1.273852898e-05)
(0 0.0001925835242 1.025714525e-05)
(0 0.0001926330757 7.97396799e-06)
(0 0.0001922023709 5.892808438e-06)
(0 0.0001913714201 3.99841894e-06)
(0 0.0001901555043 2.283177259e-06)
(0 0.0001886194214 7.20401549e-07)
(0 0.0001867974423 -6.937199685e-07)
(0 0.0001847086591 -1.96681046e-06)
(0 0.0001824064345 -3.102681804e-06)
(0 0.0001799136057 -4.120391681e-06)
(0 0.0001772606986 -5.027563948e-06)
(0 0.0001744667709 -5.83944536e-06)
(0 0.0001715622845 -6.548411571e-06)
(0 0.0001685587058 -7.173521872e-06)
(0 0.000165467469 -7.726211322e-06)
(0 0.0001623190377 -8.202666881e-06)
(0 0.0001591210649 -8.62194818e-06)
(0 0.0001558811733 -8.964997054e-06)
(0 0.0001526260164 -9.262305074e-06)
(0 0.0001493632455 -9.513873854e-06)
(0 0.0001460776136 -9.715891791e-06)
(0 0.0001428110223 -9.875980431e-06)
(0 0.0001395482515 -1.000176482e-05)
(0 0.0001363045471 -1.009324498e-05)
(0 0.0001330836962 -1.014660745e-05)
(0 0.000129889535 -1.017710064e-05)
(0 0.0001267296863 -1.01809129e-05)
(0 0.0001236003155 -1.01580424e-05)
(0 0.0001205128805 -1.011611427e-05)
(0 0.0001174673806 -1.005894015e-05)
(0 0.0001144637948 -9.98270658e-06)
(0 0.0001115135791 -9.895038672e-06)
(0 0.0001086091097 -9.784501462e-06)
(0 0.000105761802 -9.662528133e-06)
(0 0.000102956429 -9.54436704e-06)
(0 0.0001002082366 -9.40714827e-06)
(0 9.750958371e-05 -9.262305074e-06)
(0 9.487192317e-05 -9.109839147e-06)
(0 9.228000795e-05 -8.949750461e-06)
(0 8.974525637e-05 -8.785849052e-06)
(0 8.72714967e-05 -8.618136532e-06)
(0 8.48434819e-05 -8.446612871e-06)
(0 8.248025494e-05 -8.271276548e-06)
(0 8.01665845e-05 -8.095940732e-06)
(0 7.79062818e-05 -7.916793742e-06)
(0 7.570314448e-05 -7.737645803e-06)
(0 7.35609982e-05 -7.550875042e-06)
(0 7.146078434e-05 -7.375539668e-06)
(0 6.942535993e-05 -7.188768465e-06)
(0 6.743567958e-05 -7.001997704e-06)
(0 6.549555459e-05 -6.819039001e-06)
(0 6.361259646e-05 -6.639891127e-06)
(0 6.177919368e-05 -6.456932015e-06)
(0 5.999915758e-05 -6.281596576e-06)
(0 5.827247736e-05 -6.098637086e-06)
(0 5.658391721e-05 -5.92330127e-06)
(0 5.494872344e-05 -5.747965798e-06)
(0 5.335926285e-05 -5.572629637e-06)
(0 5.182316864e-05 -5.401105469e-06)
(0 5.033281722e-05 -5.233393263e-06)
(0 4.889963449e-05 -5.069492078e-06)
(0 4.749313631e-05 -4.901779558e-06)