/*--------------------------------*- C++ -*----------------------------------*\
  =========                 |
  \\      /  F ield         | OpenFOAM: The Open Source CFD Toolbox
   \\    /   O peration     | Website:  https://openfoam.org
    \\  /    A nd           | Version:  6
     \\/     M anipulation  |
\*---------------------------------------------------------------------------*/
FoamFile
{
    version     2.0;
    format      ascii;
    class       surfaceScalarField;
    location    "0.0008";
    object      phi;
}
// * * * * * * * * * * * * * * * * * * * * * * * * * * * * * * * * * * * * * //

dimensions      [0 3 -1 0 0 0 0];

internalField   nonuniform List<scalar> 
19000
(
2.125996539e-19
-2.795968682e-23
2.142912245e-19
-9.043166539e-23
2.158746829e-19
-1.632565744e-22
2.174206203e-19
-2.345612059e-22
2.188822799e-19
-3.048328262e-22
2.20271987e-19
-3.737511504e-22
2.216026307e-19
-4.414537836e-22
2.22887371e-19
-5.074540057e-22
2.241389398e-19
-5.718017498e-22
2.253696368e-19
-6.339306887e-22
2.265906146e-19
-6.938325288e-22
2.27811927e-19
-7.508755494e-22
2.29041911e-19
-8.050045819e-22
2.302873719e-19
-8.555226076e-22
2.315530821e-19
-9.0232617e-22
2.328421041e-19
-9.446552925e-22
2.34155433e-19
-9.823522441e-22
2.354924634e-19
-1.014574969e-21
2.368507408e-19
-1.041085052e-21
2.382264989e-19
-1.060929217e-21
2.396143802e-19
-1.07377068e-21
2.410079007e-19
-1.078545835e-21
2.423990657e-19
-1.074837433e-21
2.43778797e-19
-1.061486159e-21
2.451365632e-19
-1.037991786e-21
2.464608941e-19
-1.003071409e-21
2.477390676e-19
-9.560958172e-22
2.489576245e-19
-8.956233807e-22
2.501019364e-19
-8.209042382e-22
2.511565748e-19
-7.303949313e-22
2.52104752e-19
-6.233157141e-22
2.529286999e-19
-4.981088879e-22
2.536092191e-19
-3.540189126e-22
2.541262489e-19
-1.894847056e-22
2.544585352e-19
-3.775038056e-24
2.54584238e-19
2.046369684e-22
2.544805208e-19
4.363466014e-22
2.541240658e-19
6.926499078e-22
2.534906276e-19
9.737551071e-22
2.525556587e-19
1.280482745e-21
2.512940525e-19
1.612452758e-21
2.496810391e-19
1.969874771e-21
2.476921539e-19
2.351684633e-21
2.453043287e-19
2.757379895e-21
2.424959632e-19
3.185058337e-21
2.392480938e-19
3.633269807e-21
2.355444733e-19
4.098957744e-21
2.313727433e-19
4.579365443e-21
2.267244676e-19
5.069929513e-21
2.215962963e-19
5.566299668e-21
2.159900019e-19
6.062230454e-21
2.099137579e-19
6.551748025e-21
2.033823018e-19
7.027035066e-21
1.96418352e-19
7.480728069e-21
1.89052716e-19
7.903754652e-21
1.813254476e-19
8.287729835e-21
1.732853969e-19
8.622732626e-21
1.649907354e-19
8.899832311e-21
1.56507889e-19
9.108863012e-21
1.479117256e-19
9.241153554e-21
1.39284306e-19
9.28733389e-21
1.307149953e-19
9.240236823e-21
1.222988635e-19
9.092630369e-21
1.141361726e-19
8.840145503e-21
1.063298179e-19
8.478810191e-21
9.898396374e-20
8.007944177e-21
9.220092462e-20
7.427511657e-21
8.607987108e-20
6.741030056e-21
8.071414689e-20
5.952764061e-21
7.619065466e-20
5.070588853e-21
7.258759029e-20
4.102909055e-21
6.997404783e-20
3.061328524e-21
6.840773708e-20
1.957228955e-21
6.793483842e-20
8.042756487e-22
6.858834572e-20
-3.851796221e-22
7.038917768e-20
-1.59755101e-21
7.334602656e-20
-2.821592679e-21
7.745804783e-20
-4.045716885e-21
8.271582089e-20
-5.261519025e-21
8.910467615e-20
-6.461004807e-21
9.660566361e-20
-7.640028491e-21
1.05198577e-19
-8.795317115e-21
1.148623636e-19
-9.927569508e-21
1.255776164e-19
-1.103802805e-20
1.373263921e-19
-1.213103368e-20
1.500941168e-19
-1.321015072e-20
1.638685839e-19
-1.428036988e-20
1.786407886e-19
-1.534418028e-20
1.944024785e-19
-1.64038431e-20
2.111453709e-19
-1.745782687e-20
2.288571315e-19
-1.850340025e-20
2.475194368e-19
-1.953358609e-20
2.671034421e-19
-2.054009198e-20
2.875679817e-19
-2.1510802e-20
3.088556397e-19
-2.243301706e-20
3.308916836e-19
-2.329147064e-20
3.535807179e-19
-2.407176381e-20
3.768058582e-19
-2.475871012e-20
4.004251527e-19
-2.533963058e-20
4.242697512e-19
-2.580265655e-20
4.481382029e-19
-2.613946076e-20
4.717907663e-19
-2.63432418e-20
4.949382168e-19
-2.641070469e-20
5.172294664e-19
-2.633973061e-20
5.382341273e-19
-2.613070386e-20
5.574253788e-19
-2.578398852e-20
5.741596363e-19
-2.530067476e-20
5.876568728e-19
-2.467983565e-20
5.969767342e-19
-2.391866931e-20
6.009949052e-19
-2.300978057e-20
5.983780161e-19
-2.194115446e-20
5.875633134e-19
-2.069386925e-20
5.667430619e-19
-1.924184097e-20
5.338587786e-19
-1.755058491e-20
4.866128203e-19
-1.557681142e-20
4.224974765e-19
-1.326992889e-20
3.387688104e-19
-1.057040231e-20
2.312501004e-19
-7.421367587e-21
8.993125637e-20
-3.77895165e-21
3.024221863e-33
2.120493231e-19
-6.352514154e-23
2.13723982e-19
-1.949897896e-22
2.153137039e-19
-3.326907348e-22
2.168586602e-19
-4.724294252e-22
2.183203209e-19
-6.113776772e-22
2.197097389e-19
-7.487965493e-22
2.210404658e-19
-8.836830445e-22
2.223251179e-19
-1.015822238e-21
2.235771574e-19
-1.144309532e-21
2.248083165e-19
-1.268912752e-21
2.260304729e-19
-1.388650483e-21
2.272530762e-19
-1.503210443e-21
2.284851937e-19
-1.611501523e-21
2.297329957e-19
-1.713117414e-21
2.310019929e-19
-1.806853372e-21
2.322945983e-19
-1.892202925e-21
2.336125733e-19
-1.967828036e-21
2.349546621e-19
-2.03308375e-21
2.363192129e-19
-2.086441898e-21
2.377017991e-19
-2.127065106e-21
2.390978843e-19
-2.153203308e-21
2.405002969e-19
-2.163830793e-21
2.419018864e-19
-2.157007125e-21
2.432928802e-19
-2.131545386e-21
2.446636422e-19
-2.085298354e-21
2.460020196e-19
-2.016854436e-21
2.472962228e-19
-1.923772664e-21
2.485320702e-19
-1.804359e-21
2.496958456e-19
-1.655902643e-21
2.507713168e-19
-1.476545864e-21
2.517425881e-19
-1.263480355e-21
2.525910417e-19
-1.014844644e-21
2.532983954e-19
-7.278184338e-22
2.538437022e-19
-4.005544852e-22
2.542066042e-19
-3.02331068e-23
2.543642488e-19
3.848833172e-22
2.542945727e-19
8.473702901e-22
2.539730502e-19
1.358459471e-21
2.533760871e-19
1.920003516e-21
2.524777799e-19
2.532263742e-21
2.512536243e-19
3.196000261e-21
2.496773915e-19
3.910239451e-21
2.477251638e-19
4.67444712e-21
2.453722463e-19
5.486179551e-21
2.425974304e-19
6.343259175e-21
2.393798576e-19
7.241265882e-21
2.357034595e-19
8.175732793e-21
2.315537188e-19
9.139544558e-21
2.269222451e-19
1.012525582e-20
2.218034044e-19
1.112250073e-20
2.16199066e-19
1.212052259e-20
2.101151761e-19
1.310563388e-20
2.035667811e-19
1.406396531e-20
1.965745431e-19
1.497892924e-20
1.891698662e-19
1.583412468e-20
1.813909772e-19
1.661074768e-20
1.732877064e-19
1.729065379e-20
1.649167927e-19
1.785377844e-20
1.563462762e-19
1.828148876e-20
1.476502763e-19
1.855414096e-20
1.389133536e-19
1.865477036e-20
1.302249341e-19
1.85666973e-20
1.216834241e-19
1.827732987e-20
1.133897529e-19
1.777554082e-20
1.054507064e-19
1.705535713e-20
9.797144874e-20
1.611302201e-20
9.105850923e-20
1.495060839e-20
8.481217999e-20
1.357285042e-20
7.933006294e-20
1.19906787e-20
7.46998871e-20
1.02176876e-20
7.100356317e-20
8.273322063e-21
6.831005657e-20
6.178736865e-21
6.667962754e-20
3.959501089e-21
6.615694815e-20
1.640970423e-21
6.67762249e-20
-7.491872274e-22
6.85555613e-20
-3.185695497e-21
7.150372562e-20
-5.643001355e-21
7.56160028e-20
-8.09986842e-21
8.088213115e-20
-1.053656639e-20
8.728278773e-20
-1.293934734e-20
9.479766996e-20
-1.529740508e-20
1.034018301e-19
-1.760688589e-20
1.130733341e-19
-1.986712726e-20
1.237891609e-19
-2.208365125e-20
1.355321639e-19
-2.426336707e-20
1.482862601e-19
-2.641656233e-20
1.620422205e-19
-2.855154648e-20
1.767916197e-19
-3.067638193e-20
1.925308341e-19
-3.279385875e-20
2.092533951e-19
-3.49037087e-20
2.269521919e-19
-3.699846042e-20
2.456108671e-19
-3.906640358e-20
2.65205297e-19
-4.108848915e-20
2.856953859e-19
-4.304207925e-20
3.070269304e-19
-4.489893903e-20
3.291245136e-19
-4.662970278e-20
3.518938254e-19
-4.820272638e-20
3.752153263e-19
-4.958875718e-20
3.989462444e-19
-5.075995637e-20
4.229138205e-19
-5.169389725e-20
4.469149142e-19
-5.237199592e-20
4.707058447e-19
-5.27822287e-20
4.939960023e-19
-5.291667894e-20
5.164313343e-19
-5.277295126e-20
5.375811515e-19
-5.235100891e-20
5.569172244e-19
-5.16534927e-20
5.737972044e-19
-5.068199797e-20
5.87441492e-19
-4.943634953e-20
5.969123677e-19
-4.791045731e-20
6.010871213e-19
-4.609095483e-20
5.986352937e-19
-4.395344836e-20
5.87995894e-19
-4.14612194e-20
5.673627624e-19
-3.856244124e-20
5.346780912e-19
-3.518943546e-20
4.87641477e-19
-3.125837005e-20
4.237423716e-19
-2.667076398e-20
3.402074123e-19
-2.132176068e-20
2.328845368e-19
-1.51110781e-20
9.086676881e-20
-8.017476231e-21
3.074650335e-33
2.114783934e-19
-9.918171759e-23
2.131463318e-19
-3.004243535e-22
2.14732526e-19
-5.063117622e-22
2.162766792e-19
-7.139584833e-22
2.177382554e-19
-9.212991663e-22
2.191285817e-19
-1.126592497e-21
2.204603564e-19
-1.328865178e-21
2.217469336e-19
-1.52696399e-21
2.230010909e-19
-1.720152477e-21
2.242353898e-19
-1.90732103e-21
2.254610245e-19
-2.087689883e-21
2.266882947e-19
-2.260046239e-21
2.279255567e-19
-2.423487646e-21
2.291798432e-19
-2.576656376e-21
2.304559323e-19
-2.718507274e-21
2.317571295e-19
-2.847516526e-21
2.330844662e-19
-2.962458115e-21
2.344376323e-19
-3.061578246e-21
2.358142491e-19
-3.143387654e-21
2.372108714e-19
-3.205826264e-21
2.386222075e-19
-3.247102045e-21
2.400420783e-19
-3.264857663e-21
2.41462554e-19
-3.25703522e-21
2.428749069e-19
-3.220998867e-21
2.442687413e-19
-3.1543889e-21
2.456330227e-19
-3.054190681e-21
2.469551917e-19
-2.917624774e-21
2.482221766e-19
-2.741237251e-21
2.494193859e-19
-2.521882041e-21
2.505316327e-19
-2.255839255e-21
2.515420463e-19
-1.939824895e-21
2.524330564e-19
-1.570045006e-21
2.531853677e-19
-1.143184889e-21
2.537790853e-19
-6.554092088e-22
2.541927158e-19
-1.034233666e-22
2.54404313e-19
5.164628399e-22
2.543903977e-19
1.207132061e-21
2.541271146e-19
1.971549141e-21
2.535891783e-19
2.811517263e-21
2.527512078e-19
3.72864825e-21
2.515868349e-19
4.723157388e-21
2.500702697e-19
5.794916358e-21
2.481755265e-19
6.942201064e-21
2.458781512e-19
8.162714212e-21
2.431545007e-19
9.45218282e-21
2.399836107e-19
1.080531467e-20
2.363465309e-19
1.221429006e-20
2.322283202e-19
1.366975912e-20
2.276173995e-19
1.515936107e-20
2.225076311e-19
1.666889441e-20
2.168976744e-19
1.818096704e-20
2.107931889e-19
1.967639028e-20
2.042062377e-19
2.113295048e-20
1.971575981e-19
2.252698407e-20
1.89676044e-19
2.383219655e-20
1.818004454e-19
2.502137971e-20
1.735785451e-19
2.606530643e-20
1.650685718e-19
2.693470952e-20
1.563374635e-19
2.75994324e-20
1.474621667e-19
2.803082624e-20
1.385275269e-19
2.820117885e-20
1.296273093e-19
2.808636026e-20
1.208614843e-19
2.766519668e-20
1.123364873e-19
2.692198286e-20
1.041614963e-19
2.58455229e-20
9.644791251e-20
2.443141037e-20
8.930512014e-20
2.268078655e-20
8.284000351e-20
2.060245173e-20
7.715297552e-20
1.821127821e-20
7.23379429e-20
1.552988859e-20
6.847857535e-20
1.25863422e-20
6.564846269e-20
9.415036411e-21
6.390755638e-20
6.053557167e-21
6.330288965e-20
2.542990667e-21
6.386600996e-20
-1.075603317e-21
6.561518331e-20
-4.760949686e-21
6.855445585e-20
-8.475040698e-21
7.267739677e-20
-1.218276916e-20
7.796731097e-20
-1.585531049e-20
8.440172826e-20
-1.94695569e-20
9.195298954e-20
-2.301107425e-20
1.005928311e-19
-2.647272377e-20
1.102928437e-19
-2.985635114e-20
1.210286303e-19
-3.316983121e-20
1.327795411e-19
-3.642705633e-20
1.455316652e-19
-3.964356641e-20
1.5927609e-19
-4.283556972e-20
1.740100356e-19
-4.601530845e-20
1.897331633e-19
-4.919036496e-20
2.064466805e-19
-5.235989734e-20
2.241479972e-19
-5.551503693e-20
2.428285658e-19
-5.863654798e-20
2.624680976e-19
-6.169666e-20
2.830324962e-19
-6.465839314e-20
3.044688627e-19
-6.747892789e-20
3.267043558e-19
-7.011049145e-20
3.496423344e-19
-7.250476318e-20
3.731619866e-19
-7.461441891e-20
3.971149988e-19
-7.639732367e-20
4.213246539e-19
-7.781737347e-20
4.455808075e-19
-7.884723825e-20
4.696351126e-19
-7.946766828e-20
4.931904029e-19
-7.966834183e-20
5.15888861e-19
-7.944561505e-20
5.372949102e-19
-7.880171981e-20
5.56878325e-19
-7.774124979e-20
5.739941406e-19
-7.626897628e-20
5.878627734e-19
-7.438532812e-20
5.975458546e-19
-7.208316697e-20
6.019215532e-19
-6.934299824e-20
5.996589387e-19
-6.612978428e-20
5.891965431e-19
-6.238898729e-20
5.68725425e-19
-5.804423187e-20
5.361820565e-19
-5.299532312e-20
4.892550616e-19
-4.711816214e-20
4.254089973e-19
-4.02686622e-20
3.418263925e-19
-3.228633811e-20
2.34249265e-19
-2.301748341e-20
9.143498666e-20
-1.231026449e-20
3.276818798e-33
2.109092416e-19
-1.35036955e-22
2.125722378e-19
-4.072341715e-22
2.141554637e-19
-6.824114467e-22
2.156983859e-19
-9.589754354e-22
2.171604049e-19
-1.23488282e-21
2.185521612e-19
-1.508531699e-21
2.19886508e-19
-1.778320726e-21
2.211763955e-19
-2.043038188e-21
2.224349829e-19
-2.30129228e-21
2.236745302e-19
-2.551937737e-21
2.249066749e-19
-2.793538383e-21
2.261414316e-19
-3.024844291e-21
2.27387616e-19
-3.244269235e-21
2.286519683e-19
-3.450395673e-21
2.299397452e-19
-3.641445426e-21
2.312539721e-19
-3.815792694e-21
2.325962061e-19
-3.971404323e-21
2.3396589e-19
-4.106356585e-21
2.353612155e-19
-4.218259239e-21
2.367784918e-19
-4.304798111e-21
2.382129994e-19
-4.363180471e-21
2.396582903e-19
-4.390712492e-21
2.411070257e-19
-4.384226066e-21
2.425502353e-19
-4.340646452e-21
2.439781913e-19
-4.25636093e-21
2.453796573e-19
-4.127784906e-21
2.467427621e-19
-3.950732959e-21
2.480541641e-19
-3.721062295e-21
2.492998634e-19
-3.434101614e-21
2.504642779e-19
-3.085357554e-21
2.515310612e-19
-2.66992354e-21
2.52482196e-19
-2.183158806e-21
2.532989092e-19
-1.62002994e-21
2.539607855e-19
-9.758116165e-22
2.544467192e-19
-2.454703204e-22
2.547339701e-19
5.754952827e-22
2.547991252e-19
1.491573339e-21
2.546171689e-19
2.506311011e-21
2.541625889e-19
3.622854023e-21
2.534085861e-19
4.843054684e-21
2.523283877e-19
6.168100864e-21
2.508945637e-19
7.597621011e-21
2.490804744e-19
9.130293393e-21
2.468596282e-19
1.076281576e-20
2.442072643e-19
1.24904101e-20
2.410998103e-19
1.430565316e-20
2.375166645e-19
1.619895524e-20
2.334397744e-19
1.815738717e-20
2.288555815e-19
2.016528155e-20
2.237546467e-19
2.220318759e-20
2.181336924e-19
2.424869038e-20
2.119952504e-19
2.627553409e-20
2.053498081e-19
2.825466226e-20
1.982154364e-19
3.01534785e-20
1.906199046e-19
3.193707085e-20
1.826000326e-19
3.356760979e-20
1.74203482e-19
3.500584371e-20
1.654876105e-19
3.621079931e-20
1.56520867e-19
3.714175662e-20
1.473811944e-19
3.775839551e-20
1.381570618e-19
3.802321477e-20
1.289452948e-19
3.790186808e-20
1.198514228e-19
3.736560621e-20
1.109865451e-19
3.639136779e-20
1.024667579e-19
3.496394406e-20
9.440918147e-20
3.307572283e-20
8.693097244e-20
3.072859575e-20
8.014521589e-20
2.793334274e-20
7.416012716e-20
2.471109241e-20
6.907511163e-20
2.109194858e-20
6.498016121e-20
1.711550936e-20
6.195205322e-20
1.282836886e-20
6.005415505e-20
8.28361155e-21
5.933339726e-20
3.537483069e-21
5.982137871e-20
-1.351600831e-21
6.153295266e-20
-6.326627989e-21
6.446906223e-20
-1.133304281e-20
6.861686033e-20
-1.632234654e-20
7.395379917e-20
-2.125308597e-20
8.044871406e-20
-2.609417963e-20
8.806664548e-20
-3.082520324e-20
9.677044707e-20
-3.543840518e-20
1.065257668e-19
-3.993709886e-20
1.173023378e-19
-4.433536084e-20
1.290779554e-19
-4.865408328e-20
1.418381676e-19
-5.291865271e-20
1.555780793e-19
-5.715370312e-20
1.702996485e-19
-6.138027025e-20
1.86010962e-19
-6.5610905e-20
2.027212736e-19
-6.984781513e-20
2.204383102e-19
-7.407957433e-20
2.391620471e-19
-7.828120372e-20
2.588813513e-19
-8.24132354e-20
2.795679944e-19
-8.642424627e-20
3.011740612e-19
-9.025250564e-20
3.236273777e-19
-9.383069965e-20
3.468304083e-19
-9.708926331e-20
3.706572695e-19
-9.996177739e-20
3.949535859e-19
-1.023880779e-19
4.19533677e-19
-1.043183136e-19
4.441787587e-19
-1.057141496e-19
4.686305351e-19
-1.065503416e-19
4.925834045e-19
-1.06813478e-19
5.156709773e-19
-1.065010429e-19
5.374512694e-19
-1.056180077e-19
5.573881449e-19
-1.041738049e-19
5.748330155e-19
-1.02177268e-19
5.890032069e-19
-9.963207551e-20
5.989588063e-19
-9.653075924e-20
6.035759815e-19
-9.284965875e-20
6.015216852e-19
-8.854338127e-20
5.912303843e-19
-8.354061551e-20
5.708865732e-19
-7.774027851e-20
5.384158023e-19
-7.100935538e-20
4.914870493e-19
-6.318279903e-20
4.275372864e-19
-5.406460298e-20
3.436918301e-19
-4.343697207e-20
2.356354024e-19
-3.105552928e-20
9.197950516e-20
-1.668530295e-20
3.466203973e-33
2.103343101e-19
-1.710455897e-22
2.119938798e-19
-5.147871886e-22
2.135746128e-19
-8.606596411e-22
2.151167647e-19
-1.207196586e-21
2.165795531e-19
-1.552719491e-21
2.179736678e-19
-1.895403041e-21
2.193116062e-19
-2.233602101e-21
2.206064992e-19
-2.565649431e-21
2.218712813e-19
-2.890014031e-21
2.23118502e-19
-3.205049619e-21
2.243596351e-19
-3.509167113e-21
2.256050275e-19
-3.800594131e-21
2.268633458e-19
-4.077572501e-21
2.281416845e-19
-4.33812596e-21
2.29445166e-19
-4.580267097e-21
2.307772142e-19
-4.801753702e-21
2.321392943e-19
-5.000284495e-21
2.335313055e-19
-5.173234497e-21
2.349513833e-19
-5.317865003e-21
2.363963104e-19
-5.431074532e-21
2.378612957e-19
-5.509639527e-21
2.39340368e-19
-5.549978898e-21
2.408261279e-19
-5.548389435e-21
2.423101461e-19
-5.500772252e-21
2.437826979e-19
-5.402841336e-21
2.452331479e-19
-5.249832696e-21
2.466496147e-19
-5.036754733e-21
2.480192897e-19
-4.758159235e-21
2.493280341e-19
-4.408464688e-21
2.505606858e-19
-3.981753778e-21
2.517006686e-19
-3.472091395e-21
2.527303543e-19
-2.873273193e-21
2.536306852e-19
-2.179126113e-21
2.543815389e-19
-1.383275168e-21
2.549612954e-19
-4.795452329e-22
2.553471827e-19
5.381594433e-22
2.555148619e-19
1.675337059e-21
2.554388888e-19
2.936966955e-21
2.550924586e-19
4.327002676e-21
2.544480593e-19
5.848509897e-21
2.534773383e-19
7.503181686e-21
2.521518489e-19
9.291464937e-21
2.504429383e-19
1.121196537e-20
2.483225625e-19
1.326144534e-20
2.457632765e-19
1.543407597e-20
2.427392555e-19
1.772134939e-20
2.392265097e-19
2.011129617e-20
2.352041541e-19
2.258845849e-20
2.30654794e-19
2.513320589e-20
2.255659307e-19
2.77218721e-20
2.199304019e-19
3.032623941e-20
2.137478551e-19
3.291387868e-20
2.070252118e-19
3.544782731e-20
1.99778169e-19
3.788715894e-20
1.920315857e-19
4.018688025e-20
1.838208386e-19
4.229880566e-20
1.751919154e-19
4.417181884e-20
1.662024369e-19
4.575325171e-20
1.569213191e-19
4.698971385e-20
1.474293381e-19
4.782907287e-20
1.37818185e-19
4.822174117e-20
1.281902961e-19
4.812292837e-20
1.186569631e-19
4.749392333e-20
1.093371588e-19
4.630417328e-20
1.003546498e-19
4.453226264e-20
9.183605758e-20
4.216768529e-20
8.390745279e-20
3.921144935e-20
7.669219502e-20
3.567737999e-20
7.030742612e-20
3.159198944e-20
6.486190524e-20
2.699476885e-20
6.045252481e-20
2.193676431e-20
5.716238558e-20
1.647949356e-20
5.505790358e-20
1.069221566e-20
5.418799612e-20
4.649828136e-21
5.45827359e-20
-1.570586877e-21
5.625434641e-20
-7.892330452e-21
5.919764901e-20
-1.424287356e-20
6.33927007e-20
-2.055665971e-20
6.880670588e-20
-2.677893424e-20
7.539802449e-20
-3.286815979e-20
8.311937651e-20
-3.879877335e-20
9.192291062e-20
-4.456169277e-20
1.017639522e-19
-5.016439506e-20
1.126057527e-19
-5.562828363e-20
1.244219196e-19
-6.098558275e-20
1.371988698e-19
-6.627400113e-20
1.509353341e-19
-7.153172975e-20
1.656415773e-19
-7.679124774e-20
1.81335776e-19
-8.207451467e-20
1.980403967e-19
-8.738799923e-20
2.157762945e-19
-9.271993806e-20
2.345574439e-19
-9.803823236e-20
2.543842812e-19
-1.032911263e-19
2.752385613e-19
-1.084088861e-19
2.97077831e-19
-1.133081951e-19
3.198321464e-19
-1.178970833e-19
3.434009752e-19
-1.220815104e-19
3.67652312e-19
-1.257712206e-19
3.924215422e-19
-1.288857392e-19
4.175112342e-19
-1.313583838e-19
4.426888353e-19
-1.331394129e-19
4.676827473e-19
-1.341967186e-19
4.921739743e-19
-1.345154131e-19
5.157846382e-19
-1.340951547e-19
5.38062368e-19
-1.329466019e-19
5.584631591e-19
-1.310860389e-19
5.763319795e-19
-1.285295473e-19
5.908818422e-19
-1.252859733e-19
6.011691195e-19
-1.213500116e-19
6.06066752e-19
-1.166949804e-19
6.042372117e-19
-1.112664535e-19
5.941086459e-19
-1.04976425e-19
5.738557889e-19
-9.769885571e-20
5.413891366e-19
-8.926672301e-20
4.943571474e-19
-7.947050634e-20
4.301628592e-19
-6.806117234e-20
3.459012656e-19
-5.474875174e-20
2.371889671e-19
-3.922042609e-20
9.258630296e-20
-2.110903459e-20
3.695296846e-33
2.097460369e-19
-2.072647675e-22
2.114027706e-19
-6.233620243e-22
2.129817604e-19
-1.041074129e-21
2.145236194e-19
-1.458945901e-21
2.15987872e-19
-1.875258291e-21
2.173850961e-19
-2.288202975e-21
2.187278401e-19
-2.695899118e-21
2.200291175e-19
-3.096525437e-21
2.213019823e-19
-3.488203342e-21
2.225589367e-19
-3.869071787e-21
2.238116376e-19
-4.237151645e-21
2.250704247e-19
-4.590427587e-21
2.263441809e-19
-4.926719696e-21
2.276400182e-19
-5.243777946e-21
2.289633114e-19
-5.539149061e-21
2.303175492e-19
-5.810260405e-21
2.317045169e-19
-6.0542696e-21
2.331242332e-19
-6.268151614e-21
2.345751946e-19
-6.448545408e-21
2.360543173e-19
-6.591870047e-21
2.375571733e-19
-6.694195078e-21
2.390779318e-19
-6.751359839e-21
2.406095981e-19
-6.758828824e-21
2.42143947e-19
-6.711781416e-21
2.436717374e-19
-6.604939738e-21
2.45182577e-19
-6.43267056e-21
2.46665047e-19
-6.188854634e-21
2.481064928e-19
-5.867056373e-21
2.494931238e-19
-5.460442029e-21
2.508098174e-19
-4.961969588e-21
2.520402742e-19
-4.364283039e-21
2.531668464e-19
-3.659880907e-21
2.541706734e-19
-2.841013561e-21
2.550314364e-19
-1.899916767e-21
2.557274272e-19
-8.288111641e-22
2.562352801e-19
3.797419614e-22
2.565301272e-19
1.732768122e-21
2.565854951e-19
3.236497776e-21
2.563736669e-19
4.896321573e-21
2.558657367e-19
6.716429886e-21
2.550320641e-19
8.699755614e-21
2.538423282e-19
1.084751497e-20
2.522659849e-19
1.315900731e-20
2.502723638e-19
1.563098332e-20
2.478312925e-19
1.825731995e-20
2.449134481e-19
2.10283189e-20
2.414913011e-19
2.393039642e-20
2.37539759e-19
2.694544326e-20
2.33037346e-19
3.005061722e-20
2.279669881e-19
3.321781817e-20
2.223172844e-19
3.64136298e-20
2.16083346e-19
3.95989637e-20
2.092681247e-19
4.272923497e-20
2.018832778e-19
4.575428447e-20
1.939504988e-19
4.861890698e-20
1.855022962e-19
5.126320596e-20
1.765831656e-19
5.362367465e-20
1.672500867e-19
5.563419452e-20
1.575732917e-19
5.722784357e-20
1.476361635e-19
5.83385758e-20
1.375352167e-19
5.890358293e-20
1.27378995e-19
5.886528959e-20
1.172869434e-19
5.817380907e-20
1.073871671e-19
5.678882857e-20
9.78142921e-20
5.468185014e-20
8.870638535e-20
5.183774917e-20
8.020219849e-20
4.825656441e-20
7.243761073e-20
4.395435254e-20
6.554251551e-20
3.896396764e-20
5.963699127e-20
3.333454009e-20
5.482813608e-20
2.713064362e-20
5.120654989e-20
2.04300754e-20
4.884403017e-20
1.332145791e-20
4.779145631e-20
5.900715624e-21
4.807830061e-20
-1.732340259e-21
4.971247701e-20
-9.478365559e-21
5.268177541e-20
-1.724260926e-20
5.695556356e-20
-2.493982373e-20
6.248810762e-20
-3.249858156e-20
6.922229057e-20
-3.986568193e-20
7.709499304e-20
-4.700897583e-20
8.604257236e-20
-5.39191639e-20
9.600718617e-20
-6.060904776e-20
1.069419528e-19
-6.711115643e-20
1.188154785e-19
-7.347276755e-20
1.316139447e-19
-7.974978821e-20
1.453417155e-19
-8.599899374e-20
1.600192155e-19
-9.227038045e-20
1.7567946e-19
-9.859934893e-20
1.923623043e-19
-1.050004844e-19
2.101079646e-19
-1.114625905e-19
2.289491142e-19
-1.179465628e-19
2.489032952e-19
-1.243854634e-19
2.699652115e-19
-1.306878479e-19
2.921006922e-19
-1.367431697e-19
3.152417981e-19
-1.424295559e-19
3.392843713e-19
-1.476221757e-19
3.640869115e-19
-1.522020644e-19
3.894711879e-19
-1.56063591e-19
4.152226911e-19
-1.591205868e-19
4.410904358e-19
-1.61309919e-19
4.66783795e-19
-1.62592979e-19
4.919659505e-19
-1.629544036e-19
5.162427707e-19
-1.623988817e-19
5.391483718e-19
-1.609456829e-19
5.601277528e-19
-1.586218608e-19
5.785177836e-19
-1.554540417e-19
5.935253562e-19
-1.514597503e-19
6.042022274e-19
-1.466382779e-19
6.094167316e-19
-1.409620507e-19
6.078257432e-19
-1.343685124e-19
5.978493424e-19
-1.267532296e-19
5.776504187e-19
-1.179643574e-19
5.451233228e-19
-1.077987361e-19
4.978925508e-19
-9.600077078e-20
4.333370119e-19
-8.226105168e-20
3.485078791e-19
-6.622435895e-20
2.390078509e-19
-4.747594374e-20
9.329181238e-20
-2.558737459e-20
4.012480149e-33
2.09136508e-19
-2.438887311e-22
2.107907952e-19
-7.332649792e-22
2.123685486e-19
-1.224076872e-21
2.139107235e-19
-1.714637503e-21
2.153770765e-19
-2.203189143e-21
2.167782981e-19
-2.68779323e-21
2.181269096e-19
-3.166460213e-21
2.194359905e-19
-3.637133799e-21
2.207185888e-19
-4.097737991e-21
2.219873215e-19
-4.546110787e-21
2.232538868e-19
-4.980028223e-21
2.245287819e-19
-5.397135186e-21
2.258209648e-19
-5.794975368e-21
2.271377439e-19
-6.170919357e-21
2.284846182e-19
-6.522189033e-21
2.298653389e-19
-6.845770042e-21
2.312818788e-19
-7.138428547e-21
2.327345854e-19
-7.396619696e-21
2.34222183e-19
-7.61651804e-21
2.357419362e-19
-7.793947147e-21
2.372896614e-19
-7.924422538e-21
2.388599062e-19
-8.00308012e-21
2.404459774e-19
-8.024695534e-21
2.42040108e-19
-7.983586014e-21
2.436334251e-19
-7.87362404e-21
2.452160219e-19
-7.688161914e-21
2.467768112e-19
-7.420100919e-21
2.483035408e-19
-7.061861467e-21
2.497826474e-19
-6.605487609e-21
2.51199326e-19
-6.042616106e-21
2.525374355e-19
-5.364562777e-21
2.537795695e-19
-4.562292702e-21
2.549068852e-19
-3.626550261e-21
2.558990663e-19
-2.547918842e-21
2.56734067e-19
-1.317066656e-21
2.573880959e-19
7.510544002e-23
2.578354911e-19
1.637170104e-21
2.580489183e-19
3.377031869e-21
2.579994471e-19
5.301648389e-21
2.576568771e-19
7.416872386e-21
2.569898253e-19
9.727078669e-21
2.559660109e-19
1.223484631e-20
2.545523163e-19
1.494038506e-20
2.527151563e-19
1.784104633e-20
2.504207621e-19
2.093064422e-20
2.476358863e-19
2.419893903e-20
2.443284551e-19
2.763099097e-20
2.404686135e-19
3.120670358e-20
2.360296259e-19
3.490022717e-20
2.309890945e-19
3.867956513e-20
2.253299748e-19
4.250606954e-20
2.190419042e-19
4.633421236e-20
2.121223191e-19
5.011134306e-20
2.0457789e-19
5.377783784e-20
1.964257162e-19
5.726733599e-20
1.876947913e-19
6.050749523e-20
1.784271279e-19
6.342094619e-20
1.686790076e-19
6.592686662e-20
1.585216533e-19
6.794279458e-20
1.480417528e-19
6.938701346e-20
1.373411142e-19
7.018102171e-20
1.265359733e-19
7.025237439e-20
1.157553416e-19
6.953738796e-20
1.051390657e-19
6.79840352e-20
9.483504527e-20
6.555452456e-20
8.499632521e-20
6.222787867e-20
7.577744864e-20
5.800190971e-20
6.733077457e-20
5.289484e-20
5.980213389e-20
4.69459001e-20
5.332664963e-20
4.021519891e-20
4.802425993e-20
3.278232708e-20
4.399598263e-20
2.474419434e-20
4.132054486e-20
1.621173662e-20
4.005233647e-20
7.306105074e-21
4.022006472e-20
-1.846063557e-21
4.182682652e-20
-1.111777688e-20
4.485088388e-20
-2.038764002e-20
4.924797354e-20
-2.954597613e-20
5.495464639e-20
-3.850119287e-20
6.189352363e-20
-4.718533142e-20
6.997971574e-20
-5.555853271e-20
7.912870191e-20
-6.361124352e-20
8.926419204e-20
-7.136407502e-20
1.003256683e-19
-7.886455474e-20
1.12273949e-19
-8.618126518e-20
1.250947269e-19
-9.33953003e-20
1.387990304e-19
-1.005901763e-19
1.534212169e-19
-1.078407003e-19
1.69014014e-19
-1.152023827e-19
1.856415781e-19
-1.227021022e-19
2.03370401e-19
-1.303315145e-19
2.222593383e-19
-1.380436231e-19
2.423489977e-19
-1.457533988e-19
2.636520842e-19
-1.533420838e-19
2.861451398e-19
-1.606651708e-19
3.097630312e-19
-1.675627672e-19
3.343960234e-19
-1.738714729e-19
3.598897854e-19
-1.79436063e-19
3.860470942e-19
-1.841199832e-19
4.126304682e-19
-1.878132861e-19
4.393636545e-19
-1.904376863e-19
4.659306932e-19
-1.919480987e-19
4.919707568e-19
-1.923309713e-19
5.170686056e-19
-1.915994577e-19
5.40740731e-19
-1.897861288e-19
5.62418542e-19
-1.869335986e-19
5.814288989e-19
-1.830839915e-19
5.969717397e-19
-1.782676809e-19
6.080935663e-19
-1.724921157e-19
6.136578866e-19
-1.657311241e-19
6.123155192e-19
-1.579152991e-19
6.024778457e-19
-1.489237342e-19
5.822953424e-19
-1.385775325e-19
5.496444304e-19
-1.266356029e-19
5.021287742e-19
-1.127919113e-19
4.370955526e-19
-9.667805283e-20
3.515796765e-19
-7.785942167e-20
2.411203433e-19
-5.58573803e-20
9.411698622e-20
-3.011142243e-20
4.27861382e-33
2.084974737e-19
-2.810419324e-22
2.101494348e-19
-8.448686183e-22
2.117263463e-19
-1.410104899e-21
2.132693276e-19
-1.9748493e-21
2.147384442e-19
-2.537195146e-21
2.161444657e-19
-3.095097473e-21
2.174999975e-19
-3.646405643e-21
2.188181495e-19
-4.18890229e-21
2.201120572e-19
-4.720285266e-21
2.213943991e-19
-5.238173423e-21
2.226769999e-19
-5.740071784e-21
2.239704548e-19
-6.223371193e-21
2.252838902e-19
-6.685302687e-21
2.26624761e-19
-7.122940142e-21
2.279987977e-19
-7.533141853e-21
2.294099693e-19
-7.912535059e-21
2.30860555e-19
-8.257450105e-21
2.323511825e-19
-8.563911524e-21
2.338809265e-19
-8.827587497e-21
2.354473651e-19
-9.043793996e-21
2.370466987e-19
-9.207449965e-21
2.386738438e-19
-9.313064587e-21
2.403225697e-19
-9.354668292e-21
2.419855596e-19
-9.32578878e-21
2.436544626e-19
-9.219389834e-21
2.453198284e-19
-9.027885327e-21
2.46971055e-19
-8.743127235e-21
2.485962758e-19
-8.356455969e-21
2.50182341e-19
-7.85869286e-21
2.517147719e-19
-7.24017926e-21
2.531777761e-19
-6.490764879e-21
2.545541649e-19
-5.599878621e-21
2.558252476e-19
-4.556596632e-21
2.569706177e-19
-3.34982346e-21
2.579679887e-19
-1.968461119e-21
2.587930372e-19
-4.016518135e-22
2.594194198e-19
1.36104467e-21
2.598188377e-19
3.329425104e-21
2.599612271e-19
5.51245905e-21
2.598148789e-19
7.917977834e-21
2.593465779e-19
1.05523188e-20
2.585216437e-19
1.341978514e-20
2.573040687e-19
1.652206425e-20
2.556567052e-19
1.985752319e-20
2.535417036e-19
2.342055806e-20
2.509210946e-19
2.720088878e-20
2.477576267e-19
3.118293665e-20
2.440156871e-19
3.534512897e-20
2.396623993e-19
3.965925215e-20
2.34668744e-19
4.408973777e-20
2.290108454e-19
4.859306516e-20
2.226712913e-19
5.311720943e-20
2.156406353e-19
5.760136678e-20
2.07918933e-19
6.197588204e-20
1.995174403e-19
6.616259241e-20
1.9046029e-19
7.007552205e-20
1.807862139e-19
7.362212009e-20
1.705500285e-19
7.670493997e-20
1.598238535e-19
7.922390606e-20
1.486977177e-19
8.107896695e-20
1.372795643e-19
8.217321145e-20
1.256944254e-19
8.24161935e-20
1.140829406e-19
8.172753009e-20
1.025991005e-19
8.004048807e-20
9.140744258e-20
7.730559044e-20
8.067954227e-20
7.34938614e-20