/*--------------------------------*- C++ -*----------------------------------*\
  =========                 |
  \\      /  F ield         | OpenFOAM: The Open Source CFD Toolbox
   \\    /   O peration     | Website:  https://openfoam.org
    \\  /    A nd           | Version:  10
     \\/     M anipulation  |
\*---------------------------------------------------------------------------*/
FoamFile
{
    format      ascii;
    class       volScalarField;
    location    "0.005";
    object      alpha.metal;
}
// * * * * * * * * * * * * * * * * * * * * * * * * * * * * * * * * * * * * * //

dimensions      [0 0 0 0 0 0 0];

internalField   nonuniform List<scalar> 
19200
(
5.411162484e-261
1.248796766e-255
2.78576986e-250
5.982760095e-245
1.225853771e-239
2.382177921e-234
4.377993923e-229
7.598772462e-224
1.24453841e-218
1.921812904e-213
2.794868034e-208
3.821371949e-203
4.899798351e-198
5.86979643e-193
6.535013714e-188
6.711068875e-183
6.290447388e-178
5.302621839e-173
3.937814141e-168
2.505167208e-163
1.318955226e-158
5.52885487e-154
1.633213289e-149
8.412458308e-147
4.09743868e-141
4.362863106e-135
4.805602055e-129
5.38760988e-123
5.948336279e-117
6.056149769e-111
4.850359394e-105
1.766336327e-99
2.00330247e-94
1.54614463e-89
1.298047732e-90
1.298045633e-90
3.421710798e-89
5.052582484e-89
1.748449203e-88
1.167784463e-85
2.044349544e-87
1.275648912e-90
1.275645848e-90
1.651760009e-87
1.445082159e-92
8.343509535e-93
1.059310395e-95
2.636880823e-103
1.083922729e-109
8.955556156e-117
1
1
1
1
1
1
1
1
1
1
1
1
1
1
1
1
1
1
1
1
1
1
1
1
1
1
1
1
1
1
1.087309384e-254
2.39070064e-249
5.109704683e-244
1.051816388e-238
2.0645038e-233
3.840040016e-228
6.746761624e-223
1.117716195e-217
1.743863145e-212
2.559148128e-207
3.526650013e-202
4.552817489e-197
5.487268843e-192
6.144090377e-187
6.346921358e-182
5.989643611e-177
5.092271889e-172
3.823605647e-167
2.465637054e-162
1.314929012e-157
5.528218121e-153
1.62259882e-148
4.66407974e-146
4.501939497e-140
5.055746717e-134
6.004337582e-128
7.501131916e-122
9.723975049e-116
1.269122327e-109
1.566281833e-103
1.550750807e-97
6.806189535e-92
8.217502106e-87
6.39798708e-82
7.230685009e-85
2.791938554e-83
6.686906225e-82
5.05884267e-84
2.151372848e-79
2.720880546e-77
7.228971909e-79
8.805398999e-85
7.450050596e-83
1.051768121e-79
5.991171358e-86
6.211579547e-87
5.916357157e-88
3.048498617e-95
1.069482967e-101
8.955556156e-117
1
1
1
1
1
1
1
1
1
1
1
1
1
1
1
1
1
1
1
1
1
1
1
1
1
1
1
1
1
1
1.121890324e-248
2.339884168e-243
4.742658686e-238
9.25252696e-233
1.719867067e-227
3.026541123e-222
5.023959128e-217
7.849141461e-212
1.152120083e-206
1.585752954e-201
2.04151886e-196
2.449956489e-191
2.727467088e-186
2.797827957e-181
2.619422805e-176
2.20818545e-171
1.643863815e-166
1.050650124e-161
5.535496843e-157
2.26626315e-152
6.288858481e-148
1.881138182e-145
1.979148221e-139
2.284503359e-133
2.830924852e-127
3.771144576e-121
5.386924828e-115
8.167295869e-109
1.280008049e-102
1.956073107e-96
2.455605453e-90
1.315642204e-84
1.497305825e-79
1.147059456e-74
1.303024399e-77
6.735846636e-76
3.3593283e-74
2.122640764e-76
1.289332727e-71
2.063535014e-69
8.698038193e-71
1.056443402e-76
5.192095683e-75
7.182849736e-72
3.279517612e-78
3.365742548e-79
3.144650717e-80
1.525887737e-87
7.935456927e-94
4.146220651e-112
1
1
1
1
1
1
1
1
1
1
1
1
1
1
1
1
1
1
1
1
1
1
1
1
1
1
1
1
1
1
7.195837597e-243
1.420537686e-237
2.720469147e-232
5.006805939e-227
8.766832087e-222
1.450862323e-216
2.260211618e-211
3.305024412e-206
4.524740558e-201
5.783039482e-196
6.874789498e-191
7.56375307e-186
7.648960409e-181
7.041790916e-176
5.822013202e-171
4.23889709e-166
2.640230399e-161
1.346192421e-156
5.229323024e-152
1.30534667e-147
4.476960367e-145
4.761319173e-139
5.506833565e-133
6.90959437e-127
9.458315217e-121
1.41855965e-114
2.333883544e-108
4.188691573e-102
8.030816359e-96
1.562514254e-89
2.574436811e-83
1.715569385e-77
1.735475922e-72
1.325468679e-67
1.51392245e-70
1.087897757e-68
1.185452932e-66
6.222530086e-69
5.022129942e-64
1.08273984e-61
1.009783541e-62
1.354614916e-68
2.523573763e-67
3.45292035e-64
1.492111512e-70
1.252854621e-71
1.133809451e-72
5.373726863e-80
3.658565789e-86
2.911646856e-104
1
1
1
1
1
1
1
1
1
1
1
1
1
1
1
1
1
1
1
1
1
1
1
1
1
1
1
1
1
1
3.190090386e-237
5.945527026e-232
1.072399546e-226
1.854675664e-221
3.045138818e-216
4.714135394e-211
6.84942036e-206
9.306530313e-201
1.178297826e-195
1.384335473e-190
1.501104436e-185
1.491499541e-180
1.344479925e-175
1.084252954e-170
7.66669546e-166
4.612891036e-161
2.253418752e-156
8.2345197e-152
1.838291325e-147
7.073110347e-145
7.333352298e-139
8.273824247e-133
1.019759224e-126
1.384559524e-120
2.08901993e-114
3.531757485e-108
6.732272639e-102
1.448245742e-95
3.471693944e-89
8.915517399e-83
2.016311068e-76
1.70689507e-70
1.493123981e-65
1.130588136e-60
1.29905105e-63
1.472844937e-61
3.502599606e-59
1.74176945e-61
1.824311599e-56
4.986965355e-54
1.826901146e-54
1.902829801e-60
8.762803289e-60
1.180717664e-56
5.277471237e-63
3.375595794e-64
2.970422252e-65
1.398595943e-72
1.194043562e-78
1.321791564e-96
1
1
1
1
1
1
1
1
1
1
1
1
1
1
1
1
1
1
1
1
1
1
1
1
1
1
1
1
1
1
1.044497884e-231
1.832658195e-226
3.10297156e-221
5.023171421e-216
7.69795234e-211
1.108802273e-205
1.493220762e-200
1.87147217e-195
2.172243586e-190
2.321261101e-185
2.266087342e-180
2.00002351e-175
1.572940461e-170
1.079787724e-165
6.27510743e-161
2.941739974e-156
1.020109789e-151
2.097166055e-147
8.319771813e-145
8.186248635e-139
8.765904233e-133
1.028795367e-126
1.336200363e-120
1.941960589e-114
3.200704997e-108
6.071771514e-102
1.344257326e-95
3.508648368e-89
1.079724921e-82
3.844719067e-76
1.265079789e-69
1.39036895e-63
1.045141893e-58
7.670352482e-54
8.85873106e-57
2.033431878e-54
9.642961693e-52
5.311058342e-54
8.017755048e-49
2.411906458e-46
4.445782961e-46
3.013211014e-52
2.236650426e-52
2.974263307e-49
1.441182491e-55
6.975912651e-57
6.070138492e-58
2.895312806e-65
3.027831812e-71
4.266732961e-89
1
1
1
1
1
1
1
1
1
1
1
1
1
1
1
1
1
1
1
1
1
1
1
1
1
1
1
1
1
1
2.622123464e-226
4.318378484e-221
6.839710811e-216
1.032218153e-210
1.46962036e-205
1.959050864e-200
2.430222394e-195
2.789125485e-190
2.942007253e-185
2.82867404e-180
2.452102864e-175
1.888092693e-170
1.26446788e-165
7.142631853e-161
3.244155235e-156
1.08692804e-151
2.142522702e-147
8.150132016e-145
7.490780219e-139
7.462672096e-133
8.14250149e-127
9.834555228e-121
1.326957779e-114
2.022995986e-108
3.551746219e-102
7.38674199e-96
1.87718973e-89
5.984335351e-83
2.441309681e-76
1.30197406e-69
6.69218673e-63
9.740747767e-57
6.359711813e-52
4.380533463e-47
5.110910297e-50
3.329503721e-47
3.082221587e-44
4.159007555e-46
9.459467071e-41
1.41665762e-38
7.202778298e-38
7.170813828e-44
4.234571e-45
2.899161181e-41
8.605143339e-48
1.149979188e-49
1.016576009e-50
5.057275706e-58
6.339328108e-64
1.071072548e-81
1
1
1
1
1
1
1
1
1
1
1
1
1
1
1
1
1
1
1
1
1
1
1
1
1
1
1
1
1
1
5.112361447e-221
7.877569247e-216
1.162784667e-210
1.628894895e-205
2.144115092e-200
2.630641454e-195
2.987117414e-190
3.116089598e-185
2.960122794e-180
2.531778093e-175
1.92014747e-170
1.264328806e-165
7.012311137e-161
3.128645032e-156
1.034614038e-151
2.032005848e-147
7.114886423e-145
6.150423171e-139
5.713435457e-133
5.784997503e-127
6.493285481e-121
8.171407846e-115
1.15496952e-108
1.829220471e-102
3.279348673e-96
6.945242096e-90
1.880447867e-83
7.074884273e-77
3.939244763e-70
3.663640787e-63
3.127481516e-56
6.153638018e-50
4.191798063e-45
2.274965611e-40
3.490715556e-43
1.294811722e-39
7.946363958e-37
1.172895538e-36
4.62265156e-31
1.650134212e-34
1.403390842e-36
5.068786394e-34
1.304233717e-37
7.324128406e-35
5.325962223e-41
2.678770638e-42
1.45573502e-43
7.647568535e-51
1.15400094e-56
2.221276539e-74
1
1
1
1
1
1
1
1
1
1
1
1
1
1
1
1
1
1
1
1
1
1
1
1
1
1
1
1
1
1
7.648730705e-216
1.09870145e-210
1.504930949e-205
1.947369409e-200
2.35694616e-195
2.645234424e-190
2.730050063e-185
2.566901554e-180
2.173334642e-175
1.631773689e-170
1.06397226e-165
5.850946851e-161
2.599185346e-156
8.654253513e-152
1.749012071e-147
5.442440698e-145
4.516550435e-139
3.997275648e-133
3.822094651e-127
4.046929239e-121
4.87326396e-115
6.774669659e-109
1.077116055e-102
1.90252958e-96
3.629993954e-90
7.482298238e-84
1.794455012e-77
6.215900589e-71
4.263828256e-64
1.001450543e-56
1.352389965e-49
6.93035501e-43
2.831037278e-38
1.13104072e-33
3.469169485e-36
1.647736552e-30
6.87940608e-36
1.29767735e-30
1.035326765e-24
1.40339084e-36
1.403390839e-36
4.964750773e-27
4.782748467e-31
7.970875447e-35
2.013647983e-34
1.79560537e-35
3.11365337e-36
1.443146015e-43
1.976310499e-49
4.010109729e-67
1
1
1
1
1
1
1
1
1
1
1
1
1
1
1
1
1
1
1
1
1
1
1
1
1
1
1
1
1
1
8.449622582e-211
1.126546031e-205
1.424598271e-200
1.692865019e-195
1.871531043e-190
1.906868989e-185
1.77284161e-180
1.486220037e-175
1.106419049e-170
7.166435655e-166
3.927559887e-161
1.751016558e-156
5.946397671e-152
1.26650236e-147
3.387413366e-145
2.737032982e-139
2.355254199e-133
2.166648447e-127
2.181002947e-121
2.488107947e-115
3.34510446e-109
5.404908041e-103
1.0302977e-96
2.216578934e-90
5.15057194e-84
1.254763076e-77
3.182864254e-71
8.874234415e-65
3.570896183e-58
3.28704106e-50
5.428060484e-43
2.343739603e-34
3.854209851e-31
5.510238234e-31
8.210490338e-35
6.709383762e-25
6.879406014e-36
6.879406014e-36
6.884518418e-36
1.29385024e-10
1.272448478e-10
6.095245242e-38
6.084994852e-38
6.084994864e-38
4.606523833e-27
3.979545309e-34
1.79142065e-29
8.373214306e-36
1.491360736e-40
6.822558204e-60
0.9999999999
1
1
1
1
1
1
1
1
1
1
1
1
1
1
1
1
1
1
1
1
1
1
1
1
1
1
1
1
1
6.427470732e-206
7.911339699e-201
9.17880179e-196
9.944527584e-191
9.958891524e-186
9.121593657e-181
7.548877889e-176
5.559414717e-171
3.571472486e-166
1.949112902e-161
8.720660454e-157
3.023800125e-152
6.812292772e-148
1.582583839e-145
1.239449712e-139
1.048720778e-133
9.410872387e-128
9.098900426e-122
9.737945356e-116
1.203108532e-109
1.799972783e-103
3.340306803e-97
7.529269751e-91
1.966460871e-84
5.701078568e-78
1.782034469e-71
5.887385562e-65
2.031221217e-58
7.668356024e-52
3.8283445e-43
4.027240096e-36
9.206347724e-29
1.427895349e-22
3.618002548e-31
8.629005787e-32
2.217443498e-31
3.638518572e-10
0.9999999997
0.9999999998
1
1
0.9999999998
0.9999999997
3.32918832e-10
3.15466996e-34
3.15466996e-34
3.15466996e-34
2.447419919e-26
2.675267592e-33
5.123553591e-51
0.9999999999
1
1
1
1
1
1
1
1
1
1
1
1
1
1
1
1
1
1
1
1
1
1
1
1
1
1
1
1
1
2.976180938e-201
3.360218548e-196
3.549888791e-191
3.475717934e-186
3.120154803e-181
2.536629919e-176
1.839467506e-171
1.166771877e-166
6.311226248e-162
2.817525875e-157
9.880602694e-153
2.308379426e-148
5.344155005e-146
3.928184556e-140
3.313671175e-134
2.957526415e-128
2.819915218e-122
2.914883364e-116
3.345890062e-110
4.427318157e-104
7.07502322e-98
1.413481813e-91
3.528537674e-85
1.068773625e-78
3.806262728e-72
1.563397627e-65
7.336017097e-59
3.932065626e-52
3.362555907e-45
2.952843664e-35
8.337330708e-28
9.206348112e-29
2.640512581e-17
7.04451842e-11
2.276261865e-10
0.9999999999
1
1
1
1
1
1
1
1
0.9999999999
1.30621235e-10
8.757857808e-12
1.230780529e-19
5.386251215e-40
9.184227584e-44
0.9999999999
1
1
1
1
1
1
1
1
1
1
1
1
1
1
1
1
1
1
1
1
1
1
1
1
1
1
1
1
1
6.334424924e-197
6.512936087e-192
6.21205174e-187
5.441455577e-182
4.325848248e-177
3.075279758e-172
1.918219009e-167
1.024532981e-162
4.544312904e-158
1.599797892e-153
3.818792528e-149
2.228682e-146
1.472142205e-140
1.24484394e-134
1.111170414e-128
1.057486434e-122
1.088757732e-116
1.240620464e-110
1.619410132e-104
2.529213827e-98
4.901158469e-92
1.18833374e-85
3.539103392e-79
1.265962035e-72
5.388111638e-66
2.737034026e-59
1.660534385e-52
1.156458072e-45
7.253628464e-39
3.648160856e-32
1.804723374e-22
1.371882095e-16
5.378260906e-22
0.9999999997
1
1
1
1
1
1
1
1
1
1
1
1
0.9999999996
1.030851972e-24
3.94197127e-17
0
0.9999999998
1
1
1
1
1
1
1
1
1
1
1
1
1
1
1
1
1
1
1
1
1
1
1
1
1
1
1
1
1
5.400630601e-194
5.12009544e-189
4.481013373e-184
3.580592931e-179
2.577784737e-174
1.643598399e-169
9.065645745e-165
4.180093318e-160
1.523017983e-155
3.881747858e-151
4.466130416e-147
9.353149041e-144
7.190726442e-138
5.825498635e-132
5.01758392e-126
4.65794203e-120
4.770001423e-114
5.600911126e-108
7.951980507e-102
1.428539896e-95
3.265085274e-89
9.196681255e-83
3.085841013e-76
1.218349059e-69
5.725711009e-63
3.297267496e-56
2.416837703e-49
2.315954573e-42
3.365439329e-35
4.790819142e-33
2.132624847e-25
7.069237544e-11
0.9999999997
1
1
1
1
1
1
1
1
1
1
1
1
1
1
0.9999999995
6.047737361e-10
2.966061854e-10
1
1
1
1
1
1
1
1
1
1
1
1
1
1
1
1
1
1
1
1
1
1
1
1
1
1
1
1
1
1
2.766884381e-198
2.641343637e-193
2.346555705e-188
1.917300219e-183
1.421189053e-178
9.406341667e-174
5.44890766e-169
2.689167285e-164
1.088172114e-159
3.396716366e-155
7.115452443e-151
4.797696882e-147
3.002451901e-143
2.217409741e-137
1.729090886e-131
1.434438206e-125
1.27845366e-119
1.241076161e-113
1.340176891e-107
1.664346703e-101
2.496692001e-95
4.792233626e-89
1.228911902e-82
4.274324793e-76
2.043258392e-69
1.621244467e-62
1.249151721e-54
5.831375322e-46
4.711131135e-37
1.661747532e-30
3.106022957e-25
2.304567887e-10
1
1
1
1
1
1
1
1
1
1
1
1
1
1
1
1
1.550615704e-10
4.986829711e-19
0.9999999999
1
1
1
1
1
1
1
1
1
1
1
1
1
1
1
1
1
1
1
1
1
1
1
1
1
1
1
1
1
7.145202469e-194
6.329258204e-189
5.187276325e-184
3.886826496e-179
2.62537285e-174
1.570889387e-169
8.134056196e-165
3.523715536e-160
1.209169095e-155
2.939680937e-151
3.558294666e-147
2.812208015e-144
1.947591829e-138
1.417878285e-132
1.090598554e-126
8.926072986e-121
7.835229987e-115
7.449737027e-109
7.773944945e-103
9.071019726e-97
1.218011374e-90
1.974181401e-84
4.181991483e-78
1.316474339e-71
7.34538915e-65
9.705697697e-58
1.297667563e-49
2.088230342e-41
1.341020445e-30
1.527141794e-24
1.919658136e-27
0.9999999999
1
1
1
1
1
1
1
1
1
1
1
1
1
1
1
1
1
1.14371492e-09
1
1
1
1
1
1
1
1
1
1
1
1
1
1
1
1
1
1
1
1
1
1
1
1
1
1
1
1
1
1
8.225922045e-190
6.596589106e-185
4.849422995e-180
3.225402211e-175
1.910022264e-170
9.866380694e-166
4.328523659e-161
1.557489573e-156
4.361100868e-152
8.043187172e-148
1.550760898e-145
9.923896327e-140
6.777078122e-134
4.870050073e-128
3.703425463e-122
2.999173522e-116
2.60549832e-110
2.449179139e-104
2.517618052e-98
2.868601646e-92
3.689071147e-86
5.493318828e-80
9.84212805e-74
2.257409826e-67
7.474872386e-61
8.306930447e-54
2.95014862e-45
8.748821871e-38
9.897364367e-35
1.946609245e-27
3.707398733e-10
1
1
1
1
1
1
1
1
1
1
1
1
1
1
1
1
1
0.9999999998
1.693768976e-11
1
1
1
1
1
1
1
1
1
1
1
1
1
1
1
1
1
1
1
1
1
1
1
1
1
1
1
1
1
1
1.134600668e-186
7.848720537e-182
4.923821268e-177
2.754293863e-172
1.350633278e-167
5.73800782e-163
2.119304936e-158
6.863041456e-154
1.653094362e-149
7.00868167e-147
1.258671055e-141
7.332701599e-136
4.444499132e-130
2.816057235e-124
1.875246308e-118
1.32029021e-112
9.898231665e-107
7.961252226e-101
6.936518169e-95
6.62886656e-89
7.065375381e-83
8.598116169e-77
1.237011625e-70
2.222668619e-64
5.465596004e-58
2.16625518e-51
2.099939873e-44
5.905840949e-35
4.88441076e-29
4.273121315e-35
0.9999999997
1
1
1
1
1
1
1
1
1
1
1
1
1
1
1
1
1
1
0.9999999999
1
1
1
1
1
1
1
1
1
1
1
1
1
1
1
1
1
1
1
1
1
1
1
1
1
1
1
1
1
1
2.095050677e-182
1.272737044e-177
6.917487024e-173
3.303358604e-168
1.363609803e-163
4.838120279e-159
1.478573279e-154
3.408705974e-150
6.887908242e-147
1.332718639e-141
8.125013748e-136
5.112859296e-130
3.338914943e-124
2.275455064e-118
1.627799289e-112
1.230128735e-106
9.88902527e-101
8.524177473e-95
7.951682979e-89
8.116786578e-83
9.191404026e-77
1.175162745e-70
1.736765785e-64
3.066105761e-58
6.78725669e-52
2.031304344e-45
1.019834153e-38
1.419005587e-30
1.874181575e-24
4.273121304e-35
0.9999999998
1
1
1
1
1
1
1
1
1
1
1
1
1
1
1
1
1
1
1
1
1
1
1
1
1
1
1
1
1
1
1
1
1
1
1
1
1
1
1
1
1
1
1
1
1
1
1
1
1
2.135641011e-178
1.159460325e-173
5.561575268e-169
2.306412993e-164
8.06710844e-160
2.305692167e-155
4.863348933e-151
3.640208659e-147
8.670629491e-144
4.585533925e-138
2.513177984e-132
1.433181295e-126
8.540086797e-121
5.3413997e-115
3.523481627e-109
2.464320484e-103
1.838114587e-97
1.471949645e-91
1.275397675e-85
1.207042482e-79
1.262564273e-73
1.482367559e-67
1.995590767e-61
3.177254132e-55
6.28037439e-49
1.712929419e-42
7.041285349e-36
1.483694348e-32
9.068939719e-31
1.375868654e-10
1
1
1
1
1
1
1
1
1
1
1
1
1
1
1
1
1
1
1
1
1
1
1
1
1
1
1
1
1
1
1
1
1
1
1
1
1
1
1
1
1
1
1
1
1
1
1
1
1
1
1.142195188e-177
5.507822111e-173
2.328287808e-168
8.47177957e-164
2.635778154e-159
7.128023747e-155
1.530364966e-150
4.841573314e-147
6.045057328e-143
3.0787931e-137
1.626983728e-131
8.957283174e-126
5.159487827e-120
3.123303834e-114
1.996451391e-108
1.354418646e-102
9.806363831e-97
7.62422677e-91
6.409715676e-85
5.874181403e-79
5.92574543e-73
6.66107408e-67
8.481626117e-61
1.252713051e-54
2.234567549e-48
7.966230241e-42
1.670468804e-35
1.55632077e-33
1.468779071e-27
1.375865476e-10
1
1
1
1
1
1
1
1
1
1
1
1
1
1
1
1
1
1
1
1
1
1
1
1
1
1
1
1
1
1
1
1
1
1
1
1
1
1
1
1
1
1
1
1
1
1
1
1
1
1
1.14928033e-180
6.042455878e-176
2.839528172e-171
1.173993402e-166
4.212874051e-162
1.303554178e-157
3.425550947e-153
6.3888138e-149
1.209123179e-146
3.791221703e-141
1.943401891e-135
1.040927361e-129
5.851329507e-124
3.467672515e-118
2.176868317e-112
1.454814163e-106
1.040571872e-100
8.011401567e-95
6.680805203e-89
6.076602431e-83
6.077104127e-77
6.747863373e-71
8.425004387e-65
1.204245425e-58
2.02686415e-52
4.252882432e-46
2.326936276e-39
3.157037218e-31
2.602122235e-26
2.429491684e-32
0.9999999998
1
1
1
1
1
1
1
1
1
1
1
1
1
1
1
1
1
1
1
1
1
1
1
1
1
1
1
1
1
1
1
1
1
1
1
1
1
1
1
1
1
1
1
1
1
1
1
1
1
1.225758137e-182
6.496761903e-178
3.110913633e-173
1.322644287e-168
4.887313002e-164
1.524988224e-159
3.82722606e-155
6.782257159e-151
4.493854204e-147
6.925155253e-143
3.491382148e-137
1.824696761e-131
9.939911997e-126
5.674129836e-120
3.412237812e-114
2.173142842e-108
1.473416167e-102
1.069101957e-96
8.344711044e-91
7.041981404e-85
6.456536152e-79
6.462751627e-73
7.097174606e-67
8.593998179e-61
1.15196539e-54
1.708643669e-48
3.139641685e-42
1.000622973e-34
6.602430691e-30
1.621470302e-32
0.9999999997
1
1
1
1
1
1
1
1
1
1
1
1
1
1
1
1
1
1
0.9999999999
1
1
1
1
1
1
1
1
1
1
1
1
1
1
1
1
1
1
1
1
1
1
1
1
1
1
1
1
1
1
3.669508984e-179
1.659251327e-174
6.663872967e-170
2.324096959e-165
6.847343356e-161
1.657079796e-156
3.249822298e-152
4.786654116e-148
6.248801942e-146
2.70161505e-140
1.271686891e-134
6.259693718e-129
3.235751549e-123
1.76403248e-117
1.018673712e-111
6.258549937e-106
4.109169442e-100
2.896117833e-94
2.20090092e-88
1.811573141e-82
1.622561902e-76
1.589623359e-70
1.71445499e-64
2.052253656e-58
2.750205337e-52
4.1732359e-46
1.646374746e-39
1.321124374e-33
1.291659487e-32
1.291862802e-32
3.707361084e-10
1
1
1
1
1
1
1
1
1
1
1
1
1
1
1
1
1
0.9999999998
1.510117793e-11
1
1
1
1
1
1
1
1
1
1
1
1
1
1
1
1
1
1
1
1
1
1
1
1
1
1
1
1
1
1
9.231656661e-183
4.538800136e-178
2.023988877e-173
8.055265774e-169
2.803906187e-164
8.303773703e-160
2.002748636e-155
3.576892057e-151
3.440323572e-147
1.806746664e-144
8.111015533e-139
3.814833301e-133
1.889509476e-127
9.899585048e-122
5.510832345e-116
3.274133444e-110
2.085417736e-104
1.430231855e-98
1.060581309e-92
8.535715072e-87
7.478925178e-81
7.149083156e-75
7.461000029e-69
8.494739608e-63
1.053232129e-56
1.420868618e-50
2.11603553e-44
6.941063222e-38
4.414212904e-30
1.713587641e-25
3.393402057e-30
0.9999999999
1
1
1
1
1
1
1
1
1
1
1
1
1
1
1
1
1
1.14240376e-09
1
1
1
1
1
1
1
1
1
1
1
1
1
1
1
1
1
1
1
1
1
1
1
1
1
1
1
1
1
1
2.2607811e-183
1.028117385e-178
4.238027579e-174
1.556843947e-169
4.987197588e-165
1.354147634e-160
3.010657518e-156
5.289669185e-152
6.625412079e-148
1.282459284e-145
5.459227391e-140
2.481612234e-134
1.185651592e-128
5.982392924e-123
3.202799134e-117
1.827767306e-111
1.116821617e-105
7.337561037e-100
5.203503172e-94
3.996102846e-88
3.331377608e-82
3.018437747e-76
2.971067603e-70
3.168191837e-64
3.638498201e-58
4.459642089e-52
5.786479875e-46
8.501238372e-40
2.543848896e-33
1.802542878e-30
1.802543028e-30
2.304496839e-10
1
1
1
1
1
1
1
1
1
1
1
1
1
1
1
1
1.55893288e-10
4.980539153e-19
0.9999999998
1
1
1
1
1
1
1
1
1
1
1
1
1
1
1
1
1
1
1
1
1
1
1
1
1
1
1
1
1
1.301232534e-181
5.299824762e-177
1.943768183e-172
6.30766593e-168
1.77244252e-163
4.192576618e-159
7.969429924e-155
1.065821119e-150
4.753803405e-147
1.552546473e-143
6.380202502e-138
2.75798733e-132
1.25987052e-126
6.109359954e-121
3.159015664e-115
1.749514219e-109
1.042220764e-103
6.70561761e-98
4.676568575e-92
3.545564482e-86
2.927371578e-80
2.632244633e-74
2.571649445e-68
2.715199633e-62
3.071697106e-56
3.683924709e-50
4.647618783e-44
8.144164629e-38
8.576387092e-32
3.282930232e-30
2.542737022e-30
7.068984993e-11
0.9999999997
1
1
1
1
1
1
1
1
1
1
1
1
1
1
0.9999999994
6.043599746e-10
2.910633341e-10
1
1
1
1
1
1
1
1
1
1
1
1
1
1
1
1
1
1
1
1
1
1
1
1
1
1
1
1
1
1
6.184974725e-185
2.598707479e-180
9.966647807e-176
3.444150341e-171
1.058776282e-166
2.868934498e-162
6.849906101e-158
1.425291151e-153
2.145317236e-149
6.767120616e-147
7.653131871e-142
3.156511963e-136
1.378874669e-130
6.409546252e-125
3.185295158e-119
1.700252217e-113
9.792721242e-108
6.112624368e-102
4.151912343e-96
3.07943414e-90
2.50023686e-84
2.224397616e-78
2.165969824e-72
2.299085643e-66
2.641103897e-60
3.251426392e-54
4.246900273e-48
5.858461164e-42
8.760374711e-36
2.766315861e-29
1.703691723e-21
8.718134216e-17
2.780327003e-21
0.9999999997
1
1
1
1
1
1
1
1
1
1
1
1
0.9999999996
6.060457228e-26
4.766901856e-19
0
0.9999999998
1
1
1
1
1
1
1
1
1
1
1
1
1
1
1
1
1
1
1
1
1
1
1
1
1
1
1
1
1
1.219194019e-189
5.29039386e-185
2.126089739e-180
7.829055958e-176
2.611130398e-171
7.793275878e-167
2.061989064e-162
4.82596095e-158
9.860440042e-154
1.466617669e-149
6.164715787e-147
5.217917233e-142
2.192558795e-136
9.832652988e-131
4.729381409e-125
2.451928929e-119
1.37699021e-113
8.417644428e-108
5.627622965e-102
4.132523253e-96
3.345501132e-90
2.993690159e-84
2.964313321e-78
3.244917148e-72
3.914600352e-66
5.18062023e-60
7.493963704e-54
1.198350284e-47
4.025439596e-41
2.338856979e-33
6.232013279e-27
5.294540135e-28
2.190851934e-16
7.044163855e-11
2.275800558e-10
0.9999999999
1
1
1
1
1
1
1
1
0.9999999999
1.303615816e-10
8.621198749e-12
1.679844262e-19
1.447658011e-43
6.46470272e-51
0.9999999999
1
1
1
1
1
1
1
1
1
1
1
1
1
1
1
1
1
1
1
1
1
1
1
1
1
1
1
1
1
1.019514484e-195
4.70396812e-191
2.045873963e-186
8.325791195e-182
3.144538341e-177
1.091238641e-172
3.434134717e-168
9.628507658e-164
2.345070921e-159
4.742953997e-155
7.009455766e-151
4.035243312e-147
7.062992944e-144
3.039789681e-138
1.406933005e-132
7.040714987e-127
3.829524524e-121
2.275804345e-115
1.485407438e-109
1.070197888e-103
8.550969909e-98
7.607055289e-92
7.555550152e-86
8.385833719e-80
1.038214117e-73
1.42653877e-67
2.157262573e-61
3.554216932e-55
6.3530431e-49
2.191539187e-42
9.795846888e-36
5.207890363e-28
9.488571779e-22
2.607180012e-24
7.670622348e-24
7.335841397e-29
3.638288141e-10
0.9999999997
0.9999999998
1
1
0.9999999998
0.9999999997
3.328338812e-10
8.427105009e-30
8.108846579e-30
6.099754981e-30
2.633925487e-26
3.572888413e-33
1.500825607e-59
0.9999999999
1
1
1
1
1
1
1
1
1
1
1
1
1
1
1
1
1
1
1
1
1
1
1
1
1
1
1
1
1
1.029416991e-204
4.916183623e-200
2.243916122e-195
9.741015277e-191
4.002300794e-186
1.54759372e-181
5.590151527e-177
1.867358783e-172
5.690210822e-168
1.553413347e-163
3.711415409e-159
7.474888466e-155
1.118066694e-150
4.800314843e-147
2.527913495e-143
1.238239336e-137
6.625133802e-132
3.894883163e-126
2.531409496e-120
1.830444966e-114
1.482249828e-108
1.353260888e-102
1.402532136e-96
1.661650862e-90
2.266718886e-84
3.589515195e-78
6.670793918e-72
1.479004956e-65
7.735837485e-59
5.038377018e-50
4.927931622e-43
6.224304047e-34
9.837869264e-31
4.623136542e-30
2.550025476e-30
3.42046073e-28
2.225889391e-30
2.261166244e-34
5.477631514e-31
1.293850444e-10
1.272150179e-10
4.24655488e-35
4.24655488e-35
2.956199923e-31
2.808769011e-28
1.408149299e-36
3.097345626e-30
3.350429959e-36
1.567808218e-40
6.134826199e-60
0.9999999999
1
1
1
1
1
1
1
1
1
1
1
1
1
1
1
1
1
1
1
1
1
1
1
1
1
1
1
1
1
1.794310963e-210
8.573699958e-206
3.973161466e-201
1.777134574e-196
7.64412988e-192
3.152586018e-187
1.242319162e-182
4.654395909e-178
1.645747331e-173
5.435197977e-169
1.653768532e-164
4.560829626e-160
1.11756207e-155
2.310159834e-151
3.065878126e-147
1.325785592e-144
6.828260489e-139
3.878140936e-133
2.446979668e-127
1.727972672e-121
1.376837705e-115
1.249242077e-109
1.304306737e-103
1.58621975e-97
2.279346662e-91
3.936323407e-85
8.338358002e-79
2.227010497e-72
8.537854054e-66
5.060234028e-57
9.406683371e-50
3.548040528e-43
1.352851846e-37
1.579182518e-33
3.274735439e-35
8.228227284e-34
2.261166244e-34
2.261166244e-34
6.625499448e-29
6.646221252e-29
1.04564559e-28
1.048325788e-28
2.002071965e-34
4.956007324e-35
4.95600729e-35
5.406528373e-37
1.8928474e-37
1.818865475e-44
9.476250715e-51
6.134826142e-60
0.9999999999
1
1
1
1
1
1
1
1
1
1
1
1
1
1
1
1
1
1
1
1
1
1
1
1
1
1
1
1
1
9.629350288e-207
3.71230731e-202
1.385037098e-197
4.949636701e-193
1.678511857e-188
5.366596197e-184
1.609139134e-179
4.499232024e-175
1.165760996e-170
2.791804633e-166
6.310618252e-162
1.480042598e-157
4.106382818e-153
1.053887806e-148
1.604043088e-146
5.275545501e-141
2.674438952e-135
1.503857584e-129
9.445970908e-124
6.679901097e-118
5.366851462e-112
4.952181139e-106
5.318456477e-100
6.760866976e-94
1.039856691e-87
1.992946122e-81
4.962226438e-75
1.705031944e-68
8.951320789e-62
6.799842051e-55
1.359676048e-46
1.210614518e-41
3.932688248e-36
1.277663403e-32
3.274735439e-35
7.385078069e-31
3.782560975e-33
4.433782615e-31
2.863805472e-25
1.510683808e-25
3.883832599e-26
6.207836475e-26
2.075251522e-31
4.772551073e-34
4.857468545e-34
1.003143083e-36
5.88307021e-38
1.458026674e-45
2.444125232e-52
6.134826113e-60
0.9999999999
1
1
1
1
1
1
1
1
1
1
1
1
1
1
1
1
1
1
1
1
1
1
1
1
1
1
1
1
1
1.919812973e-202
6.586119223e-198
2.175851184e-193
6.850374946e-189
2.034539768e-184
5.652128747e-180
1.456239747e-175
3.442486403e-171
7.358101643e-167
1.394311013e-162
2.287120438e-158
3.157371162e-154
3.296502187e-150
4.957755436e-147
6.707452776e-143
2.821330699e-137
1.317604138e-131
6.889010738e-126
4.070462894e-120
2.748148389e-114
2.149100219e-108
1.981315718e-102
2.205996668e-96
3.072317777e-90
5.657174216e-84
1.525975421e-77
7.820644058e-71
8.252627697e-64
1.767053259e-56
2.362936746e-49
1.119549244e-40
3.386496774e-34
1.388084846e-29
8.058298373e-30
7.126142067e-32
4.760395768e-25
5.571287544e-37
5.571287544e-37
5.629873622e-37
1.293355572e-10
1.271622932e-10
5.895173498e-30
2.075303817e-31
2.338248454e-28
1.997649246e-27
1.006849308e-31
3.49950891e-30
1.171083106e-36
1.365649154e-41
6.134826055e-60
0.9999999999
1
1
1
1
1
1
1
1
1
1
1
1
1
1
1
1
1
1
1
1
1
1
1
1
1
1
1
1
1
3.003465899e-198
9.285769092e-194
2.753574625e-189
7.759136922e-185
2.05846058e-180
5.096901861e-176
1.166245743e-171
2.433440787e-167
4.542862088e-163
7.376195939e-159
9.938327931e-155
9.888362366e-151
3.943558151e-147
4.442255073e-144
1.677851538e-138
7.017256501e-133
3.276352487e-127
1.723152652e-121
1.031594406e-115
7.120477787e-110
5.761398133e-104
5.590720562e-98
6.728537725e-92
1.059913117e-85
2.412192787e-79
1.08932307e-72
2.399498846e-65
3.98585335e-58
9.82772379e-51
3.570667219e-43
1.878047874e-34
3.448841553e-27
1.125537758e-21
3.391102046e-32
3.391102046e-32
3.391102043e-32
3.637599056e-10
0.9999999997
0.9999999998
1
1
0.9999999998
0.9999999997
3.327096997e-10
1.452660548e-28
6.378063925e-29
1.080804621e-29
1.14632334e-26
7.670854607e-34
6.134825995e-60
0.9999999999
1
1
1
1
1
1
1
1
1
1
1
1
1
1
1
1
1
1
1
1
1
1
1
1
1
1
1
1
1
2.872174172e-194
7.975079603e-190
2.114089366e-185
5.306534238e-181
1.250598963e-176
2.741816011e-172
5.526943136e-168
1.008002023e-163
1.626550125e-159
2.252873735e-155
2.553911591e-151
2.004415145e-147
6.543028502e-145
2.345841202e-139
9.280363653e-134
4.089138804e-128
2.026005786e-122
1.140770032e-116
7.389714749e-111
5.589424275e-105
5.03067696e-99
5.528560765e-93
7.705621847e-87
1.443713798e-80
3.858272434e-74
4.588543085e-67
2.13052533e-59
3.893053276e-52
1.382966612e-44
3.944055604e-33
7.942727803e-27
3.448842193e-27
8.130946508e-17
7.048768372e-11
2.275162429e-10
0.9999999999
1
1
1
1
1
1
1
1
0.9999999999
1.301144552e-10
8.535033044e-12
8.417629274e-20
2.547877983e-41
5.364185801e-52
0.9999999999
1
1
1
1
1
1
1
1
1
1
1
1
1
1
1
1
1
1
1
1
1
1
1
1
1
1
1
1
1
1.201663633e-190
2.952157909e-186
6.881987494e-182
1.510263907e-177
3.092540055e-173
5.843694219e-169
1.003795011e-164
1.535677645e-160
2.037945868e-156
2.265029499e-152
1.868202806e-148
7.36208189e-146
2.433128378e-140
8.939349269e-135
3.627471095e-129
1.639532267e-123
8.330413862e-118
4.808659032e-112
3.193490937e-106
2.479329844e-100
2.299471129e-94
2.629897358e-88
3.904312937e-82
8.319228132e-76
5.34063781e-69
6.54481049e-60
3.241246329e-52
6.335501421e-45
2.576432596e-37
2.421212257e-30
2.610858374e-21
4.599563382e-16
5.52159974e-21
0.9999999997
1
1
1
1
1
1
1
1
1
1
1
1
0.9999999996
5.870327037e-25
2.8037322e-17
5.622318692e-79
0.9999999998
1
1
1
1
1
1
1
1
1
1
1
1
1
1
1
1
1
1
1
1
1
1
1
1
1
1
1
1
1
7.357173357e-188
1.519910793e-183
2.951829667e-179
5.33669851e-175
8.877177855e-171
1.337400017e-166
1.783542245e-162
2.032330097e-158
1.865336382e-154
1.22497571e-150
3.911492834e-147
9.099027968e-144
3.023612192e-138
1.106113572e-132
4.489137086e-127
2.037303946e-121
1.043015485e-115
6.085013642e-110
4.09511633e-104
3.229164735e-98
3.048064461e-92
3.554836011e-86
5.394749782e-80
1.26432304e-73
8.476939789e-66
2.243988056e-56
1.17794093e-48
2.502055168e-41
2.569803286e-33
1.317915612e-30
3.664224074e-24
7.06355696e-11
0.9999999997
1
1
1
1
1
1
1
1
1
1
1
1
1
1
0.9999999994
6.041458418e-10
2.90538774e-10
1
1
1
1
1
1
1
1
1
1
1
1
1
1
1
1
1
1
1
1
1
1
1
1
1
1
1
1
1
1
2.706242563e-189
5.517527729e-185
1.06891883e-180
1.951715168e-176
3.326687901e-172
5.226238001e-168
7.428211661e-164
9.285841939e-160
9.763696776e-156
8.002990742e-152
4.26412661e-148
3.692122671e-146
1.120641216e-140
3.90800225e-135
1.526506396e-129
6.734048748e-124
3.386288114e-118
1.962398396e-112
1.328463238e-106
1.069535505e-100
1.050703404e-94
1.311525877e-88
2.242803194e-82
9.288153405e-76
6.176323724e-67
3.29139579e-58
1.053773096e-50
2.726150034e-43
4.611979883e-35
2.401331226e-29
3.036151917e-29