/*--------------------------------*- C++ -*----------------------------------*\
  =========                 |
  \\      /  F ield         | OpenFOAM: The Open Source CFD Toolbox
   \\    /   O peration     | Website:  https://openfoam.org
    \\  /    A nd           | Version:  10
     \\/     M anipulation  |
\*---------------------------------------------------------------------------*/
FoamFile
{
    format      ascii;
    class       volScalarField;
    location    "0.005";
    object      Num_divU;
}
// * * * * * * * * * * * * * * * * * * * * * * * * * * * * * * * * * * * * * //

dimensions      [0 0 -1 0 0 0 0];

internalField   nonuniform List<scalar> 
19200
(
3.170771791e-08
-9.755334435e-07
-4.092165189e-06
-7.117599407e-06
-1.008239818e-05
-1.293520792e-05
-1.569172325e-05
-1.830722924e-05
-2.083632389e-05
-2.334865301e-05
-2.574333589e-05
-2.789862435e-05
-2.984463856e-05
-3.168646785e-05
-3.344719642e-05
-3.504585042e-05
-3.639102293e-05
-3.745607824e-05
-3.82745811e-05
-3.889187117e-05
-3.932775595e-05
-3.957079389e-05
-3.959365115e-05
-3.937204237e-05
-3.88965566e-05
-3.817455443e-05
-3.722428482e-05
-3.606587007e-05
-3.471410964e-05
-3.31761677e-05
-3.145416626e-05
-2.955031526e-05
-2.747167365e-05
-2.52327172e-05
-2.285547339e-05
-2.036818064e-05
-1.780399711e-05
-1.520002304e-05
-1.25941336e-05
-1.002389227e-05
-7.534108477e-06
-5.169154691e-06
-2.960830632e-06
-9.225258958e-07
8.885628013e-07
2.428144415e-06
3.669133074e-06
4.634077672e-06
5.315460488e-06
3.492386058e-06
4.752993858e-22
-5.754869527e-18
-1.401418812e-17
-2.186110041e-17
-2.951229826e-17
-3.710522431e-17
-4.468688973e-17
-5.232941393e-17
-6.025012399e-17
-6.844406916e-17
-7.675343856e-17
-8.556185253e-17
-9.491435778e-17
-1.046443046e-16
-1.146930142e-16
-1.250340811e-16
-1.356211559e-16
-1.463548913e-16
-1.570065938e-16
-1.672791138e-16
-1.770031411e-16
-1.862064568e-16
-1.949514821e-16
-2.031489346e-16
-2.105632325e-16
-2.169746512e-16
-2.223196948e-16
-2.266971988e-16
-2.302766869e-16
-2.332004578e-16
-2.915744729e-06
-7.655887849e-06
-1.336804506e-05
-1.876928129e-05
-2.398434481e-05
-2.890277433e-05
-3.363659007e-05
-3.829388274e-05
-4.280522664e-05
-4.703550212e-05
-5.09124102e-05
-5.448263436e-05
-5.783074795e-05
-6.095813159e-05
-6.376690711e-05
-6.61477015e-05
-6.806091299e-05
-6.954054883e-05
-7.06422508e-05
-7.13941358e-05
-7.178333232e-05
-7.177311209e-05
-7.132911613e-05
-7.043747556e-05
-6.910864839e-05
-6.736955268e-05
-6.525091851e-05
-6.277704667e-05
-5.996230391e-05
-5.681447651e-05
-5.334184596e-05
-4.95600255e-05
-4.549601114e-05
-4.118907141e-05
-3.668941417e-05
-3.205537485e-05
-2.735062618e-05
-2.264546408e-05
-1.801590505e-05
-1.353159893e-05
-9.260116406e-06
-5.27017944e-06
-1.646825675e-06
1.570572178e-06
4.33027559e-06
6.595995671e-06
8.327096192e-06
9.504323862e-06
8.045076762e-06
2.877192529e-06
-1.233076414e-17
-2.619873123e-17
-4.072173081e-17
-5.464630916e-17
-6.84054253e-17
-8.222795457e-17
-9.627940074e-17
-1.105422647e-16
-1.252652418e-16
-1.408165115e-16
-1.569574812e-16
-1.737256784e-16
-1.911792927e-16
-2.092925032e-16
-2.279458964e-16
-2.469395996e-16
-2.66002477e-16
-2.847819037e-16
-3.029224635e-16
-3.202215756e-16
-3.36659542e-16
-3.522254324e-16
-3.667334441e-16
-3.798320497e-16
-3.911950081e-16
-4.006985097e-16
-4.08444794e-16
-4.146258139e-16
-4.1927507e-16
-1.900833579e-16
-2.494661784e-06
-6.484391549e-06
-1.155804235e-05
-1.62362222e-05
-2.068809125e-05
-2.504204323e-05
-2.934148536e-05
-3.346638985e-05
-3.734717833e-05
-4.101394306e-05
-4.447104676e-05
-4.769922288e-05
-5.069703354e-05
-5.345283543e-05
-5.591403572e-05
-5.801604251e-05
-5.973180115e-05
-6.10821955e-05
-6.210440037e-05
-6.281641246e-05
-6.320626389e-05
-6.324495507e-05
-6.290647515e-05
-6.218103231e-05
-6.107713448e-05
-5.961527666e-05
-5.781867637e-05
-5.570602392e-05
-5.328896583e-05
-5.057428614e-05
-4.756876347e-05
-4.42842002e-05
-4.074092836e-05
-3.696938218e-05
-3.301024883e-05
-2.891319421e-05
-2.473389821e-05
-2.0534986e-05
-1.638559753e-05
-1.235069592e-05
-8.50062807e-06
-4.901893315e-06
-1.603333189e-06
1.32788723e-06
3.869523438e-06
5.910627572e-06
7.459587128e-06
8.511698593e-06
7.323988094e-06
2.805487447e-06
-1.019174314e-17
-2.227131197e-17
-3.531700357e-17
-4.788238376e-17
-6.032834454e-17
-7.283091148e-17
-8.557978192e-17
-9.858303441e-17
-1.120469526e-16
-1.260524265e-16
-1.405584986e-16
-1.557221942e-16
-1.715065171e-16
-1.877926866e-16
-2.044128132e-16
-2.211441192e-16
-2.378014724e-16
-2.542617502e-16
-2.704017555e-16
-2.860731988e-16
-3.011225841e-16
-3.153707987e-16
-3.28561876e-16
-3.403903639e-16
-3.506215932e-16
-3.592165139e-16
-3.663504568e-16
-3.723022891e-16
-3.773076883e-16
-1.939866785e-16
-2.467222558e-06
-6.317923958e-06
-1.105247227e-05
-1.551254323e-05
-1.987606643e-05
-2.411460311e-05
-2.821566816e-05
-3.212276239e-05
-3.583661074e-05
-3.93945311e-05
-4.276463386e-05
-4.589524043e-05
-4.877930886e-05
-5.14204711e-05
-5.378525993e-05
-5.581970632e-05
-5.749642266e-05
-5.882957423e-05
-5.98495874e-05
-6.05718969e-05
-6.098667377e-05
-6.106924153e-05
-6.079668837e-05
-6.015903645e-05
-5.916161624e-05
-5.782075046e-05
-5.615658533e-05
-5.418664974e-05
-5.19224973e-05
-4.937011183e-05
-4.653326387e-05
-4.341827248e-05
-4.003860676e-05
-3.641817366e-05
-3.259280595e-05
-2.860887273e-05
-2.451819252e-05
-2.038370634e-05
-1.628035973e-05
-1.227290486e-05
-8.411848197e-06
-4.836074872e-06
-1.486344058e-06
1.391634656e-06
3.8889983e-06
5.907262975e-06
7.478198407e-06
8.539239609e-06
7.306802045e-06
2.848682128e-06
-1.041950143e-17
-2.299469916e-17
-3.666051735e-17
-4.9855278e-17
-6.296204565e-17
-7.61662174e-17
-8.962478794e-17
-1.031476985e-16
-1.172999175e-16
-1.320459053e-16
-1.473278887e-16
-1.630962699e-16
-1.79298276e-16
-1.958346727e-16
-2.125128795e-16
-2.291987516e-16
-2.459149035e-16
-2.626832642e-16
-2.793405012e-16
-2.955765563e-16
-3.110943101e-16
-3.256726282e-16
-3.390996987e-16
-3.511362435e-16
-3.615951532e-16
-3.704675454e-16
-3.779449954e-16
-3.842755314e-16
-3.895015548e-16
-2.051534986e-16
-2.406629302e-06
-6.123688747e-06
-1.072303607e-05
-1.507369272e-05
-1.930917716e-05
-2.338975402e-05
-2.732895196e-05
-3.110145427e-05
-3.47146606e-05
-3.818827109e-05
-4.147216885e-05
-4.4509711e-05
-4.729989646e-05
-4.985635503e-05
-5.215403934e-05
-5.41428061e-05
-5.579428351e-05
-5.71191485e-05
-5.814506705e-05
-5.888744361e-05
-5.933874839e-05
-5.947677266e-05
-5.927916376e-05
-5.873414659e-05
-5.78442043e-05
-5.662361859e-05
-5.509219938e-05
-5.326806186e-05
-5.116228756e-05
-4.877744356e-05
-4.611040186e-05
-4.315836275e-05
-3.992576239e-05
-3.642947358e-05
-3.270150234e-05
-2.878721497e-05
-2.473184443e-05
-2.059020483e-05
-1.643804792e-05
-1.23861213e-05
-8.358374545e-06
-4.795585256e-06
-1.357265302e-06
1.592726286e-06
4.095772939e-06
6.106963051e-06
7.671122292e-06
8.726817645e-06
7.465865926e-06
2.898524702e-06
-1.107792995e-17
-2.477914971e-17
-3.967036612e-17
-5.403222188e-17
-6.823487715e-17
-8.250536653e-17
-9.721337416e-17
-1.11781434e-16
-1.270197549e-16
-1.427174398e-16
-1.590032035e-16
-1.757611813e-16
-1.927969677e-16
-2.099633205e-16
-2.271570599e-16
-2.444118513e-16
-2.61845581e-16
-2.794319248e-16
-2.968922028e-16
-3.138418667e-16
-3.299876451e-16
-3.451520289e-16
-3.591535269e-16
-3.717501192e-16
-3.827414686e-16
-3.921169378e-16
-4.00064112e-16
-4.067693079e-16
-4.121720293e-16
-2.195491407e-16
-2.324741046e-06
-5.919581367e-06
-1.035044611e-05
-1.452647161e-05
-1.857632072e-05
-2.247354092e-05
-2.624705961e-05
-2.987683581e-05
-3.336320022e-05
-3.671348352e-05
-3.987307254e-05
-4.278963516e-05
-4.546859795e-05
-4.792869007e-05
-5.01484862e-05
-5.20798701e-05
-5.369465913e-05
-5.50026132e-05
-5.603084414e-05
-5.679544262e-05
-5.729028937e-05
-5.749398967e-05
-5.738364018e-05
-5.694613125e-05
-5.61832482e-05
-5.511010438e-05
-5.374818206e-05
-5.211597054e-05
-5.022130726e-05
-4.805896532e-05
-4.561477916e-05
-4.287475465e-05
-3.983493208e-05
-3.650637788e-05
-3.291578507e-05
-2.910384548e-05
-2.510076784e-05
-2.094191678e-05
-1.663751632e-05
-1.254131187e-05
-8.331039183e-06
-4.699037485e-06
-1.281057892e-06
1.802507968e-06
4.362213221e-06
6.417750688e-06
7.936636657e-06
8.954266617e-06
7.687440866e-06
2.990721495e-06
-1.211328327e-17
-2.737854613e-17
-4.388157162e-17
-5.974419381e-17
-7.533842487e-17
-9.085649519e-17
-1.07025376e-16
-1.228919068e-16
-1.394157497e-16
-1.563981192e-16
-1.737890687e-16
-1.915509904e-16
-2.095972421e-16
-2.277807603e-16
-2.459936524e-16
-2.642777444e-16
-2.827160449e-16
-3.012265334e-16
-3.195242003e-16
-3.372734187e-16
-3.542296877e-16
-3.702151216e-16
-3.850053586e-16
-3.983147776e-16
-4.099334998e-16
-4.198696038e-16
-4.28309245e-16
-4.353781557e-16
-4.409512832e-16
-2.368158382e-16
-2.232316895e-06
-5.674055264e-06
-9.877842159e-06
-1.382856684e-05
-1.766027222e-05
-2.135295519e-05
-2.493750928e-05
-2.83916843e-05
-3.171047305e-05
-3.489571101e-05
-3.789490827e-05
-4.066241747e-05
-4.320806306e-05
-4.555212036e-05
-4.767464352e-05
-4.952984487e-05
-5.10916537e-05
-5.237088043e-05
-5.339486461e-05
-5.417970124e-05
-5.471924671e-05
-5.499199254e-05
-5.4975156e-05
-5.465679398e-05
-5.404139823e-05
-5.314749483e-05
-5.199840733e-05
-5.061034042e-05
-4.898361898e-05
-4.710167563e-05
-4.493861087e-05
-4.247190604e-05
-3.969320099e-05
-3.660689881e-05
-3.322159697e-05
-2.955271356e-05
-2.559017524e-05
-2.140277913e-05
-1.69285734e-05
-1.27694205e-05
-8.513325468e-06
-4.569586496e-06
-1.016654608e-06
2.129619398e-06
4.70541513e-06
6.79394923e-06
8.32967501e-06
9.314122843e-06
7.892021375e-06
3.094094869e-06
-1.355174135e-17
-3.075530618e-17
-4.915774886e-17
-6.67691429e-17
-8.401350322e-17
-1.010174638e-16
-1.188082364e-16
-1.364351447e-16
-1.542412484e-16
-1.72605402e-16
-1.913997902e-16
-2.105326461e-16
-2.299414511e-16
-2.494433832e-16
-2.689149733e-16
-2.884057432e-16
-3.079778456e-16
-3.275365091e-16
-3.468365e-16
-3.655985562e-16
-3.835859684e-16
-4.005685354e-16
-4.162597419e-16
-4.303527219e-16
-4.426654866e-16
-4.532377757e-16
-4.622338894e-16
-4.697022347e-16
-4.754766102e-16
-2.569879708e-16
-2.121478697e-06
-5.370887835e-06
-9.302018465e-06
-1.299300216e-05
-1.657824147e-05
-2.003684806e-05
-2.339684945e-05
-2.663457084e-05
-2.974369028e-05
-3.27245116e-05
-3.552899769e-05
-3.811793421e-05
-4.050338599e-05
-4.270513456e-05
-4.470436923e-05
-4.645900141e-05
-4.794694836e-05
-4.918108752e-05
-5.018854818e-05
-5.098403396e-05
-5.156029292e-05
-5.189622348e-05
-5.197176982e-05
-5.178002447e-05
-5.133142335e-05
-5.064859455e-05
-4.975426406e-05
-4.86582907e-05
-4.735075769e-05
-4.580492554e-05
-4.398845286e-05
-4.187648401e-05
-3.945757697e-05
-3.671687545e-05
-3.36102275e-05
-3.009434692e-05
-2.622155825e-05
-2.211033639e-05
-1.749795876e-05
-1.285301829e-05
-8.426221102e-06
-4.441818323e-06
-7.501001733e-07
2.57211034e-06
5.261440177e-06
7.235550003e-06
8.70535245e-06
9.711000705e-06
8.197265083e-06
3.212004646e-06
-1.532502217e-17
-3.482782235e-17
-5.548478232e-17
-7.521907326e-17
-9.440968923e-17
-1.132275971e-16
-1.323234498e-16
-1.520027239e-16
-1.717087221e-16
-1.917084524e-16
-2.121077181e-16
-2.328958335e-16
-2.539029648e-16
-2.748556904e-16
-2.956868536e-16
-3.165277453e-16
-3.37438988e-16
-3.58294038e-16
-3.788503324e-16
-3.988442428e-16
-4.180189349e-16
-4.36097853e-16
-4.527663959e-16
-4.677385401e-16
-4.808744265e-16
-4.922197486e-16
-5.018733525e-16
-5.097932722e-16
-5.158023592e-16
-2.801095801e-16
-1.987333401e-06
-5.011240076e-06
-8.635344314e-06
-1.203656334e-05
-1.534418791e-05
-1.853383785e-05
-2.163060289e-05
-2.461193279e-05
-2.747281216e-05
-3.021330648e-05
-3.279004898e-05
-3.516936109e-05
-3.736414235e-05
-3.939301129e-05
-4.12390226e-05
-4.286538505e-05
-4.425524822e-05
-4.542351412e-05
-4.639583253e-05
-4.718410755e-05
-4.777991811e-05
-4.816476033e-05
-4.83252618e-05
-4.826334784e-05
-4.79967123e-05
-4.754994605e-05
-4.694126671e-05
-4.617226804e-05
-4.522612105e-05
-4.4074387e-05
-4.268732561e-05
-4.10391454e-05
-3.910189721e-05
-3.680151129e-05
-3.404820268e-05
-3.08445567e-05
-2.712358136e-05
-2.325817297e-05
-1.370546669e-05
-9.332120083e-06
-5.789599814e-06
-2.532561077e-06
3.400167747e-07
3.520276851e-06
6.173299834e-06
7.884766752e-06
9.250744656e-06
1.014075929e-05
8.535379932e-06
3.337383706e-06
-1.739778847e-17
-3.976978529e-17
-6.320883345e-17
-8.544798286e-17
-1.065267836e-16
-1.277153156e-16
-1.483585853e-16
-1.695391278e-16
-1.912215709e-16
-2.132337702e-16
-2.356115587e-16
-2.583455804e-16
-2.811393961e-16
-3.036875897e-16
-3.260630873e-16
-3.485059555e-16
-3.71048791e-16
-3.934871015e-16
-4.155416488e-16
-4.369430033e-16
-4.574252926e-16
-4.767017951e-16
-4.944731278e-16
-5.104912872e-16
-5.246356992e-16
-5.369081536e-16
-5.473055106e-16
-5.557070434e-16
-5.619679606e-16
-3.061577244e-16
-1.832847089e-06
-4.60453281e-06
-7.892807683e-06
-1.097558582e-05
-1.397400538e-05
-1.686061378e-05
-1.965861088e-05
-2.234834064e-05
-2.492692994e-05
-2.739396635e-05
-2.971028677e-05
-3.184711263e-05
-3.381769728e-05
-3.563979269e-05
-3.729945739e-05
-3.876643863e-05
-4.002948842e-05
-4.110463467e-05
-4.201451416e-05
-4.276748764e-05
-4.335532625e-05
-4.37656966e-05
-4.399605772e-05
-4.405925207e-05
-4.397860858e-05
-4.377673584e-05
-4.346554054e-05
-4.304312041e-05
-4.249714746e-05
-4.180986986e-05
-4.09595988e-05
-3.991027199e-05
-3.858065339e-05
-3.684958487e-05
-3.463577245e-05
-3.196969372e-05
-2.129755472e-05
-1.054260586e-05
-3.747421096e-06
-2.43652227e-06
-1.155296564e-06
7.726477589e-08
1.070513897e-06
3.064490728e-06
5.776385549e-06
7.227284837e-06
9.960521686e-06
1.058570524e-05
8.87164643e-06
3.466692995e-06
-1.990847024e-17
-4.608435437e-17
-7.281454822e-17
-9.792672018e-17
-1.206314112e-16
-1.439234824e-16
-1.66992129e-16
-1.901956954e-16
-2.137686619e-16
-2.376865967e-16
-2.620719565e-16
-2.868328998e-16
-3.115289294e-16
-3.358583956e-16
-3.600293039e-16
-3.843452524e-16
-4.087742718e-16
-4.330255468e-16
-4.567810031e-16
-4.797668717e-16
-5.017208838e-16
-5.223692035e-16
-5.414416473e-16
-5.587142985e-16
-5.740455254e-16
-5.873512854e-16
-5.985210944e-16
-6.073967078e-16
-6.139066299e-16
-3.350385409e-16
-1.662462455e-06
-4.1602077e-06
-7.089131995e-06
-9.828827544e-06
-1.249098089e-05
-1.504633653e-05
-1.75167305e-05
-1.988594604e-05
-2.21528878e-05
-2.431588232e-05
-2.633957229e-05
-2.819995347e-05
-2.991086631e-05
-3.148997773e-05
-3.292738547e-05
-3.41999434e-05
-3.530152715e-05
-3.624791513e-05
-3.70575183e-05
-3.773555707e-05
-3.827675588e-05
-3.867908927e-05
-3.895376158e-05
-3.912380757e-05
-3.921431892e-05
-3.924347413e-05
-3.92215884e-05
-3.91561947e-05
-3.905366833e-05
-3.891304931e-05
-3.871672537e-05
-3.840758719e-05
-3.790663799e-05
-3.700633319e-05
-2.747025948e-05
-1.527375704e-05
-4.58954948e-06
7.88427571e-22
-3.126593792e-18
-3.485457591e-18
-3.558950583e-18
-3.404448307e-18
-2.167188781e-18
2.401477533e-06
2.640144186e-06
5.055537734e-06
8.805589694e-06
9.009995521e-06
9.342820767e-06
3.584311945e-06
-2.314873453e-17
-5.443230374e-17
-8.456361313e-17
-1.127053662e-16
-1.377833228e-16
-1.625266318e-16
-1.875596036e-16
-2.129568313e-16
-2.38626256e-16
-2.646955463e-16
-2.91321108e-16
-3.182899452e-16
-3.450835451e-16
-3.714471573e-16
-3.976759472e-16
-4.240755565e-16
-4.505538804e-16
-4.767804542e-16
-5.024294558e-16
-5.272229333e-16
-5.508889353e-16
-5.731551024e-16
-5.937625353e-16
-6.124801508e-16
-6.291106972e-16
-6.434736792e-16
-6.553831506e-16
-6.646988253e-16
-6.714455609e-16
-3.666142826e-16
-1.479899762e-06
-3.687947707e-06
-6.243119725e-06
-8.62413846e-06
-1.093267713e-05
-1.313867991e-05
-1.52622908e-05
-1.729035756e-05
-1.922262804e-05
-2.105542003e-05
-2.275708553e-05
-2.430864157e-05
-2.572509236e-05
-2.70248493e-05
-2.820263635e-05
-2.924218795e-05
-3.014134669e-05
-3.09142056e-05
-3.157451998e-05
-3.212608828e-05
-3.257028293e-05
-3.291896824e-05
-3.31976457e-05
-3.343619704e-05
-3.365797771e-05
-3.387996143e-05
-3.412408935e-05
-3.442378857e-05
-3.481142283e-05
-3.529749758e-05
-3.586001293e-05
-3.639850813e-05
-3.702095931e-05
-1.734551926e-05
-6.151475111e-06
-2.866325425e-22
-3.289410104e-18
-6.086150777e-18
-6.81364674e-18
-7.087759233e-18
-6.938437972e-18
-6.162250589e-18
-4.667987749e-18
-4.814863793e-18
-2.52510932e-18
3.665216875e-06
3.419457925e-06
5.906654366e-06
7.797047693e-06
3.810879714e-06
-2.732988781e-17
-6.602617179e-17
-9.928162544e-17
-1.284317488e-16
-1.558414017e-16
-1.82740465e-16
-2.100505405e-16
-2.377389673e-16
-2.657203829e-16
-2.942803644e-16
-3.23397115e-16
-3.527431453e-16
-3.818307597e-16
-4.104813499e-16
-4.3900435e-16
-4.676502314e-16
-4.962996616e-16
-5.246518799e-16
-5.524090311e-16
-5.792744741e-16
-6.049324659e-16
-6.29077067e-16
-6.514287954e-16
-6.717197675e-16
-6.89682555e-16
-7.05060058e-16
-7.176451809e-16
-7.273680688e-16
-7.343420379e-16
-4.00738673e-16
-1.290237055e-06
-3.20164776e-06
-5.382358927e-06
-7.402993311e-06
-9.354508005e-06
-1.120653375e-05
-1.297656333e-05
-1.465361454e-05
-1.62371679e-05
-1.77210276e-05
-1.907737368e-05
-2.029256457e-05
-2.138332051e-05
-2.236935685e-05
-2.32499853e-05
-2.40148353e-05
-2.466414653e-05
-2.520923244e-05
-2.565984568e-05
-2.602126544e-05
-2.630540397e-05
-2.654002188e-05
-2.676282305e-05
-2.700618966e-05
-2.729185012e-05
-2.764620733e-05
-2.812024028e-05
-2.878358023e-05
-2.969172525e-05
-3.08758232e-05
-3.22829702e-05
-3.365173427e-05
-1.260298494e-05
-1.09236339e-21
-3.002098972e-18
-6.486063736e-18
-7.54932151e-18
-8.680602603e-18
-9.657044571e-18
-1.028369102e-17
-1.03115839e-17
-9.835806981e-18
-9.108945973e-18
-8.385458353e-18
-6.802995444e-18
-7.633572293e-18
-4.856424948e-18
4.205924605e-06
3.813025209e-06
2.858034264e-06
-3.25779476e-17
-8.386795971e-17
-1.182328573e-16
-1.479382202e-16
-1.766794942e-16
-2.05574905e-16
-2.350094228e-16
-2.649076028e-16
-2.953847769e-16
-3.266885191e-16
-3.584007582e-16
-3.901779523e-16
-4.216809361e-16
-4.528216654e-16
-4.838497474e-16
-5.149146527e-16
-5.458955639e-16
-5.76568728e-16
-6.066766909e-16
-6.358794941e-16
-6.637829469e-16
-6.900182342e-16
-7.142590792e-16
-7.361829815e-16
-7.554571061e-16
-7.717857796e-16
-7.849975136e-16
-7.951198403e-16
-8.023247319e-16
-4.372729744e-16
-1.100574109e-06
-2.720371058e-06
-4.543653328e-06
-6.219874777e-06
-7.828076794e-06
-9.337724769e-06
-1.076239386e-05
-1.209211922e-05
-1.332497677e-05
-1.445196506e-05
-1.544920444e-05
-1.630848183e-05
-1.704848531e-05
-1.76903467e-05
-1.823727029e-05
-1.868318524e-05
-1.902905895e-05
-1.9283018e-05
-1.945266306e-05
-1.954847387e-05
-1.959618593e-05
-1.963929836e-05
-1.972370079e-05
-1.988129085e-05
-2.013769958e-05
-2.054336359e-05
-2.118921925e-05
-2.217469884e-05
-2.357449841e-05
-2.54570166e-05
-2.791758327e-05
-1.342220469e-05
-4.014360228e-21
-5.559660211e-18
-6.850407928e-18
-8.080113293e-18
-9.406353379e-18
-1.098725956e-17
-1.246302218e-17
-1.341756723e-17
-1.376237715e-17
-1.387665928e-17
-1.411011659e-17
-1.435337509e-17
-1.411348095e-17
-1.358022556e-17
-1.189107967e-17
-1.18965776e-17
2.85815277e-06
-9.545390287e-20
-6.75724212e-17
-1.064983016e-16
-1.384905468e-16
-1.688124089e-16
-1.993949968e-16
-2.305010555e-16
-2.620466001e-16
-2.943029535e-16
-3.275526775e-16
-3.617877309e-16
-3.961494184e-16
-4.30411922e-16
-4.644506142e-16
-4.982591353e-16
-5.319894858e-16
-5.656745059e-16
-5.992060273e-16
-6.324414001e-16
-6.651436266e-16
-6.969045888e-16
-7.272353355e-16
-7.55694118e-16
-7.818989671e-16
-8.054695813e-16
-8.260242159e-16
-8.432679696e-16
-8.57103654e-16
-8.676566723e-16
-8.751136875e-16
-4.760771802e-16
-9.195117248e-07
-2.267618383e-06
-3.77182058e-06
-5.140304293e-06
-6.438758135e-06
-7.636561649e-06
-8.742025414e-06
-9.744887676e-06
-1.064064583e-05
-1.141727931e-05
-1.205472179e-05
-1.254980708e-05
-1.292297798e-05
-1.319638834e-05
-1.337585184e-05
-1.345760362e-05
-1.344187556e-05
-1.333412206e-05
-1.314275703e-05
-1.288745291e-05
-1.260970792e-05
-1.236633426e-05
-1.220674916e-05
-1.216266425e-05
-1.227394665e-05
-1.262790476e-05
-1.335380036e-05
-1.456098099e-05
-1.630413627e-05
-1.857451999e-05
-1.541332683e-05
-3.232062697e-06
-3.000555031e-18
-6.137192435e-18
-7.572972832e-18
-9.119783843e-18
-1.107202681e-17
-1.324974614e-17
-1.514185081e-17
-1.640742301e-17
-1.728573057e-17
-1.830320237e-17
-1.961671292e-17
-2.095164192e-17
-2.221595098e-17
-2.325846138e-17
-2.406432463e-17
-2.153802364e-17
-2.772856434e-17
-6.331595803e-17
-9.820263823e-17
-1.298904391e-16
-1.606456926e-16
-1.91856582e-16
-2.241912877e-16
-2.571680156e-16
-2.908028639e-16
-3.256464184e-16
-3.618988695e-16
-3.991606829e-16
-4.363061674e-16
-4.732489449e-16
-5.100294544e-16
-5.466915306e-16
-5.832958606e-16
-6.197902137e-16
-6.560918923e-16
-6.921166135e-16
-7.27609125e-16
-7.620747062e-16
-7.949331899e-16
-8.256784877e-16
-8.538780372e-16
-8.790993748e-16
-9.009303256e-16
-9.19106827e-16
-9.336201062e-16
-9.446666656e-16
-9.524092367e-16
-5.16987186e-16
-7.572452987e-07
-1.871204655e-06
-3.118782527e-06
-4.23925596e-06
-5.283776532e-06
-6.221824825e-06
-7.055122269e-06
-7.771629479e-06
-8.362986467e-06
-8.81388041e-06
-9.107517766e-06
-9.244789452e-06
-9.247149842e-06
-9.136897741e-06
-8.920713428e-06
-8.594973563e-06
-8.158164437e-06
-7.614590798e-06
-6.977284615e-06
-6.278733421e-06
-5.576229719e-06
-4.935384899e-06
-4.404730652e-06
-4.019124083e-06
-3.843693808e-06
-4.007543707e-06
-4.667691277e-06
-5.947371391e-06
-7.887148956e-06
-1.067233983e-05
-4.984763008e-06
-3.465921584e-21
-4.276686556e-18
-6.225666299e-18
-7.948757217e-18
-1.000227551e-17
-1.252002689e-17
-1.514191814e-17
-1.734891837e-17
-1.904301525e-17
-2.071678906e-17
-2.282189143e-17
-2.531810503e-17
-2.818661593e-17
-3.184968654e-17
-3.571155449e-17
-4.136150926e-17
-5.058091179e-17
-6.754686501e-17
-9.443560352e-17
-1.227483325e-16
-1.524716005e-16
-1.835541707e-16
-2.160603654e-16
-2.499525563e-16
-2.847723082e-16
-3.209463812e-16
-3.586932855e-16
-3.981088325e-16
-4.383938176e-16
-4.785394364e-16
-5.18490678e-16
-5.583074479e-16
-5.980369662e-16
-6.376746335e-16
-6.771365686e-16
-7.163841753e-16
-7.553595575e-16
-7.937580146e-16
-8.309945719e-16
-8.66416747e-16
-8.994733695e-16
-9.29686601e-16
-9.565794789e-16
-9.797256172e-16
-9.989058002e-16
-1.014189387e-15
-1.02580561e-15
-1.033867494e-15
-5.59795193e-16
-6.257915573e-07
-1.562760486e-06
-2.641434932e-06
-3.597768265e-06
-4.467790717e-06
-5.221419963e-06
-5.852522453e-06
-6.345612079e-06
-6.687042737e-06
-6.857794536e-06
-6.843306151e-06
-6.64688294e-06
-6.289733465e-06
-5.793026927e-06
-5.162269261e-06
-4.391849767e-06
-3.478091875e-06
-2.426576431e-06
-1.259140748e-06
-2.37245541e-08
1.208684217e-06
2.369645157e-06
3.414965182e-06
4.301894053e-06
4.932690261e-06
5.145753751e-06
4.778259064e-06
3.700226739e-06
1.800820367e-06
1.512552398e-06
1.06429802e-06
-2.244866952e-18
-4.024809902e-18
-5.967852788e-18
-8.035250562e-18
-1.049773664e-17
-1.339213518e-17
-1.628638922e-17
-1.87903987e-17
-2.105979906e-17
-2.361208581e-17
-2.668025584e-17
-3.024856844e-17
-3.443769665e-17
-4.004696649e-17
-4.870176614e-17
-5.871985073e-17
-7.342981288e-17
-9.222908025e-17
-1.170516785e-16
-1.44196349e-16
-1.740428555e-16
-2.062044171e-16
-2.400370315e-16
-2.75700932e-16
-3.129190296e-16
-3.5240711e-16
-3.932687896e-16
-4.358825166e-16
-4.791187392e-16
-5.224569725e-16
-5.657748833e-16
-6.089747341e-16
-6.52037771e-16
-6.949057187e-16
-7.375032294e-16
-7.798406487e-16
-8.218637422e-16
-8.632062734e-16
-9.032157745e-16
-9.411993479e-16
-9.765769696e-16
-1.008830815e-15
-1.037441258e-15
-1.061976295e-15
-1.082261659e-15
-1.098419416e-15
-1.110671557e-15
-1.119069277e-15
-6.042407338e-16
-5.383108554e-07
-1.375453832e-06
-2.396908208e-06
-3.296080369e-06
-4.094034675e-06
-4.761579651e-06
-5.283563477e-06
-5.639223716e-06
-5.808073362e-06
-5.766826495e-06
-5.501614216e-06
-5.01589481e-06
-4.328934771e-06
-3.459226014e-06
-2.408927696e-06
-1.168488045e-06
2.677911851e-07
1.890080216e-06
3.663825393e-06
5.524561439e-06
7.391673271e-06
9.200054251e-06
1.091091584e-05
1.246694194e-05
1.373388759e-05
1.453693133e-05
1.475404035e-05
1.412534767e-05
1.216308106e-05
7.334747675e-06
-3.016036386e-21
-1.075929791e-18
-3.194792025e-18
-5.296513858e-18
-7.604272391e-18
-1.029795327e-17
-1.337434858e-17
-1.645763665e-17
-1.936001053e-17
-2.238549526e-17
-2.588221969e-17
-2.999341244e-17
-3.524454544e-17
-4.164205815e-17
-4.864086331e-17
-5.959723388e-17
-7.252190815e-17
-9.039863468e-17
-1.107241108e-16
-1.353710436e-16
-1.63097606e-16
-1.940984698e-16
-2.277194762e-16
-2.632455234e-16
-3.014632286e-16
-3.41680435e-16
-3.84940893e-16
-4.289906954e-16
-4.747896518e-16
-5.211162372e-16
-5.67842724e-16
-6.147904798e-16
-6.616686696e-16
-7.083177083e-16
-7.546167768e-16
-8.005197019e-16
-8.460779716e-16
-8.912151271e-16
-9.355079478e-16
-9.782699243e-16
-1.018803498e-15
-1.056513993e-15
-1.090842602e-15
-1.121229929e-15
-1.147240596e-15
-1.168734682e-15
-1.185853966e-15
-1.198781009e-15
-1.207503559e-15
-6.500167478e-16
-5.075585085e-07
-1.340153055e-06
-2.43570803e-06
-3.403948049e-06
-4.251927739e-06
-4.95189331e-06
-5.478717057e-06
-5.804480869e-06
-5.900279917e-06
-5.73793147e-06
-5.30229067e-06
-4.594176439e-06
-3.628887114e-06
-2.420552711e-06
-9.658174877e-07
7.505674243e-07
2.735887498e-06
4.973186613e-06
7.412394676e-06
9.973548444e-06
1.257212569e-05
1.515163141e-05
1.767639199e-05
2.006686874e-05
2.215550566e-05
2.377640313e-05
2.480415068e-05
2.501668003e-05
2.070282594e-05
1.160715627e-05
-6.989320139e-19
1.946791678e-19
-1.93637219e-18
-4.11054369e-18
-6.472594404e-18
-9.209669441e-18
-1.229498872e-17
-1.552601755e-17
-1.888796078e-17
-2.269730755e-17
-2.710207701e-17
-3.208461933e-17
-3.818931772e-17
-4.666150611e-17
-5.634924877e-17
-6.959354079e-17
-8.43997897e-17
-1.029490191e-16
-1.243729772e-16
-1.500281857e-16
-1.792978667e-16
-2.121114191e-16
-2.478605104e-16
-2.858137392e-16
-3.272707852e-16
-3.708258703e-16
-4.177801002e-16
-4.653947744e-16
-5.144740636e-16
-5.643318478e-16
-6.147091472e-16
-6.653514994e-16
-7.159803121e-16
-7.663428494e-16
-8.162365578e-16
-8.656217002e-16
-9.145494147e-16
-9.628881667e-16
-1.010160958e-15
-1.055678981e-15
-1.098766804e-15
-1.138825753e-15
-1.175259617e-15
-1.207473661e-15
-1.235032765e-15
-1.25781422e-15
-1.275947724e-15
-1.289554495e-15
-1.29856572e-15
-6.96778506e-16
-5.440658188e-07
-1.480980309e-06
-2.793881467e-06
-3.969578783e-06
-5.002963048e-06
-5.868381346e-06
-6.530158295e-06
-6.951487331e-06
-7.09362042e-06
-6.922907334e-06
-6.420651545e-06
-5.581830701e-06
-4.415537247e-06
-2.929836567e-06
-1.113765854e-06
1.055308129e-06
3.586041074e-06
6.452442037e-06
9.588051387e-06
1.2900541e-05
1.630753351e-05
1.976315538e-05
2.322607312e-05
2.658442494e-05
2.965365812e-05
3.229741169e-05
3.43379796e-05
3.587237747e-05
3.200757396e-05
1.468801398e-05
-5.859053903e-20
1.76237348e-18
-2.839119062e-19
-2.400897307e-18
-4.627663711e-18
-7.312253244e-18
-1.034027995e-17
-1.365595403e-17
-1.733100273e-17
-2.161541384e-17
-2.685579335e-17
-3.355731703e-17
-4.119968496e-17
-5.080888023e-17
-6.193660535e-17
-7.585335124e-17
-9.193819728e-17
-1.112332071e-16
-1.341810406e-16
-1.616126942e-16
-1.928746435e-16
-2.28001715e-16
-2.665548345e-16
-3.076548138e-16
-3.524556888e-16
-3.999017054e-16
-4.502311406e-16
-5.019931157e-16
-5.545134578e-16
-6.080654313e-16
-6.62353838e-16
-7.169211162e-16
-7.714612581e-16
-8.256499659e-16
-8.79253988e-16
-9.322591133e-16
-9.846916424e-16
-1.036334054e-15
-1.086652328e-15
-1.13496727e-15
-1.180633352e-15
-1.223051761e-15
-1.261597033e-15
-1.295654958e-15
-1.324795881e-15
-1.348900752e-15
-1.368059034e-15
-1.382320159e-15
-1.391570042e-15
-7.441525337e-16
-6.543648236e-07
-1.810739223e-06
-3.48477742e-06
-5.007914805e-06
-6.365735792e-06
-7.535529284e-06
-8.47113104e-06
-9.125525526e-06
-9.449076682e-06
-9.402339629e-06
-8.960652894e-06
-8.109695072e-06
-6.850023777e-06
-5.18200833e-06
-3.085068031e-06
-5.27308837e-07
2.502007486e-06
5.967998272e-06
9.789765721e-06
1.386774115e-05
1.812673886e-05
2.252881429e-05
2.70116513e-05
3.141917113e-05
3.559043337e-05
3.934020195e-05
4.25012688e-05
4.514837342e-05
3.959923346e-05
1.715007012e-05
7.682293807e-19
3.578123554e-18
1.80072522e-18
-2.223166386e-19
-2.354492004e-18
-4.932032956e-18
-7.970938255e-18
-1.148525586e-17
-1.560868908e-17
-2.039995299e-17
-2.598492253e-17
-3.324166839e-17
-4.248207845e-17
-5.308573903e-17
-6.506448623e-17
-7.868778223e-17
-9.538949067e-17
-1.158611043e-16
-1.406612297e-16
-1.701426299e-16
-2.034743482e-16
-2.412488836e-16
-2.83073439e-16
-3.286369646e-16
-3.767164673e-16
-4.28422729e-16
-4.818311463e-16
-5.376817502e-16
-5.945438312e-16
-6.522704994e-16
-7.105728177e-16
-7.691536459e-16
-8.277101825e-16
-8.858067907e-16
-9.432004051e-16
-9.99922099e-16
-1.055962479e-15
-1.111007086e-15
-1.16445878e-15
-1.215638291e-15
-1.263915914e-15
-1.308688184e-15
-1.349316027e-15
-1.385188461e-15
-1.415895197e-15
-1.441308913e-15
-1.461462422e-15
-1.476330723e-15
-1.485771249e-15
-7.917453807e-16
-8.391914674e-07
-2.326151897e-06
-4.490358598e-06
-6.488154774e-06
-8.299777238e-06
-9.906530915e-06
-1.125273021e-05
-1.228055635e-05
-1.292910133e-05
-1.315328949e-05
-1.292019076e-05
-1.220269488e-05
-1.099055611e-05
-9.274973919e-06
-7.023823804e-06
-4.193655109e-06
-7.693657487e-07
3.208416211e-06
7.649909949e-06
1.245552765e-05
1.756081742e-05
2.292948322e-05
2.84639965e-05
3.39392287e-05
3.917497067e-05
4.406027521e-05
4.846331994e-05
5.216018241e-05
4.516435855e-05
1.882878107e-05
1.679773152e-18
5.798128707e-18
4.072135869e-18
2.197010979e-18
1.527711955e-19
-2.258186408e-18
-5.286819086e-18
-8.902366665e-18
-1.328328929e-17
-1.871894387e-17
-2.534286037e-17
-3.298295713e-17
-4.25314274e-17
-5.283743551e-17
-6.484885815e-17
-7.849450975e-17
-9.578321366e-17
-1.173426241e-16
-1.434980325e-16
-1.746621449e-16
-2.101178721e-16
-2.515179526e-16
-2.968878185e-16
-3.480298098e-16
-4.000120961e-16
-4.561626138e-16
-5.138720975e-16
-5.733476661e-16
-6.343608026e-16
-6.963406761e-16
-7.587937333e-16
-8.215535065e-16
-8.84255833e-16
-9.463421037e-16
-1.007592534e-15
-1.068097028e-15
-1.127811146e-15