/*--------------------------------*- C++ -*----------------------------------*\
  =========                 |
  \\      /  F ield         | OpenFOAM: The Open Source CFD Toolbox
   \\    /   O peration     | Website:  https://openfoam.org
    \\  /    A nd           | Version:  10
     \\/     M anipulation  |
\*---------------------------------------------------------------------------*/
FoamFile
{
    format      ascii;
    class       volScalarField;
    location    "0.005";
    object      rhok;
}
// * * * * * * * * * * * * * * * * * * * * * * * * * * * * * * * * * * * * * //

dimensions      [0 0 0 0 0 0 0];

internalField   nonuniform List<scalar> 
19200
(
0.988034988
0.988034988
0.988034988
0.988034988
0.988034988
0.9880349881
0.9880349881
0.9880349882
0.9880349883
0.9880349885
0.9880349887
0.9880349891
0.9880349896
0.9880349903
0.9880349913
0.9880349925
0.9880349942
0.9880349964
0.9880349991
0.9880350027
0.9880350071
0.9880350127
0.9880350195
0.9880350277
0.9880350375
0.988035049
0.9880350624
0.9880350777
0.9880350949
0.9880351137
0.988035134
0.9880351552
0.9880351767
0.9880351978
0.9880352173
0.9880352343
0.9880352473
0.9880352552
0.9880352568
0.988035251
0.9880352371
0.9880352145
0.988035183
0.9880351426
0.9880350935
0.988035036
0.9880349707
0.9880348979
0.9880348179
0.9880347313
1
1
1
1
1
1
1
1
1
1
1
1
1
1
1
1
1
1
1
1
1
1
1
1
1
1
1
1
1
1
0.9880355448
0.9880355448
0.9880355448
0.9880355448
0.9880355448
0.9880355449
0.9880355449
0.988035545
0.9880355451
0.9880355453
0.9880355455
0.9880355459
0.9880355464
0.9880355471
0.988035548
0.9880355493
0.988035551
0.9880355532
0.988035556
0.9880355597
0.9880355642
0.9880355699
0.9880355769
0.9880355854
0.9880355956
0.9880356076
0.9880356216
0.9880356376
0.9880356557
0.9880356756
0.9880356971
0.9880357197
0.9880357429
0.9880357656
0.988035787
0.9880358057
0.9880358204
0.9880358297
0.9880358323
0.9880358271
0.9880358132
0.9880357901
0.9880357576
0.9880357157
0.9880356647
0.988035605
0.9880355373
0.9880354619
0.9880353793
0.9880352899
1
1
1
1
1
1
1
1
1
1
1
1
1
1
1
1
1
1
1
1
1
1
1
1
1
1
1
1
1
1
0.9880360588
0.9880360588
0.9880360588
0.9880360588
0.9880360588
0.9880360588
0.9880360588
0.9880360589
0.988036059
0.9880360592
0.9880360594
0.9880360598
0.9880360602
0.9880360609
0.9880360619
0.9880360632
0.9880360649
0.9880360672
0.9880360701
0.9880360739
0.9880360787
0.9880360847
0.9880360922
0.9880361012
0.9880361121
0.9880361251
0.9880361403
0.9880361578
0.9880361776
0.9880361997
0.9880362237
0.9880362492
0.9880362756
0.9880363019
0.9880363269
0.9880363493
0.9880363674
0.9880363796
0.9880363844
0.9880363804
0.9880363666
0.9880363426
0.988036308
0.988036263
0.9880362081
0.9880361439
0.9880360711
0.9880359904
0.9880359024
0.9880358075
1
1
1
1
1
1
1
1
1
1
1
1
1
1
1
1
1
1
1
1
1
1
1
1
1
1
1
1
1
1
0.9880365306
0.9880365306
0.9880365306
0.9880365306
0.9880365306
0.9880365306
0.9880365306
0.9880365307
0.9880365307
0.9880365309
0.9880365311
0.9880365314
0.9880365319
0.9880365326
0.9880365335
0.9880365348
0.9880365366
0.988036539
0.9880365421
0.9880365461
0.9880365512
0.9880365577
0.9880365657
0.9880365756
0.9880365876
0.9880366019
0.9880366189
0.9880366386
0.9880366611
0.9880366865
0.9880367144
0.9880367444
0.9880367757
0.9880368075
0.9880368384
0.9880368666
0.9880368903
0.9880369073
0.9880369155
0.9880369134
0.9880369
0.9880368744
0.9880368366
0.9880367867
0.9880367255
0.9880366542
0.9880365736
0.9880364847
0.9880363882
0.9880362846
1
1
1
1
1
1
1
1
1
1
1
1
1
1
1
1
1
1
1
1
1
1
1
1
1
1
1
1
1
1
0.9880369613
0.9880369613
0.9880369613
0.9880369613
0.9880369613
0.9880369613
0.9880369612
0.9880369613
0.9880369613
0.9880369614
0.9880369616
0.9880369618
0.9880369623
0.9880369629
0.9880369639
0.9880369652
0.988036967
0.9880369695
0.9880369727
0.988036977
0.9880369825
0.9880369896
0.9880369984
0.9880370094
0.9880370228
0.988037039
0.9880370583
0.9880370809
0.9880371071
0.9880371369
0.98803717
0.9880372061
0.9880372445
0.988037284
0.9880373232
0.98803736
0.9880373919
0.988037416
0.9880374294
0.9880374302
0.9880374172
0.9880373896
0.9880373471
0.98803729
0.9880372199
0.9880371384
0.9880370468
0.9880369463
0.9880368379
0.9880367223
1
1
1
1
1
1
1
1
1
1
1
1
1
1
1
1
1
1
1
1
1
1
1
1
1
1
1
1
1
1
0.9880373522
0.9880373522
0.9880373522
0.9880373522
0.9880373521
0.9880373521
0.988037352
0.988037352
0.9880373519
0.988037352
0.9880373521
0.9880373523
0.9880373526
0.9880373532
0.9880373541
0.9880373554
0.9880373573
0.9880373598
0.9880373633
0.9880373678
0.9880373738
0.9880373815
0.9880373913
0.9880374035
0.9880374186
0.9880374371
0.9880374593
0.9880374856
0.9880375164
0.9880375518
0.9880375917
0.9880376358
0.9880376833
0.9880377331
0.9880377835
0.9880378323
0.988037876
0.9880379105
0.9880379312
0.9880379358
0.9880379236
0.9880378936
0.9880378448
0.9880377776
0.9880376949
0.9880375995
0.9880374933
0.9880373775
0.9880372533
0.9880371216
1
1
1
1
1
1
1
1
1
1
1
1
1
1
1
1
1
1
1
1
1
1
1
1
1
1
1
1
1
1
0.9880377049
0.9880377049
0.9880377048
0.9880377047
0.9880377047
0.9880377045
0.9880377044
0.9880377043
0.9880377042
0.9880377041
0.9880377041
0.9880377042
0.9880377045
0.9880377049
0.9880377057
0.988037707
0.9880377088
0.9880377114
0.988037715
0.9880377199
0.9880377263
0.9880377347
0.9880377456
0.9880377592
0.9880377763
0.9880377974
0.988037823
0.9880378537
0.98803789
0.9880379322
0.9880379805
0.9880380345
0.9880380936
0.9880381566
0.9880382217
0.9880382866
0.9880383472
0.9880383974
0.9880384277
0.988038437
0.9880384261
0.9880383937
0.9880383371
0.988038255
0.988038155
0.9880380413
0.9880379164
0.9880377811
0.9880376365
0.9880374841
1
1
1
1
1
1
1
1
1
1
1
1
1
1
1
1
1
1
1
1
1
1
1
1
1
1
1
1
1
1
0.9880380211
0.9880380211
0.988038021
0.9880380209
0.9880380207
0.9880380205
0.9880380203
0.9880380201
0.9880380199
0.9880380196
0.9880380195
0.9880380194
0.9880380194
0.9880380197
0.9880380203
0.9880380214
0.9880380232
0.9880380257
0.9880380294
0.9880380345
0.9880380415
0.9880380506
0.9880380625
0.9880380778
0.988038097
0.988038121
0.9880381504
0.9880381861
0.9880382289
0.9880382792
0.9880383374
0.9880384036
0.9880384768
0.988038556
0.9880386396
0.9880387261
0.9880388106
0.9880388867
0.988038928
0.9880389415
0.9880389325
0.9880388997
0.9880388353
0.9880387287
0.9880386049
0.9880384677
0.9880383198
0.9880381605
0.9880379904
0.9880378114
1
1
1
1
1
1
1
1
1
1
1
1
1
1
1
1
1
1
1
1
1
1
1
1
1
1
1
1
1
1
0.9880383028
0.9880383028
0.9880383027
0.9880383025
0.9880383023
0.988038302
0.9880383016
0.9880383012
0.9880383008
0.9880383004
0.9880383
0.9880382996
0.9880382994
0.9880382994
0.9880382997
0.9880383005
0.988038302
0.9880383045
0.9880383081
0.9880383134
0.9880383207
0.9880383305
0.9880383436
0.9880383604
0.988038382
0.988038409
0.9880384427
0.9880384839
0.9880385338
0.9880385934
0.9880386633
0.9880387439
0.9880388343
0.9880389329
0.9880390381
0.9880391525
0.9880392684
0.9880393981
0.9880394437
0.9880394563
0.98803945
0.9880394238
0.9880393608
0.9880392025
0.9880390486
0.9880388822
0.9880387084
0.9880385203
0.9880383182
0.9880381054
1
1
1
1
1
1
1
1
1
1
1
1
1
1
1
1
1
1
1
1
1
1
1
1
1
1
1
1
1
1
0.9880385522
0.9880385522
0.988038552
0.9880385517
0.9880385514
0.9880385509
0.9880385504
0.9880385498
0.9880385491
0.9880385483
0.9880385476
0.9880385468
0.9880385462
0.9880385458
0.9880385456
0.988038546
0.9880385471
0.9880385492
0.9880385527
0.9880385579
0.9880385654
0.9880385759
0.9880385899
0.9880386084
0.9880386322
0.9880386626
0.9880387006
0.9880387477
0.9880388054
0.9880388752
0.9880389586
0.9880390562
0.9880391674
0.9880392889
0.9880394148
0.9880395666
0.9880397034
0.9880399861
0.9880399853
0.9880399832
0.9880399803
0.9880399768
0.9880399726
0.9880396602
0.9880394901
0.9880392859
0.988039089
0.9880388672
0.9880386249
0.9880383682
1
1
1
1
1
1
1
1
1
1
1
1
1
1
1
1
1
1
1
1
1
1
1
1
1
1
1
1
1
1
0.9880387715
0.9880387714
0.9880387711
0.9880387708
0.9880387702
0.9880387696
0.9880387688
0.9880387679
0.9880387668
0.9880387656
0.9880387644
0.9880387631
0.9880387618
0.9880387607
0.9880387599
0.9880387596
0.98803876
0.9880387616
0.9880387645
0.9880387695
0.988038777
0.9880387878
0.9880388028
0.9880388227
0.9880388488
0.9880388824
0.9880389249
0.988038978
0.9880390437
0.9880391244
0.9880392226
0.9880393402
0.9880394778
0.9880396303
0.9880397574
0.9880399896
0.9880399884
1
1
1
1
1
1
0.9880399693
0.9880399563
0.988039669
0.9880394771
0.9880392119
0.9880389174
0.9880386019
1
1
1
1
1
1
1
1
1
1
1
1
1
1
1
1
1
1
1
1
1
1
1
1
1
1
1
1
1
1
0.9880389629
0.9880389627
0.9880389624
0.9880389618
0.9880389611
0.9880389601
0.988038959
0.9880389576
0.988038956
0.9880389542
0.9880389523
0.9880389502
0.9880389481
0.988038946
0.9880389442
0.9880389429
0.9880389423
0.9880389429
0.988038945
0.9880389494
0.9880389566
0.9880389675
0.988038983
0.9880390043
0.9880390325
0.9880390692
0.9880391161
0.988039175
0.9880392485
0.9880393399
0.9880394533
0.9880395933
0.9880397648
0.9880399915
0.9880399912
1
1
1
1
1
1
1
1
1
1
0.9880399487
0.9880399266
0.9880395679
0.9880392058
0.9880388093
1
1
1
1
1
1
1
1
1
1
1
1
1
1
1
1
1
1
1
1
1
1
1
1
1
1
1
1
1
1
0.9880391286
0.9880391284
0.9880391279
0.9880391271
0.988039126
0.9880391247
0.988039123
0.9880391211
0.9880391188
0.9880391161
0.9880391132
0.98803911
0.9880391067
0.9880391033
0.9880391001
0.9880390973
0.9880390952
0.9880390943
0.9880390951
0.9880390983
0.9880391047
0.9880391153
0.9880391311
0.9880391535
0.9880391837
0.9880392235
0.9880392744
0.9880393388
0.9880394193
0.98803952
0.9880396468
0.9880398072
0.9880399923
1
1
1
1
1
1
1
1
1
1
1
1
1
1
0.9880399152
0.9880395078
0.9880389931
1
1
1
1
1
1
1
1
1
1
1
1
1
1
1
1
1
1
1
1
1
1
1
1
1
1
1
1
1
1
0.9880392708
0.9880392705
0.9880392698
0.9880392687
0.9880392672
0.9880392653
0.988039263
0.9880392602
0.9880392569
0.9880392531
0.9880392489
0.9880392442
0.9880392392
0.988039234
0.9880392288
0.9880392238
0.9880392195
0.9880392165
0.9880392152
0.9880392166
0.9880392216
0.9880392313
0.988039247
0.9880392701
0.9880393022
0.988039345
0.9880394002
0.9880394697
0.9880395559
0.9880396629
0.988039799
0.9880399923
1
1
1
1
1
1
1
1
1
1
1
1
1
1
1
1
0.988039902
0.9880391572
1
1
1
1
1
1
1
1
1
1
1
1
1
1
1
1
1
1
1
1
1
1
1
1
1
1
1
1
1
1
0.9880393916
0.9880393911
0.9880393901
0.9880393886
0.9880393866
0.9880393839
0.9880393807
0.9880393768
0.9880393722
0.9880393668
0.9880393608
0.9880393541
0.9880393467
0.988039339
0.988039331
0.9880393231
0.9880393157
0.9880393095
0.9880393053
0.9880393039
0.9880393066
0.9880393146
0.9880393296
0.9880393532
0.9880393872
0.9880394333
0.9880394931
0.9880395681
0.9880396595
0.9880397676
0.9880398889
0.9880399931
1
1
1
1
1
1
1
1
1
1
1
1
1
1
1
1
0.9880398333
0.9880393065
1
1
1
1
1
1
1
1
1
1
1
1
1
1
1
1
1
1
1
1
1
1
1
1
1
1
1
1
1
1
0.9880394927
0.988039492
0.9880394906
0.9880394886
0.9880394858
0.9880394821
0.9880394777
0.9880394723
0.9880394659
0.9880394584
0.98803945
0.9880394405
0.9880394301
0.9880394188
0.988039407
0.988039395
0.9880393834
0.9880393729
0.9880393643
0.9880393589
0.988039358
0.9880393634
0.9880393769
0.9880394006
0.9880394365
0.9880394866
0.9880395525
0.9880396354
0.9880397352
0.9880398518
0.9880399927
1
1
1
1
1
1
1
1
1
1
1
1
1
1
1
1
1
1
0.98803962
1
1
1
1
1
1
1
1
1
1
1
1
1
1
1
1
1
1
1
1
1
1
1
1
1
1
1
1
1
1
0.9880395757
0.9880395748
0.9880395729
0.9880395701
0.9880395663
0.9880395613
0.9880395552
0.9880395478
0.988039539
0.9880395288
0.9880395171
0.9880395039
0.9880394893
0.9880394734
0.9880394565
0.9880394389
0.9880394215
0.9880394049
0.9880393902
0.988039379
0.988039373
0.9880393742
0.9880393851
0.9880394082
0.9880394462
0.9880395015
0.9880395761
0.9880396708
0.9880397839
0.988039906
0.9880399925
1
1
1
1
1
1
1
1
1
1
1
1
1
1
1
1
1
1
0.988039669
1
1
1
1
1
1
1
1
1
1
1
1
1
1
1
1
1
1
1
1
1
1
1
1
1
1
1
1
1
1
0.9880396419
0.9880396407
0.9880396382
0.9880396343
0.9880396291
0.9880396224
0.9880396141
0.988039604
0.9880395921
0.9880395782
0.9880395622
0.9880395441
0.9880395239
0.9880395018
0.988039478
0.988039453
0.9880394276
0.9880394027
0.9880393796
0.9880393603
0.9880393468
0.9880393417
0.9880393483
0.9880393698
0.9880394098
0.9880394719
0.9880395586
0.9880396719
0.9880398135
0.9880399918
1
1
1
1
1
1
1
1
1
1
1
1
1
1
1
1
1
1
1
1
1
1
1
1
1
1
1
1
1
1
1
1
1
1
1
1
1
1
1
1
1
1
1
1
1
1
1
1
1
1
0.9880396921
0.9880396904
0.9880396871
0.9880396819
0.9880396749
0.9880396659
0.9880396547
0.9880396411
0.988039625
0.9880396062
0.9880395845
0.9880395599
0.9880395324
0.988039502
0.9880394691
0.9880394342
0.9880393981
0.9880393619
0.9880393274
0.9880392967
0.9880392725
0.9880392582
0.9880392578
0.988039276
0.9880393176
0.9880393876
0.98803949
0.9880396268
0.9880397966
0.9880399912
1
1
1
1
1
1
1
1
1
1
1
1
1
1
1
1
1
1
1
1
1
1
1
1
1
1
1
1
1
1
1
1
1
1
1
1
1
1
1
1
1
1
1
1
1
1
1
1
1
1
0.9880397266
0.9880397244
0.9880397199
0.988039713
0.9880397035
0.9880396914
0.9880396764
0.9880396583
0.9880396367
0.9880396115
0.9880395824
0.9880395493
0.9880395121
0.988039471
0.988039426
0.988039378
0.9880393276
0.9880392765
0.9880392263
0.9880391799
0.9880391407
0.9880391128
0.9880391017
0.9880391135
0.9880391551
0.988039234
0.9880393566
0.988039527
0.9880397429
0.98803999
1
1
1
1
1
1
1
1
1
1
1
1
1
1
1
1
1
1
1
1
1
1
1
1
1
1
1
1
1
1
1
1
1
1
1
1
1
1
1
1
1
1
1
1
1
1
1
1
1
1
0.988039745
0.988039742
0.9880397359
0.9880397267
0.9880397142
0.988039698
0.9880396781
0.9880396539
0.9880396252
0.9880395917
0.9880395529
0.9880395088
0.9880394591
0.9880394038
0.9880393433
0.9880392779
0.9880392089
0.9880391378
0.9880390668
0.988038999
0.9880389388
0.9880388914
0.9880388638
0.9880388642
0.9880389023
0.9880389892
0.9880391363
0.9880393532
0.9880396426
0.9880399882
1
1
1
1
1
1
1
1
1
1
1
1
1
1
1
1
1
1
1
1
1
1
1
1
1
1
1
1
1
1
1
1
1
1
1
1
1
1
1
1
1
1
1
1
1
1
1
1
1
1
0.9880397459
0.9880397419
0.9880397339
0.9880397216
0.988039705
0.9880396836
0.9880396571
0.9880396251
0.9880395871
0.9880395428
0.9880394916
0.9880394332
0.9880393673
0.9880392939
0.9880392131
0.9880391254
0.988039032
0.9880389347
0.9880388359
0.9880387395
0.9880386505
0.9880385755
0.9880385231
0.9880385041
0.9880385319
0.9880386223
0.9880387943
0.9880390686
0.9880394652
0.9880399858
1
1
1
1
1
1
1
1
1
1
1
1
1
1
1
1
1
1
1
1
1
1
1
1
1
1
1
1
1
1
1
1
1
1
1
1
1
1
1
1
1
1
1
1
1
1
1
1
1
1
0.9880397269
0.9880397216
0.9880397109
0.9880396947
0.9880396727
0.9880396444
0.9880396095
0.9880395673
0.9880395174
0.9880394592
0.988039392
0.9880393153
0.9880392287
0.9880391319
0.9880390251
0.9880389087
0.9880387839
0.9880386525
0.9880385175
0.9880383831
0.9880382552
0.9880381417
0.9880380531
0.9880380029
0.9880380085
0.9880380916
0.9880382795
0.9880386083
0.9880391338
0.9880399817
1
1
1
1
1
1
1
1
1
1
1
1
1
1
1
1
1
1
1
1
1
1
1
1
1
1
1
1
1
1
1
1
1
1
1
1
1
1
1
1
1
1
1
1
1
1
1
1
1
1
0.9880396839
0.9880396769
0.9880396629
0.9880396415
0.9880396124
0.9880395752
0.9880395293
0.9880394741
0.9880394088
0.9880393327
0.988039245
0.9880391449
0.9880390319
0.9880389055
0.9880387657
0.9880386128
0.9880384478
0.9880382728
0.9880380909
0.9880379068
0.9880377271
0.9880375611
0.9880374211
0.9880373234
0.9880372892
0.9880373457
0.9880375272
0.9880378752
0.9880384335
0.9880392117
0.9880399814
1
1
1
1
1
1
1
1
1
1
1
1
1
1
1
1
1
1
0.988039421
1
1
1
1
1
1
1
1
1
1
1
1
1
1
1
1
1
1
1
1
1
1
1
1
1
1
1
1
1
1
0.9880396111
0.9880396019
0.9880395833
0.9880395552
0.9880395169
0.9880394682
0.9880394081
0.988039336
0.988039251
0.9880391521
0.9880390383
0.9880389086
0.9880387622
0.9880385984
0.9880384169
0.9880382178
0.9880380022
0.9880377719
0.9880375302
0.9880372821
0.9880370349
0.9880367988
0.988036588
0.9880364212
0.9880363235
0.9880363273
0.9880364752
0.988036821
0.9880374339
0.9880384112
0.9880399699
1
1
1
1
1
1
1
1
1
1
1
1
1
1
1
1
1
1
0.9880391837
1
1
1
1
1
1
1
1
1
1
1
1
1
1
1
1
1
1
1
1
1
1
1
1
1
1
1
1
1
1
0.9880394998
0.9880394877
0.9880394633
0.9880394263
0.9880393762
0.9880393124
0.9880392341
0.9880391403
0.98803903
0.9880389021
0.9880387552
0.9880385881
0.9880383997
0.988038189
0.9880379554
0.9880376988
0.9880374198
0.9880371201
0.9880368032
0.9880364739
0.9880361402
0.9880358129
0.9880355074
0.9880352446
0.9880350527
0.988034969
0.9880350435
0.9880353413
0.9880359462
0.9880369549
0.98803842
0.9880399694
1
1
1
1
1
1
1
1
1
1
1
1
1
1
1
1
0.9880397065
0.9880382119
1
1
1
1
1
1
1
1
1
1
1
1
1
1
1
1
1
1
1
1
1
1
1
1
1
1
1
1
1
1
0.988039338
0.9880393221
0.9880392901
0.9880392416
0.9880391761
0.9880390929
0.9880389911
0.9880388695
0.9880387271
0.9880385622
0.9880383736
0.9880381595
0.9880379186
0.9880376495
0.9880373512
0.9880370232
0.9880366658
0.9880362804
0.98803587
0.9880354396
0.9880349969
0.9880345534
0.9880341249
0.9880337337
0.98803341
0.9880331947
0.9880331436
0.9880333326
0.988033868
0.9880349067
0.988036718
0.9880399457
1
1
1
1
1
1
1
1
1
1
1
1
1
1
1
1
0.9880398288
0.9880376012
1
1
1
1
1
1
1
1
1
1
1
1
1
1
1
1
1
1
1
1
1
1
1
1
1
1
1
1
1
1
0.9880391094
0.9880390885
0.9880390465
0.9880389831
0.9880388977
0.9880387894
0.9880386573
0.9880385003
0.9880383168
0.9880381053
0.9880378641
0.9880375913
0.988037285
0.9880369436
0.9880365656
0.98803615
0.9880356965
0.9880352062
0.9880346813
0.9880341266
0.9880335495
0.988032961
0.988032377
0.98803182
0.9880313206
0.988030921
0.9880306789
0.9880306738
0.9880310174
0.9880318699
0.9880334648
0.9880361159
0.9880399443
1
1
1
1
1
1
1
1
1
1
1
1
1
1
0.9880398489
0.9880382879
0.9880368629
1
1
1
1
1
1
1
1
1
1
1
1
1
1
1
1
1
1
1
1
1
1
1
1
1
1
1
1
1
1
0.9880387916
0.9880387642
0.9880387094
0.9880386266
0.9880385153
0.9880383747
0.9880382037
0.9880380012
0.9880377657
0.9880374952
0.9880371881
0.988036842
0.9880364549
0.9880360245
0.9880355489
0.9880350266
0.9880344566
0.9880338393
0.9880331762
0.9880324712
0.9880317309
0.9880309655
0.9880301901
0.9880294259
0.9880287023
0.9880280598
0.9880275536
0.9880272592
0.9880272808
0.9880277622
0.9880289009
0.9880309634
0.9880343256
0.9880399209
0.9880399335
1
1
1
1
1
1
1
1
1
1
0.9880398897
0.9880398568
0.9880375606
0.9880365283
0.988035952
1
1
1
1
1
1
1
1
1
1
1
1
1
1
1
1
1
1
1
1
1
1
1
1
1
1
1
1
1
1
0.9880383548
0.988038319
0.9880382474
0.9880381394
0.9880379947
0.9880378124
0.9880375916
0.9880373312
0.9880370295
0.9880366848
0.988036295
0.9880358579
0.988035371
0.9880348317
0.9880342375
0.9880335862
0.9880328762
0.9880321069
0.9880312789
0.9880303949
0.9880294602
0.9880284835
0.9880274781
0.9880264628
0.9880254641
0.988024518
0.9880236732
0.9880229955
0.9880225732
0.988022524
0.9880230001
0.9880241865
0.9880262768
0.9880293517
0.9880325187
0.9880398944
0.9880399082
1
1
1
1
1
1
0.988039895
0.988039875
0.9880355345
0.9880343966
0.9880339052
0.9880341582
0.9880348187
1
1
1
1
1
1
1
1
1
1
1
1
1
1
1
1
1
1
1
1
1
1
1
1
1
1
1
1
1
1
0.9880377595
0.9880377128
0.9880376193
0.9880374787
0.9880372907
0.9880370548
0.9880367701
0.9880364357
0.9880360502
0.988035612
0.9880351191
0.9880345691
0.9880339595
0.9880332873
0.9880325497
0.9880317437
0.988030867
0.9880299178
0.9880288955
0.9880278015
0.9880266391
0.9880254151
0.98802414
0.9880228293
0.9880215046
0.9880201955
0.9880189412
0.9880177937
0.9880168214
0.9880161132
0.9880157815
0.9880159596
0.9880167829
0.9880183424
0.9880206536
0.9880244871
0.9880287354
0.9880398442
0.9880398657
0.9880398669
0.9880398663
0.9880398642
0.9880398465
0.9880313783
0.9880290624
0.9880278095
0.9880280767
0.9880292647
0.9880311377
0.9880334063
1
1
1
1
1
1
1
1
1
1
1
1
1
1
1
1
1
1
1
1
1
1
1
1
1
1
1
1
1
1
0.9880369535
0.9880368926
0.9880367708
0.988036588
0.9880363442
0.9880360392
0.9880356726
0.9880352439
0.9880347523
0.9880341965
0.9880335748
0.9880328852
0.9880321252
0.9880312916
0.9880303814
0.9880293911
0.9880283174
0.9880271575
0.9880259093
0.9880245724
0.9880231481
0.9880216402
0.9880200561
0.9880184068
0.9880167081
0.9880149813
0.9880132541
0.9880115618
0.98800995
0.9880084776
0.9880072227
0.9880062876
0.9880057996
0.9880058906
0.9880066546
0.9880081754
0.9880103449
0.9880135808
0.9880148422
0.9880156923
0.9880163972
0.9880169761
0.9880173013
0.9880164041
0.9880167961
0.988018123
0.9880203968
0.9880235339
0.9880273732
0.988031647
1
1
1
1
1
1
1
1
1
1
1
1
1
1
1
1
1
1
1
1
1
1
1
1
1
1
1
1
1
1
0.9880358688
0.9880357895
0.9880356309
0.9880353935
0.9880350776
0.9880346838
0.9880342124
0.9880336637
0.9880330378
0.9880323341
0.988031552
0.9880306898
0.9880297457
0.9880287168
0.9880275998
0.9880263911
0.9880250867
0.9880236824
0.9880221748
0.9880205613
0.9880188406
0.9880170135
0.9880150833
0.9880130561
0.9880109409
0.9880087497
0.9880064971
0.9880041999
0.9880018772
0.9879995534
0.9879972672
0.9879950919
0.9879931673
0.9879917113
0.9879908701
0.9879902279
0.9879899563
0.9879884507
0.9879894143
0.9879908605
0.9879922624
0.9879935601
0.9879952005
0.9879993222
0.9880027832
0.9880067172
0.9880111538
0.988016503
0.9880227015
0.9880294582
1
1
1
1
1
1
1
1
1
1
1
1
1
1
1
1
1
1
1
1
1
1
1
1
1
1
1
1
1
1
0.9880344171
0.9880343138
0.9880341078
0.9880337997
0.988033391
0.9880328831
0.9880322776
0.9880315762
0.9880307802
0.9880298909
0.9880289087
0.9880278336
0.9880266645
0.9880253996
0.988024036
0.98802257
0.9880209971
0.9880193122
0.9880175104
0.9880155865
0.9880135367
0.9880113581
0.9880090495
0.9880066115
0.988004046
0.9880013554
0.9879985407
0.9879955986
0.9879925182
0.9879892795
0.987985861
0.9879822746
0.9879786631
0.9879754808
0.9879734188
0.9879704049
0.9879692572
0.9879592347
0.9879618862
0.9879644715
0.9879666513
0.9879682471
0.9879691083
0.9879815171
0.987987026
0.9879936657
0.9880000026
0.988007803
0.9880168552
0.9880267367
1
1
1
1
1
1
1
1
1
1
1
1
1
1
1
1
1
1
1
1
1
1
1
1
1
1
1
1
1
1
0.9880324845
0.9880323503
0.9880320829
0.9880316838
0.9880311556
0.9880305013
0.9880297244
0.9880288286
0.9880278178
0.9880266952
0.9880254639
0.9880241259
0.9880226823
0.9880211327
0.9880194756
0.9880177079
0.9880158249
0.988013821
0.9880116895
0.9880094233
0.9880070151
0.9880044581
0.9880017463
0.9879988744
0.9879958373
0.987992628
0.9879892351
0.9879856363
0.9879817895
0.9879776202
0.9879730094
0.9879678083
0.9879619834
0.9879563031
0.9879550101
0.9879466886
0.987955299
1
1
1
1
1
1
0.987968667
0.9879683824
0.9879793773
0.9879860599
0.9879967758
0.988009395
0.9880233518
1
1
1
1
1
1
1
1
1
1
1
1
1
1
1
1
1
1
1
1
1
1
1
1
1
1
1
1
1
1
0.9880299255
0.9880297515
0.9880294048
0.9880288885
0.9880282067
0.9880273648
0.9880263691
0.9880252264
0.9880239439
0.9880225286
0.9880209869
0.9880193247
0.988017546
0.9880156535
0.9880136479
0.9880115276
0.9880092888
0.9880069255
0.9880044299
0.9880017924
0.9879990025
0.987996049
0.9879929206
0.9879896058
0.9879860923
0.9879823653
0.9879784034
0.9879741709
0.9879696032
0.987964578
0.9879588596
0.9879519891
0.9879430682
0.9879305135
0.9879413058
1
1
1
1
1
1
1
1
1
1
0.9879674586
0.9879663745
0.9879824683
0.9879996116
0.9880191318
1
1
1
1
1
1
1
1
1
1
1
1
1
1
1
1
1
1
1
1
1
1
1
1
1
1
1
1
1
1
0.9880265552
0.9880263298
0.9880258812
0.9880252142
0.9880243354
0.9880232536
0.9880219789
0.9880205227
0.9880188971
0.9880171143
0.9880151862
0.9880131237
0.9880109362
0.9880086307
0.9880062118
0.9880036808
0.9880010358
0.9879982714
0.9879953791
0.9879923472
0.9879891617
0.9879858065
0.9879822642
0.9879785166
0.9879745441
0.9879703248
0.987965831
0.9879610231
0.987955836
0.9879501482
0.987943709
0.9879359561
0.9879253619
1
1
1
1
1
1
1
1
1
1
1
1
1
1
0.9879653659
0.9879862136
0.9880138409
1
1
1
1
1
1
1
1
1
1
1
1
1
1
1
1
1
1
1
1
1
1
1
1
1
1
1
1
1
1
0.9880221403
0.9880218488
0.9880212695
0.9880204092
0.9880192784
0.9880178902
0.9880162603
0.9880144065
0.9880123478
0.988010104
0.9880076946
0.9880051382
0.9880024515
0.9879996484
0.9879967395
0.9879937311
0.9879906246
0.9879874168
0.987984099
0.9879806581
0.9879770762
0.987973332
0.9879694011
0.9879652572
0.9879608722
0.9879562163
0.9879512568
0.9879459569
0.9879402725
0.9879341449
0.9879274798
0.9879202527
1
1
1
1
1
1
1
1
1
1
1
1
1
1
1
1
0.987964457
0.988007125
1
1
1
1
1
1
1
1
1
1
1
1
1
1
1
1
1
1
1
1
1
1
1
1
1
1
1
1
1
1
0.9880163885
0.9880160125
0.9880152656
0.9880141584
0.9880127057
0.9880109271
0.9880088459
0.9880064886
0.9880038839
0.988001062
0.9879980531
0.9879948867
0.98799159
0.987988187
0.9879846971
0.9879811341
0.9879775054
0.9879738114
0.9879700451
0.9879661922
0.9879622315
0.9879581356
0.9879538721
0.9879494044
0.9879446935
0.987939698
0.9879343756
0.9879286854
0.9879226012
0.9879161332
0.9879092217
0.9879003699
1
1
1
1
1
1
1
1
1
1
1
1
1
1
1
1
0.9879612628
0.987998431
1
1
1
1
1
1
1
1
1
1
1
1
1
1
1
1
1
1
1
1
1
1
1
1
1
1
1
1
1
1
0.9880089362
0.9880084522
0.9880074917
0.9880060693
0.9880042067
0.9880019319
0.9879992784
0.9879962847
0.9879929925
0.9879894462
0.9879856908
0.9879817708
0.9879777282
0.9879736009
0.9879694212
0.9879652139
0.9879609955
0.9879567728
0.9879525424
0.9879482903
0.9879439923
0.9879396146
0.9879351151
0.9879304449
0.9879255503
0.9879203731
0.9879148505
0.9879089146
0.9879025193
0.987895833
0.98789018
1
1
1
1
1
1
1
1
1
1
1
1
1
1
1
1
1
1
0.9879737402
1
1
1
1
1
1
1
1
1
1
1
1
1
1
1
1
1
1
1
1
1
1
1
1
1
1
1
1
1
1
0.9879993345
0.987998713
0.9879974805
0.9879956576
0.9879932745
0.9879903705
0.987986993
0.9879831962
0.9879790396
0.9879745865
0.987969902
0.9879650508
0.987960095
0.9879550919
0.9879500915
0.9879451347
0.9879402511
0.9879354575
0.987930757
0.987926138
0.9879215744
0.9879170259
0.9879124398
0.9879077523
0.9879028916
0.9878977791
0.9878923238
0.9878863915
0.9878797055
0.9878716224
0.9878610136
1
1
1
1
1
1
1
1
1
1
1
1
1
1
1
1
1
1
0.9879613524
1
1
1
1
1
1
1
1
1
1
1
1
1
1
1
1
1
1
1
1
1
1
1
1
1
1
1
1
1
1
0.9879870326
0.9879862367
0.9879846593
0.9879823287
0.9879792866
0.9879755873
0.9879712961
0.9879664883
0.9879612468
0.9879556601
0.9879498198
0.9879438177
0.987937743
0.9879316789
0.9879256999
0.9879198689
0.9879142341
0.9879088273
0.9879036619
0.9878987319
0.9878940112
0.9878894539
0.9878849957
0.9878805558
0.9878760418
0.9878713565
0.9878664048
0.9878610736
0.9878550577
0.9878469792
1
1
1
1
1
1
1
1
1
1
1
1
1
1
1
1
1
1
1
1
1
1
1
1
1
1
1
1
1
1
1
1
1
1
1
1
1
1
1
1
1
1
1
1
1
1
1
1
1
1
0.9879713601
0.9879703438
0.9879683305
0.9879653587
0.987961485
0.9879567831
0.9879513422
0.9879452647
0.9879386642
0.9879316624
0.9879243856
0.9879169613
0.9879095144
0.9879021628
0.9878950136
0.9878881592
0.9878816737
0.9878756101
0.9878699975
0.9878648396
0.9878601136
0.9878557699
0.9878517326
0.9878479014
0.9878441566
0.9878403745
0.9878364711
0.987832521
0.9878290601
0.9878278334
1
1
1
1
1
1
1
1
1
1
1
1
1
1
1
1
1
1
1
1
1
1
1
1
1
1
1
1
1
1
1
1
1
1
1
1
1
1
1
1
1
1
1
1
1
1
1
1
1
1
0.987951507
0.9879502129
0.9879476507
0.9879438718
0.9879389522
0.9879329907
0.987926107
0.9879184392
0.9879101403
0.9879013751
0.987892315
0.987883134
0.9878740036
0.9878650868
0.9878565339
0.9878484764
0.9878410231
0.9878342559
0.9878282263
0.9878229537
0.9878184231
0.987814585
0.9878113543
0.9878086093
0.9878061909
0.9878039069
0.9878015651
0.9877991194
0.9877971874
0.9877985199
1
1
1
1
1
1
1
1
1
1
1
1
1
1
1
1
1
1
1
1
1
1
1
1
1
1
1
1
1
1
1
1
1
1
1
1
1
1
1
1
1
1
1
1
1
1
1
1
1
1
0.9879265014
0.9879248587
0.9879216077
0.9879168166
0.9879105861
0.9879030471
0.9878943587
0.9878847044
0.9878742882
0.9878633299
0.9878520592
0.9878407099
0.9878295133
0.9878186914
0.9878084496
0.987798971
0.9877904095
0.9877828855
0.9877764814
0.987771239
0.9877671579
0.9877641945
0.9877622611
0.9877612216
0.9877608793
0.9877609467
0.9877609825
0.9877603028
0.9877581274
0.9877559496
1
1
1
1
1
1
1
1
1
1
1
1
1
1
1
1
1
1
1
1
1
1
1
1
1
1
1
1
1
1
1
1
1
1
1
1
1
1
1
1
1
1
1
1
1
1
1
1
1
1
0.9878951865
0.987893108
0.987888996
0.98788294
0.9878750721
0.9878655643
0.9878546255
0.9878424973
0.9878294483
0.9878157686
0.9878017621
0.9877877391
0.9877740073
0.9877608636
0.9877485848
0.9877374192
0.9877275793
0.9877192351
0.9877125094
0.9877074748
0.9877041524
0.9877025127
0.9877024764
0.9877039135
0.9877066299
0.9877103185
0.9877143908
0.987717394
0.9877147848
0.9876895211
1
1
1
1
1
1
1
1
1
1
1
1
1
1
1
1
1
1
1
1
1
1
1
1
1
1
1
1
1
1
1
1
1
1
1
1
1
1
1
1
1
1
1
1
1
1
1
1
1
1
0.9878561959
0.9878535744
0.9878483902
0.9878407594
0.9878308536
0.987818897
0.9878051613
0.9877899613
0.9877736476
0.9877565991
0.9877392135
0.9877218977
0.9877050566
0.9876890818
0.9876743401
0.9876611629
0.9876498364
0.9876405935
0.987633608
0.9876289914
0.9876267933
0.9876270041
0.9876295633
0.9876343698
0.9876412952
0.9876501983
0.9876609531
0.987673601
0.9876892989
0.9877158357
1
1
1
1
1
1
1
1
1
1
1
1
1
1
1
1
1
1
1
1
1
1
1
1
1
1
1
1
1
1
1
1
1
1
1
1
1
1
1
1
1
1
1
1
1
1
1
1
1
1
0.9878079282
0.987804633
0.9877981183
0.987788534
0.9877761013
0.9877611092
0.9877439088
0.9877249066
0.987704556
0.9876833475
0.9876617967
0.9876404322
0.9876197806
0.9876003528
0.9875826286
0.9875670433
0.987553975
0.9875437344
0.987536558
0.9875326042
0.9875319546
0.9875346206
0.9875405582
0.9875496939
0.9875619661
0.987577393
0.9875961919
0.9876190075
0.9876472981
0.9876832459
0.9877224346
1
1
1
1
1
1
1
1
1
1
1
1
1
1
1
1
1
1
0.9878594725
1
1
1
1
1
1
1
1
1
1
1
1
1
1
1
1
1
1
1
1
1
1
1
1
1
1
1
1
1
1
0.9877485221
0.9877443941
0.9877362348
0.987724236
0.9877086809
0.9876899395
0.9876684614
0.9876447676
0.9876194397
0.9875931074
0.987566434
0.9875400995
0.9875147832
0.9874911447
0.9874698047
0.9874513274
0.9874362044
0.9874248416
0.9874175503
0.9874145431
0.9874159343
0.9874217495
0.9874319445
0.987446443
0.9874651972
0.9874882865
0.9875160734
0.9875494584
0.9875903265
0.9876425147
0.9877155157
1
1
1
1
1
1
1
1
1
1
1
1
1
1
1
1
1
1
0.9878093601
1
1
1
1
1
1
1
1
1
1
1
1
1
1
1
1
1
1
1
1
1
1
1
1
1
1
1
1
1
1
0.9876758324
0.9876706786
0.9876604939
0.9876455219
0.9876261225
0.9876027658
0.9875760236
0.9875465588
0.9875151119
0.9874824857
0.9874495261
0.9874171021
0.9873860826
0.9873573119
0.9873315856
0.9873096271
0.9872920669
0.987279426
0.9872721046
0.9872703759
0.9872743861
0.9872841617
0.9872996301
0.9873206598
0.9873471322
0.9873790505
0.987416693
0.9874608048
0.9875127766
0.987574478
0.9876459877
0.9877113936
1
1
1
1
1
1
1
1
1
1
1
1
1
1
1
1
0.9877544373
0.9878158453
1
1
1
1
1
1
1
1
1
1
1
1
1
1
1
1
1
1
1
1
1
1
1
1
1
1
1
1
1
1
0.9875874081
0.9875809956
0.9875683256
0.9875497054
0.9875255895
0.9874965711
0.9874633725
0.9874268311
0.9873878836
0.9873475458
0.9873068901
0.9872670188
0.9872290356
0.987194014
0.9871629657
0.9871368099
0.9871163463
0.9871022342
0.9870949782
0.9870949206
0.9871022383
0.9871169447
0.9871389031
0.9871678637
0.9872035369
0.9872457117
0.9872944108
0.9873500754
0.9874138051
0.9874878039
0.9875768735
0.9876959869
1
1
1
1
1
1
1
1
1
1
1
1
1
1
1
1
0.9877010759
0.9877742138
1
1
1
1
1
1
1
1
1
1
1
1
1
1
1
1
1
1
1
1
1