/*--------------------------------*- C++ -*----------------------------------*\
  =========                 |
  \\      /  F ield         | OpenFOAM: The Open Source CFD Toolbox
   \\    /   O peration     | Website:  https://openfoam.org
    \\  /    A nd           | Version:  6
     \\/     M anipulation  |
\*---------------------------------------------------------------------------*/
FoamFile
{
    version     2.0;
    format      ascii;
    class       surfaceScalarField;
    location    "0.0022";
    object      phi;
}
// * * * * * * * * * * * * * * * * * * * * * * * * * * * * * * * * * * * * * //

dimensions      [0 3 -1 0 0 0 0];

internalField   nonuniform List<scalar> 
1150
(
8.075542922e-19
-1.388060461e-21
8.132287745e-19
-4.045289385e-21
8.199876041e-19
-6.312054507e-21
8.272164754e-19
-7.884178656e-21
8.337553482e-19
-8.422621401e-21
8.381391529e-19
-7.54242877e-21
8.384457657e-19
-4.793072518e-21
8.322380174e-19
3.236042133e-22
8.165385961e-19
8.323054037e-21
7.878796007e-19
1.96308324e-20
7.425289342e-19
3.442333596e-20
6.769463707e-19
5.236691695e-20
5.884664338e-19
7.236395471e-20
4.759863363e-19
9.243721552e-20
3.402646708e-19
1.101394855e-19
1.833829853e-19
1.237510848e-19
7.447895966e-21
1.340252937e-19
-1.860364864e-19
1.445544193e-19
-3.933259987e-19
1.574468219e-19
-6.012954156e-19
1.633726481e-19
-7.836045161e-19
1.395638212e-19
-9.088509279e-19
7.644451394e-20
-9.518469919e-19
-1.458707904e-20
-8.952015227e-19
-1.268814104e-19
-7.278914297e-19
-2.627679149e-19
-4.554468922e-19
-4.159780385e-19
-1.249306782e-19
-5.376370071e-19
1.367734613e-19
-5.475980233e-19
1.589032307e-19
-3.767109063e-19
3.667132097e-33
8.040962057e-19
-2.915718666e-21
8.103473282e-19
-8.50945362e-21
8.180906982e-19
-1.334706667e-20
8.267359607e-19
-1.683528295e-20
8.351922177e-19
-1.831978167e-20
8.420665382e-19
-1.703791598e-20
8.454781611e-19
-1.210635869e-20
8.429841892e-19
-2.515045997e-21
8.314725748e-19
1.279595852e-20
8.071694759e-19
3.478046077e-20
7.657872846e-19
6.39440142e-20
7.030358546e-19
9.982724361e-20
6.154835722e-19
1.403223359e-19
5.017327771e-19
1.81220823e-19
3.632526437e-19
2.167122416e-19
2.038759102e-19
2.420000745e-19
2.684834967e-20
2.581112391e-19
-1.691497987e-19
2.753280469e-19
-3.883934833e-19
3.052353489e-19
-6.230600163e-19
3.31312292e-19
-8.403414316e-19
2.920014389e-19
-9.995382312e-19
1.637115998e-19
-1.076270341e-18
-1.450784744e-20
-1.057021947e-18
-2.2603917e-19
-9.21687821e-19
-4.871236523e-19
-6.512712958e-19
-8.072051785e-19
-2.747902856e-19
-1.083109069e-18
7.061587242e-20
-1.130315682e-18
1.496051523e-19
-7.894116169e-19
4.127087096e-33
7.980504837e-19
-4.707866994e-21
8.052545944e-19
-1.378780808e-20
8.145738813e-19
-2.179059364e-20
8.254994997e-19
-2.787539777e-20
8.370522426e-19
-3.110003425e-20
8.479490967e-19
-3.037035311e-20
8.564112693e-19
-2.439259854e-20
8.600092201e-19
-1.166442215e-20
8.554947151e-19
9.478837602e-21
8.386595225e-19
4.067316767e-20
8.043785752e-19
8.309657498e-20
7.470351383e-19
1.366290692e-19
6.616464662e-19
1.985646758e-19
5.457985261e-19
2.621791048e-19
4.019206582e-19
3.16500211e-19
2.37681896e-19
3.499336753e-19
6.090877078e-20
3.607810956e-19
-1.325436773e-19
3.711218009e-19
-3.641418648e-19
4.229165014e-19
-6.407094899e-19
5.05169988e-19
-9.142499852e-19
4.690437525e-19
-1.122217734e-18
2.63029094e-19
-1.248053526e-18
4.582812292e-21
-1.29699372e-18
-2.713977459e-19
-1.239962049e-18
-6.202207332e-19
-1.007878836e-18
-1.131448572e-18
-5.864460144e-19
-1.634209866e-18
-1.209725785e-19
-1.779880285e-18
9.546692231e-20
-1.279048911e-18
5.011776362e-33
7.887602373e-19
-6.873497151e-21
7.972436056e-19
-2.020650796e-20
8.086691049e-19
-3.221191916e-20
8.226484565e-19
-4.184411942e-20
8.383458937e-19
-4.793406019e-20
8.546482074e-19
-4.911375381e-20
8.699356196e-19
-4.375447929e-20
8.818826668e-19
-2.991112927e-20
8.871800097e-19
-5.315764913e-21
8.81225898e-19
3.251509686e-20
8.578789529e-19
8.586806187e-20
8.095946814e-19
1.558077414e-19
7.285287058e-19
2.401166862e-19
6.095194353e-19
3.300924879e-19
4.551803776e-19
4.075067901e-19
2.803171723e-19
4.466801385e-19
1.063762474e-19
4.321583456e-19
-6.754014961e-20
3.985250153e-19
-2.976222855e-19
4.657622565e-19
-6.318924733e-19
6.816306495e-19
-9.859488321e-19
6.831690077e-19
-1.242108781e-18
3.532631412e-19
-1.411445098e-18
2.176451489e-20
-1.554541955e-18
-2.486357759e-19
-1.64607511e-18
-5.851769523e-19
-1.517796804e-18
-1.316730488e-18
-1.06320697e-18
-2.17178126e-18
-4.314275039e-19
-2.519661757e-18
4.357893564e-21
-1.89244747e-18
6.165657388e-33
7.753662124e-19
-9.499083581e-21
7.853840033e-19
-2.803364949e-20
7.993373258e-19
-4.507085153e-20
8.169746342e-19
-5.942334039e-20
8.376316911e-19
-6.976261123e-20
8.603955883e-19
-7.453912372e-20
8.838708839e-19
-7.189961564e-20
9.059501315e-19
-5.959312477e-20
9.234742993e-19
-3.48629707e-20
9.317290424e-19
5.622047746e-21
9.237709863e-19
6.561614947e-20
8.898056464e-19
1.484608747e-19
8.174960876e-19
2.54625842e-19
6.953365633e-19
3.762639229e-19
5.220503989e-19
4.881348848e-19
3.215337006e-19
5.401194588e-19
1.477951129e-19
4.747730632e-19
2.870893051e-20
3.111983143e-19
-1.538938354e-19
3.398802106e-19
-5.647135873e-19
8.502554386e-19
-1.034284893e-18
9.483941737e-19
-1.303513841e-18
3.777777542e-19
-1.466563625e-18
-2.042105119e-20
-1.70382664e-18
-1.72192218e-19
-2.048793738e-18
-2.803999454e-19
-2.138716647e-18
-1.251663858e-18
-1.693010538e-18
-2.654289454e-18
-8.608323716e-19
-3.340833611e-18
-1.213038616e-19
-2.678624608e-18
8.226156685e-33
7.568583357e-19
-1.264729841e-20
7.68578171e-19
-3.745749286e-20
7.853318688e-19
-6.069090018e-20
8.070074866e-19
-8.108161642e-20
8.331018062e-19
-9.721911523e-20
8.628901342e-19
-1.074690792e-19
8.952028051e-19
-1.098962826e-19
9.282332219e-19
-1.021535261e-19
9.592363374e-19
-8.129980386e-20
9.839675312e-19
-4.351409157e-20
9.956014651e-19
1.624655466e-20
9.829018819e-19
1.042954315e-19
9.282105329e-19
2.267756488e-19
8.08289751e-19
3.834914502e-19
6.065038424e-19
5.509459711e-19
3.470078299e-19
6.500879044e-19
1.450222545e-19
5.305190964e-19
1.308857162e-19
7.303088554e-20
1.143285622e-19
-1.040107411e-19
-3.995356258e-19
8.680036301e-19
-1.051602365e-18
1.052441833e-18
-1.224370382e-18
3.352024524e-19
-1.277586812e-18
-1.524753389e-19
-1.524383121e-18
-2.7837898e-20
-2.263901499e-18
1.398719604e-19
-2.743056776e-18
-8.910620671e-19
-2.397869916e-18
-2.986021686e-18
-1.395720382e-18
-4.122331953e-18
-2.782616702e-19
-3.653415097e-18
1.187715637e-32
7.321272058e-19
-1.635184034e-20
7.456161174e-19
-4.858075367e-20
7.652787404e-19
-7.924439915e-20
7.91120602e-19
-1.070613659e-19
8.22748957e-19
-1.30601817e-19
8.595310034e-19
-1.482207813e-19
9.003900722e-19
-1.580101643e-19
9.437048837e-19
-1.577369475e-19
9.872164064e-19
-1.447056077e-19
1.027770353e-18
-1.154222152e-19
1.060369094e-18
-6.483459623e-20
1.075460221e-18
1.513683246e-20
1.053139292e-18
1.375013629e-19
9.55369985e-19
3.190891261e-19
7.294629413e-19
5.628803628e-19
3.575985477e-19
7.87757842e-19
3.099788758e-20
7.075705484e-19
1.180771112e-19
-3.109401217e-19
5.255466304e-19
-7.609379336e-19
-8.76077973e-20
6.293938204e-19
-1.034058471e-18
9.816829241e-19
-8.239950677e-19
-8.712074154e-20
-7.898474998e-19
-2.394357878e-19
-7.105551112e-19
-1.767528362e-19
-1.958731459e-18
7.069814943e-19
-2.955135884e-18
-1.488347861e-19
-2.904382747e-18
-2.855304391e-18
-1.990502471e-18
-4.348875775e-18
-4.681119829e-19
-4.687534606e-18
1.955812441e-32
7.00019024e-19
-2.061830876e-20
7.152427044e-19
-6.141928437e-20
7.377619561e-19
-1.007588013e-19
7.676691483e-19
-1.373976162e-19
8.045995413e-19
-1.69926735e-19
8.478342441e-19
-1.96698964e-19
8.960607157e-19
-2.15818516e-19
9.473318376e-19
-2.251845942e-19
9.992726439e-19
-2.225828278e-19
1.049590213e-18
-2.05730608e-19
1.096537989e-18
-1.718901532e-19
1.137680383e-18
-1.158900818e-19
1.162432006e-18
-2.406789871e-20
1.13040963e-18
1.382438489e-19
9.409724498e-19
4.366534896e-19
4.347082946e-19
8.920304038e-19
-1.528537999e-19
9.395671714e-19
-4.097327503e-19
-1.667092586e-19
5.131863804e-19
-1.478034882e-18
-6.027670622e-33
1.932932438e-19
-1.711253542e-32
1.314250908e-19
-3.425239941e-33
-5.719277036e-20
1.92580161e-33
-3.641537506e-20
1.543654286e-32
-4.903973489e-20
1.879773232e-33
1.470497183e-19
-1.59204554e-18
2.11944268e-19
-2.250556573e-18
-1.742681841e-18
-2.646285645e-18
-2.27856227e-18
-7.582853813e-19
-4.995194228e-18
1.905858662e-32
6.593974852e-19
-2.542481754e-20
6.762192076e-19
-7.590530748e-20
7.013959194e-19
-1.251256576e-19
7.350956476e-19
-1.719580173e-19
7.769243139e-19
-2.150414921e-19
8.258929509e-19
-2.526660931e-19
8.800046135e-19
-2.827426326e-19
9.360395691e-19
-3.029101636e-19
9.897755444e-19
-3.109014548e-19
1.037204598e-18
-3.053560203e-19
1.077521252e-18
-2.871292309e-19
1.117823428e-18
-2.602188385e-19
1.174644737e-18
-2.278650149e-19
1.249846025e-18
-1.70287935e-19
1.260457557e-18
2.745657149e-20
8.585817076e-19
6.268773399e-19
-1.523117319e-19
1.004399523e-18
2.959806158e-33
-5.618461263e-20
-1.383785852e-19
-1.156322596e-19
1.475526313e-21
5.344032835e-20
7.971029041e-20
5.319646254e-20
2.077739529e-20
1.749203768e-21
-1.26243598e-20
-3.001790771e-21
-7.223869839e-20
1.058672454e-20
1.550870523e-21
7.325902751e-20
1.197275608e-19
9.37633521e-20
1.812917385e-32
-1.973577072e-20
-1.866952224e-18
1.311300828e-19
-1.840378957e-18
-3.089058135e-18
-3.030028165e-19
6.092088857e-19
-3.07248876e-20
6.273744865e-19
-9.188319839e-20
6.548489631e-19
-1.520875372e-19
6.919270903e-19
-2.104401262e-19
7.382408898e-19
-2.657013471e-19
7.925243929e-19
-3.160417191e-19
8.518545042e-19
-3.588709899e-19
9.108558786e-19
-3.907850504e-19
9.610532357e-19
-4.078454773e-19
9.912087125e-19
-4.066871775e-19
9.908577522e-19
-3.87446975e-19
9.617167364e-19
-3.599534841e-19
9.435083324e-19
-3.529824016e-19
1.035670183e-18
-4.127681579e-19
1.193379064e-18
-4.752986011e-19
1.07579311e-18
-1.748525143e-19
1.487998575e-19
1.484705137e-19
6.723970586e-20
2.536732701e-20
-3.264967436e-20
-1.574736407e-20
1.231660426e-21
1.955913543e-20
2.826303118e-20
2.616842014e-20
1.60264007e-20
1.399110332e-20
9.641556485e-22
1.206876467e-20
-9.566394863e-21
2.112233495e-20
2.205519545e-20
4.163704402e-20
6.957211561e-20
4.623072862e-20
2.417850151e-20
2.564532684e-20
8.814950328e-20
6.716379315e-20
-3.030028194e-19
1.87563881e-20
-5.600543161e-19
5.48568698e-19
-3.646001782e-20
5.676582153e-19
-1.091031894e-19
5.968223961e-19
-1.811777238e-19
6.366154963e-19
-2.522545748e-19
6.869346743e-19
-3.21422234e-19
7.465996533e-19
-3.86839615e-19
8.122405889e-19
-4.453130631e-19
8.767104259e-19
-4.918186969e-19
9.267096998e-19
-5.190391993e-19
9.394467968e-19
-5.172655933e-19
8.791169152e-19
-4.755968597e-19
6.975176975e-19
-3.87135692e-19
3.570659886e-19
-2.658264025e-19
-1.33720142e-19
-2.030752664e-19
-1.382953804e-19
-5.817871775e-19
-5.651395658e-20
4.59225455e-33
2.569667332e-20
6.625697602e-20
2.612501432e-20
2.493487711e-20
2.656825208e-21
7.717741346e-21
7.840945006e-21
1.437479036e-20
1.60857141e-20
1.792531851e-20
1.410406186e-20
1.597542356e-20
1.001772578e-20
1.615964017e-20
1.094831407e-20
2.019691011e-20
2.664887973e-20
2.593252171e-20
4.898671298e-20
2.388412526e-20
6.569696689e-20
8.935101514e-21
1.521343381e-19
-1.927977026e-20
3.181864348e-19
-1.473030118e-19
1.31989167e-19
4.76905371e-19
-4.261874457e-20
4.962480642e-19
-1.272386103e-19
5.260543255e-19
-2.116145746e-19
5.673253182e-19
-2.962520139e-19
6.205847524e-19
-3.80976098e-19
6.854324872e-19
-4.643162877e-19
7.594035691e-19
-5.429018306e-19
8.36209449e-19
-6.105759764e-19
9.026688271e-19
-6.571358682e-19
9.329697979e-19
-6.666331552e-19
8.775551727e-19
-6.15069553e-19
6.42395457e-19
-4.671298801e-19
8.344102375e-20
-1.726203355e-19
-6.587617243e-19
3.048912e-19
-1.445879071e-18
5.012017231e-19
-1.169443376e-19
-1.407604038e-19
-1.562542535e-20
-3.506366263e-20
8.907878921e-21
3.980233053e-22
9.313874301e-21
7.309314899e-21
1.139147326e-20
1.229674857e-20
1.413581939e-20
1.51815594e-20
1.42882787e-20
1.58234122e-20
1.405499585e-20
1.639375419e-20
1.668392584e-20
1.756926085e-20
2.460048372e-20
1.801469314e-20
3.40376899e-20
1.444090171e-20
3.748209606e-20
5.487667347e-21
2.411109829e-20
-5.91328052e-21
-1.149136023e-19
-8.288360752e-21
3.143984033e-20
3.942307614e-19
-4.945519146e-20
4.127861876e-19
-1.460073079e-19
4.414875945e-19
-2.422101708e-19
4.819587203e-19
-3.403976145e-19
5.356043819e-19
-4.416809248e-19
6.03321713e-19
-5.454957662e-19
6.847580675e-19
-6.490788731e-19
7.773767974e-19
-7.464999283e-19
8.753814648e-19
-8.273019457e-19
9.689052154e-19
-8.751228193e-19
1.044605672e-18
-8.66980823e-19
1.086852174e-18
-7.739164818e-19
9.712512028e-19
-5.620710477e-19
6.264680477e-19
-1.826731866e-19
1.909114274e-19
-5.03324472e-33
5.209608187e-20
-1.946383795e-21
1.983626096e-20
-2.807309288e-21
1.581917058e-20
4.410810918e-21
1.430130804e-20
8.823826703e-21
1.42762841e-20
1.231995409e-20
1.477767219e-20
1.467887792e-20
1.485862072e-20
1.574081788e-20
1.52305025e-20
1.602043557e-20
1.712935814e-20
1.566996301e-20
2.102669227e-20
1.41162728e-20
2.508445542e-20
1.038080733e-20
2.608114809e-20
4.488678614e-21
2.173601802e-20
-1.573044662e-21
1.74068248e-20
-3.964527442e-21
-2.015772116e-21
3.016490317e-19
-5.827154506e-20
3.177807201e-19
-1.654914306e-19
3.426779329e-19
-2.713478425e-19
3.787303572e-19
-3.81588261e-19
4.281086286e-19
-4.990036926e-19
4.927703803e-19
-6.242591356e-19
5.740199104e-19
-7.557457094e-19
6.718859442e-19
-8.885547144e-19
7.844654348e-19
-1.012962948e-18
9.080572996e-19
-1.113296354e-18
1.040419456e-18
-1.169302664e-18
1.184258261e-18
-1.164297108e-18
1.13945501e-18
-1.106819365e-18
9.710852342e-19
-1.036526144e-18
1.256213636e-19
-1.640420071e-32
5.12351556e-20
7.243630854e-20
2.705438078e-20
2.136779545e-20
2.023218606e-20
1.122659829e-20
1.779743518e-20
1.125287888e-20
1.663520767e-20
1.347757616e-20
1.583961191e-20
1.547037225e-20
1.513823822e-20
1.643817527e-20
1.488002969e-20
1.62757472e-20
1.55756677e-20
1.497394234e-20
1.729122655e-20
1.24020591e-20
1.919232639e-20
8.480913581e-21
2.001942451e-20
3.662507617e-21
1.934453494e-20
-8.992453333e-22
1.935557985e-20
-3.97962565e-21
-6.385159808e-21
2.024014797e-19
-7.338155567e-20
2.129819029e-19
-1.862812084e-19
2.302282915e-19
-2.96896181e-19
2.571067789e-19
-4.15737196e-19
2.959508558e-19
-5.468599554e-19
3.490276759e-19
-6.920088844e-19
4.181917364e-19
-8.508653543e-19
5.037075456e-19
-1.019601715e-18
6.01441501e-19
-1.188176545e-18
6.966956962e-19
-1.336524e-18
7.518902431e-19
-1.43004401e-18
6.900441809e-19
-1.415628344e-18
5.033967611e-19
-1.221087755e-18
-9.239342271e-20
-7.654402777e-19
-7.027048021e-20
1.805167866e-33
1.666431611e-22
1.993984327e-21
1.691318398e-20
4.613189446e-21
2.025846696e-20
7.872153656e-21
2.002213275e-20
1.148094133e-20
1.862800399e-20
1.486456361e-20
1.680741517e-20
1.728434184e-20
1.49758104e-20
1.826436755e-20
1.357822502e-20
1.767108018e-20
1.300378469e-20
1.555006891e-20
1.33700813e-20
1.204033902e-20
1.437392069e-20
7.482977992e-21
1.545767185e-20
2.582903405e-21
1.62641549e-20
-1.703936371e-21
1.695004598e-20
-4.66568668e-21
-6.051745428e-21
1.040761925e-19
-1.188849526e-19
1.007691129e-19
-2.106189145e-19
1.056335047e-19
-3.162387127e-19
1.183231288e-19
-4.381443147e-19
1.399386989e-19
-5.783917063e-19
1.722944657e-19
-7.390365134e-19
2.17623544e-19
-9.21152253e-19
2.777582155e-19
-1.122663275e-18
3.519910767e-19
-1.334505999e-18
4.318222975e-19
-1.534247734e-18
4.894451507e-19
-1.675561586e-18
4.608958031e-19
-1.671027225e-18
3.468753493e-19
-1.365644132e-18
-1.397932787e-19
-5.376246221e-19
-6.827649556e-20
1.946156041e-32
2.785848291e-21
-6.907438349e-20
2.017214811e-20
-1.278168249e-20
2.386725456e-20
4.168171619e-21
2.340575498e-20
1.193229921e-20
2.104778212e-20
1.721260138e-20
1.778744081e-20
2.053629159e-20
1.438252299e-20
2.166382988e-20
1.145721366e-20
2.059619194e-20
9.494054728e-21
1.75181647e-20
8.812720208e-21
1.272922611e-20
9.47384601e-21
6.827929764e-21
1.117083199e-20
8.93210276e-22
1.33024045e-20
-3.830481732e-21
1.556398716e-20
-6.926920566e-21
-7.030071663e-21
-1.08379109e-20
-1.668479558e-19
-2.276872972e-20
-2.292336304e-19
-3.013839406e-20
-3.24336807e-19
-3.46203095e-20
-4.43795236e-19
-3.614225466e-20
-5.868266738e-19
-3.367926976e-20
-7.555186436e-19
-2.499845401e-20
-9.525293459e-19
-6.018680248e-21
-1.178635323e-18
3.054908729e-20
-1.4290779e-18
9.809885432e-20
-1.687855313e-18
2.222944265e-19
-1.919205205e-18
4.452365693e-19
-2.055894814e-18
6.002922406e-19
-1.985390497e-18
7.915153276e-19
-1.542421681e-18
1.30977274e-19
6.925148871e-33
5.907854922e-20
2.819809753e-21
3.712200218e-20
9.168675889e-21
3.163138209e-20
9.64755288e-21
2.868605714e-20
1.486701335e-20
2.437147226e-20
2.151694029e-20
1.891497907e-20
2.598376968e-20
1.331488505e-20
2.725989764e-20
8.379186382e-21
2.553410296e-20
4.705116138e-21
2.119901292e-20
2.911423866e-21
1.453036318e-20
3.539126507e-21
6.21215023e-21
6.44713998e-21
-2.008128683e-21
1.020596564e-20
-7.58292989e-21
1.546083605e-20
-1.217314979e-20
-1.556745517e-20
-1.416898179e-19
-1.804583241e-19
-1.541589451e-19
-2.311933414e-19
-1.719773055e-19
-3.164284697e-19
-1.952311162e-19
-4.286713201e-19
-2.245191806e-19
-5.667446384e-19
-2.603878439e-19
-7.330065606e-19
-3.026175216e-19
-9.314094097e-19
-3.490725983e-19
-1.165376936e-18
-3.936026115e-19
-1.434844711e-18
-4.22391148e-19
-1.731857429e-18
-4.080435468e-19
-2.034458372e-18
-3.03183026e-19
-2.298420837e-18
-1.397358597e-19
-2.444061401e-18
1.572236023e-19
-2.299268366e-18
1.97140762e-19
-1.076631167e-18
6.542741545e-20
1.345310693e-19
3.760087922e-20
3.699030711e-20
3.685084261e-20
1.03940016e-20
3.533598415e-20
1.63660318e-20
2.883830166e-20
2.799926689e-20
2.019110705e-20
3.462127689e-20
1.158909043e-20
3.586035008e-20
4.044096321e-21
3.308500753e-20
-1.963533589e-21
2.721495665e-20
-5.406789073e-21
1.798228138e-20
-4.681152411e-21
5.484944535e-21
8.723387876e-22
-7.542474681e-21
5.615745734e-21
-1.231002566e-20
1.206653072e-20
-1.863806727e-20
-5.667093426e-20
-2.631551374e-19
-1.748613764e-19
-2.80579223e-19
-2.174220817e-19
-3.100981121e-19
-2.915020689e-19
-3.53301779e-19
-3.912937737e-19
-4.126692847e-19
-5.157252707e-19
-4.915349396e-19
-6.670858981e-19
-5.936541011e-19
-8.49590224e-19
-7.22568101e-19
-1.067669114e-18
-8.80717856e-19
-1.323293336e-18
-1.069215075e-18
-1.611614939e-18
-1.290482537e-18
-1.913451409e-18
-1.558037196e-18
-2.181473849e-18
-1.895114858e-18
-2.311325132e-18
-2.058863235e-18
-2.069713166e-18
-1.79677243e-18
-8.804391445e-19
-9.545702465e-20
-3.726996201e-33
1.100457365e-20
-6.946889869e-20
4.282287282e-20
-2.145260642e-20
4.696921929e-20
1.219201831e-20
3.546031161e-20
3.948639032e-20
2.143018025e-20
4.864079673e-20
8.813747921e-21
4.847672987e-20
-1.825954614e-21
4.373062217e-20
-1.119620886e-20
3.65884469e-20
-1.790412592e-20
2.468408219e-20
-1.770857164e-20
5.330537551e-21
-3.89521219e-21
-2.131820231e-20
-7.122959081e-22
-1.549529629e-20
-1.185585598e-19
9.922657392e-20
-1.690416403e-19
-3.712044163e-19
-3.944623733e-19
-4.354103472e-19
-4.974048969e-19
-5.8518842e-19
-7.051719568e-19
-8.652994921e-19
-1.074350736e-18
-1.34040236e-18
-1.667638392e-18
-2.049686432e-18
-2.453440147e-18
-2.772597305e-18
-2.739608e-18
-1.266905778e-18
-3.823856705e-20
5.902086589e-20
7.646749741e-20
7.426359125e-20
4.46147179e-20
2.126611335e-20
4.067640282e-21
-8.968129941e-21
-2.310057352e-20
-3.725767049e-20
-4.435731145e-20
1.927693822e-21
1.140095743e-19
3.25565439e-19
)
;

boundaryField
{
    lowerWall
    {
        type            calculated;
        value           nonuniform 0();
    }
    atmosphere
    {
        type            calculated;
        value           nonuniform List<scalar> 
20
(
-8.05243256e-19
-8.015832321e-19
-7.952065496e-19
-7.854735385e-19
-7.715471002e-19
-7.524490121e-19
-7.271043859e-19
-6.943958418e-19
-6.532243025e-19
-6.025787542e-19
-5.416296248e-19
-4.698783323e-19
-3.874316165e-19
-2.955821578e-19
-1.984208872e-19
-1.079907748e-19
3.364876717e-21
1.369031193e-19
2.574615142e-19
3.638343173e-19
)
;
    }
    rightWall
    {
        type            empty;
        value           nonuniform 0();
    }
    leftWall
    {
        type            empty;
        value           nonuniform 0();
    }
    frontAndBack
    {
        type            calculated;
        value           uniform 0;
    }
    procBoundary0to1
    {
        type            processor;
        value           nonuniform List<scalar> 
20
(
1.572273024e-20
1.628657234e-20
1.751419826e-20
1.964733452e-20
2.318705614e-20
2.91927901e-20
4.009427081e-20
6.209794462e-20
1.130856433e-19
-4.595162154e-20
-3.738692394e-19
-1.436920892e-20
5.08545697e-20
2.37209859e-20
1.661102361e-20
1.654219686e-20
2.399370548e-20
5.317866365e-20
-6.207150958e-21
-3.522362841e-19
)
;
    }
    procBoundary0to2
    {
        type            processor;
        value           nonuniform List<scalar> 
30
(
-1.557128642e-19
-1.903004631e-19
-2.510380654e-19
-3.331926985e-19
-4.355541915e-19
-5.596254057e-19
-7.086897306e-19
-8.864393627e-19
-1.094786241e-18
-1.330003416e-18
-1.576113374e-18
-1.793764267e-18
-1.903871399e-18
-1.775051286e-18
-1.306596545e-18
-4.334166889e-19
-1.667459026e-19
-3.892081507e-20
1.436419971e-20
6.910792615e-20
7.198297533e-20
6.568214801e-20
5.677554234e-20
5.072289415e-20
3.887277421e-20
1.247551138e-20
-6.755538816e-20
-1.275548129e-19
-1.123400826e-19
5.088032848e-19
)
;
    }
}


// ************************************************************************* //
