/*--------------------------------*- C++ -*----------------------------------*\
  =========                 |
  \\      /  F ield         | OpenFOAM: The Open Source CFD Toolbox
   \\    /   O peration     | Website:  https://openfoam.org
    \\  /    A nd           | Version:  6
     \\/     M anipulation  |
\*---------------------------------------------------------------------------*/
FoamFile
{
    version     2.0;
    format      ascii;
    class       surfaceScalarField;
    location    "0.0027";
    object      phi;
}
// * * * * * * * * * * * * * * * * * * * * * * * * * * * * * * * * * * * * * //

dimensions      [0 3 -1 0 0 0 0];

internalField   nonuniform List<scalar> 
19000
(
-8.743887241e-20
7.500953238e-21
-8.748717378e-20
7.591621948e-21
-8.756495424e-20
7.784390508e-21
-8.767462385e-20
8.066009627e-21
-8.781298793e-20
8.421185779e-21
-8.798153937e-20
8.834960812e-21
-8.818352616e-20
9.292284656e-21
-8.84201384e-20
9.778702068e-21
-8.869384044e-20
1.02798622e-20
-8.900482867e-20
1.078222936e-20
-8.935446486e-20
1.127253504e-20
-8.974181474e-20
1.173845272e-20
-9.016725783e-20
1.216798595e-20
-9.062909632e-20
1.255010945e-20
-9.112728588e-20
1.287412131e-20
-9.166004411e-20
1.313028255e-20
-9.222766594e-20
1.330915702e-20
-9.282916185e-20
1.340224417e-20
-9.346624052e-20
1.340126587e-20
-9.414005971e-20
1.329875371e-20
-9.485535978e-20
1.308729057e-20
-9.561723474e-20
1.27601056e-20
-9.64353016e-20
1.231035363e-20
-9.732046308e-20
1.17317532e-20
-9.828923773e-20
1.10178424e-20
-9.936074215e-20
1.016252692e-20
-1.005613267e-19
9.159186693e-21
-1.019216834e-19
8.001134352e-21
-1.034813831e-19
6.680768331e-21
-1.052856263e-19
5.19022881e-21
-1.073894659e-19
3.520744748e-21
-1.098544708e-19
1.663306801e-21
-1.12753133e-19
-3.922281664e-22
-1.161655793e-19
-2.656795721e-21
-1.201834589e-19
-5.143155746e-21
-1.249054112e-19
-7.865281576e-21
-1.304393832e-19
-1.083886794e-20
-1.368967446e-19
-1.408027144e-20
-1.443935135e-19
-1.760683625e-20
-1.530429875e-19
-2.143567162e-20
-1.629543394e-19
-2.558337331e-20
-1.742214679e-19
-3.006342369e-20
-1.869176123e-19
-3.48839295e-20
-2.010812375e-19
-4.004278224e-20
-2.167089424e-19
-4.552298888e-20
-2.337403691e-19
-5.128491497e-20
-2.520498532e-19
-5.725771368e-20
-2.714300485e-19
-6.332672264e-20
-2.915838894e-19
-6.932011762e-20
-3.121126682e-19
-7.499388293e-20
-3.325178525e-19
-8.002155938e-20
-3.522018013e-19
-8.39913768e-20
-3.704797881e-19
-8.642209917e-20
-3.865821787e-19
-8.680664839e-20
-3.996523593e-19
-8.46995145e-20
-4.087121997e-19
-7.984977726e-20
-4.126112107e-19
-7.236518637e-20
-4.099955655e-19
-6.284408952e-20
-3.994499592e-19
-5.235262254e-20
-3.799030225e-19
-4.208081546e-20
-3.510087432e-19
-3.278227614e-20
-3.107713801e-19
-2.526715576e-20
-2.418431437e-19
-2.52799348e-20
-9.176139028e-20
-5.544192151e-20
2.053672393e-19
-1.018485604e-19
5.231906955e-19
-1.040556559e-19
-3.346285364e-20
7.097304534e-19
1.424621512e-20
-8.116922695e-20
1.648380949e-20
-1.59295223e-20
1.44672978e-20
2.145351505e-21
1.580327842e-20
9.307594953e-21
2.120006135e-20
1.243603808e-20
2.444207326e-20
1.147670365e-20
2.526655995e-20
8.98256696e-21
2.582267415e-20
6.764234096e-21
2.686175216e-20
4.836543827e-21
2.823050869e-20
2.751599576e-21
2.95139423e-20
1.960561282e-22
3.029403337e-20
-2.920712261e-21
3.022520706e-20
-6.507940965e-21
2.912836824e-20
-1.033205878e-20
2.703173885e-20
-1.409248917e-20
2.410986081e-20
-1.751414872e-20
2.060995122e-20
-2.040024821e-20
1.679268315e-20
-2.264848615e-20
1.288551333e-20
-2.424701863e-20
9.046033452e-21
-2.525538268e-20
5.35008324e-21
-2.577358337e-20
1.797070167e-21
-2.590907328e-20
-1.668078704e-21
-2.574849068e-20
-5.129917714e-21
-2.533906974e-20
-8.671945725e-21
-2.467932462e-20
-1.234918001e-20
-2.371965156e-20
-1.61602646e-20
-2.237180807e-20
-2.002920261e-20
-2.052848004e-20
-2.379810218e-20
-1.809132013e-20
-2.724326257e-20
-1.500438935e-20
-3.011050184e-20
-1.128418973e-20
-3.216526463e-20
-7.038144273e-21
-3.324891595e-20
-2.466887916e-21
-3.3353379e-20
2.152633384e-21
-3.267804752e-20
6.520577974e-21
-3.158969889e-20
1.040551791e-20
-3.052597909e-20
1.371891232e-20
-2.992223736e-20
1.65513106e-20
-2.995282958e-20
1.921148704e-20
-2.989252619e-20
2.213575772e-20
-2.762739868e-20
2.528952898e-20
-2.345250023e-20
2.683787926e-20
-2.356591931e-20
2.419677859e-20
-2.718354163e-20
1.735063338e-20
-2.653920468e-20
-7.115230914e-22
1.994099956e-20
-6.64222637e-20
-7.547699706e-19
7.234796361e-19
-8.809470387e-19
-7.081282446e-19
-7.925500238e-19
-1.902902303e-18
-5.236421581e-19
-2.685038819e-18
-1.927128846e-19
-2.813301006e-18
3.92290116e-20
-1.981838897e-18
1.824720758e-31
-8.638381055e-20
8.040594418e-21
-8.644075449e-20
8.138777698e-21
-8.653311865e-20
8.347016231e-21
-8.666369347e-20
8.651075803e-21
-8.682923129e-20
9.034292441e-21
-8.703155926e-20
9.480570683e-21
-8.72737252e-20
9.973494139e-21
-8.755718484e-20
1.049750889e-20
-8.788412604e-20
1.103695183e-20
-8.825494427e-20
1.157726269e-20
-8.867066505e-20
1.210393725e-20
-8.913052493e-20
1.260370701e-20
-8.963455054e-20
1.306342397e-20
-9.018121529e-20
1.347121263e-20
-9.077011359e-20
1.38153168e-20
-9.139963356e-20
1.408525958e-20
-9.206971714e-20
1.427067561e-20
-9.277960705e-20
1.436246281e-20
-9.35307746e-20
1.435156082e-20
-9.432478469e-20
1.423006413e-20
-9.516633407e-20
1.398996196e-20
-9.606112024e-20
1.362427511e-20
-9.701892331e-20
1.312582805e-20
-9.80515343e-20
1.248842756e-20
-9.917606752e-20
1.170559207e-20
-1.004131682e-19
1.077163518e-20
-1.017905837e-19
9.680249339e-21
-1.033413888e-19
8.425525816e-21
-1.05107341e-19
7.000603002e-21
-1.071367666e-19
5.398861694e-21
-1.094877716e-19
3.612691727e-21
-1.122262741e-19
1.634595188e-21
-1.154294761e-19
-5.443962942e-22
-1.191837754e-19
-2.934024143e-21
-1.235873595e-19
-5.546565323e-21
-1.287466477e-19
-8.395986459e-21
-1.347773605e-19
-1.149941144e-20
-1.417998105e-19
-1.487617826e-20
-1.499388576e-19
-1.854950173e-20
-1.593172953e-19
-2.25457458e-20
-1.700524614e-19
-2.689583021e-20
-1.822452764e-19
-3.163358839e-20
-1.959725848e-19
-3.679572149e-20
-2.112729995e-19
-4.241841251e-20
-2.281370046e-19
-4.853501399e-20
-2.464908983e-19
-5.516930098e-20
-2.661848411e-19
-6.232800007e-20
-2.869758094e-19
-6.998701208e-20
-3.085185727e-19
-7.807580767e-20
-3.303591091e-19
-8.645632102e-20
-3.519455246e-19
-9.490346937e-20
-3.726498335e-19
-1.030876587e-19
-3.918123462e-19
-1.105737638e-19
-4.087948342e-19
-1.168487511e-19
-4.23038065e-19
-1.214051218e-19
-4.340863099e-19
-1.238967313e-19
-4.415716047e-19
-1.243731505e-19
-4.452078829e-19
-1.235191152e-19
-4.450922779e-19
-1.226429427e-19
-4.431381061e-19
-1.227275825e-19
-4.471895792e-19
-1.214400291e-19
-4.774168076e-19
-1.06743269e-19
-5.63768939e-19
-5.354084198e-20
-7.367092126e-19
1.982846524e-20
-3.603996397e-19
-2.344385069e-19
-1.102074279e-19
5.568281975e-31
2.489500689e-19
3.505764257e-19
7.948592034e-20
8.829833342e-20
3.455868334e-20
2.900103268e-20
2.162954139e-20
1.507794186e-20
1.893172158e-20
1.20088163e-20
2.024072705e-20
1.113045378e-20
2.194793677e-20
9.772788788e-21
2.304822718e-20
7.885729625e-21
2.389498405e-20
5.921075272e-21
2.477680809e-20
3.958790297e-21
2.567496539e-20
1.857718341e-21
2.63971741e-20
-5.215776271e-22
2.670680481e-20
-3.225910509e-21
2.640108947e-20
-6.197741791e-21
2.536793803e-20
-9.294702088e-21
2.361007936e-20
-1.233044873e-20
2.122376157e-20
-1.512416305e-20
1.836171341e-20
-1.753495267e-20
1.519415063e-20
-1.947866912e-20
1.18771495e-20
-2.09285629e-20
8.527832812e-21
-2.190572201e-20
5.214593205e-21
-2.246050258e-20
1.957652933e-21
-2.265266746e-20
-1.258657772e-21
-2.253240703e-20
-4.470172774e-21
-2.212779309e-20
-7.712272564e-21
-2.143746713e-20
-1.10013366e-20
-2.043143209e-20
-1.431693678e-20
-1.905754672e-20
-1.759204271e-20
-1.725553222e-20
-2.071117155e-20
-1.497490782e-20
-2.352306318e-20
-1.219589649e-20
-2.58644565e-20
-8.946559758e-21
-2.759400848e-20
-5.312759953e-21
-2.862939484e-20
-1.435700904e-21
-2.898543462e-20
2.504521626e-21
-2.879310779e-20
6.324329017e-21
-2.82763046e-20
9.884816073e-21
-2.769358107e-20
1.313236363e-20
-2.726206111e-20
1.611593678e-20
-2.702855896e-20
1.897430756e-20
-2.673875524e-20
2.184239552e-20
-2.607904857e-20
2.462655261e-20
-2.609360089e-20
2.684939008e-20
-3.041206481e-20
2.851226398e-20
-4.524569821e-20
3.218102885e-20
-9.224994586e-20
4.629043168e-20
-2.634697033e-19
1.047940748e-19
9.645824352e-20
3.635496453e-19
-1.186181831e-19
6.18046743e-31
-1.850642471e-19
-1.595691425e-18
-3.589840971e-19
-2.438348591e-18
-1.667295159e-19
-2.996224314e-18
5.421735202e-20
-2.291602502e-18
2.348075174e-31
-8.524703315e-20
8.619688489e-21
-8.531344538e-20
8.726109555e-21
-8.542149924e-20
8.951688858e-21
-8.557482819e-20
9.280599208e-21
-8.576973667e-20
9.695204918e-21
-8.600881929e-20
1.017768417e-20
-8.629450223e-20
1.071065933e-20
-8.662893734e-20
1.127688198e-20
-8.701360307e-20
1.185979142e-20
-8.744953168e-20
1.244320042e-20
-8.793697509e-20
1.301179544e-20
-8.847578164e-20
1.355076366e-20
-8.906517724e-20
1.404624514e-20
-8.970424186e-20
1.448491565e-20
-9.039173954e-20
1.485442835e-20
-9.112664762e-20
1.514298296e-20
-9.190806412e-20
1.533976962e-20
-9.273586408e-20
1.543451529e-20
-9.361076028e-20
1.541788853e-20
-9.453509202e-20
1.528100013e-20
-9.55129387e-20
1.501580223e-20
-9.655092451e-20
1.461460264e-20
-9.765837076e-20
1.407050976e-20
-9.884825048e-20
1.337697047e-20
-1.00137622e-19
1.25281765e-20
-1.015489212e-19
1.151849393e-20
-1.031105826e-19
1.034276533e-20
-1.048582545e-19
8.995696702e-21
-1.06835119e-19
7.47224221e-21
-1.090928397e-19
5.76713181e-21
-1.116919361e-19
3.875287295e-21
-1.147031173e-19
1.791141357e-21
-1.182079729e-19
-4.913637959e-22
-1.222999986e-19
-2.979892434e-21
-1.270841349e-19
-5.683930668e-21
-1.326762037e-19
-8.615874488e-21
-1.392011035e-19
-1.179122948e-20
-1.467913525e-19
-1.522998609e-20
-1.555842003e-19
-1.8957434e-20
-1.657178709e-19
-2.300613706e-20
-1.773247871e-19
-2.741694976e-20
-1.905230233e-19
-3.224063694e-20
-2.054050278e-19
-3.753814077e-20
-2.220254213e-19
-4.338106335e-20
-2.403865322e-19
-4.984998257e-20
-2.604227158e-19
-5.703125679e-20
-2.819822608e-19
-6.500904759e-20
-3.048099304e-19
-7.385270484e-20
-3.285329306e-19
-8.35964236e-20
-3.526578927e-19
-9.421195272e-20
-3.765852224e-19
-1.055725885e-19
-3.996507386e-19
-1.174126846e-19
-4.212020706e-19
-1.292897235e-19
-4.407132966e-19
-1.405692708e-19
-4.579192339e-19
-1.504637374e-19
-4.729185774e-19
-1.581775015e-19
-4.861471709e-19
-1.632229377e-19
-4.980902597e-19
-1.659422e-19
-5.08695892e-19
-1.680389311e-19
-5.175606093e-19
-1.723195012e-19
-5.279360927e-19
-1.783938403e-19
-5.638584364e-19
-1.672657996e-19
-7.11423953e-19
-6.019574224e-20
-9.133945075e-19
3.557468611e-19
-1.621833673e-18
7.724437997e-19
-2.663804473e-19
-7.848970613e-19
-1.332802367e-20
9.752773001e-20
2.01886189e-20
5.478477813e-20
2.063559252e-20
2.855704914e-20
1.85604159e-20
1.715611494e-20
1.805335899e-20
1.251895843e-20
1.888306206e-20
1.030386189e-20
2.006087765e-20
8.598188021e-21
2.108357277e-20
6.866347027e-21
2.193269907e-20
5.075559602e-21
2.267573614e-20
3.219654281e-21
2.329566941e-20
1.242040739e-21
2.369284122e-20
-9.143962381e-22
2.373497348e-20
-3.263649051e-21
2.33041292e-20
-5.762686852e-21
2.233219139e-20
-8.318642445e-21
2.081636494e-20
-1.081076042e-20
1.881297204e-20
-1.311714881e-20
1.641799695e-20
-1.513693838e-20
1.374425672e-20
-1.680254962e-20
1.089999051e-20
-1.808286207e-20
7.973052241e-21
-1.897812666e-20
5.022428185e-21
-1.950989622e-20
2.077913498e-21
-1.970833692e-20
-8.540438316e-22
-1.960066237e-20
-3.779846938e-21
-1.920211555e-20
-6.706237393e-21
-1.851150413e-20
-9.62745123e-21
-1.751111831e-20
-1.251492238e-20
-1.617170459e-20
-1.53114182e-20
-1.446126104e-20
-1.793216023e-20
-1.235699132e-20
-2.027372648e-20
-9.857582767e-21
-2.223065663e-20
-6.993317973e-21
-2.371694943e-20
-3.830387707e-21
-2.468917228e-20
-4.675012974e-22
-2.516562724e-20
2.977061993e-21
-2.523262073e-20
6.387469821e-21
-2.502875695e-20
9.677106623e-21
-2.4710008e-20
1.280968902e-20
-2.440369033e-20
1.580578987e-20
-2.416047086e-20
1.872751102e-20
-2.395459827e-20
2.16332837e-20
-2.38562111e-20
2.45251399e-20
-2.443072682e-20
2.742114641e-20
-2.674330009e-20
3.08221899e-20
-3.113629538e-20
3.657160813e-20
-3.374630189e-20
4.88974437e-20
-4.714132661e-21
7.575777349e-20
2.396580407e-19
1.191759169e-19
1.292242258e-18
-7.592877698e-19
1.608253994e-20
2.244037461e-19
-3.488530707e-19
-1.656406517e-18
-2.361236037e-19
-3.093986184e-18
5.137103276e-20
-2.665367165e-18
3.171792895e-31
-8.402101693e-20
9.239199838e-21
-8.409741464e-20
9.354979307e-21
-8.422263519e-20
9.599689082e-21
-8.440029912e-20
9.956397421e-21
-8.46271659e-20
1.040582293e-20
-8.490573253e-20
1.09288845e-20
-8.523869841e-20
1.15065639e-20
-8.56280249e-20
1.212039404e-20
-8.607538555e-20
1.275222998e-20
-8.658154809e-20
1.338474551e-20
-8.714690737e-20
1.400112668e-20
-8.777100637e-20
1.458551615e-20
-8.845318902e-20
1.512265259e-20
-8.919219448e-20
1.559828526e-20
-8.998686695e-20
1.599878979e-20
-9.083579546e-20
1.631158635e-20
-9.173813007e-20
1.652474491e-20
-9.269336557e-20
1.662738218e-20
-9.370232648e-20
1.660922746e-20
-9.476705188e-20
1.646099952e-20
-9.589182434e-20
1.617396404e-20
-9.70830533e-20
1.574034479e-20
-9.835037249e-20
1.515292362e-20
-9.970673491e-20
1.440547055e-20
-1.011698639e-19
1.349230142e-20
-1.027626873e-19
1.240862706e-20
-1.045149303e-19
1.115003289e-20
-1.064633788e-19
9.712828055e-21
-1.086531392e-19
8.093615947e-21
-1.111377481e-19
6.289732292e-21
-1.139807146e-19
4.298761623e-21
-1.172562101e-19
2.118691267e-21
-1.210509571e-19
-2.530357004e-22
-1.254644385e-19
-2.819785382e-21
-1.306094494e-19
-5.586904679e-21
-1.366107575e-19
-8.562095635e-21
-1.436046041e-19
-1.175686004e-20
-1.517367919e-19
-1.518755926e-20
-1.611611492e-19
-1.887788942e-20
-1.720350564e-19
-2.286096719e-20
-1.845136365e-19
-2.718249038e-20
-1.987402587e-19
-3.190317119e-20
-2.148359856e-19
-3.710199347e-20
-2.32885808e-19
-4.287839707e-20
-2.52923492e-19
-4.935423999e-20
-2.749121173e-19
-5.667254199e-20
-2.987225868e-19
-6.499264786e-20
-3.241097844e-19
-7.447782088e-20
-3.506930738e-19
-8.527392803e-20
-3.779461621e-19
-9.747411947e-20
-4.052087956e-19
-1.110670166e-19
-4.317329789e-19
-1.258644468e-19
-4.567848178e-19
-1.414129602e-19
-4.798161305e-19
-1.569007986e-19
-5.007061457e-19
-1.710950222e-19
-5.200196126e-19
-1.823823333e-19
-5.390976288e-19
-1.89066755e-19
-5.594198433e-19
-1.901757611e-19
-5.801358495e-19
-1.871252504e-19
-5.913232339e-19
-1.8590313e-19
-5.604060698e-19
-1.97591142e-19
-4.21601472e-19
-2.280178167e-19
-1.750183783e-19
-2.463760496e-19
3.934479169e-19
-1.066307552e-19
2.884155393e-19
7.341155002e-19
-2.038935316e-19
-2.925848975e-19
-5.607097489e-20
-5.029199791e-20
-6.039110382e-21
4.75552844e-21
9.234658301e-21
1.328583472e-20
1.392325939e-20
1.247016246e-20
1.583826228e-20
1.060671219e-20
1.717738809e-20
8.967659222e-21
1.832903659e-20
7.449564089e-21
1.929278519e-20
5.905813349e-21
2.007679364e-20
4.294973494e-21
2.069812248e-20
2.602088532e-21
2.113923229e-20
8.049198017e-22
2.134358828e-20
-1.114590954e-21
2.123593552e-20
-3.151907455e-21
2.074817351e-20
-5.270915225e-21
1.984007331e-20
-7.40673839e-21
1.850997635e-20
-9.476988899e-21
1.679318245e-20
-1.13970035e-20
1.475238562e-20
-1.309318331e-20
1.246394409e-20
-1.451184278e-20
1.000472597e-20
-1.562209334e-20
7.441282642e-21
-1.641393462e-20
4.823987332e-21
-1.689236208e-20
2.185588153e-21
-1.707001621e-20
-4.554970052e-22
-1.695965987e-20
-3.089235614e-21
-1.65685918e-20
-5.705851425e-21
-1.589538736e-20
-8.288037469e-21
-1.493003661e-20
-1.080447885e-20
-1.365694552e-20
-1.320714831e-20
-1.206084412e-20
-1.543275159e-20
-1.013404387e-20
-1.740946163e-20
-7.883949923e-21
-1.90677262e-20
-5.33845751e-21
-2.035406291e-20
-2.547745291e-21
-2.124460884e-20
4.192683471e-22
-2.175521929e-20
3.483911791e-21
-2.194298381e-20
6.571524934e-21
-2.189617434e-20
9.626501112e-21
-2.171390709e-20
1.262357574e-20
-2.148196907e-20
1.557014159e-20
-2.125469792e-20
1.849689435e-20
-2.106274206e-20
2.143834924e-20
-2.096020448e-20
2.44198461e-20
-2.102968302e-20
2.748806141e-20
-2.099388192e-20
3.078401497e-20
-1.881045974e-20
3.438606624e-20
-6.885971604e-21
3.696992799e-20
3.870401006e-20
3.016491151e-20
1.81132233e-19
-2.325608935e-20
-3.140248316e-19
-2.64131921e-19
-8.108294843e-19
7.615496983e-19
-8.564687515e-19
-9.791803628e-19
-5.053704885e-19
-3.220981503e-18
1.898568684e-20
-3.138906312e-18
4.54573207e-31
-8.269727249e-20
9.900058184e-21
-8.278452229e-20
1.002619057e-20
-8.292811013e-20
1.029228716e-20
-8.313205107e-20
1.06798576e-20
-8.339321045e-20
1.116817688e-20
-8.371438628e-20
1.173646528e-20
-8.409818109e-20
1.236427149e-20
-8.454676271e-20
1.303146867e-20
-8.506162042e-20
1.371854321e-20
-8.564365818e-20
1.440658621e-20
-8.629302851e-20
1.507750627e-20
-8.700936688e-20
1.57139648e-20
-8.779172934e-20
1.629953519e-20
-8.863890135e-20
1.681860703e-20
-8.954937158e-20
1.725653633e-20
-9.052170737e-20
1.759953801e-20
-9.155465078e-20
1.783482519e-20
-9.264765679e-20
1.795048139e-20
-9.380114893e-20
1.793557173e-20
-9.501715611e-20
1.778000034e-20
-9.62995791e-20
1.747463958e-20
-9.765483037e-20
1.701122246e-20
-9.909219933e-20
1.638252405e-20
-1.006247623e-19
1.558226917e-20
-1.022701441e-19
1.460528258e-20
-1.04051771e-19
1.344734172e-20
-1.05999714e-19
1.210529618e-20
-1.081517076e-19
1.057695938e-20
-1.105536826e-19
8.861315115e-21
-1.132607725e-19
6.958457634e-21
-1.163383465e-19
4.869669872e-21
-1.198637659e-19
2.597024732e-21
-1.239277405e-19
1.430267806e-22
-1.286354648e-19
-2.490157102e-21
-1.341065736e-19
-5.301278748e-21
-1.404749157e-19
-8.291021145e-21
-1.478878686e-19
-1.146315164e-20
-1.565059108e-19
-1.482658906e-20
-1.66501003e-19
-1.839795869e-20
-1.780534429e-19
-2.22050683e-20
-1.913458551e-19
-2.629069706e-20
-2.065550012e-19
-3.071719137e-20
-2.238409365e-19
-3.557141203e-20
-2.43333868e-19
-4.097027364e-20
-2.651170754e-19
-4.706562224e-20
-2.892053106e-19
-5.404741684e-20
-3.155175984e-19
-6.21425859e-20
-3.438463368e-19
-7.160692159e-20
-3.738257837e-19
-8.270523085e-20
-4.049070805e-19
-9.567368398e-20
-4.363507235e-19
-1.106554819e-19
-4.67256634e-19
-1.27600755e-19
-4.96661018e-19
-1.46122273e-19
-5.237392146e-19
-1.65303902e-19
-5.481602507e-19
-1.834736899e-19
-5.706325191e-19
-1.979981824e-19
-5.935655533e-19
-2.052612957e-19
-6.214221556e-19
-2.012441365e-19
-6.59166371e-19
-1.834332653e-19
-7.051604494e-19
-1.551595025e-19
-7.334528997e-19
-1.313742993e-19
-6.759560782e-19
-1.447266216e-19
-2.962439506e-19
-2.52009024e-19
-8.582237714e-20
1.339511626e-30
3.350277451e-19
3.132666312e-19
3.839936675e-20
4.045566688e-21
-1.023448843e-21
-1.086696802e-20
2.491195833e-21
1.243049098e-21
8.418986102e-21
7.360253803e-21
1.205980926e-20
8.831678807e-21
1.419920934e-20
8.469862064e-21
1.565929307e-20
7.510311268e-21
1.6785286e-20
6.32648493e-21
1.768194541e-20
5.012221456e-21
1.83839088e-20
3.596302907e-21
1.890095388e-20
2.088568371e-21
1.921972166e-20
4.899093884e-22
1.930627192e-20
-1.197294701e-21
1.911692784e-20
-2.958727476e-21
1.86123505e-20
-4.762645938e-21
1.776982292e-20
-6.560659372e-21
1.658996179e-20
-8.293774111e-21
1.509700281e-20
-9.900912113e-21
1.333372625e-20
-1.132717194e-20
1.135369351e-20
-1.252959717e-20
9.212884848e-21
-1.347975083e-20
6.962855225e-21
-1.416300274e-20
4.646333123e-21
-1.457546457e-20
2.295944608e-21
-1.471952669e-20
-6.44289301e-23
-1.459936921e-20
-2.41603129e-21
-1.421727141e-20
-4.740500611e-21
-1.357161752e-20
-7.014946435e-21
-1.265680577e-20
-9.208377592e-21
-1.146526017e-20
-1.128034806e-20
-9.991005162e-21
-1.318265774e-20
-8.234203458e-21
-1.486396935e-20
-6.205427822e-21
-1.627701407e-20
-3.92857635e-21
-1.73870494e-20
-1.441162481e-21
-1.817996551e-20
1.208591207e-21
-1.86676063e-20
3.967983225e-21
-1.888800777e-20
6.788352853e-21
-1.889909977e-20
9.633937295e-21
-1.876734144e-20
1.248811287e-20
-1.855521645e-20
1.535451626e-20
-1.831324302e-20
1.825181023e-20
-1.808124547e-20
2.120358312e-20
-1.78919893e-20
2.422799515e-20
-1.773372939e-20
2.732735861e-20
-1.739183096e-20
3.04398501e-20
-1.622659811e-20
3.321879945e-20
-1.369098795e-20
3.44319586e-20
-1.471699074e-20
3.118754368e-20
-5.974359679e-20
2.176800036e-20
-3.61655813e-19
3.777964512e-20
5.838817006e-20
3.415056744e-19
-3.208591574e-19
1.58621093e-30
-2.720765203e-19
-2.853171409e-18
1.049010859e-19
-3.568460125e-18
7.187042274e-31
-8.126690086e-20
1.06025663e-20
-8.136571209e-20
1.074033871e-20
-8.152904898e-20
1.103020978e-20
-8.176109942e-20
1.145219827e-20
-8.205909898e-20
1.198382641e-20
-8.242593321e-20
1.260265483e-20
-8.286436012e-20
1.32864934e-20
-8.337653268e-20
1.401360164e-20
-8.396401075e-20
1.476279156e-20
-8.46276095e-20
1.551362698e-20
-8.53674891e-20
1.624644134e-20
-8.618314259e-20
1.69424774e-20
-8.707357647e-20
1.758385807e-20
-8.803735866e-20
1.81536958e-20
-8.907284246e-20
1.863604667e-20
-9.017828918e-20
1.901600585e-20
-9.135222883e-20
1.927964841e-20
-9.259375562e-20
1.941410577e-20
-9.390304476e-20
1.940748781e-20
-9.52817238e-20
1.924896279e-20
-9.673339125e-20
1.892871198e-20
-9.826398487e-20
1.843806411e-20
-9.988244018e-20
1.776949722e-20
-1.016013723e-19
1.691680046e-20
-1.034381596e-19
1.587506244e-20
-1.054159527e-19
1.464081535e-20
-1.075647863e-19
1.321203664e-20
-1.099223305e-19
1.158836717e-20
-1.125347414e-19
9.771205862e-21
-1.1545757e-19
7.763933195e-21
-1.18757309e-19
5.571838264e-21
-1.22513148e-19
3.202004205e-21
-1.268188053e-19
6.628575988e-22
-1.317835648e-19
-2.03622889e-21
-1.375327679e-19
-4.885592592e-21
-1.442078279e-19
-7.876051105e-21
-1.519665695e-19
-1.100038083e-20
-1.609834429e-19
-1.425545166e-20
-1.714490809e-19
-1.764539734e-20
-1.835678398e-19
-2.118548712e-20
-1.975531104e-19
-2.490702478e-20
-2.136201508e-19
-2.886318369e-20
-2.319767314e-19
-3.313625758e-20
-2.528105537e-19
-3.784598038e-20
-2.762721235e-19
-4.315853075e-20
-3.024509163e-19
-4.929466394e-20
-3.313437141e-19
-5.653510955e-20
-3.62814736e-19
-6.521979451e-20
-3.965491312e-19
-7.573577578e-20
-4.32003643e-19
-8.848523213e-20
-4.683640362e-19
-1.038211346e-19
-5.045283273e-19
-1.219341953e-19
-5.391483925e-19
-1.426708898e-19
-5.707829058e-19
-1.65258109e-19
-5.98255352e-19
-1.879088756e-19
-6.213749591e-19
-2.072935792e-19
-6.42218822e-19
-2.179144928e-19
-6.66902896e-19
-2.116051399e-19
-7.067192568e-19
-1.784173707e-19
-7.714092159e-19
-1.105839961e-19
-8.629291558e-19
-1.272451221e-20
-7.728371041e-19
1.284280959e-19
-6.519184112e-19
1.239076569e-19
-2.793051938e-19
-5.961946767e-20
2.580667921e-20
8.155617141e-21
2.348683202e-20
6.36691176e-21
1.108656832e-20
1.535009134e-21
8.608400549e-21
3.723019974e-21
9.890411105e-21
6.080163614e-21
1.169799257e-20
7.026228406e-21
1.323965849e-20
6.930577786e-21
1.447546673e-20
6.277123314e-21
1.547102255e-20
5.333726019e-21
1.626602683e-20
4.220170384e-21
1.687617426e-20
2.989271025e-21
1.73022949e-20
1.665760526e-21
1.753251756e-20
2.63163147e-22
1.754483914e-20
-1.206050562e-21
1.731300935e-20
-2.72336941e-21
1.681433709e-20
-4.26055662e-21
1.603670819e-20
-5.779771861e-21
1.498282372e-20
-7.236787555e-21
1.367074304e-20
-8.585944428e-21
1.213130102e-20
-9.785153822e-21
1.040353977e-20
-1.079972629e-20
8.529633014e-21
-1.160429227e-20
6.550393404e-21
-1.218279111e-20
4.502270914e-21
-1.252683867e-20
2.416102172e-21
-1.263319964e-20
3.176688704e-22
-1.250103363e-20
-1.77037748e-21
-1.212964529e-20
-3.825688776e-21
-1.151715169e-20
-5.82340084e-21
-1.066042157e-20
-7.734122635e-21
-9.556245391e-21
-9.523546291e-21
-8.20355234e-21
-1.11538821e-20
-6.606062402e-21
-1.258711789e-20
-4.774713947e-21
-1.378960017e-20
-2.729018656e-21
-1.473729571e-20
-4.967510233e-22
-1.542057346e-20
1.888427276e-21
-1.584723669e-20
4.391209252e-21
-1.604242333e-20
6.980120586e-21
-1.604492411e-20
9.632946924e-21
-1.590093811e-20
1.234062199e-20
-1.565792249e-20
1.51082029e-20
-1.536146998e-20
1.795242673e-20
-1.505683356e-20
2.089628635e-20
-1.479262584e-20
2.396124975e-20
-1.462123772e-20
2.715352797e-20
-1.461288178e-20
3.042921187e-20
-1.501343896e-20
3.361721075e-20
-1.69354027e-20
3.635169615e-20
-2.413653428e-20
3.838628237e-20
-4.373195204e-20
4.136166132e-20
-5.79297807e-20
5.197695725e-20
2.236319448e-19
5.994376479e-20
2.227197332e-19
2.602432632e-21
-3.937145661e-19
-1.146096171e-18
1.930994072e-19
-3.935689478e-18
1.284343152e-30
-7.972014128e-20
1.134658326e-20
-7.983133303e-20
1.149735547e-20
-8.001573882e-20
1.181375447e-20
-8.02778492e-20
1.227407631e-20
-8.061521019e-20
1.285401414e-20
-8.103090994e-20
1.352924605e-20
-8.152779056e-20
1.427576684e-20
-8.210810638e-20
1.50700011e-20
-8.277341346e-20
1.58890199e-20
-8.352455245e-20
1.671064569e-20
-8.436161349e-20
1.751358359e-20
-8.528404705e-20
1.827746226e-20
-8.629071253e-20
1.898291745e-20
-8.738004378e-20
1.961159974e-20
-8.855014345e-20
2.01462341e-20
-8.979903155e-20
2.057060888e-20
-9.112488845e-20
2.08696169e-20
-9.252647869e-20
2.102923162e-20
-9.400353914e-20
2.103654467e-20
-9.555725945e-20
2.087976389e-20
-9.719065565e-20
2.054830312e-20
-9.890906432e-20
2.003284369e-20
-1.007206785e-19
1.932548503e-20
-1.026373932e-19
1.841984159e-20
-1.046757759e-19
1.731120339e-20
-1.068582175e-19
1.599665556e-20
-1.092138848e-19
1.447530556e-20
-1.11779612e-19
1.274850637e-20
-1.146006822e-19
1.082017998e-20
-1.17732035e-19
8.697028657e-21
-1.21239901e-19
6.388682381e-21
-1.25203897e-19
3.907626224e-21
-1.297188787e-19
1.269075227e-21
-1.348962815e-19
-1.509267656e-21
-1.408648208e-19
-4.407519887e-21
-1.477712564e-19
-7.404334504e-21
-1.557814886e-19
-1.047822548e-20
-1.650819204e-19
-1.360983346e-20
-1.758799839e-19
-1.67850926e-20
-1.884030576e-19
-1.999943582e-20
-2.028952634e-19
-2.326313014e-20
-2.196124233e-19
-2.660824329e-20
-2.388148315e-19
-3.009758357e-20
-2.607568236e-19
-3.383585846e-20
-2.856708778e-19
-3.798267668e-20
-3.137437652e-19
-4.276659841e-20
-3.450821756e-19
-4.849871279e-20
-3.796656402e-19
-5.55830194e-20
-4.172846975e-19
-6.451845654e-20
-4.574636832e-19
-7.588334606e-20
-4.993722038e-19
-9.028795325e-20
-5.417371044e-19
-1.082743398e-19
-5.827769873e-19
-1.301352591e-19
-6.201989945e-19
-1.556148501e-19
-6.513414287e-19
-1.834435187e-19
-6.736378387e-19
-2.106276947e-19
-6.856544115e-19
-2.312889234e-19
-6.893264988e-19
-2.347749313e-19
-6.918517972e-19
-2.021777109e-19
-6.990125229e-19
-1.047391729e-19
-7.296612219e-19
6.966581152e-20
-2.841413173e-19
2.39061186e-20
1.937552478e-19
6.98996409e-31
4.184462223e-20
9.229109558e-20
2.401797368e-20
2.598291072e-20
1.865492928e-20
1.173112468e-20
1.327457911e-20
6.91679003e-21
1.09655441e-20
6.033625738e-21
1.083647583e-20
6.210972364e-21
1.160234192e-20
6.262345603e-21
1.25862039e-20
5.94898512e-21
1.353206936e-20
5.333778994e-21
1.435746685e-20
4.511036839e-21
1.503512736e-20
3.545350465e-21
1.555266367e-20
2.474702302e-21
1.589969742e-20
1.321827128e-21
1.606330376e-20
1.027796563e-22
1.60275202e-20
-1.166987356e-21
1.577582202e-20
-2.468418821e-21
1.529512178e-20
-3.776710478e-21
1.457969241e-20
-5.061334579e-21
1.363366672e-20
-6.287908877e-21
1.247153362e-20
-7.42114307e-21
1.111672849e-20
-8.427952664e-21
9.598973658e-21
-9.279961182e-21
7.951134202e-21
-9.954927662e-21
6.206345808e-21
-1.043697953e-20
4.395909834e-21
-1.071583068e-20
2.548268251e-21
-1.078535486e-20
6.89057205e-22
-1.064197131e-20
-1.157883941e-21
-1.028324757e-20
-2.968958579e-21
-9.707065763e-21
-4.719224631e-21
-8.911529748e-21
-6.381429594e-21
-7.895659673e-21
-7.926056256e-21
-6.660675525e-21
-9.322533599e-21
-5.211520459e-21
-1.054142256e-20
-3.558116512e-21
-1.155733245e-20
-1.715886044e-21
-1.235211734e-20
2.948588407e-22
-1.291779138e-20
2.450774807e-21
-1.32583253e-20
4.728474364e-21
-1.338959692e-20
7.108170977e-21
-1.333724889e-20
9.577315925e-21
-1.31333572e-20
1.213340879e-20
-1.281369859e-20
1.478539662e-20
-1.241761017e-20
1.755349619e-20
-1.199187021e-20
2.046791749e-20
-1.160034756e-20
2.356716769e-20
-1.134555356e-20
2.689627246e-20
-1.142488303e-20
3.050623164e-20
-1.227895349e-20
3.446909364e-20
-1.490081616e-20
3.897137468e-20
-2.116115543e-20
4.464446022e-20
-3.311665594e-20
5.331576931e-20
-4.99629725e-20
6.88225247e-20
-8.708411271e-20
9.706619499e-20
-2.559771472e-19
1.714961427e-19
-6.897404896e-19
1.260222797e-30
2.725365599e-19
-4.360833109e-18
1.035739033e-30
-7.804655974e-20
1.213121307e-20
-7.817091168e-20
1.229656652e-20
-7.837776031e-20
1.264254553e-20
-7.867187966e-20
1.314561124e-20
-7.905120785e-20
1.377942378e-20
-7.951901966e-20
1.451763977e-20
-8.007831215e-20
1.533423207e-20
-8.073142261e-20
1.620365773e-20
-8.147997605e-20
1.710105102e-20
-8.232481516e-20
1.800238216e-20
-8.326602524e-20
1.888455186e-20
-8.430297777e-20
1.972548934e-20
-8.543443482e-20
2.050418651e-20
-8.665864711e-20
2.120075502e-20
-8.797350413e-20
2.17964331e-20
-8.937672514e-20
2.227361161e-20
-9.086615957e-20
2.26158233e-20
-9.244014784e-20
2.280776722e-20
-9.409795323e-20
2.283530859e-20
-9.584015764e-20
2.268554662e-20
-9.766907219e-20
2.234688955e-20
-9.958915723e-20
2.180919495e-20
-1.016076211e-19
2.106391241e-20
-1.037352142e-19
2.010427782e-20
-1.059872553e-19
1.892549625e-20
-1.083846969e-19
1.752499821e-20
-1.109551061e-19
1.59027372e-20
-1.137334878e-19
1.406158318e-20
-1.167631965e-19
1.200772964e-20
-1.200972187e-19
9.751083471e-21
-1.238000316e-19
7.305530601e-21
-1.279497637e-19
4.689131983e-21
-1.326401925e-19
1.924255152e-21
-1.379821872e-19
-9.62275078e-22
-1.441048379e-19
-3.939179159e-21
-1.51156842e-19
-6.971107514e-21
-1.593085622e-19
-1.001974954e-20
-1.687543767e-19
-1.304581259e-20
-1.7971443e-19
-1.601195945e-20
-1.924349924e-19
-1.888676363e-20
-2.071873563e-19
-2.165008383e-20
-2.242654715e-19
-2.430044848e-20
-2.43982017e-19
-2.686513929e-20
-2.666614723e-19
-2.941342921e-20
-2.92627699e-19
-3.207311617e-20
-3.221830011e-19
-3.50502671e-20
-3.555750869e-19
-3.865166978e-20
-3.929475516e-19
-4.330863539e-20
-4.342679334e-19
-4.959825693e-20
-4.792275834e-19
-5.825423749e-20