/*--------------------------------*- C++ -*----------------------------------*\
  =========                 |
  \\      /  F ield         | OpenFOAM: The Open Source CFD Toolbox
   \\    /   O peration     | Website:  https://openfoam.org
    \\  /    A nd           | Version:  10
     \\/     M anipulation  |
\*---------------------------------------------------------------------------*/
FoamFile
{
    format      ascii;
    class       volScalarField;
    location    "0.0005";
    object      cp;
}
// * * * * * * * * * * * * * * * * * * * * * * * * * * * * * * * * * * * * * //

dimensions      [0 2 -2 -1 0 0 0];

internalField   nonuniform List<scalar> 
3600
(
520
520
520
520
520
520
520
520
520
520
520
520
520
520
520.0000001
520.0000001
520.0000002
520.0000003
520.0000005
520.0000006
520.0000001
520
520
520
520
520
520
520
520
520
520
520
520
520
520
520
520
520
520
520.0000003
649.9999998
650
650
650
650
650
650
650
650
650
650
650
650
650
650
650
650
650
650
650
520
520
520
520
520
520
520
520
520.0000001
520.0000003
520.0000004
520.0000005
520.0000006
520.0000006
520.0000006
520.0000004
520.0000003
520.0000002
520.0000049
520.0000278
520.0000374
520.0000276
520.0000003
520
520
520
520
520
520
520
520
520
520
520
520
520
520
520
520
520.0000003
649.9999998
650
650
650
650
650
650
650
650
650
650
650
650
650
650
650
650
650
650
650
520.0000001
520.0000002
520.0000002
520.0000002
520.0000002
520.0000001
520.0000005
520.0000016
520.000002
520.0000022
520.0000016
520.0000011
520.0000011
520.000001
520.0000007
520.0000003
520.0000001
520.0000001
520.0000001
520.0000047
520.0003119
520.0005753
520.000564
520.0005808
520.0002936
520
520
520
520
520
520
520
520
520
520
520
520
520
520
520.0000002
649.9999998
650
650
650
650
650
650
650
650
650
650
650
650
650
650
650
650
650
650
650
520.0000001
520.0000001
520.0000104
520.0001834
520.0007205
520.0011349
520.0002843
520.0000096
520.0000001
520.0000022
520.0000023
520.0000012
520.0000003
520.0000004
520.0000003
520.0000001
520.0000001
520.0000001
520.0000001
520.0000001
520.0000001
520.0007673
520.0294601
520.0516849
520.0395164
520.0125813
520.0026298
520.0000206
520.0003288
520.0002685
520.0001307
520.0000002
520.0000001
520
520
520
520
520
520
520.0000002
649.9999998
650
650
650
650
650
650
650
650
650
650
650
650
650
650
650
650
650
650
650
520.0000001
520.0000008
520.0001574
520.0089081
520.0518632
520.0700393
520.011858
520.0000001
520.0000001
520.0000001
520.0000001
520.0000002
520.0000002
520.0000002
520.0000001
520.0000001
520.0000001
520.0000001
520.0000001
520.0000001
520.0000004
520.0022488
520.0514472
520.0685172
520.0685287
520.0685693
520.0613433
520.0366764
520.0429501
520.0438813
520.0413819
520.0325555
520.0186976
520.004902
520.0001651
520
520
520
520
520.0000001
649.9999998
650
650
650
650
650
650
650
650
650
650
650
650
650
650
650
650
650
650
650
520.0006488
520.0000048
520.0229764
520.0771716
520.0771719
520.0771714
520.0698686
520.0000001
520.0000001
520.0000001
520.0000001
520.0000001
520.0000002
520.0000001
520.0000001
520.0000001
520.0000001
520.0000001
520.0000002
520.0000004
520.0000009
520.0000001
520
520.0205448
520.0530462
520.0685775
520.0715728
520.0716935
520.0718217
520.0719546
520.0720564
520.0720934
520.0720916
520.0670001
520.0388887
520.0066477
520
520
520
520.0000001
649.9999997
650
650
650
650
650
650
650
650
650
650
650
650
650
650
650
650
650
650
650
520.0044997
520.0003065
520.0268212
520.0771717
520.0771714
520.0771481
520.0279923
520.0000001
520.0000001
520.0000001
520.0000004
520.0000007
520.0000006
520.0000002
520.0000001
520
520.0000001
520.0000374
520.0002073
520.0002702
520.0000925
520
520
520
520
520
520.0024466
520.0110115
520.0129172
520.0127888
520.0226805
520.0444566
520.0653903
520.0740084
520.0740084
520.0694214
520.0132501
520
520
520
649.9999997
650
650
650
650
650
650
650
650
650
650
650
650
650
650
650
650
650
650
650
520.0078943
520.0017705
520
520.0095135
520.0380305
520.0376055
520.0010906
520.0000001
520.0000409
520.000113
520.0000971
520.0000122
520
520
520
520
520.0000004
520.0003679
520.0008423
520.0008425
520.0007925
520.0000767
520.0000019
520
520
520
520
520
520
520
520
520
520.0000001
520.0199598
520.0601424
520.0814582
520.0814427
520.0170451
520
520
649.9999996
650
650
650
650
650
650
650
650
650
650
650
650
650
650
650
650
650
650
650
520.0022093
520
520
520
520
520
520
520.0000539
520.0003176
520.0003271
520.0003211
520.0000228
520
520
520
520
520.0000108
520.0005587
520.0008425
520.0008425
520.0008425
520.0008219
520.0000387
520
520
520.0000002
520.0000002
520.0000003
520.0000002
520.0000002
520.0000001
520.0000001
520.0000001
520.0000001
520.0000002
520.038006
520.1012043
520.1012622
520
520
649.9999995
650
650
650
650
650
650
650
650
650
650
650
650
650
650
650
650
650
650
650
520.0002826
520
520.0000003
520.0000003
520.0000001
520
520.0000051
520.0002257
520.000327
520.0003271
520.0002154
520
520
520
520
520
520
520.0000035
520.0004308
520.0008425
520.0008424
520.0005914
520
520
520.0000001
520.0000003
520.0000003
520.0000003
520.0000003
520.0000002
520.0000002
520.0000001
520.0000001
520.0000001
520.0000001
520.0000002
520.0326854
520.1040625
520.046063
520
649.9999993
650
650
650
650
650
650
650
650
650
650
650
650
650
650
650
650
650
650
650
520.000179
520
520.0000003
520.0000003
520.0000001
520.0000001
520.0000001
520.0000328
520.0001886
520.0001943
520
520
520
520
520
520
520
520
520
520.0000258
520.0001304
520.0000227
520
520.0000001
520.0000003
520.0000003
520.0000003
520.0000002
520.0000002
520.0000002
520.0000002
520.0000001
520.0000001
520.0000001
520.0000001
520.0000001
520.0000003
520.0953761
520.1127762
520
649.9999989
650
650
650
650
650
650
650
650
650
650
650
650
650
650
650
650
650
650
650
520.0039488
520
520
520
520.0000001
520.0000002
520.0000002
520
520
520
520
520
520
520
520
520
520
520
520
520
520
520
520
520.0000001
520.0000005
520.0000073
520.0000243
520.0000289
520.0000058
520.0000001
520.0000001
520.0000001
520.0000001
520.0000001
520.0000001
520.0000006
520.0018744
520.0080255
520.1127762
520
649.9999976
650
650
650
650
650
650
650
650
650
650
650
650
650
650
650
650
650
650
650
520.0080056
520.0035301
520
520
520
520
520
520
520
520
520
520
520
520
520
520
520
520
520
520
520
520
520
520
520
520.0000284
520.0000719
520.000072
520.0000597
520.0000172
520.0000004
520.0000001
520.0000001
520.0000001
520.0000001
520.0000006
520.0023456
520.0053199
520.0415394
520.0000957
649.9999949
650
650
650
650
650
650
650
650
650
650
650
650
650
650
650
650
650
650
650
520.0080056
520.0020425
520
520.0000001
520.0000001
520.0000001
520
520
520
520
520
520
520
520
520
520
520
520
520
520
520
520
520
520
520
520.0000249
520.000072
520.000072
520.000072
520.000072
520.0000249
520.0000001
520.0000001
520.0000001
520.0000001
520.0000001
520.0010843
520.0048126
520.0047056
520.8469136
649.9999955
650
650
650
650
650
650
650
650
650
650
650
650
650
650
650
650
650
650
650
520.0014649
520.0000882
520
520.0000002
520.0000003
520.0000002
520
520
520
520
520
520
520
520
520
520
520
520
520
520
520
520
520
520
520
520
520.0000107
520.000049
520.0000719
520.0000719
520.000045
520.0000001
520.0000001
520.0000001
520.0000001
520.0000001
520.0000357
520.0013754
520.0015385
562.7914145
649.9999994
650
650
650
650
650
650
650
650
650
650
650
650
650
650
650
650
650
650
650
520.0000001
520.0000001
520.0000002
520.0000004
520.0000004
520.0000002
520.0000001
520
520
520
520
520
520
520
520
520
520
520
520
520
520
520
520
520
520
520
520
520
520.0000049
520.000016
520.0000027
520.0000032
520.0000007
520.0000002
520.0000001
520.0000001
520.0000002
520.0000619
520.0390379
684.5259155
649.9999997
650
650
650
650
650
650
650
650
650
650
650
650
650
650
650
650
650
650
650
520.0002981
520.0000001
520.0000001
520.0000002
520.0000007
520.0000253
520.0000725
520.000059
520.0000033
520
520
520
520
520
520
520
520
520
520
520
520
520
520
520
520
520.0000001
520.0000001
520.0000001
520.0000001
520.0000001
520.0000001
520.0000007
520.0000014
520.0000002
520.0000001
520.0000001
520.0000004
520.0000441
579.6878761
574.7710464
649.999998
650
650
650
650
650
650
650
650
650
650
650
650
650
650
650
650
650
650
650
520.0004085
520.0000263
520.0000001
520.0000004
520.0000109
520.0002006
520.0002879
520.0002879
520.0000957
520
520
520
520
520
520
520
520
520
520
520
520
520
520
520
520
520.0000001
520.0000002
520.0000002
520.0000002
520.0000002
520.0000003
520.0000003
520.0000009
520.0000002
520.0000001
520.0000007
520.000036
520.0037236
740.1142414
587.3162081
649.9999981
650
650
650
650
650
650
650
650
650
650
650
650
650
650
650
650
650
650
650
520.0003533
520.0000003
520.0000003
520.0000009
520.0000704
520.0002879
520.0002879
520.0002879
520.0002858
520.000023
520
520
520
520
520
520
520
520
520
520
520
520
520
520
520
520.0000001
520.0000002
520.0000002
520.0000002
520.0000002
520.0000003
520.0000003
520.0000003
520.0000003
520.0000005
520.0000225
520.0020829
611.4538478
594.8928841
587.1161463
649.9999986
650
650
650
650
650
650
650
650
650
650
650
650
650
650
650
650
650
650
650
520.0000127
520.000002
520.0000007
520.0000005
520.0000049
520.0001695
520.0002879
520.0002879
520.0001788
520
520
520
520
520
520
520
520
520
520
520
520
520
520
520
520
520
520.0000001
520.0000026
520.000027
520.0000187
520.0000019
520.0000003
520.0000003
520.0000008
520.000028
520.0019517
564.8768954
599.3169385
613.9310397
590.9971661
649.9999976
650
650
650
650
650
650
650
650
650
650
650
650
650
650
650
650
650
650
650
520.000018
520.0000173
520.000003
520.0000005
520.0000005
520.0000013
520.000075
520.0001167
520.000007
520
520
520
520
520
520
520
520
520
520
520
520
520
520
520
520
520
520
520.0000507
520.0001623
520.0001562
520.0000236
520.0000003
520.0000015
520.0000358
520.0019464
541.6047171
806.1917874
630.5208005
615.5275139
592.8696219
649.9999941
650
650
650
650
650
650
650
650
650
650
650
650
650
650
650
650
650
650
650
520.0000007
520.0000007
520.000001
520.000001
520.0000005
520
520
520
520
520
520
520
520
520
520
520
520
520
520
520
520
520
520
520
520
520
520
520.0000848
520.0001624
520.000162
520.0000581
520.0000015
520.0000755
520.0019541
527.5993235
848.5921531
641.2776841
634.2409511
620.3153811
682.4906556
649.9999985
650
650
650
650
650
650
650
650
650
650
650
650
650
650
650
650
650
650
650
520.0000009
520.0000003
520.0000003
520.0000001
520
520
520
520
520
520
520
520
520
520
520
520
520
520
520
520
520
520
520
520
520
520
520
520.0000066
520.0000959
520.0000935
520.0000556
520.0000755
520.0042566
522.7582963
816.4517939
645.4222813
642.200591
637.8043747
623.2030079
852.3894816
649.9999991
650
650
650
650
650
650
650
650
650
650
650
650
650
650
650
650
650
650
650
520.0000006
520.0000004
520.0000004
520.0000002
520
520
520
520
520
520
520
520
520
520
520
520
520
520
520
520
520
520
520
520
520
520
520.0000008
520.0000045
520.0000021
520.0000021
520.0000114
520.0035376
531.2529207
820.9569877
649.4446401
646.0988811
642.200591
637.8043727
626.6533309
869.9888348
650.0000004
650
650
650
650
650
650
650
650
650
650
650
650
650
650
650
650
650
650
650
520.0000002
520.0000003
520.0000002
520.0000001
520
520
520
520
520
520
520
520
520
520
520
520
520
520
520
520
520
520
520
520
520
520
520
520.0003074
520.0000021
520.0000053
520.0006633
537.2819417
853.1266012
649.9807748
649.6225099
646.098881
642.2005902
637.8043722
626.6533307
885.6729221
650
650
650
650
650
650
650
650
650
650
650
650
650
650
650
650
650
650
650
650
520
520
520
520
520
520
520
520
520
520
520
520
520
520
520
520
520
520
520
520
520
520
520
520
520
520
520.0000011
520.0004211
520.0000055
520.0000916
530.7737503
875.7770284
649.9822675
649.9807748
649.6225099
646.0988808
642.2005899
637.8043727
632.075606
820.501643
650.0000001
650
650
650
650
650
650
650
650
650
650
650
650
650
650
650
650
650
650
650
520
520
520
520
520
520
520
520
520
520
520
520
520
520
520
520
520
520
520
520
520
520
520
520
520
520.0000063
520.0000012
520.0000039
520.0000039
520.0048006
842.8517895
649.9822675
649.9822675
649.9807748
649.6225099
646.0988807
642.2005898
637.804372
633.1403175
612.6077132
649.9999994
650
650
650
650
650
650
650
650
650
650
650
650
650
650
650
650
650
650
650
520
520
520
520
520
520
520
520
520
520
520
520
520
520
520
520
520
520
520
520
520
520
520
520
520
520.0000147
520.0003908
520.0000039
520.0000028
718.7253182
648.7081237
649.9822675
649.9822675
649.9807748
649.6225099
646.0988806
642.2005897
637.8043715
633.1403173
643.0110819
650
650
650
650
650
650
650
650
650
650
650
650
650
650
650
650
650
650
650
650
520
520
520
520
520
520
520
520
520
520
520
520
520
520
520
520
520
520
520
520
520
520
520
520
520
520.0000155
520.0012646
520.0000058
540.97459
946.9062732
781.1592795
649.9822675
649.9822675
649.9822673
649.6225099
644.8504517
642.2005895
633.2076135
633.1403171
939.8175481
649.9999991
650
650
650
650
650
650
650
650
650
650
650
650
650
650
650
650
650
650
650
520
520
520
520
520
520
520
520
520
520
520
520
520
520
520
520
520
520
520
520
520
520
520
520
520
520.0000311
520.0012651
520.0000123
613.6071973
1019.443408
876.3843423
649.9856332
649.9878417
649.9822673
649.6282471
644.6702571
640.5001603
633.1626778
630.9122467
622.9337037
649.9999934
650
650
650
650
650
650
650
650
650
650
650
650
650
650
650
650
650
650
650
520
520
520
520
520
520
520
520
520
520
520
520
520
520
520
520
520
520
520
520
520
520
520
520
520.0000001
520.0000133
520.0010629
520.0001253
663.1030351
1047.074818
1066.690422
807.4994303
649.9882196
649.9759498
649.7470347
641.9081446
906.6988618
906.6988612
971.7678491
634.3347519
649.9999949
650
650
650
650
650
650
650
650
650
650
650
650
650
650
650
650
650
650
650
520
520
520
520
520
520
520
520
520
520
520
520
520
520
520
520
520
520
520
520
520
520
520
520
520
520.0000056
520.0005084
520.0414679
671.6964008
1068.897268
1099.834495
1070.384207
800.1580142
649.9946227
649.9866377
945.8175305
906.6988615
906.6988618
906.6996625
908.6853173
649.9999912
650
650
650
650
650
650
650
650
650
650
650
650
650
650
650
650
650
650
650
520
520
520
520
520
520
520
520
520
520
520
520
520
520
520
520
520
520
520
520
520
520
520
520
520
520.0000002
520.0000243
520.0037795
627.8906631
1081.853482
1099.915858
1099.916376
1085.535492
823.6056216
649.9974469
935.5358362
906.6988651
906.6996625
906.7464964
991.8483248
649.9999933
650
650
650
650
650
650
650
650
650
650
650
650
650
650
650
650
650
650
650
520
520
520
520
520
520
520
520
520
520
520
520
520
520
520
520
520
520
520
520
520
520
520
520
520
520.0000002
520.0000182
520.0021587
585.9562972
1065.51234
1099.919298
1099.921048
1099.950265
1099.988609
808.8073835
1066.874567
909.1043891
947.4870431
971.3063744
642.8282557
649.9999893
650
650
650
650
650
650
650
650
650
650
650
650
650
650
650
650
650
650
650
520
520
520
520
520
520
520
520
520
520
520
520
520
520
520
520
520
520
520
520
520
520
520
520
520
520.000002
520.0001867
520.0050343
552.9444771
979.6764712
1099.917678
1099.915634
1099.915904
1099.977597
1099.988857
840.3189859
1058.838
1059.478785
643.8050045
643.7989354
649.9999976
650
650
650
650
650
650
650
650
650
650
650
650
650
650
650
650
650
650
650
520
520
520
520
520
520
520
520
520
520
520
520
520
520
520
520
520
520
520
520
520
520
520
520
520
520.0000001
520.0000111
520.0011569
532.1860162
857.494355
1099.933278
1099.917777
1099.916162
1099.934569
1099.989295
1099.992089
799.1034722
1073.66781
915.6272876
643.7989354
649.9999981
650
650
650
650
650
650
650
650
650
650
650
650
650
650
650
650
650
650
650
520
520
520
520
520
520
520
520
520
520
520
520
520
520
520
520
520
520
520
520
520
520
520
520
520
520.0000001
520.0000093
520.0006514
520.0257629
692.1235744
1099.948351
1099.949956
1099.948476
1099.934753
1099.980797
1099.992257
969.2928852
1014.986878
859.1729082
662.1725674
649.9999973
650
650
650
650
650
650
650
650
650
650
650
650
650
650
650
650
650
650
650
520
520
520
520
520
520
520
520
520
520
520
520
520
520
520
520
520
520
520
520
520
520
520
520
520
520.0000001
520.0000069
520.0004113
520.0214961
572.4020252
988.0914238
1099.956153
1099.956213
1099.935774
1099.958984
1099.992483
1099.992689
1093.41992
904.9664087
717.0817311
649.868522
650
650
650
650
650
650
650
650
650
650
650
650
650
650
650
650
650
650
650
520
520
520
520
520
520
520
520
520
520
520
520
520
520
520
520
520
520
520
520
520
520
520
520
520
520
520.0000014
520.0000793
520.0038579
522.3508012
781.7487208
1099.954897
1099.956289
1099.956292
1099.95628
1099.963402
1099.993832
1099.995265
1099.996326
1022.316757
805.824018
649.9793695
650
650
650
650
650
650
650
650
650
650
650
650
650
650
650
650
650
650
520
520
520
520
520
520
520
520
520
520
520
520
520
520
520
520
520
520
520
520
520
520
520
520
520
520
520.0000003
520.0000184
520.0009285
520.0338601
590.104423
1030.301851
1099.956228
1099.956289
1099.956284
1099.943588
1099.943555
1099.991964
1099.996365
1099.996394
1099.960817
1035.270426
838.258739
649.9994563
650
650
650
650
650
650
650
650
650
650
650
650
650
650
650
650
520
520
520
520
520
520
520
520
520
520
520
520
520
520
520
520
520
520
520
520
520
520
520
520
520
520
520
520.0000016
520.0000902
520.0042844
520.2793864
768.4906314
1099.952441
1099.956257
1099.956281
1099.944823
1099.927846
1099.972486
1099.996394
1099.996394
1099.996394
1099.906773
1099.867773
1099.974588
955.0063127
720.552197
650
650
650
650
650
650
650
650
650
650
650
650
650
650
520
520
520
520
520
520
520
520
520
520
520
520
520
520
520
520
520
520
520
520
520
520
520
520
520
520
520
520.0000002
520.0000162
520.000876
520.0393356
568.8135769
975.3410081
1099.955715
1099.956254
1099.955147
1099.927877
1099.927848
1099.996205
1099.996394
1099.996394
1099.986495
1099.996115
1099.796402
1099.645931
1099.942804
1100
907.5660134
668.6457986
650
650
650
650
650
650
650
650
650
650
650
520
520
520
520
520
520
520
520
520
520
520
520
520
520
520
520
520
520
520
520
520
520
520
520
520
520
520
520
520.0000005
520.0000388
520.0023761
520.0625354
673.5719948
1099.909206
1099.955717
1099.955087
1099.954087
1099.927848
1099.942981
1099.991502
1099.996399
1099.996405
1099.996405
1099.691603
1098.793954
1099.218475
1099.966981
1100
1100
1100
879.7910508
650.0174621
650
650
650
650
650
650
650
650
520
520
520
520
520
520
520
520
520
520
520
520
520
520
520
520
520
520
520
520
520
520
520
520
520
520
520
520
520
520.0000006
520.0000567
520.0026389
520.5141387
805.9039811
1099.917366
1099.954748
1099.955113
1099.94772
1099.933537
1099.946711
1099.996397
1099.996405
1099.996405
1098.983773
1098.793626
1098.793625
1099.586359
1099.999999
1100
1100
1100
1100
1100
842.0385504
650
650
650
650
650
650
520
520
520
520
520
520
520
520
520
520
520
520
520
520
520
520
520
520
520
520
520
520
520
520
520
520
520
520
520
520
520.0000001
520.0000176
520.0013855
526.3193658
872.4321743
1099.927345
1099.981752
1099.988527
1099.98872
1099.988706
1099.996405
1099.996405
1099.373186
1098.793626
1098.793625
1098.793626
1099.784844
1099.999943
1100
1100
1100
1100
1100
1100
1100
1097.928382
783.3752716
650
650
650
520
520
520
520
520
520
520
520
520
520
520
520
520
520
520
520
520
520
520
520
520
520
520
520
520
520
520
520
520
520
520
520
520.0000047
520.0003977
520.0270211
826.7945607
1080.550465
1099.98399
1099.994497
1099.996207
1099.996396
1099.936098
1099.574956
1099.122799
1099.12951
1099.727913
1099.992857
1099.999981
1100
1100
1100
1100
1100
1100
1100
1100
1100
1100
1056.971502
709.66325
520
520
520
520
520
520
520
520
520
520
520
520
520
520
520
520
520
520
520
520
520
520
520
520
520
520
520
520
520
520
520
520
520
520.0000018
520.0001449
520.0093248
692.693823
1014.12656
1098.294518
1099.994497
1099.996159
1099.993898
1099.994115
1099.979896
1099.980053
1099.999998
1100
1100
1100
1100
1100
1100
1100
1100
1100
1100
1100
1100
1100
1100
520
520
520
520
520
520
520
520
520
520
520
520
520
520
520
520
520
520
520
520
520
520
520
520
520
520
520
520
520
520
520
520
520
520
520.0000001
520.0000051
520.0002909
560.3720078
816.4928594
1051.136672
1099.988132
1099.999039
1099.999922
1099.999949
1099.999998
1100
1100
1100
1100
1100
1100
1100
1100
1100
1100
1100
1100
1100
1100
1100
520
520
520
520
520
520
520
520
520
520
520
520
520
520
520
520
520
520
520
520
520
520
520
520
520
520
520
520
520
520
520
520
520
520
520
520
520
520.0000099
520.0006624
607.6689673
878.7925527
1066.745095
1099.999039
1099.999922
1099.999974
1100
1100
1100
1100
1100
1100
1100
1100
1100
1100
1100
1100
1100
1100
1100
520
520
520
520
520
520
520
520
520
520
520
520
520
520
520
520
520
520
520
520
520
520
520
520
520
520
520
520
520
520
520
520
520
520
520
520
520
520.0000001
520.0000005
520.0000189
520.0011507
653.7825
934.9561111
1078.183447
1099.998996
1099.999953
1100
1100
1100
1100
1100
1100
1100
1100
1100
1100
1100
1100
1100
1100
520
520
520
520
520
520
520
520
520
520
520
520
520
520
520
520
520
520
520
520
520
520
520
520
520
520
520
520
520
520
520
520
520
520
520
520.0000001
520.0000003
520.0000003
520.0000003
520.0000006
520.0000044
520.0000453
520.551241
691.1526667
940.0345746
1071.762886
1097.01476
1099.999981
1100
1100
1100
1099.999995
1100
1100
1100
1100
1100
1100
1100
1100
520
520
520
520
520
520
520
520
520
520
520
520
520
520
520
520
520
520
520
520
520
520
520
520
520
520
520
520
520
520
520
520
520
520
520
520
520.0000009
520.000002
520.000005
520.0000066
520.0000067
520.0000073
520.0000158
520.0001472
523.9488043
677.1687976
878.5295071
1055.465475
1088.818242
1100
1100
1100
1099.999999
1099.999934
1099.999997
1100
1100
1100
1099.999996
1099.999992
520
520
520
520
520
520
520
520
520
520
520
520
520
520
520
520
520
520
520
520
520
520
520
520
520
520
520
520
520
520
520
520
520
520
520
520
520
520
520.0000099
520.0000325
520.0000325
520.0000213
520.0000202
520.0000093
520.0001195
520.0000184
520.0000385
611.4696763
767.7515572
940.5027906
1037.129073
1084.513717
1099.999999
1099.999969
1099.999017
1100
1100
1100
1100
1099.99989
520
520
520
520
520
520
520
520
520
520
520
520
520
520
520
520
520
520
520
520
520
520
520
520
520
520
520
520
520
520
520
520
520
520
520
520
520
520
520
520
520.0000121
520.0000338
520.0000319
520.0000088
520.0000116
520.000018
520.0000137
520.0000064
520.0000108
520.0000331
618.9617139
740.387569
867.6187699
1023.621821
1032.167069
1069.539156
1098.621068
1100
1099.999585
1099.998145
520
520
520
520
520
520
520
520
520
520
520
520
520
520
520
520
520
520
520
520
520
520
520
520
520
520
520
520
520
520
520
520
520
520
520
520
520
520
520
520
520
520.0000033
520.0000029
520.0000004
520.0000108
520.0000471
520.0000541
520.0000038
520.0000085
520.0000108
520.0000331
520.0004287
521.3852896
621.7375244
752.8483563
829.5918674
907.9266485
1002.936002
1030.115761
1025.13693
520
520
520
520
520
520
520
520
520
520
520
520
520
520
520
520
520
520
520
520
520
520
520
520
520
520
520
520
520
520
520
520
520
520
520
520
520
520
520
520
520
520
520
520
520.0000012
520.0000063
520.0000066
520.0000022
520.0000119
520.0001005
520.0004981
520.0000002
520.0381514
520.5733973
522.0439662
520.0002397
534.0397514
567.0441331
613.1523106
693.661319
520
520
520
520
520
520
520
520
520
520
520
520
520
520
520
520
520
520
520
520
520
520
520
520
520
520
520
520
520
520
520
520
520
520
520
520
520
520
520
520
520
520
520
520
520
520
520
520
520.0000002
520.0000006
520
520
520.0000009
520.0001737
520.0017086
520.0000693
520.0015313
520.0387667
520.1872544
520.3742817
520
520
520
520
520
520
520
520
520
520
520
520
520
520
520
520
520
520
520
520
520
520
520
520
520
520
520
520
520
520
520
520
520
520
520
520
520
520
520
520
520
520
520
520
520
520
520
520
520
520
520
520
520
520.0000013
520.0000129
520.000068
520.0001867
520.0000232
520.0000475
520.0001091
520
520
520
520
520
520
520
520
520
520
520
520
520
520
520
520
520
520
520
520
520
520
520
520
520
520
520
520
520
520
520
520
520
520
520
520
520
520
520
520
520
520
520
520
520
520
520
520
520
520
520
520
520
520
520.0000001
520.0000019
520.000006
520.0000027
520.0000004
520.0000007
520
520
520
520
520
520
520
520
520
520
520
520
520
520
520
520
520
520
520
520
520
520
520
520
520
520
520
520
520
520
520
520
520
520
520
520
520
520
520
520
520
520
520
520
520
520
520
520
520
520
520
520
520
520
520
520
520
520
520
520
)
;

boundaryField
{
    lowerWall
    {
        type            calculated;
        value           nonuniform List<scalar> 0();
    }
    atmosphere
    {
        type            calculated;
        value           nonuniform List<scalar> 
60
(
520
520
520.0000001
520.0000001
520.0000001
520.0006488
520.0044997
520.0078943
520.0022093
520.0002826
520.000179
520.0039488
520.0080056
520.0080056
520.0014649
520.0000001
520.0002981
520.0004085
520.0003533
520.0000127
520.000018
520.0000007
520.0000009
520.0000006
520.0000002
520
520
520
520
520
520
520
520
520
520
520
520
520
520
520
520
520
520
520
520
520
520
520
520
520
520
520
520
520
520
520
520
520
520
520
)
;
    }
    rightWall
    {
        type            empty;
    }
    leftWall
    {
        type            empty;
    }
    frontAndBack
    {
        type            calculated;
        value           nonuniform List<scalar> 
60
(
520
520
520
520
520
520
520
520
520
520
520
520
520
520
520.0000001
520.0000001
520.0000002
520.0000003
520.0000005
520.0000006
520.0000001
520
520
520
520
520
520
520
520
520
520
520
520
520
520
520
520
520
520
520.0000003
649.9999998
650
650
650
650
650
650
650
650
650
650
650
650
650
650
650
650
650
650
650
)
;
    }
    procBoundary0to1
    {
        type            processor;
        value           nonuniform List<scalar> 
60
(
650
650
650
650
650
650
650
650
650
650
650
650
650
650
650
650
650
650
650
650
650
650
650
650
650
650
650
650
650
650
650
650
650
650
650
650
650
650
650
650
650
650
650
650
650
650
1100
1100
1100
1100
1100
1099.999991
1099.999237
1099.980408
1016.108324
750.9882043
521.2831171
520.000522
520.0000108
520.0000002
)
;
    }
    procBoundary0to2
    {
        type            processor;
        value           nonuniform List<scalar> 
60
(
520
520
520
520
520
520
520
520
520
520
520
520
520
520
520
520
520
520
520
520
520
520
520
520
520
520
520
520
520
520
520
520
520
520
520
520
520
520
520
520
520
520
520
520
520
520
520
520
520
520
520
520
520
520
520
520
520
520
520
520
)
;
    }
}


// ************************************************************************* //
