/*--------------------------------*- C++ -*----------------------------------*\
  =========                 |
  \\      /  F ield         | OpenFOAM: The Open Source CFD Toolbox
   \\    /   O peration     | Website:  https://openfoam.org
    \\  /    A nd           | Version:  10
     \\/     M anipulation  |
\*---------------------------------------------------------------------------*/
FoamFile
{
    format      ascii;
    class       volVectorField;
    location    "0.0005";
    object      gradT;
}
// * * * * * * * * * * * * * * * * * * * * * * * * * * * * * * * * * * * * * //

dimensions      [0 -1 0 1 0 0 0];

internalField   nonuniform List<vector> 
3600
(
(0 92017.01036 88120.61859)
(0 259216.4012 90919.46925)
(0 392767.8293 96002.85695)
(0 493417.2321 102625.2854)
(0 563457.4217 109824.8675)
(0 606566.8043 116920.4799)
(0 626360.4127 124475.0296)
(0 624151.5691 134208.3743)
(0 599000.9899 146542.3463)
(0 549903.2062 160793.781)
(0 476857.3122 176268.0092)
(0 380663.5182 192518.1936)
(0 262518.4785 209282.749)
(0 123755.4323 226380.4743)
(0 -34252.86561 243634.6742)
(0 -210080.7082 260826.3664)
(0 -402169.4917 277665.5976)
(0 -608715.9719 293782.8375)
(0 -827597.1192 308774.9497)
(0 -1056536.187 322424.2116)
(0 -1293987.598 335320.6079)
(0 -1541325.612 349662.3949)
(0 -1806175.557 369591.7659)
(0 -2097307.203 391469.8621)
(0 -2414911.301 408787.0415)
(0 -2751299.954 418971.4376)
(0 -3099150.457 424422.9809)
(0 -3455646.381 426898.4467)
(0 -3822117.388 428507.954)
(0 -4201974.647 429004.6526)
(0 -4597836.91 427609.224)
(0 -5010674.162 423316.5575)
(0 -5439201.277 414983.9207)
(0 -5879469.448 401575.2417)
(0 -6324703.204 382400.313)
(0 -6764937.713 356886.881)
(0 -7186706.263 324857.9219)
(0 -7573315.023 286728.0931)
(0 -7905359.807 243517.3801)
(0 -4031987.613 196795.8453)
(0 -52631.86175 196743.8409)
(0 -141381.5501 195112.2714)
(0 -229152.3799 191947.3042)
(0 -311858.4609 187383.899)
(0 -387896.9248 181603.7716)
(0 -456008.1965 174816.4922)
(0 -515303.0428 167241.2975)
(0 -565258.2376 159092.0498)
(0 -605688.247 150566.4247)
(0 -636701.3386 141839.3292)
(0 -658647.816 133059.9073)
(0 -672066.4773 124351.2285)
(0 -677633.5599 115811.7572)
(0 -676116.7612 107517.8411)
(0 -668335.6097 99526.64797)
(0 -655128.5297 91879.1603)
(0 -637326.3652 84602.99277)
(0 -615731.8028 77714.91031)
(0 -591103.9941 71223.00095)
(0 -564147.6455 65128.50603)
(0 94815.86102 261589.8395)
(0 267098.6396 270124.8527)
(0 404473.6454 285816.8188)
(0 507239.2427 306402.1236)
(0 577752.6163 328456.5184)
(0 621216.9663 348852.622)
(0 643648.3071 369397.5139)
(0 646218.8858 397924.7044)
(0 625586.3966 435396.7363)
(0 579628.8691 478598.9551)
(0 508581.7248 525183.684)
(0 413678.2581 573887.3784)
(0 296380.7592 624042.6538)
(0 158107.3575 675190.1966)
(0 193.0264662 726852.6818)
(0 -176049.7849 778406.1078)
(0 -369213.0206 828991.9956)
(0 -577606.6197 877456.2458)
(0 -798955.7451 922368.9549)
(0 -1029990.529 962363.3883)
(0 -1266749.415 997811.2536)
(0 -1507054.454 1035429.38)
(0 -1764368.089 1098663.724)
(0 -2058111.927 1170701.692)
(0 -2387409.726 1225146.011)
(0 -2735664.014 1253268.746)
(0 -3091223.448 1267472.615)
(0 -3451561.408 1272419.743)
(0 -3820011.183 1277222.209)
(0 -4202873.377 1279366.279)
(0 -4603525.005 1276210.301)
(0 -5023299.465 1264699.022)
(0 -5460942.593 1241206.935)
(0 -5912053.055 1202332.948)
(0 -6369391.565 1146241.027)
(0 -6822480.104 1071003.758)
(0 -7256865.051 975976.1746)
(0 -7654655.565 862484.5591)
(0 -7995292.055 733550.2313)
(0 -4078761.152 593679.9884)
(0 -54315.43562 593524.2246)
(0 -146178.0868 588555.4206)
(0 -236880.7523 578921.7817)
(0 -322201.9935 565044.415)
(0 -400464.3316 547487.5352)
(0 -470370.6707 526898.1326)
(0 -531027.4852 503948.9622)
(0 -581933.1104 479292.3596)
(0 -622940.9676 453527.8377)
(0 -654207.856 427183.0189)
(0 -676135.9166 400705.5755)
(0 -689314.6275 374463.2028)
(0 -694466.9473 348748.7853)
(0 -692401.8704 323788.4308)
(0 -683974.2905 299750.6642)
(0 -670052.1849 276755.6499)
(0 -651490.6152 254883.77)
(0 -629111.7946 234183.2289)
(0 -603690.3984 214676.5727)
(0 -575943.3107 196366.1539)
(0 100552.0236 424953.3508)
(0 283443.3805 439480.0568)
(0 429045.1002 467165.8699)
(0 536056.9317 504330.9575)
(0 605907.9201 543446.5314)
(0 647507.7998 574017.3372)
(0 675432.4951 598961.6795)
(0 690150.7915 644939.1915)
(0 679675.2405 710250.7557)
(0 639690.1539 784067.3859)
(0 572145.7355 862216.7699)
(0 479522.488 943171.8595)
(0 363821.2967 1026288.58)
(0 226565.4603 1111076.897)
(0 68963.0456 1196903.56)
(0 -107941.3944 1282841.156)
(0 -303119.3537 1367537.695)
(0 -515339.0126 1449040.068)
(0 -742689.9768 1524533.61)
(0 -981093.8881 1590034.555)
(0 -1220921.607 1640380.876)
(0 -1440473.142 1672934.146)
(0 -1670903.244 1734762.251)
(0 -1970824.916 1830187.574)
(0 -2332344.248 1948688.705)
(0 -2708973.349 2044303.002)
(0 -3079999.459 2087894.727)
(0 -3445896.787 2092186.716)
(0 -3815170.852 2101218.394)
(0 -4202986.555 2107619.256)
(0 -4612504.167 2106312.182)
(0 -5045677.528 2092289.48)
(0 -5501567.351 2058570.507)
(0 -5974435.355 1998088.047)
(0 -6456032.394 1909492.878)
(0 -6935202.565 1788361.744)
(0 -7395225.462 1632997.988)
(0 -7815740.967 1445915.086)
(0 -8174164.378 1232000.194)
(0 -4172013.62 998690.4655)
(0 -57756.4295 998430.4175)
(0 -155983.9929 989892.5022)
(0 -252663.3854 973357.8287)
(0 -343292.7074 949586.2895)
(0 -426043.2073 919585.5461)
(0 -499546.7695 884497.345)
(0 -562908.8157 845494.1243)
(0 -615679.3621 803698.8168)
(0 -657797.5877 760131.4424)
(0 -689523.6007 715680.0119)
(0 -711367.632 671090.4517)
(0 -724023.2675 626969.7236)
(0 -728308.3319 583797.0051)
(0 -725114.8824 541938.9543)
(0 -715368.3906 501666.2797)
(0 -699995.4239 463169.8568)
(0 -679898.7862 426575.4079)
(0 -655939.0001 391956.3126)
(0 -628921.0691 359344.4575)
(0 -599585.5813 328739.2399)
(0 109342.567 571414.37)
(0 309311.1586 591430.92)
(0 469324.5461 633229.9438)
(0 583519.9042 685695.599)
(0 647438.996 715870.7264)
(0 676732.1143 737305.8523)
(0 714570.1614 785395.1791)
(0 757507.9621 860603.4077)
(0 764714.5909 963783.2652)
(0 731594.8832 1071280.595)
(0 667686.1984 1181190.91)
(0 577750.068 1293643.637)
(0 464285.7963 1408813.966)
(0 328722.3377 1526504.638)
(0 171957.2858 1646092.356)
(0 -5415.649833 1766498.223)
(0 -203014.1081 1886086.46)
(0 -420610.7043 2002404.954)
(0 -657961.2581 2111589.061)
(0 -914143.2636 2207098.343)
(0 -1183849.824 2276332.974)
(0 -1412673.079 2293739.289)
(0 -1607114.662 2273520.352)
(0 -1844185.473 2315340.221)
(0 -2173294.298 2427379.485)
(0 -2596457.991 2566776.379)
(0 -3043339.733 2685625.119)
(0 -3438237.741 2746719.821)
(0 -3804578.643 2754557.844)
(0 -4197779.59 2764871.81)
(0 -4618854.781 2777429.34)
(0 -5071041.14 2796445.645)
(0 -5555144.026 2806378.779)
(0 -6061130.684 2774092.943)
(0 -6579117.869 2676680.451)
(0 -7098974.993 2516713.462)
(0 -7599311.709 2304444.612)
(0 -8055653.359 2045647.52)
(0 -8442516.675 1746341.446)
(0 -4312330.929 1417418.288)
(0 -63113.39893 1417051.231)
(0 -171250.6757 1404523.066)
(0 -277186.965 1380308.434)
(0 -375974.276 1345608.824)
(0 -465553.2761 1301990.567)
(0 -544462.0925 1251194.329)
(0 -611826.0134 1194972.316)
(0 -667295.7923 1134970.696)
(0 -710959.7724 1072658.037)
(0 -743248.8467 1009291.779)
(0 -764846.205 945912.1683)
(0 -776608.074 883353.714)
(0 -779497.7166 822266.3371)
(0 -774532.5958 763140.5907)
(0 -762743.388 706333.3186)
(0 -745143.0568 652091.6216)
(0 -722704.1594 600574.0738)
(0 -696342.745 551868.8374)
(0 -666907.4711 506008.743)
(0 -635172.836 462983.6273)
(0 120568.5736 694265.5224)
(0 345258.9543 715749.9814)
(0 523309.7792 756998.736)
(0 618697.7143 781921.7638)
(0 657518.1734 797537.6878)
(0 717032.2525 840962.7062)
(0 798730.0505 919330.0847)
(0 868538.8775 1043247.257)
(0 890352.428 1196625.914)
(0 857097.7989 1337910.547)
(0 794508.7777 1477451.11)
(0 707145.5435 1619257.118)
(0 596682.2973 1764768.409)
(0 463843.8503 1914130.727)
(0 308956.6304 2066760.277)
(0 132052.7095 2221548.975)
(0 -67212.62286 2376881.492)
(0 -289836.4112 2530486.496)
(0 -537996.5878 2678852.351)
(0 -816349.9753 2816266.014)
(0 -1134280.661 2933521.734)
(0 -1443285.763 3011536.637)
(0 -1649302.312 2976631.644)
(0 -1816965.783 2927330.646)
(0 -2080908.09 2914170.877)
(0 -2450727.715 2958327.987)
(0 -2900056.016 3053486.104)
(0 -3376964.062 3157986.077)
(0 -3797018.864 3183532.387)
(0 -4180115.059 3170100.442)
(0 -4580930.332 3146841.86)
(0 -5016728.089 3140012.218)
(0 -5523920.053 3164159.381)
(0 -6104133.683 3228184.128)
(0 -6713411.875 3292609.994)
(0 -7307438.404 3239895.068)
(0 -7866291.403 2998848.491)
(0 -8373844.133 2671274.063)
(0 -8802393.61 2285174.782)
(2.317189255e-24 -4501303.835 1855762.068)
(-2.317189255e-24 -70651.65131 1855282.127)
(0 -192726.79 1838089.564)
(0 -311577.6279 1804964.207)
(0 -421610.5741 1757731.993)
(0 -520457.7021 1698712.1)
(0 -606565.021 1630408.729)
(0 -679132.4486 1555271.169)
(0 -737993.6409 1475538.643)
(0 -783476.5047 1393159.367)
(0 -816269.4691 1309763.93)
(0 -837305.6973 1226673.549)
(0 -847669.0987 1144927.866)
(0 -848521.4553 1065321.615)
(0 -841047.9009 988443.3182)
(0 -826417.3597 914712.0459)
(0 -805754.6687 844410.2043)
(0 -780121.5704 777711.6087)
(0 -750504.3309 714704.8283)
(0 -717806.2792 655412.2121)
(0 -682844.0152 599805.1815)
(0 130827.026 788440.12)
(0 372044.3722 802702.3163)
(0 535496.3286 817369.1363)
(0 624058.8561 816749.1874)
(0 706479.9384 865840.9509)
(0 798524.5113 952591.4874)
(0 916854.7127 1064977.983)
(0 1034803.791 1252156.133)
(0 1059377.881 1423312.755)
(0 1012420.08 1584630.918)
(0 949032.7692 1746959.415)
(0 865067.3672 1914159.201)
(0 759159.4056 2087486.993)
(0 630714.2055 2266793.136)
(0 479375.5341 2451310.003)
(0 304705.5645 2639892.988)
(0 105923.4129 2831126.999)
(0 -118639.8451 3023459.841)
(0 -372181.7408 3214399.559)
(0 -659473.8804 3401408.991)
(0 -988579.2016 3584593.591)
(0 -1369563.168 3768438.328)
(0 -1691320.653 3906838.836)
(0 -1906646.241 3925068.188)
(0 -2142296.957 3874498.131)
(0 -2457142.764 3837666.374)
(0 -2843681.643 3829060.088)
(0 -3308191.458 3857667.494)
(0 -3792464.278 3881254.762)
(0 -4234470.116 3819613.956)
(0 -4648943.005 3678054.864)
(0 -5053723.619 3502894.309)
(0 -5466972.116 3356500.42)
(0 -5932680.071 3308453.657)
(0 -6567406.928 3386955.639)
(0 -7392736.496 3570987.528)
(0 -8167932.714 3638995.281)
(0 -8769327.068 3335480.416)
(0 -9258028.671 2860045.809)
(0 -4742223.584 2320168.412)
(0 -80785.90243 2319563.862)
(0 -221568.5958 2296659.71)
(0 -357544.5364 2252749.808)
(0 -482226.3826 2190607.659)
(0 -592876.5401 2113622.108)
(0 -687903.0234 2025305.104)
(0 -766696.0988 1928957.835)
(0 -829407.5946 1827489.92)
(0 -876734.4852 1723350.852)
(0 -909734.6639 1618531.249)
(0 -929682.2693 1514601.582)
(0 -937960.009 1412767.291)
(0 -935982.2645 1313927.689)
(0 -925142.1644 1218731.864)
(0 -906776.5019 1127628.288)
(0 -882143.494 1040907.011)
(0 -852409.5354 958734.4778)
(0 -818642.1416 881181.6519)
(0 -781807.1179 808246.3888)
(0 -742768.6336 739871.0515)
(0 134830.7698 860774.2391)
(0 374187.9705 871069.6703)
(0 537356.6503 880662.6528)
(0 667169.5289 922035.9357)
(0 793360.4734 1008843.396)
(0 916169.2844 1119997.514)
(0 1098294.696 1298728.476)
(0 1226873.65 1486867.462)
(0 1222827.214 1638216.315)
(0 1180744.459 1804825.014)
(0 1124037.06 1983034.03)
(0 1047673.121 2171728.822)
(0 949316.2323 2370318.344)
(0 827666.861 2577622.425)
(0 682056.4825 2792470.15)
(0 511869.7053 3013573.093)
(0 316354.2301 3239571.394)
(0 93436.14847 3469139.338)
(0 -160047.4379 3700432.738)
(0 -446155.9432 3933884.039)
(0 -767251.3241 4172179.012)
(0 -1121040.518 4422544.208)
(0 -1492672.452 4699028.255)
(0 -1849306.488 4909124.623)
(0 -2168309.904 5031871.556)
(0 -2496165.758 5100613.362)
(0 -2880054.897 5131159.947)
(0 -3324769.388 5129126.49)
(0 -3835072.402 5131910.815)
(0 -4383314.957 5079675.208)
(0 -4897649.98 4921061.564)
(0 -5338282.533 4640187.512)
(0 -5718360.705 4241740.416)
(0 -6073678.464 3785271.764)
(0 -6450878.004 3443863.35)
(0 -7055398.762 3429818.615)
(0 -8101798.516 3774298.246)
(0 -9152793.604 3945796.642)
(0 -9817705.613 3489379.276)
(0 -5041785.782 2818035.023)
(0 -94160.35344 2817281.774)
(0 -259540.8448 2787017.827)
(0 -417629.6792 2729462.358)
(0 -560738.2734 2648921.656)
(0 -685760.2571 2550365.81)
(0 -791229.2938 2438658.055)
(0 -876947.633 2318132.053)
(0 -943600.6241 2192429.437)
(0 -992435.1755 2064490.076)
(0 -1025018.739 1936616.466)
(0 -1043069.655 1810565.718)
(0 -1048342.992 1687644.994)
(0 -1042556.882 1568799.272)
(0 -1027347.302 1454687.203)
(0 -1004242.213 1345744.227)
(0 -974648.4794 1242233.717)
(0 -939846.9298 1144287.635)
(0 -900992.4199 1051938.361)
(0 -859116.8796 965143.3676)
(0 -815134.1014 883804.2008)
(0 141122.4572 929544.3296)
(0 391932.7859 951529.6523)
(0 586462.5939 996355.3637)
(0 752239.5992 1085195.448)
(0 904441.5162 1193389.753)
(0 1088409.591 1346077.072)
(0 1283724.662 1535171.558)
(0 1374291.63 1666215.583)
(0 1377335.432 1810934.41)
(0 1357237.795 1983896.347)
(0 1315936.577 2176501.361)
(0 1252351.681 2385016.285)
(0 1165053.008 2606999.547)
(0 1052866.011 2840406.134)
(0 915326.2018 3083787.365)
(0 751806.809 3335649.112)
(0 561489.6575 3594356.847)
(0 342221.4989 3857739.11)
(0 92562.9605 4125935.808)
(0 -187727.6068 4400070.663)
(0 -499919.0322 4680011.763)
(0 -842713.9249 4968701.543)
(0 -1204740.238 5264015.68)
(0 -1573802.94 5558645.809)
(0 -1950808.218 5822590.543)
(0 -2357854.373 6022162.474)
(0 -2815168.514 6164103.687)
(0 -3307440.591 6253147.081)
(0 -3841915.56 6300211.98)
(0 -4445319.367 6310121.713)
(0 -5088430.702 6259915.514)
(0 -5733044.767 6091192.32)
(0 -6321887.863 5751681.761)
(0 -6730557.138 5188696.296)
(0 -6922860.076 4413254.336)
(0 -7062301.6 3673807.494)
(0 -7651954.687 3513357.279)
(0 -9054246.038 4056270.564)
(0 -10385790.29 4139326.814)
(0 -5414321.086 3358335.119)
(0 -111803.0986 3357453.224)
(0 -309388.012 3317128.973)
(0 -495640.7075 3241449.916)
(0 -661322.9299 3137352.208)
(0 -803140.1412 3012199.087)
(0 -920136.7811 2872648.178)
(0 -1012924.717 2724228.169)
(0 -1083049.571 2571309.498)
(0 -1132547.456 2417240.06)
(0 -1163659.022 2264525.02)
(0 -1178653.742 2114999.062)
(0 -1179726.456 1969973.971)
(0 -1168940.056 1830359.009)
(0 -1148197.209 1696756.625)
(0 -1119229.988 1569537.367)
(0 -1083600.086 1448897.817)
(0 -1042704.891 1334904.934)
(0 -997786.4088 1227529.701)
(0 -949941.2782 1126672.478)
(0 -900130.9498 1032182.037)
(0 156816.0925 988362.3997)
(0 440999.0046 1020272.796)
(0 671022.4463 1088859.249)
(0 864203.9179 1197100.324)
(0 1054242.097 1333642.775)
(0 1257951.09 1499789.386)
(0 1418433.206 1642893.507)
(0 1502636.502 1767824.033)
(0 1540507.977 1926174.788)
(0 1546311.409 2112399.983)
(0 1525156.999 2320986.909)
(0 1478171.307 2548829.2)
(0 1404706.081 2792469.974)
(0 1304454.679 3050053.213)
(0 1177299.461 3320057.962)
(0 1022439.187 3600844.901)
(0 838444.2279 3890536.532)
(0 625015.1088 4186902.068)
(0 382284.1147 4490126.684)
(0 107920.0124 4799567.386)
(0 -198620.4443 5114107.148)
(0 -537036.6014 5432907.193)
(0 -902728.1859 5753622.984)
(0 -1290731.625 6062261.94)
(0 -1704793.238 6344523.778)
(0 -2154652.614 6587144.41)
(0 -2649070.289 6791519.379)
(0 -3188661.095 6958530.424)
(0 -3778097.77 7070318.221)
(0 -4423611.423 7131023.884)
(0 -5116579.372 7146782.189)
(0 -5846516.286 7095037.545)
(0 -6620856.729 6948810.598)
(0 -7412105.889 6633117.28)
(0 -7965766.806 6010836.589)
(0 -7955295.819 4982779.954)
(0 -7719335.445 3914117.431)
(0 -8526824.07 3842017.558)
(0 -10515641.06 4402198.354)
(0 -5823659.372 3953137.808)
(0 -135366.499 3951973.665)
(0 -375544.1524 3896851.468)
(0 -597406.4445 3795773.957)
(0 -789989.1019 3660391.996)
(0 -950464.287 3501677.106)
(0 -1079200.212 3328544.222)
(0 -1178286.313 3147746.662)
(0 -1250588.734 2964224.253)
(0 -1299219.653 2781520.986)
(0 -1327259.737 2602142.251)
(0 -1337620.705 2427829.19)
(0 -1332983.044 2259761.88)
(0 -1315774.228 2098708.666)
(0 -1288168.944 1945136.168)
(0 -1252101.021 1799290.578)
(0 -1209280.912 1661257.786)
(0 -1161215.045 1531007.736)
(0 -1109224.876 1408427.021)
(0 -1054464.544 1293342.736)
(0 -997936.7411 1185539.879)
(0 173032.8532 1010565.683)
(0 492429.6349 1042910.173)
(0 763290.1221 1113124.227)
(0 997023.1253 1222824.855)
(0 1207130.579 1365247.687)
(0 1397660.323 1515895.323)
(0 1551759.308 1654041.579)
(0 1657572.911 1807859.44)
(0 1721911.382 1986026.511)
(0 1752049.916 2188711.539)
(0 1752365.794 2414163.291)
(0 1723834.747 2659790.393)
(0 1666277.021 2923073.342)
(0 1580453.999 3202804.775)
(0 1466117.891 3497414.982)
(0 1322285.379 3805279.168)
(0 1147546.825 4124675.938)
(0 941811.6512 4454162.391)
(0 705228.2778 4791037.609)
(0 436252.857 5133517.949)
(0 133420.7756 5480988.88)
(0 -203198.0885 5830211.089)
(0 -575385.4913 6177846.852)
(0 -982902.1463 6512437.946)
(0 -1425925.748 6824899.216)
(0 -1910858.772 7106941.116)
(0 -2443782.5 7354054.105)
(0 -3028641.748 7561206.032)
(0 -3669422.1 7719525.757)
(0 -4368855.399 7824319.322)
(0 -5124417.041 7869944.834)
(0 -5931016.359 7843128.892)
(0 -6783808.128 7731416.464)
(0 -7668531.146 7536665.745)
(0 -8573197.402 7232450.321)
(0 -9159020.758 6581396.044)
(0 -8792717.084 5241082.726)
(0 -8566165.116 4144209.411)
(0 -10274670.04 4427388.557)
(0 -5864545.775 4619151.234)
(0 -168089.439 4617807.451)
(0 -465587.7201 4538898.551)
(0 -732100.1795 4400131.666)
(0 -955419.7811 4221816.236)
(0 -1134987.916 4020060.594)
(0 -1274067.225 3806212.203)
(0 -1377244.685 3587900.277)
(0 -1449275.248 3370174.528)
(0 -1494629.458 3156362.797)
(0 -1517350.817 2948645.817)
(0 -1521034.112 2748429.362)
(0 -1508846.98 2556586.553)
(0 -1483565.768 2373619.437)
(0 -1447615.297 2199769.707)
(0 -1403108.369 2035096.222)
(0 -1351882.928 1879529.97)
(0 -1295535.656 1732913.186)
(0 -1235451.409 1595027.148)
(0 -1172828.421 1465611.846)
(0 -1108699.628 1344379.825)
(0 189160.5833 986810.526)
(0 543557.549 1020465.359)
(0 850937.1283 1089902.386)
(0 1116327.378 1193009.443)
(0 1347312.565 1323142.988)
(0 1546744.982 1469958.603)
(0 1710397.324 1626759.963)
(0 1834621.433 1800330.658)
(0 1921360.077 1995533.069)
(0 1974448.19 2213673.012)
(0 1996235.852 2454321.627)
(0 1987081.358 2715516.599)
(0 1947720.464 2996567.479)
(0 1878796.319 3296330.277)
(0 1779773.854 3613324.884)
(0 1649700.144 3946045.386)
(0 1487327.451 4292950.001)
(0 1291376.78 4652598.731)
(0 1061639.672 5022081.523)
(0 797871.2833 5398465.092)
(0 498072.6955 5778898.144)
(0 159821.3703 6160178.761)
(0 -220501.3289 6536421.061)
(0 -643679.2616 6902903.898)
(0 -1110290.069 7251538.882)
(0 -1625497.724 7575102.56)
(0 -2194805.373 7867335.372)
(0 -2823189.443 8121393.025)
(0 -3514984.48 8329069.077)
(0 -4273192.346 8481774.633)
(0 -5097769.803 8569460.181)
(0 -5985044.656 8579294.257)
(0 -6927319.875 8498945.36)
(0 -7911072.032 8320310.955)
(0 -8921036.508 8034774.731)
(0 -9946663.414 7649258.79)
(0 -10156522.08 6880430.32)
(0 -9340518.239 5262367.583)
(0 -10040699.24 4733923.485)
(0 -5633240.477 5381752.714)
(0 -215619.1822 5381562.907)
(0 -593219.9379 5259765.417)
(0 -914488.7589 5061878.957)
(0 -1170060.174 4823354.505)
(0 -1366068.32 4566245.541)
(0 -1511360.529 4303401.397)
(0 -1614323.989 4042185.367)
(0 -1682126.213 3786830.605)
(0 -1720748.364 3539785.573)
(0 -1735193.173 3302454.372)
(0 -1729679.969 3075605.054)
(0 -1707792.969 2859602.428)
(0 -1672591.074 2654548.012)
(0 -1626692.159 2460368.962)
(0 -1572340.757 2276877.072)
(0 -1511463.948 2103808.898)
(0 -1445717.867 1940853.248)
(0 -1376526.216 1787669.902)
(0 -1305111.867 1643902.197)
(0 -1232522.673 1509185.323)
(0 206687.6865 921886.3016)
(0 595521.4948 957302.8808)
(0 935834.2056 1026891.302)
(0 1230263.727 1127214.656)
(0 1484079.739 1252815.572)
(0 1701277.299 1399521.975)
(0 1882131.363 1564708.626)
(0 2026346.017 1749946.177)
(0 2135253.737 1957310.182)
(0 2210838.474 2187694.916)
(0 2254209.381 2440655.342)
(0 2266080.599 2715658.193)
(0 2247090.7 3012436.454)
(0 2197211.403 3329906.878)
(0 2115832.999 3666843.234)
(0 2001910.496 4021874.1)
(0 1854100.17 4393460.941)
(0 1670943.174 4779864.279)
(0 1451094.639 5178966.175)
(0 1193069.478 5587222.17)
(0 895134.4441 6000542.84)
(0 554324.8279 6414883.22)
(0 167339.6459 6825602.013)
(0 -267784.3248 7229094.337)
(0 -753727.0855 7618436.28)
(0 -1295062.282 7986997.808)
(0 -1897492.035 8328225.293)
(0 -2566908.043 8634757.888)
(0 -3309040.492 8897704.403)
(0 -4128464.295 9105848.555)
(0 -5026897.417 9245562.343)
(0 -6001531.18 9301512.306)
(0 -7042791.431 9258335.495)
(0 -8132701.775 9103716.62)
(0 -9244249.567 8831010.259)
(0 -10313365.17 8446382.015)
(0 -11179608.29 8009011.703)
(0 -10712671.95 6847389.361)
(0 -10155284.91 5457507.677)
(0 -5216906.353 6298165.971)
(0 -290076.7362 6290223.912)
(0 -785271.6701 6078669.925)
(0 -1168511.091 5784430.51)
(0 -1451053.197 5461846.123)
(0 -1654941.023 5135054.617)
(0 -1798127.399 4814845.066)
(0 -1893815.477 4505956.134)
(0 -1951675.042 4210359.35)
(0 -1979005.691 3928753.784)
(0 -1981531.336 3661241.766)
(0 -1963886.057 3407633.536)
(0 -1929904.022 3167588.287)
(0 -1882799.233 2940684.315)
(0 -1825286.237 2726457.713)
(0 -1759668.433 2524425.79)
(0 -1687906.752 2334101.924)
(0 -1611674.653 2155004.9)
(0 -1532402.46 1986664.412)
(0 -1451312.999 1828623.877)
(0 -1369450.128 1680441.42)
(0 224577.1625 826138.2459)
(0 648562.55 862749.5301)
(0 1020848.903 932280.1031)
(0 1342251.648 1029319.454)
(0 1619619.884 1151860.161)
(0 1858638.036 1298163.966)
(0 2060821.526 1466973.383)
(0 2227222.989 1658520.242)
(0 2359108.815 1873589.309)
(0 2457793.35 2112527.485)
(0 2524199.13 2375285.401)
(0 2558862.47 2661857.227)
(0 2561969.148 2971822.979)
(0 2533203.099 3304447.463)
(0 2471741.076 3658756.55)
(0 2376317.851 4033538.96)
(0 2245317.631 4427308.113)
(0 2076882.014 4838226.301)
(0 1868997.563 5263956.447)
(0 1619447.948 5701424.508)
(0 1325733.746 6146957.068)
(0 984880.544 6596165.525)
(0 593709.7874 7045067.963)
(0 149155.0053 7489155.63)
(0 -352386.5975 7922808.336)
(0 -915708.7121 8339977.117)
(0 -1547045.293 8734410.525)
(0 -2253710.332 9098932.998)
(0 -3043893.812 9423647.631)
(0 -3925334.407 9695637.241)
(0 -4902106.052 9897863.273)
(0 -5972271.503 10010469.14)
(0 -7125115.561 10013384.79)
(0 -8338397.267 9888968.789)
(0 -9578371.113 9624662.235)
(0 -10768661.97 9211357.646)
(0 -11755514.73 8623403.904)
(0 -11892022.27 7795025.792)
(0 -10589922.63 5584193.516)
(0 -4800524.243 8024375.854)
(0 -435115.2283 7433376.896)
(0 -1099013.34 7004904.599)
(0 -1531312.561 6557471.146)
(0 -1819436.066 6124336.862)
(0 -2013069.377 5715130.19)
(0 -2140459.012 5331467.705)
(0 -2218809.704 4972200.949)
(0 -2259328.564 4635431.294)
(0 -2269865.948 4319266.962)
(0 -2256313.421 4022049.238)
(0 -2223333.449 3742372.736)
(0 -2174742.19 3479044.047)
(0 -2113721.647 3231034.288)
(0 -2042950.685 2997441.376)
(0 -1964696.547 2777463.052)
(0 -1880884.838 2570377.816)
(0 -1793155.379 2375530.956)
(0 -1702907.24 2192323.679)
(0 -1611334.86 2020204.212)
(0 -1519456.836 1858660.261)
(0 243298.9707 710614.5256)
(0 701663.352 746087.2001)
(0 1102404.13 810337.3427)
(0 1449843.785 901583.1306)
(0 1752924.25 1020282.607)
(0 2016390.521 1164776.162)
(0 2242487.639 1334132.46)
(0 2432961.942 1528217.038)
(0 2589260.98 1747328.73)
(0 2712534.566 1991745.99)
(0 2803539.123 2261578.139)
(0 2862618.177 2556819.809)
(0 2889680.935 2877238.998)
(0 2884144.974 3222355.745)
(0 2844924.497 3591436.39)
(0 2770462.059 3983465.974)
(0 2658787.511 4397096.235)
(0 2507591.507 4830570.021)
(0 2314292.845 5281624.259)
(0 2076070.099 5747402.341)
(0 1789875.462 6224485.132)
(0 1452435.722 6708967.396)
(0 1060329.751 7196756.839)
(0 609956.0486 7683419.219)
(0 97094.40093 8164034.166)
(0 -483460.0928 8633228.921)
(0 -1138536.154 9085086.738)
(0 -1877670.937 9512512.979)
(0 -2712336.249 9905240.35)
(0 -3654248.653 10248948.83)
(0 -4712065.521 10524025.4)
(0 -5886009.661 10705745.48)
(0 -7164291.778 10768449.77)
(0 -8521424.332 10690176.4)
(0 -9921860.711 10453503.8)
(0 -11314623.5 10039314.94)
(0 -12595940.14 9387747.584)
(0 -13751882.34 8380189.458)
(0 -9925934.846 5974441.599)
(0 -3367722.972 10602712.85)
(0 -1309547.991 8739276.349)
(0 -1661177.421 7975475.633)
(0 -2049078.828 7338724.692)
(0 -2293394.154 6783103.271)
(0 -2447810.18 6287861.859)
(0 -2541056.639 5840418.194)
(0 -2589851.888 5431845.136)
(0 -2604609.029 5055547.375)
(0 -2592387.747 4706644.799)
(0 -2558425.562 4381518.198)
(0 -2506891.248 4077446.839)
(0 -2441242.47 3792337.706)
(0 -2364401.904 3524536.348)
(0 -2278857.473 3272699.814)
(0 -2186731.994 3035712.131)
(0 -2089838.847 2812627.327)
(0 -1989728.789 2602629.849)
(0 -1887729.205 2405006.03)
(0 -1784976.417 2219122.764)
(0 -1682441.808 2044411.036)
(0 260049.837 571086.1497)
(0 748285.3671 601397.2195)
(0 1176344.834 658758.5967)
(0 1552196.912 744839.4809)
(0 1882812.915 859204.7951)
(0 2172487.889 1000519.676)
(0 2424262.401 1168106.663)
(0 2640419.26 1361863.646)
(0 2822637.768 1582074.669)
(0 2972042.758 1829089.685)
(0 3089272.949 2103103.89)
(0 3174523.33 2404212.862)
(0 3227505.083 2732375.024)
(0 3247400.491 3087352.377)
(0 3232851.306 3468662.512)
(0 3181977.696 3875527.332)
(0 3092421.678 4306811.248)
(0 2961410.038 4760949.45)
(0 2785829.883 5235875.352)
(0 2562308.821 5728971.511)
(0 2287298.802 6237083.037)
(0 1957152.251 6756594.405)
(0 1568161.61 7283578.54)
(0 1116432.332 7813864.728)
(0 597423.1048 8343085.6)
(0 5343.860295 8866665.999)
(0 -667761.2355 9379213.075)
(0 -1433556.721 9873617.859)
(0 -2307457.961 10339844.69)
(0 -3306549.36 10762270.64)
(0 -4445309.407 11118574.79)
(0 -5727847.13 11380483.84)
(0 -7140684.638 11519403.75)
(0 -8653343.236 11515835.57)
(0 -10229232.57 11358987.44)
(0 -11834418.19 11027749.81)
(0 -13414640.22 10475331.34)
(0 -15305328.25 9852628.529)
(0 -8367399.231 11947467.56)
(0 -2035689.493 11570839.75)
(0 -3062352.447 9810727.521)
(0 -2499564.997 8839482.312)
(0 -2723684.923 8058306.675)
(0 -2870298.898 7400152.034)
(0 -2955754.454 6830248.632)
(0 -2996475.735 6326806.046)
(0 -3003680.522 5874839.511)
(0 -2984528.901 5463754.198)
(0 -2943895.125 5086017.226)
(0 -2885511.38 4736237.461)
(0 -2812513.941 4410498.928)
(0 -2727652.681 4105893.239)
(0 -2633359.539 3820203.847)
(0 -2531774.902 3551697.265)
(0 -2424769.033 3298985.198)
(0 -2313967.12 3060932.106)
(0 -2200776.676 2836591.605)
(0 -2086414.324 2625161.376)
(0 -1971929.854 2425950.195)
(0 -1858226.675 2238353.16)
(0 273610.0405 399327.0817)
(0 789335.799 425671.2523)
(0 1245846.391 479397.0141)
(0 1650289.983 561301.802)
(0 2008604.446 670989.2153)
(0 2325292.39 807928.4465)
(0 2603831.609 971787.0313)
(0 2846929.948 1162786.96)
(0 3056487.02 1381547.925)
(0 3233563.788 1628596.965)
(0 3378662.299 1904199.371)
(0 3491889.31 2208581.899)
(0 3572820.45 2541934.196)
(0 3620432.463 2904285.386)
(0 3633099.452 3295430.825)
(0 3608610.795 3714868.203)
(0 3544209.629 4161730.782)
(0 3436655.612 4634717.389)
(0 3282314.907 5132027.736)
(0 3077277.784 5651320.185)
(0 2817498.355 6189714.334)
(0 2498931.225 6743852.474)
(0 2117600.074 7310025.541)
(0 1669463.109 7884329.895)
(0 1149895.672 8462831.242)
(0 552667.3819 9041609.527)
(0 -131584.2935 9616167.435)
(0 -917039.3179 10180094.46)
(0 -1823683.472 10723208.37)
(0 -2875518.56 11228376.34)
(0 -4093852.315 11669514.02)
(0 -5485180.698 12013858.67)
(0 -7028940.055 12233816.92)
(0 -8681840.64 12327525.06)
(0 -10409946.47 12320653.51)
(0 -12198279.6 12182571.05)
(0 -13771061.43 11590417.51)
(0 -12279746.12 9191776.16)
(0 -8207723.628 17212092.97)
(0 -5504463.013 11713167.93)
(0 -4040905.427 10533165.48)
(0 -3413598.267 9521271.024)
(0 -3488409.106 8667168.852)
(0 -3521452.196 7943724.976)
(0 -3521156.169 7321500.53)
(0 -3496465.76 6776791.211)
(0 -3452903.736 6291810.538)
(0 -3393431.314 5853618.258)
(0 -3319904.484 5452943.213)
(0 -3233943.86 5083157.918)
(0 -3137235.47 4739480.381)
(0 -3031537.55 4418399.207)
(0 -2918597.878 4117279.584)
(0 -2800076.122 3834099.609)
(0 -2677497.153 3567274.338)
(0 -2552232.441 3315536.883)
(0 -2425499.519 3077856.318)
(0 -2298370.615 2853379.536)
(0 -2171784.633 2641388.995)
(0 -2046559.373 2441271.224)
(0 286394.0075 202086.7472)
(0 828355.2995 226797.8256)
(0 1311975.383 277457.5954)
(0 1743789.113 354728.1729)
(0 2129439.56 459034.1524)
(0 2473285.705 590314.9831)
(0 2779120.915 748706.2842)
(0 3050180.153 934966.5648)
(0 3288447.774 1150076.428)
(0 3494694.204 1394925.587)
(0 3669257.882 1669869.249)
(0 3812258.154 1975198.662)
(0 3923208.571 2311426.928)
(0 4000897.12 2678896.506)
(0 4043434.123 3077711.572)
(0 4048277.653 3507677.898)
(0 4012270.864 3968237.649)
(0 3931706.992 4458401.265)
(0 3802432.679 4976684.394)
(0 3619995.418 5521062.043)
(0 3379831.09 6088955.441)
(0 3077463.458 6677268.326)
(0 2708639.032 7282491.984)
(0 2269238.033 7900894.922)
(0 1754702.736 8528788.269)
(0 1158680.053 9162706.478)
(0 470723.7008 9799036.76)
(0 -326515.7896 10432414.81)
(0 -1259176.083 11052564.29)
(0 -2360243.707 11639748.96)
(0 -3659827.074 12160812.92)
(0 -5163544.227 12571937.46)
(0 -6827018.256 12840832.76)
(0 -8566506.647 13001040.89)
(0 -10374186.58 13189678.02)
(0 -12564654.19 13522430.39)
(0 -16405435.1 13829562.94)
(0 -9683652.783 14113036.33)
(0 -5846007.463 14924453.48)
(0 -8714616.981 12608870.47)
(0 -5254249.351 11102187.97)
(0 -4365561.63 10037360.2)
(0 -4301230.971 9148517.619)
(0 -4215967.22 8395403.681)
(0 -4122688.22 7747268.054)
(0 -4026165.727 7180087.398)
(0 -3926853.475 6675569.898)
(0 -3823396.226 6220165.675)
(0 -3714355.464 5804017.741)
(0 -3598974.213 5419999.286)
(0 -3477272.652 5062932.987)
(0 -3349853.477 4729010.665)
(0 -3217659.138 4415384.548)
(0 -3081780.149 4119886.938)
(0 -2943331.759 3840838.977)
(0 -2803385.14 3576919.086)
(0 -2662934.023 3327070.914)
(0 -2522881.647 3090437.614)
(0 -2384038.166 2866313.869)
(0 -2247122.849 2654110.098)
(0 298321.1189 -11788.55781)
(0 864706.6472 10819.88883)
(0 1373776.739 57419.38634)
(0 1831866.54 129175.959)
(0 2244191.256 227020.1873)
(0 2614964.521 351321.7667)
(0 2948483.19 503055.623)
(0 3248300.091 683385.13)
(0 3516446.042 893004.7813)
(0 3753356.609 1133436.757)