/*--------------------------------*- C++ -*----------------------------------*\
  =========                 |
  \\      /  F ield         | OpenFOAM: The Open Source CFD Toolbox
   \\    /   O peration     | Website:  https://openfoam.org
    \\  /    A nd           | Version:  10
     \\/     M anipulation  |
\*---------------------------------------------------------------------------*/
FoamFile
{
    format      ascii;
    class       volScalarField;
    location    "0.0005";
    object      kappa;
}
// * * * * * * * * * * * * * * * * * * * * * * * * * * * * * * * * * * * * * //

dimensions      [1 1 -3 -1 0 0 0];

internalField   nonuniform List<scalar> 
3600
(
0.016
0.016
0.016
0.016
0.016
0.016
0.016
0.016
0.01600000001
0.01600000012
0.01600000047
0.01600000112
0.01600000195
0.01600000309
0.01600000492
0.01600000754
0.01600001191
0.01600002158
0.01600003583
0.01600004202
0.01600000471
0.0160000003
0.01600000027
0.01600000025
0.01600000015
0.01600000008
0.01600000005
0.01600000003
0.01600000001
0.01600000001
0.016
0.016
0.016
0.016
0.016
0.016
0.016
0.016
0.016
0.01600002237
29.99999995
30
30
30
30
30
30
30
30
30
30
30
30
30
30
30
30
30
30
30
0.0160000002
0.01600000026
0.01600000007
0.01600000001
0.016
0.01600000004
0.01600000047
0.01600000301
0.01600000993
0.01600001767
0.01600002667
0.01600003549
0.0160000399
0.01600004084
0.01600003874
0.01600002962
0.01600001885
0.0160000115
0.01600033899
0.01600191495
0.01600258056
0.01600190557
0.01600001955
0.01600000027
0.01600000017
0.01600000008
0.01600000005
0.0160000001
0.01600000004
0.01600000002
0.016
0.016
0.016
0.016
0.016
0.016
0.016
0.016
0.016
0.01600001751
29.99999996
30
30
30
30
30
30
30
30
30
30
30
30
30
30
30
30
30
30
30
0.01600000617
0.01600001117
0.01600001254
0.01600001279
0.01600001052
0.0160000072
0.01600003648
0.0160001116
0.01600013767
0.01600014899
0.01600011176
0.01600007809
0.01600007247
0.0160000711
0.01600004603
0.01600001756
0.01600000812
0.0160000062
0.01600000622
0.01600032088
0.01602150308
0.01603965811
0.01603888046
0.0160400377
0.01602024334
0.01600000097
0.0160000004
0.01600000304
0.01600000012
0.01600000009
0.01600000006
0.01600000002
0.01600000001
0.016
0.016
0.016
0.016
0.016
0.016
0.01600001514
29.99999995
30
30
30
30
30
30
30
30
30
30
30
30
30
30
30
30
30
30
30
0.0160000084
0.01600000864
0.01600071569
0.01601264103
0.01604966686
0.01607823651
0.01601960217
0.01600066318
0.01600000718
0.01600015399
0.01600016144
0.01600008381
0.01600002138
0.01600003066
0.01600002185
0.01600000858
0.01600000639
0.01600000617
0.01600000617
0.01600000622
0.01600001029
0.01605289602
0.01803092087
0.01956305252
0.01872417785
0.01686732829
0.01618129353
0.0160014224
0.0160226696
0.0160185085
0.01600900849
0.0160000147
0.01600000822
0.01600000204
0.0160000001
0.01600000001
0.016
0.016
0.016
0.01600001297
29.99999995
30
30
30
30
30
30
30
30
30
30
30
30
30
30
30
30
30
30
30
0.01600000862
0.01600005293
0.01601084807
0.01661410526
0.01957534347
0.02082836362
0.01681746637
0.01600000718
0.01600000718
0.01600000718
0.0160000096
0.01600001321
0.01600001427
0.01600001083
0.0160000072
0.01600000625
0.01600000612
0.01600000612
0.01600000613
0.0160000063
0.01600002492
0.01615502544
0.0195466637
0.02072343496
0.02072422775
0.02072702488
0.02022888332
0.01852839754
0.01896088875
0.01902508295
0.01885278521
0.01824430961
0.01728897075
0.01633793533
0.01601138477
0.01600000215
0.01600000001
0.016
0.016
0.01600000997
29.99999995
30
30
30
30
30
30
30
30
30
30
30
30
30
30
30
30
30
30
30
0.01604472852
0.01600032996
0.0175839437
0.02132004713
0.02132006921
0.02132003394
0.02081659356
0.01600000718
0.01600000718
0.01600000718
0.01600000719
0.01600000942
0.01600001279
0.01600000985
0.0160000065
0.01600000587
0.0160000062
0.0160000094
0.01600001442
0.01600002549
0.01600006211
0.01600000952
0.01600000174
0.01741631686
0.01965689389
0.02072758933
0.02093407967
0.02094240061
0.02095123619
0.02096040022
0.0209674211
0.02096996727
0.02096984779
0.02061884841
0.01868090444
0.01645828204
0.01600000328
0.016
0.016
0.01600000749
29.99999994
30
30
30
30
30
30
30
30
30
30
30
30
30
30
30
30
30
30
30
0.01631019939
0.01602112727
0.01784899976
0.02132005461
0.02132003394
0.0213184285
0.01792973336
0.01600000735
0.01600000718
0.01600000942
0.01600002732
0.01600004818
0.01600003931
0.01600001273
0.01600000403
0.01600000344
0.01600000432
0.01600257592
0.01601429377
0.01601862656
0.01600637942
0.01600000174
0.01600000149
0.01600000143
0.01600000144
0.01600000146
0.01616866308
0.01675910745
0.01689048341
0.0168816356
0.01756354759
0.01906474285
0.02050787002
0.02110198568
0.02110198568
0.02078576981
0.01691343518
0.01600000001
0.016
0.01600000339
29.99999993
30
30
30
30
30
30
30
30
30
30
30
30
30
30
30
30
30
30
30
0.01654421893
0.01612205188
0.01600000194
0.01665584048
0.01862174694
0.0185924429
0.01607518429
0.01600000743
0.01600282009
0.01600779265
0.0160066966
0.01600084145
0.01600000013
0.01600000013
0.01600000013
0.0160000002
0.01600002564
0.01602536234
0.01605806607
0.01605808245
0.0160546348
0.01600528932
0.01600012992
0.01600000143
0.01600000143
0.01600000144
0.01600000146
0.01600000151
0.01600000156
0.01600000161
0.01600000165
0.01600000174
0.01600000438
0.01737598957
0.02014609337
0.02161556062
0.02161449324
0.0171750539
0.016
0.016
29.99999991
30
30
30
30
30
30
30
30
30
30
30
30
30
30
30
30
30
30
30
0.0161523072
0.01600000193
0.01600000194
0.01600000194
0.01600000196
0.01600000197
0.01600000228
0.01600371324
0.01602189754
0.01602254825
0.01602213558
0.01600157026
0.01600000013
0.01600000013
0.01600000013
0.0160000002
0.01600074398
0.01603851583
0.01605808245
0.01605808245
0.01605808245
0.01605665811
0.01600267104
0.01600000143
0.01600000314
0.01600001244
0.01600001681
0.01600001734
0.01600001625
0.01600001162
0.01600000765
0.01600000687
0.01600000688
0.01600000692
0.0160000114
0.01862005692
0.0229768131
0.0229808078
0.016
0.016
29.99999988
30
30
30
30
30
30
30
30
30
30
30
30
30
30
30
30
30
30
30
0.01601947918
0.01600000193
0.01600002316
0.01600002302
0.01600000679
0.01600000261
0.01600035029
0.01601556003
0.01602254431
0.01602255121
0.01601484835
0.01600000013
0.01600000013
0.01600000013
0.01600000015
0.01600000015
0.01600000019
0.01600023921
0.01602969768
0.01605808245
0.01605807334
0.01604077055
0.01600000051
0.01600000148
0.01600000807
0.01600001772
0.01600002074
0.01600002028
0.01600002039
0.01600001661
0.01600001051
0.01600000801
0.01600000695
0.01600000696
0.01600000698
0.01600001142
0.01825326296
0.0231738548
0.01917548596
0.016
29.99999983
30
30
30
30
30
30
30
30
30
30
30
30
30
30
30
30
30
30
30
0.0160123431
0.01600000128
0.01600001725
0.01600001833
0.01600000708
0.01600000702
0.01600000726
0.01600226301
0.01601299954
0.01601339498
0.01600000013
0.01600000013
0.01600000013
0.01600000023
0.01600000029
0.01600000029
0.01600000025
0.01600000015
0.01600000014
0.01600177828
0.01600898738
0.01600156693
0.01600000047
0.01600000817
0.01600002052
0.01600001773
0.01600002013
0.0160000143
0.01600001153
0.01600001142
0.01600001048
0.01600000889
0.01600000827
0.01600000787
0.01600000786
0.01600000789
0.01600002279
0.02257503151
0.02377455966
0.016
29.99999975
30
30
30
30
30
30
30
30
30
30
30
30
30
30
30
30
30
30
30
0.01627222135
0.01600000051
0.01600000051
0.01600000128
0.01600000909
0.01600001716
0.01600001559
0.01600000016
0.01600000016
0.01600000016
0.01600000016
0.01600000017
0.01600000028
0.01600000036
0.01600000038
0.01600000035
0.01600000026
0.01600000017
0.01600000014
0.01600000014
0.01600000014
0.01600000014
0.01600000045
0.01600000526
0.0160000334
0.01600050517
0.01600167279
0.01600199277
0.01600039945
0.01600000865
0.01600000852
0.01600000852
0.01600000839
0.01600000789
0.01600000789
0.01600004132
0.0161292206
0.01655326181
0.02377455966
0.016
29.99999945
30
30
30
30
30
30
30
30
30
30
30
30
30
30
30
30
30
30
30
0.01655188846
0.01624335497
0.01600000051
0.01600000091
0.01600000185
0.01600000174
0.01600000073
0.01600000033
0.01600000034
0.01600000041
0.0160000005
0.01600000055
0.01600000054
0.01600000048
0.01600000043
0.01600000037
0.01600000029
0.01600000021
0.01600000017
0.01600000014
0.01600000014
0.01600000014
0.01600000019
0.01600000025
0.01600000215
0.01600195713
0.01600495566
0.01600496123
0.01600411246
0.01600118667
0.01600002526
0.01600000801
0.01600000814
0.0160000079
0.01600000791
0.01600004176
0.01616170185
0.01636674459
0.0188636395
0.01600660058
29.99999882
30
30
30
30
30
30
30
30
30
30
30
30
30
30
30
30
30
30
30
0.01655188846
0.01614080555
0.01600000051
0.01600000417
0.01600000709
0.01600000457
0.01600000126
0.01600000085
0.01600000104
0.0160000013
0.01600000134
0.01600000132
0.01600000111
0.01600000082
0.0160000006
0.01600000041
0.01600000026
0.01600000017
0.01600000013
0.01600000012
0.01600000014
0.0160000002
0.01600000024
0.01600000024
0.01600000034
0.01600171703
0.01600496123
0.0160049665
0.0160049665
0.0160049665
0.01600171587
0.016000008
0.01600000798
0.01600000798
0.01600000796
0.01600000884
0.01607475062
0.01633176994
0.0163243935
0.07438447042
29.99999896
30
30
30
30
30
30
30
30
30
30
30
30
30
30
30
30
30
30
30
0.01610098933
0.01600607723
0.01600000053
0.01600001507
0.01600002124
0.01600001077
0.01600000218
0.0160000011
0.01600000134
0.01600000171
0.01600000175
0.01600000175
0.01600000163
0.01600000135
0.01600000097
0.01600000063
0.01600000034
0.01600000015
0.01600000007
0.01600000005
0.01600000005
0.01600000013
0.0160000003
0.01600000045
0.01600000045
0.01600000047
0.01600074021
0.0160033814
0.01600495747
0.01600495517
0.01600310421
0.01600000802
0.01600000949
0.01600000821
0.0160000082
0.01600000823
0.0160024604
0.01609481906
0.0161060631
2.965951579
29.99999987
30
30
30
30
30
30
30
30
30
30
30
30
30
30
30
30
30
30
30
0.01600000937
0.01600000937
0.01600001625
0.01600002547
0.01600002501
0.01600001571
0.01600000423
0.01600000112
0.01600000134
0.01600000143
0.01600000163
0.01600000172
0.01600000172
0.01600000165
0.01600000123
0.01600000076
0.0160000004
0.01600000017
0.01600000006
0.01600000002
0.01600000002
0.01600000004
0.01600000026
0.01600000078
0.01600000122
0.01600000122
0.01600000123
0.01600000124
0.01600033784
0.01600110488
0.01600018893
0.01600022315
0.01600004689
0.01600001046
0.01600000823
0.01600000824
0.01600001078
0.01600427044
0.01869118942
11.35807622
29.99999994
30
30
30
30
30
30
30
30
30
30
30
30
30
30
30
30
30
30
30
0.01602055048
0.01600000937
0.01600000977
0.01600001399
0.01600004767
0.01600174232
0.01600499761
0.01600406624
0.01600022898
0.01600000036
0.01600000069
0.01600000134
0.0160000016
0.01600000163
0.01600000135
0.01600000078
0.01600000038
0.01600000015
0.01600000005
0.01600000001
0.01600000001
0.01600000001
0.0160000001
0.01600000062
0.01600000183
0.01600000362
0.0160000047
0.01600000478
0.01600000479
0.01600000482
0.01600000486
0.01600005077
0.01600009489
0.01600001704
0.01600000824
0.0160000087
0.01600002847
0.01600304234
4.130758684
12.6487312
29.99999955
30
30
30
30
30
30
30
30
30
30
30
30
30
30
30
30
30
30
30
0.01602816123
0.01600181415
0.01600000983
0.01600002495
0.01600075343
0.01601382988
0.01601984601
0.01601984554
0.01600659565
0.01600000034
0.01600000034
0.0160000009
0.01600000151
0.01600000163
0.0160000014
0.01600000068
0.01600000023
0.01600000007
0.01600000002
0.01600000001
0.016
0.016
0.01600000002
0.01600000021
0.01600000143
0.01600000582
0.01600001151
0.01600001226
0.01600001505
0.01600001504
0.01600001828
0.01600001914
0.01600006158
0.01600001705
0.01600000867
0.01600004595
0.01600248345
0.01625669588
15.19022039
15.54222448
29.99999956
30
30
30
30
30
30
30
30
30
30
30
30
30
30
30
30
30
30
30
0.01602435502
0.01600002022
0.01600001962
0.01600006337
0.01600485448
0.01601984601
0.01601984601
0.01601984601
0.01601970095
0.01600158378
0.01600000034
0.01600000085
0.01600000155
0.01600000166
0.01600000147
0.01600000063
0.01600000015
0.01600000003
0.01600000001
0.016
0.016
0.016
0.01600000001
0.01600000006
0.01600000068
0.01600000557
0.01600001292
0.01600001227
0.01600001425
0.01600001599
0.01600001841
0.01600001907
0.01600001897
0.01600001755
0.01600003154
0.01600155448
0.01614359099
6.320639051
17.28975566
15.49608101
29.99999967
30
30
30
30
30
30
30
30
30
30
30
30
30
30
30
30
30
30
30
0.01600087802
0.01600013913
0.0160000505
0.01600003402
0.01600033949
0.01601168189
0.01601984601
0.01601984473
0.01601232705
0.01600000005
0.01600000034
0.01600000101
0.01600000158
0.01600000166
0.01600000128
0.01600000049
0.01600000009
0.01600000001
0.016
0.016
0.016
0.016
0.01600000001
0.01600000004
0.01600000026
0.01600000174
0.01600000834
0.01600018195
0.01600186135
0.01600128658
0.01600013114
0.01600001909
0.01600002022
0.01600005524
0.01600192917
0.01613454315
3.109720323
18.3101468
21.68083303
16.39122329
29.99999944
30
30
30
30
30
30
30
30
30
30
30
30
30
30
30
30
30
30
30
0.01600124031
0.01600119283
0.0160002058
0.01600003402
0.01600003401
0.01600008643
0.01600517025
0.0160080473
0.0160004818
0.01600000005
0.01600000035
0.01600000102
0.01600000125
0.01600000118
0.01600000062
0.01600000019
0.01600000004
0.01600000001
0.016
0.016
0.016
0.016
0.016
0.01600000004
0.01600000021
0.01600000059
0.01600000018
0.01600349309
0.01601118895
0.0160107694
0.01600162653
0.01600002017
0.01600010279
0.01600246811
0.01613417787
1.505384499
24.16736247
25.50719755
22.04905366
16.82309802
29.99999864
30
30
30
30
30
30
30
30
30
30
30
30
30
30
30
30
30
30
30
0.01600004999
0.01600004656
0.01600006966
0.01600007123
0.01600003539
0.016
0.016
0.016
0.016
0.01600000005
0.01600000027
0.01600000042
0.01600000044
0.01600000035
0.01600000016
0.01600000005
0.01600000001
0.016
0.016
0.016
0.016
0.016
0.016
0.01600000003
0.0160000002
0.01600000035
0.01600000018
0.01600584646
0.01601119379
0.01601116834
0.016004002
0.01600010279
0.01600520211
0.01613471176
0.5398816399
22.66846319
27.98823138
26.36523599
23.15335681
19.21318857
29.99999965
30
30
30
30
30
30
30
30
30
30
30
30
30
30
30
30
30
30
30
0.0160000645
0.01600002091
0.01600001809
0.01600001015
0.01600000103
0.01600000017
0.01600000004
0.016
0.016
0.01600000003
0.01600000006
0.01600000008
0.01600000008
0.01600000006
0.01600000003
0.01600000001
0.016
0.016
0.016
0.016
0.016
0.016
0.016
0.01600000002
0.01600000018
0.01600000017
0.01600000017
0.01600045689
0.01600660848
0.01600644516
0.01600383227
0.01600520159
0.01629344254
0.2061512407
20.45277332
28.94416679
28.20109631
27.18712593
23.81937683
22.93024316
29.9999998
30
30
30
30
30
30
30
30
30
30
30
30
30
30
30
30
30
30
30
0.01600003813
0.01600002841
0.01600002669
0.0160000137
0.01600000217
0.01600000028
0.01600000004
0.01600000001
0.016
0.016
0.01600000001
0.01600000001
0.01600000001
0.01600000001
0.016
0.016
0.016
0.016
0.016
0.016
0.016
0.016
0.016
0.01600000001
0.01600000013
0.01600000013
0.0160000537
0.01600031203
0.01600014314
0.01600014314
0.01600078889
0.0162438764
0.7917530683
20.76335206
29.87190838
29.10022193
28.20109631
27.18712546
24.61518056
24.14350616
30.00000009
30
30
30
30
30
30
30
30
30
30
30
30
30
30
30
30
30
30
30
0.01600001117
0.01600001818
0.01600001348
0.01600000348
0.0160000008
0.0160000002
0.01600000005
0.01600000001
0.016
0.016
0.016
0.016
0.016
0.016
0.016
0.016
0.016
0.016
0.016
0.016
0.016
0.016
0.016
0.01600000001
0.01600000021
0.01600000013
0.01600000019
0.01602118886
0.01600014314
0.01600036854
0.01604572526
1.207381306
22.98105866
29.99556577
29.91293335
29.10022191
28.20109613
27.18712536
24.61518052
25.22473468
30
30
30
30
30
30
30
30
30
30
30
30
30
30
30
30
30
30
30
30
0.01600000108
0.01600000106
0.01600000059
0.01600000028
0.01600000013
0.01600000006
0.01600000002
0.01600000001
0.016
0.016
0.016
0.016
0.016
0.016
0.016
0.016
0.016
0.016
0.016
0.016
0.016
0.016
0.016
0.01600000002
0.01600000047
0.0160000015
0.01600007569
0.01602903025
0.01600038035
0.01600631213
0.7587200521
24.54253225
29.99591007
29.99556577
29.91293335
29.10022187
28.20109606
27.18712546
25.86580747
24.85535353
30.00000003
30
30
30
30
30
30
30
30
30
30
30
30
30
30
30
30
30
30
30
0.01600000011
0.01600000008
0.01600000006
0.01600000006
0.01600000006
0.01600000004
0.01600000001
0.016
0.016
0.016
0.016
0.016
0.016
0.016
0.016
0.016
0.016
0.016
0.016
0.016
0.016
0.016
0.016
0.01600000004
0.01600000004
0.0160004321
0.01600007935
0.01600026577
0.01600026957
0.01633094155
22.2727344
29.99591007
29.99591007
29.99556577
29.91293336
29.10022184
28.20109604
27.18712531
26.11137907
21.37561286
29.99999986
30
30
30
30
30
30
30
30
30
30
30
30
30
30
30
30
30
30
30
0.016
0.01600000001
0.01600000002
0.01600000003
0.01600000003
0.01600000002
0.01600000001
0.016
0.016
0.016
0.016
0.016
0.016
0.016
0.016
0.016
0.016
0.016
0.016
0.016
0.016
0.016
0.016
0.01600000007
0.01600000004
0.01600101258
0.01602694101
0.01600026724
0.01600019096
13.71571228
29.70203371
29.99591007
29.99591007
29.99556577
29.91293335
29.10022181
28.20109602
27.1871252
26.11137902
22.67900855
30.00000001
30
30
30
30
30
30
30
30
30
30
30
30
30
30
30
30
30
30
30
0.016
0.016
0.016
0.016
0.016
0.016
0.016
0.016
0.016
0.016
0.016
0.016
0.016
0.016
0.016
0.016
0.016
0.016
0.016
0.016
0.016
0.016
0.01600000001
0.01600000008
0.01600000004
0.01600106939
0.01608717716
0.01600039702
1.461944837
29.44603522
32.84022013
29.99591007
29.99591007
29.99591002
29.91293335
28.81227649
28.20109597
26.12690064
26.11137898
28.95735318
29.99999979
30
30
30
30
30
30
30
30
30
30
30
30
30
30
30
30
30
30
30
0.016
0.016
0.016
0.016
0.016
0.016
0.016
0.016
0.016
0.016
0.016
0.016
0.016
0.016
0.016
0.016
0.016
0.016
0.016
0.016
0.016
0.016
0.01600000001
0.01600000008
0.01600000004
0.01600214666
0.01608721446
0.01600084655
6.469086511
34.44659524
34.99083432
29.99668636
29.99719575
29.99591002
29.91425663
28.7707153
27.80889851
26.11653639
25.59748311
23.75726285
29.99999849
30
30
30
30
30
30
30
30
30
30
30
30
30
30
30
30
30
30
30
0.016
0.016
0.016
0.016
0.016
0.016
0.016
0.016
0.016
0.016
0.016
0.016
0.016
0.016
0.016
0.016
0.016
0.016
0.016
0.016
0.016
0.016
0.01600000001
0.01600000005
0.01600000432
0.01600091499
0.01607327148
0.0160086381
9.881227166
36.35144746
39.25087246
33.49752833
29.9972829
29.99445291
29.94165453
28.13364468
26.67421946
26.67421943
31.15994082
26.38687078
29.99999882
30
30
30
30
30
30
30
30
30
30
30
30
30
30
30
30
30
30
30
0.016
0.016
0.016
0.016
0.016
0.016
0.016
0.016
0.016
0.016
0.016
0.016
0.016
0.016
0.016
0.016
0.016
0.016
0.016
0.016
0.016
0.016
0.01600000001
0.01600000004
0.01600000271
0.01600038345
0.01603504702
0.01885871418
10.47363602
37.85584202
39.98859043
39.33544889
33.33443179
29.99875976
29.99691803
29.37097955
26.67421944
26.67421946
26.67427467
26.8111616
29.99999797
30
30
30
30
30
30
30
30
30
30
30
30
30
30
30
30
30
30
30
0.016
0.016
0.016
0.016
0.016
0.016
0.016
0.016
0.016
0.016
0.016
0.016
0.016
0.016
0.016
0.016
0.016
0.016
0.016
0.016
0.016
0.016
0.01600000001
0.01600000004
0.0160000012
0.01600001183
0.01600167603
0.01626055406
7.453759089
38.74901657
39.99419944
39.99423516
39.67574659
33.85730136
29.99941114
28.66218082
26.67421969
26.67427467
26.6775033
33.53080106
29.99999846
30
30
30
30
30
30
30
30
30
30
30
30
30
30
30
30
30
30
30
0.016
0.016
0.016
0.016
0.016
0.016
0.016
0.016
0.016
0.016
0.016
0.016
0.016
0.016
0.016
0.016
0.016
0.016
0.016
0.016
0.016
0.016
0.01600000001
0.01600000004
0.0160000009
0.01600001043
0.0160012565
0.01614881554
4.562890671
37.62249209
39.99443658
39.99455719
39.99657139
39.99921475
33.52852177
37.71640115
26.84005154
29.48607229
31.12812771
28.34586477
29.99999754
30
30
30
30
30
30
30
30
30
30
30
30
30
30
30
30
30
30
30
0.016
0.016
0.016
0.016
0.016
0.016
0.016
0.016
0.016
0.016
0.016
0.016
0.016
0.016
0.016
0.016
0.016
0.016
0.016
0.016
0.016
0.016
0.016
0.01600000002
0.01600000138
0.01600013639
0.01601287216
0.0163470572
2.287124089
31.70514487
39.99432489
39.99418395
39.99420258
39.99845561
39.99923185
34.22889761
37.16237688
37.20655126
28.57114811
28.56974829
29.99999945
30
30
30
30
30
30
30
30
30
30
30
30
30
30
30
30
30
30
30
0.016
0.016
0.016
0.016
0.016
0.016
0.016
0.016
0.016
0.016
0.016
0.016
0.016
0.016
0.016
0.016
0.016
0.016
0.016
0.016
0.016
0.016
0.016
0.01600000002
0.01600000049
0.01600000792
0.01600076684
0.01607975747
0.8560787434
23.28216257
39.99540034
39.99433171
39.99422041
39.99548935
39.99926205
39.99945463
33.31300734
38.18471333
34.61056207
28.56974829
29.99999957
30
30
30
30
30
30
30
30
30
30
30
30
30
30
30
30
30
30
30
0.016
0.016
0.016
0.016
0.016
0.016
0.016
0.016
0.016
0.016
0.016
0.016
0.016
0.016
0.016
0.016
0.016
0.016
0.016
0.016
0.016
0.016
0.016
0.016
0.01600000009
0.01600000816
0.01600063901
0.01604490367
0.01777604398
11.8818431
39.9964394
39.99655008
39.99644801
39.99550199
39.99867617
39.99946624
37.09504935
37.71671546
34.0541652
29.54269845
29.99999937
30
30
30
30
30
30
30
30
30
30
30
30
30
30
30
30
30
30
30
0.016
0.016
0.016
0.016
0.016
0.016
0.016
0.016
0.016
0.016
0.016
0.016
0.016
0.016
0.016
0.016
0.016
0.016
0.016
0.016
0.016
0.016
0.016
0.016
0.01600000009
0.01600000698
0.01600047895
0.01602835093
0.01748189487
3.628487196
32.28525429
39.99697725
39.99698141
39.99557241
39.99717247
39.9994818
39.99949602
39.85349568
35.65942103
31.36575327
29.96967511
30
30
30
30
30
30
30
30
30
30
30
30
30
30
30
30
30
30
30
0.016
0.016
0.016
0.016
0.016
0.016
0.016
0.016
0.016
0.016
0.016
0.016
0.016
0.016
0.016
0.016
0.016
0.016
0.016
0.016
0.016
0.016
0.016
0.016
0.01600000002
0.01600000148
0.01600009758
0.01600546481
0.01626595659
0.1780593697
18.06041526
39.9968907
39.99698668
39.99698683
39.996986
39.99747701
39.99957479
39.99967361
39.99974673
38.27353591
33.45367128
29.99524164
30
30
30
30
30
30
30
30
30
30
30
30
30
30
30
30
30
30
0.016
0.016
0.016
0.016
0.016
0.016
0.016
0.016
0.016
0.016
0.016
0.016
0.016
0.016
0.016
0.016
0.016
0.016
0.016
0.016
0.016
0.016
0.016
0.016
0.016
0.01600000032
0.01600002187
0.01600127
0.01606401044
0.01833424618
4.848853875
35.19515378
39.99698242
39.99698668
39.9969863
39.99611106
39.99610879
39.99944604
39.99974944
39.9997514
39.99729882
38.55671584
34.17889907
29.99987459
30
30
30
30
30
30
30
30
30
30
30
30
30
30
30
30
0.016
0.016
0.016
0.016
0.016
0.016
0.016
0.016
0.016
0.016
0.016
0.016
0.016
0.016
0.016
0.016
0.016
0.016
0.016
0.016
0.016
0.016
0.016
0.016
0.016
0.01600000002
0.01600000176
0.01600011361
0.01600621629
0.01629535446
0.03526032234
17.14643001
39.99672139
39.99698443
39.9969861
39.99619621
39.99502583
39.99810322
39.9997514
39.9997514
39.9997514
39.99357314
39.99088451
39.99824814
36.77791806
31.5678266
30
30
30
30
30
30
30
30
30
30
30
30
30
30
0.016
0.016
0.016
0.016
0.016
0.016
0.016
0.016
0.016
0.016
0.016
0.016
0.016
0.016
0.016
0.016
0.016
0.016
0.016
0.016
0.016
0.016
0.016
0.016
0.016
0.016
0.01600000022
0.01600001706
0.01600111358
0.01606038937
0.01871171415
3.381106995
31.40626701
39.99694711
39.99698421
39.99690791
39.99502796
39.995026
39.99973839
39.99975141
39.9997514
39.99906902
39.99973218
39.98596437
39.97559125
39.99605705
40
35.72368919
30.41435108
30
30
30
30
30
30
30
30
30
30
30
0.016
0.016
0.016
0.016
0.016
0.016
0.016
0.016
0.016
0.016
0.016
0.016
0.016
0.016
0.016
0.016
0.016
0.016
0.016
0.016
0.016
0.016
0.016
0.016
0.016
0.016
0.016
0.01600000043
0.01600003721
0.01600267646
0.01616380633
0.02031106189
10.60293559
39.99374083
39.99694724
39.99690378
39.99683483
39.995026
39.99606925
39.99941419
39.99975178
39.99975216
39.99975216
39.97873977
39.91685771
39.94612328
39.99772374
40
40
40
35.10646779
30.00038805
30
30
30
30
30
30
30
30
0.016
0.016
0.016
0.016
0.016
0.016
0.016
0.016
0.016
0.016
0.016
0.016
0.016
0.016
0.016
0.016
0.016
0.016
0.016
0.016
0.016
0.016
0.016
0.016
0.016
0.016
0.016
0.016
0.0160000003
0.01600004376
0.01600391096
0.01618192233
0.05144365786
19.72562893
39.99430338
39.99688044
39.9969056
39.9963959
39.99541816
39.99632634
39.9997516
39.99975217
39.99975216
39.92994341
39.91683508
39.91683501
39.97148444
39.99999993
40
39.99999999
39.99999999
40
40
34.26752334
30
30
30
30
30
30
0.016
0.016
0.016
0.016
0.016
0.016
0.016
0.016
0.016
0.016
0.016
0.016
0.016
0.016
0.016
0.016
0.016
0.016
0.016
0.016
0.016
0.016
0.016
0.016
0.016
0.016
0.016
0.016
0.016
0.01600000005
0.01600001032
0.01600121442
0.0160955167
0.4516440066
24.31194492
39.99499129
39.99874199
39.9992091
39.99922237
39.9992214
39.99975217
39.99975217
39.95678872
39.91683508
39.91683502
39.91683508
39.98516758
39.9999961
39.99999998
39.99999999
39.99999999
39.99999999
40
40
40
39.95396405
32.96389492
30
30
30
0.016
0.016
0.016
0.016
0.016
0.016
0.016
0.016
0.016
0.016
0.016
0.016
0.016
0.016
0.016
0.016
0.016
0.016
0.016
0.016
0.016
0.016
0.016
0.016
0.016
0.016
0.016
0.016
0.016
0.016
0.01600000001
0.01600000252
0.01600032187
0.01602741953
0.01786277635
21.16578227
38.65918928
39.99889634
39.9996206
39.99973854
39.99975155
39.99559472
39.97069832
39.93952756
39.93999025
39.98124289
39.9995076
39.99999871
39.99999999
39.99999999
39.99999999
39.99999999
39.99999999
39.99999999
39.99999999
39.99999999
39.99999999
40
39.04381116
31.32585
0.016
0.016
0.016
0.016
0.016
0.016
0.016
0.016
0.016
0.016
0.016
0.016
0.016
0.016
0.016
0.016
0.016
0.016
0.016
0.016
0.016
0.016
0.016
0.016
0.016
0.016
0.016
0.016
0.016
0.016
0.016
0.016
0.01599999702
0.01600012087
0.01600999063
0.01664283327
11.92115486
34.08006268
39.88242758
39.9996206
39.99973518
39.99957931
39.99959432
39.99861409
39.99862488
39.99999988
39.99999999
39.99999997
39.99999999
39.99999999
39.99999999
39.99999999
39.99999999
39.99999999
39.99999999
39.99999999
39.99999999
39.99999998
39.99999998
39.99999998
0.016
0.016
0.016
0.016
0.016
0.016
0.016
0.016
0.016
0.016
0.016
0.016
0.016
0.016
0.016
0.016
0.016
0.016
0.016
0.016
0.016
0.016
0.016
0.016
0.016
0.016
0.016
0.016
0.016
0.016
0.016
0.016
0.016
0.01600000004
0.01600000422
0.01600035443
0.01602005705
2.79916269
20.4556043
36.63146329
39.99918184
39.99993377
39.99999463
39.9999965
39.99999985
39.99999999
39.99999999
39.99999999
39.99999999
39.99999999
39.99999999
39.99999998
39.99999999
39.99999999
39.99999998
39.99999998
39.99999998
39.99999998
39.99999998
39.99999997
0.016
0.016
0.016
0.016
0.016
0.016
0.016
0.016
0.016
0.016
0.016
0.016
0.016
0.016
0.016
0.016
0.016
0.016
0.016
0.016
0.016
0.016
0.016
0.016
0.016
0.016
0.016
0.016
0.016
0.016
0.016
0.016
0.016
0.016
0.016
0.01599999778
0.0159999991
0.01600067966
0.0160456647
6.059717219
24.75041626
37.70747569
39.99993377
39.99999463
39.99999817
40
40
40
39.99999999
39.99999999
39.99999999
39.99999999
39.99999999
39.99999998
39.99999998
39.99999998
39.99999997
39.99999998
39.99999998
39.99999998
0.016
0.016
0.016
0.016
0.016
0.016
0.016
0.016
0.016
0.016
0.016
0.016
0.016
0.016
0.016
0.016
0.016
0.016
0.016
0.016
0.016
0.016
0.016
0.016
0.016
0.016
0.016
0.016
0.016
0.016
0.016
0.016
0.016
0.016
0.016
0.016
0.01600000013
0.01600000856
0.01600003785
0.0160013057
0.01607932749
9.238688758
28.62221577
38.496012
39.99993081
39.99999675
40
40
40
39.99999999
39.99999999
39.99999999
39.99999999
39.99999999
39.99999998
39.99999998
39.99999998
39.99999999
39.99999998
39.99999999
0.016
0.016
0.016
0.016
0.016
0.016
0.016
0.016
0.016
0.016
0.016
0.016
0.016
0.016
0.016
0.016
0.016
0.016
0.016
0.016
0.016
0.016
0.016
0.016
0.016
0.016
0.016
0.016
0.016
0.016
0.016
0.016
0.016
0.016
0.01600000019
0.01600000466
0.01600002127
0.01600002111
0.01600002178
0.01600004014
0.01600030024
0.01600312622
0.05400141552
11.81491074
28.97231454
38.05339177
39.79420376
39.9999987
40
40
40
39.99999967
39.99999999
39.99999999
39.99999999
39.99999999
39.99999999
39.99999998
39.99999998
39.99999999
0.016
0.016
0.016
0.016
0.016
0.016
0.016
0.016
0.016
0.016
0.016
0.016
0.016
0.016
0.016
0.016
0.016
0.016
0.016
0.016
0.016
0.016
0.016
0.016
0.016
0.016
0.016
0.016
0.016
0.016
0.016
0.016
0.016
0.016
0.016
0.01600000273
0.01600006034
0.01600013508
0.01600034626
0.0160004574
0.01600046264
0.01600050542
0.01600108862
0.0160101503
0.2882223971
10.85089173
24.73228244
36.92988197
39.22915276
40
39.99999999
39.99999999
39.99999996
39.99999545
39.99999979
39.99999999
39.99999999
39.99999997
39.99999973
39.99999948
0.016
0.016
0.016
0.016
0.016
0.016
0.016
0.016
0.016
0.016
0.016
0.016
0.016
0.016
0.016
0.016
0.016
0.016
0.016
0.016
0.016
0.016
0.016
0.016
0.016
0.016
0.016
0.016
0.016
0.016
0.016
0.016
0.016
0.016
0.016
0.016
0.016
0.016
0.01600068001
0.0160022379
0.01600223814
0.01600146764
0.01600138941
0.01600064195
0.01600823485
0.01600126716
0.0160026518
6.321730235
17.09547976
29.00459238
35.66580835
38.93240767
39.99999994
39.99999787
39.99993226
39.99999999
39.99999999
39.99999999
39.99999999
39.9999924
0.016
0.016
0.016
0.016
0.016
0.016
0.016
0.016
0.016
0.016
0.016
0.016
0.016
0.016
0.016
0.016
0.016
0.016
0.016
0.016
0.016
0.016
0.016
0.016
0.016
0.016
0.016
0.016
0.016
0.016
0.016
0.016
0.016
0.016
0.016
0.016
0.016
0.016
0.016
0.016
0.01600083407
0.01600232919
0.01600219773
0.01600060754
0.01600079942
0.01600123875
0.0160009448
0.01600044149
0.01600074561
0.01600228149
6.838215808
15.20906303
23.98011879
34.73464639
35.32373808
37.90009245
39.90493925
39.99999999
39.99997137
39.99987209
0.016
0.016
0.016
0.016
0.016
0.016
0.016
0.016
0.016
0.016
0.016
0.016
0.016
0.016
0.016
0.016
0.016
0.016
0.016
0.016
0.016
0.016
0.016
0.016
0.016
0.016
0.016
0.016
0.016
0.016
0.016
0.016
0.016
0.016
0.016
0.016
0.016
0.016
0.016
0.016
0.01600000027
0.01600022976
0.01600019663
0.01600002597
0.01600074793
0.01600324936
0.01600372694
0.01600026199
0.01600058541
0.01600074561
0.01600228155
0.01602955499
0.1114989984
7.029574439
16.06808393
21.3586228
26.75886054
33.30860883
35.18232516
34.83909483
0.016
0.016
0.016
0.016
0.016
0.016
0.016
0.016
0.016
0.016
0.016
0.016
0.016
0.016
0.016
0.016
0.016
0.016
0.016
0.016
0.016
0.016
0.016
0.016
0.016
0.016
0.016
0.016
0.016
0.016
0.016
0.016
0.016
0.016
0.016
0.016
0.016
0.016
0.016
0.016
0.016
0.016
0.016
0.016
0.01600007934
0.01600043583
0.01600045609
0.01600014937
0.01600082029
0.01600692673
0.01603433696
0.0160000139
0.01863007662
0.05552882556
0.1569068006
0.01601652364
0.9838714116
3.259125204
6.437727561
11.98785204
0.016
0.016
0.016
0.016
0.016
0.016
0.016
0.016
0.016
0.016
0.016
0.016
0.016
0.016
0.016
0.016
0.016
0.016
0.016
0.016
0.016
0.016
0.016
0.016
0.016
0.016
0.016
0.016
0.016
0.016