/*--------------------------------*- C++ -*----------------------------------*\
  =========                 |
  \\      /  F ield         | OpenFOAM: The Open Source CFD Toolbox
   \\    /   O peration     | Website:  https://openfoam.org
    \\  /    A nd           | Version:  10
     \\/     M anipulation  |
\*---------------------------------------------------------------------------*/
FoamFile
{
    format      ascii;
    class       volScalarField;
    location    "0.0005";
    object      p;
}
// * * * * * * * * * * * * * * * * * * * * * * * * * * * * * * * * * * * * * //

dimensions      [1 -1 -2 0 0 0 0];

internalField   nonuniform List<scalar> 
3600
(
0.1893319487
0.2111664225
0.2195581464
0.2493284875
0.2813823347
0.313309665
0.3459892796
0.3799902192
0.4155542329
0.452821209
0.4918893308
0.5328489276
0.5757856289
0.6207771314
0.6678876503
0.7171605552
0.7686100203
0.8222130511
0.8779029276
0.935568061
0.9950807354
1.05635575
1.119063807
1.181654387
1.241771027
1.298244539
1.350043849
1.395133957
1.431313187
1.456145373
1.467212863
1.462084815
1.438473526
1.394288629
1.327480803
1.235909255
1.118155223
0.9820011209
0.8303014058
0.3846282451
0.3024765846
-404.0836656
-799.1426537
-1175.941565
-1527.147439
-1847.263593
-2132.697511
-2381.626025
-2593.727471
-2769.860088
-2911.744264
-3021.681901
-3102.326584
-3156.50559
-3187.088058
-3196.89115
-3188.615911
-3164.805571
-3127.820419
-3079.824734
0.1771171236
0.2168758928
0.2216069176
0.24883056
0.2809233805
0.3129607393
0.3454315144
0.379227138
0.4146718251
0.4518651745
0.4908789701
0.5318007713
0.5747180161
0.6197101511
0.6668429161
0.7161606728
0.7676778771
0.8213715202
0.8771734936
0.9349746863
0.9946617152
1.056389214
1.120159609
1.183872737
1.244584433
1.301391467
1.353682594
1.399347255
1.436240338
1.461776755
1.473523475
1.469064755
1.446212643
1.403059908
1.337663531
1.248417368
1.135972884
1.011231275
0.8750581138
0.5278181281
0.4952540303
-413.561386
-817.4164496
-1201.534606
-1558.237167
-1881.945842
-2169.20294
-2418.453123
-2629.696331
-2804.108555
-2943.690827
-3050.97488
-3128.792294
-3180.102168
-3207.867476
-3214.969523
-3204.15106
-3177.980441
-3138.831014
-3088.871446
0.1739343479
0.2162955258
0.2205058646
0.2473663284
0.2795672005
0.3116156318
0.343535761
0.3767661869
0.4118923598
0.4488868877
0.4877321409
0.528500209
0.5712815382
0.616161793
0.6632142088
0.7124904483
0.7640098693
0.8177485807
0.8736209364
0.9314559756
0.9911548861
1.053125332
1.117716701
1.183834681
1.246735153
1.30619972
1.361435574
1.409982783
1.449949004
1.478538401
1.493354739
1.491912966
1.472025075
1.431821213
1.369127126
1.282691907
1.173855475
1.054661219
0.9250202575
0.5868269528
0.5530686654
-433.4309005
-855.4392572
-1254.543257
-1622.320809
-1953.079711
-2243.715332
-2493.287248
-2702.496223
-2873.187016
-3007.935659
-3109.734559
-3181.765616
-3227.243385
-3249.310231
-3250.968494
-3235.038466
-3204.134223
-3160.651843
-3106.766272
0.1718632463
0.2136493839
0.2176904549
0.2447059861
0.2765360336
0.3085649242
0.3396938203
0.3723128292
0.4070632882
0.4437951649
0.4823797047
0.5228822453
0.565409865
0.6100648452
0.6569373808
0.7060957621
0.7575727525
0.8113472319
0.8672928686
0.9250550518
0.9841341425
1.045128089
1.115746993
1.189873181
1.248381173
1.30795309
1.368772593
1.42314152
1.46791657
1.501537441
1.522115788
1.526904623
1.513541
1.479651718
1.421611707
1.338468401
1.231715527
1.113909626
0.9833013388
0.629758505
0.5935801589
-465.4562959
-916.3781296
-1338.87837
-1723.423124
-2064.336894
-2359.291462
-2608.484349
-2813.814326
-2978.207661
-3105.130278
-3198.262135
-3261.292278
-3297.795579
-3311.16163
-3304.55583
-3280.900168
-3242.86622
-3192.875946
-3133.107667
0.1691171684
0.209568588
0.2129211872
0.241664352
0.2783679037
0.3182969594
0.3335336015
0.3654717189
0.4000840215
0.4366256061
0.4748968292
0.5150255646
0.5571766972
0.6014871719
0.6480771529
0.6970472408
0.7484661163
0.8023508002
0.8585970587
0.9167960985
0.976302302
1.038175867
1.116808287
1.195401549
1.262172673
1.326457601
1.381839036
1.434311629
1.485458637
1.527972118
1.557108844
1.569604252
1.563886903
1.540935183
1.491413731
1.41483673
1.310545934
1.19207223
1.057023119
0.6791643158
0.640130359
-512.8127387
-1005.750798
-1461.168981
-1868.156444
-2221.553304
-2520.629298
-2767.544382
-2966.0691
-3120.699062
-3236.1157
-3316.89147
-3367.345826
-3391.485073
-3392.984943
-3375.193098
-3341.140227
-3293.554618
-3234.878146
-3167.282988
0.1657951374
0.2048350188
0.2103885534
0.2575899434
0.2886464849
0.3170037931
0.3417562057
0.3574757781
0.3913111006
0.4275835326
0.4653896558
0.5049789132
0.5465954289
0.5904138722
0.6365914613
0.6852761679
0.7365999032
0.7906686437
0.8475125176
0.9069879036
0.9687981812
1.033108636
1.10123442
1.173788774
1.250698903
1.328130192
1.402749473
1.471774071
1.531968416
1.583723373
1.622871746
1.64650771
1.65082873
1.62739089
1.578090791
1.510275433
1.41178115
1.293216171
1.152040784
0.7429961953
0.7003515439
-580.9055513
-1132.656371
-1631.890326
-2066.480383
-2433.090596
-2734.128062
-2974.994804
-3162.218661
-3302.403828
-3401.742027
-3465.842257
-3499.714521
-3507.814
-3494.100038
-3462.091457
-3414.913092
-3355.33396
-3285.799137
-3208.45743
0.1616541138
0.2004074686
0.2066502754
0.2525280041
0.2795555036
0.3064204205
0.3203068823
0.3474813922
0.3813192471
0.4168835916
0.4539264037
0.4927650753
0.5336558617
0.5767975532
0.6223865267
0.6706244461
0.7217187572
0.7758852516
0.8333306959
0.8941242472
0.9583558879
1.026437598
1.09897365
1.174982636
1.25331312
1.332401032
1.407640611
1.482361776
1.555175773
1.621297296
1.676537098
1.717761337
1.741414243
1.742210434
1.706390259
1.633950786
1.537468893
1.420754496
1.274839223
0.8291893553
0.7820776093
-679.0957519
-1312.092892
-1867.255585
-2332.784179
-2710.20065
-3007.79757
-3236.088141
-3405.406947
-3524.955596
-3602.606353
-3645.021044
-3657.856052
-3645.956433
-3613.509818
-3564.159664
-3501.086798
-3427.069091
-3344.527121
-3255.561279
0.1588460606
0.1949657888
0.1989659919
0.2242174488
0.2568066181
0.2846772667
0.3064061309
0.337108975
0.3700842787
0.4045234139
0.4405437648
0.4783966983
0.5183432931
0.5605869705
0.6053606959
0.6529194882
0.7035509036
0.7576336048
0.8155344114
0.8772835562
0.9433578641
1.014150323
1.09024937
1.17145008
1.256920612
1.344870874
1.433454095
1.522687765
1.610904219
1.694132502
1.767821338
1.826878566
1.864602707
1.87006023
1.847243465
1.798444783
1.692012564
1.574070439
1.432024067
0.9488952734
0.897395488
-824.4327846
-1569.379176
-2192.254955
-2687.200112
-3067.130273
-3350.773448
-3556.153274
-3698.365421
-3789.405284
-3838.706773
-3853.77956
-3840.732272
-3804.645928
-3749.823197
-3679.950648
-3598.205434
-3507.328588
-3409.67908
-3307.27698
0.151307754
0.1882204681
0.1922956548
0.2159522685
0.2432227507
0.2691372485
0.2962778382
0.3258648012
0.3573942708
0.3905148033
0.4252977425
0.4618789309
0.5006455274
0.5417393973
0.5854254277
0.6320131308
0.6818685217
0.7355091994
0.7932996402
0.8556166968
0.9231195999
0.9963309135
1.075567035
1.161398299
1.253369175
1.350599916
1.452012503
1.556846559
1.662894597
1.766656725
1.863712175
1.948055833
2.011532811
2.044927304
2.039368239
1.977929795
1.913813442
1.762768994
1.623640386
1.106851624
1.054279904
-1050.438918
-1948.752652
-2645.184959
-3156.631054
-3520.3469
-3772.012702
-3939.386112
-4042.496203
-4095.59337
-4109.035935
-4090.658207
-4046.64761
-3982.071864
-3901.18645
-3807.614375
-3704.455796
-3594.360841
-3479.583725
-3362.027355
0.1457526775
0.180942207
0.1838659851
0.2059414645
0.2322528514
0.2580005539
0.2844985182
0.3128378552
0.3429540942
0.3746444192
0.4079839321
0.4432214355
0.4805684922
0.5202324407
0.5625107546
0.6077671162
0.6564382589
0.7090440801
0.7662301166
0.8286767174
0.897015685
0.9720046859
1.054430805
1.145046483
1.24401621
1.351204339
1.466090446
1.587826322
1.714386245
1.842429664
1.967223188
2.082223668
2.178822121
2.246703806
2.273127372
2.23997984
2.129037129
2.00387069
1.802457269
1.259281334
1.197462864
-1429.928332
-2530.02539
-3283.101189
-3773.792262
-4085.613596
-4277.544374
-4386.88229
-4436.63993
-4441.436087
-4411.18544
-4353.169782
-4273.128143
-4175.80751
-4065.236426
-3944.864689
-3817.642621
-3686.075335
-3552.267715
-3417.966092
0.1390952898
0.172373514
0.1745821075
0.1951887657
0.2202179007
0.2451657633
0.2708669728
0.2980177536
0.3267334923
0.3569667085
0.3888159326
0.4224877297
0.4581590398
0.4960814104
0.5365802262
0.5800643862
0.6270409324
0.6781304033
0.7340665304
0.7957108021
0.8640676131
0.9402103263
1.025313736
1.120429812
1.226462568
1.344002428
1.473204511
1.613621072
1.763686032
1.920388845
2.07899366
2.232643613
2.371954426
2.484684113
2.554842989
2.560518885
2.478054821
2.304068025
2.065925158
1.420010845
1.338286331
-2140.782166
-3458.338619
-4183.40216
-4569.823232
-4770.770874
-4865.66893
-4893.958762
-4875.745168
-4822.325654
-4741.100009
-4637.707381
-4516.887702
-4382.79365
-4239.087128
-4088.96542
-3935.174733
-3780.030241
-3625.445806
-3472.971029
0.1319676623
0.1623930889
0.1643557703
0.1837244306
0.2074412133
0.2312866574
0.2559000976
0.2817903494
0.3090483672
0.3377231513
0.3679202327
0.3997855738
0.4335136012
0.4693606909
0.5076656287
0.5488681368
0.5935313042
0.6423654368
0.6962466009
0.7562341513
0.823588615
0.8997659439
0.9863758882
1.08509951
1.197573714
1.325239838
1.469141508
1.629630515
1.805925851
1.995696724
2.194656657
2.39608384
2.590115689
2.762856231
2.895308381
2.959416798
2.907779235
2.677474833
2.342628133
1.619115496
-108.7001803
-3676.535659
-4979.166557
-5422.345625
-5551.327662
-5561.977766
-5520.40173
-5447.538686
-5350.056366
-5231.021407
-5093.18161
-4939.672059
-4773.921669
-4599.392321
-4419.353098
-4236.735201
-4054.060718
-3873.425178
-3696.514339
-3524.640166
0.1248836302
0.1518990693
0.1531197045
0.1713758646
0.1938022797
0.2164241146
0.2397874667
0.2643037194
0.2900441494
0.3170547313
0.3454238804
0.3752797636
0.4067983797
0.4402231957
0.4758883792
0.5142446952
0.5558904131
0.6016062392
0.6523913695
0.7094986291
0.7744690809
0.8491493461
0.9356824594
1.036450425
1.153972268
1.290738864
1.448965855
1.630174292
1.834796368
2.061640965
2.307446896
2.566350664
2.828875514
3.080963553
3.304744715
3.468574551
3.459813613
2.991077289
2.073736925
1.571960005
-5564.596381
-7477.419247
-7359.471192
-6975.486153
-6651.16406
-6405.410824
-6206.421562
-6025.737928
-5845.92026
-5658.522053
-5460.933
-5253.877608
-5039.734649
-4821.500953
-4602.197823
-4384.56163
-4170.907834
-3963.095511
-3762.546304
-3570.289777
0.1150421431
0.1394900827
0.1410194392
0.1582240842
0.1793093914
0.2006315419
0.222662371
0.2457344929
0.2698854822
0.2951370259
0.3215468071
0.3492080731
0.3782616217
0.4089173973
0.4414812691
0.4763875538
0.514238998
0.5558544644
0.6023232955
0.65506452
0.7158878034
0.7870445396
0.8712569864
0.9717021211
1.091936463
1.235731168
1.406791984
1.608272752
1.842289005
2.10931826
2.407794683
2.733804875
3.080410609
3.440142753
3.81543812
4.18985572
4.310782575
3.377052553
1.265826746
-2.232445756
-21179.59621
-13306.16903
-10005.84748
-8468.963772
-7672.431631
-7202.079933
-6874.135803
-6603.071257
-6349.364756
-6096.213594
-5838.150763
-5575.170775
-5309.638451
-5044.679106
-4783.375681
-4528.40573
-4281.913564
-4045.502822
-3820.285686
-3606.954036
0.1023229979
0.1264263196
0.1283489055
0.144359989
0.1640230374
0.1840032573
0.2046691187
0.2262676582
0.2487901094
0.2722194161
0.2965691064
0.3218816061
0.3482425138
0.3758036856
0.4048127705
0.4356512759
0.4688834493
0.5053175705
0.5460804333
0.5927045574
0.6472250214
0.7122769264
0.7911791046
0.8879791775
1.007428597
1.154840696
1.335779148
1.555527303
1.818374435
2.126890616
2.481560338
2.88093667
3.323509271
3.823262715
4.45096348
5.264294604
5.861104502
5.714292954
11.54296334
-288.9733698
-23657.4235
-14547.83995
-10889.33886
-9222.089853
-8367.518782
-7856.3415
-7484.970503
-7163.046601
-6852.253969
-6538.816842
-6220.285729
-5899.016358
-5578.969372
-5264.201417
-4958.22013
-4663.772122
-4382.83796
-4116.716622
-3866.139687
-3631.386404
0.09057185461
0.1127047442
0.1148408063
0.1296812757
0.1479559711
0.1666271947
0.1859558316
0.2061014469
0.2270016076
0.2485910595
0.2708279931
0.2936879536
0.3171797659
0.3413694627
0.3664108634
0.3925873664
0.4203684418
0.4504840926
0.4840203315
0.5225377399
0.5682126512
0.6239951519
0.6937699141
0.7824919955
0.8962515821
1.042195364
1.228206212
1.46223382
1.751231673
2.099837889
2.509204003
2.976606713
3.498659426
4.098976346
4.907207487
6.030763346
6.800507782
8.534950399
53.40744932
-3689.992421
-9198.298542
-10412.07963
-9783.048277
-9162.538014
-8719.212156
-8370.796811
-8046.358157
-7711.890728
-7357.78772
-6986.514117
-6605.159023
-6221.639658
-5843.021354
-5474.937132
-5121.531379
-4785.624756
-4468.949629
-4172.386128
-3896.170146
-3640.064916
0.07746564631
0.09740700849
0.1002422951
0.1141367529
0.1311428595
0.1486032892
0.166683058
0.1854502359
0.2047884845
0.2245814683
0.2447180147
0.2650930298
0.2856168615
0.3062401886
0.3269829946
0.3479772085
0.3695279923
0.3921989026
0.4169270032
0.4451741542
0.4791193202
0.521892183
0.5778387914
0.6527920204
0.7542901713
0.8916404861
1.07566044
1.317859141
1.628775346
2.01525565
2.476847585
3.002864702
3.569828605
4.149102773
4.787636731
5.625155222
6.145247487
2.455021495
-548.0793914
-5437.569354
-7269.665571
-8143.052443
-8669.76034
-8925.801773
-8975.995026
-8861.275462
-8617.774632
-8280.370477
-7880.492102
-7444.292935
-6992.196676
-6539.36199
-6096.539333
-5670.994457
-5267.343596
-4888.245997
-4534.949782
-4207.708229
-3906.08995
-3629.206114
0.06300865838
0.08058457691
0.08458536932
0.09777221482
0.1136693399
0.1300947291
0.1470744961
0.1645833806
0.1824516114
0.2005545198
0.2186862714
0.2366373831
0.2542007946
0.271183044
0.2874282759
0.3028577728
0.3175312001
0.3317370775
0.3461225195
0.3618745028
0.3809659207
0.4064776502
0.4429998716
0.4970967803
0.5777807137
0.6968710612
0.8689924666
1.110771412
1.438509827
1.863483101
2.385163936
2.986429717
3.623013341
4.194499376
4.720739309
5.736001606
9.507115173
42.81017116
-6550.381447
-4164.887893
-4561.585642
-6183.45403
-7827.138878
-8894.913706
-9397.690727
-9480.535415
-9283.094474
-8911.32448
-8439.517312
-7917.968909
-7379.97284
-6847.072377
-6332.77961
-5845.157867
-5388.60266
-4965.065969
-4574.895395
-4217.407161
-3891.275401
-3594.795085
0.04701536248
0.06236700902
0.06794893687
0.08066642772
0.09564725803
0.1112116552
0.1272290895
0.1436787052
0.1603409415
0.176908977
0.1932249722
0.2089258175
0.2236717368
0.2370994929
0.2488369525
0.2585337761
0.2659152397
0.2708687913
0.2735780498
0.2747240632
0.2757787702
0.2794194282
0.2900919245
0.3147383628
0.3636675546
0.4514604596
0.5976095753
0.8261664262
1.162958161
1.628807955
2.228298593
2.934966682
3.611833122
3.746113563
2.895331458
1.664643341
-4.109787411
-723.8163405
-21272.31788
13156.07627
584.9062216
-4204.242559
-7560.427441
-9429.023445
-10239.31879
-10380.08104
-10122.7434
-9642.315682
-9048.283801
-8408.092615
-7762.653468
-7136.175139
-6542.348954
-5988.25485
-5476.843323
-5008.519943
-4582.15879
-4195.749704
-3846.809502
-3532.640863
0.02945619247
0.0427184455
0.05036770656
0.0628827316
0.07715978918
0.09204769972
0.1074072683
0.1230452969
0.1386860484
0.1540669488
0.1688564564
0.1826078615
0.1948403567
0.2050023137
0.2124709631
0.2165677703
0.2165944351
0.2119016791
0.2020098448
0.186808927
0.1668771234
0.1439712863
0.121757198
0.1068559275
0.1102745033
0.1492257471
0.2491202041
0.4448863736
0.7801892511
1.303952802
2.059846724
3.060331441
4.074802918
4.104299169
2.310966886
-2.027506401
-17.70169389
-197.6931072
25927.41579
61573.48642
7098.944203
-3657.997533
-8781.304888
-11021.43386
-11750.47997
-11677.72658
-11185.48243
-10486.91107
-9703.209641
-8903.464336
-8126.373335
-7392.625832
-6712.186314
-6088.669359
-5521.995949
-5010.011798
-4549.470222
-4136.623449
-3767.572141
-3438.466154
0.01040058979
0.02159401164
0.03185461645
0.04448155052
0.05832461258
0.07282753458
0.08776757206
0.1028982352
0.117897769
0.1324470737
0.1461010849
0.1583420364
0.1685487662
0.1759724778
0.1797186735
0.1787378348
0.1718307102
0.1576808872
0.1349356143
0.1023682389
0.05917507018
0.005488109298
-0.05677799503
-0.1225775024
-0.1816451274
-0.215409084
-0.1928244755
-0.0656116497
0.2377400256
0.8229281336
1.810435441
3.254602584
4.920767151
6.08165337
10.88760615
-8.924556979
6727.653945
68143.53201
66318.27396
162107.9113
2453.834527
-8745.390468
-12885.36075
-14124.92718
-14063.44068
-13394.86291
-12454.5487
-11416.63656
-10374.1794
-9376.181798
-8446.749756
-7595.76861
-6825.101188
-6132.240406
-5512.459421
-4960.061179
-4469.086952
-4033.701828
-3648.389564
-3308.037358
-0.01028841543
-0.001040148175
0.01243727094
0.02553169639
0.03923963195
0.0536951744
0.06857335146
0.08354832803
0.09829204171
0.1124158061
0.1254356877
0.1367517432
0.1456161142
0.1510931186
0.152017463
0.1469517342
0.1341474779
0.1115197799
0.07665383418
0.02687711661
-0.04054279336
-0.127973143
-0.2365977466
-0.3649361978
-0.5062331567
-0.6439863935
-0.7453276099
-0.7525951373
-0.5675417426
-0.02234056672
1.022905872
2.587925051
5.442521461
12.29946971
34.66315272
-834.6340364
25850.0342
57678.09566
75123.2622
153740.3371
-21299.12367
-20892.10161
-19889.82054
-18529.47345
-16983.49269
-15383.7357
-13821.2129
-12350.90712
-11000.68964
-9780.333734
-8688.675331
-7718.597721
-6860.209483
-6102.731737
-5435.540245
-4848.686629
-4333.114678
-3880.707435
-3484.247025
-3137.334923
-0.03263246284
-0.025176216
-0.007850660282
0.006102881896
0.02001269204
0.03476949487
0.04995333139
0.06517025935
0.08008042452
0.09428234903
0.1072651337
0.1183750292
0.1267695548
0.1313594453
0.1307395679
0.1231071441
0.1061669007
0.07702601064
0.03208855339
-0.03302634939
-0.1234920826
-0.245106851
-0.4037528071
-0.6041290195
-0.8470443428
-1.124197862
-1.410222964
-1.652121917
-1.747400977
-1.495255997
-0.8709273117
0.2794336669
8.392197776
40.71880715
-1560.839878
-2128.825855
21341.82288
39429.9844
60341.49706
154327.2659
-46140.63088
-33634.03748
-27252.34641
-23119.65341
-19957.32093
-17335.37432
-15095.66011
-13165.08939
-11497.33835
-10055.78821
-8809.020158
-7729.737502
-6794.407337
-5982.936896
-5278.283275
-4666.030494
-4133.977779
-3671.766288
-3270.55626
-2922.756083
-0.05666236827
-0.05082976856
-0.02898300858
-0.0137408164
0.0007395662606
0.01617254818
0.03204615546
0.04791299482
0.06344904006
0.07827212298
0.09187914955
0.1036044602
0.1125613562
0.1175658852
0.117040612
0.1088919887
0.09035331028
0.05778477181
0.006424203289
-0.0699118232
-0.1791610219
-0.3313067252
-0.5384224167
-0.814042419
-1.171359035
-1.619435941
-2.154739643
-2.738086368
-3.241178952
-3.366922923
-3.389392803
-2.301734403
9.811516388
-759.908392
244.1432596
4080.301981
9274.050453
23039.01954
34192.81415
132518.8655
-53140.15733
-40250.91864
-32365.87423
-26739.47289
-22390.76329
-18904.78056
-16060.96384
-13716.45203
-11767.78619
-10136.46063
-8761.879644
-7596.924843
-6604.745526
-5756.325311
-5028.62553
-4403.174372
-3864.999722
-3401.823765
-3003.455728
-2661.333376
-0.08243965986
-0.07804146186
-0.05094339742
-0.03393624678
-0.01848699674
-0.001989237815
0.01496051707
0.03188157352
0.04849941903
0.06449109447
0.07940685213
0.09262392794
0.1032791159
0.1101784267
0.1116788921
0.1055304242
0.08866047906
0.05687876556
0.004471624479
-0.07635816168
-0.1962565384
-0.3696519671
-0.615707717
-0.9592242812
-1.432967136
-2.079030604
-2.929042135
-3.919070614
-4.730632885
-4.579178896
-6.340449239
-13.39811969
1020.755506
3081.523201
8447.409437
2293.53912
7646.475034
12277.2298
23697.48229
113169.0778
-46637.87361
-41863.81314
-35220.75901
-29081.60063
-23961.4788
-19832.02079
-16526.96268
-13871.96874
-11720.89381
-9960.388549
-8505.112993
-7291.336758
-6271.324667
-5408.993354
-4676.719217
-4053.041839
-3521.023044
-3067.073425
-2680.109592
-2350.945096
-0.1101147298
-0.1069225096
-0.07373377669
-0.05441263919
-0.0375638944
-0.01961244168
-0.001222811039
0.01712046627
0.03523403471
0.05290130341
0.06977923555
0.08535206545
0.09886097785
0.1092077099
0.1148252241
0.1134983178
0.1021088256
0.07626872187
0.0297820487
-0.04616825316
-0.1642461017
-0.3426080326
-0.6071813941
-0.9968681771
-1.578273488
-2.452813996
-3.667436902
-5.073000336
-6.975041827
-8.634267691
-8.296915427
3173.653262
5339.923808
8795.985395
9569.792738
7984.754025
7197.823594
3561.945817
-2758.128442
85878.15746
-51226.59303
-45345.69746
-37571.74804
-30404.69183
-24541.5305
-19934.86113
-16342.8974
-13523.5665
-11283.43179
-9479.086806
-8006.847068
-6791.984591
-5780.223071
-4931.60429
-4216.216218
-3611.250823
-3098.977269
-2665.337398
-2298.964202
-1990.489705
-0.1400192427
-0.137706554
-0.0973711491
-0.07506746436
-0.05635119297
-0.03657571509
-0.01643815173
0.003617852317
0.02355207877
0.04330742486
0.06270452974
0.08140186104
0.09883092795
0.1141050949
0.1258948894
0.1322507067
0.1303445661
0.1160874131
0.08354442854
0.02400313605
-0.07548920855
-0.2341418639
-0.4808815303
-0.8667410111
-1.498331601
-2.525522355
-3.852683888
-5.208097143
-11.434151
-42.48974493
4111.925485
10397.2627
14190.39843
15128.23009
14893.41174
13065.47368
9717.712559
1694.025225
-7223.968083
58099.42834
-61414.28525
-50720.47553
-39315.84388
-30423.88816
-23865.09027
-19022.99587
-15386.19934
-12595.96812
-10410.18008
-8665.679843
-7251.203941
-6089.531538
-5125.978786
-4320.984585
-3645.290624
-3076.76806
-2598.297898
-2196.334778
-1859.920183
-1579.996532
-0.172691513
-0.1706683714
-0.1217853124
-0.09568711156
-0.07461574911
-0.052702412
-0.03061290579
-0.008683342713
0.01325315254
0.03535512181
0.05766138336
0.08006643726
0.1022711741
0.123709302
0.143444902
0.1600248949
0.1712628137
0.1739177032
0.1632049097
0.1320249439
0.06980208812
-0.03890068261
-0.2166058238
-0.5052432558
-0.9929147523
-1.703556425
-2.026152673
-2.100861305
-23.04067429
2181.399241
35041.1617
32118.70074
26016.19067
22643.73587
21133.78637
19592.20944
15325.6249
2821.122402
-21060.33104
40463.07761
-93347.18465
-56806.08596
-38547.26382
-28109.92668
-21471.94662
-16905.83276
-13582.93599
-11063.9266
-9095.640596
-7522.248581
-6242.75739
-5188.958888
-4313.176034
-3581.064704
-2967.193725
-2452.232937
-2021.111545
-1661.783715
-1364.385301
-1120.650224
-0.2090071146
-0.205990458
-0.1466053908
-0.1157881748
-0.09193763426
-0.0677092711
-0.04364043447
-0.01987093237
0.004047084368
0.02854144235
0.05391314714
0.08033892533
0.1078475228
0.1362743079
0.1651952975
0.1938310445
0.2209060601
0.2444434196
0.2614660786
0.2675476176
0.2561076847
0.2175837393
0.1395269522
0.007284160411
-0.2038034487
-0.5192618087
-0.6936031127
1.051799662
15.32160195
16537.566
48286.71209
55677.6653
35125.91214
28307.57346
26678.49603
27763.64811
27780.21218
9085.873476
-19278.69962
49340.03799
-76875.96795
-44609.49474
-29957.19879
-21996.60813
-17006.93679
-13545.4526
-10975.78528
-8981.161698
-7386.207157
-6084.916546
-5008.618232
-4110.370644
-3356.701831
-2722.904507
-2190.18672
-1743.858459
-1372.131707
-1065.303302
-815.1871698
-614.7159634
-0.2533151896
-0.2459520696
-0.1716914665
-0.1345972517
-0.1076375462
-0.08116588567
-0.05536291837
-0.03005519534
-0.004436142738
0.02223383379
0.05054192904
0.08096763604
0.1138937065
0.1495954829
0.1882187462
0.2297450599
0.2739409837
0.3202890726
0.3679046115
0.4153862066
0.4602646005
0.4976658052
0.520255547
0.5221748928
0.4706820262
0.1332422182
-1.101261549
-2.669827392
304.9004142
26774.31531
35740.60072
30815.29001
30500.98691
28783.44644
28934.64002
33391.24432
39735.61188
52876.72233
26337.7003
26486.91655
-6542.907906
-14798.80407
-14675.42849
-12912.37028
-11013.73985
-9293.255605
-7793.590857
-6498.7278
-5383.109842
-4422.592278
-3596.428382
-2887.203688
-2280.356215
-1763.664839
-1326.790264
-960.882491
-658.253587
-412.1107068
-216.3442155
-65.3650777
-0.3242368904
-0.3010778759
-0.1985875882
-0.1511566143
-0.1206658158
-0.09242241817
-0.06555251024
-0.03936975587
-0.01264238106
0.01569162396
0.04649546823
0.08053675131
0.1185385343
0.1612040566
0.2092372832
0.2633684058
0.3243960794
0.3932773758
0.4713365244
0.5606100242
0.6639370404
0.7849388224
0.9349291489
1.154714925
1.455919287
1.455849916
0.5734014297
4.856748643
1472.936335
27794.4013
31212.96524
28996.98094
27260.81424
27478.28647
29980.14936
39396.91328
89115.33535
90790.34689
50565.56566
61342.52639
25226.40674
6632.679522
-1033.340887
-3963.704686
-4842.39675
-4820.239151
-4406.594789
-3837.048848
-3224.912188
-2625.914396
-2067.299348
-1561.659584
-1113.854565
-724.6084486
-392.4270723
-114.6277513
112.1104866
291.4581863
427.2860338
523.5860339
-0.4414627926
-0.3679024827
-0.2215990133
-0.1617749403
-0.1286941788
-0.1002884214
-0.07384810388
-0.04798476666
-0.02110504233
0.008080633841
0.04063642746
0.07755750853
0.1198510263
0.1685856074
0.2249402262
0.2902683558
0.3662016678
0.4548538195
0.559260103
0.6841526966
0.836740862
1.02881611
1.294188303
1.733998019
2.398535448
2.592946873
2.01013805
21.07673317
1484.828406
26633.71477
28172.54638
26902.8245
25556.34711
24111.47516
27055.06802
72453.00451
89922.46186
91303.37815
92510.99515
88911.4196
33314.4781
17121.3082
7873.090047
2933.289155
428.096658
-738.7094919
-1175.500342
-1217.960658
-1053.575713
-788.8538086
-485.1950952
-178.2808032
111.2059293
371.512559
596.3181128
782.6879829
929.8650606
1038.546859
1110.444055
1147.999582
-0.4186900207
-0.2941223319
-0.1932036155
-0.1526645246
-0.1267717977
-0.1030747321
-0.07999235675
-0.05627621503
-0.03052678201
-0.001540394798
0.03178185321
0.07055702115
0.1159878501
0.169411584
0.2323508497
0.3065775933
0.3942103831
0.4978994546
0.6212290487
0.7694381498
0.9501915552
1.176205578
1.48533433
1.990584591
2.754038887
3.094275577
3.261417745
26.48132537
349.0306409
25106.7166
25694.05873
24763.5018
23750.6251
22626.54042
20125.03658
74199.41135
90335.40189
92225.03908
92829.27513
46352.93227
33098.53058
20627.97452
12469.19588
7395.674593
4360.203708
2612.804845
1661.26355
1194.282222
1017.423715
1009.26993
1093.653514
1222.525464
1365.446477
1503.134552
1623.498933
1719.19645
1786.114859
1822.420048
1827.943678
1803.772284
-0.1533353099
-0.1464913506
-0.1373442538
-0.1298494965
-0.1181149621
-0.1029788878
-0.08550649921
-0.06543065222
-0.04198166233
-0.0142626612
0.01873326616
0.05815343881
0.105311881
0.1617186325
0.2291116141
0.3094876372
0.4051301433
0.5186377567
0.6529800621
0.8115317735
0.9976450975
1.214211381
1.47140052
1.808421683
2.210006761
2.186254074
1.523899177
10.09195093
50.75483208
22412.74009
23357.79077
22796.07355
22089.06231
21119.25269
19706.45093
26716.31285
86334.63602
65457.54414
59654.61093
38162.59356
27550.86599
19829.15142
13977.90752
9820.009635
7004.238741
5168.461592
4013.467407
3316.402212
2919.718325
2714.85624
2628.013724
2609.282619
2624.91989
2652.080176
2675.346563
2684.483974
2672.97781
2637.074707
2575.138207
2487.193288
-0.06290459772
-0.08332421862
-0.1054263128
-0.11398483
-0.112399474
-0.1048896993
-0.09307740647
-0.07715275916
-0.0567558742
-0.0312227498
0.0003583632281
0.0391285303
0.08646014139
0.1439698727
0.2135323306
0.2972787643
0.3975570029
0.5168069153
0.657273443
0.8203635062
1.005031308
1.203907704
1.396422509
1.538441102
1.531849829
1.127183032
-0.486190589
-7.415974116
-36.95164716
12537.36683
21170.68483
21016.393
20583.11869
19663.52248
18088.09852
15404.79714
25477.50607
23468.84248
25985.46596
28621.71173
20263.98122
17164.81183
13793.27311
10902.21768
8668.280007
7043.335332
5907.742193
5138.140835
4630.191093
4302.422947
4094.262498
3961.67138
3872.870214
3804.919702
3741.323144
3670.415029
3584.237602
3477.762722
3348.341101
3195.280763
-0.04045940091
-0.06508301609
-0.09278853095
-0.1076770534
-0.1126703742
-0.1111680262
-0.1044481023
-0.09277309037
-0.07593914485
-0.05339649258
-0.02429503807
0.01249109518
0.05836127631
0.1149983763
0.1843822337
0.2687858019
0.3707317419
0.4928611333
0.6376367304
0.8067397426
0.9996886648
1.210162496
1.418394288
1.585620877
1.657527197
1.462473488
0.1325824795
-4.678332767
-13.31558617
3408.458345
20845.38377
20236.34281
19619.3877
18974.86618
18522.75138
18804.93525
21918.07322
20503.44973
24016.661
23599.85015
15412.73438
14772.838
13128.15539
11327.30795
9723.328253
8428.857481
7436.025156
6698.227809
6160.482268
5770.381988
5484.941925
5270.270185
5099.969844
4953.405263
4814.611217
4671.615355
4515.794824
4341.397399
4145.182622
3926.085876
-0.03881127251
-0.06339401699
-0.09158546732
-0.109707288
-0.1193204504
-0.1226489698
-0.1205309618
-0.1131439486
-0.1003029133
-0.08150026435
-0.05592558663
-0.02247723973
0.0202425883
0.07394624896
0.140686521
0.2228819328
0.3233252924
0.4451662165
0.5918607034
0.7671238001
0.9747371405
1.217297699
1.495690171
1.830313923
2.314092062
2.878548879
2.276646119
1.681137944
39.75345153
114.9417164
22342.20312
19516.70134
18548.14197
18075.76757
17801.09045
17825.99626
18317.74627
17008.23659
16886.06258
21580.8391
12625.07236
13388.52932
12619.20244
11555.53045
10468.86755
9512.741155
8709.273153
8058.262976
7543.128176
7133.680812
6804.853004
6534.497528
6303.333673
6094.120219
5892.101023
5685.640296
5465.928942
5226.849365
4964.905999
4678.967578
-0.04647274192
-0.070416422
-0.09856832967
-0.1189129739
-0.1320970875
-0.139542191
-0.1417341239
-0.1387239005
-0.1302951558
-0.1159563751
-0.09493578631
-0.06617697256
-0.02832264042
0.02031490685
0.08179378914
0.1586009723
0.2537177916
0.3707151334
0.5139104095
0.688711036
0.9021569269
1.16300588
1.483084315
1.899449015
2.530653828
3.397740294
3.508252625
2.898148687
23.32903832
43.37726814
6524.861678
17816.24659
17445.53297
17141.34881
16899.03176
16768.39107
16632.26023
15486.63197
14452.97038
15039.97698
14374.19173
13536.55927
12406.03691
11806.74388
11083.87039
10443.96642
9830.063313
9282.422734
8820.086667
8416.360047
8066.291723
7759.533198
7484.747036
7227.640858
6974.032343
6712.915876
6435.431202
6135.165061
5808.624345
5454.857228
-0.05987127484
-0.08368487772
-0.1120529046
-0.1342797999
-0.150529094
-0.1617307284
-0.1681229685
-0.1696480521
-0.1660585672
-0.1568835104
-0.1414061989
-0.1186477305
-0.08734312306
-0.04590399679
0.007632694842