/*--------------------------------*- C++ -*----------------------------------*\
  =========                 |
  \\      /  F ield         | OpenFOAM: The Open Source CFD Toolbox
   \\    /   O peration     | Website:  https://openfoam.org
    \\  /    A nd           | Version:  10
     \\/     M anipulation  |
\*---------------------------------------------------------------------------*/
FoamFile
{
    format      ascii;
    class       volScalarField;
    location    "0.0005";
    object      pVap;
}
// * * * * * * * * * * * * * * * * * * * * * * * * * * * * * * * * * * * * * //

dimensions      [1 -1 -2 0 0 0 0];

internalField   nonuniform List<scalar> 
3600
(
2.432071276e-17
2.61518962e-17
2.982672768e-17
3.558520355e-17
4.38277813e-17
5.50697032e-17
6.989474937e-17
8.884848976e-17
1.121730324e-16
1.394387102e-16
1.691892294e-16
1.987248379e-16
2.241974838e-16
2.411686284e-16
2.456383247e-16
2.353109451e-16
2.106263845e-16
1.750259311e-16
1.341641266e-16
9.426909449e-17
6.03292529e-17
3.491562984e-17
1.809685784e-17
8.265621123e-18
3.257267783e-18
1.082958741e-18
2.970927334e-19
6.560392104e-20
1.131574148e-20
1.466168265e-21
1.356461602e-22
8.393190136e-24
3.192594032e-25
6.697223944e-27
6.730675654e-29
2.695508015e-31
3.37156037e-34
9.501257344e-38
3.864489714e-42
1.221695255e-47
1.203129757e-47
1.0173462e-47
7.349175317e-48
4.55850845e-48
2.445685659e-48
1.145529512e-48
4.735714231e-49
1.749224932e-49
5.849349698e-50
1.795415884e-50
5.130451825e-51
1.384342705e-51
3.576975213e-52
8.972007012e-53
2.213253452e-53
5.436094951e-54
1.344699499e-54
3.385228504e-55
8.754990058e-56
2.345427869e-56
2.607264034e-17
2.809297506e-17
3.215875965e-17
3.854974902e-17
4.771929631e-17
6.02502126e-17
7.685818666e-17
9.83475438e-17
1.25221487e-16
1.571950703e-16
1.927823175e-16
2.290002717e-16
2.613963906e-16
2.846088484e-16
2.935228249e-16
2.848021669e-16
2.582655267e-16
2.174417719e-16
1.688591582e-16
1.201844232e-16
7.794416384e-17
4.581769964e-17
2.42600645e-17
1.135997258e-17
4.583790338e-18
1.555290392e-18
4.348647836e-19
9.790690394e-20
1.726378056e-20
2.293539618e-21
2.181988937e-22
1.391800548e-23
5.467195629e-25
1.185338617e-26
1.23095625e-28
5.084468944e-31
6.532000722e-34
1.877171477e-37
7.699448752e-42
2.41309397e-47
2.376368988e-47
2.001561457e-47
1.434845228e-47
8.80122049e-48
4.655033767e-48
2.143699031e-48
8.693695091e-49
3.144416033e-49
1.028172494e-49
3.082709559e-50
8.598330837e-51
2.263562706e-51
5.704988347e-52
1.395735289e-52
3.358741548e-53
8.04978372e-54
1.943783792e-54
4.77922136e-55
1.207906738e-55
3.164510983e-56
2.987495339e-17
3.232421524e-17
3.728699454e-17
4.51453254e-17
5.646694146e-17
7.193510002e-17
9.254272253e-17
1.199169773e-16
1.553234731e-16
1.988784073e-16
2.491392372e-16
3.025887305e-16
3.534290081e-16
3.94060871e-16
4.164691736e-16
4.143714716e-16
3.854983104e-16
3.330241989e-16
2.65270538e-16
1.934803919e-16
1.284699819e-16
7.752253046e-17
4.289716811e-17
2.11883798e-17
8.969995477e-18
3.159777789e-18
9.149755925e-19
2.133944626e-19
3.92601942e-20
5.477185429e-21
5.504884644e-22
3.729262566e-23
1.561743235e-24
3.616100903e-26
4.011247987e-28
1.764209258e-30
2.394965864e-33
7.177967886e-37
3.006700226e-41
9.310910741e-47
9.168850364e-47
7.66272912e-47
5.40989088e-47
3.245630716e-47
1.668730702e-47
7.430954641e-48
2.901350027e-48
1.006750378e-48
3.149549711e-49
9.016446912e-50
2.39784714e-50
6.013324394e-51
1.443091015e-51
3.361428198e-52
7.703413045e-53
1.759140075e-53
4.050436733e-54
9.505355723e-55
2.295632821e-55
5.754468045e-56
3.636582242e-17
3.959701653e-17
4.624055376e-17
5.692066974e-17
7.241022093e-17
9.329122487e-17
1.208440745e-16
1.594080015e-16
2.121620675e-16
2.800017029e-16
3.620122798e-16
4.542008796e-16
5.485653006e-16
6.331014957e-16
6.933379434e-16
7.155599066e-16
6.910744004e-16
6.19986277e-16
5.125988481e-16
3.872296009e-16
2.648485034e-16
1.628481885e-16
9.267549363e-17
4.82239171e-17
2.225837104e-17
8.604243168e-18
2.665450019e-18
6.52424762e-19
1.275891858e-19
1.911591855e-20
2.083024721e-21
1.543640456e-22
7.115639692e-24
1.817500537e-25
2.229007072e-27
1.080101583e-29
1.598621808e-32
5.131020258e-36
2.234483224e-40
6.859579254e-46
6.754605644e-46
5.579818531e-46
3.850829251e-46
2.23547156e-46
1.102188252e-46
4.67077074e-47
1.724564315e-47
5.630559528e-48
1.650989338e-48
4.417232215e-49
1.095676898e-49
2.559561565e-50
5.718013323e-51
1.239687518e-51
2.645075992e-52
5.627545641e-53
1.208448916e-53
2.648364174e-54
5.982556931e-55
1.405276772e-55
4.660620923e-17
5.115230041e-17
6.079656837e-17
7.640778407e-17
9.743464648e-17
1.256110288e-16
1.66682193e-16
2.270917848e-16
3.153847621e-16
4.338897644e-16
5.845538387e-16
7.645974431e-16
9.636958112e-16
1.162220142e-15
1.331987607e-15
1.440725039e-15
1.460221844e-15
1.376097958e-15
1.195229142e-15
9.467061367e-16
6.743374982e-16
4.23364257e-16
2.383243332e-16
1.261423379e-16
6.102640989e-17
2.551992623e-17
8.807715796e-18
2.386676889e-18
4.981257344e-19
8.090814497e-20
9.773279507e-21
8.319746168e-22
4.550820882e-23
1.388798917e-24
1.992017373e-26
1.104715671e-28
1.844636513e-31
6.543468572e-35
3.034242872e-39
9.332323843e-45
9.189098335e-45
7.47474876e-45
5.005787458e-45
2.782609909e-45
1.298593944e-45
5.158423114e-46
1.771274736e-46
5.344777919e-47
1.441535189e-47
3.53516331e-48
8.017733291e-49
1.709841757e-49
3.484056054e-50
6.888071721e-51
1.340584949e-51
2.603587126e-52
5.10956236e-53
1.024951515e-53
2.123240444e-54
4.58367304e-55
6.216835594e-17
6.870928057e-17
8.258767989e-17
1.032255997e-16
1.322509804e-16
1.750734328e-16
2.389694832e-16
3.425819192e-16
5.054088298e-16
7.316037871e-16
1.034703906e-15
1.421150962e-15
1.88333671e-15
2.392246203e-15
2.893191185e-15
3.308892743e-15
3.553186573e-15
3.554674405e-15
3.283238613e-15
2.76881216e-15
2.10224823e-15
1.409694512e-15
8.141622692e-16
4.276248255e-16
2.060849608e-16
8.795135693e-17
3.191140422e-17
9.450797925e-18
2.148859372e-18
3.713761173e-19
4.762676987e-20
4.378288534e-21
2.720676037e-22
1.05345465e-23
2.170119773e-25
1.708512385e-27
3.458656748e-30
1.408658921e-33
7.170494719e-38
2.246333073e-43
2.211779612e-43
1.764804759e-43
1.138479681e-43
5.99824897e-44
2.616771347e-44
9.60730182e-45
3.021606863e-45
8.292922018e-46
2.02363796e-46
4.472645245e-47
9.117410865e-48
1.744476727e-48
3.185979557e-49
5.643450814e-50
9.842702567e-51
1.714214116e-51
3.02028028e-52
5.447777717e-53
1.016771333e-53
1.982281036e-54
8.522609742e-17
9.439328223e-17
1.131149321e-16
1.414057322e-16
1.860356471e-16
2.54201207e-16
3.634285338e-16
5.615461442e-16
8.716947291e-16
1.327516216e-15
1.977360717e-15
2.865331299e-15
4.01480465e-15
5.404297525e-15
6.942876902e-15
8.455672016e-15
9.694578974e-15
1.038579432e-14
1.030441552e-14
9.369815437e-15
7.717693191e-15
5.677352425e-15
3.680932902e-15
2.086429711e-15
1.039386804e-15
4.573619938e-16
1.724585334e-16
5.377993548e-17
1.324079293e-17
2.431082512e-18
3.176094825e-19
2.899308875e-20
1.799136868e-21
7.264574693e-23
1.747967407e-24
2.17394634e-26
8.592459072e-29
4.829021583e-32
2.800614707e-36
9.093981559e-42
8.953868446e-42
6.979256617e-42
4.30396434e-42
2.127258294e-42
8.571597275e-43
2.870996389e-43
8.159446665e-44
2.009047046e-44
4.374733093e-45
8.594666265e-46
1.553049563e-46
2.629181411e-47
4.243715189e-48
6.639954492e-49
1.022942915e-49
1.574451177e-50
2.45385541e-51
3.92069912e-52
6.493895893e-53
1.12607547e-53
1.193674319e-16
1.326934965e-16
1.600271069e-16
2.051693399e-16
2.785260508e-16
3.967338414e-16
6.095868966e-16
9.872773107e-16
1.595737219e-15
2.550946653e-15
4.007121385e-15
6.144905575e-15
9.139979264e-15
1.309712742e-14
1.796063394e-14
2.341461076e-14
2.882064194e-14
3.325357957e-14
3.566170214e-14
3.523499222e-14
3.176240634e-14
2.583053423e-14
1.873759992e-14
1.203827779e-14
6.802436334e-15
3.342285471e-15
1.390276297e-15
4.737240613e-16
1.286916922e-16
2.642435582e-17
3.827129358e-18
3.677310104e-19
2.175068247e-20
7.566899497e-22
1.594378582e-23
2.050107112e-25
1.378493115e-27
2.064577819e-30
1.727232792e-34
5.852790744e-40
5.762437945e-40
4.366812897e-40
2.552352859e-40
1.170653189e-40
4.305335451e-41
1.299822717e-41
3.299258223e-42
7.206715651e-43
1.38542179e-43
2.394521589e-44
3.79696874e-45
5.630612502e-46
7.951256648e-47
1.087650725e-47
1.464469105e-48
1.970222027e-49
2.685529421e-50
3.756371901e-51
5.454589315e-52
8.308207701e-53
1.710665677e-16
1.921411257e-16
2.368990854e-16
3.142864564e-16
4.437770085e-16
6.697250748e-16
1.081132167e-15
1.800838327e-15
3.030533559e-15
5.087354892e-15
8.440266524e-15
1.373103795e-14
2.174324139e-14
3.327075904e-14
4.886370835e-14
6.84218362e-14
9.072680424e-14
1.130907226e-13
1.315830739e-13
1.418202394e-13
1.402916939e-13
1.262026657e-13
1.021196935e-13
7.366243739e-14
4.684472575e-14
2.58663394e-14
1.212613026e-14
4.691916871e-15
1.449244188e-15
3.412770694e-16
5.780015186e-17
6.574173742e-18
4.591996687e-19
1.728705036e-20
3.044500704e-22
2.692728473e-24
1.604521441e-26
5.206949616e-29
1.444803624e-32
5.642828869e-38
5.55619499e-38
4.067844493e-38
2.229878041e-38
9.374639776e-39
3.108431895e-39
8.36471561e-40
1.877693115e-40
3.60802018e-41
6.078830907e-42
9.183229481e-43
1.27020035e-43
1.64044198e-44
2.014944829e-45
2.395032851e-46
2.800204346e-47
3.269927096e-48
3.868518614e-49
4.698165894e-50
5.92810274e-51
7.856289205e-52
2.48273614e-16
2.81772364e-16
3.554304309e-16
4.893631472e-16
7.254603356e-16
1.147882926e-15
1.918036964e-15
3.317972985e-15
5.839672178e-15
1.031973446e-14
1.811848153e-14
3.133192839e-14
5.291572736e-14
8.662821783e-14
1.365267032e-13
2.057475495e-13
2.944875825e-13
3.975029266e-13
5.026559347e-13
5.912519904e-13
6.417659058e-13
6.371521308e-13
5.732036399e-13
4.617646445e-13
3.291172734e-13
2.042971448e-13
1.081755834e-13
4.758857742e-14
1.682822027e-14
4.583485399e-15
9.107348711e-16
1.232812586e-16
1.039836127e-17
4.849899977e-19
1.070814002e-20
8.956744655e-23
3.189777576e-25
9.711051215e-28
7.619340327e-31
7.688780211e-36
7.569231745e-36
5.30349035e-36
2.687561203e-36
1.020131372e-36
3.009347433e-37
7.142152393e-38
1.4068875e-38
2.365186232e-39
3.479714339e-40
4.583735714e-41
5.521309634e-42
6.201973255e-43
6.617207968e-44
6.823529687e-45
6.912631681e-46
6.986843391e-47
7.148479232e-48
7.50420147e-49
8.183938612e-50
9.378054553e-51
3.585295676e-16
4.110252791e-16
5.300687872e-16
7.542958713e-16
1.164853537e-15
1.92461043e-15
3.353917286e-15
6.065620808e-15
1.121223838e-14
2.09105404e-14
3.892359915e-14
7.162358157e-14
1.291372682e-13
2.264040781e-13
3.832408756e-13
6.221069105e-13
9.619697035e-13
1.407441543e-12
1.93498434e-12
2.483148759e-12
2.953153456e-12
3.227927549e-12
3.21221831e-12
2.876087341e-12
2.288709636e-12
1.593921056e-12
9.525789543e-13
4.765158053e-13
1.933296847e-13
6.110217799e-14
1.428583183e-14
2.312034402e-15
2.375413065e-16
1.381930511e-17
3.906529234e-19
4.33257241e-21
1.37783361e-23
2.485121023e-26
3.365019033e-29
1.40241262e-33
1.380899385e-33
9.112465479e-34
4.178072036e-34
1.404013172e-34
3.630349065e-35
7.524659551e-36
1.293605416e-36
1.89871093e-37
2.440058275e-38
2.808049933e-39
2.95396037e-40
2.895317415e-41
2.692022438e-42
2.415129779e-43
2.124744621e-44
1.861478807e-45
1.64788565e-46
1.494439413e-47
1.406300291e-48
1.389498376e-49
5.070456174e-16
5.876700583e-16
7.741957222e-16
1.136118405e-15
1.821874712e-15
3.139063723e-15
5.719396117e-15
1.084927421e-14
2.111771796e-14
4.164234321e-14
8.226161555e-14
1.611591372e-13
3.103560281e-13
5.828670618e-13
1.059794146e-12
1.852837577e-12
3.09411564e-12
4.903052351e-12
7.32404086e-12
1.024360072e-11
1.331824606e-11
1.597121674e-11
1.750201576e-11
1.734115457e-11
1.534716898e-11
1.195428267e-11
8.045235775e-12
4.569846035e-12
2.126598572e-12
7.802938073e-13
2.148763374e-13
4.165735118e-14
5.230719906e-15
3.813141479e-16
1.395652468e-17
2.108115803e-19
1.033330672e-21
1.325030066e-24
1.550662688e-27
3.278192502e-31
3.235778934e-31
1.949761835e-31
7.819876506e-32
2.267214625e-32
5.055165347e-33
9.074258828e-34
1.35814731e-34
1.743443356e-35
1.966004741e-36
1.989108624e-37
1.840796137e-38
1.586510665e-39
1.295325125e-40
1.018362846e-41
7.831270107e-43
5.980403124e-44
4.601479064e-45
3.616977179e-46
2.942816903e-47
2.508814693e-48
6.934029797e-16
8.126099327e-16
1.093881493e-15
1.65403484e-15
2.75000943e-15
4.937508867e-15
9.412896162e-15
1.875456014e-14
3.849054284e-14
8.031924432e-14
1.684592142e-13
3.514988829e-13
7.230226262e-13
1.454229529e-12
2.838782696e-12
5.341126583e-12
9.621752217e-12
1.648834916e-11
2.670416639e-11
4.060367619e-11
5.755412519e-11
7.547104344e-11
9.076306712e-11
9.912018198e-11
9.71722856e-11
8.434172547e-11
6.371204345e-11
4.098634716e-11
2.183687905e-11
9.291645172e-12
3.011362724e-12
6.98971499e-13
1.072217819e-13
9.785845204e-15
4.626351282e-16
9.40825108e-18
6.578613875e-20
1.261143331e-22
1.026512383e-25
9.805311271e-29
9.565567379e-29
4.915237313e-29
1.635828968e-29
3.964828298e-30
7.503978719e-31
1.160559811e-31
1.514924454e-32
1.711422774e-33
1.70879295e-34
1.536321207e-35
1.26534787e-36
9.704155279e-38
7.039649227e-39
4.904897648e-40
3.331843026e-41
2.239039194e-42
1.509907361e-43
1.035974142e-44
7.328597876e-46
5.413042011e-47
9.101653271e-16
1.079116459e-15
1.483399648e-15
2.30651126e-15
3.970249366e-15
7.422401033e-15
1.480483115e-14
3.099397776e-14
6.709667234e-14
1.482099832e-13
3.301010467e-13
7.335445758e-13
1.611174832e-12
3.468545418e-12
7.263206352e-12
1.46899845e-11
2.850544562e-11
5.27277949e-11
9.237772514e-11
1.522889253e-10
2.346207815e-10
3.353204328e-10
4.409717039e-10
5.287193426e-10
5.718488302e-10
5.508712743e-10
4.653092879e-10
3.378581956e-10
2.05460745e-10
1.011219912e-10
3.849088861e-11
1.067455159e-11
1.99560757e-12
2.272549411e-13
1.37938975e-14
3.721531135e-16
3.48619203e-18
8.322261478e-21
2.929155546e-24
8.235932615e-26
3.65289288e-26
1.359059212e-26
3.496027844e-27
6.874691768e-28
1.093789233e-28
1.459354414e-29
1.674077216e-30
1.68342364e-31
1.508708567e-32
1.223470533e-33
9.108390764e-35
6.313817398e-36
4.132626803e-37
2.590030525e-38
1.57609054e-39
9.442629201e-41
5.647259515e-42
3.417688084e-43
2.121097532e-44
1.367451419e-45
1.141750767e-15
1.36773373e-15
1.914174236e-15
3.054485587e-15
5.436206793e-15
1.057326418e-14
2.205621706e-14
4.851051152e-14
1.107703239e-13
2.589973175e-13
6.125015808e-13
1.449158647e-12
3.397115358e-12
7.822199899e-12
1.755385919e-11
3.811695296e-11
7.954932545e-11
1.585317114e-10
2.997723238e-10
5.344084916e-10
8.922316192e-10
1.385319145e-09
1.985079087e-09
2.603054575e-09
3.093583488e-09
3.294042433e-09
3.098584505e-09
2.528982368e-09
1.748569874e-09
9.91724735e-10
4.418132517e-10
1.459365482e-10
3.31520315e-11
4.700849513e-12
3.663316247e-13
1.315945587e-14
1.688645722e-16
5.361131358e-19
1.521914837e-22
1.2785349e-22
1.470882273e-23
3.529801613e-24
6.772989682e-25
1.072656289e-25
1.441849024e-26
1.678448591e-27
1.717371031e-28
1.563428609e-29
1.280628408e-30
9.543754022e-32
6.544602984e-33
4.178122346e-34
2.513273505e-35
1.442259197e-36
7.996855192e-38
4.340239461e-39
2.336446331e-40
1.264182869e-41
6.966536831e-43
3.961205637e-44
1.354863579e-15
1.636552954e-15
2.328882226e-15
3.810352472e-15
7.004898499e-15
1.416338866e-14
3.08827284e-14
7.133351857e-14
1.717667357e-13
4.250337805e-13
1.0670387e-12
2.687036498e-12
6.719452193e-12
1.653754899e-11
3.973620797e-11
9.253054844e-11
2.073935479e-10
4.445196598e-10
9.053622687e-10
1.74120463e-09
3.141820937e-09
5.283369511e-09
8.221459253e-09
1.174716968e-08
1.527891799e-08
1.7906805e-08
1.867623699e-08
1.705639825e-08
1.334557394e-08
8.680725955e-09
4.503527937e-09
1.762828511e-09
4.846836988e-10
8.561323333e-11
8.664969639e-12
4.267786476e-13
8.016282416e-15
4.822156396e-17
7.376786897e-19
4.156046353e-20
4.054103281e-21
6.990703654e-22
1.045254572e-22
1.370741002e-23
1.593879707e-24
1.655697926e-25
1.544923421e-26
1.301604141e-27
9.959999489e-29
6.970849233e-30
4.498577311e-31
2.70131387e-32
1.524430074e-33
8.171898288e-35
4.208812561e-36
2.107674921e-37
1.039069747e-38
5.107673235e-40
2.536109166e-41
1.288625479e-42
1.505548432e-15
1.833341462e-15
2.652084105e-15
4.446211439e-15
8.437009358e-15
1.772227043e-14
4.036865666e-14
9.788184087e-14
2.484777061e-13
6.505993469e-13
1.733592583e-12
4.645433128e-12
1.238807692e-11
3.257208907e-11
8.374088951e-11
2.089293856e-10
5.023462132e-10
1.156369177e-09
2.532420134e-09
5.243526866e-09
1.02012568e-08
1.852936397e-08
3.121516564e-08
4.842954512e-08
6.866659619e-08
8.819210123e-08
1.014992208e-07
1.031960988e-07
9.08708879e-08
6.736890247e-08
4.040443074e-08
1.857534745e-08
6.122108464e-09
1.341047727e-09
1.78915047e-10
1.254940629e-11
3.169217909e-13
7.702406441e-16
6.732026962e-16
9.194870081e-18
6.911043799e-19
9.453229603e-20
1.173343686e-20
1.333707146e-21
1.391180449e-22
1.330169529e-23
1.163790866e-24
9.311464533e-26
6.821737394e-27
4.591328311e-28
2.85339447e-29
1.648306434e-30
8.920561283e-32
4.563762031e-33
2.229163098e-34
1.050806329e-35
4.83562373e-37
2.198757859e-38
1.00032492e-39
4.612272991e-41
1.557523598e-15
1.911743716e-15
2.810035605e-15
4.82436858e-15
9.443546246e-15
2.059501837e-14
4.898239677e-14
1.246345682e-13
3.334916854e-13
9.239467503e-13
2.613258013e-12
7.451589291e-12
2.118914185e-11
5.950880421e-11
1.6364635e-10
4.372254942e-10
1.126880991e-09
2.783120614e-09
6.545122498e-09
1.456700369e-08
3.049714526e-08
5.969615937e-08
1.0857881e-07
1.823357577e-07
2.807801912e-07
3.934826024e-07
4.972245e-07
5.596163292e-07
5.51006966e-07
4.620165457e-07
3.170741006e-07
1.686594573e-07
6.517703049e-08
1.728353742e-08
3.046964832e-09
3.385081987e-10
1.919120141e-11
5.143581359e-13
4.278985585e-14
1.20708984e-15
7.245422122e-17
8.295478938e-18
9.084838576e-19
9.425159952e-20
9.200875825e-21
8.390131642e-22
7.098643962e-23
5.545698448e-24
3.991462084e-25
2.647463919e-26
1.622358573e-27
9.225468378e-29
4.897081183e-30
2.44430246e-31
1.156942165e-32
5.242423557e-34
2.297980688e-35
9.854602482e-37
4.184010039e-38
1.780829546e-39
1.493054868e-15
1.846607015e-15
2.756514507e-15
4.8432968e-15
9.773476434e-15
2.211747112e-14
5.491366677e-14
1.466424733e-13
4.136012835e-13
1.212578123e-12
3.641386795e-12
1.105239251e-11
3.352240966e-11
1.00584172e-10
2.958955223e-10
8.465517601e-10
2.338203644e-09
6.192637859e-09
1.562659903e-08
3.734264918e-08
8.401049453e-08
1.768991056e-07
3.466264441e-07
6.283336505e-07
1.04732311e-06
1.594818203e-06
2.201708356e-06
2.726901081e-06
2.981477764e-06
2.803341516e-06
2.17507037e-06
1.311802959e-06
5.727305955e-07
1.750070945e-07
3.977900529e-08
7.144120799e-09
7.048104569e-10
6.534688323e-11
2.448143964e-12
7.37460618e-14
4.240183548e-15
4.551423988e-16
4.726695879e-17
4.726068287e-18
4.510475863e-19
4.067660428e-20
3.433634656e-21
2.693102403e-22
1.953581497e-23
1.308155682e-24
8.089925659e-26
4.632019928e-27
2.465811757e-28
1.227370423e-29
5.752418685e-31
2.559389102e-32
1.091090535e-33
4.50281661e-35
1.819080096e-36
7.280101318e-38
1.320685962e-15
1.64534606e-15
2.492875229e-15
4.479765707e-15
9.313777593e-15
2.18675399e-14
5.66755688e-14
1.588360952e-13
4.724296849e-13
1.466567377e-12
4.678309067e-12
1.512441259e-11
4.896519024e-11
1.570795973e-10
4.946381193e-10
1.516109334e-09
4.488896304e-09
1.274935603e-08
3.451223199e-08
8.850401924e-08
2.137745001e-07
4.836556769e-07
1.019363984e-06
1.990463477e-06
3.581020393e-06
5.902744169e-06
8.859578757e-06
1.200325676e-05
1.447185883e-05
1.51335211e-05
1.312771742e-05
8.794200816e-06
4.167198776e-06
1.338330103e-06
3.605657827e-07
1.036242382e-07
3.015993704e-08
1.36732352e-09
7.477220296e-11
2.744239684e-12
1.515736961e-13
1.599400533e-14
1.662880651e-15
1.68026167e-16
1.631534924e-17
1.505085885e-18
1.305209728e-19
1.054976327e-20
7.900642186e-22
5.463609298e-23
3.485322852e-24
2.052894765e-25
1.119461913e-26
5.675263902e-28
2.689729161e-29
1.199894984e-30
5.079003463e-32
2.058700891e-33
8.072749323e-35
3.096772654e-36
1.074047466e-15
1.347450056e-15
2.071152427e-15
3.804653303e-15
8.145879299e-15
1.983651182e-14
5.367603027e-14
1.579515682e-13
4.957883919e-13
1.630844612e-12
5.531252607e-12
1.906819204e-11
6.59762018e-11
2.265706414e-10
7.6462691e-10
2.51350771e-09
7.984382548e-09
2.433356127e-08
7.06838412e-08
1.945192773e-07
5.043157832e-07
1.225322764e-06
2.775708255e-06
5.831439442e-06
1.129991408e-05
2.009559291e-05
3.263915292e-05
4.806821396e-05
6.344268527e-05
7.32661321e-05
7.064809673e-05
5.233042528e-05
2.608763919e-05
7.51269405e-06
1.939133532e-06
8.529134785e-07
2.52548914e-07
1.538502691e-08
1.119019405e-09
5.245369433e-11
3.304634349e-12
3.694126719e-13
4.045113367e-14
4.30067922e-15
4.394878478e-16
4.269639239e-17
3.902517889e-18
3.326796091e-19
2.628002345e-20
1.915693449e-21
1.285926061e-22
7.946607109e-24
4.527014847e-25
2.384130047e-26
1.165600775e-27
5.319225922e-29
2.281110564e-30
9.265967397e-32
3.597788028e-33
1.349006994e-34
8.007458111e-16
1.011284858e-15
1.576260787e-15
2.958546149e-15
6.521181372e-15
1.646773489e-14
4.652734138e-14
1.438523988e-13
4.769015914e-13
1.664132045e-12
6.010144336e-12
2.213050892e-11
8.198039946e-11
3.019243389e-10
1.093927705e-09
3.862911813e-09
1.318387922e-08
4.316370326e-08
1.346552506e-07
3.978762921e-07
1.107561817e-06
2.890603507e-06
7.040174509e-06
1.591593726e-05
3.3176089e-05
6.342498491e-05
0.0001109020374
0.0001764736187
0.0002531251432
0.0003206182411
0.0003433631777
0.0002857706746
0.0001562723798
3.105153072e-05
1.211676971e-05
2.785793902e-06
6.108204296e-07
8.301959494e-08
8.971529939e-09
5.835796152e-10
4.846867263e-11
5.937272291e-12
7.068439808e-13
8.140129377e-14
8.985048344e-15
9.408860133e-16
9.256780676e-17
8.485827772e-18
7.201824896e-19
5.632825866e-20
4.048841147e-21
2.671353331e-22
1.618193986e-23
9.013927773e-25
4.630472452e-26
2.202693489e-27
9.755121979e-29
4.048879966e-30
1.58734914e-31
5.931795554e-33
5.459080973e-16
6.938162244e-16
1.096102316e-15
2.101148403e-15
4.766650983e-15
1.248266595e-14
3.683584904e-14
1.197310949e-13
4.196935469e-13
1.55605639e-12
5.995667205e-12
2.36315289e-11
9.393866004e-11
3.718973731e-10
1.449970409e-09
5.512137925e-09
2.025130123e-08
7.134148567e-08
2.39324692e-07
7.599834487e-07
2.273199936e-06
6.378958167e-06
1.673276832e-05
4.065207581e-05
9.091649989e-05
0.0001866258089
0.000350528443
0.0005995355271
0.0009258669795
0.001269563378
0.001491306272
0.001412758753
0.001060247809
0.0001789963811
4.648736809e-05
1.090205551e-05
2.226706451e-06
3.889996908e-07
5.302752193e-08
5.115799833e-09
5.227117617e-10
7.014935335e-11
9.241259224e-12
1.175857996e-12
1.42856777e-13
1.640818763e-14
1.76610294e-15
1.768096304e-16
1.636402238e-17
1.393664902e-18
1.08868627e-19
7.785351162e-21
5.092958812e-22
3.049123166e-23
1.67337717e-24
8.441848317e-26
3.930411425e-27
1.697707952e-28
6.847465074e-30
2.599052076e-31
3.395953332e-16
4.341941913e-16
6.949061277e-16
1.359826321e-15
3.174155627e-15
8.620352934e-15
2.658047614e-14
9.090755478e-14
3.373866376e-13
1.33155318e-12
5.48607789e-12
2.320435066e-11
9.925338149e-11
4.235833736e-10
1.78208068e-09
7.312414864e-09
2.898801371e-08
1.100991375e-07
3.977858528e-07
1.359124707e-06
4.372278333e-06
1.320961563e-05
3.729126767e-05
9.72349438e-05
0.0002335070822
0.0005149150072
0.001038121923
0.001899847097
0.003119351722
0.004516953793
0.005542177248
0.004976448091
0.001641704802
0.0005128238365
0.0001448416212
3.518306352e-05
7.94582378e-06
1.586659993e-06
2.552396247e-07
3.132258847e-08
4.070799299e-09
6.277150664e-10
9.368784183e-11
1.338507726e-11
1.814007014e-12
2.313483123e-13
2.756503888e-14
3.048747105e-15
3.112868478e-16
2.920865309e-17
2.509819225e-18
1.96993144e-19
1.410131687e-20
9.200623585e-22
5.474081016e-23
2.974310948e-24
1.479689341e-25
6.765560114e-27
2.857380434e-28
1.121798914e-29
1.9239581e-16
2.473737708e-16
4.008590051e-16
8.003322844e-16
1.921594467e-15
5.41218536e-15
1.744590504e-14
6.284421295e-14
2.473249511e-13
1.041209736e-12
4.598665788e-12
2.093355584e-11
9.664775215e-11
4.460571831e-10
2.03142903e-09
9.023956232e-09
3.870171534e-08
1.588300114e-07
6.19079058e-07
2.278339302e-06
7.886775355e-06
2.565663376e-05
7.777601704e-05
0.0002177973118
0.0005623071241
0.001334561771
0.00289327462
0.005653512676
0.00974449707
0.01445976906
0.01729017987
0.009216511601
0.003605515612
0.001225912691
0.0003598652707
0.0001000686634
2.547699727e-05
5.752303893e-06
1.063555864e-06
1.546258518e-07
2.501528493e-08
4.490807219e-09
7.676083097e-10
1.241580105e-10
1.890827755e-11
2.697226711e-12
3.584610173e-13
4.415113292e-14
5.015228392e-15
5.231104141e-16
4.991478401e-17
4.343878338e-18
3.439833235e-19
2.474835555e-20
1.616614981e-21
9.589926102e-23
5.17250898e-24
2.54253304e-25
1.142957992e-26
4.721411688e-28
9.9102113e-17
1.280832927e-16
2.100133876e-16
4.275322128e-16
1.05540648e-15
3.08264151e-15
1.039260468e-14
3.947114189e-14
1.649942227e-13
7.425773011e-13
3.525388731e-12
1.732501117e-11
8.662784978e-11
4.338785433e-10
2.146262854e-09
1.035440724e-08
4.817877335e-08
2.141353781e-07
9.018809573e-07
3.577718961e-06
1.332076672e-05
4.655611487e-05
0.0001514027924
0.0004550849715
0.001263710033
0.003235993652
0.007582181185
0.01589785522
0.02861200985
0.04086028399
0.03699495032
0.01803036541
0.007308508138
0.002525880164
0.0008365026989
0.0002610830252
7.440398823e-05
1.880348281e-05
4.003093681e-06
6.394184096e-07
1.28471791e-07
2.702361912e-08
5.290514962e-09
9.690269599e-10
1.660933583e-10
2.657732679e-11
3.955504197e-12
5.452086064e-13
6.929148872e-14
8.085498241e-15
8.628541217e-16
8.391766548e-17
7.41582006e-18
5.940368018e-19
4.305885657e-20
2.821498573e-21
1.671128326e-22
8.9540246e-24
4.348580088e-25
1.920318736e-26
4.633947539e-17
6.017197723e-17
9.975311095e-17
2.06890119e-16
5.247915547e-16
1.589248139e-15
5.60553851e-15
2.246837554e-14
9.991879281e-14
4.818319215e-13
2.465722783e-12
1.312394843e-11
7.131871494e-11
3.890386595e-10
2.097713832e-09
1.102706746e-08
5.582448161e-08
2.693156959e-07
1.227434247e-06
5.250575375e-06
2.100199746e-05
7.856339902e-05
0.0002735210597
0.0008801670693
0.002623402586
0.007253764293
0.01850762748
0.04238570197
0.08216562846
0.1071479911
0.06947772684
0.03325212919
0.01339893977
0.00508816415
0.001858165824
0.0006408871695
0.0002028599077
5.759692048e-05
1.441510375e-05
2.810492709e-06
6.01145579e-07
1.437660093e-07
3.176702477e-08
6.542273547e-09
1.258353486e-09
2.257726217e-10
3.767647978e-11
5.825822449e-12
8.312304757e-13
1.089717514e-13
1.307162094e-14
1.429096476e-15
1.418873535e-16
1.275221386e-17
1.034691105e-18
7.563074871e-20
4.973159793e-21
2.940063054e-22
1.56328253e-23
7.487410908e-25
1.964173521e-17
2.560893722e-17
4.288259115e-17
9.051753307e-17
2.357234357e-16
7.397906816e-16
2.73023762e-15
1.155795395e-14
5.476107002e-14
2.835416698e-13
1.568296684e-12
9.069541646e-12
5.37521659e-11
3.205038479e-10
1.890434198e-09
1.086332986e-08
6.000317186e-08
3.148786297e-07
1.554940706e-06
7.173833272e-06
3.078379017e-05
0.0001227273788
0.0004553042516
0.001559965697
0.004957775443
0.01472602245
0.04106901044
0.1047319975
0.1936745013
0.1843343955
0.1107229722
0.05543363407
0.02415322447
0.009978157945
0.003976472376
0.001498901282
0.0005219434359
0.0001637559121
4.631514748e-05
1.095984269e-05
2.639176341e-06
6.932034342e-07
1.699336526e-07
3.899803852e-08
8.377959357e-09
1.681840058e-09
3.145466788e-10
5.460245489e-11
8.760913379e-12
1.29357856e-12
1.749934871e-13
2.159482202e-14
2.42081424e-15
2.45555799e-16
2.245703641e-17
1.845823697e-18
1.359940187e-19
8.963739263e-21
5.27964133e-22
2.778459019e-23
7.536968477e-18
9.859346394e-18
1.665598747e-17
3.573386064e-17
9.542379867e-17
3.10106541e-16
1.197167374e-15
5.354738127e-15
2.706042563e-14
1.50721369e-13
9.032860019e-13
5.692714857e-12
3.691928134e-11
2.414663607e-10
1.563339667e-09
9.851896734e-09
5.953216565e-08
3.405197966e-07
1.824222962e-06
9.079199206e-06
4.176047319e-05
0.0001771252572
0.0006934333569
0.002511141589
0.008407284215
0.02640615061
0.08022320065
0.2615621456
0.2715649616
0.2561633304
0.1915294913
0.09156417916
0.04235138466
0.01902305314
0.008250072897
0.003376818517
0.001283513197
0.0004405785107
0.0001350317934
3.817471683e-05
1.072946689e-05
3.03949275e-06
8.18988741e-07
2.081481451e-07
4.973915096e-08
1.114317895e-08
2.332498334e-09
4.543747422e-10
8.201588429e-11
1.36546613e-11
2.086991064e-12
2.914487237e-13
3.701429452e-14
4.255534017e-15
4.409677224e-16
4.101432122e-17
3.41122993e-18
2.528847456e-19
1.666652728e-20
9.748007864e-22
2.615071054e-18
3.428946642e-18
5.835382007e-18
1.270312709e-17
3.473008702e-17
1.167234306e-16
4.71006158e-16
2.22571306e-15
1.200451438e-14
7.202381905e-14
4.686634297e-13
3.227284617e-12
2.29730328e-11
1.653506549e-10
1.178937269e-09
8.172424445e-09
5.416940826e-08
3.384256282e-07
1.969449424e-06
1.057963858e-05
5.214336637e-05
0.0002350710178
0.0009690840367
0.003660049012
0.01271095674
0.04073880451
0.1211576909
0.3384577555
0.3400696577
0.3115384103
0.2308588947
0.1395411667
0.07237738808
0.0355539163
0.01668991094
0.007370726188
0.003027561516
0.001148168219
0.0004014271613
0.0001231374566
3.811459663e-05
1.205569921e-05
3.582037561e-06
1.005564655e-06
2.664561622e-07
6.645400367e-08
1.554083758e-08
3.393481144e-09
6.8872606e-10
1.292970891e-10
2.234162661e-11
3.535273543e-12
5.096683977e-13
6.660078837e-14
7.848544793e-15
8.299652057e-16
7.838383253e-17
6.582139564e-18
4.895155723e-19
3.213608979e-20
8.195751114e-19
1.075890649e-18
1.841182731e-18
4.058806681e-18
1.133779421e-17
3.933534738e-17
1.656787536e-16
8.264670878e-16
4.757174098e-15
3.076626065e-14
2.176814685e-13
1.641313634e-12
1.285737629e-11
1.021401416e-10
8.044371047e-10
6.152187205e-09
4.485034857e-08
3.067361849e-07
1.942345798e-06
1.127426757e-05
5.957759605e-05
0.0002855685349
0.001240411343
0.004887013325
0.01748663913
0.05680173272
0.1663676781
0.4299793232
0.4309472812
0.400657689
0.3204784714
0.2144905918
0.1257578663
0.06621394723
0.03320024765
0.01567745358
0.006915256487
0.00277766278
0.001040205899
0.0004018804366
0.0001317970863
4.453318607e-05
1.440633486e-05
4.443219823e-06
1.301276623e-06
3.60381359e-07
9.396813698e-08
2.296300792e-08
5.233771827e-09
1.107034482e-09
2.16179906e-10
3.876664364e-11
6.349100157e-12
9.443903192e-13
1.268580033e-13
1.530182374e-14
1.648096037e-15