/*--------------------------------*- C++ -*----------------------------------*\
  =========                 |
  \\      /  F ield         | OpenFOAM: The Open Source CFD Toolbox
   \\    /   O peration     | Website:  https://openfoam.org
    \\  /    A nd           | Version:  10
     \\/     M anipulation  |
\*---------------------------------------------------------------------------*/
FoamFile
{
    format      ascii;
    class       volScalarField;
    location    "0.0005";
    object      TLiquidus;
}
// * * * * * * * * * * * * * * * * * * * * * * * * * * * * * * * * * * * * * //

dimensions      [0 0 0 1 0 0 0];

internalField   nonuniform List<scalar> 
3600
(
10
10
10
10
10
10
10
10
10
10.00000001
10.00000002
10.00000005
10.00000009
10.00000015
10.00000024
10.00000036
10.00000058
10.00000104
10.00000173
10.00000203
10.00000023
10.00000001
10.00000001
10.00000001
10.00000001
10
10
10
10
10
10
10
10
10
10
10
10
10
10
10.00000108
1941.149997
1941.15
1941.15
1941.15
1941.15
1941.15
1941.15
1941.15
1941.15
1941.15
1941.15
1941.15
1941.15
1941.15
1941.15
1941.15
1941.15
1941.15
1941.15
1941.15
10.00000001
10.00000001
10
10
10
10
10.00000002
10.00000015
10.00000048
10.00000085
10.00000129
10.00000171
10.00000193
10.00000197
10.00000187
10.00000143
10.00000091
10.00000056
10.00001637
10.00009249
10.00012464
10.00009204
10.00000094
10.00000001
10.00000001
10
10
10
10
10
10
10
10
10
10
10
10
10
10
10.00000085
1941.149997
1941.15
1941.15
1941.15
1941.15
1941.15
1941.15
1941.15
1941.15
1941.15
1941.15
1941.15
1941.15
1941.15
1941.15
1941.15
1941.15
1941.15
1941.15
1941.15
10.0000003
10.00000054
10.00000061
10.00000062
10.00000051
10.00000035
10.00000176
10.00000539
10.00000665
10.0000072
10.0000054
10.00000377
10.0000035
10.00000343
10.00000222
10.00000085
10.00000039
10.0000003
10.0000003
10.0000155
10.00103856
10.00191541
10.00187785
10.00193374
10.00097771
10.00000005
10.00000002
10.00000015
10.00000001
10
10
10
10
10
10
10
10
10
10
10.00000073
1941.149997
1941.15
1941.15
1941.15
1941.15
1941.15
1941.15
1941.15
1941.15
1941.15
1941.15
1941.15
1941.15
1941.15
1941.15
1941.15
1941.15
1941.15
1941.15
1941.15
10.00000041
10.00000042
10.00003457
10.00061054
10.00239881
10.00377867
10.00094675
10.00003203
10.00000035
10.00000744
10.0000078
10.00000405
10.00000103
10.00000148
10.00000106
10.00000041
10.00000031
10.0000003
10.0000003
10.0000003
10.0000005
10.00255478
10.09808956
10.17208856
10.13157253
10.04189028
10.00875613
10.0000687
10.0010949
10.00089392
10.00043509
10.00000071
10.0000004
10.0000001
10
10
10
10
10
10.00000063
1941.149997
1941.15
1941.15
1941.15
1941.15
1941.15
1941.15
1941.15
1941.15
1941.15
1941.15
1941.15
1941.15
1941.15
1941.15
1941.15
1941.15
1941.15
1941.15
1941.15
10.00000042
10.00000256
10.00052394
10.0296601
10.17268219
10.23320064
10.03948205
10.00000035
10.00000035
10.00000035
10.00000046
10.00000064
10.00000069
10.00000052
10.00000035
10.0000003
10.0000003
10.0000003
10.0000003
10.0000003
10.0000012
10.00748743
10.17129701
10.22813279
10.22817108
10.22830618
10.2042469
10.12211672
10.14300521
10.14610567
10.13778402
10.10839582
10.0622548
10.01632162
10.00054986
10.0000001
10
10
10
10.00000048
1941.149997
1941.15
1941.15
1941.15
1941.15
1941.15
1941.15
1941.15
1941.15
1941.15
1941.15
1941.15
1941.15
1941.15
1941.15
1941.15
1941.15
1941.15
1941.15
1941.15
10.0021603
10.00001594
10.07650142
10.256948
10.25694907
10.25694737
10.23263217
10.00000035
10.00000035
10.00000035
10.00000035
10.00000045
10.00000062
10.00000048
10.00000031
10.00000028
10.0000003
10.00000045
10.0000007
10.00000123
10.000003
10.00000046
10.00000008
10.06840537
10.17662091
10.22833344
10.23830652
10.23870841
10.23913515
10.23957775
10.23991685
10.24003982
10.24003405
10.22308146
10.12948251
10.02213414
10.00000016
10
10
10.00000036
1941.149996
1941.15
1941.15
1941.15
1941.15
1941.15
1941.15
1941.15
1941.15
1941.15
1941.15
1941.15
1941.15
1941.15
1941.15
1941.15
1941.15
1941.15
1941.15
1941.15
10.01498203
10.00102041
10.08930312
10.25694837
10.25694737
10.25686983
10.0932024
10.00000036
10.00000035
10.00000045
10.00000132
10.00000233
10.0000019
10.00000061
10.00000019
10.00000017
10.00000021
10.00012441
10.00069036
10.00089963
10.00030811
10.00000008
10.00000007
10.00000007
10.00000007
10.00000007
10.0081461
10.03666342
10.04300863
10.0425813
10.07551633
10.14802116
10.21772142
10.24641606
10.24641606
10.23114344
10.04411716
10
10
10.00000016
1941.149995
1941.15
1941.15
1941.15
1941.15
1941.15
1941.15
1941.15
1941.15
1941.15
1941.15
1941.15
1941.15
1941.15
1941.15
1941.15
1941.15
1941.15
1941.15
1941.15
10.02628472
10.00589487
10.00000009
10.03167583
10.12662532
10.12520999
10.00363126
10.00000036
10.0001362
10.00037637
10.00032343
10.00004064
10.00000001
10.00000001
10.00000001
10.00000001
10.00000124
10.00122495
10.00280448
10.00280527
10.00263876
10.00025546
10.00000628
10.00000007
10.00000007
10.00000007
10.00000007
10.00000007
10.00000008
10.00000008
10.00000008
10.00000008
10.00000021
10.06645764
10.2002483
10.27122074
10.27116918
10.05675283
10
10
1941.149994
1941.15
1941.15
1941.15
1941.15
1941.15
1941.15
1941.15
1941.15
1941.15
1941.15
1941.15
1941.15
1941.15
1941.15
1941.15
1941.15
1941.15
1941.15
1941.15
10.00735614
10.00000009
10.00000009
10.00000009
10.00000009
10.0000001
10.00000011
10.00017934
10.00105761
10.00108904
10.00106911
10.00007584
10.00000001
10.00000001
10.00000001
10.00000001
10.00003593
10.00186024
10.00280527
10.00280527
10.00280527
10.00273648
10.00012901
10.00000007
10.00000015
10.0000006
10.00000081
10.00000084
10.00000078
10.00000056
10.00000037
10.00000033
10.00000033
10.00000033
10.00000055
10.12654369
10.3369666
10.33715954
10
10
1941.149992
1941.15
1941.15
1941.15
1941.15
1941.15
1941.15
1941.15
1941.15
1941.15
1941.15
1941.15
1941.15
1941.15
1941.15
1941.15
1941.15
1941.15
1941.15
1941.15
10.00094081
10.00000009
10.00000112
10.00000111
10.00000033
10.00000013
10.00001692
10.00075152
10.00108885
10.00108918
10.00071715
10.00000001
10.00000001
10.00000001
10.00000001
10.00000001
10.00000001
10.00001155
10.00143434
10.00280527
10.00280483
10.00196914
10.00000002
10.00000007
10.00000039
10.00000086
10.000001
10.00000098
10.00000098
10.0000008
10.00000051
10.00000039
10.00000034
10.00000034
10.00000034
10.00000055
10.10882825
10.34648334
10.15336984
10
1941.149989
1941.15
1941.15
1941.15
1941.15
1941.15
1941.15
1941.15
1941.15
1941.15
1941.15
1941.15
1941.15
1941.15
1941.15
1941.15
1941.15
1941.15
1941.15
1941.15
10.00059615
10.00000006
10.00000083
10.00000089
10.00000034
10.00000034
10.00000035
10.0001093
10.00062785
10.00064695
10.00000001
10.00000001
10.00000001
10.00000001
10.00000001
10.00000001
10.00000001
10.00000001
10.00000001
10.00008589
10.00043407
10.00007568
10.00000002
10.00000039
10.00000099
10.00000086
10.00000097
10.00000069
10.00000056
10.00000055
10.00000051
10.00000043
10.0000004
10.00000038
10.00000038
10.00000038
10.0000011
10.31756133
10.37549622
10
1941.149984
1941.15
1941.15
1941.15
1941.15
1941.15
1941.15
1941.15
1941.15
1941.15
1941.15
1941.15
1941.15
1941.15
1941.15
1941.15
1941.15
1941.15
1941.15
1941.15
10.01314777
10.00000002
10.00000002
10.00000006
10.00000044
10.00000083
10.00000075
10.00000001
10.00000001
10.00000001
10.00000001
10.00000001
10.00000001
10.00000002
10.00000002
10.00000002
10.00000001
10.00000001
10.00000001
10.00000001
10.00000001
10.00000001
10.00000002
10.00000025
10.00000161
10.0000244
10.00008079
10.00009625
10.00001929
10.00000042
10.00000041
10.00000041
10.00000041
10.00000038
10.00000038
10.000002
10.00624111
10.02672148
10.37549622
10
1941.149965
1941.15
1941.15
1941.15
1941.15
1941.15
1941.15
1941.15
1941.15
1941.15
1941.15
1941.15
1941.15
1941.15
1941.15
1941.15
1941.15
1941.15
1941.15
1941.15
10.02665515
10.01175358
10.00000002
10.00000004
10.00000009
10.00000008
10.00000004
10.00000002
10.00000002
10.00000002
10.00000002
10.00000003
10.00000003
10.00000002
10.00000002
10.00000002
10.00000001
10.00000001
10.00000001
10.00000001
10.00000001
10.00000001
10.00000001
10.00000001
10.0000001
10.00009453
10.00023935
10.00023962
10.00019862
10.00005731
10.00000122
10.00000039
10.00000039
10.00000038
10.00000038
10.00000202
10.00780989
10.01771306
10.13830826
10.0003188
1941.149924
1941.15
1941.15
1941.15
1941.15
1941.15
1941.15
1941.15
1941.15
1941.15
1941.15
1941.15
1941.15
1941.15
1941.15
1941.15
1941.15
1941.15
1941.15
1941.15
10.02665515
10.00680064
10.00000002
10.0000002
10.00000034
10.00000022
10.00000006
10.00000004
10.00000005
10.00000006
10.00000006
10.00000006
10.00000005
10.00000004
10.00000003
10.00000002
10.00000001
10.00000001
10.00000001
10.00000001
10.00000001
10.00000001
10.00000001
10.00000001
10.00000002
10.00008293
10.00023962
10.00023987
10.00023987
10.00023987
10.00008287
10.00000039
10.00000039
10.00000039
10.00000038
10.00000043
10.00361031
10.01602385
10.01566758
12.81985719
1941.149933
1941.15
1941.15
1941.15
1941.15
1941.15
1941.15
1941.15
1941.15
1941.15
1941.15
1941.15
1941.15
1941.15
1941.15
1941.15
1941.15
1941.15
1941.15
1941.15
10.00487759
10.00029352
10.00000003
10.00000073
10.00000103
10.00000052
10.00000011
10.00000005
10.00000006
10.00000008
10.00000008
10.00000008
10.00000008
10.00000007
10.00000005
10.00000003
10.00000002
10.00000001
10
10
10
10.00000001
10.00000001
10.00000002
10.00000002
10.00000002
10.00003575
10.00016331
10.00023944
10.00023933
10.00014993
10.00000039
10.00000046
10.0000004
10.0000004
10.0000004
10.00011883
10.00457958
10.00512264
152.4769656
1941.149991
1941.15
1941.15
1941.15
1941.15
1941.15
1941.15
1941.15
1941.15
1941.15
1941.15
1941.15
1941.15
1941.15
1941.15
1941.15
1941.15
1941.15
1941.15
1941.15
10.00000045
10.00000045
10.00000078
10.00000123
10.00000121
10.00000076
10.0000002
10.00000005
10.00000006
10.00000007
10.00000008
10.00000008
10.00000008
10.00000008
10.00000006
10.00000004
10.00000002
10.00000001
10
10
10
10
10.00000001
10.00000004
10.00000006
10.00000006
10.00000006
10.00000006
10.00001632
10.00005336
10.00000913
10.00001078
10.00000226
10.00000051
10.0000004
10.0000004
10.00000052
10.00020625
10.12997925
557.8003823
1941.149996
1941.15
1941.15
1941.15
1941.15
1941.15
1941.15
1941.15
1941.15
1941.15
1941.15
1941.15
1941.15
1941.15
1941.15
1941.15
1941.15
1941.15
1941.15
1941.15
10.00099255
10.00000045
10.00000047
10.00000068
10.0000023
10.00008415
10.00024138
10.00019639
10.00001106
10.00000002
10.00000003
10.00000006
10.00000008
10.00000008
10.00000006
10.00000004
10.00000002
10.00000001
10
10
10
10
10.00000001
10.00000003
10.00000009
10.00000017
10.00000023
10.00000023
10.00000023
10.00000023
10.00000023
10.00000245
10.00000458
10.00000082
10.0000004
10.00000042
10.00000137
10.00014694
208.7348998
823.6238946
1941.149971
1941.15
1941.15
1941.15
1941.15
1941.15
1941.15
1941.15
1941.15
1941.15
1941.15
1941.15
1941.15
1941.15
1941.15
1941.15
1941.15
1941.15
1941.15
1941.15
10.00136013
10.00008762
10.00000047
10.0000012
10.00003639
10.00066796
10.00095852
10.0009585
10.00031856
10.00000002
10.00000002
10.00000004
10.00000007
10.00000008
10.00000007
10.00000003
10.00000001
10
10
10
10
10
10
10.00000001
10.00000007
10.00000028
10.00000056
10.00000059
10.00000073
10.00000073
10.00000088
10.00000092
10.00000297
10.00000082
10.00000042
10.00000222
10.00011995
10.01239792
742.885547
1009.982271
1941.149972
1941.15
1941.15
1941.15
1941.15
1941.15
1941.15
1941.15
1941.15
1941.15
1941.15
1941.15
1941.15
1941.15
1941.15
1941.15
1941.15
1941.15
1941.15
1941.15
10.0011763
10.00000098
10.00000095
10.00000306
10.00023446
10.00095852
10.00095852
10.00095852
10.00095152
10.00007649
10.00000002
10.00000004
10.00000007
10.00000008
10.00000007
10.00000003
10.00000001
10
10
10
10
10
10
10
10.00000003
10.00000027
10.00000062
10.00000059
10.00000069
10.00000077
10.00000089
10.00000092
10.00000092
10.00000085
10.00000152
10.00007508
10.00693517
314.5018934
1122.533793
1007.010353
1941.149978
1941.15
1941.15
1941.15
1941.15
1941.15
1941.15
1941.15
1941.15
1941.15
1941.15
1941.15
1941.15
1941.15
1941.15
1941.15
1941.15
1941.15
1941.15
1941.15
10.00004241
10.00000672
10.00000244
10.00000164
10.0000164
10.00056421
10.00095852
10.00095846
10.00059537
10
10.00000002
10.00000005
10.00000008
10.00000008
10.00000006
10.00000002
10
10
10
10
10
10
10
10
10.00000001
10.00000008
10.0000004
10.00000879
10.0000899
10.00006214
10.00000633
10.00000092
10.00000098
10.00000267
10.00009318
10.00649817
159.4207183
1188.253122
1405.345594
1064.662902
1941.149964
1941.15
1941.15
1941.15
1941.15
1941.15
1941.15
1941.15
1941.15
1941.15
1941.15
1941.15
1941.15
1941.15
1941.15
1941.15
1941.15
1941.15
1941.15
1941.15
10.0000599
10.00005761
10.00000994
10.00000164
10.00000164
10.00000417
10.00024971
10.00038867
10.00002327
10
10.00000002
10.00000005
10.00000006
10.00000006
10.00000003
10.00000001
10
10
10
10
10
10
10
10
10.00000001
10.00000003
10.00000001
10.00016871
10.0005404
10.00052014
10.00007856
10.00000097
10.00000496
10.00011921
10.00648053
81.93439565
1278.056881
1651.786491
1429.061219
1092.478233
1941.149912
1941.15
1941.15
1941.15
1941.15
1941.15
1941.15
1941.15
1941.15
1941.15
1941.15
1941.15
1941.15
1941.15
1941.15
1941.15
1941.15
1941.15
1941.15
1941.15
10.00000241
10.00000225
10.00000336
10.00000344
10.00000171
10
10
10
10
10
10.00000001
10.00000002
10.00000002
10.00000002
10.00000001
10
10
10
10
10
10
10
10
10
10.00000001
10.00000002
10.00000001
10.00028237
10.00054064
10.00053941
10.00019329
10.00000496
10.00025125
10.00650632
35.30247171
1104.070235
1811.579997
1707.049329
1500.184986
1120.881382
1941.149978
1941.15
1941.15
1941.15
1941.15
1941.15
1941.15
1941.15
1941.15
1941.15
1941.15
1941.15
1941.15
1941.15
1941.15
1941.15
1941.15
1941.15
1941.15
1941.15
10.00000312
10.00000101
10.00000087
10.00000049
10.00000005
10.00000001
10
10
10
10
10
10
10
10
10
10
10
10
10
10
10
10
10
10
10.00000001
10.00000001
10.00000001
10.00002207
10.00031918
10.00031129
10.00018509
10.00025123
10.01417271
19.18393779
997.0566927
1873.147989
1825.289779
1759.983986
1543.080682
1116.713702
1941.149987
1941.15
1941.15
1941.15
1941.15
1941.15
1941.15
1941.15
1941.15
1941.15
1941.15
1941.15
1941.15
1941.15
1941.15
1941.15
1941.15
1941.15
1941.15
1941.15
10.00000184
10.00000137
10.00000129
10.00000066
10.0000001
10.00000001
10
10
10
10
10
10
10
10
10
10
10
10
10
10
10
10
10
10
10.00000001
10.00000001
10.00000259
10.00001507
10.00000691
10.00000691
10.0000381
10.01177876
47.4673754
1012.057046
1932.900129
1883.198879
1825.289779
1759.983956
1594.33523
1175.311963
1941.150006
1941.15
1941.15
1941.15
1941.15
1941.15
1941.15
1941.15
1941.15
1941.15
1941.15
1941.15
1941.15
1941.15
1941.15
1941.15
1941.15
1941.15
1941.15
1941.15
10.00000054
10.00000088
10.00000065
10.00000017
10.00000004
10.00000001
10
10
10
10
10
10
10
10
10
10
10
10
10
10
10
10
10
10
10.00000001
10.00000001
10.00000001
10.00102338
10.00000691
10.0000178
10.00220844
67.54141678
1119.167993
1940.864409
1935.542384
1883.198878
1825.289768
1759.983949
1594.335227
1227.533213
1941.15
1941.15
1941.15
1941.15
1941.15
1941.15
1941.15
1941.15
1941.15
1941.15
1941.15
1941.15
1941.15
1941.15
1941.15
1941.15
1941.15
1941.15
1941.15
1941.15
10.00000005
10.00000005
10.00000003
10.00000001
10.00000001
10
10
10
10
10
10
10
10
10
10
10
10
10
10
10
10
10
10
10
10.00000002
10.00000007
10.00000366
10.00140211
10.00001837
10.00030486
45.87194449
1194.584153
1940.886584
1940.864409
1935.542384
1883.198875
1825.289763
1759.983956
1674.883128
1304.427484
1941.150002
1941.15
1941.15
1941.15
1941.15
1941.15
1941.15
1941.15
1941.15
1941.15
1941.15
1941.15
1941.15
1941.15
1941.15
1941.15
1941.15
1941.15
1941.15
1941.15
10.00000001
10
10
10
10
10
10
10
10
10
10
10
10
10
10
10
10
10
10
10
10
10
10
10
10
10.00002087
10.00000383
10.00001284
10.00001302
10.01598384
1084.957299
1940.886584
1940.886584
1940.864409
1935.542384
1883.198873
1825.289762
1759.983946
1690.699416
1385.687579
1941.149991
1941.15
1941.15
1941.15
1941.15
1941.15
1941.15
1941.15
1941.15
1941.15
1941.15
1941.15
1941.15
1941.15
1941.15
1941.15
1941.15
1941.15
1941.15
1941.15
10
10
10
10
10
10
10
10
10
10
10
10
10
10
10
10
10
10
10
10
10
10
10
10
10
10.00004891
10.0013012
10.00001291
10.00000922
671.6696522
1921.959178
1940.886584
1940.886584
1940.864409
1935.542384
1883.198871
1825.289761
1759.983939
1690.699413
1430.430297
1941.15
1941.15
1941.15
1941.15
1941.15
1941.15
1941.15
1941.15
1941.15
1941.15
1941.15
1941.15
1941.15
1941.15
1941.15
1941.15
1941.15
1941.15
1941.15
1941.15
10
10
10
10
10
10
10
10
10
10
10
10
10
10
10
10
10
10
10
10
10
10
10
10
10
10.00005165
10.00421049
10.00001918
79.83634381
1431.413878
1935.845113
1940.886584
1940.886584
1940.886581
1935.542384
1864.65346
1825.289757
1691.699098
1690.69941
1407.811479
1941.149987
1941.15
1941.15
1941.15
1941.15
1941.15
1941.15
1941.15
1941.15
1941.15
1941.15
1941.15
1941.15
1941.15
1941.15
1941.15
1941.15
1941.15
1941.15
1941.15
10
10
10
10
10
10
10
10
10
10
10
10
10
10
10
10
10
10
10
10
10
10
10
10
10
10.00010368
10.00421229
10.00004089
321.671619
1672.931273
1938.304151
1940.936582
1940.969389
1940.886581
1935.627611
1861.97667
1800.029881
1691.031579
1657.601424
1539.080168
1941.149903
1941.15
1941.15
1941.15
1941.15
1941.15
1941.15
1941.15
1941.15
1941.15
1941.15
1941.15
1941.15
1941.15
1941.15
1941.15
1941.15
1941.15
1941.15
1941.15
10
10
10
10
10
10
10
10
10
10
10
10
10
10
10
10
10
10
10
10
10
10
10
10
10.00000021
10.00004419
10.00353887
10.0004172
486.4714246
1764.931957
1940.514623
1940.974739
1940.975002
1940.792734
1937.392201
1820.945488
1297.540529
1297.540527
1514.19221
1708.44274
1941.149924
1941.15
1941.15
1941.15
1941.15
1941.15
1941.15
1941.15
1941.15
1941.15
1941.15
1941.15
1941.15
1941.15
1941.15
1941.15
1941.15
1941.15
1941.15
1941.15
10
10
10
10
10
10
10
10
10
10
10
10
10
10
10
10
10
10
10
10
10
10
10
10
10.00000013
10.00001852
10.0016927
10.13807038
515.0836284
1837.59131
1940.59894
1940.692257
1940.97802
1941.070121
1940.951502
1427.788834
1297.540528
1297.540529
1297.543195
1304.15457
1941.149869
1941.15
1941.15
1941.15
1941.15
1941.15
1941.15
1941.15
1941.15
1941.15
1941.15
1941.15
1941.15
1941.15
1941.15
1941.15
1941.15
1941.15
1941.15
1941.15
10
10
10
10
10
10
10
10
10
10
10
10
10
10
10
10
10
10
10
10
10
10
10
10
10.00000006
10.00000057
10.00008095
10.01258426
369.2294034
1880.729916
1940.869844
1940.871569
1940.949018
1941.107141
1941.112074
1393.555224
1297.54054
1297.543195
1297.699132
1651.366192
1941.149901
1941.15
1941.15
1941.15
1941.15
1941.15
1941.15
1941.15
1941.15
1941.15
1941.15
1941.15
1941.15
1941.15
1941.15
1941.15
1941.15
1941.15
1941.15
1941.15
10
10
10
10
10
10
10
10
10
10
10
10
10
10
10
10
10
10
10
10
10
10
10
10
10.00000004
10.0000005
10.00006069
10.0071875
229.6060404
1826.320959
1940.881297
1940.887123
1940.984405
1941.112074
1941.11214
1830.856585
1305.549898
1433.347592
1512.655698
1834.613739
1941.149842
1941.15
1941.15
1941.15
1941.15
1941.15
1941.15
1941.15
1941.15
1941.15
1941.15
1941.15
1941.15
1941.15
1941.15
1941.15
1941.15
1941.15
1941.15
1941.15
10
10
10
10
10
10
10
10
10
10
10
10
10
10
10
10
10
10
10
10
10
10
10
10
10.00000007
10.00000659
10.0006217
10.01676219
119.6909085
1540.524513
1940.875903
1940.869096
1940.869996
1941.075409
1941.1129
1941.120551
1804.098282
1806.231819
1849.123341
1849.033185
1941.149965
1941.15
1941.15
1941.15
1941.15
1941.15
1941.15
1941.15
1941.15
1941.15
1941.15
1941.15
1941.15
1941.15
1941.15
1941.15
1941.15
1941.15
1941.15
1941.15
10
10
10
10
10
10
10
10
10
10
10
10
10
10
10
10
10
10
10
10
10
10
10
10
10.00000002
10.00000038
10.00003704
10.00385213
50.57418131
1133.71073
1940.927845
1940.876233
1940.870857
1940.932144
1941.114358
1941.12366
1941.121266
1853.475159
1849.04628
1849.033185
1941.149972
1941.15
1941.15
1941.15
1941.15
1941.15
1941.15
1941.15
1941.15
1941.15
1941.15
1941.15
1941.15
1941.15
1941.15
1941.15
1941.15
1941.15
1941.15
1941.15
10
10
10
10
10
10
10
10
10
10
10
10
10
10
10
10
10
10
10
10
10
10
10
10
10
10.00000039
10.00003086
10.00216876
10.0857795
583.0973117
1940.97803
1940.983376
1940.978446
1940.932755
1941.086062
1941.12422
1941.12519
1913.06102
1898.805165
1889.277289
1941.149959
1941.15
1941.15
1941.15
1941.15
1941.15
1941.15
1941.15
1941.15
1941.15
1941.15
1941.15
1941.15
1941.15
1941.15
1941.15
1941.15
1941.15
1941.15
1941.15
10
10
10
10
10
10
10
10
10
10
10
10
10
10
10
10
10
10
10
10
10
10
10
10
10
10.00000034
10.00002313
10.00136929
10.07157266
184.4761567
1568.542678
1941.004007
1941.004208
1940.936156
1941.013436
1941.124972
1941.125659
1941.13002
1940.686785
1932.244305
1939.196895
1941.15
1941.15
1941.15
1941.15
1941.15
1941.15
1941.15
1941.15
1941.15
1941.15
1941.15
1941.15
1941.15
1941.15
1941.15
1941.15
1941.15
1941.15
1941.15
10
10
10
10
10
10
10
10
10
10
10
10
10
10
10
10
10
10
10
10
10
10
10
10
10
10.00000007
10.00000471
10.00026394
10.01284519
17.82715466
881.5104175
1940.999827
1941.004462
1941.00447
1941.00443
1941.028145
1941.129463
1941.134236
1941.137768
1941.137898
1940.502508
1940.843533
1941.15
1941.15
1941.15
1941.15
1941.15
1941.15
1941.15
1941.15
1941.15
1941.15
1941.15
1941.15
1941.15
1941.15
1941.15
1941.15
1941.15
1941.15
10
10
10
10
10
10
10
10
10
10
10
10
10
10
10
10
10
10
10
10
10
10
10
10
10
10.00000002
10.00000106
10.00006134
10.00309158
10.11273958
243.417511
1709.085205
1941.004257
1941.004462
1941.004444
1940.962172
1940.962062
1941.123245
1941.137898
1941.137993
1941.019538
1940.804384
1940.820115
1941.141923
1941.15
1941.15
1941.15
1941.15
1941.15
1941.15
1941.15
1941.15
1941.15
1941.15
1941.15
1941.15
1941.15
1941.15
1941.15
1941.15
10
10
10
10
10
10
10
10
10
10
10
10
10
10
10
10
10
10
10
10
10
10
10
10
10
10
10.00000008
10.00000549
10.00030023
10.01426505
10.93023638
837.3666946
1940.99165
1941.004354
1941.004435
1940.966284
1940.909757
1941.058389
1941.137993
1941.137993
1941.137993
1940.839595
1940.70974
1941.065389
1941.15
1941.15
1941.15
1941.15
1941.15
1941.15
1941.15
1941.15
1941.15
1941.15
1941.15
1941.15
1941.15
1941.15
1941.15
1941.15
10
10
10
10
10
10
10
10
10
10
10
10
10
10
10
10
10
10
10
10
10
10
10
10
10
10
10.00000001
10.00000082
10.00005378
10.00291669
10.13097056
172.5281706
1526.089289
1941.002551
1941.004343
1941.000658
1940.90986
1940.909765
1941.137365
1941.137993
1941.137993
1941.105036
1941.137065
1940.472106
1939.971104
1940.959563
1941.15
1941.15
1941.15
1941.15
1941.15
1941.15
1941.15
1941.15
1941.15
1941.15
1941.15
1941.15
1941.15
1941.15
10
10
10
10
10
10
10
10
10
10
10
10
10
10
10
10
10
10
10
10
10
10
10
10
10
10
10
10.00000002
10.0000018
10.00012927
10.00791153
10.20821597
521.328548
1940.847694
1941.002557
1941.000459
1940.997128
1940.909765
1940.960152
1941.121706
1941.138011
1941.13803
1941.13803
1940.123172
1937.134388
1938.547858
1941.040061
1941.15
1941.15
1941.15
1941.15
1941.15
1941.15
1941.15
1941.15
1941.15
1941.15
1941.15
1941.15
1941.15
10
10
10
10
10
10
10
10
10
10
10
10
10
10
10
10
10
10
10
10
10
10
10
10
10
10
10
10
10.00000001
10.00000211
10.00018889
10.0087865
11.71186024
961.9370225
1940.874864
1940.999331
1941.000546
1940.975929
1940.928706
1940.972569
1941.138003
1941.13803
1941.13803
1937.766402
1937.133295
1937.133292
1939.772754
1941.149997
1941.15
1941.15
1941.15
1941.15
1941.15
1941.15
1941.15
1941.15
1941.15
1941.15
1941.15
1941.15
10
10
10
10
10
10
10
10
10
10
10
10
10
10
10
10
10
10
10
10
10
10
10
10
10
10
10
10
10
10
10.0000005
10.00005865
10.00461327
31.04076439
1183.44723
1940.908089
1941.089241
1941.111801
1941.112442
1941.112395
1941.13803
1941.13803
1939.062979
1937.133295
1937.133292
1937.133295
1940.433623
1941.149812
1941.149999
1941.15
1941.15
1941.15
1941.15
1941.15
1941.15
1941.15
1941.15
1941.15
1941.15
1941.15
10
10
10
10
10
10
10
10
10
10
10
10
10
10
10
10
10
10
10
10
10
10
10
10
10
10
10
10
10
10
10
10.00000012
10.00001555
10.00132431
10.0899685
1031.493648
1876.391431
1941.096695
1941.131676
1941.137372
1941.138
1940.937233
1939.734785
1938.229298
1938.251645
1940.244068
1941.126218
1941.149938
1941.149999
1941.149999
1941.149999
1941.15
1941.15
1941.15
1941.15
1941.149999
1941.15
1941.15
1941.15
1941.15
10
10
10
10
10
10
10
10
10
10
10
10
10
10
10
10
10
10
10
10
10
10
10
10
10
10
10
10
10
10
10
10
9.999999856
10.00000584
10.00048253
10.03104761
584.9959935
1655.228458
1935.471479
1941.131676
1941.13721
1941.129681
1941.130406
1941.083063
1941.083584
1941.149994
1941.149999
1941.149999
1941.149999
1941.149999
1941.149999
1941.149999
1941.149999
1941.149999
1941.149999
1941.149999
1941.149999
1941.149999
1941.149999
1941.149999
10
10
10
10
10
10
10
10
10
10
10
10
10
10
10
10
10
10
10
10
10
10
10
10
10
10
10
10
10
10
10
10
10
10
10.0000002
10.00001712
10.00096872
144.4213843
997.1934233
1778.456181
1941.110484
1941.146801
1941.149741
1941.149831
1941.149993
1941.149999
1941.15
1941.15
1941.15
1941.149999
1941.149999
1941.149999
1941.149999
1941.149999
1941.149999
1941.149999
1941.149999
1941.149999
1941.149999
1941.149999
10
10
10
10
10
10
10
10
10
10
10
10
10
10
10
10
10
10
10
10
10
10
10
10
10
10
10
10
10
10
10
10
10
10
10
9.999999893
9.999999957
10.00003283
10.00220552
301.8998726
1204.624549
1830.425502
1941.146801
1941.149741
1941.149912
1941.15
1941.15
1941.15
1941.15
1941.149999
1941.149999
1941.149999
1941.149999
1941.149999
1941.149999
1941.149999
1941.149999
1941.149999
1941.149999
1941.149999
10
10
10
10
10
10
10
10
10
10
10
10
10
10
10
10
10
10
10
10
10
10
10
10
10
10
10
10
10
10
10
10
10
10
10
10
10.00000001
10.00000041
10.00000183
10.00006306
10.00383136
455.4380601
1391.624989
1868.510283
1941.146658
1941.149843
1941.15
1941.15
1941.15
1941.15
1941.149999
1941.149999
1941.149999
1941.149999
1941.149999
1941.149999
1941.149999
1941.149999
1941.149999
1941.149999
10
10
10
10
10
10
10
10
10
10
10
10
10
10
10
10
10
10
10
10
10
10
10
10
10
10
10
10
10
10
10
10
10
10
10.00000001
10.00000022
10.00000103
10.00000102
10.00000105
10.00000194
10.0000145
10.00015099
11.835395
579.8646075
1408.534084
1847.132581
1931.210439
1941.149937
1941.15
1941.15
1941.15
1941.149984
1941.149999
1941.149999
1941.149999
1941.149999
1941.149999
1941.149999
1941.149999
1941.149999
10
10
10
10
10
10
10
10
10
10
10
10
10
10
10
10
10
10
10
10
10
10
10
10
10
10
10
10
10
10
10
10
10
10
10
10.00000013
10.00000291
10.00000652
10.00001672
10.00002209
10.00002234
10.00002441
10.00005258
10.00049024
23.14781618
533.3043508
1203.74872
1792.869227
1903.919567
1941.15
1941.15
1941.15
1941.149998
1941.14978
1941.14999
1941.149999
1941.149999
1941.149998
1941.149987
1941.149975
10
10
10
10
10
10
10
10
10
10
10
10
10
10
10
10
10
10
10
10
10
10
10
10
10
10
10
10
10
10
10
10
10
10
10
10
10
10
10.00003284
10.00010809
10.0001081
10.00007088
10.00006711
10.00003101
10.00039773
10.0000612
10.00012808
314.5545954
834.9058959
1410.093041
1731.816912
1889.587352
1941.149997
1941.149897
1941.146728
1941.149999
1941.149999
1941.149999
1941.149999
1941.149633
10
10
10
10
10
10
10
10
10
10
10
10
10
10
10
10
10
10
10
10
10
10
10
10
10
10
10
10
10
10
10
10
10
10
10
10
10
10
10
10
10.00004028
10.0001125
10.00010615
10.00002934
10.00003861
10.00005983
10.00004563
10.00002132
10.00003601
10.00011019
339.4998514
743.7956101
1167.420668
1686.843587
1715.295578
1839.72852
1936.55875
1941.149999
1941.148617
1941.143822
10
10
10
10
10
10
10
10
10
10
10
10
10
10
10
10
10
10
10
10
10
10
10
10
10
10
10
10
10
10
10
10
10
10
10
10
10
10
10
10
10.00000001
10.0000111
10.0000095
10.00000125
10.00003612
10.00015694
10.00018
10.00001265
10.00002827
10.00003601
10.00011019
10.00142745
14.61241724
348.7421038
785.2846608
1040.807474
1301.62853
1617.968726
1708.465607
1691.888245
10
10
10
10
10
10
10
10
10
10
10
10
10
10
10
10
10
10
10
10
10
10
10
10
10
10
10
10
10
10
10
10
10
10
10
10
10
10
10
10
10
10
10
10
10.00000383
10.00002105
10.00002203
10.00000721
10.00003962
10.00033455
10.00165841
10.00000067
10.12702762
11.90916595
16.80552641
10.00079806
56.74632044
166.6366856
320.1570423
588.2173384
10
10
10
10
10
10
10
10
10
10
10
10
10
10
10
10
10
10
10
10
10
10
10
10
10
10
10
10
10
10
10
10
10
10
10
10
10
10
10
10
10
10
10
10
10
10
10
10.00000001
10.00000062
10.00000205
10
10
10.00000315
10.00057836
10.00568877
10.00023068
10.00509847
10.12907626
10.62347635
11.24619659
10
10
10
10
10
10
10
10
10
10
10
10
10
10
10
10
10
10
10
10
10
10
10
10
10
10
10
10
10
10
10
10
10
10
10
10
10
10
10
10
10
10
10
10
10
10
10
10
10
10
10
10
10
10.0000044
10.00004308
10.0002263
10.00062161
10.00007715
10.00015806
10.00036318
10
10
10
10
10
10
10
10
10
10
10
10
10
10
10
10
10
10
10
10
10
10
10
10
10
10
10
10
10
10
10
10
10
10
10
10
10
10
10
10
10
10
10
10
10
10
10
10
10
10
10
10
10
10.00000002
10.0000003
10.00000624
10.00001987
10.0000091
10.00000135
10.00000235
10
10
10
10
10
10
10
10
10
10
10
10
10
10
10
10
10
10
10
10
10
10
10
10
10
10
10
10
10
10
10
10
10
10
10
10
10
10
10
10
10
10
10
10
10
10
10
10
10
10
10
10
10
10
10.00000002
10.00000004
10.00000012
10.00000011
10.00000005
10.00000005
)
;

boundaryField
{
    lowerWall
    {
        type            calculated;
        value           nonuniform List<scalar> 0();
    }
    atmosphere
    {
        type            calculated;
        value           nonuniform List<scalar> 
60
(
10
10.00000001
10.0000003
10.00000041
10.00000042
10.0021603
10.01498203
10.02628472
10.00735614
10.00094081
10.00059615
10.01314777
10.02665515
10.02665515
10.00487759
10.00000045
10.00099255
10.00136013
10.0011763
10.00004241
10.0000599
10.00000241
10.00000312
10.00000184
10.00000054
10.00000005
10.00000001
10
10
10
10
10
10
10
10
10
10
10
10
10
10
10
10
10
10
10
10
10
10
10
10
10
10
10
10
10
10
10
10
10
)
;
    }
    rightWall
    {
        type            empty;
    }
    leftWall
    {
        type            empty;
    }
    frontAndBack
    {
        type            calculated;
        value           nonuniform List<scalar> 
60
(
10
10
10
10
10
10
10
10
10
10.00000001
10.00000002
10.00000005
10.00000009
10.00000015
10.00000024
10.00000036
10.00000058
10.00000104
10.00000173
10.00000203
10.00000023
10.00000001
10.00000001
10.00000001
10.00000001
10
10
10
10
10
10
10
10
10
10
10
10
10
10
10.00000108
1941.149997
1941.15
1941.15
1941.15
1941.15
1941.15
1941.15
1941.15
1941.15
1941.15