/*--------------------------------*- C++ -*----------------------------------*\
  =========                 |
  \\      /  F ield         | OpenFOAM: The Open Source CFD Toolbox
   \\    /   O peration     | Website:  https://openfoam.org
    \\  /    A nd           | Version:  10
     \\/     M anipulation  |
\*---------------------------------------------------------------------------*/
FoamFile
{
    format      ascii;
    class       volScalarField;
    location    "0.0005";
    object      TRHS;
}
// * * * * * * * * * * * * * * * * * * * * * * * * * * * * * * * * * * * * * //

dimensions      [1 -1 -3 0 0 0 0];

internalField   nonuniform List<scalar> 
3600
(
-6.980221597e-12
-3.772168348e-10
-1.20118875e-09
-1.516463471e-09
-1.081166018e-09
-5.144124093e-10
-5.327929641e-10
-1.230503743e-09
-2.077789394e-09
-2.065765129e-09
-5.951779367e-10
2.009359306e-09
4.686694507e-09
6.231540426e-09
6.164852834e-09
4.832545866e-09
3.010432388e-09
1.2136652e-09
-7.604980496e-10
-3.394291975e-09
-6.706560646e-09
-9.947675295e-09
-1.197891074e-08
-1.216003067e-08
-1.089644291e-08
-9.242310259e-09
-8.003676877e-09
-7.345349197e-09
-7.173683212e-09
-7.544843033e-09
-8.402268389e-09
-9.136782984e-09
-8.966754005e-09
-7.900115683e-09
-6.782774952e-09
-6.110492221e-09
-5.427506613e-09
-4.386719096e-09
-3.537865693e-09
-5.744174617e-08
-1636.601865
0
0
0
0
0
0
0
0
0
0
0
0
0
0
0
0
0
0
0
-8.715761644e-10
-1.94534012e-09
-2.441153965e-09
-1.947027451e-09
-1.137584947e-09
-9.833991402e-10
-1.7991769e-09
-2.615269576e-09
-2.165260122e-09
3.295022963e-10
4.395020642e-09
8.347644518e-09
1.052212164e-08
1.014753305e-08
7.781847246e-09
4.574682821e-09
1.161314927e-09
-2.65142222e-09
-7.407419823e-09
-1.300529859e-08
-1.81828357e-08
-2.123492339e-08
-2.137349114e-08
-1.940081375e-08
-1.695618177e-08
-1.523693448e-08
-1.443677988e-08
-1.436294255e-08
-1.505916027e-08
-1.639803596e-08
-1.739231694e-08
-1.682146023e-08
-1.475583756e-08
-1.257987295e-08
-1.109014657e-08
-9.642153859e-09
-7.828900134e-09
-6.523402769e-09
-4.849904702e-09
-4.185593149e-08
-1217.373742
0
0
0
0
0
0
0
0
0
0
0
0
0
0
0
0
0
0
0
-9.201040091e-10
-1.593824053e-09
-1.579850581e-09
-7.956139008e-10
-5.45661823e-11
2.567124918e-12
-5.52112906e-10
-9.173788641e-10
-1.826649115e-10
1.911150112e-09
4.707707627e-09
6.929743413e-09
7.668546472e-09
6.828677044e-09
4.945842764e-09
2.623548542e-09
-5.808229337e-11
-3.47451016e-09
-7.750116007e-09
-1.216686289e-08
-1.5452281e-08
-1.675862448e-08
-1.633702369e-08
-1.512588856e-08
-1.416736434e-08
-1.376477139e-08
-1.376474096e-08
-1.421509207e-08
-1.531951504e-08
-1.640151142e-08
-1.618469422e-08
-1.429483609e-08
-1.185814821e-08
-9.90188762e-09
-8.031818589e-09
-5.792250108e-09
-4.118233968e-09
-3.533064366e-09
-1.422255874e-09
-4.511918598e-08
-1344.239668
0
0
0
0
0
0
0
0
0
0
0
0
0
0
0
0
0
0
0
-7.089595775e-10
-9.727478666e-10
-6.533006519e-10
2.917641712e-10
1.172823414e-09
1.433432121e-09
1.049559541e-09
5.869722663e-10
5.670727084e-10
1.311588321e-09
2.534019548e-09
3.634345141e-09
4.079448154e-09
3.723852258e-09
2.717070165e-09
1.148569809e-09
-1.001595764e-09
-3.692659694e-09
-6.635149542e-09
-9.255977762e-09
-1.107517548e-08
-1.21018617e-08
-1.243997864e-08
-1.235209253e-08
-1.250887814e-08
-1.287065716e-08
-1.335513172e-08
-1.430489165e-08
-1.550506712e-08
-1.555523662e-08
-1.390687782e-08
-1.122260534e-08
-8.577035288e-09
-6.027887908e-09
-3.371376206e-09
-1.540704025e-09
-1.187488119e-09
-7.928211718e-10
7.499359852e-10
-4.890326357e-08
-1463.705938
0
0
0
0
0
0
0
0
0
0
0
0
0
0
0
0
0
0
0
-4.819724883e-10
-4.855498024e-10
3.345069217e-11
1.029370906e-09
1.926230325e-09
2.062461463e-09
1.379908426e-09
1.074743521e-10
-1.106360916e-09
-1.436401742e-09
-8.062349567e-10
4.066828462e-10
1.520551019e-09
1.948283655e-09
1.532695358e-09
4.179498122e-10
-1.07110649e-09
-2.594734081e-09
-4.066644949e-09
-5.642112879e-09
-7.50493164e-09
-9.466660895e-09
-1.067312336e-08
-1.127332359e-08
-1.163163075e-08
-1.187265634e-08
-1.265001643e-08
-1.410897078e-08
-1.472542948e-08
-1.34183401e-08
-1.075923905e-08
-7.666273123e-09
-4.484997498e-09
-1.318881377e-09
7.116931204e-10
7.281359805e-10
3.33081485e-10
1.070044026e-09
9.68527479e-10
-4.936577527e-08
-1483.780116
0
0
0
0
0
0
0
0
0
0
0
0
0
0
0
0
0
0
0
-3.148536632e-10
-2.825602461e-10
2.266008232e-10
1.156167753e-09
1.743748676e-09
1.401629692e-09
-1.69722116e-10
-2.520095004e-09
-4.527449391e-09
-4.766665056e-09
-3.411529397e-09
-1.261323303e-09
5.695662943e-10
1.337145621e-09
1.106000482e-09
4.911169159e-10
4.053486651e-11
-2.872498602e-10
-1.142692487e-09
-3.141391932e-09
-6.144113676e-09
-9.000346855e-09
-1.057819709e-08
-1.096577081e-08
-1.071280835e-08
-1.120038861e-08
-1.276652724e-08
-1.398049073e-08
-1.323708813e-08
-1.091079342e-08
-7.747452869e-09
-4.235197171e-09
-7.002420671e-10
1.601768254e-09
1.656016311e-09
9.288589717e-10
1.448619112e-09
2.063997068e-09
8.539960049e-10
-7.287069976e-08
-2175.380921
0
0
0
0
0
0
0
0
0
0
0
0
0
0
0
0
0
0
0
-3.457920548e-10
-3.186484378e-10
1.262036676e-10
7.713751511e-10
8.596425996e-10
-4.60602717e-10
-3.105290671e-09
-6.172935693e-09
-7.455452699e-09
-6.466683959e-09
-3.891391918e-09
-1.145379974e-09
5.781549039e-10
1.055683581e-09
9.928550006e-10
1.221622647e-09
1.813497436e-09
1.888743042e-09
3.914095805e-10
-2.794663869e-09
-6.502193007e-09
-9.146744638e-09
-1.006576399e-08
-9.997846658e-09
-1.062167006e-08
-1.247698042e-08
-1.421888961e-08
-1.416218247e-08
-1.224470032e-08
-9.390387513e-09
-6.025308212e-09
-2.283776048e-09
6.674347605e-10
1.4426912e-09
9.075958042e-10
1.343245895e-09
2.046994018e-09
1.66207345e-09
2.056854594e-10
-1.090760698e-07
-3209.196335
0
0
0
0
0
0
0
0
0
0
0
0
0
0
0
0
0
0
0
-3.995283896e-10
-4.329684543e-10
2.831275325e-11
3.036789349e-10
-5.793027321e-10
-2.957493525e-09
-6.249838898e-09
-8.387962157e-09
-7.989947346e-09
-5.645552045e-09
-2.677567053e-09
-5.566351072e-10
2.186237612e-10
3.292319609e-10
8.426946023e-10
2.030002032e-09
2.999886784e-09
2.474067453e-09
-1.17042133e-11
-3.53640952e-09
-6.478790968e-09
-7.915050285e-09
-8.456686216e-09
-9.548982829e-09
-1.176140436e-08
-1.396410335e-08
-1.452542051e-08
-1.325252999e-08
-1.124674373e-08
-8.855312996e-09
-5.635099294e-09
-2.1950601e-09
-2.272541772e-10
1.030788553e-10
6.106821456e-10
1.319793246e-09
2.55074674e-10
-4.358643764e-10
-2.231148399e-09
-1.62790684e-09
-5.939831231
0
0
0
0
0
0
0
0
0
0
0
0
0
0
0
0
0
0
0
-4.006817494e-10
-2.750345904e-10
8.946332445e-11
-2.645448234e-10
-2.115203891e-09
-5.054807606e-09
-7.548324538e-09
-7.795995767e-09
-5.990162499e-09
-3.370797702e-09
-1.508295905e-09
-1.019260609e-09
-1.21119665e-09
-9.206654089e-10
3.442488594e-10
1.902812937e-09
2.510522412e-09
1.421761769e-09
-9.655416757e-10
-3.433464889e-09
-5.067894487e-09
-6.131201069e-09
-7.668454813e-09
-1.01264347e-08
-1.254297535e-08
-1.355898195e-08
-1.309931966e-08
-1.229612019e-08
-1.146494012e-08
-9.42344614e-09
-5.868992559e-09
-2.85691784e-09
-1.740288556e-09
-1.042735474e-09
-5.60789527e-10
-1.578424162e-09
-2.874583852e-09
-2.439378222e-09
-3.483995744e-09
-1.030393248e-09
-7.336077185
0
0
0
0
0
0
0
0
0
0
0
0
0
0
0
0
0
0
0
-1.32938768e-10
1.156182174e-10
2.771634172e-10
-7.899140054e-10
-3.181763824e-09
-5.549779541e-09
-6.285506768e-09
-5.046293842e-09
-2.993604818e-09
-1.70332276e-09
-1.838451786e-09
-2.760772059e-09
-3.226065301e-09
-2.519486407e-09
-9.894726987e-10
3.371380579e-10
6.794302326e-10
3.280211573e-11
-1.053655927e-09
-2.140016653e-09
-3.399955228e-09
-5.379516647e-09
-8.110006163e-09
-1.06387551e-08
-1.19199896e-08
-1.213508022e-08
-1.24862831e-08
-1.315628745e-08
-1.238319731e-08
-9.051062708e-09
-5.279153837e-09
-3.809949e-09
-3.774418148e-09
-3.289370902e-09
-4.015395512e-09
-4.939586557e-09
-3.32530959e-09
-2.554088542e-09
-1.908984996e-09
-6.806971962e-10
-10.86140049
0
0
0
0
0
0
0
0
0
0
0
0
0
0
0
0
0
0
0
1.687001387e-10
5.319270493e-10
2.662075127e-10
-1.358229772e-09
-3.398840799e-09
-4.351978543e-09
-3.593216999e-09
-1.981682026e-09
-1.100917437e-09
-1.767739462e-09
-3.432918452e-09
-4.83541665e-09
-5.092901746e-09
-4.294381218e-09
-3.098812444e-09
-2.024250864e-09
-1.16116812e-09
-5.12411907e-10
-3.598381088e-10
-1.171595307e-09
-3.136776075e-09
-5.756288132e-09
-8.028344674e-09
-9.299554054e-09
-1.006512581e-08
-1.145451613e-08
-1.336680266e-08
-1.365658332e-08
-1.073148361e-08
-6.691600792e-09
-5.158536228e-09
-6.02241541e-09
-6.382921502e-09
-5.931306332e-09
-6.070837663e-09
-4.586987813e-09
-1.847969126e-09
-2.144378668e-09
-3.360112542e-10
-8.079074002e-10
-20.70763146
0
0
0
0
0
0
0
0
0
0
0
0
0
0
0
0
0
0
0
4.394398138e-10
5.659611952e-10
-2.593095452e-10
-1.857103117e-09
-2.857376387e-09
-2.405798886e-09
-1.074635264e-09
-2.666336984e-10
-1.007376802e-09
-2.977510617e-09
-4.960839388e-09
-6.057926496e-09
-6.255071135e-09
-5.953050307e-09
-5.218294394e-09
-3.835127337e-09
-1.984146536e-09
-5.747075258e-10
-5.710315121e-10
-2.026656225e-09
-3.977100178e-09
-5.339141678e-09
-5.962176602e-09
-6.815848114e-09
-8.90507192e-09
-1.168905582e-08
-1.279728447e-08
-1.049256047e-08
-6.774986099e-09
-5.650509241e-09
-7.233370113e-09
-7.834606624e-09
-6.918614796e-09
-6.181106689e-09
-4.820056035e-09
-3.749921492e-09
-2.28049008e-09
-1.304059733e-09
6.356948725e-10
-1.043871773e-06
-30896.68388
0
0
0
0
0
0
0
0
0
0
0
0
0
0
0
0
0
0
0
4.004960147e-10
1.001742248e-10
-9.819488321e-10
-1.958994179e-09
-1.782743433e-09
-6.146605516e-10
2.693745768e-10
-1.743965399e-10
-1.863331403e-09
-3.768308656e-09
-5.090196556e-09
-5.908783527e-09
-6.605637843e-09
-6.934535629e-09
-6.159329955e-09
-4.234242743e-09
-2.347433973e-09
-1.891865157e-09
-2.906776838e-09
-3.991340773e-09
-3.931337232e-09
-3.136082001e-09
-3.233685256e-09
-5.253214811e-09
-8.255411609e-09
-9.821630146e-09
-8.426964444e-09
-5.763203624e-09
-5.373498169e-09
-7.46243132e-09
-7.890339285e-09
-5.728719479e-09
-5.396739912e-09
-6.122806339e-09
-4.363760982e-09
-4.590130876e-09
-1.022109699e-09
1.883247101e-09
3.590761189e-09
-2.491820008e-06
-73702.34664
0
0
0
0
0
0
0
0
0
0
0
0
0
0
0
0
0
0
0
7.387792721e-11
-5.28879159e-10
-1.350690676e-09
-1.341353663e-09
-3.527849372e-10
6.150204661e-10
5.262751561e-10
-6.25667642e-10
-1.973968599e-09
-2.849286183e-09
-3.599683182e-09
-4.828331123e-09
-6.231499871e-09
-6.639963166e-09
-5.540787134e-09
-4.100441039e-09
-3.984111999e-09
-5.252445504e-09
-6.048856412e-09
-4.814788071e-09
-2.339975809e-09
-9.7969629e-10
-1.997881129e-09
-4.228337389e-09
-5.46166664e-09
-4.841442142e-09
-3.872091934e-09
-4.749433378e-09
-6.902964498e-09
-6.828630559e-09
-4.014191415e-09
-3.404260026e-09
-6.647443154e-09
-7.618832277e-09
-4.047041634e-09
-2.68453385e-09
1.810168399e-09
4.265819196e-09
5.476116742e-09
1.431441151e-05
423244.3316
0
0
0
0
0
0
0
0
0
0
0
0
0
0
0
0
0
0
0
-2.792232181e-10
-8.092251113e-10
-7.778993666e-10
1.606659425e-10
1.229355728e-09
1.411774687e-09
6.651247937e-10
-1.028758437e-10
-3.320324074e-10
-5.235275772e-10
-1.644340099e-09
-3.60012987e-09
-5.051831467e-09
-5.048306781e-09
-4.51497042e-09
-5.293285092e-09
-7.532384511e-09
-8.987000869e-09
-7.551227666e-09
-4.012664816e-09
-1.261603074e-09
-8.410229814e-10
-1.482033036e-09
-1.380236029e-09
-7.569757223e-10
-1.325913971e-09
-3.724437917e-09
-5.928579987e-09
-5.004691642e-09
-2.004943154e-09
-2.352139495e-09
-6.41465884e-09
-7.894963961e-09
-5.749043857e-09
-1.410665628e-09
-2.326440174e-10
1.072700809e-10
4.921037012e-09
2.835425122e-09
37520.71185
508552.674
0
0
0
0
0
0
0
0
0
0
0
0
0
0
0
0
0
0
0
-3.431374947e-10
-2.764861567e-10
8.497536489e-10
2.211494303e-09
2.722870624e-09
2.274025648e-09
1.76036934e-09
2.003426534e-09
2.41609152e-09
1.695107323e-09
-4.205927037e-10
-2.573146901e-09
-3.429150371e-09
-3.618796905e-09
-5.126321611e-09
-8.411001939e-09
-1.10607338e-08
-1.039867681e-08
-6.90195497e-09
-3.644178306e-09
-2.304021268e-09
-1.412525209e-09
5.549785906e-10
2.149017243e-09
9.777752816e-10
-2.320868349e-09
-4.312590593e-09
-2.781227334e-09
-3.748427211e-11
-1.294313942e-09
-6.47742247e-09
-7.413173057e-09
-3.378102018e-09
-3.190169794e-09
-1.390390043e-09
-1.17881098e-09
-6.128855052e-10
4.524644851e-09
3.5746512e-09
8.31057452e+11
-267159.3771
0
0
0
0
0
0
0
0
0
0
0
0
0
0
0
0
0
0
0
7.188529906e-11
1.035992371e-09
2.928338875e-09
4.092119246e-09
4.015609803e-09
3.666852746e-09
4.023004054e-09
4.758726276e-09
4.414928816e-09
2.283889385e-09
-3.691278527e-10
-1.859853797e-09
-2.423121496e-09
-4.115100586e-09
-7.855607935e-09
-1.143332394e-08
-1.179716911e-08
-9.026318936e-09
-6.219663726e-09
-5.059664645e-09
-3.659956883e-09
-3.406011783e-10
2.568346004e-09
1.739969435e-09
-1.474845947e-09
-2.340786796e-09
2.415763745e-10
2.004858826e-09
-5.092986385e-10
-4.812631369e-09
-5.317697222e-09
-1.955940863e-09
-1.6890025e-09
-5.259024338e-09
-2.011304418e-09
2.959468521e-10
7.297067695e-10
-3.715907521e-09
-3.619604473e+11
-2.475386074e+11
0
0
0
0
0
0
0
0
0
0
0
0
0
0
0
0
0
0
0
0
8.23440698e-10
2.505902298e-09
4.485002423e-09
5.163375641e-09
5.073567745e-09
5.470662541e-09
6.412723532e-09
6.405695166e-09
4.37049755e-09
1.248326347e-09
-9.137448112e-10
-1.754477649e-09
-3.225228579e-09
-6.73115874e-09
-1.05284553e-08
-1.146806047e-08
-9.302089032e-09
-7.190783469e-09
-6.969303047e-09
-6.322396719e-09
-2.970395457e-09
5.322005834e-10
1.906038321e-10
-2.329955261e-09
-1.441708916e-09
3.075391237e-09
4.786797484e-09
7.591025645e-10
-2.845122978e-09
-9.213021689e-10
1.065929521e-09
-2.122064243e-09
-5.406846715e-09
-4.521573968e-09
-4.716055418e-10
9.250994001e-10
-7.134463384e-09
5.24535244e-11
2.2209815e+12
39740.51873
0
0
0
0
0
0
0
0
0
0
0
0
0
0
0
0
0
0
0
0
1.518437421e-09
3.380445349e-09
4.885892918e-09
5.32911912e-09
5.924503324e-09
7.104214923e-09
7.617019146e-09
5.966238838e-09
2.634866721e-09
-1.846813053e-10
-1.428370363e-09
-2.648472279e-09
-5.636026121e-09
-9.185622004e-09
-1.017585199e-08
-8.088999421e-09
-6.213782626e-09
-6.857563271e-09
-7.586266965e-09
-5.350579173e-09
-2.401456179e-09
-3.046663056e-09
-5.309208578e-09
-2.788347132e-09
3.953529227e-09
6.538679765e-09
2.602009283e-09
1.251920928e-10
3.367356702e-09
4.774166287e-09
-2.580098653e-10
-4.703467652e-09
-3.656061316e-09
-2.417735697e-09
-3.106301772e-09
-7.404313015e-08
-2.896209468e-06
5.577791179e+11
-1.199317193e+12
0
0
0
0
0
0
0
0
0
0
0
0
0
0
0
0
0
0
0
0
0
1.762208185e-09
3.26965751e-09
4.262975417e-09
5.080723452e-09
6.585783012e-09
7.850410393e-09
7.028218674e-09
4.03295285e-09
8.718846544e-10
-7.332143731e-10
-1.770802141e-09
-4.241104335e-09
-7.539691262e-09
-8.566733907e-09
-6.338686366e-09
-4.1986838e-09
-5.16148211e-09
-7.107044722e-09
-6.345260581e-09
-4.558119408e-09
-6.255909048e-09
-9.30801719e-09
-6.317932534e-09
2.15764796e-09
6.059940799e-09
2.718921398e-09
2.305150179e-09
7.511988697e-09
6.949700432e-09
4.261799128e-10
-8.983543386e-10
3.162929318e-10
-1.148527242e-09
-8.940165693e-09
-2.32748732e-07
-5.040711705e-06
-5.036729317e+11
-6.023749622e+11
0
0
0
0
0
0
0
0
0
0
0
0
0
0
0
0
0
0
0
0
0
0
1.444234676e-09
2.410900089e-09
3.384871548e-09
5.082411775e-09
7.049143482e-09
7.455015623e-09
5.323656624e-09
2.356954223e-09
6.289953959e-10
-1.324279065e-10
-2.034480826e-09
-5.157001665e-09
-6.520472949e-09
-4.455422003e-09
-2.0049236e-09
-2.932768056e-09
-5.742819695e-09
-6.243322291e-09
-5.442271314e-09
-8.165726582e-09
-1.258587659e-08
-1.04118123e-08
-1.512503074e-09
3.37618316e-09
1.09095863e-09
2.21575557e-09
9.296026466e-09
8.942081938e-09
6.907956032e-10
3.540862097e-10
2.490053301e-09
1.458358086e-09
-9.366596875e-09
-2.693720092e-07
-1.020360927e-05
-1.228931101e+11
-9.709127711e+13
-295130.8921
0
-531480.0401
0
0
0
0
0
0
0
0
0
0
0
0
0
0
0
0
0
0
0
0
8.477301039e-10
1.595753995e-09
3.192429937e-09
5.652989115e-09
7.181904645e-09
6.269343205e-09
3.824684655e-09
2.22344174e-09
1.898552244e-09
8.222230462e-10
-1.920322788e-09
-3.76275954e-09
-2.278448889e-09
2.18913678e-10
-6.248783538e-10
-4.204573142e-09
-5.836369963e-09
-5.540660886e-09
-8.559406813e-09
-1.404238019e-08
-1.313554162e-08
-4.664537438e-09
1.83677526e-10
-1.913727529e-09
4.233587368e-10
8.483381593e-09
8.10405745e-09
1.227557762e-09
3.734985578e-09
6.204552454e-09
1.77163983e-12
-1.964360232e-09
-3.264157512e-07
-1.835745858e-05
-110411.1522
7.531777357e+12
-6.596930058e+12
0
-456131.32
8.49087903e+12
-3340.806168
0
0
0
0
0
0
0
0
0
0
0
0
0
0
0
0
0
0
0
4.244470455e-10
1.522583494e-09
3.958746453e-09
6.325382853e-09
6.587195466e-09
4.795699581e-09
3.315134486e-09
3.372906342e-09
3.329937843e-09
1.429556327e-09
-6.170082148e-10
1.847911682e-10
2.577262165e-09
1.906300004e-09
-2.382520125e-09
-5.309473239e-09
-5.365983936e-09
-7.896605096e-09
-1.366979566e-08
-1.374847517e-08
-5.471605625e-09
-5.401231046e-10
-3.546426398e-09
-1.850218361e-09
6.561258403e-09
5.966339408e-09
-1.058612519e-09
3.604482317e-09
9.687540219e-09
2.603923003e-09
-4.310347996e-09
-1.387195522e-07
-2.995172636e-05
-0.0005266677403
5.464414752e+12
-1.898118875e+12
0
0
-410891.3554
-1374993.421
794591.9534
0
0
0
0
0
0
0
0
0
0
0
0
0
0
0
0
0
0
0
5.012802262e-10
2.237290439e-09
4.913191183e-09
6.079358945e-09
4.923602159e-09
3.336315509e-09
3.455569308e-09
4.340070786e-09
3.688507723e-09
1.993116258e-09
2.343929009e-09
4.777786256e-09
4.715622578e-09
1.505924712e-10
-4.156106081e-09
-4.813366814e-09
-6.498555014e-09
-1.1946473e-08
-1.280603502e-08
-4.306233303e-09
1.792935895e-09
-1.692537325e-09
-1.767789481e-09
5.555073191e-09
4.470889499e-09
-2.185932037e-09
2.311238793e-09
8.311912127e-09
2.471890444e-09
-2.19306493e-09
-2.129561644e-08
-1.230332972e-05
-494601.1089
2.226750248e+12
-1.559758055e+12
0
0
0
54513.57422
455696.2328
688726.3373
0
0
0
0
0
0
0
0
0
0
0
0
0
0
0
0
0
0
0
1.009569386e-09
3.039911521e-09
4.725185139e-09
4.03204883e-09
2.196142545e-09
1.851743712e-09
3.259882271e-09
3.988216396e-09
3.193228964e-09
3.47021726e-09
6.104826669e-09
7.212665928e-09
3.255728852e-09
-2.059723659e-09
-3.539988287e-09
-4.324155943e-09
-9.09560538e-09
-1.10230283e-08
-2.610653656e-09
5.638414509e-09
2.644149447e-09
4.780733845e-10
6.563677418e-09
4.274484301e-09
-3.492172382e-09
2.037072001e-09
8.59043494e-09
3.147875861e-09
3.813108704e-10
1.902629355e-09
-1.44913039e-06
-404236.9639
1.520659532e+12
663405.4662
0
0
0
0
-178683.1538
503882.2376
-129294.1313
0
0
0
0
0
0
0
0
0
0
0
0
0
0
0
0
0
0
0
1.423547406e-09
2.842379803e-09
2.465068968e-09
2.437413308e-10
-9.95603264e-10
3.003585229e-10
2.20742818e-09
2.694876622e-09
3.242097702e-09
6.050498089e-09
8.544761053e-09
6.11574291e-09
5.524747264e-10
-1.792915256e-09
-1.659949498e-09
-5.220422674e-09
-8.499901463e-09
-1.520189935e-09
8.839537018e-09
7.828010416e-09
3.758574016e-09
8.52976024e-09
6.607410935e-09
-3.505570389e-09
6.191552885e-10
7.946025584e-09
2.845730034e-09
-1.128361289e-09
5.801006661e-09
1.729553121e-09
-24383.84506
3.416673387e+11
648672.4525
0
0
0
0
0
297344.2071
8.75021681e+12
3702.116351
0
0
0
0
0
0
0
0
0
0
0
0
0
0
0
0
0
0
0
1.174691891e-09
1.031708285e-09
-1.499801546e-09
-3.954603459e-09
-3.537851227e-09
-1.020703041e-09
8.00499828e-10
1.875275989e-09
4.629882069e-09
8.211224342e-09
7.797210897e-09
2.867345584e-09
-2.282724065e-10
6.944786785e-10
-8.368134849e-10
-4.915442377e-09
-7.592508263e-10
1.020392935e-08
1.168574066e-08
6.329299672e-09
9.557152924e-09
9.360631223e-09
-1.617930191e-09
-2.562074071e-10
6.175881904e-09
1.994322433e-09
-1.759019644e-09
2.625138878e-09
-2.987247396e-10
-2.749635451e-09
-7.676126816e+11
764394.4259
0
0
0
0
0
0
0
1658587.126
0
0
0
0
0
0
0
0
0
0
0
0
0
0
0
0
0
0
0
0
9.178050494e-11
-1.900907603e-09
-5.437214671e-09
-6.58202411e-09
-4.396326748e-09
-1.654978419e-09
-5.43461091e-11
2.255298151e-09
6.117016258e-09
7.59359151e-09
4.040958856e-09
5.266562225e-10
1.903988769e-09
3.089898586e-09
-2.421909755e-10
7.9784528e-10
1.06000382e-08
1.435633424e-08
7.857183609e-09
8.348929873e-09
1.066597947e-08
6.04463341e-10
-1.204517772e-10
8.835029808e-09
5.305661328e-09
-9.359155615e-10
1.009405487e-09
4.257581795e-09
3.132101387e-09
-1.068383603e+13
1.443086753e+13
0
0
0
0
0
0
0
48554.55375
6.749898884e+12
186678.9693
0
0
0
0
0
0
0
0
0
0
0
0
0
0
0
0
0
0
0
-1.434683107e-09
-4.525857828e-09
-7.222448952e-09
-6.277302199e-09
-3.38287554e-09
-1.547477551e-09
-1.918368488e-10
2.725161196e-09
5.169170509e-09
3.326207223e-09
-9.456751442e-11
1.362444572e-09
5.459523368e-09
4.821823415e-09
3.934936958e-09
1.137028054e-08
1.711124013e-08
1.064289846e-08
6.99620415e-09
1.058491793e-08
3.632528443e-09
-3.901790074e-10
8.508255199e-09
8.164483438e-09
2.910302552e-09
1.69660903e-09
-5.648184789e-09
-5.971379586e-09
-2.449908554
-1.786589129e+13
-6.053129294e+13
-528857.8582
0
0
0
0
0
0
1348198.059
911779.4507
2250483.827
0
0
0
0
0
0
0
0
0
0
0
0
0
0
0
0
0
0
0
-2.601044492e-09
-5.314655475e-09
-5.713208722e-09
-3.261496538e-09
-1.392705335e-09
-1.296949197e-09
-5.654322645e-10
1.181325213e-09
4.965928075e-10
-2.466068352e-09
-1.331230486e-09
5.123756918e-09
8.673128218e-09
8.021623061e-09
1.281192654e-08
1.983494521e-08
1.512230805e-08
7.363065473e-09
9.491368498e-09
6.184724064e-09
2.728843112e-10
7.436846866e-09
9.552228326e-09
5.432384782e-09
4.651024931e-09
2.492199031e-09
-2.143153849e-09
-2.946793244e-09
-5.255437653
-6.646297956e+12
1.720067934e+12
-1.926999901e+12
0
0
0
0
-52318.51932
-1318519.505
-406039.7988
-258695.2286
0
0
0
0
0
0
0
0
0
0
0
0
0
0
0
0
0
0
0
0
-2.646163591e-09
-3.598282484e-09
-1.482893954e-09
8.245675942e-10
2.240510778e-10
-1.692955489e-09
-2.358909741e-09
-3.32649276e-09
-6.155439739e-09
-5.980622936e-09
1.386827557e-09
9.315094135e-09
1.109554444e-08
1.380636433e-08
2.113256537e-08
1.993158481e-08
1.00341296e-08
8.603529168e-09
8.150978693e-09
1.315217087e-09
6.037096113e-09
1.088055953e-08
5.908099761e-09
1.214160669e-09
-1.553147384e-09
-8.997294706e-09
-7.003617413e-09
-6.348402118e-09
0.3820749665
-1.146661035e+12
-1.601150756e+13
3.305194912e+12
-2.995517337e+11
0
0
4.663223472e+11
-1.27017927e+12
-1009881.816
8.351190082e+12
-9.804649929e+10
0
0
0
0
0
0
0
0
0
0
0
0
0
0
0
0
0
0
0
0
-1.347787778e-09
1.078872932e-11
3.677888925e-09
4.109517488e-09
7.193539362e-10
-2.90273794e-09
-5.656633454e-09
-9.270310836e-09
-1.106290318e-08
-5.122735156e-09
5.556299612e-09
1.112740356e-08
1.297151511e-08
1.932419629e-08
2.247647072e-08
1.435205603e-08
9.533912541e-09
1.083529249e-08
4.669785716e-09
3.415014554e-09
7.061281997e-09
4.495258068e-09
1.092804182e-09
-2.836700781e-09
-1.159858466e-09
-1.22468211e-08
-7.074990751e-09
-5.103145013e-09
3.20831803
-3.310181401
-2.953819089e+12
-8.390613263e+12
2.858405554e+12
1.048474728e+12
-156910.5119
1.76375481e+12
5.474845039
4.919315873
4.720831043
-6.924442165e+12
-516011.1464
0
0
0
0
0
0
0
0
0
0
0
0
0
0
0
0
0
0
0
7.403525138e-10
3.85536492e-09
7.926203038e-09
5.64035063e-09
5.385329974e-10
-4.164398142e-09
-9.067294218e-09
-1.357772747e-08
-1.168936099e-08
-1.762934432e-09
6.808456995e-09
9.099570611e-09
1.324785107e-08
1.940743884e-08
1.626988487e-08
1.055647484e-08
1.292895214e-08
1.065051242e-08
6.401044646e-09
7.85411605e-09
4.216503347e-09
-5.615054541e-11
-8.144292266e-09
-8.237939327e-09
-7.395810632e-09
-4.09786149e-09
-5.52799013e-09
-3.185551031e-09
3.302732656
-1.500108995
3.07308293
1.071651847e+11
-5.296512842e+12
-3.239310572e+12
1.928791294e+12
3.068531476e+12
10.47578758
11.85472
-1.801785525e+11
-1.547019228e+13
-460889.1799
0
0
0
0
0
0
0
0
0
0
0
0
0
0
0
0
0
0
0
2.399517219e-09
7.153221722e-09
9.680322471e-09
5.906051592e-09
8.25944236e-10
-4.474043156e-09
-1.07745644e-08
-1.398206218e-08
-8.696994279e-09
5.98794753e-11
3.068782299e-09
4.307146446e-09
1.051996322e-08
1.308628487e-08
9.473172228e-09
1.230849779e-08
1.525226195e-08
1.059227067e-08
9.067710386e-09
3.768889537e-09
-1.781472227e-09
-6.208568283e-09
-1.337425982e-08
-3.62115733e-09
-5.723097666e-09
-1.166995792e-09
-3.699059962e-09
-2.122816668e-09
-0.7792928498
1.634136631
0.9309408154
4.650318671
1.584580903e+12
-1.131523666e+13
2.058147511e+13
-1.197476393e+12
13.6404874
12.29762766
1.11977683e+12
-3.297287965e+11
0
0
0
0
0
0
0
0
0
0
0
0
0
0
0
0
0
0
0
0
3.758408075e-09
8.393436524e-09
9.402079463e-09
6.031309597e-09
2.116102183e-09
-3.572258219e-09
-9.917657989e-09
-1.061553757e-08
-4.893457912e-09
-1.652937699e-09
-2.958991004e-09
3.007641632e-12
5.963112013e-09
6.527037549e-09
9.693317947e-09
1.752935421e-08
1.682392825e-08
1.330023954e-08
7.65276287e-09
-7.469219188e-10
-4.165940181e-09
-9.344453325e-09
-9.316777369e-09
-3.012205168e-09
-3.876153461e-10
1.946498527e-09
-4.164632366e-09
-3.435018225e-09
-3.540022578
4.372378242
4.964139651
8.554642933
6.267798827
-0.2925847411
-1.950909241e+13
8.172777458e+11
1.358240367e+13
-5.00753185e+12
3.130002884e+11
0
0
0
0
0
0
0
0
0
0
0
0
0
0
0
0
0
0
0
0
0
4.036466453e-09
7.847242e-09
8.170399421e-09
6.449882988e-09
3.678080081e-09
-2.002163725e-09
-6.787352112e-09
-5.502649873e-09
-2.797322366e-09
-5.568929723e-09
-7.505400217e-09
-2.910721655e-09
7.070741169e-10
3.650757885e-09
1.332985492e-08
1.908447948e-08
1.762471896e-08
1.304609906e-08
1.801002492e-09
-2.524074996e-09
-8.739349358e-09
-8.373000986e-09
-5.374416352e-09
7.469727128e-10
-1.065561637e-09
-2.038161927e-10
-8.201166925e-09
-6.519053838e-09
-0.8934270519
1.226656218
5.662324171
3.555682342
0.326543739
1135.450656
10.48508603
-5.646940338e+12
-2.468582802e+13
4.805144312e+11
1.217474511e+13
1.885710907e+12
0
0
0
0
0
0
0
0
0
0
0
0
0
0
0
0
0
0
0
0
3.373713255e-09
6.14542098e-09
6.575424897e-09
6.565987392e-09
4.373028538e-09
-1.547240205e-10
-1.842927321e-09
-1.979269046e-10
-2.287591507e-09
-8.214171961e-09
-8.803649203e-09
-5.281225869e-09
-3.125219023e-09
4.657195322e-09
1.442826876e-08
1.574261423e-08
1.392585419e-08
6.122837255e-09
-2.386134165e-09
-4.813609936e-09
-5.692081076e-09
-4.112493646e-09
-5.453493499e-10
-1.891411845e-09
-4.324502087e-09
-6.688699511e-09
-9.746354845e-09
-1.609757767e-09
2.142031062e-09
11.79422608
3.307686147
2.809984928
1.332975973
1.661877651
-0.2627828574
-1.195491622e+13
5.896642063e+13
-1.965613194e+13
1.56439158e+13
-1.244978452e+12
4159.374628
0
0
0
0
0
0
0
0
0
0
0
0
0
0
0
0
0
0
0
2.096947314e-09
3.807065032e-09
4.382603749e-09
5.341426055e-09
3.801887911e-09
2.033222959e-09
3.910453395e-09
4.366098574e-09
-1.949615994e-09
-7.999253086e-09
-8.577374399e-09
-8.383242411e-09
-5.258877937e-09
4.508817086e-09
9.921758478e-09
1.076548768e-08
8.027247722e-09
-5.122944084e-10
-1.590004118e-09
-5.655822977e-09
2.630729071e-09
-2.320142873e-09
-1.956345934e-09
-5.846221837e-09
-5.348129416e-09
-8.254229805e-09
-3.82607856e-09
6.681076474e-09
6.355222104e-09
7.268836058
1.205326741
-1.82827749
-0.7868868935
0.2314060567
0.7277194416
0.01767795327
2.6916506e+13
-1.166967473e+13
-1.382260528e+13
5.051666137e+12
1.218806845e+12
0
0
0
0
0
0
0
0
0
0
0
0
0
0
0
0
0
0
0
5.980461545e-10
1.305035217e-09
1.534860107e-09
2.515199096e-09
2.517795444e-09
4.505055727e-09
8.07445046e-09
6.040988342e-09
-2.336333803e-09
-7.572936938e-09
-1.000910751e-08
-1.130955855e-08
-4.821091952e-09
3.849505476e-09
7.201983713e-09
7.618779473e-09
2.411919726e-09
-1.684445913e-09
-6.112428781e-10
6.882971795e-10
6.508928015e-09
-1.664582512e-10
-2.607644579e-09
-1.077698972e-08
-1.825136617e-09
-1.783266256e-09
2.698077692e-09
8.463424616e-09
9.688677649e-09
3.427127376e-09
3.857098299
-3.663882432
2.305201053
0.1362089822
-0.1867262048
-1.253165028
-6.090748248
1.045556873e+12
9.4091482e+12
2.154304269e+12
7.409798559e+12
4.162612163e+12
47613.73204
0
0
0
0
0
0
0
0
0
0
0
0
0
0
0
0
0
-8.165170912e-10
-9.616804891e-10
-1.017950022e-09
-2.790100805e-10
1.840262543e-09
7.132650581e-09
9.578295195e-09
4.56516746e-09
-2.651873819e-09
-6.501490583e-09
-9.22403901e-09
-7.538907664e-09
-5.806402388e-11
2.772093584e-09
3.72308071e-09
3.061986106e-09
-7.832840761e-10
2.052601709e-09
9.72545973e-10
7.065054469e-09
1.055982629e-08
5.97773061e-11
-4.063452046e-09
-9.732006602e-09
8.433828103e-10
1.736591085e-09
5.612153777e-09
9.576666943e-09
1.042169544e-08
1.973441304e-09
2.26978238
0.4302536183
0.2076444249
1.195981717
-0.4396039344
-3.133919849
-3.40954136
-0.7229186268
5.336935197
5.859201673e+12
1.047959756e+13
6.673900318e+12
8.7522783e+12
3.008742264e+12
43221.61773
-8629.974388
0
0
0
0
0
0
0
0
0
0
0
0
0
0
-1.84002088e-09
-2.826816622e-09
-2.719375433e-09
-1.31108472e-09
2.428762811e-09
8.180221399e-09
7.897949908e-09
7.363627406e-10
-4.032642957e-09
-7.125027667e-09
-8.750985271e-09
-3.679854456e-09
1.517729127e-09
1.786523725e-09
8.126154806e-10
-1.68776685e-09
-3.724999446e-09
3.854122113e-09
9.231910268e-09
1.162503257e-08
8.150653117e-09
-3.072850836e-09
-4.459631316e-09
-6.868320123e-09
1.460707812e-09
5.109724571e-09
6.444376932e-09
7.237249932e-09
6.169479971e-09
5.530347414e-10
-4.786928184e-10
-1.437322872
5.011998646
1.3117497
-4.014390936
-3.283419463
2.651214156
-3.088069515
0.4728252445
-1.059217291
-11.5615346
2.760797028e+12
5.534987061e+12
1.168700564e+12
1.039989406e+13
1.83599287e+13
1.955573442e+12
5918.704649
-2842.958195
0
0
0
0
0
0
0
0
0
0
0
-2.039721667e-09
-3.492983483e-09
-3.448418206e-09
-9.547089378e-10
3.706373713e-09
6.195276182e-09
3.183767448e-09
-2.596682826e-09
-4.191532558e-09
-4.796367135e-09
-2.390679133e-09
3.189599686e-09
1.534755618e-09
-2.825031128e-09
-7.434849592e-09
-6.969849448e-09
-1.190086913e-09
8.202630788e-09
1.387740551e-08
9.537984672e-09
9.261089965e-10
-4.230898241e-09
-5.963906454e-09
-2.080556249e-09
4.434072106e-09
8.125761515e-09
4.801878781e-09
-9.511623059e-10
5.431526352e-11
4.287128481e-09
9.986070836e-10
-0.5515336518
2.716798091
-0.5402524819
-1.182404898
-0.041208201
3.804413562
-0.9356439878
-3.510486431
-2.300125508
6.376237795
3.165125902
-1.645167854
-0.7514470582
1.867142028e+12
3.679117608e+12
3.258132039e+11
1.910338145e+13
1.686256756e+13
1.50529641e+11
-26752.1421
-7.399376961
0
0
0
0
0
0
0
0
-1.424499107e-09
-2.069429301e-09
-1.539434164e-09
6.371737685e-10
4.90796994e-09
3.589855436e-09
-1.204829033e-09
-2.462347855e-09
-1.66511551e-09
-1.008905375e-09
1.806719622e-09
1.587051729e-09
-4.206069127e-09
-7.589697741e-09
-7.644827875e-09
-4.346991235e-09
4.506365571e-09
1.091213829e-08
1.323662966e-08
6.74319978e-09
-5.98067616e-09
-5.592609933e-09
-2.36879544e-09