/*--------------------------------*- C++ -*----------------------------------*\
  =========                 |
  \\      /  F ield         | OpenFOAM: The Open Source CFD Toolbox
   \\    /   O peration     | Website:  https://openfoam.org
    \\  /    A nd           | Version:  10
     \\/     M anipulation  |
\*---------------------------------------------------------------------------*/
FoamFile
{
    format      ascii;
    class       volVectorField;
    location    "0.0005";
    object      U;
}
// * * * * * * * * * * * * * * * * * * * * * * * * * * * * * * * * * * * * * //

dimensions      [0 1 -1 0 0 0 0];

internalField   nonuniform List<vector> 
3600
(
(0 -0.614377552 -0.002629291395)
(0 -0.6076475519 -0.002754508315)
(0 -0.6018196787 -0.002800277506)
(0 -0.5962479168 -0.002855052088)
(0 -0.5904928414 -0.002939296156)
(0 -0.5845265306 -0.003044806174)
(0 -0.5783346596 -0.003167590951)
(0 -0.5718792733 -0.003312645099)
(0 -0.5651096468 -0.003484022403)
(0 -0.5579706386 -0.003683472097)
(0 -0.5504054401 -0.003911851262)
(0 -0.5423557676 -0.004170204363)
(0 -0.5337608596 -0.004460045712)
(0 -0.5245563897 -0.004783397785)
(0 -0.5146734383 -0.005142749387)
(0 -0.5040376028 -0.005540960639)
(0 -0.4925683457 -0.005981124689)
(0 -0.480178665 -0.006466414022)
(0 -0.4667751275 -0.006999992382)
(0 -0.4522581061 -0.007585197087)
(0 -0.4365210503 -0.00822622647)
(0 -0.4194459321 -0.008928826555)
(0 -0.4009009298 -0.009695064084)
(0 -0.3807640353 -0.01050982644)
(0 -0.3589661804 -0.01134399494)
(0 -0.3354868133 -0.01218031259)
(0 -0.3103324735 -0.01299804984)
(0 -0.2835672373 -0.01375920097)
(0 -0.2553427228 -0.01441911109)
(0 -0.2259085758 -0.01492584999)
(0 -0.1956228658 -0.01522423686)
(0 -0.164958949 -0.01525594697)
(0 -0.1345099074 -0.01496268657)
(0 -0.1049858155 -0.01428883006)
(0 -0.07720905476 -0.01318463943)
(0 -0.05210265287 -0.01161771529)
(0 -0.03065733926 -0.009576104138)
(0 -0.01372758835 -0.007051942003)
(0 -0.001380209941 -0.003964234502)
(0 9.315499108e-05 -0.0001103720122)
(0 4.050692514e-11 -2.168688737e-11)
(0 7.995004437e-11 9.477719954e-13)
(0 7.718578997e-11 1.827379584e-12)
(0 7.280047856e-11 2.559304061e-12)
(0 6.713220276e-11 3.108972797e-12)
(0 6.055500719e-11 3.468224969e-12)
(0 5.343624321e-11 3.650542836e-12)
(0 4.610299597e-11 3.682709833e-12)
(0 3.882340626e-11 3.59688606e-12)
(0 3.180167932e-11 3.424846731e-12)
(0 2.518218132e-11 3.194656332e-12)
(0 1.905823198e-11 2.929297951e-12)
(0 1.348236894e-11 2.646571048e-12)
(0 8.476147448e-12 2.359657786e-12)
(0 4.038555985e-12 2.077941778e-12)
(0 1.527852342e-13 1.807837343e-12)
(0 -3.208557923e-12 1.553514947e-12)
(0 -6.079549193e-12 1.31748703e-12)
(0 -8.498083703e-12 1.101059511e-12)
(0 -1.050378784e-11 9.046712429e-13)
(0 -0.6127406947 -0.007992019999)
(0 -0.6061348045 -0.008210755992)
(0 -0.6002368346 -0.008352704207)
(0 -0.5947049568 -0.008537082586)
(0 -0.5890070632 -0.008792726283)
(0 -0.5830873208 -0.009108292648)
(0 -0.57694208 -0.009473631543)
(0 -0.5705394254 -0.009906192812)
(0 -0.5638269151 -0.01041812338)
(0 -0.5567484865 -0.01101403108)
(0 -0.5492484018 -0.01169595268)
(0 -0.5412703549 -0.01246683892)
(0 -0.5327556461 -0.01333123306)
(0 -0.5236419184 -0.01429528911)
(0 -0.5138620487 -0.01536662303)
(0 -0.5033431391 -0.01655402727)
(0 -0.4920057165 -0.01786703626)
(0 -0.4797632893 -0.01931538553)
(0 -0.4665225048 -0.0209085518)
(0 -0.4521842141 -0.02265604895)
(0 -0.4366442353 -0.02456974018)
(0 -0.4197862045 -0.0266674156)
(0 -0.4014735385 -0.02895963835)
(0 -0.3815710159 -0.03140791521)
(0 -0.360001161 -0.03391792538)
(0 -0.3367336329 -0.03644442331)
(0 -0.3117524227 -0.03892705013)
(0 -0.2851025469 -0.0412456941)
(0 -0.2569239852 -0.04326531294)
(0 -0.2274556727 -0.04482920952)
(0 -0.197047521 -0.04577115464)
(0 -0.1661687886 -0.04591273241)
(0 -0.13541601 -0.04507410414)
(0 -0.1055122624 -0.04308096703)
(0 -0.07731358905 -0.03977160293)
(0 -0.05180372841 -0.03503446063)
(0 -0.0300513673 -0.02880850669)
(0 -0.01299123427 -0.02105683729)
(0 -0.001016812808 -0.01164127083)
(0 8.214034982e-05 -0.0002669245417)
(0 4.148488026e-11 -6.536498585e-11)
(0 8.179605117e-11 2.934723349e-12)
(0 7.879732198e-11 5.629660345e-12)
(0 7.408207177e-11 7.860169199e-12)
(0 6.804112367e-11 9.517336991e-12)
(0 6.109657722e-11 1.058161186e-11)
(0 5.365072808e-11 1.110178204e-11)
(0 4.60493392e-11 1.116612235e-11)
(0 3.856554316e-11 1.087687518e-11)
(0 3.139944959e-11 1.033269281e-11)
(0 2.468663254e-11 9.619139493e-12)
(0 1.85101467e-11 8.805265875e-12)
(0 1.291272877e-11 7.943903189e-12)
(0 7.907518177e-12 7.073779497e-12)
(0 3.486735541e-12 6.222217257e-12)
(0 -3.716415969e-13 5.407734385e-12)
(0 -3.698908237e-12 4.642255511e-12)
(0 -6.532004629e-12 3.932865224e-12)
(0 -8.91089949e-12 3.283142462e-12)
(0 -1.087670398e-11 2.694153849e-12)
(0 -0.6096441255 -0.01343693974)
(0 -0.6031222562 -0.01360122839)
(0 -0.5972406292 -0.01382999336)
(0 -0.5917592118 -0.01415985297)
(0 -0.5861239566 -0.01458643427)
(0 -0.5802662364 -0.01511178862)
(0 -0.5741847559 -0.01571340897)
(0 -0.5678512376 -0.01643055027)
(0 -0.5612112928 -0.01728021583)
(0 -0.5542090471 -0.01826820329)
(0 -0.5467913999 -0.01939661227)
(0 -0.5389058881 -0.02067002364)
(0 -0.5304975252 -0.02209604369)
(0 -0.5215075172 -0.02368511257)
(0 -0.5118721515 -0.02545026092)
(0 -0.5015216024 -0.02740669884)
(0 -0.4903787919 -0.02957110834)
(0 -0.4783585014 -0.03196058946)
(0 -0.4653672553 -0.03459135927)
(0 -0.4513050135 -0.03747814854)
(0 -0.4360689858 -0.04063742684)
(0 -0.4195460387 -0.04409991212)
(0 -0.4016207534 -0.04790731594)
(0 -0.3821605379 -0.052004077)
(0 -0.3610577876 -0.05618034762)
(0 -0.3382399053 -0.06039903828)
(0 -0.3136519153 -0.06459708638)
(0 -0.2873203448 -0.06854638132)
(0 -0.2593754585 -0.0720149874)
(0 -0.2300394895 -0.07473878973)
(0 -0.1996435059 -0.07644066023)
(0 -0.1686436475 -0.0768125584)
(0 -0.1376344624 -0.07554174406)
(0 -0.1073482828 -0.0723185467)
(0 -0.07868089686 -0.0668347249)
(0 -0.0526843473 -0.05887571467)
(0 -0.03050512573 -0.04829964937)
(0 -0.01314605318 -0.03504428805)
(0 -0.001077803365 -0.0190700532)
(0 7.946734715e-05 -0.0003776151666)
(0 4.347375082e-11 -1.098976699e-10)
(0 8.560395672e-11 5.189490746e-12)
(0 8.211123568e-11 9.896167997e-12)
(0 7.66881552e-11 1.37343764e-11)
(0 6.985364542e-11 1.651859569e-11)
(0 6.213945224e-11 1.823910518e-11)
(0 5.40207537e-11 1.900885225e-11)
(0 4.587808911e-11 1.900312253e-11)
(0 3.798997673e-11 1.841179944e-11)
(0 3.054394363e-11 1.740991062e-11)
(0 2.365475438e-11 1.614394504e-11)
(0 1.738299568e-11 1.472872552e-11)
(0 1.175088256e-11 1.324999838e-11)
(0 6.754461516e-12 1.176934116e-11)
(0 2.372510872e-12 1.032941542e-11)
(0 -1.427176512e-12 8.958630628e-12)
(0 -4.683427084e-12 7.674910796e-12)
(0 -7.438662242e-12 6.488577956e-12)
(0 -9.736795078e-12 5.40449327e-12)
(0 -1.162174754e-11 4.423622055e-12)
(0 -0.605058312 -0.01880284185)
(0 -0.5986131711 -0.01895551373)
(0 -0.5927900228 -0.01925455797)
(0 -0.5873703676 -0.01972606808)
(0 -0.5818114191 -0.02031726166)
(0 -0.5760464765 -0.02105775757)
(0 -0.5700552657 -0.02187479748)
(0 -0.563801974 -0.02287550423)
(0 -0.5572414992 -0.02406064099)
(0 -0.5503248514 -0.02543516857)
(0 -0.5430019602 -0.02700004957)
(0 -0.5352254951 -0.02876151208)
(0 -0.5269454723 -0.03073033778)
(0 -0.5181081625 -0.03292131514)
(0 -0.508655053 -0.03535309343)
(0 -0.4985213864 -0.03804785608)
(0 -0.4876344738 -0.04103054695)
(0 -0.4759119055 -0.04432747241)
(0 -0.4632602626 -0.04796416896)
(0 -0.4495763826 -0.05196323125)
(0 -0.4347512332 -0.05634561602)
(0 -0.4186432127 -0.0611442601)
(0 -0.4011912784 -0.06638836507)
(0 -0.3823642283 -0.07202498667)
(0 -0.3620077781 -0.07784885753)
(0 -0.3399229717 -0.08384326643)
(0 -0.3159808269 -0.08987085093)
(0 -0.2901863956 -0.09552837591)
(0 -0.2626768813 -0.1005546252)
(0 -0.2336612899 -0.1045647295)
(0 -0.2034282098 -0.107170678)
(0 -0.1724068286 -0.1079137021)
(0 -0.1411779385 -0.1063408283)
(0 -0.1104677166 -0.1020127385)
(0 -0.0812143674 -0.09443056404)
(0 -0.05454689441 -0.0832688643)
(0 -0.03169018851 -0.06828228033)
(0 -0.01372310616 -0.04940163898)
(0 -0.001166332896 -0.0267177417)
(0 8.283976592e-05 -0.0005170399552)
(0 4.668967037e-11 -1.559640216e-10)
(0 9.17020961e-11 7.938183462e-12)
(0 8.73422074e-11 1.503115413e-11)
(0 8.070449947e-11 2.066257241e-11)
(0 7.254585245e-11 2.458356345e-11)
(0 6.358683378e-11 2.684735923e-11)
(0 5.441474542e-11 2.769139663e-11)
(0 4.545228638e-11 2.742571334e-11)
(0 3.697233125e-11 2.635728769e-11)
(0 2.913159519e-11 2.475120467e-11)
(0 2.200544744e-11 2.281800407e-11)
(0 1.561620004e-11 2.071569109e-11)
(0 9.95334441e-12 1.855802098e-11)
(0 4.986935215e-12 1.642416884e-11)
(0 6.760250105e-13 1.436747125e-11)
(0 -3.026146221e-12 1.24224604e-11)
(0 -6.168960908e-12 1.061017616e-11)
(0 -8.802422155e-12 8.942039518e-12)
(0 -1.097585539e-11 7.422630306e-12)
(0 -1.273702308e-11 6.051671643e-12)
(0 -0.5989744883 -0.02409112092)
(0 -0.5926154964 -0.02425478226)
(0 -0.5868659331 -0.02461670744)
(0 -0.581520531 -0.02522402603)
(0 -0.5760803674 -0.02592370306)
(0 -0.570467101 -0.02689132861)
(0 -0.5645777962 -0.02797459929)
(0 -0.5583935445 -0.02924974409)
(0 -0.5519041683 -0.03075962563)
(0 -0.5450753291 -0.03250983646)
(0 -0.5378536914 -0.03449638021)
(0 -0.530197084 -0.03672630548)
(0 -0.5220612442 -0.03921294992)
(0 -0.5133988773 -0.04197492076)
(0 -0.504158721 -0.04503620892)
(0 -0.4942837592 -0.04842615693)
(0 -0.4837089956 -0.05217888334)
(0 -0.4723588561 -0.05633189432)
(0 -0.4601448321 -0.06092353966)
(0 -0.4469660016 -0.06598931739)
(0 -0.4327132245 -0.07155691879)
(0 -0.4172345731 -0.07763593868)
(0 -0.4004673536 -0.08417453092)
(0 -0.3823903565 -0.09122437109)
(0 -0.3628011408 -0.09870173191)
(0 -0.3415286047 -0.1064913462)
(0 -0.3184735883 -0.1144040899)
(0 -0.2935137361 -0.1219119513)
(0 -0.2666866566 -0.1286288908)
(0 -0.2382057832 -0.1340770269)
(0 -0.2082997569 -0.1377810861)
(0 -0.1773742056 -0.1391366486)
(0 -0.1459816111 -0.1375270224)
(0 -0.1148131088 -0.1323586817)
(0 -0.08484699292 -0.12278429)
(0 -0.05729484163 -0.1084607063)
(0 -0.03347198735 -0.08904257092)
(0 -0.01458984879 -0.06442721197)
(0 -0.001267001705 -0.03480997054)
(-1.56155132e-46 8.843745844e-05 -0.0006726989022)
(-7.368254835e-53 5.143766561e-11 -2.04196709e-10)
(0 1.006443511e-10 1.154492504e-11)
(0 9.483562426e-11 2.162782413e-11)
(0 8.624056453e-11 2.930119566e-11)
(0 7.603843224e-11 3.430572585e-11)
(0 6.524728541e-11 3.687537017e-11)
(0 5.459910781e-11 3.748366001e-11)
(0 4.454398018e-11 3.66510456e-11)
(0 3.531546807e-11 3.484043352e-11)
(0 2.700466e-11 3.241961669e-11)
(0 1.96192408e-11 2.966117488e-11)
(0 1.312301259e-11 2.675801213e-11)
(0 7.459360306e-12 2.384222429e-11)
(0 2.563911785e-12 2.100184207e-11)
(0 -1.629197573e-12 1.829384078e-11)
(0 -5.184471601e-12 1.575356276e-11)
(0 -8.163847964e-12 1.340129242e-11)
(0 -1.06262081e-11 1.124677397e-11)
(0 -1.262716295e-11 9.292319019e-12)
(0 -1.421891672e-11 7.534976316e-12)
(0 -0.5914285701 -0.02930148107)
(0 -0.5851657995 -0.02948284567)
(0 -0.5794789134 -0.02989476344)
(0 -0.5742611099 -0.03059322006)
(0 -0.5689438708 -0.03142045739)
(0 -0.5634066955 -0.03256795786)
(0 -0.5576503388 -0.03395281873)
(0 -0.5515697639 -0.03553935402)
(0 -0.5451704059 -0.03737317075)
(0 -0.5384385321 -0.03948743328)
(0 -0.531323434 -0.0418782899)
(0 -0.5237928038 -0.04455365004)
(0 -0.5158097875 -0.04752830692)
(0 -0.5073353996 -0.05082353402)
(0 -0.498328048 -0.05446772513)
(0 -0.4887415744 -0.05849676411)
(0 -0.4785227306 -0.06295379385)
(0 -0.467608252 -0.0678879835)
(0 -0.4559222264 -0.07335156881)
(0 -0.443375599 -0.07939423982)
(0 -0.4298680508 -0.08605364902)
(0 -0.4152808281 -0.09332918722)
(0 -0.3994633116 -0.1011663261)
(0 -0.3822862487 -0.1096279951)
(0 -0.363636427 -0.1186564036)
(0 -0.3433732792 -0.1281107892)
(0 -0.3213280715 -0.1378679667)
(0 -0.2973677134 -0.1472970829)
(0 -0.2714514142 -0.1558316466)
(0 -0.2436643854 -0.1629303399)
(0 -0.2141821698 -0.1679970658)
(0 -0.1833633179 -0.17027906)
(0 -0.1517504715 -0.1689455814)
(0 -0.1201207586 -0.1632192338)
(0 -0.08944876068 -0.1519792913)
(0 -0.0608449584 -0.1347744898)
(0 -0.03579019244 -0.1108966836)
(0 -0.01571108961 -0.08037242761)
(0 -0.001391946217 -0.04349675519)
(0 9.562912279e-05 -0.0008430857398)
(0 5.82616073e-11 -2.553012841e-10)
(0 1.133413599e-10 1.662830063e-11)
(0 1.050984775e-10 3.063420934e-11)
(0 9.338240119e-11 4.060866032e-11)
(0 8.012002697e-11 4.646277353e-11)
(0 6.676476794e-11 4.886473467e-11)
(0 5.419042084e-11 4.871682717e-11)
(0 4.280905989e-11 4.685437593e-11)
(0 3.274090235e-11 4.393378475e-11)
(0 2.395233655e-11 4.042565337e-11)
(0 1.634384287e-11 3.664906529e-11)
(0 9.797249445e-12 3.281295735e-11)
(0 4.19717435e-12 2.905102262e-11)
(0 -5.614482915e-13 2.544713595e-11)
(0 -4.572254297e-12 2.205248747e-11)
(0 -7.918694582e-12 1.889665662e-11)
(0 -1.06757497e-11 1.599465708e-11)
(0 -1.291139556e-11 1.33514473e-11)
(0 -1.468765305e-11 1.096489746e-11)
(0 -1.60612558e-11 8.827829097e-12)
(0 -0.5824818134 -0.03440464903)
(0 -0.5763631551 -0.0346171789)
(0 -0.5708013767 -0.03507916597)
(0 -0.5656896059 -0.03580922999)
(0 -0.5604538774 -0.03682368071)
(0 -0.5550014134 -0.03817407304)
(0 -0.5493233135 -0.03980897339)
(0 -0.5433385791 -0.04171410428)
(0 -0.5370415485 -0.04388981063)
(0 -0.5304052421 -0.04636215421)
(0 -0.5233976393 -0.04914194118)
(0 -0.5159926565 -0.05223951541)
(0 -0.5081617424 -0.05567023367)
(0 -0.4998761736 -0.05945658518)
(0 -0.4911063816 -0.0636298947)
(0 -0.481819911 -0.06823123843)
(0 -0.4719787003 -0.07331166993)
(0 -0.4615359417 -0.07893124968)
(0 -0.4504332012 -0.08515556462)
(0 -0.4385976205 -0.09204894853)
(0 -0.425939495 -0.09966723273)
(0 -0.4123447426 -0.1080387219)
(0 -0.3976579641 -0.1171576656)
(0 -0.3817025549 -0.1270087324)
(0 -0.3643075915 -0.1375608182)
(0 -0.3452912097 -0.1487164543)
(0 -0.3245087859 -0.1602915154)
(0 -0.3018388593 -0.1716543946)
(0 -0.2771249596 -0.1821892859)
(0 -0.2502710433 -0.1912326424)
(0 -0.2213593202 -0.1979778188)
(0 -0.1907069858 -0.2014610809)
(0 -0.1588484587 -0.2006633637)
(0 -0.1265259559 -0.1946616231)
(0 -0.09475536499 -0.1820755797)
(0 -0.06494242008 -0.1622227947)
(0 -0.03851929882 -0.1341357693)
(0 -0.01703372101 -0.09746537503)
(0 -0.001548758921 -0.05290433652)
(0 0.0001040091018 -0.001031425061)
(0 6.809875404e-11 -3.100909222e-10)
(0 1.312936859e-10 2.435272238e-11)
(0 1.188159833e-10 4.367228054e-11)
(0 1.020691287e-10 5.603646282e-11)
(0 8.429450659e-11 6.207197289e-11)
(0 6.750133905e-11 6.340396767e-11)
(0 5.258874907e-11 6.166453859e-11)
(0 3.976093776e-11 5.811584691e-11)
(0 2.88867455e-11 5.361467601e-11)
(0 1.971994054e-11 4.870014559e-11)
(0 1.200654478e-11 4.369647467e-11)
(0 5.524969925e-12 3.879373032e-11)
(0 9.353891084e-14 3.410177506e-11)
(0 -4.434623371e-12 2.968319276e-11)
(0 -8.17967691e-12 2.557231593e-11)
(0 -1.124230199e-11 2.178591913e-11)
(0 -1.370905728e-11 1.832923417e-11)
(0 -1.565596772e-11 1.519946282e-11)
(0 -1.715078116e-11 1.238799434e-11)
(0 -1.825432765e-11 9.881955014e-12)
(0 -0.5721461983 -0.03936909098)
(0 -0.5662001955 -0.03962478202)
(0 -0.560810554 -0.04016046777)
(0 -0.5557957663 -0.04096443608)
(0 -0.5506341706 -0.04213690851)
(0 -0.545265112 -0.04370673016)
(0 -0.5396312081 -0.04560712144)
(0 -0.5337236526 -0.04780857817)
(0 -0.5275224704 -0.05031155608)
(0 -0.5209811957 -0.05313415722)
(0 -0.5140766411 -0.05629027352)
(0 -0.5067883269 -0.05978918902)
(0 -0.4990971621 -0.0636447874)
(0 -0.4909864728 -0.06787897329)
(0 -0.4824405777 -0.07252409458)
(0 -0.4734430185 -0.0776246093)
(0 -0.4639735313 -0.08323787918)
(0 -0.4540049202 -0.0894337722)
(0 -0.4434995073 -0.0962910206)
(0 -0.4324024165 -0.1038919231)
(0 -0.4206369931 -0.1123153998)
(0 -0.4080958918 -0.1216217029)
(0 -0.3946286804 -0.131848409)
(0 -0.3800498915 -0.143016247)
(0 -0.3641521443 -0.1550941747)
(0 -0.3467210211 -0.1679602147)
(0 -0.3275619025 -0.1813520548)
(0 -0.3064667955 -0.194730446)
(0 -0.2832087108 -0.2074513208)
(0 -0.2576190458 -0.2187208627)
(0 -0.2296661587 -0.2275481789)
(0 -0.1995014199 -0.2327681093)
(0 -0.1674754031 -0.2331102041)
(0 -0.1343276768 -0.2272400681)
(0 -0.1012187811 -0.2135140761)
(0 -0.06964500012 -0.1910460729)
(0 -0.0414706479 -0.158769315)
(0 -0.01841637236 -0.1159210975)
(0 -0.001710725018 -0.06312892539)
(0 0.0001126327959 -0.00123910917)
(0 8.265205303e-11 -3.695566672e-10)
(0 1.570343662e-10 3.713431524e-11)
(0 1.36782217e-10 6.366597606e-11)
(0 1.117820935e-10 7.779293746e-11)
(0 8.748753182e-11 8.238468749e-11)
(0 6.635733364e-11 8.1014625e-11)
(0 4.890230009e-11 7.642151328e-11)
(0 3.475919731e-11 7.032979709e-11)
(0 2.332520103e-11 6.370892561e-11)
(0 1.403413521e-11 5.706377735e-11)
(0 6.437427597e-12 5.064295825e-11)
(0 2.025498385e-13 4.456371634e-11)
(0 -4.913363202e-12 3.887915579e-11)
(0 -9.090907421e-12 3.36115431e-11)
(0 -1.246952793e-11 2.876766324e-11)
(0 -1.516177634e-11 2.43454711e-11)
(0 -1.726220601e-11 2.033689979e-11)
(0 -1.885263539e-11 1.672917503e-11)
(0 -2.000516085e-11 1.350566038e-11)
(0 -2.078386221e-11 1.064660759e-11)
(0 -0.5603105951 -0.04416867561)
(0 -0.5545787807 -0.04447266622)
(0 -0.5493468563 -0.04510110096)
(0 -0.5444431237 -0.04605850169)
(0 -0.5393749957 -0.04739983496)
(0 -0.5340804805 -0.04916890174)
(0 -0.5285473063 -0.051324043)
(0 -0.5227517738 -0.0538120897)
(0 -0.5166443774 -0.0566372198)
(0 -0.5101925401 -0.05980906407)
(0 -0.5033776115 -0.06333460649)
(0 -0.4961861612 -0.06721904385)
(0 -0.488609339 -0.07147223754)
(0 -0.4806431669 -0.07611340896)
(0 -0.4722870681 -0.08117364097)
(0 -0.4635423265 -0.08669852428)
(0 -0.4544088398 -0.092749677)
(0 -0.4448819796 -0.09940526797)
(0 -0.4349471174 -0.1067581397)
(0 -0.4245715185 -0.1149120529)
(0 -0.4136970556 -0.1239734827)
(0 -0.4022310927 -0.1340407625)
(0 -0.3900343812 -0.1451940249)
(0 -0.3769219557 -0.157488441)
(0 -0.362672225 -0.1709168925)
(0 -0.3470357238 -0.1853702972)
(0 -0.3297496761 -0.2005793885)
(0 -0.3105229505 -0.2160480145)
(0 -0.2890508989 -0.2310945842)
(0 -0.265080097 -0.2448364152)
(0 -0.2384619754 -0.2561567031)
(0 -0.2092002973 -0.2637027596)
(0 -0.1775172051 -0.2659015011)
(0 -0.143963104 -0.260946967)
(0 -0.1094474562 -0.2468662159)
(0 -0.07560458242 -0.2220339059)
(0 -0.044975009 -0.1851309687)
(0 -0.01981430645 -0.1357621124)
(0 -0.00170209471 -0.07424395378)
(0 0.0001212364371 -0.001453416145)
(0 1.052757505e-10 -4.349936632e-10)
(0 1.949879295e-10 6.054955271e-11)
(0 1.594746041e-10 9.606462137e-11)
(0 1.207878402e-10 1.090846234e-10)
(0 8.751619413e-11 1.08659215e-10)
(0 6.153816484e-11 1.018483323e-10)
(0 4.190392116e-11 9.267709259e-11)
(0 2.704835009e-11 8.307290164e-11)
(0 1.562072576e-11 7.382745092e-11)
(0 6.653973181e-12 6.520308034e-11)
(0 -4.935162202e-13 5.724786667e-11)
(0 -6.238832534e-12 4.993902221e-11)
(0 -1.085863433e-11 4.323958714e-11)
(0 -1.454611592e-11 3.711615819e-11)
(0 -1.744574892e-11 3.154132285e-11)
(0 -1.967306544e-11 2.649140409e-11)
(0 -2.132535335e-11 2.194371865e-11)
(0 -2.248720713e-11 1.787467469e-11)
(0 -2.323334859e-11 1.42588635e-11)
(0 -2.363008563e-11 1.106891125e-11)
(0 -0.547066508 -0.04879983219)
(0 -0.5415447076 -0.04916062085)
(0 -0.5364925795 -0.04989294401)
(0 -0.5317347266 -0.05100918553)
(0 -0.5267939328 -0.05255043071)
(0 -0.5216141306 -0.05453563645)
(0 -0.5161915432 -0.05693571933)
(0 -0.5104895237 -0.05971865964)
(0 -0.5044631873 -0.06287530076)
(0 -0.4980837111 -0.06640237292)
(0 -0.4913350473 -0.0702969932)
(0 -0.484209671 -0.07455783951)
(0 -0.4767083834 -0.07918819082)
(0 -0.4688393895 -0.08420172627)
(0 -0.4606175717 -0.08962545896)
(0 -0.4520629479 -0.09550323806)
(0 -0.4431976511 -0.101898409)
(0 -0.4340416337 -0.1088955363)
(0 -0.4246066643 -0.1166013207)
(0 -0.4148883508 -0.1251416469)
(0 -0.4048555021 -0.1346541806)
(0 -0.3944387059 -0.1452795692)
(0 -0.383518262 -0.1571483554)
(0 -0.3719190172 -0.1703622644)
(0 -0.3594120355 -0.1849575207)
(0 -0.3457155023 -0.2008597528)
(0 -0.3305038314 -0.2178262065)
(0 -0.3134090149 -0.2353920431)
(0 -0.2940451046 -0.2528604017)
(0 -0.2720619646 -0.2692771257)
(0 -0.2471960507 -0.2834056121)
(0 -0.2193186432 -0.2937193677)
(0 -0.1884928468 -0.2983955116)
(0 -0.1550447743 -0.2952903379)
(0 -0.1196698394 -0.2819412835)
(0 -0.08376609351 -0.2557246816)
(0 -0.05000239599 -0.2143848855)
(0 -0.02199321434 -0.1574145977)
(0 -0.001830679172 -0.08623114532)
(0 0.000130895654 -0.001684942547)
(0 1.43252389e-10 -5.082694264e-10)
(0 2.531301171e-10 1.090343217e-10)
(0 1.853172857e-10 1.509585966e-10)
(0 1.243766872e-10 1.538217201e-10)
(0 8.025124076e-11 1.413192178e-10)
(0 5.037521121e-11 1.250423974e-10)
(0 3.012686939e-11 1.093656227e-10)
(0 1.590955564e-11 9.545726501e-11)
(0 5.455379735e-12 8.332489643e-11)
(0 -2.545449034e-12 7.267322844e-11)
(0 -8.826630536e-12 6.320640744e-11)
(0 -1.380572969e-11 5.470491737e-11)
(0 -1.773622722e-11 4.702400927e-11)
(0 -2.078917172e-11 4.007217855e-11)
(0 -2.309428203e-11 3.379006772e-11)
(0 -2.475938053e-11 2.813510448e-11)
(0 -2.587893541e-11 2.30718937e-11)
(0 -2.653749055e-11 1.856694001e-11)
(0 -2.681092429e-11 1.458620816e-11)
(0 -2.676692192e-11 1.109436739e-11)
(0 -0.5324765055 -0.05325352371)
(0 -0.5271898018 -0.0536701541)
(0 -0.5223370591 -0.05452238191)
(0 -0.5177497726 -0.05580813048)
(0 -0.5129657265 -0.05755503381)
(0 -0.5079226052 -0.05977401206)
(0 -0.5026114233 -0.06244550896)
(0 -0.4969965377 -0.06554191163)
(0 -0.4910386036 -0.06904439434)
(0 -0.4847108251 -0.07293817992)
(0 -0.4779990026 -0.07720920082)
(0 -0.4709006798 -0.08184614983)
(0 -0.4634244637 -0.08684314686)
(0 -0.4555894802 -0.09220494379)
(0 -0.4474254305 -0.09795089714)
(0 -0.4389711208 -0.1041193871)
(0 -0.4302717693 -0.1107720028)
(0 -0.4213745571 -0.1179970541)
(0 -0.4123221837 -0.1259117993)
(0 -0.4031438677 -0.1346631315)
(0 -0.3938437608 -0.1444222542)
(0 -0.3843864779 -0.1553757013)
(0 -0.3746822054 -0.1677102524)
(0 -0.3645754978 -0.1815893413)
(0 -0.353837447 -0.1971139111)
(0 -0.3421620044 -0.2142703937)
(0 -0.3291703804 -0.2328690412)
(0 -0.314422363 -0.2524841395)
(0 -0.2974488272 -0.2724152595)
(0 -0.2778058449 -0.291653253)
(0 -0.2551295075 -0.3088592473)
(0 -0.2291793961 -0.3223586446)
(0 -0.199865469 -0.3301248946)
(0 -0.1672669649 -0.3297187802)
(0 -0.131712627 -0.3181820179)
(0 -0.09414969405 -0.2919564132)
(0 -0.05689870406 -0.2470955766)
(0 -0.02486402722 -0.1815654085)
(0 -0.001854608143 -0.09885125199)
(0 0.0001485247935 -0.001951363388)
(0 2.143527225e-10 -5.813044352e-10)
(0 3.45976604e-10 2.246607274e-10)
(0 2.042619994e-10 2.449141167e-10)
(0 1.111484613e-10 2.139244436e-10)
(0 5.873687145e-11 1.7775354e-10)
(0 2.958456977e-11 1.47636417e-10)
(0 1.231878879e-11 1.242857356e-10)
(0 1.007623785e-12 1.060656396e-10)
(0 -7.163310815e-12 9.134164355e-11)
(0 -1.346451581e-11 7.895853195e-11)
(0 -1.846182729e-11 6.819961699e-11)
(0 -2.24212307e-11 5.865022774e-11)
(0 -2.549137314e-11 5.007935259e-11)
(0 -2.778005747e-11 4.235848117e-11)
(0 -2.938282299e-11 3.541166725e-11)
(0 -3.039123946e-11 2.918705112e-11)
(0 -3.089351782e-11 2.364180971e-11)
(0 -3.097289268e-11 1.87349843e-11)
(0 -3.070592121e-11 1.442466244e-11)
(0 -3.01613536e-11 1.066740734e-11)
(0 -0.5166083749 -0.05750256627)
(0 -0.5115801222 -0.05798572749)
(0 -0.5069517761 -0.05896612536)
(0 -0.5025556227 -0.06043411404)
(0 -0.4979464433 -0.0624059072)
(0 -0.4930544546 -0.06488573235)
(0 -0.4878632822 -0.06785637104)
(0 -0.4823369285 -0.07129064196)
(0 -0.4764386941 -0.07516145354)
(0 -0.4701430674 -0.07944253783)
(0 -0.4634374425 -0.08410771607)
(0 -0.4563224238 -0.08913297385)
(0 -0.4488120881 -0.09450022137)
(0 -0.4409347122 -0.1002016979)
(0 -0.4327330441 -0.1062449047)
(0 -0.4242635989 -0.1126581509)
(0 -0.4155946162 -0.119496356)
(0 -0.4068020681 -0.1268467107)
(0 -0.3979631922 -0.1348335352)
(0 -0.3891470207 -0.1436210286)
(0 -0.3804012685 -0.1534118762)
(0 -0.3717354821 -0.1644406038)
(0 -0.3631019918 -0.17695784)
(0 -0.3543769441 -0.1912042368)
(0 -0.3453437845 -0.2073670451)
(0 -0.3356823025 -0.2255208323)
(0 -0.3249686604 -0.2455551068)
(0 -0.3126921939 -0.2670989829)
(0 -0.2982984163 -0.2894587112)
(0 -0.2812569576 -0.3115735849)
(0 -0.2611343965 -0.3320039471)
(0 -0.2376417715 -0.3489502096)
(0 -0.2106232019 -0.3602657033)
(0 -0.1799641834 -0.3633842736)
(0 -0.1454749683 -0.3550442612)
(0 -0.1070988765 -0.3307046478)
(0 -0.06622995859 -0.2841234068)
(0 -0.02857685616 -0.2095732021)
(0 -0.001540776106 -0.1115805573)
(0 0.0001696498436 -0.002144897689)
(0 3.567585789e-10 -1.356556706e-10)
(0 4.870569248e-10 5.336636953e-10)
(0 1.745809965e-10 3.901132573e-10)
(0 5.721611055e-11 2.792083993e-10)
(0 1.396321415e-11 2.081340828e-10)
(0 -3.092593248e-12 1.63463995e-10)
(0 -1.144390798e-11 1.340752633e-10)
(0 -1.70345364e-11 1.131779165e-10)
(0 -2.165172794e-11 9.701750926e-11)
(0 -2.568747559e-11 8.361963996e-11)
(0 -2.913493475e-11 7.198329906e-11)
(0 -3.192599409e-11 6.161702268e-11)
(0 -3.402797379e-11 5.228469465e-11)
(0 -3.545685706e-11 4.38707303e-11)
(0 -3.626571208e-11 3.631106956e-11)
(0 -3.652923807e-11 2.955962108e-11)
(0 -3.633100223e-11 2.357331013e-11)
(0 -3.575463782e-11 1.830652692e-11)
(0 -3.487850126e-11 1.371004978e-11)
(0 -3.377285933e-11 9.731874802e-12)
(0 -0.4995174829 -0.06152333043)
(0 -0.4947752304 -0.06208261922)
(0 -0.4903986653 -0.06320203136)
(0 -0.4862183001 -0.06486605463)
(0 -0.4818041305 -0.06708506591)
(0 -0.4770797156 -0.06985640141)
(0 -0.4720209458 -0.07316031367)
(0 -0.4665890058 -0.07696616934)
(0 -0.4607466855 -0.08123866898)
(0 -0.4544678337 -0.08593989246)
(0 -0.4477393732 -0.0910305047)
(0 -0.4405625103 -0.09647228716)
(0 -0.4329542201 -0.1022318125)
(0 -0.4249487963 -0.1082851278)
(0 -0.4165990221 -0.1146233704)
(0 -0.4079765523 -0.1212594017)
(0 -0.3991709976 -0.1282352967)
(0 -0.3902869937 -0.1356303669)
(0 -0.3814384593 -0.1435690426)
(0 -0.372739172 -0.1522272968)
(0 -0.3642886739 -0.1618355582)
(0 -0.3561529527 -0.1726757011)
(0 -0.348340343 -0.1850682316)
(0 -0.3407743444 -0.1993453273)
(0 -0.3332664459 -0.2158041673)
(0 -0.3254942532 -0.2346381299)
(0 -0.3169939507 -0.2558473288)
(0 -0.307178535 -0.279138107)
(0 -0.2953948024 -0.3038295442)
(0 -0.2810220289 -0.3287907181)
(0 -0.2635916719 -0.3524406122)
(0 -0.2428796856 -0.3728274424)
(0 -0.2188896633 -0.3877542731)
(0 -0.1916100232 -0.3948230278)
(0 -0.1604292928 -0.3910624595)
(0 -0.123625889 -0.3715144246)
(0 -0.07998636772 -0.327108091)
(0 -0.03525193527 -0.2465364558)
(0 0.0001983657434 -0.1326204424)
(0 0.0002367174872 -0.001403503712)
(0 1.900796151e-10 1.289836267e-09)
(0 1.795018668e-10 9.629633067e-10)
(0 -5.019330935e-11 5.026680924e-10)
(0 -7.083071313e-11 3.046618148e-10)
(0 -5.700753287e-11 2.121103969e-10)
(0 -4.447424977e-11 1.640102167e-10)
(0 -3.796728966e-11 1.353734073e-10)
(0 -3.605013022e-11 1.15553257e-10)
(0 -3.67215874e-11 9.993083907e-11)
(0 -3.849872601e-11 8.651921872e-11)
(0 -4.046444457e-11 7.449691528e-11)
(0 -4.211983512e-11 6.354987153e-11)
(0 -4.323766552e-11 5.357167818e-11)
(0 -4.375368256e-11 4.452867841e-11)
(0 -4.369393221e-11 3.640225824e-11)
(0 -4.312899889e-11 2.916705294e-11)
(0 -4.214661198e-11 2.278528465e-11)
(0 -4.083615302e-11 1.720776432e-11)
(0 -3.928057332e-11 1.237713462e-11)
(0 -3.755274501e-11 8.231387077e-12)
(0 -0.48121079 -0.06528358626)
(0 -0.4768165699 -0.06592309429)
(0 -0.4727374659 -0.06719582819)
(0 -0.4688064528 -0.06907752971)
(0 -0.4646144155 -0.07157096522)
(0 -0.4600804413 -0.07466838926)
(0 -0.4551723313 -0.07834518861)
(0 -0.4498465494 -0.08256479585)
(0 -0.4440626674 -0.08728303948)
(0 -0.4377912535 -0.0924503661)
(0 -0.431015962 -0.09801367054)
(0 -0.423735449 -0.1039189475)
(0 -0.4159657583 -0.1101149923)
(0 -0.4077428382 -0.1165582234)
(0 -0.3991248923 -0.1232187906)
(0 -0.3901942011 -0.1300881638)
(0 -0.3810578519 -0.1371882508)
(0 -0.3718465619 -0.1445819004)
(0 -0.3627105492 -0.1523842585)
(0 -0.353811158 -0.1607737971)
(0 -0.3453067161 -0.1700009266)
(0 -0.3373312437 -0.1803910802)
(0 -0.3299652749 -0.1923374827)
(0 -0.3231994114 -0.2062773045)
(0 -0.3168935032 -0.2226435034)
(0 -0.310738268 -0.2417858334)
(0 -0.3042322301 -0.2638583433)
(0 -0.2966933114 -0.2886803227)
(0 -0.2873286005 -0.3155916767)
(0 -0.2753800956 -0.3433452051)
(0 -0.2603370992 -0.370099711)
(0 -0.242161309 -0.3935817502)
(0 -0.2213982367 -0.4114379689)
(0 -0.1988769831 -0.4216613464)
(0 -0.1744249332 -0.4225106706)
(0 -0.1449634844 -0.4103777051)
(0 -0.1060568647 -0.3755439342)
(0 -0.06176077403 -0.3036823857)
(0 0.004123469228 -0.1991847118)
(0 0.00378008703 0.005176575793)
(0 -7.943549941e-10 8.528790968e-10)
(0 -1.11715321e-09 7.070420395e-10)
(0 -4.837205261e-10 3.529867668e-10)
(0 -2.33341585e-10 2.2466037e-10)
(0 -1.266883839e-10 1.716354722e-10)
(0 -7.982958288e-11 1.450930676e-10)
(0 -5.990086768e-11 1.27854894e-10)
(0 -5.247710461e-11 1.137308673e-10)
(0 -5.068576626e-11 1.006333709e-10)
(0 -5.112139939e-11 8.802947884e-11)
(0 -5.210428194e-11 7.593527289e-11)
(0 -5.285123119e-11 6.451387507e-11)
(0 -5.30491669e-11 5.392347234e-11)
(0 -5.262627699e-11 4.427004648e-11)
(0 -5.162733755e-11 3.560223072e-11)
(0 -5.014621166e-11 2.792104914e-11)
(0 -4.829029085e-11 2.11930126e-11)
(0 -4.616278785e-11 1.536211117e-11)
(0 -4.38548785e-11 1.035933828e-11)
(0 -4.144311474e-11 6.109662696e-12)
(0 -0.461743008 -0.06872352086)
(0 -0.4577676127 -0.06945706026)
(0 -0.4540388994 -0.07090701817)
(0 -0.450396997 -0.07303369178)
(0 -0.4464617213 -0.07583462793)
(0 -0.442148355 -0.07929764951)
(0 -0.4374164449 -0.08339252805)
(0 -0.4322163408 -0.08807582424)
(0 -0.4265020366 -0.09329432882)
(0 -0.4202379918 -0.09898704009)
(0 -0.4134012409 -0.1050869222)
(0 -0.4059838158 -0.1115233417)
(0 -0.397995888 -0.1182255624)
(0 -0.389469268 -0.1251274791)
(0 -0.3804610799 -0.1321739109)
(0 -0.3710573125 -0.1393288369)
(0 -0.3613756967 -0.1465858828)
(0 -0.3515670433 -0.1539812023)
(0 -0.3418138012 -0.1616085463)
(0 -0.3323241326 -0.1696356683)
(0 -0.3233193072 -0.1783201936)
(0 -0.3150119124 -0.188021581)
(0 -0.3075725065 -0.1992035594)
(0 -0.3010833778 -0.2124186872)
(0 -0.2954806794 -0.2282637482)