/*--------------------------------*- C++ -*----------------------------------*\
  =========                 |
  \\      /  F ield         | OpenFOAM: The Open Source CFD Toolbox
   \\    /   O peration     | Website:  https://openfoam.org
    \\  /    A nd           | Version:  6
     \\/     M anipulation  |
\*---------------------------------------------------------------------------*/
FoamFile
{
    version     2.0;
    format      ascii;
    class       volScalarField;
    location    "0.004";
    object      TRHS;
}
// * * * * * * * * * * * * * * * * * * * * * * * * * * * * * * * * * * * * * //

dimensions      [1 -1 -3 0 0 0 0];

internalField   nonuniform List<scalar> 
600
(
1.48211469e-09
-6.322579705e-10
-2.619815298e-09
-4.826057321e-09
-7.345538131e-09
-1.025896023e-08
-1.353465531e-08
-1.702420792e-08
-2.036692829e-08
-2.288130079e-08
-2.307286415e-08
-1.733934192e-08
3.96235589e-09
5.239876281e-08
2.012152589e-07
-0.0001032177758
40.9977723
0
0
0
0
0
0
0
0
0
0
0
391.0692514
-0.002065449672
2.230623758e-10
-1.387777697e-09
-3.138921856e-09
-5.299766196e-09
-7.960183339e-09
-1.12398756e-08
-1.521505133e-08
-1.994789499e-08
-2.553367708e-08
-3.234043746e-08
-4.143474334e-08
-5.521259527e-08
-7.049817658e-08
-1.87516747e-08
6.906020413e-08
-0.0006578000143
105.4936056
0
0
0
0
0
0
0
0
0
0
0
-0.005433004659
-2.643300587e-05
-7.756589311e-10
-1.987979699e-09
-3.568695501e-09
-5.715973314e-09
-8.516756605e-09
-1.211382998e-08
-1.664653771e-08
-2.223919224e-08
-2.900355739e-08
-3.708291186e-08
-4.683765512e-08
-5.97244136e-08
-1.040703052e-07
-1.603019585e-07
-2.805845774e-07
155.5736887
0
0
0
0
0
0
0
0
0
0
0
0
0
-0.002462870183
-1.222357903e-09
-2.271866707e-09
-3.818317567e-09
-6.020611499e-09
-8.968881831e-09
-1.284264307e-08
-1.785208573e-08
-2.423596986e-08
-3.222945978e-08
-4.200198781e-08
-5.349437811e-08
-6.840532376e-08
-1.471172984e-07
-2.470848839e-07
-2.011573389e-07
-0.006276739491
0
0
0
0
0
0
0
0
0
0
0
0
0
0
-9.423066187e-10
-2.154434042e-09
-3.853636846e-09
-6.194798715e-09
-9.289077298e-09
-1.335792844e-08
-1.870732915e-08
-2.579457916e-08
-3.536496328e-08
-4.86837419e-08
-6.77359251e-08
-9.375166203e-08
-9.872821928e-08
-1.206956928e-07
-0.000168358213
66.77977147
0
0
0
0
0
0
0
0
0
0
0
0
0
0
7.20056886e-11
-1.665800013e-09
-3.716909582e-09
-6.274964532e-09
-9.476933898e-09
-1.355369845e-08
-1.881083532e-08
-2.570367663e-08
-3.498489032e-08
-4.794774351e-08
-6.661172564e-08
-9.231630376e-08
-9.722269756e-08
-1.189273431e-07
-0.0001645373385
65.26519055
0
0
0
0
0
0
0
0
0
0
0
0
0
0
1.616513015e-09
-9.763860526e-10
-3.552101264e-09
-6.388726677e-09
-9.656269059e-09
-1.355949933e-08
-1.830101399e-08
-2.410384164e-08
-3.121809036e-08
-3.988856939e-08
-5.02200023e-08
-6.410034582e-08
-1.433069223e-07
-2.419170032e-07
-1.902170666e-07
-0.006438666525
0
0
0
0
0
0
0
0
0
0
0
0
0
0
3.268481544e-09
-4.013494053e-10
-3.602492364e-09
-6.750461646e-09
-1.006882455e-08
-1.373499897e-08
-1.785276395e-08
-2.249041977e-08
-2.774643452e-08
-3.388658144e-08
-4.162710065e-08
-5.319267179e-08
-9.864303927e-08
-1.571355151e-07
-3.158242889e-07
149.7272741
0
0
0
0
0
0
0
0
0
0
0
0
0
-0.002961357906
4.393552235e-09
-3.853845351e-10
-4.182390727e-09
-7.611458892e-09
-1.09672342e-08
-1.438957415e-08
-1.786381247e-08
-2.129720564e-08
-2.467533519e-08
-2.841000026e-08
-3.397531332e-08
-4.470920979e-08
-5.989720866e-08
-2.653106798e-08
2.520684418e-08
-0.0005674591807
75.50276747
0
0
0
0
0
0
0
0
0
0
0
-0.005872336876
-1.698030901e-05
4.166215881e-09
-1.470442102e-09
-5.632299519e-09
-9.214142092e-09
-1.257558029e-08
-1.577096116e-08
-1.857669222e-08
-2.053543131e-08
-2.100018993e-08
-1.918724145e-08
-1.404101241e-08
-3.231797713e-09
2.073816828e-08
6.579142515e-08
2.095781004e-07
-1.449435717e-06
0.5892347337
0
0
0
0
0
0
0
0
0
0
0
381.0144694
-0.00199176543
1.522000045e-09
-4.255593506e-09
-8.243691926e-09
-1.173742072e-08
-1.508555422e-08
-1.818035446e-08
-2.053292153e-08
-2.126786508e-08
-1.906368301e-08
-1.212847778e-08
1.736178279e-09
2.535825635e-08
6.362199495e-08
1.244871845e-07
1.288593626e-07
9.240389625e-08
-4.293689468e-07
697.495254
95.21606311
0
0
0
0
0
0
0
-0.0008339508787
369.2903067
-4.775859685e-07
-6.155990491e-09
-4.906428204e-09
-9.2489924e-09
-1.208671416e-08
-1.518588467e-08
-1.857851388e-08
-2.186078906e-08
-2.427006776e-08
-2.459228065e-08
-2.097534509e-08
-1.092117653e-08
7.746123575e-09
3.438584652e-08
6.005082681e-08
8.423844742e-08
1.476296303e-07
3.716635503e-07
6.64188659e-07
-0.001757099328
-0.0004547442866
85.17665405
281.8246233
158.0677184
0
157.0954245
279.6009393
-0.002697986191
-2.99902475e-09
-0.0009305572432
-2.281157381e-09
-3.118539453e-07
-2.021136338e-08
-1.731101336e-08
-1.675341272e-08
-1.925540813e-08
-2.295827279e-08
-2.689382641e-08
-3.006342917e-08
-3.107246729e-08
-2.762031779e-08
-1.579171635e-08
9.223845268e-09
5.029045467e-08
8.611416608e-08
1.294943707e-07
2.653645687e-07
4.170732819e-07
7.735864526e-07
7.747045043e-07
-7.489292384e-09
-0.000290531784
-0.001966397994
-0.0006774385405
-0.04744438141
-0.0006583180445
-0.001917430424
-0.0001896341459
-1.664187732e-08
-9.10105022e-08
3.44742219e-08
-2.354868745e-09
-2.035554852e-08
-1.8646922e-08
-1.935793995e-08
-2.302357221e-08
-2.796731801e-08
-3.324533847e-08
-3.793387057e-08
-4.088780955e-08
-4.005539974e-08
-3.02986042e-08
-2.065034366e-09
6.472729747e-08
1.090818764e-07
2.870832788e-07
4.915461282e-07
-2.327643395e-05
-0.0001090819216
-0.003842296925
-0.002970354061
115.2503912
498.2361608
110.6456952
0
104.0320347
481.034642
75.22462674
-0.006601396974
-0.01150572174
-0.0002025061484
-0.0009502427948
-7.512890643e-09
-1.411870003e-08
-2.013669689e-08
-2.662089999e-08
-3.375793929e-08
-4.103500311e-08
-4.770413776e-08
-5.318640086e-08
-5.729087183e-08
-5.623511159e-08
-4.062965493e-08
2.072328607e-08
1.007423154e-07
3.085664933e-07
-4.183181351e-08
9.403951857
43.32202135
0
0
0
0
0
0
0
0
0
0
0
80.45939334
160.7790504
-4.929901719e-09
-1.318323527e-08
-2.188255604e-08
-3.106069539e-08
-4.094669779e-08
-5.090921673e-08
-5.970900924e-08
-6.640302348e-08
-7.361925711e-08
-8.415137517e-08
-1.205519282e-07
-9.969565432e-08
-0.0001379065035
-0.0008204735128
230.6622461
0
0
0
0
0
0
0
0
0
0
0
0
0
0
0
-4.271811445e-09
-1.350363816e-08
-2.441318702e-08
-3.645316637e-08
-5.000299168e-08
-6.429706387e-08
-7.670775661e-08
-8.167728186e-08
-7.693624663e-08
-1.04752292e-07
-2.138240937e-07
-4.288413738e-07
54.75643434
94.92021822
0
0
0
0
0
0
0
0
0
0
0
0
0
0
0
0
-4.171369738e-09
-1.420928229e-08
-2.706531283e-08
-4.206888689e-08
-6.042041811e-08
-8.266689558e-08
-1.074976616e-07
-1.26968597e-07
-1.263146908e-07
-6.811499521e-08
-0.0001872434531
74.2742702
0
0
0
0
0
0
0
0
0
0
0
0
0
0
0
0
0
0
-4.137279708e-09
-1.465880022e-08
-2.881455848e-08
-4.592878113e-08
-6.82687407e-08
-9.893477525e-08
-1.424083102e-07
-1.949201955e-07
-1.725448908e-07
-7.088590898e-08
-0.0006807617871
172.9872056
0
0
0
0
0
0
0
0
0
0
0
0
0
0
0
0
0
0
-3.994910508e-09
-1.44141182e-08
-2.869158725e-08
-4.57484306e-08
-6.755706027e-08
-9.663596441e-08
-1.376076919e-07
-2.416818479e-07
-3.317462386e-07
-3.717086335e-07
97.15187189
0
0
0
0
0
0
0
0
0
0
0
0
0
0
0
0
0
0
0
)
;

boundaryField
{
    lowerWall
    {
        type            calculated;
        value           nonuniform 0();
    }
    atmosphere
    {
        type            calculated;
        value           nonuniform List<scalar> 
20
(
1.48211469e-09
2.230623758e-10
-7.756589311e-10
-1.222357903e-09
-9.423066187e-10
7.20056886e-11
1.616513015e-09
3.268481544e-09
4.393552235e-09
4.166215881e-09
1.522000045e-09
-4.906428204e-09
-2.021136338e-08
-2.035554852e-08
-7.512890643e-09
-4.929901719e-09
-4.271811445e-09
-4.171369738e-09
-4.137279708e-09
-3.994910508e-09
)
;
    }
    rightWall
    {
        type            empty;
    }
    leftWall
    {
        type            empty;
    }
    frontAndBack
    {
        type            calculated;
        value           nonuniform List<scalar> 
30
(
-3.994910508e-09
-1.44141182e-08
-2.869158725e-08
-4.57484306e-08
-6.755706027e-08
-9.663596441e-08
-1.376076919e-07
-2.416818479e-07
-3.317462386e-07
-3.717086335e-07
97.15187189
0
0
0
0
0
0
0
0
0
0
0
0
0
0
0
0
0
0
0
)
;
    }
    procBoundary4to2
    {
        type            processor;
        value           nonuniform List<scalar> 
30
(
2.669183649e-09
8.531271332e-11
-2.130183696e-09
-4.374953347e-09
-6.763865263e-09
-9.319753715e-09
-1.192058533e-08
-1.419342439e-08
-1.542310941e-08
-1.424746547e-08
-8.194777415e-09
7.299398117e-09
4.003329387e-08
9.626868125e-08
1.338074928e-07
1.396050332e-07
-2.346208828e-07
17.05672269
9.759568854
0
0
0
0
0
0
0
-0.006121988256
18.3328613
-4.610307355e-05
-8.18533442e-11
)
;
    }
    procBoundary4to5
    {
        type            processor;
        value           nonuniform List<scalar> 
20
(
428.2798371
10.47795229
0
0
0
0
0
0
6.727174156
409.0996093
-0.002441608337
-0.01412385648
-0.00546205929
216.1777766
0
0
0
0
0
0
)
;
    }
}


// ************************************************************************* //
