/*--------------------------------*- C++ -*----------------------------------*\
  =========                 |
  \\      /  F ield         | OpenFOAM: The Open Source CFD Toolbox
   \\    /   O peration     | Website:  https://openfoam.org
    \\  /    A nd           | Version:  6
     \\/     M anipulation  |
\*---------------------------------------------------------------------------*/
FoamFile
{
    version     2.0;
    format      ascii;
    class       volScalarField;
    location    "0.0013";
    object      Num_divU;
}
// * * * * * * * * * * * * * * * * * * * * * * * * * * * * * * * * * * * * * //

dimensions      [0 0 -1 0 0 0 0];

internalField   nonuniform List<scalar> 
9600
(
-7.127291003e-09
-1.072341408e-08
-1.078694302e-08
-8.308647047e-09
-5.394498628e-09
-2.624014044e-09
-3.3777942e-10
1.528980004e-09
2.91062337e-09
3.971900562e-09
4.671911951e-09
5.173979391e-09
5.422652643e-09
5.565114736e-09
5.527981908e-09
5.44383928e-09
5.225659705e-09
4.996221437e-09
4.659574316e-09
4.33088457e-09
3.906062784e-09
3.493374926e-09
2.981942941e-09
2.473513997e-09
1.848175382e-09
1.193721951e-09
3.715552156e-10
-5.526458552e-10
-1.737585146e-09
-3.136054357e-09
-4.924974167e-09
-7.086825708e-09
-9.844237736e-09
-1.324955612e-08
-1.760766966e-08
-2.30581194e-08
-2.997926273e-08
-3.857456975e-08
-4.928008108e-08
-6.237962432e-08
-7.841690455e-08
-9.78183353e-08
-1.21272653e-07
-1.493456414e-07
-1.82847427e-07
-2.224866157e-07
-2.69257054e-07
-3.24128257e-07
-3.884182815e-07
-4.635123317e-07
-5.512455822e-07
-6.537189037e-07
-7.737961567e-07
-9.151885263e-07
-1.083344679e-06
-1.286197411e-06
-1.53589183e-06
-1.850083797e-06
-2.251791796e-06
-2.762698985e-06
-3.382293019e-06
-4.062191163e-06
-4.740850938e-06
-5.709838375e-06
-7.407913051e-06
-1.454524315e-05
-2.147066763e-05
-1.025572716e-05
1.761386745e-11
5.846066262e-11
7.582567362e-11
1.114519674e-10
1.158261015e-10
8.275667693e-11
6.047227092e-11
7.473296841e-11
1.275467512e-10
1.717957266e-10
2.134598165e-10
2.25348647e-10
2.010418916e-10
1.603108897e-10
1.20020044e-10
1.140267537e-10
1.124886832e-10
1.231724146e-10
8.813833546e-11
3.464980355e-11
-3.249466166e-11
-4.359792991e-11
-3.423808151e-11
-1.031248743e-11
-5.789968125e-12
1.709582036e-11
1.932577479e-11
-3.519232019e-11
-1.185581915e-10
-1.818020549e-10
-1.967803123e-10
-1.977955178e-10
-1.581567764e-10
-1.495468404e-10
-1.167690005e-10
-1.017726316e-10
-9.543479169e-11
-1.616976603e-10
-1.896235665e-10
-7.021625602e-11
-3.200980736e-10
-9.153987239e-11
-2.105688465e-10
-4.977477254e-11
-8.565146709e-06
-1.283154418e-05
-6.38293632e-06
-1.016435838e-06
-7.395560652e-08
-5.322799054e-07
-1.698965372e-06
1.517183548e-06
-2.138295476e-08
-2.352082633e-08
-1.96035972e-08
-1.385948849e-08
-8.843035432e-09
-4.829721134e-09
-1.77601955e-09
5.384856654e-10
2.22373737e-09
3.458967636e-09
4.297984854e-09
4.872032389e-09
5.194965066e-09
5.366669668e-09
5.375169387e-09
5.300537964e-09
5.114950343e-09
4.886844181e-09
4.578249539e-09
4.248896578e-09
3.852713682e-09
3.442349487e-09
2.965429712e-09
2.467778726e-09
1.887235671e-09
1.255801253e-09
4.942761026e-10
-3.828141796e-10
-1.468915598e-09
-2.763109742e-09
-4.376611681e-09
-6.341263765e-09
-8.820859741e-09
-1.191990062e-08
-1.588222292e-08
-2.088934822e-08
-2.725056714e-08
-3.521333216e-08
-4.5170233e-08
-5.749346655e-08
-7.274069842e-08
-9.147748542e-08
-1.144511222e-07
-1.424097042e-07
-1.762899556e-07
-2.170853146e-07
-2.660626528e-07
-3.24643831e-07
-3.946029832e-07
-4.779483886e-07
-5.77137736e-07
-6.95040824e-07
-8.352814099e-07
-1.002432557e-06
-1.202657846e-06
-1.444266872e-06
-1.738613603e-06
-2.100542545e-06
-2.548186102e-06
-3.100932787e-06
-3.779064602e-06
-4.612619915e-06
-5.703900645e-06
-7.337659793e-06
-9.926829881e-06
-1.398946911e-05
-1.839931089e-05
-1.608085871e-05
-7.866579814e-06
2.263477195e-11
6.321377265e-11
6.785444279e-11
1.756777034e-11
2.63714408e-11
2.290714261e-11
8.057779152e-11
1.237851153e-10
1.653891111e-10
1.627460432e-10
1.637079106e-10
1.062983788e-10
9.633724769e-11
6.412334415e-11
7.055167016e-11
7.610690292e-11
6.855663804e-11
2.326499381e-11
-2.753539676e-11
-5.84972821e-11
-3.927836417e-11
-1.222758484e-11
4.552721447e-12
1.033966288e-11
4.760092808e-11
3.887157139e-11
-2.677228157e-11
-1.156591784e-10
-8.243969267e-11
-1.146664569e-10
-1.02273827e-10
-1.23079096e-10
-9.566533555e-11
-1.27150617e-10
-9.997141837e-11
-1.181809843e-10
-6.843665584e-11
-1.135269546e-10
-1.811629601e-10
-1.162571251e-10
-5.474876078e-11
5.904986047e-17
-8.960068132e-06
-1.465814621e-05
-1.5782781e-05
-1.025168489e-05
-6.478581935e-06
-4.382546394e-06
-3.560468245e-06
-3.029664118e-06
1.095781726e-06
-8.303561645e-08
-5.340487667e-08
-3.190025323e-08
-1.974628011e-08
-1.191636973e-08
-6.604703204e-09
-2.859156962e-09
-1.905018535e-10
1.729544349e-09
3.081092085e-09
4.024177334e-09
4.638561007e-09
5.019673005e-09
5.20241727e-09
5.24992756e-09
5.173496587e-09
5.018998655e-09
4.78437964e-09
4.504998296e-09
4.169110277e-09
3.803798663e-09
3.390371802e-09
2.949572725e-09
2.45565115e-09
1.919606076e-09
1.302465073e-09
6.002641526e-10
-2.391025437e-10
-1.230108279e-09
-2.435011508e-09
-3.886990393e-09
-5.684211229e-09
-7.917387273e-09
-1.075779091e-08
-1.437209508e-08
-1.89987458e-08
-2.486552163e-08
-3.22831264e-08
-4.159082728e-08
-5.326471438e-08
-6.785712073e-08
-8.607426799e-08
-1.086917476e-07
-1.366340548e-07
-1.70932138e-07
-2.128518952e-07
-2.638808743e-07
-3.25843042e-07
-4.008555874e-07
-4.914279757e-07
-6.004403587e-07
-7.313007953e-07
-8.880308555e-07
-1.075584309e-06
-1.300147591e-06
-1.569646988e-06
-1.894133181e-06
-2.286199104e-06
-2.761253694e-06
-3.338468104e-06
-4.044498044e-06
-4.924897765e-06
-6.066544047e-06
-7.608239421e-06
-9.608814742e-06
-1.174333247e-05
-1.217931993e-05
-1.345280179e-05
-1.302235125e-05
-7.677744329e-06
2.840014556e-11
-1.041987373e-11
2.5424114e-11
6.696355255e-12
7.315974286e-11
1.196940375e-10
1.566214377e-10
1.465583498e-10
1.665883498e-10
1.209212371e-10
1.374132125e-10
6.145552933e-11
6.950417979e-11
8.276776776e-11
8.782327652e-11
5.50234202e-11
-5.124436356e-12
-6.344732894e-11
-7.040386866e-11
-3.724294897e-11
-4.147431209e-12
1.027377327e-11
5.683634887e-11
9.46827019e-11
4.942569105e-11
-6.533896851e-11
-5.341191408e-11
-1.340028774e-10
-1.037308128e-10
-1.401270719e-10
-1.208955138e-10
-1.609173907e-10
-1.033056487e-10
-1.124372515e-10
-1.583552597e-11
-2.726209835e-10
-8.139198232e-11
-4.435376938e-11
-4.015266464e-11
-1.265468151e-16
-1.064491121e-05
-1.628365101e-05
-1.543150903e-05
-1.303893465e-05
-1.164454337e-05
-9.284346414e-06
-7.085389971e-06
-5.788057292e-06
-5.364421693e-06
-8.404713323e-08
-9.964961051e-08
-6.207107054e-08
-3.581872927e-08
-2.175748831e-08
-1.304418907e-08
-7.283144114e-09
-3.316403583e-09
-5.104555239e-10
1.474539837e-09
2.881900988e-09
3.845633544e-09
4.490888175e-09
4.877833923e-09
5.082206722e-09
5.129485387e-09
5.070926698e-09
4.914298656e-09
4.697505608e-09
4.416897941e-09
4.100868455e-09
3.737288176e-09
3.347399785e-09
2.912951482e-09
2.44812199e-09
1.925164047e-09
1.346156718e-09
6.710451936e-10
-1.079361991e-10
-1.038015068e-09
-2.136408239e-09
-3.470739755e-09
-5.098080881e-09
-7.145815867e-09
-9.742189869e-09
-1.30832248e-08
-1.73564747e-08
-2.281687406e-08
-2.973800666e-08
-3.851442016e-08
-4.962331769e-08
-6.370545904e-08
-8.149321651e-08
-1.038704821e-07
-1.318235664e-07
-1.66553805e-07
-2.094806331e-07
-2.623619594e-07
-3.272643072e-07
-4.066385207e-07
-5.032742789e-07
-6.20392517e-07
-7.616371712e-07
-9.31222927e-07
-1.134025912e-06
-1.375861767e-06
-1.663686937e-06
-2.005869288e-06
-2.412310749e-06
-2.894782059e-06
-3.467712985e-06
-4.150285815e-06
-4.969330329e-06
-5.958442944e-06
-7.133225871e-06
-8.402031504e-06
-9.449370885e-06
-9.768437007e-06
-9.851826551e-06
-1.379250698e-05
-1.393202087e-05
-1.025195914e-05
1.020881626e-11
1.683766817e-12
7.210662305e-11
9.7827082e-11
9.708036106e-11
6.103644088e-11
1.370011918e-10
9.001983505e-11
1.282909153e-10
7.153334759e-11
1.245408419e-10
1.143449984e-10
1.139602787e-10
1.061780707e-10
5.287190627e-11
-3.064645813e-11
-8.606646621e-11
-8.166048478e-11
-3.287545995e-11
4.004054331e-12
3.711708172e-11
9.435447158e-11
1.244402575e-10
1.982073854e-11
-4.165996121e-11
-1.19490356e-10
-5.413057906e-11
-1.639715311e-10
-1.845052977e-10
-1.639548192e-10
1.517159316e-11
-1.246370904e-10
-3.406093171e-11
-1.698657602e-10
-7.175424664e-11
-2.577194508e-11
-1.108945418e-11
2.39611819e-15
-1.409652784e-05
-1.940791405e-05
-1.917620135e-05
-1.430714748e-05
-1.323657275e-05
-1.222761961e-05
-1.063446956e-05
-9.162034362e-06
-8.115579194e-06
-7.747257846e-06
-1.793180591e-06
-5.153578823e-08
-4.093070473e-08
-2.842843563e-08
-1.87784e-08
-1.17337305e-08
-6.6724078e-09
-3.020572115e-09
-3.857112769e-10
1.51409881e-09
2.861454134e-09
3.799427995e-09
4.418946668e-09
4.800900092e-09
4.992351778e-09
5.043100523e-09
4.977574759e-09
4.829372894e-09
4.609955188e-09
4.341957738e-09
4.027258865e-09
3.679902523e-09
3.295037153e-09
2.880938152e-09
2.425656063e-09
1.928585986e-09
1.367509667e-09
7.318117519e-10
-7.789664522e-12
-8.677684563e-10
-1.88729232e-09
-3.10596324e-09
-4.605345063e-09
-6.484582857e-09
-8.891667441e-09
-1.198645693e-08
-1.597007349e-08
-2.106546533e-08
-2.757664426e-08
-3.589483483e-08
-4.655627777e-08
-6.021883032e-08
-7.768440801e-08
-9.986959414e-08
-1.278661254e-07
-1.629736696e-07
-2.067975547e-07
-2.61266451e-07
-3.286763295e-07
-4.116618491e-07
-5.13231046e-07
-6.367487954e-07
-7.859780253e-07
-9.650625651e-07
-1.178594172e-06
-1.43165618e-06
-1.729915245e-06
-2.079571581e-06
-2.487234647e-06
-2.959687009e-06
-3.503721668e-06
-4.125729605e-06
-4.829797781e-06
-5.610496171e-06
-6.433625682e-06
-7.202833854e-06
-7.758941137e-06
-8.009378148e-06
-8.343475444e-06
-8.329944503e-06
-7.023311923e-06
3.463032879e-06
1.757044033e-05
9.249940657e-06
3.940813031e-11
1.521282188e-11
-1.567397614e-11
1.576407082e-10
1.09327727e-10
1.870716057e-10
1.57261046e-10
2.343690912e-10
9.151710368e-11
9.330209916e-11
1.285902203e-10
1.130255296e-10
3.56914967e-11
-5.886683183e-11
-1.075138757e-10
-8.037797859e-11
-2.477272315e-11
1.217640466e-11
7.017331211e-11
1.456954011e-10
1.000707465e-10
1.521148262e-11
-8.2787363e-11
-1.787060782e-11
-1.57369108e-10
-1.557185658e-10
-1.769082294e-10
4.659258682e-11
-2.817716504e-10
-2.247460394e-10
-1.079912448e-10
-4.160041385e-11
-2.833865179e-11
-1.709923038e-15
1.129542762e-05
1.248352883e-05
-1.745828988e-06
-1.454515708e-05
-1.515060113e-05
-1.4477669e-05
-1.328591163e-05
-1.239301761e-05
-1.153890759e-05
-1.087067262e-05
-1.029869127e-05
-1.059566272e-05
-3.837523989e-06
-2.936392641e-08
-2.616278842e-08
-2.007217522e-08
-1.413754602e-08
-9.122742037e-09
-5.168716302e-09
-2.14513981e-09
1.273546147e-10
1.803945162e-09
3.016825237e-09
3.86505516e-09
4.43130802e-09
4.774269981e-09
4.944995759e-09
4.978251591e-09
4.907145152e-09
4.752438533e-09
4.536064758e-09
4.268401134e-09
3.962014981e-09
3.619491864e-09
3.246925399e-09
2.840963655e-09
2.401614378e-09
1.917708092e-09
1.380560803e-09
7.713794314e-10
7.564694722e-11
-7.309084648e-10
-1.674746539e-09
-2.805566984e-09
-4.192957284e-09
-5.94374301e-09
-8.186970022e-09
-1.108268483e-08
-1.481135518e-08
-1.960472094e-08
-2.576622507e-08
-3.371983008e-08
-4.4019038e-08
-5.736122594e-08
-7.456834592e-08
-9.661161016e-08
-1.24644311e-07
-1.600847615e-07
-2.04665251e-07
-2.604746024e-07
-3.299419393e-07
-4.158405004e-07
-5.212717397e-07
-6.496748574e-07
-8.047804365e-07
-9.905629842e-07
-1.211151466e-06
-1.470765606e-06
-1.773566301e-06
-2.1233846e-06
-2.523186746e-06
-2.974322134e-06
-3.475436704e-06
-4.020791577e-06
-4.597017305e-06
-5.176969999e-06
-5.710000612e-06
-6.113820918e-06
-6.288983186e-06
-6.167432697e-06
-5.728909788e-06
-4.377238191e-06
-4.713553222e-07
6.498313919e-06
9.977513474e-06
2.484967837e-05
5.053780454e-06
-1.557884471e-11
9.601473362e-11
1.574017982e-10
2.745061583e-10
2.306206674e-10
2.046930891e-10
-1.377559475e-10
2.696050257e-10
9.068933848e-11
5.290112562e-11
4.629901872e-11
-1.669523513e-11
-1.007916675e-10
-1.289513042e-10
-8.377529648e-11
-1.830766218e-11
3.358811122e-11
9.183261063e-11
1.283169441e-10
9.938995113e-11
-2.283359534e-11
1.780880139e-11
6.001532892e-12
2.478258728e-10
-4.21020107e-10
-4.462869627e-11
-2.008783991e-10
-3.305989398e-10
-3.442269492e-10
-9.042221791e-11
-1.040107248e-11
2.632259364e-15
-1.522234767e-07
1.799069627e-05
8.109752937e-06
2.083647275e-06
-7.577855164e-06
-1.179799756e-05
-1.266712025e-05
-1.273997352e-05
-1.230035773e-05
-1.223503757e-05
-1.194949741e-05
-1.22048481e-05
-1.337156344e-05
-5.935509299e-06
-1.533167323e-08
-1.520433887e-08
-1.261800183e-08
-9.322977697e-09
-6.062376348e-09
-3.233947313e-09
-9.218672355e-10
8.955437741e-10
2.281012006e-09
3.302320469e-09
4.026239069e-09
4.507910333e-09
4.796214859e-09
4.928643495e-09
4.938668337e-09
4.85130666e-09
4.689587592e-09
4.468672793e-09
4.202824892e-09
3.898589828e-09
3.562668112e-09
3.195834437e-09
2.799716e-09
2.369445218e-09
1.900054216e-09
1.379838424e-09
7.976899723e-10
1.367748402e-10
-6.206689406e-10
-1.505443815e-09
-2.562821673e-09
-3.865909325e-09
-5.511901357e-09
-7.626003853e-09
-1.035317902e-08
-1.387218728e-08
-1.841253989e-08
-2.429599796e-08
-3.196169672e-08
-4.19879463e-08
-5.508310134e-08
-7.209286933e-08
-9.401891062e-08
-1.22085346e-07
-1.578010772e-07
-2.030159222e-07
-2.599212912e-07
-3.310417998e-07
-4.19212753e-07
-5.275832003e-07
-6.595867499e-07
-8.188797058e-07
-1.009201529e-06
-1.234207227e-06
-1.497231112e-06
-1.800966913e-06
-2.146915385e-06
-2.534564894e-06
-2.960210971e-06
-3.415431963e-06
-3.884982409e-06
-4.343831048e-06
-4.753097276e-06
-5.055712791e-06
-5.174812242e-06
-5.020068602e-06
-4.491861646e-06
-3.436934826e-06
-1.434675694e-06
2.083848769e-06
7.807952101e-06
8.614509308e-06
2.279903615e-05
3.488398552e-05
2.700400467e-05
2.012262089e-06
1.380714326e-10
1.168440608e-10
4.338910188e-11
-3.003432727e-10
4.411063484e-10
2.672359332e-11
1.914574514e-10
8.344246312e-11
2.902412049e-11
-5.565404128e-11
-1.375175478e-10
-1.463427261e-10
-8.069686334e-11
-1.401933322e-11
3.493051026e-11
9.887837493e-11
1.408768799e-10
1.088816378e-10
7.505629079e-11
1.600777162e-10
5.92240489e-10
-8.475045517e-10
-1.361531627e-10
1.152919914e-10
-7.367326864e-11
-2.518499898e-10
-8.605732722e-11
8.117095619e-16
2.852879861e-06
2.034432745e-05
2.23100862e-05
1.513052473e-05
4.841654985e-06
1.884468795e-06
-4.35813712e-06
-8.432601968e-06
-1.047120009e-05
-1.14779983e-05
-1.188471292e-05
-1.251369289e-05
-1.280537611e-05
-1.368354512e-05
-1.582990293e-05
-7.909443254e-06
-6.059086464e-09
-7.268724239e-09
-6.580573147e-09
-5.0132848e-09
-3.083270644e-09
-1.21337905e-09
4.304140409e-10
1.790350701e-09
2.863063849e-09
3.671999647e-09
4.250072518e-09
4.63259115e-09
4.852179324e-09
4.938610319e-09
4.917104162e-09
4.810281454e-09
4.63609491e-09
4.409864944e-09
4.141592225e-09
3.839063625e-09
3.505939514e-09
3.144586086e-09
2.754205624e-09
2.332543154e-09
1.873494885e-09
1.369352121e-09
8.089552217e-10
1.791171111e-10
-5.396736336e-10
-1.376890628e-09
-2.380177055e-09
-3.618737954e-09
-5.186096287e-09
-7.196605585e-09
-9.788988193e-09
-1.313734244e-08
-1.747996064e-08
-2.31506383e-08
-3.060633328e-08
-4.04333061e-08
-5.334805241e-08
-7.020497363e-08
-9.204024608e-08
-1.201349925e-07
-1.560829116e-07
-2.018159969e-07
-2.595996036e-07
-3.320041674e-07
-4.218965891e-07
-5.324321408e-07
-6.670260924e-07
-8.292497751e-07
-1.022648434e-06
-1.250468309e-06
-1.515303473e-06
-1.818578452e-06
-2.159815094e-06
-2.535565286e-06
-2.938044613e-06
-3.353417348e-06
-3.759762353e-06
-4.124640348e-06
-4.402477009e-06
-4.532382581e-06
-4.43764588e-06
-4.027158387e-06
-3.192382926e-06
-1.787252647e-06
4.070983505e-07
3.542260867e-06
7.451658337e-06
1.024049467e-05
1.342433289e-05
2.272769997e-05
2.886927561e-05
4.952399475e-05
3.30741604e-05
3.826698663e-06
-1.407273972e-10
2.022547338e-10
-3.598282662e-12
4.65061585e-10
2.639220831e-10
7.732912745e-11
3.135924088e-12
-8.666749441e-11
-1.62850632e-10
-1.562415345e-10
-8.328393676e-11
-9.629545709e-12
4.072994416e-11
1.092447873e-10
1.834480164e-10
1.386936522e-10
1.333621092e-10
3.988604241e-10
-6.105572197e-10
-2.42192491e-10
5.184364781e-11
6.254414156e-11
-1.841764102e-11
2.964754974e-15
3.633162726e-06
2.581240815e-05
3.88515793e-05
2.152000414e-05
1.466936203e-05
7.255694229e-06
4.346236304e-06
1.416456746e-06
-2.949697873e-06
-6.714705543e-06
-8.859997945e-06
-1.034224809e-05
-1.159804746e-05
-1.264855704e-05
-1.362690578e-05
-1.534274618e-05
-1.804513909e-05
-9.558909442e-06
3.480714366e-10
-1.504797608e-09
-1.881056471e-09
-1.421368619e-09
-4.401997728e-10
6.785462682e-10
1.757003929e-09
2.703919319e-09
3.48013657e-09
4.078057265e-09
4.507148967e-09
4.784465875e-09
4.930505208e-09
4.965604729e-09
4.909432937e-09
4.779568207e-09
4.591398879e-09
4.35675902e-09
4.085105291e-09
3.781699381e-09
3.450198796e-09
3.091750845e-09
2.70599384e-09
2.290310313e-09
1.840284754e-09
1.348875132e-09
8.070222286e-10
2.015102971e-10
-4.871491981e-10
-1.290269075e-09
-2.255104258e-09
-3.449101552e-09
-4.959092131e-09
-6.892255823e-09
-9.380791502e-09
-1.260063867e-08
-1.679852142e-08
-2.232231173e-08
-2.963788469e-08
-3.933420237e-08
-5.212445353e-08
-6.887161883e-08
-9.063994415e-08
-1.187664386e-07
-1.549088468e-07
-2.010595932e-07
-2.595210552e-07
-3.328848657e-07
-4.240244672e-07
-5.360988494e-07
-6.72515923e-07
-8.368152912e-07
-1.032437944e-06
-1.26238692e-06
-1.5287486e-06
-1.832055601e-06
-2.170386965e-06
-2.538208051e-06
-2.924900497e-06
-3.313068016e-06
-3.676613189e-06
-3.978711131e-06
-4.169853692e-06
-4.186481805e-06
-3.950779694e-06
-3.371946465e-06
-2.348109889e-06
-7.712582579e-07
1.449389384e-06
4.291022481e-06
7.513351645e-06
1.057473157e-05
1.435659096e-05
2.29953814e-05
2.571193613e-05
3.647874178e-05
3.313709284e-05
5.003477208e-05
2.914369455e-05
-4.173082081e-06
-1.076488536e-06
1.887374262e-10
2.907612505e-11
-7.070379343e-11
-9.150026909e-11
-1.492892713e-10
-1.990302251e-10
-1.70387565e-10
-8.40212772e-11
-1.567235074e-11
4.303107857e-11
1.301419134e-10
1.888021655e-10
1.405460319e-10
1.464911268e-10
7.658111538e-11
-3.224446859e-11
7.207509359e-11
5.899862989e-16
-1.865558354e-06
-4.897500216e-06
2.240777512e-05
3.877292119e-05
2.390319281e-05
2.738180298e-05
1.767377922e-05
1.576340943e-05
7.382528898e-06
3.858598502e-06
8.690934569e-07
-2.315373486e-06
-5.470187239e-06
-7.783843232e-06
-9.694000439e-06
-1.125487252e-05
-1.269772246e-05
-1.401958662e-05
-1.63152351e-05
-1.954853302e-05
-1.076625582e-05
4.867728942e-09
2.687629966e-09
1.697245835e-09
1.450888613e-09
1.775954479e-09
2.334354947e-09
2.963023978e-09
3.562717798e-09
4.077896939e-09
4.482776518e-09
4.770622801e-09
4.945914295e-09
5.018595547e-09
5.002037467e-09
4.910136837e-09
4.756246788e-09
4.552545285e-09
4.30872305e-09
4.031678841e-09
3.726260767e-09
3.394756579e-09
3.037948615e-09
2.655096706e-09
2.244015629e-09
1.800798806e-09
1.319647825e-09
7.918880686e-10
2.043603552e-10
-4.638196342e-10
-1.244984108e-09
-2.186682898e-09
-3.353279155e-09
-4.826208917e-09
-6.706284622e-09
-9.12360852e-09
-1.225797157e-08
-1.636634421e-08
-2.180621008e-08
-2.904714535e-08
-3.867237464e-08
-5.139015433e-08
-6.806921217e-08
-8.980277002e-08
-1.179711022e-07
-1.542795141e-07
-2.007508552e-07
-2.597015886e-07
-3.337231005e-07
-4.25692035e-07
-5.387837603e-07
-6.764434895e-07
-8.422605347e-07
-1.039711893e-06
-1.271757991e-06
-1.540296403e-06
-1.845422685e-06
-2.18448858e-06
-2.550885575e-06
-2.932602077e-06
-3.310534016e-06
-3.656634539e-06
-3.931955828e-06
-4.084860673e-06
-4.049793354e-06
-3.747193694e-06
-3.085303338e-06
-1.965998737e-06
-3.010759042e-07
1.948714028e-06
4.708715759e-06
7.781344197e-06
1.102275052e-05
1.500976254e-05
2.083384052e-05
2.287905949e-05
2.361758765e-05
2.102979761e-05
1.957612178e-05
2.083785133e-06
2.549315527e-05
8.091724786e-05
6.678470471e-05
9.34328912e-11
-4.56778668e-11
-1.09607853e-10
-1.739720086e-10
-2.125718454e-10
-1.712594178e-10
-8.309843754e-11
-1.220942139e-11
4.6222998e-11
1.41841409e-10
1.923347055e-10
1.519765911e-10
2.325799125e-10
2.680855097e-10
4.226688896e-10
-1.727269852e-10
6.703535221e-05
7.575867105e-05
2.00916907e-05
-7.538964755e-06
1.00593932e-05
1.17969169e-05
1.470417287e-05
1.449297741e-05
1.290078765e-05
7.404856814e-06
3.542310548e-06
6.531965946e-07
-2.265075909e-06
-5.056818528e-06
-7.485160757e-06
-9.274871529e-06
-1.119092622e-05
-1.291356175e-05
-1.465023915e-05
-1.680279265e-05
-2.040372927e-05
-1.146302497e-05
8.077100746e-09
5.729873229e-09
4.378940762e-09
3.682360157e-09
3.562386281e-09
3.71602658e-09
4.001327633e-09
4.323218767e-09
4.620364417e-09
4.858264831e-09
5.02039629e-09
5.10215428e-09
5.106671424e-09
5.041032457e-09
4.914576207e-09
4.737203243e-09
4.517770071e-09
4.263786544e-09
3.980782605e-09
3.672126299e-09
3.339579466e-09
2.983290352e-09
2.602239761e-09
2.194250879e-09
1.755840805e-09
1.281800854e-09
7.634857214e-10
1.87111932e-10
-4.697521314e-10
-1.240681038e-09
-2.173004441e-09
-3.328471369e-09
-4.783997632e-09
-6.636727958e-09
-9.016994995e-09
-1.211068818e-08
-1.618398412e-08
-2.160059195e-08
-2.882754159e-08
-3.843903429e-08
-5.113578392e-08
-6.779390331e-08
-8.952957652e-08
-1.177557675e-07
-1.542004742e-07
-2.008937397e-07
-2.601417261e-07
-3.345254565e-07
-4.269277292e-07
-5.405670033e-07
-6.789834171e-07
-8.459139774e-07
-1.045014576e-06
-1.279427986e-06
-1.551192939e-06
-1.860506738e-06
-2.204782321e-06
-2.577501521e-06
-2.966790463e-06
-3.353723745e-06
-3.710330736e-06
-3.997467874e-06
-4.162826317e-06
-4.139520116e-06
-3.845566652e-06
-3.184571471e-06
-2.049575336e-06
-3.390181554e-07
1.997197566e-06
4.872270395e-06
8.040050022e-06
1.129871542e-05
1.52105615e-05
2.084170616e-05
2.26610865e-05
2.309826548e-05
2.008990517e-05
1.891059876e-05
6.163233453e-07
2.567500896e-05
7.991193852e-05
6.757969908e-05
2.603853909e-10
-1.223699445e-11
-1.058275161e-10
-1.796301304e-10
-2.136016088e-10
-1.674189789e-10
-7.96002906e-11
-1.211685895e-11
4.82269057e-11
1.371886631e-10
1.820255839e-10
1.464167987e-10
2.010507134e-10
4.414754445e-10
-2.447011732e-10
1.292454876e-10
6.660431872e-05
7.609685222e-05
1.962676493e-05
-7.70452097e-06
9.044011341e-06
1.093489627e-05
1.426387868e-05
1.386796149e-05
1.210761237e-05
6.565146588e-06
3.105793375e-06
6.074776371e-07
-2.192151321e-06
-4.961258659e-06
-7.447498599e-06
-9.362440928e-06
-1.125682394e-05
-1.298203086e-05
-1.451756549e-05
-1.684202503e-05
-2.058609275e-05
-1.15656627e-05
1.034372591e-08
7.917336914e-09
6.355876107e-09
5.374037433e-09
4.957276388e-09
4.826111273e-09
4.85769874e-09
4.965065311e-09
5.087844612e-09
5.187522854e-09
5.24250077e-09
5.243030272e-09
5.186778331e-09
5.076979661e-09
4.918963838e-09
4.71944753e-09
4.484889289e-09
4.22086584e-09
3.931374422e-09
3.619074277e-09
3.284847284e-09
2.928234339e-09
2.547919794e-09
2.141494754e-09
1.705776328e-09
1.235503178e-09
7.217604102e-10
1.495514616e-10
-5.050933098e-10
-1.276913612e-09
-2.213019294e-09
-3.373133836e-09
-4.831351313e-09
-6.683646401e-09
-9.06334304e-09
-1.216315731e-08
-1.625631346e-08
-2.170815656e-08
-2.897928883e-08
-3.863284408e-08
-5.136414321e-08
-6.805489838e-08
-8.983765171e-08
-1.181383351e-07
-1.54684824e-07
-2.014872015e-07
-2.608238845e-07
-3.352563691e-07
-4.2768105e-07
-5.413881688e-07
-6.800660679e-07
-8.476811833e-07
-1.048195731e-06
-1.28512763e-06
-1.560994806e-06
-1.876633997e-06
-2.230384219e-06
-2.61704001e-06
-3.026489385e-06
-3.441879227e-06
-3.837326514e-06
-4.175371786e-06
-4.404632352e-06
-4.458143032e-06
-4.252288706e-06
-3.684598418e-06
-2.628529457e-06
-9.31975821e-07
1.542710593e-06
4.757199449e-06
8.302224338e-06
1.146230854e-05
1.503236312e-05
2.323304078e-05
2.448856042e-05
3.487103676e-05
3.057348643e-05
4.878919401e-05
2.796593643e-05
-4.862940167e-06
-2.080175449e-06
4.222041604e-10
1.274500226e-10
-9.333326225e-12
-8.796543357e-11
-1.662940972e-10
-2.000106176e-10
-1.542197832e-10
-6.991762391e-11
-7.254781474e-12
4.991289236e-11
1.283766404e-10
1.60982561e-10
1.156357454e-10
1.973400986e-10
5.522146943e-11
2.755449931e-10
-6.103110815e-10
-1.088652512e-10
-1.940613327e-06
-4.750245051e-06
2.080663215e-05
3.678104752e-05
1.981867627e-05
2.400761648e-05
1.512665449e-05
1.370097802e-05
5.728219267e-06
2.936063936e-06
5.533187989e-07
-2.36047497e-06
-5.27743216e-06
-7.792459073e-06
-9.521925367e-06
-1.136583706e-05
-1.285146356e-05
-1.464351927e-05
-1.650818298e-05
-1.99369933e-05
-1.110708822e-05
1.191479076e-08
9.463281501e-09
7.78368151e-09
6.624158201e-09
6.014275112e-09
5.687503987e-09
5.53686609e-09
5.484264248e-09
5.471969911e-09
5.461567706e-09
5.429179071e-09
5.361668106e-09
5.254060341e-09
5.106023209e-09
4.920203224e-09
4.700879036e-09
4.45239597e-09
4.178736584e-09
3.883001241e-09
3.566896964e-09
3.23061417e-09
2.873165554e-09
2.492412494e-09
2.086046661e-09
1.650610081e-09
1.180641575e-09
6.664182493e-10
9.141752248e-11
-5.697395096e-10
-1.353195948e-09
-2.306117758e-09
-3.487137108e-09
-4.969773937e-09
-6.851027531e-09
-9.268896469e-09
-1.242267898e-08
-1.659019678e-08
-2.213510003e-08
-2.950916685e-08
-3.926525659e-08
-5.209334156e-08
-6.887845445e-08
-9.075641382e-08
-1.191461054e-07
-1.557478424e-07
-2.025284771e-07
-2.61719112e-07
-3.358525213e-07
-4.278419968e-07
-5.410668216e-07
-6.793943079e-07
-8.470655888e-07
-1.048419354e-06
-1.287497852e-06
-1.567578815e-06
-1.890663835e-06
-2.25686117e-06
-2.663536922e-06
-3.103972839e-06
-3.565345208e-06
-4.02601591e-06
-4.452395926e-06
-4.796020269e-06
-4.991744677e-06
-4.957218164e-06
-4.590093392e-06
-3.749663807e-06
-2.21107505e-06
3.648450659e-07
4.193405482e-06
8.771950733e-06
1.188498932e-05
1.477483426e-05
2.268443592e-05
2.705087908e-05
4.713663637e-05
3.127507463e-05
2.776795037e-06
-9.623346142e-11
1.313974504e-10
2.047087844e-10
2.472372003e-10
1.290478767e-10
4.107122476e-11
-4.440866646e-11
-1.329178526e-10
-1.724496395e-10
-1.346358456e-10
-6.132718664e-11
-2.032549184e-12
5.072976786e-11
1.117705328e-10
1.351256475e-10
1.037382028e-10
1.389777529e-10
2.050942683e-10
-1.984477346e-10
-1.383452027e-10
-8.986907907e-11
2.19298414e-11
-9.571183698e-11
-5.953272153e-11
2.357403188e-06
2.211821954e-05
3.33853516e-05
1.695098681e-05
1.204528082e-05
4.252872742e-06
3.184769829e-06
1.212620325e-06
-2.523200359e-06
-5.908468284e-06
-8.343607598e-06
-1.005920897e-05
-1.155894154e-05
-1.277196419e-05
-1.414106346e-05
-1.57306011e-05
-1.878793936e-05
-1.015983988e-05
1.296510305e-08
1.052203213e-08
8.784364233e-09
7.519454655e-09
6.788764224e-09
6.332332406e-09
6.055090157e-09
5.886573371e-09
5.773555697e-09
5.678445652e-09
5.577120482e-09
5.455149255e-09
5.305459559e-09
5.125649695e-09
4.916443427e-09
4.679874338e-09
4.419041429e-09
4.136739298e-09
3.835368419e-09
3.515733728e-09
3.177276164e-09
2.818247097e-09
2.436089478e-09
2.028040525e-09
1.590380085e-09
1.117082929e-09
5.97329103e-10
1.288868993e-11
-6.635051867e-10
-1.469416192e-09
-2.452540359e-09
-3.672112772e-09
-5.202528713e-09
-7.144504813e-09
-9.641474976e-09
-1.289864305e-08
-1.719596762e-08
-2.289285976e-08
-3.043215708e-08
-4.035761286e-08
-5.335435204e-08
-7.030323359e-08
-9.232794545e-08
-1.208158394e-07
-1.574143703e-07
-2.040219251e-07
-2.628026779e-07
-3.362471094e-07
-4.272773055e-07
-5.393551873e-07
-6.765156817e-07
-8.432568397e-07
-1.044297195e-06
-1.28426494e-06
-1.567404939e-06
-1.897315836e-06
-2.276637329e-06
-2.706438033e-06
-3.184963385e-06
-3.70550108e-06
-4.253284369e-06
-4.801569656e-06
-5.307308115e-06
-5.7082388e-06
-5.924917647e-06
-5.867279074e-06
-5.417897132e-06
-4.337044333e-06
-1.932502719e-06
2.700549789e-06
9.428432861e-06
1.197058005e-05
2.506142066e-05
3.444312565e-05
2.70188762e-05
9.036240467e-07
3.363158399e-10
2.149133225e-10
4.814994823e-11
6.013455322e-11
2.277893532e-10
1.924306054e-10
1.344411175e-10
7.358606124e-11
-1.245920392e-11
-1.034575523e-10
-1.456398841e-10
-1.151466339e-10
-4.924006032e-11
2.798547795e-13
4.204364255e-11
9.747801692e-11
1.168291125e-10
5.769378242e-11
6.923730973e-11
1.008417073e-10
2.293819055e-11
-2.083904109e-10
-1.978309147e-10
-1.519984454e-10
-9.316300266e-11
-3.133195893e-10
-2.210383334e-10
-5.237898408e-11
3.416427307e-07
1.864881335e-05
2.180933687e-05
1.612990783e-05
4.568435919e-06
3.333612527e-06
-2.712317293e-06
-7.225069404e-06
-9.343036334e-06
-1.102082053e-05
-1.205753679e-05
-1.257596032e-05
-1.342293852e-05
-1.461044174e-05
-1.717528378e-05
-8.708798105e-06
1.362050479e-08
1.121007656e-08
9.454105134e-09
8.132755537e-09
7.332269131e-09
6.7941789e-09
6.432507835e-09
6.183670877e-09
5.997901502e-09
5.840199935e-09
5.686673693e-09
5.522688356e-09
5.339993021e-09
5.134784453e-09
4.906300748e-09
4.655475868e-09
4.384178452e-09
4.094771785e-09
3.788491166e-09
3.465821648e-09
3.125122655e-09
2.763884343e-09
2.379045234e-09
1.967489241e-09
1.525085848e-09
1.045006579e-09
5.14779246e-10
-8.585477241e-11
-7.862926966e-10
-1.625805936e-09
-2.653788005e-09
-3.930851445e-09
-5.534889599e-09
-7.5713806e-09
-1.019034482e-08
-1.360169338e-08
-1.808617965e-08
-2.399802611e-08
-3.177176529e-08
-4.194326089e-08
-5.519011532e-08
-7.237960263e-08
-9.460464344e-08
-1.231974959e-07
-1.597264288e-07
-2.0599682e-07
-2.640825352e-07
-3.364089875e-07
-4.258817143e-07
-5.360070339e-07
-6.709219178e-07
-8.352950344e-07
-1.03413593e-06
-1.272623278e-06
-1.556043725e-06
-1.889861128e-06
-2.279769004e-06
-2.731381113e-06
-3.249242503e-06
-3.834950195e-06
-4.484186795e-06
-5.181793402e-06
-5.894191606e-06
-6.560935518e-06
-7.095942462e-06
-7.413182653e-06
-7.487573384e-06
-7.224045874e-06
-5.586487678e-06
-4.511654266e-07
9.515775623e-06
1.474456932e-05
2.820467357e-05
6.130045731e-06
1.154616345e-11
1.1936882e-10
1.729941586e-10
1.874786835e-10
1.245283988e-10
1.412798807e-10
1.488828615e-10
1.583702844e-10
1.422971607e-10
9.626538732e-11
1.597343295e-11
-7.018860571e-11
-1.140791472e-10
-9.390964218e-11
-4.237802184e-11
1.66651064e-12
3.950655013e-11
8.073515073e-11
8.897543874e-11
5.190040715e-11
2.710000092e-11
4.570378212e-11
-5.099574001e-11
-1.407781995e-10
-1.767566386e-10