/*--------------------------------*- C++ -*----------------------------------*\
  =========                 |
  \\      /  F ield         | OpenFOAM: The Open Source CFD Toolbox
   \\    /   O peration     | Website:  https://openfoam.org
    \\  /    A nd           | Version:  6
     \\/     M anipulation  |
\*---------------------------------------------------------------------------*/
FoamFile
{
    version     2.0;
    format      ascii;
    class       volScalarField;
    location    "0.0013";
    object      ViscousDissipation;
}
// * * * * * * * * * * * * * * * * * * * * * * * * * * * * * * * * * * * * * //

dimensions      [1 -1 -3 0 0 0 0];

internalField   nonuniform List<scalar> 
9600
(
1.093016737e-19
1.027456099e-19
9.937445599e-20
9.896860466e-20
1.004498485e-19
1.029742129e-19
1.060777365e-19
1.095417195e-19
1.132814689e-19
1.172841515e-19
1.215731437e-19
1.261918135e-19
1.311928083e-19
1.366353101e-19
1.425809164e-19
1.490950737e-19
1.562438784e-19
1.640980113e-19
1.727298156e-19
1.822196829e-19
1.926525697e-19
2.04125732e-19
2.167439659e-19
2.306303239e-19
2.459228761e-19
2.627912293e-19
2.814344017e-19
3.021002266e-19
3.250821653e-19
3.507461167e-19
3.795393696e-19
4.120442327e-19
4.490132118e-19
4.914514286e-19
5.406649538e-19
5.983564168e-19
6.666791644e-19
7.483519058e-19
8.467076048e-19
9.657550787e-19
1.110035225e-18
1.284325024e-18
1.492918253e-18
1.738599901e-18
2.021048096e-18
2.334922456e-18
2.66754474e-18
2.997040324e-18
3.291775551e-18
3.51345357e-18
3.626225871e-18
3.6156317e-18
3.520230425e-18
3.479266318e-18
3.797639312e-18
5.030002374e-18
8.080965236e-18
1.430457556e-17
2.555264083e-17
4.418209365e-17
7.374957866e-17
1.237910724e-16
2.254458357e-16
4.438874211e-16
7.859613038e-16
1.246285975e-15
3.076331877e-16
6.033340633e-16
1.320521684e-15
1.892215642e-15
2.520497171e-15
3.957255732e-15
1.370803023e-15
4.588564523e-16
2.636129374e-17
4.151187279e-17
1.329788441e-16
2.327232131e-16
3.290993767e-16
4.07575232e-16
4.527983845e-16
4.619875723e-16
4.446062348e-16
4.097452004e-16
3.632561804e-16
3.116729229e-16
2.620610738e-16
2.203327103e-16
1.905737042e-16
1.753847355e-16
1.764525307e-16
1.948793424e-16
2.310418509e-16
2.839694404e-16
3.503305965e-16
4.235379642e-16
4.940118248e-16
5.511657951e-16
5.843714862e-16
5.792800957e-16
5.217584141e-16
4.155171097e-16
2.841686119e-16
1.520782766e-16
4.594295776e-17
5.895941582e-17
5.578097696e-16
1.319459393e-15
3.4450791e-15
2.321689303e-15
1.85202367e-15
2.037131553e-15
2.94368743e-16
1.850852449e-15
3.06133631e-15
1.355077756e-15
1.182724169e-15
1.906149564e-15
3.991589588e-15
1.492050263e-15
1.027287838e-19
9.251036188e-20
8.832656493e-20
8.854309037e-20
9.067557965e-20
9.362586435e-20
9.694383765e-20
1.004673246e-19
1.041552341e-19
1.080247816e-19
1.121156144e-19
1.164825314e-19
1.211816757e-19
1.262757021e-19
1.318233409e-19
1.378888238e-19
1.445307072e-19
1.518145541e-19
1.598008281e-19
1.685607143e-19
1.781618793e-19
1.886863264e-19
2.002135321e-19
2.128424357e-19
2.266744581e-19
2.418411712e-19
2.584855007e-19
2.767914636e-19
2.969622502e-19
3.192589482e-19
3.43989703e-19
3.715742412e-19
4.025523145e-19
4.376673508e-19
4.778759822e-19
5.244370699e-19
5.789242895e-19
6.433329839e-19
7.200806413e-19
8.120380128e-19
9.223109117e-19
1.053896563e-18
1.208918296e-18
1.387614941e-18
1.586801155e-18
1.798080894e-18
2.005768616e-18
2.185437328e-18
2.30408551e-18
2.324338011e-18
2.215412749e-18
1.975169926e-18
1.667755285e-18
1.482675503e-18
1.821243852e-18
3.417985349e-18
7.503614248e-18
1.601076847e-17
3.181665356e-17
5.908341489e-17
1.041532973e-16
1.783498604e-16
3.029833492e-16
5.025272449e-16
7.290516092e-16
6.768591082e-16
8.65633475e-18
1.047195873e-15
3.757519243e-16
1.19896719e-15
1.360232004e-14
3.963734412e-14
1.163577629e-14
3.303158224e-15
2.184748802e-16
1.312469703e-16
2.669567711e-16
4.203370803e-16
5.941469606e-16
7.37376166e-16
7.993453156e-16
7.802792452e-16
7.202506016e-16
6.399326528e-16
5.425372932e-16
4.384568247e-16
3.415341148e-16
2.622623354e-16
2.065010511e-16
1.771286018e-16
1.758606149e-16
2.042867796e-16
2.637859812e-16
3.54216371e-16
4.713183991e-16
6.039040247e-16
7.341698448e-16
8.455107917e-16
9.284940874e-16
9.54949866e-16
8.746854313e-16
6.878657778e-16
4.62395736e-16
2.596426975e-16
9.20932251e-17
2.233723619e-16
3.560247756e-15
1.159093246e-14
3.809218095e-14
1.364966924e-14
2.053022718e-15
9.391905516e-17
4.431848298e-16
1.141843925e-15
1.913868852e-15
1.825305744e-15
1.578077447e-15
1.698576972e-15
2.670391101e-15
9.811726367e-16
1.28702667e-19
8.493261959e-20
7.796594167e-20
7.881681515e-20
8.158364051e-20
8.488741022e-20
8.83512979e-20
9.18839937e-20
9.549014268e-20
9.920979652e-20
1.030985542e-19
1.072162298e-19
1.116251005e-19
1.163855296e-19
1.21558074e-19
1.271998762e-19
1.333684049e-19
1.401180014e-19
1.47505388e-19
1.555860697e-19
1.644203457e-19
1.740682234e-19
1.845962479e-19
1.96072621e-19
2.085770488e-19
2.221964124e-19
2.370354869e-19
2.532098459e-19
2.708576515e-19
2.901376661e-19
3.112563168e-19
3.344837794e-19
3.601993062e-19
3.889137913e-19
4.2131537e-19
4.582902198e-19
5.009790886e-19
5.508106645e-19
6.095453984e-19
6.792123593e-19
7.619320225e-19
8.594869221e-19
9.726567384e-19
1.100196901e-18
1.237507829e-18
1.374962033e-18
1.496262458e-18
1.577481112e-18
1.588289543e-18
1.497577504e-18
1.286985709e-18
9.770426875e-19
6.724658726e-19
6.347391912e-19
1.39248404e-18
3.902290332e-18
9.774823956e-18
2.157930556e-17
4.323771583e-17
8.054124964e-17
1.4190496e-16
2.393604273e-16
3.874875267e-16
5.883335845e-16
7.728253371e-16
7.160177983e-16
3.069400643e-16
5.673859619e-16
1.507203218e-15
6.487853869e-16
3.75846185e-14
2.585025952e-13
1.748747959e-13
3.336970136e-14
7.043649952e-15
1.065564955e-15
8.047604138e-16
8.61922081e-16
1.212394361e-15
1.508729148e-15
1.553615392e-15
1.392179468e-15
1.213285856e-15
1.045420285e-15
8.485852637e-16
6.406227059e-16
4.535933252e-16
3.066886979e-16
2.065288095e-16
1.538524506e-16
1.487519531e-16
1.933454905e-16
2.919718775e-16
4.484446933e-16
6.596332925e-16
9.060999544e-16
1.149189168e-15
1.360268506e-15
1.573053596e-15
1.752590924e-15
1.686053779e-15
1.321358964e-15
9.000668865e-16
7.753821753e-16
9.613065967e-16
6.861596418e-15
3.394032377e-14
1.737817811e-13
2.552293201e-13
3.520036661e-14
3.382671294e-16
2.189626988e-16
2.853422289e-16
1.047010939e-15
1.923884343e-15
1.959914561e-15
1.531115586e-15
1.23023753e-15
1.524214757e-15
5.851522653e-16
4.947705507e-20
5.936156318e-20
6.515839024e-20
6.926398634e-20
7.303834893e-20
7.669211143e-20
8.025815648e-20
8.376915875e-20
8.727616163e-20
9.084069612e-20
9.452914351e-20
9.84070479e-20
1.025390062e-19
1.06985654e-19
1.118057092e-19
1.170531925e-19
1.227806147e-19
1.290365417e-19
1.358699373e-19
1.433275139e-19
1.514579634e-19
1.6030806e-19
1.699272272e-19
1.803638757e-19
1.916718753e-19
2.039070145e-19
2.171327387e-19
2.314143683e-19
2.468259645e-19
2.634507333e-19
2.814017398e-19
3.008378356e-19
3.219964629e-19
3.452119079e-19
3.709456074e-19
3.998066495e-19
4.325969952e-19
4.703480175e-19
5.143467076e-19
5.660720166e-19
6.270067784e-19
6.982502008e-19
7.799121005e-19
8.702336629e-19
9.644302341e-19
1.053343314e-18
1.122275095e-18
1.150880956e-18
1.115672232e-18
9.977165996e-19
7.993818008e-19
5.75940987e-19
4.900184713e-19
8.998774137e-19
2.495452225e-18
6.499742413e-18
1.495484703e-17
3.110955801e-17
5.991016335e-17
1.085548055e-16
1.869292312e-16
3.071689806e-16
4.794065506e-16
6.955234875e-16
8.90226214e-16
9.114378037e-16
6.917218955e-16
8.049343389e-16
1.945998906e-15
3.417517064e-15
2.404069799e-15
1.214286735e-13
5.324482289e-13
5.805948967e-13
1.435918265e-13
5.044170274e-15
2.25252759e-15
1.508183114e-15
2.785312803e-15
3.639467518e-15
3.433968473e-15
2.571552176e-15
2.081297107e-15
1.803933087e-15
1.419661751e-15
9.981851929e-16
6.349332832e-16
3.656297713e-16
1.910037444e-16
1.014738001e-16
9.052829394e-17
1.606603196e-16
3.241493695e-16
5.980067625e-16
9.893140095e-16
1.464892607e-15
1.917230717e-15
2.251170321e-15
2.783312597e-15
3.689693446e-15
3.889410529e-15
2.922483201e-15
1.549733868e-15
2.221447656e-15
4.891453762e-15
1.421582716e-13
5.759922178e-13
5.367314608e-13
1.232059142e-13
1.036616699e-15
9.659464777e-16
7.736303406e-16
9.565350466e-16
1.631130416e-15
2.094206171e-15
1.874709518e-15
1.265311597e-15
7.491699752e-16
7.296599494e-16
3.247220242e-16
3.85520856e-20
4.7838789e-20
5.507751901e-20
6.045356695e-20
6.492907444e-20
6.890386246e-20
7.257780192e-20
7.607349986e-20
7.948739852e-20
8.290453945e-20
8.640303621e-20
9.005499251e-20
9.392716342e-20
9.80810274e-20
1.025732105e-19
1.07455469e-19
1.127755376e-19
1.185775604e-19
1.249034444e-19
1.31792995e-19
1.392846913e-19
1.474147725e-19
1.562177715e-19
1.657260029e-19
1.759708966e-19
1.869821769e-19
1.987877332e-19
2.114111408e-19
2.248731737e-19
2.391960556e-19
2.544170909e-19
2.706054885e-19
2.878837206e-19
3.064445097e-19
3.265712928e-19
3.486631444e-19
3.732762782e-19
4.011665001e-19
4.33310235e-19
4.70850132e-19
5.14928738e-19
5.663662911e-19
6.251647073e-19
6.897979336e-19
7.563113086e-19
8.173723719e-19
8.617691922e-19
8.753378193e-19
8.451055103e-19
7.69483527e-19
6.79021288e-19
6.744132082e-19
9.914963266e-19
2.106412821e-18
4.89818197e-18
1.088913761e-17
2.258417278e-17
4.392020312e-17
8.080384769e-17
1.41620568e-16
2.373487717e-16
3.802721644e-16
5.788229484e-16
8.241773995e-16
1.067613083e-15
1.214824595e-15
1.222987282e-15
1.355236359e-15
2.01384333e-15
3.696349183e-15
4.943928422e-15
1.094731382e-15
2.108467416e-15
2.49248214e-13
8.400371444e-13
1.709591752e-13
3.455753382e-15
1.232956113e-15
8.887344657e-15
1.146930839e-14
9.47869824e-15
4.552544831e-15
3.410274296e-15
3.367168621e-15
2.622091562e-15
1.717225866e-15
9.872918915e-16
4.888669745e-16
1.888108233e-16
4.240011762e-17
2.325934671e-17
1.335342687e-16
4.057602413e-16
8.961424299e-16
1.655642059e-15
2.642492237e-15
3.501889505e-15
3.605848862e-15
4.744180575e-15
9.742072438e-15
1.185854753e-14
9.092774204e-15
1.259688093e-15
3.418266143e-15
1.698055748e-13
8.339432289e-13
2.447542947e-13
2.07210447e-15
2.304870724e-16
1.722358447e-15
2.832263204e-15
2.317912977e-15
2.218571432e-15
2.26940265e-15
2.131332546e-15
1.620644398e-15
9.33436552e-16
3.885589359e-16
2.938399856e-16
1.856246428e-16
2.84560739e-20
3.809282451e-20
4.606093408e-20
5.225392037e-20
5.726406283e-20
6.151981918e-20
6.529916948e-20
6.878649276e-20
7.211688122e-20
7.539766263e-20
7.871945398e-20
8.21608699e-20
8.579172128e-20
8.967395824e-20
9.386319383e-20
9.840870121e-20
1.03354974e-19
1.087418444e-19
1.146062002e-19
1.209815229e-19
1.278987723e-19
1.353848142e-19
1.434629054e-19
1.521512057e-19
1.614634755e-19
1.71406698e-19
1.819803437e-19
1.9317286e-19
2.049631622e-19
2.173237624e-19
2.302325064e-19
2.436853183e-19
2.5771292e-19
2.723937931e-19
2.878740086e-19
3.043949788e-19
3.223393932e-19
3.422780633e-19
3.649962961e-19
3.914573064e-19
4.226787863e-19
4.594963266e-19
5.02199629e-19
5.500234456e-19
6.005448595e-19
6.492177482e-19
6.896311864e-19
7.156355689e-19
7.273001882e-19
7.43933155e-19
8.292434218e-19
1.136383465e-18
1.983991153e-18
3.978512979e-18
8.202250331e-18
1.648933096e-17
3.180871508e-17
5.87560463e-17
1.041051248e-16
1.772460388e-16
2.90063638e-16
4.552780114e-16
6.814590931e-16
9.626586739e-16
1.264436379e-15
1.522327078e-15
1.68737519e-15
1.815722486e-15
1.964650371e-15
1.88484393e-15
1.020104967e-15
4.978879026e-15
7.13140401e-15
5.933053987e-15
2.891087431e-13
4.710417451e-13
6.27343947e-14
2.013850122e-14
6.77766334e-14
5.520013363e-14
4.150569908e-14
6.09920387e-15
4.536098697e-15
7.438104951e-15
5.606580169e-15
3.380975588e-15
1.789925522e-15
8.231389732e-16
3.003726897e-16
6.459080461e-17
3.518331408e-17
2.121482714e-16
6.793289414e-16
1.608772957e-15
3.219304584e-15
5.585136483e-15
7.684735867e-15
4.817815643e-15
5.997639557e-15
4.112704453e-14
5.574567356e-14
6.816800537e-14
1.982913702e-14
6.176750058e-14
4.736521065e-13
2.849403886e-13
3.93867711e-15
3.914505674e-15
2.638466985e-15
3.356490137e-16
1.839008523e-15
2.492041282e-15
2.540781988e-15
2.309250601e-15
1.871175071e-15
1.263989613e-15
6.414407028e-16
1.900079014e-16
1.61393093e-16
1.391619324e-16
2.299507465e-20
3.128524169e-20
3.886858188e-20
4.513425562e-20
5.030608781e-20
5.467444061e-20
5.848839232e-20
6.194054503e-20
6.518070614e-20
6.832854453e-20
7.148281969e-20
7.472712804e-20
7.813340533e-20
8.176414798e-20
8.567383143e-20
8.991000031e-20
9.451426604e-20
9.952341128e-20
1.049700942e-19
1.10883193e-19
1.172874454e-19
1.242027207e-19
1.316430412e-19
1.396156548e-19
1.481196983e-19
1.571441887e-19
1.66665373e-19
1.766443187e-19
1.870266474e-19
1.97746266e-19
2.087333578e-19
2.199251959e-19
2.31277644e-19
2.42777998e-19
2.544647623e-19
2.66461603e-19
2.790272172e-19
2.92609239e-19
3.078789522e-19
3.257212037e-19
3.471636954e-19
3.732348277e-19
4.047407547e-19
4.419662604e-19
4.843954388e-19
5.307578442e-19
5.800899146e-19
6.350811408e-19
7.098919728e-19
8.460277754e-19
1.141974962e-18
1.805206302e-18
3.238962444e-18
6.180600755e-18
1.191254353e-17
2.25682749e-17
4.154939154e-17
7.404470856e-17
1.275799039e-16
2.123908572e-16
3.411573905e-16
5.272272255e-16
7.8003583e-16
1.096679967e-15
1.451350396e-15
1.791168403e-15
2.051768268e-15
2.18372493e-15
2.110884087e-15
1.667658156e-15
9.939935636e-16
3.477100947e-15
1.675289115e-14
1.42994084e-14
4.977087115e-15
2.673534111e-15
1.790963078e-14
7.879541923e-14
7.223186701e-13
4.414617452e-13
3.56930887e-13
2.234082503e-14
6.392602015e-15
2.618141501e-14
1.482358903e-14
7.861733628e-15
3.782896792e-15
1.710912381e-15
7.507681094e-16
3.625696754e-16
3.224092455e-16
6.249045505e-16
1.486496951e-15
3.456528857e-15
7.497744392e-15
1.471670392e-14
2.70866539e-14
7.331307401e-15
2.063674193e-14
3.495938209e-13
4.396453505e-13
7.199175851e-13
8.19681642e-14
1.894830262e-14
1.794657245e-15
2.547943522e-15
8.132654375e-15
1.239227767e-14
2.058320758e-15
4.570790191e-16
1.494052059e-15
2.184298112e-15
2.248772926e-15
1.945012281e-15
1.465782955e-15
9.266153425e-16
4.538081922e-16
1.472087092e-16
2.415757359e-16
1.538718098e-16
1.947316154e-20
2.642950846e-20
3.323196033e-20
3.914094148e-20
4.416768737e-20
4.846353919e-20
5.221063724e-20
5.557600718e-20
5.870271694e-20
6.171056016e-20
6.470007387e-20
6.775628818e-20
7.095171968e-20
7.434848258e-20
7.799992609e-20
8.195186682e-20
8.624386215e-20
9.091017519e-20
9.5980531e-20
1.014801352e-19
1.074293571e-19
1.138425972e-19
1.207272227e-19
1.280819124e-19
1.358948251e-19
1.441408268e-19
1.527786349e-19
1.617481122e-19
1.709698651e-19
1.803476525e-19
1.897743088e-19
1.991392233e-19
2.083374252e-19
2.172818069e-19
2.259256983e-19
2.34301316e-19
2.425746331e-19
2.511045895e-19
2.604894176e-19
2.715847809e-19
2.854887236e-19
3.034905343e-19
3.269826808e-19
3.573645962e-19
3.960774842e-19
4.451446918e-19
5.089851616e-19
5.988916623e-19
7.425502741e-19
1.00253598e-18
1.510007497e-18
2.522978433e-18
4.522521181e-18
8.364816323e-18
1.551084911e-17
2.835586476e-17
5.067107189e-17
8.813982562e-17
1.489006577e-16
2.438727076e-16
3.864057704e-16
5.904791313e-16
8.664249192e-16
1.213461394e-15
1.610079363e-15
2.006797869e-15
2.327625444e-15
2.478531053e-15
2.34778657e-15
1.846912973e-15
1.207546106e-15
1.885232409e-15
5.933211034e-15
7.142981472e-15
1.087522517e-14
1.56398916e-14
8.29364719e-15
3.157382425e-15
8.535337874e-13
8.114478735e-13
4.803359695e-13
9.029197179e-14
1.234456811e-13
2.09510417e-13
5.451211882e-14
2.20762513e-14
8.673841893e-15
3.73372769e-15
1.864591016e-15
1.193968898e-15
1.145715398e-15
1.705234732e-15
3.417090442e-15
8.125187002e-15
2.126507191e-14
5.397969903e-14
2.143569059e-13
1.29466316e-13
8.329300116e-14
4.728909982e-13
7.926310933e-13
8.545553088e-13
2.281825294e-15
5.384185439e-15
9.54358975e-15
5.655562781e-15
4.301999558e-15
4.070416657e-15
1.077995005e-15
6.909559706e-16
1.380714268e-15
1.830147051e-15
1.812733174e-15
1.499670097e-15
1.07882767e-15
6.736049063e-16
3.692638789e-16
2.061273108e-16
4.158791351e-16
1.953545406e-16
1.689181413e-20
2.276576871e-20
2.87446433e-20
3.412182775e-20
3.882202055e-20
4.290601766e-20
4.649365683e-20
4.971640932e-20
5.269926181e-20
5.555351036e-20
5.837568155e-20
6.124871253e-20
6.424360496e-20
6.742103854e-20
7.083280136e-20
7.452311419e-20
7.852982737e-20
8.288537112e-20
8.761732097e-20
9.274840874e-20
9.829591655e-20
1.042705965e-19
1.106751408e-19
1.175022948e-19
1.247322997e-19
1.323299228e-19
1.402411945e-19
1.483907723e-19
1.566809181e-19
1.649927712e-19
1.73189759e-19
1.811225313e-19
1.886358394e-19
1.955812074e-19
2.018417485e-19
2.073744272e-19
2.122678652e-19
2.168058854e-19
2.215244889e-19
2.272568256e-19
2.351680424e-19
2.467831778e-19
2.640160768e-19
2.892500168e-19
3.256476227e-19
3.781121124e-19
4.557292585e-19
5.771686597e-19
7.815846794e-19
1.149215839e-18
1.838317606e-18
3.148345245e-18
5.623407322e-18
1.021451849e-17
1.852280559e-17
3.314511353e-17
5.813196234e-17
9.953385273e-17
1.659383502e-16
2.687636502e-16
4.218584851e-16
6.396890902e-16
9.332156707e-16
1.302816302e-15
1.728800485e-15
2.162249429e-15
2.520814193e-15
2.693793191e-15
2.562987202e-15
2.071137726e-15
1.393061927e-15
1.139856906e-15
1.943465532e-15
2.601949448e-15
4.159474897e-15
9.341255506e-15
1.553429874e-14
2.093245292e-14
1.964856732e-14
1.518774918e-14
1.497365426e-14
7.540157702e-13
7.296126933e-13
3.988329748e-13
4.413035196e-13
6.786960877e-14
1.872713095e-14
7.328779722e-15
3.752413825e-15
2.587506392e-15
2.536742409e-15
3.574386473e-15
6.927775411e-15
1.787192788e-14
6.606656133e-14
4.376787176e-13
3.955094059e-13
7.012605573e-13
7.5118164e-13
1.450428832e-14
1.375121835e-14
1.605441278e-14
1.46582854e-14
9.996940976e-15
5.937855002e-15
2.252961962e-15
1.592198796e-15
1.256762181e-15
6.352900862e-16
8.094585228e-16
1.286966531e-15
1.535698086e-15
1.441004566e-15
1.136995514e-15
7.970361982e-16
5.197474061e-16
3.533394471e-16
3.026741419e-16
6.012051996e-16
2.388276794e-16
1.48321888e-20
1.984588063e-20
2.507375181e-20
2.988211416e-20
3.417475768e-20
3.796461073e-20
4.132712582e-20
4.436164867e-20
4.71724808e-20
4.985835906e-20
5.250825274e-20
5.520032682e-20
5.800232043e-20
6.097244042e-20
6.416050843e-20
6.76090871e-20
7.135461173e-20
7.542817573e-20
7.985594043e-20
8.465907296e-20
8.985306168e-20
9.54465489e-20
1.014395758e-19
1.078212802e-19
1.145670418e-19
1.216351842e-19
1.289636544e-19
1.364671947e-19
1.440356972e-19
1.51533989e-19
1.588029868e-19
1.656621178e-19
1.71914681e-19
1.773606441e-19
1.818231323e-19
1.851923338e-19
1.874842083e-19
1.889057705e-19
1.899203086e-19
1.913135525e-19
1.942675464e-19
2.004488486e-19
2.121265418e-19
2.323885232e-19
2.656580826e-19
3.189628158e-19
4.048169532e-19
5.472533138e-19
7.936424071e-19
1.236664592e-18
2.053302938e-18
3.57107113e-18
6.375801645e-18
1.14797877e-17
2.057246947e-17
3.637479581e-17
6.310577753e-17
1.070340905e-16
1.770111078e-16
2.847446592e-16
4.443644558e-16
6.705852408e-16
9.746248089e-16
1.357255191e-15
1.799291609e-15
2.251553391e-15
2.628507972e-15
2.812649292e-15
2.682967966e-15
2.189792963e-15
1.469001779e-15
8.550336841e-16
6.166095565e-16
5.999582969e-16
6.133735458e-16
1.339720952e-15
2.714352512e-15
7.823505809e-15
1.749439938e-14
1.147012983e-14
3.674641671e-14
1.688557687e-14
6.825084438e-16
1.047211548e-15
5.066418117e-16
1.465462084e-13
3.426488654e-14
1.164802278e-14
5.627981224e-15
3.861306755e-15
3.81216418e-15
5.446227142e-15
1.118739089e-14
3.304656435e-14
1.427862461e-13
4.987086356e-16
1.027185446e-15
6.725466993e-16
1.606890823e-14
3.374037264e-14
1.075722994e-14
1.640956714e-14
7.050996941e-15
2.013563887e-15
8.060134034e-16
3.206344417e-16
4.098280316e-16
3.855166412e-16
4.816793343e-16
8.211905974e-16
1.189959764e-15
1.336090369e-15
1.201429591e-15
9.155972641e-16
6.335642621e-16
4.406155963e-16
3.573572672e-16
3.76553856e-16
7.20568689e-16
2.685393957e-16
1.309979269e-20
1.741756941e-20
2.19884549e-20
2.625184797e-20
3.011719801e-20
3.357600295e-20
3.667611282e-20
3.949241036e-20
4.211059103e-20
4.461623281e-20
4.708929576e-20
4.960172891e-20
5.221686362e-20
5.49897255e-20
5.796781349e-20
6.119202622e-20
6.469756589e-20
6.851456662e-20
7.266836502e-20
7.717941512e-20
8.206257621e-20
8.732582089e-20
9.296834409e-20
9.897796396e-20
1.053279854e-19
1.119737978e-19
1.188494764e-19
1.258647252e-19
1.329023817e-19
1.398167247e-19
1.464323729e-19
1.525445232e-19
1.579228414e-19
1.623240163e-19
1.655185442e-19
1.673341868e-19
1.677129543e-19
1.667753541e-19
1.648895629e-19
1.627509168e-19
1.614806687e-19
1.627519731e-19
1.689632188e-19
1.835361855e-19
2.115527386e-19
2.61189055e-19
3.468161359e-19
4.953134734e-19
7.582593759e-19
1.234397273e-18
2.109279835e-18
3.722318004e-18
6.67554394e-18
1.200283546e-17
2.142183275e-17
3.768973731e-17
6.507160534e-17
1.098930275e-16
1.810706361e-16
2.903736117e-16
4.519608413e-16
6.805003065e-16
9.870491891e-16
1.372117977e-15
1.816235304e-15
2.269850987e-15
2.646205981e-15
2.823767508e-15
2.673806782e-15
2.14325089e-15
1.390934615e-15
8.08735444e-16
6.945639209e-16
7.90996743e-16
8.087301339e-16
1.447578125e-15
2.686805799e-15
7.513396853e-15
1.708259767e-14
1.15843195e-14
3.672073612e-14
1.69152929e-14
6.839086087e-16
1.047268385e-15
5.067250714e-16
1.465746561e-13
3.426801109e-14
1.164601642e-14
5.625161002e-15
3.858624163e-15
3.809958316e-15
5.445058106e-15
1.118917444e-14
3.30583143e-14
1.428365347e-13
4.988137852e-16
1.027281151e-15
6.738271642e-16
1.598938356e-14
3.375336793e-14
1.098994792e-14
1.585823852e-14
6.519502381e-15
1.771029967e-15
7.978080307e-16
4.764805133e-16
5.626560654e-16
4.887436435e-16
5.041203955e-16
7.808293905e-16
1.11426283e-15
1.248918886e-15
1.120426655e-15
8.530092386e-16
5.915213199e-16
4.212394792e-16
3.612580591e-16
3.895691259e-16
7.429562983e-16
2.737191153e-16
1.159534993e-20
1.533634514e-20
1.933709703e-20
2.310087677e-20
2.655110933e-20
2.967173576e-20
3.249471409e-20
3.50778151e-20
3.749173447e-20
3.981012556e-20
4.210395932e-20
4.44385091e-20
4.687221353e-20
4.945658203e-20
5.223662263e-20
5.525158145e-20
5.853555567e-20
6.211802753e-20
6.602405827e-20
7.027413354e-20
7.488350396e-20
7.986085728e-20
8.520620185e-20
9.090811606e-20
9.694046355e-20
1.032589858e-19
1.097978472e-19
1.164662405e-19
1.231450246e-19
1.296834098e-19
1.358958905e-19
1.415604442e-19
1.464209958e-19
1.501990794e-19
1.526194585e-19
1.534510554e-19
1.525597541e-19
1.499686192e-19
1.459262878e-19
1.409910565e-19
1.361395719e-19
1.329070829e-19
1.335792663e-19
1.415138031e-19
1.618017662e-19
2.027173214e-19
2.788023934e-19
4.171001283e-19
6.69139879e-19
1.132966543e-18
1.991935671e-18
3.580238403e-18
6.489151422e-18
1.173252846e-17
2.099378129e-17
3.697617623e-17
6.38661935e-17
1.078831118e-16
1.778075941e-16
2.852369426e-16
4.440953922e-16
6.686784168e-16
9.693974782e-16
1.34574948e-15
1.77717734e-15
2.214064879e-15
2.571537049e-15
2.728057478e-15
2.541505381e-15
1.942296129e-15
1.1788996e-15
1.039391277e-15
2.210971561e-15
3.115622003e-15
4.530041116e-15
9.415792434e-15
1.560517895e-14
2.046023003e-14
1.921888359e-14
1.521859594e-14
1.509452577e-14
7.554900072e-13
7.300566043e-13
3.994206248e-13
4.416782363e-13
6.794303008e-14
1.873819893e-14
7.32552454e-15
3.74608549e-15
2.581099418e-15
2.531525693e-15
3.572028223e-15
6.932851293e-15
1.789919392e-14
6.616789549e-14
4.380872254e-13
3.960824756e-13
7.017148055e-13
7.525317789e-13
1.443998326e-14
1.370707235e-14
1.531085066e-14
1.403510036e-14
9.815930358e-15
5.931103782e-15
2.681233448e-15
2.039111785e-15
1.569055118e-15
7.165142615e-16
7.123092711e-16
1.077147205e-15
1.284374723e-15
1.199854335e-15
9.453402656e-16
6.661473997e-16
4.555188009e-16
3.43538215e-16
3.373701191e-16
6.595509453e-16
2.529174899e-16
1.026395791e-20
1.351654307e-20
1.702079921e-20
2.033455321e-20
2.339626957e-20
2.618880755e-20
2.873537336e-20
3.108216199e-20
3.328838593e-20
3.541763762e-20
3.753265484e-20
3.969228749e-20
4.1950086e-20
4.435400022e-20
4.694656327e-20
4.976538387e-20
5.2843634e-20
5.621040382e-20
5.989091416e-20
6.390640035e-20
6.827346133e-20
7.300270129e-20
7.809646291e-20
8.354598539e-20
8.932816097e-20
9.540216772e-20
1.017060234e-19
1.081527801e-19
1.146262417e-19
1.209761777e-19
1.270134872e-19
1.325066255e-19
1.371825815e-19
1.407370227e-19
1.428574936e-19
1.432601044e-19
1.417361999e-19
1.382060313e-19
1.32781958e-19
1.258490928e-19
1.181704015e-19
1.11019318e-19
1.06355108e-19
1.071108543e-19
1.177891861e-19
1.457859374e-19
2.042427037e-19
3.178610101e-19
5.341390589e-19
9.440783176e-19
1.718701529e-18
3.170838045e-18
5.855618154e-18
1.072774447e-17
1.937780018e-17
3.437024687e-17
5.969505711e-17
1.013095869e-16
1.67666862e-16
2.699734998e-16
4.216752307e-16
6.363716433e-16
9.232386729e-16
1.279620329e-15
1.682360812e-15
2.081992996e-15
2.402287028e-15
2.535969702e-15
2.329746044e-15
1.667092672e-15
9.242923501e-16
1.844548041e-15
6.372466833e-15
7.669432289e-15
1.113686828e-14
1.522261586e-14
8.221131742e-15
3.042287212e-15
8.530637825e-13
8.098105084e-13
4.806274959e-13
9.038142054e-14
1.232897339e-13
2.097263961e-13
5.464021443e-14
2.212509264e-14
8.686028281e-15
3.732050155e-15
1.858414337e-15
1.187093813e-15
1.14026836e-15
1.703591167e-15
3.423804377e-15
8.150172442e-15
2.132835108e-14
5.410798284e-14
2.145035187e-13
1.292989906e-13
8.336544821e-14
4.730784832e-13
7.911680492e-13
8.542756004e-13
2.044315726e-15
4.941724262e-15
8.949838407e-15
6.28797817e-15
4.769897663e-15
4.499747161e-15
1.225217078e-15
5.917814259e-16
1.068238339e-15
1.42694592e-15
1.417916408e-15
1.176028005e-15
8.577346669e-16
5.557978769e-16
3.35903897e-16
2.414395846e-16
4.981525914e-16
2.149290328e-16
9.073031487e-21
1.190511542e-20
1.497412401e-20
1.788505e-20
2.059003801e-20
2.307346886e-20
2.535381705e-20
2.746945555e-20
2.947090637e-20
3.141354014e-20
3.335293382e-20
3.534207464e-20
3.742994234e-20
3.966107841e-20
4.207566225e-20
4.470977757e-20
4.759578894e-20
5.076264521e-20
5.423615632e-20
5.803894356e-20
6.218981649e-20
6.670231335e-20
7.158246619e-20
7.682591438e-20
8.241484047e-20
8.831480841e-20
9.447129908e-20
1.008054978e-19
1.072091663e-19
1.135385791e-19
1.196082285e-19
1.251858441e-19
1.299919105e-19
1.337078679e-19
1.359960158e-19
1.365308735e-19
1.350386423e-19
1.313428106e-19
1.254191749e-19
1.174671638e-19
1.080007468e-19
9.795585509e-20
8.882010318e-20
8.283994065e-20
8.347545434e-20
9.648285365e-20
1.323572617e-19
2.114494448e-19
3.740025877e-19
6.987945477e-19
1.336184637e-18
2.564321097e-18
4.881159952e-18
9.149669607e-18
1.681817599e-17
3.023929149e-17
5.310235148e-17
9.09629252e-17
1.517754106e-16
2.461718044e-16
3.869362417e-16
5.867196725e-16
8.528067407e-16
1.178589086e-15
1.534894984e-15
1.87046221e-15
2.129137649e-15
2.25710195e-15
2.118851304e-15
1.484088818e-15
7.686446754e-16
3.642254988e-15
1.70424516e-14
1.484239786e-14
5.356205246e-15
2.698415373e-15
1.798762169e-14
7.918310658e-14
7.215441456e-13
4.410955367e-13
3.568186892e-13
2.233564151e-14
6.400529369e-15
2.625630791e-14
1.488463793e-14
7.894502485e-15
3.795047821e-15
1.712033213e-15
7.471124661e-16
3.577334616e-16
3.188626413e-16
6.251600331e-16
1.494073323e-15
3.476614062e-15
7.535861963e-15
1.477228283e-14
2.71368108e-14
7.326018437e-15
2.063948589e-14
3.494198285e-13
4.392673139e-13
7.193606924e-13
8.231255153e-14
1.906279688e-14
1.667589795e-15
2.996527079e-15
8.72862786e-15
1.266668444e-14
2.14777448e-15
4.178688347e-16
1.134493797e-15
1.670131589e-15
1.732926773e-15
1.510794106e-15
1.147741628e-15
7.416318613e-16
3.789640129e-16
1.586296313e-16
3.107870977e-16
1.715549346e-16
8.001814631e-21
1.046746589e-20
1.315255374e-20
1.570348936e-20
1.808419193e-20
2.028140272e-20
2.231097281e-20
2.420585156e-20
2.600990717e-20
2.777183008e-20
2.954110032e-20
3.136551924e-20
3.328995874e-20
3.535583991e-20
3.760111736e-20
4.00604773e-20
4.276560582e-20
4.574558128e-20
4.902719668e-20
5.263499668e-20
5.659069716e-20
6.091168924e-20
6.560881094e-20
7.068365669e-20
7.612582031e-20
8.191001612e-20
8.799266471e-20
9.430734806e-20
1.007589162e-19
1.072165251e-19
1.135063134e-19
1.19405473e-19
1.246405314e-19
1.288935033e-19
1.318182326e-19
1.330662279e-19
1.323190139e-19
1.293256944e-19
1.239489355e-19
1.162242165e-19
1.064305521e-19
9.516160047e-20
8.339046407e-20
7.256408847e-20
6.486689239e-20
6.398441464e-20
7.701730417e-20
1.187116067e-19
2.199853409e-19
4.4399327e-19
9.148803912e-19
1.867125247e-18
3.727108981e-18
7.243168358e-18
1.368520831e-17
2.513758776e-17
4.490410969e-17
7.80199955e-17
1.317960295e-16
2.161493858e-16
3.431182281e-16
5.243619636e-16
7.648591234e-16
1.05176283e-15
1.34319237e-15
1.576914191e-15
1.728918113e-15
1.88486252e-15
2.039046403e-15
1.771238893e-15
9.722420021e-16
4.989188218e-15
7.713540942e-15
6.437342943e-15
2.885462463e-13
4.714342012e-13
6.26330616e-14
2.013981562e-14
6.766839606e-14
5.512351838e-14
4.151894173e-14
6.125736986e-15
4.55981616e-15
7.476036305e-15
5.642108514e-15
3.404651179e-15
1.801786355e-15
8.269435952e-16
2.999240872e-16
6.279906219e-17
3.437178268e-17
2.145145168e-16
6.872822036e-16
1.624658711e-15
3.243853307e-15
5.614435786e-15
7.708390406e-15
4.827313443e-15
6.008143011e-15
4.110439611e-14
5.56583995e-14
6.810406305e-14
1.982386221e-14
6.169571295e-14
4.738918328e-13
2.844741088e-13
4.403317135e-15
4.20388655e-15
2.695738611e-15
3.980438706e-16
1.496743113e-15
1.977192305e-15
1.994427063e-15
1.823691761e-15
1.489243312e-15
1.014122844e-15
5.220543341e-16
1.532232859e-16
1.861530544e-16
1.439841757e-16
7.036069598e-21
9.179832672e-21
1.152467789e-20
1.375393366e-20
1.58414619e-20
1.777646176e-20
1.957320422e-20
2.12606749e-20
2.287754506e-20
2.446700249e-20
2.607335399e-20
2.77399259e-20
2.950791462e-20
3.141592055e-20
3.34998584e-20
3.57931277e-20
3.832690433e-20
4.113060399e-20
4.423233807e-20
4.765903336e-20
5.143586282e-20
5.558477228e-20
6.012235387e-20
6.50575222e-20
7.038919808e-20
7.61038631e-20
8.217222113e-20
8.854442161e-20
9.514368546e-20
1.018588487e-19
1.085366494e-19
1.149754155e-19
1.209226178e-19
1.260793146e-19
1.301133668e-19
1.326806174e-19
1.334516448e-19
1.321432339e-19
1.285572727e-19
1.22628902e-19
1.144766389e-19
1.044342405e-19