/*--------------------------------*- C++ -*----------------------------------*\
  =========                 |
  \\      /  F ield         | OpenFOAM: The Open Source CFD Toolbox
   \\    /   O peration     | Website:  https://openfoam.org
    \\  /    A nd           | Version:  6
     \\/     M anipulation  |
\*---------------------------------------------------------------------------*/
FoamFile
{
    version     2.0;
    format      ascii;
    class       surfaceScalarField;
    location    "0.0033";
    object      alphaPhi0.phase1;
}
// * * * * * * * * * * * * * * * * * * * * * * * * * * * * * * * * * * * * * //

dimensions      [0 3 -1 0 0 0 0];

internalField   nonuniform List<scalar> 
19000
(
0
0
0
0
0
0
0
0
0
0
0
0
0
0
0
0
0
0
0
0
0
0
0
0
0
0
0
0
0
0
0
0
0
0
0
0
0
0
0
0
0
0
0
0
0
0
0
0
0
0
0
0
0
0
0
0
0
0
0
0
0
0
0
0
0
0
0
0
0
0
0
0
0
0
0
0
0
0
0
0
0
0
0
0
0
0
0
0
0
0
0
0
0
0
0
0
0
0
0
0
0
0
0
0
0
0
0
0
0
0
0
0
0
0
0
0
0
0
0
0
0
0
0
0
0
0
0
0
0
0
0
0
-3.346285364e-20
0
1.424621512e-20
-8.116922695e-20
1.648380949e-20
-1.59295223e-20
1.44672978e-20
2.145351505e-21
1.580327842e-20
9.307594953e-21
2.120006135e-20
1.243603808e-20
2.444207326e-20
1.147670365e-20
2.526655995e-20
8.98256696e-21
2.582267415e-20
6.764234096e-21
2.686175216e-20
4.836543827e-21
2.823050869e-20
2.751599576e-21
2.95139423e-20
1.960561282e-22
3.029403337e-20
-2.920712261e-21
3.022520706e-20
-6.507940965e-21
2.912836824e-20
-1.033205878e-20
2.703173885e-20
-1.409248917e-20
2.410986081e-20
-1.751414872e-20
2.060995122e-20
-2.040024821e-20
1.679268315e-20
-2.264848615e-20
1.288551333e-20
-2.424701863e-20
9.046033452e-21
-2.525538268e-20
5.35008324e-21
-2.577358337e-20
1.797070167e-21
-2.590907328e-20
-1.668078704e-21
-2.574849068e-20
-5.129917714e-21
-2.533906974e-20
-8.671945725e-21
-2.467932462e-20
-1.234918001e-20
-2.371965156e-20
-1.61602646e-20
-2.237180807e-20
-2.002920261e-20
-2.052848004e-20
-2.379810218e-20
-1.809132013e-20
-2.724326257e-20
-1.500438935e-20
-3.011050184e-20
-1.128418973e-20
-3.216526463e-20
-7.038144273e-21
-3.324891595e-20
-2.466887916e-21
-3.3353379e-20
2.152633384e-21
-3.267804752e-20
6.520577974e-21
-3.158969889e-20
1.040551791e-20
-3.052597909e-20
1.371891232e-20
-2.992223736e-20
1.65513106e-20
-2.995282958e-20
1.921148704e-20
-2.989252619e-20
2.213575772e-20
-2.762739868e-20
2.528952898e-20
-2.345250023e-20
2.683787926e-20
-2.356591931e-20
2.419677859e-20
-2.718354163e-20
1.735063338e-20
-2.653920468e-20
-7.115230914e-22
1.994099956e-20
-6.64222637e-20
0
0
0
0
0
0
0
0
0
0
0
0
0
0
0
0
0
0
0
0
0
0
0
0
0
0
0
0
0
0
0
0
0
0
0
0
0
0
0
0
0
0
0
0
0
0
0
0
0
0
0
0
0
0
0
0
0
0
0
0
0
0
0
0
0
0
0
0
0
0
0
0
0
0
0
0
0
0
0
0
0
0
0
0
0
0
0
0
0
0
0
0
0
0
0
0
0
0
0
0
0
0
0
0
0
0
0
0
0
0
0
0
0
0
0
0
0
0
0
0
0
0
0
0
0
0
0
0
0
0
0
0
0
0
0
0
0
0
0
0
0
0
0
-1.102074279e-19
0
2.489500689e-19
3.505764257e-19
7.948592034e-20
8.829833342e-20
3.455868334e-20
2.900103268e-20
2.162954139e-20
1.507794186e-20
1.893172158e-20
1.20088163e-20
2.024072705e-20
1.113045378e-20
2.194793677e-20
9.772788788e-21
2.304822718e-20
7.885729625e-21
2.389498405e-20
5.921075272e-21
2.477680809e-20
3.958790297e-21
2.567496539e-20
1.857718341e-21
2.63971741e-20
-5.215776271e-22
2.670680481e-20
-3.225910509e-21
2.640108947e-20
-6.197741791e-21
2.536793803e-20
-9.294702088e-21
2.361007936e-20
-1.233044873e-20
2.122376157e-20
-1.512416305e-20
1.836171341e-20
-1.753495267e-20
1.519415063e-20
-1.947866912e-20
1.18771495e-20
-2.09285629e-20
8.527832812e-21
-2.190572201e-20
5.214593205e-21
-2.246050258e-20
1.957652933e-21
-2.265266746e-20
-1.258657772e-21
-2.253240703e-20
-4.470172774e-21
-2.212779309e-20
-7.712272564e-21
-2.143746713e-20
-1.10013366e-20
-2.043143209e-20
-1.431693678e-20
-1.905754672e-20
-1.759204271e-20
-1.725553222e-20
-2.071117155e-20
-1.497490782e-20
-2.352306318e-20
-1.219589649e-20
-2.58644565e-20
-8.946559758e-21
-2.759400848e-20
-5.312759953e-21
-2.862939484e-20
-1.435700904e-21
-2.898543462e-20
2.504521626e-21
-2.879310779e-20
6.324329017e-21
-2.82763046e-20
9.884816073e-21
-2.769358107e-20
1.313236363e-20
-2.726206111e-20
1.611593678e-20
-2.702855896e-20
1.897430756e-20
-2.673875524e-20
2.184239552e-20
-2.607904857e-20
2.462655261e-20
-2.609360089e-20
2.684939008e-20
-3.041206481e-20
2.851226398e-20
-4.524569821e-20
3.218102885e-20
-9.224994586e-20
4.629043168e-20
-2.634697033e-19
1.047940748e-19
9.645824352e-20
3.635496453e-19
0
0
0
0
0
0
0
0
0
0
0
0
0
0
0
0
0
0
0
0
0
0
0
0
0
0
0
0
0
0
0
0
0
0
0
0
0
0
0
0
0
0
0
0
0
0
0
0
0
0
0
0
0
0
0
0
0
0
0
0
0
0
0
0
0
0
0
0
0
0
0
0
0
0
0
0
0
0
0
0
0
0
0
0
0
0
0
0
0
0
0
0
0
0
0
0
0
0
0
0
0
0
0
0
0
0
0
0
0
0
0
0
0
0
0
0
0
0
0
0
0
0
0
0
0
0
0
0
0
0
0
0
0
0
0
0
0
0
0
0
0
-2.663804473e-19
-7.848970613e-19
-1.332802367e-20
9.752773001e-20
2.01886189e-20
5.478477813e-20
2.063559252e-20
2.855704914e-20
1.85604159e-20
1.715611494e-20
1.805335899e-20
1.251895843e-20
1.888306206e-20
1.030386189e-20
2.006087765e-20
8.598188021e-21
2.108357277e-20
6.866347027e-21
2.193269907e-20
5.075559602e-21
2.267573614e-20
3.219654281e-21
2.329566941e-20
1.242040739e-21
2.369284122e-20
-9.143962381e-22
2.373497348e-20
-3.263649051e-21
2.33041292e-20
-5.762686852e-21
2.233219139e-20
-8.318642445e-21
2.081636494e-20
-1.081076042e-20
1.881297204e-20
-1.311714881e-20
1.641799695e-20
-1.513693838e-20
1.374425672e-20
-1.680254962e-20
1.089999051e-20
-1.808286207e-20
7.973052241e-21
-1.897812666e-20
5.022428185e-21
-1.950989622e-20
2.077913498e-21
-1.970833692e-20
-8.540438316e-22
-1.960066237e-20
-3.779846938e-21
-1.920211555e-20
-6.706237393e-21
-1.851150413e-20
-9.62745123e-21
-1.751111831e-20
-1.251492238e-20
-1.617170459e-20
-1.53114182e-20
-1.446126104e-20
-1.793216023e-20
-1.235699132e-20
-2.027372648e-20
-9.857582767e-21
-2.223065663e-20
-6.993317973e-21
-2.371694943e-20
-3.830387707e-21
-2.468917228e-20
-4.675012974e-22
-2.516562724e-20
2.977061993e-21
-2.523262073e-20
6.387469821e-21
-2.502875695e-20
9.677106623e-21
-2.4710008e-20
1.280968902e-20
-2.440369033e-20
1.580578987e-20
-2.416047086e-20
1.872751102e-20
-2.395459827e-20
2.16332837e-20
-2.38562111e-20
2.45251399e-20
-2.443072682e-20
2.742114641e-20
-2.674330009e-20
3.08221899e-20
-3.113629538e-20
3.657160813e-20
-3.374630189e-20
4.88974437e-20
-4.714132661e-21
7.575777349e-20
2.396580407e-19
1.191759169e-19
0
-7.592877698e-19
0
0
0
0
0
0
0
0
0
0
0
0
0
0
0
0
0
0
0
0
0
0
0
0
0
0
0
0
0
0
0
0
0
0
0
0
0
0
0
0
0
0
0
0
0
0
0
0
0
0
0
0
0
0
0
0
0
0
0
0
0
0
0
0
0
0
0
0
0
0
0
0
0
0
0
0
0
0
0
0
0
0
0
0
0
0
0
0
0
0
0
0
0
0
0
0
0
0
0
0
0
0
0
0
0
0
0
0
0
0
0
0
0
0
0
0
0
0
0
0
0
0
0
0
0
0
0
0
0
0
0
0
0
0
0
0
0
0
0
-2.038935316e-19
-2.925848975e-19
-5.607097489e-20
-5.029199791e-20
-6.039110382e-21
4.75552844e-21
9.234658301e-21
1.328583472e-20
1.392325939e-20
1.247016246e-20
1.583826228e-20
1.060671219e-20
1.717738809e-20
8.967659222e-21
1.832903659e-20
7.449564089e-21
1.929278519e-20
5.905813349e-21
2.007679364e-20
4.294973494e-21
2.069812248e-20
2.602088532e-21
2.113923229e-20
8.049198017e-22
2.134358828e-20
-1.114590954e-21
2.123593552e-20
-3.151907455e-21
2.074817351e-20
-5.270915225e-21
1.984007331e-20
-7.40673839e-21
1.850997635e-20
-9.476988899e-21
1.679318245e-20
-1.13970035e-20
1.475238562e-20
-1.309318331e-20
1.246394409e-20
-1.451184278e-20
1.000472597e-20
-1.562209334e-20
7.441282642e-21
-1.641393462e-20
4.823987332e-21
-1.689236208e-20
2.185588153e-21
-1.707001621e-20
-4.554970052e-22
-1.695965987e-20
-3.089235614e-21
-1.65685918e-20
-5.705851425e-21
-1.589538736e-20
-8.288037469e-21
-1.493003661e-20
-1.080447885e-20
-1.365694552e-20
-1.320714831e-20
-1.206084412e-20
-1.543275159e-20
-1.013404387e-20
-1.740946163e-20
-7.883949923e-21
-1.90677262e-20
-5.33845751e-21
-2.035406291e-20
-2.547745291e-21
-2.124460884e-20
4.192683471e-22
-2.175521929e-20
3.483911791e-21
-2.194298381e-20
6.571524934e-21
-2.189617434e-20
9.626501112e-21
-2.171390709e-20
1.262357574e-20
-2.148196907e-20
1.557014159e-20
-2.125469792e-20
1.849689435e-20
-2.106274206e-20
2.143834924e-20
-2.096020448e-20
2.44198461e-20
-2.102968302e-20
2.748806141e-20
-2.099388192e-20
3.078401497e-20
-1.881045974e-20
3.438606624e-20
-6.885971604e-21
3.696992799e-20
3.870401006e-20
3.016491151e-20
1.81132233e-19
-2.325608935e-20
-0
-2.64131921e-19
0
0
0
0
0
0
0
0
0
0
0
0
0
0
0
0
0
0
0
0
0
0
0
0
0
0
0
0
0
0
0
0
0
0
0
0
0
0
0
0
0
0
0
0
0
0
0
0
0
0
0
0
0
0
0
0
0
0
0
0
0
0
0
0
0
0
0
0
0
0
0
0
0
0
0
0
0
0
0
0
0
0
0
0
0
0
0
0
0
0
0
0
0
0
0
0
0
0
0
0
0
0
0
0
0
0
0
0
0
0
0
0
0
0
0
0
0
0
0
0
0
0
0
0
0
0
0
0
0
0
0
0
0
0
0
-8.582237714e-20
0
3.350277451e-19
3.132666312e-19
3.839936675e-20
4.045566688e-21
-1.023448843e-21
-1.086696802e-20
2.491195833e-21
1.243049098e-21
8.418986102e-21
7.360253803e-21
1.205980926e-20
8.831678807e-21
1.419920934e-20
8.469862064e-21
1.565929307e-20
7.510311268e-21
1.6785286e-20
6.32648493e-21
1.768194541e-20
5.012221456e-21
1.83839088e-20
3.596302907e-21
1.890095388e-20
2.088568371e-21
1.921972166e-20
4.899093884e-22
1.930627192e-20
-1.197294701e-21
1.911692784e-20
-2.958727476e-21
1.86123505e-20
-4.762645938e-21
1.776982292e-20
-6.560659372e-21
1.658996179e-20
-8.293774111e-21
1.509700281e-20
-9.900912113e-21
1.333372625e-20
-1.132717194e-20
1.135369351e-20
-1.252959717e-20
9.212884848e-21
-1.347975083e-20
6.962855225e-21
-1.416300274e-20
4.646333123e-21
-1.457546457e-20
2.295944608e-21
-1.471952669e-20
-6.44289301e-23
-1.459936921e-20
-2.41603129e-21
-1.421727141e-20
-4.740500611e-21
-1.357161752e-20
-7.014946435e-21
-1.265680577e-20
-9.208377592e-21
-1.146526017e-20
-1.128034806e-20
-9.991005162e-21
-1.318265774e-20
-8.234203458e-21
-1.486396935e-20
-6.205427822e-21
-1.627701407e-20
-3.92857635e-21
-1.73870494e-20
-1.441162481e-21
-1.817996551e-20
1.208591207e-21
-1.86676063e-20
3.967983225e-21
-1.888800777e-20
6.788352853e-21
-1.889909977e-20
9.633937295e-21
-1.876734144e-20
1.248811287e-20
-1.855521645e-20
1.535451626e-20
-1.831324302e-20
1.825181023e-20
-1.808124547e-20
2.120358312e-20
-1.78919893e-20
2.422799515e-20
-1.773372939e-20
2.732735861e-20
-1.739183096e-20
3.04398501e-20
-1.622659811e-20
3.321879945e-20
-1.369098795e-20
3.44319586e-20
-1.471699074e-20
3.118754368e-20
-5.974359679e-20
2.176800036e-20
-3.61655813e-19
3.777964512e-20
5.838817006e-20
3.415056744e-19
0
0
0
0
0
0
0
0
0
0
0
0
0
0
0
0
0
0
0
0
0
0
0
0
0
0
0
0
0
0
0
0
0
0
0
0
0
0
0
0
0
0
0
0
0
0
0
0
0
0
0
0
0
0
0
0
0
0
0
0
0
0
0
0
0
0
0
0
0
0
0
0
0
0
0
0
0
0
0
0
0
0
0
0
0
0
0
0
0
0
0
0
0
0
0
0
0
0
0
0
0
0
0
0
0
0
0
0
0
0
0
0
0
0
0
0
0
0
0
0
0
0
0
0
0
0
0
0
0
0
0
0
0
-2.793051938e-19
-5.961946767e-20
2.580667921e-20
8.155617141e-21
2.348683202e-20
6.36691176e-21
1.108656832e-20
1.535009134e-21
8.608400549e-21
3.723019974e-21
9.890411105e-21
6.080163614e-21
1.169799257e-20
7.026228406e-21
1.323965849e-20
6.930577786e-21
1.447546673e-20
6.277123314e-21
1.547102255e-20
5.333726019e-21
1.626602683e-20
4.220170384e-21
1.687617426e-20
2.989271025e-21
1.73022949e-20
1.665760526e-21
1.753251756e-20
2.63163147e-22
1.754483914e-20
-1.206050562e-21
1.731300935e-20
-2.72336941e-21
1.681433709e-20
-4.26055662e-21
1.603670819e-20
-5.779771861e-21
1.498282372e-20
-7.236787555e-21
1.367074304e-20
-8.585944428e-21
1.213130102e-20
-9.785153822e-21
1.040353977e-20
-1.079972629e-20
8.529633014e-21
-1.160429227e-20
6.550393404e-21
-1.218279111e-20
4.502270914e-21
-1.252683867e-20
2.416102172e-21
-1.263319964e-20
3.176688704e-22
-1.250103363e-20
-1.77037748e-21
-1.212964529e-20
-3.825688776e-21
-1.151715169e-20
-5.82340084e-21
-1.066042157e-20
-7.734122635e-21
-9.556245391e-21
-9.523546291e-21
-8.20355234e-21
-1.11538821e-20
-6.606062402e-21
-1.258711789e-20
-4.774713947e-21
-1.378960017e-20
-2.729018656e-21
-1.473729571e-20
-4.967510233e-22
-1.542057346e-20
1.888427276e-21
-1.584723669e-20
4.391209252e-21
-1.604242333e-20
6.980120586e-21
-1.604492411e-20
9.632946924e-21
-1.590093811e-20
1.234062199e-20
-1.565792249e-20
1.51082029e-20
-1.536146998e-20
1.795242673e-20
-1.505683356e-20
2.089628635e-20
-1.479262584e-20
2.396124975e-20
-1.462123772e-20
2.715352797e-20
-1.461288178e-20
3.042921187e-20
-1.501343896e-20
3.361721075e-20
-1.69354027e-20
3.635169615e-20
-2.413653428e-20
3.838628237e-20
-4.373195204e-20
4.136166132e-20
-5.79297807e-20
5.197695725e-20
2.236319448e-19
5.994376479e-20
0
0
0
0
0
0
0
0
0
0
0
0
0
0
0
0
0
0
0
0
0
0
0
0
0
0
0
0
0
0
0
0
0
0
0
0
0
0
0
0
0
0
0
0
0
0
0
0
0
0
0
0
0
0
0
0
0
0
0
0
0
0
0
0
0
0
0
0
0
0
0
0
0
0
0
0
0
0
0
0
0
0
0
0
0
0
0
0
0
0
0
0
0
0
0
0
0
0
0
0
0
0
0
0
0
0
0
0
0
0
0
0
0
0
0
0
0
0
0
0
0
0
0
0
0
0
0
0
0
0
0
0
0
4.184462223e-20
9.229109558e-20
2.401797368e-20
2.598291072e-20
1.865492928e-20
1.173112468e-20
1.327457911e-20
6.91679003e-21
1.09655441e-20
6.033625738e-21
1.083647583e-20
6.210972364e-21
1.160234192e-20
6.262345603e-21
1.25862039e-20
5.94898512e-21
1.353206936e-20
5.333778994e-21
1.435746685e-20
4.511036839e-21
1.503512736e-20
3.545350465e-21
1.555266367e-20
2.474702302e-21
1.589969742e-20
1.321827128e-21
1.606330376e-20
1.027796563e-22
1.60275202e-20
-1.166987356e-21
1.577582202e-20
-2.468418821e-21
1.529512178e-20
-3.776710478e-21
1.457969241e-20
-5.061334579e-21
1.363366672e-20
-6.287908877e-21
1.247153362e-20
-7.42114307e-21
1.111672849e-20
-8.427952664e-21
9.598973658e-21
-9.279961182e-21
7.951134202e-21
-9.954927662e-21
6.206345808e-21
-1.043697953e-20
4.395909834e-21
-1.071583068e-20
2.548268251e-21
-1.078535486e-20
6.89057205e-22
-1.064197131e-20
-1.157883941e-21
-1.028324757e-20
-2.968958579e-21
-9.707065763e-21
-4.719224631e-21
-8.911529748e-21
-6.381429594e-21
-7.895659673e-21
-7.926056256e-21
-6.660675525e-21
-9.322533599e-21
-5.211520459e-21
-1.054142256e-20
-3.558116512e-21
-1.155733245e-20
-1.715886044e-21
-1.235211734e-20
2.948588407e-22
-1.291779138e-20
2.450774807e-21
-1.32583253e-20
4.728474364e-21
-1.338959692e-20
7.108170977e-21
-1.333724889e-20
9.577315925e-21
-1.31333572e-20
1.213340879e-20
-1.281369859e-20
1.478539662e-20
-1.241761017e-20
1.755349619e-20
-1.199187021e-20
2.046791749e-20
-1.160034756e-20
2.356716769e-20
-1.134555356e-20
2.689627246e-20
-1.142488303e-20
3.050623164e-20
-1.227895349e-20
3.446909364e-20
-1.490081616e-20
3.897137468e-20
-2.116115543e-20
4.464446022e-20
-3.311665594e-20
5.331576931e-20
-4.99629725e-20
6.88225247e-20
-8.708411271e-20
9.706619499e-20
-0
1.714961427e-19
0
0
0
0
0
0
0
0
0
0
0
0
0
0
0
0
0
0
0
0
0
0
0
0
0
0
0
0
0
0
0
0
0
0
0
0
0
0
0
0
0
0
0
0
0
0
0
0
0
0
0
0
0
0
0
0
0
0
0
0
0
0
0
0
0
0
0
0
0
0
0
0
0
0
0
0
0
0
0
0
0
0
0
0
0
0
0
0
0
0
0
0
0
0
0
0
0
0
0
0
0
0
0
0
0
0
0
0
0
0
0
0
0
0
0
0
0
0
0
0
0
0
0
0
0
0
0
0
0
-2.207031011e-19
-3.462462634e-19
-2.446356242e-20
-1.03948353e-19
9.766187759e-21
-8.246162767e-21
1.384059473e-20
7.657795873e-21
1.239141493e-20
8.367266651e-21
1.114289076e-20
7.28359708e-21
1.088784913e-20
6.467644725e-21
1.128898155e-20
5.863101391e-21
1.197099781e-20
5.269147267e-21
1.270932729e-20
4.597883099e-21
1.339178059e-20
3.831195721e-21
1.396447926e-20
2.975375669e-21
1.43997886e-20
2.042203275e-21
1.468065005e-20
1.043864641e-21
1.479353684e-20
-7.124295318e-24
1.472608884e-20
-1.096513724e-21
1.446753044e-20
-2.206858461e-21
1.40104978e-20
-3.316765214e-21
1.33531182e-20
-4.401165917e-21
1.250043256e-20
-5.432575131e-21
1.146472415e-20
-6.38295322e-21
1.026472004e-20
-7.225706072e-21
8.924007177e-21
-7.937342974e-21
7.469082438e-21
-8.498524256e-21
5.927494695e-21
-8.894370058e-21
4.326385621e-21
-9.114134407e-21
2.691651876e-21
-9.150433291e-21
1.047780952e-21
-8.998312098e-21
-5.817021988e-22
-8.654401751e-21
-2.173422523e-21
-8.116389735e-21
-3.703354587e-21
-7.382930928e-21
-5.146445525e-21
-6.4540256e-21
-6.476901198e-21
-5.331738288e-21
-7.669129713e-21
-4.021003861e-21
-8.699192162e-21
-2.530201285e-21
-9.546587623e-21
-8.71194514e-22
-1.019620146e-20
9.413531267e-22
-1.064009187e-20
2.891452154e-21
-1.08786288e-20
4.963929562e-21
-1.092045206e-20
7.14700662e-21
-1.078115603e-20
9.434948899e-21
-1.048136952e-20
1.183045021e-20
-1.004559911e-20
1.434654219e-20
-9.503188821e-21
1.700824232e-20
-8.8926202e-21
1.98546828e-20
-8.271242869e-21
2.294321337e-20
-7.735594268e-21
2.635817536e-20
-7.462021272e-21
3.023038328e-20
-7.776672542e-21
3.478156098e-20
-9.227730437e-21
4.042031244e-20
-1.248984673e-20
4.790462128e-20
-1.760990079e-20
5.843433715e-20
-2.171930192e-20
7.293194577e-20
-1.265416609e-20
8.800189718e-20
7.927614891e-20
7.95660258e-20
0
0
0
0
0
0
0
0
0
0
0
0
0
0
0
0
0
0
0
0
0
0
0
0
0
0
0
0
0
0
0
0
0
0
0
0
0
0
0
0
0
0
0
0
0
0
0
0
0
0
0
0
0
0
0
0
0
0
0
0
0
0
0
0
0
0
0
0
0
0
0
0
0
0
0
0
0
0
0
0
0
0
0
0
0
0
0
0
0
0
0
0
0
0
0
0
0
0
0
0
0
0
0
0
0
0
0
0
0
0
0
0
0
0
0
0
0
0
0
0
0
0
0
0
0
0
0
0
0
2.749695321e-19
3.592253631e-19
7.123862819e-20
9.978300165e-20
2.567014647e-20
3.732312829e-20
1.455006549e-20
1.877896144e-20
1.13077454e-20
1.161085009e-20
1.032693835e-20
8.265806423e-21
1.02833058e-20
6.512856627e-21
1.069502745e-20
5.453201234e-21
1.129973361e-20
4.6665376e-21
1.194263991e-20
3.957316972e-21
1.253596055e-20
3.240383009e-21
1.303130685e-20
2.482633473e-21
1.340144996e-20
1.674723133e-21
1.362966111e-20
8.183741872e-22
1.370414741e-20
-7.883237357e-23
1.36157441e-20
-1.005295141e-21
1.335762366e-20
-1.945937231e-21
1.292609711e-20
-2.882506056e-21
1.232170899e-20
-3.794157298e-21
1.155005443e-20
-4.658434206e-21
1.062197133e-20
-5.45255287e-21
9.553083135e-21
-6.15472617e-21
8.362825841e-21
-6.745306438e-21
7.073236686e-21
-7.207539496e-21
5.707730346e-21
-7.527887163e-21
4.290086682e-21
-7.695924489e-21
2.843773125e-21
-7.703954603e-21
1.391691299e-21
-7.546475367e-21
-4.369023026e-23
-7.219682157e-21
-1.439963665e-21
-6.721129894e-21
-2.774449259e-21
-6.049659321e-21
-4.024158242e-21
-5.20558299e-21
-5.166166734e-21
-4.191053619e-21
-6.178327137e-21
-3.010432415e-21
-7.040185391e-21
-1.670460389e-21
-7.734039972e-21
-1.800614601e-22
-8.246102432e-21
1.450323564e-21
-8.567614425e-21
3.209883638e-21
-8.695551763e-21
5.089018165e-21
-8.632509781e-21
7.081234265e-21
-8.385654647e-21
9.18522433e-21
-7.965277604e-21
1.140699107e-20
-7.383898973e-21
1.376206597e-20
-6.656748215e-21
1.627818137e-20
-5.804089737e-21
1.899932048e-20
-4.856280887e-21
2.199285666e-20
-3.863386155e-21
2.536290605e-20
-2.91084374e-21
2.92756298e-20
-2.137921075e-21
3.400647949e-20
-1.743421293e-21
4.002368805e-20
-1.960131116e-21
4.811933085e-20
-3.112292172e-21
5.958496288e-20
-6.649349942e-21
7.646837081e-20
-2.109003802e-20
1.024424769e-19
-8.874627155e-20
1.472174041e-19
-0
2.474269047e-19
0
0
0
0
0
0
0
0
0
0
0
0
0
0
0
0
0
0
0
0
0
0
0
0
0
0
0
0
0
0
0
0
0
0
0
0
0
0
0
0
0
0
0
0
0
0
0
0
0
0
0
0
0
0
0
0
0
0
0
0
0
0
0
0
0
0
0
0
0
0
0
0
0
0
0
0
0
0
0
0
0
0
0
0
0
0
0
0
0
0
0
0
0
0
0
0
0
0
0
0
0
0
0
0
0
0
0
0
0
0
0
0
0
0
0
0
0
0
0
0
0
0
0
0
0
0
0
1.552717044e-20
3.56678422e-19
8.778754742e-21
1.065324607e-19
7.125979532e-21
3.897697806e-20
7.381954076e-21
1.852417219e-20
7.962701737e-21
1.103139391e-20
8.573988457e-21
7.655922786e-21
9.223650354e-21
5.864752924e-21
9.908363785e-21
4.770262794e-21
1.059051289e-20
3.986410052e-21
1.122570588e-20
3.324363577e-21
1.177821096e-20
2.690267399e-21
1.222339642e-20
2.039917641e-21
1.254510094e-20
1.355535989e-21
1.273245447e-20
6.335838933e-22
1.277768456e-20
-1.214426003e-22
1.267510194e-20
-9.000516214e-22
1.242105474e-20
-1.689227185e-21
1.201444581e-20
-2.473292547e-21
1.145743201e-20
-3.234643062e-21
1.075593567e-20
-3.954581294e-21
9.919798006e-21
-4.614234214e-21
8.962502815e-21
-5.195483211e-21
7.900592693e-21
-5.681746916e-21
6.752889022e-21
-6.058548147e-21
5.539692987e-21
-6.313787415e-21
4.282056496e-21
-6.437767441e-21
3.001252389e-21
-6.423004024e-21
1.718484498e-21
-6.263943553e-21
4.548619894e-22
-5.956662669e-21
-7.684930469e-22
-5.498666453e-21
-1.930372919e-21
-4.888817637e-21
-3.009628878e-21
-4.127417126e-21
-3.985545482e-21
-3.216352337e-21
-4.838355086e-21
-2.159209254e-21
-5.54978643e-21
-9.612217075e-22
-6.10365491e-21
3.710221935e-22
-6.486542324e-21
1.830157238e-21
-6.688479828e-21
3.40891451e-21
-6.703335652e-21
5.101281894e-21
-6.528519684e-21
6.903932836e-21
-6.163887802e-21
8.81786868e-21
-5.610202735e-21
1.085024858e-20
-4.867783551e-21
1.301649171e-20
-3.935608971e-21
1.534303623e-20
-2.810553649e-21
1.787155962e-20
-1.486231503e-21
2.066605502e-20
4.933777069e-23
2.382506655e-20
1.820005766e-21
2.750281519e-20
3.879287437e-21
3.194504817e-20
6.352221759e-21
3.754855264e-20
9.505500567e-21
4.496395736e-20
1.377111563e-20
5.531749238e-20
1.932475667e-20
7.091351014e-20
2.36848884e-20
9.807923717e-20
1.146322866e-20
1.594347799e-19
-0
3.474072738e-19
0
0
0
0
0
0
0
0
0
0
0
0
0
0
0
0
0
0
0
0
0
0
0
0
0
0
0
0
0
0
0
0
0
0
0
0
0
0
0
0
0
0
0
0
0
0
0
0
0
0
0
0
0
0
0
0
0
0
0
0
0
0
0
0
0
0
0
0
0
0
0
0
0
0
0
0
0
0
0
0
0
0
0
0
0
0
0
0
0
0
0
0
0
0
0
0
0
0
0
0
0
0
0
0
0
0
0
0
0
0
0
0
0
0
0
0
0
0
0
0
0
0
0
0
0
-9.570298238e-19
-4.02031022e-19
-2.346187909e-19
-3.657305302e-19
-5.877672788e-20
-6.930809808e-20
-1.332682634e-20
-6.471625868e-21
-1.108241724e-22
5.30944828e-21
4.587230705e-21
6.334672688e-21
6.782818601e-21
5.461760159e-21
8.129160282e-21
4.519971612e-21
9.124511126e-21
3.776653878e-21
9.928466454e-21
3.184401009e-21
1.059160977e-20
2.663349857e-21
1.112786128e-20
2.156274453e-21
1.153901483e-20
1.631100443e-21
1.182314892e-20
1.073789639e-21
1.197742805e-20
4.817493872e-22
1.199907562e-20
-1.405830566e-22
1.188592645e-20
-7.843429661e-22
1.163698944e-20
-1.437724861e-21
1.125309539e-20
-2.08688524e-21
1.073749385e-20
-2.716642587e-21
1.009628279e-20
-3.311127621e-21
9.338549096e-21
-3.854457651e-21
8.476239165e-21
-4.331372724e-21
7.523791472e-21
-4.727796589e-21
6.497649831e-21
-5.031238004e-21
5.415712995e-21
-5.231030566e-21
4.2968199e-21
-5.318387852e-21
3.160312917e-21
-5.286337739e-21
2.025765391e-21
-5.129562465e-21
9.128581759e-22
-4.844236043e-21
-1.586442024e-22
-4.427890701e-21
-1.168972423e-21
-3.879367655e-21
-2.098564125e-21
-3.198822495e-21
-2.928402404e-21
-2.387750702e-21
-3.640367571e-21
-1.448950794e-21
-4.21754256e-21
-3.863737155e-22
-4.644519904e-21
7.951728232e-22
-4.907785096e-21
2.090479606e-21
-4.996112453e-21
3.494566298e-21
-4.900684782e-21
5.003517261e-21
-4.614583885e-21
6.615529103e-21
-4.131507875e-21
8.3321441e-21
-3.443959705e-21
1.015963117e-20
-2.541239061e-21
1.211057145e-20
-1.407085502e-21
1.420589728e-20
-1.605837616e-23
1.647788354e-20
1.672780014e-21
1.897484881e-20
3.727086577e-21
2.176856715e-20
6.262238595e-21
2.496551735e-20
9.482791911e-21
2.872224513e-20
1.376762678e-20
3.326136678e-20
1.985903537e-20
3.88702307e-20
2.936713343e-20
4.580729321e-20
4.64904844e-20
5.378836397e-20
8.504043069e-20
5.952669722e-20
1.99435722e-19
4.503264506e-20
6.250961852e-19
-7.826172339e-20
0
0
0
0
0
0
0
0
0
0
0
0
0
0
0
0
0
0
0
0
0
0
0
0
0
0
0
0
0
0
0
0
0
0
0
0
0
0
0
0
0
0
0
0
0
0
0
0
0
0
0
0
0
0
0
0
0
0
0
0
0
0
0
0
0
0
0
0
0
0
0
0
0
0
0
0
0
0
0
0
0
0
0
0
0
0
0
0
0
0
0
0
0
0
0
0
0
0
0
0
0
0
0
0
0
0
0
0
0
0
0
0
0
0
0
0
0
0
0
0
0
0
0
0
0
4.059580129e-19
1.166696498e-19
6.180364225e-20
-2.157412488e-20
4.059744576e-21
-1.156256091e-20
-1.54575214e-21
-8.647167087e-22
9.144002279e-22
2.850640721e-21
3.714318207e-21
3.536129513e-21
5.841030018e-21
3.336505305e-21
7.385842549e-21
2.97673205e-21
8.532258274e-21
2.631958019e-21
9.407415281e-21
2.311123082e-21
1.008453437e-20
1.988252837e-21
1.060268728e-20
1.640252644e-21
1.098170401e-20
1.25429278e-21
1.123110867e-20
8.266651484e-22
1.135509561e-20
3.601191279e-22
1.135531571e-20
-1.383650376e-22
1.123254456e-20
-6.590789248e-22
1.098782905e-20
-1.190512487e-21
1.062333805e-20
-1.71996628e-21
1.014300882e-20
-2.234014827e-21
9.552952731e-21
-2.718952748e-21
8.861634045e-21
-3.161231821e-21
8.079815299e-21
-3.54789704e-21
7.220350026e-21
-3.866957358e-21
6.2978573e-21
-4.107680996e-21
5.328355709e-21
-4.260768053e-21
4.328869981e-21
-4.318427372e-21
3.317088223e-21
-4.274348938e-21
2.311091812e-21
-4.123632791e-21
1.329203492e-21
-3.862686381e-21
3.898788719e-22
-3.4891519e-21
-4.884272629e-22
-3.001854781e-21
-1.287492344e-21
-2.400777767e-21
-1.989602478e-21
-1.687010476e-21
-2.577790493e-21
-8.626460309e-22
-3.035996013e-21
6.939481728e-23
-3.349213122e-21
1.10560797e-21
-3.503698404e-21
2.242222391e-21
-3.487161456e-21
3.475621122e-21
-3.288672965e-21
4.802905881e-21
-2.897968887e-21
6.22261436e-21
-2.304020744e-21
7.735532466e-21
-1.493019479e-21
9.345512969e-21
-4.459132317e-22
1.106026179e-20
8.649008703e-22
1.289216853e-20
2.4809068e-21
1.485934647e-20
4.466498355e-21
1.698697616e-20
6.924036933e-21
1.93088372e-20
1.001896624e-20
2.18683204e-20
1.402191356e-20
2.471684174e-20
1.937649095e-20
2.790419658e-20
2.679609766e-20
3.144809685e-20
3.734820419e-20
3.525278995e-20
5.222881802e-20
3.890547264e-20
7.054637813e-20
4.120620711e-20
7.614135357e-20
3.943289821e-20
-3.333298735e-20
3.120549571e-20
6.193365181e-20
4.515441216e-20
0
0
0
0
0
0
0
0
0
0
0
0
0
0
0
0
0
0
0
0
0
0
0
0
0
0
0
0
0
0
0
0
0
0
0
0
0
0
0
0
0
0
0
0
0
0
0
0
0
0
0
0
0
0
0
0
0
0
0
0
0
0
0
0
0
0
0
0
0
0
0
0
0
0
0
0
0
0
0
0
0
0
0
0
0
0
0
0
0
0
0
0
0
0
0
0
0
0
0
0
0
0
0
0
0
0
0
0
0
0
0
0
0
0
0
0
0
0
0
0
0
0
0
2.677142365e-19
6.369086016e-19
7.18152058e-20
1.743268169e-19
1.47575887e-20
4.549670714e-20
2.16960528e-21
1.172471649e-20
1.599889005e-21
3.421733246e-21
3.514693997e-21
1.622735541e-21
5.481256711e-21
1.371438787e-21
7.041068476e-21
1.418520232e-21
8.211423301e-21
1.463313052e-21
9.084544968e-21
1.439821887e-21
9.736534117e-21
1.338187814e-21
1.021672736e-20
1.162077175e-21
1.055407631e-20
9.190537986e-22
1.076456259e-20
6.183852599e-22
1.085661137e-20
2.703790324e-22
1.083460176e-20
-1.13961502e-22
1.070111093e-20
-5.23149131e-22
1.045837518e-20
-9.453617103e-22
1.010928945e-20
-1.368557977e-21
9.658070841e-21
-1.780626999e-21
9.110673585e-21
-2.169573863e-21
8.474968795e-21
-2.523760273e-21
7.760754935e-21
-2.832151878e-21
6.979626321e-21
-3.084560772e-21
6.14477023e-21
-3.271829914e-21
5.270696359e-21
-3.385965757e-21
4.372948364e-21
-3.420189178e-21
3.467804375e-21
-3.368941784e-21
2.572038206e-21
-3.227839933e-21
1.702737942e-21
-2.99362617e-21
8.77176006e-22
-2.66411449e-21
1.126497485e-22
-2.23815094e-21
-5.737250595e-22
-1.715560132e-21
-1.165238016e-21
-1.097066197e-21
-1.645749638e-21
-3.841715916e-22
-1.999782842e-21
4.209927841e-22
-2.212598695e-21
1.315833036e-21
-2.270299663e-21
2.297482334e-21
-2.159876655e-21
3.363052082e-21
-1.868964505e-21
4.509978913e-21
-1.385050777e-21
5.736444326e-21
-6.940401808e-22
7.041763178e-21
2.217292811e-22
8.426597115e-21
1.385993493e-21
9.892871004e-21
2.832078885e-21
1.144331688e-20
4.608536376e-21
1.308049832e-20
6.788359346e-21
1.480492678e-20
9.483520211e-21
1.661139161e-20
1.286748738e-20
1.848188659e-20
1.720926828e-20
2.037238666e-20
2.292039127e-20
2.219031512e-20
3.060079039e-20
2.376504438e-20
4.100088663e-20
2.485024117e-20
5.452955241e-20
2.537438348e-20
6.877306857e-20
2.695978244e-20
6.791395069e-20
4.028768447e-20
-1.93840705e-20
1.184981717e-19
-0
5.049919108e-19
0
0
0
0
0
0
0
0
0
0
0
0
0
0
0
0
0
0
0
0
0
0
0
0
0
0
0
0
0
0
0
0
0
0
0
0
0
0
0
0
0
0
0
0
0
0
0
0
0
0
0
0
0
0
0
0
0
0
0
0
0
0
0
0
0
0
0
0
0
0
0
0
0
0
0
0
0
0
0
0
0
0
0
0
0
0
0
0
0
0
0
0
0
0
0
0
0
0
0
0
0
0
0
0
0
0
0
0
0
0
0
0
0
0
0
0
0
0
0
0
0
-7.217653905e-19
0
-1.948675475e-19
1.100129743e-19
-5.701490357e-20
3.64761988e-20
-1.901440188e-20
7.49790611e-21
-6.133377967e-21
-1.154828017e-21
-1.991086933e-22
-2.51112534e-21
3.263397272e-21
-1.838317394e-21
5.528338181e-21
-8.919606529e-22
7.085861338e-21
-1.373726694e-22
8.187932194e-21
3.629499779e-22
8.982910941e-21
6.466207976e-22
9.560423537e-21
7.62525668e-22
9.973704053e-21
7.507349437e-22
1.025340783e-20
6.413949076e-22
1.041655643e-20
4.574032193e-22
1.04722709e-20
2.169431813e-22
1.04254142e-20
-6.474930905e-23
1.027889842e-20
-3.742668529e-22
1.003517897e-20
-6.993358499e-22
9.697220499e-21
-1.028419061e-21
9.269124036e-21
-1.350512843e-21
8.756487214e-21
-1.655101534e-21
8.166577256e-21
-1.932202983e-21
7.508346089e-21
-2.172480383e-21
6.792357201e-21
-2.367359192e-21
6.030634445e-21
-2.509141634e-21
5.236472969e-21
-2.591076769e-21
4.424195764e-21
-2.607404669e-21
3.608906266e-21
-2.553353741e-21
2.806251984e-21
-2.425124864e-21
2.032249617e-21
-2.219854098e-21
1.303139577e-21
-1.935580757e-21
6.352405557e-22
-1.571204456e-21
4.47688653e-23
-1.126429369e-21
-4.523434109e-22
-6.016789077e-22
-8.405852743e-22
2.007700841e-24
-1.104942594e-21
6.830796606e-22
-1.230949418e-21
1.439561972e-21
-1.204729932e-21
2.26914406e-21
-1.012949809e-21
3.169304459e-21
-6.424991299e-22
4.137485955e-21
-7.973193693e-23
5.171260007e-21
6.907938028e-22
6.268336856e-21
1.688003121e-21
7.426237022e-21
2.936439375e-21
8.641454913e-21
4.46926042e-21
9.907934866e-21
6.332964785e-21
1.121454218e-20
8.594824213e-21
1.254082541e-20
1.135401536e-20
1.384976682e-20
1.47579874e-20
1.507524743e-20
1.902719684e-20
1.610034708e-20
2.449512082e-20
1.671955722e-20
3.168598722e-20
1.657154382e-20
4.152502918e-20
1.500879745e-20
5.611495185e-20
1.078207961e-20
8.210097085e-20
9.710103088e-22
1.461244381e-19
-2.37393364e-20
3.671096716e-19
-1.024914318e-19
1.29630636e-18
-4.24208914e-19
0
0
0
0
0
0
0
0
0
0
0
0
0
0
0
0
0
0
0
0
0
0
0
0
0
0
0
0
0
0
0
0
0
0
0
0
0
0
0
0
0
0
0
0
0
0
0
0
0
0
0
0
0
0
0
0
0
0
0
0
0
0
0
0
0
0
0
0
0
0
0
0
0
0
0
0
0
0
0
0
0
0
0
0
0
0
0
0
0
0
0
0
0
0
0
0
0
0
0
0
0
0
0
0
0
0
0
0
0
0
0
0
0
0
0
0
0
0
0
0
0
-8.651271404e-19
-4.52947576e-19
-2.684043233e-19
-4.867071851e-19
-8.599319637e-20
-1.459327996e-19
-2.766713604e-20
-5.0826421e-20
-7.489675294e-21
-2.133078691e-20
4.736992577e-22
-1.047306308e-20
4.20975401e-21
-5.57288317e-21
6.282926172e-21
-2.963552799e-21
7.586183985e-21
-1.438972024e-21
8.471603019e-21
-5.207595828e-22
9.098815808e-21
2.115694939e-23
9.548632813e-21
3.145132088e-22
9.86436402e-21
4.368985478e-22
1.006941614e-20
4.383633621e-22
1.017609639e-20
3.528773486e-22
1.019057841e-20
2.047222274e-22
1.011589665e-20
1.223518584e-23
9.95382942e-21
-2.099315864e-22
9.706095752e-21
-4.494395831e-22
9.375126722e-21
-6.954315422e-22
8.964535345e-21
-9.380593095e-22
8.479385752e-21
-1.168236416e-21
7.926299867e-21
-1.377548777e-21
7.313467279e-21
-1.55824278e-21
6.650574744e-21
-1.703263988e-21
5.948699325e-21
-1.806294251e-21
5.220145069e-21