/*--------------------------------*- C++ -*----------------------------------*\
  =========                 |
  \\      /  F ield         | OpenFOAM: The Open Source CFD Toolbox
   \\    /   O peration     | Website:  https://openfoam.org
    \\  /    A nd           | Version:  6
     \\/     M anipulation  |
\*---------------------------------------------------------------------------*/
FoamFile
{
    version     2.0;
    format      ascii;
    class       volScalarField;
    location    "0.0033";
    object      Num_divU;
}
// * * * * * * * * * * * * * * * * * * * * * * * * * * * * * * * * * * * * * //

dimensions      [0 0 -1 0 0 0 0];

internalField   nonuniform List<scalar> 
9600
(
2.324802525e-08
2.196605906e-08
2.099770631e-08
2.019009619e-08
1.966142709e-08
1.922974927e-08
1.874624711e-08
1.827119759e-08
1.767167776e-08
1.701530596e-08
1.617215328e-08
1.521070932e-08
1.399402548e-08
1.258237653e-08
1.082493447e-08
8.769477563e-09
6.249709798e-09
3.298328732e-09
-2.723872773e-10
-4.453278838e-09
-9.460920827e-09
-1.531315496e-08
-2.225276323e-08
-3.031973749e-08
-3.978213803e-08
-5.07107754e-08
-6.341461223e-08
-7.800755393e-08
-9.483570711e-08
-1.140321772e-07
-1.359477796e-07
-1.607165535e-07
-1.887030182e-07
-2.200687143e-07
-2.552017166e-07
-2.942590824e-07
-3.375890764e-07
-3.852925452e-07
-4.376716651e-07
-4.947932343e-07
-5.569077688e-07
-6.23980056e-07
-6.961138829e-07
-7.731381292e-07
-8.550908013e-07
-9.418304839e-07
-1.033476499e-06
-1.129958608e-06
-1.231433825e-06
-1.337903909e-06
-1.449758924e-06
-1.567450093e-06
-1.69199924e-06
-1.824651663e-06
-1.967549136e-06
-2.123759946e-06
-2.298875831e-06
-2.503260617e-06
-2.756698827e-06
-3.086233237e-06
-3.501698422e-06
-3.887625388e-06
-3.738801838e-06
-2.547503179e-06
-7.216324019e-07
-7.835469969e-06
-1.515233357e-05
9.704966295e-11
2.084700211e-10
2.037530463e-10
2.04460427e-10
1.945319577e-10
1.772391853e-10
1.855880661e-10
1.901142876e-10
2.167690766e-10
2.26198348e-10
2.458819493e-10
2.374664141e-10
2.470443951e-10
2.350214314e-10
2.411781332e-10
2.092424391e-10
1.841957143e-10
1.21482516e-10
7.70505848e-11
1.079484484e-11
-1.493825008e-11
-3.78418383e-11
-1.570675961e-11
-1.737628853e-11
-1.200300479e-11
-3.973700794e-11
-5.246861897e-11
-9.205796799e-11
-1.223070976e-10
-1.673816821e-10
-1.931879117e-10
-2.267148943e-10
-2.380298379e-10
-2.422183055e-10
-2.259366463e-10
-2.167764489e-10
-2.025800001e-10
-1.985448644e-10
-1.998124013e-10
-1.929742792e-10
-1.935057337e-10
-1.641041275e-10
-2.453325305e-10
-1.420157425e-10
-1.567007286e-10
-3.81560532e-11
-9.995955187e-06
2.672576275e-06
5.643244864e-06
3.82480266e-06
-1.110905809e-07
-2.760318422e-06
5.868954105e-07
2.485820001e-08
2.33372343e-08
2.217355464e-08
2.117070182e-08
2.04907706e-08
1.990298068e-08
1.930600738e-08
1.87079079e-08
1.802398852e-08
1.726876041e-08
1.636102565e-08
1.531470007e-08
1.404214913e-08
1.25485719e-08
1.073405747e-08
8.592217812e-09
6.008239002e-09
2.959301747e-09
-6.908156961e-10
-4.989489028e-09
-1.009972331e-08
-1.609329454e-08
-2.315584816e-08
-3.138148428e-08
-4.098387102e-08
-5.209221929e-08
-6.496125739e-08
-7.975762134e-08
-9.676050353e-08
-1.161437767e-07
-1.381864748e-07
-1.630694314e-07
-1.910936636e-07
-2.224661992e-07
-2.574933022e-07
-2.963497828e-07
-3.392792721e-07
-3.86390756e-07
-4.378752138e-07
-4.937880702e-07
-5.542288113e-07
-6.191056322e-07
-6.883386944e-07
-7.616835068e-07
-8.389756553e-07
-9.199523615e-07
-1.004447794e-06
-1.092176148e-06
-1.182948135e-06
-1.276549104e-06
-1.373045801e-06
-1.472659282e-06
-1.575978768e-06
-1.683707544e-06
-1.796681659e-06
-1.915503763e-06
-2.041624205e-06
-2.18156494e-06
-2.358377039e-06
-2.630589766e-06
-3.10123178e-06
-3.752082073e-06
-3.824540857e-06
-3.181278316e-06
9.189721046e-06
1.299223929e-05
1.248851198e-10
1.228253844e-10
1.194471406e-10
1.241429053e-10
1.224554245e-10
1.231621877e-10
1.186148629e-10
1.243105668e-10
1.295294864e-10
1.465385988e-10
1.539383809e-10
1.646982639e-10
1.59568611e-10
1.614179244e-10
1.51389195e-10
1.505433956e-10
1.320438139e-10
1.169057171e-10
8.115281214e-11
5.236590578e-11
1.238314396e-11
-5.717365928e-12
-1.924033109e-11
-8.173988461e-12
-8.580799559e-12
-8.722735137e-12
-3.040465226e-11
-4.819766139e-11
-7.769180649e-11
-9.779495425e-11
-1.223557424e-10
-1.35480563e-10
-1.500357912e-10
-1.511764562e-10
-1.494556421e-10
-1.411965405e-10
-1.403511148e-10
-1.377057853e-10
-1.387387603e-10
-1.323838316e-10
-1.28105272e-10
-1.177093417e-10
-1.094939579e-10
-1.072271075e-10
-1.165653575e-10
-8.254368707e-11
-1.230808574e-10
-7.35814482e-11
1.774327667e-05
8.713267263e-06
2.619197559e-06
3.346575477e-07
-3.159273773e-06
3.785627107e-07
2.65089227e-08
2.472787804e-08
2.336341655e-08
2.215244917e-08
2.131795016e-08
2.056388329e-08
1.985314865e-08
1.912420855e-08
1.83575002e-08
1.749727029e-08
1.652752445e-08
1.539077589e-08
1.406531857e-08
1.248427349e-08
1.06158624e-08
8.381364567e-09
5.735610311e-09
2.582145266e-09
-1.145889303e-09
-5.569933498e-09
-1.078167874e-08
-1.692494488e-08
-2.411169922e-08
-3.250877617e-08
-4.225770069e-08
-5.356365839e-08
-6.660825875e-08
-8.162796895e-08
-9.881760731e-08
-1.184116485e-07
-1.406020395e-07
-1.656355523e-07
-1.937319385e-07
-2.251601033e-07
-2.601275679e-07
-2.988457317e-07
-3.414392915e-07
-3.880424515e-07
-4.387179516e-07
-4.935245063e-07
-5.523968105e-07
-6.152026033e-07
-6.816597834e-07
-7.514478623e-07
-8.24155006e-07
-8.9936927e-07
-9.765810684e-07
-1.055255829e-06
-1.13479537e-06
-1.214720022e-06
-1.294706878e-06
-1.374751712e-06
-1.455097875e-06
-1.536081485e-06
-1.617233809e-06
-1.695775523e-06
-1.764881419e-06
-1.814447085e-06
-1.839893272e-06
-1.894842987e-06
-2.181674974e-06
-3.19959184e-06
-5.254636536e-06
5.126330402e-06
1.103360514e-05
2.068687095e-05
1.342044219e-10
1.11141928e-10
1.076431994e-10
1.078720061e-10
1.110680235e-10
1.12002586e-10
1.157336305e-10
1.192508384e-10
1.299825927e-10
1.404379089e-10
1.532038811e-10
1.567152133e-10
1.58174008e-10
1.515835523e-10
1.483861697e-10
1.390268802e-10
1.303682858e-10
1.094112779e-10
8.565395099e-11
5.164632682e-11
2.365475519e-11
-6.368178083e-13
-6.629191744e-12
-7.656015157e-12
-4.52013906e-12
-1.538833894e-11
-3.240190287e-11
-5.864484529e-11
-8.008703216e-11
-1.017191695e-10
-1.170910579e-10
-1.327809237e-10
-1.411400418e-10
-1.448367977e-10
-1.409252213e-10
-1.386970296e-10
-1.384438329e-10
-1.413239285e-10
-1.378527635e-10
-1.287743415e-10
-1.166122266e-10
-1.089192306e-10
-9.933834457e-11
-9.530434503e-11
-8.697631909e-11
-1.07801866e-10
-1.487564178e-10
-5.598338035e-11
1.056092243e-05
1.954017838e-05
1.504692893e-05
5.304341929e-07
-3.105062955e-06
9.63037927e-07
2.817065052e-08
2.613929619e-08
2.453366686e-08
2.312863847e-08
2.210514849e-08
2.120345286e-08
2.034822767e-08
1.951138422e-08
1.863409279e-08
1.769437152e-08
1.66360153e-08
1.543535756e-08
1.403019001e-08
1.238874983e-08
1.043924324e-08
8.139508839e-09
5.404099542e-09
2.172953048e-09
-1.66191172e-09
-6.185052428e-09
-1.152823187e-08
-1.779606697e-08
-2.513949479e-08
-3.368641156e-08
-4.361998556e-08
-5.5107464e-08
-6.837019653e-08
-8.359942521e-08
-1.010203502e-07
-1.208154644e-07
-1.432076815e-07
-1.683976929e-07
-1.966397167e-07
-2.281494225e-07
-2.631496259e-07
-3.017761682e-07
-3.441527048e-07
-3.903296329e-07
-4.403578094e-07
-4.941894358e-07
-5.517095351e-07
-6.126361443e-07
-6.765943084e-07
-7.430670449e-07
-8.114826031e-07
-8.811358581e-07
-9.512356694e-07
-1.020835329e-06
-1.08896156e-06
-1.154670348e-06
-1.217270809e-06
-1.27643064e-06
-1.332363476e-06
-1.385536717e-06
-1.435537556e-06
-1.477908397e-06
-1.49746159e-06
-1.452279603e-06
-1.248594639e-06
-6.748641179e-07
6.708929075e-07
3.089451333e-06
2.481613958e-06
4.131699788e-06
-5.001314926e-06
1.113439531e-10
1.018376295e-10
9.413340979e-11
9.195341708e-11
9.534995533e-11
9.9239356e-11
1.052333809e-10
1.088842769e-10
1.157372186e-10
1.232041458e-10
1.354714672e-10
1.43599569e-10
1.498058019e-10
1.471979553e-10
1.443464131e-10
1.369385942e-10
1.322841513e-10
1.20650628e-10
1.064969063e-10
8.155128316e-11
5.582166306e-11
2.695382862e-11
8.597722354e-12
-2.8249929e-12
-2.975797957e-12
-7.734869274e-12
-1.796537557e-11
-3.975629248e-11
-6.056288414e-11
-8.109152878e-11
-9.560979569e-11
-1.107790528e-10
-1.225480516e-10
-1.329944075e-10
-1.359465187e-10
-1.353835021e-10
-1.335384882e-10
-1.366574825e-10
-1.38456862e-10
-1.335693792e-10
-1.204386259e-10
-1.072298303e-10
-9.922402661e-11
-9.228729774e-11
-8.545802427e-11
-7.630939914e-11
-1.089924985e-10
-1.036915085e-10
-1.36197367e-10
-4.376884712e-11
1.469393154e-06
2.270621376e-05
8.05091524e-06
1.888882595e-06
2.841514184e-06
2.984746312e-08
2.753248284e-08
2.568857949e-08
2.406516997e-08
2.286069657e-08
2.179203145e-08
2.080490491e-08
1.984404352e-08
1.887175125e-08
1.78378739e-08
1.670766376e-08
1.542871315e-08
1.396085244e-08
1.224438616e-08
1.023104652e-08
7.851197339e-09
5.043252157e-09
1.719047734e-09
-2.20615087e-09
-6.844946967e-09
-1.230407908e-08
-1.871488912e-08
-2.620234504e-08
-3.492200495e-08
-4.503231704e-08
-5.672883326e-08
-7.020475346e-08
-8.567283992e-08
-1.033226053e-07
-1.233546747e-07
-1.459591416e-07
-1.71360782e-07
-1.997818801e-07
-2.314515097e-07
-2.665412894e-07
-3.051814207e-07
-3.474342219e-07
-3.93339936e-07
-4.428789164e-07
-4.959683835e-07
-5.523851334e-07
-6.117686128e-07
-6.735906595e-07
-7.371990098e-07
-8.01786065e-07
-8.663929001e-07
-9.298473111e-07
-9.907925472e-07
-1.047725478e-06
-1.09915448e-06
-1.143783269e-06
-1.180867632e-06
-1.210614532e-06
-1.234453592e-06
-1.2545933e-06
-1.272025053e-06
-1.279220423e-06
-1.24082541e-06
-1.033837474e-06
-3.252501934e-07
1.621213964e-06
5.358292974e-06
1.382311623e-05
1.161554028e-05
4.511949443e-11
7.508956571e-11
7.971460328e-11
7.79519825e-11
7.953670216e-11
8.422221901e-11
9.179797672e-11
9.848805241e-11
1.048956385e-10
1.104309411e-10
1.185406954e-10
1.268971638e-10
1.352652295e-10
1.384743101e-10
1.380926517e-10
1.329100653e-10
1.278517798e-10
1.20731507e-10
1.12766955e-10
9.845282727e-11
7.966313761e-11
5.521836689e-11
3.248094519e-11
1.351476478e-11
3.636479491e-12
-2.983476526e-12
-1.015109059e-11
-2.518140385e-11
-4.373956728e-11
-6.284932916e-11
-7.673420634e-11
-8.889372579e-11
-1.004223421e-10
-1.138880109e-10
-1.242908584e-10
-1.293568816e-10
-1.284969986e-10
-1.286478894e-10
-1.31609237e-10
-1.333638848e-10
-1.260123093e-10
-1.119847454e-10
-9.966823443e-11
-9.341199633e-11
-8.794415037e-11
-8.159202776e-11
-7.322138846e-11
-8.49326249e-11
-1.213420443e-10
-9.05881826e-11
-2.340263735e-11
-1.470134122e-12
2.159827301e-05
1.504228075e-05
-1.850100624e-06
9.427642263e-07
3.150408224e-08
2.889885251e-08
2.679508611e-08
2.495361433e-08
2.355404643e-08
2.232441774e-08
2.119632643e-08
2.012133718e-08
1.904742053e-08
1.793103632e-08
1.672265614e-08
1.537725869e-08
1.384046591e-08
1.206111983e-08
9.977870364e-09
7.530327124e-09
4.643368993e-09
1.237523584e-09
-2.78565519e-09
-7.529633756e-09
-1.311389055e-08
-1.965908587e-08
-2.730282094e-08
-3.619043792e-08
-4.649395032e-08
-5.839783469e-08
-7.210510704e-08
-8.781148988e-08
-1.057116757e-07
-1.259891114e-07
-1.488435979e-07
-1.744871906e-07
-2.031489203e-07
-2.350326493e-07
-2.70299066e-07
-3.090402251e-07
-3.513034857e-07
-3.970904598e-07
-4.463572841e-07
-4.989588605e-07
-5.546116907e-07
-6.128531132e-07
-6.730501282e-07
-7.343887854e-07
-7.958648445e-07
-8.562268601e-07
-9.139366339e-07
-9.671441519e-07
-1.013735563e-06
-1.051440523e-06
-1.07808111e-06
-1.092038988e-06
-1.09300274e-06
-1.082959815e-06
-1.067552793e-06
-1.057510752e-06
-1.06709252e-06
-1.092793604e-06
-1.053803991e-06
-4.955038671e-07
1.232605439e-06
1.335357322e-05
1.81476484e-05
1.139777048e-05
3.092285465e-11
5.392379217e-11
6.168465056e-11
6.491170736e-11
6.913321437e-11
7.67182887e-11
8.573895718e-11
9.43304892e-11
1.006886862e-10
1.063155512e-10
1.121598077e-10
1.192603039e-10
1.25151363e-10
1.283658576e-10
1.270178314e-10
1.230142039e-10
1.17309807e-10
1.116752614e-10
1.039321235e-10
9.273942612e-11
7.594712168e-11
5.586488924e-11
3.499301154e-11
1.812277541e-11
5.698803139e-12
-3.51779634e-12
-1.512811657e-11
-3.043661213e-11
-4.78032653e-11
-6.145244865e-11
-7.095001168e-11
-7.901128403e-11
-9.0788915e-11
-1.05284796e-10
-1.182271254e-10
-1.239003588e-10
-1.237394327e-10
-1.230807205e-10
-1.256814567e-10
-1.261755543e-10
-1.187185449e-10
-1.055156851e-10
-9.577261845e-11
-9.13562738e-11
-8.793088257e-11
-8.216240663e-11
-7.725189044e-11
-8.014251766e-11
-8.614401196e-11
-6.324495467e-11
-1.859506034e-11
-6.631096999e-12
6.004804738e-08
3.923223052e-05
7.933873914e-06
-1.117602254e-07
3.311924857e-08
3.020244253e-08
2.783225968e-08
2.576200995e-08
2.416797339e-08
2.277313204e-08
2.150985017e-08
2.032038602e-08
1.915295809e-08
1.795497343e-08
1.667718026e-08
1.526628998e-08
1.366963553e-08
1.182864978e-08
9.684768549e-09
7.170360372e-09
4.213006236e-09
7.254063333e-10
-3.388595948e-09
-8.239584733e-09
-1.39433852e-08
-2.062692292e-08
-2.842364426e-08
-3.748585682e-08
-4.798170007e-08
-6.010120395e-08
-7.403984755e-08
-8.999460828e-08
-1.081501463e-07
-1.286935991e-07
-1.518203386e-07
-1.777483103e-07
-2.066963599e-07
-2.388600814e-07
-2.743755666e-07
-3.133205534e-07
-3.557215037e-07
-4.015689584e-07
-4.507901549e-07
-5.032049342e-07
-5.584694878e-07
-6.160541213e-07
-6.75230785e-07
-7.350649353e-07
-7.943687364e-07
-8.516337218e-07
-9.049532527e-07
-9.519727371e-07
-9.898723468e-07
-1.015411016e-06
-1.025131799e-06
-1.015847449e-06
-9.854853357e-07
-9.344657733e-07
-8.683990924e-07
-8.031188663e-07
-7.660358952e-07
-7.893123369e-07
-7.401791532e-07
1.878859328e-07
2.12730142e-06
1.259108201e-05
1.292069249e-05
-2.244876061e-12
2.322125588e-11
4.206679188e-11
5.150599281e-11
5.654730827e-11
6.265727736e-11
7.139843143e-11
8.169507569e-11
9.076109129e-11
9.749928817e-11
1.022611145e-10
1.068333602e-10
1.116126244e-10
1.160223552e-10
1.180674389e-10
1.170866288e-10
1.132526733e-10
1.082845994e-10
1.027074738e-10
9.605760513e-11
8.625668299e-11
7.237004124e-11
5.49055933e-11
3.683439793e-11
2.059231221e-11
7.315257708e-12
-5.354456248e-12
-1.956350826e-11
-3.559374342e-11
-4.947214809e-11
-5.829282076e-11
-6.299450519e-11
-6.967439164e-11
-8.249482374e-11
-9.99820607e-11
-1.143011752e-10
-1.197540781e-10
-1.1767726e-10
-1.159641783e-10
-1.18186972e-10
-1.19574118e-10
-1.133161846e-10
-1.023158656e-10
-9.464031406e-11
-9.213892887e-11
-8.861465705e-11
-8.314917802e-11
-7.875218414e-11
-7.862946127e-11
-7.781144588e-11
-5.013048286e-11
-2.696802012e-11
4.643940139e-11
2.432090138e-11
2.564384428e-05
1.93185421e-05
1.345967799e-06
3.465427255e-08
3.141349923e-08
2.876470109e-08
2.646271496e-08
2.467145161e-08
2.311556052e-08
2.172003231e-08
2.042412084e-08
1.916848728e-08
1.789771858e-08
1.655645211e-08
1.508929863e-08
1.34385541e-08
1.154550797e-08
9.346676214e-09
6.774431364e-09
3.751023202e-09
1.88654254e-10
-4.013708407e-09
-8.966274239e-09
-1.478853532e-08
-2.160610705e-08
-2.955617872e-08
-3.879011093e-08
-4.947977966e-08
-6.181245672e-08
-7.598441263e-08
-9.218708297e-08
-1.106062299e-07
-1.314275281e-07
-1.548518687e-07
-1.810955996e-07
-2.103745748e-07
-2.428700096e-07
-2.787060484e-07
-3.17947733e-07
-3.606185523e-07
-4.067023877e-07
-4.561158285e-07
-5.086524783e-07
-5.639349602e-07
-6.213891695e-07
-6.802338968e-07
-7.394532948e-07
-7.977318491e-07
-8.533591929e-07
-9.041195964e-07
-9.471884209e-07
-9.790223621e-07
-9.952996404e-07
-9.909978094e-07
-9.607420774e-07
-8.994207593e-07
-8.032625259e-07
-6.724246154e-07
-5.167434878e-07
-3.826567251e-07
-3.83176639e-07
-7.906728744e-07
-1.555075668e-06
3.374805571e-06
8.716803151e-06
1.321657961e-05
3.242208852e-12
2.43609889e-11
3.881364493e-11
4.668568281e-11
5.209804365e-11
5.87065968e-11
6.797523018e-11
7.842277468e-11
8.760896204e-11
9.403853537e-11
9.80597467e-11
1.011710015e-10
1.043627123e-10
1.073822664e-10
1.08922633e-10
1.080705172e-10
1.048545299e-10
1.004063641e-10
9.533176614e-11
8.933171987e-11
8.072933413e-11
6.859251839e-11
5.323198845e-11
3.678240057e-11
2.113929051e-11
6.761635327e-12
-7.621458487e-12
-2.294393215e-11
-3.759470096e-11
-4.799678047e-11
-5.244709879e-11
-5.466370054e-11
-6.162900228e-11
-7.730002729e-11
-9.734153134e-11
-1.12303816e-10
-1.156702657e-10
-1.109422385e-10
-1.075543256e-10
-1.105559798e-10
-1.141946941e-10
-1.110246001e-10
-1.023691203e-10
-9.597842543e-11
-9.277143381e-11
-8.814610803e-11
-8.191314256e-11
-7.862180251e-11
-7.632461649e-11
-7.038846806e-11
-5.350410358e-11
7.17888379e-13
3.01685617e-11
7.130562077e-12
-5.063472394e-06
4.175783283e-05
7.306944645e-06
3.60679706e-08
3.248696833e-08
2.955353281e-08
2.701725961e-08
2.503203666e-08
2.332017996e-08
2.18015131e-08
2.040796334e-08
1.907530224e-08
1.774185428e-08
1.634835342e-08
1.483498226e-08
1.314180335e-08
1.120616451e-08
8.963219623e-09
6.341009066e-09
3.259999913e-09
-3.714199062e-10
-4.655631475e-09
-9.705459875e-09
-1.564041442e-08
-2.258806299e-08
-3.068574181e-08
-4.008746948e-08
-5.096501092e-08
-6.350698074e-08
-7.790708712e-08
-9.435663808e-08
-1.13041044e-07
-1.34150234e-07
-1.578882121e-07
-1.844729664e-07
-2.14114128e-07
-2.46983517e-07
-2.831963396e-07
-3.228174937e-07
-3.658762547e-07
-4.123635838e-07
-4.621947705e-07
-5.151548919e-07
-5.708556081e-07
-6.287158861e-07
-6.879488936e-07
-7.475196487e-07
-8.060621721e-07
-8.617566836e-07
-9.121918074e-07
-9.541896876e-07
-9.835942321e-07
-9.950470016e-07
-9.819026238e-07
-9.363683621e-07
-8.498506054e-07
-7.131330835e-07
-5.143157387e-07
-2.294589737e-07
2.171183027e-07
1.031156829e-06
2.667832337e-06
-5.160254393e-07
6.643524157e-06
-3.168733119e-07
2.86537656e-12
1.622665626e-11
2.913615907e-11
3.904529214e-11
4.548045189e-11
5.048265232e-11
5.685649366e-11
6.557377157e-11
7.547366412e-11
8.424621308e-11
9.028548473e-11
9.374769603e-11
9.586695387e-11
9.794496401e-11
1.000159553e-10
1.013499157e-10
1.008284471e-10
9.837396538e-11
9.433786467e-11
8.950920113e-11
8.342111795e-11
7.530135965e-11
6.405272267e-11
5.024176179e-11
3.515601866e-11
2.038515845e-11
5.944724775e-12
-8.823400896e-12
-2.382966425e-11
-3.648937676e-11
-4.370350751e-11
-4.558941681e-11
-4.765763421e-11
-5.720245666e-11
-7.622485504e-11
-9.79749711e-11
-1.113128378e-10
-1.108982917e-10
-1.025544568e-10
-9.829345566e-11
-1.032996538e-10
-1.109554449e-10
-1.115130304e-10
-1.047668678e-10
-9.733832385e-11
-9.17229864e-11
-8.548461631e-11
-7.959825064e-11
-7.771740205e-11
-7.648613694e-11
-7.200912639e-11
-5.527181572e-11
-2.277842204e-11
-3.899827395e-12
-1.747880428e-10
-1.005562336e-10
4.448611836e-05
-1.319102333e-10
3.730608615e-08
3.337395016e-08
3.01502445e-08
2.73818506e-08
2.520890076e-08
2.335182129e-08
2.172240716e-08
2.024574706e-08
1.885037671e-08
1.746931088e-08
1.603808293e-08
1.449342035e-08
1.277140005e-08
1.080693723e-08
8.531243445e-09
5.870024158e-09
2.740100014e-09
-9.52240715e-10
-5.311566042e-09
-1.045103011e-08
-1.649151003e-08
-2.356080916e-08
-3.179815927e-08
-4.135840966e-08
-5.241540667e-08
-6.515705861e-08
-7.977752427e-08
-9.646762951e-08
-1.154157475e-07
-1.368154952e-07
-1.608753058e-07
-1.878127073e-07
-2.17832485e-07
-2.510999341e-07
-2.877293995e-07
-3.2779414e-07
-3.713389834e-07
-4.183702936e-07
-4.688136769e-07
-5.224631016e-07
-5.789467193e-07
-6.377170633e-07
-6.980345039e-07
-7.589182694e-07
-8.190455538e-07
-8.766213413e-07
-9.292068188e-07
-9.734907915e-07
-1.004945098e-06
-1.017414273e-06
-1.002754345e-06
-9.50794937e-07
-8.501588305e-07
-6.911182417e-07
-4.711268257e-07
-1.92102478e-07
1.715068849e-07
8.583924132e-07
2.795985145e-06
6.291485397e-06
1.707556981e-05
1.66318678e-05
4.07409777e-11
3.756032703e-11
3.868396683e-11
4.267039741e-11
4.64934422e-11
5.051101181e-11
5.609502523e-11
6.389964272e-11
7.277604933e-11
8.062538557e-11
8.602088485e-11
8.890674422e-11
9.062561493e-11
9.227641848e-11
9.431520659e-11
9.579206326e-11
9.586274998e-11
9.376488802e-11
9.001568323e-11
8.483642922e-11
7.851569609e-11
7.0119641e-11
5.93784105e-11
4.635640876e-11
3.253368224e-11
1.874002998e-11
5.273001221e-12
-8.498803197e-12
-2.170874709e-11
-3.209740836e-11
-3.737477376e-11
-3.924339365e-11
-4.375158867e-11
-5.711196431e-11
-7.893587211e-11
-1.002537388e-10
-1.099346492e-10
-1.046387527e-10
-9.331542083e-11
-8.947659063e-11
-9.805562167e-11
-1.100672691e-10
-1.135829108e-10
-1.069402122e-10
-9.739944524e-11
-8.926211185e-11
-8.172811736e-11
-7.727807977e-11
-7.73873254e-11
-7.923892002e-11
-7.540854162e-11
-6.679587964e-11
-4.390609514e-11
-1.118890199e-10
-1.542220838e-10
-4.28023065e-10
-3.348226117e-10
-2.152538754e-10
3.830433463e-08
3.400970611e-08
3.049594871e-08
2.75022037e-08
2.515402071e-08
2.316775539e-08
2.144640622e-08
1.990641292e-08
1.846874137e-08
1.706004165e-08
1.561092357e-08
1.405355546e-08
1.23204491e-08
1.034268843e-08
8.048413597e-09
5.359850074e-09
2.191439431e-09
-1.552564076e-09
-5.977455828e-09
-1.119720703e-08
-1.733253243e-08
-2.451242947e-08
-3.28771832e-08
-4.258395587e-08
-5.380741728e-08
-6.673669326e-08
-8.156554939e-08
-9.848621161e-08
-1.176894825e-07
-1.393739577e-07
-1.637509868e-07
-1.910377508e-07
-2.21434891e-07
-2.551051977e-07
-2.921687749e-07
-3.327153914e-07
-3.768132072e-07
-4.244905049e-07
-4.756925347e-07
-5.302375516e-07
-5.87798117e-07
-6.478990319e-07
-7.099046069e-07
-7.729593491e-07
-8.35890644e-07
-8.970758492e-07
-9.542780655e-07
-1.004370765e-06
-1.042883546e-06
-1.063300555e-06
-1.056116439e-06
-1.007689825e-06
-8.996715675e-07
-7.122050921e-07
-4.374780439e-07
-1.229762533e-07
6.124485104e-08
-2.242613394e-07
-2.458481574e-07
1.355541188e-05
2.449328134e-05
2.81561928e-05
7.490709905e-11
5.415302449e-11
4.671420912e-11
4.601736754e-11
4.801158853e-11
5.1309683e-11
5.617327027e-11
6.270940802e-11
7.006628121e-11
7.666548816e-11
8.130833787e-11
8.410861739e-11
8.595875577e-11
8.800640642e-11
9.025601196e-11
9.214147781e-11
9.235130315e-11
9.047708407e-11
8.636188654e-11
8.0733847e-11
7.354346088e-11
6.482000215e-11
5.409483734e-11
4.206607855e-11
2.952044309e-11
1.751378998e-11
5.734877912e-12
-5.991753961e-12
-1.730117066e-11
-2.615856861e-11
-3.161660578e-11
-3.589457993e-11
-4.451919713e-11
-6.144145733e-11
-8.377188187e-11
-1.017617091e-10
-1.059416735e-10
-9.632048682e-11
-8.413060479e-11
-8.290210906e-11
-9.534853208e-11
-1.104927528e-10
-1.151861674e-10
-1.074742714e-10
-9.536214626e-11
-8.524129684e-11
-7.89420781e-11
-7.724965766e-11
-8.099002966e-11
-8.463562288e-11
-8.345032505e-11
-7.564019186e-11
-6.462699477e-11
-9.337181505e-11
-2.463664286e-10
-3.072226775e-10
-2.776380803e-10
-2.039456703e-10
3.898197227e-08
3.4319039e-08
3.051894535e-08
2.731333864e-08
2.48094249e-08
2.271813166e-08
2.093139231e-08
1.935550161e-08
1.790283696e-08
1.64932454e-08
1.505123833e-08
1.350437204e-08
1.178102072e-08
9.808405741e-09
7.510977959e-09
4.808713536e-09
1.613583603e-09
-2.170532315e-09
-6.649462732e-09
-1.193671292e-08
-1.815366023e-08
-2.542973213e-08
-3.390746592e-08
-4.374544453e-08
-5.512027967e-08
-6.822125245e-08
-8.324281729e-08
-1.003780154e-07
-1.198209995e-07
-1.41773498e-07
-1.664493285e-07
-1.940644233e-07
-2.248176256e-07
-2.588737912e-07
-2.963649079e-07
-3.37402518e-07
-3.820810515e-07
-4.304545846e-07
-4.824950037e-07
-5.380606143e-07
-5.968912956e-07
-6.586189476e-07
-7.227535641e-07
-7.8862995e-07
-8.553174351e-07
-9.215238097e-07
-9.854628841e-07
-1.044618547e-06
-1.095263322e-06
-1.131578696e-06
-1.143983024e-06
-1.115852472e-06
-1.01722712e-06
-7.938565748e-07
-3.513076483e-07
4.536963055e-07
1.842316206e-06
4.124474499e-06
3.658676303e-06
9.064638803e-06
3.295601364e-06
8.511055487e-11
7.324533178e-11
5.902158262e-11
5.08479449e-11
4.841311705e-11
4.949293706e-11
5.245044034e-11
5.662689075e-11
6.19152053e-11
6.764684873e-11
7.279432807e-11
7.671978475e-11
7.952655265e-11
8.208602522e-11
8.484028193e-11
8.777241272e-11
8.974393143e-11
8.988716432e-11
8.740664307e-11
8.274700417e-11
7.627628839e-11
6.865715194e-11
5.964975377e-11
4.946245505e-11
3.831416264e-11
2.739317937e-11
1.709103069e-11
7.45353659e-12
-2.402534249e-12
-1.219167155e-11
-2.108948236e-11
-2.85573935e-11
-3.673273503e-11
-4.931666583e-11
-6.779705189e-11
-8.773154311e-11
-1.001506255e-10
-9.872993385e-11
-8.669618606e-11
-7.642400941e-11
-7.958396766e-11
-9.588566314e-11
-1.122095171e-10
-1.153229149e-10
-1.049273978e-10
-9.112127699e-11
-8.211947387e-11
-7.888953091e-11
-8.163498063e-11
-8.841864311e-11
-9.334085695e-11
-9.097702227e-11
-8.628206325e-11
-8.199019822e-11
-1.054797723e-10
-1.717708283e-10
-2.563853021e-10
-2.313130655e-10
-1.674988057e-10
3.92403499e-08
3.420523784e-08
3.013129799e-08
2.673630015e-08
2.41064926e-08
2.19447024e-08
2.012948481e-08
1.855488654e-08
1.712352004e-08
1.574694569e-08
1.434346712e-08
1.283503677e-08
1.11456976e-08
9.198661199e-09
6.915695601e-09
4.214544903e-09
1.006916024e-09
-2.803744125e-09
-7.322193117e-09
-1.266202784e-08
-1.89443923e-08
-2.630053894e-08
-3.487437455e-08
-4.482666141e-08
-5.633500051e-08
-6.958914467e-08
-8.478299384e-08
-1.021107032e-07
-1.217679391e-07
-1.439594664e-07
-1.689003421e-07
-1.968060029e-07
-2.278751626e-07
-2.622785155e-07
-3.00163585e-07
-3.416660909e-07
-3.869074477e-07
-4.359679049e-07
-4.888505702e-07
-5.45463532e-07
-6.056323715e-07
-6.691170265e-07
-7.356035866e-07
-8.046533171e-07
-8.756437291e-07
-9.477215284e-07
-1.019766112e-06
-1.090279945e-06
-1.15712801e-06
-1.216976246e-06
-1.264046416e-06
-1.286986195e-06
-1.26101311e-06
-1.12820425e-06
-7.530083807e-07
1.786571382e-07
2.315866388e-06
6.533586188e-06
3.307537971e-06
1.499340421e-05
6.520985004e-06
7.004668135e-11
6.879936098e-11
5.943411006e-11
5.219205592e-11
4.954499796e-11
5.079671689e-11
5.38630393e-11
5.759810401e-11
6.155488076e-11
6.553697407e-11
6.926855833e-11
7.263996106e-11
7.595884949e-11
7.942997944e-11
8.311285416e-11
8.618109114e-11
8.780277582e-11
8.694101196e-11
8.361263974e-11
7.809184567e-11
7.133863482e-11
6.360330323e-11
5.51269206e-11
4.564701224e-11
3.581967135e-11
2.622331213e-11
1.764717316e-11
9.473925776e-12
9.608114356e-13
-8.641929835e-12
-1.88829602e-11
-2.960699731e-11
-4.165822753e-11
-5.64724297e-11
-7.333854864e-11
-8.766853408e-11
-9.326834916e-11
-8.787690531e-11
-7.725715409e-11
-7.253346935e-11
-8.122703175e-11
-9.931290561e-11
-1.132701098e-10
-1.125565118e-10
-9.958505227e-11
-8.606352469e-11
-8.015075519e-11
-8.224994685e-11
-8.879915706e-11
-9.627046514e-11
-9.930536315e-11
-9.552042753e-11
-8.829159455e-11
-8.724146148e-11
-1.047061712e-10
-1.559383583e-10
-1.924287512e-10
-1.790282281e-10
-1.444154816e-10
3.895550818e-08
3.355265572e-08
2.922522117e-08
2.567584026e-08
2.296396462e-08
2.078053561e-08
1.898729038e-08
1.746370367e-08
1.61003336e-08
1.479959841e-08
1.347238916e-08
1.203527623e-08
1.040713075e-08
8.508653414e-09
6.259397816e-09
3.576645989e-09
3.72621281e-10
-3.44809395e-09
-7.989535453e-09
-1.336450639e-08
-1.969522792e-08
-2.711373132e-08
-3.576620681e-08
-4.581440367e-08
-5.743636484e-08
-7.082094834e-08
-8.616161615e-08
-1.036517042e-07
-1.234886671e-07
-1.458781527e-07
-1.710362312e-07
-1.991781713e-07
-2.305048263e-07
-2.65195501e-07
-3.034144004e-07
-3.453196398e-07
-3.91056006e-07
-4.407281368e-07
-4.943721076e-07
-5.51953408e-07
-6.133907024e-07
-6.785809648e-07
-7.473899266e-07
-8.19615177e-07
-8.94954457e-07
-9.730260667e-07
-1.053429533e-06
-1.135824777e-06
-1.220021028e-06
-1.306187888e-06
-1.395281042e-06
-1.489661282e-06
-1.593202922e-06
-1.707021168e-06
-1.804398647e-06
-1.744686707e-06
-1.013539314e-06
1.966664648e-06
1.759355849e-05
3.434880406e-05
3.037385743e-05
7.97668942e-11
7.293051446e-11
6.122376372e-11
5.32586922e-11
5.078477131e-11
5.230910421e-11
5.549290061e-11
5.868920101e-11
6.148017586e-11
6.399569186e-11
6.661618013e-11
6.977822888e-11
7.36159544e-11
7.799598011e-11
8.20305663e-11
8.479739739e-11
8.519398975e-11
8.303089199e-11
7.849601705e-11
7.263692194e-11
6.607830496e-11
5.930393018e-11
5.185177602e-11
4.365690325e-11
3.475884713e-11
2.619043583e-11
1.826296017e-11
1.074765556e-11
2.188334598e-12
-8.290616581e-12
-2.074705627e-11
-3.4291333e-11
-4.827336586e-11
-6.209951274e-11
-7.425255247e-11
-8.173594909e-11
-8.200399389e-11
-7.627634777e-11
-7.082998703e-11
-7.352204241e-11
-8.701652834e-11
-1.044209572e-10
-1.134279e-10
-1.072741712e-10
-9.219496381e-11
-8.106402257e-11
-8.070977225e-11
-8.761102637e-11
-9.601652069e-11
-1.01885217e-10
-1.020208657e-10
-9.482983359e-11
-8.646360567e-11
-8.57230739e-11
-9.911266005e-11
-1.279313762e-10
-1.573174073e-10
-1.489079078e-10
-1.20111451e-10
3.797261253e-08
3.221185506e-08
2.766776158e-08
2.401706625e-08
2.128636326e-08
1.914954802e-08
1.74467107e-08
1.603894237e-08
1.480312753e-08
1.363061672e-08
1.242463951e-08
1.109573428e-08
9.559779305e-09
7.734933005e-09
5.540945292e-09
2.895980244e-09
-2.859414656e-10
-4.09844311e-09
-8.644327073e-09
-1.403659592e-08
-2.039768266e-08
-2.786143387e-08
-3.657422725e-08
-4.669872985e-08
-5.841157772e-08
-7.190036871e-08
-8.735599773e-08
-1.049713923e-07
-1.249432746e-07
-1.474787643e-07
-1.727938327e-07
-2.011047598e-07
-2.326153179e-07
-2.67513483e-07
-3.059783089e-07
-3.481856718e-07
-3.94298483e-07
-4.444412146e-07
-4.986824732e-07
-5.570454291e-07
-6.195424191e-07
-6.86200082e-07
-7.57052164e-07
-8.321098284e-07
-9.113615969e-07
-9.948365993e-07
-1.082736012e-06
-1.175602573e-06
-1.274604345e-06
-1.382147328e-06
-1.503309822e-06
-1.649004665e-06
-1.842736553e-06
-2.131939889e-06
-2.603794339e-06
-3.350380827e-06
-4.22896352e-06
-3.788005321e-06
1.352163358e-05
3.335950392e-05
3.513193728e-05
9.567725493e-11
7.662808637e-11
6.239586874e-11
5.406699396e-11
5.172526364e-11
5.360313771e-11
5.688054891e-11
5.970451584e-11
6.154102218e-11
6.29618877e-11
6.496363181e-11
6.821321658e-11
7.274062496e-11
7.755766645e-11
8.139853765e-11
8.28983625e-11
8.1649286e-11
7.785355271e-11
7.266559978e-11
6.70376335e-11
6.175888262e-11
5.645954846e-11
5.058055684e-11
4.329605397e-11
3.499072269e-11
2.632437046e-11
1.819829221e-11
1.009368499e-11
8.079658854e-13
-1.094986181e-11
-2.497832211e-11
-3.976062318e-11
-5.311931517e-11
-6.33369081e-11
-6.926906143e-11
-7.070767371e-11
-6.888655594e-11