/*--------------------------------*- C++ -*----------------------------------*\
  =========                 |
  \\      /  F ield         | OpenFOAM: The Open Source CFD Toolbox
   \\    /   O peration     | Website:  https://openfoam.org
    \\  /    A nd           | Version:  6
     \\/     M anipulation  |
\*---------------------------------------------------------------------------*/
FoamFile
{
    version     2.0;
    format      ascii;
    class       surfaceScalarField;
    location    "0.0033";
    object      phi;
}
// * * * * * * * * * * * * * * * * * * * * * * * * * * * * * * * * * * * * * //

dimensions      [0 3 -1 0 0 0 0];

internalField   nonuniform List<scalar> 
19000
(
-1.063969092e-19
1.0242585e-20
-1.064632698e-19
1.033715134e-20
-1.065713991e-19
1.054069849e-20
-1.067240931e-19
1.083998447e-20
-1.069186399e-19
1.121921231e-20
-1.071571237e-19
1.166262042e-20
-1.074434965e-19
1.215408072e-20
-1.07779785e-19
1.267780535e-20
-1.081694401e-19
1.321788556e-20
-1.086138289e-19
1.375903395e-20
-1.091156906e-19
1.42860671e-20
-1.096757246e-19
1.478461812e-20
-1.102962382e-19
1.524055906e-20
-1.109778021e-19
1.564068513e-20
-1.117230345e-19
1.597210256e-20
-1.125332599e-19
1.622291367e-20
-1.134123753e-19
1.638160679e-20
-1.143635419e-19
1.643773253e-20
-1.15393214e-19
1.638124977e-20
-1.165079253e-19
1.620317234e-20
-1.17718458e-19
1.589487774e-20
-1.190366243e-19
1.544877236e-20
-1.204794385e-19
1.485764733e-20
-1.220658565e-19
1.411540413e-20
-1.238210541e-19
1.321639493e-20
-1.25773336e-19
1.215605776e-20
-1.279586523e-19
1.093010922e-20
-1.304175551e-19
9.535084059e-21
-1.331995383e-19
7.967553262e-21
-1.363595391e-19
6.224828905e-21
-1.399618717e-19
4.304327592e-21
-1.440765353e-19
2.204233384e-21
-1.487832232e-19
-7.746237907e-23
-1.541675824e-19
-2.542729749e-21
-1.603245947e-19
-5.194705564e-21
-1.67353505e-19
-8.037323389e-21
-1.753595569e-19
-1.107613023e-20
-1.844475077e-19
-1.431760306e-20
-1.947222445e-19
-1.776991739e-20
-2.062808193e-19
-2.144222295e-20
-2.192104795e-19
-2.534489605e-20
-2.335770121e-19
-2.948749251e-20
-2.494189407e-19
-3.387702548e-20
-2.667331089e-19
-3.851362368e-20
-2.854674383e-19
-4.338627783e-20
-3.055058658e-19
-4.846538517e-20
-3.266602407e-19
-5.369432519e-20
-3.486544347e-19
-5.897681142e-20
-3.711170543e-19
-6.416328448e-20
-3.935705531e-19
-6.903538673e-20
-4.154343699e-19
-7.329497192e-20
-4.360272563e-19
-7.656026849e-20
-4.545811783e-19
-7.838054996e-20
-4.702456155e-19
-7.827842413e-20
-4.82087804e-19
-7.583581105e-20
-4.890606454e-19
-7.082551104e-20
-4.899543562e-19
-6.337390383e-20
-4.833679075e-19
-5.409166402e-20
-4.67853038e-19
-4.405001326e-20
-4.423211701e-19
-3.44362729e-20
-4.064248145e-19
-2.599347391e-20
-3.581790942e-19
-1.951370793e-20
-2.802482934e-19
-2.071579908e-20
-1.201736042e-19
-5.218512535e-20
1.879853707e-19
-9.994223363e-20
5.173928496e-19
-1.035651014e-19
-3.346285364e-20
7.097304534e-19
1.424621512e-20
-8.116922695e-20
1.648380949e-20
-1.59295223e-20
1.44672978e-20
2.145351505e-21
1.580327842e-20
9.307594953e-21
2.120006135e-20
1.243603808e-20
2.444207326e-20
1.147670365e-20
2.526655995e-20
8.98256696e-21
2.582267415e-20
6.764234096e-21
2.686175216e-20
4.836543827e-21
2.823050869e-20
2.751599576e-21
2.95139423e-20
1.960561282e-22
3.029403337e-20
-2.920712261e-21
3.022520706e-20
-6.507940965e-21
2.912836824e-20
-1.033205878e-20
2.703173885e-20
-1.409248917e-20
2.410986081e-20
-1.751414872e-20
2.060995122e-20
-2.040024821e-20
1.679268315e-20
-2.264848615e-20
1.288551333e-20
-2.424701863e-20
9.046033452e-21
-2.525538268e-20
5.35008324e-21
-2.577358337e-20
1.797070167e-21
-2.590907328e-20
-1.668078704e-21
-2.574849068e-20
-5.129917714e-21
-2.533906974e-20
-8.671945725e-21
-2.467932462e-20
-1.234918001e-20
-2.371965156e-20
-1.61602646e-20
-2.237180807e-20
-2.002920261e-20
-2.052848004e-20
-2.379810218e-20
-1.809132013e-20
-2.724326257e-20
-1.500438935e-20
-3.011050184e-20
-1.128418973e-20
-3.216526463e-20
-7.038144273e-21
-3.324891595e-20
-2.466887916e-21
-3.3353379e-20
2.152633384e-21
-3.267804752e-20
6.520577974e-21
-3.158969889e-20
1.040551791e-20
-3.052597909e-20
1.371891232e-20
-2.992223736e-20
1.65513106e-20
-2.995282958e-20
1.921148704e-20
-2.989252619e-20
2.213575772e-20
-2.762739868e-20
2.528952898e-20
-2.345250023e-20
2.683787926e-20
-2.356591931e-20
2.419677859e-20
-2.718354163e-20
1.735063338e-20
-2.653920468e-20
-7.115230914e-22
1.994099956e-20
-6.64222637e-20
-7.543040785e-19
7.234796361e-19
-8.799925764e-19
-7.078464937e-19
-7.931627465e-19
-1.903352566e-18
-5.235828918e-19
-2.685748807e-18
-1.927997369e-19
-2.814189715e-18
3.916367091e-20
-1.983639792e-18
1.89272342e-31
-1.051127857e-19
1.095978786e-20
-1.051898743e-19
1.106249644e-20
-1.053161133e-19
1.128286956e-20
-1.054947136e-19
1.160665981e-20
-1.057229476e-19
1.201663447e-20
-1.060032688e-19
1.249580214e-20
-1.063394606e-19
1.302655055e-20
-1.067338444e-19
1.359185325e-20
-1.071896193e-19
1.417432675e-20
-1.077083745e-19
1.475747696e-20
-1.082925286e-19
1.532469411e-20
-1.089429637e-19
1.586046162e-20
-1.096616345e-19
1.634928951e-20
-1.104492785e-19
1.677690058e-20
-1.11308134e-19
1.712912633e-20
-1.122396577e-19
1.739311015e-20
-1.13247342e-19
1.755618658e-20
-1.143344976e-19
1.7607091e-20
-1.155072273e-19
1.753479008e-20
-1.167723147e-19
1.732966279e-20
-1.181402922e-19
1.698230736e-20
-1.196233089e-19
1.648475317e-20
-1.212381972e-19
1.582931764e-20
-1.230043704e-19
1.50098694e-20
-1.249470681e-19
1.402065175e-20
-1.270954738e-19
1.285745736e-20
-1.294861504e-19
1.151630649e-20
-1.321611034e-19
9.994547593e-21
-1.351709214e-19
8.289579435e-21
-1.385724076e-19
6.400099043e-21
-1.424314847e-19
4.324891565e-21
-1.468208789e-19
2.063921132e-21
-1.518231882e-19
-3.833104234e-22
-1.575283551e-19
-3.017179543e-21
-1.64035773e-19
-5.839879371e-21
-1.714502148e-19
-8.854819977e-21
-1.798823577e-19
-1.206841164e-20
-1.894435244e-19
-1.548951286e-20
-2.002450927e-19
-1.913154956e-20
-2.123913502e-19
-2.301230081e-20
-2.259756289e-19
-2.715586206e-20
-2.410689249e-19
-3.159157521e-20
-2.577119203e-19
-3.635454942e-20
-2.759006237e-19
-4.148279548e-20
-2.955764227e-19
-4.701535823e-20
-3.166101497e-19
-5.298589057e-20
-3.387904544e-19
-5.941534801e-20
-3.618073091e-19
-6.629818318e-20
-3.852437757e-19
-7.358648835e-20
-4.085704664e-19
-8.116839333e-20
-4.311577593e-19
-8.884784028e-20
-4.522991259e-19
-9.632610438e-20
-4.712572903e-19
-1.031995734e-19
-4.873193645e-19
-1.089860041e-19
-4.998565065e-19
-1.132064931e-19
-5.083506523e-19
-1.155398032e-19
-5.123810401e-19
-1.160552996e-19
-5.116205853e-19
-1.154511451e-19
-5.061393367e-19
-1.150417352e-19
-4.978393827e-19
-1.158081651e-19
-4.945705285e-19
-1.154076555e-19
-5.165221856e-19
-1.017865531e-19
-5.936486899e-19
-4.982654106e-20
-7.563612618e-19
2.215860427e-20
-3.675378632e-19
-2.334956028e-19
-1.102074279e-19
5.557930501e-31
2.489500689e-19
3.505764257e-19
7.948592034e-20
8.829833342e-20
3.455868334e-20
2.900103268e-20
2.162954139e-20
1.507794186e-20
1.893172158e-20
1.20088163e-20
2.024072705e-20
1.113045378e-20
2.194793677e-20
9.772788788e-21
2.304822718e-20
7.885729625e-21
2.389498405e-20
5.921075272e-21
2.477680809e-20
3.958790297e-21
2.567496539e-20
1.857718341e-21
2.63971741e-20
-5.215776271e-22
2.670680481e-20
-3.225910509e-21
2.640108947e-20
-6.197741791e-21
2.536793803e-20
-9.294702088e-21
2.361007936e-20
-1.233044873e-20
2.122376157e-20
-1.512416305e-20
1.836171341e-20
-1.753495267e-20
1.519415063e-20
-1.947866912e-20
1.18771495e-20
-2.09285629e-20
8.527832812e-21
-2.190572201e-20
5.214593205e-21
-2.246050258e-20
1.957652933e-21
-2.265266746e-20
-1.258657772e-21
-2.253240703e-20
-4.470172774e-21
-2.212779309e-20
-7.712272564e-21
-2.143746713e-20
-1.10013366e-20
-2.043143209e-20
-1.431693678e-20
-1.905754672e-20
-1.759204271e-20
-1.725553222e-20
-2.071117155e-20
-1.497490782e-20
-2.352306318e-20
-1.219589649e-20
-2.58644565e-20
-8.946559758e-21
-2.759400848e-20
-5.312759953e-21
-2.862939484e-20
-1.435700904e-21
-2.898543462e-20
2.504521626e-21
-2.879310779e-20
6.324329017e-21
-2.82763046e-20
9.884816073e-21
-2.769358107e-20
1.313236363e-20
-2.726206111e-20
1.611593678e-20
-2.702855896e-20
1.897430756e-20
-2.673875524e-20
2.184239552e-20
-2.607904857e-20
2.462655261e-20
-2.609360089e-20
2.684939008e-20
-3.041206481e-20
2.851226398e-20
-4.524569821e-20
3.218102885e-20
-9.224994586e-20
4.629043168e-20
-2.634697033e-19
1.047940748e-19
9.645824352e-20
3.635496453e-19
-1.185194518e-19
6.080150292e-31
-1.839154839e-19
-1.595921333e-18
-3.588760669e-19
-2.438032736e-18
-1.666836136e-19
-2.997086125e-18
5.425479527e-20
-2.292335806e-18
2.426303241e-31
-1.03728646e-19
1.172645416e-20
-1.038174533e-19
1.183818923e-20
-1.039631838e-19
1.207758384e-20
-1.041699375e-19
1.242875931e-20
-1.044345802e-19
1.287344242e-20
-1.047603718e-19
1.339281271e-20
-1.051505095e-19
1.396816466e-20
-1.056080461e-19
1.458061788e-20
-1.061355025e-19
1.521171372e-20
-1.067351258e-19
1.584313548e-20
-1.074085858e-19
1.645725207e-20
-1.081573854e-19
1.703678274e-20
-1.08982687e-19
1.756529436e-20
-1.098858275e-19
1.802682653e-20
-1.108681971e-19
1.840638094e-20
-1.119318092e-19
1.868953793e-20
-1.130792531e-19
1.886295299e-20
-1.143143911e-19
1.891395527e-20
-1.156424469e-19
1.883101559e-20
-1.170708171e-19
1.860331263e-20
-1.186092025e-19
1.822120173e-20
-1.202703976e-19
1.767581085e-20
-1.220704199e-19
1.695957057e-20
-1.240294153e-19
1.606584318e-20
-1.261720141e-19
1.498942555e-20
-1.285285127e-19
1.372607658e-20
-1.311353508e-19
1.227291513e-20
-1.34036144e-19
1.062789722e-20
-1.372817779e-19
8.790279809e-21
-1.409310916e-19
6.760200331e-21
-1.450509386e-19
4.539126269e-21
-1.497171685e-19
2.12916349e-21
-1.550149206e-19
-4.670010827e-22
-1.610392197e-19
-3.247327761e-21
-1.67894049e-19
-6.210815795e-21
-1.756913006e-19
-9.358838747e-21
-1.845484694e-19
-1.269566763e-20
-1.945866976e-19
-1.62302417e-20
-2.059274033e-19
-1.997745361e-20
-2.186880708e-19
-2.396064749e-20
-2.329750792e-19
-2.821320939e-20
-2.488748365e-19
-3.278077922e-20
-2.664422771e-19
-3.772210291e-20
-2.85688565e-19
-4.311005928e-20
-3.065666763e-19
-4.903044155e-20
-3.289559383e-19
-5.557910838e-20
-3.526443456e-19
-6.285419258e-20
-3.773117147e-19
-7.094347608e-20
-4.025164864e-19
-7.990381041e-20
-4.276937626e-19
-8.973333993e-20
-4.521709282e-19
-1.003347547e-19
-4.752107681e-19
-1.114738122e-19
-4.960895277e-19
-1.227401991e-19
-5.142133624e-19
-1.335310997e-19
-5.292545534e-19
-1.430884635e-19
-5.412566293e-19
-1.506426031e-19
-5.506096468e-19
-1.55726766e-19
-5.577644803e-19
-1.586976196e-19
-5.626484754e-19
-1.612658867e-19
-5.648544336e-19
-1.662367343e-19
-5.676542759e-19
-1.73209896e-19
-5.951487022e-19
-1.631696779e-19
-7.335904091e-19
-5.734696054e-20
-9.262025785e-19
3.571688407e-19
-1.625912814e-18
7.727036651e-19
-2.663804473e-19
-7.848970613e-19
-1.332802367e-20
9.752773001e-20
2.01886189e-20
5.478477813e-20
2.063559252e-20
2.855704914e-20
1.85604159e-20
1.715611494e-20
1.805335899e-20
1.251895843e-20
1.888306206e-20
1.030386189e-20
2.006087765e-20
8.598188021e-21
2.108357277e-20
6.866347027e-21
2.193269907e-20
5.075559602e-21
2.267573614e-20
3.219654281e-21
2.329566941e-20
1.242040739e-21
2.369284122e-20
-9.143962381e-22
2.373497348e-20
-3.263649051e-21
2.33041292e-20
-5.762686852e-21
2.233219139e-20
-8.318642445e-21
2.081636494e-20
-1.081076042e-20
1.881297204e-20
-1.311714881e-20
1.641799695e-20
-1.513693838e-20
1.374425672e-20
-1.680254962e-20
1.089999051e-20
-1.808286207e-20
7.973052241e-21
-1.897812666e-20
5.022428185e-21
-1.950989622e-20
2.077913498e-21
-1.970833692e-20
-8.540438316e-22
-1.960066237e-20
-3.779846938e-21
-1.920211555e-20
-6.706237393e-21
-1.851150413e-20
-9.62745123e-21
-1.751111831e-20
-1.251492238e-20
-1.617170459e-20
-1.53114182e-20
-1.446126104e-20
-1.793216023e-20
-1.235699132e-20
-2.027372648e-20
-9.857582767e-21
-2.223065663e-20
-6.993317973e-21
-2.371694943e-20
-3.830387707e-21
-2.468917228e-20
-4.675012974e-22
-2.516562724e-20
2.977061993e-21
-2.523262073e-20
6.387469821e-21
-2.502875695e-20
9.677106623e-21
-2.4710008e-20
1.280968902e-20
-2.440369033e-20
1.580578987e-20
-2.416047086e-20
1.872751102e-20
-2.395459827e-20
2.16332837e-20
-2.38562111e-20
2.45251399e-20
-2.443072682e-20
2.742114641e-20
-2.674330009e-20
3.08221899e-20
-3.113629538e-20
3.657160813e-20
-3.374630189e-20
4.88974437e-20
-4.714132661e-21
7.575777349e-20
2.396580407e-19
1.191759169e-19
1.292304768e-18
-7.592877698e-19
1.530777064e-20
2.238583964e-19
-3.489199974e-19
-1.655834718e-18
-2.36841188e-19
-3.094430651e-18
5.135785116e-20
-2.666786593e-18
3.261478167e-31
-1.022350583e-19
1.254341197e-20
-1.023362647e-19
1.266548716e-20
-1.025032519e-19
1.292606179e-20
-1.027401489e-19
1.330811846e-20
-1.03044326e-19
1.379165147e-20
-1.034189916e-19
1.435646305e-20
-1.038676584e-19
1.498206006e-20
-1.043932259e-19
1.564816819e-20
-1.049984454e-19
1.633454695e-20
-1.056853261e-19
1.702152651e-20
-1.064557056e-19
1.768974312e-20
-1.073107965e-19
1.832063349e-20
-1.08251888e-19
1.88961134e-20
-1.092799728e-19
1.939904326e-20
-1.103965048e-19
1.981289192e-20
-1.116030743e-19
2.012220486e-20
-1.129022681e-19
2.031226067e-20
-1.14297482e-19
2.036952905e-20
-1.157939295e-19
2.028129885e-20
-1.173985425e-19
2.003611858e-20
-1.191210022e-19
1.96234328e-20
-1.209735996e-19
1.903407306e-20
-1.229722966e-19
1.825994832e-20
-1.251367564e-19
1.729456933e-20
-1.274917035e-19
1.613270633e-20
-1.300672314e-19
1.477084164e-20
-1.329002369e-19
1.320674848e-20
-1.360344841e-19
1.143993822e-20
-1.395216333e-19
9.471308149e-21
-1.434210663e-19
7.30364821e-21
-1.478011164e-19
4.941185268e-21
-1.527394032e-19
2.389736645e-21
-1.58324329e-19
-3.442896635e-22
-1.646548709e-19
-3.254269817e-21
-1.718406892e-19
-6.334709245e-21
-1.800003342e-19
-9.581865112e-21
-1.892602862e-19
-1.299551296e-20
-1.997526049e-19
-1.658041271e-20
-2.116129691e-19
-2.034925079e-20
-2.249758339e-19
-2.432526693e-20
-2.399683123e-19
-2.854599572e-20
-2.567004548e-19
-3.306630737e-20
-2.752545762e-19
-3.796226785e-20
-2.956714995e-19
-4.333388706e-20
-3.179355547e-19
-4.93075697e-20
-3.41955433e-19
-5.60352261e-20
-3.67543191e-19
-6.368964741e-20
-3.943910906e-19
-7.245211342e-20
-4.220529713e-19
-8.249086188e-20
-4.499351821e-19
-9.392530515e-20
-4.773095229e-19
-1.067734919e-19
-5.03360877e-19
-1.208788647e-19
-5.272906015e-19
-1.358205709e-19
-5.484897905e-19
-1.508190416e-19
-5.667826837e-19
-1.646716134e-19
-5.82686485e-19
-1.757918126e-19
-5.975038327e-19
-1.825055734e-19
-6.126864597e-19
-1.838560926e-19
-6.273677021e-19
-1.812678285e-19
-6.316211993e-19
-1.807294625e-19
-5.928797425e-19
-1.933154389e-19
-4.453925337e-19
-2.248387945e-19
-1.893341609e-19
-2.444716125e-19
3.887527884e-19
-1.061486704e-19
2.884155393e-19
7.341155002e-19
-2.038935316e-19
-2.925848975e-19
-5.607097489e-20
-5.029199791e-20
-6.039110382e-21
4.75552844e-21
9.234658301e-21
1.328583472e-20
1.392325939e-20
1.247016246e-20
1.583826228e-20
1.060671219e-20
1.717738809e-20
8.967659222e-21
1.832903659e-20
7.449564089e-21
1.929278519e-20
5.905813349e-21
2.007679364e-20
4.294973494e-21
2.069812248e-20
2.602088532e-21
2.113923229e-20
8.049198017e-22
2.134358828e-20
-1.114590954e-21
2.123593552e-20
-3.151907455e-21
2.074817351e-20
-5.270915225e-21
1.984007331e-20
-7.40673839e-21
1.850997635e-20
-9.476988899e-21
1.679318245e-20
-1.13970035e-20
1.475238562e-20
-1.309318331e-20
1.246394409e-20
-1.451184278e-20
1.000472597e-20
-1.562209334e-20
7.441282642e-21
-1.641393462e-20
4.823987332e-21
-1.689236208e-20
2.185588153e-21
-1.707001621e-20
-4.554970052e-22
-1.695965987e-20
-3.089235614e-21
-1.65685918e-20
-5.705851425e-21
-1.589538736e-20
-8.288037469e-21
-1.493003661e-20
-1.080447885e-20
-1.365694552e-20
-1.320714831e-20
-1.206084412e-20
-1.543275159e-20
-1.013404387e-20
-1.740946163e-20
-7.883949923e-21
-1.90677262e-20
-5.33845751e-21
-2.035406291e-20
-2.547745291e-21
-2.124460884e-20
4.192683471e-22
-2.175521929e-20
3.483911791e-21
-2.194298381e-20
6.571524934e-21
-2.189617434e-20
9.626501112e-21
-2.171390709e-20
1.262357574e-20
-2.148196907e-20
1.557014159e-20
-2.125469792e-20
1.849689435e-20
-2.106274206e-20
2.143834924e-20
-2.096020448e-20
2.44198461e-20
-2.102968302e-20
2.748806141e-20
-2.099388192e-20
3.078401497e-20
-1.881045974e-20
3.438606624e-20
-6.885971604e-21
3.696992799e-20
3.870401006e-20
3.016491151e-20
1.81132233e-19
-2.325608935e-20
-3.140248316e-19
-2.64131921e-19
-8.108996573e-19
7.615496983e-19
-8.567553996e-19
-9.792508167e-19
-5.055267818e-19
-3.222022735e-18
1.934979115e-20
-3.139194206e-18
4.648602294e-31
-1.006214597e-19
1.341129259e-20
-1.007361051e-19
1.354492376e-20
-1.009258389e-19
1.382936731e-20
-1.011952423e-19
1.424599872e-20
-1.015418444e-19
1.477327295e-20
-1.019692049e-19
1.538915775e-20
-1.024807894e-19
1.607155863e-20
-1.030797456e-19
1.679834775e-20
-1.037686781e-19
1.754769484e-20
-1.045497672e-19
1.829811204e-20
-1.054246305e-19
1.902870822e-20
-1.063945954e-19
1.971917378e-20
-1.07460673e-19
2.034999245e-20
-1.086239014e-19
2.090239351e-20
-1.098853645e-19
2.135855071e-20
-1.112466002e-19
2.170152944e-20
-1.127097307e-19
2.191548149e-20
-1.14278025e-19
2.19855747e-20
-1.159561761e-19
2.189816798e-20
-1.177509355e-19
2.164074056e-20
-1.196713779e-19
2.120209522e-20
-1.217295022e-19
2.057233924e-20
-1.239405502e-19
1.97431534e-20
-1.263238368e-19
1.870780025e-20
-1.289034051e-19
1.7461377e-20
-1.317091408e-19
1.600077639e-20
-1.347774358e-19
1.432491138e-20
-1.381520038e-19
1.243470511e-20
-1.418841574e-19
1.033338947e-20
-1.460335352e-19
8.026507242e-21
-1.506688056e-19
5.522035013e-21
-1.558690745e-19
2.829983831e-21
-1.617248551e-19
-3.800570179e-23
-1.683387999e-19
-3.069533696e-21
-1.758252374e-19
-6.25219648e-21
-1.843095235e-19
-9.574840651e-21
-1.939269479e-19
-1.302903924e-20
-2.04821911e-19
-1.661155894e-20
-2.171459612e-19
-2.032739276e-20
-2.310543526e-19
-2.419377512e-20
-2.466998176e-19
-2.824456218e-20
-2.642242509e-19
-3.253544668e-20
-2.837478494e-19
-3.714952115e-20
-3.053560867e-19
-4.220339999e-20
-3.290828872e-19
-4.785260439e-20
-3.54889443e-19
-5.429513988e-20
-3.826375936e-19
-6.177058869e-20
-4.120596743e-19
-7.0552048e-20
-4.427279245e-19
-8.092609731e-20
-4.740305873e-19
-9.315471122e-20
-5.051656062e-19
-1.074102307e-19
-5.351720427e-19
-1.236743071e-19
-5.630283718e-19
-1.415924231e-19
-5.878568228e-19
-1.602809683e-19
-6.092794339e-19
-1.780988162e-19
-6.279651843e-19
-1.924400916e-19
-6.462930886e-19
-1.997115698e-19
-6.68705308e-19
-1.959112458e-19
-7.001551065e-19
-1.785357377e-19
-7.390005398e-19
-1.509187569e-19
-7.592747864e-19
-1.280074709e-19
-6.928356597e-19
-1.424364494e-19
-3.023276041e-19
-2.510042164e-19
-8.582237714e-20
1.338168811e-30
3.350277451e-19
3.132666312e-19
3.839936675e-20
4.045566688e-21
-1.023448843e-21
-1.086696802e-20
2.491195833e-21
1.243049098e-21
8.418986102e-21
7.360253803e-21
1.205980926e-20
8.831678807e-21
1.419920934e-20
8.469862064e-21
1.565929307e-20
7.510311268e-21
1.6785286e-20
6.32648493e-21
1.768194541e-20
5.012221456e-21
1.83839088e-20
3.596302907e-21
1.890095388e-20
2.088568371e-21
1.921972166e-20
4.899093884e-22
1.930627192e-20
-1.197294701e-21
1.911692784e-20
-2.958727476e-21
1.86123505e-20
-4.762645938e-21
1.776982292e-20
-6.560659372e-21
1.658996179e-20
-8.293774111e-21
1.509700281e-20
-9.900912113e-21
1.333372625e-20
-1.132717194e-20
1.135369351e-20
-1.252959717e-20
9.212884848e-21
-1.347975083e-20
6.962855225e-21
-1.416300274e-20
4.646333123e-21
-1.457546457e-20
2.295944608e-21
-1.471952669e-20
-6.44289301e-23
-1.459936921e-20
-2.41603129e-21
-1.421727141e-20
-4.740500611e-21
-1.357161752e-20
-7.014946435e-21
-1.265680577e-20
-9.208377592e-21
-1.146526017e-20
-1.128034806e-20
-9.991005162e-21
-1.318265774e-20
-8.234203458e-21
-1.486396935e-20
-6.205427822e-21
-1.627701407e-20
-3.92857635e-21
-1.73870494e-20
-1.441162481e-21
-1.817996551e-20
1.208591207e-21
-1.86676063e-20
3.967983225e-21
-1.888800777e-20
6.788352853e-21
-1.889909977e-20
9.633937295e-21
-1.876734144e-20
1.248811287e-20
-1.855521645e-20
1.535451626e-20
-1.831324302e-20
1.825181023e-20
-1.808124547e-20
2.120358312e-20
-1.78919893e-20
2.422799515e-20
-1.773372939e-20
2.732735861e-20
-1.739183096e-20
3.04398501e-20
-1.622659811e-20
3.321879945e-20
-1.369098795e-20
3.44319586e-20
-1.471699074e-20
3.118754368e-20
-5.974359679e-20
2.176800036e-20
-3.61655813e-19
3.777964512e-20
5.838817006e-20
3.415056744e-19
-3.209106161e-19
1.571940971e-30
-2.729373161e-19
-2.852154901e-18
1.049147925e-19
-3.568437998e-18
7.305391753e-31
-9.887671413e-20
1.432990965e-20
-9.900568312e-20
1.447663865e-20
-9.921984456e-20
1.478783669e-20
-9.952401729e-20
1.524332742e-20
-9.991616342e-20
1.581969815e-20
-1.003999865e-19
1.649310354e-20
-1.009791601e-19
1.723951907e-20
-1.016568678e-19
1.803498147e-20
-1.024358232e-19
1.885574526e-20
-1.033181559e-19
1.967852912e-20
-1.04305523e-19
2.048059359e-20
-1.053991296e-19
2.123992639e-20
-1.065999506e-19
2.193527087e-20
-1.07908811e-19
2.254628502e-20
-1.093266473e-19
2.305355002e-20
-1.10854661e-19
2.343871896e-20
-1.124947098e-19
2.36845128e-20
-1.142496193e-19
2.377485983e-20
-1.161237119e-19
2.369488121e-20
-1.181231707e-19
2.343104291e-20
-1.202565391e-19
2.297118891e-20
-1.225350466e-19
2.230476097e-20
-1.249732012e-19
2.14228963e-20
-1.275893811e-19
2.03186902e-20
-1.30406794e-19
1.898729134e-20
-1.334543358e-19
1.742615604e-20
-1.36767508e-19
1.563516395e-20
-1.403889483e-19
1.361693739e-20
-1.443690238e-19
1.137702948e-20
-1.487664401e-19
8.92422606e-21
-1.53649465e-19
6.270515496e-21
-1.590973317e-19
3.430984081e-21
-1.652016897e-19
4.233266964e-22
-1.720672599e-19
-2.73264822e-21
-1.798119259e-19
-6.01583782e-21
-1.885663649e-19
-9.404852408e-21
-1.984740218e-19
-1.287981246e-20
-2.096909898e-19
-1.642488154e-20
-2.223852877e-19
-2.003190834e-20
-2.36734187e-19
-2.370484422e-20
-2.529193956e-19
-2.746523378e-20
-2.711198615e-19
-3.135867852e-20
-2.915025052e-19
-3.546271442e-20
-3.14209861e-19
-3.989573265e-20
-3.393433103e-19
-4.482651192e-20
-3.669397582e-19
-5.048277149e-20
-3.96940639e-19
-5.715683656e-20
-4.291528626e-19
-6.520493983e-20
-4.632032735e-19
-7.503500771e-20
-4.984904087e-19
-8.707425715e-20
-5.341431288e-19
-1.017042082e-19
-5.690051357e-19
-1.191467166e-19
-6.016779104e-19
-1.392808355e-19
-6.306749892e-19
-1.613661067e-19
-6.547812801e-19
-1.836467697e-19
-6.737752413e-19
-2.02821429e-19
-6.897122205e-19
-2.134160496e-19
-7.086968354e-19
-2.072820089e-19
-7.420225957e-19
-1.744823104e-19
-7.994510612e-19
-1.072542877e-19
-8.830033193e-19
-1.021617274e-20
-7.844110739e-19
1.299038951e-19
-6.555293977e-19
1.242154529e-19
-2.793051938e-19
-5.961946767e-20
2.580667921e-20
8.155617141e-21
2.348683202e-20
6.36691176e-21
1.108656832e-20
1.535009134e-21
8.608400549e-21
3.723019974e-21
9.890411105e-21
6.080163614e-21
1.169799257e-20
7.026228406e-21
1.323965849e-20
6.930577786e-21
1.447546673e-20
6.277123314e-21
1.547102255e-20
5.333726019e-21
1.626602683e-20
4.220170384e-21
1.687617426e-20
2.989271025e-21
1.73022949e-20
1.665760526e-21
1.753251756e-20
2.63163147e-22
1.754483914e-20
-1.206050562e-21
1.731300935e-20
-2.72336941e-21
1.681433709e-20
-4.26055662e-21
1.603670819e-20
-5.779771861e-21
1.498282372e-20
-7.236787555e-21
1.367074304e-20
-8.585944428e-21
1.213130102e-20
-9.785153822e-21
1.040353977e-20
-1.079972629e-20
8.529633014e-21
-1.160429227e-20
6.550393404e-21
-1.218279111e-20
4.502270914e-21
-1.252683867e-20
2.416102172e-21
-1.263319964e-20
3.176688704e-22
-1.250103363e-20
-1.77037748e-21
-1.212964529e-20
-3.825688776e-21
-1.151715169e-20
-5.82340084e-21
-1.066042157e-20
-7.734122635e-21
-9.556245391e-21
-9.523546291e-21
-8.20355234e-21
-1.11538821e-20
-6.606062402e-21
-1.258711789e-20
-4.774713947e-21
-1.378960017e-20
-2.729018656e-21
-1.473729571e-20
-4.967510233e-22
-1.542057346e-20
1.888427276e-21
-1.584723669e-20
4.391209252e-21
-1.604242333e-20
6.980120586e-21
-1.604492411e-20
9.632946924e-21
-1.590093811e-20
1.234062199e-20
-1.565792249e-20
1.51082029e-20
-1.536146998e-20
1.795242673e-20
-1.505683356e-20
2.089628635e-20
-1.479262584e-20
2.396124975e-20
-1.462123772e-20
2.715352797e-20
-1.461288178e-20
3.042921187e-20
-1.501343896e-20
3.361721075e-20
-1.69354027e-20
3.635169615e-20
-2.413653428e-20
3.838628237e-20
-4.373195204e-20
4.136166132e-20
-5.79297807e-20
5.197695725e-20
2.236319448e-19
5.994376479e-20
2.226975134e-19
2.602432632e-21
-3.936893365e-19
-1.145983866e-18
1.931641795e-19
-3.934906128e-18
1.298045755e-30
-9.698865591e-20
1.529840125e-20
-9.713294481e-20
1.545988429e-20
-9.737315828e-20
1.580116848e-20
-9.771449363e-20
1.630027415e-20
-9.815529101e-20
1.693182812e-20
-9.869952192e-20
1.766992145e-20
-9.935100339e-20
1.848849638e-20
-1.001130714e-19
1.936150461e-20
-1.009884854e-19
2.02631859e-20
-1.019794369e-19
2.116822985e-20
-1.030875498e-19
2.205196148e-20
-1.043140107e-19
2.289045089e-20
-1.056596661e-19
2.366063845e-20
-1.071252132e-19
2.434040573e-20
-1.087113307e-19
2.490868877e-20
-1.104189552e-19
2.534552017e-20
-1.122495447e-19
2.563213024e-20
-1.142055167e-19
2.575098199e-20
-1.162906376e-19
2.568587446e-20
-1.185104875e-19
2.542201544e-20
-1.208728039e-19
2.494618908e-20
-1.233879202e-19
2.424690717e-20
-1.260692239e-19
2.331465434e-20
-1.289338975e-19
2.214209005e-20
-1.320037514e-19
2.072432027e-20
-1.353062051e-19
1.90591318e-20
-1.388750386e-19
1.714733508e-20
-1.427510479e-19
1.499309647e-20
-1.469825528e-19
1.260436363e-20
-1.516263065e-19
9.99315761e-21
-1.567487977e-19
7.175774986e-21
-1.624279974e-19
4.172730823e-21
-1.687548412e-19
1.00860496e-21
-1.758342027e-19
-2.288288994e-21
-1.837852195e-19
-5.686364497e-21
-1.927417113e-19
-9.151709305e-21
-2.028529575e-19
-1.264971913e-20
-2.142847797e-19
-1.61477525e-20
-2.272198652e-19
-1.961877156e-20
-2.41856542e-19
-2.304608228e-20
-2.584055456e-19
-2.642927136e-20
-2.770850385e-19
-2.979180005e-20
-2.98113578e-19
-3.319058556e-20
-3.217000082e-19
-3.672777277e-20
-3.480280289e-19
-4.056428936e-20
-3.772329519e-19
-4.493434071e-20
-4.093680838e-19
-5.015929485e-20
-4.443585328e-19
-5.665817787e-20
-4.819403898e-19
-6.494960475e-20
-5.215846313e-19
-7.563587703e-20
-5.624097854e-19
-8.93549373e-20
-6.030951324e-19
-1.066793542e-19
-6.418164571e-19
-1.279341033e-19
-6.762440155e-19
-1.528959308e-19
-7.036862411e-19
-1.80326741e-19
-7.215547639e-19
-2.072617636e-19
-7.284025436e-19
-2.278470447e-19
-7.261609034e-19
-2.314489917e-19
-7.220326258e-19
-1.9917112e-19
-7.218086733e-19
-1.022591865e-19
-7.4434925e-19
7.141610982e-20
-2.893683285e-19
2.467525001e-20
1.937552478e-19
6.972699856e-31
4.184462223e-20
9.229109558e-20
2.401797368e-20
2.598291072e-20
1.865492928e-20
1.173112468e-20
1.327457911e-20
6.91679003e-21
1.09655441e-20
6.033625738e-21
1.083647583e-20
6.210972364e-21
1.160234192e-20
6.262345603e-21
1.25862039e-20
5.94898512e-21
1.353206936e-20
5.333778994e-21
1.435746685e-20
4.511036839e-21
1.503512736e-20
3.545350465e-21
1.555266367e-20
2.474702302e-21
1.589969742e-20
1.321827128e-21
1.606330376e-20
1.027796563e-22
1.60275202e-20
-1.166987356e-21
1.577582202e-20
-2.468418821e-21
1.529512178e-20
-3.776710478e-21
1.457969241e-20
-5.061334579e-21
1.363366672e-20
-6.287908877e-21
1.247153362e-20
-7.42114307e-21
1.111672849e-20
-8.427952664e-21
9.598973658e-21
-9.279961182e-21
7.951134202e-21
-9.954927662e-21
6.206345808e-21
-1.043697953e-20
4.395909834e-21
-1.071583068e-20
2.548268251e-21
-1.078535486e-20
6.89057205e-22
-1.064197131e-20
-1.157883941e-21
-1.028324757e-20
-2.968958579e-21
-9.707065763e-21
-4.719224631e-21
-8.911529748e-21
-6.381429594e-21
-7.895659673e-21
-7.926056256e-21
-6.660675525e-21
-9.322533599e-21
-5.211520459e-21
-1.054142256e-20
-3.558116512e-21
-1.155733245e-20
-1.715886044e-21
-1.235211734e-20
2.948588407e-22
-1.291779138e-20
2.450774807e-21
-1.32583253e-20
4.728474364e-21
-1.338959692e-20
7.108170977e-21
-1.333724889e-20
9.577315925e-21
-1.31333572e-20
1.213340879e-20
-1.281369859e-20
1.478539662e-20
-1.241761017e-20
1.755349619e-20
-1.199187021e-20
2.046791749e-20
-1.160034756e-20
2.356716769e-20
-1.134555356e-20
2.689627246e-20
-1.142488303e-20
3.050623164e-20
-1.227895349e-20
3.446909364e-20
-1.490081616e-20
3.897137468e-20
-2.116115543e-20
4.464446022e-20
-3.311665594e-20
5.331576931e-20
-4.99629725e-20
6.88225247e-20
-8.708411271e-20
9.706619499e-20
-2.559771472e-19
1.714961427e-19
-6.896320067e-19
1.236058114e-30
2.730724176e-19
-4.360984387e-18
1.051801837e-30
-9.494427059e-20
1.631487784e-20
-9.510483673e-20
1.649304762e-20
-9.537278912e-20
1.686814034e-20
-9.575368755e-20
1.7416248e-20
-9.624634455e-20
1.810980322e-20
-9.685498928e-20
1.892066508e-20
-9.758366003e-20
1.982050136e-20
-9.843583183e-20
2.078101311e-20
-9.941438333e-20
2.177419538e-20
-1.005215561e-19
2.277256145e-20
-1.017589992e-19
2.374930602e-20
-1.031278572e-19
2.467845609e-20
-1.046289001e-19
2.553497452e-20
-1.062626534e-19
2.629486759e-20
-1.080295828e-19
2.693524805e-20
-1.099303045e-19
2.743442059e-20
-1.119659049e-19
2.777192569e-20
-1.141383063e-19
2.792862381e-20
-1.164506904e-19
2.788676658e-20
-1.189078722e-19
2.763013413e-20
-1.215166667e-19
2.714419092e-20
-1.242862442e-19
2.641631501e-20
-1.272286363e-19
2.543604145e-20
-1.30359411e-19
2.419536174e-20
-1.336985495e-19
2.268902042e-20
-1.372713247e-19
2.091489433e-20
-1.411090718e-19
1.887440401e-20
-1.452497579e-19
1.657303022e-20
-1.497386142e-19
1.402082472e-20
-1.546291115e-19
1.123289021e-20
-1.599844863e-19
8.229708937e-21
-1.658795536e-19
5.037364841e-21
-1.724023455e-19
1.687658684e-21
-1.796552013e-19
-1.781822373e-21
-1.877555534e-19
-5.327847093e-21
-1.968369996e-19
-8.902144639e-21
-2.070510893e-19
-1.245281149e-20
-2.185694569e-19
-1.592667343e-20
-2.315854299e-19
-1.927268271e-20
-2.463143358e-19
-2.244641193e-20
-2.629924466e-19
-2.54160205e-20
-2.818747803e-19
-2.817027671e-20
-3.032314652e-19
-3.072928673e-20
-3.273412417e-19
-3.315836553e-20
-3.544796074e-19
-3.558514179e-20
-3.848985877e-19
-3.821978251e-20
-4.187945319e-19
-4.137778385e-20
-4.562595591e-19
-4.550394031e-20
-4.972106746e-19
-5.119355489e-20