/*--------------------------------*- C++ -*----------------------------------*\
  =========                 |
  \\      /  F ield         | OpenFOAM: The Open Source CFD Toolbox
   \\    /   O peration     | Website:  https://openfoam.org
    \\  /    A nd           | Version:  6
     \\/     M anipulation  |
\*---------------------------------------------------------------------------*/
FoamFile
{
    version     2.0;
    format      ascii;
    class       volScalarField;
    location    "0.0033";
    object      TRHS;
}
// * * * * * * * * * * * * * * * * * * * * * * * * * * * * * * * * * * * * * //

dimensions      [1 -1 -3 0 0 0 0];

internalField   nonuniform List<scalar> 
9600
(
2.304898693e-09
2.178313987e-09
2.083070755e-09
2.003902257e-09
1.952642378e-09
1.91113437e-09
1.864507902e-09
1.818849723e-09
1.76089971e-09
1.697471849e-09
1.615610756e-09
1.522225891e-09
1.403690678e-09
1.266088913e-09
1.094413237e-09
8.935163739e-10
6.468404482e-10
3.577273182e-10
7.507016893e-12
-4.028476886e-10
-8.949023898e-10
-1.470394757e-09
-2.153514266e-09
-2.948232866e-09
-3.881306762e-09
-4.95981452e-09
-6.214658792e-09
-7.657268603e-09
-9.322319647e-09
-1.122324818e-08
-1.33952667e-08
-1.585198974e-08
-1.863012061e-08
-2.174610206e-08
-2.523911032e-08
-2.912525634e-08
-3.343983061e-08
-3.819343938e-08
-4.341685673e-08
-4.911737043e-08
-5.532065566e-08
-6.202384544e-08
-6.92379715e-08
-7.694655388e-08
-8.515400132e-08
-9.384672671e-08
-1.030371367e-07
-1.127185926e-07
-1.229070546e-07
-1.336028199e-07
-1.44844856e-07
-1.566780666e-07
-1.692042256e-07
-1.825472526e-07
-1.969205113e-07
-2.12629812e-07
-2.302331161e-07
-2.507654172e-07
-2.762036294e-07
-3.092503982e-07
-3.508875755e-07
-3.895669451e-07
-3.747669734e-07
-2.557159823e-07
-7.321272417e-08
-7.846376323e-07
-0.001634990837
1294.970118
0
0
0
0
0
0
0
0
0
0
0
0
0
0
0
0
0
0
0
0
0
0
0
0
0
0
0
0
0
0
0
0
0
0
0
0
0
0
0
0
0
0
0
0
771.6914609
-0.0009749517704
2.666633904e-07
5.67451317e-07
3.768210208e-07
-1.087023778e-08
-2.757707457e-07
-4.143734796e-08
2.464828004e-09
2.314479447e-09
2.199865115e-09
2.101289648e-09
2.035026542e-09
1.978008549e-09
1.920154362e-09
1.862283362e-09
1.795980821e-09
1.722741495e-09
1.634496626e-09
1.532706099e-09
1.408642927e-09
1.262913939e-09
1.085596506e-09
8.761094438e-10
6.230593698e-10
3.24244715e-10
-3.389595249e-11
-4.560106866e-10
-9.583444309e-10
-1.547978228e-09
-2.243464409e-09
-3.054139653e-09
-4.001358134e-09
-5.098019461e-09
-6.369642627e-09
-7.832912121e-09
-9.515843841e-09
-1.143593917e-08
-1.362125944e-08
-1.609009779e-08
-1.887281318e-08
-2.199041421e-08
-2.547388591e-08
-2.934111922e-08
-3.361694175e-08
-3.831276506e-08
-4.344823471e-08
-4.902948422e-08
-5.506707339e-08
-6.155244556e-08
-6.847823557e-08
-7.582061245e-08
-8.356369207e-08
-9.168171695e-08
-1.001585429e-07
-1.089659263e-07
-1.18085164e-07
-1.274948722e-07
-1.372016571e-07
-1.472273797e-07
-1.576305368e-07
-1.684808431e-07
-1.798610989e-07
-1.91830572e-07
-2.045331212e-07
-2.186195971e-07
-2.363936077e-07
-2.637064525e-07
-3.108593251e-07
-3.760287354e-07
-3.833559155e-07
-3.191127064e-07
9.177697977e-07
-0.005374223044
2131.937268
0
0
0
0
0
0
0
0
0
0
0
0
0
0
0
0
0
0
0
0
0
0
0
0
0
0
0
0
0
0
0
0
0
0
0
0
0
0
0
0
0
0
0
0
0
0
1865.889429
-0.00470310962
8.716978013e-07
2.61449096e-07
3.027099128e-08
-3.171961318e-07
-7.907284125e-08
2.628794961e-09
2.452642656e-09
2.318064658e-09
2.198838821e-09
2.117242714e-09
2.043719346e-09
1.974577499e-09
1.903720435e-09
1.829226694e-09
1.745568037e-09
1.651206812e-09
1.540434735e-09
1.411148384e-09
1.256743078e-09
1.074085318e-09
8.55390176e-10
5.962086925e-10
2.86969042e-10
-7.892831473e-11
-5.135747467e-10
-1.026051635e-09
-1.630711381e-09
-2.33866612e-09
-3.166591003e-09
-4.128608549e-09
-5.245245836e-09
-6.534682539e-09
-8.020628239e-09
-9.722667003e-09
-1.16643539e-08
-1.386506747e-08
-1.634969943e-08
-1.914048563e-08
-2.226462975e-08
-2.574324699e-08
-2.959788442e-08
-3.384148293e-08
-3.848796048e-08
-4.35441289e-08
-4.90164382e-08
-5.489894522e-08
-6.117902807e-08
-6.782906605e-08
-7.481758259e-08
-8.210393181e-08
-8.964738424e-08
-9.739738095e-08
-1.053007588e-07
-1.132978822e-07
-1.213408245e-07
-1.29397189e-07
-1.374662835e-07
-1.455719959e-07
-1.537473193e-07
-1.619445763e-07
-1.698848645e-07
-1.768845231e-07
-1.819318139e-07
-1.845673466e-07
-1.90151705e-07
-2.18920485e-07
-3.20789854e-07
-5.263556179e-07
5.117324234e-07
1.102513161e-06
-0.05127546379
5154.293148
0
0
0
0
0
0
0
0
0
0
0
0
0
0
0
0
0
0
0
0
0
0
0
0
0
0
0
0
0
0
0
0
0
0
0
0
0
0
0
0
0
0
0
0
0
0
4637.231481
-0.04872392401
1.954504944e-06
1.505563953e-06
5.911688496e-08
-3.136853027e-07
-4.451110047e-08
2.793930625e-09
2.592885136e-09
2.434386067e-09
2.295877124e-09
2.195505178e-09
2.107347012e-09
2.023858695e-09
1.942308565e-09
1.856842813e-09
1.765313896e-09
1.662164876e-09
1.545071477e-09
1.407891474e-09
1.247489019e-09
1.056783249e-09
8.316113182e-10
5.635065858e-10
2.465434098e-10
-1.300237979e-10
-5.745686815e-10
-1.100212326e-09
-1.7173513e-09
-2.44105393e-09
-3.284071057e-09
-4.264712089e-09
-5.399714716e-09
-6.711245142e-09
-8.21850603e-09
-9.944106467e-09
-1.190644893e-08
-1.412799239e-08
-1.662903995e-08
-1.943528045e-08
-2.256859491e-08
-2.60516412e-08
-2.989840675e-08
-3.412172347e-08
-3.872711604e-08
-4.372021796e-08
-4.909679135e-08
-5.484591212e-08
-6.093995877e-08
-6.73420022e-08
-7.400087395e-08
-8.085989502e-08
-8.784897846e-08
-9.488936349e-08
-1.018866271e-07
-1.087435713e-07
-1.153657966e-07
-1.216840691e-07
-1.276648501e-07
-1.333290371e-07
-1.387227375e-07
-1.438038698e-07
-1.4812573e-07
-1.501684587e-07
-1.457390964e-07
-1.254595619e-07
-6.817423397e-08
6.631641883e-08
3.080924799e-07
2.472382168e-07
4.122403211e-07
-2.341158304e-06
15187.05576
0
0
0
0
0
0
0
0
0
0
0
0
0
0
0
0
0
0
0
0
0
0
0
0
0
0
0
0
0
0
0
0
0
0
0
0
0
0
0
0
0
0
0
0
0
0
0
0
14691.51385
-1.789094976e-06
2.270773781e-06
8.088335189e-07
1.878283412e-07
1.071537715e-07
2.960593537e-09
2.731397638e-09
2.549211658e-09
2.389033709e-09
2.270703175e-09
2.165942113e-09
2.069386696e-09
1.975517655e-09
1.880644357e-09
1.779778338e-09
1.669500523e-09
1.544644936e-09
1.401251085e-09
1.233416106e-09
1.036369501e-09
8.032334258e-10
5.279225356e-10
2.016663758e-10
-1.83905124e-10
-6.400154334e-10
-1.177263176e-09
-1.80875123e-09
-2.546929589e-09
-3.407338926e-09
-4.405814956e-09
-5.561940249e-09
-6.895084662e-09
-8.426599221e-09
-1.017554945e-08
-1.21621416e-08
-1.440558338e-08
-1.692858282e-08
-1.975364309e-08
-2.290400619e-08
-2.639719397e-08
-3.024664946e-08
-3.445905378e-08
-3.903892157e-08
-4.398480917e-08
-4.928897515e-08
-5.492965347e-08
-6.087133366e-08
-6.706172608e-08
-7.343610645e-08
-7.991416294e-08
-8.640039232e-08
-9.27778659e-08
-9.891111298e-08
-1.046499015e-07
-1.098450226e-07
-1.143666531e-07
-1.181400284e-07
-1.211853488e-07
-1.236449247e-07
-1.257388076e-07
-1.275652024e-07
-1.283702238e-07
-1.246173443e-07
-1.04005202e-07
-3.323236844e-08
1.613278883e-07
5.349451635e-07
1.381242703e-06
-0.004184945636
1660.084553
0
0
0
0
0
0
0
0
0
0
0
0
0
0
0
0
0
0
0
0
0
0
0
0
0
0
0
0
0
0
0
0
0
0
0
0
0
0
0
0
0
0
0
0
0
0
0
0
0
0
1129.230412
-0.002845804453
1.504414644e-06
-1.85006864e-07
-1.420548879e-07
3.125339205e-09
2.867287396e-09
2.65931463e-09
2.477463302e-09
2.33975763e-09
2.219026666e-09
2.108472802e-09
2.003291915e-09
1.898319776e-09
1.789274186e-09
1.671258652e-09
1.539808421e-09
1.389571618e-09
1.215504866e-09
1.011510775e-09
7.716472711e-10
4.884579457e-10
1.540864124e-10
-2.4128028e-10
-7.079068527e-10
-1.257696441e-09
-1.902669131e-09
-2.656558299e-09
-3.533880213e-09
-4.551852778e-09
-5.728942715e-09
-7.085525995e-09
-8.641250228e-09
-1.041570714e-08
-1.242740491e-08
-1.469653672e-08
-1.724453275e-08
-2.009459884e-08
-2.32674432e-08
-2.677950882e-08
-3.06404228e-08
-3.485536543e-08
-3.94249858e-08
-4.434540689e-08
-4.960263865e-08
-5.51688599e-08
-6.099832053e-08
-6.702822245e-08
-7.317762797e-08
-7.934652318e-08
-8.541009634e-08
-9.121477745e-08
-9.657571192e-08
-1.01281546e-07
-1.051051386e-07
-1.078284616e-07
-1.092892895e-07
-1.094559494e-07
-1.085265097e-07
-1.070644196e-07
-1.061416585e-07
-1.071830802e-07
-1.098370852e-07
-1.060213073e-07
-5.027173873e-08
1.224663618e-07
1.334510353e-06
1.81397136e-06
-0.01653038542
5404.378824
0
0
0
0
0
0
0
0
0
0
0
0
0
0
0
0
0
0
0
0
0
0
0
0
0
0
0
0
0
0
0
0
0
0
0
0
0
0
0
0
0
0
0
0
0
0
0
0
0
0
4327.136675
-0.01090795949
3.925363496e-06
7.902713901e-07
-3.535316577e-07
3.286026722e-09
2.997046354e-09
2.762585998e-09
2.558022235e-09
2.401007954e-09
2.263867188e-09
2.139888043e-09
2.023338445e-09
1.909098395e-09
1.79195383e-09
1.667044171e-09
1.529109508e-09
1.372926036e-09
1.192723894e-09
9.827188576e-10
7.36199076e-10
4.460080521e-10
1.034596167e-10
-3.009710784e-10
-7.783089031e-10
-1.340071787e-09
-1.998938727e-09
-2.768205887e-09
-3.663116179e-09
-4.700495887e-09
-5.899394815e-09
-7.279411027e-09
-8.860354661e-09
-1.066083442e-08
-1.269971586e-08
-1.499676352e-08
-1.757401914e-08
-2.045366172e-08
-2.365559149e-08
-2.719379922e-08
-3.107646952e-08
-3.530669879e-08
-3.988402332e-08
-4.480165299e-08
-5.004208945e-08
-5.557144879e-08
-6.13372598e-08
-6.726717767e-08
-7.32681689e-08
-7.922181234e-08
-8.49775512e-08
-9.034491843e-08
-9.508854447e-08
-9.892641777e-08
-1.01534278e-07
-1.025661288e-07
-1.017028124e-07
-9.873648374e-08
-9.370846734e-08
-8.717896738e-08
-8.073042484e-08
-7.710293883e-08
-7.951173654e-08
-7.467902995e-08
1.804755784e-08
2.119092499e-07
1.258144493e-06
9.427695817e-07
1153.460649
0
0
0
0
0
0
0
0
0
0
0
0
0
0
0
0
0
0
0
0
0
0
0
0
0
0
0
0
0
0
0
0
0
0
0
0
0
0
0
0
0
0
0
0
0
0
0
0
0
0
0
0
-0.1846255101
2.103703012e-06
1.933690616e-06
-4.240710143e-07
3.438875484e-09
3.117686118e-09
2.855557223e-09
2.627969007e-09
2.451359776e-09
2.298216107e-09
2.161099481e-09
2.033987653e-09
1.910977338e-09
1.786616496e-09
1.6554033e-09
1.511874444e-09
1.350331012e-09
1.164956187e-09
9.494789006e-10
6.972018276e-10
4.004220904e-10
5.041787865e-11
-3.628530941e-10
-8.503582227e-10
-1.424008742e-09
-2.096325163e-09
-2.881030353e-09
-3.793241539e-09
-4.85018538e-09
-6.070632547e-09
-7.474295935e-09
-9.080420442e-09
-1.09077369e-08
-1.297499485e-08
-1.530249653e-08
-1.791215247e-08
-2.082584859e-08
-2.406204255e-08
-2.763354592e-08
-3.154727667e-08
-3.580602294e-08
-4.040864906e-08
-4.534730298e-08
-5.060183053e-08
-5.613497657e-08
-6.188979735e-08
-6.778860504e-08
-7.3730191e-08
-7.958332865e-08
-8.51772131e-08
-9.0290419e-08
-9.464051397e-08
-9.787308343e-08
-9.95557267e-08
-9.918584637e-08
-9.622546567e-08
-9.01627865e-08
-8.06199183e-08
-6.761172308e-08
-5.212091167e-08
-3.879026635e-08
-3.891999806e-08
-7.974577704e-08
-1.562568017e-07
3.366754884e-07
8.709377515e-07
-0.02765242761
4270.465397
0
0
0
0
0
0
0
0
0
0
0
0
0
0
0
0
0
0
0
0
0
0
0
0
0
0
0
0
0
0
0
0
0
0
0
0
0
0
0
0
0
0
0
0
0
0
0
0
0
0
0
0
1533.943332
-0.003867609762
4.17749179e-06
-3.439896223e-07
3.579783223e-09
3.224798375e-09
2.934380824e-09
2.683511501e-09
2.487616774e-09
2.318976502e-09
2.169621419e-09
2.032793927e-09
1.90213802e-09
1.77153575e-09
1.635133125e-09
1.487008597e-09
1.321244153e-09
1.131632289e-09
9.117550952e-10
6.54503085e-10
3.519752077e-10
-4.930058171e-12
-4.263917452e-10
-9.23643695e-10
-1.508599861e-09
-2.193989714e-09
-2.993546383e-09
-3.922671706e-09
-4.998593727e-09
-6.240208387e-09
-7.666998936e-09
-9.298207177e-09
-1.115253612e-08
-1.324916281e-08
-1.560873531e-08
-1.825331864e-08
-2.12041862e-08
-2.447888269e-08
-2.808930411e-08
-3.204237103e-08
-3.634144784e-08
-4.098610392e-08
-4.596833323e-08
-5.126712818e-08
-5.684411119e-08
-6.264161925e-08
-6.858135979e-08
-7.456018934e-08
-8.044177483e-08
-8.604433077e-08
-9.112680968e-08
-9.537139847e-08
-9.836234107e-08
-9.956351372e-08
-9.830995426e-08
-9.382183067e-08
-8.523908594e-08
-7.163927522e-08
-5.183147629e-08
-2.342076614e-08
2.116186213e-08
1.024909861e-07
2.660828187e-07
-5.238359233e-08
6.634026578e-07
-1.797023437e-06
6698.94614
0
0
0
0
0
0
0
0
0
0
0
0
0
0
0
0
0
0
0
0
0
0
0
0
0
0
0
0
0
0
0
0
0
0
0
0
0
0
0
0
0
0
0
0
0
0
0
0
0
0
0
0
0
0
-0.2400292382
4.140507779e-06
-0.05859485617
3.703413739e-09
3.313532745e-09
2.994261721e-09
2.720314314e-09
2.505749984e-09
2.322659241e-09
2.162278204e-09
2.017180567e-09
1.880272738e-09
1.74493509e-09
1.60476434e-09
1.453528067e-09
1.284878944e-09
1.092398107e-09
8.692527286e-10
6.08102579e-10
3.006786525e-10
-6.23242992e-11
-4.913092709e-10
-9.975528822e-10
-1.593107495e-09
-2.290731657e-09
-3.104349846e-09
-4.049473636e-09
-5.143521724e-09
-6.405355944e-09
-7.854493084e-09
-9.51015645e-09
-1.139132885e-08
-1.351760491e-08
-1.591005754e-08
-1.859072386e-08
-2.158041364e-08
-2.48960089e-08
-2.854934137e-08
-3.254814805e-08
-3.689737477e-08
-4.159810145e-08
-4.664336836e-08
-5.20130143e-08
-5.767031396e-08
-6.356092028e-08
-6.961124541e-08
-7.572350974e-08
-8.176566866e-08
-8.755835595e-08
-9.285772936e-08
-9.733258369e-08
-1.005298931e-07
-1.018337639e-07
-1.004293095e-07
-9.52988597e-08
-8.53039245e-08
-6.94708215e-08
-4.754390331e-08
-1.971383671e-08
1.657585147e-08
8.519588835e-08
2.788920218e-07
6.283913886e-07
1.706753592e-06
1.639394075e-06
-0.009267060189
0
0
0
0
0
0
0
0
0
0
0
0
0
0
0
0
0
0
0
0
0
0
0
0
0
0
0
0
0
0
0
0
0
0
0
0
0
0
0
0
0
0
0
0
0
0
0
0
0
0
0
0
0
0
-0.06320962147
-1.59385737e-07
-0.0314333357
3.803422026e-09
3.377510266e-09
3.02939757e-09
2.73303102e-09
2.501018041e-09
2.305051912e-09
2.135507357e-09
1.984069119e-09
1.842928756e-09
1.704816142e-09
1.562851635e-09
1.410316099e-09
1.240556858e-09
1.046728099e-09
8.217208313e-10
5.578281448e-10
2.465429952e-10
-1.216348191e-10
-5.572073613e-10
-1.071512588e-09
-1.67659915e-09
-2.385361762e-09
-3.211830231e-09
-4.171747824e-09
-5.282628048e-09
-6.563473977e-09
-8.033767038e-09
-9.712865062e-09
-1.162004598e-08
-1.377536836e-08
-1.620023832e-08
-1.891666113e-08
-2.194503128e-08
-2.530199803e-08
-2.899997365e-08
-3.304835842e-08
-3.745440681e-08
-4.222140851e-08
-4.734434515e-08
-5.280548501e-08
-5.857250907e-08
-6.459828843e-08
-7.081958468e-08
-7.715111778e-08
-8.347581745e-08
-8.96315105e-08
-9.539448639e-08
-1.004519549e-07
-1.043566032e-07
-1.064564309e-07
-1.058003444e-07
-1.010235006e-07
-9.029013308e-08
-7.161360029e-08
-4.421156179e-08
-1.283138669e-08
5.522744648e-09
-2.309197588e-08
-2.530602881e-08
1.354784589e-06
2.448657636e-06
-0.06628728002
18517.92171
0
0
0
0
0
0
0
0
0
0
0
0
0
0
0
0
0
0
0
0
0
0
0
0
0
0
0
0
0
0
0
0
0
0
0
0
0
0
0
0
0
0
0
0
0
0
0
0
0
0
0
0
0
0
12095.21579
-0.03049019452
-8.128528217e-07
3.871826272e-09
3.409318793e-09
3.032712749e-09
2.715249907e-09
2.467709954e-09
2.261240267e-09
2.085123775e-09
1.930071296e-09
1.787383931e-09
1.649123171e-09
1.507824068e-09
1.356312766e-09
1.187487701e-09
9.941422106e-10
7.687994626e-10
5.034992115e-10
1.89529385e-10
-1.826971751e-10
-6.236947275e-10
-1.144801121e-09
-1.758106421e-09
-2.476568352e-09
-3.314443389e-09
-4.287625788e-09
-5.41384165e-09
-6.712098661e-09
-8.201967814e-09
-9.902916386e-09
-1.183454093e-08
-1.401724578e-08
-1.647267676e-08
-1.922273911e-08
-2.228765276e-08
-2.568428596e-08
-2.942623316e-08
-3.35250866e-08
-3.799072677e-08
-4.282901755e-08
-4.803759381e-08
-5.360272843e-08
-5.949880355e-08
-6.56893799e-08
-7.21257625e-08
-7.874166944e-08
-8.54441795e-08
-9.210411659e-08
-9.854279465e-08
-1.045084082e-07
-1.096278717e-07
-1.133188605e-07
-1.146225793e-07
-1.11875865e-07
-1.02081793e-07
-7.981425034e-08
-3.56287376e-08
4.480359363e-08
1.835996543e-07
4.117506118e-07
3.651033434e-07
9.055530343e-07
-1.335341859e-06
7778.385768
0
0
0
0
0
0
0
0
0
0
0
0
0
0
0
0
0
0
0
0
0
0
0
0
0
0
0
0
0
0
0
0
0
0
0
0
0
0
0
0
0
0
0
0
0
0
0
0
0
0
0
0
0
0
0
0
1198.276722
-0.01059671338
3.898908442e-09
3.399395519e-09
2.995514679e-09
2.659164208e-09
2.399040496e-09
2.185467713e-09
2.006427241e-09
1.851409239e-09
1.710752936e-09
1.575698798e-09
1.438164266e-09
1.290432655e-09
1.124928762e-09
9.340956834e-10
7.101518307e-10
4.449279023e-10
1.296567072e-10
-2.452525898e-10
-6.902549612e-10
-1.216657869e-09
-1.836585102e-09
-2.563133565e-09
-3.410726921e-09
-4.395496217e-09
-5.535246307e-09
-6.849071115e-09
-8.356484795e-09
-1.007705973e-08
-1.203057629e-08
-1.423775451e-08
-1.672036079e-08
-1.950027856e-08
-2.259770955e-08
-2.603011813e-08
-2.981267012e-08
-3.395936402e-08
-3.848279075e-08
-4.339142893e-08
-4.868602595e-08
-5.435781929e-08
-6.038975606e-08
-6.675817448e-08
-7.343195828e-08
-8.036744737e-08
-8.750249661e-08
-9.475178236e-08
-1.020031267e-07
-1.091065299e-07
-1.158480957e-07
-1.218938804e-07
-1.266653654e-07
-1.290264672e-07
-1.264979185e-07
-1.132862436e-07
-7.583492761e-08
1.726590931e-08
2.309255874e-07
6.526427857e-07
3.299939385e-07
1.498515357e-06
-7.666586435e-07
-0.5625962439
0
0
0
0
0
0
0
0
0
0
0
0
0
0
0
0
0
0
0
0
0
0
0
0
0
0
0
0
0
0
0
0
0
0
0
0
0
0
0
0
0
0
0
0
0
0
0
0
0
0
0
0
0
0
0
0
-0.3421671778
-0.001748194708
3.872475566e-09
3.336321705e-09
2.907192297e-09
2.555390302e-09
2.286952317e-09
2.071126711e-09
1.894136067e-09
1.744044097e-09
1.610031604e-09
1.482420505e-09
1.352381271e-09
1.211632977e-09
1.052177345e-09
8.661098942e-10
6.454594659e-10
3.820315629e-10
6.70631395e-11
-3.089089499e-10
-7.562558646e-10
-1.286240388e-09
-1.911066862e-09
-2.643949733e-09
-3.499528866e-09
-4.494027665e-09
-5.64534081e-09
-6.97244763e-09
-8.494839006e-09
-1.02320464e-08
-1.22039871e-08
-1.443151836e-08
-1.693650537e-08
-1.974082422e-08
-2.286491432e-08
-2.632709648e-08
-3.014421644e-08
-3.433251676e-08
-3.890693383e-08
-4.387837125e-08
-4.925088217e-08
-5.502142775e-08
-6.11822567e-08
-6.772338521e-08
-7.46316498e-08
-8.188698115e-08
-8.945922842e-08
-9.73101879e-08
-1.053996513e-07
-1.136933095e-07
-1.221716451e-07
-1.308510188e-07
-1.39826253e-07
-1.49332508e-07
-1.59756138e-07
-1.712073931e-07
-1.810130023e-07
-1.751061065e-07
-1.020491017e-07
1.959254474e-07
1.75859225e-06
3.434120383e-06
-0.0352020803
13965.70375
0
0
0
0
0
0
0
0
0
0
0
0
0
0
0
0
0
0
0
0
0
0
0
0
0
0
0
0
0
0
0
0
0
0
0
0
0
0
0
0
0
0
0
0
0
0
0
0
0
0
0
0
0
0
0
0
25082.7081
-0.1147723256
3.777339314e-09
3.20551704e-09
2.754631899e-09
2.392548667e-09
2.122055617e-09
1.910649042e-09
1.742467482e-09
1.603738695e-09
1.482239025e-09
1.367227292e-09
1.249108941e-09
1.11904222e-09
9.686548644e-10
7.898393135e-10
5.74631754e-10
3.148822405e-10
2.076505721e-12
-3.731401606e-10
-8.209949762e-10
-1.352781167e-09
-1.980725385e-09
-2.718220997e-09
-3.579957009e-09
-4.58223736e-09
-5.742822816e-09
-7.080592708e-09
-8.61479272e-09
-1.036487488e-08
-1.235077494e-08
-1.459343589e-08
-1.711477277e-08
-1.993674767e-08
-2.308011181e-08
-2.656406145e-08
-3.040693184e-08
-3.462675894e-08
-3.924027836e-08
-4.426039555e-08
-4.969440118e-08
-5.554502812e-08
-6.181386937e-08
-6.850390506e-08
-7.561874283e-08
-8.315965242e-08
-9.112552849e-08
-9.951921197e-08
-1.083606247e-07
-1.177036905e-07
-1.276647269e-07
-1.384836896e-07
-1.506676003e-07
-1.653067953e-07
-1.84750634e-07
-2.137413064e-07
-2.609953462e-07
-3.357190797e-07
-4.236362492e-07
-3.795865576e-07
1.351357873e-06
3.335260536e-06
-0.06428742646
16739.66293
0
0
0
0
0
0
0
0
0
0
0
0
0
0
0
0
0
0
0
0
0
0
0
0
0
0
0
0
0
0
0
0
0
0
0
0
0
0
0
0
0
0
0
0
0
0
0
0
0
0
0
0
0
0
0
0
-0.1586430943
-2.088435165e-06
3.594123228e-09
2.988962501e-09
2.521770648e-09
2.157118175e-09
1.893422729e-09
1.695731557e-09
1.545337778e-09
1.42624258e-09
1.324549877e-09
1.228358061e-09
1.12727918e-09
1.012041083e-09
8.740440916e-10
7.052283543e-10
4.977852168e-10
2.438730707e-10
-6.477618426e-11
-4.372818899e-10
-8.838048486e-10
-1.415614634e-09
-2.045018944e-09
-2.785416269e-09
-3.651500449e-09
-4.659413309e-09
-5.826740702e-09
-7.172027005e-09
-8.714294979e-09
-1.047282549e-08
-1.246748929e-08
-1.471923579e-08
-1.724999621e-08
-2.008178817e-08
-2.323568457e-08
-2.673157351e-08
-3.058876506e-08
-3.482636477e-08
-3.946213869e-08
-4.451047502e-08
-4.998162005e-08
-5.588374963e-08
-6.222683651e-08
-6.902509976e-08
-7.62961476e-08
-8.405923827e-08
-9.233717219e-08
-1.011655553e-07
-1.106066238e-07
-1.207649773e-07
-1.318057149e-07
-1.439895666e-07
-1.577442866e-07
-1.738127717e-07
-1.935071291e-07
-2.190037148e-07
-2.531377445e-07
-2.904004232e-07
-2.844409062e-07
-4.353020722e-07
2.467794763e-07
-1.520701164e-06
8763.625254
0
0
0
0
0
0
0
0
0
0
0
0
0
0
0
0
0
0
0
0
0
0
0
0
0
0
0
0
0
0
0
0
0
0
0
0
0
0
0
0
0
0
0
0
0
0
0
0
0
0
0
0
0
0
0
0
0
0
-0.4203112882
3.297306166e-09
2.662933785e-09
2.188317824e-09
1.832749883e-09
1.588661763e-09
1.417385329e-09
1.296629004e-09
1.207639667e-09
1.134628768e-09
1.064526275e-09
9.86322022e-10
8.904688864e-10
7.684960561e-10
6.126133676e-10
4.154751718e-10
1.696562737e-10
-1.327455328e-10
-5.006349043e-10
-9.440846316e-10
-1.474341301e-09
-2.103666512e-09
-2.845359737e-09
-3.713875597e-09
-4.725099361e-09
-5.896258439e-09
-7.245561806e-09
-8.791720798e-09
-1.055379041e-08
-1.255151461e-08
-1.480578165e-08
-1.733844961e-08
-2.017150915e-08
-2.332611741e-08
-2.682240241e-08
-3.06799721e-08
-3.49181331e-08
-3.955486701e-08
-4.460545322e-08
-5.008253657e-08
-5.599888182e-08
-6.237120795e-08
-6.922235855e-08
-7.658069107e-08
-8.447952365e-08
-9.296152359e-08
-1.020894867e-07
-1.119607946e-07
-1.227189026e-07
-1.345623176e-07
-1.4775376e-07
-1.626368098e-07
-1.796656366e-07
-1.994103219e-07
-2.225661013e-07
-2.490490698e-07
-2.719166152e-07
-2.798892542e-07
-9.996027491e-07
-1.025355566e-06
-1.724142667e-06
-0.4379376621
0
0
0
0
0
0
0
0
0
0
0
0
0
0
0
0
0
0
0
0
0
0
0
0
0
0
0
0
0
0
0
0
0
0
0
0
0
0
0
0
0
0
0
0
0
0
0
0
0
0
0
0
0
0
0
0
0
0
0
2.851839103e-09
2.195609022e-09
1.72800758e-09
1.399535895e-09
1.193722652e-09
1.06644451e-09
9.907770552e-10
9.448815984e-10
9.111079108e-10
8.754094313e-10
8.264638429e-10
7.549325162e-10
6.527863324e-10
5.129342472e-10
3.286705847e-10
9.321319785e-11
-2.00977969e-10
-5.625361276e-10
-1.001438117e-09
-1.5287849e-09
-2.156675207e-09
-2.89804858e-09
-3.767028111e-09
-4.779008393e-09
-5.950851912e-09
-7.300380364e-09
-8.846011463e-09
-1.060652964e-08
-1.260148561e-08
-1.48515367e-08
-1.737831927e-08
-2.020355739e-08
-2.334813284e-08
-2.683178874e-08
-3.067361563e-08
-3.489218076e-08
-3.950495048e-08
-4.45274059e-08
-4.997384495e-08
-5.586021101e-08
-6.220764725e-08
-6.904434138e-08
-7.64054973e-08
-8.433464886e-08
-9.289037135e-08
-1.021597645e-07
-1.122742352e-07
-1.234239446e-07
-1.358705052e-07
-1.499689506e-07
-1.662176205e-07
-1.853929675e-07
-2.088834456e-07
-2.395512873e-07
-2.831118824e-07
-3.479423038e-07
-4.326073483e-07
-2.727973865e-07
-4.270448115e-07
-0.007664350195
3040.379953
0
0
0
0
0
0
0
0
0
0
0
0
0
0
0
0
0
0
0
0
0
0
0
0
0
0
0
0
0
0
0
0
0
0
0
0
0
0
0
0
0
0
0
0
0
0
0
0
0
0
0
0
0
0
0
0
0
0
0
2.207413597e-09
1.541983958e-09
1.105150727e-09
8.32361709e-10
6.927638175e-10
6.339713249e-10
6.235244791e-10
6.366129316e-10
6.542487445e-10
6.620837338e-10
6.491947889e-10
6.070130743e-10
5.285475266e-10
4.077366159e-10
2.388397055e-10
1.575037692e-11
-2.685449894e-10
-6.22434216e-10
-1.05563631e-09
-1.579015527e-09
-2.204209304e-09
-2.943698206e-09
-3.810984827e-09
-4.821049411e-09
-5.990292888e-09
-7.336248053e-09
-8.876997018e-09
-1.063102687e-08
-1.261750582e-08
-1.485670275e-08
-1.73697403e-08
-2.017775436e-08
-2.330080043e-08
-2.675759565e-08
-3.056581422e-08
-3.474253457e-08
-3.930389277e-08
-4.426493279e-08
-4.964050163e-08
-5.544788509e-08
-6.170965798e-08
-6.84553821e-08
-7.572249015e-08
-8.355960606e-08
-9.203588528e-08
-1.01256338e-07
-1.113801446e-07
-1.226379009e-07
-1.353505934e-07
-1.499553403e-07
-1.670421049e-07
-1.873942879e-07
-2.119785733e-07
-2.416939047e-07
-2.759581761e-07
-3.078770442e-07
-3.112124128e-07
-1.78369545e-07
1.080713881e-07
-0.003093894075
1227.451359
0
0
0
0
0
0
0
0
0
0
0
0
0
0
0
0
0
0
0
0
0
0
0
0
0
0
0
0
0
0
0
0
0
0
0
0
0
0
0
0
0
0
0
0
0
0
0
0
0
0
0
0
0
0
0
0
0
0
0
1.2960063e-09
6.392224795e-10
2.720497535e-10
9.965562198e-11
6.819377011e-11
1.122470811e-10
1.931171947e-10
2.842069752e-10
3.668052745e-10
4.277536495e-10
4.576606876e-10
4.496514376e-10
3.983956838e-10
2.993079755e-10
1.478122665e-10
-6.131250207e-11
-3.345641566e-10
-6.798876707e-10
-1.106660924e-09
-1.625207644e-09
-2.24657712e-09
-2.982525647e-09
-3.845983184e-09
-4.851414851e-09
-6.014933725e-09
-7.353748895e-09
-8.88564943e-09
-1.06286443e-08
-1.260135444e-08
-1.482332676e-08
-1.731487629e-08
-2.0096049e-08
-2.318560502e-08
-2.660045861e-08
-3.03562354e-08
-3.446772826e-08
-3.894923238e-08
-4.381446147e-08
-4.907748227e-08
-5.475446815e-08
-6.086594911e-08
-6.743834355e-08
-7.450598648e-08
-8.211623805e-08
-9.034027693e-08
-9.928926646e-08
-1.091326757e-07
-1.201169165e-07
-1.325853027e-07
-1.469988227e-07
-1.639356636e-07
-1.839978632e-07
-2.074223161e-07
-2.329164665e-07
-2.547528907e-07
-2.568574899e-07
-2.038123259e-07
-1.547739179e-08
4.20836906e-07
-0.001708754439
677.9935184
0
0
0
0
0
0
0
0
0
0
0
0
0
0
0
0
0
0
0
0
0
0
0
0
0
0
0
0
0
0
0
0
0
0
0
0
0
0
0
0
0
0
0
0
0
0
0
0
0
0
0
0
0
0
0
0
0
0
0
2.682848872e-11
-5.889739393e-10
-8.306727783e-10
-8.338225189e-10
-6.968016053e-10
-5.030736762e-10
-2.978735836e-10
-1.068071663e-10
5.507148479e-11
1.78358278e-10
2.570966536e-10
2.872850467e-10
2.660002104e-10
1.905565401e-10
5.77943356e-11
-1.36517535e-10
-3.981800729e-10
-7.346191519e-10
-1.154551446e-09
-1.667633744e-09
-2.284075671e-09
-3.014910983e-09
-3.87243306e-09
-4.870800374e-09
-6.025834571e-09
-7.354540325e-09
-8.87423361e-09
-1.060228758e-08
-1.255642568e-08
-1.475518756e-08
-1.721763243e-08
-1.996238773e-08
-2.300630136e-08
-2.636403242e-08
-3.00484496e-08
-3.407166181e-08
-3.844538631e-08
-4.318118166e-08
-4.829056587e-08
-5.378598761e-08
-5.968205326e-08
-6.599733788e-08
-7.275736365e-08
-8.00009495e-08
-8.779103836e-08
-9.622921799e-08
-1.054715303e-07
-1.157450977e-07
-1.273684059e-07
-1.407739699e-07
-1.56511436e-07
-1.751577992e-07
-1.96942968e-07
-2.206299402e-07
-2.406987747e-07
-2.416033736e-07
-1.892276936e-07
-3.895026397e-09
4.307288434e-07
-0.00170751904
677.5055455
0
0
0
0
0
0
0
0
0
0
0
0
0
0
0
0
0
0
0
0
0
0
0
0
0
0
0
0
0
0
0
0
0
0
0
0
0
0
0
0
0
0
0
0
0
0
0
0
0
0
0
0
0
0
0
0
0
0
0
-1.680583233e-09
-2.222884455e-09
-2.251091918e-09
-1.995664102e-09
-1.608697564e-09
-1.206920397e-09
-8.391129034e-10
-5.2471489e-10
-2.701020687e-10
-7.681253031e-11
5.505693598e-11
1.259064535e-10
1.359822645e-10
8.492195351e-11
-2.881901455e-11
-2.083680435e-10
-4.586635117e-10
-7.863633461e-10
-1.199409505e-09
-1.706525203e-09
-2.317080971e-09
-3.041354146e-09
-3.891227405e-09
-4.880572572e-09
-6.025102979e-09
-7.341460382e-09
-8.846369484e-09
-1.05562362e-08
-1.248759186e-08
-1.465754284e-08
-1.7083657e-08
-1.97826705e-08
-2.276924732e-08
-2.60552644e-08
-2.965058022e-08
-3.356405605e-08
-3.780437993e-08
-4.237970478e-08
-4.729714917e-08
-5.25624365e-08
-5.818068187e-08
-6.415827514e-08
-7.050692168e-08
-7.725007698e-08
-8.443240496e-08
-9.213030742e-08
-1.004628438e-07
-1.096037473e-07
-1.198005051e-07
-1.314053539e-07
-1.449185378e-07
-1.610388302e-07
-1.806951162e-07
-2.049044586e-07
-2.335558429e-07
-2.619355324e-07
-2.673783629e-07
-1.420261531e-07
1.368846393e-07
-0.003090292719
1226.028988
0
0
0
0
0
0
0
0
0
0
0
0
0
0
0
0
0
0
0
0
0
0
0
0
0
0
0
0
0
0
0
0
0
0
0
0
0
0
0
0
0
0
0
0
0
0
0
0
0
0
0
0
0
0
0
0
0
0
0
-3.908354212e-09
-4.290460624e-09
-4.002405755e-09
-3.366896566e-09
-2.644353354e-09
-1.973015715e-09
-1.40625877e-09
-9.490348422e-10
-5.921561848e-10
-3.249241662e-10
-1.386513521e-10
-2.716065924e-11
1.370209135e-11
-1.386443659e-11
-1.096137467e-10
-2.754458449e-10
-5.153073759e-10
-8.349290259e-10
-1.24129005e-09
-1.742179872e-09
-2.346094883e-09
-3.062786335e-09
-3.903824983e-09
-4.883013072e-09
-6.015861464e-09
-7.318571212e-09
-8.806918395e-09
-1.049603795e-08
-1.240087943e-08
-1.453696545e-08
-1.692001459e-08
-1.956480858e-08
-2.248346994e-08
-2.568496821e-08
-2.91757165e-08
-3.296108971e-08
-3.704588166e-08
-4.143372169e-08
-4.612521711e-08
-5.111678884e-08
-5.640078548e-08
-6.196813893e-08
-6.781279124e-08
-7.393800238e-08
-8.036259626e-08
-8.712686844e-08
-9.429676453e-08
-1.019700019e-07
-1.102888696e-07
-1.19467928e-07
-1.298489437e-07
-1.420420522e-07
-1.573197911e-07
-1.785470336e-07
-2.122613261e-07
-2.7044656e-07
-3.563387929e-07
-2.095074217e-07
-3.8223458e-07
-0.007658710356
3038.152609
0
0
0
0
0
0
0
0
0
0
0
0
0
0
0
0
0
0
0
0
0
0
0
0
0
0
0
0
0
0
0
0
0
0
0
0
0
0
0
0
0
0
0
0
0
0
0
0
0
0
0
0
0
0
0
0
0
0
0
-6.702264573e-09
-6.78456578e-09
-5.989591319e-09
-4.857675671e-09
-3.716813052e-09
-2.738145449e-09
-1.953808848e-09
-1.347478662e-09
-8.883790084e-10
-5.49773543e-10
-3.125397055e-10
-1.637994041e-10
-9.526477826e-11
-1.020845601e-10
-1.82284715e-10
-3.364675738e-10
-5.6751279e-10
-8.801333502e-10
-1.28031955e-09
-1.77497138e-09
-2.37196259e-09
-3.080659911e-09
-3.912568851e-09
-4.88139327e-09
-6.002393425e-09
-7.29098206e-09
-8.761725806e-09
-1.042809718e-08
-1.23033556e-08
-1.4401165e-08
-1.673551567e-08
-1.931900225e-08
-2.216125976e-08
-2.526804648e-08
-2.864223838e-08
-3.228512287e-08
-3.619694202e-08
-4.037528412e-08
-4.481245879e-08
-4.949321081e-08
-5.439509368e-08
-5.949140314e-08
-6.475640091e-08
-7.017001498e-08
-7.57213552e-08
-8.140925158e-08
-8.724231449e-08
-9.324050727e-08
-9.944335977e-08
-1.059227097e-07
-1.127977204e-07
-1.202552715e-07
-1.286048962e-07
-1.382739487e-07
-1.500366744e-07
-1.598920098e-07
-1.638106695e-07
-8.993107745e-07
-9.735792672e-07
-1.695510285e-06
-0.4380379498
0
0
0
0
0
0
0
0
0
0
0
0
0
0
0
0
0
0
0
0
0
0
0
0
0
0
0
0
0
0
0
0
0
0
0
0
0
0
0
0
0
0
0
0
0
0
0
0
0
0
0
0
0
0
0
0
0
0
0
-1.033813387e-08
-9.667598527e-09
-8.035743718e-09
-6.253754082e-09
-4.670417574e-09
-3.392304102e-09
-2.412140708e-09
-1.676466194e-09
-1.130894138e-09
-7.332610598e-10
-4.54560567e-10
-2.759974275e-10
-1.856648971e-10
-1.764716948e-10
-2.448952415e-10
-3.903936933e-10
-6.147978557e-10
-9.218784197e-10
-1.316750124e-09
-1.805663846e-09
-2.39606306e-09
-3.097234925e-09
-3.920653272e-09
-4.879959674e-09
-5.989838453e-09
-7.264646499e-09
-8.717324751e-09
-1.03595937e-08
-1.220283964e-08
-1.425914822e-08
-1.654069324e-08
-1.905813656e-08
-2.181837802e-08
-2.482392598e-08
-2.807362277e-08
-3.156427822e-08
-3.529058432e-08
-3.924303423e-08
-4.340399269e-08
-4.774520755e-08
-5.222803055e-08
-5.680748573e-08
-6.143703272e-08