/*--------------------------------*- C++ -*----------------------------------*\
  =========                 |
  \\      /  F ield         | OpenFOAM: The Open Source CFD Toolbox
   \\    /   O peration     | Website:  https://openfoam.org
    \\  /    A nd           | Version:  6
     \\/     M anipulation  |
\*---------------------------------------------------------------------------*/
FoamFile
{
    version     2.0;
    format      ascii;
    class       surfaceScalarField;
    location    "0.0018";
    object      phi;
}
// * * * * * * * * * * * * * * * * * * * * * * * * * * * * * * * * * * * * * //

dimensions      [0 3 -1 0 0 0 0];

internalField   nonuniform List<scalar> 
19000
(
-5.891304649e-20
4.005307087e-21
-5.894082564e-20
4.085665829e-21
-5.898464914e-20
4.252634319e-21
-5.904661126e-20
4.493079966e-21
-5.912320159e-20
4.792724455e-21
-5.921560804e-20
5.138137552e-21
-5.932678479e-20
5.516254148e-21
-5.945762516e-20
5.915028458e-21
-5.96102874e-20
6.322878201e-21
-5.978461643e-20
6.729345064e-21
-5.998154542e-20
7.124479905e-21
-6.019958341e-20
7.499463771e-21
-6.043836012e-20
7.845942283e-21
-6.069515903e-20
8.156613899e-21
-6.096855049e-20
8.42454362e-21
-6.125489032e-20
8.643757256e-21
-6.155200715e-20
8.808551813e-21
-6.185569689e-20
8.914095119e-21
-6.216354306e-20
8.955685613e-21
-6.247149391e-20
8.929305392e-21
-6.277781123e-20
8.830826104e-21
-6.307964246e-20
8.656558274e-21
-6.337699959e-20
8.402461952e-21
-6.366932866e-20
8.064701954e-21
-6.395965968e-20
7.63878821e-21
-6.425143762e-20
7.119970051e-21
-6.455303943e-20
6.502151024e-21
-6.48748113e-20
5.778107533e-21
-6.523360363e-20
4.938352592e-21
-6.564960115e-20
3.971454855e-21
-6.615072193e-20
2.863006133e-21
-6.676958125e-20
1.595885655e-21
-6.75483328e-20
1.489439782e-22
-6.853597512e-20
-1.503057903e-21
-6.979300598e-20
-3.390826043e-21
-7.138785063e-20
-5.550164468e-21
-7.340034431e-20
-8.022568675e-21
-7.59172274e-20
-1.085402433e-20
-7.903496606e-20
-1.409490803e-20
-8.285420363e-20
-1.779799298e-20
-8.748036778e-20
-2.201698826e-20
-9.301472053e-20
-2.680233139e-20
-9.955130753e-20
-3.219686746e-20
-1.071652652e-19
-3.822854331e-20
-1.159081577e-19
-4.490292978e-20
-1.257952249e-19
-5.219244472e-20
-1.367991641e-19
-6.002473257e-20
-1.488355307e-19
-6.826720431e-20
-1.617559589e-19
-7.67113075e-20
-1.753368012e-19
-8.505588225e-20
-1.892806156e-19
-9.289636339e-20
-2.032154853e-19
-9.972271593e-20
-2.167043935e-19
-1.049376453e-19
-2.292433778e-19
-1.079042742e-19
-2.402539682e-19
-1.080392847e-19
-2.490416914e-19
-1.049531998e-19
-2.547369017e-19
-9.862292065e-20
-2.562543674e-19
-8.953282013e-20
-2.524251142e-19
-7.866114818e-20
-2.423923098e-19
-6.714462053e-20
-2.259859395e-19
-5.572501432e-20
-2.013482937e-19
-4.524679383e-20
-1.512498956e-19
-4.15382353e-20
-2.334055648e-20
-6.73566299e-20
2.480620904e-19
-1.090243151e-19
5.376428529e-19
-1.059973024e-19
-3.346285364e-20
7.097304534e-19
1.424621512e-20
-8.116922695e-20
1.648380949e-20
-1.59295223e-20
1.44672978e-20
2.145351505e-21
1.580327842e-20
9.307594953e-21
2.120006135e-20
1.243603808e-20
2.444207326e-20
1.147670365e-20
2.526655995e-20
8.98256696e-21
2.582267415e-20
6.764234096e-21
2.686175216e-20
4.836543827e-21
2.823050869e-20
2.751599576e-21
2.95139423e-20
1.960561282e-22
3.029403337e-20
-2.920712261e-21
3.022520706e-20
-6.507940965e-21
2.912836824e-20
-1.033205878e-20
2.703173885e-20
-1.409248917e-20
2.410986081e-20
-1.751414872e-20
2.060995122e-20
-2.040024821e-20
1.679268315e-20
-2.264848615e-20
1.288551333e-20
-2.424701863e-20
9.046033452e-21
-2.525538268e-20
5.35008324e-21
-2.577358337e-20
1.797070167e-21
-2.590907328e-20
-1.668078704e-21
-2.574849068e-20
-5.129917714e-21
-2.533906974e-20
-8.671945725e-21
-2.467932462e-20
-1.234918001e-20
-2.371965156e-20
-1.61602646e-20
-2.237180807e-20
-2.002920261e-20
-2.052848004e-20
-2.379810218e-20
-1.809132013e-20
-2.724326257e-20
-1.500438935e-20
-3.011050184e-20
-1.128418973e-20
-3.216526463e-20
-7.038144273e-21
-3.324891595e-20
-2.466887916e-21
-3.3353379e-20
2.152633384e-21
-3.267804752e-20
6.520577974e-21
-3.158969889e-20
1.040551791e-20
-3.052597909e-20
1.371891232e-20
-2.992223736e-20
1.65513106e-20
-2.995282958e-20
1.921148704e-20
-2.989252619e-20
2.213575772e-20
-2.762739868e-20
2.528952898e-20
-2.345250023e-20
2.683787926e-20
-2.356591931e-20
2.419677859e-20
-2.718354163e-20
1.735063338e-20
-2.653920468e-20
-7.115230914e-22
1.994099956e-20
-6.64222637e-20
-7.550037183e-19
7.234796361e-19
-8.81769744e-19
-7.079722793e-19
-7.946871167e-19
-1.903432679e-18
-5.25790188e-19
-2.686647895e-18
-1.943954443e-19
-2.815101152e-18
3.857809511e-20
-1.982519627e-18
1.693447441e-31
-5.820274217e-20
4.304445735e-21
-5.823622129e-20
4.391221301e-21
-5.82896617e-20
4.571225465e-21
-5.836549172e-20
4.830381387e-21
-5.846010257e-20
5.153145905e-21
-5.857498165e-20
5.525099664e-21
-5.871284465e-20
5.932006915e-21
-5.887482379e-20
6.360951066e-21
-5.90627699e-20
6.799299448e-21
-5.927670571e-20
7.235852096e-21
-5.951720393e-20
7.659729371e-21
-5.978291888e-20
8.061492162e-21
-6.007310106e-20
8.43196245e-21
-6.03851674e-20
8.763326496e-21
-6.071728752e-20
9.047929734e-21
-6.106593308e-20
9.279399673e-21
-6.142851577e-20
9.451434981e-21
-6.1800985e-20
9.55892892e-21
-6.21805992e-20
9.596711778e-21
-6.256361601e-20
9.560635215e-21
-6.294815092e-20
9.446269975e-21
-6.333186298e-20
9.249994166e-21
-6.371485238e-20
8.967698195e-21
-6.40974183e-20
8.595875903e-21
-6.448322088e-20
8.13023525e-21
-6.487736725e-20
7.566625313e-21
-6.528991073e-20
6.899426785e-21
-6.573405789e-20
6.122325556e-21
-6.622958583e-20
5.226668447e-21
-6.68008817e-20
4.20231661e-21
-6.748041264e-20
3.036028513e-21
-6.830715082e-20
1.712146759e-21
-6.933057589e-20
2.105912885e-22
-7.060927767e-20
-1.492850183e-21
-7.221440979e-20
-3.428635747e-21
-7.422717583e-20
-5.632869389e-21
-7.674112071e-20
-8.148851733e-21
-7.985883595e-20
-1.10259992e-20
-8.369350384e-20
-1.432107564e-20
-8.836403388e-20
-1.809668182e-20
-9.39935736e-20
-2.242147467e-20
-1.007005409e-19
-2.736689394e-20
-1.085930308e-19
-3.300504086e-20
-1.177567177e-19
-3.940279416e-20
-1.282469421e-19
-4.661666259e-20
-1.400744744e-19
-5.468298262e-20
-1.531951002e-19
-6.360735827e-20
-1.674937227e-19
-7.334799635e-20
-1.8277595e-19
-8.379768323e-20
-1.98761443e-19
-9.476103699e-20
-2.150939466e-19
-1.059344641e-19
-2.313612186e-19
-1.1688946e-19
-2.471364834e-19
-1.270739595e-19
-2.620274929e-19
-1.3584403e-19
-2.757287397e-19
-1.425530765e-19
-2.880394437e-19
-1.467149605e-19
-2.988401707e-19
-1.482468675e-19
-3.080783586e-19
-1.477179804e-19
-3.160603089e-19
-1.46347195e-19
-3.248747311e-19
-1.450627585e-19
-3.424999919e-19
-1.415185882e-19
-3.89201416e-19
-1.237102256e-19
-4.950446269e-19
-6.662221814e-20
-6.907201847e-19
1.12726109e-20
-3.435132218e-19
-2.382711634e-19
-1.102074279e-19
5.557804788e-31
2.489500689e-19
3.505764257e-19
7.948592034e-20
8.829833342e-20
3.455868334e-20
2.900103268e-20
2.162954139e-20
1.507794186e-20
1.893172158e-20
1.20088163e-20
2.024072705e-20
1.113045378e-20
2.194793677e-20
9.772788788e-21
2.304822718e-20
7.885729625e-21
2.389498405e-20
5.921075272e-21
2.477680809e-20
3.958790297e-21
2.567496539e-20
1.857718341e-21
2.63971741e-20
-5.215776271e-22
2.670680481e-20
-3.225910509e-21
2.640108947e-20
-6.197741791e-21
2.536793803e-20
-9.294702088e-21
2.361007936e-20
-1.233044873e-20
2.122376157e-20
-1.512416305e-20
1.836171341e-20
-1.753495267e-20
1.519415063e-20
-1.947866912e-20
1.18771495e-20
-2.09285629e-20
8.527832812e-21
-2.190572201e-20
5.214593205e-21
-2.246050258e-20
1.957652933e-21
-2.265266746e-20
-1.258657772e-21
-2.253240703e-20
-4.470172774e-21
-2.212779309e-20
-7.712272564e-21
-2.143746713e-20
-1.10013366e-20
-2.043143209e-20
-1.431693678e-20
-1.905754672e-20
-1.759204271e-20
-1.725553222e-20
-2.071117155e-20
-1.497490782e-20
-2.352306318e-20
-1.219589649e-20
-2.58644565e-20
-8.946559758e-21
-2.759400848e-20
-5.312759953e-21
-2.862939484e-20
-1.435700904e-21
-2.898543462e-20
2.504521626e-21
-2.879310779e-20
6.324329017e-21
-2.82763046e-20
9.884816073e-21
-2.769358107e-20
1.313236363e-20
-2.726206111e-20
1.611593678e-20
-2.702855896e-20
1.897430756e-20
-2.673875524e-20
2.184239552e-20
-2.607904857e-20
2.462655261e-20
-2.609360089e-20
2.684939008e-20
-3.041206481e-20
2.851226398e-20
-4.524569821e-20
3.218102885e-20
-9.224994586e-20
4.629043168e-20
-2.634697033e-19
1.047940748e-19
9.645824352e-20
3.635496453e-19
-1.191204143e-19
6.332622565e-31
-1.862685623e-19
-1.594977013e-18
-3.603992052e-19
-2.438670919e-18
-1.678393333e-19
-2.997702437e-18
5.378350446e-20
-2.292205898e-18
2.198989297e-31
-5.743765271e-20
4.627490363e-21
-5.747742294e-20
4.721172253e-21
-5.754118568e-20
4.915626761e-21
-5.763215969e-20
5.195228036e-21
-5.774623947e-20
5.543581702e-21
-5.788563213e-20
5.944711811e-21
-5.80523922e-20
6.383634867e-21
-5.8248313e-20
6.8459906e-21
-5.847450463e-20
7.318533657e-21
-5.873159964e-20
7.788747123e-21
-5.901936818e-20
8.245274654e-21
-5.933705238e-20
8.677473999e-21
-5.968307002e-20
9.075812988e-21
-6.005541197e-20
9.431386479e-21
-6.045137234e-20
9.736308608e-21
-6.086796437e-20
9.983237558e-21
-6.13016928e-20
1.016577973e-20
-6.174907075e-20
1.027799499e-20
-6.220651575e-20
1.031477611e-20
-6.26709747e-20
1.027130645e-20
-6.313986034e-20
1.014342155e-20
-6.361168443e-20
9.927069951e-21
-6.408603813e-20
9.618693092e-21
-6.456439849e-20
9.21466994e-21
-6.505043951e-20
8.711603222e-21
-6.555123288e-20
8.105597081e-21
-6.607784605e-20
7.392353976e-21
-6.664658922e-20
6.566323131e-21
-6.727946136e-20
5.620788237e-21
-6.800532266e-20
4.547050491e-21
-6.886061236e-20
3.334461495e-21
-6.989115982e-20
1.969327033e-21
-7.115350062e-20
4.344782509e-22
-7.271668511e-20
-1.292250959e-21
-7.466276281e-20
-3.23859005e-21
-7.708733549e-20
-5.439167144e-21
-8.009902965e-20
-7.935794113e-21
-8.381947207e-20
-1.077870285e-20
-8.838197171e-20
-1.402693456e-20
-9.392944182e-20
-1.774953315e-20
-1.006093855e-19
-2.202537792e-20
-1.085671387e-19
-2.694317755e-20
-1.17936366e-19
-3.259966566e-20
-1.288285515e-19
-3.909759323e-20
-1.413200618e-19
-4.654121042e-20
-1.554377574e-19
-5.503002221e-20
-1.711418511e-19
-6.464772381e-20
-1.883089615e-19
-7.544669385e-20
-2.067180524e-19
-8.74252298e-20
-2.260467288e-19
-1.004986004e-19
-2.458841482e-19
-1.144624598e-19
-2.657703701e-19
-1.289531253e-19
-2.852695483e-19
-1.434119844e-19
-3.040804001e-19
-1.570744746e-19
-3.221653627e-19
-1.69014553e-19
-3.398476644e-19
-1.782970508e-19
-3.57777659e-19
-1.843021368e-19
-3.766372721e-19
-1.872562737e-19
-3.965443825e-19
-1.887732841e-19
-4.172265641e-19
-1.916046115e-19
-4.420070638e-19
-1.953484569e-19
-4.948832953e-19
-1.810470681e-19
-6.616899467e-19
-7.0058319e-20
-8.842065254e-19
3.504955511e-19
-1.612442184e-18
7.712486542e-19
-2.663804473e-19
-7.848970613e-19
-1.332802367e-20
9.752773001e-20
2.01886189e-20
5.478477813e-20
2.063559252e-20
2.855704914e-20
1.85604159e-20
1.715611494e-20
1.805335899e-20
1.251895843e-20
1.888306206e-20
1.030386189e-20
2.006087765e-20
8.598188021e-21
2.108357277e-20
6.866347027e-21
2.193269907e-20
5.075559602e-21
2.267573614e-20
3.219654281e-21
2.329566941e-20
1.242040739e-21
2.369284122e-20
-9.143962381e-22
2.373497348e-20
-3.263649051e-21
2.33041292e-20
-5.762686852e-21
2.233219139e-20
-8.318642445e-21
2.081636494e-20
-1.081076042e-20
1.881297204e-20
-1.311714881e-20
1.641799695e-20
-1.513693838e-20
1.374425672e-20
-1.680254962e-20
1.089999051e-20
-1.808286207e-20
7.973052241e-21
-1.897812666e-20
5.022428185e-21
-1.950989622e-20
2.077913498e-21
-1.970833692e-20
-8.540438316e-22
-1.960066237e-20
-3.779846938e-21
-1.920211555e-20
-6.706237393e-21
-1.851150413e-20
-9.62745123e-21
-1.751111831e-20
-1.251492238e-20
-1.617170459e-20
-1.53114182e-20
-1.446126104e-20
-1.793216023e-20
-1.235699132e-20
-2.027372648e-20
-9.857582767e-21
-2.223065663e-20
-6.993317973e-21
-2.371694943e-20
-3.830387707e-21
-2.468917228e-20
-4.675012974e-22
-2.516562724e-20
2.977061993e-21
-2.523262073e-20
6.387469821e-21
-2.502875695e-20
9.677106623e-21
-2.4710008e-20
1.280968902e-20
-2.440369033e-20
1.580578987e-20
-2.416047086e-20
1.872751102e-20
-2.395459827e-20
2.16332837e-20
-2.38562111e-20
2.45251399e-20
-2.443072682e-20
2.742114641e-20
-2.674330009e-20
3.08221899e-20
-3.113629538e-20
3.657160813e-20
-3.374630189e-20
4.88974437e-20
-4.714132661e-21
7.575777349e-20
2.396580407e-19
1.191759169e-19
1.291972897e-18
-7.592877698e-19
1.450930607e-20
2.239836017e-19
-3.497869121e-19
-1.656419055e-18
-2.375762977e-19
-3.09441006e-18
5.147994046e-20
-2.666623237e-18
3.002714842e-31
-5.661300216e-20
4.975322404e-21
-5.66593348e-20
5.076763065e-21
-5.673448525e-20
5.286927124e-21
-5.684159231e-20
5.589145477e-21
-5.697694979e-20
5.965512267e-21
-5.714261293e-20
6.398983112e-21
-5.734086497e-20
6.873169049e-21
-5.757326679e-20
7.372772955e-21
-5.784108919e-20
7.883276485e-21
-5.814466669e-20
8.391363804e-21
-5.848388648e-20
8.884536399e-21
-5.885765246e-20
9.351483632e-21
-5.926447285e-20
9.781650455e-21
-5.970196372e-20
1.016558991e-20
-6.016745891e-20
1.049452392e-20
-6.065753503e-20
1.076071044e-20
-6.116869817e-20
1.095700364e-20
-6.169701432e-20
1.107721807e-20
-6.223894755e-20
1.111565304e-20
-6.279107376e-20
1.106743382e-20
-6.33509458e-20
1.09280264e-20
-6.391680975e-20
1.069359424e-20
-6.448855173e-20
1.036052969e-20
-6.506766299e-20
9.925791745e-21
-6.565859041e-20
9.38634441e-21
-6.626912538e-20
8.739346036e-21
-6.691200346e-20
7.981434485e-21
-6.760525972e-20
7.108830114e-21
-6.837367534e-20
6.116610302e-21
-6.924917859e-20
4.998811922e-21
-7.027281025e-20
3.747560379e-21
-7.149597593e-20
2.352812727e-21
-7.298304469e-20
8.009887608e-22
-7.481242662e-20
-9.257008652e-22
-7.707815053e-20
-2.850772596e-21
-7.988970235e-20
-5.004092226e-21
-8.337284572e-20
-7.423404435e-21
-8.76691553e-20
-1.015526285e-20
-9.293601466e-20
-1.325708188e-20
-9.934374078e-20
-1.679845906e-20
-1.070713874e-19
-2.08631689e-20
-1.162988222e-19
-2.554999382e-20
-1.271976524e-19
-3.097394001e-20
-1.399187756e-19
-3.726596346e-20
-1.545783017e-19
-4.457213554e-20
-1.712388579e-19
-5.304937288e-20
-1.89888467e-19
-6.285754679e-20
-2.104166024e-19
-7.414421205e-20
-2.325940277e-19
-8.702088242e-20
-2.56061382e-19
-1.015260573e-19
-2.803389079e-19
-1.175728054e-19
-3.048699732e-19
-1.348772215e-19
-3.291194612e-19
-1.528722069e-19
-3.527411799e-19
-1.706183605e-19
-3.758146479e-19
-1.867466791e-19
-3.990976731e-19
-1.995064426e-19
-4.241111904e-19
-2.070711054e-19
-4.524952779e-19
-2.083532884e-19
-4.835345701e-19
-2.046786388e-19
-5.07410804e-19
-2.01977626e-19
-4.916159533e-19
-2.113140587e-19
-3.703706377e-19
-2.385415907e-19
-1.437037137e-19
-2.529085409e-19
4.038390183e-19
-1.084223894e-19
2.884155393e-19
7.341155002e-19
-2.038935316e-19
-2.925848975e-19
-5.607097489e-20
-5.029199791e-20
-6.039110382e-21
4.75552844e-21
9.234658301e-21
1.328583472e-20
1.392325939e-20
1.247016246e-20
1.583826228e-20
1.060671219e-20
1.717738809e-20
8.967659222e-21
1.832903659e-20
7.449564089e-21
1.929278519e-20
5.905813349e-21
2.007679364e-20
4.294973494e-21
2.069812248e-20
2.602088532e-21
2.113923229e-20
8.049198017e-22
2.134358828e-20
-1.114590954e-21
2.123593552e-20
-3.151907455e-21
2.074817351e-20
-5.270915225e-21
1.984007331e-20
-7.40673839e-21
1.850997635e-20
-9.476988899e-21
1.679318245e-20
-1.13970035e-20
1.475238562e-20
-1.309318331e-20
1.246394409e-20
-1.451184278e-20
1.000472597e-20
-1.562209334e-20
7.441282642e-21
-1.641393462e-20
4.823987332e-21
-1.689236208e-20
2.185588153e-21
-1.707001621e-20
-4.554970052e-22
-1.695965987e-20
-3.089235614e-21
-1.65685918e-20
-5.705851425e-21
-1.589538736e-20
-8.288037469e-21
-1.493003661e-20
-1.080447885e-20
-1.365694552e-20
-1.320714831e-20
-1.206084412e-20
-1.543275159e-20
-1.013404387e-20
-1.740946163e-20
-7.883949923e-21
-1.90677262e-20
-5.33845751e-21
-2.035406291e-20
-2.547745291e-21
-2.124460884e-20
4.192683471e-22
-2.175521929e-20
3.483911791e-21
-2.194298381e-20
6.571524934e-21
-2.189617434e-20
9.626501112e-21
-2.171390709e-20
1.262357574e-20
-2.148196907e-20
1.557014159e-20
-2.125469792e-20
1.849689435e-20
-2.106274206e-20
2.143834924e-20
-2.096020448e-20
2.44198461e-20
-2.102968302e-20
2.748806141e-20
-2.099388192e-20
3.078401497e-20
-1.881045974e-20
3.438606624e-20
-6.885971604e-21
3.696992799e-20
3.870401006e-20
3.016491151e-20
1.81132233e-19
-2.325608935e-20
-3.140248316e-19
-2.64131921e-19
-8.110691689e-19
7.615496983e-19
-8.571145704e-19
-9.791650068e-19
-5.058642509e-19
-3.220965156e-18
1.880594315e-20
-3.139966151e-18
4.353829909e-31
-5.572328407e-20
5.34900441e-21
-5.577679626e-20
5.458889208e-21
-5.58641074e-20
5.686409688e-21
-5.598867803e-20
6.013416965e-21
-5.614684053e-20
6.420714638e-21
-5.634089294e-20
6.889774628e-21
-5.657296485e-20
7.403042585e-21
-5.684478057e-20
7.943870557e-21
-5.715738525e-20
8.496717672e-21
-5.751121469e-20
9.047059099e-21
-5.79058814e-20
9.581511152e-21
-5.834035242e-20
1.008768535e-20
-5.88128176e-20
1.055427361e-20
-5.932090464e-20
1.097088496e-20
-5.986155551e-20
1.132813252e-20
-6.04312851e-20
1.161747314e-20
-6.102614067e-20
1.183130506e-20
-6.164209871e-20
1.196279305e-20
-6.227516836e-20
1.200594419e-20
-6.292186402e-20
1.195542648e-20
-6.35793172e-20
1.180664857e-20
-6.424575746e-20
1.155560476e-20
-6.492074464e-20
1.119897818e-20
-6.560596731e-20
1.073396127e-20
-6.630593534e-20
1.015828027e-20
-6.702921491e-20
9.4698955e-21
-6.778932565e-20
8.666920344e-21
-6.860590298e-20
7.747270497e-21
-6.950546748e-20
6.708582648e-21
-7.052280077e-20
5.547812483e-21
-7.170246627e-20
4.260938835e-21
-7.310120921e-20
2.842156003e-21
-7.479010393e-20
1.283096343e-21
-7.685663098e-20
-4.283348191e-22
-7.940573142e-20
-2.30888941e-21
-8.256080741e-20
-4.381231152e-21
-8.646439301e-20
-6.675180368e-21
-9.12791616e-20
-9.229653366e-21
-9.718780381e-20
-1.209481583e-20
-1.043913823e-19
-1.533481122e-20
-1.131047767e-19
-1.903041562e-20
-1.235498453e-19
-2.328207346e-20
-1.359457591e-19
-2.821285008e-20
-1.504968016e-19
-3.397157053e-20
-1.673759163e-19
-4.073496066e-20
-1.867033585e-19
-4.870787938e-20
-2.085192996e-19
-5.811917707e-20
-2.327522265e-19
-6.921077359e-20
-2.591861755e-19
-8.221543008e-20
-2.874339077e-19
-9.731744729e-20
-3.169269219e-19
-1.145877003e-19
-3.469424521e-19
-1.338841942e-19
-3.766966591e-19
-1.547099261e-19
-4.055432685e-19
-1.760251139e-19
-4.333234454e-19
-1.960256594e-19
-4.609064516e-19
-2.119442878e-19
-4.908462786e-19
-2.200373357e-19
-5.2772903e-19
-2.161730375e-19
-5.766180904e-19
-1.977480886e-19
-6.359552452e-19
-1.680338528e-19
-6.798840831e-19
-1.419591826e-19
-6.404842799e-19
-1.521996148e-19
-2.833534166e-19
-2.555720568e-19
-8.582237714e-20
1.339304659e-30
3.350277451e-19
3.132666312e-19
3.839936675e-20
4.045566688e-21
-1.023448843e-21
-1.086696802e-20
2.491195833e-21
1.243049098e-21
8.418986102e-21
7.360253803e-21
1.205980926e-20
8.831678807e-21
1.419920934e-20
8.469862064e-21
1.565929307e-20
7.510311268e-21
1.6785286e-20
6.32648493e-21
1.768194541e-20
5.012221456e-21
1.83839088e-20
3.596302907e-21
1.890095388e-20
2.088568371e-21
1.921972166e-20
4.899093884e-22
1.930627192e-20
-1.197294701e-21
1.911692784e-20
-2.958727476e-21
1.86123505e-20
-4.762645938e-21
1.776982292e-20
-6.560659372e-21
1.658996179e-20
-8.293774111e-21
1.509700281e-20
-9.900912113e-21
1.333372625e-20
-1.132717194e-20
1.135369351e-20
-1.252959717e-20
9.212884848e-21
-1.347975083e-20
6.962855225e-21
-1.416300274e-20
4.646333123e-21
-1.457546457e-20
2.295944608e-21
-1.471952669e-20
-6.44289301e-23
-1.459936921e-20
-2.41603129e-21
-1.421727141e-20
-4.740500611e-21
-1.357161752e-20
-7.014946435e-21
-1.265680577e-20
-9.208377592e-21
-1.146526017e-20
-1.128034806e-20
-9.991005162e-21
-1.318265774e-20
-8.234203458e-21
-1.486396935e-20
-6.205427822e-21
-1.627701407e-20
-3.92857635e-21
-1.73870494e-20
-1.441162481e-21
-1.817996551e-20
1.208591207e-21
-1.86676063e-20
3.967983225e-21
-1.888800777e-20
6.788352853e-21
-1.889909977e-20
9.633937295e-21
-1.876734144e-20
1.248811287e-20
-1.855521645e-20
1.535451626e-20
-1.831324302e-20
1.825181023e-20
-1.808124547e-20
2.120358312e-20
-1.78919893e-20
2.422799515e-20
-1.773372939e-20
2.732735861e-20
-1.739183096e-20
3.04398501e-20
-1.622659811e-20
3.321879945e-20
-1.369098795e-20
3.44319586e-20
-1.471699074e-20
3.118754368e-20
-5.974359679e-20
2.176800036e-20
-3.61655813e-19
3.777964512e-20
5.838817006e-20
3.415056744e-19
-3.209711601e-19
1.608874481e-30
-2.731009311e-19
-2.853115488e-18
1.048336915e-19
-3.568438193e-18
6.968409119e-31
-5.476283364e-20
5.749243669e-21
-5.482398098e-20
5.868494112e-21
-5.492439385e-20
6.115058051e-21
-5.506762964e-20
6.469381348e-21
-5.525031133e-20
6.910697302e-21
-5.54747564e-20
7.419062273e-21
-5.574318835e-20
7.975484557e-21
-5.605726573e-20
8.562047614e-21
-5.641805803e-20
9.161922601e-21
-5.682587424e-20
9.759465235e-21
-5.72803009e-20
1.034014646e-20
-5.778013035e-20
1.089060122e-20
-5.832346977e-20
1.139851776e-20
-5.890769771e-20
1.185267375e-20
-5.952958743e-20
1.224282501e-20
-6.018530688e-20
1.255974851e-20
-6.087065368e-20
1.279512806e-20
-6.158120225e-20
1.294159231e-20
-6.231267335e-20
1.299259377e-20
-6.306115256e-20
1.294244859e-20
-6.382345032e-20
1.278624442e-20
-6.459733776e-20
1.251991763e-20
-6.538207448e-20
1.214018329e-20
-6.617901079e-20
1.16446036e-20
-6.69926194e-20
1.103145525e-20
-6.783152771e-20
1.029971414e-20
-6.870972041e-20
9.448864804e-21
-6.964747962e-20
8.478875264e-21
-7.06725356e-20
7.390004667e-21
-7.182139783e-20
6.182692867e-21
-7.314146426e-20
4.857117782e-21
-7.469349026e-20
3.41267596e-21
-7.655427772e-20
1.847122814e-21
-7.881872796e-20
1.557813188e-22
-8.160148323e-20
-1.669457144e-21
-8.503821448e-20
-3.641145416e-21
-8.928733075e-20
-5.777855134e-21
-9.453161931e-20
-8.106195941e-21
-1.009792371e-19
-1.066360006e-20
-1.08862651e-19
-1.350148176e-20
-1.18435239e-19
-1.668904083e-20
-1.299652431e-19
-2.031758996e-20
-1.437272944e-19
-2.450587614e-20
-1.599904027e-19
-2.940607588e-20
-1.790010218e-19
-3.521014111e-20
-2.009589664e-19
-4.215506363e-20
-2.259850157e-19
-5.052535142e-20
-2.540797754e-19
-6.064949506e-20
-2.850753574e-19
-7.288556003e-20
-3.185836675e-19
-8.75875294e-20
-3.539509243e-19
-1.050403056e-19
-3.902374794e-19
-1.253472238e-19
-4.262555804e-19
-1.482500858e-19
-4.607181145e-19
-1.728573866e-19
-4.925921724e-19
-1.9725517e-19
-5.218153631e-19
-2.179848152e-19
-5.5057315e-19
-2.294251838e-19
-5.850645529e-19
-2.233001485e-19
-6.366320471e-19
-1.895735161e-19
-7.150196759e-19
-1.204178393e-19
-8.220827767e-19
-2.04244715e-20
-7.490404514e-19
1.23670512e-19
-6.444394557e-19
1.227492489e-19
-2.793051938e-19
-5.961946767e-20
2.580667921e-20
8.155617141e-21
2.348683202e-20
6.36691176e-21
1.108656832e-20
1.535009134e-21
8.608400549e-21
3.723019974e-21
9.890411105e-21
6.080163614e-21
1.169799257e-20
7.026228406e-21
1.323965849e-20
6.930577786e-21
1.447546673e-20
6.277123314e-21
1.547102255e-20
5.333726019e-21
1.626602683e-20
4.220170384e-21
1.687617426e-20
2.989271025e-21
1.73022949e-20
1.665760526e-21
1.753251756e-20
2.63163147e-22
1.754483914e-20
-1.206050562e-21
1.731300935e-20
-2.72336941e-21
1.681433709e-20
-4.26055662e-21
1.603670819e-20
-5.779771861e-21
1.498282372e-20
-7.236787555e-21
1.367074304e-20
-8.585944428e-21
1.213130102e-20
-9.785153822e-21
1.040353977e-20
-1.079972629e-20
8.529633014e-21
-1.160429227e-20
6.550393404e-21
-1.218279111e-20
4.502270914e-21
-1.252683867e-20
2.416102172e-21
-1.263319964e-20
3.176688704e-22
-1.250103363e-20
-1.77037748e-21
-1.212964529e-20
-3.825688776e-21
-1.151715169e-20
-5.82340084e-21
-1.066042157e-20
-7.734122635e-21
-9.556245391e-21
-9.523546291e-21
-8.20355234e-21
-1.11538821e-20
-6.606062402e-21
-1.258711789e-20
-4.774713947e-21
-1.378960017e-20
-2.729018656e-21
-1.473729571e-20
-4.967510233e-22
-1.542057346e-20
1.888427276e-21
-1.584723669e-20
4.391209252e-21
-1.604242333e-20
6.980120586e-21
-1.604492411e-20
9.632946924e-21
-1.590093811e-20
1.234062199e-20
-1.565792249e-20
1.51082029e-20
-1.536146998e-20
1.795242673e-20
-1.505683356e-20
2.089628635e-20
-1.479262584e-20
2.396124975e-20
-1.462123772e-20
2.715352797e-20
-1.461288178e-20
3.042921187e-20
-1.501343896e-20
3.361721075e-20
-1.69354027e-20
3.635169615e-20
-2.413653428e-20
3.838628237e-20
-4.373195204e-20
4.136166132e-20
-5.79297807e-20
5.197695725e-20
2.236319448e-19
5.994376479e-20
2.230953934e-19
2.602432632e-21
-3.937051999e-19
-1.14560927e-18
1.93166396e-19
-3.934812012e-18
1.259243513e-30
-5.372539344e-20
6.176614549e-21
-5.379472758e-20
6.306174046e-21
-5.390911313e-20
6.573719956e-21
-5.407231255e-20
6.95808972e-21
-5.428117255e-20
7.436897147e-21
-5.453813364e-20
7.988597759e-21
-5.48454373e-20
8.592726094e-21
-5.520478085e-20
9.229921334e-21
-5.561718427e-20
9.882039458e-21
-5.608293727e-20
1.053215042e-20
-5.66015186e-20
1.116456681e-20
-5.717164402e-20
1.176479099e-20
-5.779124007e-20
1.231950768e-20
-5.845751905e-20
1.281651588e-20
-5.916696686e-20
1.324471857e-20
-5.991547885e-20
1.359405345e-20
-6.069846679e-20
1.385548434e-20
-6.151114502e-20
1.402093092e-20
-6.234877059e-20
1.408326275e-20
-6.320697888e-20
1.403625477e-20
-6.40820088e-20
1.387463119e-20
-6.497107488e-20
1.359406614e-20
-6.587278904e-20
1.319126362e-20
-6.678794687e-20
1.266395538e-20
-6.772047635e-20
1.201094395e-20
-6.86786375e-20
1.123206196e-20
-6.967611108e-20
1.032820581e-20
-7.073312126e-20
9.301317868e-21
-7.187757111e-20
8.154427335e-21
-7.314672567e-20
6.891532302e-21
-7.458947746e-20
5.517377774e-21
-7.626921379e-20
4.036988939e-21
-7.826659133e-20
2.455141349e-21
-8.06819517e-20
7.757262571e-22
-8.363721493e-20
-9.988932104e-22
-8.727795017e-20
-2.868844993e-21
-9.177584505e-20
-4.838174787e-21
-9.733146758e-20
-6.917010563e-21
-1.041761626e-19
-9.124371707e-21
-1.12572251e-19
-1.149169354e-20
-1.22810948e-19
-1.406712005e-20
-1.352082085e-19
-1.692102496e-20
-1.500980856e-19
-2.015309852e-20
-1.678225063e-19
-2.390126385e-20
-1.88715149e-19
-2.835211939e-20
-2.130768698e-19
-3.375220777e-20
-2.411400863e-19
-4.041876248e-20
-2.730199034e-19
-4.874739607e-20
-3.08649944e-19
-5.921182724e-20
-3.477022842e-19
-7.234667521e-20
-3.894956071e-19
-8.869929358e-20
-4.329034695e-19
-1.087300774e-19
-4.762848366e-19
-1.326331892e-19
-5.174767338e-19
-1.600405922e-19
-5.53932732e-19
-1.895617849e-19
-5.83183051e-19
-2.180798082e-19
-6.038682658e-19
-2.395977043e-19
-6.179726309e-19
-2.433576569e-19
-6.327154418e-19
-2.103673162e-19
-6.538827978e-19
-1.118123756e-19
-7.003212729e-19
6.445262372e-20
-2.736409336e-19
2.138495654e-20
1.937552478e-19
6.995615018e-31
4.184462223e-20
9.229109558e-20
2.401797368e-20
2.598291072e-20
1.865492928e-20
1.173112468e-20
1.327457911e-20
6.91679003e-21
1.09655441e-20
6.033625738e-21
1.083647583e-20
6.210972364e-21
1.160234192e-20
6.262345603e-21
1.25862039e-20
5.94898512e-21
1.353206936e-20
5.333778994e-21
1.435746685e-20
4.511036839e-21
1.503512736e-20
3.545350465e-21
1.555266367e-20
2.474702302e-21
1.589969742e-20
1.321827128e-21
1.606330376e-20
1.027796563e-22
1.60275202e-20
-1.166987356e-21
1.577582202e-20
-2.468418821e-21
1.529512178e-20
-3.776710478e-21
1.457969241e-20
-5.061334579e-21
1.363366672e-20
-6.287908877e-21
1.247153362e-20
-7.42114307e-21
1.111672849e-20
-8.427952664e-21
9.598973658e-21
-9.279961182e-21
7.951134202e-21
-9.954927662e-21
6.206345808e-21
-1.043697953e-20
4.395909834e-21
-1.071583068e-20
2.548268251e-21
-1.078535486e-20
6.89057205e-22
-1.064197131e-20
-1.157883941e-21
-1.028324757e-20
-2.968958579e-21
-9.707065763e-21
-4.719224631e-21
-8.911529748e-21
-6.381429594e-21
-7.895659673e-21
-7.926056256e-21
-6.660675525e-21
-9.322533599e-21
-5.211520459e-21
-1.054142256e-20
-3.558116512e-21
-1.155733245e-20
-1.715886044e-21
-1.235211734e-20
2.948588407e-22
-1.291779138e-20
2.450774807e-21
-1.32583253e-20
4.728474364e-21
-1.338959692e-20
7.108170977e-21
-1.333724889e-20
9.577315925e-21
-1.31333572e-20
1.213340879e-20
-1.281369859e-20
1.478539662e-20
-1.241761017e-20
1.755349619e-20
-1.199187021e-20
2.046791749e-20
-1.160034756e-20
2.356716769e-20
-1.134555356e-20
2.689627246e-20
-1.142488303e-20
3.050623164e-20
-1.227895349e-20
3.446909364e-20
-1.490081616e-20
3.897137468e-20
-2.116115543e-20
4.464446022e-20
-3.311665594e-20
5.331576931e-20
-4.99629725e-20
6.88225247e-20
-8.708411271e-20
9.706619499e-20
-2.559771472e-19
1.714961427e-19
-6.896139557e-19
1.299817761e-30
2.730869736e-19
-4.359954906e-18
1.006544421e-30
-5.260429737e-20
6.631312004e-21
-5.268232935e-20
6.772275369e-21
-5.281159886e-20
7.062914465e-21
-5.299604023e-20
7.480372827e-21
-5.323279319e-20
8.000477408e-21
-5.352439541e-20
8.599988331e-21
-5.387316826e-20
9.25680933e-21
-5.428082501e-20
9.950054887e-21
-5.474840031e-20
1.066012151e-20
-5.527613915e-20
1.136872953e-20
-5.586347206e-20
1.205890675e-20
-5.65089993e-20
1.271497593e-20
-5.721051293e-20
1.332250604e-20
-5.79650069e-20
1.386827592e-20
-5.876871898e-20
1.434021841e-20
-5.961720813e-20
1.472737898e-20
-6.050552353e-20
1.501986038e-20
-6.142843112e-20
1.520878939e-20
-6.238070047e-20
1.528628484e-20
-6.335736162e-20
1.524547648e-20
-6.435398209e-20
1.508052733e-20
-6.536697134e-20
1.478671866e-20
-6.63940898e-20
1.436051791e-20
-6.743519514e-20
1.379967458e-20
-6.849328222e-20
1.310327871e-20
-6.95756216e-20
1.227186375e-20
-7.06949195e-20
1.130750278e-20
-7.187040972e-20
1.021396843e-20
-7.312917102e-20
8.996853184e-21
-7.450793852e-20
7.663636603e-21
-7.605564638e-20
6.223583484e-21
-7.783641801e-20
4.687548107e-21
-7.993254248e-20
3.067705996e-21
-8.244703331e-20
1.377316629e-21
-8.550599214e-20
-3.696193412e-22
-8.926131662e-20
-2.158993697e-21
-9.389412505e-20
-3.977812053e-21
-9.961847185e-20
-5.816093056e-21
-1.066843871e-19
-7.669472315e-21
-1.153794013e-19
-9.542525189e-21
-1.260283855e-19
-1.145314828e-20
-1.389918467e-19
-1.343857006e-20
-1.546622953e-19
-1.55636617e-20
-1.734571816e-19
-1.793202913e-20
-1.958058458e-19
-2.070007913e-20
-2.221274197e-19
-2.409408548e-20
-2.527960638e-19
-2.842989006e-20
-2.880891725e-19
-3.413408257e-20
-3.281126176e-19
-4.176298864e-20
-3.726973271e-19
-5.201183096e-20