/*--------------------------------*- C++ -*----------------------------------*\
  =========                 |
  \\      /  F ield         | OpenFOAM: The Open Source CFD Toolbox
   \\    /   O peration     | Website:  https://openfoam.org
    \\  /    A nd           | Version:  6
     \\/     M anipulation  |
\*---------------------------------------------------------------------------*/
FoamFile
{
    version     2.0;
    format      ascii;
    class       volVectorField;
    location    "0.0017";
    object      gradT;
}
// * * * * * * * * * * * * * * * * * * * * * * * * * * * * * * * * * * * * * //

dimensions      [0 -1 0 1 0 0 0];

internalField   nonuniform List<vector> 
600
(
(0 -7.699529494e-07 4.364337263e-07)
(0 -2.311764676e-06 4.107051011e-07)
(0 -3.867870076e-06 3.582949369e-07)
(0 -5.440174986e-06 2.763444992e-07)
(0 -7.041067267e-06 1.543717549e-07)
(0 -8.673405626e-06 -1.524659306e-08)
(0 -1.033719009e-05 -2.487100493e-07)
(0 -1.203242068e-05 -5.650768561e-07)
(0 -1.375623859e-05 -9.910285488e-07)
(0 -1.550387932e-05 -1.574210733e-06)
(0 -1.725723754e-05 -2.383233081e-06)
(0 -1.898772583e-05 -3.532445029e-06)
(0 -2.057813607e-05 -5.226722683e-06)
(0 -2.175688832e-05 -7.75384549e-06)
(0 -2.235245835e-05 -1.096801789e-05)
(0 -1.125675024e-05 -1.039817647e-05)
(0 3.143656909e-06 -1.7057126e-07)
(0 3.266582563e-06 7.844372128e-06)
(0 -6.413098205e-07 1.712859439e-05)
(0 1.476060793e-06 2.719229876e-05)
(0 5.53927784e-06 2.617363572e-05)
(0 6.261585187e-06 2.405626511e-05)
(0 4.806488469e-06 2.278508045e-05)
(0 2.976897295e-06 2.387902347e-05)
(0 2.389903462e-06 2.610216732e-05)
(0 3.717309976e-06 2.826241901e-05)
(0 1.023427559e-06 2.212280653e-05)
(0 -1.430511594e-05 1.954803812e-05)
(0 7.099194903e-06 2.403911273e-05)
(0 3.992796848e-05 -1.631385457e-05)
(0 -7.813878931e-07 6.737088297e-07)
(0 -2.349881155e-06 6.498860291e-07)
(0 -3.936479739e-06 5.993816887e-07)
(0 -5.544995305e-06 5.164783391e-07)
(0 -7.190674451e-06 3.964114195e-07)
(0 -8.880187531e-06 2.229814231e-07)
(0 -1.062211079e-05 -1.429368097e-08)
(0 -1.241835005e-05 -3.401896076e-07)
(0 -1.428415185e-05 -7.842466293e-07)
(0 -1.623190411e-05 -1.38458123e-06)
(0 -1.828924129e-05 -2.206944345e-06)
(0 -2.051714967e-05 -3.362826676e-06)
(0 -2.293754631e-05 -5.161924655e-06)
(0 -2.496153156e-05 -8.570491119e-06)
(0 -2.149293163e-05 -1.716385212e-05)
(0 -6.015733867e-06 -5.916631012e-06)
(0 1.010658537e-05 3.694440079e-06)
(0 1.120815171e-05 7.551828113e-06)
(0 6.066238204e-06 1.235259909e-05)
(0 5.079974225e-06 1.689513093e-05)
(0 5.704131619e-06 1.806149527e-05)
(0 5.727954421e-06 1.79604866e-05)
(0 4.989447578e-06 1.791569976e-05)
(0 4.111815559e-06 1.864944202e-05)
(0 3.728744909e-06 1.989013353e-05)
(0 3.858340956e-06 2.104506298e-05)
(0 3.121739924e-06 2.130330212e-05)
(0 1.879142592e-06 2.605261585e-05)
(0 1.995779031e-05 4.428372954e-05)
(0 2.949929879e-05 3.591334989e-05)
(0 -7.928228378e-07 9.624411854e-07)
(0 -2.387044726e-06 9.414771213e-07)
(0 -3.999371936e-06 8.966902529e-07)
(0 -5.644098159e-06 8.24268936e-07)
(0 -7.333611261e-06 7.156369617e-07)
(0 -9.083157801e-06 5.584064699e-07)
(0 -1.090131402e-05 3.335192226e-07)
(0 -1.28014207e-05 2.286988959e-08)
(0 -1.48015831e-05 -3.992701551e-07)
(0 -1.692562409e-05 -9.624411854e-07)
(0 -1.923548297e-05 -1.679031061e-06)
(0 -2.194365903e-05 -2.551898509e-06)
(0 -2.578580047e-05 -3.495281453e-06)
(0 -3.375976866e-05 -4.227117923e-06)
(0 -1.96976453e-05 -3.878352105e-06)
(0 9.603447792e-06 4.747407909e-06)
(0 1.660925731e-05 7.784338665e-06)
(0 1.192474158e-05 6.298748748e-06)
(0 8.701992975e-06 7.822455139e-06)
(0 7.184004067e-06 9.957931091e-06)
(0 6.605586433e-06 1.120910462e-05)
(0 6.116742543e-06 1.181515669e-05)
(0 5.495443885e-06 1.227731906e-05)
(0 4.952284e-06 1.293864001e-05)
(0 4.785524389e-06 1.380293126e-05)
(0 5.129525652e-06 1.478443071e-05)
(0 6.030980458e-06 1.60727678e-05)
(0 8.673405613e-06 1.918116695e-05)
(0 1.696088187e-05 2.438787851e-05)
(0 2.079444708e-05 1.363998329e-05)
(0 -8.033048718e-07 1.303583706e-06)
(0 -2.415632091e-06 1.288337115e-06)
(0 -4.051782105e-06 1.257843927e-06)
(0 -5.727001517e-06 1.202575027e-06)
(0 -7.457489841e-06 1.115860031e-06)
(0 -9.264211107e-06 9.853110764e-07)
(0 -1.115574156e-05 7.956815752e-07)
(0 -1.315113944e-05 5.250545492e-07)
(0 -1.526851004e-05 1.486542823e-07)
(0 -1.751166504e-05 -3.544832886e-07)
(0 -1.987965155e-05 -9.843581658e-07)
(0 -2.233149427e-05 -1.657114083e-06)
(0 -2.461276576e-05 -2.039231822e-06)
(0 -2.534650807e-05 -9.757819567e-07)
(0 -1.251840582e-05 5.465903614e-06)
(0 5.647909819e-06 5.469715262e-06)
(0 1.165792623e-05 2.857783289e-06)
(0 1.12462682e-05 2.032561437e-06)
(0 9.724467635e-06 2.677682906e-06)
(0 8.467576632e-06 3.912656949e-06)
(0 7.559451421e-06 5.012317468e-06)
(0 6.796168856e-06 5.827057284e-06)
(0 6.113883826e-06 6.466461291e-06)
(0 5.636474871e-06 7.053455114e-06)
(0 5.574535587e-06 7.641401858e-06)
(0 6.128177507e-06 8.273182571e-06)
(0 7.519429114e-06 9.086969463e-06)
(0 1.019615911e-05 1.02981207e-05)
(0 1.441565376e-05 1.09603946e-05)
(0 1.724961422e-05 7.014385719e-06)
(0 -8.090223429e-07 1.699042211e-06)
(0 -2.433737417e-06 1.692371829e-06)
(0 -4.086086933e-06 1.678078146e-06)
(0 -5.785129145e-06 1.648537872e-06)
(0 -7.5499223e-06 1.597080623e-06)
(0 -9.403336255e-06 1.512271447e-06)
(0 -1.136157055e-05 1.377910846e-06)
(0 -1.344844799e-05 1.171128929e-06)
(0 -1.568302676e-05 8.604795944e-07)
(0 -1.805768363e-05 4.097521878e-07)
(0 -2.053906667e-05 -2.16311039e-07)
(0 -2.299853268e-05 -1.037721238e-06)
(0 -2.510446834e-05 -2.016361929e-06)
(0 -2.625463323e-05 -3.101728774e-06)
(0 -1.325119518e-05 -4.981824277e-06)
(0 6.994374558e-06 -4.982777189e-06)
(0 1.317400931e-05 -3.845000185e-06)
(0 1.17446412e-05 -3.688722602e-06)
(0 1.058208848e-05 -3.039789486e-06)
(0 9.518638629e-06 -1.972527977e-06)
(0 8.521892595e-06 -8.69055803e-07)
(0 7.56898053e-06 6.003346008e-08)
(0 6.71993589e-06 7.48988884e-07)
(0 6.1291304e-06 1.214962883e-06)
(0 6.005251832e-06 1.493213205e-06)
(0 6.576046168e-06 1.640914578e-06)
(0 8.054965683e-06 1.773369352e-06)
(0 1.054683073e-05 2.023032313e-06)
(0 1.367619397e-05 2.199321049e-06)
(0 1.609373186e-05 1.663784465e-06)
(0 -8.099752514e-07 2.147863784e-06)
(0 -2.436596142e-06 2.151675436e-06)
(0 -4.096568948e-06 2.156439993e-06)
(0 -5.807999008e-06 2.162157465e-06)
(0 -7.593756221e-06 2.157392908e-06)
(0 -9.482427913e-06 2.136428839e-06)
(0 -1.149688401e-05 2.080207028e-06)
(0 -1.366952353e-05 1.965857584e-06)
(0 -1.602988668e-05 1.755264015e-06)
(0 -1.858750265e-05 1.39220452e-06)
(0 -2.132712486e-05 7.842466269e-07)
(0 -2.413154502e-05 -2.191697739e-07)
(0 -2.667772604e-05 -1.860084342e-06)
(0 -2.831101734e-05 -4.417700317e-06)
(0 -1.440040706e-05 -7.366963142e-06)
(0 6.784733873e-06 -7.36601023e-06)
(0 1.295102783e-05 -9.546273031e-06)
(0 1.205243174e-05 -9.873121858e-06)
(0 1.14406622e-05 -9.133662099e-06)
(0 1.063735735e-05 -7.85199539e-06)
(0 9.592965712e-06 -6.517918493e-06)
(0 8.414213494e-06 -5.417305063e-06)
(0 7.268813208e-06 -4.685468608e-06)
(0 6.380699157e-06 -4.373866357e-06)
(0 5.99858142e-06 -4.468204651e-06)
(0 6.407380704e-06 -4.923696624e-06)
(0 7.903452629e-06 -5.606934564e-06)
(0 1.062211074e-05 -6.129130373e-06)
(0 1.405640582e-05 -5.808951929e-06)
(0 1.661973925e-05 -4.100380596e-06)
(0 -8.042577911e-07 2.637660623e-06)
(0 -2.42325541e-06 2.655765956e-06)
(0 -4.075604944e-06 2.690070787e-06)
(0 -5.784176294e-06 2.733904742e-06)
(0 -7.575651005e-06 2.789173647e-06)
(0 -9.481475143e-06 2.846348367e-06)
(0 -1.153309484e-05 2.893993971e-06)
(0 -1.377339115e-05 2.909240568e-06)
(0 -1.625477417e-05 2.859689136e-06)
(0 -1.902965413e-05 2.676730018e-06)
(0 -2.215139412e-05 2.235531731e-06)
(0 -2.564191102e-05 1.284525477e-06)
(0 -2.930109339e-05 -7.413655941e-07)
(0 -3.17615124e-05 -5.305814438e-06)
(0 -1.620045819e-05 -1.692181263e-05)
(0 4.816017628e-06 -1.692657719e-05)
(0 1.066785069e-05 -1.705140868e-05)
(0 1.215534643e-05 -1.706474943e-05)
(0 1.26032151e-05 -1.570589682e-05)
(0 1.213438238e-05 -1.370573439e-05)
(0 1.095658304e-05 -1.18532733e-05)
(0 9.401430529e-06 -1.044010469e-05)
(0 7.764327596e-06 -9.616788672e-06)
(0 6.34734733e-06 -9.472898935e-06)
(0 5.455421628e-06 -9.989377279e-06)
(0 5.437316306e-06 -1.119099942e-05)
(0 6.849531993e-06 -1.308920026e-05)
(0 1.034481348e-05 -1.507411611e-05)
(0 1.570399101e-05 -1.515987822e-05)
(0 1.902965413e-05 -9.336632508e-06)
(0 -7.918699222e-07 3.167479689e-06)
(0 -2.386091803e-06 3.198925792e-06)
(0 -4.017477247e-06 3.262770895e-06)
(0 -5.70699033e-06 3.357109189e-06)
(0 -7.48226551e-06 3.48003485e-06)
(0 -9.377607587e-06 3.63059495e-06)
(0 -1.143399181e-05 3.803072033e-06)
(0 -1.370478127e-05 3.988889891e-06)
(0 -1.626239722e-05 4.166131528e-06)
(0 -1.921166005e-05 4.29191592e-06)
(0 -2.271647064e-05 4.273810597e-06)
(0 -2.710939521e-05 3.941244282e-06)
(0 -3.327092459e-05 2.981661837e-06)
(0 -4.449146415e-05 9.071722825e-07)
(0 -2.602021673e-05 -2.795843987e-06)
(0 6.655137833e-06 -1.621665745e-05)
(0 1.281190267e-05 -2.459942487e-05)
(0 1.339794357e-05 -2.555138399e-05)
(0 1.480063012e-05 -2.28260555e-05)
(0 1.448998081e-05 -1.930313964e-05)
(0 1.285668952e-05 -1.663498584e-05)
(0 1.065165101e-05 -1.475489034e-05)
(0 8.236971863e-06 -1.37467094e-05)
(0 6.007157629e-06 -1.379721372e-05)
(0 4.280480975e-06 -1.473297337e-05)
(0 3.307557767e-06 -1.668644312e-05)
(0 4.019383071e-06 -2.043424622e-05)
(0 8.552385742e-06 -2.588204447e-05)
(0 1.979388935e-05 -3.039122439e-05)
(0 2.463754132e-05 -1.591363141e-05)
(0 -7.72811681e-07 3.72779198e-06)
(0 -2.327964167e-06 3.774484677e-06)
(0 -3.91742148e-06 3.869775877e-06)
(0 -5.567865169e-06 4.013665598e-06)
(0 -7.303118042e-06 4.209965489e-06)
(0 -9.157484901e-06 4.461534267e-06)
(0 -1.117384682e-05 4.774089423e-06)
(0 -1.340937853e-05 5.155254255e-06)
(0 -1.595174789e-05 5.6097933e-06)
(0 -1.89229277e-05 6.135800757e-06)
(0 -2.250397125e-05 6.7151713e-06)
(0 -2.693405939e-05 7.312647152e-06)
(0 -3.233325912e-05 7.920605046e-06)
(0 -3.753901775e-05 8.849694314e-06)
(0 -3.332524059e-05 1.223634377e-05)
(0 -1.698756331e-05 -2.041328217e-05)
(0 1.333123974e-06 -2.708366661e-05)
(0 1.393157432e-05 -3.760858029e-05)
(0 1.885050638e-05 -3.061229994e-05)
(0 1.832449895e-05 -2.389522286e-05)
(0 1.550483214e-05 -2.046473941e-05)
(0 1.229065976e-05 -1.803100201e-05)
(0 8.72105119e-06 -1.664927954e-05)
(0 5.361083252e-06 -1.708952489e-05)
(0 2.567145091e-06 -1.833307513e-05)
(0 -2.639566411e-07 -2.028654488e-05)
(0 -2.346069493e-06 -2.602021672e-05)
(0 3.868822965e-07 -3.760286282e-05)
(0 2.567240386e-05 -5.270461323e-05)
(0 3.761810941e-05 -3.947152337e-05)
(0 -7.442243304e-07 4.306209666e-06)
(0 -2.244107939e-06 4.369101869e-06)
(0 -3.778296376e-06 4.494886256e-06)
(0 -5.366800805e-06 4.68928032e-06)
(0 -7.034396946e-06 4.958001532e-06)
(0 -8.813483779e-06 5.307720256e-06)
(0 -1.074027199e-05 5.75940058e-06)
(0 -1.286907759e-05 6.334959482e-06)
(0 -1.528185094e-05 7.072513419e-06)
(0 -1.810628233e-05 8.023519669e-06)
(0 -2.153867166e-05 9.247058787e-06)
(0 -2.590396184e-05 1.080125837e-05)
(0 -3.173387791e-05 1.267468351e-05)
(0 -4.017667894e-05 1.448426355e-05)
(0 -5.528224113e-05 1.390108135e-05)
(0 -3.266392011e-05 -1.04248581e-06)
(0 -4.383395548e-06 -3.771625996e-05)
(0 9.867404534e-06 -6.705356396e-05)
(0 2.85130351e-05 -3.79592525e-05)
(0 2.463849464e-05 -2.499869541e-05)
(0 1.872376936e-05 -2.307381298e-05)
(0 1.446520529e-05 -2.001877687e-05)
(0 9.178449117e-06 -1.751547687e-05)
(0 4.323362083e-06 -1.937651413e-05)
(0 1.081555205e-06 -2.105173355e-05)
(0 -4.379583902e-06 -1.998923662e-05)
(0 -1.329502927e-05 -2.569241536e-05)
(0 -1.813201096e-05 -4.579886013e-05)
(0 1.792522906e-05 -4.007662319e-05)
(0 5.393005887e-05 2.23734226e-05)
(0 -7.108723971e-07 4.895109254e-06)
(0 -2.138334667e-06 4.972295139e-06)
(0 -3.59819594e-06 5.129525621e-06)
(0 -5.10570282e-06 5.370612373e-06)
(0 -6.683725202e-06 5.701272866e-06)
(0 -8.355132946e-06 6.138659493e-06)
(0 -1.014756053e-05 6.707547993e-06)
(0 -1.20953128e-05 7.4498665e-06)
(0 -1.426318772e-05 8.432318823e-06)
(0 -1.674838237e-05 9.757819499e-06)
(0 -1.97271855e-05 1.158074029e-05)
(0 -2.350643471e-05 1.411262761e-05)
(0 -2.865025401e-05 1.765841339e-05)
(0 -3.631166701e-05 2.270217695e-05)
(0 -4.885294262e-05 3.01339381e-05)
(0 -6.860680964e-05 4.260850989e-05)
(0 -6.467700034e-05 1.115955315e-05)
(0 1.368953466e-05 -4.445525344e-05)
(0 6.090537434e-05 -1.055445398e-05)
(0 3.320993827e-05 -1.478347773e-05)
(0 2.048284474e-05 -2.651382517e-05)
(0 1.784994872e-05 -2.115369483e-05)
(0 9.36331392e-06 -1.371145166e-05)
(0 1.822920772e-06 -2.158822273e-05)
(0 1.957281372e-06 -2.628131463e-05)
(0 -4.90368547e-06 -1.275472795e-05)
(0 -2.815664556e-05 -1.010753822e-05)
(0 -1.399827817e-05 -2.411629843e-05)
(0 9.384563859e-05 3.52272531e-05)
(0 8.630715114e-05 6.366691349e-05)
(0 -6.670384423e-07 5.483055996e-06)
(0 -2.010644451e-06 5.575488474e-06)
(0 -3.38093199e-06 5.759400493e-06)
(0 -4.794100576e-06 6.041462463e-06)
(0 -6.265396807e-06 6.426438945e-06)
(0 -7.807208511e-06 6.931482327e-06)
(0 -9.43001775e-06 7.581368353e-06)
(0 -1.114621239e-05 8.428507187e-06)
(0 -1.29738977e-05 9.561519614e-06)
(0 -1.495500188e-05 1.112715413e-05)
(0 -1.718481612e-05 1.335410963e-05)
(0 -1.982628833e-05 1.657590529e-05)
(0 -2.314432812e-05 2.133570103e-05)
(0 -2.770210654e-05 2.875983893e-05)
(0 -3.537590735e-05 4.159365854e-05)
(0 -5.163735167e-05 6.419959136e-05)
(0 -9.144620597e-05 9.891608362e-05)
(0 -1.184755565e-05 0.0001487552901)
(0 5.818481041e-05 9.800891124e-05)
(0 8.680075971e-06 2.330822903e-05)
(0 1.235164613e-05 4.745502061e-07)
(0 2.726853152e-05 7.324082096e-06)
(0 8.74392108e-06 5.817528138e-06)
(0 -8.245548059e-06 2.360363174e-06)
(0 9.914097077e-06 -5.067586337e-06)
(0 1.179323968e-05 1.314161024e-05)
(0 -2.465564665e-05 5.93216345e-05)
(0 2.720182768e-05 9.209323317e-05)
(0 0.0001057084408 7.988166523e-05)
(0 5.54185067e-05 1.575068345e-05)
(0 -6.174870244e-07 6.057662059e-06)
(0 -1.861990197e-06 6.164388221e-06)
(0 -3.131269078e-06 6.374028868e-06)
(0 -4.439617356e-06 6.690395677e-06)
(0 -5.794658335e-06 7.120159033e-06)
(0 -7.201156549e-06 7.669036377e-06)
(0 -8.64862999e-06 8.359897631e-06)
(0 -1.011420878e-05 9.23467093e-06)
(0 -1.156454094e-05 1.038292997e-05)
(0 -1.295769839e-05 1.197334022e-05)
(0 -1.427843455e-05 1.428415202e-05)
(0 -1.552389061e-05 1.768700102e-05)
(0 -1.646727356e-05 2.255828754e-05)
(0 -1.605275683e-05 2.966034127e-05)
(0 -1.341128455e-05 4.360620947e-05)
(0 -1.128533771e-05 7.409844296e-05)
(0 1.98777459e-05 9.527596098e-05)
(0 1.278140966e-05 0.0001487429045)
(0 -6.453978191e-05 8.797665439e-05)
(0 -6.432537679e-05 5.19851654e-05)
(0 4.498697905e-06 2.990333382e-05)
(0 2.319292699e-05 2.999386046e-05)
(0 4.399595056e-06 2.380374366e-05)
(0 -9.061240918e-06 2.570099157e-05)
(0 1.27375757e-05 2.012455011e-05)
(0 5.948553635e-05 3.323471448e-05)
(0 5.079402523e-05 5.776648288e-05)
(0 6.561752546e-06 9.208370543e-05)
(0 1.750499484e-05 4.706528035e-05)
(0 2.216378195e-05 -3.173197209e-07)
(0 -5.622181156e-07 6.61797426e-06)
(0 -1.694277646e-06 6.734229541e-06)
(0 -2.853971621e-06 6.96959881e-06)
(0 -4.047970433e-06 7.32122336e-06)
(0 -5.286756119e-06 7.788150281e-06)
(0 -6.568422832e-06 8.36656789e-06)
(0 -7.865336147e-06 9.059334958e-06)
(0 -9.12318008e-06 9.879792257e-06)
(0 -1.023427553e-05 1.088987903e-05)
(0 -1.10537799e-05 1.224396706e-05)
(0 -1.147020249e-05 1.428986928e-05)
(0 -1.155405873e-05 1.752309988e-05)
(0 -1.117098808e-05 2.177499349e-05)
(0 -6.653232013e-06 2.398289076e-05)
(0 9.061240787e-06 2.940591329e-05)
(0 3.144609801e-08 3.670998423e-05)
(0 -1.679983964e-05 3.847001283e-05)
(0 -1.914686203e-05 8.35703877e-06)
(0 -3.857483312e-05 1.215534624e-05)
(0 -4.93922909e-05 5.126666893e-05)
(0 -9.638705491e-06 5.371088829e-05)
(0 2.116894142e-05 3.818795082e-05)
(0 4.452005153e-06 3.447064093e-05)
(0 -1.192760026e-05 3.702825684e-05)
(0 1.744877274e-05 4.579028324e-05)
(0 4.943707777e-05 3.764860265e-05)
(0 3.419239055e-05 1.063068695e-05)
(0 1.650062524e-05 7.587085825e-06)
(0 1.330741694e-05 1.52313464e-05)
(0 7.794820654e-06 -3.94982049e-06)
(0 -5.002788317e-07 7.141122981e-06)
(0 -1.508459794e-06 7.272624856e-06)
(0 -2.545228113e-06 7.536581486e-06)
(0 -3.62106583e-06 7.929181255e-06)
(0 -4.749313716e-06 8.438036308e-06)
(0 -5.929971752e-06 9.05075875e-06)
(0 -7.134452596e-06 9.734949609e-06)
(0 -8.284617466e-06 1.045439823e-05)
(0 -9.202271767e-06 1.117479973e-05)
(0 -9.555802142e-06 1.196381092e-05)
(0 -8.999301512e-06 1.327025337e-05)
(0 -8.039719054e-06 1.653016551e-05)
(0 -1.000557663e-05 2.326058339e-05)
(0 -8.422789711e-06 1.533044924e-05)
(0 -6.841908597e-07 7.23164963e-06)
(0 -2.221238014e-06 5.172406666e-06)
(0 -8.476152786e-06 1.601654593e-05)
(0 -1.353135126e-05 1.983295871e-05)
(0 -2.163015086e-05 2.720182768e-05)
(0 -2.277078663e-05 4.650401444e-05)
(0 -8.580973104e-06 6.488378219e-05)
(0 3.952679227e-06 5.012984476e-05)
(0 3.23990101e-06 4.362717293e-05)
(0 2.260307407e-06 4.799627466e-05)
(0 1.335792126e-05 6.003345981e-05)
(0 2.432403329e-05 4.012236236e-05)
(0 2.073346061e-05 2.458894281e-05)
(0 1.116336479e-05 1.941844197e-05)
(0 5.966182419e-06 1.843789548e-05)
(0 1.336363874e-05 1.481968836e-05)
(0 -4.297633457e-07 7.617579125e-06)
(0 -1.29881916e-06 7.769092157e-06)
(0 -2.198368156e-06 8.067353625e-06)
(0 -3.147468583e-06 8.508551915e-06)
(0 -4.165178685e-06 9.082204998e-06)
(0 -5.271509597e-06 9.759725469e-06)
(0 -6.461696779e-06 1.048298573e-05)
(0 -7.682377158e-06 1.113858926e-05)
(0 -8.723910044e-06 1.151498951e-05)
(0 -8.958326414e-06 1.130344303e-05)
(0 -6.903847992e-06 1.045725712e-05)
(0 -1.562775803e-06 1.22563551e-05)
(0 -1.237261038e-05 1.271851746e-05)
(0 -2.268216614e-05 1.491974437e-05)
(0 -1.093943062e-06 1.667977296e-05)
(0 8.816342519e-06 1.74087507e-05)
(0 -2.13928761e-06 2.155487115e-05)
(0 -7.963486208e-06 2.475570279e-05)
(0 -1.190473055e-05 3.061325331e-05)
(0 -1.17103365e-05 3.987365291e-05)
(0 -6.011922279e-06 4.706623319e-05)
(0 -8.862082295e-08 4.468395301e-05)
(0 2.318435081e-06 4.245223299e-05)
(0 4.478686751e-06 4.310021314e-05)
(0 9.573907615e-06 4.403406697e-05)
(0 1.399351384e-05 3.632881999e-05)
(0 1.349037624e-05 2.845871911e-05)
(0 1.035053096e-05 2.464897664e-05)
(0 8.707710552e-06 2.549706842e-05)
(0 1.091941946e-05 2.642044018e-05)
(0 -3.506716382e-07 8.036860318e-06)
(0 -1.059638213e-06 8.205525765e-06)
(0 -1.80386253e-06 8.545715358e-06)
(0 -2.606214485e-06 9.052664574e-06)
(0 -3.498140179e-06 9.718750119e-06)
(0 -4.528238111e-06 1.05239608e-05)
(0 -5.756541757e-06 1.140445154e-05)
(0 -7.252613703e-06 1.220870934e-05)
(0 -9.036465069e-06 1.256223969e-05)
(0 -1.061544035e-05 1.140635736e-05)
(0 -8.047342362e-06 5.140960574e-06)
(0 -5.777505822e-06 7.662365878e-06)
(0 -7.341234513e-06 9.764489883e-06)
(0 -4.461534272e-06 2.351501094e-05)
(0 1.802909619e-06 3.328807702e-05)
(0 2.654813002e-06 2.588109157e-05)
(0 -1.130153705e-06 2.544561078e-05)
(0 -4.473922124e-06 2.731331839e-05)
(0 -6.510295197e-06 3.096773614e-05)
(0 -6.316854058e-06 3.573134358e-05)
(0 -3.771625935e-06 3.928951716e-05)
(0 -6.594151458e-07 3.957443787e-05)
(0 1.655208251e-06 3.890168201e-05)
(0 3.841188516e-06 3.838996818e-05)
(0 6.588433986e-06 3.711878349e-05)
(0 8.747732728e-06 3.3093683e-05)
(0 9.051711662e-06 2.859498511e-05)
(0 8.201714104e-06 2.549611509e-05)
(0 7.737645942e-06 2.402863055e-05)
(0 8.441847943e-06 2.249920666e-05)
(0 -2.601449925e-07 8.374191187e-06)
(0 -7.909170113e-07 8.5638207e-06)
(0 -1.352182214e-06 8.944985511e-06)
(0 -1.972527965e-06 9.525308956e-06)
(0 -2.693882399e-06 1.031146142e-05)
(0 -3.586760995e-06 1.130534868e-05)
(0 -4.775042335e-06 1.249648876e-05)
(0 -6.524588887e-06 1.383437731e-05)
(0 -9.528167692e-06 1.522086434e-05)
(0 -1.637960541e-05 1.67264654e-05)
(0 -1.064688647e-05 2.057908889e-05)
(0 3.060753538e-06 1.223253212e-05)
(0 3.480034845e-06 2.19655759e-05)
(0 8.404684382e-07 2.807374224e-05)
(0 1.272137601e-06 2.940019581e-05)
(0 9.738761262e-07 2.762587356e-05)
(0 -7.070607496e-07 2.73123655e-05)
(0 -2.440407787e-06 2.841488473e-05)
(0 -3.485752317e-06 3.05932417e-05)
(0 -3.388555292e-06 3.322899651e-05)
(0 -2.16882785e-06 3.525298168e-05)
(0 -4.774089423e-07 3.590763226e-05)
(0 1.133965354e-06 3.56770276e-05)
(0 2.696741131e-06 3.49232741e-05)
(0 4.276669327e-06 3.340147354e-05)
(0 5.469715235e-06 3.074094312e-05)
(0 5.89185527e-06 2.76935303e-05)
(0 5.785129119e-06 2.503490565e-05)
(0 5.709849075e-06 2.290228849e-05)
(0 5.958559114e-06 2.073346061e-05)
(0 -1.610421406e-07 8.614325155e-06)
(0 -4.888438951e-07 8.820154177e-06)
(0 -8.41421362e-07 9.239435476e-06)
(0 -1.240691521e-06 9.885509863e-06)
(0 -1.718100473e-06 1.078791761e-05)
(0 -2.344163704e-06 1.198286934e-05)
(0 -3.227513197e-06 1.35342102e-05)
(0 -4.528238186e-06 1.550483239e-05)
(0 -6.143424146e-06 1.785280772e-05)
(0 -5.256263004e-06 1.97929367e-05)
(0 -1.254222875e-05 3.04350588e-05)
(0 -4.391971752e-06 3.021970063e-05)
(0 8.499975706e-06 2.85444812e-05)
(0 2.973085676e-06 2.890468199e-05)
(0 1.355993883e-06 2.884464851e-05)
(0 5.669826847e-07 2.817951589e-05)
(0 -3.411425231e-07 2.807850722e-05)
(0 -1.193045918e-06 2.879319125e-05)
(0 -1.698089317e-06 3.016443173e-05)
(0 -1.656161188e-06 3.177294735e-05)
(0 -1.091084326e-06 3.305651987e-05)
(0 -2.382280187e-07 3.361302052e-05)
(0 6.708501016e-07 3.346627211e-05)
(0 1.565634539e-06 3.270108367e-05)
(0 2.407055901e-06 3.128124468e-05)
(0 3.038836611e-06 2.920199057e-05)
(0 3.346627206e-06 2.678921716e-05)
(0 3.41237814e-06 2.439836076e-05)
(0 3.435248034e-06 2.213043006e-05)
(0 3.534350885e-06 1.982914736e-05)
(0 -5.431598744e-08 8.74106233e-06)
(0 -1.639008746e-07 8.956420469e-06)
(0 -2.877794422e-07 9.395712916e-06)
(0 -4.25951691e-07 1.008466834e-05)
(0 -5.955700387e-07 1.10604503e-05)
(0 -8.385626132e-07 1.240024464e-05)
(0 -1.254985184e-06 1.424222366e-05)
(0 -2.205991423e-06 1.688179009e-05)
(0 -5.24006342e-06 2.09774061e-05)
(0 -3.797354561e-06 2.826432462e-05)
(0 -2.210755983e-07 3.003197654e-05)
(0 1.171128922e-06 4.102667585e-05)
(0 2.165969113e-06 3.325186635e-05)
(0 1.140635738e-06 3.03616841e-05)
(0 5.460186109e-07 2.9138145e-05)
(0 2.086877413e-07 2.845967161e-05)
(0 -9.338538202e-08 2.836342751e-05)
(0 -3.535303744e-07 2.88941995e-05)
(0 -5.069492161e-07 2.991095666e-05)
(0 -4.964671842e-07 3.109828514e-05)
(0 -3.287546608e-07 3.206453792e-05)
(0 -6.765675629e-08 3.251812406e-05)
(0 2.229814225e-07 3.236946983e-05)
(0 5.117137764e-07 3.162429255e-05)
(0 7.775762413e-07 3.029212149e-05)
(0 9.776877755e-07 2.844156631e-05)
(0 1.088225573e-06 2.627369133e-05)
(0 1.123483319e-06 2.400671354e-05)
(0 1.14158865e-06 2.173878287e-05)
(0 1.17017601e-06 1.942797109e-05)
)
;

boundaryField
{
    lowerWall
    {
        type            calculated;
        value           nonuniform 0();
    }
    atmosphere
    {
        type            calculated;
        value           nonuniform List<vector> 
20
(
(0 0 4.364337263e-07)
(0 0 6.737088297e-07)
(0 0 9.624411854e-07)
(0 0 1.303583706e-06)
(0 0 1.699042211e-06)
(0 0 2.147863784e-06)
(0 0 2.637660623e-06)
(0 0 3.167479689e-06)
(0 0 3.72779198e-06)
(0 0 4.306209666e-06)
(0 0 4.895109254e-06)
(0 0 5.483055996e-06)
(0 0 6.057662059e-06)
(0 0 6.61797426e-06)
(0 0 7.141122981e-06)
(0 0 7.617579125e-06)
(0 0 8.036860318e-06)
(0 0 8.374191187e-06)
(0 0 8.614325155e-06)
(0 0 8.74106233e-06)
)
;
    }
    rightWall
    {
        type            empty;
    }
    leftWall
    {
        type            empty;
    }
    frontAndBack
    {
        type            calculated;
        value           nonuniform List<vector> 
30
(
(0 -5.431598744e-08 8.773781657e-06)
(0 -1.639008746e-07 8.990355082e-06)
(0 -2.877794422e-07 9.43543905e-06)
(0 -4.25951691e-07 1.01380237e-05)
(0 -5.955700387e-07 1.11356257e-05)
(0 -8.385626132e-07 1.252374198e-05)
(0 -1.254985184e-06 1.448995583e-05)
(0 -2.205991423e-06 1.754244741e-05)
(0 -5.24006342e-06 2.331660187e-05)
(0 -3.797354561e-06 3.850061584e-05)
(0 -2.210755983e-07 3.850743705e-05)
(0 1.171128922e-06 3.938396256e-05)
(0 2.165969113e-06 3.382297092e-05)
(0 1.140635738e-06 3.071932027e-05)
(0 5.460186109e-07 2.925958128e-05)
(0 2.086877413e-07 2.853653299e-05)
(0 -9.338538202e-08 2.842568833e-05)
(0 -3.535303744e-07 2.890999425e-05)
(0 -5.069492161e-07 2.984108945e-05)
(0 -4.964671842e-07 3.093418839e-05)
(0 -3.287546608e-07 3.182776693e-05)
(0 -6.765675629e-08 3.225238727e-05)
(0 2.229814225e-07 3.209720473e-05)
(0 5.117137764e-07 3.136051403e-05)
(0 7.775762413e-07 3.005084166e-05)
(0 9.776877755e-07 2.825004216e-05)
(0 1.088225573e-06 2.61371723e-05)
(0 1.123483319e-06 2.390152064e-05)
(0 1.14158865e-06 2.164028945e-05)
(0 1.17017601e-06 1.933301509e-05)
)
;
    }
    procBoundary4to2
    {
        type            processor;
        value           nonuniform List<vector> 
30
(
(0 -7.575650914e-07 2.458513127e-07)
(0 -2.27364819e-06 2.239343355e-07)
(0 -3.800213314e-06 1.734299958e-07)
(0 -5.340119211e-06 9.624411854e-08)
(0 -6.900036271e-06 -1.619950512e-08)
(0 -8.47805864e-06 -1.705712596e-07)
(0 -1.007132761e-05 -3.802119138e-07)
(0 -1.167507863e-05 -6.584622377e-07)
(0 -1.327311215e-05 -1.032003766e-06)
(0 -1.484160541e-05 -1.5322826e-06)
(0 -1.63319599e-05 -2.212661818e-06)
(0 -1.767270715e-05 -3.15699767e-06)
(0 -1.871424004e-05 -4.473922144e-06)
(0 -1.922214219e-05 -6.277784689e-06)
(0 -1.884955356e-05 -8.587643531e-06)
(0 -1.681127465e-05 -1.156168209e-05)
(0 -8.135963217e-06 -4.35004358e-06)
(0 -6.09196683e-06 4.185189788e-06)
(0 -1.328264127e-05 2.958601379e-05)
(0 -3.965067107e-06 4.853657609e-05)
(0 8.840165224e-06 3.536828419e-05)
(0 9.117462635e-06 2.928965813e-05)
(0 5.166689223e-06 2.529219206e-05)
(0 7.937757499e-07 2.79917919e-05)
(0 -6.556035005e-07 3.241330388e-05)
(0 7.838654656e-06 4.383586087e-05)
(0 1.183707367e-05 2.840916739e-05)
(0 -3.811648259e-08 5.392529374e-06)
(0 5.58187301e-05 -3.103634599e-05)
(0 5.956367443e-05 -5.401010292e-05)
)
;
    }
    procBoundary4to5
    {
        type            processor;
        value           nonuniform List<vector> 
20
(
(0 4.776281128e-05 -6.026215879e-06)
(0 2.471091555e-05 2.51492551e-05)
(0 1.997684843e-05 1.213914674e-05)
(0 1.813772819e-05 6.259679334e-06)
(0 1.72562845e-05 1.569446164e-06)
(0 1.771844677e-05 -2.873029849e-06)
(0 1.959949546e-05 -7.142075968e-06)
(0 2.26049798e-05 -1.180372164e-05)
(0 2.903808909e-05 -2.34111434e-05)
(0 5.544709464e-05 8.61146638e-06)
(0 1.175226439e-05 3.671570152e-05)
(0 6.963881306e-06 1.573924843e-05)
(0 7.363151568e-06 -5.574535612e-07)
(0 1.398684316e-05 6.430250555e-06)
(0 2.019792394e-05 2.156249401e-05)
(0 1.327025349e-05 2.05733716e-05)
(0 9.237529472e-06 1.906777024e-05)
(0 6.216798254e-06 1.799574418e-05)
(0 3.610583835e-06 1.734204677e-05)
(0 1.18637551e-06 1.703520883e-05)
)
;
    }
}


// ************************************************************************* //
