/*--------------------------------*- C++ -*----------------------------------*\
  =========                 |
  \\      /  F ield         | OpenFOAM: The Open Source CFD Toolbox
   \\    /   O peration     | Website:  https://openfoam.org
    \\  /    A nd           | Version:  6
     \\/     M anipulation  |
\*---------------------------------------------------------------------------*/
FoamFile
{
    version     2.0;
    format      ascii;
    class       surfaceScalarField;
    location    "0.0017";
    object      phi;
}
// * * * * * * * * * * * * * * * * * * * * * * * * * * * * * * * * * * * * * //

dimensions      [0 3 -1 0 0 0 0];

internalField   nonuniform List<scalar> 
1150
(
-3.856524247e-19
3.460672008e-20
-3.903612621e-19
4.520061794e-20
-3.98153088e-19
6.49680366e-20
-4.10377632e-19
9.482311795e-20
-4.292779418e-19
1.379669664e-19
-4.588070435e-19
2.000131706e-19
-5.053865278e-19
2.891337274e-19
-5.788867184e-19
4.158118512e-19
-6.932706343e-19
5.915303009e-19
-8.661883202e-19
8.251784277e-19
-1.114843686e-18
1.115128888e-18
-1.441620107e-18
1.432905072e-18
-1.787842227e-18
1.689418866e-18
-1.948683906e-18
1.659119919e-18
-9.423939272e-19
7.470720252e-19
-3.39073877e-20
9.100188838e-33
6.378936502e-20
7.336203773e-20
8.068623596e-20
2.707190432e-20
7.801260208e-20
-5.418594754e-21
4.747514784e-20
-3.220555462e-20
2.293653009e-20
-4.129813968e-20
4.460941946e-21
-4.138656694e-20
-9.780625132e-21
-3.715076267e-20
-2.49389865e-20
-3.074384501e-20
-3.983941041e-20
-1.976045661e-20
-4.730758524e-20
-1.459782552e-21
-9.255760657e-22
2.402257836e-20
1.113843637e-19
1.690473011e-20
3.233794961e-19
-9.89926009e-20
1.682719078e-19
-3.614506082e-19
3.506682742e-20
-3.620545976e-19
4.516589888e-20
-3.61915824e-19
6.379600623e-20
-3.607367102e-19
9.152910508e-20
-3.582545723e-19
1.311036328e-19
-3.548010602e-19
1.875850048e-19
-3.518753502e-19
2.685689571e-19
-3.53175474e-19
3.840249567e-19
-3.6613454e-19
5.452372659e-19
-4.048337439e-19
7.618791953e-19
-4.958904886e-19
1.036126071e-18
-6.912753325e-19
1.352088814e-18
-1.06271749e-18
1.65690074e-18
-1.432646653e-18
1.789911549e-18
-1.565168697e-18
1.002715593e-18
-8.723270626e-20
-1.286514393e-19
1.749923164e-20
-3.137575724e-20
4.819573703e-20
-3.639941167e-21
5.122564228e-20
-8.464889826e-21
3.83825629e-20
-1.937559851e-20
2.284810286e-20
-2.576868095e-20
8.696746172e-21
-2.723148396e-20
-3.373707438e-21
-2.507199998e-20
-1.395559815e-20
-2.015548768e-20
-2.153873641e-20
-1.216604683e-20
-2.18252244e-20
-1.154385512e-21
-8.04342431e-21
1.025324952e-20
-4.512967327e-21
1.338355018e-20
-1.217482082e-19
1.824883865e-20
5.519046105e-20
-3.379673576e-19
3.283241327e-20
-3.35031753e-19
4.111111576e-20
-3.279728327e-19
5.591654542e-20
-3.148959195e-19
7.704939729e-20
-2.930796478e-19
1.059633422e-19
-2.591910731e-19
1.459467284e-19
-2.095032087e-19
2.022811839e-19
-1.403219794e-19
2.820694648e-19
-4.844426883e-20
3.930955771e-19
6.873594801e-20
5.406200292e-19
2.14197472e-19
7.203834223e-19
3.916217768e-19
9.058870307e-19
4.934237754e-19
1.02899786e-18
4.502601534e-19
9.621991357e-19
2.030203919e-19
-2.794962848e-33
7.338665378e-20
9.78749306e-22
4.523504776e-20
-3.233618695e-21
4.337078837e-20
-1.787922256e-21
4.031493356e-20
-5.422359681e-21
3.198948048e-20
-1.106134912e-20
2.138529984e-20
-1.517078733e-20
1.085623013e-20
-1.670185531e-20
1.542804897e-21
-1.575273819e-20
-5.966157297e-21
-1.263833991e-20
-1.052707508e-20
-7.592205203e-21
-1.041758936e-20
-1.249141488e-21
-4.913123648e-21
4.761221854e-21
3.523211772e-22
8.130297994e-21
7.785637756e-21
1.082175198e-20
1.288597606e-20
-3.179172331e-19
2.930609604e-20
-3.129084215e-19
3.493847619e-20
-3.016518629e-19
4.418383366e-20
-2.810536236e-19
5.56813982e-20
-2.465202742e-19
6.894110982e-20
-1.919937036e-19
8.452229081e-20
-1.100618094e-19
1.041985843e-19
7.49506954e-21
1.309308095e-19
1.687401154e-19
1.681630992e-19
3.805205173e-19
2.172518834e-19
6.489175665e-19
2.705404994e-19
9.755801669e-19
2.953955849e-19
1.115483631e-18
2.029043448e-19
1.048101324e-18
-1.70157693e-19
1.40655463e-19
-1.480568822e-32
6.917428567e-20
7.245246928e-20
4.668074414e-20
1.92495579e-20
3.973635089e-20
5.143850753e-21
3.467594405e-20
-3.745202688e-22
2.788004224e-20
-4.276546331e-21
1.985423184e-20
-7.15238147e-21
1.18053472e-20
-8.654832216e-21
4.657203198e-21
-8.600649453e-21
-9.200225937e-22
-7.052951363e-21
-4.18401136e-21
-4.316166305e-21
-4.407226012e-21
-1.011388485e-21
-1.544047508e-21
1.91141025e-21
3.043775178e-21
3.554181368e-21
9.849861803e-21
4.023392783e-21
2.464676229e-21
-3.029098673e-19
2.643516307e-20
-2.979733082e-19
2.935094495e-20
-2.865512098e-19
3.273634701e-20
-2.649762865e-19
3.378234653e-20
-2.277244803e-19
2.963050643e-20
-1.674039598e-19
1.755521939e-20
-7.506728501e-20
-4.774659871e-21
5.83056974e-20
-3.87543555e-20
2.378760392e-19
-8.382975656e-20
4.561095454e-19
-1.359167526e-19
6.750939409e-19
-1.854556434e-19
7.996112552e-19
-2.159540582e-19
7.494712136e-19
-2.052896327e-19
9.432131133e-20
-1.330110357e-19
-5.522022077e-20
3.861794011e-33
1.597137439e-20
1.252407583e-21
3.257503704e-20
2.633878735e-21
3.421797993e-20
3.48918834e-21
3.077391804e-20
3.058522836e-21
2.500420715e-20
1.483475503e-21
1.835178112e-20
-5.072508032e-22
1.185952997e-20
-2.165769206e-21
6.204901309e-21
-2.943810817e-21
1.816762461e-21
-2.656896506e-21
-8.79233548e-22
-1.607594372e-21
-1.484427282e-21
-3.924655158e-22
9.87236069e-23
3.403727783e-22
3.512986603e-21
1.490546753e-22
8.291145258e-21
-7.502560686e-22
-1.492391373e-21
-2.929189152e-19
2.636017376e-20
-2.905316736e-19
2.737519259e-20
-2.836234107e-19
2.63047919e-20
-2.686975892e-19
1.872201795e-20
-2.403272249e-19
-7.641329105e-22
-1.910225331e-19
-3.841028254e-20
-1.113447278e-19
-1.010827299e-19
8.888979107e-21
-1.952490793e-19
1.769712859e-19
-3.242926789e-19
3.886229639e-19
-4.826642068e-19
6.100428173e-19
-6.445685813e-19
7.493200125e-19
-7.440202818e-19
7.24412573e-19
-6.433484086e-19
9.286579108e-20
-1.270600733e-19
-5.396781343e-20
2.224897746e-32
1.735284562e-20
-7.007625394e-20
3.343034679e-20
-1.345241389e-20
3.378731458e-20
3.121931131e-21
2.919887083e-20
7.638111276e-21
2.301348094e-20
7.661235153e-21
1.669326279e-20
5.806676101e-21
1.10814884e-20
3.442590473e-21
6.491815655e-21
1.647489221e-21
2.86606461e-21
9.76163758e-22
3.358953126e-22
9.339689854e-22
-7.515889887e-22
7.068797083e-22
-9.25944969e-23
-3.101158204e-22
2.613675867e-21
-2.552723157e-21
7.549009986e-21
-5.683870532e-21
-5.993011152e-21
-2.860212997e-19
3.09412011e-20
-2.885678287e-19
3.175954145e-20
-2.907380481e-19
2.935326751e-20
-2.900215431e-19
1.765860815e-20
-2.822504774e-19
-1.109679362e-20
-2.612875648e-19
-6.65472969e-20
-2.185518841e-19
-1.60245686e-19
-1.427103393e-19
-3.048361965e-19
-1.967043298e-20
-5.111438152e-19
1.670425069e-19
-7.814552604e-19
4.36127207e-19
-1.096927498e-18
8.012690123e-19
-1.397724933e-18
1.014200624e-18
-1.557612946e-18
1.031367516e-18
-1.364849025e-18
1.442840847e-19
8.147103339e-33
7.39766847e-20
2.268507557e-22
5.000469111e-20
1.051191872e-20
3.830349416e-20
1.481885511e-20
2.922199428e-20
1.671554166e-20
2.115892155e-20
1.572010286e-20
1.432917695e-20
1.263215386e-20
9.28638701e-21
8.482913633e-21
5.820490101e-21
5.115005397e-21
2.823869795e-21
3.979921996e-21
1.088060344e-22
3.659197614e-21
-1.768584494e-21
2.591885578e-21
-2.335201801e-21
2.581501211e-22
-5.174715158e-22
-4.372825323e-21
7.239869265e-21
-1.344840193e-20
-1.852911036e-20
-2.784347023e-19
4.124243864e-20
-2.877527869e-19
4.431425863e-20
-3.026146066e-19
4.513737946e-20
-3.223106001e-19
3.616575558e-20
-3.452329104e-19
7.7994001e-21
-3.685855945e-19
-5.217604691e-20
-3.876679833e-19
-1.592096292e-19
-3.948430548e-19
-3.318027407e-19
-3.781362525e-19
-5.891992552e-19
-3.196690146e-19
-9.450020585e-19
-1.946157871e-19
-1.394414707e-18
2.471282053e-20
-1.892957767e-18
2.420059291e-19
-2.323680785e-18
3.685631002e-19
-2.411536372e-18
2.078546158e-19
-1.266412301e-18
8.426175381e-20
1.238172156e-19
5.431162825e-20
4.04658698e-20
4.020018128e-20
2.892346769e-20
2.822655595e-20
2.868757974e-20
1.807097283e-20
2.587517542e-20
1.017993693e-20
2.052165365e-20
5.918478913e-21
1.274320701e-20
4.685406777e-21
6.350214158e-21
2.503145454e-21
6.168537843e-21
-9.585059984e-22
7.127186145e-21
-4.102319987e-21
5.73749373e-21
-6.966177288e-21
3.119283584e-21
-9.593048174e-21
-1.756369824e-21
2.159160954e-21
-2.520093344e-20
-6.636107338e-20
-2.648899331e-19
5.698413438e-20
-2.8184597e-19
6.52624322e-20
-3.112125582e-19
7.477846824e-20
-3.546829843e-19
7.678718184e-20
-4.142703836e-19
6.080558719e-20
-4.922746866e-19
1.351432607e-20
-5.907118809e-19
-8.255166641e-20
-7.102718968e-19
-2.496512803e-19
-8.489427788e-19
-5.133168325e-19
-1.001495265e-18
-8.959898925e-19
-1.16315553e-18
-1.401681329e-18
-1.343784467e-18
-1.985979151e-18
-1.572602329e-18
-2.503756046e-18
-1.694438208e-18
-2.615451107e-18
-1.515779701e-18
-1.543985669e-18
-6.243327005e-20
1.065231946e-32
4.276922598e-20
-6.474887031e-20
3.996429333e-20
3.172683955e-20
2.541415164e-20
4.323364991e-20
1.271745098e-20
3.85711678e-20
2.401490215e-21
3.083680737e-20
-4.745139883e-22
1.561861902e-20
4.503730451e-21
1.374491167e-21
3.461793765e-21
7.215638652e-21
-2.348198418e-21
1.294256407e-20
-6.720530167e-21
1.011285126e-20
-1.184183074e-20
8.23051336e-21
-3.303761206e-20
1.944440631e-20
-1.31593205e-19
7.334002733e-20
-1.92389814e-19
-2.393299122e-19
7.601742349e-20
-2.635639847e-19
9.274141239e-20
-3.068393033e-19
1.165867453e-19
-3.734083496e-19
1.378959774e-19
-4.693209947e-19
1.465117968e-19
-6.027088465e-19
1.299100313e-19
-7.833602077e-19
7.110060452e-20
-1.021248917e-18
-5.309926555e-20
-1.323289545e-18
-2.720744538e-19
-1.687776889e-18
-6.167262042e-19
-2.096108591e-18
-1.104902287e-18
-2.499221618e-18
-1.710650528e-18
-2.780688359e-18
-2.316923334e-18
-2.691761407e-18
-2.671112061e-18
-1.202778779e-18
-2.444946593e-18
-4.947841857e-22
-1.127598146e-18
1.39244934e-19
-2.044896868e-19
5.147110294e-20
1.194882687e-19
2.075166926e-20
7.394724741e-20
4.983090398e-21
5.433897688e-20
-1.281669796e-20
4.863586467e-20
-1.471864165e-20
1.752036895e-20
1.034487779e-20
-2.368645975e-20
9.188719056e-21
8.37813713e-21
-5.177911147e-21
2.731655702e-20
-8.602867956e-21
1.353401542e-20
-6.27937763e-22
2.573080304e-22
2.085800888e-20
-2.047190175e-21
3.150691698e-19
-2.208703443e-19
4.609459486e-19
-1.958457603e-19
9.372991576e-20
-2.258800512e-19
1.226192756e-19
-2.799618261e-19
1.659224759e-19
-3.645212666e-19
2.133197705e-19
-4.892951756e-19
2.563591103e-19
-6.678711287e-19
2.853024418e-19
-9.174757787e-19
2.862566585e-19
-1.257151787e-18
2.382172837e-19
-1.702530606e-18
1.10561706e-19
-2.25513156e-18
-1.365414551e-19
-2.885106233e-18
-5.428698208e-19
-3.508254626e-18
-1.120446764e-18
-3.954482241e-18
-1.807161839e-18
-3.91251788e-18
-2.441206482e-18
-3.129984534e-18
-2.967262197e-18
-3.651968751e-19
-3.748354661e-18
4.632228891e-19
-2.732043194e-18
5.930082356e-21
5.767762113e-19
1.143399083e-21
7.873420253e-20
-7.200218282e-22
5.62049484e-20
-4.393219392e-20
9.184898031e-20
-5.59254707e-20
2.951435811e-20
4.240947493e-20
-1.220174666e-19
2.812713911e-20
2.266798927e-20
-1.896045283e-20
7.440969575e-20
-2.187957552e-20
1.64531776e-20
-2.932435981e-21
-1.868800638e-20
-3.10357388e-19
3.053777618e-19
-2.031144952e-19
-2.184790109e-18
2.031144932e-19
-1.296628911e-19
1.025252113e-19
-1.636504935e-19
1.490893021e-19
-2.23437081e-19
2.158756313e-19
-3.169967633e-19
2.930181346e-19
-4.567353922e-19
3.75348188e-19
-6.60163412e-19
4.575525283e-19
-9.501628646e-19
5.31033985e-19
-1.353594721e-18
5.8015906e-19
-1.895549225e-18
5.770073823e-19
-2.585780698e-18
4.752654242e-19
-3.397725467e-18
2.094179798e-19
-4.25583215e-18
-2.787212967e-19
-5.085780299e-18
-9.541253666e-19
-5.944181685e-18
-1.510487049e-18
-6.892481196e-18
-1.685525388e-18
-7.093047361e-18
-2.170359695e-18
-6.118318881e-18
-9.342518681e-19
-2.080487199e-19
4.479172299e-32
-7.043442463e-20
-5.888066839e-20
3.492401035e-20
-4.91515468e-20
-1.062668167e-19
2.330408975e-19
-2.074572971e-19
1.307062617e-19
1.870949324e-19
-5.165649085e-19
7.986884605e-20
1.299022715e-19
-7.691697152e-20
2.312021323e-19
-7.972190388e-21
-5.248698539e-20
3.70700194e-20
-6.372911674e-20
2.098012099e-18
4.699209092e-32
1.342646761e-18
-1.449781931e-18
-1.728861206e-32
-3.796844998e-20
8.529439727e-20
-7.57150154e-20
1.654872475e-19
-1.348375806e-19
2.586126761e-19
-2.259056152e-19
3.64795586e-19
-3.626046737e-19
4.844603526e-19
-5.635595929e-19
6.173745055e-19
-8.533882065e-19
7.609818105e-19
-1.262637102e-18
9.072733538e-19
-1.823260168e-18
1.036150254e-18
-2.551776869e-18
1.101537787e-18
-3.41163979e-18
1.008314288e-18
-4.261516709e-18
6.134882137e-19
-4.93092433e-18
-1.583354896e-19
-5.534129663e-18
-6.470090127e-19
-6.281070923e-18
-9.689150096e-20
-6.499342797e-18
-3.831454709e-19
-3.628746617e-18
-5.425566526e-19
-2.669293844e-19
2.6394268e-20
-3.923771305e-19
6.656266773e-20
-3.462272089e-19
-9.530059595e-20
2.988063096e-19
-4.119916873e-19
5.210074184e-19
-9.149297108e-20
-5.42173773e-19
5.466210891e-19
-3.262390549e-19
-8.602413251e-20
3.027375751e-19
-3.977677443e-19
3.124575069e-19
-6.220327485e-20
1.007991347e-19
1.479307127e-19
-4.272605431e-19
2.464232455e-19
-8.670021243e-20
-1.62980481e-18
-1.558519567e-19
6.190586691e-20
6.411749899e-20
3.058160622e-20
1.736906406e-19
-1.837387306e-20
2.882203218e-19
-9.463991719e-20
4.169432798e-19
-2.103385334e-19
5.64787854e-19
-3.811228886e-19
7.348411705e-19
-6.27074142e-19
9.283068884e-19
-9.743595711e-19
1.143560952e-18
-1.455897164e-18
1.372594805e-18
-2.098757524e-18
1.585125197e-18
-2.868519406e-18
1.670265992e-18
-3.491149016e-18
1.343338343e-18
-3.459765406e-18
4.355141298e-20
-2.690616275e-18
-4.541073612e-19
-1.425081747e-18
4.446565273e-19
4.188510503e-32
-7.783408525e-21
5.970776883e-20
-3.58229976e-20
7.159733901e-20
1.449528408e-20
1.383518331e-19
-1.936350883e-22
1.128176047e-19
-6.976532189e-20
-1.564308878e-19
-1.427423667e-19
-2.16614407e-19
-3.130765486e-20
2.009168907e-19
1.290944046e-19
1.377532466e-19
-2.285395959e-20
-1.37433861e-19
-1.225748186e-19
-1.70000734e-19
-2.963310792e-20
-9.906676326e-20
7.699746718e-20
-1.140848694e-20
1.58765109e-19
-1.558519571e-19
-6.653190602e-20
-1.329482642e-19
1.658226719e-19
5.960564161e-20
1.497543541e-19
1.760064975e-19
1.186143171e-19
3.001319423e-19
6.604113764e-20
4.403942775e-19
-1.683106181e-20
6.023787422e-19
-1.39564801e-19
7.886378552e-19
-3.106792379e-19
9.979415364e-19
-5.384707603e-19
1.226107576e-18
-8.405289745e-19
1.47156918e-18
-1.256700735e-18
1.742375276e-18
-1.839338384e-18
1.986408766e-18
-2.25529239e-18
1.681690515e-18
-2.026761748e-18
4.322783583e-20
5.957740751e-20
-1.452138416e-18
1.972010624e-19
7.759057737e-20
9.864776396e-20
9.076431655e-20
4.668237313e-20
1.613675617e-20
5.690841971e-20
4.264000668e-21
6.878014556e-20
-1.206651698e-20
3.984055928e-20
-4.08255779e-20
-4.499617499e-20
-5.790509737e-20
-5.621234581e-20
-2.009012611e-20
4.896852487e-20
2.391761686e-20
3.803238668e-20
-1.191214687e-20
-4.449214948e-20
-4.004558357e-20
-6.337015782e-20
-1.075328762e-20
-1.729912074e-20
3.092608346e-20
9.496632906e-20
4.649131137e-20
4.60598353e-20
-1.763388406e-20
-4.47980259e-20
2.814666512e-19
5.525110362e-20
2.787076558e-19
1.677113963e-19
2.673921025e-19
2.900397089e-19
2.411556245e-19
4.296699536e-19
1.920491794e-19
5.913393169e-19
1.146058637e-19
7.742779628e-19
1.352986085e-20
9.676568284e-19
-8.667774244e-20
1.146575662e-18
-1.472465047e-19
1.279781152e-18
-1.526850599e-19
1.385280554e-18
-3.501639068e-19
1.577979403e-18
-5.736542613e-19
1.277103199e-18
9.240270599e-33
-4.52840112e-20
-1.907375682e-19
-7.84895676e-20
-5.795334593e-20
-5.519525863e-20
2.402020303e-20
8.788484916e-21
3.480961707e-20
5.341919038e-21
4.057790143e-20
-1.507704637e-21
4.002108391e-20
-1.151054674e-20
2.27610395e-20
-2.356549404e-20
-7.181203571e-21
-2.796285265e-20
-1.220460252e-20
-1.506578977e-20
1.313876082e-20
-1.422458816e-21
9.898949788e-21
-8.667348186e-21
-1.519985325e-20
-1.494245573e-20
-2.16907863e-20
-4.261147942e-21
-1.733892787e-21
1.096705985e-20
3.0841133e-20
1.390977051e-20
1.889569315e-20
-5.696961835e-21
-1.656786149e-20
3.974010323e-19
4.7611264e-20
4.083768576e-19
1.460265043e-19
4.176802969e-19
2.55037724e-19
4.169771311e-19
3.818277069e-19
3.940228084e-19
5.312841944e-19
3.366714158e-19
7.018573391e-19
2.455477833e-19
8.763205439e-19
1.660235439e-19
1.004398482e-18
2.244329369e-19
9.804964754e-19
4.752273112e-19
7.072100859e-19
8.36441756e-19
2.301713723e-19
1.597004639e-19
1.435617494e-19
9.34818019e-20
2.093346997e-20
3.754120453e-20
-2.25508889e-20
6.030396903e-21
-2.368740526e-20
2.057363751e-20
-5.758280688e-21
2.795999389e-20
-2.04816446e-21
3.057505992e-20
-4.124812162e-21
2.796613715e-20
-8.902686908e-21
1.836368126e-20
-1.396315887e-20
5.715859225e-21
-1.531560591e-20
1.438728276e-21
-1.078793288e-20
5.893871634e-21
-5.875162835e-21
3.62384238e-21
-6.392523677e-21
-4.518545673e-21
-6.79578796e-21
-6.462578793e-21
-2.315139132e-21
1.208817845e-21
3.293290542e-21
1.123440107e-20
3.878639121e-21
8.024793763e-21
-2.493080894e-21
-6.817787837e-21
5.036066852e-19
3.549956841e-20
5.291520612e-19
1.09545864e-19
5.606267613e-19
1.931939164e-19
5.871395461e-19
2.934976836e-19
5.878828773e-19
4.174023434e-19
5.284817592e-19
5.699558591e-19
3.601751204e-19
7.483809056e-19
4.204123341e-20
9.239998363e-19
-3.963608736e-19
9.822312651e-19
-3.326291121e-19
3.912431148e-19
-6.142272263e-20
-1.187898262e-32
3.707218296e-20
4.506688619e-20
4.999744259e-20
8.0077806e-21
3.640468818e-20
-8.960759616e-21
2.395952165e-20
-1.124558076e-20
2.428375377e-20
-6.086661934e-21
2.588334617e-20
-3.651710589e-21
2.579718513e-20
-4.041593054e-21
2.290566511e-20
-6.012513027e-21
1.701123422e-20
-8.069729895e-21
1.024353229e-20
-8.548601466e-21
6.351498362e-21
-6.895976391e-21
5.376510796e-21
-4.897898328e-21
3.220578094e-21
-4.232168981e-21
-3.789680461e-23
-3.532161743e-21
-8.541490605e-22
-1.496058197e-21
1.794166429e-21
6.446092245e-22
4.862680986e-21
8.066152985e-22
3.700086782e-21
-1.334017131e-21
-3.022378131e-21
5.903154293e-19
1.907960883e-20
6.305736778e-19
5.912641238e-20
6.864792157e-19
1.05154243e-19
7.484708053e-19
1.621097819e-19
7.945945076e-19
2.365145615e-19
7.795638586e-19
3.381402467e-19
6.125936913e-19
4.83791613e-19
1.534847669e-19
7.051622771e-19
-5.101489835e-19
1.029561998e-18
-1.294397023e-18
9.532445523e-19
-1.430431906e-19
-8.034419699e-20
1.307732097e-23
-9.798955368e-20
3.302890183e-20
-2.500911662e-20
3.411986652e-20
-1.005487911e-20
2.911844005e-20
-6.248592962e-21
2.671870472e-20
-3.692255736e-21
2.549346333e-20
-2.43103311e-21
2.38262648e-20
-2.377833475e-21
2.084844792e-20
-3.036609984e-21
1.653236242e-20
-3.755161032e-21
1.189615719e-20
-3.913473589e-21
8.349576296e-21
-3.349593768e-21
6.042240061e-21
-2.58817302e-21
3.920585274e-21
-2.105614508e-21
1.998206714e-21
-1.603756355e-21
1.286518349e-21
-7.803614161e-22
1.956172474e-21
-2.389349541e-23
2.722048509e-21
3.907391255e-23
2.01172575e-21
-6.253617061e-22
-1.205253134e-21
6.478541432e-19
6.997002569e-19
7.770056297e-19
8.765247622e-19
9.900048712e-19
1.102837362e-18
1.190559092e-18
1.02664277e-18
7.508193126e-19
2.513276425e-19
1.709832768e-19
7.299351449e-20
4.798313986e-20
3.79261532e-20
3.167477772e-20
2.797992775e-20
2.554666335e-20
2.316748865e-20
2.012989718e-20
1.637405011e-20
1.246003719e-20
9.110997168e-21
6.524798668e-21
4.422443487e-21
2.821601683e-21
2.042986292e-21
2.019139911e-21
2.057612928e-21
1.431834352e-21
)
;

boundaryField
{
    lowerWall
    {
        type            calculated;
        value           nonuniform 0();
    }
    atmosphere
    {
        type            calculated;
        value           nonuniform List<scalar> 
20
(
3.840634667e-19
3.610848241e-19
3.386471026e-19
3.191997583e-19
3.041460637e-19
2.933642968e-19
2.84963388e-19
2.753333563e-19
2.5949883e-19
2.317573474e-19
1.86459402e-19
1.186099293e-19
2.342355505e-20
-7.418624848e-20
-1.706794676e-19
-2.8143726e-19
-3.924761508e-19
-4.935098479e-19
-5.751837598e-19
-6.289935792e-19
)
;
    }
    rightWall
    {
        type            empty;
        value           nonuniform 0();
    }
    leftWall
    {
        type            empty;
        value           nonuniform 0();
    }
    frontAndBack
    {
        type            calculated;
        value           uniform 0;
    }
    procBoundary4to2
    {
        type            processor;
        value           nonuniform List<scalar> 
30
(
-3.083109363e-20
-4.040927756e-20
-5.830106028e-20
-8.535595174e-20
-1.244225566e-19
-1.804528692e-19
-2.60520398e-19
-3.735240449e-19
-5.287713281e-19
-7.325319367e-19
-9.806740254e-19
-1.245326697e-18
-1.454113782e-18
-1.470476819e-18
-1.166676394e-18
-4.281816761e-19
-1.710770819e-19
-4.399323133e-20
8.048951359e-21
6.271316209e-20
6.582992988e-20
5.987237828e-20
5.140747482e-20
4.59040531e-20
3.469600655e-20
8.967477061e-21
-7.035234299e-20
-1.291891611e-19
-1.13014296e-19
5.093035228e-19
)
;
    }
    procBoundary4to5
    {
        type            processor;
        value           nonuniform List<scalar> 
20
(
-3.541447757e-19
-8.664223127e-21
5.009438635e-20
2.027273146e-20
1.225076601e-20
1.204694723e-20
1.977412306e-20
4.997918224e-20
-5.562703145e-21
-3.382846342e-19
5.47140047e-20
3.1650152e-19
1.223992926e-19
-1.787574946e-19
-4.209847625e-20
-9.338446989e-21
-1.728560919e-21
-9.741019801e-23
1.9365985e-22
2.267974912e-22
)
;
    }
}


// ************************************************************************* //
