/*--------------------------------*- C++ -*----------------------------------*\
  =========                 |
  \\      /  F ield         | OpenFOAM: The Open Source CFD Toolbox
   \\    /   O peration     | Website:  https://openfoam.org
    \\  /    A nd           | Version:  10
     \\/     M anipulation  |
\*---------------------------------------------------------------------------*/
FoamFile
{
    format      ascii;
    class       volVectorField;
    location    "0.0001";
    object      U;
}
// * * * * * * * * * * * * * * * * * * * * * * * * * * * * * * * * * * * * * //

dimensions      [0 1 -1 0 0 0 0];

internalField   nonuniform List<vector> 
3600
(
(0 1.187688389e-12 1.201824761e-14)
(0 1.16377722e-12 1.148006177e-14)
(0 1.141553327e-12 1.094949039e-14)
(0 1.120183937e-12 1.047850008e-14)
(0 1.099654199e-12 1.007939503e-14)
(0 1.079846152e-12 9.754743839e-15)
(0 1.060614628e-12 9.504485194e-15)
(0 1.041812807e-12 9.326529541e-15)
(0 1.023299817e-12 9.216869843e-15)
(0 1.004944568e-12 9.169894937e-15)
(0 9.866284337e-13 9.178806981e-15)
(0 9.682471615e-13 9.236035627e-15)
(0 9.497120584e-13 9.333599714e-15)
(0 9.309505008e-13 9.463414905e-15)
(0 9.119058492e-13 9.617561598e-15)
(0 8.925369174e-13 9.788504269e-15)
(0 8.728171096e-13 9.969241417e-15)
(0 8.527332523e-13 1.015339896e-14)
(0 8.322841843e-13 1.033530599e-14)
(0 8.114792585e-13 1.051005902e-14)
(0 7.903368684e-13 1.067354031e-14)
(0 7.68882974e-13 1.082237984e-14)
(0 7.471495952e-13 1.09539031e-14)
(0 7.251733481e-13 1.106610387e-14)
(0 7.029941435e-13 1.115762325e-14)
(0 6.806540611e-13 1.122769091e-14)
(0 6.581963191e-13 1.127602742e-14)
(0 6.356642935e-13 1.130275633e-14)
(0 6.131006459e-13 1.130836105e-14)
(0 5.905466412e-13 1.129366514e-14)
(0 5.680416511e-13 1.125978797e-14)
(0 5.456227491e-13 1.120806239e-14)
(0 5.233243148e-13 1.113994979e-14)
(0 5.011776731e-13 1.105699378e-14)
(0 4.792108563e-13 1.096081308e-14)
(0 4.574485255e-13 1.085309667e-14)
(0 4.359119823e-13 1.073557103e-14)
(0 4.146191757e-13 1.060994711e-14)
(0 3.935846822e-13 1.047788034e-14)
(0 3.72819726e-13 1.034096445e-14)
(0 3.523323008e-13 1.020074661e-14)
(0 3.321273728e-13 1.005873363e-14)
(0 3.122070762e-13 9.916373351e-15)
(0 2.925708432e-13 9.775023123e-15)
(0 2.732154925e-13 9.635930744e-15)
(0 2.541353511e-13 9.5002407e-15)
(0 2.35322451e-13 9.369015582e-15)
(0 2.167667686e-13 9.243251433e-15)
(0 1.984564376e-13 9.123874771e-15)
(0 1.803778957e-13 9.011727117e-15)
(0 1.625159928e-13 8.907553216e-15)
(0 1.448541158e-13 8.812004514e-15)
(0 1.273743618e-13 8.725656336e-15)
(0 1.100577331e-13 8.649027453e-15)
(0 9.288429659e-14 8.582591831e-15)
(0 7.583326096e-14 8.526785446e-15)
(0 5.888295646e-14 8.482037117e-15)
(0 4.20106413e-14 8.448912591e-15)
(0 2.519168372e-14 8.42866779e-15)
(0 8.396152981e-15 8.425370068e-15)
(0 1.186446006e-12 3.606339001e-14)
(0 1.162708463e-12 3.438255794e-14)
(0 1.140551764e-12 3.278747916e-14)
(0 1.119313841e-12 3.137466556e-14)
(0 1.098930442e-12 3.017614438e-14)
(0 1.079271241e-12 2.920222316e-14)
(0 1.060186413e-12 2.845370077e-14)
(0 1.041525191e-12 2.792417874e-14)
(0 1.023143182e-12 2.760118701e-14)
(0 1.004906504e-12 2.746742827e-14)
(0 9.866945739e-13 2.750209247e-14)
(0 9.684019538e-13 2.768209671e-14)
(0 9.499394372e-13 2.798318316e-14)
(0 9.312344622e-13 2.838086022e-14)
(0 9.122309382e-13 2.885118319e-14)
(0 8.928885968e-13 2.937137199e-14)
(0 8.731820039e-13 2.992027614e-14)
(0 8.530993165e-13 3.047870754e-14)
(0 8.32640844e-13 3.10296593e-14)
(0 8.118174925e-13 3.155841998e-14)
(0 7.906491889e-13 3.205259447e-14)
(0 7.691633365e-13 3.250205594e-14)
(0 7.47393319e-13 3.28988563e-14)
(0 7.253770679e-13 3.32371031e-14)
(0 7.031557303e-13 3.351279248e-14)
(0 6.80772465e-13 3.372360365e-14)
(0 6.582713842e-13 3.386869215e-14)
(0 6.356966269e-13 3.394851596e-14)
(0 6.130915545e-13 3.396468414e-14)
(0 5.904980679e-13 3.391978688e-14)
(0 5.679560482e-13 3.381719246e-14)
(0 5.455029108e-13 3.36608484e-14)
(0 5.231732461e-13 3.345513385e-14)
(0 5.009985362e-13 3.320476576e-14)
(0 4.79006959e-13 3.291471626e-14)
(0 4.572232833e-13 3.259010531e-14)
(0 4.356688326e-13 3.223607954e-14)
(0 4.143614848e-13 3.185771922e-14)
(0 3.933156994e-13 3.145999719e-14)
(0 3.725425921e-13 3.104776965e-14)
(0 3.520500699e-13 3.062575752e-14)
(0 3.318429995e-13 3.019849802e-14)
(0 3.119233656e-13 2.977028449e-14)
(0 2.922904005e-13 2.934512882e-14)
(0 2.7294071e-13 2.892676282e-14)
(0 2.538684359e-13 2.851866355e-14)
(0 2.350654617e-13 2.812407315e-14)
(0 2.165216278e-13 2.774599615e-14)
(0 1.982249132e-13 2.73871811e-14)
(0 1.801615741e-13 2.705010631e-14)
(0 1.623162701e-13 2.673698413e-14)
(0 1.446722189e-13 2.644978317e-14)
(0 1.272113847e-13 2.619025694e-14)
(0 1.099146686e-13 2.595996734e-14)
(0 9.276205455e-14 2.576029951e-14)
(0 7.573270623e-14 2.55924785e-14)
(0 5.880508359e-14 2.545762201e-14)
(0 4.195727196e-14 2.535691006e-14)
(0 2.516814119e-14 2.529206661e-14)
(0 8.392855254e-15 2.526667804e-14)
(0 1.183974681e-12 6.004689464e-14)
(0 1.160501309e-12 5.712699904e-14)
(0 1.138545434e-12 5.443564292e-14)
(0 1.117572601e-12 5.206448738e-14)
(0 1.097481756e-12 5.00576634e-14)
(0 1.078123708e-12 4.84333875e-14)
(0 1.059336583e-12 4.719294555e-14)
(0 1.040960293e-12 4.632448288e-14)
(0 1.022843066e-12 4.580567202e-14)
(0 1.004845473e-12 4.560616288e-14)
(0 9.868431016e-13 4.568989047e-14)
(0 9.687282517e-13 4.601716636e-14)
(0 9.504108214e-13 4.654651514e-14)
(0 9.318185004e-13 4.723625231e-14)
(0 9.128963606e-13 4.804578614e-14)
(0 8.9360601e-13 4.893663004e-14)
(0 8.739244447e-13 4.987315526e-14)
(0 8.538426351e-13 5.082313145e-14)
(0 8.333638964e-13 5.175807932e-14)
(0 8.125021934e-13 5.265344617e-14)
(0 7.91280504e-13 5.348862742e-14)
(0 7.697292356e-13 5.424687022e-14)
(0 7.478846421e-13 5.491509285e-14)
(0 7.25787284e-13 5.54836445e-14)
(0 7.034806438e-13 5.594602012e-14)
(0 6.810099606e-13 5.629854502e-14)
(0 6.584212311e-13 5.654005066e-14)
(0 6.357602853e-13 5.667155857e-14)
(0 6.130719167e-13 5.669597085e-14)
(0 5.903991493e-13 5.661775747e-14)
(0 5.677827124e-13 5.644264957e-14)
(0 5.452606904e-13 5.61773666e-14)
(0 5.22868232e-13 5.582939127e-14)
(0 5.006372553e-13 5.540677221e-14)
(0 4.785961957e-13 5.491792626e-14)
(0 4.567698886e-13 5.437144315e-14)
(0 4.35179596e-13 5.377592698e-14)
(0 4.138430932e-13 5.31398986e-14)
(0 3.927747325e-13 5.247174037e-14)
(0 3.719854862e-13 5.177963949e-14)
(0 3.514830291e-13 5.107150602e-14)
(0 3.312718997e-13 5.035488373e-14)
(0 3.113537069e-13 4.963689152e-14)
(0 2.917273214e-13 4.892421155e-14)
(0 2.723890272e-13 4.822310478e-14)
(0 2.533326614e-13 4.753942072e-14)
(0 2.345497835e-13 4.68785859e-14)
(0 2.160298765e-13 4.624558341e-14)
(0 1.977605477e-13 4.564494521e-14)
(0 1.797276986e-13 4.508076624e-14)
(0 1.619156696e-13 4.455673084e-14)
(0 1.443073886e-13 4.407613745e-14)
(0 1.268845459e-13 4.36419159e-14)
(0 1.096277757e-13 4.32566422e-14)
(0 9.251680772e-14 4.292255688e-14)
(0 7.553058344e-14 4.26415886e-14)
(0 5.8647388e-14 4.241538162e-14)
(0 4.184508588e-14 4.224530548e-14)
(0 2.510145168e-14 4.21323057e-14)
(0 8.370764402e-15 4.207589954e-14)
(0 1.180211839e-12 8.383590103e-14)
(0 1.157097211e-12 7.960374386e-14)
(0 1.135489253e-12 7.57539353e-14)
(0 1.114935861e-12 7.238623109e-14)
(0 1.095299342e-12 6.955332894e-14)
(0 1.076406524e-12 6.727713894e-14)
(0 1.058077509e-12 6.555634754e-14)
(0 1.040137918e-12 6.437102494e-14)
(0 1.022424862e-12 6.368654047e-14)
(0 1.004790723e-12 6.345719042e-14)
(0 9.871055773e-13 6.362954924e-14)
(0 9.692585785e-13 6.414547157e-14)
(0 9.511585232e-13 6.494469466e-14)
(0 9.327337332e-13 6.596704137e-14)
(0 9.139313159e-13 6.715422941e-14)
(0 8.94715966e-13 6.845128156e-14)
(0 8.750685053e-13 6.980755594e-14)
(0 8.549842406e-13 7.117745196e-14)
(0 8.344711587e-13 7.25208531e-14)
(0 8.135480406e-13 7.380334158e-14)
(0 7.922426129e-13 7.499619785e-14)
(0 7.70589802e-13 7.607621459e-14)
(0 7.486300932e-13 7.702539491e-14)
(0 7.264079952e-13 7.783060231e-14)
(0 7.039706308e-13 7.848317186e-14)
(0 6.813664956e-13 7.897845542e-14)
(0 6.586443978e-13 7.931531174e-14)
(0 6.358525471e-13 7.949560649e-14)
(0 6.130377534e-13 7.952377431e-14)
(0 5.902447466e-13 7.940642808e-14)
(0 5.675156573e-13 7.915196936e-14)
(0 5.448896525e-13 7.877018948e-14)
(0 5.224026517e-13 7.827189706e-14)
(0 5.000870712e-13 7.766860652e-14)
(0 4.779716299e-13 7.697228595e-14)
(0 4.56081284e-13 7.61951402e-14)
(0 4.34437288e-13 7.534941648e-14)
(0 4.130572982e-13 7.444723832e-14)
(0 3.919554403e-13 7.350047579e-14)
(0 3.711423578e-13 7.252064649e-14)
(0 3.506253142e-13 7.151883524e-14)
(0 3.30408385e-13 7.050562505e-14)
(0 3.104926934e-13 6.949104098e-14)
(0 2.908766137e-13 6.848451078e-14)
(0 2.715559192e-13 6.749484212e-14)
(0 2.52523917e-13 6.653021373e-14)
(0 2.337716244e-13 6.559817757e-14)
(0 2.152879871e-13 6.470566923e-14)
(0 1.97060096e-13 6.38590216e-14)
(0 1.790733597e-13 6.306397685e-14)
(0 1.613116414e-13 6.232569622e-14)
(0 1.43757404e-13 6.164877457e-14)
(0 1.263918894e-13 6.103726703e-14)
(0 1.091953096e-13 6.049472633e-14)
(0 9.214700095e-14 6.002423836e-14)
(0 7.522553096e-14 5.96284427e-14)
(0 5.840880046e-14 5.930953201e-14)
(0 4.167419604e-14 5.906922059e-14)
(0 2.499873524e-14 5.890864044e-14)
(0 8.336449088e-15 5.882812762e-14)
(0 1.175053608e-12 1.073133887e-13)
(0 1.152419343e-12 1.016678444e-13)
(0 1.131327921e-12 9.658376975e-14)
(0 1.111371995e-12 9.217209142e-14)
(0 1.092372664e-12 8.849197038e-14)
(0 1.074126726e-12 8.556519427e-14)
(0 1.056430469e-12 8.338389599e-14)
(0 1.039090486e-12 8.191626421e-14)
(0 1.021929232e-12 8.111176036e-14)
(0 1.004788481e-12 8.090598625e-14)
(0 9.875313828e-13 8.122514374e-14)
(0 9.700433972e-13 8.198999678e-14)
(0 9.522323912e-13 8.311927553e-14)
(0 9.340280351e-13 8.45325155e-14)
(0 9.153806007e-13 8.615234616e-14)
(0 8.962593365e-13 8.790625365e-14)
(0 8.766506151e-13 8.97278594e-14)
(0 8.565559323e-13 9.15577673e-14)
(0 8.35989786e-13 9.334404292e-14)
(0 8.149775381e-13 9.504239584e-14)
(0 7.93553377e-13 9.66161188e-14)
(0 7.717584326e-13 9.803581851e-14)
(0 7.496390298e-13 9.927898708e-14)
(0 7.272450609e-13 1.003294789e-13)
(0 7.046284969e-13 1.011769331e-13)
(0 6.818421004e-13 1.018161486e-13)
(0 6.589383822e-13 1.022464322e-13)
(0 6.359687478e-13 1.024709662e-13)
(0 6.129827382e-13 1.024962265e-13)
(0 5.900273443e-13 1.023314349e-13)
(0 5.671464738e-13 1.0198802e-13)
(0 5.443806181e-13 1.014791009e-13)
(0 5.217666491e-13 1.008190385e-13)
(0 4.993376442e-13 1.000230699e-13)
(0 4.771227294e-13 9.91069954e-14)
(0 4.551470191e-13 9.808688317e-14)
(0 4.334316942e-13 9.697879231e-14)
(0 4.119941525e-13 9.579854712e-14)
(0 3.908481407e-13 9.456158343e-14)
(0 3.700038457e-13 9.32828495e-14)
(0 3.494680077e-13 9.19767225e-14)
(0 3.292441054e-13 9.065691713e-14)
(0 3.093325926e-13 8.9336395e-14)
(0 2.897311226e-13 8.802730116e-14)
(0 2.704347301e-13 8.674094413e-14)
(0 2.514359969e-13 8.548781187e-14)
(0 2.32725239e-13 8.42775995e-14)
(0 2.142907206e-13 8.311922603e-14)
(0 1.961188553e-13 8.202083396e-14)
(0 1.781943733e-13 8.098978329e-14)
(0 1.605004673e-13 8.003265967e-14)
(0 1.430189594e-13 7.91553092e-14)
(0 1.257304977e-13 7.836289456e-14)
(0 1.08614747e-13 7.765995089e-14)
(0 9.16505241e-14 7.70504192e-14)
(0 7.481587709e-14 7.653765078e-14)
(0 5.808816589e-14 7.612439486e-14)
(0 4.144419432e-14 7.581278251e-14)
(0 2.486035869e-14 7.56043066e-14)
(0 8.290251559e-15 7.549983077e-14)
(0 1.168359929e-12 1.303362662e-13)
(0 1.146367592e-12 1.23146637e-13)
(0 1.1259935e-12 1.167360822e-13)
(0 1.106844062e-12 1.112255678e-13)
(0 1.088692445e-12 1.066771667e-13)
(0 1.071298449e-12 1.031077526e-13)
(0 1.054428579e-12 1.004977464e-13)
(0 1.037865782e-12 9.879834176e-14)
(0 1.021414584e-12 9.793823037e-14)
(0 1.004904106e-12 9.782985047e-14)
(0 9.881895879e-13 9.837506024e-14)
(0 9.711527102e-13 9.947011826e-14)
(0 9.537010419e-13 1.010099036e-13)
(0 9.357668039e-13 1.028913797e-13)
(0 9.17305054e-13 1.050163349e-13)
(0 8.982914792e-13 1.07293451e-13)
(0 8.787200189e-13 1.096397635e-13)
(0 8.586004241e-13 1.119815842e-13)
(0 8.379557873e-13 1.142549729e-13)
(0 8.168201165e-13 1.164058525e-13)
(0 7.952360356e-13 1.183898333e-13)
(0 7.732526702e-13 1.201717771e-13)
(0 7.509237536e-13 1.217251653e-13)
(0 7.283059412e-13 1.230313752e-13)
(0 7.054573005e-13 1.24078931e-13)
(0 6.824359948e-13 1.248627229e-13)
(0 6.592992154e-13 1.253831831e-13)
(0 6.361023413e-13 1.256454564e-13)
(0 6.128982221e-13 1.256586274e-13)
(0 5.897365401e-13 1.254350195e-13)
(0 5.666633233e-13 1.24989544e-13)
(0 5.43720671e-13 1.243390943e-13)
(0 5.209466207e-13 1.235020068e-13)
(0 4.983750281e-13 1.224976001e-13)
(0 4.760354432e-13 1.213457788e-13)
(0 4.539530809e-13 1.200666759e-13)
(0 4.32148952e-13 1.18680338e-13)
(0 4.106400893e-13 1.172064729e-13)
(0 3.894397427e-13 1.15664267e-13)
(0 3.685574969e-13 1.140722506e-13)
(0 3.479993818e-13 1.12448179e-13)
(0 3.277680575e-13 1.108089193e-13)
(0 3.078630774e-13 1.091703592e-13)
(0 2.882811629e-13 1.075473603e-13)
(0 2.690164299e-13 1.059537586e-13)
(0 2.500605724e-13 1.044023897e-13)
(0 2.314030385e-13 1.029051114e-13)
(0 2.130312215e-13 1.014728051e-13)
(0 1.949306533e-13 1.001153681e-13)
(0 1.770851854e-13 9.88417178e-14)
(0 1.594771673e-13 9.765982569e-14)
(0 1.420876388e-13 9.65767809e-14)
(0 1.248965311e-13 9.559886109e-14)
(0 1.078828342e-13 9.473158373e-14)
(0 9.102470084e-14 9.397972449e-14)
(0 7.429950663e-14 9.334731371e-14)
(0 5.768393219e-14 9.283763551e-14)
(0 4.115410778e-14 9.2453244e-14)
(0 2.468578348e-14 9.219599158e-14)
(0 8.231973236e-15 9.206707078e-14)
(0 1.159956707e-12 1.527201533e-13)
(0 1.138819159e-12 1.438280276e-13)
(0 1.119406852e-12 1.359842583e-13)
(0 1.10131308e-12 1.29316204e-13)
(0 1.084254849e-12 1.238832648e-13)
(0 1.067947306e-12 1.196909001e-13)
(0 1.052121059e-12 1.167010363e-13)
(0 1.03653097e-12 1.148412109e-13)
(0 1.02096074e-12 1.140130828e-13)
(0 1.005225311e-12 1.14100251e-13)
(0 9.891716506e-13 1.149752528e-13)
(0 9.726782406e-13 1.16505615e-13)
(0 9.556536527e-13 1.185589005e-13)
(0 9.380344664e-13 1.210067681e-13)
(0 9.197826721e-13 1.237281057e-13)
(0 9.008827651e-13 1.266113325e-13)
(0 8.813387483e-13 1.295559771e-13)
(0 8.611711417e-13 1.324736079e-13)
(0 8.404140543e-13 1.352882041e-13)
(0 8.191123985e-13 1.379361013e-13)
(0 7.973193016e-13 1.403656186e-13)
(0 7.750937647e-13 1.425364186e-13)
(0 7.52498628e-13 1.444186587e-13)
(0 7.295988265e-13 1.459920375e-13)
(0 7.064598446e-13 1.47244814e-13)
(0 6.831463526e-13 1.481728017e-13)
(0 6.597211156e-13 1.487783318e-13)
(0 6.362441921e-13 1.490692345e-13)
(0 6.127723014e-13 1.490579028e-13)
(0 5.893582609e-13 1.48760448e-13)
(0 5.660505487e-13 1.481959149e-13)
(0 5.428930808e-13 1.473855451e-13)
(0 5.199251548e-13 1.463521205e-13)
(0 4.971814162e-13 1.451194177e-13)
(0 4.746918051e-13 1.437117603e-13)
(0 4.524815783e-13 1.421536322e-13)
(0 4.305714912e-13 1.404693311e-13)
(0 4.089780815e-13 1.386826722e-13)
(0 3.877139184e-13 1.368167546e-13)
(0 3.667877577e-13 1.348937882e-13)
(0 3.462046763e-13 1.329349622e-13)
(0 3.259662857e-13 1.30960342e-13)
(0 3.060710337e-13 1.289887975e-13)
(0 2.865145219e-13 1.270379672e-13)
(0 2.672897595e-13 1.251242561e-13)
(0 2.483873497e-13 1.232628491e-13)
(0 2.297956544e-13 1.21467724e-13)
(0 2.115009772e-13 1.197516598e-13)
(0 1.93487768e-13 1.181262506e-13)
(0 1.757388308e-13 1.166019388e-13)
(0 1.582355304e-13 1.151880747e-13)
(0 1.409579948e-13 1.1389299e-13)
(0 1.238853005e-13 1.127240622e-13)
(0 1.069956104e-13 1.116877526e-13)
(0 9.026625408e-14 1.107896198e-13)
(0 7.367378811e-14 1.100343272e-13)
(0 5.719409618e-14 1.094256696e-13)
(0 4.080255038e-14 1.089666191e-13)
(0 2.447418544e-14 1.086593728e-13)
(0 8.161330737e-15 1.085053878e-13)
(0 1.149637509e-12 1.742244155e-13)
(0 1.129631697e-12 1.634471764e-13)
(0 1.111481676e-12 1.540535342e-13)
(0 1.094743068e-12 1.461711056e-13)
(0 1.079067141e-12 1.398486555e-13)
(0 1.064116221e-12 1.350715259e-13)
(0 1.04957889e-12 1.317743377e-13)
(0 1.035177829e-12 1.298524852e-13)
(0 1.020673624e-12 1.291727526e-13)
(0 1.005866276e-12 1.295829124e-13)
(0 9.905949518e-13 1.309201541e-13)
(0 9.747363579e-13 1.330182334e-13)
(0 9.582021951e-13 1.357133281e-13)
(0 9.409360091e-13 1.388486505e-13)
(0 9.229096184e-13 1.422778992e-13)
(0 9.041193506e-13 1.458676928e-13)
(0 8.845822943e-13 1.494991433e-13)
(0 8.643326511e-13 1.530686759e-13)
(0 8.434182807e-13 1.564882058e-13)
(0 8.21897531e-13 1.59684838e-13)
(0 7.998363529e-13 1.626002352e-13)
(0 7.773057103e-13 1.651897047e-13)
(0 7.543793725e-13 1.674210545e-13)
(0 7.311320966e-13 1.692733337e-13)
(0 7.076380647e-13 1.707355625e-13)
(0 6.839695125e-13 1.718054754e-13)
(0 6.601956482e-13 1.724882681e-13)
(0 6.363819123e-13 1.727953857e-13)
(0 6.125894356e-13 1.727434084e-13)
(0 5.888745522e-13 1.723530415e-13)
(0 5.652884204e-13 1.7164818e-13)
(0 5.418768767e-13 1.706550415e-13)
(0 5.186804933e-13 1.694014077e-13)
(0 4.957346678e-13 1.679160055e-13)
(0 4.730696576e-13 1.662280074e-13)
(0 4.507106517e-13 1.643666038e-13)
(0 4.286779921e-13 1.623606158e-13)
(0 4.069875128e-13 1.602381598e-13)
(0 3.856508586e-13 1.580263861e-13)
(0 3.646757044e-13 1.557512961e-13)
(0 3.440659356e-13 1.534376164e-13)
(0 3.238218928e-13 1.511087072e-13)
(0 3.039407026e-13 1.487864947e-13)
(0 2.844166215e-13 1.464914296e-13)
(0 2.652413118e-13 1.442424751e-13)
(0 2.464040403e-13 1.420571199e-13)
(0 2.278918493e-13 1.39951406e-13)
(0 2.096897482e-13 1.379399637e-13)
(0 1.917809322e-13 1.360360569e-13)
(0 1.741470095e-13 1.342516393e-13)
(0 1.567682185e-13 1.325974223e-13)
(0 1.396236263e-13 1.310829442e-13)
(0 1.226912937e-13 1.297166267e-13)
(0 1.059483918e-13 1.285058099e-13)
(0 8.937127539e-14 1.274567772e-13)
(0 7.293555643e-14 1.265747881e-13)
(0 5.661622411e-14 1.258641317e-13)
(0 4.038781104e-14 1.253281907e-13)
(0 2.422455214e-14 1.249694907e-13)
(0 8.077988154e-15 1.247897213e-13)
(0 1.137166162e-12 1.945362213e-13)
(0 1.118648278e-12 1.816722943e-13)
(0 1.102130781e-12 1.706091618e-13)
(0 1.087108201e-12 1.614655017e-13)
(0 1.073155269e-12 1.542685634e-13)
(0 1.059872988e-12 1.489721437e-13)
(0 1.046902018e-12 1.454722902e-13)
(0 1.033929385e-12 1.436216471e-13)
(0 1.020691167e-12 1.432425179e-13)
(0 1.006972713e-12 1.441384422e-13)
(0 9.926069716e-13 1.461041395e-13)
(0 9.774714146e-13 1.489337564e-13)
(0 9.614840697e-13 1.524274775e-13)
(0 9.445990374e-13 1.563966002e-13)
(0 9.268017144e-13 1.606671836e-13)
(0 9.081040091e-13 1.650824744e-13)
(0 8.885397314e-13 1.695043394e-13)
(0 8.681602042e-13 1.738138523e-13)
(0 8.470302164e-13 1.779111568e-13)
(0 8.252244279e-13 1.81714807e-13)
(0 8.028241683e-13 1.851607592e-13)
(0 7.79914584e-13 1.882010863e-13)
(0 7.565822569e-13 1.90802467e-13)
(0 7.329133346e-13 1.929445743e-13)
(0 7.089919863e-13 1.94618483e-13)
(0 6.848990582e-13 1.958251247e-13)
(0 6.607110259e-13 1.965737752e-13)
(0 6.364993324e-13 1.968806122e-13)
(0 6.123299573e-13 1.96767403e-13)
(0 5.882630325e-13 1.962603362e-13)
(0 5.643525486e-13 1.953889574e-13)
(0 5.406463085e-13 1.94185193e-13)
(0 5.171861188e-13 1.926824909e-13)
(0 4.940080158e-13 1.909151119e-13)
(0 4.711424035e-13 1.889175591e-13)
(0 4.486141868e-13 1.867241021e-13)
(0 4.264430472e-13 1.84368365e-13)
(0 4.046438518e-13 1.81882982e-13)
(0 3.832270547e-13 1.792993346e-13)
(0 3.621989879e-13 1.7664737e-13)
(0 3.415620875e-13 1.739554749e-13)
(0 3.21315164e-13 1.712503828e-13)
(0 3.01453756e-13 1.685571045e-13)
(0 2.819705022e-13 1.658988886e-13)
(0 2.628554499e-13 1.632972199e-13)
(0 2.440962806e-13 1.607718511e-13)
(0 2.256784982e-13 1.58340857e-13)
(0 2.075856282e-13 1.560206969e-13)
(0 1.897994436e-13 1.538262797e-13)
(0 1.723001961e-13 1.517710311e-13)
(0 1.550668354e-13 1.498669653e-13)
(0 1.380771993e-13 1.481247536e-13)
(0 1.213081662e-13 1.46553784e-13)
(0 1.047357609e-13 1.451622084e-13)
(0 8.833523229e-14 1.439569878e-13)
(0 7.208114263e-14 1.429439492e-13)
(0 5.594749881e-14 1.421278591e-13)
(0 3.990790933e-14 1.415124927e-13)
(0 2.393571599e-14 1.411006784e-13)
(0 7.981561354e-15 1.408943092e-13)
(0 1.122281278e-12 2.132522045e-13)
(0 1.105704637e-12 1.980888253e-13)
(0 1.091274883e-12 1.852434619e-13)
(0 1.07840247e-12 1.748127179e-13)
(0 1.066573783e-12 1.667877628e-13)
(0 1.055319947e-12 1.610760654e-13)
(0 1.044228393e-12 1.575209144e-13)
(0 1.032948056e-12 1.559191617e-13)
(0 1.021190419e-12 1.56037064e-13)
(0 1.008727898e-12 1.576240082e-13)
(0 9.95390266e-13 1.604240119e-13)
(0 9.810596959e-13 1.641850171e-13)
(0 9.656650389e-13 1.686661441e-13)
(0 9.491757152e-13 1.736430851e-13)
(0 9.315954926e-13 1.789117908e-13)
(0 9.129565064e-13 1.842907127e-13)
(0 8.933136722e-13 1.89621916e-13)
(0 8.727394685e-13 1.947712533e-13)
(0 8.513192355e-13 1.996277532e-13)
(0 8.291471333e-13 2.041024547e-13)
(0 8.063226322e-13 2.081269063e-13)
(0 7.829474182e-13 2.116514154e-13)
(0 7.591228605e-13 2.146430997e-13)
(0 7.349481125e-13 2.170838675e-13)
(0 7.105186151e-13 2.189684506e-13)
(0 6.859248048e-13 2.203025187e-13)
(0 6.612511357e-13 2.211008647e-13)
(0 6.365755401e-13 2.213857053e-13)
(0 6.119691596e-13 2.211851666e-13)
(0 5.874961066e-13 2.205319654e-13)
(0 5.632132772e-13 2.194622297e-13)
(0 5.391704102e-13 2.180144198e-13)
(0 5.154104123e-13 2.16228368e-13)
(0 4.91969736e-13 2.141444764e-13)
(0 4.688786478e-13 2.118030775e-13)
(0 4.461614576e-13 2.092439232e-13)
(0 4.238368719e-13 2.065057674e-13)
(0 4.019184824e-13 2.036260284e-13)
(0 3.804152466e-13 2.006405317e-13)
(0 3.593318447e-13 1.975833248e-13)
(0 3.386689485e-13 1.944865476e-13)
(0 3.184235224e-13 1.913803423e-13)
(0 2.985892084e-13 1.882927984e-13)
(0 2.791567369e-13 1.852499375e-13)
(0 2.601142742e-13 1.822757384e-13)
(0 2.414476774e-13 1.793921949e-13)
(0 2.231406951e-13 1.766193896e-13)
(0 2.051751708e-13 1.739755725e-13)
(0 1.875312664e-13 1.714772382e-13)
(0 1.701876951e-13 1.691392053e-13)
(0 1.531219411e-13 1.669746995e-13)
(0 1.36310445e-13 1.649954351e-13)
(0 1.197287485e-13 1.632116895e-13)
(0 1.033515955e-13 1.616323671e-13)
(0 8.71530162e-14 1.602650642e-13)
(0 7.11064278e-14 1.591161437e-13)
(0 5.518476753e-14 1.581908188e-13)
(0 3.936063031e-14 1.574932239e-13)
(0 2.360636867e-14 1.570264549e-13)
(0 7.871618965e-15 1.567925769e-13)
(0 1.104703671e-12 2.298568906e-13)
(0 1.090639535e-12 2.121815242e-13)
(0 1.078854673e-12 1.974617226e-13)
(0 1.068652502e-12 1.857537689e-13)
(0 1.059418616e-12 1.769935325e-13)
(0 1.05060614e-12 1.71023293e-13)
(0 1.041745114e-12 1.676159751e-13)
(0 1.032445534e-12 1.66496836e-13)
(0 1.022396014e-12 1.67362375e-13)
(0 1.011359661e-12 1.698963241e-13)
(0 9.991679805e-13 1.737826883e-13)
(0 9.857135467e-13 1.787159637e-13)
(0 9.709421377e-13 1.844088459e-13)
(0 9.548446842e-13 1.905977192e-13)
(0 9.374493421e-13 1.970461421e-13)
(0 9.188141343e-13 2.03546669e-13)
(0 8.99020272e-13 2.0992141e-13)
(0 8.781660415e-13 2.160215803e-13)
(0 8.563614178e-13 2.217262268e-13)
(0 8.33723581e-13 2.269404037e-13)
(0 8.10373129e-13 2.315930448e-13)
(0 7.864307774e-13 2.35634632e-13)
(0 7.620147091e-13 2.390347111e-13)
(0 7.372386854e-13 2.41779391e-13)
(0 7.122106375e-13 2.438689538e-13)
(0 6.870314723e-13 2.45315602e-13)
(0 6.617942125e-13 2.46141324e-13)
(0 6.365836343e-13 2.46375922e-13)
(0 6.114762173e-13 2.460552769e-13)
(0 5.865400956e-13 2.452198616e-13)
(0 5.61835003e-13 2.439134398e-13)
(0 5.374124468e-13 2.421818932e-13)
(0 5.133161754e-13 2.400721812e-13)
(0 4.895827254e-13 2.376314714e-13)
(0 4.662418503e-13 2.349064523e-13)
(0 4.433168766e-13 2.319427999e-13)
(0 4.208251524e-13 2.287847594e-13)
(0 3.987786162e-13 2.254748147e-13)
(0 3.771843511e-13 2.220534359e-13)
(0 3.560450038e-13 2.185588967e-13)
(0 3.35359105e-13 2.150271522e-13)
(0 3.151214148e-13 2.114917711e-13)
(0 2.953233512e-13 2.079839147e-13)
(0 2.759534422e-13 2.045323595e-13)
(0 2.569977072e-13 2.011635542e-13)
(0 2.384399318e-13 1.979016968e-13)
(0 2.202618758e-13 1.947688221e-13)
(0 2.024434768e-13 1.917848915e-13)
(0 1.849630764e-13 1.889678874e-13)
(0 1.677976574e-13 1.863339148e-13)
(0 1.509230652e-13 1.838973083e-13)
(0 1.343141893e-13 1.816707363e-13)
(0 1.179450982e-13 1.796652917e-13)
(0 1.017891355e-13 1.778905722e-13)
(0 8.581900887e-14 1.763547586e-13)
(0 7.000689723e-14 1.750647023e-13)
(0 5.432457897e-14 1.740260157e-13)
(0 3.874354544e-14 1.732431459e-13)
(0 2.323506892e-14 1.727194147e-13)
(0 7.747683266e-15 1.724570292e-13)
(0 1.084147949e-12 2.436973775e-13)
(0 1.073309469e-12 2.233143045e-13)
(0 1.064847128e-12 2.066670837e-13)
(0 1.05793428e-12 1.937468688e-13)
(0 1.051843307e-12 1.844092326e-13)
(0 1.04594239e-12 1.784075331e-13)
(0 1.039701936e-12 1.754227774e-13)
(0 1.032694456e-12 1.750897498e-13)
(0 1.024589907e-12 1.77019211e-13)
(0 1.015148211e-12 1.80816178e-13)
(0 1.004209906e-12 1.860943861e-13)
(0 9.916858535e-13 1.924871971e-13)
(0 9.775467943e-13 1.996554608e-13)
(0 9.618130114e-13 2.072927685e-13)
(0 9.445444424e-13 2.151284109e-13)
(0 9.258317744e-13 2.229284758e-13)
(0 9.057885835e-13 2.30495579e-13)
(0 8.845442853e-13 2.376675392e-13)
(0 8.622380588e-13 2.443152253e-13)
(0 8.390139513e-13 2.503398858e-13)
(0 8.150168605e-13 2.556702371e-13)
(0 7.903890845e-13 2.602594155e-13)
(0 7.652676194e-13 2.640818536e-13)
(0 7.397823552e-13 2.671302267e-13)
(0 7.140548261e-13 2.694126037e-13)
(0 6.881971749e-13 2.709498127e-13)
(0 6.623114557e-13 2.717729794e-13)
(0 6.36489493e-13 2.719212689e-13)
(0 6.108130991e-13 2.714399054e-13)
(0 5.853542696e-13 2.703784958e-13)
(0 5.601753089e-13 2.687895998e-13)
(0 5.353291515e-13 2.667274811e-13)
(0 5.108599904e-13 2.64247023e-13)
(0 4.868040072e-13 2.614028253e-13)
(0 4.631899764e-13 2.582484904e-13)
(0 4.400397647e-13 2.548360747e-13)
(0 4.173688866e-13 2.512156689e-13)
(0 3.951871589e-13 2.474350779e-13)
(0 3.734993287e-13 2.435395839e-13)
(0 3.52305561e-13 2.395717841e-13)
(0 3.316018229e-13 2.355714972e-13)
(0 3.113802849e-13 2.315757343e-13)
(0 2.916297968e-13 2.276187213e-13)
(0 2.723363764e-13 2.237319624e-13)
(0 2.534836115e-13 2.199443246e-13)
(0 2.350529453e-13 2.16282134e-13)
(0 2.170238899e-13 2.127692767e-13)
(0 1.993742362e-13 2.094273087e-13)
(0 1.820802896e-13 2.06275578e-13)
(0 1.651171161e-13 2.033313595e-13)
(0 1.484587626e-13 2.00609993e-13)
(0 1.320784284e-13 1.981250092e-13)
(0 1.159485844e-13 1.958882371e-13)
(0 1.000410624e-13 1.939098943e-13)
(0 8.432714629e-14 1.921986772e-13)
(0 6.877768495e-14 1.9076186e-13)
(0 5.336321117e-14 1.896053926e-13)
(0 3.805402931e-14 1.8873398e-13)
(0 2.282025189e-14 1.881511273e-13)
(0 7.609233356e-15 1.878591553e-13)
(0 1.060340026e-12 2.539541601e-13)
(0 1.053609241e-12 2.30707997e-13)
(0 1.049287238e-12 2.121447329e-13)
(0 1.046394651e-12 1.981573262e-13)
(0 1.044079281e-12 1.884890454e-13)
(0 1.041619684e-12 1.827748836e-13)
(0 1.038427331e-12 1.805779102e-13)
(0 1.034041968e-12 1.814202468e-13)
(0 1.028122442e-12 1.848086458e-13)
(0 1.020434836e-12 1.902549322e-13)
(0 1.010839e-12 1.972915987e-13)
(0 9.992746214e-13 2.054830206e-13)
(0 9.857477091e-13 2.144330293e-13)
(0 9.703176342e-13 2.237894779e-13)
(0 9.530850494e-13 2.332462435e-13)
(0 9.341813024e-13 2.425432176e-13)
(0 9.137593353e-13 2.514648683e-13)
(0 8.919856878e-13 2.598377414e-13)
(0 8.690337643e-13 2.675271691e-13)
(0 8.450785928e-13 2.744335449e-13)
(0 8.202926588e-13 2.804884623e-13)
(0 7.948423939e-13 2.856508227e-13)
(0 7.688855202e-13 2.89902971e-13)
(0 7.425694356e-13 2.932470157e-13)
(0 7.160302235e-13 2.957014711e-13)
(0 6.89391848e-13 2.972982166e-13)
(0 6.627656687e-13 2.980797046e-13)
(0 6.362505603e-13 2.980964187e-13)
(0 6.099334442e-13 2.974046512e-13)
(0 5.8388979e-13 2.96064636e-13)
(0 5.581839883e-13 2.941389951e-13)
(0 5.328698701e-13 2.916914304e-13)
(0 5.079915196e-13 2.887856199e-13)
(0 4.835841927e-13 2.854843079e-13)
(0 4.596750997e-13 2.818485823e-13)
(0 4.362840551e-13 2.779373206e-13)
(0 4.134241556e-13 2.738067801e-13)
(0 3.911025312e-13 2.695103037e-13)
(0 3.693210573e-13 2.650981205e-13)
(0 3.480769171e-13 2.606172264e-13)
(0 3.273630552e-13 2.561113373e-13)
(0 3.071686389e-13 2.516209062e-13)
(0 2.874795794e-13 2.471831925e-13)
(0 2.682790455e-13 2.42832363e-13)
(0 2.495478788e-13 2.38599607e-13)
(0 2.312648839e-13 2.345132562e-13)
(0 2.134070505e-13 2.305989107e-13)
(0 1.959497781e-13 2.2687958e-13)
(0 1.788671272e-13 2.233758436e-13)
(0 1.621320724e-13 2.201060233e-13)
(0 1.457167149e-13 2.170863513e-13)
(0 1.295924335e-13 2.143311173e-13)
(0 1.137299832e-13 2.118527866e-13)
(0 9.809957565e-14 2.096621026e-13)
(0 8.267097459e-14 2.077681889e-13)
(0 6.74136126e-14 2.06178661e-13)
(0 5.229669903e-14 2.048997361e-13)
(0 3.728928009e-14 2.03936319e-13)
(0 2.236024408e-14 2.032920546e-13)
(0 7.455711227e-15 2.029693512e-13)
(0 1.0330426e-12 2.59608188e-13)
(0 1.031500042e-12 2.334164105e-13)
(0 1.032296457e-12 2.130460613e-13)
(0 1.034278592e-12 1.982486542e-13)
(0 1.036460865e-12 1.886147993e-13)
(0 1.038031255e-12 1.836251208e-13)
(0 1.038347299e-12 1.826938311e-13)
(0 1.036925192e-12 1.852047872e-13)
(0 1.033424593e-12 1.905403222e-13)
(0 1.027631164e-12 1.981034749e-13)
(0 1.019437994e-12 2.073342e-13)
(0 1.008827284e-12 2.177203025e-13)
(0 9.958532516e-13 2.288041148e-13)
(0 9.806262256e-13 2.401857773e-13)
(0 9.632981821e-13 2.515237341e-13)
(0 9.440503992e-13 2.625331355e-13)
(0 9.230831074e-13 2.729828236e-13)
(0 9.006065862e-13 2.826913102e-13)
(0 8.768338623e-13 2.91522062e-13)
(0 8.519752445e-13 2.99378499e-13)
(0 8.262341384e-13 3.061990188e-13)
(0 7.998035932e-13 3.119521381e-13)
(0 7.728638124e-13 3.166317933e-13)
(0 7.455808552e-13 3.202529559e-13)
(0 7.18106027e-13 3.228477049e-13)
(0 6.905754085e-13 3.244617474e-13)
(0 6.631096579e-13 3.251512975e-13)
(0 6.358144395e-13 3.2498028e-13)
(0 6.087813164e-13 3.24017901e-13)
(0 5.820886135e-13 3.223366154e-13)
(0 5.558021033e-13 3.200104641e-13)
(0 5.299757763e-13 3.171137168e-13)
(0 5.04652868e-13 3.137197643e-13)
(0 4.798669695e-13 3.099002211e-13)
(0 4.55642989e-13 3.057242161e-13)
(0 4.319979626e-13 3.012578569e-13)
(0 4.089418698e-13 2.965638518e-13)
(0 3.864784993e-13 2.917012656e-13)
(0 3.646062514e-13 2.867253803e-13)
(0 3.433187778e-13 2.816876375e-13)