/*--------------------------------*- C++ -*----------------------------------*\
  =========                 |
  \\      /  F ield         | OpenFOAM: The Open Source CFD Toolbox
   \\    /   O peration     | Website:  https://openfoam.org
    \\  /    A nd           | Version:  6
     \\/     M anipulation  |
\*---------------------------------------------------------------------------*/
FoamFile
{
    version     2.0;
    format      ascii;
    class       surfaceScalarField;
    location    "0.006";
    object      phi;
}
// * * * * * * * * * * * * * * * * * * * * * * * * * * * * * * * * * * * * * //

dimensions      [0 3 -1 0 0 0 0];

internalField   nonuniform List<scalar> 
1150
(
-1.461733038e-18
1.587483371e-19
-1.484599369e-18
1.75709382e-19
-1.522462058e-18
2.078192766e-19
-1.576036458e-18
2.556313551e-19
-1.646118346e-18
3.218400728e-19
-1.733832103e-18
4.111521575e-19
-1.840622691e-18
5.300743353e-19
-1.968345066e-18
6.862438249e-19
-2.119109182e-18
8.867839233e-19
-2.294574879e-18
1.13474294e-18
-2.492581396e-18
1.421891993e-18
-2.695098817e-18
1.713990769e-18
-2.825676122e-18
1.919271696e-18
-2.66905981e-18
1.814840121e-18
-1.210150737e-18
8.127390188e-19
-3.39073877e-20
8.024496591e-33
6.378936502e-20
7.336203773e-20
8.068623596e-20
2.707190432e-20
7.801260208e-20
-5.418594754e-21
4.747514784e-20
-3.220555462e-20
2.293653009e-20
-4.129813968e-20
4.460941946e-21
-4.138656694e-20
-9.780625132e-21
-3.715076267e-20
-2.49389865e-20
-3.074384501e-20
-3.983941041e-20
-1.976045661e-20
-4.730758524e-20
-1.459782552e-21
-9.255760657e-22
2.402257836e-20
1.113843637e-19
1.690473011e-20
3.233794961e-19
-9.89926009e-20
1.682719078e-19
-1.392952296e-18
1.674542657e-19
-1.408466566e-18
1.828751673e-19
-1.432356785e-18
2.117742734e-19
-1.463040972e-18
2.542813582e-19
-1.498118877e-18
3.125248795e-19
-1.534516754e-18
3.906374743e-19
-1.568532167e-18
4.947059544e-19
-1.596282082e-18
6.322795097e-19
-1.614758079e-18
8.110126996e-19
-1.624654963e-18
1.035709632e-18
-1.637001221e-18
1.302956921e-18
-1.68805276e-18
1.591799128e-18
-1.838158128e-18
1.846578911e-18
-1.909536333e-18
1.907702313e-18
-1.719779105e-18
1.027985064e-18
-8.723270626e-20
-1.286514393e-19
1.749923164e-20
-3.137575724e-20
4.819573703e-20
-3.639941167e-21
5.122564228e-20
-8.464889826e-21
3.83825629e-20
-1.937559851e-20
2.284810286e-20
-2.576868095e-20
8.696746172e-21
-2.723148396e-20
-3.373707438e-21
-2.507199998e-20
-1.395559815e-20
-2.015548768e-20
-2.153873641e-20
-1.216604683e-20
-2.18252244e-20
-1.154385512e-21
-8.04342431e-21
1.025324952e-20
-4.512967327e-21
1.338355018e-20
-1.217482082e-19
1.824883865e-20
5.519046105e-20
-1.325338248e-18
1.687334578e-19
-1.334833307e-18
1.80122828e-19
-1.347074596e-18
2.008232503e-19
-1.358240749e-18
2.300584397e-19
-1.36276761e-18
2.685080682e-19
-1.353301646e-18
3.185371127e-19
-1.320633889e-18
3.843302796e-19
-1.253870618e-18
4.7159897e-19
-1.14075995e-18
5.862677043e-19
-9.679406943e-19
7.311629671e-19
-7.205253701e-19
8.991434063e-19
-3.824687735e-19
1.060863103e-18
-4.997698806e-20
1.146167786e-18
2.456343959e-19
1.027152776e-18
2.030203919e-19
-3.7499743e-33
7.338665378e-20
9.78749306e-22
4.523504776e-20
-3.233618695e-21
4.337078837e-20
-1.787922256e-21
4.031493356e-20
-5.422359681e-21
3.198948048e-20
-1.106134912e-20
2.138529984e-20
-1.517078733e-20
1.085623013e-20
-1.670185531e-20
1.542804897e-21
-1.575273819e-20
-5.966157297e-21
-1.263833991e-20
-1.052707508e-20
-7.592205203e-21
-1.041758936e-20
-1.249141488e-21
-4.913123648e-21
4.761221854e-21
3.523211772e-22
8.130297994e-21
7.785637756e-21
1.082175198e-20
1.288597606e-20
-1.265686349e-18
1.664399461e-19
-1.272254119e-18
1.722448419e-19
-1.278409674e-18
1.815454883e-19
-1.278578347e-18
1.921726e-19
-1.264664628e-18
2.025850346e-19
-1.225942924e-18
2.123889395e-19
-1.149087712e-18
2.228156828e-19
-1.018757635e-18
2.36904031e-19
-8.187940828e-19
2.588416618e-19
-5.338163719e-19
2.91235321e-19
-1.497197281e-19
3.278153119e-19
3.413002603e-19
3.369424894e-19
6.955409153e-19
2.297959156e-19
8.97824607e-19
-1.576722831e-19
1.40655463e-19
-1.734590114e-32
6.917428567e-20
7.245246928e-20
4.668074414e-20
1.92495579e-20
3.973635089e-20
5.143850753e-21
3.467594405e-20
-3.745202688e-22
2.788004224e-20
-4.276546331e-21
1.985423184e-20
-7.15238147e-21
1.18053472e-20
-8.654832216e-21
4.657203198e-21
-8.600649453e-21
-9.200225937e-22
-7.052951363e-21
-4.18401136e-21
-4.316166305e-21
-4.407226012e-21
-1.011388485e-21
-1.544047508e-21
1.91141025e-21
3.043775178e-21
3.554181368e-21
9.849861803e-21
4.023392783e-21
2.464676229e-21
-1.217611637e-18
1.657222846e-19
-1.225648701e-18
1.657927772e-19
-1.233709713e-18
1.631615905e-19
-1.235241814e-18
1.538239757e-19
-1.220647125e-18
1.334077684e-19
-1.1771771e-18
9.805013778e-20
-1.089271447e-18
4.537939372e-20
-9.402601881e-19
-2.432396403e-20
-7.167945052e-19
-1.067687695e-19
-4.185610166e-19
-1.922297434e-19
-7.732073815e-20
-2.644826529e-19
2.143203092e-19
-3.010298471e-19
3.719861613e-19
-2.766649197e-19
-3.792805576e-20
-1.730165674e-19
-5.522022077e-20
6.123565698e-34
1.597137439e-20
1.252407583e-21
3.257503704e-20
2.633878735e-21
3.421797993e-20
3.48918834e-21
3.077391804e-20
3.058522836e-21
2.500420715e-20
1.483475503e-21
1.835178112e-20
-5.072508032e-22
1.185952997e-20
-2.165769206e-21
6.204901309e-21
-2.943810817e-21
1.816762461e-21
-2.656896506e-21
-8.79233548e-22
-1.607594372e-21
-1.484427282e-21
-3.924655158e-22
9.87236069e-23
3.403727783e-22
3.512986603e-21
1.490546753e-22
8.291145258e-21
-7.502560686e-22
-1.492391373e-21
-1.180221784e-18
1.718828273e-19
-1.194722601e-18
1.677160632e-19
-1.213813148e-18
1.557729624e-19
-1.230890295e-18
1.298184661e-19
-1.235996922e-18
8.22182911e-20
-1.215558319e-18
5.109542345e-21
-1.152501252e-18
-1.082010673e-19
-1.027694072e-18
-2.611752911e-19
-8.241626512e-19
-4.506671218e-19
-5.368204812e-19
-6.611609033e-19
-1.920295239e-19
-8.547677506e-19
1.216643573e-19
-9.540300127e-19
3.178437883e-19
-8.143312599e-19
-4.990580314e-20
-2.220695905e-19
-5.396781343e-20
1.862804556e-32
1.735284562e-20
-7.007625394e-20
3.343034679e-20
-1.345241389e-20
3.378731458e-20
3.121931131e-21
2.919887083e-20
7.638111276e-21
2.301348094e-20
7.661235153e-21
1.669326279e-20
5.806676101e-21
1.10814884e-20
3.442590473e-21
6.491815655e-21
1.647489221e-21
2.86606461e-21
9.76163758e-22
3.358953126e-22
9.339689854e-22
-7.515889887e-22
7.068797083e-22
-9.25944969e-23
-3.101158204e-22
2.613675867e-21
-2.552723157e-21
7.549009986e-21
-5.683870532e-21
-5.993011152e-21
-1.147594151e-18
1.890265978e-19
-1.173297688e-18
1.837641984e-19
-1.21215354e-18
1.682770862e-19
-1.258508993e-18
1.337818326e-19
-1.303339471e-18
6.919395727e-20
-1.333691079e-18
-3.758861562e-20
-1.332067137e-18
-1.982246113e-19
-1.276210316e-18
-4.21656417e-19
-1.139584541e-18
-7.101616497e-19
-8.928017441e-19
-1.052580801e-18
-5.054746001e-19
-1.413316172e-18
4.43632303e-20
-1.716031728e-18
5.093954572e-19
-1.823201822e-18
8.501600226e-19
-1.52141078e-18
1.442840847e-19
2.575935513e-34
7.39766847e-20
2.268507557e-22
5.000469111e-20
1.051191872e-20
3.830349416e-20
1.481885511e-20
2.922199428e-20
1.671554166e-20
2.115892155e-20
1.572010286e-20
1.432917695e-20
1.263215386e-20
9.28638701e-21
8.482913633e-21
5.820490101e-21
5.115005397e-21
2.823869795e-21
3.979921996e-21
1.088060344e-22
3.659197614e-21
-1.768584494e-21
2.591885578e-21
-2.335201801e-21
2.581501211e-22
-5.174715158e-22
-4.372825323e-21
7.239869265e-21
-1.344840193e-20
-1.852911036e-20
-1.109212461e-18
2.18773551e-19
-1.149721117e-18
2.169279955e-19
-1.215090765e-18
2.062799194e-19
-1.301578359e-18
1.752781517e-19
-1.40251145e-18
1.095553211e-19
-1.507595e-18
-6.870106206e-21
-1.601831074e-18
-1.904275277e-19
-1.664336912e-18
-4.560747725e-19
-1.667262523e-18
-8.136393131e-19
-1.575255381e-18
-1.261173369e-18
-1.346222964e-18
-1.773892385e-18
-9.373566059e-19
-2.287065412e-18
-4.343697775e-19
-2.669257497e-18
1.142916822e-19
-2.642366444e-18
2.078546158e-19
-1.321574282e-18
8.426175381e-20
1.238172156e-19
5.431162825e-20
4.04658698e-20
4.020018128e-20
2.892346769e-20
2.822655595e-20
2.868757974e-20
1.807097283e-20
2.587517542e-20
1.017993693e-20
2.052165365e-20
5.918478913e-21
1.274320701e-20
4.685406777e-21
6.350214158e-21
2.503145454e-21
6.168537843e-21
-9.585059984e-22
7.127186145e-21
-4.102319987e-21
5.73749373e-21
-6.966177288e-21
3.119283584e-21
-9.593048174e-21
-1.756369824e-21
2.159160954e-21
-2.520093344e-20
-6.636107338e-20
-1.051431584e-18
2.592521113e-19
-1.108437657e-18
2.662123757e-19
-1.203604532e-18
2.703639058e-19
-1.335756997e-18
2.572194935e-19
-1.501702335e-18
2.096742929e-19
-1.695638231e-18
1.089443098e-19
-1.907972931e-18
-6.484736307e-20
-2.123881491e-18
-3.314375476e-19
-2.322134906e-18
-7.072977287e-19
-2.47583333e-18
-1.198717172e-18
-2.558712256e-18
-1.788027579e-18
-2.563443434e-18
-2.408053014e-18
-2.512492667e-18
-2.896738364e-18
-2.260967077e-18
-2.910968269e-18
-1.695269676e-18
-1.686128284e-18
-6.243327005e-20
-1.154833214e-33
4.276922598e-20
-6.474887031e-20
3.996429333e-20
3.172683955e-20
2.541415164e-20
4.323364991e-20
1.271745098e-20
3.85711678e-20
2.401490215e-21
3.083680737e-20
-4.745139883e-22
1.561861902e-20
4.503730451e-21
1.374491167e-21
3.461793765e-21
7.215638652e-21
-2.348198418e-21
1.294256407e-20
-6.720530167e-21
1.011285126e-20
-1.184183074e-20
8.23051336e-21
-3.303761206e-20
1.944440631e-20
-1.31593205e-19
7.334002733e-20
-1.92389814e-19
-9.598560014e-19
3.045910616e-19
-1.032680961e-18
3.26054476e-19
-1.156486755e-18
3.551649686e-19
-1.332749538e-18
3.742334138e-19
-1.562143906e-18
3.642504389e-19
-1.844154448e-18
3.05264441e-19
-2.175816575e-18
1.760629867e-19
-2.549629393e-18
-4.570604603e-20
-2.950463899e-18
-3.817440751e-19
-3.351498571e-18
-8.474902532e-19
-3.709174401e-18
-1.438746644e-18
-3.954500837e-18
-2.105248176e-18
-3.961559225e-18
-2.71059538e-18
-3.48709432e-18
-2.995794293e-18
-1.491041328e-18
-2.644047661e-18
-4.947841857e-22
-1.172823523e-18
1.39244934e-19
-2.044896868e-19
5.147110294e-20
1.194882687e-19
2.075166926e-20
7.394724741e-20
4.983090398e-21
5.433897688e-20
-1.281669796e-20
4.863586467e-20
-1.471864165e-20
1.752036895e-20
1.034487779e-20
-2.368645975e-20
9.188719056e-21
8.37813713e-21
-5.177911147e-21
2.731655702e-20
-8.602867956e-21
1.353401542e-20
-6.27937763e-22
2.573080304e-22
2.085800888e-20
-2.047190175e-21
3.150691698e-19
-2.208703443e-19
4.609459486e-19
-8.222178823e-19
3.448670244e-19
-9.078968097e-19
3.865825079e-19
-1.054647617e-18
4.496504403e-19
-1.265978341e-18
5.126363115e-19
-1.545943568e-18
5.556946085e-19
-1.898948501e-18
5.596646786e-19
-2.328509368e-18
5.045279897e-19
-2.834682303e-18
3.680841084e-19
-3.409066519e-18
1.253966658e-19
-4.025986226e-18
-2.494274876e-19
-4.629197843e-18
-7.746386078e-19
-5.114813031e-18
-1.437113372e-18
-5.306709511e-18
-2.153288931e-18
-4.907840953e-18
-2.752097388e-18
-3.703116691e-18
-3.188791041e-18
-5.410990105e-19
-3.854728581e-18
4.632228891e-19
-2.753905255e-18
5.930082356e-21
5.767762113e-19
1.143399083e-21
7.873420253e-20
-7.200218282e-22
5.62049484e-20
-4.393219392e-20
9.184898031e-20
-5.59254707e-20
2.951435811e-20
4.240947493e-20
-1.220174666e-19
2.812713911e-20
2.266798927e-20
-1.896045283e-20
7.440969575e-20
-2.187957552e-20
1.64531776e-20
-2.932435981e-21
-1.868800638e-20
-3.10357388e-19
3.053777618e-19
-2.031144952e-19
-2.187403525e-18
2.031144932e-19
-6.309452691e-19
3.660046231e-19
-7.251416345e-19
4.347765618e-19
-8.856105053e-19
5.387881451e-19
-1.11670133e-18
6.52308408e-19
-1.424630586e-18
7.56224389e-19
-1.817193242e-18
8.341707203e-19
-2.30277525e-18
8.697803256e-19
-2.888178679e-18
8.44241552e-19
-3.573333709e-18
7.331779604e-19
-4.340127942e-18
5.024338885e-19
-5.136098072e-18
1.072280383e-19
-5.868303919e-18
-4.848735655e-19
-6.460830358e-18
-1.215419631e-18
-6.990520611e-18
-1.764793972e-18
-7.565799645e-18
-1.878124271e-18
-7.427034624e-18
-2.279351318e-18
-6.210588973e-18
-9.796100166e-19
-2.080487199e-19
4.477629797e-32
-7.043442463e-20
-5.888066839e-20
3.492401035e-20
-4.91515468e-20
-1.062668167e-19
2.330408975e-19
-2.074572971e-19
1.307062617e-19
1.870949324e-19
-5.165649085e-19
7.986884605e-20
1.299022715e-19
-7.691697152e-20
2.312021323e-19
-7.972190388e-21
-5.248698539e-20
3.70700194e-20
-6.372911674e-20
2.097561343e-18
4.698918544e-32
1.3424022e-18
-1.462147759e-18
-3.027324562e-32
-3.845086029e-19
3.496180166e-19
-4.838040677e-19
4.572567709e-19
-6.472067371e-19
6.066809643e-19
-8.792068408e-19
7.703472586e-19
-1.186813912e-18
9.326226558e-19
-1.578579458e-18
1.081480698e-18
-2.064037948e-18
1.205524816e-18
-2.652959907e-18
1.291931433e-18
-3.351688555e-18
1.322244847e-18
-4.149329639e-18
1.261008616e-18
-4.985550906e-18
1.033342203e-18
-5.705707882e-18
5.228294501e-19
-6.142971752e-18
-3.214041859e-19
-6.432670848e-18
-8.213804394e-19
-6.831767842e-18
-2.248132753e-19
-6.76885317e-18
-4.309885699e-19
-3.710065497e-18
-5.660530943e-19
-2.669293844e-19
2.6394268e-20
-3.923771305e-19
6.656266773e-20
-3.462272089e-19
-9.530059595e-20
2.988063096e-19
-4.119916873e-19
5.210074184e-19
-9.149297108e-20
-5.42173773e-19
5.466210891e-19
-3.262390549e-19
-8.602413251e-20
3.027375751e-19
-3.977677443e-19
3.124575069e-19
-6.220327485e-20
1.007991347e-19
1.479307127e-19
-4.239395438e-19
2.464232455e-19
-8.513367718e-20
-1.634082923e-18
-1.558519567e-19
-8.738628692e-20
2.558299467e-19
-1.943054076e-19
4.424982021e-19
-3.498382209e-19
6.400495672e-19
-5.63749216e-19
8.456086065e-19
-8.43289964e-19
1.053042369e-18
-1.194462005e-18
1.255056206e-18
-1.621968932e-18
1.443786849e-18
-2.130736273e-18
1.611649994e-18
-2.727972374e-18
1.750777909e-18
-3.414302597e-18
1.840419414e-18
-4.134652599e-18
1.79019771e-18
-4.607882721e-18
1.344246628e-18
-4.341601027e-18
-3.430272613e-20
-3.262969403e-18
-5.510130481e-19
-1.624214686e-18
3.999252518e-19
5.208602096e-32
-7.783408525e-21
5.970776883e-20
-3.58229976e-20
7.159733901e-20
1.449528408e-20
1.383518331e-19
-1.936350883e-22
1.128176047e-19
-6.976532189e-20
-1.564308878e-19
-1.427423667e-19
-2.16614407e-19
-3.130765486e-20
2.009168907e-19
1.290944046e-19
1.377532466e-19
-2.285395959e-20
-1.37433861e-19
-1.225748186e-19
-1.70000734e-19
-2.963310792e-20
-9.906676326e-20
7.699746718e-20
-1.140848694e-20
1.58765109e-19
-1.558519571e-19
-6.653190602e-20
-1.329482642e-19
2.012952462e-19
1.617381016e-19
1.127329636e-19
4.061905616e-19
-1.709907856e-20
6.343192858e-19
-1.956382895e-19
8.63338623e-19
-4.270636735e-19
1.094372633e-18
-7.110911108e-19
1.321721777e-18
-1.040470388e-18
1.535356963e-18
-1.401877537e-18
1.724380567e-18
-1.787032504e-18
1.886070108e-18
-2.209649806e-18
2.036907565e-18
-2.703494708e-18
2.145805086e-18
-2.934539159e-18
1.724804677e-18
-2.483582885e-18
2.244264793e-20
-1.152060875e-19
-1.4831623e-18
1.972010624e-19
7.759057737e-20
9.864776396e-20
9.076431655e-20
4.668237313e-20
1.613675617e-20
5.690841971e-20
4.264000668e-21
6.878014556e-20
-1.206651698e-20
3.984055928e-20
-4.08255779e-20
-4.499617499e-20
-5.790509737e-20
-5.621234581e-20
-2.009012611e-20
4.896852487e-20
2.391761686e-20
3.803238668e-20
-1.191214687e-20
-4.449214948e-20
-4.004558357e-20
-6.337015782e-20
-1.075328762e-20
-1.729912074e-20
3.092608346e-20
9.496632906e-20
4.649131137e-20
4.60598353e-20
-1.763388406e-20
-4.47980259e-20
4.712769155e-19
1.283063607e-19
4.202486585e-19
3.6222594e-19
3.277716366e-19
5.88248899e-19
1.930527904e-19
8.161558885e-19
1.484543375e-20
1.046762058e-18
-2.016270218e-19
1.272050398e-18
-4.356117097e-19
1.472768045e-18
-6.409438005e-19
1.616826044e-18
-7.527455011e-19
1.670373767e-18
-7.276408694e-19
1.657613899e-18
-7.897859072e-19
1.712309962e-18
-7.45402046e-19
1.30155969e-18
1.368382904e-32
-4.52840112e-20
-1.907375682e-19
-7.84895676e-20
-5.795334593e-20
-5.519525863e-20
2.402020303e-20
8.788484916e-21
3.480961707e-20
5.341919038e-21
4.057790143e-20
-1.507704637e-21
4.002108391e-20
-1.151054674e-20
2.27610395e-20
-2.356549404e-20
-7.181203571e-21
-2.796285265e-20
-1.220460252e-20
-1.506578977e-20
1.313876082e-20
-1.422458816e-21
9.898949788e-21
-8.667348186e-21
-1.519985325e-20
-1.494245573e-20
-2.16907863e-20
-4.261147942e-21
-1.733892787e-21
1.096705985e-20
3.0841133e-20
1.390977051e-20
1.889569315e-20
-5.696961835e-21
-1.656786149e-20
7.487110001e-19
1.020465043e-19
7.223150227e-19
3.007091152e-19
6.646140159e-19
4.988482503e-19
5.716424698e-19
7.020988513e-19
4.376050149e-19
9.113045615e-19
2.607061893e-19
1.118550279e-18
5.688700963e-20
1.29897074e-18
-1.079502446e-19
1.395109667e-18
-8.260380427e-20
1.297147237e-18
2.151617212e-19
9.090525092e-19
7.29962794e-19
2.830159505e-19
1.597004639e-19
1.435617494e-19
9.34818019e-20
2.093346997e-20
3.754120453e-20
-2.25508889e-20
6.030396903e-21
-2.368740526e-20
2.057363751e-20
-5.758280688e-21
2.795999389e-20
-2.04816446e-21
3.057505992e-20
-4.124812162e-21
2.796613715e-20
-8.902686908e-21
1.836368126e-20
-1.396315887e-20
5.715859225e-21
-1.531560591e-20
1.438728276e-21
-1.078793288e-20
5.893871634e-21
-5.875162835e-21
3.62384238e-21
-6.392523677e-21
-4.518545673e-21
-6.79578796e-21
-6.462578793e-21
-2.315139132e-21
1.208817845e-21
3.293290542e-21
1.123440107e-20
3.878639121e-21
8.024793763e-21
-2.493080894e-21
-6.817787837e-21
1.000176901e-18
7.27810999e-20
9.950149212e-19
2.179062131e-19
9.695520829e-19
3.661223461e-19
9.159039706e-19
5.221674064e-19
8.186013049e-19
6.89528321e-19
6.523406436e-19
8.683115775e-19
3.818891777e-19
1.049720865e-18
-1.551522615e-20
1.198996713e-18
-4.88371648e-19
1.197038234e-18
-3.801809093e-19
5.114764887e-19
-6.142272263e-20
-1.670245741e-32
3.707218296e-20
4.506688619e-20
4.999744259e-20
8.0077806e-21
3.640468818e-20
-8.960759616e-21
2.395952165e-20
-1.124558076e-20
2.428375377e-20
-6.086661934e-21
2.588334617e-20
-3.651710589e-21
2.579718513e-20
-4.041593054e-21
2.290566511e-20
-6.012513027e-21
1.701123422e-20
-8.069729895e-21
1.024353229e-20
-8.548601466e-21
6.351498362e-21
-6.895976391e-21
5.376510796e-21
-4.897898328e-21
3.220578094e-21
-4.232168981e-21
-3.789680461e-23
-3.532161743e-21
-8.541490605e-22
-1.496058197e-21
1.794166429e-21
6.446092245e-22
4.862680986e-21
8.066152985e-22
3.700086782e-21
-1.334017131e-21
-3.022378131e-21
1.199535407e-18
3.815815866e-20
1.213153761e-18
1.150086774e-19
1.218085e-18
1.94779868e-19
1.206811575e-18
2.809470406e-19
1.161449405e-18
3.780459698e-19
1.044056668e-18
4.931108254e-19
7.747691101e-19
6.395536306e-19
2.273007839e-19
8.453389802e-19
-4.954232829e-19
1.133807298e-18
-1.297179762e-18
9.948478582e-19
-1.430431906e-19
-8.034419699e-20
1.307732097e-23
-9.798955368e-20
3.302890183e-20
-2.500911662e-20
3.411986652e-20
-1.005487911e-20
2.911844005e-20
-6.248592962e-21
2.671870472e-20
-3.692255736e-21
2.549346333e-20
-2.43103311e-21
2.38262648e-20
-2.377833475e-21
2.084844792e-20
-3.036609984e-21
1.653236242e-20
-3.755161032e-21
1.189615719e-20
-3.913473589e-21
8.349576296e-21
-3.349593768e-21
6.042240061e-21
-2.58817302e-21
3.920585274e-21
-2.105614508e-21
1.998206714e-21
-1.603756355e-21
1.286518349e-21
-7.803614161e-22
1.956172474e-21
-2.389349541e-23
2.722048509e-21
3.907391255e-23
2.01172575e-21
-6.253617061e-22
-1.205253134e-21
1.325894284e-18
1.352504972e-18
1.380617956e-18
1.408402252e-18
1.43069618e-18
1.438859132e-18
1.417313395e-18
1.150437065e-18
7.884880135e-19
2.513276425e-19
1.709832768e-19
7.299351449e-20
4.798313986e-20
3.79261532e-20
3.167477772e-20
2.797992775e-20
2.554666335e-20
2.316748865e-20
2.012989718e-20
1.637405011e-20
1.246003719e-20
9.110997168e-21
6.524798668e-21
4.422443487e-21
2.821601683e-21
2.042986292e-21
2.019139911e-21
2.057612928e-21
1.431834352e-21
)
;

boundaryField
{
    lowerWall
    {
        type            calculated;
        value           nonuniform 0();
    }
    atmosphere
    {
        type            calculated;
        value           nonuniform List<scalar> 
20
(
1.454086683e-18
1.387529268e-18
1.321711243e-18
1.262890871e-18
1.214279209e-18
1.174805813e-18
1.138634123e-18
1.095609713e-18
1.03268093e-18
9.361739946e-19
7.944731046e-19
6.002186666e-19
3.507088659e-19
4.471867916e-20
-2.364147367e-19
-4.864130542e-19
-7.545770738e-19
-9.985885721e-19
-1.191453496e-18
-1.313530565e-18
)
;
    }
    rightWall
    {
        type            empty;
        value           nonuniform 0();
    }
    leftWall
    {
        type            empty;
        value           nonuniform 0();
    }
    frontAndBack
    {
        type            calculated;
        value           uniform 0;
    }
    procBoundary4to2
    {
        type            processor;
        value           nonuniform List<scalar> 
30
(
-1.408478114e-19
-1.565004817e-19
-1.861851441e-19
-2.304457182e-19
-2.916967836e-19
-3.740744403e-19
-4.831104446e-19
-6.250455662e-19
-8.051219445e-19
-1.024199667e-18
-1.272105215e-18
-1.515819753e-18
-1.680835826e-18
-1.633450319e-18
-1.254260578e-18
-4.424627399e-19
-1.710770819e-19
-4.399323133e-20
8.048951359e-21
6.271316209e-20
6.582992988e-20
5.987237828e-20
5.140747482e-20
4.59040531e-20
3.469600655e-20
8.967477061e-21
-7.035234299e-20
-1.291891611e-19
-1.13014296e-19
5.093035228e-19
)
;
    }
    procBoundary4to5
    {
        type            processor;
        value           nonuniform List<scalar> 
20
(
-3.541447757e-19
-8.664223127e-21
5.009438635e-20
2.027273146e-20
1.225076601e-20
1.204694723e-20
1.977412306e-20
4.997918224e-20
-5.562703145e-21
-3.382846342e-19
5.47140047e-20
3.1650152e-19
1.223992926e-19
-1.787574946e-19
-4.209847625e-20
-9.338446989e-21
-1.728560919e-21
-9.741019801e-23
1.9365985e-22
2.267974912e-22
)
;
    }
}


// ************************************************************************* //
