/*--------------------------------*- C++ -*----------------------------------*\
  =========                 |
  \\      /  F ield         | OpenFOAM: The Open Source CFD Toolbox
   \\    /   O peration     | Website:  https://openfoam.org
    \\  /    A nd           | Version:  6
     \\/     M anipulation  |
\*---------------------------------------------------------------------------*/
FoamFile
{
    version     2.0;
    format      ascii;
    class       volScalarField;
    location    "0.006";
    object      ViscousDissipation;
}
// * * * * * * * * * * * * * * * * * * * * * * * * * * * * * * * * * * * * * //

dimensions      [1 -1 -3 0 0 0 0];

internalField   nonuniform List<scalar> 
600
(
4.345287684e-20
7.663176457e-20
1.305372732e-19
2.210496818e-19
3.7764602e-19
6.531508528e-19
1.138435525e-18
1.976514697e-18
3.358056309e-18
5.443800033e-18
8.081148865e-18
1.009469907e-17
8.371595846e-18
2.124491849e-18
2.786603603e-17
2.490161242e-17
1.139550637e-16
2.566741968e-16
9.511959694e-17
8.514787487e-17
3.317724104e-17
1.993753527e-17
1.331026027e-17
1.659779309e-17
2.742735891e-17
8.645528476e-17
2.02471496e-16
5.595177932e-16
2.186749777e-16
1.681227337e-18
4.309207961e-20
7.089816946e-20
1.129908144e-19
1.824719363e-19
3.057230833e-19
5.336500854e-19
9.594950823e-19
1.740295235e-18
3.110807664e-18
5.358727126e-18
8.692993923e-18
1.290260307e-17
1.663361402e-17
2.219419265e-17
1.95756289e-17
2.568826397e-17
2.233717313e-16
6.981326913e-17
2.028146812e-17
1.933372679e-17
1.42901871e-17
1.107635558e-17
9.080663161e-18
9.303344722e-18
1.122339738e-17
1.519623457e-17
1.614279438e-17
8.792996428e-17
7.094158399e-17
1.6364663e-19
3.601307616e-20
5.450817955e-20
8.065519862e-20
1.250473039e-19
2.119347646e-19
3.920051628e-19
7.625358135e-19
1.492600377e-18
2.844422613e-18
5.174547219e-18
8.903489357e-18
1.436003686e-17
2.119132828e-17
1.591670121e-17
1.001665469e-17
1.413128309e-16
1.428902647e-16
4.255553004e-18
2.712821501e-18
6.33845519e-18
6.810595226e-18
6.088970539e-18
5.190333211e-18
4.62389818e-18
4.322906187e-18
4.149650172e-18
3.729329269e-18
2.215593081e-18
5.192828003e-17
8.04810725e-17
2.525734972e-20
3.321301466e-20
4.306171744e-20
6.396228544e-20
1.202329685e-19
2.655964394e-19
6.042391771e-19
1.312550382e-18
2.640502992e-18
4.848062699e-18
8.041685556e-18
1.19137933e-17
1.770661068e-17
7.346269331e-18
5.402398945e-18
1.475892503e-16
4.843331874e-17
4.915560591e-18
2.64570406e-18
3.467831782e-18
3.880716237e-18
3.571534468e-18
2.917393025e-18
2.24265139e-18
1.630927953e-18
1.187105958e-18
1.121023811e-18
1.382076702e-18
2.592326676e-18
1.295835033e-17
1.545020204e-20
1.516872868e-20
1.321131693e-20
1.917179262e-20
6.06934157e-20
1.991379452e-19
5.504168269e-19
1.298018178e-18
2.654412933e-18
4.664797111e-18
6.705035344e-18
6.967927856e-18
4.657788067e-18
4.661287663e-18
3.553186027e-20
9.640856404e-17
3.504429646e-17
1.746810294e-18
1.122512938e-18
2.197721993e-18
2.650535534e-18
2.365213604e-18
1.76032226e-18
1.167666644e-18
6.380183543e-19
2.498678369e-19
2.263726317e-19
6.423153109e-19
1.293705229e-18
1.408358571e-18
1.08899036e-20
7.646624096e-21
3.058326034e-21
9.628032363e-21
6.218637394e-20
2.350154411e-19
6.630320725e-19
1.550637466e-18
3.116822157e-18
5.359606491e-18
7.502909328e-18
7.554883874e-18
5.102654526e-18
7.488661907e-18
1.326828016e-19
1.063396227e-16
3.906461121e-17
1.992134404e-18
1.213564321e-18
2.204225542e-18
2.404573153e-18
1.876613295e-18
1.186417628e-18
7.24379174e-19
3.671277917e-19
6.768183278e-20
4.921941245e-20
5.448246374e-19
1.449475992e-18
1.447357471e-18
1.526954175e-20
1.637409674e-20
2.230368946e-20
5.132384315e-20
1.495008327e-19
4.094036276e-19
9.934192037e-19
2.14812786e-18
4.17393647e-18
7.289190402e-18
1.138998585e-17
1.594411894e-17
2.315990994e-17
1.118433712e-17
5.807587214e-18
1.555109273e-16
6.194297581e-17
1.038526589e-17
4.634061532e-18
3.686063882e-18
3.009223396e-18
1.862475353e-18
8.302695553e-19
5.102856867e-19
4.167000105e-19
2.690644496e-19
3.801896716e-19
1.47350286e-18
4.37149649e-18
1.480456186e-17
3.369024519e-20
4.867525666e-20
8.194353245e-20
1.603749609e-19
3.449718931e-19
7.511559506e-19
1.575070007e-18
3.115841166e-18
5.770446952e-18
9.966223814e-18
1.601529164e-17
2.380595554e-17
3.206280196e-17
2.275345518e-17
1.436910413e-17
1.178011405e-16
1.107502501e-16
1.167271644e-17
7.882654552e-18
6.174616911e-18
4.845510488e-18
2.610724942e-18
5.586586048e-19
2.641487966e-19
6.793881562e-19
7.312745822e-19
1.166684982e-18
7.120235377e-18
6.949447884e-17
1.044670237e-16
7.541502021e-20
1.181181313e-19
1.995748582e-19
3.57260755e-19
6.691983831e-19
1.275150762e-18
2.404143602e-18
4.396639193e-18
7.689581187e-18
1.268887095e-17
1.937396589e-17
2.637620887e-17
2.929167311e-17
2.59557147e-17
4.274887698e-17
3.062933677e-17
2.153820557e-16
6.395549541e-17
1.229658556e-17
1.02979157e-17
1.039312594e-17
6.984376581e-18
2.78866144e-18
5.881070069e-19
2.007972294e-18
1.327111884e-18
2.254891239e-18
4.218228757e-17
3.876645512e-17
1.334367918e-19
1.542708648e-19
2.457436902e-19
4.001096276e-19
6.653288502e-19
1.135537109e-18
1.971251777e-18
3.424470982e-18
5.850868247e-18
9.656757236e-18
1.504739708e-17
2.132350747e-17
2.554699549e-17
2.180397972e-17
1.070923388e-17
5.601290825e-17
6.267056581e-17
4.631639454e-16
1.212588104e-15
6.952176277e-17
1.951203264e-17
3.074243244e-17
3.615206156e-17
4.522568509e-17
1.408346642e-17
1.355965073e-17
4.105568078e-18
3.638588147e-18
4.986996768e-16
1.355213971e-16
1.349732428e-18
2.851125853e-19
4.541876079e-19
7.063673823e-19
1.097571422e-18
1.734452876e-18
2.79059951e-18
4.527410994e-18
7.29768742e-18
1.146881874e-17
1.711741453e-17
2.330498578e-17
2.72348781e-17
2.557421544e-17
2.465846907e-17
7.891252659e-17
1.786855798e-16
1.843727008e-16
6.688870132e-16
1.144929032e-15
2.185538163e-17
1.343684945e-16
3.102758084e-16
7.019810343e-16
2.430367533e-16
1.420262606e-16
3.945615684e-17
2.247631575e-16
5.812640015e-16
5.464628537e-17
3.579576999e-19
4.813960676e-19
7.574627998e-19
1.120795419e-18
1.633039432e-18
2.409238012e-18
3.625163184e-18
5.535407039e-18
8.477461205e-18
1.279375975e-17
1.850234501e-17
2.451216148e-17
2.787587739e-17
2.58049198e-17
2.596682937e-17
5.129484418e-17
1.500244079e-16
2.212987683e-16
3.157209218e-16
7.630824742e-19
3.465934241e-16
3.271260055e-16
6.206912108e-18
6.314381254e-16
1.237441284e-18
3.777410226e-16
9.865869937e-17
3.083180728e-19
5.19101983e-17
2.809634445e-17
5.608288716e-17
7.719996513e-19
1.153771665e-18
1.606311659e-18
2.195867237e-18
3.040751447e-18
4.30108056e-18
6.201292627e-18
9.048183574e-18
1.316862218e-17
1.849289758e-17
2.331618372e-17
2.272703602e-17
1.381271091e-17
2.511504588e-17
7.329497336e-17
1.507493631e-16
4.107012288e-16
1.228458721e-16
2.576191816e-19
3.830852222e-19
3.020178287e-18
8.615802481e-20
7.850112813e-15
7.133379912e-20
2.712547306e-18
1.819440976e-19
3.381421166e-19
1.776734692e-17
7.40964713e-17
1.43417771e-17
1.027611278e-18
1.575264966e-18
2.059367123e-18
2.653327949e-18
3.467655558e-18
4.617712046e-18
6.263833247e-18
8.67409872e-18
1.225574438e-17
1.705149867e-17
2.057983307e-17
1.452508183e-17
6.38515502e-18
8.505342176e-17
1.400197531e-16
9.703614701e-17
1.02748005e-16
2.304185821e-16
3.128168889e-16
1.560688324e-16
6.751445002e-16
9.75146246e-17
8.952570118e-16
6.070282303e-17
7.169277321e-16
1.343434287e-16
6.749984326e-17
1.055421917e-16
2.007241219e-17
7.09124143e-21
2.480994153e-18
2.122144028e-18
2.375397828e-18
2.875140319e-18
3.563357087e-18
4.445371504e-18
5.558876837e-18
7.110404378e-18
9.829495611e-18
1.477408675e-17
1.986818709e-17
8.513352755e-18
1.816447827e-17
4.537075029e-17
5.740604784e-17
3.91346789e-17
7.265197168e-17
5.170911071e-18
7.130372456e-17
1.684656746e-16
4.645229311e-16
4.421683637e-16
7.934520814e-16
3.550646905e-16
4.365985051e-16
2.706090438e-16
3.234408034e-16
2.905150478e-16
3.614616747e-17
3.152190056e-16
2.055886628e-18
2.112515133e-18
2.37154055e-18
2.798985032e-18
3.329469555e-18
3.854136799e-18
4.206828559e-18
4.414046444e-18
5.740385571e-18
1.237056682e-17
3.603039327e-17
1.377300404e-17
3.784245016e-18
1.375329953e-17
8.466483447e-17
2.357252929e-16
5.353843934e-17
8.795635032e-18
1.585082283e-17
2.971254852e-17
5.697992786e-17
4.176196192e-17
4.788816011e-17
2.132404828e-17
4.030180079e-17
3.471601504e-17
4.202148064e-17
8.403838436e-17
6.141057533e-17
4.964787768e-17
1.741165685e-18
1.842066287e-18
2.095495816e-18
2.48153545e-18
2.916765228e-18
3.185822142e-18
2.854897168e-18
1.562819235e-18
1.255141848e-18
1.291468458e-17
1.244321918e-17
9.495259447e-18
3.213783226e-17
1.216226127e-16
1.70678761e-16
4.448422698e-17
3.272710044e-18
2.303992156e-18
3.87352428e-18
6.906778808e-18
9.692375397e-18
5.444828201e-18
2.30738233e-18
1.001237743e-18
4.387679971e-18
4.692529499e-18
5.447502998e-18
8.082337456e-18
6.531948542e-18
5.878177202e-18
1.176116522e-18
1.318983207e-18
1.597613066e-18
2.014840182e-18
2.521142686e-18
2.944903513e-18
2.889616915e-18
1.956006689e-18
2.712740837e-18
2.260798156e-17
1.126197319e-17
1.682962659e-16
1.873444482e-16
2.675497589e-17
1.028662803e-17
3.390532476e-18
2.173927791e-19
2.959935413e-19
1.118273222e-18
2.196607113e-18
2.626219794e-18
1.419013546e-18
2.807198778e-19
2.563682314e-19
7.862564747e-19
7.383417174e-19
6.643638821e-19
7.986543272e-19
8.06252957e-19
9.025471796e-19
5.654914943e-19
7.264618456e-19
1.027671185e-18
1.501472845e-18
2.180803927e-18
3.131899602e-18
4.691399238e-18
8.581513873e-18
3.022668185e-17
2.341971104e-18
1.33357627e-17
2.88378702e-16
8.469210604e-17
2.354440622e-18
1.923257594e-18
7.690791631e-19
1.298446949e-19
1.850599465e-19
5.866346406e-19
1.065506206e-18
1.194674939e-18
7.751840415e-19
3.486073861e-19
2.665211122e-19
2.635517405e-19
1.416924258e-19
6.368655077e-20
6.365291544e-20
1.163485525e-19
2.0065332e-19
9.609667476e-20
2.529122914e-19
5.433318621e-19
1.011410049e-18
1.724563449e-18
2.826424193e-18
4.608862972e-18
6.919972871e-18
1.02963568e-17
9.140895726e-18
2.316681853e-16
3.625516525e-16
7.239548034e-17
7.182798934e-18
2.287669707e-18
8.042905265e-19
3.35487245e-19
3.134179363e-19
5.126723594e-19
7.776550281e-19
8.428506362e-19
6.217207927e-19
3.729128054e-19
2.46349172e-19
1.473665488e-19
4.194826343e-20
3.978475517e-21
3.143670033e-21
2.679562854e-20
8.200651248e-20
)
;

boundaryField
{
    lowerWall
    {
        type            calculated;
        value           nonuniform 0();
    }
    atmosphere
    {
        type            calculated;
        value           nonuniform List<scalar> 
20
(
3.362222128e-20
3.368366127e-20
2.900997605e-20
2.152302145e-20
1.44223514e-20
1.116018869e-20
1.531513073e-20
3.165322489e-20
6.7343042e-20
1.314445594e-19
2.320038004e-19
3.746484963e-19
5.747948318e-19
7.096993919e-19
3.028165935e-18
2.198381001e-18
1.775108142e-18
1.180189584e-18
5.620932442e-19
9.169566657e-20
)
;
    }
    rightWall
    {
        type            empty;
    }
    leftWall
    {
        type            empty;
    }
    frontAndBack
    {
        type            calculated;
        value           nonuniform List<scalar> 
30
(
3.335754378e-20
1.906332187e-19
4.845346437e-19
9.637591565e-19
1.71004054e-18
2.90796236e-18
4.939017289e-18
7.644532555e-18
1.067048512e-17
1.634536332e-18
1.854484292e-16
4.21810055e-16
6.663977942e-17
7.602285875e-18
2.288149591e-18
8.296634277e-19
3.689048944e-19
3.348971274e-19
5.103153581e-19
7.463197747e-19
8.02787604e-19
6.080931385e-19
3.786850151e-19
2.432508326e-19
1.355269976e-19
3.621255662e-20
1.655927187e-21
9.135173261e-22
2.208607835e-20
7.047828576e-20
)
;
    }
    procBoundary4to2
    {
        type            processor;
        value           nonuniform List<scalar> 
30
(
3.726784954e-20
7.114904789e-20
1.309997162e-19
2.351178789e-19
4.160426984e-19
7.2919791e-19
1.265026684e-18
2.157936963e-18
3.573139544e-18
5.623124765e-18
8.120019843e-18
1.010330065e-17
9.729981385e-18
8.604906358e-18
3.335830425e-17
7.643906637e-17
6.114813607e-17
2.354784731e-17
1.104799214e-16
4.082888834e-16
8.169461845e-17
3.318550238e-17
1.095959345e-17
2.470046639e-17
5.321486848e-17
5.008308896e-16
4.016345636e-16
1.076302836e-17
5.899947153e-18
5.778604474e-20
)
;
    }
    procBoundary4to5
    {
        type            processor;
        value           nonuniform List<scalar> 
20
(
4.924800522e-16
1.072660575e-16
3.368760197e-17
1.354341155e-17
1.23848171e-18
1.086229597e-18
1.242172273e-17
2.879477758e-17
9.502747708e-17
3.776110243e-16
6.212181763e-17
5.321558859e-16
2.253037887e-16
2.407102078e-16
1.836197488e-16
1.450439441e-17
2.047101571e-18
4.575011593e-19
1.471096787e-19
7.658866115e-20
)
;
    }
}


// ************************************************************************* //
