/*--------------------------------*- C++ -*----------------------------------*\
  =========                 |
  \\      /  F ield         | OpenFOAM: The Open Source CFD Toolbox
   \\    /   O peration     | Website:  https://openfoam.org
    \\  /    A nd           | Version:  6
     \\/     M anipulation  |
\*---------------------------------------------------------------------------*/
FoamFile
{
    version     2.0;
    format      ascii;
    class       volScalarField;
    location    "0.0019";
    object      Num_divU;
}
// * * * * * * * * * * * * * * * * * * * * * * * * * * * * * * * * * * * * * //

dimensions      [0 0 -1 0 0 0 0];

internalField   nonuniform List<scalar> 
600
(
2.040911678e-09
3.703803347e-09
1.285522334e-09
-8.856028694e-10
-3.243242189e-09
-5.581595831e-09
-7.881196757e-09
-1.013637975e-08
-1.234800937e-08
-1.45980625e-08
-1.701392603e-08
-1.984886466e-08
-2.356326491e-08
-2.910524161e-08
-3.789940991e-08
-5.105277392e-08
-6.711127976e-08
-7.965498534e-08
-7.912366964e-08
-6.548240536e-08
-6.018325927e-08
-7.331924242e-08
-9.337628396e-08
-1.23564847e-07
-1.847309708e-07
-3.017974529e-07
-4.599435732e-07
-6.588049238e-07
-8.431803685e-07
-3.602793751e-07
2.159059344e-09
4.004244712e-09
1.799917117e-09
-1.884480753e-10
-2.339128159e-09
-4.446403032e-09
-6.586722762e-09
-8.812466158e-09
-1.133149026e-08
-1.436501649e-08
-1.825342353e-08
-2.323104994e-08
-2.962823071e-08
-3.794720362e-08
-4.945407123e-08
-6.599759269e-08
-8.859566689e-08
-1.127953763e-07
-1.242016928e-07
-1.119671697e-07
-1.072845327e-07
-1.240235594e-07
-1.368991034e-07
-1.484295902e-07
-1.759771272e-07
-2.585310983e-07
-3.828944125e-07
-5.572174323e-07
-8.000611673e-07
-3.379551034e-07
2.285819957e-09
4.273231953e-09
2.140853207e-09
2.272837425e-10
-1.825432194e-09
-3.902867332e-09
-6.128440256e-09
-8.774280066e-09
-1.222650979e-08
-1.701616354e-08
-2.361865804e-08
-3.234546315e-08
-4.315297028e-08
-5.604853554e-08
-7.197374952e-08
-9.474972696e-08
-1.305278179e-07
-1.800863107e-07
-2.144061083e-07
-1.884156922e-07
-1.754988414e-07
-2.059344445e-07
-2.069608651e-07
-1.867175093e-07
-1.562135e-07
-2.060545317e-07
-3.073637993e-07
-4.493545804e-07
-6.728608191e-07
-2.157353375e-07
2.417808245e-09
4.549940837e-09
2.423940752e-09
5.550593908e-10
-1.479983004e-09
-3.613679311e-09
-6.135352075e-09
-9.52244885e-09
-1.451082e-08
-2.199521895e-08
-3.288159519e-08
-4.767167982e-08
-6.605274518e-08
-8.666773759e-08
-1.086898196e-07
-1.368033903e-07
-1.874791382e-07
-2.833061327e-07
-3.735394277e-07
-3.079353691e-07
-2.709782715e-07
-3.356190114e-07
-3.137683648e-07
-2.541363709e-07
-1.248413556e-07
-1.421177792e-07
-2.178199114e-07
-2.919000379e-07
-4.67865535e-07
-8.069467318e-09
2.558377072e-09
4.811329485e-09
2.659532278e-09
7.806809259e-10
-1.295155801e-09
-3.613883883e-09
-6.625571356e-09
-1.109755806e-08
-1.815280696e-08
-2.927395331e-08
-4.613825447e-08
-7.011483565e-08
-1.010974208e-07
-1.356596829e-07
-1.670575198e-07
-1.942103846e-07
-2.444077665e-07
-4.117814223e-07
-6.416394335e-07
-4.949226448e-07
-4.15826347e-07
-5.162809806e-07
-4.406458632e-07
-3.568767797e-07
-1.03278015e-07
-8.638283568e-08
-1.289908541e-07
-3.614500088e-08
-1.800383526e-07
2.831465471e-07
2.692240932e-09
5.046163505e-09
2.826565878e-09
8.900649302e-10
-1.326752079e-09
-3.991591078e-09
-7.754355427e-09
-1.365410829e-08
-2.322946372e-08
-3.865691354e-08
-6.286095675e-08
-9.925584165e-08
-1.498869485e-07
-2.106337704e-07
-2.633977581e-07
-2.822351469e-07
-2.720632418e-07
-5.106187411e-07
-9.817782936e-07
-1.066338431e-06
-1.192383789e-06
-4.56780317e-07
-4.058248955e-07
-2.390234398e-07
-7.469925495e-07
-3.126261749e-07
-2.636732702e-08
4.292373728e-07
2.462039326e-07
6.545944622e-07
2.809887331e-09
5.227056271e-09
2.903537758e-09
8.317336884e-10
-1.670330808e-09
-4.940484545e-09
-9.834408352e-09
-1.763215276e-08
-3.01633154e-08
-5.012161364e-08
-8.173755809e-08
-1.315952125e-07
-2.080703062e-07
-3.143838735e-07
-4.248009782e-07
-4.664377677e-07
-2.751309154e-07
-6.096507812e-07
-5.100643522e-07
-1.868037245e-06
-2.254380247e-06
-4.591056995e-07
-1.199319893e-07
-1.801479307e-07
-1.57813706e-06
-6.346135477e-07
3.507987042e-07
1.481852409e-06
1.033465287e-06
1.115502057e-06
2.896033104e-09
5.328501075e-09
2.861062774e-09
5.612110647e-10
-2.432545609e-09
-6.691723678e-09
-1.334069785e-08
-2.388809282e-08
-4.024315086e-08
-6.496081013e-08
-1.022468483e-07
-1.606723496e-07
-2.578250697e-07
-4.215291884e-07
-6.47472705e-07
-8.395466577e-07
-7.367262103e-07
-1.960508543e-07
5.009484559e-07
-2.115582606e-06
-1.902929519e-06
6.982884364e-08
4.496258872e-07
2.688649513e-07
-1.290282832e-06
-2.792098601e-06
9.908869017e-07
3.71424634e-06
3.509326617e-06
1.829835502e-06
2.933466392e-09
5.317484193e-09
2.68113293e-09
6.687350001e-11
-3.635416573e-09
-9.358162139e-09
-1.866378393e-08
-3.350047735e-08
-5.591561359e-08
-8.762183298e-08
-1.29888432e-07
-1.8623694e-07
-2.743747097e-07
-4.618555945e-07
-8.295751589e-07
-1.433858957e-06
-2.063565181e-06
6.285380454e-07
2.765589301e-06
2.691152291e-12
1.380567007e-11
2.042777192e-11
2.661568241e-11
2.727189296e-11
-2.524148336e-12
-9.507720866e-12
3.584063344e-06
1.199247554e-06
4.329541965e-06
3.708690168e-06
2.88989332e-09
5.143349465e-09
2.348460949e-09
-5.913256269e-10
-5.121019148e-09
-1.267964216e-08
-2.557149151e-08
-4.676297305e-08
-7.945136038e-08
-1.256020943e-07
-1.824466316e-07
-2.365894653e-07
-2.610518098e-07
-2.710993282e-07
-7.067780876e-07
-2.00174299e-06
-3.975943548e-06
-1.847707317e-11
-1.009046253e-11
3.192027654e-13
7.488783103e-12
1.185542056e-11
1.869836769e-11
1.138477084e-11
-8.84652718e-13
-3.533243946e-11
-2.816222994e-11
1.06021605e-11
6.106141342e-06
-6.788986571e-13
2.68792164e-09
4.678016391e-09
1.798787317e-09
-1.331930598e-09
-6.541545914e-09
-1.586389695e-08
-3.255064619e-08
-6.12810033e-08
-1.08372802e-07
-1.813359584e-07
-2.854239861e-07
-4.120162905e-07
-5.050514759e-07
-5.633613587e-07
-1.755390299e-07
6.1939122e-07
-6.54261175e-12
-9.245001758e-12
-6.938320903e-12
-5.068515713e-13
3.751789036e-12
6.003019776e-12
1.021371355e-11
1.161773982e-11
-8.902463854e-12
-1.973274985e-11
6.43153037e-14
-1.393247649e-11
-1.643219556e-11
-2.7430289e-11
2.107623534e-09
3.603718574e-09
8.035778614e-10
-2.178986769e-09
-7.587762295e-09
-1.791537975e-08
-3.708236343e-08
-7.101477525e-08
-1.289206918e-07
-2.25788363e-07
-3.866175234e-07
-6.489278467e-07
-9.827400407e-07
-4.622672974e-07
7.123326399e-07
2.698252209e-06
-3.884455942e-12
-7.986457766e-12
-5.469901474e-12
-9.963835215e-13
1.320787646e-12
1.007890229e-12
1.870124337e-12
2.881648664e-12
-2.859045144e-12
-1.3539072e-11
-6.813016049e-12
-1.014306187e-11
-2.261146561e-11
-1.109974086e-11
4.850420613e-10
1.152929987e-09
-1.193711769e-09
-3.458281223e-09
-8.38778449e-09
-1.869241736e-08
-3.823848973e-08
-7.239505334e-08
-1.282481911e-07
-2.148009968e-07
-3.433271135e-07
-5.345235526e-07
-1.070892236e-06
-1.800305831e-06
-2.07808479e-06
-2.982549747e-12
-7.802018245e-12
-9.681233933e-12
-7.539156065e-12
-4.091432027e-12
-2.910127907e-12
-3.703023344e-12
-3.232892431e-12
-9.949442242e-13
-2.443972804e-12
-5.245260215e-12
-5.166150208e-12
-1.101197617e-11
-1.20597945e-11
-1.770198869e-11
-4.469762633e-09
-4.459186237e-09
-5.196088579e-09
-5.752503644e-09
-9.556362542e-09
-1.937545089e-08
-3.903350736e-08
-7.376655031e-08
-1.300672122e-07
-2.145127525e-07
-3.313288518e-07
-4.983974206e-07
-1.268563657e-06
-2.241804133e-06
-1.87543881e-06
-7.910346114e-12
-1.275769736e-11
-1.441652597e-11
-1.282208447e-11
-1.036225709e-11
-9.228204046e-12
-9.036683265e-12
-6.518021498e-12
-8.610042372e-13
3.026588576e-12
2.713681243e-12
2.086023679e-12
-2.453030414e-12
-9.119923019e-12
-8.958703609e-12
-1.99373493e-08
-1.696546081e-08
-1.242811493e-08
-9.427252248e-09
-1.132099801e-08
-2.036399364e-08
-4.031697298e-08
-7.744448459e-08
-1.416384241e-07
-2.480077281e-07
-4.173332358e-07
-6.578228781e-07
-6.330066508e-07
-6.920080451e-07
6.455538487e-08
-1.170188206e-11
-1.814667807e-11
-2.061369172e-11
-1.861147469e-11
-1.606793319e-11
-1.489325126e-11
-1.217809075e-11
-5.06790096e-12
3.794048904e-12
1.02971878e-11
1.328355427e-11
9.330634629e-12
4.03203342e-12
-3.823844371e-13
-1.261799221e-11
-9.126501088e-08
-4.923677919e-08
-2.37280824e-08
-1.390830955e-08
-1.307739444e-08
-2.062959721e-08
-3.901049912e-08
-7.356841691e-08
-1.331806222e-07
-2.315310065e-07
-3.874667779e-07
-6.067366476e-07
-5.581436463e-07
-5.714239409e-07
1.595698209e-07
-1.355392913e-11
-1.928726367e-11
-1.997008902e-11
-2.281882727e-11
-2.23539493e-11
-1.888100492e-11
-1.227484948e-11
-4.44528546e-13
1.110790754e-11
1.699328737e-11
1.367454031e-11
1.640892592e-11
1.131107964e-11
7.847398079e-13
-2.622121501e-13
-1.019495927e-07
-5.451120372e-08
-2.567042536e-08
-1.494958973e-08
-1.359974489e-08
-2.007495694e-08
-3.566984212e-08
-6.335774155e-08
-1.068106425e-07
-1.684876037e-07
-2.465522853e-07
-3.511687209e-07
-1.048029122e-06
-1.855893028e-06
-1.51057835e-06
-1.019590102e-11
-1.392447261e-11
-2.5287365e-11
-2.387432011e-11
-2.305341479e-11
-2.028398754e-11
-9.059081894e-12
4.977785076e-12
1.525045296e-11
1.675080122e-11
2.682699004e-11
1.501765671e-11
1.434938762e-11
1.944265581e-11
-1.015667264e-11
-3.247869567e-08
-2.475033903e-08
-1.584531966e-08
-1.188458929e-08
-1.306276539e-08
-2.003867871e-08
-3.442827345e-08
-5.872281243e-08
-9.5854408e-08
-1.48611272e-07
-2.196561348e-07
-3.176408069e-07
-6.955150105e-07
-1.105771712e-06
-2.365224784e-06
-4.695752179e-12
-1.103627663e-11
-8.072760575e-12
-3.564002336e-11
-3.455076545e-11
-2.179663984e-11
-3.519401715e-12
1.329854191e-11
1.87060834e-11
1.949109928e-11
-3.530322748e-12
4.30767018e-11
3.670015073e-11
-3.17981065e-11
1.947114607e-11
1.137206818e-09
-5.451026012e-09
-6.785079172e-09
-8.522541138e-09
-1.258759088e-08
-2.079975512e-08
-3.513999033e-08
-5.835319936e-08
-9.410463968e-08
-1.484455458e-07
-2.326386436e-07
-3.658395051e-07
-5.131179349e-07
6.728205941e-08
9.488274078e-07
3.464216599e-06
5.383111979e-12
-6.369491209e-11
-6.225078258e-11
-4.901457782e-11
-2.387591932e-11
-1.182233228e-13
1.330224376e-11
7.281010063e-12
-1.376156047e-11
9.258140143e-11
8.467160265e-11
-5.297292671e-12
4.134882187e-11
-4.341859004e-11
2.257125674e-08
7.661412313e-09
-5.183529594e-11
-5.882142283e-09
-1.233390355e-08
-2.144080309e-08
-3.505166276e-08
-5.445448913e-08
-7.963900581e-08
-1.065472538e-07
-1.207755784e-07
-8.134291589e-08
1.201263369e-07
6.199805454e-07
2.183240841e-06
1.687414259e-06
-3.953467009e-11
-4.854855367e-11
-7.138070021e-11
-6.150942311e-11
-1.445840227e-11
1.562639855e-11
2.058736656e-11
4.508269189e-12
7.108886814e-11
1.019989643e-10
1.075936983e-10
5.03187665e-11
-2.428171202e-11
9.72044786e-11
)
;

boundaryField
{
    lowerWall
    {
        type            calculated;
        value           nonuniform 0();
    }
    atmosphere
    {
        type            calculated;
        value           nonuniform List<scalar> 
20
(
2.040911678e-09
2.159059344e-09
2.285819957e-09
2.417808245e-09
2.558377072e-09
2.692240932e-09
2.809887331e-09
2.896033104e-09
2.933466392e-09
2.88989332e-09
2.68792164e-09
2.107623534e-09
4.850420613e-10
-4.469762633e-09
-1.99373493e-08
-9.126501088e-08
-1.019495927e-07
-3.247869567e-08
1.137206818e-09
2.257125674e-08
)
;
    }
    rightWall
    {
        type            empty;
    }
    leftWall
    {
        type            empty;
    }
    frontAndBack
    {
        type            calculated;
        value           nonuniform List<scalar> 
30
(
2.040911678e-09
3.703803347e-09
1.285522334e-09
-8.856028694e-10
-3.243242189e-09
-5.581595831e-09
-7.881196757e-09
-1.013637975e-08
-1.234800937e-08
-1.45980625e-08
-1.701392603e-08
-1.984886466e-08
-2.356326491e-08
-2.910524161e-08
-3.789940991e-08
-5.105277392e-08
-6.711127976e-08
-7.965498534e-08
-7.912366964e-08
-6.548240536e-08
-6.018325927e-08
-7.331924242e-08
-9.337628396e-08
-1.23564847e-07
-1.847309708e-07
-3.017974529e-07
-4.599435732e-07
-6.588049238e-07
-8.431803685e-07
-3.602793751e-07
)
;
    }
    procBoundary0to1
    {
        type            processor;
        value           nonuniform List<scalar> 
20
(
1.645868025e-11
1.698943098e-11
1.721838543e-11
1.730500087e-11
1.754237386e-11
2.340911737e-11
2.500726449e-11
-3.947732694e-13
1.277488762e-11
-4.774429139e-11
-1.173370754e-11
-2.289970961e-11
-1.658344469e-11
-2.168220534e-11
-1.440062372e-11
-1.972500737e-11
-4.19652449e-12
-2.818476933e-11
3.681636364e-11
-4.202293239e-11
)
;
    }
    procBoundary0to2
    {
        type            processor;
        value           nonuniform List<scalar> 
30
(
3.590822954e-08
1.582935329e-08
4.340350674e-09
-4.185614495e-09
-1.219437146e-08
-2.18416451e-08
-3.441025296e-08
-4.988073511e-08
-6.499809154e-08
-6.965440457e-08
-3.96315542e-08
7.491556156e-08
3.629764649e-07
9.107382909e-07
1.370135028e-06
1.5069319e-06
-1.685973283e-06
-7.674564424e-11
-8.107608531e-11
-4.466798752e-11
3.604978552e-12
3.601422359e-11
3.200379521e-11
6.925535963e-12
2.853248469e-11
1.498170835e-10
8.992091795e-11
2.491469953e-11
1.551324157e-06
-4.155813155e-11
)
;
    }
}


// ************************************************************************* //
