/*--------------------------------*- C++ -*----------------------------------*\
  =========                 |
  \\      /  F ield         | OpenFOAM: The Open Source CFD Toolbox
   \\    /   O peration     | Website:  https://openfoam.org
    \\  /    A nd           | Version:  6
     \\/     M anipulation  |
\*---------------------------------------------------------------------------*/
FoamFile
{
    version     2.0;
    format      ascii;
    class       volScalarField;
    location    "0.0019";
    object      TRHS;
}
// * * * * * * * * * * * * * * * * * * * * * * * * * * * * * * * * * * * * * //

dimensions      [1 -1 -3 0 0 0 0];

internalField   nonuniform List<scalar> 
600
(
2.037756957e-10
3.703982896e-10
1.300087385e-10
-8.526267384e-11
-3.186175353e-10
-5.493583716e-10
-7.753645051e-10
-9.958312028e-10
-1.210511444e-09
-1.427175738e-09
-1.658040849e-09
-1.927864329e-09
-2.282197672e-09
-2.815691672e-09
-3.671294128e-09
-4.961056913e-09
-6.541665657e-09
-7.773370786e-09
-7.701697797e-09
-6.323376448e-09
-5.7825488e-09
-7.086966391e-09
-9.085186603e-09
-1.210231645e-08
-1.823318409e-08
-2.998608933e-08
-4.589622173e-08
-6.593498805e-08
-8.459555279e-08
-3.805566371e-08
2.154342034e-10
4.000514184e-10
1.809010551e-10
-1.623707452e-11
-2.289734717e-10
-4.365573797e-10
-6.463707966e-10
-8.632826777e-10
-1.107601113e-09
-1.400881819e-09
-1.776568296e-09
-2.257573102e-09
-2.876640778e-09
-3.684146891e-09
-4.807500411e-09
-6.433120842e-09
-8.664944516e-09
-1.106000744e-08
-1.218075573e-08
-1.094361545e-08
-1.04683493e-08
-1.214188303e-08
-1.343653052e-08
-1.460759718e-08
-1.739870494e-08
-2.571966189e-08
-3.826148007e-08
-5.584103719e-08
-8.031966547e-08
-3.588918419e-08
2.279440217e-10
4.266124606e-10
2.146574081e-10
2.507309154e-11
-1.776401237e-10
-3.817413679e-10
-5.991565451e-10
-8.565445611e-10
-1.191845873e-09
-1.65743899e-09
-2.300213534e-09
-3.150902254e-09
-4.205159333e-09
-5.464341975e-09
-7.023955795e-09
-9.268164407e-09
-1.281467077e-08
-1.774405231e-08
-2.115696941e-08
-1.854849375e-08
-1.725945104e-08
-2.031897143e-08
-2.045204399e-08
-1.847441956e-08
-1.549017158e-08
-2.056426902e-08
-3.081302142e-08
-4.515557297e-08
-6.768139788e-08
-2.383086686e-08
2.409592317e-10
4.539702662e-10
2.427841969e-10
5.791553036e-11
-1.425253955e-10
-3.513357078e-10
-5.96817854e-10
-9.259245485e-10
-1.411333067e-09
-2.141638531e-09
-3.206772044e-09
-4.656714306e-09
-6.460696759e-09
-8.48436759e-09
-1.064724427e-08
-1.342064703e-08
-1.845487546e-08
-2.801207604e-08
-3.702072688e-08
-3.045913822e-08
-2.678102581e-08
-3.328346846e-08
-3.115866006e-08
-2.527692837e-08
-1.244757586e-08
-1.429027656e-08
-2.198695881e-08
-2.953005941e-08
-4.727733441e-08
-3.330319345e-09
2.548380235e-10
4.798595669e-10
2.663663511e-10
8.09562779e-11
-1.227573768e-10
-3.486947187e-10
-6.409800728e-10
-1.07528181e-09
-1.762751421e-09
-2.850654294e-09
-4.506157264e-09
-6.866382219e-09
-9.921949266e-09
-1.333261408e-08
-1.642736279e-08
-1.910215928e-08
-2.409001062e-08
-4.080773359e-08
-6.378881916e-08
-4.912787869e-08
-4.125572174e-08
-5.136589974e-08
-4.389535467e-08
-3.563601408e-08
-1.040871153e-08
-8.852491905e-09
-1.32339091e-08
-4.065167362e-09
-1.856775185e-08
2.538726649e-08
2.68062886e-10
5.032006566e-10
2.833543943e-10
9.285133956e-11
-1.238179018e-10
-3.825054462e-10
-7.470287583e-10
-1.319944946e-09
-2.253782599e-09
-3.765186425e-09
-6.14632772e-09
-9.739492394e-09
-1.475148762e-08
-2.077398381e-08
-2.600199877e-08
-2.784657957e-08
-2.680443715e-08
-5.065335161e-08
-9.778302221e-08
-1.0626274e-07
-1.189285852e-07
-4.545895997e-08
-4.048605626e-08
-2.395442499e-08
-7.490851028e-08
-3.160889295e-08
-3.069263189e-09
4.240496012e-08
2.40396617e-08
6.188578354e-08
2.797054178e-10
5.212959547e-10
2.916485563e-10
8.852160478e-11
-1.551872914e-10
-4.720510923e-10
-9.46157365e-10
-1.703914141e-09
-2.926852401e-09
-4.883514821e-09
-7.997218605e-09
-1.292816053e-08
-2.051747025e-08
-3.109247976e-08
-4.208614362e-08
-4.621707288e-08
-2.70746328e-08
-6.05421787e-08
-5.06290051e-08
-1.86437985e-07
-2.251704191e-07
-4.575787961e-08
-1.198860468e-08
-1.818589648e-08
-1.581651617e-07
-6.395651443e-08
3.462380304e-08
1.476696736e-07
1.028271079e-07
1.068176952e-07
2.882591612e-10
5.316432693e-10
2.88358915e-10
6.355762846e-11
-2.275108107e-10
-6.404597699e-10
-1.285938782e-09
-2.313027069e-09
-3.911277361e-09
-6.335782787e-09
-1.000824113e-08
-1.57887952e-08
-2.544123972e-08
-4.175469094e-08
-6.430569022e-08
-8.3491947e-08
-7.321615883e-08
-1.918532119e-08
5.037517056e-08
-2.331488556e-07
-2.049957154e-07
-0.0001743465847
-0.0001109682699
-0.0001494721141
-1.458112897e-07
-3.03232951e-07
9.882935462e-08
3.709834435e-07
3.505533718e-07
1.758683457e-07
2.920368729e-10
5.310026228e-10
2.717381166e-10
1.680191262e-11
-3.430531088e-10
-8.991780093e-10
-1.805732359e-09
-3.255644681e-09
-5.452533145e-09
-8.567974225e-09
-1.27312286e-08
-1.829902918e-08
-2.704867009e-08
-4.574337104e-08
-8.248064107e-08
-1.429055012e-07
-2.058848081e-07
-0.0001712170702
-0.0007740817603
167.3375045
-0.005864834831
69.16524582
44.03840478
59.30549084
-0.006562082662
144.7813271
-0.0004247992363
1.049882822e-07
4.327941419e-07
3.581072783e-07
2.878636674e-10
5.14419412e-10
2.403317675e-10
-4.576607855e-11
-4.861868885e-10
-1.222553575e-09
-2.482928887e-09
-4.562061567e-09
-7.77899187e-09
-1.233159233e-08
-1.79468924e-08
-2.329175411e-08
-2.567642981e-08
-2.663594037e-08
-7.018172137e-08
-1.996934158e-07
-4.307793747e-07
67.93940422
139.838192
0
0
0
0
0
0
0
23.86716737
106.5964686
-0.0002681175131
-0.0001400846667
2.681261914e-10
4.693072013e-10
1.878771888e-10
-1.160067608e-10
-6.223842092e-10
-1.531918825e-09
-3.167163954e-09
-5.994234876e-09
-1.064484383e-08
-1.787255196e-08
-2.82084053e-08
-4.079877998e-08
-5.004703881e-08
-5.58440758e-08
-1.702266781e-08
-0.0001722219704
68.33770731
0
0
0
0
0
0
0
0
0
0
0
384.7933079
-0.002109749049
2.111661886e-10
3.643781731e-10
9.188097308e-11
-1.962591023e-10
-7.210091072e-10
-1.728441185e-09
-3.607808482e-09
-6.950117709e-09
-1.267685316e-08
-2.229079521e-08
-3.829957374e-08
-6.446607615e-08
-9.780660739e-08
-4.575965075e-08
7.157001909e-08
-0.0007853493407
141.4249345
0
0
0
0
0
0
0
0
0
0
0
-0.005128010861
-4.382135836e-05
5.155643426e-11
1.239757158e-10
-1.026133903e-10
-3.189190557e-10
-7.951686278e-10
-1.798760796e-09
-3.713494584e-09
-7.07506489e-09
-1.259363358e-08
-2.117476233e-08
-3.395469387e-08
-5.301351144e-08
-1.066108388e-07
-1.794999164e-07
-2.290678629e-07
170.2180285
0
0
0
0
0
0
0
0
0
0
0
0
0
-0.001403000509
-4.364640158e-10
-4.27899858e-10
-4.94722867e-10
-5.419963519e-10
-9.066558363e-10
-1.861723508e-09
-3.787095666e-09
-7.205896382e-09
-1.27701201e-08
-2.11443487e-08
-3.27618116e-08
-4.942267087e-08
-1.264218677e-07
-2.23741965e-07
-2.014754581e-07
-0.005605843987
0
0
0
0
0
0
0
0
0
0
0
0
0
0
-1.961051221e-09
-1.659488191e-09
-1.205555417e-09
-9.021462631e-10
-1.078746266e-09
-1.958025601e-09
-3.914643591e-09
-7.57580299e-09
-1.393494723e-08
-2.451168308e-08
-4.139663125e-08
-6.542384377e-08
-6.295592306e-08
-6.889377189e-08
-0.0002142147406
84.98058361
0
0
0
0
0
0
0
0
0
0
0
0
0
0
-8.996517734e-09
-4.840998489e-09
-2.318498583e-09
-1.343341193e-09
-1.25211612e-09
-1.985501837e-09
-3.788783947e-09
-7.199226786e-09
-1.311065324e-08
-2.290220266e-08
-3.847304773e-08
-6.041244653e-08
-5.560857973e-08
-5.702747126e-08
-0.0002081266419
82.56918763
0
0
0
0
0
0
0
0
0
0
0
0
0
0
-1.004652334e-08
-5.360258939e-09
-2.510666402e-09
-1.447730754e-09
-1.306454024e-09
-1.934972215e-09
-3.464759485e-09
-6.19709467e-09
-1.050711612e-08
-1.665355096e-08
-2.446915174e-08
-3.498610066e-08
-1.047808357e-07
-1.85734813e-07
-1.659551925e-07
-0.005844851033
0
0
0
0
0
0
0
0
0
0
0
0
0
0
-3.190814014e-09
-2.42674766e-09
-1.545316106e-09
-1.150007868e-09
-1.259367566e-09
-1.939668785e-09
-3.354459973e-09
-5.757861509e-09
-9.452663002e-09
-1.473233646e-08
-2.188109876e-08
-3.178128211e-08
-6.97360265e-08
-1.110560131e-07
-2.589167606e-07
162.6843961
0
0
0
0
0
0
0
0
0
0
0
0
0
-0.002528936189
1.21234464e-10
-5.288947129e-10
-6.577234623e-10
-8.249037287e-10
-1.22032837e-09
-2.025579195e-09
-3.440918504e-09
-5.746785215e-09
-9.320663748e-09
-1.478357447e-08
-2.327967452e-08
-3.673734114e-08
-5.165834409e-08
6.170959132e-09
9.429798573e-08
-0.0007007784821
115.4395655
0
0
0
0
0
0
0
0
0
0
0
-0.00529066684
-1.894237256e-05
2.230223778e-09
7.579282872e-10
-1.644295456e-13
-5.711936024e-10
-1.203115208e-09
-2.098951169e-09
-3.446178136e-09
-5.380461053e-09
-7.912989936e-09
-1.065516671e-08
-1.21855398e-08
-8.419859115e-09
1.147851182e-08
6.116286473e-08
2.170593901e-07
-0.0001164032461
46.23581439
0
0
0
0
0
0
0
0
0
0
0
393.7128196
-0.002066295491
)
;

boundaryField
{
    lowerWall
    {
        type            calculated;
        value           nonuniform 0();
    }
    atmosphere
    {
        type            calculated;
        value           nonuniform List<scalar> 
20
(
2.037756957e-10
2.154342034e-10
2.279440217e-10
2.409592317e-10
2.548380235e-10
2.68062886e-10
2.797054178e-10
2.882591612e-10
2.920368729e-10
2.878636674e-10
2.681261914e-10
2.111661886e-10
5.155643426e-11
-4.364640158e-10
-1.961051221e-09
-8.996517734e-09
-1.004652334e-08
-3.190814014e-09
1.21234464e-10
2.230223778e-09
)
;
    }
    rightWall
    {
        type            empty;
    }
    leftWall
    {
        type            empty;
    }
    frontAndBack
    {
        type            calculated;
        value           nonuniform List<scalar> 
30
(
2.037756957e-10
3.703982896e-10
1.300087385e-10
-8.526267384e-11
-3.186175353e-10
-5.493583716e-10
-7.753645051e-10
-9.958312028e-10
-1.210511444e-09
-1.427175738e-09
-1.658040849e-09
-1.927864329e-09
-2.282197672e-09
-2.815691672e-09
-3.671294128e-09
-4.961056913e-09
-6.541665657e-09
-7.773370786e-09
-7.701697797e-09
-6.323376448e-09
-5.7825488e-09
-7.086966391e-09
-9.085186603e-09
-1.210231645e-08
-1.823318409e-08
-2.998608933e-08
-4.589622173e-08
-6.593498805e-08
-8.459555279e-08
-3.805566371e-08
)
;
    }
    procBoundary0to1
    {
        type            processor;
        value           nonuniform List<scalar> 
20
(
-0.0007016256525
-0.0007267870745
-0.0007815697776
-0.0008767608228
-0.001034720649
-0.001302726059
-0.001789203814
-0.002771116141
-0.005046438311
55.57092529
452.1333347
17.37719386
0
0
0
0
0
0
7.506527781
425.9718306
)
;
    }
    procBoundary0to2
    {
        type            processor;
        value           nonuniform List<scalar> 
30
(
3.541038818e-09
1.557853649e-09
4.27500967e-10
-4.09460022e-10
-1.195488563e-09
-2.146071792e-09
-3.392529214e-09
-4.940496718e-09
-6.477601844e-09
-7.01106024e-09
-4.138051955e-09
7.113931394e-09
3.564976509e-08
9.012291354e-08
1.357911339e-07
1.493869166e-07
-2.090747887e-07
21.92721345
18.22874913
0
0
0
0
0
0
0
-0.005972238653
20.34657071
-5.117101124e-05
-2.519401748e-10
)
;
    }
}


// ************************************************************************* //
