/*--------------------------------*- C++ -*----------------------------------*\
  =========                 |
  \\      /  F ield         | OpenFOAM: The Open Source CFD Toolbox
   \\    /   O peration     | Website:  https://openfoam.org
    \\  /    A nd           | Version:  6
     \\/     M anipulation  |
\*---------------------------------------------------------------------------*/
FoamFile
{
    version     2.0;
    format      ascii;
    class       volVectorField;
    location    "0.0019";
    object      U;
}
// * * * * * * * * * * * * * * * * * * * * * * * * * * * * * * * * * * * * * //

dimensions      [0 1 -1 0 0 0 0];

internalField   nonuniform List<vector> 
600
(
(0 1.042997746e-10 -8.796491964e-14)
(0 1.049247451e-10 -2.560653947e-13)
(0 1.058016183e-10 -3.984550023e-13)
(0 1.06767536e-10 -4.949453058e-13)
(0 1.077219716e-10 -5.23049635e-13)
(0 1.085079885e-10 -4.569456417e-13)
(0 1.089131022e-10 -2.662782216e-13)
(0 1.086609152e-10 8.301082964e-14)
(0 1.074032453e-10 6.264216944e-13)
(0 1.047174427e-10 1.393898031e-12)
(0 1.001198723e-10 2.398533823e-12)
(0 9.310899181e-11 3.618934607e-12)
(0 8.324545017e-11 4.981780026e-12)
(0 7.025672351e-11 6.355881906e-12)
(8.889856876e-53 5.412109012e-11 7.58301957e-12)
(5.91865589e-53 3.505730014e-11 8.562054409e-12)
(0 1.336431463e-11 9.358761803e-12)
(0 -1.080464567e-11 1.020464964e-11)
(0 -3.738543996e-11 1.1177796e-11)
(0 -6.559218713e-11 1.158474273e-11)
(0 -9.264763974e-11 9.940162897e-12)
(0 -1.140167254e-10 5.592966752e-12)
(0 -1.254680982e-10 -8.112310337e-13)
(0 -1.241315813e-10 -8.865980105e-12)
(0 -1.079436915e-10 -1.867710822e-11)
(0 -7.583018015e-11 -2.962655988e-11)
(0 -3.064120129e-11 -3.825543315e-11)
(0 1.655222847e-11 -3.898486557e-11)
(0 4.910032254e-11 -2.692907315e-11)
(0 1.179204762e-12 4.493303791e-25)
(0 1.038270923e-10 -2.72349044e-13)
(0 1.045044188e-10 -7.93614063e-13)
(0 1.054804286e-10 -1.239169205e-12)
(0 1.065995203e-10 -1.549486765e-12)
(0 1.077692712e-10 -1.658393464e-12)
(0 1.088428178e-10 -1.48892116e-12)
(0 1.09617625e-10 -9.507525508e-13)
(0 1.098230587e-10 5.928464992e-14)
(0 1.091056398e-10 1.650198486e-12)
(0 1.070168182e-10 3.918758556e-12)
(0 1.030156816e-10 6.914651176e-12)
(0 9.650608895e-11 1.058627277e-11)
(0 8.692851881e-11 1.471709078e-11)
(0 7.391227639e-11 1.889255703e-11)
(0 5.744795644e-11 2.257673354e-11)
(0 3.795524866e-11 2.538578156e-11)
(0 1.60422418e-11 2.750960092e-11)
(0 -8.130084385e-12 2.986057186e-11)
(0 -3.537448453e-11 3.310271481e-11)
(0 -6.637559835e-11 3.521138411e-11)
(0 -9.834741074e-11 3.079641744e-11)
(0 -1.249167737e-10 1.765067332e-11)
(0 -1.410887068e-10 -1.362166227e-12)
(0 -1.449522544e-10 -2.481840726e-11)
(0 -1.345950197e-10 -5.378483445e-11)
(0 -1.060581297e-10 -8.768082182e-11)
(0 -5.794124223e-11 -1.157564497e-10)
(0 -2.770534063e-13 -1.196773733e-10)
(0 4.605125683e-11 -8.329797253e-11)
(0 1.221492938e-12 4.992275207e-25)
(0 1.030050444e-10 -4.837806044e-13)
(0 1.037683801e-10 -1.413646609e-12)
(0 1.049051842e-10 -2.22246872e-12)
(0 1.062720245e-10 -2.81514524e-12)
(0 1.077900848e-10 -3.085263801e-12)
(0 1.093296235e-10 -2.90807623e-12)
(0 1.107060478e-10 -2.135699161e-12)
(0 1.11661888e-10 -5.953317069e-13)
(0 1.118423029e-10 1.903231878e-12)
(0 1.107674233e-10 5.543938807e-12)
(0 1.078139837e-10 1.045002592e-11)
(0 1.022317045e-10 1.658647975e-11)
(0 9.323644591e-11 2.362040661e-11)
(0 8.022779355e-11 3.079760394e-11)
(1.001492018e-52 6.313512906e-11 3.699418971e-11)
(6.889091807e-53 4.272563631e-11 4.120178802e-11)
(0 2.039234652e-11 4.358011844e-11)
(0 -3.208445763e-12 4.641881404e-11)
(0 -3.035237078e-11 5.280923323e-11)
(0 -6.530203795e-11 6.003800176e-11)
(0 -1.05518482e-10 5.470552326e-11)
(0 -1.401394765e-10 3.189852654e-11)
(0 -1.627746791e-10 9.405935253e-13)
(0 -1.748249281e-10 -3.486823056e-11)
(0 -1.76384182e-10 -8.02636164e-11)
(0 -1.58472722e-10 -1.402555012e-10)
(0 -1.105873923e-10 -1.954611733e-10)
(0 -3.927487585e-11 -2.088818776e-10)
(0 2.946875377e-11 -1.484091696e-10)
(0 1.313564863e-12 5.936683962e-25)
(0 1.017502364e-10 -7.368515215e-13)
(0 1.026293481e-10 -2.161272254e-12)
(0 1.039821818e-10 -3.42697412e-12)
(0 1.056819361e-10 -4.40883237e-12)
(0 1.076685265e-10 -4.966120478e-12)
(0 1.098362754e-10 -4.93324507e-12)
(0 1.120276156e-10 -4.111317841e-12)
(0 1.140101386e-10 -2.261915398e-12)
(0 1.15442195e-10 8.922785455e-13)
(0 1.158259336e-10 5.648540404e-12)
(0 1.144539182e-10 1.22634397e-11)
(0 1.103743495e-10 2.081352302e-11)
(0 1.02440345e-10 3.094555791e-11)
(0 8.95700069e-11 4.154960745e-11)
(-1.130349713e-52 7.136188734e-11 5.058435024e-11)
(-7.57009827e-53 4.899941091e-11 5.562760122e-11)
(0 2.560051577e-11 5.597950992e-11)
(0 4.013274817e-12 5.60855453e-11)
(0 -1.97680625e-11 6.608760835e-11)
(0 -5.873682318e-11 8.614598454e-11)
(0 -1.116460447e-10 8.350308473e-11)
(0 -1.564791106e-10 4.716326743e-11)
(0 -1.840816133e-10 5.06683699e-12)
(0 -2.048240629e-10 -3.597898968e-11)
(0 -2.260317952e-10 -8.904502504e-11)
(0 -2.306665382e-10 -1.795665028e-10)
(0 -1.896272604e-10 -2.763296266e-10)
(0 -1.014295466e-10 -3.112579926e-10)
(0 1.172620786e-12 -2.29053665e-10)
(0 1.473550082e-12 7.341452669e-25)
(0 9.995386223e-11 -1.044442836e-12)
(0 1.009724849e-10 -3.075749157e-12)
(0 1.025855307e-10 -4.920741938e-12)
(0 1.046863701e-10 -6.431421851e-12)
(0 1.07236968e-10 -7.44152228e-12)
(0 1.101602364e-10 -7.755332967e-12)
(0 1.133327809e-10 -7.136255834e-12)
(0 1.165605134e-10 -5.293504907e-12)
(0 1.195396979e-10 -1.869168784e-12)
(0 1.217943891e-10 3.564333148e-12)
(0 1.225798857e-10 1.146463105e-11)
(0 1.207560814e-10 2.217190247e-11)
(0 1.146955774e-10 3.554905925e-11)
(0 1.024433618e-10 5.032438209e-11)
(0 8.257127947e-11 6.327710604e-11)
(0 5.620377298e-11 6.916286646e-11)
(0 2.944069482e-11 6.376694998e-11)
(0 1.18212571e-11 5.273363605e-11)
(0 -4.257156901e-13 6.331195502e-11)
(0 -4.117816625e-11 1.132348359e-10)
(0 -1.135379971e-10 1.202237598e-10)
(0 -1.691756021e-10 5.770960206e-11)
(0 -1.937171228e-10 4.990447792e-12)
(0 -2.17600179e-10 -2.788105017e-11)
(0 -2.666937073e-10 -6.573267626e-11)
(0 -3.128474926e-10 -1.920649266e-10)
(0 -2.921907513e-10 -3.547968978e-10)
(0 -1.868526927e-10 -4.298332388e-10)
(0 -3.88709795e-11 -3.334023631e-10)
(0 1.739029228e-12 9.503977449e-25)
(0 9.74889596e-11 -1.416343864e-12)
(0 9.86628016e-11 -4.186965846e-12)
(0 1.005655229e-10 -6.755129012e-12)
(0 1.031124346e-10 -8.95846032e-12)
(0 1.062874405e-10 -1.061546994e-11)
(0 1.100408653e-10 -1.151436818e-11)
(0 1.142826471e-10 -1.140051469e-11)
(0 1.188620093e-10 -9.95770697e-12)
(0 1.235360618e-10 -6.778907146e-12)
(0 1.279110081e-10 -1.328120782e-12)
(0 1.313211469e-10 7.082589254e-12)
(0 1.325949169e-10 1.922229481e-11)
(0 1.296934628e-10 3.559014717e-11)
(0 1.194171349e-10 5.544074835e-11)
(0 9.798412748e-11 7.481971511e-11)
(0 6.435943796e-11 8.410895724e-11)
(0 2.767023222e-11 6.946659333e-11)
(0 1.411019598e-11 2.865235253e-11)
(0 2.991179498e-11 2.321337566e-11)
(0 -6.752558472e-12 1.389475054e-10)
(0 -1.076952031e-10 1.687871483e-10)
(0 -1.711617519e-10 4.983723322e-11)
(0 -1.75855392e-10 -1.146342849e-11)
(0 -1.874506134e-10 -1.786999995e-11)
(0 -2.675049772e-10 8.269139999e-12)
(0 -3.781036059e-10 -1.585839893e-10)
(0 -4.036158472e-10 -4.23839657e-10)
(0 -2.890479166e-10 -5.595723236e-10)
(0 -9.091547673e-11 -4.695176734e-10)
(0 2.189459246e-12 1.324195955e-24)
(0 9.421611464e-11 -1.858778917e-12)
(0 9.555177701e-11 -5.513733636e-12)
(0 9.775698053e-11 -8.96209212e-12)
(0 1.007688079e-10 -1.203559183e-11)
(0 1.045888031e-10 -1.454747963e-11)
(0 1.091851336e-10 -1.628331116e-11)
(0 1.144848308e-10 -1.699169899e-11)
(0 1.203604421e-10 -1.636757094e-11)
(0 1.266200643e-10 -1.401680641e-11)
(0 1.329892703e-10 -9.387477753e-12)
(0 1.390373437e-10 -1.658235641e-12)
(0 1.439276479e-10 1.038694929e-11)
(0 1.457728949e-10 2.832261113e-11)
(0 1.404113665e-10 5.328748846e-11)
(0 1.202039784e-10 8.299696082e-11)
(0 7.674088312e-11 1.044200818e-10)
(0 1.551918892e-11 8.541040036e-11)
(0 -2.189189922e-12 -1.73450653e-11)
(0 6.528501081e-11 -8.979976102e-11)
(0 3.555983944e-11 1.73403714e-10)
(0 -8.267810418e-11 2.557321074e-10)
(0 -1.387925331e-10 -7.374836392e-12)
(0 -1.139207896e-10 -6.045522039e-11)
(0 -9.956289225e-11 -3.417900542e-11)
(0 -1.871207476e-10 1.727912085e-10)
(0 -3.493378824e-10 -4.770564043e-11)
(0 -4.787347718e-10 -4.687751027e-10)
(0 -3.808529616e-10 -6.66036452e-10)
(0 -1.579875629e-10 -6.385858808e-10)
(0 3.007070296e-12 2.041621132e-24)
(0 8.999026372e-11 -2.374162792e-12)
(0 9.148487395e-11 -7.063340119e-12)
(0 9.398855308e-11 -1.155378118e-11)
(0 9.745931564e-11 -1.567895709e-11)
(0 1.019097075e-10 -1.925363964e-11)
(0 1.073090834e-10 -2.206742776e-11)
(0 1.135670959e-10 -2.388288576e-11)
(0 1.205187793e-10 -2.443265115e-11)
(0 1.279347326e-10 -2.340433219e-11)
(0 1.355738216e-10 -2.038741398e-11)
(0 1.432724055e-10 -1.472636917e-11)
(0 1.509593986e-10 -5.177919572e-12)
(0 1.58172077e-10 1.071953243e-11)
(0 1.620149477e-10 3.723360942e-11)
(0 1.519903774e-10 7.880917853e-11)
(0 1.051277832e-10 1.283289103e-10)
(0 -3.445769648e-12 1.366536155e-10)
(0 -3.712742316e-11 -6.051231386e-11)
(0 9.425703385e-11 -3.620623857e-10)
(0 7.871206979e-25 1.44969933e-11)
(0 -3.019634314e-24 9.856881804e-12)
(0 -1.215598275e-24 -4.289457775e-12)
(0 -6.836533629e-26 -2.731153132e-12)
(0 1.116212566e-24 -3.677980115e-12)
(0 2.828985773e-24 1.102872886e-11)
(0 -1.541420131e-24 1.589582012e-11)
(0 -4.284761198e-10 -4.782438648e-10)
(0 -3.803773706e-10 -6.571160746e-10)
(0 -2.688238218e-10 -8.130725229e-10)
(0 4.657345893e-12 3.062224182e-24)
(0 8.46684253e-11 -2.961194715e-12)
(0 8.630931797e-11 -8.831916974e-12)
(0 8.90909423e-11 -1.452427771e-11)
(0 9.299358895e-11 -1.988068452e-11)
(0 9.803761327e-11 -2.472017889e-11)
(0 1.041793946e-10 -2.883118661e-11)
(0 1.112709575e-10 -3.197518619e-11)
(0 1.190159538e-10 -3.390305047e-11)
(0 1.269571595e-10 -3.43872115e-11)
(0 1.345569453e-10 -3.326386218e-11)
(0 1.414823518e-10 -3.043280064e-11)
(0 1.482249887e-10 -2.561192948e-11)
(0 1.569053138e-10 -1.728154338e-11)
(0 1.707403836e-10 1.998380281e-13)
(0 1.857847077e-10 4.173763419e-11)
(0 1.676130421e-10 1.274242262e-10)
(0 -1.450987202e-11 2.587687581e-10)
(0 2.223308904e-24 -4.213845945e-12)
(0 -1.037839384e-11 -8.672419469e-12)
(0 -1.026772936e-11 1.850501793e-11)
(0 6.088936224e-12 1.384661649e-11)
(0 7.53657639e-12 -4.158267492e-12)
(0 6.114776588e-13 -2.95628744e-12)
(0 -6.364729333e-12 -2.883975774e-12)
(0 -5.301587064e-12 1.652315593e-11)
(0 9.095882305e-12 2.292807153e-11)
(0 8.979567017e-12 -1.480182803e-12)
(0 1.836162349e-25 9.834756208e-12)
(0 -5.526865186e-10 -8.375482302e-10)
(0 8.481423204e-12 -2.272521122e-11)
(0 7.81184971e-11 -3.614963592e-12)
(0 7.988174571e-11 -1.080450547e-11)
(0 8.290174788e-11 -1.785051493e-11)
(0 8.718800022e-11 -2.461462702e-11)
(0 9.27772566e-11 -3.092319068e-11)
(0 9.961916877e-11 -3.654978523e-11)
(0 1.07497539e-10 -4.121079977e-11)
(0 1.159196845e-10 -4.458238323e-11)
(0 1.239931404e-10 -4.636442324e-11)
(0 1.30351546e-10 -4.644222867e-11)
(0 1.333280751e-10 -4.521519121e-11)
(0 1.319059381e-10 -4.408873726e-11)
(0 1.285217918e-10 -4.566043499e-11)
(0 1.351627588e-10 -5.167928152e-11)
(0 1.757100909e-10 -5.313637853e-11)
(0 2.800465362e-10 -2.393942498e-11)
(0 1.115998926e-11 1.113528854e-11)
(0 1.620296717e-11 -2.31129642e-12)
(0 2.594252349e-12 -9.853471773e-12)
(0 -2.356351033e-12 5.474959788e-12)
(0 2.212101859e-12 5.952366198e-12)
(0 3.321707374e-12 1.180523031e-12)
(0 1.27429172e-12 6.800230431e-13)
(0 -6.451679379e-13 2.378179461e-12)
(0 9.366600393e-13 8.61720536e-12)
(0 6.872048295e-12 1.049955606e-11)
(0 7.031296249e-12 4.432167091e-13)
(0 8.424600317e-12 1.487204069e-11)
(0 -1.611399863e-11 1.406729109e-12)
(0 -2.617158294e-11 -6.472928491e-11)
(0 7.023102064e-11 -4.327262003e-12)
(0 7.2077864e-11 -1.295372638e-11)
(0 7.526829044e-11 -2.148801055e-11)
(0 7.985473672e-11 -2.983161463e-11)
(0 8.591564787e-11 -3.783288406e-11)
(0 9.343595453e-11 -4.524707886e-11)
(0 1.021938853e-10 -5.17022374e-11)
(0 1.115758881e-10 -5.667122399e-11)
(0 1.202857072e-10 -5.947501698e-11)
(0 1.258986126e-10 -5.939307336e-11)
(0 1.242466288e-10 -5.60599537e-11)
(0 1.088843914e-10 -5.049844656e-11)
(0 7.185430313e-11 -4.711028747e-11)
(0 1.129362411e-11 -5.540764551e-11)
(1.908147276e-52 -5.196844893e-11 -6.969881137e-11)
(3.892490471e-52 -4.238546786e-12 2.483026409e-24)
(0 -2.311296268e-12 1.610456174e-11)
(0 3.886626612e-12 3.772665308e-12)
(0 2.158637986e-12 -6.022217041e-13)
(0 7.873327739e-13 2.545044437e-12)
(0 1.794499451e-12 3.307030397e-12)
(0 2.264233219e-12 2.247489515e-12)
(0 1.809134091e-12 2.117130365e-12)
(0 1.572453005e-12 3.098943378e-12)
(0 2.819789563e-12 5.067717427e-12)
(0 5.67266951e-12 5.258614047e-12)
(0 8.601276077e-12 2.593532125e-12)
(0 1.633734804e-11 3.591301715e-12)
(0 3.527405832e-11 -9.64099679e-12)
(0 -4.176210386e-12 -3.210488617e-11)
(0 6.093813378e-11 -5.088943175e-12)
(0 6.280981127e-11 -1.523805344e-11)
(0 6.605616699e-11 -2.535833391e-11)
(0 7.079070161e-11 -3.543275497e-11)
(0 7.716839858e-11 -4.537168522e-11)
(0 8.527713491e-11 -5.494560381e-11)
(0 9.502393545e-11 -6.371309769e-11)
(0 1.059418259e-10 -7.091745511e-11)
(0 1.168545488e-10 -7.53401346e-11)
(0 1.252603148e-10 -7.511516178e-11)
(0 1.261083795e-10 -6.754642163e-11)
(0 1.092565413e-10 -4.911629267e-11)
(0 5.386911093e-11 -1.630698941e-11)
(0 -7.315535919e-11 2.934684767e-11)
(0 -3.543812296e-10 8.795182778e-11)
(0 -8.770825274e-12 -1.055703028e-11)
(0 -9.94273217e-12 2.339498505e-12)
(0 -5.038159798e-13 1.899967531e-12)
(0 1.366631485e-12 1.127029218e-12)
(0 1.552901059e-12 2.000365422e-12)
(0 1.914546939e-12 2.483015842e-12)
(0 2.131807346e-12 2.384912681e-12)
(0 2.125745581e-12 2.44150458e-12)
(0 2.305419116e-12 2.83246282e-12)
(0 3.096330702e-12 3.296041112e-12)
(0 4.397862999e-12 2.874377026e-12)
(0 5.36398392e-12 1.081707664e-12)
(0 4.619489553e-12 -1.889478808e-12)
(0 -6.810187769e-12 -1.166935296e-11)
(0 -9.696210796e-12 1.225717554e-11)
(0 5.02486428e-11 -5.901373193e-12)
(0 5.206020533e-11 -1.760628374e-11)
(0 5.517613285e-11 -2.933231802e-11)
(0 5.979284147e-11 -4.122224881e-11)
(0 6.616559141e-11 -5.331707603e-11)
(0 7.452954587e-11 -6.547872805e-11)
(0 8.502444313e-11 -7.730681459e-11)
(0 9.758041463e-11 -8.799813677e-11)
(0 1.117634083e-10 -9.612884439e-11)
(0 1.266193043e-10 -9.935123739e-11)
(0 1.406363973e-10 -9.401379776e-11)
(0 1.521267961e-10 -7.486675099e-11)
(0 1.585583803e-10 -3.615681877e-11)
(0 1.717552825e-10 1.496787021e-11)
(0 1.431835699e-11 8.280876703e-25)
(0 1.822556311e-11 -1.070300907e-11)
(0 5.394925685e-12 -2.840322896e-12)
(0 2.674157352e-12 3.606625666e-13)
(0 2.259035885e-12 1.20998562e-12)
(0 2.143319399e-12 1.846252701e-12)
(0 2.179046711e-12 2.239532798e-12)
(0 2.222721958e-12 2.367317254e-12)
(0 2.256684231e-12 2.431064235e-12)
(0 2.426989536e-12 2.492941788e-12)
(0 2.861703767e-12 2.409822445e-12)
(0 3.45833606e-12 1.86162818e-12)
(0 3.837420245e-12 7.482259467e-13)
(0 3.586287441e-12 -5.614743884e-13)
(0 2.935713197e-12 -9.189666155e-13)
(0 5.119604562e-12 2.206805115e-12)
(0 3.832195401e-11 -6.818405716e-12)
(0 3.993939613e-11 -2.002122567e-11)
(0 4.26333446e-11 -3.322077239e-11)
(0 4.672114334e-11 -4.686477036e-11)
(0 5.254814991e-11 -6.120137608e-11)
(0 6.046669387e-11 -7.626096354e-11)
(0 7.080038239e-11 -9.180668345e-11)
(0 8.377027671e-11 -1.072038509e-10)
(0 9.938751222e-11 -1.21233671e-10)
(0 1.173833085e-10 -1.319474347e-10)
(0 1.37422201e-10 -1.367784911e-10)
(0 1.603207414e-10 -1.331832928e-10)
(0 1.888794944e-10 -1.194233936e-10)
(0 2.51830236e-10 -8.71660288e-11)
(0 9.421602367e-12 -2.812280673e-24)
(0 1.326423908e-11 5.286744355e-12)
(0 5.871715287e-12 1.392036463e-12)
(0 3.546492549e-12 1.17280569e-12)
(0 2.852221622e-12 1.505752918e-12)
(0 2.582448239e-12 1.93481477e-12)
(0 2.435611493e-12 2.261193761e-12)
(0 2.323338783e-12 2.413424485e-12)
(0 2.251370116e-12 2.42221371e-12)
(0 2.284177327e-12 2.2982929e-12)
(0 2.465017093e-12 1.988874892e-12)
(0 2.736266498e-12 1.41462907e-12)
(0 2.940881346e-12 6.11338967e-13)
(0 2.952296988e-12 -1.854217496e-13)
(0 2.902508638e-12 -5.958114825e-13)
(0 3.230742463e-12 -6.30069894e-13)
(0 2.567174486e-11 -8.098009933e-12)
(0 2.674934004e-11 -2.251634191e-11)
(0 2.856873384e-11 -3.677901181e-11)
(0 3.158289798e-11 -5.188114009e-11)
(0 3.615198766e-11 -6.830321198e-11)
(0 4.264999256e-11 -8.626475477e-11)
(0 5.145907082e-11 -1.057351148e-10)
(0 6.286812657e-11 -1.262740905e-10)
(0 7.680253468e-11 -1.467488986e-10)
(0 9.220024943e-11 -1.65008769e-10)
(0 1.05650149e-10 -1.77719859e-10)
(0 1.08592141e-10 -1.806520603e-10)
(0 8.342851075e-11 -1.690096572e-10)
(0 -6.506782096e-12 -1.274435048e-10)
(0 -5.270285989e-12 -1.323312791e-24)
(0 -5.257787752e-12 5.582271964e-12)
(0 1.280987029e-12 1.948573868e-12)
(0 2.787873807e-12 1.432406395e-12)
(0 3.021044963e-12 1.705036515e-12)
(0 2.898760241e-12 2.125660485e-12)
(0 2.657656424e-12 2.456603555e-12)
(0 2.383741906e-12 2.60269071e-12)
(0 2.141552646e-12 2.546012056e-12)
(0 1.993650719e-12 2.289300843e-12)
(0 1.978039939e-12 1.833179858e-12)
(0 2.080800138e-12 1.197291869e-12)
(0 2.237369429e-12 4.684058264e-13)
(0 2.379136994e-12 -1.952386277e-13)
(0 2.491065054e-12 -6.483984254e-13)
(0 2.517080207e-12 -9.327678922e-13)
(0 1.381560036e-11 -1.054051215e-11)
(0 1.289971897e-11 -2.517952785e-11)
(0 1.320318293e-11 -3.968746573e-11)
(0 1.456267152e-11 -5.568040235e-11)
(0 1.712187804e-11 -7.374191732e-11)
(0 2.114526518e-11 -9.423163613e-11)
(0 2.699753479e-11 -1.173321723e-10)
(0 3.506767299e-11 -1.428053082e-10)
(0 4.557178063e-11 -1.694832548e-10)
(0 5.804776413e-11 -1.944068277e-10)
(0 7.014375267e-11 -2.114858618e-10)
(0 7.493354874e-11 -2.097481536e-10)
(0 5.683614702e-11 -1.725205469e-10)
(0 -1.928460236e-11 -9.014013274e-11)
(0 -5.120737165e-12 1.840936514e-24)
(0 -4.911798543e-12 -5.031029937e-12)
(0 1.721849729e-12 -6.12636979e-13)
(0 3.302955199e-12 9.030243952e-13)
(0 3.545475713e-12 1.755993039e-12)
(0 3.33401528e-12 2.405787377e-12)
(0 2.912641718e-12 2.836547506e-12)
(0 2.412747284e-12 2.994614806e-12)
(0 1.937980248e-12 2.870045412e-12)
(0 1.571345129e-12 2.48011752e-12)
(0 1.373008119e-12 1.857717384e-12)
(0 1.371492466e-12 1.073318083e-12)
(0 1.54835085e-12 2.607085259e-13)
(0 1.835492736e-12 -4.150813575e-13)
(0 2.164979374e-12 -8.694455444e-13)
(0 2.4079638e-12 -9.811362813e-13)
(0 -6.609254834e-13 -1.934139422e-11)
(0 -2.485879346e-12 -2.846431678e-11)
(0 -3.484838683e-12 -4.158828124e-11)
(0 -4.010351833e-12 -5.763134402e-11)
(0 -4.06786186e-12 -7.659434471e-11)
(0 -3.534075134e-12 -9.883763349e-11)
(0 -2.139912735e-12 -1.247831749e-10)
(0 5.712278849e-13 -1.545711013e-10)
(0 5.358022361e-12 -1.874781515e-10)
(0 1.355926579e-11 -2.209115738e-10)
(0 2.776972766e-11 -2.487569858e-10)
(0 5.350725192e-11 -2.589679482e-10)
(0 9.999089298e-11 -2.3122665e-10)
(0 2.026693604e-10 -1.437252221e-10)
(0 9.823295558e-12 3.144458692e-24)
(0 1.425418675e-11 -4.96909303e-12)
(0 7.215041362e-12 -2.709754956e-13)
(0 5.156503826e-12 1.036179337e-12)
(0 4.523807947e-12 2.009948441e-12)
(0 3.979314709e-12 2.904715629e-12)
(0 3.246483853e-12 3.489004594e-12)
(0 2.417239812e-12 3.669279562e-12)
(0 1.627055359e-12 3.45977212e-12)
(0 9.8132269e-13 2.90378832e-12)
(0 5.712405008e-13 2.044469196e-12)
(0 4.837912784e-13 9.780060005e-13)
(0 7.489699872e-13 -8.36188805e-14)
(0 1.248982923e-12 -8.560058712e-13)
(0 1.925010129e-12 -1.432505279e-12)
(0 2.959090618e-12 -1.694814512e-12)
(0 -1.786464666e-11 -2.230530581e-11)
(0 -1.905064864e-11 -2.961766715e-11)
(0 -2.091114775e-11 -4.15769294e-11)
(0 -2.337336186e-11 -5.707380031e-11)
(0 -2.648207324e-11 -7.600154561e-11)
(0 -3.030383756e-11 -9.878441881e-11)
(0 -3.486364865e-11 -1.260967075e-10)
(0 -4.005316015e-11 -1.585593702e-10)
(0 -4.544287476e-11 -1.962775422e-10)
(0 -4.990013899e-11 -2.380946544e-10)
(0 -5.087442946e-11 -2.804554108e-10)
(0 -4.316931241e-11 -3.155979772e-10)
(0 -1.892153749e-11 -3.273760328e-10)
(0 4.537304047e-11 -2.716714089e-10)
(0 1.478555714e-11 -6.449220664e-25)
(0 1.96926133e-11 1.030131593e-11)
(0 7.727122096e-12 3.461923727e-12)
(0 5.583879134e-12 1.503116585e-12)
(0 5.414012004e-12 2.342478386e-12)
(0 4.813071433e-12 3.713715543e-12)
(0 3.677205651e-12 4.545378491e-12)
(0 2.38351481e-12 4.734018577e-12)
(0 1.172489006e-12 4.396433291e-12)
(0 1.560422048e-13 3.631047716e-12)
(0 -5.527741994e-13 2.438448341e-12)
(0 -7.565956109e-13 8.772821082e-13)
(0 -2.856610216e-13 -7.162952519e-13)
(0 4.866063389e-13 -1.491971665e-12)
(0 1.326170733e-12 -2.310841282e-12)
(0 4.893389575e-12 -5.417879205e-12)
(0 -3.33900613e-11 -2.249382877e-11)
(0 -3.484710425e-11 -2.870969639e-11)
(0 -3.778487273e-11 -3.938167891e-11)
(0 -4.23084435e-11 -5.363861401e-11)
(0 -4.868341361e-11 -7.139121993e-11)
(0 -5.730704196e-11 -9.309752627e-11)
(0 -6.870100549e-11 -1.195581977e-10)
(0 -8.348000382e-11 -1.516748274e-10)
(0 -1.022878301e-10 -1.900646222e-10)
(0 -1.257374769e-10 -2.344092219e-10)
(0 -1.54570118e-10 -2.823808906e-10)
(0 -1.90673202e-10 -3.278653701e-10)
(0 -2.40717691e-10 -3.578501958e-10)
(0 -3.165015887e-10 -3.455907445e-10)
(0 -4.60518712e-10 -2.60619178e-10)
(0 -7.159276845e-12 1.008983019e-11)
(0 -6.333933822e-12 -2.43589437e-12)
(0 4.037058483e-12 -8.293953616e-13)
(0 6.734406905e-12 2.141853757e-12)
(0 6.182214815e-12 5.061424296e-12)
(0 4.266786888e-12 6.244655519e-12)
(0 2.268294612e-12 6.325280993e-12)
(0 5.240844977e-13 5.761172233e-12)
(0 -9.766622599e-13 4.785255263e-12)
(0 -2.182525107e-12 3.199977266e-12)
(0 -2.670952316e-12 8.111611573e-13)
(0 -1.620283787e-12 -2.164550773e-12)
(0 -3.455631072e-13 -2.085399145e-12)
(0 -8.945314177e-12 6.044138005e-12)
(0 -9.357428305e-12 -1.692844308e-11)
(0 -4.709162651e-11 -2.071642945e-11)
(0 -4.900807542e-11 -2.593944586e-11)
(0 -5.304984369e-11 -3.503843684e-11)
(0 -5.952714243e-11 -4.731834812e-11)
(0 -6.897300307e-11 -6.269143149e-11)
(0 -8.215665326e-11 -8.154901149e-11)
(0 -1.001288869e-10 -1.046199528e-10)
(0 -1.242252442e-10 -1.327716702e-10)
(0 -1.559883981e-10 -1.666548519e-10)
(0 -1.969305551e-10 -2.060310329e-10)
(0 -2.47967111e-10 -2.485205402e-10)
(0 -3.080228874e-10 -2.873267463e-10)
(0 -3.702955743e-10 -3.073777073e-10)
(0 -4.100475464e-10 -2.802132733e-10)
(0 -3.665228682e-10 -1.743781867e-10)
(0 -2.867892531e-12 -2.474961743e-24)
(0 1.558672415e-12 -1.771611011e-11)
(0 1.016162726e-11 -4.52800661e-12)
(0 1.130483166e-11 1.99171635e-12)
(0 8.915873196e-12 8.144573743e-12)
(0 4.941062349e-12 9.0467829e-12)
(0 1.900031524e-12 8.561915836e-12)
(0 -3.675367248e-13 7.537962346e-12)
(0 -2.405152762e-12 6.548350575e-12)
(0 -4.526868306e-12 4.766764228e-12)
(0 -6.121123652e-12 1.335453671e-12)
(0 -3.182221325e-12 -6.665519282e-12)
(0 8.695295116e-12 -1.072875818e-11)
(0 3.296812602e-11 -9.835131549e-13)
(0 -2.000313388e-12 2.548212332e-11)
)
;

boundaryField
{
    lowerWall
    {
        type            slip;
    }
    atmosphere
    {
        type            pressureInletOutletVelocity;
        tangentialVelocity uniform (0 0 0);
        value           nonuniform List<vector> 
20
(
(0 1.042997746e-10 0)
(0 1.038270923e-10 0)
(0 1.030050444e-10 0)
(0 1.017502364e-10 0)
(0 9.995386223e-11 0)
(0 9.74889596e-11 0)
(0 9.421611464e-11 0)
(0 8.999026372e-11 0)
(0 8.46684253e-11 0)
(0 7.81184971e-11 0)
(0 7.023102064e-11 0)
(0 6.093813378e-11 0)
(0 5.02486428e-11 0)
(0 3.832195401e-11 0)
(0 2.567174486e-11 0)
(0 1.381560036e-11 0)
(0 -6.609254834e-13 -1.934139422e-11)
(0 -1.786464666e-11 -2.230530581e-11)
(0 -3.33900613e-11 -2.249382877e-11)
(0 -4.709162651e-11 -2.071642945e-11)
)
;
    }
    rightWall
    {
        type            empty;
    }
    leftWall
    {
        type            empty;
    }
    frontAndBack
    {
        type            slip;
    }
    procBoundary0to1
    {
        type            processor;
        value           nonuniform List<vector> 
20
(
(0 2.316669972e-12 4.228817567e-14)
(0 2.39376844e-12 1.343601009e-13)
(0 2.559790378e-12 2.520571442e-13)
(0 2.842183069e-12 4.254643662e-13)
(0 3.293692325e-12 7.159091683e-13)
(0 4.01251777e-12 1.268041069e-12)
(0 5.182309609e-12 2.467886653e-12)
(0 7.140876869e-12 5.474352936e-12)
(0 1.044035708e-11 1.417106982e-11)
(0 -6.769250141e-12 2.056890044e-11)
(0 -3.772056132e-11 2.083599904e-12)
(0 -4.364029174e-12 -1.406873158e-11)
(0 3.883410776e-12 -8.116625194e-12)
(0 2.383357679e-12 -3.198335852e-12)
(0 1.938082231e-12 -1.471177091e-12)
(0 1.990021341e-12 -4.274351308e-13)
(0 2.609210985e-12 1.052920504e-12)
(0 4.521233892e-12 5.4972516e-12)
(0 -2.823596344e-12 1.084562865e-11)
(0 -3.439050801e-11 -5.706955759e-12)
)
;
    }
    procBoundary0to2
    {
        type            processor;
        value           nonuniform List<vector> 
30
(
(0 -5.857196981e-11 -1.759492016e-11)
(0 -6.089072384e-11 -2.17213906e-11)
(0 -6.582843319e-11 -2.889806838e-11)
(0 -7.38483755e-11 -3.852287642e-11)
(0 -8.571010323e-11 -5.043788681e-11)
(0 -1.024995455e-10 -6.485002843e-11)
(0 -1.257051848e-10 -8.22372607e-11)
(0 -1.572270572e-10 -1.032036328e-10)
(0 -1.992367701e-10 -1.282224335e-10)
(0 -2.537086057e-10 -1.571666139e-10)
(0 -3.212540973e-10 -1.885326963e-10)
(0 -3.984868375e-10 -2.183520577e-10)
(0 -4.724342618e-10 -2.392296645e-10)
(0 -5.095958997e-10 -2.410146467e-10)
(0 -4.449555423e-10 -2.172381622e-10)
(0 -1.598532116e-10 -1.568386815e-10)
(0 1.401344648e-11 -1.25059427e-11)
(0 2.374488489e-11 -1.558672384e-12)
(0 1.940698725e-11 2.207816995e-12)
(0 1.323728136e-11 1.647851632e-11)
(0 4.684128981e-12 1.323690253e-11)
(0 7.594740574e-13 1.133884152e-11)
(0 -1.489480763e-12 9.281034122e-12)
(0 -3.747860377e-12 9.103408614e-12)
(0 -7.39542201e-12 7.984685201e-12)
(0 -1.410323583e-11 6.431316445e-12)
(0 -1.368449564e-11 -1.510404687e-11)
(0 -3.092975449e-12 -2.47501756e-11)
(0 -1.773443139e-11 -8.425506206e-12)
(0 -1.883164618e-11 5.715708208e-11)
)
;
    }
}


// ************************************************************************* //
