/*--------------------------------*- C++ -*----------------------------------*\
  =========                 |
  \\      /  F ield         | OpenFOAM: The Open Source CFD Toolbox
   \\    /   O peration     | Website:  https://openfoam.org
    \\  /    A nd           | Version:  6
     \\/     M anipulation  |
\*---------------------------------------------------------------------------*/
FoamFile
{
    version     2.0;
    format      ascii;
    class       volScalarField;
    location    "0.0047";
    object      Num_divU;
}
// * * * * * * * * * * * * * * * * * * * * * * * * * * * * * * * * * * * * * //

dimensions      [0 0 -1 0 0 0 0];

internalField   nonuniform List<scalar> 
600
(
9.73145901e-08
4.530998532e-08
1.144145182e-08
-1.153104016e-08
-2.619297082e-08
-3.292374694e-08
-2.938234906e-08
-1.045518326e-08
3.27871042e-08
1.150924801e-07
2.619079816e-07
5.180983839e-07
9.590907362e-07
1.647499925e-06
2.204530428e-06
2.314486501e-06
-1.275891229e-06
-7.674564424e-11
-8.107608531e-11
-4.466798751e-11
3.604978552e-12
3.601422359e-11
3.200379521e-11
6.925535963e-12
2.853248469e-11
1.498170835e-10
8.992091796e-11
2.491469952e-11
1.545730212e-06
-4.155813154e-11
1.256288989e-07
6.749954495e-08
2.815250554e-08
9.825828655e-10
-1.611272822e-08
-2.325798251e-08
-1.778319637e-08
5.951438861e-09
5.734301587e-08
1.501164822e-07
3.029204534e-07
5.372876061e-07
8.706865942e-07
1.294798574e-06
1.869401675e-06
2.811537427e-06
5.793451867e-06
5.916127485e-06
-7.054428367e-07
1.23975985e-11
-6.636864563e-13
2.665350795e-11
4.509852857e-12
-2.461745682e-11
4.68335116e-11
7.789941258e-18
-1.31819392e-06
-1.21803302e-06
-1.471603402e-07
9.347897867e-07
1.359773198e-07
7.660180398e-08
3.542958126e-08
6.302534077e-09
-1.253855214e-08
-2.1004875e-08
-1.639594629e-08
6.963427503e-09
5.804998776e-08
1.490309182e-07
2.932060588e-07
4.987278575e-07
7.550737998e-07
1.017398611e-06
1.278852654e-06
1.637004853e-06
2.098964586e-06
2.60499862e-06
7.14106509e-06
1.641914842e-05
-2.49546079e-11
2.050390245e-11
-5.687254614e-12
8.02517475e-11
6.645840632e-12
1.00073687e-05
-1.809539257e-06
-2.060300978e-06
-3.106476722e-06
-1.767238467e-06
1.303968869e-07
7.416230999e-08
3.421567782e-08
4.881937511e-09
-1.524586695e-08
-2.60424704e-08
-2.491937949e-08
-6.430393787e-09
3.848583395e-08
1.232378885e-07
2.660837461e-07
4.885614154e-07
8.081073107e-07
1.217639701e-06
1.774321933e-06
2.676815162e-06
5.613550943e-06
5.757877747e-06
-8.691230624e-07
-7.170829391e-11
-9.34087164e-12
1.871562702e-11
5.060125751e-11
2.005398422e-11
1.11897531e-10
3.393656814e-11
-1.783012345e-06
-1.401248515e-06
-2.412891142e-07
8.558102319e-07
1.117499246e-07
6.235368122e-08
2.604068695e-08
-2.1358514e-09
-2.328365768e-08
-3.73548805e-08
-4.225188533e-08
-3.334500949e-08
-2.42595163e-09
6.449202569e-08
1.921106472e-07
4.247525442e-07
8.374748668e-07
1.49441192e-06
2.016132694e-06
2.102916574e-06
-1.479033233e-06
-4.887426984e-11
-5.658235024e-11
-4.825666199e-11
-8.095329875e-12
1.531476803e-11
2.750577867e-11
7.9747352e-11
6.447009831e-11
4.563734298e-11
6.079186128e-11
3.217049193e-11
1.516687208e-06
2.555059803e-11
8.391310328e-08
4.394373347e-08
1.294012424e-08
-1.313891742e-08
-3.508767438e-08
-5.30773827e-08
-6.588364459e-08
-7.073939971e-08
-6.295765455e-08
-3.471308997e-08
2.951154751e-08
1.665224541e-07
4.749520788e-07
1.083368439e-06
2.794498749e-06
1.972211325e-06
-2.94475371e-11
-3.449701982e-11
-5.523276986e-11
-3.590963597e-11
-2.480405583e-12
1.9841256e-11
3.142249635e-11
4.719547173e-11
6.438205917e-11
6.713303308e-11
6.149369158e-11
9.883418812e-11
7.725150195e-11
4.641459285e-11
5.148041695e-08
2.213175708e-08
-2.762307997e-09
-2.62278583e-08
-4.872550538e-08
-7.062382427e-08
-9.155631693e-08
-1.107133903e-07
-1.276962476e-07
-1.449025828e-07
-1.722898926e-07
-2.332911933e-07
-2.995141302e-07
3.070894972e-07
1.164345562e-06
3.592498086e-06
-4.067278867e-11
-4.193038191e-11
-3.925885959e-11
-2.589405464e-11
-2.670538863e-12
1.648678614e-11
2.838633503e-11
4.532901472e-11
5.007563568e-11
5.53878019e-11
7.794926754e-11
8.55869556e-11
7.266047106e-11
4.866457082e-11
1.928961632e-08
2.123321691e-10
-1.870887426e-08
-3.952652523e-08
-6.237029197e-08
-8.76747082e-08
-1.154858629e-07
-1.454892774e-07
-1.771496089e-07
-2.103727639e-07
-2.471381998e-07
-3.00160844e-07
-6.435762544e-07
-1.028981431e-06
-2.291565804e-06
-3.972197309e-11
-3.679444657e-11
-3.598882827e-11
-3.617672892e-11
-2.541252686e-11
-6.260569691e-12
1.154837876e-11
2.351830776e-11
3.525660209e-11
4.736421395e-11
5.743202101e-11
7.150694724e-11
8.333184973e-11
7.156637739e-11
4.938104886e-11
-8.233635382e-09
-1.882556795e-08
-3.278357366e-08
-5.140297354e-08
-7.459585765e-08
-1.029729609e-07
-1.37169569e-07
-1.779017579e-07
-2.258153393e-07
-2.810260508e-07
-3.41907381e-07
-4.246412271e-07
-1.133354288e-06
-2.017387255e-06
-1.589980282e-06
-2.770784082e-11
-3.266228792e-11
-3.604166618e-11
-3.569296335e-11
-2.660735248e-11
-1.179528376e-11
3.531467075e-12
1.839629876e-11
3.479932678e-11
5.124097831e-11
6.555614728e-11
7.71177596e-11
8.22002999e-11
7.024058238e-11
4.932388359e-11
-2.765238841e-08
-3.264888777e-08
-4.330513153e-08
-6.047436802e-08
-8.400527631e-08
-1.147728794e-07
-1.543065937e-07
-2.054917052e-07
-2.740888052e-07
-3.713497985e-07
-5.164964569e-07
-7.227521708e-07
-7.071928465e-07
-8.411486704e-07
1.276630309e-08
-3.011229691e-11
-3.332499072e-11
-3.582827143e-11
-3.615629278e-11
-3.175963154e-11
-1.904793092e-11
-3.521386079e-12
1.626865174e-11
3.984379154e-11
6.059928292e-11
7.714296666e-11
8.497174514e-11
7.793863693e-11
7.132467603e-11
5.074117154e-11
-3.701362011e-08
-3.989954632e-08
-4.924089095e-08
-6.578634886e-08
-8.933717815e-08
-1.207467662e-07
-1.615464381e-07
-2.147049481e-07
-2.86141203e-07
-3.874699417e-07
-5.382650311e-07
-7.526922586e-07
-7.474292515e-07
-8.990102707e-07
-2.431659402e-08
-3.01775297e-11
-3.8290623e-11
-4.017164546e-11
-4.197128815e-11
-3.171281498e-11
-2.145568558e-11
-2.978427418e-12
2.219883837e-11
4.853964466e-11
7.639945751e-11
8.50754124e-11
7.330162373e-11
7.868294952e-11
4.853485538e-11
4.104858569e-11
-3.606177246e-08
-4.03567405e-08
-5.040011173e-08
-6.716270168e-08
-9.042380629e-08
-1.207036972e-07
-1.586676416e-07
-2.052179701e-07
-2.614923382e-07
-3.284536211e-07
-4.05951918e-07
-5.118930191e-07
-1.25220088e-06
-2.192580729e-06
-1.710795523e-06
-3.441991659e-11
-5.244476087e-11
-4.436485777e-11
-3.286222257e-11
-3.630203892e-11
-2.007173433e-11
5.304283971e-12
3.339460289e-11
6.361532698e-11
7.360583567e-11
7.473140417e-11
6.515577804e-11
1.700160404e-11
5.025187519e-11
2.717547683e-11
-2.623689042e-08
-3.492974165e-08
-4.742034875e-08
-6.52150248e-08
-8.819827714e-08
-1.166501596e-07
-1.506349122e-07
-1.901138426e-07
-2.351944462e-07
-2.869656557e-07
-3.490891097e-07
-4.373158761e-07
-8.353741116e-07
-1.327307739e-06
-2.389672521e-06
-3.151605363e-11
-4.134318131e-11
-4.468268639e-11
-5.501408624e-11
-2.431896866e-11
-6.730454568e-12
1.841516091e-11
4.695624339e-11
5.753954081e-11
8.076497298e-11
4.670376714e-11
-5.695112866e-12
8.158100185e-11
4.778142725e-11
3.761302395e-11
-1.03390686e-08
-2.54174793e-08
-4.153886836e-08
-6.095196291e-08
-8.374764873e-08
-1.100591283e-07
-1.395214325e-07
-1.716296198e-07
-2.066793227e-07
-2.481679052e-07
-3.074389867e-07
-4.093360961e-07
-5.248967076e-07
3.402041787e-08
9.26719006e-07
3.367220363e-06
-4.72350774e-11
-4.858299264e-11
6.784155513e-12
-6.03090058e-11
-2.265100015e-12
4.058222644e-11
5.05202411e-11
6.637704576e-11
1.169178242e-11
5.25257971e-11
7.787438795e-11
6.67061458e-11
7.903303498e-11
3.081278579e-11
7.969418255e-09
-1.416918887e-08
-3.434774343e-08
-5.559377813e-08
-7.818581858e-08
-1.019730083e-07
-1.25709656e-07
-1.469411579e-07
-1.616754965e-07
-1.630913699e-07
-1.369860954e-07
-4.805911145e-08
1.988565519e-07
7.167773408e-07
2.256352489e-06
1.667730317e-06
-1.64446005e-11
3.322335266e-11
-1.007688285e-10
-2.091933684e-11
-2.440743004e-11
2.446873684e-11
3.808066616e-11
-1.625162551e-11
1.609996879e-10
6.066438194e-11
4.261247569e-11
5.52797241e-11
3.375649101e-11
1.593432563e-11
2.486452243e-08
-3.661966377e-09
-2.755883864e-08
-5.053138854e-08
-7.298288661e-08
-9.447766966e-08
-1.128461107e-07
-1.237981739e-07
-1.197102714e-07
-8.738976856e-08
-2.686509608e-09
1.783948177e-07
5.31899722e-07
1.11929059e-06
1.535411889e-06
1.60799012e-06
-1.808339298e-06
-4.630433192e-11
-1.325611936e-11
-1.01295109e-10
-3.620692682e-11
1.400110665e-11
9.217281067e-14
1.586521121e-10
7.527276079e-11
3.026211578e-11
1.065315423e-11
5.450391367e-17
1.554150167e-06
1.898767547e-12
3.701912215e-08
3.950893021e-09
-2.270446907e-08
-4.70542116e-08
-6.964456095e-08
-8.981979287e-08
-1.049748483e-07
-1.099544271e-07
-9.634827699e-08
-5.131529578e-08
4.30525454e-08
2.086699284e-07
4.644511959e-07
8.071869835e-07
1.302159873e-06
2.146467119e-06
5.045118145e-06
5.42088699e-06
-8.142163471e-07
-3.540532452e-11
7.992372063e-12
3.108818106e-11
6.859786083e-11
5.833200112e-11
1.33545476e-11
9.015410482e-18
-1.43383143e-06
-1.307261712e-06
-2.420890717e-07
1.041555626e-06
4.225706037e-08
7.213907376e-09
-2.081013472e-08
-4.60788414e-08
-6.91739254e-08
-8.943285541e-08
-1.041358586e-07
-1.08042073e-07
-9.286507975e-08
-4.710867004e-08
4.226884698e-08
1.840906656e-07
3.700797179e-07
5.611293567e-07
7.613623677e-07
1.063655382e-06
1.522615809e-06
2.305210637e-06
6.773744624e-06
1.613966235e-05
2.651704546e-11
3.299335964e-11
2.72696228e-11
-1.381727089e-11
-2.317571117e-12
9.912349486e-06
-1.939619622e-06
-2.084224133e-06
-3.266854266e-06
-1.609134166e-06
3.988916555e-08
5.663488752e-09
-2.221907514e-08
-4.7913422e-08
-7.190842103e-08
-9.373020122e-08
-1.107668566e-07
-1.180764704e-07
-1.071560588e-07
-6.530908452e-08
2.551393594e-08
1.868688331e-07
4.376954868e-07
7.75636076e-07
1.265887067e-06
2.083447908e-06
4.99821633e-06
5.400863198e-06
-8.402771884e-07
-2.710452632e-11
1.265003745e-11
2.29191474e-11
6.640631767e-12
-2.074407469e-12
4.402949187e-11
2.918652868e-11
-1.645951785e-06
-1.495407405e-06
8.255721184e-08
9.640073224e-07
3.085589738e-08
-5.736205074e-11
-2.657074987e-08
-5.219930851e-08
-7.754531475e-08
-1.022214336e-07
-1.243930274e-07
-1.398392192e-07
-1.411981614e-07
-1.150870455e-07
-3.761591079e-08
1.353763064e-07
4.797666907e-07
1.055535435e-06
1.437876346e-06
1.489285709e-06
-1.895276568e-06
-9.069950639e-11
-6.832242736e-11
-3.549201993e-11
-3.471857438e-12
1.790893064e-11
1.213303274e-11
2.748152061e-11
2.129314493e-11
1.353250277e-10
6.68511154e-11
1.335017352e-11
1.472862469e-06
-6.599761767e-11
)
;

boundaryField
{
    lowerWall
    {
        type            calculated;
        value           nonuniform 0();
    }
    atmosphere
    {
        type            calculated;
        value           nonuniform List<scalar> 
20
(
9.73145901e-08
1.256288989e-07
1.359773198e-07
1.303968869e-07
1.117499246e-07
8.391310328e-08
5.148041695e-08
1.928961632e-08
-8.233635382e-09
-2.765238841e-08
-3.701362011e-08
-3.606177246e-08
-2.623689042e-08
-1.03390686e-08
7.969418255e-09
2.486452243e-08
3.701912215e-08
4.225706037e-08
3.988916555e-08
3.085589738e-08
)
;
    }
    rightWall
    {
        type            empty;
    }
    leftWall
    {
        type            empty;
    }
    frontAndBack
    {
        type            calculated;
        value           nonuniform 0();
    }
    procBoundary2to0
    {
        type            processor;
        value           nonuniform List<scalar> 
30
(
4.904786971e-08
8.773212323e-09
-1.501765208e-08
-3.091690593e-08
-4.214283319e-08
-4.90921554e-08
-5.002787974e-08
-4.115986394e-08
-1.670752835e-08
3.244048987e-08
1.229645987e-07
2.930640238e-07
6.423410206e-07
1.293387496e-06
3.065865868e-06
2.19057943e-06
-3.953467009e-11
-4.854855367e-11
-7.138070021e-11
-6.150942311e-11
-1.445840227e-11
1.562639855e-11
2.058736656e-11
4.508269189e-12
7.108886814e-11
1.019989643e-10
1.075936983e-10
5.031876649e-11
-2.428171201e-11
9.72044786e-11
)
;
    }
    procBoundary2to3
    {
        type            processor;
        value           nonuniform List<scalar> 
20
(
5.707936867e-11
-4.721979718e-11
-4.098817237e-11
-2.631415274e-11
1.715055749e-11
4.672616861e-11
5.180571924e-11
5.813739001e-11
6.313183243e-11
6.577643268e-11
5.759418548e-11
3.306180553e-11
1.080599958e-11
4.816514462e-11
3.208285527e-11
-2.53416226e-11
-3.439822361e-11
-2.554206781e-12
-3.668161038e-11
9.0043293e-11
)
;
    }
    procBoundary2to4
    {
        type            processor;
        value           nonuniform List<scalar> 
30
(
1.760758716e-08
-8.497366026e-09
-3.276508205e-08
-5.815863692e-08
-8.504736184e-08
-1.135923766e-07
-1.428275363e-07
-1.707313301e-07
-1.934239735e-07
-2.042412823e-07
-1.889397719e-07
-1.127901788e-07
1.188887518e-07
6.198081582e-07
2.127825087e-06
1.56233265e-06
-4.11558829e-11
-5.502617556e-11
-9.737386659e-11
-6.715522141e-11
-1.536198587e-11
2.300217997e-11
3.407642074e-11
4.155113905e-12
7.903356925e-11
8.891926585e-11
1.175502103e-10
5.739457561e-11
-2.646991937e-11
1.151070177e-10
)
;
    }
}


// ************************************************************************* //
