/*--------------------------------*- C++ -*----------------------------------*\
  =========                 |
  \\      /  F ield         | OpenFOAM: The Open Source CFD Toolbox
   \\    /   O peration     | Website:  https://openfoam.org
    \\  /    A nd           | Version:  6
     \\/     M anipulation  |
\*---------------------------------------------------------------------------*/
FoamFile
{
    version     2.0;
    format      ascii;
    class       volScalarField;
    location    "0.0047";
    object      TRHS;
}
// * * * * * * * * * * * * * * * * * * * * * * * * * * * * * * * * * * * * * //

dimensions      [1 -1 -3 0 0 0 0];

internalField   nonuniform List<scalar> 
600
(
9.697844936e-09
4.512349201e-09
1.134111127e-09
-1.160736965e-09
-2.63091465e-09
-3.314846767e-09
-2.978919459e-09
-1.111933583e-09
3.179579278e-09
1.137192237e-08
2.60124496e-08
5.15914467e-08
9.565639522e-08
1.644743891e-07
2.201716318e-07
2.312008524e-07
-1.674887642e-07
21.92721345
18.22874913
0
0
0
0
0
0
0
-0.005972238653
20.34657071
-5.117036637e-05
-2.519401748e-10
1.251397909e-08
6.717525848e-09
2.793291351e-09
8.023468675e-11
-1.632422525e-09
-2.35773998e-09
-1.829192741e-09
5.171580728e-10
5.621746183e-09
1.485886388e-08
3.009644348e-08
5.349214561e-08
8.679843524e-08
1.291900477e-07
1.866519715e-07
2.808997893e-07
5.791469949e-07
-5.470419495e-05
-4.604630169e-05
441.0458492
132.9583696
126.7899674
66.44120738
117.6990121
105.8928943
360.0707085
-1.786603647e-07
-1.451507105e-07
-1.530202927e-08
7.157095556e-08
1.354105736e-08
7.620409912e-09
3.514471121e-09
6.065451765e-10
-1.280097602e-09
-2.137330993e-09
-1.695649073e-09
6.124281078e-10
5.685357183e-09
1.474176911e-08
2.911490171e-08
4.962465743e-08
7.522473296e-08
1.014375901e-07
1.275857996e-07
1.634344218e-07
2.096940249e-07
2.603897431e-07
7.140682618e-07
-0.002211536377
-0.0006554113317
-0.0006224748264
-0.0003180323844
-0.0005775872143
-0.0005205318966
-0.001805470818
-1.80240082e-07
-2.044598632e-07
-3.130039625e-07
-1.941657175e-07
1.298193576e-08
7.37494439e-09
3.391630616e-09
4.633789614e-10
-1.551514876e-09
-2.6414507e-09
-2.548236649e-09
-7.273849717e-10
3.727944349e-09
1.216046299e-08
2.639915816e-08
4.860241142e-08
8.051971189e-08
1.214497854e-07
1.771164384e-07
2.673974452e-07
5.61127704e-07
-4.390274292e-05
-2.758752686e-05
436.8921333
127.0402084
120.1428564
59.72073683
111.4271103
100.5996502
356.5225472
-2.263609864e-07
-1.635671643e-07
-2.331115056e-08
6.331008354e-08
1.112170547e-08
6.197438083e-09
2.57700923e-09
-2.355182092e-10
-2.352097322e-09
-3.769026244e-09
-4.277359836e-09
-3.414421793e-09
-3.588471148e-10
6.289669701e-09
1.900422173e-08
4.22212752e-08
8.345183856e-08
1.491154779e-07
2.012752113e-07
2.099750813e-07
-1.886624745e-07
17.63588928
10.89959331
0
0
0
0
0
0
0
-0.006186229415
17.08496159
-4.29525931e-05
-2.154444654e-10
8.346558358e-09
4.363417674e-09
1.273092523e-09
-1.329901419e-09
-3.526314702e-09
-5.334503075e-09
-6.633015129e-09
-7.145628654e-09
-6.403351489e-09
-3.622312639e-09
2.75173131e-09
1.640304039e-08
4.719911697e-08
1.080010214e-07
2.790626348e-07
-0.0001045705285
41.55317049
0
0
0
0
0
0
0
0
0
0
0
391.8050893
-0.002065114083
5.11419691e-09
2.191353429e-09
-2.890271144e-10
-2.631004794e-09
-4.882067253e-09
-7.080442616e-09
-9.190629607e-09
-1.113235462e-08
-1.286568365e-08
-1.462935463e-08
-1.741694205e-08
-2.356834106e-08
-3.023893746e-08
3.038434838e-08
1.161285601e-07
-0.0006627520428
106.5547472
0
0
0
0
0
0
0
0
0
0
0
-0.005417580673
-2.511078054e-05
1.906649927e-09
9.204077723e-12
-1.874912857e-09
-3.952451277e-09
-6.237897596e-09
-8.776183289e-09
-1.157319967e-08
-1.459835462e-08
-1.779828802e-08
-2.116287243e-08
-2.488844465e-08
-3.024461815e-08
-6.46430239e-08
-1.03271237e-07
-2.521320292e-07
156.4892919
0
0
0
0
0
0
0
0
0
0
0
0
0
-0.002528705261
-8.351209217e-10
-1.885514178e-09
-3.274189456e-09
-5.13220739e-09
-7.452349653e-09
-1.029724204e-08
-1.37317965e-08
-1.78285887e-08
-2.265248542e-08
-2.821441591e-08
-3.434999603e-08
-4.267468343e-08
-1.135962654e-07
-2.020572014e-07
-1.748371804e-07
-0.006212997051
0
0
0
0
0
0
0
0
0
0
0
0
0
0
-2.768681621e-09
-3.260584751e-09
-4.319710978e-09
-6.032913826e-09
-8.386665119e-09
-1.147006057e-08
-1.543747644e-08
-2.057848177e-08
-2.746947836e-08
-3.72350222e-08
-5.179542721e-08
-7.2469821e-08
-7.095992068e-08
-8.440371458e-08
-0.000175367968
69.5680886
0
0
0
0
0
0
0
0
0
0
0
0
0
0
-3.699510029e-09
-3.98088295e-09
-4.90882686e-09
-6.559724897e-09
-8.915304168e-09
-1.206250619e-08
-1.61559286e-08
-2.149351212e-08
-2.866753533e-08
-3.883887942e-08
-5.396310742e-08
-7.545362782e-08
-7.497244237e-08
-9.017770152e-08
-0.0001753001926
69.53973364
0
0
0
0
0
0
0
0
0
0
0
0
0
0
-3.602277557e-09
-4.02453856e-09
-5.022660728e-09
-6.695206132e-09
-9.021673974e-09
-1.205568585e-08
-1.586522198e-08
-2.054158691e-08
-2.619895715e-08
-3.293309927e-08
-4.07274054e-08
-5.136979032e-08
-1.254479769e-07
-2.195397907e-07
-1.869078189e-07
-0.006215769986
0
0
0
0
0
0
0
0
0
0
0
0
0
0
-2.620676362e-09
-3.482232099e-09
-4.724756278e-09
-6.500306659e-09
-8.798866632e-09
-1.164999368e-08
-1.506152516e-08
-1.903063317e-08
-2.356844999e-08
-2.878337272e-08
-3.504012476e-08
-4.391192216e-08
-8.376941539e-08
-1.330395857e-07
-2.619122093e-07
156.406716
0
0
0
0
0
0
0
0
0
0
0
0
0
-0.00247837817
-1.033952236e-09
-2.533233309e-09
-4.138288276e-09
-6.075372125e-09
-8.355041846e-09
-1.0992119e-08
-1.395145775e-08
-1.718352174e-08
-2.071814504e-08
-2.49043781e-08
-3.08747472e-08
-4.111050978e-08
-5.271043101e-08
3.147113806e-09
9.243131006e-08
-0.0006618993821
106.2901468
0
0
0
0
0
0
0
0
0
0
0
-0.005430656131
-2.640565848e-05
7.927004899e-10
-1.41159876e-09
-3.421701803e-09
-5.541690809e-09
-7.800835864e-09
-1.018548802e-08
-1.257235359e-08
-1.471683604e-08
-1.621986601e-08
-1.639844489e-08
-1.383023633e-08
-4.981938676e-09
1.966719687e-08
7.142309237e-08
2.253369179e-07
-0.0001040868253
41.34922237
0
0
0
0
0
0
0
0
0
0
0
391.1475364
-0.002065608438
2.477995108e-09
-3.641069226e-10
-2.745358245e-09
-5.037574615e-09
-7.282457073e-09
-9.437821663e-09
-1.128791959e-08
-1.24045077e-08
-1.202523449e-08
-8.829766933e-09
-4.007422906e-10
1.766506206e-08
5.297707417e-08
1.116873766e-07
1.532864728e-07
1.605623416e-07
-2.216093125e-07
17.2768163
10.02012392
0
0
0
0
0
0
0
-0.006133422172
18.12055558
-4.555940967e-05
-8.500694533e-11
3.690203154e-09
3.947394261e-10
-2.261754628e-09
-4.691267518e-09
-6.949769031e-09
-8.973042295e-09
-1.050174131e-08
-1.102104505e-08
-9.689830611e-09
-5.222781393e-09
4.173470099e-09
2.069438863e-08
4.623674273e-08
8.048601865e-08
1.299774353e-07
2.144308086e-07
5.043400866e-07
-4.303129261e-05
-2.536520027e-05
435.2302211
128.5608766
122.6369614
62.44464494
113.9959277
102.5664572
357.0164545
-1.908912277e-07
-1.537224693e-07
-2.333500433e-08
8.188329537e-08
4.212384856e-09
7.199643252e-10
-2.072931144e-09
-4.593941806e-09
-6.902592532e-09
-8.933976897e-09
-1.041727923e-08
-1.082909478e-08
-9.340659394e-09
-4.801090091e-09
4.09642307e-09
1.823832074e-08
3.680239288e-08
5.588455657e-08
7.590416911e-08
1.061562133e-07
1.521014821e-07
2.304338495e-07
6.773442743e-07
-0.002192591799
-0.0006481286377
-0.0006184153561
-0.0003150798948
-0.000575085263
-0.0005175344094
-0.001799388133
-1.93754569e-07
-2.086847567e-07
-3.26558243e-07
-1.792593244e-07
3.975884418e-09
5.654344378e-10
-2.213003244e-09
-4.776213691e-09
-7.174471801e-09
-9.361767037e-09
-1.107809765e-08
-1.182999693e-08
-1.076708062e-08
-6.61848942e-09
2.42330119e-09
1.851790672e-08
4.356470587e-08
7.733442072e-08
1.263537551e-07
2.081328367e-07
4.996539435e-07
-4.247849652e-05
-2.471099654e-05
435.1811727
128.5486931
122.6854901
62.54606192
114.1376788
102.736998
357.160159
-2.120863455e-07
-1.722876322e-07
8.430605622e-09
7.422361044e-08
3.074548914e-09
-4.690200611e-12
-2.646022119e-09
-5.202321762e-09
-7.735244559e-09
-1.020749995e-08
-1.243688079e-08
-1.400209955e-08
-1.416699645e-08
-1.159222672e-08
-3.886418742e-09
1.337028137e-08
4.777057001e-08
1.05318485e-07
1.435397232e-07
1.487004531e-07
-2.303529749e-07
17.05672269
9.759568854
0
0
0
0
0
0
0
-0.006121988256
18.3328613
-4.61025333e-05
-8.18533442e-11
)
;

boundaryField
{
    lowerWall
    {
        type            calculated;
        value           nonuniform 0();
    }
    atmosphere
    {
        type            calculated;
        value           nonuniform List<scalar> 
20
(
9.697844936e-09
1.251397909e-08
1.354105736e-08
1.298193576e-08
1.112170547e-08
8.346558358e-09
5.11419691e-09
1.906649927e-09
-8.351209217e-10
-2.768681621e-09
-3.699510029e-09
-3.602277557e-09
-2.620676362e-09
-1.033952236e-09
7.927004899e-10
2.477995108e-09
3.690203154e-09
4.212384856e-09
3.975884418e-09
3.074548914e-09
)
;
    }
    rightWall
    {
        type            empty;
    }
    leftWall
    {
        type            empty;
    }
    frontAndBack
    {
        type            calculated;
        value           nonuniform 0();
    }
    procBoundary2to0
    {
        type            processor;
        value           nonuniform List<scalar> 
30
(
4.894793724e-09
8.79195389e-10
-1.494668574e-09
-3.084690282e-09
-4.212479138e-09
-4.918184087e-09
-5.028757131e-09
-4.165581895e-09
-1.750386436e-09
3.129042463e-09
1.214282108e-08
2.911384457e-08
6.400566532e-08
1.290802135e-07
3.062830773e-07
-0.0001163523338
46.23581439
0
0
0
0
0
0
0
0
0
0
0
393.7128196
-0.002066295491
)
;
    }
    procBoundary2to3
    {
        type            processor;
        value           nonuniform List<scalar> 
20
(
-9.828763159e-05
-0.008773702983
-0.007212221876
-0.008774500233
-8.647299967e-05
427.410757
9.95338304
0
0
0
0
0
0
10.46709155
428.2645126
-3.379468263e-05
-0.008695011692
-0.007138562331
-0.008690896168
-2.985053753e-05
)
;
    }
    procBoundary2to4
    {
        type            processor;
        value           nonuniform List<scalar> 
30
(
1.752847404e-09
-8.457240512e-10
-3.262370657e-09
-5.794834746e-09
-8.481562516e-09
-1.134018182e-08
-1.427541694e-08
-1.708602803e-08
-1.938420123e-08
-2.050265261e-08
-1.901493975e-08
-1.144481809e-08
1.168001179e-08
6.173509765e-08
2.12492617e-07
-0.0001032114471
40.9977723
0
0
0
0
0
0
0
0
0
0
0
391.0692514
-0.002065449672
)
;
    }
}


// ************************************************************************* //
