/*--------------------------------*- C++ -*----------------------------------*\
  =========                 |
  \\      /  F ield         | OpenFOAM: The Open Source CFD Toolbox
   \\    /   O peration     | Website:  https://openfoam.org
    \\  /    A nd           | Version:  6
     \\/     M anipulation  |
\*---------------------------------------------------------------------------*/
FoamFile
{
    version     2.0;
    format      ascii;
    class       volVectorField;
    location    "0.0047";
    object      U;
}
// * * * * * * * * * * * * * * * * * * * * * * * * * * * * * * * * * * * * * //

dimensions      [0 1 -1 0 0 0 0];

internalField   nonuniform List<vector> 
600
(
(0 -1.47389279e-10 -5.697102605e-11)
(0 -1.527585438e-10 -6.412433146e-11)
(0 -1.640214626e-10 -7.692235038e-11)
(0 -1.817459263e-10 -9.413326155e-11)
(0 -2.066605214e-10 -1.148655127e-10)
(0 -2.395861765e-10 -1.384918173e-10)
(0 -2.813561841e-10 -1.64522935e-10)
(0 -3.326365065e-10 -1.92444901e-10)
(0 -3.936149527e-10 -2.215016426e-10)
(0 -4.634574499e-10 -2.503580361e-10)
(0 -5.392641784e-10 -2.765670874e-10)
(0 -6.138474848e-10 -2.958125161e-10)
(0 -6.708878616e-10 -3.012848025e-10)
(0 -6.749929655e-10 -2.845509244e-10)
(0 -5.618596959e-10 -2.418804391e-10)
(0 -2.167586373e-10 -1.647261262e-10)
(0 1.401344648e-11 -1.25059427e-11)
(0 2.374488489e-11 -1.558672384e-12)
(0 1.940698725e-11 2.207816995e-12)
(0 1.323728136e-11 1.647851632e-11)
(0 4.684128981e-12 1.323690253e-11)
(0 7.594740574e-13 1.133884152e-11)
(0 -1.489480763e-12 9.281034122e-12)
(0 -3.747860377e-12 9.103408614e-12)
(0 -7.39542201e-12 7.984685201e-12)
(0 -1.410323583e-11 6.431316445e-12)
(0 -1.368449564e-11 -1.510404687e-11)
(0 -3.092975449e-12 -2.47501756e-11)
(0 -1.773443139e-11 -8.425506206e-12)
(0 -1.883164618e-11 5.715708208e-11)
(0 -1.698035102e-10 -4.642002267e-11)
(0 -1.755579079e-10 -5.136601204e-11)
(0 -1.876511991e-10 -6.014503303e-11)
(0 -2.067819851e-10 -7.175435408e-11)
(0 -2.338611396e-10 -8.534954224e-11)
(0 -2.699347165e-10 -1.002273818e-10)
(0 -3.16115943e-10 -1.157764522e-10)
(0 -3.734125399e-10 -1.314116587e-10)
(0 -4.424147674e-10 -1.464941961e-10)
(0 -5.227754522e-10 -1.602424372e-10)
(0 -6.123781132e-10 -1.716806408e-10)
(0 -7.060994682e-10 -1.798461386e-10)
(0 -7.943332949e-10 -1.849193992e-10)
(0 -8.624086325e-10 -1.916370768e-10)
(0 -8.952000283e-10 -2.161060821e-10)
(0 -8.82243238e-10 -2.835202539e-10)
(0 -8.636286413e-10 -4.008176468e-10)
(0 5.426935151e-24 1.360388745e-12)
(0 1.616182597e-11 1.130502017e-12)
(0 1.626631603e-11 3.86485929e-11)
(0 -1.986124529e-13 1.608392921e-11)
(0 -2.055836885e-12 1.427588117e-11)
(0 -2.602969633e-12 9.143388089e-12)
(0 -3.701501683e-12 1.25985937e-11)
(0 -7.198960473e-12 1.163644301e-11)
(0 -2.553121302e-11 2.782713114e-11)
(0 -2.118351898e-11 -1.003739276e-11)
(0 -8.134888827e-24 -1.518356464e-11)
(0 -1.549157582e-10 2.064579837e-10)
(0 1.474574412e-11 1.899683574e-11)
(0 -1.854083819e-10 -3.450622689e-11)
(0 -1.911576565e-10 -3.726526564e-11)
(0 -2.032276645e-10 -4.199329982e-11)
(0 -2.22338722e-10 -4.78333862e-11)
(0 -2.49449156e-10 -5.392528759e-11)
(0 -2.856714222e-10 -5.943239488e-11)
(0 -3.322132479e-10 -6.35543677e-11)
(0 -3.902209476e-10 -6.554619839e-11)
(0 -4.604979353e-10 -6.475823517e-11)
(0 -5.430663197e-10 -6.071178237e-11)
(0 -6.365941032e-10 -5.321367317e-11)
(0 -7.379468961e-10 -4.250582445e-11)
(0 -8.428500753e-10 -2.941655041e-11)
(0 -9.50172691e-10 -1.545290967e-11)
(0 -1.074161508e-09 -2.662767462e-12)
(0 -1.258885641e-09 6.896321389e-12)
(0 -1.582420062e-09 1.187576483e-11)
(0 -1.689261702e-09 6.241296297e-12)
(0 -2.249945524e-09 1.248454463e-11)
(0 -3.693390115e-11 2.575937009e-13)
(0 -5.774416419e-11 3.670297443e-13)
(0 -2.630567852e-11 4.122374112e-13)
(0 -3.166768231e-12 4.167869917e-13)
(0 1.8869806e-11 3.889678668e-13)
(0 4.588869686e-11 3.282739313e-13)
(0 2.934753811e-11 2.200400865e-13)
(0 1.27850578e-09 3.226459072e-11)
(0 4.139423842e-10 1.120664086e-11)
(0 2.204612417e-10 9.020405208e-12)
(0 1.212140171e-11 2.254596497e-25)
(0 -1.943027849e-10 -2.257954648e-11)
(0 -1.996296577e-10 -2.332128145e-11)
(0 -2.107721063e-10 -2.429131725e-11)
(0 -2.283678977e-10 -2.473642407e-11)
(0 -2.532804349e-10 -2.375556181e-11)
(0 -2.865090775e-10 -2.036422345e-11)
(0 -3.291363403e-10 -1.355787326e-11)
(0 -3.821846498e-10 -2.404156892e-12)
(0 -4.463461415e-10 1.380392181e-11)
(0 -5.215128516e-10 3.531124816e-11)
(0 -6.059945354e-10 6.161463029e-11)
(0 -6.953082284e-10 9.135298234e-11)
(0 -7.806717952e-10 1.230778693e-10)
(0 -8.48215675e-10 1.583677312e-10)
(0 -8.830202969e-10 2.08678965e-10)
(0 -8.729012232e-10 2.94135181e-10)
(0 -8.547590115e-10 4.218613562e-10)
(0 5.769585725e-24 -1.094261235e-12)
(0 1.641941967e-11 -6.759658676e-13)
(0 1.663334577e-11 -3.798805138e-11)
(0 -4.396874261e-14 -1.528593058e-11)
(0 -2.006079638e-12 -1.341101286e-11)
(0 -2.626239177e-12 -8.27590902e-12)
(0 -3.790014743e-12 -1.178629411e-11)
(0 -7.367888254e-12 -1.093018643e-11)
(0 -2.585948695e-11 -2.72741135e-11)
(0 -2.140355906e-11 1.039704171e-11)
(0 -8.544122289e-24 1.538583412e-11)
(0 -1.510588223e-10 -1.983450215e-10)
(0 1.474708404e-11 -1.896345568e-11)
(0 -1.971706682e-10 -1.182729739e-11)
(0 -2.017028478e-10 -1.089283023e-11)
(0 -2.111114021e-10 -8.742440294e-12)
(0 -2.25860623e-10 -4.712932876e-12)
(0 -2.465900229e-10 2.122384332e-12)
(0 -2.740183351e-10 1.285976319e-11)
(0 -3.088971016e-10 2.866378073e-11)
(0 -3.518923895e-10 5.061347073e-11)
(0 -4.033593123e-10 7.943358338e-11)
(0 -4.629027669e-10 1.15022808e-10)
(0 -5.284422402e-10 1.556783694e-10)
(0 -5.940763582e-10 1.969823183e-10)
(0 -6.452589293e-10 2.307010392e-10)
(0 -6.487188185e-10 2.450798227e-10)
(0 -5.421232976e-10 2.303492551e-10)
(0 -2.093467051e-10 1.685985369e-10)
(0 1.427957399e-11 1.2796338e-11)
(0 2.419942104e-11 2.16957532e-12)
(0 1.980140127e-11 -1.315524978e-12)
(0 1.358074384e-11 -1.5604192e-11)
(0 4.888455764e-12 -1.230476737e-11)
(0 8.289545009e-13 -1.037001077e-11)
(0 -1.542049484e-12 -8.322009668e-12)
(0 -3.909082873e-12 -8.203454227e-12)
(0 -7.654703969e-12 -7.180326078e-12)
(0 -1.444984345e-11 -5.728704259e-12)
(0 -1.403524379e-11 1.578638457e-11)
(0 -3.452624393e-12 2.519984644e-11)
(0 -1.790332082e-11 8.666043736e-12)
(0 -1.881812268e-11 -5.70348484e-11)
(0 -1.952165896e-10 -3.171727194e-12)
(0 -1.986869846e-10 -1.048604388e-12)
(0 -2.057834779e-10 3.295905152e-12)
(0 -2.167314746e-10 1.042900837e-11)
(0 -2.318508453e-10 2.125250208e-11)
(0 -2.514509044e-10 3.68917729e-11)
(0 -2.757894059e-10 5.857458295e-11)
(0 -3.049952907e-10 8.744673424e-11)
(0 -3.389627474e-10 1.242427816e-10)
(0 -3.772017688e-10 1.68668826e-10)
(0 -4.18543815e-10 2.182288913e-10)
(0 -4.602392196e-10 2.659912116e-10)
(0 -4.948779974e-10 2.966101852e-10)
(0 -4.989294858e-10 2.807354678e-10)
(0 -4.15535445e-10 1.831959072e-10)
(0 -2.577497233e-12 3.167304072e-24)
(0 2.169575351e-12 1.82671246e-11)
(0 1.076352398e-11 5.257144402e-12)
(0 1.182584675e-11 -1.073903273e-12)
(0 9.322746084e-12 -7.128588318e-12)
(0 5.190212492e-12 -7.958707447e-12)
(0 1.976678065e-12 -7.442215665e-12)
(0 -4.596826335e-13 -6.439303947e-12)
(0 -2.648331154e-12 -5.524282335e-12)
(0 -4.893138287e-12 -3.860543244e-12)
(0 -6.571419012e-12 -5.670127933e-13)
(0 -3.655202759e-12 7.301712391e-12)
(0 8.253494952e-12 1.120164453e-11)
(0 3.264068887e-11 1.377143196e-12)
(0 -2.207855903e-12 -2.533517425e-11)
(0 -1.900155788e-10 2.819351553e-12)
(0 -1.923053336e-10 5.555469636e-12)
(0 -1.968343995e-10 1.099480745e-11)
(0 -2.035612758e-10 1.958989087e-11)
(0 -2.124418419e-10 3.214211632e-11)
(0 -2.23309837e-10 4.968578129e-11)
(0 -2.358281259e-10 7.336286663e-11)
(0 -2.494272241e-10 1.042407366e-10)
(0 -2.632747767e-10 1.430071771e-10)
(0 -2.763755417e-10 1.89442395e-10)
(0 -2.880721424e-10 2.414914024e-10)
(0 -2.995887882e-10 2.935554387e-10)
(0 -3.182431642e-10 3.33185787e-10)
(0 -3.590425404e-10 3.334954504e-10)
(0 -4.740426894e-10 2.627001935e-10)
(0 -6.60826235e-12 -9.705639303e-12)
(0 -5.338668519e-12 3.062361254e-12)
(0 4.858393215e-12 1.666012462e-12)
(0 7.415668558e-12 -1.108066744e-12)
(0 6.695939667e-12 -3.876805137e-12)
(0 4.574828416e-12 -4.959077607e-12)
(0 2.348358e-12 -5.000801432e-12)
(0 3.758838464e-13 -4.468678767e-12)
(0 -1.330322172e-12 -3.5949752e-12)
(0 -2.697434428e-12 -2.171031588e-12)
(0 -3.287587819e-12 1.980894812e-14)
(0 -2.266586466e-12 2.786405176e-12)
(0 -9.477751184e-13 2.500238175e-12)
(0 -9.440140885e-12 -5.805134132e-12)
(0 -9.722477146e-12 1.698615041e-11)
(0 -1.833012501e-10 5.983855526e-12)
(0 -1.844585665e-10 8.747759782e-12)
(0 -1.865303443e-10 1.416307137e-11)
(0 -1.892255414e-10 2.254520321e-11)
(0 -1.921586959e-10 3.451232953e-11)
(0 -1.947153181e-10 5.08729759e-11)
(0 -1.959859959e-10 7.249920149e-11)
(0 -1.946804958e-10 1.001389373e-10)
(0 -1.890260277e-10 1.341032545e-10)
(0 -1.766229456e-10 1.737363295e-10)
(0 -1.541885935e-10 2.165176634e-10)
(0 -1.170441607e-10 2.563764262e-10)
(0 -6.007480149e-11 2.792659331e-10)
(0 3.510976171e-11 2.425418066e-10)
(0 1.516974803e-11 1.193547192e-24)
(0 2.060947547e-11 -9.682582081e-12)
(0 8.790451238e-12 -2.729073524e-12)
(0 6.593095982e-12 -5.474387927e-13)
(0 6.283029148e-12 -1.146935824e-12)
(0 5.47173522e-12 -2.311137975e-12)
(0 4.066216197e-12 -3.000122414e-12)
(0 2.467076905e-12 -3.133510115e-12)
(0 9.461435985e-13 -2.839897961e-12)
(0 -3.50683975e-13 -2.21630607e-12)
(0 -1.278354139e-12 -1.248984115e-12)
(0 -1.613982247e-12 3.055163058e-14)
(0 -1.174773531e-12 1.324194959e-12)
(0 -3.380443545e-13 1.817520368e-12)
(0 6.416018739e-13 2.400741414e-12)
(0 4.3842164e-12 5.328072363e-12)
(0 -1.767257352e-10 6.563176418e-12)
(0 -1.769565939e-10 8.843236809e-12)
(0 -1.770265559e-10 1.325841563e-11)
(0 -1.764563121e-10 1.997141266e-11)
(0 -1.746092781e-10 2.9352638e-11)
(0 -1.705558505e-10 4.188244949e-11)
(0 -1.63018981e-10 5.803162773e-11)
(0 -1.503305754e-10 7.807027701e-11)
(0 -1.304214123e-10 1.01717384e-10)
(0 -1.008231656e-10 1.274692718e-10)
(0 -5.853713904e-11 1.513332557e-10)
(0 7.534572693e-13 1.646724992e-10)
(0 8.207863867e-11 1.516464093e-10)
(0 2.140230669e-10 9.465044032e-11)
(0 1.04420294e-11 -2.798602751e-24)
(0 1.553805145e-11 5.3911982e-12)
(0 8.547250609e-12 1.002408386e-12)
(0 6.440530916e-12 2.043800615e-14)
(0 5.651969375e-12 -6.209809199e-13)
(0 4.842753076e-12 -1.220712304e-12)
(0 3.752456276e-12 -1.59706812e-12)
(0 2.508582454e-12 -1.693650496e-12)
(0 1.293087891e-12 -1.541429895e-12)
(0 2.605916745e-13 -1.181717994e-12)
(0 -4.505767268e-13 -6.391115891e-13)
(0 -7.144087438e-13 2.752567504e-14)
(0 -4.796177285e-13 6.622749454e-13)
(0 1.287713372e-13 1.044794035e-12)
(0 1.014827876e-12 1.318009617e-12)
(0 2.306061122e-12 1.38497345e-12)
(0 -1.716330693e-10 5.14211552e-12)
(0 -1.712646152e-10 6.571700525e-12)
(0 -1.700521724e-10 9.291794693e-12)
(0 -1.674185254e-10 1.331062721e-11)
(0 -1.626056886e-10 1.87223054e-11)
(0 -1.545501427e-10 2.564222698e-11)
(0 -1.418651833e-10 3.413014254e-11)
(0 -1.22906523e-10 4.40755536e-11)
(0 -9.605635228e-11 5.499574959e-11)
(0 -6.048895757e-11 6.564558611e-11)
(0 -1.79291837e-11 7.325874772e-11)
(0 2.368944871e-11 7.228928723e-11)
(0 4.436685016e-11 5.353974743e-11)
(0 1.117283083e-12 1.531842934e-11)
(0 -4.3144411e-12 -1.54087961e-24)
(0 -3.26350347e-12 5.369899483e-12)
(0 3.419691044e-12 1.327186508e-12)
(0 4.969706677e-12 2.477687026e-13)
(0 5.041878837e-12 -1.367128757e-13)
(0 4.49564802e-12 -3.538737734e-13)
(0 3.593278005e-12 -4.742135094e-13)
(0 2.52271513e-12 -5.030961817e-13)
(0 1.458076101e-12 -4.506947842e-13)
(0 5.516343305e-13 -3.298715142e-13)
(0 -6.911047076e-14 -1.528287545e-13)
(0 -3.125957126e-13 5.704474479e-14)
(0 -1.575051712e-13 2.5303394e-13)
(0 3.176903165e-13 3.811914359e-13)
(0 9.817812889e-13 4.415215114e-13)
(0 1.615075435e-12 3.449885059e-13)
(0 -1.68884738e-10 2.53920496e-12)
(0 -1.683098245e-10 2.943347487e-12)
(0 -1.666755221e-10 3.643275217e-12)
(0 -1.634077101e-10 4.504209528e-12)
(0 -1.577633396e-10 5.348474161e-12)
(0 -1.487094782e-10 5.93539702e-12)
(0 -1.349098603e-10 5.951631552e-12)
(0 -1.147976784e-10 5.034711872e-12)
(0 -8.687058317e-11 2.877647539e-12)
(0 -5.04721557e-11 -4.850710833e-13)
(0 -7.568391612e-12 -4.024361928e-12)
(0 3.357677274e-11 -4.541797313e-12)
(0 5.256256808e-11 4.208326311e-12)
(0 6.09551215e-12 2.063573943e-11)
(0 -4.312682596e-12 1.640635639e-24)
(0 -3.259373524e-12 -5.363480575e-12)
(0 3.425119829e-12 -1.31151815e-12)
(0 4.976631533e-12 -2.199744938e-13)
(0 5.050326899e-12 1.800252108e-13)
(0 4.505252442e-12 4.159734141e-13)
(0 3.603233868e-12 5.56862024e-13)
(0 2.532101179e-12 6.059570669e-13)
(0 1.466312559e-12 5.717452054e-13)
(0 5.584577041e-13 4.662134867e-13)
(0 -6.366046793e-14 3.014619565e-13)
(0 -3.085460493e-13 1.010987608e-13)
(0 -1.554710375e-13 -8.850257081e-14)
(0 3.172589085e-13 -2.147009882e-13)
(0 9.786249457e-13 -2.788270373e-13)
(0 1.609470316e-12 -1.917474864e-13)
(0 -1.687663986e-10 -3.344760603e-13)
(0 -1.683795433e-10 -9.236537165e-13)
(0 -1.671863559e-10 -2.170518869e-12)
(0 -1.6471507e-10 -4.330548387e-12)
(0 -1.603713555e-10 -7.822764046e-12)
(0 -1.53313435e-10 -1.321409057e-11)
(0 -1.424098233e-10 -2.118349522e-11)
(0 -1.262158773e-10 -3.241905302e-11)
(0 -1.029943531e-10 -4.736195845e-11)
(0 -7.07602278e-11 -6.563728098e-11)
(0 -2.720439072e-11 -8.489629684e-11)
(0 3.103927753e-11 -9.877270966e-11)
(0 1.07747549e-10 -9.442588439e-11)
(0 2.302558267e-10 -5.809937934e-11)
(0 1.04466898e-11 2.891844322e-24)
(0 1.554958986e-11 -5.387835745e-12)
(0 8.563197126e-12 -9.904413659e-13)
(0 6.461250038e-12 3.541708445e-15)
(0 5.677826745e-12 6.609246005e-13)
(0 4.872484833e-12 1.280728781e-12)
(0 3.783261658e-12 1.679696997e-12)
(0 2.537598311e-12 1.798611409e-12)
(0 1.318332521e-12 1.666075917e-12)
(0 2.813510817e-13 1.322310683e-12)
(0 -4.342251965e-13 7.917978848e-13)
(0 -7.0256024e-13 1.343105274e-13)
(0 -4.733049201e-13 -4.94102528e-13)
(0 1.273658501e-13 -8.746970146e-13)
(0 1.004734791e-12 -1.151083613e-12)
(0 2.288752799e-12 -1.228787263e-12)
(0 -1.70987417e-10 -2.625575592e-12)
(0 -1.711216845e-10 -3.985997166e-12)
(0 -1.710978092e-10 -6.740238887e-12)
(0 -1.706320917e-10 -1.122984842e-11)
(0 -1.694015841e-10 -1.805333084e-11)
(0 -1.669263459e-10 -2.80309312e-11)
(0 -1.625221823e-10 -4.215620416e-11)
(0 -1.552450058e-10 -6.149093127e-11)
(0 -1.438329261e-10 -8.694172548e-11)
(0 -1.266208672e-10 -1.188270359e-10)
(0 -1.013559133e-10 -1.560867361e-10)
(0 -6.477048535e-11 -1.947268117e-10)
(0 -1.371202757e-11 -2.236279481e-10)
(0 6.80079655e-11 -2.0458737e-10)
(0 1.517486899e-11 -1.048706643e-24)
(0 2.062557244e-11 9.677921678e-12)
(0 8.816497282e-12 2.733944975e-12)
(0 6.627997499e-12 5.63507725e-13)
(0 6.327513971e-12 1.178967941e-12)
(0 5.524024839e-12 2.366566575e-12)
(0 4.121116495e-12 3.083076617e-12)
(0 2.518480099e-12 3.243428773e-12)
(0 9.900118335e-13 2.972461618e-12)
(0 -3.158203278e-13 2.365455441e-12)
(0 -1.251660624e-12 1.40925389e-12)
(0 -1.594446462e-12 1.371689369e-13)
(0 -1.164478579e-12 -1.150154279e-12)
(0 -3.397221758e-13 -1.638804328e-12)
(0 6.24534697e-13 -2.22204825e-12)
(0 4.352354232e-12 -5.164232777e-12)
(0 -1.747732066e-10 -3.67477709e-12)
(0 -1.756464236e-10 -5.442381392e-12)
(0 -1.772667115e-10 -8.990188113e-12)
(0 -1.795927487e-10 -1.469897528e-11)
(0 -1.826532218e-10 -2.325152658e-11)
(0 -1.864487977e-10 -3.558714199e-11)
(0 -1.909271814e-10 -5.284750894e-11)
(0 -1.959590714e-10 -7.626979717e-11)
(0 -2.013586716e-10 -1.069639454e-10)
(0 -2.070458576e-10 -1.454736297e-10)
(0 -2.136141568e-10 -1.909413334e-10)
(0 -2.239429907e-10 -2.394944509e-10)
(0 -2.474929356e-10 -2.810228223e-10)
(0 -3.018590437e-10 -2.915255118e-10)
(0 -4.434602998e-10 -2.423573686e-10)
(0 -6.591852487e-12 9.700518343e-12)
(0 -5.301992667e-12 -3.065810328e-12)
(0 4.906273003e-12 -1.66256433e-12)
(0 7.480885595e-12 1.126194411e-12)
(0 6.77659351e-12 3.922692728e-12)
(0 4.660123857e-12 5.043207678e-12)
(0 2.426983312e-12 5.120741382e-12)
(0 4.403591879e-13 4.615457197e-12)
(0 -1.281856647e-12 3.757887629e-12)
(0 -2.662511701e-12 2.340529497e-12)
(0 -3.26196841e-12 1.545254226e-13)
(0 -2.249278185e-12 -2.604455245e-12)
(0 -9.445281209e-13 -2.306660949e-12)
(0 -9.465110424e-12 6.011303868e-12)
(0 -9.776311676e-12 -1.680769516e-11)
(0 -1.790355122e-10 -3.116885938e-12)
(0 -1.807167177e-10 -4.857683148e-12)
(0 -1.841274192e-10 -8.350783909e-12)
(0 -1.894779333e-10 -1.396439775e-11)
(0 -1.97160075e-10 -2.235515105e-11)
(0 -2.076670799e-10 -3.441916561e-11)
(0 -2.215810268e-10 -5.123308358e-11)
(0 -2.395387741e-10 -7.393647686e-11)
(0 -2.621811283e-10 -1.034775891e-10)
(0 -2.90063919e-10 -1.400776202e-10)
(0 -3.234223182e-10 -1.821406704e-10)
(0 -3.613284383e-10 -2.240955649e-10)
(0 -3.9873046e-10 -2.524797703e-10)
(0 -4.153317623e-10 -2.403945279e-10)
(0 -3.582282843e-10 -1.560677827e-10)
(0 -2.564849341e-12 -2.929256947e-24)
(0 2.204190487e-12 -1.828353446e-11)
(0 1.082000223e-11 -5.271552256e-12)
(0 1.191277103e-11 1.064156142e-12)
(0 9.441038107e-12 7.15491557e-12)
(0 5.319165149e-12 8.045730749e-12)
(0 2.090729618e-12 7.581073663e-12)
(0 -3.728419198e-13 6.610442306e-12)
(0 -2.590748028e-12 5.707648673e-12)
(0 -4.85502283e-12 4.043125535e-12)
(0 -6.539431205e-12 7.453238553e-13)
(0 -3.625664952e-12 -7.113920915e-12)
(0 8.276036936e-12 -1.099556479e-11)
(0 3.260849972e-11 -1.1038469e-12)
(0 -2.301589449e-12 2.553406386e-11)
(0 -1.825920177e-10 -9.268619749e-13)
(0 -1.849952684e-10 -2.220272614e-12)
(0 -1.900009235e-10 -4.838493759e-12)
(0 -1.980343297e-10 -9.090865354e-12)
(0 -2.097947625e-10 -1.550718735e-11)
(0 -2.261868574e-10 -2.479645495e-11)
(0 -2.483076051e-10 -3.779616624e-11)
(0 -2.773773634e-10 -5.537599356e-11)
(0 -3.14572496e-10 -7.823643948e-11)
(0 -3.606404932e-10 -1.06516833e-10)
(0 -4.14997179e-10 -1.391034378e-10)
(0 -4.735894024e-10 -1.725921857e-10)
(0 -5.240310101e-10 -2.002353372e-10)
(0 -5.354821444e-10 -2.122115954e-10)
(0 -4.478844771e-10 -2.010113715e-10)
(0 -1.466415602e-10 -1.521672123e-10)
(0 1.430184198e-11 -1.280898589e-11)
(0 2.425396356e-11 -2.204190456e-12)
(0 1.990735342e-11 1.246398829e-12)
(0 1.375816812e-11 1.558571647e-11)
(0 5.086281949e-12 1.240259469e-11)
(0 9.916948692e-13 1.054649418e-11)
(0 -1.433065802e-12 8.535908756e-12)
(0 -3.849173416e-12 8.422215055e-12)
(0 -7.624836517e-12 7.381119483e-12)
(0 -1.441901486e-11 5.896823262e-12)
(0 -1.399016683e-11 -1.560322819e-11)
(0 -3.363872575e-12 -2.503063546e-11)
(0 -1.79354805e-11 -8.505429344e-12)
(0 -1.900304011e-11 5.723624852e-11)
(0 -1.843943738e-10 2.596400804e-12)
(0 -1.873011173e-10 2.078824997e-12)
(0 -1.934142978e-10 9.741527936e-13)
(0 -2.033006535e-10 -9.345219881e-13)
(0 -2.178602664e-10 -3.976757327e-12)
(0 -2.382654741e-10 -8.570429634e-12)
(0 -2.65948268e-10 -1.519451818e-11)
(0 -3.025153515e-10 -2.434135231e-11)
(0 -3.495446217e-10 -3.642471596e-11)
(0 -4.081717723e-10 -5.162626613e-11)
(0 -4.783305685e-10 -6.971065917e-11)
(0 -5.575091965e-10 -9.002424177e-11)
(0 -6.3913873e-10 -1.123482843e-10)
(0 -7.116426377e-10 -1.400033313e-10)
(0 -7.622027793e-10 -1.863625584e-10)
(0 -7.803090663e-10 -2.72668966e-10)
(0 -8.019010692e-10 -4.017874642e-10)
(0 5.829926633e-24 1.071993237e-12)
(0 1.652248356e-11 6.214233474e-13)
(0 1.691859126e-11 3.785983123e-11)
(0 2.799428572e-13 1.543351737e-11)
(0 -1.775956318e-12 1.366662025e-11)
(0 -2.497121043e-12 8.565500723e-12)
(0 -3.7455373e-12 1.206666943e-11)
(0 -7.380414622e-12 1.115739258e-11)
(0 -2.584513617e-11 2.738341308e-11)
(0 -2.137292928e-11 -1.030828989e-11)
(0 -8.550100684e-24 -1.532161151e-11)
(0 -1.742392958e-10 2.032098649e-10)
(0 1.461348963e-11 1.905983797e-11)
(0 -1.837237263e-10 6.905071262e-12)
(0 -1.868283478e-10 7.339212236e-12)
(0 -1.933701087e-10 8.088546456e-12)
(0 -2.03959496e-10 9.044655937e-12)
(0 -2.195579227e-10 1.011525679e-11)
(0 -2.414212931e-10 1.12277816e-11)
(0 -2.710905208e-10 1.232665971e-11)
(0 -3.103081261e-10 1.336779833e-11)
(0 -3.608211812e-10 1.430527605e-11)
(0 -4.240162547e-10 1.507757433e-11)
(0 -5.003787519e-10 1.559017532e-11)
(0 -5.8899945e-10 1.570339156e-11)
(0 -6.880706792e-10 1.522255777e-11)
(0 -7.988052581e-10 1.390498046e-11)
(0 -9.369437511e-10 1.147472495e-11)
(0 -1.145900142e-09 7.594800181e-12)
(0 -1.498116891e-09 2.178625396e-12)
(0 -1.635070852e-09 -2.108576612e-12)
(0 -2.208455749e-09 1.781061956e-12)
(0 -3.655434757e-11 3.041753343e-15)
(0 -5.716251047e-11 7.555932495e-16)
(0 -2.600093323e-11 -3.009628926e-15)
(0 -3.033016622e-12 -6.28963075e-15)
(0 1.88673299e-11 -8.791052211e-15)
(0 4.574748857e-11 -1.05765208e-14)
(0 2.923991238e-11 -8.911866178e-15)
(0 1.264931696e-09 1.407883134e-11)
(0 3.977247275e-10 2.295173331e-11)
(0 2.000887983e-10 -6.904046646e-12)
(0 1.199760395e-11 -5.270333914e-26)
(0 -1.803190525e-10 1.132180449e-11)
(0 -1.832897893e-10 1.269904189e-11)
(0 -1.895227471e-10 1.528348725e-11)
(0 -1.995659943e-10 1.907030906e-11)
(0 -2.142905515e-10 2.420088255e-11)
(0 -2.348351541e-10 3.094404894e-11)
(0 -2.626002289e-10 3.9668442e-11)
(0 -2.991713969e-10 5.078129419e-11)
(0 -3.461228377e-10 6.461359372e-11)
(0 -4.046079644e-10 8.123216475e-11)
(0 -4.745994948e-10 1.002195569e-10)
(0 -5.53639238e-10 1.206354282e-10)
(0 -6.352021684e-10 1.418535762e-10)
(0 -7.076988763e-10 1.66686588e-10)
(0 -7.58243714e-10 2.079651358e-10)
(0 -7.760954352e-10 2.86331107e-10)
(0 -7.966390801e-10 4.03672613e-10)
(0 5.83195532e-24 -1.058344078e-12)
(0 1.652552531e-11 -6.052643655e-13)
(0 1.691934686e-11 -3.784814312e-11)
(0 2.738914749e-13 -1.543037186e-11)
(0 -1.783001542e-12 -1.367339703e-11)
(0 -2.502902466e-12 -8.580923806e-12)
(0 -3.74982419e-12 -1.208698103e-11)
(0 -7.380535436e-12 -1.118097324e-11)
(0 -2.583455965e-11 -2.740751114e-11)
(0 -2.136401741e-11 1.028907319e-11)
(0 -8.569121556e-24 1.530844532e-11)
(0 -1.586719039e-10 -2.030060449e-10)
(0 1.460657277e-11 -1.90726976e-11)
(0 -1.744164133e-10 1.518208301e-11)
(0 -1.769611021e-10 1.731220673e-11)
(0 -1.822339215e-10 2.135674567e-11)
(0 -1.906221118e-10 2.739020666e-11)
(0 -2.027646267e-10 3.573976281e-11)
(0 -2.19494516e-10 4.695517113e-11)
(0 -2.418394005e-10 6.176225115e-11)
(0 -2.709700265e-10 8.09578578e-11)
(0 -3.080504108e-10 1.051852711e-10)
(0 -3.53865097e-10 1.345028335e-10)
(0 -4.079238934e-10 1.676393607e-10)
(0 -4.663135418e-10 2.008961433e-10)
(0 -5.167764338e-10 2.270442101e-10)
(0 -5.284557131e-10 2.356140998e-10)
(0 -4.408788089e-10 2.184686195e-10)
(0 -1.374330973e-10 1.611737152e-10)
(0 1.431549114e-11 1.283078115e-11)
(0 2.427012254e-11 2.24114827e-12)
(0 1.990539237e-11 -1.208935717e-12)
(0 1.374515464e-11 -1.556215857e-11)
(0 5.067817057e-12 -1.239534403e-11)
(0 9.731262823e-13 -1.05551742e-11)
(0 -1.446600627e-12 -8.55753208e-12)
(0 -3.857331e-12 -8.451247971e-12)
(0 -7.628622973e-12 -7.411678765e-12)
(0 -1.441465089e-11 -5.929092307e-12)
(0 -1.397923496e-11 1.556549891e-11)
(0 -3.344655877e-12 2.49976324e-11)
(0 -1.793517393e-11 8.476072208e-12)
(0 -1.902252856e-11 -5.727046179e-11)
)
;

boundaryField
{
    lowerWall
    {
        type            slip;
    }
    atmosphere
    {
        type            pressureInletOutletVelocity;
        tangentialVelocity uniform (0 0 0);
        value           nonuniform List<vector> 
20
(
(0 -1.47389279e-10 -5.697102605e-11)
(0 -1.698035102e-10 -4.642002267e-11)
(0 -1.854083819e-10 -3.450622689e-11)
(0 -1.943027849e-10 -2.257954648e-11)
(0 -1.971706682e-10 -1.182729739e-11)
(0 -1.952165896e-10 -3.171727194e-12)
(0 -1.900155788e-10 2.819351553e-12)
(0 -1.833012501e-10 5.983855526e-12)
(0 -1.767257352e-10 6.563176418e-12)
(0 -1.716330693e-10 5.14211552e-12)
(0 -1.68884738e-10 2.53920496e-12)
(0 -1.687663986e-10 -3.344760603e-13)
(0 -1.70987417e-10 -2.625575592e-12)
(0 -1.747732066e-10 -3.67477709e-12)
(0 -1.790355122e-10 -3.116885938e-12)
(0 -1.825920177e-10 -9.268619749e-13)
(0 -1.843943738e-10 2.596400804e-12)
(0 -1.837237263e-10 6.905071262e-12)
(0 -1.803190525e-10 1.132180449e-11)
(0 -1.744164133e-10 1.518208301e-11)
)
;
    }
    rightWall
    {
        type            empty;
    }
    leftWall
    {
        type            empty;
    }
    frontAndBack
    {
        type            slip;
    }
    procBoundary2to0
    {
        type            processor;
        value           nonuniform List<vector> 
30
(
(0 -1.186175877e-10 -6.472707967e-11)
(0 -1.233250526e-10 -7.404894726e-11)
(0 -1.331068975e-10 -9.061448092e-11)
(0 -1.482871509e-10 -1.128206678e-10)
(0 -1.693072799e-10 -1.396427327e-10)
(0 -1.966562808e-10 -1.704531955e-10)
(0 -2.307664163e-10 -2.047890172e-10)
(0 -2.718389098e-10 -2.420998174e-10)
(0 -3.196080522e-10 -2.814291478e-10)
(0 -3.730309083e-10 -3.209102437e-10)
(0 -4.298162301e-10 -3.568339751e-10)
(0 -4.853653954e-10 -3.818128024e-10)
(0 -5.296168348e-10 -3.813722697e-10)
(0 -5.354883079e-10 -3.291294829e-10)
(0 -4.414990019e-10 -1.970417439e-10)
(0 -2.867892531e-12 -2.476155095e-24)
(0 1.558672415e-12 -1.771611011e-11)
(0 1.016162726e-11 -4.52800661e-12)
(0 1.130483166e-11 1.99171635e-12)
(0 8.915873196e-12 8.144573743e-12)
(0 4.941062349e-12 9.0467829e-12)
(0 1.900031524e-12 8.561915836e-12)
(0 -3.675367248e-13 7.537962346e-12)
(0 -2.405152762e-12 6.548350575e-12)
(0 -4.526868306e-12 4.766764228e-12)
(0 -6.121123652e-12 1.335453671e-12)
(0 -3.182221325e-12 -6.665519282e-12)
(0 8.695295116e-12 -1.072875818e-11)
(0 3.296812602e-11 -9.835131549e-13)
(0 -2.000313388e-12 2.548212332e-11)
)
;
    }
    procBoundary2to3
    {
        type            processor;
        value           nonuniform List<vector> 
20
(
(0 -3.217553757e-13 -2.34992539e-11)
(0 2.069164827e-11 -1.404695079e-11)
(0 1.899141236e-11 1.339918143e-15)
(0 2.06841813e-11 1.406047428e-11)
(0 -3.700873904e-13 2.3530909e-11)
(0 -3.45421417e-11 5.722013462e-12)
(0 -3.072793386e-12 -1.090825544e-11)
(0 4.186620311e-12 -5.695332122e-12)
(0 2.209887811e-12 -1.451131356e-12)
(0 1.56280407e-12 -2.55069297e-13)
(0 1.555730058e-12 3.948503282e-13)
(0 2.187878846e-12 1.591800312e-12)
(0 4.146596788e-12 5.83749908e-12)
(0 -3.137900023e-12 1.105255379e-11)
(0 -3.464517306e-11 -5.579800061e-12)
(0 -5.30466567e-13 -2.341015547e-11)
(0 2.045824937e-11 -1.399935462e-11)
(0 1.87702682e-11 -6.91685866e-15)
(0 2.044999427e-11 1.397986617e-11)
(0 -5.367744461e-13 2.338190868e-11)
)
;
    }
    procBoundary2to4
    {
        type            processor;
        value           nonuniform List<vector> 
30
(
(0 -1.666902001e-10 1.797545131e-11)
(0 -1.686173048e-10 2.052253466e-11)
(0 -1.724978406e-10 2.536592533e-11)
(0 -1.784839149e-10 3.261456395e-11)
(0 -1.868717388e-10 4.269452155e-11)
(0 -1.980368349e-10 5.632190255e-11)
(0 -2.124407795e-10 7.445530489e-11)
(0 -2.306258941e-10 9.81808138e-11)
(0 -2.531960058e-10 1.284369829e-10)
(0 -2.807591896e-10 1.654370635e-10)
(0 -3.137208111e-10 2.075004221e-10)
(0 -3.514563683e-10 2.487962965e-10)
(0 -3.893019135e-10 2.753185971e-10)
(0 -4.072817061e-10 2.59317115e-10)
(0 -3.526476457e-10 1.679409895e-10)
(0 -2.54305408e-12 3.203048145e-24)
(0 2.241148301e-12 1.833293399e-11)
(0 1.083567008e-11 5.329885171e-12)
(0 1.190241286e-11 -1.010065958e-12)
(0 9.411581253e-12 -7.118903761e-12)
(0 5.28087585e-12 -8.034605212e-12)
(0 2.054810405e-12 -7.594420887e-12)
(0 -3.989762394e-13 -6.641867818e-12)
(0 -2.603970875e-12 -5.748592355e-12)
(0 -4.858379773e-12 -4.084234735e-12)
(0 -6.53602468e-12 -7.820444718e-13)
(0 -3.617487102e-12 7.078119098e-12)
(0 8.284409078e-12 1.095704184e-11)
(0 3.260728952e-11 1.051627133e-12)
(0 -2.307395969e-12 -2.557737111e-11)
)
;
    }
}


// ************************************************************************* //
