/*--------------------------------*- C++ -*----------------------------------*\
  =========                 |
  \\      /  F ield         | OpenFOAM: The Open Source CFD Toolbox
   \\    /   O peration     | Website:  https://openfoam.org
    \\  /    A nd           | Version:  6
     \\/     M anipulation  |
\*---------------------------------------------------------------------------*/
FoamFile
{
    version     2.0;
    format      ascii;
    class       volVectorField;
    location    "0.0044";
    object      Marangoni;
}
// * * * * * * * * * * * * * * * * * * * * * * * * * * * * * * * * * * * * * //

dimensions      [1 -2 -2 0 0 0 0];

internalField   nonuniform List<vector> 
600
(
(-0 0 0)
(-0 0 0)
(-0 0 0)
(-0 0 0)
(-0 0 0)
(-0 0 0)
(-0 0 0)
(-0 0 0)
(-0 0 0)
(-0 0 0)
(-0 0 0)
(-0 0 0)
(-0 0 0)
(-0 0 -0)
(-0 0 -0)
(-0 0 -0)
(-0 3.627459396e-07 3.627459159e-07)
(-0 6.252793763e-07 6.252793746e-07)
(-0 9.121512507e-07 8.39704267e-14)
(-0 0 0)
(-0 -0 0)
(-0 -0 0)
(-0 -0 0)
(-0 -1.573642846e-22 6.264953626e-22)
(-0 -0 0)
(-0 -0 0)
(-0 -1.774274618e-06 9.678176072e-14)
(-0 -1.108452101e-06 1.108452097e-06)
(-0 -3.399593566e-06 3.399593203e-06)
(-0 -2.604271954e-13 -5.56796047e-06)
(-0 0 0)
(-0 0 0)
(-0 0 0)
(-0 0 0)
(-0 0 0)
(-0 0 0)
(-0 0 0)
(-0 0 0)
(-0 0 0)
(-0 0 0)
(-0 0 0)
(-0 0 0)
(-0 0 0)
(-0 0 0)
(-0 0 -0)
(-0 0 -0)
(-0 0 0)
(-0 2.148483186e-06 2.325519321e-14)
(-0 3.656972204e-06 3.656972147e-06)
(-0 2.094405396e-06 2.094405481e-06)
(-0 -2.134618317e-06 6.392680779e-14)
(-0 -1.619545523e-06 5.275372629e-14)
(-0 -9.365219788e-07 4.533663841e-14)
(-0 -2.240534493e-07 5.128279547e-14)
(-0 4.622576427e-07 6.056539345e-14)
(-0 -2.692799749e-06 2.692799796e-06)
(-0 -4.131705463e-06 4.13170538e-06)
(-0 -5.514716521e-06 -4.360348718e-15)
(-0 -0 -0)
(-0 -1.89163215e-13 -1.096968543e-06)
(-0 0 0)
(-0 0 0)
(-0 0 0)
(-0 0 0)
(-0 0 0)
(-0 0 0)
(-0 0 0)
(-0 0 0)
(-0 0 0)
(-0 0 0)
(-0 0 0)
(-0 0 0)
(-0 0 0)
(-0 0 0)
(-0 0 0)
(-0 0 0)
(-0 0 0)
(-0 0 0)
(-0 0 0)
(-0 1.193134487e-21 1.89310672e-21)
(-0 -6.950383024e-21 9.727216208e-22)
(-0 -0 0)
(-0 -3.67331126e-21 1.175913624e-21)
(-0 -0 0)
(-0 1.128968589e-21 7.762157853e-22)
(-0 -5.688879424e-21 1.593045146e-21)
(-0 -0 0)
(-0 -0 0)
(-0 -0 0)
(-0 -1.765666527e-13 1.853175736e-07)
(-0 0 0)
(-0 0 0)
(-0 0 0)
(-0 0 0)
(-0 0 0)
(-0 0 0)
(-0 0 0)
(-0 0 0)
(-0 0 0)
(-0 0 0)
(-0 0 0)
(-0 0 0)
(-0 0 0)
(-0 0 0)
(-0 0 0)
(-0 0 0)
(-0 0 0)
(-0 2.201298337e-06 -1.603289733e-15)
(-0 3.054585548e-06 -3.054585481e-06)
(-0 1.623613947e-06 -1.623614019e-06)
(-0 -2.17478356e-06 -4.645544509e-14)
(-0 -1.624905653e-06 -3.537975959e-14)
(-0 -9.137235576e-07 -2.762802855e-14)
(-0 -1.726676662e-07 -3.284746082e-14)
(-0 5.490917546e-07 -4.09213483e-14)
(-0 -2.104360973e-06 -2.104361006e-06)
(-0 -3.34991674e-06 -3.349916645e-06)
(-0 -5.62542108e-06 3.184103446e-14)
(-0 -0 0)
(-0 -1.984183422e-13 1.478895698e-06)
(-0 0 0)
(-0 0 0)
(-0 0 0)
(-0 0 0)
(-0 0 0)
(-0 0 0)
(-0 0 0)
(-0 0 0)
(-0 0 0)
(-0 0 0)
(-0 0 0)
(-0 0 0)
(-0 0 0)
(-0 0 0)
(-0 0 0)
(-0 0 0)
(-0 1.969885429e-07 -1.969885055e-07)
(-0 4.913595229e-07 -4.913595214e-07)
(-0 8.118096103e-07 -7.520228002e-14)
(-0 0 -0)
(-0 -0 -0)
(-0 -0 -0)
(-0 -0 -0)
(-0 -0 -0)
(-0 -0 -0)
(-0 -0 -0)
(-0 -1.606752677e-06 -8.681988738e-14)
(-0 -9.674067008e-07 -9.674066969e-07)
(-0 -3.384837129e-06 -3.384836737e-06)
(-0 -2.761204557e-13 6.123627316e-06)
(-0 0 0)
(-0 0 0)
(-0 0 0)
(-0 0 0)
(-0 0 0)
(-0 0 0)
(-0 0 0)
(-0 0 0)
(-0 0 0)
(-0 0 0)
(-0 0 0)
(-0 0 0)
(-0 0 0)
(-0 0 0)
(-0 0 0)
(-0 3.520244882e-14 7.935137008e-07)
(-0 -1.78441893e-07 1.784418832e-07)
(-0 -0 -0)
(-0 -0 -0)
(-0 -0 -0)
(-0 -0 -0)
(-0 -0 -0)
(-0 -0 -0)
(-0 -0 -0)
(-0 -0 -0)
(-0 -0 -0)
(-0 -0 -0)
(-0 0 -0)
(-0 -3.312520217e-06 -3.312520217e-06)
(-0 -1.62530888e-14 9.331361754e-15)
(-0 0 0)
(-0 0 0)
(-0 0 0)
(-0 0 0)
(-0 0 0)
(-0 0 0)
(-0 0 0)
(-0 0 0)
(-0 0 0)
(-0 0 0)
(-0 0 0)
(-0 0 0)
(-0 0 0)
(-0 0 0)
(-0 0 0)
(-0 1.61562948e-07 -1.615629166e-07)
(-0 -2.639933929e-14 -3.877160968e-07)
(-0 -0 -0)
(-0 -0 -0)
(-0 -0 -0)
(-0 -0 -0)
(-0 -0 -0)
(-0 -0 -0)
(-0 -0 -0)
(-0 -0 -0)
(-0 -0 -0)
(-0 -0 -0)
(-0 -0 -0)
(-0 -1.066812014e-13 -3.684768024e-06)
(-0 -4.28345885e-06 -1.020502072e-13)
(-0 0 0)
(-0 0 0)
(-0 0 0)
(-0 0 0)
(-0 0 0)
(-0 0 0)
(-0 0 0)
(-0 0 0)
(-0 0 0)
(-0 0 0)
(-0 0 0)
(-0 0 0)
(-0 0 0)
(-0 0 0)
(-0 5.742374502e-14 2.40062372e-07)
(-0 -1.678799276e-07 1.678798855e-07)
(-0 -0 -0)
(-0 -0 -0)
(-0 -0 -0)
(-0 -0 -0)
(-0 -0 -0)
(-0 -0 -0)
(-0 -0 -0)
(-0 -0 -0)
(-0 -0 -0)
(-0 -0 -0)
(-0 -0 -0)
(-0 -0 -0)
(-0 -0 -0)
(-0 -3.110805256e-06 -3.411860484e-14)
(-0 0 0)
(-0 0 0)
(-0 0 0)
(-0 0 0)
(-0 0 0)
(-0 0 0)
(-0 0 0)
(-0 0 0)
(-0 0 0)
(-0 0 0)
(-0 0 0)
(-0 0 0)
(-0 0 0)
(-0 0 -0)
(-0 3.689813995e-14 -6.517203848e-07)
(-0 -1.544102879e-14 -6.520777268e-07)
(-0 -0 -0)
(-0 -0 -0)
(-0 -0 -0)
(-0 -0 -0)
(-0 -0 -0)
(-0 -0 -0)
(-0 -0 -0)
(-0 -0 -0)
(-0 -0 -0)
(-0 -0 -0)
(-0 -0 -0)
(-0 -0 -0)
(-0 -0 -0)
(-0 -0 -0)
(-0 0 0)
(-0 0 0)
(-0 0 0)
(-0 0 0)
(-0 0 0)
(-0 0 0)
(-0 0 0)
(-0 0 0)
(-0 0 0)
(-0 0 0)
(-0 0 0)
(-0 0 0)
(-0 0 0)
(-0 0 0)
(-0 3.672582372e-14 1.407927577e-08)
(-0 -1.948671308e-14 1.422221258e-08)
(-0 -0 -0)
(-0 -0 -0)
(-0 -0 -0)
(-0 -0 -0)
(-0 -0 -0)
(-0 -0 -0)
(-0 -0 -0)
(-0 -0 -0)
(-0 -0 -0)
(-0 -0 -0)
(-0 -0 -0)
(-0 -0 -0)
(-0 -0 -0)
(-0 -0 -0)
(-0 0 0)
(-0 0 0)
(-0 0 0)
(-0 0 0)
(-0 0 0)
(-0 0 0)
(-0 0 0)
(-0 0 0)
(-0 0 0)
(-0 0 0)
(-0 0 0)
(-0 0 0)
(-0 0 0)
(-0 0 0)
(-0 3.648607956e-14 6.131989142e-08)
(-0 -1.941678769e-14 6.11054862e-08)
(-0 -0 0)
(-0 -0 0)
(-0 -0 0)
(-0 -0 0)
(-0 -0 0)
(-0 -0 0)
(-0 -0 0)
(-0 -0 0)
(-0 -0 0)
(-0 -0 0)
(-0 -0 0)
(-0 -0 0)
(-0 -0 0)
(-0 -0 0)
(-0 0 -0)
(-0 0 -0)
(-0 0 0)
(-0 0 0)
(-0 0 0)
(-0 0 0)
(-0 0 0)
(-0 0 0)
(-0 0 0)
(-0 0 0)
(-0 0 -0)
(-0 0 0)
(-0 0 0)
(-0 0 0)
(-0 3.608151108e-14 7.187577486e-07)
(-0 -1.51987871e-14 7.191150907e-07)
(-0 -0 0)
(-0 -0 0)
(-0 -0 0)
(-0 -0 0)
(-0 -0 0)
(-0 -0 0)
(-0 -0 0)
(-0 -0 0)
(-0 -0 0)
(-0 -0 0)
(-0 -0 0)
(-0 -0 0)
(-0 -0 0)
(-0 -0 0)
(-0 0 -0)
(-0 0 -0)
(-0 0 -0)
(-0 0 -0)
(-0 0 -0)
(-0 0 -0)
(-0 0 -0)
(-0 0 -0)
(-0 0 -0)
(-0 0 -0)
(-0 0 -0)
(-0 0 -0)
(-0 0 -0)
(-0 0 -0)
(-0 5.557072136e-14 -1.213533515e-07)
(-0 -1.135034143e-07 -1.135033707e-07)
(-0 -0 0)
(-0 -0 0)
(-0 -0 0)
(-0 -0 0)
(-0 -0 0)
(-0 -0 0)
(-0 -0 0)
(-0 -0 0)
(-0 -0 0)
(-0 -0 0)
(-0 -0 0)
(-0 -0 0)
(-0 -0 0)
(-0 -3.119381465e-06 3.67258237e-14)
(-0 0 -0)
(-0 0 -0)
(-0 0 -0)
(-0 0 -0)
(-0 0 -0)
(-0 0 -0)
(-0 0 -0)
(-0 0 -0)
(-0 0 -0)
(-0 0 -0)
(-0 0 -0)
(-0 0 -0)
(-0 0 -0)
(-0 0 -0)
(-0 0 -0)
(-0 2.104815941e-07 2.104815673e-07)
(-0 -2.461124668e-14 4.691900785e-07)
(-0 -0 0)
(-0 -0 0)
(-0 -0 0)
(-0 -0 0)
(-0 -0 0)
(-0 -0 0)
(-0 -0 0)
(-0 -0 0)
(-0 -0 0)
(-0 -0 0)
(-0 -0 0)
(-0 -1.080896989e-13 3.769458084e-06)
(-0 -4.289033386e-06 1.056806055e-13)
(-0 0 -0)
(-0 0 -0)
(-0 0 -0)
(-0 0 -0)
(-0 0 -0)
(-0 0 -0)
(-0 0 -0)
(-0 0 -0)
(-0 0 -0)
(-0 0 -0)
(-0 0 -0)
(-0 0 -0)
(-0 0 -0)
(-0 0 -0)
(-0 0 -0)
(-0 3.207578412e-14 -5.701749352e-07)
(-0 -1.095616068e-07 -1.095615954e-07)
(-0 -0 0)
(-0 -0 0)
(-0 -0 0)
(-0 -0 0)
(-0 -0 0)
(-0 -0 0)
(-0 -0 0)
(-0 -0 0)
(-0 -0 0)
(-0 -0 0)
(-0 0 0)
(-0 -3.380541395e-06 3.380541396e-06)
(-0 -1.622305365e-14 -8.95184454e-15)
(-0 0 -0)
(-0 0 -0)
(-0 0 -0)
(-0 0 -0)
(-0 0 -0)
(-0 0 -0)
(-0 0 -0)
(-0 0 -0)
(-0 0 -0)
(-0 0 -0)
(-0 0 -0)
(-0 0 -0)
(-0 0 -0)
(-0 0 -0)
(-0 0 -0)
(-0 0 -0)
(-0 3.215087325e-07 3.215087076e-07)
(-0 5.7802841e-07 5.780284067e-07)
(-0 9.408815494e-07 8.040672819e-14)
(-0 0 0)
(-0 -0 0)
(-0 -0 0)
(-0 -0 0)
(-0 -0 0)
(-0 -0 0)
(-0 -0 0)
(-0 -1.721245062e-06 9.195191296e-14)
(-0 -1.0570572e-06 1.057057194e-06)
(-0 -3.49172033e-06 3.491719943e-06)
(-0 -2.750391094e-13 -5.999272292e-06)
(-0 0 -0)
(-0 0 -0)
(-0 0 -0)
(-0 0 -0)
(-0 0 -0)
(-0 0 -0)
(-0 0 -0)
(-0 0 -0)
(-0 0 -0)
(-0 0 -0)
(-0 0 -0)
(-0 0 -0)
(-0 0 -0)
(-0 0 -0)
(-0 0 -0)
(-0 0 -0)
(-0 0 -0)
(-0 2.146410602e-06 2.099760133e-14)
(-0 3.570960284e-06 3.570960225e-06)
(-0 2.002834539e-06 2.00283462e-06)
(-0 -2.108746754e-06 5.911693865e-14)
(-0 -1.595818012e-06 4.726957657e-14)
(-0 -9.171540411e-07 3.905334093e-14)
(-0 -2.049713852e-07 4.410794901e-14)
(-0 4.89487105e-07 5.237662874e-14)
(-0 -2.44052507e-06 2.44052511e-06)
(-0 -3.788062069e-06 3.788061979e-06)
(-0 -5.686669503e-06 -1.81381516e-14)
(-0 -0 -0)
(-0 -1.990451733e-13 -1.341461955e-06)
(-0 0 -0)
(-0 0 -0)
(-0 0 -0)
(-0 0 -0)
(-0 0 -0)
(-0 0 -0)
(-0 0 -0)
(-0 0 -0)
(-0 0 -0)
(-0 0 -0)
(-0 0 -0)
(-0 0 -0)
(-0 0 0)
(-0 0 0)
(-0 0 0)
(-0 0 0)
(-0 0 0)
(-0 0 0)
(-0 0 0)
(-0 4.526728303e-22 5.150829419e-22)
(-0 -7.19472065e-21 6.294482725e-22)
(-0 -2.626048651e-21 2.458894545e-22)
(-0 -1.17069948e-22 1.529659599e-23)
(-0 -3.92053971e-22 1.734323615e-22)
(-0 4.123518888e-22 7.113582185e-23)
(-0 -1.095076656e-21 5.267349577e-23)
(-0 -0 0)
(-0 -0 0)
(-0 -0 0)
(-0 -1.819159462e-13 -2.337016836e-08)
(-0 0 -0)
(-0 0 -0)
(-0 0 -0)
(-0 0 -0)
(-0 0 -0)
(-0 0 -0)
(-0 0 -0)
(-0 0 -0)
(-0 0 -0)
(-0 0 -0)
(-0 0 -0)
(-0 0 0)
(-0 0 0)
(-0 0 0)
(-0 0 0)
(-0 0 0)
(-0 0 0)
(-0 2.156702052e-06 -3.441329067e-15)
(-0 3.078236298e-06 -3.078236234e-06)
(-0 1.668237052e-06 -1.668237126e-06)
(-0 -2.186933189e-06 -4.974943112e-14)
(-0 -1.66042545e-06 -3.973011903e-14)
(-0 -9.698262556e-07 -3.303725855e-14)
(-0 -2.462801232e-07 -3.933803726e-14)
(-0 4.602565274e-07 -4.859815935e-14)
(-0 -2.387260345e-06 -2.387260382e-06)
(-0 -3.749755938e-06 -3.749755846e-06)
(-0 -5.741414301e-06 2.003113238e-14)
(-0 -0 0)
(-0 -2.004137136e-13 1.294507214e-06)
(-0 0 -0)
(-0 0 -0)
(-0 0 -0)
(-0 0 -0)
(-0 0 -0)
(-0 0 -0)
(-0 0 -0)
(-0 0 -0)
(-0 0 -0)
(-0 0 -0)
(-0 0 -0)
(-0 0 0)
(-0 0 0)
(-0 0 0)
(-0 0 0)
(-0 0 0)
(-0 1.935015732e-07 -1.935015356e-07)
(-0 4.611896536e-07 -4.61189653e-07)
(-0 7.719302404e-07 -7.516232277e-14)
(-0 0 -0)
(-0 -0 -0)
(-0 -0 -0)
(-0 -0 -0)
(-0 -0 -0)
(-0 -0 -0)
(-0 -0 -0)
(-0 -1.753691717e-06 -9.230653448e-14)
(-0 -1.098951373e-06 -1.098951367e-06)
(-0 -3.569393847e-06 -3.569393457e-06)
(-0 -2.777462213e-13 5.990981957e-06)
)
;

boundaryField
{
    lowerWall
    {
        type            calculated;
        value           nonuniform 0();
    }
    atmosphere
    {
        type            calculated;
        value           uniform (-0 -0 0);
    }
    rightWall
    {
        type            empty;
    }
    leftWall
    {
        type            empty;
    }
    frontAndBack
    {
        type            calculated;
        value           nonuniform 0();
    }
    procBoundary2to0
    {
        type            processor;
        value           nonuniform List<vector> 
30
(
(-0 0 0)
(-0 0 0)
(-0 0 0)
(-0 0 0)
(-0 0 0)
(-0 0 0)
(-0 0 0)
(-0 0 0)
(-0 0 0)
(-0 0 0)
(-0 0 0)
(-0 0 0)
(-0 0 0)
(-0 0 -0)
(-0 0 -0)
(-0 3.445324801e-14 -4.873430538e-07)
(-0 -8.959996966e-08 -8.959995534e-08)
(-0 -0 0)
(-0 -0 0)
(-0 -0 0)
(-0 -0 0)
(-0 -0 0)
(-0 -0 0)
(-0 -0 0)
(-0 -0 0)
(-0 -0 0)
(-0 -0 0)
(-0 0 0)
(-0 -3.334907569e-06 3.334907579e-06)
(-0 -1.546315529e-14 -7.566572755e-15)
)
;
    }
    procBoundary2to3
    {
        type            processor;
        value           nonuniform List<vector> 
20
(
(-0 -3.665340078e-14 -2.935421771e-06)
(-0 -2.08327771e-14 -1.096253854e-06)
(-0 -1.716419049e-14 1.852461043e-07)
(-0 -2.112996001e-14 1.478109538e-06)
(-0 -3.743756431e-14 3.356585078e-06)
(-0 -1.852923429e-13 1.285931001e-06)
(-0 -1.197347749e-13 -1.258915942e-06)
(-0 -0 -0)
(-0 -0 -0)
(-0 -0 -0)
(-0 -0 0)
(-0 -0 0)
(-0 -0 0)
(-0 -1.192353077e-13 1.362402192e-06)
(-0 -1.853048298e-13 -1.175655253e-06)
(-0 -3.764484314e-14 -3.237447248e-06)
(-0 -2.140716429e-14 -1.340604329e-06)
(-0 -1.756376424e-14 -2.329869985e-08)
(-0 -2.148707905e-14 1.293649587e-06)
(-0 -3.784712732e-14 3.190563975e-06)
)
;
    }
    procBoundary2to4
    {
        type            processor;
        value           nonuniform List<vector> 
30
(
(-0 0 -0)
(-0 0 -0)
(-0 0 -0)
(-0 0 -0)
(-0 0 -0)
(-0 0 -0)
(-0 0 -0)
(-0 0 -0)
(-0 0 -0)
(-0 0 -0)
(-0 0 -0)
(-0 0 0)
(-0 0 0)
(-0 0 0)
(-0 0 0)
(-0 3.843899636e-14 8.595505071e-07)
(-0 -2.112901588e-07 2.112901494e-07)
(-0 -0 -0)
(-0 -4.893137185e-23 -3.313819076e-22)
(-0 -0 -0)
(-0 -0 -0)
(-0 -0 -0)
(-0 -0 -0)
(-0 -2.204660687e-22 -5.011608212e-22)
(-0 -0 -0)
(-0 -0 -0)
(-0 -0 -0)
(-0 -1.0233201e-23 -4.904487702e-22)
(-0 -3.467412425e-06 -3.467412426e-06)
(-0 -1.644986595e-14 8.839506103e-15)
)
;
    }
}


// ************************************************************************* //
