/*--------------------------------*- C++ -*----------------------------------*\
  =========                 |
  \\      /  F ield         | OpenFOAM: The Open Source CFD Toolbox
   \\    /   O peration     | Website:  https://openfoam.org
    \\  /    A nd           | Version:  6
     \\/     M anipulation  |
\*---------------------------------------------------------------------------*/
FoamFile
{
    version     2.0;
    format      ascii;
    class       volScalarField;
    location    "0.0044";
    object      ViscousDissipation;
}
// * * * * * * * * * * * * * * * * * * * * * * * * * * * * * * * * * * * * * //

dimensions      [1 -1 -3 0 0 0 0];

internalField   nonuniform List<scalar> 
600
(
2.950074381e-19
5.035417476e-19
8.035779895e-19
1.240007497e-18
1.880724143e-18
2.815313706e-18
4.149949139e-18
5.985584332e-18
8.360029696e-18
1.11148397e-17
1.362599806e-17
1.442096312e-17
1.148956139e-17
7.965416758e-18
3.632480114e-17
9.731791538e-17
7.326178529e-17
2.261041983e-17
1.137739427e-16
4.012742193e-16
7.867314288e-17
3.1115964e-17
1.002791916e-17
2.281885123e-17
5.143572361e-17
5.013065155e-16
4.09153908e-16
1.167376957e-17
5.945945543e-18
5.772200898e-20
2.001584342e-19
3.523309847e-19
5.967480278e-19
9.817432074e-19
1.58057697e-18
2.493714684e-18
3.847074301e-18
5.773070309e-18
8.35760288e-18
1.152870875e-17
1.487957424e-17
1.753614046e-17
1.861258469e-17
2.017193438e-17
3.708054732e-17
1.260285196e-16
2.325982876e-16
2.325666729e-16
4.148590051e-16
3.508944712e-16
1.301371505e-15
2.144432839e-16
2.649722982e-17
1.257073431e-16
8.787138787e-16
1.436770233e-16
1.30820124e-16
3.564094832e-17
6.302949839e-18
7.856400703e-18
1.257980809e-19
2.322772667e-19
4.240614512e-19
7.494438594e-19
1.283065634e-18
2.130814855e-18
3.431348126e-18
5.341630266e-18
7.991172516e-18
1.138925108e-17
1.530403256e-17
1.92652562e-17
2.312067628e-17
2.894380458e-17
4.554830889e-17
9.879776909e-17
1.382721225e-16
8.762045758e-17
3.670054968e-16
5.439666741e-16
1.826591654e-19
6.2358191e-19
3.903200249e-19
4.996646825e-19
1.030795303e-19
1.659656755e-16
3.007138897e-17
1.705907678e-16
3.540538717e-17
3.888899602e-18
7.540058858e-20
1.49324622e-19
2.965179735e-19
5.620942177e-19
1.017641804e-18
1.768024976e-18
2.955575798e-18
4.748807202e-18
7.296370539e-18
1.061716518e-17
1.441466253e-17
1.793596861e-17
2.044515063e-17
2.416827959e-17
4.340989572e-17
1.32949038e-16
2.299250687e-16
2.27516954e-16
4.150478185e-16
3.558224833e-16
1.314240483e-15
2.152005406e-16
2.586927747e-17
1.279706141e-16
8.921381701e-16
1.478252457e-16
1.30051748e-16
3.429256945e-17
6.265964989e-18
7.475479529e-18
4.684428334e-20
1.002124207e-19
2.122506302e-19
4.227416155e-19
7.966275736e-19
1.432249328e-18
2.468162219e-18
4.076072507e-18
6.415533036e-18
9.497538484e-18
1.287135811e-17
1.512731574e-17
1.399478193e-17
1.163242396e-17
3.783160412e-17
9.580043191e-17
7.349189467e-17
2.331147669e-17
1.106805732e-16
4.091967357e-16
8.264785792e-17
3.314081789e-17
1.073574563e-17
2.414112741e-17
5.284892551e-17
5.020292614e-16
4.00977447e-16
1.009837305e-17
5.509572282e-18
5.830573616e-20
3.337886327e-20
7.437330875e-20
1.593907088e-19
3.218247402e-19
6.178135153e-19
1.135556756e-18
2.005157391e-18
3.399623717e-18
5.505534942e-18
8.406681628e-18
1.174692483e-17
1.396288539e-17
1.139624732e-17
3.422076761e-18
3.322909274e-17
3.045682757e-17
1.14589842e-16
2.566016725e-16
9.418460761e-17
8.425904403e-17
3.296326721e-17
1.992880844e-17
1.329159987e-17
1.652216843e-17
2.732581947e-17
8.650795959e-17
2.029781961e-16
5.604978959e-16
2.173774157e-16
1.678811276e-18
2.691765289e-20
5.925106077e-20
1.229564147e-19
2.449601512e-19
4.71945067e-19
8.801823357e-19
1.587743632e-18
2.7642136e-18
4.627673515e-18
7.405035036e-18
1.119970262e-17
1.56526574e-17
1.905774107e-17
2.265170078e-17
2.475336195e-17
2.874304159e-17
2.2383094e-16
7.047618274e-17
1.976524239e-17
1.857940098e-17
1.402907914e-17
1.118189447e-17
9.280762699e-18
9.434626553e-18
1.121421791e-17
1.515001317e-17
1.631785479e-17
8.756429141e-17
7.055533873e-17
1.634707329e-19
2.148974599e-20
4.581449031e-20
9.197612187e-20
1.811407782e-19
3.512461556e-19
6.666612201e-19
1.230598405e-18
2.196681457e-18
3.772886536e-18
6.212466103e-18
9.806794967e-18
1.483912084e-17
2.115266176e-17
1.593977296e-17
1.108609155e-17
1.393705362e-16
1.41968296e-16
4.266651693e-18
2.352096098e-18
5.743291962e-18
6.610839585e-18
6.318030737e-18
5.545973323e-18
4.827365895e-18
4.280102012e-18
4.040510051e-18
3.819826711e-18
2.357935273e-18
5.198702018e-17
8.040239034e-17
1.500005557e-20
3.129434357e-20
6.310570201e-20
1.27078149e-19
2.541952049e-19
4.989644936e-19
9.504546076e-19
1.738674043e-18
3.018667081e-18
4.902945551e-18
7.353204718e-18
1.017995376e-17
1.559383572e-17
7.841276372e-18
5.374685637e-18
1.499116381e-16
4.783517324e-17
4.354355863e-18
2.02846159e-18
2.848933068e-18
3.742648509e-18
3.955367363e-18
3.440754825e-18
2.508248536e-18
1.547681771e-18
1.033150191e-18
1.197789791e-18
1.571987958e-18
2.685917268e-18
1.268398302e-17
8.609360413e-21
1.806245308e-20
3.931505183e-20
8.596213735e-20
1.843727868e-19
3.826076273e-19
7.603881755e-19
1.430067607e-18
2.496127065e-18
3.899039246e-18
5.061834435e-18
4.705985751e-18
3.406040187e-18
6.272513357e-18
5.977913582e-20
1.000235391e-16
3.829876944e-17
2.12726364e-18
4.849997708e-19
1.525979667e-18
2.614780906e-18
3.002535251e-18
2.56417538e-18
1.59303636e-18
5.886450064e-19
1.044887395e-19
3.571685474e-19
9.011412555e-19
1.291653549e-18
1.157415057e-18
4.522659042e-21
9.96197993e-21
2.530718804e-20
6.257210374e-20
1.45894274e-19
3.206697031e-19
6.644240745e-19
1.290328484e-18
2.312367109e-18
3.698835358e-18
4.923389011e-18
4.727525942e-18
3.418963074e-18
4.820924648e-18
3.239245969e-20
1.00227952e-16
3.845222519e-17
2.180714062e-18
5.084985349e-19
1.539704117e-18
2.623454351e-18
3.007517285e-18
2.565493276e-18
1.590339554e-18
5.824237339e-19
9.713282224e-20
3.505144795e-19
8.952051378e-19
1.282884461e-18
1.133928042e-18
3.796888403e-21
8.726840886e-21
2.301965261e-20
5.844303832e-20
1.390148038e-19
3.1064144e-19
6.542357624e-19
1.297885978e-18
2.412890753e-18
4.163930206e-18
6.603545251e-18
9.563042691e-18
1.46246572e-17
6.82989331e-18
5.553857795e-18
1.499651545e-16
4.789154548e-17
4.386871157e-18
2.068154205e-18
2.88718922e-18
3.771313126e-18
3.97327217e-18
3.447404915e-18
2.502074973e-18
1.529731025e-18
1.009111257e-18
1.174605674e-18
1.547508684e-18
2.651795061e-18
1.255378938e-17
5.51373598e-21
1.266100886e-20
2.992381543e-20
6.996568147e-20
1.584188148e-19
3.439093609e-19
7.127859319e-19
1.407122837e-18
2.640640531e-18
4.705379358e-18
7.97288822e-18
1.282441358e-17
1.910670647e-17
1.4817897e-17
9.64985072e-18
1.391525795e-16
1.415354203e-16
4.206849035e-18
2.419400314e-18
5.823080121e-18
6.672001872e-18
6.361118999e-18
5.571146428e-18
4.830400288e-18
4.256971552e-18
3.996584052e-18
3.760897488e-18
2.301107472e-18
5.220193024e-17
8.022771344e-17
7.619181756e-21
1.804925712e-20
4.073431839e-20
9.010052512e-20
1.946752517e-19
4.072222436e-19
8.1962624e-19
1.580362752e-18
2.906371107e-18
5.066768116e-18
8.285975714e-18
1.24767613e-17
1.655438864e-17
2.32454933e-17
1.756032309e-17
2.496089538e-17
2.242290567e-16
7.091719055e-17
2.009155031e-17
1.877305699e-17
1.415161085e-17
1.127650473e-17
9.361277465e-18
9.496231075e-18
1.122739416e-17
1.507423283e-17
1.617805131e-17
8.784331199e-17
7.076279992e-17
1.637808376e-19
8.598727381e-21
2.19547873e-20
5.092495576e-20
1.121588797e-19
2.377047749e-19
4.849937888e-19
9.507178277e-19
1.783463686e-18
3.178156632e-18
5.30139249e-18
8.017657264e-18
1.018563039e-17
8.657700071e-18
2.189965081e-18
2.517830868e-17
2.318622967e-17
1.148749314e-16
2.57071399e-16
9.473824739e-17
8.444770509e-17
3.309443838e-17
2.010898588e-17
1.35080673e-17
1.677674028e-17
2.751227617e-17
8.640946499e-17
2.024856843e-16
5.596612277e-16
2.183881722e-16
1.681556597e-18
8.652721012e-21
2.421514307e-20
5.931989397e-20
1.327983608e-19
2.800573621e-19
5.62846085e-19
1.082137481e-18
1.986996452e-18
3.460067151e-18
5.629512565e-18
8.309616469e-18
1.04943057e-17
1.015352092e-17
8.382363607e-18
3.041101422e-17
7.35685853e-17
6.175666686e-17
2.345121934e-17
1.101277907e-16
4.073544067e-16
8.181049209e-17
3.336508175e-17
1.106129017e-17
2.482934523e-17
5.338395139e-17
5.013066444e-16
4.015297572e-16
1.066279057e-17
6.102693869e-18
5.775384601e-20
9.474694537e-21
2.714951074e-20
6.78292056e-20
1.519684308e-19
3.173548031e-19
6.28764936e-19
1.190480138e-18
2.154511953e-18
3.708373049e-18
6.009900014e-18
9.032092223e-18
1.236899134e-17
1.545909574e-17
2.00530419e-17
3.913303161e-17
1.252208766e-16
1.983174315e-16
2.097556177e-16
3.999241162e-16
3.465604889e-16
1.292490961e-15
2.110631818e-16
2.499979148e-17
1.265903107e-16
8.847902457e-16
1.454065432e-16
1.282534755e-16
3.478155338e-17
5.376203569e-18
8.680895305e-18
1.280450943e-20
3.324755887e-20
7.864745764e-20
1.700820009e-19
3.460645524e-19
6.720963548e-19
1.253205532e-18
2.242500937e-18
3.831994391e-18
6.202249994e-18
9.421258041e-18
1.33897819e-17
1.823421889e-17
2.612618531e-17
4.626963273e-17
1.053632656e-16
1.450055651e-16
9.659102907e-17
3.451154174e-16
5.235287433e-16
1.77152374e-19
6.122936708e-19
3.841367088e-19
4.933314542e-19
1.009975384e-19
1.62849665e-16
2.839895927e-17
1.731684948e-16
3.313491665e-17
3.113919742e-18
1.882851343e-20
4.259964534e-20
9.112571464e-20
1.848829378e-19
3.611274735e-19
6.833491419e-19
1.253876691e-18
2.22228397e-18
3.77352828e-18
6.062643262e-18
9.058919173e-18
1.234903135e-17
1.535121841e-17
1.974243989e-17
3.824406508e-17
1.229475887e-16
1.950401131e-16
2.081191471e-16
3.999056111e-16
3.462066223e-16
1.291565432e-15
2.106952014e-16
2.500849214e-17
1.267474006e-16
8.84803299e-16
1.453304118e-16
1.278455513e-16
3.314307981e-17
5.36794961e-18
7.885983735e-18
2.5614601e-20
5.200004028e-20
1.007635403e-19
1.906044429e-19
3.557444501e-19
6.554936664e-19
1.187360561e-18
2.096694402e-18
3.562648369e-18
5.709455644e-18
8.34306266e-18
1.043968339e-17
9.952111339e-18
8.030849659e-18
3.04387312e-17
7.210554482e-17
5.967648973e-17
2.354784731e-17
1.104799214e-16
4.082888834e-16
8.169461845e-17
3.318550238e-17
1.095959345e-17
2.470046639e-17
5.321486848e-17
5.008308896e-16
4.016345636e-16
1.076302836e-17
5.897456779e-18
5.778604474e-20
)
;

boundaryField
{
    lowerWall
    {
        type            calculated;
        value           nonuniform 0();
    }
    atmosphere
    {
        type            calculated;
        value           nonuniform List<scalar> 
20
(
2.281381969e-19
1.602401237e-19
1.049870103e-19
6.525920781e-20
4.045122534e-20
2.687862581e-20
1.966296639e-20
1.481908556e-20
1.045074992e-20
6.593776251e-21
4.094596431e-21
3.40441353e-21
4.060188645e-21
5.059483148e-21
5.699057276e-21
6.162245063e-21
7.370319017e-21
1.018612876e-20
1.45532688e-20
1.920991258e-20
)
;
    }
    rightWall
    {
        type            empty;
    }
    leftWall
    {
        type            empty;
    }
    frontAndBack
    {
        type            calculated;
        value           nonuniform 0();
    }
    procBoundary2to0
    {
        type            processor;
        value           nonuniform List<scalar> 
30
(
4.042900846e-19
6.739909211e-19
1.023364787e-18
1.491982993e-18
2.140641568e-18
3.044767722e-18
4.287166176e-18
5.939241032e-18
8.016852867e-18
1.037858987e-17
1.248353497e-17
1.288160718e-17
8.820393175e-18
1.999997982e-18
3.973331332e-17
3.294784847e-17
1.20823716e-16
2.659533667e-16
9.839569195e-17
8.244103316e-17
3.00185676e-17
1.764320684e-17
1.190038348e-17
1.56417746e-17
2.77579789e-17
8.986399774e-17
2.067169158e-16
5.563406155e-16
2.133259355e-16
1.686080287e-18
)
;
    }
    procBoundary2to3
    {
        type            processor;
        value           nonuniform List<scalar> 
20
(
1.435056316e-16
1.860922253e-16
2.418357159e-16
1.863852562e-16
1.417982993e-16
4.899696499e-16
1.062582801e-16
3.404919444e-17
1.392487135e-17
1.468325068e-18
1.447623802e-18
1.383512301e-17
3.403067464e-17
1.069677908e-16
4.919882178e-16
1.437198117e-16
1.84909449e-16
2.396791533e-16
1.846538006e-16
1.441246421e-16
)
;
    }
    procBoundary2to4
    {
        type            processor;
        value           nonuniform List<scalar> 
30
(
3.004665136e-20
5.650032177e-20
1.012758419e-19
1.804195459e-19
3.240483902e-19
5.862755945e-19
1.060006896e-18
1.891236205e-18
3.274809572e-18
5.377065447e-18
8.051493896e-18
1.012042388e-17
8.409309764e-18
1.867228709e-18
2.550329475e-17
2.33745697e-17
1.139550637e-16
2.566741968e-16
9.511959694e-17
8.514787487e-17
3.317724104e-17
1.993753527e-17
1.331026027e-17
1.659779309e-17
2.742735891e-17
8.645528476e-17
2.02471496e-16
5.595177932e-16
2.186749777e-16
1.681227337e-18
)
;
    }
}


// ************************************************************************* //
