/*--------------------------------*- C++ -*----------------------------------*\
  =========                 |
  \\      /  F ield         | OpenFOAM: The Open Source CFD Toolbox
   \\    /   O peration     | Website:  https://openfoam.org
    \\  /    A nd           | Version:  10
     \\/     M anipulation  |
\*---------------------------------------------------------------------------*/
FoamFile
{
    format      ascii;
    class       volScalarField;
    location    "0.0005";
    object      alpha.metal;
}
// * * * * * * * * * * * * * * * * * * * * * * * * * * * * * * * * * * * * * //

dimensions      [0 0 0 0 0 0 0];

internalField   nonuniform List<scalar> 
16000
(
0.0001844067278
0.0001013831784
7.048460391e-06
1.141168365e-07
-1.042257814e-15
-1.686532193e-21
3.904008775e-13
3.408917375e-11
1.468867953e-10
9.245291597e-85
0
3.23343829e-84
2.212155976e-12
1.055632031e-12
1.514609799e-13
1.129963493e-16
7.226308275e-18
5.06354179e-18
5.640083595e-18
1.051069818e-17
1.050047741e-17
5.606335021e-18
4.980909919e-18
6.864350511e-18
5.470452537e-17
1.537096951e-13
1.122466392e-12
2.80023728e-12
2.040005747e-89
-2.708959279e-82
3.584045844e-86
1.586449021e-10
3.735949139e-11
4.770061632e-13
-2.103124361e-21
-1.132785926e-15
1.154629418e-07
7.052597723e-06
0.0001014660901
0.000184302542
0.01366110973
0.000179306495
9.911413741e-05
8.199218158e-06
-1.829017495e-13
-4.492890296e-21
-7.817352014e-20
-4.984198429e-19
2.856312308e-13
-1.207903467e-15
3.122440728e-09
1.036657816e-09
1.930026364e-17
9.582980166e-16
4.601870903e-15
2.620474243e-13
3.164352312e-14
2.98148291e-15
5.053804944e-15
8.52457551e-15
8.577093427e-15
5.154988949e-15
3.015008804e-15
2.652910213e-14
3.333031326e-13
9.666483276e-15
1.651976853e-15
3.552724933e-17
1.028871099e-09
3.241274519e-09
-1.215226995e-15
2.411474239e-13
-4.779851813e-19
-7.739404694e-20
-4.410162319e-21
-1.865217955e-13
8.201615396e-06
9.915525988e-05
0.0001791633161
0.01361342092
0.4191963799
0.2535637287
0.1087860367
0.005832914094
6.229594713e-05
8.165859886e-15
3.090649749e-13
1.422494837e-11
9.840368141e-10
1.193091098e-07
1.582058025e-11
5.533949155e-10
3.488304112e-14
3.92575822e-09
2.445710744e-10
7.544241561e-14
1.997490556e-13
5.544143997e-14
5.0904649e-14
7.376968539e-14
7.392381227e-14
4.99557189e-14
5.011312113e-14
1.836101701e-13
1.858241104e-13
2.962460917e-10
4.438422222e-09
4.420230271e-14
5.707065863e-10
1.457607244e-11
1.177654998e-07
9.428764078e-10
1.363377803e-11
2.969015838e-13
7.842935542e-15
6.212064185e-05
0.00581320532
0.1087378562
0.25336369
0.4189206802
0.7221998028
0.7805241962
0.8169374571
0.5208237882
0.3286868896
0.08077787866
0.009974301689
1.170272254e-05
1.674219475e-06
2.033253919e-07
4.571319089e-06
4.905769997e-10
5.128964147e-08
1.28455883e-08
1.787458187e-09
7.739364307e-14
7.359660429e-13
2.606154384e-13
4.455102305e-13
1.279788351e-12
1.223417429e-12
4.608043149e-13
2.342061919e-13
9.040254971e-13
1.918246827e-13
8.436309186e-10
1.129569577e-08
5.675102961e-08
5.778200393e-10
4.533117651e-06
2.008526113e-07
1.664420263e-06
1.161497805e-05
0.009894998973
0.08057227429
0.328424447
0.5205943102
0.8168242692
0.7803596417
0.7220187289
0.6699820495
0.9123017665
0.9380533769
1
1
0.977973775
0.523434104
0.1807385249
0.004434502892
3.433901781e-07
4.076039634e-07
6.840998797e-06
7.04739393e-10
2.803449928e-09
4.302757005e-09
8.059546761e-14
1.941332207e-12
1.218140898e-12
1.923628574e-12
8.733301996e-12
1.070070162e-11
2.161809487e-12
1.194623893e-12
1.650106454e-12
1.990098758e-13
5.013798164e-09
2.194943506e-09
8.211415779e-10
6.820247635e-06
4.104251662e-07
3.433116226e-07
0.004301800826
0.1802802506
0.522849347
0.9777484034
1
1
0.9380639119
0.9122575215
0.6699374409
0.9999999836
0.9999999997
1
1.000000001
0.9999999777
1
0.9999944983
0.8980070999
0.4221519842
0.05457393766
1.587431568e-07
1.098362466e-07
4.098549245e-06
3.886607596e-08
1.237092414e-13
9.047448352e-14
4.938871813e-12
2.07866342e-11
2.491208592e-11
5.611785221e-11
5.611785221e-11
2.696684243e-11
2.157949602e-11
4.405909465e-12
2.100501817e-13
2.414409926e-13
5.042000635e-08
4.220728034e-06
1.122367336e-07
1.613602201e-07
0.0542581448
0.4213040358
0.8974851929
0.9999945091
1
0.9999999779
1
0.9999999958
0.9999999907
0.9999999994
1
1
1
1
1
1
1
0.9999944975
0.9999735303
0.7041348659
0.1248188
3.88363398e-08
5.341690566e-06
3.442756386e-07
1.211335779e-13
1.182821124e-13
1.211342004e-13
5.669345257e-12
1.807808376e-11
4.783987014e-11
4.561414663e-11
1.866300838e-11
6.745250062e-12
2.358098963e-13
2.320287654e-13
2.358090253e-13
3.62890317e-07
5.45719459e-06
3.986117965e-08
0.1243593008
0.7032546734
0.9999734375
0.9999945083
1
1
1
1
1
1
1
1
1
1
1
1
1
1
1
0.9999997163
0.9999957289
0.9001872865
0.2303970132
6.438725029e-09
2.992190743e-11
2.112936365e-12
-1.487578189e-13
1.055791575e-07
1.363539416e-12
1.381364779e-12
1.522918405e-12
1.712992499e-12
1.754599565e-12
1.770791275e-12
8.923740064e-08
-1.421331407e-13
2.566631812e-12
6.270553816e-11
6.835913099e-09
0.2299333526
0.8998460491
0.9999956402
0.9999997154
1
1
1
1
1
1
1
1
1
1
1
1
1
1
1
1
1
0.9999999488
0.9999957562
0.9978977091
0.4313328593
0.004092178
-3.699284602e-11
2.662909579e-09
1.415966537e-07
3.544847611e-08
6.572026463e-08
1.005017829e-07
9.985130351e-08
6.313851603e-08
3.602066377e-08
1.334939944e-07
5.986930125e-09
-3.474040358e-12
0.004045418778
0.4311516259
0.9978334108
0.9999956663
0.9999999476
1
1
1
1
1
1
1
1
1
1
1
1
1
1
1
1
1
1
1
0.9999999819
0.9999998177
0.9999999886
0.6818771359
0.1348443688
2.701061231e-09
9.059284188e-10
7.019474943e-10
8.950305498e-10
1.162457078e-09
1.123988412e-09
8.68894057e-10
6.85795193e-10
8.950415616e-10
2.599267376e-09
0.1348072771
0.6819359458
0.9999999932
0.999999815
0.9999999796
1
1
1
1
1
1
1
1
1
1
1
1
1
1
1
1
1
1
1
1
1
0.999999999
0.9999999905
0.9999999988
0.897453099
0.4955088496
0.1501283181
0.02590647374
1.162457078e-09
1.817022772e-09
1.769553447e-09
1.123988412e-09
0.0259423999
0.150143774
0.49554595
0.8975079971
1
0.9999999977
0.9999999983
0.9999999962
1
1
1
1
1
1
1
1
1
1
1
1
1
1
1
1
1
1
1
1
1
1
0.999999999
1
0.9999999988
0.9999997183
0.9817765345
0.8427901171
0.6707865279
0.5876857598
0.5877103169
0.6707596333
0.8427591937
0.9817634701
0.9999997048
0.9999999985
1
0.9999999992
0.9999999993
1
1
1
1
1
1
1
1
1
1
1
1
1
1
1
1
1
1
1
1
1
1
1
1
1.000000004
0.9999999999
0.9999999727
0.9999999993
0.9999999979
0.9999990587
0.999972401
0.9999725305
0.9999990601
1
0.9999999995
0.9999999452
1
0.9999999979
1
1
1
1
1
1
1
1
1
1
1
1
1
1
1
1
1
1
1
1
1
1
1
1
1
1
1
1
1
0.9999999973
0.9999999946
0.9999999961
0.9999999987
1
0.9999999971
1.000000002
0.9999999934
0.9999999988
1
1
1
1
1
1
1
1
1
1
1
1
1
1
1
1
1
1
1
1
1
1
1
1
1
1
1
1
1
1
1
1
1
1
0.9999999971
1.000000002
1
1
1
1
1
1
1
1
1
1
1
1
1
1
1
1
1
1
1
1
1
1
1
1
1
1
1
1
1
1
1
1
1
1
1
1
1
1
1
1
1
1
1
1
1
1
1
1
1
1
1
1
1
1
1
1
1
1
1
1
1
1
1
1
1
1
1
1
1
1
1
1
1
1
1
1
1
1
1
1
1
1
1
1
1
1
1
1
1
1
1
1
1
1
1
1
1
1
1
1
1
1
1
1
1
1
1
1
1
1
1
1
1
1
1
1
1
1
1
1
1
1
1
1
1
1
1
1
1
1
1
1
1
1
1
1
1
1
1
1
1
1
1
1
1
1
1
1
1
1
1
1
1
1
1
1
1
1
1
1
1
1
1
1
1
1
1
1
1
1
1
1
1
1
1
1
1
1
1
1
1
1
1
1
1
1
1
1
1
1
1
1
1
1
1
1
1
1
1
1
1
1
1
1
1
1
1
1
1
1
1
1
1
1
1
1
1
0.9999999999
0.9999999999
0.0001616207396
7.674490268e-05
6.2480242e-06
7.307242261e-09
-3.723079901e-15
3.29054922e-18
4.182322802e-15
3.899349482e-14
7.789045715e-14
1.80634669e-13
1.054140569e-12
-2.603179211e-38
1.411711702e-17
5.302737111e-14
1.258828013e-14
8.686633923e-17
1.146728942e-17
6.542856608e-18
4.72513485e-18
5.712738915e-18
5.708137375e-18
4.742536318e-18
6.920709402e-18
1.107721023e-17
9.405136428e-17
1.351415147e-14
9.104282469e-14
3.280109931e-17
-5.206358422e-38
5.345706106e-13
1.449908334e-13
9.65507765e-14
4.469406517e-14
4.785756669e-15
3.913307603e-18
-4.413568288e-15
8.731358886e-09
6.285694027e-06
7.712462699e-05
0.0001619387485
0.008364948038
0.0001555827136
7.535259245e-05
7.041758524e-06
-5.313341619e-13
-9.896707456e-15
-2.864043894e-14
-5.340174447e-14
-1.12194527e-17
2.593679344e-15
2.250173277e-10
4.79308742e-10
1.425406419e-17
1.227223342e-17
7.307420195e-15
2.487255554e-13
1.050527194e-14
2.76846671e-15
3.382041592e-15
4.930730748e-15
4.944000585e-15
3.420497799e-15
2.739109209e-15
1.185941062e-14
3.902700275e-13
1.801299295e-14
3.54692521e-17
3.289211953e-17
4.182958103e-10
2.218086726e-10
2.62289255e-15
-1.111802132e-17
-1.630190497e-14
-1.057911762e-14
-3.93238931e-15
-5.428451155e-13
7.089634352e-06
7.574997834e-05
0.0001561930382
0.008331435561
0.3974931007
0.2374563345
0.1034198827
0.006326184753
4.212917229e-05
-3.211914471e-20
-1.061354805e-24
-1.875660597e-21
-3.056687079e-13
2.923691648e-07
9.524785352e-12
1.29499389e-09
1.13539754e-09
3.568403384e-09
7.309397334e-15
5.161927699e-13
5.945647596e-14
3.177652946e-14
3.95325475e-14
4.945552189e-14
4.93933454e-14
3.935471613e-14
3.219697369e-14
7.11899618e-14
7.560577535e-13
1.802515166e-14
3.564063378e-09
3.54692521e-17
1.037678903e-09
8.77147072e-12
2.883395359e-07
-2.836200481e-13
0
1.700074314e-24
3.33206939e-21
4.222422596e-05
0.006331757818
0.1034860354
0.2373830028
0.3972627934
0.7305707015
0.7821329964
0.8108371768
0.52372362
0.3254428502
0.08907424559
0.009465067288
9.219487202e-06
1.215478792e-06
3.270981639e-07
4.623220512e-06
5.252391732e-10
2.28978729e-08
8.89463162e-09
7.019075632e-11
8.059572226e-14
7.916138745e-13
1.576380262e-13
2.496130757e-13
3.86362919e-13
3.818351225e-13
2.480391656e-13
1.590819651e-13
6.822316435e-13
1.990102987e-13
8.277664884e-11
8.062228724e-09
2.458089434e-08
6.710518493e-10
4.584020872e-06
3.220512341e-07
1.189635412e-06
9.089697423e-06
0.00939890816
0.08894309406
0.3253399431
0.5237182992
0.8108215406
0.7820018384
0.730430599
0.6633308108
0.9019612134
0.931145494
1
1
0.9924142401
0.5540060139
0.199760473
0.01050243147
3.015662854e-07
2.325143077e-07
5.970042978e-06
2.850791292e-10
2.941969701e-09
5.442085703e-09
3.664502079e-10
6.989454369e-13
6.911460935e-13
8.386693941e-13
1.665933011e-12
1.695616124e-12
8.341739454e-13
7.041227628e-13
6.815571405e-13
7.231484725e-10
1.081415099e-08
3.780143552e-09
3.602737493e-10
5.980824867e-06
2.357861139e-07
3.048789432e-07
0.01034305723
0.1992228774
0.5534754242
0.9922569993
1
1.000000001
0.9311578287
0.9019051606
0.6633124232
0.9999999921
0.999999999
0.9999999965
0.9999999982
0.9999999612
1
0.9999956403
0.9168879363
0.4597710404
0.06777769013
1.929525297e-08
4.994600421e-08
4.132338953e-06
1.159889587e-09
1.135262879e-09
7.30198388e-11
2.461326054e-12
1.126856422e-11
1.211848945e-11
2.157336623e-11
2.173082673e-11
1.250929224e-11
1.196369592e-11
2.040883139e-12
1.395255969e-10
2.721565467e-09
2.772901154e-09
4.244247669e-06
5.113350318e-08
2.017854901e-08
0.06736120475
0.4588302479
0.9164538979
0.999995617
1
0.99999996
0.9999999989
0.9999999991
0.9999999977
0.9999999984
1
1
1
1
1
1
1
0.9999952653
0.9999792045
0.7428697797
0.1525209451
1.820242411e-08
1.451242592e-06
5.856523991e-07
1.128157725e-12
1.188239887e-13
2.272141835e-13
2.464747179e-12
4.006598174e-12
1.404545809e-11
1.35727429e-11
4.259726678e-12
2.910495117e-12
3.336666214e-13
2.332836889e-13
2.051431085e-12
5.765473094e-07
1.445395532e-06
1.91668938e-08
0.1519475506
0.7419935225
0.9999790809
0.9999952625
1
1
1
1
1
1
1
1
1
1
1
1
1
1
1.000000003
0.9999997787
0.9999960275
0.9227461013
0.2861897266
8.529304279e-09
2.014014207e-11
1.727917636e-11
1.128131109e-12
6.796981846e-08
1.363541471e-12
1.363539059e-12
1.381364779e-12
1.522918405e-12
1.700622939e-12
1.754599565e-12
6.535803398e-08
2.051404889e-12
3.720808187e-11
4.063702134e-11
8.437298157e-09
0.2856150589
0.9224625382
0.9999959656
0.9999997774
1.000000003
1
1
1
1
1
1
1
1
1
1
1
1
1
1
1
1
0.999999961
0.9999999115
0.9999952296
0.4936165522
0.01682879962
1.984593546e-11
2.213844984e-10
7.240971605e-08
1.133930707e-08
2.537163079e-08
5.78353304e-08
5.75131918e-08
2.388330115e-08
1.090725513e-08
7.069323558e-08
2.188388815e-10
4.034344889e-11
0.01676679657
0.4933392931
0.9999951843
0.9999999113
0.9999999603
1
1
1
1
1
1
1
1
1
1
1
1
1
1
1
1
1
1
1
1
0.9999999579
0.9999999965
0.7414897549
0.1653501523
0.002610092072
5.934849722e-10
5.599617413e-10
7.019474943e-10
8.950305498e-10
8.68894057e-10
6.85795193e-10
5.493628074e-10
5.826151415e-10
0.002612339762
0.1652703363
0.7414388659
0.9999999961
0.9999999573
1
1
1
1
1
1
1
1
1
1
1
1
1
1
1
1
1
1
1
1
1
1.000000001
1
0.9999999997
0.9999999969
0.9318033025
0.5745666064
0.215534282
0.05156199319
0.006925373211
1.186830158e-09
1.156106897e-09
0.006891868786
0.05154498702
0.2154707243
0.5745068574
0.9317549666
0.9999999966
0.9999999997
1
1
1
1
1
1
1
1
1
1
1
1
1
1
1
1
1
1
1
1
1
1
1
1
1
1
0.9999998082
0.9999999833
0.9999999984
0.9056391694
0.7581915184
0.6783121378
0.6782836745
0.7582272056
0.9055695061
0.9999999977
0.9999999639
0.9999998107
0.9999999997
1
1
1
1
1
1
1
1
1
1
1
1
1
1
1
1
1
1
1
1
1
1
1
1
1
1
1.000000004
1
1
1
0.9999999984
0.9999845606
0.9999988502
0.9999988472
0.999984965
0.9999999978
1
0.9999999635
1
0.9999999939
1
1
1
1
1
1
1
1
1
1
1
1
1
1
1
1
1
1
1
1
1
1
1
1
1
1
1
1
1.000000001
0.9999999966
0.9999999926
0.9999999885
1
1
1.000000012
0.9999999956
0.9999999936
0.9999999994
1
1
1
1
1
1
1
1
1
1
1
1
1
1
1
1
1
1
1
1
1
1
1
1
1
1
1
1
1
1
1
1
1
1
1
1
1
1
1
1
1
1
1
1
1
1
1
1
1
1
1
1
1
1
1
1
1
1
1
1
1
1
1
1
1
1
1
1
1
1
1
1
1
1
1
1
1
1
1
1
1
1
1
1
1
1
1
1
1
1
1
1
1
1
1
1
1
1
1
1
1
1
1
1
1
1
1
1
1
1
1
1
1
1
1
1
1
1
1
1
1
1
1
1
1
1
1
1
1
1
1
1
1
1
1
1
1
1
1
1
1
1
1
1
1
1
1
1
1
1
1
1
1
1
1
1
1
1
1
1
1
1
1
1
1
1
1
1
1
1
1
1
1
1
1
1
1
1
1
1
1
1
1
1
1
1
1
1
1
1
1
1
1
1
1
1
1
1
1
1
1
1
1
1
1
1
1
1
1
1
1
1
1
1
1
1
1
1
1
1
1
1
1
1
1
1
1
1
1
1
1
1
1
1
1
1
1
1
1
1
1
1
1
1
1
1
1
1
1
1
1
1
1
1
1
0.0001359098045
6.732655752e-05
1.064478192e-05
1.853563108e-07
4.983379852e-20
-1.638985849e-20
-3.741477923e-20
6.260718513e-14
8.761685484e-12
7.095411434e-11
4.666174065e-11
2.939995851e-13
9.976391217e-16
-5.780218994e-39
1.014655767e-15
3.765558878e-17
1.597655199e-17
2.221507471e-17
6.719800846e-18
5.567567157e-18
5.579791396e-18
6.994450784e-18
2.573434138e-17
1.693887573e-17
3.978394363e-17
1.371275983e-15
2.552553525e-16
1.761603844e-15
3.634753747e-13
4.611356642e-11
7.370828217e-11
9.119861209e-12
6.481301865e-14
-3.870705785e-20
-1.695415114e-20
5.155723136e-20
1.894427604e-07
1.07724259e-05
6.778424426e-05
0.0001370728412
0.005802534111
0.0001498385289
6.680091125e-05
1.139170351e-05
-2.125074494e-12
-6.601855203e-16
-3.666940514e-16
-3.708980577e-19
-5.796912755e-16
6.628919615e-16
2.709683559e-13
2.596170994e-12
1.227223342e-17
1.866875885e-19
6.753229148e-13
2.84660696e-14
4.250049373e-15
3.290496101e-15
3.079653843e-15
3.727014582e-15
3.710473448e-15
3.100114158e-15
3.625652909e-15
4.455222081e-15
2.46183235e-14
5.732636373e-13
5.738122898e-17
3.54692521e-17
2.493543886e-12
1.589939266e-14
7.362946759e-16
-5.909917019e-16
-3.74345573e-19
-1.056036845e-24
-4.938367841e-17
-2.159787249e-12
1.153865568e-05
6.730228553e-05
0.0001489487288
0.005761956541
0.38671443
0.2360892921
0.1132187491
0.01390746011
4.693049169e-05
-4.224860904e-12
-8.768908616e-14
-1.954086884e-14
-1.492024254e-11
4.222282222e-07
7.38727168e-13
2.030870037e-08
7.247612532e-09
7.981306593e-10
3.275594835e-14
2.207295647e-13
6.965981162e-14
2.87929799e-14
3.781941729e-14
4.793576948e-14
4.813138422e-14
3.776266052e-14
2.996615658e-14
7.063897367e-14
2.91542036e-13
3.895199364e-14
7.385519514e-10
8.012681669e-09
2.233449842e-08
5.055288092e-13
4.115872277e-07
-1.379328552e-11
-1.746107574e-14
-8.507188548e-14
-4.267474437e-12
4.715333657e-05
0.01398027796
0.1133861132
0.2362997874
0.3864143088
0.7346776484
0.7998195705
0.8222006893
0.5815347686
0.3615951425
0.1266913315
0.009396153434
1.598054236e-05
1.23509567e-06
1.106670339e-06
6.98206066e-06
3.787343936e-10
1.038178963e-08
1.982726534e-09
5.819377934e-14
3.055946526e-12
1.583221061e-12
2.7177418e-13
1.676820394e-13
2.080310264e-13
2.088396311e-13
1.673778569e-13
2.911999614e-13
1.450115702e-12
1.239314163e-12
5.985994827e-14
1.622316245e-09
1.312609205e-08
5.587519516e-10
6.953185151e-06
1.041669883e-06
1.183209483e-06
1.566188976e-05
0.009315357438
0.1265476809
0.3616171614
0.5818465545
0.8222526037
0.7998343541
0.7346066678
0.641131685
0.8557630927
0.8972369084
0.9999999979
1
0.999996598
0.6166099646
0.2211565388
0.01819502644
1.307167654e-07
5.246214372e-08
1.184134753e-06
1.489171702e-11
4.17385955e-10
1.751474493e-09
7.036425245e-11
1.62474028e-11
1.937187837e-12
1.054662985e-12
1.567004269e-12
1.547110128e-12
1.031418263e-12
2.213552644e-12
1.311348753e-11
6.250266135e-11
3.934846643e-09
6.686942623e-10
1.562570448e-11
1.221439905e-06
5.448792833e-08
1.331088193e-07
0.01799537703
0.2205245673
0.6160038291
0.9999965707
1
0.999999998
0.8972520469
0.8557621677
0.6411260464
0.9999999988
0.9999999961
0.9999999946
1
0.9999999918
1
0.9999966027
0.9574293363
0.5211614445
0.08964995941
9.504472308e-09
5.508647391e-07
1.350062463e-06
4.031148044e-08
9.491170876e-12
2.722469095e-11
3.470625302e-11
1.74806937e-11
1.304494239e-11
1.77103466e-11
1.7733509e-11
1.308365351e-11
1.794274635e-11
2.888579018e-11
2.809548471e-11
9.541620677e-12
3.268098132e-08
1.373510714e-06
5.810263759e-07
9.890609275e-09
0.08911739609
0.5201123888
0.9570424528
0.9999965754
1
0.9999999839
0.9999999997
0.9999999986
0.9999999969
0.9999999837
1
1
1
1
1
1
1.000000001
0.9999974517
0.9999871779
0.8148495821
0.2038642439
9.966162445e-09
1.695233264e-09
9.508912398e-10
1.246661604e-09
2.22424785e-09
5.102556006e-13
1.371163199e-11
2.341367031e-12
2.137784526e-12
2.166135841e-12
2.343900543e-12
1.366450785e-11
4.184247459e-13
3.258315446e-09
2.092181801e-09
1.652154918e-09
1.753716731e-09
1.046141169e-08
0.2031412866
0.8140551762
0.9999871077
0.9999974432
1.000000001
1
1
1
1
1
1
1
1
1
1
1
1
1
1
0.9999998852
0.9999955113
0.9709688521
0.3978840618
0.0004677769375
1.119456461e-10
1.080868323e-10
4.973422735e-10
3.058656866e-09
4.431926174e-10
1.580070787e-09
1.586920717e-09
1.273534264e-09
1.48331119e-09
4.37246353e-10
4.128260201e-09
4.964322951e-10
1.207516941e-10
1.260656896e-10
0.000376434178
0.3971804759
0.9706732326
0.9999955701
0.9999998854
1
1
1
1
1
1
1
1
1
1
1
1
1
1
1
1
1
1
0.9999999944
0.999999907
0.6295029864
0.05792678993
1.296614885e-10
-8.287932869e-09
6.422371193e-10
4.575915544e-10
2.837434818e-08
6.813850006e-08
6.804989153e-08
2.757785033e-08
4.47233983e-10
6.638025508e-10
-8.41433641e-09
1.416351247e-10
0.05781161435
0.6291232234
0.9999999059
0.9999999931
1
1
1
1
1
1
1
1
1
1
1
1
1
1
1
1
1
1
1
1
0.9999999988
0.9999999961
0.9999998988
0.8329853261
0.2602886393
0.0287236386
5.599617412e-10
5.204440106e-10
5.599617423e-10
9.21186041e-10
8.998592324e-10
5.493628083e-10
5.112663684e-10
5.493628073e-10
0.02871225734
0.260081078
0.8328529403
0.9999998967
0.9999999952
0.9999999963
1
1
1
1
1
1
1
1
1
1
1
1
1
1
1
1
1
1
1
1
1
1
0.9999999968
0.9999997038
0.9980831287
0.7076217707
0.3700509638
0.1443836927
0.05249628128
0.02659124101
0.02659562283
0.05247386216
0.1442531905
0.3699098431
0.7074743
0.9980525768
0.9999997034
0.9999999964
0.9999999987
1
1
1
1
1
1
1
1
1
1
1
1
1
1
1
1
1
1
1
1
1
1
1
0.9999999921
0.9999999994
1
1
1
0.9997909108
0.9065939669
0.8518733159
0.8518727886
0.9064822404
0.9997852878
1
0.9999999994
1
0.9999999989
0.9999999875
1
1
1
1
1
1
1
1
1
1
1
1
1
1
1
1
1
1
1
1
1
1
1
1
1
0.9999999989
0.9999999899
1.000000013
1
1
1
1
1
0.9999999996
1
1
0.9999999703
0.9999999959
0.9999999979
1
1
1
1
1
1
1
1
1
1
1
1
1
1
1
1
1
1
1
1
1
1
1
1
1
1
1
1
1
1.000000001
0.9999999958
0.999999999
1.00000002
1.000000033
0.9999999965
0.9999999924
1.000000003
1
1
1
1
1
1
1
1
1
1
1
1
1
1
1
1
1
1
1
1
1
1
1
1
1
1
1
1
1
1
1
1
1
1
1
1
1
1
1
1
1
1
1
1
1
1
1
1
1
1
1
1
1
1
1
1
1
1
1
1
1
1
1
1
1
1
1
1
1
1
1
1
1
1
1
1
1
1
1
1
1
1
1
1
1
1
1
1
1
1
1
1
1
1
1
1
1
1
1
1
1
1
1
1
1
1
1
1
1
1
1
1
1
1
1
1
1
1
1
1
1
1
1
1
1
1
1
1
1
1
1
1
1
1
1
1
1
1
1
1
1
1
1
1
1
1
1
1
1
1
1
1
1
1
1
1
1
1
1
1
1
1
1
1
1
1
1
1
1
1
1
1
1
1
1
1
1
1
1
1
1
1
1
1
1
1
1
1
1
1
1
1
1
1
1
1
1
1
1
1
1
1
1
1
1
1
1
1
1
1
1
1
1
1
1
1
1
1
1
1
1
1
1
1
1
1
1
1
1
1
1
1
1
1
1
1
1
1
1
1
1
1
1
1
1
1
1
1
1
1
1
1
1
1
1
1
0.0001377169002
6.199441044e-05
2.340545068e-05
2.281673818e-06
1.615398453e-19
1.443314702e-21
4.644848862e-18
1.499470837e-15
5.00790964e-14
2.400060013e-13
8.881211658e-13
1.348647573e-11
4.062917992e-13
-8.530057783e-34
2.455325995e-14
1.271691146e-16
2.114391009e-17
1.96721454e-17
1.001433091e-17
8.487250422e-18
8.533054394e-18
1.062947303e-17
2.041453418e-17
2.169689247e-17
1.199267493e-16
2.745585185e-14
1.274145589e-13
3.553989995e-13
1.278536878e-11
8.848838281e-13
2.521753682e-13
5.250320186e-14
1.572907713e-15
5.146207352e-18
1.487365605e-21
1.700104172e-19
2.306073745e-06
2.374332982e-05
6.256738182e-05
0.0001393371467
0.002431267105
0.0001406377629
6.27316252e-05
2.458791899e-05
2.566733803e-06
3.742070116e-23
-2.039733095e-24
2.566276865e-18
1.916428432e-16
5.837920341e-16
2.306240832e-15
1.206363116e-14
5.912137392e-11
1.753120553e-12
2.647049779e-14
2.068390008e-14
9.367604229e-15
5.894649196e-15
3.621503307e-14
4.122107033e-14
4.127283959e-14
3.664105795e-14
6.105338253e-15
1.007401207e-14
2.316215592e-14
7.766989886e-14
4.170413523e-14
5.738121943e-17
4.854732352e-15
2.435289203e-15
6.23751702e-16
2.123212091e-16
5.416395325e-18
1.320852402e-18
-7.15874283e-23
2.59830086e-06
2.495374563e-05
6.336507217e-05
0.0001422349049
0.002415305454
0.3518854093
0.2257320003
0.1078600112
0.02288066515
9.450613555e-05
6.610128457e-07
-9.192167936e-14
-4.579431525e-11
-1.400979517e-10
-1.256378761e-12
1.262907351e-10
1.525528052e-08
5.835813488e-11
1.068103086e-10
3.985464842e-11
8.047211989e-13
3.879167402e-13
5.978762917e-14
1.881745955e-13
5.450739469e-13
5.582513595e-13
1.91418799e-13
6.268190497e-14
3.579004722e-13
4.415016668e-13
1.35611992e-11
5.658797992e-11
1.630451541e-10
1.790486022e-08
1.483891565e-10
-1.147484983e-12
-1.317425145e-10
-4.444684756e-11
-9.203601052e-14
6.491486019e-07
9.521212064e-05
0.02309782334
0.1082615482
0.2262289167
0.3516680619
0.7378438897
0.7660996297
0.8104206326
0.594009927
0.3302728605
0.1675971609
0.0004922893381
3.215526361e-05
2.01662116e-06
6.443482907e-06
1.229869633e-05
3.842084304e-10
4.992541857e-11
8.818454803e-13
1.569564981e-13
1.352260499e-11
2.06736386e-11
1.504898945e-12
1.328314101e-12
1.626835939e-12
1.622909529e-12
1.325973907e-12
1.491885201e-12
1.953575605e-11
1.612629905e-11
1.60426454e-13
4.985579359e-13
1.695962022e-10
5.681317948e-10
1.237854438e-05
6.49942548e-06
1.932483363e-06
3.149264753e-05
0.0004275391435
0.1676814757
0.3308620531
0.5949608836
0.8106199305
0.7663198109
0.7379723737
0.6194587968
0.8097265321
0.8797793429
0.9999999996
1.000000002
1
0.7240322443
0.2780870314
0.03579161887
1.032214658e-07
2.866580913e-08
1.487645065e-11
1.300877023e-11
1.085879626e-11
8.818454803e-13
4.546151906e-11
5.288433444e-11
1.484455726e-11
1.067390657e-12
1.692889334e-12
1.670063288e-12
1.043827652e-12
1.441924656e-11
4.997227658e-11
3.200138109e-11
4.985579359e-13
8.086067605e-12
1.278166678e-11
1.561198818e-11
2.913390481e-08
1.046424887e-07
0.03543211588
0.2772387026
0.7235128453
1
1.000000001
1
0.8797973191
0.8097127073
0.6194169007
0.9999999907
0.9999999928
0.99999999
0.9999999985
1.000000004
0.9999999883
0.9999999979
0.9980694962
0.6261516793
0.1417672122
8.079599983e-09
3.335371393e-09
9.719133595e-12
3.396110837e-10
8.894681833e-12
4.463133651e-12
5.264250944e-11
2.172530593e-11
4.095492873e-12
3.884691071e-12
3.865141401e-12
4.100162341e-12
2.172616392e-11
4.54729077e-11
3.933376303e-12
8.422375068e-12
2.829789977e-10
1.184886694e-11
3.447586845e-09
8.383582561e-09
0.1409446603
0.625040677
0.9979476377
0.9999999957
0.9999999838
0.999999998
0.9999999991
0.9999999953
0.9999999936
0.999999916
1
1
1
1
1
1
1.000000001
0.9999998863
0.9999923129
0.8986566418
0.3211460689
0.002538015423
8.940570532e-10
4.201060307e-10
-4.728181808e-12
-7.989485774e-10
2.468736122e-12
2.013290751e-12
2.137784526e-12
1.78628934e-12
1.847636157e-12
2.166135841e-12
1.804842485e-12
1.839521498e-12
-8.083022566e-10
-4.162684162e-12
3.554916409e-10
9.097676831e-10
0.002404003981
0.3199184837
0.8978826599
0.9999923164
0.9999998858
1.000000001
1
1
1
1
1
1
1
1
1
1
1
1
1
0.9999999999
0.9999999979
0.9999978769
0.9999999837
0.5813598741
0.03974238477
2.946057618e-09
-2.320042863e-08
-1.048840816e-08
2.335439095e-12
7.053523061e-09
2.869687032e-08
2.250439492e-08
2.297241177e-08
2.895520127e-08
7.08534616e-09
1.63938137e-12
-1.04534766e-08
-2.340597701e-08
2.893395866e-09
0.03948823362
0.5803264616
0.999999984
0.9999978027
0.9999999952
0.9999999999
1
1
1
1
1
1
1
1
1
1
1
1
1
1
1
0.9999999996
1
1
0.9999999837
0.7952594682
0.1630370959
0.002486953569
2.844510782e-05
-8.055363658e-09
8.847602661e-10
1.022024379e-09
1.39806207e-08
1.386031811e-08
1.001314212e-09
8.638320444e-10
-8.223967175e-09
2.899578433e-05
0.002471405066
0.1627597531
0.7948370775
0.9999999842
0.9999999997
1
0.9999999967
1
1
1
1
1
1
1
1
1
1
1
1
1
1
1
1
1
1
1
1
0.9999999832
0.9625646925
0.462848082
0.1128344811
0.00969000971
5.599617412e-10
9.211860109e-10
1.664703413e-09
1.635951053e-09
8.998592324e-10
5.493628073e-10
0.009676716857
0.1127622691
0.4625952067
0.9623975595
0.9999999831
1
0.9999999997
1
1
1
1
1
1
1
1
1
1
1
1
1
1
1
1
1
1
1
1
1
1
1
0.9999998735
1
0.914184416
0.6044889345
0.375505642
0.2245683813
0.1630334868
0.163011283
0.224433883
0.3753009921
0.6042684098
0.9139585498
1
0.9999998733
1
1
1
1
1
1
1
1
1
1
1
1
1
1
1
1
1
1
1
1
1
1
1
1
1
0.9999999974
1
1.000000006
1.000000006
1
1
1
0.9835940657
0.9835313574
0.9999999994
0.9999999998
0.9999999995
1
1.000000001
1
0.9999999949
1
1
1
1
1
1
1
1
1
1
1
1
1
1
1
1
1
1
1
1
1
1
1
1
1
1
0.9999999972
0.9999999993
1.000000006
1.000000002
1
1
0.9999999996
0.9999999997
1
0.9999999586
0.9999999801
0.9999999978
1
1
1
1
1
1
1
1
1
1
1
1
1
1
1
1
1
1
1
1
1
1
1
1
1
1
1
1
1
1
1
1.000000001
1.000000003
1.000000003
0.9999999975
0.9999999936
1.000000002
1
1
1
1
1
1
1
1
1
1
1
1
1
1
1
1
1
1
1
1
1
1
1
1
1
1
1
1
1
1
1
1
1
1
1
1
1
1
1
1
1
1
1
1
1
1
1
1
1
1
1
1
1
1
1
1
1
1
1
1
1
1
1
1
1
1
1
1
1
1
1
1
1
1
1
1
1
1
1
1
1
1
1
1
1
1
1
1
1
1
1
1
1
1
1
1
1
1
1
1
1
1
1
1
1
1
1
1
1
1
1
1
1
1
1
1
1
1
1
1
1
1
1
1
1
1
1
1
1
1
1
1
1
1
1
1
1
1
1
1
1
1
1
1
1
1
1
1
1
1
1
1
1
1
1
1
1
1
1
1
1
1
1
1
1
1
1
1
1
1
1
1
1
1
1
1
1
1
1
1
1
1
1
1
1
1
1
1
1
1
1
1
1
1
1
1
1
1
1
1
1
1
1
1
1
1
1
1
1
1
1
1
1
1
1
1
1
1
1
1
1
1
1
1
1
1
1
1
1
1
1
1
1
1
1
1
1
1
1
1
1
1
1
1
1
1
1
1
1
1
1
1
1
1
1
1
1
0.0002170824333
9.6117052e-05
5.221272357e-05
4.015433805e-06
3.659409199e-20
7.722372576e-36
-3.552181791e-26
1.133725914e-18
4.862099672e-14
3.313527315e-12
1.792055488e-11
8.67632883e-12
6.730848789e-13
5.226837651e-13
5.035967508e-14
1.287944402e-15
1.062341788e-16
5.252156353e-17
2.332100119e-15
3.824856441e-16
4.64758408e-16
2.302249965e-15
5.749954533e-17
1.096044548e-16
1.203102832e-15
2.222497956e-14
5.89432557e-13
6.569698279e-13
9.196639132e-12
2.221481841e-11
4.12540129e-12
6.030163283e-14
1.472799703e-18
-7.836870674e-26
-3.699340156e-37
4.593497427e-20
4.082232312e-06
5.276998267e-05
9.672121522e-05
0.0002185768869
0.000644552212
0.0002232354348
9.752277904e-05
5.351562251e-05
4.818754077e-06
3.551227334e-20
2.550212095e-19
8.368828083e-19
4.609293045e-18
8.035948981e-16
1.09204883e-14
2.772409755e-13
1.454366492e-12
6.380982807e-13
1.828449913e-13
4.44254243e-14
1.977097801e-14
6.896086216e-14
3.578492446e-13
3.133184727e-13
3.139506339e-13
3.577135634e-13
6.886861523e-14
2.044031769e-14
4.469215589e-14
2.177840118e-13
7.589376243e-13
4.61029818e-13
2.866798252e-13
1.089393995e-14
1.002080843e-15
4.7831859e-18
-5.149420715e-23
-3.41140471e-25
4.695822139e-20
4.900078572e-06
5.410505638e-05
9.820140264e-05
0.0002248188914
0.0006508272899
0.3127271452
0.220470405
0.1201326154
0.04424383885
0.0006181227658
9.055121096e-07
-1.043148761e-13
-2.23726169e-13
-5.862143995e-11
6.478730519e-07
1.933160104e-06
3.644304703e-13
4.701761605e-09
2.433485636e-13
1.834028826e-13
5.395538821e-13
6.842231716e-13
1.058910912e-13
4.97476416e-13
3.135640872e-13
3.141190333e-13
4.988136002e-13
1.21195526e-13
6.126442864e-13
5.766637851e-13
2.183115663e-13
2.434879284e-13
6.268966864e-09
3.780677418e-13
1.912376813e-06
6.47034344e-07
-5.453094501e-11
-2.091285589e-13
-1.120055083e-13
9.746579477e-07
0.000636400645
0.0446742431
0.1205412519
0.2212369046
0.3127955736
0.6997942138
0.7609985401
0.8024664817
0.6687475515
0.4285665982
0.2635510719
0.02670572459
0.001313178103
6.623780632e-07
9.651595078e-07
1.209750007e-05
6.220147662e-07
3.383903037e-11
3.439083499e-08
2.960506256e-09
5.409756896e-13
1.378220898e-11
1.444293266e-11
3.337118632e-13
3.205946211e-13
3.212081831e-13
3.343155042e-13
1.240992634e-11
1.238752313e-11
5.782618657e-13
2.52102114e-09
3.473573568e-08
3.577341476e-11
6.34892126e-07
1.217044754e-05
9.573746386e-07
6.243338451e-07
0.001269529862
0.02666014839
0.263730188
0.429526289
0.6701364153
0.8026727679
0.7612490081
0.6997599177
0.5996440868
0.780999578
0.8454244782
0.9999999905
1
1
0.8593966545
0.3934367275
0.07868997042
1.461354399e-05
9.989113276e-08
3.375897064e-11
1.488267243e-11
5.518945021e-10
6.287547214e-09
6.324415803e-13
2.934134503e-11
9.382728386e-11
8.502591675e-10
3.337118632e-13
3.343155042e-13
8.47184417e-10
8.757358537e-11
2.674855431e-11
6.732780162e-13
6.259691235e-09
5.592435285e-10
1.561766428e-11
3.569719095e-11
1.011999536e-07
1.412214483e-05
0.07815908175
0.3924898261
0.8588891401
1
1.000000001
0.9999999905
0.8454464337
0.7809837812
0.5996394507
0.9999999854
0.9999999892
0.9999999862
0.9999999999
0.9999999942
1.000000002
1
0.9999974896
0.7642292279
0.2397693247
0.007164878139
5.190965347e-09
-9.417247989e-10
3.831338552e-10
-8.730099032e-11
1.516305231e-12
5.70298462e-12
6.050378933e-12
1.587485541e-10
3.589918534e-13
3.576091525e-13
1.517317821e-10
5.69131797e-12
5.361878985e-12
1.410268954e-12
-9.68034672e-11
3.205076204e-10
-9.200743579e-10
5.433655559e-09
0.006981428764
0.2386062078
0.7632597556
0.9999974718
1
0.9999999913
1.000000001
0.9999999991
0.9999999896
0.99999999
0.9999999919
1
1
1
1
1
1
1
1
0.9999974907
0.9934039758
0.5245886654
0.05361092133
-6.490521759e-10
2.624865177e-09
1.068775061e-07
-5.349621195e-11
-5.68222641e-10
6.296762845e-09