/*--------------------------------*- C++ -*----------------------------------*\
  =========                 |
  \\      /  F ield         | OpenFOAM: The Open Source CFD Toolbox
   \\    /   O peration     | Website:  https://openfoam.org
    \\  /    A nd           | Version:  10
     \\/     M anipulation  |
\*---------------------------------------------------------------------------*/
FoamFile
{
    format      ascii;
    class       surfaceScalarField;
    location    "0.0005";
    object      alphaPhi.metal;
}
// * * * * * * * * * * * * * * * * * * * * * * * * * * * * * * * * * * * * * //

dimensions      [0 3 -1 0 0 0 0];

internalField   nonuniform List<scalar> 
46000
(
-5.757207556e-15
-6.524973204e-15
6.476502661e-15
-6.164471247e-15
-1.473754202e-14
3.157894692e-15
-7.594591094e-16
-1.080988231e-14
1.15065515e-15
-3.384097645e-17
-1.013239748e-15
6.886666195e-17
-7.444695613e-24
-3.428394217e-17
6.178822429e-19
-7.530334552e-24
8.235048926e-26
5.560959355e-27
-1.276783725e-22
3.037839104e-23
2.275904081e-25
-1.599347034e-21
9.751151861e-22
7.807369822e-25
-3.839906896e-90
1.754675591e-20
1.048452887e-23
0
1.157792131e-88
1.142959245e-92
0
0
0
6.835834885e-89
3.237194654e-85
2.111350829e-89
2.134582795e-25
1.364390703e-22
-1.891390075e-32
-6.502007894e-26
7.845791945e-23
-8.984131309e-27
-8.116949597e-29
1.172621953e-23
-2.897939105e-27
-3.401255924e-30
9.229634279e-27
-1.368792096e-29
-1.43105696e-30
1.928830705e-27
-1.129601385e-30
-9.70882092e-31
1.381651105e-27
-5.347600801e-31
-9.90678913e-31
1.567612397e-27
-4.122239231e-31
2.101527804e-32
2.945605749e-27
-4.623534789e-31
1.030869341e-30
2.942917415e-27
-4.612367158e-31
9.775117846e-31
1.558503011e-27
-4.143244874e-31
1.42773762e-30
1.359489106e-27
-5.309250192e-31
3.191544133e-30
1.83114886e-27
-1.042457874e-30
4.055211455e-29
1.414474518e-26
-1.247697893e-29
6.70088171e-26
1.19168219e-23
-3.012439984e-27
-2.652038399e-25
8.392574085e-23
-1.428386699e-26
-2.833112427e-94
1.728876512e-22
1.420721462e-26
2.912512288e-95
1.343652757e-90
9.39085487e-95
-4.158111137e-94
-9.145658981e-93
-6.125170563e-95
1.774079533e-91
4.820448855e-90
5.137936777e-94
1.719297586e-21
1.757131411e-20
1.388689709e-23
1.423846486e-22
1.049972817e-21
1.368916519e-24
8.816797139e-24
3.430747117e-23
2.777952667e-25
8.716089641e-24
9.654403635e-26
6.531875169e-27
3.404563198e-17
-3.449426566e-17
6.256664043e-19
7.607369507e-16
-1.016428875e-15
6.89777349e-17
6.170120482e-15
-1.084690119e-14
1.152108391e-15
5.755207369e-15
-1.487142435e-14
3.15880064e-15
-6.569733102e-15
6.454290505e-15
-1.280075992e-13
-2.663417612e-13
2.879783084e-13
-1.6497252e-13
-1.907752032e-14
6.858469435e-14
-3.75293261e-14
-1.795767923e-13
4.994838536e-14
-9.998682428e-15
-3.302448633e-14
3.343792381e-15
-4.577390011e-24
-1.039408408e-14
4.725884195e-16
-1.610635828e-23
1.160101813e-23
1.502798593e-26
-1.14230872e-21
1.156495978e-21
3.38258649e-26
-5.279849811e-20
5.261867552e-20
7.692422386e-26
-9.608351014e-23
-3.656993214e-20
-2.951928937e-27
-1.442591255e-20
1.432384114e-20
2.630369012e-24
-1.341131182e-21
1.36178753e-19
2.240808635e-21
-1.290316713e-23
4.961033637e-20
5.449335571e-22
-6.772424833e-26
1.235529199e-22
2.437566979e-26
-2.75587833e-26
7.846444682e-23
4.937755446e-27
-7.457583572e-25
1.150443352e-23
2.125277908e-28
-8.016061263e-26
2.120967051e-23
1.806482687e-27
-5.632323862e-27
4.981061846e-24
8.518049681e-28
-4.729103968e-27
5.106765365e-25
1.937337682e-28
-5.309838103e-27
8.589770384e-25
4.684835227e-28
4.671198925e-29
1.447672422e-24
9.314223259e-28
5.469556162e-27
1.456268291e-24
1.015470772e-27
4.875322888e-27
8.744240889e-25
4.866232901e-28
5.72975871e-27
5.147762317e-25
1.955265054e-28
1.207996169e-25
4.212725403e-24
7.762966917e-28
9.519734163e-25
2.698833255e-23
4.065793335e-27
4.330788819e-26
1.335777765e-23
5.627720908e-28
7.330242256e-26
8.398365947e-23
5.996431934e-27
1.436782021e-23
1.58521712e-22
3.279037838e-26
1.338430313e-21
4.939886242e-20
5.834581758e-22
1.494541919e-20
1.417022428e-19
2.43058069e-21
9.936493364e-23
1.483975839e-20
3.062428719e-24
5.086232398e-20
-3.444908375e-20
-2.712380053e-27
1.099932492e-21
5.07429334e-20
2.296352043e-26
1.546116148e-23
1.118727843e-21
1.211468439e-26
4.417716057e-24
1.112081949e-23
1.474440262e-26
9.995268672e-15
-1.039096137e-14
4.729033278e-16
3.750447669e-14
-3.302930538e-14
3.337425181e-15
1.647418882e-13
-1.795272326e-13
4.992208134e-14
1.275296541e-13
-1.899517228e-14
6.837934875e-14
-2.617115568e-13
2.865880244e-13
-4.141704098e-12
-4.687175404e-12
9.038948356e-12
-1.4240996e-11
-8.356210912e-13
8.032749745e-12
-3.347286096e-12
-1.848261251e-11
2.740487272e-12
-7.66377576e-13
-4.150220986e-12
1.236260457e-13
-2.254556792e-14
-8.08828176e-13
2.437638112e-14
-9.660757932e-17
-2.184184292e-14
-6.855317992e-16
-1.428365193e-15
1.334612576e-15
-4.118099398e-18
-1.661505237e-16
-1.199799779e-15
-1.009898819e-16
-9.027494518e-18
-1.563709597e-16
-3.654230739e-18
-9.726726262e-22
-2.738867422e-19
2.718134214e-20
-1.128898209e-21
1.364734662e-19
9.743916132e-23
-1.733690936e-24
5.022796277e-20
1.481655968e-21
-2.373056331e-20
2.383485675e-20
1.546825965e-23
-4.75005904e-21
5.62917146e-19
2.993204781e-21
-1.782180776e-23
4.336127781e-20
1.569768062e-22
-1.246903622e-24
6.643963808e-24
4.828738431e-26
-2.773724517e-25
2.692556887e-23
1.033122199e-25
-1.574927885e-25
8.240537069e-24
3.767191894e-26
-1.138226533e-25
7.930290345e-24
3.564936387e-26
5.870081425e-28
1.180834717e-23
5.161316483e-26
1.154852459e-25
1.181811983e-23
4.603009573e-26
1.554097289e-25
7.790991108e-24
3.468499644e-26
2.337733939e-25
7.426630669e-24
3.411867492e-26
1.239795358e-24
2.572841006e-23
9.547323122e-26
3.500443882e-23
1.599630453e-23
1.137950874e-25
5.839301135e-21
4.216834491e-20
1.92313664e-22
2.667738727e-20
5.723852328e-19
3.433076731e-21
2.165941631e-24
2.681609405e-20
1.610879828e-23
1.153958838e-21
5.376716484e-20
1.516591987e-21
9.895722249e-22
1.420824919e-19
1.022115502e-22
8.934244118e-18
-2.663777607e-19
4.330425547e-20
1.65548875e-16
-1.558720946e-16
-3.539204496e-18
1.42478408e-15
-1.198116938e-15
-9.891481728e-17
8.933195431e-17
1.336996968e-15
-4.040117675e-18
2.239071137e-14
-2.170270307e-14
-6.75937029e-16
7.648311705e-13
-8.080789694e-13
2.437642713e-14
3.339490081e-12
-4.143877544e-12
1.231877631e-13
1.422555487e-11
-1.848837237e-11
2.740330357e-12
4.131198692e-12
-8.175679061e-13
8.040094146e-12
-4.679080619e-12
9.037383837e-12
-2.539618494e-12
-2.182682724e-12
2.830042332e-12
-1.135625848e-11
4.433109694e-12
6.179343855e-12
-4.231597762e-11
2.515352878e-19
1.195805448e-11
-5.966634261e-11
1.412769137e-19
4.558631837e-12
-2.362110879e-11
-4.16060585e-11
1.107933074e-12
-3.209471905e-12
-2.117218572e-11
-8.752743315e-14
-1.985752304e-13
-2.277358089e-12
-1.737925786e-13
-1.046659725e-14
-1.782440003e-13
-1.520204999e-14
-4.931435977e-16
-9.79920568e-15
-4.748119658e-16
-6.350385599e-17
-4.082656026e-16
-4.206071528e-18
-3.020972762e-20
7.75991207e-17
1.328282041e-17
-4.582240482e-19
4.698209185e-19
2.158402135e-21
-4.202333528e-19
4.387410511e-18
7.240768312e-20
-1.194504643e-19
1.123370398e-18
1.820424878e-20
-1.099710895e-23
2.108797715e-19
1.555946524e-21
-8.681083495e-24
6.077068244e-24
1.275166626e-25
-2.224750808e-24
8.484165959e-23
1.209307921e-24
-1.683859008e-24
3.402934769e-23
4.625090922e-25
-3.696299643e-24
6.096972464e-23
7.569461667e-25
1.218841808e-26
1.890658646e-22
2.143171541e-24
3.407682802e-24
1.836675631e-22
1.345601215e-24
1.644540482e-24
6.381393553e-23
8.1383265e-25
2.005865498e-24
3.081784577e-23
4.165058958e-25
1.05395916e-23
9.723321949e-23
1.489805507e-24
2.32657318e-23
1.49322822e-23
3.160456871e-25
8.380653699e-20
1.146799394e-19
8.532189985e-22
4.263902235e-19
1.024023194e-18
1.71187162e-20
5.064283834e-19
4.885908546e-18
8.062431023e-20
3.746450355e-20
5.271126373e-19
2.557874364e-21
6.279254897e-17
7.76190595e-17
1.361007783e-17
4.886703658e-16
-4.048000207e-16
-3.758970093e-18
1.03849574e-14
-9.73101438e-15
-4.606422819e-16
1.975202954e-13
-1.774183404e-13
-1.505021909e-14
3.190677628e-12
-2.267503409e-12
-1.721906434e-13
2.356402291e-11
-2.114940288e-11
-8.446564643e-14
5.958408087e-11
-4.159398056e-11
1.108153157e-12
4.225668546e-11
8.497783598e-20
4.54276955e-12
1.137996596e-11
1.879547802e-19
1.193905776e-11
2.544500613e-12
4.434641274e-12
6.309380866e-12
-2.181846534e-12
2.895060417e-12
-3.41322751e-12
-3.244689912e-19
8.94133787e-14
6.306106376e-20
2.126781268e-19
2.0666493e-20
2.372584155e-19
1.489981379e-19
-7.173607441e-21
-2.285227895e-19
-7.883364015e-20
-1.047217147e-20
-4.160605876e-11
4.326763308e-20
-5.232523895e-21
-5.290416723e-11
-1.019265502e-11
3.448220578e-13
-1.925842823e-11
-2.25884735e-11
-1.001793166e-11
-2.400863773e-12
-1.123979813e-11
-2.838539197e-12
-1.15860023e-13
-1.411737249e-12
-7.30824208e-14
-1.272334299e-16
-1.159899698e-13
-2.55107303e-15
-1.428342092e-16
1.573077506e-16
-6.853191362e-19
-1.091851661e-18
2.661162887e-16
1.871681459e-17
-1.100331388e-19
3.427281606e-18
8.967825216e-21
-1.101776661e-19
3.797623247e-19
8.986651033e-21
-3.798804064e-23
2.79869639e-19
1.138538846e-20
-3.628741184e-23
6.255563456e-24
2.992975506e-25
-1.617672764e-23
1.911305067e-22
5.870729285e-24
-1.163005525e-23
1.516397811e-22
2.583846239e-24
-3.281552786e-23
2.381401945e-22
4.805945001e-24
1.03819494e-25
7.563643242e-22
2.259327186e-23
4.863834473e-23
7.602532242e-22
2.640621607e-23
1.175124177e-23
2.69664729e-22
4.18003582e-24
1.591687145e-23
1.505382363e-22
3.326652215e-24
3.112812008e-23
1.5241872e-22
5.047019555e-24
4.201365953e-23
1.406714982e-23
6.783378499e-25
1.275614435e-19
3.281998114e-19
1.443127519e-20
9.930430144e-20
3.882739202e-19
8.850516046e-21
1.136039475e-18
3.744708576e-18
9.910275576e-21
1.421778364e-16
2.662369185e-16
1.874768888e-17
1.249659746e-16
1.584099059e-16
-6.818730783e-19
1.143155808e-13
-1.144874876e-13
-2.50031318e-15
2.376508958e-12
-1.398992736e-12
-7.21377798e-14
1.92004733e-11
-1.127408038e-11
-2.833866834e-12
5.286276165e-11
-2.266365902e-11
-1.00012136e-11
4.159398091e-11
-1.019114672e-11
3.360109779e-13
2.28628846e-19
4.330267149e-20
-5.267915792e-21
-2.373150407e-19
-7.887483493e-20
-1.051096912e-20
-6.294481117e-20
1.490127154e-19
-7.263296393e-21
3.414076162e-12
2.125716736e-19
1.956758973e-20
-8.70056097e-20
8.985599149e-14
-2.211231236e-19
-1.105236009e-19
-1.407510018e-20
-5.299299192e-20
3.782900462e-20
8.827103806e-21
4.156537957e-20
5.165734028e-20
2.729244211e-21
-3.575469833e-20
4.366285759e-21
-6.38022128e-21
-1.527689298e-20
2.840302226e-20
-5.614723329e-21
-1.019265507e-11
3.871413803e-20
-8.669939307e-21
-3.56271494e-11
9.419645799e-12
-8.825465958e-12
-4.804622955e-11
2.087323583e-11
-1.747457015e-11
-1.312818745e-11
-2.43877467e-11
-4.377382773e-12
-7.496431486e-13
-8.04761737e-12
-5.402135521e-13
-3.656527401e-16
-7.477294279e-13
-5.460100851e-15
-1.047316607e-16
4.762293001e-18
9.628526917e-19
-4.495498705e-17
4.700916377e-16
1.333001398e-17
-2.71697598e-19
6.660199106e-18
2.908942541e-19
-9.413861098e-23
7.861448967e-21
3.212315938e-22
-9.280819776e-23
6.857042179e-24
6.628385154e-25
-3.084792475e-22
3.952034046e-22
1.797470605e-23
-2.650849666e-22
1.223709842e-21
8.952971056e-23
-3.590400109e-22
1.459260504e-21
1.216833901e-22
5.415437163e-25
3.299508424e-21
3.010583422e-22
3.60761122e-22
3.302384935e-21
3.013683708e-22
2.799645121e-22
1.579458805e-21
1.305701923e-22
3.085315624e-22
1.270629784e-21
9.84669618e-23
8.37996756e-23
3.519822482e-22
1.614342416e-23
9.414558197e-23
1.315234801e-23
1.327737354e-24
3.185295478e-19
9.224808081e-21
4.537169622e-22
4.727132583e-17
8.19596134e-18
3.524519089e-19
1.073487526e-16
4.853583781e-16
1.351426622e-17
3.683794187e-16
4.881739136e-18
9.798482084e-19
7.461585405e-13
-7.442943459e-13
-5.444484352e-15
1.309164916e-11
-8.01652895e-12
-5.403883143e-13
4.799598939e-11
-2.441796549e-11
-4.390091262e-12
3.563593418e-11
2.077167632e-11
-1.751748388e-11
1.019114658e-11
9.352453565e-12
-8.861735181e-12
1.526141998e-20
3.869614329e-20
-8.711527296e-21
3.576251315e-20
2.841688493e-20
-5.641384752e-21
-4.157577271e-20
4.376772132e-21
-6.403246033e-21
5.303225676e-20
5.168605519e-20
2.681874788e-21
2.212122085e-19
3.784486451e-20
8.655889236e-21
-1.105562044e-19
-1.408176765e-20
-6.742399498e-20
-3.95145117e-20
-3.662106136e-21
-3.544249097e-20
4.020539704e-21
1.676935213e-21
-4.034162225e-21
1.967570038e-20
2.513870369e-22
-1.175579509e-20
1.444989716e-20
-2.715827539e-21
-1.297342832e-21
2.040233194e-20
-2.819643015e-21
1.73843205e-20
2.251313897e-20
-3.021469256e-21
9.419645791e-12
1.553723941e-20
-1.686949994e-21
1.306013337e-11
2.469260913e-11
-1.069714441e-11
-2.664806925e-11
2.117817424e-11
-9.435639734e-12
-2.001348622e-11
-8.462099519e-13
-5.836398006e-12
-1.139276911e-16
-1.009808964e-11
-3.034614302e-12
-2.134825861e-16
9.799546282e-17
1.941126597e-19
-6.611930355e-17
5.178991224e-16
4.487828412e-17
-7.7060066e-21
3.822396937e-17
2.615870091e-18
-5.411523143e-24
1.612259936e-22
2.288947246e-23
-5.414030435e-24
4.979657752e-24
6.339583533e-25
-1.161716087e-22
5.301367854e-22
2.30003633e-24
-1.438375399e-22
2.6181348e-22
2.430955503e-23
-3.824807598e-22
8.312156385e-22
9.229794447e-23
3.519278631e-25
2.563948652e-21
3.406293359e-22
3.485830612e-22
2.364563026e-21
3.245277342e-22
1.607759607e-22
8.356655103e-22
9.374156967e-23
1.381474299e-22
3.106968155e-22
3.083498204e-23
7.969198609e-24
4.898371966e-22
2.976234949e-24
1.057759389e-23
9.969188951e-24
1.246616311e-24
9.01737744e-21
1.97684783e-22
2.727838049e-23
7.02104836e-17
4.034343295e-17
2.696253298e-18
2.189407869e-16
5.299633731e-16
4.481083053e-17
1.165542145e-16
1.007991316e-16
1.995544225e-19
1.99976495e-11
-1.004866488e-11
-3.032288888e-12
2.677788638e-11
-9.064303487e-13
-5.900094666e-12
-1.291499908e-11
2.108926128e-11
-9.446787123e-12
-9.352453728e-12
2.46556171e-11
-1.071681144e-11
-1.736705882e-20
1.54960819e-20
-1.695901669e-21
1.296426091e-21
2.250644645e-20
-3.02845989e-21
1.176024029e-20
2.041394413e-20
-2.822137086e-21
4.042177872e-21
1.446976509e-20
-2.713357756e-21
3.546793751e-20
1.97020456e-20
2.547651955e-22
6.746290514e-20
4.040841989e-21
1.673108598e-21
-3.951466191e-20
-3.639041782e-21
-2.388883228e-20
-1.454569401e-20
-1.629441749e-21
-1.978733028e-20
-1.200785806e-22
-4.225866607e-22
-9.259965452e-21
9.471283082e-21
-7.328592904e-22
-5.803360153e-21
1.223824387e-20
-1.623667355e-21
8.090708851e-22
1.519810146e-20
-1.82934314e-21
8.387192937e-21
1.622579766e-20
-1.858372218e-21
9.534033051e-21
1.467168255e-20
-9.431674183e-22
2.469260947e-11
2.428190961e-20
2.05482859e-23
2.824914172e-11
2.076236826e-11
-5.545970077e-12
-7.169239485e-12
4.098538621e-11
-9.538031357e-12
-1.553866109e-11
2.00260239e-11
-1.872367333e-11
-5.808746008e-17
-8.155819968e-12
3.472684102e-12
-8.300795066e-19
4.591584755e-16
3.534328773e-18
-1.747671066e-21
3.751666635e-17
1.455383413e-19
-9.789692185e-20
9.895865701e-20
1.675410388e-22
-1.73917269e-18
1.022756245e-17
2.67659023e-20
-1.447656828e-22
5.481898385e-18
7.144090025e-19
-2.806518564e-23
7.064597345e-23
1.52132408e-23
-2.043882177e-23
7.49423598e-22
1.534257121e-23
1.62047077e-27
2.475717853e-21
1.853923712e-23
2.182914084e-23
2.342577891e-21
1.977206251e-23
3.500681031e-23
8.341823178e-22
1.908597932e-23
1.912982517e-22
1.05787072e-22
1.982726392e-23
1.393705451e-18
4.893306546e-18
5.990586364e-19
2.25392928e-19
2.295545361e-17
6.026731698e-20
3.793433676e-21
2.214925452e-19
3.50167471e-22
8.799068815e-19
3.957505144e-17
1.537423723e-19
5.957515607e-17
4.697641437e-16
3.606238676e-18
1.559817097e-11
-8.137622763e-12
3.457595452e-12
7.302966366e-12
2.003856143e-11
-1.873995461e-11
-2.813744332e-11
4.092797552e-11
-9.572563236e-12
-2.465561736e-11
2.073478074e-11
-5.562302967e-12
-9.428693762e-21
2.431345123e-20
4.080890661e-23
-8.347026996e-21
1.468128181e-20
-9.260108483e-22
-7.916955376e-22
1.623394913e-20
-1.843110425e-21
5.816061167e-21
1.521278522e-20
-1.811750536e-21
9.274458089e-21
1.225805932e-20
-1.60155345e-21
1.980673349e-20
9.492939705e-21
-7.056943321e-22
2.390729257e-20
-1.023542666e-22
-3.908742684e-22
-1.453558038e-20
-1.590652181e-21
-9.463216862e-21
-4.425369332e-21
-1.154777169e-21
-1.019596862e-20
1.037147103e-21
-8.678930642e-22
-6.493004661e-21
6.307942878e-21
-9.296985444e-22
-2.843502563e-21
9.42851695e-21
-1.202748753e-21
1.836767084e-21
1.149108569e-20
-1.362343255e-21
6.848735219e-21
1.221002296e-20
-1.463039112e-21
1.070311142e-20
1.158964259e-20
-1.294076183e-21
2.426783175e-20
1.082510197e-20
-5.94415826e-22
2.076236775e-11
9.636993952e-21
2.413715014e-22
4.129474451e-11
2.359129242e-11
-4.520247615e-12
2.59566244e-11
3.734467408e-11
-3.856315327e-12
-1.246636398e-11
1.171405389e-11
1.76940996e-11
5.378659522e-12
-2.248314428e-11
1.065114788e-11
4.1913816e-13
5.610541653e-12
2.663964063e-13
3.755044473e-15
4.089903985e-13
5.490809007e-15
0
3.71765933e-15
6.686303553e-17
-6.784216208e-19
9.625810552e-18
1.329254959e-18
-5.572972803e-19
1.33760839e-18
1.980723044e-19
-2.270124905e-19
1.14871731e-18
1.240565646e-19
-3.098625667e-22
2.499416306e-18
1.388026107e-19
2.22962703e-19
2.493320882e-18
1.392807242e-19
5.220596484e-19
1.103908648e-18
1.173505673e-19
6.731157125e-19
1.354950294e-18
1.896546174e-19
0
9.091096301e-18
1.253525575e-18
-3.661721673e-15
3.637881943e-15
6.616739146e-17
-4.186045627e-13
4.085743147e-13
5.444895113e-15
-5.371348277e-12
5.624616709e-12
2.642117383e-13
1.254718074e-11
-2.250732454e-11
1.060466183e-11
-2.584424003e-11
1.168208991e-11
1.767281586e-11
-4.121234849e-11
3.73668429e-11
-3.852374485e-12
-2.073478008e-11
2.357864559e-11
-4.526162418e-12
-2.41902036e-20
9.676328013e-21
2.49014025e-22
-1.064247424e-20
1.085666018e-20
-5.699294417e-22
-6.810017173e-21
1.160783357e-20
-1.266760018e-21
-1.812859453e-21
1.222445891e-20
-1.434375057e-21
2.861335271e-21
1.150696645e-20
-1.33085158e-21
6.509338471e-21
9.446278995e-21
-1.167089367e-21
1.021143952e-20
6.325781865e-21
-8.893124503e-22
9.474066463e-21
1.052601196e-21
-8.231750421e-22
-4.413008065e-21
-1.106879818e-21
-4.000700428e-21
6.300852509e-23
-8.797265719e-22
-4.92517284e-21
2.405864322e-21
-8.100425595e-22
-3.372430588e-21
5.250196572e-21
-8.304453194e-22
-7.809338238e-22
7.456218761e-21
-9.393054676e-22
2.555704355e-21
8.888833883e-21
-1.068007307e-21
6.228354845e-21
9.397201961e-21
-1.232229315e-21
9.92696198e-21
8.929297661e-21
-1.444250143e-21
1.474679303e-20
7.439976345e-21
-1.840058531e-21
2.317803528e-20
3.435249235e-21
-2.57839472e-21
2.359129251e-11
-1.295832043e-21
-1.24109941e-22
5.54347493e-11
3.339969618e-12
1.460418413e-12
4.633070481e-11
1.855988579e-11
8.657448982e-13
9.926556636e-12
1.008197265e-11
1.246621202e-12
6.147990464e-12
-5.877206311e-13
1.175163409e-11
4.350492301e-13
5.234048708e-12
2.68068234e-12
-1.691677922e-20
4.348718075e-13
3.19985033e-15
-7.387907993e-21
9.67851116e-18
2.559846271e-20
-2.952219626e-21
1.384684851e-18
6.688735386e-21
2.293071891e-22
1.25073077e-18
-1.861481693e-22
-9.5002876e-24
2.670233163e-18
-3.526914594e-21
-2.207514726e-22
2.65784084e-18
-3.46119455e-21
2.883890127e-21
1.202429001e-18
-2.028187883e-22
7.367396519e-21
1.400598303e-18
6.611960259e-21
1.646672835e-20
9.146113737e-18
2.448868776e-20
-4.227142608e-13
4.225722096e-13
3.111623002e-15
-6.120797255e-12
5.241293379e-12
2.673194209e-12
-9.929075801e-12
-5.856148037e-13
1.168445572e-11
-4.632340787e-11
1.006501568e-11
1.210019619e-12
-5.543620665e-11
1.856033537e-11
8.560581814e-13
-2.357864562e-11
3.358498379e-12
1.470980689e-12
-2.310607314e-20
-1.249274827e-21
-1.10410369e-22
-1.468943268e-20
3.471203229e-21
-2.554578097e-21
-9.879674118e-21
7.466466226e-21
-1.809538262e-21
-6.193391835e-21
8.94822116e-21
-1.410022911e-21
-2.530351913e-21
9.41274726e-21
-1.194925315e-21
8.006478189e-22
8.903840228e-21
-1.027140096e-21
3.388841341e-21
7.471315837e-21
-8.943785446e-22
4.93825885e-21
5.264681771e-21
-7.814332323e-22
4.008457204e-21
2.418836148e-21
-7.576012651e-22
7.45119878e-23
-8.252479637e-22
-1.657844632e-21
2.072438829e-21
-6.585196068e-22
-2.080840591e-21
3.180638154e-21
-6.46641796e-22
-1.166408399e-21
4.723855153e-21
-6.681074816e-22
6.516812981e-22
6.101833582e-21
-7.363355104e-22
3.064072433e-21
7.041016924e-21
-8.440488345e-22
5.760450545e-21
7.405525047e-21
-1.003225284e-21
8.437640663e-21
7.178134927e-21
-1.242946093e-21
1.074801457e-20
6.460656539e-21
-1.650233062e-21
1.072838753e-20
5.536594169e-21
-2.366652226e-21
6.381741385e-21
6.471677791e-21
-3.590337856e-21
3.33996962e-12
1.647607804e-20
-1.251958895e-20
2.157929249e-11
-5.140804978e-19
2.635554331e-13
2.312007721e-11
1.467510495e-11
-7.691962794e-12
6.994073104e-12
1.394072253e-11
-8.295233433e-13
1.350075839e-12
5.638042507e-12
5.784572675e-12
-1.190982212e-12
-9.159896584e-12
1.998352314e-11
2.770017433e-13
5.15846792e-12
1.381244333e-12
3.126159641e-13
4.936171695e-12
-4.228453042e-13
4.521791009e-16
4.214698087e-13
-1.105753258e-13
2.256822785e-20
3.100410259e-15
-2.654577796e-15
-4.429726819e-16
3.098733203e-15
-2.662074043e-15
-3.117240769e-13
4.203832832e-13
-1.103672908e-13
-2.766154932e-13
4.929445731e-12
-4.22332619e-13
1.187630135e-12
5.155214811e-12
1.386868653e-12
-1.36956969e-12
-9.151854484e-12
2.001158948e-11
-7.002688238e-12
5.623175556e-12
5.842636488e-12
-2.312097203e-11
1.391914196e-11
-8.188440066e-13
-2.159540189e-11
1.467480884e-11
-7.675194423e-12
-3.358498869e-12
1.306979004e-19
2.657450094e-13
-6.318632816e-21
1.652379601e-20
-1.256620662e-20
-1.067206243e-20
6.510690925e-21
-3.578546883e-21
-1.070011674e-20
5.566601471e-21
-2.33928355e-21
-8.397919184e-21
6.483210148e-21
-1.615912101e-21
-5.728865736e-21
7.195336797e-21
-1.203959744e-21
-3.039258945e-21
7.419736899e-21
-9.601488312e-22
-6.318765721e-22
7.053882387e-21
-7.969105731e-22
1.182207275e-21
6.113920292e-21
-6.851779998e-22
2.092413226e-21
4.735037032e-21
-6.132837875e-22
1.664133045e-21
3.19073039e-21
-5.889445352e-22
2.08170691e-21
-5.992272036e-22
-5.496453073e-22
2.867083482e-21
-4.912293804e-22
-5.376235926e-22
3.425072018e-21
-4.971925549e-22
2.115700303e-22
4.264721715e-21
-5.24000841e-22
1.59086464e-21
5.073264667e-21
-5.814886168e-22
3.428580556e-21
5.642033053e-21
-6.731163721e-22
5.533060426e-21
5.862122562e-21
-8.049454692e-22
7.720162275e-21
5.723326115e-21
-9.857870313e-22
9.823952205e-21
5.326447119e-21
-1.224939312e-21
1.167191343e-20
4.936278918e-21
-1.486496383e-21
1.434605608e-20
5.164744015e-21
-1.555899892e-21
2.543131046e-20
6.241733535e-21
-9.483011937e-22
4.773453057e-20
2.178275612e-21
7.220903982e-21
1.467510537e-11
-1.445645436e-20
-2.040537949e-21
3.046371221e-11
-3.203561532e-20
-2.852564738e-12
2.036083872e-11
1.022925113e-11
4.430291837e-12
-1.01795773e-11
8.599232312e-12
1.11283306e-11
-1.587203697e-11
-7.760753021e-12
2.117229818e-11
-7.409856091e-12
-8.65704142e-13
4.039785551e-12
-4.404918489e-12
1.070295647e-11
3.4987248e-12
9.665275108e-15
1.046203443e-11
8.074430925e-13
4.429084141e-12
1.046932345e-11
7.924878859e-13
7.436632249e-12
1.071127784e-11
3.464992388e-12
1.589388516e-11
-8.552684232e-13
4.019415707e-12
1.017492484e-11
-7.749274277e-12
2.118714022e-11
-2.03640806e-11
8.584471955e-12
1.117911678e-11
-3.04569663e-11
1.020710929e-11
4.469865353e-12
-1.467480895e-11
2.812014163e-19
-2.820695379e-12
-4.776900378e-20
-1.440132001e-20
-2.00390913e-21
-2.534521602e-20
2.277682102e-21
7.304227495e-21
-1.428839385e-20
6.293838005e-21
-9.242338983e-22
-1.162462885e-20
5.199711606e-21
-1.529653659e-21
-9.783508068e-21
4.961652947e-21
-1.454170856e-21
-7.685792534e-21
5.345397829e-21
-1.187231867e-21
-5.504465634e-21
5.737886107e-21
-9.433223639e-22
-3.405113458e-21
5.873901629e-21
-7.580334168e-22
-1.571838667e-21
5.652106793e-21
-6.219727863e-22
-1.966759847e-22
5.082145472e-21
-5.264190845e-22
5.481065844e-22
4.272571106e-21
-4.655464908e-22
5.551095648e-22
3.432027192e-21
-4.361936525e-22
2.873495195e-21
-4.288588406e-22
8.343227733e-24
3.030014127e-21
-3.747695631e-22
3.020261051e-22
3.317083864e-21
-3.867238832e-22
1.020112982e-21
3.764872469e-21
-4.163339319e-22
2.159633026e-21
4.206131672e-21
-4.693629805e-22
3.648670064e-21
4.503342373e-21
-5.494944079e-22
5.394263979e-21
4.571793249e-21
-6.595684118e-22
7.32328328e-21
4.384819148e-21
-8.005424131e-22
9.433784004e-21
3.969418687e-21
-9.664679066e-22
1.190037853e-20
3.385107021e-21
-1.125229271e-21
1.541571178e-20
2.636069771e-21
-1.185770269e-21
2.12156593e-20
1.256760545e-21
-1.005019431e-21
2.587469594e-20
-2.391492281e-21
-3.006133515e-22
2.071237245e-20
-7.594461381e-21
-2.009239955e-21
5.887996369e-20
-4.391715543e-21
-1.783328805e-21
1.022925135e-11
-2.579562724e-20
-3.683215036e-21
1.774874335e-11
7.596876305e-19
3.866011919e-13
2.206204663e-12
-6.134687608e-19
6.667987849e-12
-7.559022945e-12
6.664355634e-15
7.56287821e-12
-7.147117318e-12
1.928027085e-12
6.282677473e-12
8.65377004e-15
-3.659828934e-12
4.387480991e-12
7.180713677e-12
-3.65772869e-12
4.368900961e-12
7.626134292e-12
1.92786695e-12
6.227618174e-12
-2.144361891e-12
6.242754901e-15
7.552751658e-12
-1.770480224e-11
-5.312687699e-20
6.67970065e-12
-1.020710894e-11
3.293906762e-19
4.00671881e-13
-5.887867547e-20
-2.576541212e-20
-3.670303499e-21
-2.069509578e-20
-4.346560205e-21
-1.73020844e-21
-2.586222735e-20
-7.552243403e-21
-1.977550528e-21
-2.11759764e-20
-2.342943084e-21
-2.628964654e-22
-1.537517503e-20
1.293529239e-21
-9.748569051e-22
-1.186268751e-20
2.663227176e-21
-1.154307115e-21
-9.399763186e-21
3.405274403e-21
-1.089682843e-21
-7.293304256e-21
3.984484759e-21
-9.263073057e-22
-5.368450112e-21
4.396209152e-21
-7.557831362e-22
-3.626908293e-21
4.580613548e-21
-6.10367577e-22
-2.141799988e-21
4.510347669e-21
-4.961237461e-22
-1.00625035e-21
4.211780352e-21
-4.122379505e-22
-2.9243733e-22
3.76944989e-21
-3.560724733e-22
-3.422432211e-24
3.320847169e-21
-3.241610201e-22
3.033380086e-21
-3.110032924e-22
2.954129653e-22
2.859805529e-21
-2.979486512e-22
7.498147093e-22
3.002603397e-21
-3.116681901e-22
1.461372185e-21
3.224277388e-21
-3.415241916e-22
2.456843728e-21
3.431139595e-21
-3.909458698e-22
3.71712094e-21
3.533669627e-21
-4.626963591e-22
5.207289879e-21
3.465019231e-21
-5.589133754e-22
6.907882818e-21
3.184928572e-21
-6.806672473e-22
8.849472338e-21
2.670179398e-21
-8.26783192e-22
1.115134128e-20
1.885919743e-21
-9.91443605e-22
1.403640256e-20
7.231174613e-22
-1.167223269e-21
1.7565063e-20
-1.107217571e-21
-1.375538846e-21
2.067511984e-20
-4.021284929e-21
-1.729028498e-21
2.30603259e-20
-7.652405855e-21
-2.643682585e-21
3.305208061e-20
-1.118582422e-20
-3.597597963e-21
3.307354353e-20
-2.112075107e-20
-5.148037411e-21
3.047378506e-20
-2.996641193e-20
-3.837796561e-21
-8.459142412e-21
-3.780300621e-20
1.859065608e-22
6.665182925e-15
-1.221176429e-20
2.824773433e-21
1.940677005e-12
-1.216068294e-19
-5.206320656e-15
-8.934555467e-16
-9.991423793e-19
-2.350206642e-12
-1.939737313e-12
-8.419702779e-19
-2.352966159e-12
-6.242953187e-15
-1.230762845e-19
-4.882249812e-15
8.450127981e-21
-1.219662741e-20
2.854225069e-21
-3.047464508e-20
-3.777549356e-20
2.218813484e-22
-3.305541539e-20
-2.993179782e-20
-3.79592886e-21
-3.304221029e-20
-2.109335271e-20
-5.123962999e-21
-2.304609724e-20
-1.115686451e-20
-3.570080971e-21
-2.065631413e-20
-7.62277069e-21
-2.616608298e-21
-1.753714906e-20
-3.991517114e-21
-1.699398516e-21
-1.400547709e-20
-1.082078497e-21
-1.344894413e-21
-1.112064028e-20
7.428832141e-22
-1.133845933e-21
-8.82055283e-21
1.900910611e-21
-9.542020782e-22
-6.881579863e-21
2.681271426e-21
-7.852430523e-22
-5.184045716e-21
3.19297077e-21
-6.347475069e-22
-3.697174173e-21
3.470728734e-21
-5.087420368e-22
-2.440367304e-21
3.537597152e-21
-4.085630004e-22
-1.448580813e-21
3.433695297e-21
-3.333047004e-22
-7.410400508e-22
3.225779303e-21
-2.810121379e-22
-2.908895146e-22
3.00331975e-21
-2.490688096e-22
2.860280904e-21
-2.343369118e-22
4.382108328e-22
2.520330551e-21
-2.485112403e-22
9.714887e-22
2.581957474e-21
-2.623427998e-22
1.668234392e-21
2.669217024e-21
-2.907856211e-22
2.55937376e-21
2.726739193e-21
-3.362988138e-22
3.648470543e-21
2.69451127e-21
-4.009866528e-22
4.927199219e-21
2.519473227e-21
-4.870242439e-22
6.393133645e-21
2.157813697e-21
-5.967571641e-22
8.065212683e-21
1.567922538e-21
-7.332282659e-22
9.988538998e-21
6.932734467e-22
-9.017303127e-22
1.220606752e-20
-5.626439239e-22
-1.114867e-21
1.465099564e-20
-2.35148986e-21
-1.40447736e-21
1.704399891e-20
-4.820232652e-21
-1.831993236e-21
1.95246139e-20
-7.945806353e-21
-2.472944117e-21
2.313084738e-20
-1.186779585e-20
-3.262098722e-21
2.363219157e-20
-1.783062356e-20
-4.163778052e-21
2.158364255e-20
-2.399524357e-20
-4.32056709e-21
1.685996316e-20
-2.914073775e-20
-4.429459399e-21
4.454398482e-20
-3.092389887e-20
-9.271587877e-21
1.871545931e-20
-5.718025919e-20
-3.857750769e-20
-4.411326936e-24
-6.576392262e-20
-4.598903374e-20
-1.870705013e-20
-6.575795564e-20
-4.598556846e-20
-4.454562465e-20
-5.717653976e-20
-3.857722269e-20
-1.686174548e-20
-3.091438198e-20
-9.257660517e-21
-2.158015848e-20
-2.912498044e-20
-4.409643785e-21
-2.362255224e-20
-2.397602454e-20
-4.297863086e-21
-2.311941346e-20
-1.781114437e-20
-4.142056264e-21
-1.950970723e-20
-1.184744232e-20
-3.238725364e-21
-1.702506055e-20
-7.925226315e-21
-2.447633298e-21
-1.462771045e-20
-4.800544778e-21
-1.804037489e-21
-1.218051538e-20
-2.334457895e-21
-1.373777628e-21
-9.962612884e-21
-5.489972226e-22
-1.080840946e-21
-8.040192016e-21
7.0355984e-22
-8.638720247e-22
-6.369880519e-21
1.575206094e-21
-6.912918098e-22
-4.906287753e-21
2.162563196e-21
-5.507119351e-22
-3.630305754e-21
2.522158337e-21
-4.370175146e-22
-2.54426916e-21
2.695559221e-21
-3.47326221e-22
-1.656496808e-21
2.726523653e-21
-2.794573999e-22
-9.634996032e-22
2.668054804e-21
-2.313868695e-22
-4.33928361e-22
2.580095706e-21
-2.010721802e-22
2.518636583e-21
-1.865665607e-22
4.998377563e-22
2.105102738e-21
-2.16352467e-22
1.058748249e-21
2.11998513e-21
-2.298743602e-22
1.725756562e-21
2.126273439e-21
-2.559873483e-22
2.527145837e-21
2.089877021e-21
-2.971775028e-22
3.4734325e-21
1.969199506e-21
-3.550976614e-22
4.565539689e-21