/*--------------------------------*- C++ -*----------------------------------*\
  =========                 |
  \\      /  F ield         | OpenFOAM: The Open Source CFD Toolbox
   \\    /   O peration     | Website:  https://openfoam.org
    \\  /    A nd           | Version:  10
     \\/     M anipulation  |
\*---------------------------------------------------------------------------*/
FoamFile
{
    format      ascii;
    class       volVectorField;
    location    "0.0005";
    object      n_filtered;
}
// * * * * * * * * * * * * * * * * * * * * * * * * * * * * * * * * * * * * * //

dimensions      [0 0 0 0 0 0 0];

internalField   nonuniform List<vector> 
16000
(
(-0.02773569047 0.9996137871 0)
(0 -0.999901374 0)
(0 -0.9985832604 0)
(0 -0.9194307534 0)
(0 0 0)
(0 0 0)
(0 0 0)
(0 0 0)
(0 0 0)
(0 0 0)
(0 0 0)
(0 0 0)
(0 0 0)
(0 0 0)
(0 0 0)
(0 0 0)
(0 0 0)
(0 0 0)
(0 0 0)
(0 0 0)
(0 0 0)
(0 0 0)
(0 0 0)
(0 0 0)
(0 0 0)
(0 0 0)
(0 0 0)
(0 0 0)
(0 0 0)
(0 0 0)
(0 0 0)
(0 0 0)
(0 0 0)
(0 0 0)
(0 0 0)
(0 0 0)
(0 -0.9202951895 0)
(0 -0.9985840904 0)
(0 -0.9999014546 0)
(0.02781932718 0.9996114576 0)
(-0.03256102672 0.9991475655 -0.02537373794)
(-0.05379840773 0.9985517382 0)
(0 0.9999998162 0)
(0 0 0)
(0 0 0)
(0 0 0)
(0 0 0)
(0 0 0)
(0 0 0)
(0 0 0)
(0 0 0)
(0 0 0)
(0 0 0)
(0 0 0)
(0 0 0)
(0 0 0)
(0 0 0)
(0 0 0)
(0 0 0)
(0 0 0)
(0 0 0)
(0 0 0)
(0 0 0)
(0 0 0)
(0 0 0)
(0 0 0)
(0 0 0)
(0 0 0)
(0 0 0)
(0 0 0)
(0 0 0)
(0 0 0)
(0 0 0)
(0 0 0)
(0 0 0)
(0 0 0)
(0 0 0)
(0 0.9999998161 0)
(0.05365335251 0.9985595426 0)
(0.03246884812 0.9991516471 -0.02533109865)
(-0.2276213442 0.9737121792 -0.008547556049)
(-0.3695430576 0.9292129091 0.001118271079)
(-0.2964285364 0.9550402811 0.005304488441)
(-0.2044605281 0.978874771 0)
(0 0.9999999392 0)
(0 0.9999997524 0)
(0 0 0)
(0 0 0)
(0 0 0)
(0 0 0)
(0 0 0)
(0 0 0)
(0 0 0)
(0 0 0)
(0 0 0)
(0 0 0)
(0 0 0)
(0 0 0)
(0 0 0)
(0 0 0)
(0 0 0)
(0 0 0)
(0 0 0)
(0 0 0)
(0 0 0)
(0 0 0)
(0 0 0)
(0 0 0)
(0 0 0)
(0 0 0)
(0 0 0)
(0 0 0)
(0 0 0)
(0 0 0)
(0 0.9999997518 0)
(0 0.9999999391 0)
(0.2044600799 0.9788748646 0)
(0.2962524924 0.9550943373 0.005405630498)
(0.3693763906 0.9292791395 0.001146900613)
(0.2275633345 0.9737255664 -0.008567094983)
(0.2264695428 0.9737832246 0.02139210934)
(0.1423492125 0.9897948342 -0.006544293901)
(-0.2988524097 0.954286305 0.004983906625)
(-0.438694008 0.8985017881 0.01555854145)
(-0.4027630903 0.9152751602 0.0072964094)
(-0.3185557217 0.9478295348 0.01189059871)
(-0.1525174546 0.9883007389 0)
(0 0.9999998893 0)
(0 0 0)
(0 0 0)
(0 0 0)
(0 0 0)
(0 0 0)
(0 0 0)
(0 0 0)
(0 0 0)
(0 0 0)
(0 0 0)
(0 0 0)
(0 0 0)
(0 0 0)
(0 0 0)
(0 0 0)
(0 0 0)
(0 0 0)
(0 0 0)
(0 0 0)
(0 0 0)
(0 0 0)
(0 0 0)
(0 0 0)
(0 0 0)
(0 0.9999998891 0)
(0.1523044549 0.9883335861 0)
(0.3183926897 0.9478829814 0.01199624438)
(0.4027443378 0.9152822016 0.007446696049)
(0.4388012086 0.8984467001 0.01571593005)
(0.2989011244 0.9542708766 0.005016566737)
(-0.14241626 0.989785986 -0.006422672466)
(-0.2263318448 0.973812095 0.02153472691)
(0.6572308335 0.7534626462 -0.01848144401)
(0.7732895706 0.6331089255 -0.03458631201)
(0.4317931012 0.9013310748 -0.03401197399)
(0.1282104014 0.9917469487 -5.35002722e-16)
(-0.03279301048 0.9994621348 0)
(-0.4601294299 0.887518713 0.02431878278)
(-0.6231330535 0.7816175381 0.02791398321)
(-0.50348369 0.8637800343 0.0197024809)
(-0.393478307 0.9190494839 0.02286440566)
(0 0.9999996335 0)
(0 0 0)
(0 0 0)
(0 0 0)
(0 0 0)
(0 0 0)
(0 0 0)
(0 0 0)
(0 0 0)
(0 0 0)
(0 0 0)
(0 0 0)
(0 0 0)
(0 0 0)
(0 0 0)
(0 0 0)
(0 0 0)
(0 0 0)
(0 0 0)
(0 0 0)
(0 0 0)
(0 0.9999996314 0)
(0.3933053925 0.9191309007 0.02256475775)
(0.5032830642 0.8638991338 0.01960625945)
(0.6232435021 0.7815277637 0.02796176612)
(0.4604905742 0.8873252057 0.02454326291)
(0.03311524921 0.9994515099 0)
(-0.1281286027 0.99175752 5.347523314e-16)
(-0.4317537052 0.9013513389 -0.03397506552)
(-0.7731188954 0.6333134905 -0.03465661557)
(-0.6569887591 0.7536749324 -0.01843253308)
(9.964657769e-08 0.9999999394 0)
(0 0.9999997719 0)
(0 0.9999996771 4.17284825e-15)
(0 0 -1.29246969e-08)
(0 0 0)
(0 0.999999092 1.173572442e-14)
(-0.2092772502 0.9778563036 0)
(-0.5762375413 0.8169781763 0.02229160326)
(-0.6444216298 0.7640458766 0.03089710158)
(-0.5141182924 0.8575314778 0.01794706986)
(-0.4006075091 0.9162496003 0)
(0 0 0)
(0 0 0)
(0 0 0)
(0 0 0)
(0 0 0)
(0 0 0)
(0 0 0)
(0 0 0)
(0 0 0)
(0 0 0)
(0 0 0)
(0 0 0)
(0 0 0)
(0 0 0)
(0 0 0)
(0 0 0)
(0 0 0)
(0 0 0)
(0.3998965255 0.9165601312 0)
(0.513832179 0.8577057197 0.01781408213)
(0.6443321876 0.7641265648 0.03076677294)
(0.5765859601 0.8167309397 0.02234195417)
(0.2100545454 0.9776896266 5.296583867e-16)
(0 0.9999991012 0)
(0 0 0)
(0 0 1.29246969e-08)
(0 0.9999996771 -4.173558032e-15)
(0 0.9999997721 2.946051752e-15)
(-3.934109052e-09 0.9999999394 0)
(3.825695697e-06 0 0)
(0 0 0)
(0 0 0)
(0 0 0)
(0 0 0)
(0 0 0)
(0 0 0)
(0 0.9999998039 2.534430246e-15)
(-0.4557467465 0.8901094548 0)
(-0.6789771336 0.7334740256 0.03171552811)
(-0.6159026106 0.7873885056 0.02613963441)
(-0.4763433556 0.8792592649 0)
(0 0 0)
(0 0 0)
(0 0 0)
(0 0 0)
(0 0 0)
(0 0 0)
(0 0 0)
(0 0 0)
(0 0 0)
(0 0 0)
(0 0 0)
(0 0 0)
(0 0 0)
(0 0 0)
(0 0 0)
(0 0 0)
(0.4757271814 0.8795928011 0)
(0.6155713237 0.7876512515 0.02602722482)
(0.6790480804 0.7334106237 0.03166276069)
(0.4562900504 0.8898310673 0)
(0 0.9999998049 -2.52152736e-15)
(0 0 0)
(0 0 0)
(0 0 0)
(0 0 0)
(0 0 0)
(0 0 0)
(-3.489656031e-06 0 0)
(6.165042495e-06 0 0)
(0 0 0)
(0 0 0)
(0 0 0)
(0 0 0)
(0 0 0)
(0 0 0)
(0 0 1.29246969e-08)
(0 0 -1.29246969e-08)
(-0.3196585305 0.9475327413 -8.278483833e-16)
(-0.6602191806 0.750791544 0.02055861513)
(-0.6683924283 0.7425037415 0.04404231952)
(-0.4711498433 0.8820531409 0)
(0 0 0)
(0 0 0)
(0 0 0)
(0 0 0)
(0 0 0)
(0 0 0)
(0 0 0)
(0 0 0)
(0 0 0)
(0 0 0)
(0 0 0)
(0 0 0)
(0 0 0)
(0 0 0)
(0.4705656207 0.8823649555 0)
(0.6682550297 0.7426326207 0.04395425081)
(0.6602478015 0.750765987 0.02057277387)
(0.3197855123 0.9474898936 -8.253555325e-16)
(0 0 -1.29246969e-08)
(0 0 -1.29246969e-08)
(0 0 0)
(0 0 0)
(0 0 0)
(0 0 0)
(0 0 0)
(0 0 0)
(-6.462306774e-06 0 0)
(8.969659312e-06 0 0)
(0 0 0)
(0 0 1.29246969e-08)
(0 0 -1.29246969e-08)
(0 0 0)
(0 0 1.29246969e-08)
(0 0 0)
(0 0 0)
(0 0 0)
(0 0 0)
(0 0.9999997996 0)
(-0.5942762544 0.8042609599 0)
(-0.7063135053 0.7063135053 0.04735436831)
(-0.5344734108 0.8449279731 0.02085291148)
(0 0.9999998517 0)
(0 0 0)
(0 0 0)
(0 0 0)
(0 0 0)
(0 0 0)
(0 0 0)
(0 0 0)
(0 0 0)
(0 0 0)
(0 0 0)
(0 0.9999998516 0)
(0.5342809124 0.8450515722 0.02077732944)
(0.7063147271 0.7063147271 0.04731790775)
(0.5941672234 0.8043415126 0)
(0 0.9999998003 0)
(0 0 0)
(0 0 0)
(0 0 0)
(0 0 1.29246969e-08)
(0 0 0)
(0 0 0)
(0 0 1.29246969e-08)
(0 0 -1.29246969e-08)
(0 0 1.29246969e-08)
(-8.711169941e-06 0 0)
(1.296330311e-05 0 0)
(0 0 0)
(0 0 1.29246969e-08)
(0 0 -1.29246969e-08)
(0 0 0)
(0 0 1.29246969e-08)
(0 0 0)
(0 0 0)
(0 0 0)
(0 0 0)
(0 0 0)
(0 0 0)
(-0.4882169083 0.8727222863 3.967055724e-16)
(-0.6534930438 0.7553473851 0.04896058933)
(-0.6047019029 0.7958788588 0.03020621184)
(-0.2625837413 0.9649091672 0)
(0 0.9999998668 0)
(0 0.999999228 0)
(0 0 0)
(0 0 0)
(0 0 0)
(0 0 0)
(0 0.9999992291 0)
(0 0.9999998668 0)
(0.262498191 0.9649324442 0)
(0.6047116618 0.7958717469 0.03019823002)
(0.653512397 0.7553373713 0.04885664966)
(0.4880296853 0.872826996 3.966267649e-16)
(0 0 0)
(0 0 0)
(0 0 0)
(0 0 0)
(0 0 0)
(0 0 1.29246969e-08)
(0 0 0)
(0 0 0)
(0 0 1.29246969e-08)
(0 0 -1.29246969e-08)
(0 0 1.29246969e-08)
(-1.090832534e-05 0 0)
(1.632362594e-05 0 0)
(0 0 0)
(0 0 1.29246969e-08)
(0 0 -1.29246969e-08)
(0 0 0)
(0 0 1.29246969e-08)
(0 0 0)
(0 0 0)
(0 0 0)
(0 0 0)
(0 0 0)
(0 0 0)
(0 0 1.29246969e-08)
(-0.3068039117 0.951772683 0)
(-0.5034295189 0.8633350314 0.03480378091)
(-0.5972903143 0.7992379345 0.06680548321)
(-0.4306974238 0.9004397037 0.06089361529)
(-0.1752826839 0.9840016569 0.03188531495)
(-0.03859226837 0.9992550111 0)
(0 0.999999966 0)
(0 0.999999966 0)
(0.03864725406 0.999252886 0)
(0.1753066586 0.9839988321 0.03184065384)
(0.4307044885 0.9004402397 0.06083569335)
(0.5973135166 0.7992268002 0.06673119777)
(0.5033883667 0.8633649619 0.0346562384)
(0.3067064814 0.9518040841 0)
(0 0 1.29246969e-08)
(0 0 0)
(0 0 0)
(0 0 0)
(0 0 0)
(0 0 0)
(0 0 1.29246969e-08)
(0 0 0)
(0 0 0)
(0 0 1.29246969e-08)
(0 0 -1.29246969e-08)
(0 0 1.29246969e-08)
(-1.269189144e-05 0 0)
(1.958053266e-05 0 0)
(0 0 0)
(0 0 1.29246969e-08)
(0 0 -1.29246969e-08)
(0 0 0)
(0 0 1.29246969e-08)
(0 0 0)
(0 0 0)
(0 0 0)
(0 0 0)
(0 0 0)
(0 0 0)
(0 0 1.29246969e-08)
(0 0 0)
(0 0.999999805 0)
(-0.03609892279 0.9993481818 0)
(-0.1818445901 0.9830461341 0.02351163778)
(-0.3035389258 0.9507549961 0.06268188704)
(-0.2462686106 0.9653641875 0.08616100283)
(-0.08243608746 0.992294744 0.0924953663)
(0.08243394295 0.9922968496 0.09247468663)
(0.2462181193 0.9653762154 0.08617053982)
(0.3035621514 0.9507503953 0.06263918177)
(0.1818826481 0.9830406272 0.02344741754)
(0.03612742178 0.999347152 0)
(0 0.9999998049 0)
(0 0 0)
(0 0 1.29246969e-08)
(0 0 0)
(0 0 0)
(0 0 0)
(0 0 0)
(0 0 0)
(0 0 1.29246969e-08)
(0 0 0)
(0 0 0)
(0 0 1.29246969e-08)
(0 0 -1.29246969e-08)
(0 0 1.29246969e-08)
(-1.516043982e-05 0 0)
(2.247554305e-05 0 1.292440658e-08)
(0 0 1.29246969e-08)
(0 0 0)
(0 0 1.29246969e-08)
(0 0 0)
(0 0 0)
(0 0 1.29246969e-08)
(0 0 -1.29246969e-08)
(0 0 0)
(0 0 0)
(0 0 0)
(0 0 0)
(0 0 1.29246969e-08)
(0 0 1.29246969e-08)
(0 0 0)
(0 0 0)
(0 0.9999989025 1.418465978e-14)
(0 0.9999998728 0)
(0 0.9999999392 -7.851863536e-16)
(0 0.9999999515 -6.269342742e-16)
(0 0.9999999515 -6.269716161e-16)
(0 0.9999999393 -7.851222143e-16)
(0 0.9999998728 0)
(0 0.9999989033 0)
(0 0 0)
(0 0 0)
(0 0 1.29246969e-08)
(0 0 1.29246969e-08)
(0 0 0)
(0 0 0)
(0 0 0)
(0 0 0)
(0 0 0)
(0 0 0)
(0 0 1.29246969e-08)
(0 0 0)
(0 0 0)
(0 0 1.29246969e-08)
(0 0 0)
(-1.751265783e-05 0 1.292447073e-08)
(2.52283722e-05 0 1.2924371e-08)
(0 0 1.29246969e-08)
(0 0 0)
(0 0 1.29246969e-08)
(0 0 0)
(0 0 0)
(0 0 1.29246969e-08)
(0 0 1.29246969e-08)
(0 0 -1.29246969e-08)
(0 0 -1.29246969e-08)
(0 0 -1.29246969e-08)
(0 0 -1.29246969e-08)
(0 0 -1.29246969e-08)
(0 0 0)
(0 0 -1.29246969e-08)
(0 0 -1.29246969e-08)
(0 0 0)
(0 0 -1.29246969e-08)
(0 0 0)
(0 0 -1.29246969e-08)
(0 0 -1.29246969e-08)
(0 0 1.29246969e-08)
(0 0 -1.29246969e-08)
(0 0 0)
(0 0 -1.29246969e-08)
(0 0 -1.29246969e-08)
(0 0 0)
(0 0 0)
(0 0 -1.29246969e-08)
(0 0 -1.29246969e-08)
(0 0 -1.29246969e-08)
(0 0 -1.29246969e-08)
(0 0 0)
(0 0 0)
(0 0 1.29246969e-08)
(0 0 0)
(0 0 0)
(0 0 1.29246969e-08)
(0 0 0)
(-1.937374556e-05 0 1.292444667e-08)
(2.677925518e-05 0 0)
(0 0 0)
(0 0 -1.29246969e-08)
(0 0 0)
(0 0 -1.29246969e-08)
(0 0 -1.29246969e-08)
(0 0 0)
(0 0 0)
(0 0 0)
(0 0 0)
(0 0 0)
(0 0 0)
(0 0 -1.29246969e-08)
(0 0 0)
(0 0 0)
(0 0 0)
(0 0 0)
(0 0 0)
(0 0 -1.29246969e-08)
(0 0 0)
(0 0 0)
(0 0 0)
(0 0 0)
(0 0 0)
(0 0 0)
(0 0 0)
(0 0 0)
(0 0 0)
(0 0 0)
(0 0 0)
(0 0 0)
(0 0 0)
(0 0 -1.29246969e-08)
(0 0 -1.29246969e-08)
(0 0 0)
(0 0 -1.29246969e-08)
(0 0 -1.29246969e-08)
(0 0 0)
(0 0 -1.29246969e-08)
(-2.334145807e-05 0 0)
(2.816212179e-05 0 1.292433308e-08)
(0 0 1.29246969e-08)
(0 0 0)
(0 0 1.29246969e-08)
(0 0 0)
(0 0 0)
(0 0 1.29246969e-08)
(0 0 1.29246969e-08)
(0 0 0)
(0 0 0)
(0 0 0)
(0 0 0)
(0 0 -1.29246969e-08)
(0 0 -1.29246969e-08)
(0 0 0)
(0 0 0)
(0 0 -1.29246969e-08)
(0 0 0)
(0 0 0)
(0 0 0)
(0 0 0)
(0 0 0)
(0 0 0)
(0 0 1.29246969e-08)
(0 0 0)
(0 0 0)
(0 0 0)
(0 0 0)
(0 0 0)
(0 0 0)
(0 0 0)
(0 0 0)
(0 0 0)
(0 0 0)
(0 0 1.29246969e-08)
(0 0 0)
(0 0 0)
(0 0 1.29246969e-08)
(0 0 0)
(-3.0462583e-05 0 1.292430335e-08)
(2.362578805e-05 0 1.292439171e-08)
(0 0 1.29246969e-08)
(0 0 0)
(0 0 1.29246969e-08)
(0 0 0)
(0 0 0)
(0 0 1.29246969e-08)
(0 0 1.29246969e-08)
(0 0 -1.29246969e-08)
(0 0 -1.29246969e-08)
(0 0 -1.29246969e-08)
(0 0 -1.29246969e-08)
(0 0 -1.29246969e-08)
(0 0 0)
(0 0 -1.29246969e-08)
(0 0 -1.29246969e-08)
(0 0 0)
(0 0 -1.29246969e-08)
(0 0 0)
(0 0 -1.29246969e-08)
(0 0 -1.29246969e-08)
(0 0 1.29246969e-08)
(0 0 -1.29246969e-08)
(0 0 0)
(0 0 -1.29246969e-08)
(0 0 -1.29246969e-08)
(0 0 0)
(0 0 0)
(0 0 -1.29246969e-08)
(0 0 -1.29246969e-08)
(0 0 -1.29246969e-08)
(0 0 -1.29246969e-08)
(0 0 0)
(0 0 0)
(0 0 1.29246969e-08)
(0 0 0)
(0 0 0)
(0 0 1.29246969e-08)
(0 0 0)
(-5.88943758e-05 0 1.292393588e-08)
(3.334560725e-06 0 0)
(0 0 0)
(0 0 -1.29246969e-08)
(0 0 0)
(0 0 -1.29246969e-08)
(0 0 -1.29246969e-08)
(0 0 0)
(0 0 0)
(0 0 1.29246969e-08)
(0 0 1.29246969e-08)
(0 0 1.29246969e-08)
(0 0 1.29246969e-08)
(0 0 0)
(0 0 0)
(0 0 1.29246969e-08)
(0 0 1.29246969e-08)
(0 0 0)
(0 0 1.29246969e-08)
(0 0 -1.29246969e-08)
(0 0 0)
(0 0 0)
(0 0 0)
(0 0 1.29246969e-08)
(0 0 0)
(0 0 1.29246969e-08)
(0 0 1.29246969e-08)
(0 0 0)
(0 0 0)
(0 0 1.29246969e-08)
(0 0 1.29246969e-08)
(0 0 1.29246969e-08)
(0 0 1.29246969e-08)
(0 0 -1.29246969e-08)
(0 0 -1.29246969e-08)
(0 0 0)
(0 0 -1.29246969e-08)
(0 0 -1.29246969e-08)
(0 0 0)
(0 0 -1.29246969e-08)
(-0.0001704606173 0 0)
(-6.168577375e-05 0 1.29238998e-08)
(0 0 1.29246969e-08)
(0 0 0)
(0 0 1.29246969e-08)
(0 0 0)
(0 0 0)
(0 0 1.29246969e-08)
(0 0 1.29246969e-08)
(0 0 -1.29246969e-08)
(0 0 -1.29246969e-08)
(0 0 -1.29246969e-08)
(0 0 -1.29246969e-08)
(0 0 -1.29246969e-08)
(0 0 0)
(0 0 -1.29246969e-08)
(0 0 -1.29246969e-08)
(0 0 0)
(0 0 -1.29246969e-08)
(0 0 0)
(0 0 -1.29246969e-08)
(0 0 -1.29246969e-08)
(0 0 1.29246969e-08)
(0 0 -1.29246969e-08)
(0 0 0)
(0 0 -1.29246969e-08)
(0 0 -1.29246969e-08)
(0 0 0)
(0 0 0)
(0 0 -1.29246969e-08)
(0 0 -1.29246969e-08)
(0 0 -1.29246969e-08)
(0 0 -1.29246969e-08)
(0 0 0)
(0 0 0)
(0 0 1.29246969e-08)
(0 0 0)
(0 0 0)
(0 0 1.29246969e-08)
(0 0 0)
(-0.000614708235 0 1.291675215e-08)
(-0.0004537481544 0 0)
(0 0 0)
(0 0 -1.29246969e-08)
(0 0 0)
(0 0 -1.29246969e-08)
(0 0 -1.29246969e-08)
(0 0 0)
(0 0 0)
(0 0 0)
(0 0 0)
(0 0 0)
(0 0 0)
(0 0 -1.29246969e-08)
(0 0 0)
(0 0 0)
(0 0 0)
(0 0 0)
(0 0 0)
(0 0 -1.29246969e-08)
(0 0 0)
(0 0 0)
(0 0 0)
(0 0 0)
(0 0 0)
(0 0 0)
(0 0 0)
(0 0 0)
(0 0 0)
(0 0 0)
(0 0 0)
(0 0 0)
(0 0 0)
(0 0 -1.29246969e-08)
(0 0 -1.29246969e-08)
(0 0 0)
(0 0 -1.29246969e-08)
(0 0 -1.29246969e-08)
(0 0 0)
(0 0 -1.29246969e-08)
(-0.007469272539 0 0)
(-0.7070758459 -0.7070758459 0)
(0 -0.9998697152 0)
(0 -0.9984020516 0)
(0 -0.422207198 0)
(0 0 0)
(0 0 0)
(0 0 0)
(0 0 0)
(0 0 0)
(0 0 0)
(0 0 0)
(0 0 0)
(0 0 0)
(0 0 0)
(0 0 0)
(0 0 0)
(0 0 0)
(0 0 0)
(0 0 0)
(0 0 0)
(0 0 0)
(0 0 0)
(0 0 0)
(0 0 0)
(0 0 0)
(0 0 0)
(0 0 0)
(0 0 0)
(0 0 0)
(0 0 0)
(0 0 0)
(0 0 0)
(0 0 0)
(0 0 0)
(0 0 0)
(0 0 0)
(0 -0.4661359029 0)
(0 -0.9984116128 0)
(0 -0.9998703565 0)
(0.7070759067 -0.7070759067 0)
(-0.04202651895 0.9985269038 -0.03431754054)
(0 0.9999999158 0)
(0 0.9999998066 0)
(0 0 0)
(0 0 0)
(0 0 0)
(0 0 0)
(0 0 0)
(0 0 0)
(0 0 0)
(0 0 0)
(0 0 0)
(0 0 0)
(0 0 0)
(0 0 0)
(0 0 0)
(0 0 0)
(0 0 0)
(0 0 0)
(0 0 0)
(0 0 0)
(0 0 0)
(0 0 0)
(0 0 0)
(0 0 0)
(0 0 0)
(0 0 0)
(0 0 0)
(0 0 0)
(0 0 0)
(0 0 0)
(0 0 0)
(0 0 0)
(0 0 0)
(0 0 0)
(0 0 0)
(0 0 0)
(0 0.9999998067 0)
(0 0.9999999157 0)
(0.04188281153 0.9985363616 -0.03421789311)
(-0.2137817067 0.9759173164 -0.04339032112)
(-0.3518577721 0.9358199138 -0.02090811393)
(-0.2810454706 0.959680088 0.005246411857)
(-0.1936635567 0.98072224 0.02604304048)
(0 0.9999999385 0)
(0 0.9999997755 0)
(0 0 0)
(0 0 0)
(0 0 0)
(0 0 0)
(0 0 0)
(0 0 0)
(0 0 0)
(0 0 0)
(0 0 0)
(0 0 0)
(0 0 0)
(0 0 0)
(0 0 0)
(0 0 0)
(0 0 0)
(0 0 0)
(0 0 0)
(0 0 0)
(0 0 0)
(0 0 0)
(0 0 0)
(0 0 0)
(0 0 0)
(0 0 0)
(0 0 0)
(0 0 0)
(0 0 0)
(0 0 0)
(0 0.9999997751 0)
(0 0.9999999385 0)
(0.1937839872 0.9806948327 0.02617893318)
(0.2809701353 0.9597007171 0.005501747731)
(0.3516021332 0.9359267101 -0.0204226658)
(0.2136203018 0.9759507715 -0.04343276189)
(0.190211009 0.9806634712 0.04603021667)
(0.1198699197 0.9923713004 0.02881570365)
(-0.2980017021 0.9545460172 0.006069641011)
(-0.4360212007 0.8982824412 0.05453560773)
(-0.3984419134 0.9166973125 0.03016690694)
(-0.3091723965 0.9500051893 0.04361801845)
(-0.1587433497 0.9873198457 0)
(0 0.9999998999 0)
(0 0.9999980957 0)
(0 0 0)
(0 0 0)
(0 0 0)
(0 0 0)
(0 0 0)
(0 0 0)
(0 0 0)
(0 0 0)
(0 0 0)
(0 0 0)
(0 0 0)
(0 0 0)
(0 0 0)
(0 0 0)
(0 0 0)
(0 0 0)
(0 0 0)
(0 0 0)
(0 0 0)
(0 0 0)
(0 0 0)
(0 0 0)
(0 0.9999980663 0)
(0 0.9999998996 0)
(0.158663633 0.9873326593 0)
(0.309083181 0.9500314597 0.04367808262)
(0.3985357948 0.9166479369 0.0304260332)
(0.4360730742 0.8982278141 0.05501846945)
(0.2978867627 0.954580659 0.006260673765)
(-0.1200491159 0.9923418729 0.02908190849)
(-0.1900935094 0.9806688464 0.0463996119)
(0.6609044108 0.7462042129 -0.07990320148)
(0.7655368138 0.6227635087 -0.16161338)
(0.4519300097 0.8719850532 -0.1881519308)
(0.1430809118 0.9897109525 0)
(0 0.9999999704 0)
(-0.4396256306 0.8979186305 0.02171171217)
(-0.6231621969 0.7787195907 0.07255786802)
(-0.5095490489 0.8596068012 0.03789296193)
(-0.3982290082 0.9165685418 0.03627237775)
(-0.1531266221 0.9882062813 0)
(0 0 0)
(0 0 0)
(0 0 0)
(0 0 0)
(0 0 0)
(0 0 0)
(0 0 0)
(0 0 0)
(0 0 0)
(0 0 0)
(0 0 0)
(0 0 0)
(0 0 0)
(0 0 0)
(0 0 0)
(0 0 0)
(0 0 0)
(0 0 0)
(0 0 0)
(0 0 0)
(0.151767512 0.9884159223 0)
(0.3980170785 0.9166732115 0.03595203265)
(0.5094727189 0.8596583217 0.03775024779)
(0.6234189161 0.7785173908 0.07252238434)
(0.4399942309 0.8977328558 0.02192617082)
(0 0.9999999704 0)
(-0.1430542392 0.9897148082 0)
(-0.4521089827 0.8719039797 -0.1880976705)
(-0.7654097523 0.6229635286 -0.1614442282)
(-0.6606600065 0.7464339617 -0.07977835487)
(4.694404197e-08 0.9999999406 0)
(0 0.999999796 0)
(0 0.9999997095 0)
(0 0 0)
(0 0 0)
(0 0 0)
(-0.1831985811 0.983075883 0)
(-0.5584640677 0.8272511376 0.06142799866)
(-0.6493504719 0.7567105873 0.07571671648)
(-0.5258475915 0.8496322086 0.04011701464)
(-0.4060914037 0.9138323327 0)
(0 0 0)
(0 0 0)
(0 0 0)
(0 0 0)
(0 0 0)
(0 0 0)
(0 0 0)
(0 0 0)
(0 0 0)
(0 0 0)
(0 0 0)
(0 0 0)
(0 0 0)
(0 0 0)
(0 0 0)
(0 0 0)
(0 0 0)
(0 0 0)
(0.4052789173 0.9141929548 0)
(0.5255215937 0.8498428781 0.03992607153)
(0.6492903752 0.7567780678 0.07555748994)
(0.5588712781 0.8269703402 0.06150536282)
(0.1839115688 0.9829427485 0)
(0 0 0)
(0 0 0)
(0 0 0)
(0 0.9999997095 0)
(0 0.9999997961 0)
(-9.544321023e-09 0.9999999406 0)
(1.925776155e-06 0 0)
(0 0 0)
(0 0 0)
(0 0 0)
(0 0 0)
(0 0 0)
(0 0 0)
(0 0.9999997594 0)
(-0.4297677954 0.9029394084 0)
(-0.670092174 0.7370977143 0.08754088308)
(-0.6257059362 0.7772125465 0.06657856436)
(-0.4703155182 0.8824982663 0)
(0 0 0)
(0 0 0)
(0 0 0)
(0 0 0)
(0 0 0)
(0 0 0)
(0 0 0)
(0 0 0)
(0 0 0)
(0 0 0)
(0 0 0)
(0 0 0)
(0 0 0)
(0 0 0)
(0 0 0)
(0 0 0)
(0.4696723256 0.8828407461 0)
(0.6253819479 0.7774884841 0.06640062242)
(0.6701752904 0.737019834 0.08756033803)
(0.4303503885 0.9026618838 0)
(0 0.9999997606 0)
(0 0 0)
(0 0 0)
(0 0 0)
(0 0 0)
(0 0 0)
(0 0 0)
(-1.550961243e-06 0 0)
(4.110036776e-06 0 0)
(0 0 0)
(0 0 0)
(0 0 0)
(0 0 0)
(0 0 0)
(0 0 0)
(0 0 0)
(0 0 0)
(-0.2877402309 0.9577084162 0)
(-0.6429012114 0.7632914955 0.06375020915)
(-0.6730690628 0.7294195682 0.1221683307)
(-0.5015765963 0.8651131995 0)
(0 0.9999988116 0)
(0 0 0)
(0 0 0)
(0 0 0)
(0 0 0)
(0 0 0)
(0 0 0)
(0 0 0)
(0 0 0)
(0 0 0)
(0 0 0)
(0 0 0)
(0 0 0)
(0 0.9999988072 0)
(0.5010330648 0.8654281009 0)
(0.6729702863 0.7295367111 0.1220129163)
(0.6429497191 0.7632510888 0.06374478956)
(0.2878093242 0.9576876549 0)
(0 0 0)
(0 0 0)
(0 0 0)
(0 0 0)
(0 0 0)
(0 0 0)
(0 0 0)
(0 0 0)
(-2.455686413e-06 0 0)
(5.66098527e-06 0 0)
(0 0 0)
(0 0 0)
(0 0 0)
(0 0 0)
(0 0 0)
(0 0 0)
(0 0 0)
(0 0 0)
(0 0 0)
(0 0.9999997411 0)
(-0.5786013985 0.8156104315 0)
(-0.6941843635 0.7060666172 0.1399213112)
(-0.5529802579 0.8306633846 0.06489322754)
(-0.1012536615 0.9948605206 0)
(0 0 0)
(0 0 0)
(0 0 0)
(0 0 0)
(0 0 0)
(0 0 0)
(0 0 0)
(0 0 0)
(0 0 0)
(0 0 0)
(0.1009326372 0.994893141 0)
(0.55279539 0.8307953427 0.06477893481)
(0.6942206529 0.7060590006 0.1397796283)
(0.5785023378 0.815680697 0)
(0 0.9999997421 0)
(0 0 0)
(0 0 0)
(0 0 0)
(0 0 0)
(0 0 0)
(0 0 0)
(0 0 0)
(0 0 0)
(0 0 0)
(-4.769190474e-06 0 0)
(8.866263579e-06 0 0)
(0 0 0)
(0 0 0)
(0 0 0)
(0 0 0)
(0 0 0)
(0 0 0)
(0 0 0)
(0 0 0)
(0 0 0)
(0 0 0)
(0 0 0)
(-0.4546815234 0.8906540529 0)
(-0.6427804969 0.7571597532 0.1163714315)
(-0.6192424939 0.7781796 0.1047626382)
(-0.276239464 0.9598900831 0.04798666601)
(0 0.9999999072 0)
(0 0.9999996121 0)
(0 0 0)
(0 0 0)
(0 0 0)
(0 0 0)
(0 0.999999612 0)
(0 0.9999999072 0)
(0.2761430017 0.9599184681 0.04797405936)
(0.6192449739 0.7781957576 0.104627873)
(0.6428043339 0.7571631773 0.1162173843)
(0.4545550971 0.8907185826 0)
(0 0 0)
(0 0 0)
(0 0 0)
(0 0 0)
(0 0 0)
(0 0 0)
(0 0 0)
(0 0 0)
(0 0 0)
(0 0 0)
(0 0 0)
(-4.975983612e-06 0 0)
(9.951917703e-06 0 0)
(0 0 0)
(0 0 0)
(0 0 0)
(0 0 0)
(0 0 0)
(0 0 0)
(0 0 0)
(0 0 0)
(0 0 0)
(0 0 0)
(0 0 0)
(0 0 0)
(-0.2550798152 0.9669199234 0)
(-0.4514279594 0.885648102 0.1088126578)
(-0.5738360215 0.8011459453 0.1699334067)
(-0.4548898478 0.8697625915 0.1912804903)
(-0.2296723506 0.9650449797 0.1262487856)
(-0.06768852444 0.9953235309 0.06891502051)
(0 0.9992324539 0.03917198223)
(0 0.9992321368 0.0391800688)
(0.06766328372 0.9953274898 0.06888262135)
(0.2296297838 0.9650764883 0.1260852552)
(0.4548722091 0.8697999507 0.1911525161)
(0.5738586142 0.8011604616 0.1697886147)
(0.4514474368 0.8856466281 0.1087438253)
(0.2552018684 0.9668877167 0)
(0 0 0)
(0 0 0)
(0 0 0)
(0 0 0)
(0 0 0)
(0 0 0)
(0 0 0)
(0 0 0)
(0 0 0)
(0 0 0)
(0 0 0)
(0 0 0)
(-6.940514156e-06 0 0)
(1.211029449e-05 0 0)
(0 0 0)
(0 0 0)
(0 0 0)
(0 0 0)
(0 0 0)
(0 0 0)
(0 0 0)
(0 0 0)
(0 0 0)
(0 0 0)
(0 0 0)
(0 0 0)
(0 0 0)
(0 0.9999997067 0)
(0 0.999999953 0)
(-0.1193941158 0.9925791263 0.02305802666)
(-0.2439250573 0.956739787 0.158585958)
(-0.2160338523 0.9503218812 0.224092969)
(-0.07702769106 0.9639565685 0.25466533)
(0.07703508753 0.9639619871 0.2546425811)
(0.2160004276 0.950347085 0.2240182925)
(0.2438859897 0.9567449063 0.1586151567)
(0.1194714205 0.992569489 0.02307246363)
(0 0.999999953 0)
(0 0.9999997069 0)
(0 0 0)
(0 0 0)
(0 0 0)
(0 0 0)
(0 0 0)
(0 0 0)
(0 0 0)
(0 0 0)
(0 0 0)
(0 0 0)
(0 0 0)
(0 0 0)
(0 0 0)
(-7.83230508e-06 0 0)
(1.317009286e-05 0 0)
(0 0 0)
(0 0 0)
(0 0 0)
(0 0 0)
(0 0 0)
(0 0 0)
(0 0 0)
(0 0 0)
(0 0 0)
(0 0 0)
(0 0 0)
(0 0 0)
(0 0 0)
(0 0 0)
(0 0 0)
(0 0 0)
(0 0.999999788 0)
(0 0.9999999173 0)
(0 0.9999999378 0)
(0 0.9999999378 0)
(0 0.9999999173 0)
(0 0.9999997882 0)
(0 0 0)
(0 0 0)
(0 0 0)
(0 0 0)
(0 0 0)
(0 0 0)
(0 0 0)
(0 0 0)
(0 0 0)
(0 0 0)
(0 0 0)
(0 0 0)
(0 0 0)
(0 0 0)
(0 0 0)
(0 0 0)
(-8.556076254e-06 0 0)
(1.557401742e-05 0 0)
(0 0 0)
(0 0 0)
(0 0 0)
(0 0 0)
(0 0 0)
(0 0 0)
(0 0 0)
(0 0 0)
(0 0 0)
(0 0 0)
(0 0 0)
(0 0 0)
(0 0 0)
(0 0 0)
(0 0 0)
(0 0 0)
(0 0 0)
(0 0 0)
(0 0 0)
(0 0 0)
(0 0 0)
(0 0 0)
(0 0 0)
(0 0 0)
(0 0 0)
(0 0 0)
(0 0 0)
(0 0 0)
(0 0 0)
(0 0 0)
(0 0 0)
(0 0 0)
(0 0 0)
(0 0 0)
(0 0 0)
(0 0 0)
(0 0 0)
(0 0 0)
(-9.241073008e-06 0 0)
(1.637532303e-05 0 0)
(0 0 0)
(0 0 0)
(0 0 0)
(0 0 0)
(0 0 0)
(0 0 0)
(0 0 0)
(0 0 0)
(0 0 0)
(0 0 0)
(0 0 0)
(0 0 0)
(0 0 0)
(0 0 0)
(0 0 0)
(0 0 0)
(0 0 0)
(0 0 0)
(0 0 0)
(0 0 0)
(0 0 0)
(0 0 0)
(0 0 0)
(0 0 0)
(0 0 0)
(0 0 0)
(0 0 0)
(0 0 0)
(0 0 0)
(0 0 0)
(0 0 0)
(0 0 0)
(0 0 0)
(0 0 0)
(0 0 0)
(0 0 0)
(0 0 0)
(0 0 0)
(-8.737018884e-06 0 0)
(1.939959395e-05 0 0)
(0 0 0)
(0 0 0)
(0 0 0)
(0 0 0)
(0 0 0)
(0 0 0)
(0 0 0)
(0 0 0)
(0 0 0)
(0 0 0)
(0 0 0)
(0 0 0)
(0 0 0)
(0 0 0)
(0 0 0)
(0 0 0)
(0 0 0)
(0 0 0)
(0 0 0)
(0 0 0)
(0 0 0)
(0 0 0)
(0 0 0)
(0 0 0)
(0 0 0)
(0 0 0)
(0 0 0)
(0 0 0)
(0 0 0)
(0 0 0)
(0 0 0)
(0 0 0)
(0 0 0)
(0 0 0)
(0 0 0)
(0 0 0)
(0 0 0)
(0 0 0)
(-1.512187271e-06 0 0)
(2.348362308e-05 0 0)
(0 0 0)
(0 0 0)
(0 0 0)
(0 0 0)
(0 0 0)
(0 0 0)
(0 0 0)
(0 0 0)
(0 0 0)
(0 0 0)
(0 0 0)
(0 0 0)
(0 0 0)
(0 0 0)
(0 0 0)
(0 0 0)
(0 0 0)
(0 0 0)
(0 0 0)
(0 0 0)
(0 0 0)
(0 0 0)
(0 0 0)
(0 0 0)
(0 0 0)
(0 0 0)
(0 0 0)
(0 0 0)
(0 0 0)
(0 0 0)
(0 0 0)
(0 0 0)
(0 0 0)
(0 0 0)
(0 0 0)
(0 0 0)
(0 0 0)
(0 0 0)
(3.281472902e-05 0 0)
(3.773869119e-05 0 0)
(0 0 0)
(0 0 0)
(0 0 0)
(0 0 0)
(0 0 0)
(0 0 0)
(0 0 0)
(0 0 0)
(0 0 0)
(0 0 0)
(0 0 0)
(0 0 0)
(0 0 0)
(0 0 0)
(0 0 0)
(0 0 0)
(0 0 0)
(0 0 0)
(0 0 0)
(0 0 0)
(0 0 0)
(0 0 0)
(0 0 0)
(0 0 0)
(0 0 0)
(0 0 0)
(0 0 0)
(0 0 0)
(0 0 0)
(0 0 0)
(0 0 0)
(0 0 0)
(0 0 0)
(0 0 0)
(0 0 0)
(0 0 0)
(0 0 0)
(0 0 0)
(0.0001994270708 0 0)
(7.33939676e-05 0 0)
(0 0 0)
(0 0 0)
(0 0 0)
(0 0 0)
(0 0 0)
(0 0 0)
(0 0 0)
(0 0 0)
(0 0 0)
(0 0 0)
(0 0 0)
(0 0 0)
(0 0 0)
(0 0 0)
(0 0 0)
(0 0 0)
(0 0 0)
(0 0 0)
(0 0 0)
(0 0 0)
(0 0 0)
(0 0 0)
(0 0 0)
(0 0 0)
(0 0 0)
(0 0 0)
(0 0 0)
(0 0 0)
(0 0 0)
(0 0 0)
(0 0 0)
(0 0 0)
(0 0 0)
(0 0 0)
(0 0 0)
(0 0 0)
(0 0 0)
(0 0 0)
(0.0008942994084 0 0)
(-2.115728147e-05 0 0)
(0 0 0)
(0 0 0)
(0 0 0)
(0 0 0)
(0 0 0)
(0 0 0)
(0 0 0)
(0 0 0)
(0 0 0)
(0 0 0)
(0 0 0)
(0 0 0)
(0 0 0)
(0 0 0)
(0 0 0)
(0 0 0)
(0 0 0)
(0 0 0)
(0 0 0)
(0 0 0)
(0 0 0)
(0 0 0)
(0 0 0)
(0 0 0)
(0 0 0)
(0 0 0)
(0 0 0)
(0 0 0)
(0 0 0)
(0 0 0)
(0 0 0)
(0 0 0)
(0 0 0)
(0 0 0)
(0 0 0)
(0 0 0)
(0 0 0)
(0 0 0)
(-0.001517985559 0 0)
(-0.707069994 -0.707069994 0)
(0 -0.9998514923 0)
(0 -0.9990614543 0)
(0 -0.9488114822 0)
(0 0 0)
(0 0 0)
(0 0 0)
(0 0 0)
(0 0 0)
(0 0 0)
(0 0 0)
(0 0 0)
(0 0 0)
(0 0 0)
(0 0 0)
(0 0 0)
(0 0 0)
(0 0 0)
(0 0 0)
(0 0 0)
(0 0 0)
(0 0 0)
(0 0 0)
(0 0 0)
(0 0 0)
(0 0 0)
(0 0 0)
(0 0 0)
(0 0 0)
(0 0 0)
(0 0 0)
(0 0 0)
(0 0 0)
(0 0 0)
(0 0 0)
(0 0 0)
(0 -0.9498603009 0)
(0 -0.9990725649 0)
(0 -0.9998524949 0)
(0.7070703061 -0.7070703061 0)
(-0.02999589541 0.9995499702 0)
(0 0.9999999153 0)
(0 0.9999998234 0)
(0 0.9999985619 0)
(0 0 0)
(0 0 0)
(0 0 0)
(0 0 0)
(0 0 0)
(0 0 0)
(0 0 0)
(0 0 0)
(0 0 0)
(0 0 0)
(0 0 0)
(0 0 0)
(0 0 0)
(0 0 0)
(0 0 0)
(0 0 0)
(0 0 0)
(0 0 0)
(0 0 0)
(0 0 0)
(0 0 0)
(0 0 0)
(0 0 0)
(0 0 0)
(0 0 0)
(0 0 0)
(0 0 0)
(0 0 0)
(0 0 0)
(0 0 0)
(0 0 0)
(0 0 0)
(0 0.9999985694 0)
(0 0.9999998236 0)
(0 0.9999999154 0)
(0.02980943252 0.9995555484 0)
(-0.2004740074 0.9778166798 -0.06070139948)
(-0.3235222544 0.9461188917 -0.01386889559)
(-0.2608676465 0.9653604748 0.005213234058)
(-0.1909591251 0.9808390529 0.03859141559)
(-0.03843299479 0.9992611242 0)
(0 0.9999998421 0)
(0 0 0)
(0 0 0)
(0 0 0)
(0 0 0)
(0 0 0)
(0 0 0)
(0 0 0)
(0 0 0)
(0 0 0)
(0 0 0)
(0 0 0)
(0 0 0)
(0 0 0)
(0 0 0)
(0 0 0)
(0 0 0)
(0 0 0)
(0 0 0)
(0 0 0)
(0 0 0)
(0 0 0)
(0 0 0)
(0 0 0)
(0 0 0)
(0 0 0)
(0 0 0)
(0 0 0)
(0 0 0)
(0 0.999999842 0)
(0.03863157701 0.9992534667 0)
(0.1911298056 0.9807922307 0.03893494858)
(0.2610023733 0.9653218541 0.005606436339)
(0.3230246092 0.9462985281 -0.01319660153)
(0.1998402586 0.9779466044 -0.06069807796)
(0.2479470088 0.9683778936 0.02768363606)
(0.1398065652 0.9898475271 -0.02561119784)
(-0.2682163965 0.963358528 -0.0005118266394)
(-0.422329375 0.9041485691 0.06444553762)
(-0.4140237198 0.910255455 0.004396543255)
(-0.3391237604 0.9378548565 0.07364309745)
(-0.2012600462 0.9795378146 0)
(0 0.9999999096 0)
(0 0.9999989008 0)
(0 0 0)
(0 0 0)
(0 0 0)
(0 0 0)
(0 0 0)
(0 0 0)
(0 0 0)
(0 0 0)
(0 0 0)
(0 0 0)
(0 0 0)
(0 0 0)
(0 0 0)
(0 0 0)
(0 0 0)
(0 0 0)
(0 0 0)
(0 0 0)
(0 0 0)
(0 0 0)
(0 0 0)
(0 0 0)
(0 0.9999988886 0)
(0 0.9999999093 0)
(0.2012308869 0.9795438053 0)
(0.3391369822 0.9378343132 0.07384355607)
(0.4143659028 0.9100964812 0.005025652884)
(0.4223533638 0.9040744766 0.06532181946)
(0.2679259747 0.9634394436 -0.0002477963532)
(-0.1400478338 0.9898275788 -0.02505802409)
(-0.247977076 0.9683414442 0.02867167818)
(0.6237931598 0.771118588 -0.1275072577)
(0.7579554699 0.5924434085 -0.2729728833)
(0.6147188834 0.7577574685 -0.2189158352)
(0.2384856723 0.971145968 0)
(0 0.9999999687 0)
(-0.4019779488 0.9156493252 0)
(-0.6090095361 0.7819408732 0.1329504591)
(-0.5287418875 0.8459564796 0.06920704969)
(-0.3902471272 0.9196280498 0.04462464816)
(-0.1989011251 0.9800193392 0)
(0 0 0)
(0 0 0)
(0 0 0)
(0 0 0)
(0 0 0)
(0 0 0)
(0 0 0)
(0 0 0)
(0 0 0)
(0 0 0)
(0 0 0)
(0 0 0)
(0 0 0)
(0 0 0)
(0 0 0)
(0 0 0)
(0 0 0)
(0 0 0)
(0 0 0)
(0 0 0)
(0.1979337636 0.9802151729 0)
(0.3899716632 0.9197573577 0.04436703833)
(0.5286460194 0.8460360071 0.06896684369)
(0.6093195698 0.7817046493 0.1329190426)
(0.4024551003 0.9154397032 0)
(0 0.9999999687 0)
(-0.2386202139 0.9711129186 0)
(-0.6148276447 0.7576653871 -0.2189291164)
(-0.758027132 0.5924076049 -0.2728515685)
(-0.6236968747 0.7711888886 -0.1275530886)
(6.877829845e-09 0.9999999443 0)
(0 0.9999998613 0)
(0 0.9999998054 0)
(0 0 0)
(0 0 0)
(0 0 0)
(-0.110359232 0.9938917125 0)
(-0.5215898463 0.8483795562 0.09053241027)
(-0.656981813 0.7433087588 0.1259641064)
(-0.5372331412 0.8399781012 0.07627122797)
(-0.4025493149 0.9153982027 0)
(0 0 0)
(0 0 0)
(0 0 0)
(0 0 0)
(0 0 0)
(0 0 0)
(0 0 0)
(0 0 0)
(0 0 0)
(0 0 0)
(0 0 0)
(0 0 0)
(0 0 0)
(0 0 0)
(0 0 0)
(0 0 0)
(0 0 0)
(0 0 0)
(0.4017383588 0.9157543943 0)
(0.536849958 0.8402520235 0.07595142099)
(0.6569813435 0.7433345904 0.1258140322)
(0.5220939867 0.8480307196 0.0908940271)
(0.1111762094 0.9938006575 0)
(0 0 0)
(0 0 0)
(0 0 0)
(0 0.9999998053 0)
(0 0.9999998613 0)
(-9.064261641e-08 0.9999999443 0)
(1.74483106e-06 0 0)
(0 0 0)
(0 0 0)
(0 0 0)
(0 0 0)
(0 0 0)
(0 0 0)
(0 0.9999995302 0)
(-0.3606443481 0.9327033699 0)
(-0.6529127763 0.7465801753 0.1277611662)
(-0.6372248351 0.7593124918 0.1318674257)
(-0.4559998238 0.8899798151 0)
(0 0 0)
(0 0 0)
(0 0 0)
(0 0 0)
(0 0 0)
(0 0 0)
(0 0 0)
(0 0 0)
(0 0 0)
(0 0 0)
(0 0 0)
(0 0 0)
(0 0 0)
(0 0 0)
(0 0 0)
(0 0 0)
(0.4553561671 0.8903093122 0)
(0.637010469 0.7595664633 0.1314397918)
(0.6530329357 0.7464765471 0.1277525606)
(0.3613014136 0.9324490392 0)
(0 0.9999995344 0)
(0 0 0)
(0 0 0)
(0 0 0)
(0 0 0)
(0 0 0)
(0 0 0)
(-1.770680363e-06 0 0)
(4.471925188e-06 0 0)
(0 0 0)
(0 0 0)
(0 0 0)
(0 0 0)
(0 0 0)
(0 0 0)
(0 0 0)
(0 0 0)
(-0.1549049741 0.9879292665 0)
(-0.6014115115 0.7952043419 0.07716351791)
(-0.6815023164 0.7018786596 0.2071736274)
(-0.5335248202 0.844103848 0.05329077167)
(0 0.9999996547 0)
(0 0 0)
(0 0 0)
(0 0 0)
(0 0 0)
(0 0 0)
(0 0 0)
(0 0 0)
(0 0 0)
(0 0 0)
(0 0 0)
(0 0 0)
(0 0 0)
(0 0.999999654 0)
(0.533088436 0.8443977879 0.05300039146)
(0.6814366064 0.7020247221 0.2068946906)
(0.6015014887 0.7951164208 0.07736792991)
(0.1557918163 0.9877898043 0)
(0 0 0)
(0 0 0)
(0 0 0)
(0 0 0)
(0 0 0)
(0 0 0)
(0 0 0)
(0 0 0)
(-3.425032993e-06 0 0)
(5.454192416e-06 0 0)
(0 0 0)
(0 0 0)
(0 0 0)
(0 0 0)
(0 0 0)
(0 0 0)
(0 0 0)
(0 0 0)
(0 0 0)