/*--------------------------------*- C++ -*----------------------------------*\
  =========                 |
  \\      /  F ield         | OpenFOAM: The Open Source CFD Toolbox
   \\    /   O peration     | Website:  https://openfoam.org
    \\  /    A nd           | Version:  10
     \\/     M anipulation  |
\*---------------------------------------------------------------------------*/
FoamFile
{
    format      ascii;
    class       volScalarField;
    location    "0.0005";
    object      p;
}
// * * * * * * * * * * * * * * * * * * * * * * * * * * * * * * * * * * * * * //

dimensions      [1 -1 -2 0 0 0 0];

internalField   nonuniform List<scalar> 
16000
(
0.3351617831
-0.978830244
-1.328868774
-2.213543261
-2.134645192
-0.9705351998
-0.4390959318
-0.0513872709
0.03640700813
-0.02266523338
-0.1529622097
-0.2831206615
-0.3947310375
-0.4668248157
-0.5107480383
-0.5384045555
-0.5574463096
-0.569817662
-0.5768341401
-0.5799194417
-0.5796705996
-0.5762004924
-0.5690565839
-0.5567721948
-0.5378088836
-0.5099438067
-0.4654297672
-0.3925379537
-0.2803092333
-0.1500915275
-0.02042748478
0.03786563695
-0.05110756705
-0.4385513031
-0.9682983202
-2.13050947
-2.210193596
-1.327076068
-0.9767449284
0.3337854295
-6.048517956
4.447565871
2.608271728
-0.4773892523
0.4156743507
-0.1388924849
-0.2842976745
0.2103092373
0.293631353
0.1012618234
-0.2129231059
-0.4326492772
-0.5628237554
-0.5852258314
-0.5603502725
-0.5225475479
-0.4880451936
-0.458121642
-0.4354004689
-0.4232952454
-0.4226628047
-0.433781655
-0.456106175
-0.4860138221
-0.5202773738
-0.5569513758
-0.5798131413
-0.5551610392
-0.4236670495
-0.2042103219
0.1079100434
0.2978744651
0.2095371293
-0.2834924213
-0.1357117603
0.4215941076
-0.4700479828
2.61869636
4.480298533
-5.977056336
5050.398583
253.0077978
-42.05124407
15.92281859
-3.339969337
-4.622656005
-1.561321072
0.09095477638
0.4811211075
0.2331655455
-0.3098932514
-0.6437670025
-0.8018162278
-0.7478397562
-0.6368032291
-0.5253979243
-0.4351851425
-0.3606287417
-0.3060778327
-0.2784326518
-0.2777778237
-0.3044589893
-0.35868269
-0.4330670104
-0.522365579
-0.6315500138
-0.7393697944
-0.7902986651
-0.630783702
-0.2970350691
0.2439673982
0.4921568802
0.1027572459
-1.553623315
-4.609371519
-3.312794145
15.97807342
-42.01077399
250.735869
5039.080577
11492.79728
12220.24871
8788.602772
-1939.086825
-1474.106322
-61.49549937
-7.303309216
2.29566241
1.913373584
0.5513415254
-0.4172176371
-0.969205236
-1.210718842
-0.9725917207
-0.7134742956
-0.5017694006
-0.3455333602
-0.2144555559
-0.1182139946
-0.0715964908
-0.07086601992
-0.1164382181
-0.2122932808
-0.3429223144
-0.4977162779
-0.7068154999
-0.962788111
-1.198268405
-0.955536777
-0.4033287242
0.5634148162
1.925951611
2.276762395
-7.328864077
-61.25671402
-1474.083561
-1946.260029
8776.199927
12191.11444
11469.22857
16565.33566
24943.21439
20185.98019
-1764.112832
14125.34285
12866.10005
-684.9645295
-95.66660574
4.893624723
1.543747381
-0.558136108
-1.231401188
-1.953774374
-1.326948771
-0.7856519869
-0.4288012254
-0.1996823352
0.005302904156
0.1585164993
0.2272922588
0.2286735307
0.1620074429
0.009808877541
-0.1945588731
-0.4227616531
-0.7785056894
-1.318460804
-1.943157249
-1.218604707
-0.5494602016
1.539829278
4.925122375
-95.29632925
-686.0927073
12845.05534
14118.66848
-1782.127548
20178.7743
24916.08376
16532.49782
-16122.40624
5474.166514
10475.18393
6182.181998
9619.886605
10628.53184
7197.639491
1619.573651
-1156.192262
-29.82608675
-2.138559603
-0.0344043563
-2.388218505
-1.702053445
-0.8340398575
-0.3007191142
0.004030695158
0.3229490227
0.5587663298
0.6467153034
0.6490959483
0.5648152569
0.3306795491
0.01187177619
-0.2940272334
-0.8292879536
-1.697447217
-2.378331025
-0.01461848652
-2.11377101
-29.77523455
-1153.697863
1593.775902
7181.332357
10615.90093
9608.962263
6170.195368
10464.66307
5459.17144
-16148.95686
-5094.76035
1666.232316
5241.484302
5653.699515
6785.466325
6875.889287
5113.458573
4051.741416
2453.29562
-2250.82195
-63.08616527
-2.466362866
0.5457477722
-0.8651056941
-0.507110311
-0.122244866
0.2046928306
0.7449433689
1.116119644
1.201558716
1.204245972
1.122561604
0.7526014343
0.2114132194
-0.1188775122
-0.5086156252
-0.867973486
0.54549545
-2.495046254
-62.83530666
-2255.787619
2452.307495
4049.05101
5104.259248
6863.938706
6773.219977
5640.995086
5228.065449
1650.014224
-5115.723512
-1147.135191
1251.896398
3244.759237
4175.103949
4742.249623
4648.735382
3816.516709
3204.964791
1347.42279
62.40570432
-4432.08968
-626.320847
-34.36676386
-2.30048428
-0.1050977066
0.1675031364
0.4061758416
1.306247064
1.885343472
1.892744431
1.895271647
1.890168843
1.309937118
0.4082421613
0.167345389
-0.1101404165
-2.302737007
-34.43039044
-624.4352301
-4429.642694
67.19186782
1348.854601
3206.608175
3809.097896
4637.132117
4728.871353
4160.514378
3228.757394
1233.853528
-1167.27326
307.3462968
1258.886324
2285.451296
2937.880126
3219.287317
3032.855894
2352.989674
1297.399746
-660.2405547
-1627.992249
-3430.299088
-5915.940561
-2613.906766
3.805521119
2.819255135
4.724709078
3.180809364
3.315886744
3.51711939
3.031877086
3.035642821
3.523455712
3.318682834
3.17855745
4.726667517
2.812952431
3.8335421
-2610.980157
-5911.256089
-3423.238422
-1622.658508
-656.5128916
1294.503036
2344.27125
3020.376067
3204.511638
2921.409326
2267.3934
1239.260545
286.5689962
750.8467977
1153.640891
1649.922824
1989.644584
2068.184007
1813.33989
1194.682489
211.0451911
-1249.770943
-3139.396242
-4997.67907
-6539.260297
-9049.072833
-8471.848963
-640.4106741
-19.7101403
-2.70811537
5.644681397
5.281951189
3.983947119
3.989624359
5.294084714
5.653386647
-2.706620719
-19.75976578
-640.1704078
-8467.435995
-9034.398507
-6530.211358
-4988.223941
-3133.452602
-1250.320237
205.0419853
1184.170596
1799.49015
2051.923083
1971.506742
1630.200285
1132.625679
729.0466006
745.8319608
913.1206145
1123.440959
1242.064476
1178.348404
873.7915695
301.4004143
-536.179553
-1603.522372
-2677.939151
-3198.359002
-8556.495563
-10287.8977
-12571.55666
-13951.07559
-7679.981073
-831.1397386
2.243864232
6.120188468
-1.251592366
-1.228209941
6.177615535
2.246535137
-831.0579697
-7679.562168
-13946.72194
-12564.58833
-10277.9109
-8547.666069
-3189.697524
-2676.12061
-1607.310128
-544.6240015
289.1347713
858.5028245
1160.691789
1222.515148
1102.369933
890.9215598
723.0127027
539.9626266
595.8229202
651.031004
631.4519243
473.978358
133.2035389
-416.7914256
-1183.520813
-2157.916075
-3312.341488
-4715.334526
-7080.150345
-11674.58733
-13189.26227
-14061.40778
-18728.8493
-21426.45323
-18084.9872
-12526.36446
-9463.245265
-9463.918989
-12525.21118
-18082.27195
-21423.33306
-18724.47412
-14056.16785
-13183.65379
-11665.22061
-7067.893128
-4711.328778
-3314.14025
-2164.445299
-1194.029318
-430.6390702
116.5987257
455.1197453
610.7662346
628.91001
572.6849031
516.2921259
254.6282922
254.369325
225.1594017
124.3884827
-90.11352135
-453.0637317
-989.6657825
-1717.654182
-2654.260958
-3833.10058
-5353.811015
-7436.613398
-10037.67599
-11974.71589
-17549.95637
-19183.28744
-19610.00706
-19844.81189
-23748.82042
-25492.52077
-25491.95639
-23748.44531
-19843.45
-19605.13176
-19177.37773
-17544.29839
-11968.7427
-10033.41768
-7433.705951
-5354.857202
-3838.235167
-2663.171009
-1729.928381
-1004.871543
-470.774595
-109.9268385
102.8547089
202.287039
230.5656519
230.348775
-47.03377859
-76.17799668
-150.4593795
-295.6424283
-540.1277078
-910.2674976
-1428.795542
-2116.389231
-2996.641012
-4104.837019
-5498.488645
-7243.465662
-9311.022103
-11614.67962
-14950.2399
-18285.04062
-21154.28402
-20523.44795
-23499.63582
-24225.39276
-24225.24623
-23501.91118
-20518.23149
-21149.51143
-18280.28784
-14947.50418
-11613.06417
-9310.913245
-7245.305189
-5503.154443
-4112.620401
-3007.49458
-2130.105479
-1445.0924
-928.8298971
-560.6262073
-317.7369884
-173.792633
-100.3702551
-71.65592954
-331.72322
-375.2359452
-471.8982368
-638.0106987
-893.0312984
-1256.695969
-1747.844865
-2385.033203
-3188.696817
-4183.848028
-5400.147977
-6861.749548
-8566.859726
-10523.7548
-12852.36827
-15240.65272
-17406.3186
-19150.97067
-23488.98623
-25383.02683
-25382.9198
-23491.2554
-19150.45996
-17404.93891
-15239.61318
-12852.46038
-10525.10174
-8569.765337
-6866.592624
-5407.343923
-4193.608685
-3201.041563
-2399.853363
-1764.950862
-1275.84769
-913.9548845
-660.4057467
-495.4385349
-399.5777402
-356.4472986
-582.538109
-632.195422
-737.7546796
-909.8233948
-1161.878137
-1508.396565
-1963.92033
-2542.965349
-3260.484411
-4132.052454
-5172.287377
-6390.086545
-7783.907765
-9349.445466
-11077.00622
-12840.17499
-14507.55946
-16062.15784
-17941.01343
-19050.671
-19050.86388
-17941.93798
-16062.87432
-14508.26609
-12841.43433
-11079.26649
-9352.972455
-7788.977113
-6396.979708
-5181.252413
-4143.233904
-3273.912409
-2558.576421
-1981.579429
-1527.916316
-1183.031754
-932.351814
-761.3707516
-656.5975635
-607.267363
-792.0043257
-842.9128382
-949.2201921
-1117.805975
-1357.99362
-1680.124738
-2094.772486
-2612.301142
-3242.563613
-3994.287506
-4873.585161
-5881.434831
-7011.346607
-8248.535275
-9562.482754
-10884.10414
-12137.16924
-13279.80375
-14317.0218
-14935.37743
-14935.68153
-14317.9719
-13281.21909
-12139.10885
-10886.82589
-9566.257134
-8253.594741
-7017.915454
-5889.720549
-4883.756866
-4006.449858
-3256.747525
-2628.469621
-2112.832688
-1699.940496
-1379.396683
-1140.603114
-973.1947713
-867.8179332
-817.2229916
-958.2502222
-1007.337684
-1109.425438
-1268.730805
-1491.589766
-1785.143262
-2156.653091
-2612.945496
-3159.850862
-3801.428532
-4538.768857
-5368.380247
-6280.476902
-7257.110877
-8268.352618
-9267.783541
-10202.18604
-11023.30987
-11680.16507
-12053.33804
-12053.6966
-11681.24735
-11025.09965
-10204.74714
-9271.265831
-8272.941012
-7262.99459
-6287.841323
-5377.395059
-4549.575307
-3814.126339
-3174.493657
-2629.545019
-2175.190474
-1805.583661
-1513.899984
-1292.891809
-1135.419909
-1035.052439
-986.733748
-1082.880339
-1128.175177
-1222.868012
-1369.34332
-1571.737683
-1834.749091
-2163.040046
-2560.684199
-3030.576833
-3573.714494
-4188.26756
-4868.461192
-5603.356085
-6375.515474
-7159.421099
-7920.813925
-8620.155976
-9216.523478
-9665.503103
-9910.392425
-9910.61928
-9666.200685
-9217.739653
-8621.989419
-7923.415407
-7162.983309
-6380.255377
-5609.502785
-4876.242944
-4197.901927
-3585.403714
-3044.512273
-2577.059949
-2182.077336
-1856.732423
-1597.063526
-1398.566436
-1256.682541
-1167.12653
-1125.898255
-1169.610476
-1210.655653
-1295.663475
-1426.680943
-1606.413184
-1837.785411
-2123.520781
-2465.673145
-2865.108884
-3320.909236
-3829.674729
-4384.751083
-4975.431953
-5586.205193
-6196.195479
-6779.357267
-7306.123173
-7745.415777
-8065.514523
-8235.279301
-8234.44266
-8063.06528
-7741.526615
-7301.066214
-6773.497266
-6189.986187
-5580.182513
-4970.197918
-4380.953812
-3827.998244
-3322.079737
-2869.918335
-2475.023379
-2138.496135
-1859.765286
-1637.236777
-1468.858227
-1352.528343
-1285.987934
-1265.088145
-0.08316353997
-0.9227874037
-1.332365849
-2.213409079
-2.284138471
-1.018787313
-0.4820140977
-0.07080396116
0.01255281331
-0.04633804632
-0.1734646959
-0.2935879488
-0.392640987
-0.4553087389
-0.4945146454
-0.5211133362
-0.5414208736
-0.5560173425
-0.565059824
-0.5693785277
-0.5693801979
-0.565110457
-0.5561889544
-0.5416750952
-0.5212221075
-0.4941617065
-0.4542552615
-0.3908781026
-0.2915309819
-0.1714965079
-0.04504325497
0.01269284997
-0.07101851
-0.4819129697
-1.016458255
-2.27938988
-2.209917811
-1.331248273
-0.9210213283
-0.08700014314
-2.584172872
3.901947134
1.183269736
-0.9599993392
-0.07632202449
-0.1255558385
-0.3293931192
0.1907784025
0.2441024984
0.03406970124
-0.2830982393
-0.4812717253
-0.5819051673
-0.5878037578
-0.554103468
-0.5133408704
-0.4800944854
-0.4533740204
-0.4335810614
-0.4233075717
-0.4232700345
-0.4335539309
-0.4534322992
-0.4799641672
-0.5122889489
-0.5513832678
-0.5830429117
-0.5754745151
-0.4742413839
-0.2766410391
0.038123024
0.2418118918
0.1884659687
-0.3296094533
-0.121960939
-0.07076104396
-0.9507545324
1.193034614
3.916040935
-2.582151407
4133.601442
198.2739745
-31.47218217
11.91385987
-7.260225274
-4.017630242
-1.5272208
0.1294045272
0.4053495883
0.09816253311
-0.4793887825
-0.7725175972
-0.8548906065
-0.7669696836
-0.6393779943
-0.5224515267
-0.4354007476
-0.3665758124
-0.3161061142
-0.290526884
-0.2904594504
-0.3160043141
-0.3664367385
-0.4346443497
-0.5199857847
-0.6343060944
-0.7592479014
-0.8453456689
-0.7625512963
-0.4696196396
0.1067781954
0.418327838
0.1401506951
-1.519809954
-4.002856553
-7.230788843
11.98240282
-31.39893497
196.7671725
4123.663483
11726.20038
12654.49145
8988.365292
-1586.782771
-1242.438302
-63.81598079
-7.9118628
2.937979282
1.823681596
0.350911556
-0.6856331862
-1.260241952
-1.322852196
-1.014996112
-0.7227702816
-0.5005446023
-0.354194343
-0.2354571289
-0.1450192281
-0.1001381684
-0.09977822706
-0.1441091219
-0.2340552308
-0.3516877593
-0.4959722217
-0.7157451913
-1.006102481
-1.312944365
-1.250382382
-0.6751669296
0.3588612016
1.827409629
2.907370006
-7.973311791
-63.65496709
-1243.881743
-1592.054589
8993.251485
12641.11245
11698.15618
17707.53142
21720.97185
20024.10567
-261.2606963
15671.92502
15328.3891
-456.8717769
-147.5475695
2.690986898
1.435181904
-0.530942353
-1.638261447
-2.100700397
-1.397208436
-0.7986347883
-0.4174145004
-0.2177873172
-0.03939281226
0.1082753527
0.1779041371
0.1789488724
0.1110468413
-0.03536799492
-0.2124826173
-0.4107718762
-0.7912757686
-1.390001639
-2.092981173
-1.629936064
-0.5256142722
1.419454926
2.663443734
-147.0443626
-458.4218543
15317.17659
15667.3259
-273.644276
20029.79688
21850.80391
17671.71399
-14605.58957
4564.776845
10207.91693
6827.373962
10213.00926
11485.46947
7590.109334
2374.026255
-1286.402571
-34.06079437
-5.81836115
-0.8516962227
-2.534447797
-1.796845234
-0.8440053652
-0.2467793513
-0.03874429764
0.2274142338
0.4760076692
0.5771861915
0.5789908031
0.4807737166
0.2339343801
-0.03155716008
-0.2401502269
-0.8392877197
-1.793981779
-2.527177574
-0.8370104714
-5.786843452
-33.93988693
-1284.101066
2346.606911
7572.299278
11476.47837
10204.36904
6818.269001
10203.8387
4573.204632
-14627.5313
-4752.799644
1473.090852
5203.745263
5927.66953
7077.736238
7187.193346
5158.163167
4126.96569
2425.608927
-2570.07394
-161.7265614
-13.55248788
-0.9114782715
-1.09629697
-0.4487102257
0.07643515
0.07246304847
0.5153202086
0.9859058363
1.128375156
1.130340982
0.9909517612
0.5216905868
0.07832248805
0.07975577964
-0.4496741574
-1.10119779
-0.9080571666
-13.60794747
-160.8570128
-2575.623941
2420.612952
4121.214285
5147.911589
7175.191584
7065.449819
5914.85363
5190.539199
1458.576094
-4774.966472
-992.3955167
1286.46881
3314.198415
4338.313937
4928.067727
4834.980311
3903.975709
3048.633512
1211.617991
-183.3418737
-4879.76456
-1045.267051
-32.62195067
-2.594169263
0.5162529575
0.8377314531
0.1727765766
0.8509552698
1.726018753
1.889360847
1.890988972
1.729856029
0.8547297275
0.1752846802
0.8379410227
0.5123757603
-2.610425435
-32.70136586
-1041.38161
-4876.608646
-184.4109166
1208.934275
3046.88122
3894.051101
4821.407438
4912.737473
4321.503463
3295.614586
1265.546758
-1016.124343
420.3875259
1343.542847
2377.423021
3058.442008
3355.954671
3177.621818
2476.535554
1345.31044
-788.5050716
-1876.687236
-3633.650216
-5750.892522
-3690.007362
-13.93071552
1.071385175
5.580649927
3.304809928
3.023504123
3.865569289
3.531062975
3.533669192
3.871817684
3.026552177
3.304915484
5.581959707
1.071632396
-13.88967042
-3684.219964
-5740.231739
-3624.858096
-1872.49925
-786.9653352
1339.354728
2464.71327
3162.049946
3337.906547
3038.350036
2355.317026
1319.471901
394.8528431
838.276889
1234.193896
1732.785526
2083.60513
2174.68612
1934.96514
1335.122284
387.9830318
-1002.181721
-3187.232732
-4920.593611
-6393.688962
-9079.959504
-9775.209004
-970.8599838
-0.3068262443
-16.09613345
1.128329746
7.174749494
5.262749202
5.266720184
7.186863492
1.147560582
-16.0715357
-0.3249541337
-970.0585422
-9769.888371
-9069.61025
-6384.830194
-4910.736957
-3183.33188
-1005.631063
378.6328999
1321.003422
1917.257797
2154.242994
2060.895307
1708.089873
1207.866635
810.9606188
811.6534761
977.7523039
1190.221785
1315.582984
1262.285358
972.8672927
423.2836347
-374.4776153
-1367.871562
-2298.947391
-1786.346971
-9322.405104
-10187.21998
-12629.12123
-15193.41095
-10557.08375
-1713.588732
-63.80764414
22.79630908
4.547649546
4.560030322
22.81872644
-63.71541108
-1712.188838
-10554.0698
-15193.24571
-12625.92097
-10180.06719
-9315.896472
-1773.892796
-2298.784078
-1374.674167
-386.5216545
407.0017657
953.1708577
1239.816659
1290.814084
1163.55685
949.6658614
782.7834567
589.1097048
645.535714
703.3615548
689.3957983
540.8107392
212.7472603
-319.8092024
-1063.220788
-2011.390321
-3157.440081
-4627.615873
-7950.546858
-11591.20858
-13184.43501
-13940.29686
-17842.04166
-20857.89397
-19583.02339
-15598.43722
-12762.70714
-12760.84709
-15597.84466
-19582.45429
-20856.5095
-17839.43914
-13936.06693
-13180.78205
-11584.94282
-7946.257226
-4626.264925
-3162.098426
-2021.320205
-1077.623116
-338.009123
191.3448032
516.721253
663.0730916
675.2519847
616.1462162
559.0450158
292.0607245
292.9621322
266.650193
171.06589
-35.61475196
-387.8506706
-910.7576293
-1622.657647
-2544.08708
-3718.621193
-5264.627125
-7443.751165
-9865.808714
-11908.35193
-17296.92649
-19070.46538
-19585.79086
-19049.62017
-21540.30338
-23569.31591
-23568.19891
-21539.01319
-19054.68316
-19576.3275
-19063.33845
-17291.83492
-11907.62317
-9864.759134
-7444.660072
-5268.832466
-3727.049372
-2556.679481
-1639.06295
-930.5540736
-410.6053122
-60.90292467
143.666416
237.5845578
262.7287643
261.2231411
-17.35943146
-45.17174865
-116.5102014
-256.8355445
-494.2727515
-854.9727686
-1361.577223
-2034.914583
-2899.283948
-3991.140211
-5366.944166
-7082.304059
-9059.484328
-11276.86845
-14450.14136
-17795.20824
-20960.4036
-20279.8304
-21408.67959
-23534.63562
-23533.81198
-21402.78823
-20286.19738
-20953.10975
-17792.3511
-14449.34087
-11277.94375
-9062.107078
-7087.172398
-5374.775395
-4002.373022
-2913.974465
-2052.900635
-1382.589516
-878.6874119
-520.3333313
-284.856468
-146.0680414
-75.79511507
-48.53097918
-307.0318332
-349.2351641
-443.0685309
-604.6861953
-853.3207792
-1208.494358
-1688.823441
-2312.584004
-3099.747945
-4074.215136
-5262.687698
-6683.126763
-8324.958121
-10204.02233
-12438.07631
-14789.78293
-16939.57877
-18249.14999
-20289.73514
-23515.58345
-23514.69357
-20289.81428
-18250.77149
-16939.1801
-14790.3941
-12440.10032
-10207.63669
-8330.397911
-6690.81021
-5273.025612
-4087.465293
-3115.973963
-2331.700239
-1710.643297
-1232.762786
-879.7317324
-632.8894968
-472.6701255
-379.799078
-338.0933708
-561.0158056
-609.5184336
-712.4578524
-880.4466025
-1126.770701
-1465.693528
-1911.483428
-2478.254967
-3180.305714
-4032.076862
-5046.289338
-6229.25293
-7577.34725
-9087.668316
-10754.16822
-12467.43721
-14069.9724
-15416.4316
-16787.48595
-17936.84488
-17937.04119
-16788.5168
-15418.15469
-14071.88017
-12470.22905
-10758.24994
-9093.318319
-7584.844138
-6238.895107
-5058.338105
-4046.697145
-3197.544441
-2498.052556
-1933.693264
-1490.099842
-1153.100488
-908.3774669
-741.6246907
-639.5270591
-591.4670958
-772.4643665
-822.5355638
-926.5098639
-1091.482624
-1326.628429
-1642.098995
-2048.21732
-2554.991826
-3171.751923
-3906.467836
-4764.252946
-5745.040445
-6841.77499
-8040.272474
-9311.996677
-10591.31255
-11792.16931
-12841.53889
-13733.12123
-14304.02345
-14304.46669
-13734.5118
-12843.81007
-11795.27927
-10595.51269
-9317.547957
-8047.41047
-6850.726722
-5756.017809
-4777.427102
-3921.941594
-3189.545943
-2575.04492
-2070.392927
-1666.193309
-1352.37809
-1118.574392
-954.5991078
-851.2840707
-801.5693119
-939.7680613
-988.5747255
-1088.766684
-1245.033888
-1463.629636
-1751.54958
-2115.860577
-2563.126279
-3098.827066
-3726.580012
-4446.984938
-5256.140269
-6144.147803
-7093.456812
-8075.090957
-9043.543579
-9942.95032
-10718.7524
-11322.70296
-11667.95406
-11668.52023
-11324.4093
-10721.58911
-9946.949088
-9048.831524
-8081.828902
-7101.808376
-6154.268539
-5268.164945
-4461.011201
-3742.651647
-3116.923237
-2583.156901
-2137.66532
-1774.898621
-1488.227717
-1270.536661
-1114.833322
-1014.983073
-966.4558987
-1064.50521
-1110.231897
-1203.789931
-1348.106932
-1547.302758
-1805.983178
-2128.67733
-2519.286138
-2980.493167
-3513.056794
-4114.922642
-4780.178397
-5497.931273
-6251.052075
-7014.580332
-7754.786712
-8431.870785
-9004.334776
-9430.34435
-9662.002618
-9662.69861
-9432.434523
-9007.82513
-8436.791332
-7761.203699
-7022.580709
-6260.725442
-5509.357866
-4793.416863
-4129.997534
-3529.946455
-2999.120134
-2539.509717
-2150.28742
-1828.694901
-1570.7587
-1371.916043
-1227.690403
-1134.531483
-1090.52805
-1150.87515
-1192.644245
-1277.586955
-1407.742839
-1585.767204
-1814.523709
-2096.654455
-2434.112503
-2827.64862
-3276.227787
-3776.361636
-4321.376568
-4900.664291
-5498.960836
-6095.777968
-6665.502029
-7178.899513
-7605.380474
-7914.747279
-8078.776474
-8079.032023
-7915.533559
-7606.754893
-7180.958461
-6668.38153
-6099.647222
-5504.011893
-4907.099058
-4329.393138
-3786.143352
-3287.935812
-2841.418323
-2450.054783
-2114.863823
-1835.098195
-1608.861566
-1433.739192
-1307.668027
-1230.556389
-1207.477106
-0.1928316443
-0.8960164822
-1.262836004
-2.069959899
-2.358703177
-1.221452561
-0.5722975736
-0.1095113037
-0.02523754432
-0.07945884062
-0.1956013867
-0.2962637571
-0.3753687538
-0.4270722714
-0.4621797229
-0.4897933015
-0.5140169816
-0.5335290807
-0.5467130536
-0.5533604327
-0.5535857554
-0.547355949
-0.5344620105
-0.5149707864
-0.4903660443
-0.4620316882
-0.426125482
-0.3738763991
-0.2946313255
-0.1941546054
-0.07840731324
-0.02459326185
-0.1093765217
-0.5719214768
-1.218671682
-2.35101634
-2.066699376
-1.26323249
-0.8952199663
-0.1961278429
1.559449803
5.848567761
0.8418788217
-0.8810262365
-0.5046324098
-0.1551912691
-0.3770094314
0.1719502437
0.1577353765
-0.06713217944
-0.3744182791
-0.5284491425
-0.5886513534
-0.5772816564
-0.5377086529
-0.4983159356
-0.4709397308
-0.4520374749
-0.438753035
-0.4320264551
-0.432469113
-0.4399712991
-0.4536155235
-0.472055625
-0.4979328279
-0.5351400475
-0.5726756162
-0.5829072177
-0.5226776558
-0.3691924922
-0.06300796536
0.1597155189
0.1707837091
-0.3761972114
-0.1513146276
-0.5023210386
-0.8730432138
0.8320207665
5.855288061
1.596145461
3592.624916
170.0085541
-35.49274761
10.51075457
-6.531654512
-4.724825101
-1.661166068
0.2323812543
0.3780136267
-0.09820746316
-0.7187901306
-0.9075124767
-0.889183856
-0.7697468164
-0.6326990885
-0.5184924841
-0.4420756096
-0.3873490446
-0.3474789602
-0.3268591004
-0.3271893097
-0.3483490403
-0.3882193817
-0.4418301011
-0.5158712269
-0.6272002991
-0.7621289289
-0.8808182345
-0.8995432448
-0.7105961066
-0.08996972262
0.3874468594
0.2464413301
-1.649436859
-4.704249029
-6.4905471
10.59462924
-35.28039431
170.9618939
3574.847285
12504.64989
15396.36733
10114.32789
-947.8252788
-1388.528543
-155.8289258
-10.88200949
5.073336653
1.880789402
0.08451909518
-1.102684032
-1.549775487
-1.368711325
-1.014814851
-0.7112168846
-0.4960788907
-0.3729863074
-0.283600858
-0.2120463452
-0.174141113
-0.1739621763
-0.2114711787
-0.2822365291
-0.3698942203
-0.4904406709
-0.7032958445
-1.006011314
-1.360098249
-1.542187975
-1.092937609
0.09270138524
1.881707556
5.037220356
-10.96064651
-155.8384978
-1391.00184
-947.0315998
10134.40932
15421.66911
12465.25485
20435.73668
4329.845649
15056.00647
7568.974386
15474.94612
14811.48959
-987.4165135
-391.9377763
0.7055389583
0.485980285
-0.7025167599
-2.01311567
-2.018818918
-1.32728896
-0.7479354244
-0.3871173365
-0.2411550429
-0.1269842216
-0.01166453594
0.05082261809
0.05167868465
-0.009206090741
-0.1229313043
-0.2352551679
-0.3795560726
-0.7397955303
-1.319848409
-2.011463386
-2.006908719
-0.6938041784
0.4795785248
0.6735907469
-390.4479553
-993.6312574
14811.73208
15471.78287
7564.600684
15077.04081
4292.468483
20392.3547
-14300.63619
723.0821188
8966.085911
8519.602105
10423.49798
11653.13066
8268.844762
4040.467594
-2045.553906
-64.98386907
-13.32875207
-1.946110273
-2.251039379
-1.511274574
-0.6737897652
-0.1358450675
-0.06656246841
0.05130806234
0.2584683878
0.3701817244
0.3715140592
0.262234273
0.05696699689
-0.05974623959
-0.1290464041
-0.6682010721
-1.506764404
-2.239997745
-1.934239314
-13.30075329
-64.49917016
-2044.154292
4004.692265
8246.181692
11643.23794
10417.15461
8514.847121
8961.194882
702.3557555
-14334.58375
-4533.700809
869.5320377
5058.480496
6467.009665
7424.618189
7614.447837
5344.41846
4111.179968
2127.539263
-3407.30885
-526.1517765
-24.16330603
-1.428432286
-0.529860845
0.02009938299
0.3773729618
-0.01747363229
0.08001612703
0.546783419
0.7856621157
0.786854673
0.5502628121
0.08506147497
-0.01226591075
0.3812057205
0.02065164558
-0.5327551134
-1.3885998
-24.2306593
-522.5856046
-3414.750324
2116.808001
4099.240184
5326.998053
7599.88904
7411.934932
6454.22523
5042.647621
846.4968397
-4563.416486
-768.92018
1328.474368
3434.476157
4626.39644
5219.165156
5164.304368
4167.875655
2991.310087
963.8966479
-17.19705405
-4224.359388
-2219.337512
-3.62537665
0.09112823611
2.011256408
1.459728302
-0.09128371258
-0.0669331436
0.8888942552
1.346567301
1.347325999
0.8916368566
-0.06310705677
-0.08847411776
1.461388944
2.00482071
0.05436057683
-3.560182
-2212.787114
-4227.71355
-22.09880211
955.7123944
2983.578267
4152.93591
5147.299458
5201.280274
4606.943637
3412.013059
1301.88004
-798.8063073
605.1608944
1483.887319
2530.109601
3257.465405
3577.612332
3430.427947
2745.619285
1591.910286
-737.7352224
-1731.696044
-3424.562165
-5522.091784
-6209.176521
-123.6362464
-2.251423849
4.645432385
3.243141002
2.29690473
2.995692146
3.308420449
3.309782687
3.000152328
2.300367448
3.245343327
4.652298017
-2.247221025
-123.4206196
-6202.321515
-5513.876386
-3417.200285
-1729.842384
-739.4324644
1580.560883
2728.976767
3410.631799
3555.537519
3233.057169
2502.971689
1453.976859
573.3783582
974.291146
1359.147341
1861.330873
2230.474528
2343.106925
2136.136782
1593.268997
812.3751084
181.0706789
2233.913369
-5913.557019
-7098.870215
-9296.552251
-12062.16349
-2633.962008
-26.23681226
-32.18165531
-18.06851609
0.5482570242
5.193920739
5.197116891
0.5756672996
-18.00146471
-32.1405568
-26.20848564
-2630.21894
-12056.82431
-9290.350344
-7091.36024
-5903.052604
2226.625006
171.8442714
797.8503495
1574.23401
2113.577259
2317.643974
2202.352727
1830.689762
1326.371472
940.2410821
907.2804985
1071.763956
1288.386091
1425.905517
1391.395432
1130.108511
624.5788676
-90.8733664
-916.9409179
-1749.620775
-4557.122518
-8513.33081
-9646.184503
-11268.0133
-13406.12166
-13825.9252
-5152.38694
-756.0965358
-68.11548418
-1.506600492
-1.52245573
-67.97432933
-754.5951965
-5147.808551
-13821.9161
-13409.47735
-11266.05503
-9640.845156
-8507.101468
-4554.535361
-1755.353318
-928.707134
-107.8561445
603.216839
1105.083541
1363.240339
1395.008079
1255.130956
1036.701143
871.2168618
656.3150649
714.1761356
777.3092568
774.0787304
642.048391
337.2369054
-164.1397586
-867.4876748
-1777.821802
-2975.910328
-4895.287218
-7665.73114
-11306.86598
-12727.01976
-13744.16128
-16446.54281
-20879.20982
-20810.37457
-19920.62762
-18424.15553
-18423.31014
-19923.22174
-20812.69059
-20880.45349
-16444.96776
-13741.43757
-12723.88527
-11303.01515
-7665.485709
-4899.070854
-2985.212928
-1792.415153
-886.8142197
-187.6062752
310.1695887
611.8527753
741.1944029
742.2167683
677.4755869
618.7596852
340.936807
344.2960853
323.8321853
238.3833941
46.64274361
-285.4725566
-783.0136843
-1465.336349
-2358.330681
-3521.35071
-5077.644521
-7061.876423
-9230.883637
-10674.38934
-13138.88347
-19363.01192
-20174.55646
-18929.33839
-19079.45909
-19815.50397
-19815.88622
-19082.18614
-18930.46879
-20171.64911
-19361.58484
-13141.41915
-10672.5803
-9232.329624
-7066.496756
-5086.007322
-3534.094213
-2375.520709
-1486.717228
-808.2135477
-314.0871899
15.02923943
204.213242
287.6081457
306.6146129
302.4965651
20.34661868
-4.738435484
-70.20970091
-200.9994398
-424.7969536
-767.4060675
-1251.228445
-1897.020022
-2729.194263
-3782.95845
-5102.434343
-6697.06687
-8496.056358
-10423.45669
-12952.02688
-16487.08545
-20993.96803
-21175.57986
-20587.0278
-20371.68417
-20371.61715
-20592.64347
-21177.0542
-20993.28174
-16488.16652
-12954.6881
-10426.81013
-8501.564572
-6705.389855
-5114.113149
-3798.377031
-2748.453786
-1920.004437
-1277.696853
-797.0454434
-457.2412426
-235.8269771
-106.9306984
-42.78493586
-18.3825848
-275.874278
-315.3922173
-403.6527678
-556.4648498
-792.6967383
-1131.484813
-1590.97871
-2188.747825
-2943.416365
-3875.802745
-5005.413846
-6337.815871
-7858.913351
-9573.066901
-11577.25327
-13860.25473
-16159.14262
-17419.46729
-18288.36146
-19105.11079
-19105.61956
-18290.67254
-17421.93429
-16161.26633
-13863.39649
-11581.80499
-9579.223538
-7867.239957
-6348.799059
-5019.448497
-3893.148356
-2964.16115
-2212.830431
-1618.226665
-1161.642904
-825.4403462
-591.4023232
-440.3228433
-353.2648461
-314.3616554
-533.6363824
-579.6263675
-677.4489432
-837.4674568
-1072.661312
-1396.915733
-1823.98313
-2367.185225
-3039.497145
-3853.104509
-4817.147261
-5933.590774
-7196.480206
-8600.709663
-10142.77206
-11759.5102
-13296.2145
-14487.87254
-15407.76178
-16026.49089
-16027.08983
-15409.64429
-14490.67637
-13299.74847
-11764.22366
-10149.01654
-8608.790552
-7206.757912
-5946.404184
-4832.772645
-3871.721523
-3061.170916
-2391.872016
-1851.544979
-1427.134535
-1105.247049
-872.0610653
-713.6216998
-616.8834189
-571.4367565
-747.3327738
-795.1197495
-894.4915932
-1052.370606
-1277.679141
-1580.241388
-1969.930805
-2456.104846
-3047.131478
-3749.604747
-4566.86817
-5497.076069
-6532.156475
-7657.836198
-8848.260387
-10048.20799
-11169.6345
-12108.50561
-12825.49705
-13245.9188
-13246.57038
-12827.45384
-12111.68495
-11174.02225
-10054.00834
-8855.720945
-7667.211228
-6543.707112
-5511.043194
-4583.445504
-3768.916439
-3069.219672
-2480.92867
-1997.370763
-1610.105615
-1309.707455
-1086.233785
-929.7847128
-831.3584014
-783.9782896
-916.1002598
-962.9128347
-1059.018165
-1209.044328
-1419.052746