/*--------------------------------*- C++ -*----------------------------------*\
  =========                 |
  \\      /  F ield         | OpenFOAM: The Open Source CFD Toolbox
   \\    /   O peration     | Website:  https://openfoam.org
    \\  /    A nd           | Version:  10
     \\/     M anipulation  |
\*---------------------------------------------------------------------------*/
FoamFile
{
    format      ascii;
    class       volScalarField;
    location    "0.0005";
    object      Qv;
}
// * * * * * * * * * * * * * * * * * * * * * * * * * * * * * * * * * * * * * //

dimensions      [1 0 -3 0 0 0 0];

internalField   nonuniform List<scalar> 
16000
(
0.1897707175
1.135099004
7.753049478
44.44566396
185.1251089
607.8693227
1514.517743
3055.948029
5344.707025
8406.511441
12278.73211
17019.77629
22625.2718
28996.81991
35891.55238
42939.62337
49659.08489
55477.91855
59798.70588
62109.3677
62109.80113
59799.97608
55479.89546
49661.56695
42942.36786
35894.29805
28999.29639
22627.17725
17020.89088
12279.00396
8406.10004
5344.055534
3055.494031
1514.191151
607.6671192
185.0121023
44.3926983
7.736900731
1.132111688
0.1891905517
0.1500151448
0.9743949467
7.786724382
56.4486764
260.6244729
936.5731272
2199.182112
4127.734001
6881.46887
10313.09194
14433.66747
19364.05688
25135.75639
31636.06448
38601.87095
45656.0812
52330.62109
58082.65909
62343.89044
64621.32559
64621.5551
62344.59308
58083.77118
52332.02741
45657.63686
38603.40878
31637.37591
25136.54315
19363.96427
14432.46139
10310.84436
6878.874557
4126.2492
2198.201338
936.1410716
260.4208546
56.35682209
7.763368523
0.9711267528
0.1494142406
0.1467915915
1.019556072
7.554172738
56.21801462
342.1349876
2274.50347
4356.183502
6865.721918
10861.39668
15207.92887
19882.98681
25307.57112
31537.39766
38427.60681
45638.12593
52756.1831
59348.36339
64952.80273
69079.16095
71281.12907
71280.79602
69078.25909
64951.43901
59346.6655
52754.31787
45636.28784
38425.87793
31535.52801
25304.92565
19878.86617
15201.44945
10853.44648
6862.200887
4352.924635
2273.930905
341.9158417
56.11728736
7.530921585
1.01590751
0.1461655219
0.1041095459
1.260969543
9.546116097
72.07879828
348.7827587
2400.868876
5109.678576
10517.07287
17973.61694
24768.07065
30736.15504
37447.87496
44799.01793
52669.424
60515.44246
67825.4306
74257.4976
79560.59231
83422.40735
85480.62554
85478.9786
83417.70022
79553.24155
74248.12347
67814.98739
60505.25052
52660.65565
44791.98105
37441.88353
30730.72526
24760.36716
17946.89934
10520.94107
5110.842019
2400.68218
348.548921
71.9672728
9.514888627
1.254426876
0.1033004961
0.003262904265
0.03054735406
0.4677709048
15.13648833
582.3614033
3591.000766
5705.182029
10960.98232
21042.43404
40085.63509
49592.40539
60751.25015
71327.96349
81924.08441
91488.04067
99291.2221
105311.0385
109922.3595
113237.3962
115014.6199
115009.8824
113223.6347
109900.4339
105282.3935
99258.74373
91456.62502
81898.99122
71312.32886
60744.96898
49598.80412
40118.38154
21047.94968
10963.55802
5705.803375
3591.20574
582.4064915
15.13295801
0.4672141317
0.0305117275
0.003254263016
1.765204059e-05
0.0003297336418
0.009107659605
0.1859925383
8.677452951
455.4180669
6957.328559
13379.40354
26638.31677
43104.80869
74897.03038
105012.5544
125256.0669
144396.6071
159154.653
168407.0986
173343.9725
176314.8307
178489.897
179701.5738
179689.1704
178453.5629
176255.9932
173265.2287
168316.4062
159068.4287
144333.8267
125231.0751
105025.0852
74921.69215
43105.13654
26649.5715
13384.97935
6959.514766
455.639931
8.680200625
0.1860082674
0.009105502095
0.0003295939914
1.764050687e-05
2.680926228e-08
2.99962637e-07
1.07123064e-05
0.0005904064985
0.05119916751
5.009481838
529.1968118
9037.046539
33423.57188
50297.19774
91459.60319
198693.1956
238222.2058
285033.5149
315757.8332
330145.7566
333766.6402
333803.8468
334104.4554
334210.2683
334178.0756
334010.2914
333651.1081
333559.7716
329908.6193
315541.764
284889.4062
238225.7961
198878.6458
91466.54004
50295.12727
33453.89187
9047.408085
529.3131733
5.011711846
0.05121132663
0.0005904586535
1.071180285e-05
2.999192481e-07
2.680398385e-08
5.36242208e-12
5.728083256e-11
2.942306284e-09
3.474458033e-07
6.376511453e-05
0.01302471986
2.620616319
471.5468453
2302.446955
37401.30899
110726.2574
297352.0736
474096.6641
607996.445
677343.3888
712358.8337
732851.6572
734621.0205
733825.6152
731076.7193
730994.6787
733589.5226
734250.6676
732361.6233
711837.8991
676916.383
607543.4792
474398.1686
297571.6289
110773.3827
37435.07888
2302.575927
471.6852751
2.621984675
0.01302863966
6.3772991e-05
3.474564734e-07
2.942203659e-09
5.72759217e-11
5.361832127e-12
1.430314553e-16
1.669748001e-15
1.239549707e-13
2.819333016e-11
1.118850091e-08
5.142605341e-06
0.002179114946
0.7066464388
109.8738923
2445.465264
74563.61555
504370.7939
605063.4172
777612.5681
1358594.549
1485607.649
1739064.642
1759706.403
1742559.568
1724332.161
1724142.129
1742031.128
1758955.227
1738122.646
1484933.144
1358572.203
777612.798
605199.7401
505012.1375
74634.83145
2444.310288
109.8649527
0.7068633636
0.002179691998
5.143216587e-06
1.118876007e-08
2.819252045e-11
1.239469223e-13
1.669589828e-15
1.430155724e-16
6.208359442e-22
7.795027814e-21
7.520696867e-19
2.823142764e-16
2.232623093e-13
2.33861642e-10
2.413609127e-07
0.0002028598615
0.1196547422
65.99025751
1994.408859
32074.72935
567777.3047
957403.9694
1468888.862
2353700.293
4654466.999
4064004.998
3715457.324
3707037.24
3706617.382
3714341.549
4062901.72
4652334.649
2353688.105
1468579.257
957150.6933
567566.8425
32073.62919
1995.148995
65.89891522
0.1196132915
0.0002028588658
2.413690352e-07
2.338599827e-10
2.232517645e-13
2.822929242e-16
7.519956654e-19
7.794107281e-21
6.20755344e-22
7.163086471e-28
8.738233578e-27
8.857087896e-25
4.180006092e-22
5.171434636e-19
1.051311202e-15
2.519579685e-12
5.678096252e-09
1.01993711e-05
0.013080947
7.376314621
1613.95245
46335.19977
894222.7799
1593875.06
2697149.344
4776023.514
4246856.155
5291600.833
6733620.224
6732514.05
5289584.133
4245597.24
4773786.564
2696292.119
1593502.978
894432.5492
46303.32423
1614.026119
7.386702523
0.01307970228
1.019754649e-05
5.677531038e-09
2.519412778e-12
1.051235447e-15
5.170972392e-19
4.179560708e-22
8.856005002e-25
8.737046624e-27
7.162055041e-28
4.989256083e-34
5.123125448e-33
4.105643265e-31
1.657119259e-28
2.112996904e-25
5.654768785e-22
2.301280116e-18
1.11131063e-14
5.192993819e-11
1.936260485e-07
0.0004372427751
0.5272132732
338.1339968
5954.636098
299942.0172
2676844.414
6560987.083
4001047.232
5370270.291
6760602.301
6759485.832
5368196.568
3999988.254
6557910.837
2677303.504
299998.8713
5971.130569
338.5006258
0.5280376949
0.0004377514126
1.936762701e-07
5.19269888e-11
1.111198257e-14
2.301058785e-18
5.654208779e-22
2.112766516e-25
1.656919671e-28
4.105104608e-31
5.122407756e-33
4.988531368e-34
5.882542371e-40
4.434444913e-39
2.120004326e-37
4.822330055e-35
3.780505411e-32
7.557690154e-29
2.973801135e-25
1.839901002e-21
1.448000989e-17
1.156259251e-13
7.101143205e-10
2.504070659e-06
0.003698650456
1.602832295
278.2288186
2013.083645
26084.82009
1346070.521
6444074.661
10508430.32
10507198.6
6442099.295
1346457.786
26020.11196
2011.680858
277.7578881
1.607233998
0.003708761744
2.50957908e-06
7.109184115e-10
1.156612913e-13
1.447977965e-17
1.839736798e-21
2.973506466e-25
7.556906379e-29
3.780087195e-32
4.82176067e-35
2.119739864e-37
4.433868961e-39
5.881761658e-40
3.123105869e-45
1.586142554e-44
3.725532177e-43
3.448483925e-41
1.0458415e-38
8.693891952e-36
1.685376736e-32
6.534509148e-29
4.291896005e-25
3.893628108e-21
3.718725744e-17
2.638721398e-13
9.229154113e-10
1.080742628e-06
0.0004198487111
0.04959446171
3.60590888
181.9772777
1597.128386
1815.096995
1814.991231
1596.97351
181.6269626
3.588635017
0.04942862116
0.000419715228
1.083356168e-06
9.253483078e-10
2.643427826e-13
3.721664278e-17
3.894391698e-21
4.291789272e-25
6.533988873e-29
1.685225248e-32
8.693073636e-36
1.045738341e-38
3.448128807e-41
3.725135346e-43
1.585969675e-44
3.122761478e-45
1.434428032e-49
4.834337103e-49
5.262622126e-48
1.718962745e-46
1.549243303e-44
3.56186746e-42
1.950044108e-39
2.375730947e-36
5.913078038e-33
2.642562922e-29
1.729647221e-25
1.224050364e-21
6.287856207e-18
1.541619569e-14
1.390831446e-11
4.193698914e-09
5.510833697e-07
3.660751554e-05
0.0006711003187
0.002736525141
0.002735355499
0.0006701308273
3.650362845e-05
5.489625796e-07
4.185762284e-09
1.391402362e-11
1.544335104e-14
6.298563391e-18
1.225293502e-21
1.730330602e-25
2.642754196e-29
5.912840573e-33
2.375569779e-36
1.949900574e-39
3.561595775e-42
1.549121188e-44
1.71882352e-46
5.262187785e-48
4.833933629e-49
1.434307707e-49
6.973960968e-53
1.630910152e-52
8.785395899e-52
1.061564602e-50
2.801140922e-49
1.583476899e-47
1.899915544e-45
4.813583731e-43
2.537792437e-40
2.660616288e-37
4.995324541e-34
1.381912813e-30
4.16840021e-27
9.410683158e-24
1.117324213e-20
5.566822144e-18
1.147342707e-15
9.559661963e-14
2.231348451e-12
1.111221766e-11
1.110854422e-11
2.228695407e-12
9.539478997e-14
1.144894969e-15
5.562182239e-18
1.11780104e-20
9.419692185e-24
4.171759203e-27
1.38249726e-30
4.995998107e-34
2.660618461e-37
2.537685103e-40
4.813332136e-43
1.899811946e-45
1.583388369e-47
2.800980732e-49
1.061502898e-50
8.78488067e-52
1.630814162e-52
6.973550119e-53
2.980463668e-55
5.219030858e-55
1.595421934e-54
8.463576902e-54
7.772656669e-53
1.242450487e-51
3.508616139e-50
1.788646916e-48
1.680296605e-46
2.926254935e-44
9.177418609e-42
4.737259123e-39
3.379691808e-36
2.565520059e-33
1.521922089e-30
5.336507469e-28
9.150336867e-26
6.424140539e-24
1.364556401e-22
6.699135004e-22
6.697904658e-22
1.36368075e-22
6.41734375e-24
9.142067659e-26
5.334947534e-28
1.522256725e-30
2.566487963e-33
3.380629875e-36
4.737837203e-39
9.177609743e-42
2.926192325e-44
1.680240269e-46
1.788582458e-48
3.508487017e-50
1.242403875e-51
7.772360179e-53
8.463250902e-54
1.595360298e-54
5.218829405e-55
2.980348791e-55
7.47505716e-57
1.062229735e-56
2.147589856e-56
6.182495029e-56
2.545667623e-55
1.515040904e-54
1.32642165e-53
1.749301363e-52
3.566458439e-51
1.147732267e-49
5.852952167e-48
4.591768199e-46
5.105229721e-44
6.942096106e-42
9.391785361e-40
1.000230187e-37
6.682099797e-36
2.225150755e-34
2.827414011e-33
1.07720973e-32
1.077130399e-32
2.826715255e-33
2.224297609e-34
6.680110368e-36
1.000142402e-37
9.392427423e-40
6.942809059e-42
5.105554323e-44
4.591845291e-46
5.852893739e-48
1.147709585e-49
3.566379662e-51
1.749261919e-52
1.326391258e-53
1.515005536e-54
2.545607337e-55
6.182347657e-56
2.147538666e-56
1.062204497e-56
7.474880035e-57
6.966420816e-58
8.603731099e-58
1.31527527e-57
2.493783108e-57
5.891067115e-57
1.74839894e-56
6.602662816e-56
3.225976209e-55
2.077702975e-54
1.794097869e-53
2.095856213e-52
3.285972554e-51
6.667739856e-50
1.623954359e-48
4.215997953e-47
9.993851247e-46
1.813084714e-44
2.080279061e-43
1.23362017e-42
3.162952372e-42
3.162881727e-42
1.233531425e-42
2.080057636e-43
1.812939439e-44
9.993583732e-46
4.216038156e-47
1.623978793e-48
6.667769956e-50
3.285952973e-51
2.095832886e-52
1.794075195e-53
2.077676174e-54
3.225934071e-55
6.602574735e-56
1.748375105e-56
5.890985621e-57
2.493748415e-57
1.315256995e-57
8.603612054e-58
6.966324741e-58
1.607165836e-58
1.815812824e-58
2.323097113e-58
3.370612741e-58
5.562945301e-58
1.049668666e-57
2.281133547e-57
5.763484149e-57
1.710733326e-56
6.022117771e-56
2.52747357e-55
1.260335843e-54
7.33262801e-54
4.786557347e-53
3.287057519e-52
2.171364267e-51
1.236560723e-50
5.371743247e-50
1.569976988e-49
2.770004693e-49
2.769989104e-49
1.569949656e-49
5.371608842e-50
1.236536203e-50
2.171343375e-51
3.287047468e-52
4.786545814e-53
7.332595406e-54
1.260328111e-54
2.527456434e-55
6.022076246e-56
1.710721416e-56
5.76344307e-57
2.281116785e-57
1.049660747e-57
5.562902635e-58
3.370586732e-58
2.323079212e-58
1.815798894e-58
1.60715355e-58
0.1691141661
0.8847421478
6.079972766
35.87481772
156.1909144
531.836024
1373.679444
2849.471957
5081.496794
8104.428593
11952.68257
16655.48241
22172.63965
28363.00956
34974.52641
41656.98551
47971.05787
53404.14298
57422.10275
59565.97822
59566.15807
57422.65916
53405.07499
47972.32989
41658.51124
34976.15508
28364.53546
22173.82614
16656.11105
11952.71843
8103.995266
5080.916819
2849.008341
1373.308492
531.6050862
156.0787542
35.83024101
6.067636148
0.8823772454
0.1686320024
0.1325349235
0.7457029346
6.034401747
44.22990292
213.5441982
794.4485555
1983.475013
3871.553749
6590.828185
10008.61267
14149.68681
19088.25974
24799.24557
31126.46516
37799.07695
44466.66256
50712.73729
56059.75637
60005.16912
62109.40393
62109.40325
60005.21615
56059.89033
50712.97519
44466.97941
37799.39361
31126.63269
24799.04248
19087.44285
14148.11829
10006.36028
6588.519416
3869.960265
1982.275947
793.9174849
213.3490152
44.16197428
6.019853611
0.7435467721
0.1320239024
0.1313809257
0.7548293088
5.830828656
43.18186319
258.2810998
1618.384359
3784.899876
6515.000629
10606.71374
14913.26488
19722.73733
25271.58887
31521.31136
38257.80047
45142.5585
51813.10076
57910.72216
63054.97511
66828.45067
68839.06345
68838.57979
66827.09517
63052.86957
57908.02067
51809.98436
45139.21286
38254.33256
31517.65869
25267.48945
19717.76351
14906.37243
10598.94553
6510.227573
3779.847634
1618.328173
258.059404
43.11337073
5.816456524
0.7524594019
0.1308473903
0.129039629
1.013769085
7.499796063
54.94653957
262.4633291
1661.009348
4338.622365
10220.33321
18427.13449
24630.16271
30921.38336
37995.36632
45560.16868
53316.70489
60748.20085
67455.40435
73223.77454
77925.85292
81341.82538
83164.08077
83162.51174
81337.24871
77918.4618
73213.93579
67443.80288
60735.88935
53304.75439
45549.40227
37986.30395
30914.34071
24622.8975
18410.09743
10220.34532
4335.139259
1661.872201
262.2584856
54.87174512
7.479298553
1.010220413
0.1284331748
0.002209515336
0.01764731934
0.3285938729
11.09920284
407.065215
2241.964424
4923.451041
10647.90138
20528.92225
39371.32619
50782.78163
62704.02011
73959.14611
84553.26046
93488.11244
100308.6089
105216.8584
108852.396
111484.6867
112917.2251
112913.2228
111472.7544
108832.5677
105189.6418
100275.8881
93453.78406
84521.99722
73935.35869
62692.03479
50787.80607
39396.66152
20531.97049
10647.02963
4919.68723
2258.965058
407.3445571
11.09660754
0.3282435375
0.01763729284
0.002206748409
1.193146235e-05
0.000214645896
0.006236520663
0.1322694771
6.303479651
338.3306086
5349.732825
13038.12713
25863.44258
43865.04799
81210.89263
110438.5518
132147.6468
151886.6247
165593.1303
173030.7734
175546.1825
176463.8155
177345.449
177955.5523
177945.9034
177316.2268
176414.0393
175475.8058
172944.8476
165505.5736
151814.2405
132104.6404
110446.7484
81257.3604
43868.92924
25874.355
13043.00565
5351.484577
338.3875213
6.304833854
0.1322736846
0.006235140634
0.0002145935181
1.192706951e-05
1.780416832e-08
1.977865031e-07
7.176095215e-06
0.000403652925
0.03564763189
3.53493298
371.4714672
6162.032058
31061.13522
52690.31918
103982.5055
209238.6203
250850.4418
304638.797
333375.9033
344982.1153
341514.9396
336258.052
333873.9374
332850.9151
332827.8229
333803.5494
336137.143
341340.7482
344770.0186
333177.888
304506.1452
250811.394
209442.8752
104006.5497
52699.40095
31092.46034
6168.519853
371.5857029
3.536190565
0.03565480264
0.000403685551
7.175924487e-06
1.977738604e-07
1.780259807e-08
3.441001846e-12
3.675402231e-11
1.902581476e-09
2.274067059e-07
4.221914199e-05
0.008667164268
1.729775111
324.3119739
2134.775349
40976.3339
128177.9166
299693.7538
452084.8326
675448.2254
721548.7399
761356.8107
751747.6471
740142.5459
735726.415
730604.0397
730547.9747
735557.2074
739868.0253
751360.889
760916.0823
721243.1006
675361.6463
452422.2803
299921.5511
128243.2532
41013.00177
2134.917146
324.4912562
1.730894411
0.0086700249
4.222503893e-05
2.274188046e-07
1.902579247e-09
3.675275291e-11
3.440829647e-12
8.850240544e-17
1.033445133e-15
7.698439942e-14
1.762560456e-11
7.048318308e-09
3.257727924e-06
0.001384828691
0.4639835434
82.41298257
2195.088509
58288.01197
429979.3503
570358.4506
761962.5436
1416306.67
1690683.468
1756361.055
1777448.152
1777449.928
1737172.868
1737014.269
1776962.218
1776864.701
1755656.336
1690190.629
1416505.486
762116.7934
570588.0018
430499.8267
58351.09593
2194.46917
82.41038876
0.4642001641
0.001385328172
3.258247069e-06
7.048656517e-09
1.762555226e-11
7.698170324e-14
1.033383038e-15
8.849583639e-17
3.744971303e-22
4.69061953e-21
4.512848377e-19
1.691213679e-16
1.337191225e-13
1.401520882e-10
1.448096732e-07
0.0001227208203
0.07315608501
36.34244211
1770.785256
30196.82441
554812.3485
958664.4364
1647035.097
2349272.298
4207232.84
4235090.335
4083763.477
3712438.507
3711806.364
4081060.877
4233290.027
4205607.586
2348818.587
1646798.737
958628.1913
554732.1534
30194.45032
1771.226916
36.32293961
0.07314943052
0.0001227356954
1.448230562e-07
1.401545596e-10
1.337149308e-13
1.69111458e-16
4.512492311e-19
4.690164819e-21
3.744566081e-22
4.312630076e-28
5.225420577e-27
5.23589885e-25
2.437294109e-22
2.973287586e-19
5.964448859e-16
1.412026153e-12
3.149648883e-09
5.591849312e-06
0.006970089572
4.071479041
1400.770909
35409.14536
899584.7005
2080534.399
2591416.283
4297111.969
4336993.905
4613024.925
5220775.789
5219313.003
4609917.644
4335081.685
4295465.184
2590751.445
2080032.71
899637.5143
35386.16595
1400.921176
4.074493956
0.006970519015
5.591556809e-06
3.149555869e-09
1.411974843e-12
5.964084547e-16
2.973042271e-19
2.437055344e-22
5.23531543e-25
5.224773885e-27
4.312062665e-28
3.093978919e-34
3.14161232e-33
2.466644978e-31
9.690662692e-29
1.198045856e-25
3.102739201e-22
1.221239142e-18
5.704617836e-15
2.577250331e-11
9.2898209e-08
0.0002088760432
0.2598588675
164.9898059
2366.340154
134106.764
1939342.908
5092374.142
3802512.462
4593081.348
5300268.562
5298749.914
4590012.907
3800870.868
5089281.735
1939909.72
134118.3089
2367.029137
165.0542214
0.2601700643
0.0002090653335
9.292191255e-08
2.577222533e-11
5.704236426e-15
1.221140072e-18
3.102446864e-22
1.197918697e-25
9.689539771e-29
2.466337515e-31
3.141196451e-33
3.093554641e-34
3.872782239e-40
2.878619686e-39
1.339934287e-37
2.936855206e-35
2.200563369e-32
4.179409597e-29
1.555754871e-25
9.080897593e-22
6.730072888e-18
5.059326789e-14
2.947625057e-10
9.930062037e-07
0.001395306278
0.5275378192
88.28730665
1713.675704
11420.80338
538339.6984
3050468.085
6086684.589
6083917.56
3046587.333
537724.4303
11365.47624
1713.110149
88.19611204
0.5285275534
0.001398208466
9.947399917e-07
2.95030229e-10
5.060645272e-14
6.730064488e-18
9.080253577e-22
1.555615391e-25
4.178991851e-29
2.200326045e-32
2.936520285e-35
1.339774467e-37
2.878264038e-39
3.87229404e-40
2.226128883e-45
1.114268976e-44
2.544183479e-43
2.260789164e-41
6.508584835e-39
5.084717616e-36
9.182585881e-33
3.292294457e-29
1.98823213e-25
1.652856801e-21
1.448832027e-17
9.508008813e-14
3.134185683e-10
3.577925337e-07
0.0001393761886
0.01655097095
1.006844238
47.09154796
591.1830797
1589.362015
1589.302555
590.2021629
46.96822209
1.001491467
0.01651457141
0.000139408853
3.585044298e-07
3.140813453e-10
9.521587251e-14
1.449751529e-17
1.653125111e-21
1.988198237e-25
3.292072394e-29
9.18183039e-33
5.084261671e-36
6.507968432e-39
2.260566884e-41
2.543926369e-43
1.114154115e-44
2.225896915e-45
1.112095127e-49
3.700059763e-49
3.92643497e-48
1.234917365e-46
1.058761023e-44
2.287713948e-42
1.162928496e-39
1.299990065e-36
2.93620283e-33
1.17986079e-29
6.909372461e-26
4.388289355e-22
2.058301972e-18
4.776669454e-15
4.207165641e-12
1.23219895e-09
1.409271289e-07
8.23997645e-06
0.0001514662553
0.0006384185701
0.0006381653082
0.000151232754
8.217179216e-06
1.404582403e-07
1.230563212e-09
4.209488268e-12
4.783786343e-15
2.061152118e-18
4.391870716e-22
6.911559414e-26
1.179930228e-29
2.936106445e-33
1.299913699e-36
1.162850545e-39
2.287550685e-42
1.058682436e-44
1.234823375e-46
3.926131242e-48
3.699770596e-49
1.112007768e-49
5.832099646e-53
1.350212296e-52
7.127918817e-52
8.353890126e-51
2.115056104e-49
1.133972426e-47
1.274212792e-45
2.982270212e-43
1.431603459e-40
1.347027041e-37
2.241759323e-34
5.460227865e-31
1.456548988e-27
2.965554557e-24
3.25501725e-21
1.509434988e-18
2.779212786e-16
2.034816234e-14
4.422344485e-13
2.159656794e-12
2.159083193e-12
4.417878404e-13
2.031102616e-14
2.774444661e-16
1.508536076e-18
3.256383138e-21
2.967929295e-24
1.457498997e-27
5.462066455e-31
2.241996268e-34
1.347026177e-37
1.431552268e-40
2.982134329e-43
1.274150149e-45
1.133914176e-47
2.114944288e-49
8.353440802e-51
7.127531824e-52
1.350138651e-52
5.831780958e-53
2.647603471e-55
4.603188763e-55
1.38700699e-54
7.197278967e-54
6.411935444e-53
9.850610095e-52
2.645188711e-50
1.266629423e-48
1.102137894e-46
1.750568896e-44
4.928571948e-42
2.252403094e-39
1.411577975e-36
9.43252683e-34
4.976618348e-31
1.562848742e-28
2.374756432e-26
1.469904035e-24
2.850053115e-23
1.34015986e-22
1.339982873e-22
2.848652388e-23
1.468648986e-24
2.373081105e-26
1.562518917e-28
4.977579516e-31
9.435413368e-34
1.411886804e-36
2.252613313e-39
4.928640132e-42
1.750535892e-44
1.102106339e-46
1.266589652e-48
2.645101926e-50
9.85027598e-52
6.411712864e-53
7.197025812e-54
1.38695792e-54
4.603025643e-55
2.647509642e-55
6.937707911e-57
9.812638247e-57
1.965122996e-56
5.574954037e-56
2.249312717e-55
1.303213723e-54
1.102283285e-53
1.391694471e-52
2.687160579e-51
8.087492106e-50
3.803474181e-48
2.712662979e-46
2.707962457e-44
3.280800289e-42
3.947389244e-40
3.742336179e-38
2.223176846e-36
6.613308848e-35
7.702145562e-34
2.802355747e-33
2.802215888e-33
7.700766906e-34
6.611354587e-35
2.22266895e-36
3.742088146e-38
3.947601352e-40
3.281056103e-42
2.708087518e-44
2.712690137e-46
3.803436207e-48
8.08735412e-50
2.687109864e-51
1.391667267e-52
1.102261022e-53
1.30318659e-54
2.249264857e-55
5.574833989e-56
1.965080491e-56
9.812425927e-57
6.937557905e-57
6.659592978e-58
8.2010351e-58
1.246361798e-57
2.341748978e-57
5.462360809e-57
1.59420447e-56
5.891432419e-56
2.800352762e-55
1.742266771e-54
1.441133793e-53
1.597098506e-52
2.350458428e-51
4.430454033e-50
9.935987933e-49
2.361682708e-47
5.112943256e-46
8.475641083e-45
8.943311018e-44
4.967581841e-43
1.229002203e-42
1.228984156e-42
4.967331058e-43
8.942597637e-44
8.475119331e-45
5.112828925e-46
2.361693699e-47
9.936073522e-49
4.430457751e-50
2.350443051e-51
1.597082676e-52
1.441118273e-53
1.742247674e-54
2.800321304e-55
5.891363887e-56
1.594185307e-56
5.462293611e-57
2.341719805e-57
1.246346201e-57
8.200932466e-58
6.659509716e-58
1.565563696e-58
1.765801822e-58
2.251307496e-58
3.249029613e-58
5.322500163e-58
9.944436211e-58
2.133810066e-57
5.304926695e-57
1.543033804e-56
5.296736281e-56
2.155428509e-55
1.035545355e-54
5.766888242e-54
3.581847881e-53
2.329858278e-52
1.45442621e-51
7.831934283e-51
3.23309389e-50
9.082214002e-50
1.567971291e-49
1.567965512e-49
9.082103896e-50
3.233033477e-50
7.83181108e-51
1.454413435e-51
2.32984872e-52
3.581835324e-53
5.766861096e-54
1.035539556e-54
2.15541598e-55
5.296705623e-56
1.543024766e-56
5.304894494e-57
2.133796532e-57
9.94437069e-58
5.322464165e-58
3.249007324e-58
2.251291971e-58
1.765789641e-58
1.565552906e-58
0.1087619672
0.533975879
4.086318634
25.03297322
117.2297586
423.1539885
1159.054743
2519.054192
4645.970331
7594.682232
11392.80491
16013.83604
21344.48743
27184.56417
33268.97214
39286.22313
44877.28759
49633.34428
53126.02345
54982.74375
54982.73457
53126.03332
49633.43589
44877.50983
39286.57885
33269.39546
27184.93655
21344.67978
16013.77098
11392.50289
7594.246483
4645.5518
2518.731424
1158.78908
422.9826841
117.1449294
25.00482935
4.080525839
0.5327332491
0.1085736393
0.07939843183
0.3720793448
4.537610564
29.61522607
153.9861433
622.4775238
1692.086692
3488.811582
6131.681167
9523.182753
13699.74346
18640.21039
24214.26468
30197.33628
36314.57243
42271.42251
47748.25572
52381.43294
55777.5668
57583.03935
57582.88874
55777.16537
52380.83849
47747.50798
42270.52017
36313.46643
30195.95432
24212.55402
18638.18718
13697.51459
9520.906147
6129.637438
3487.391258
1691.087127
622.1069507
153.8429949
29.58358322
4.536831418
0.3713074029
0.07922475769
0.0779101465
0.3626502212
4.484651003
28.88281029
165.6825666
1240.869799
3399.847647
6212.878893
10279.42222
14570.16098
19621.23314
25381.66306
31621.77321
38021.2827
44263.89788
50090.57976
55285.02327
59608.71821
62763.28914
64441.59188
64441.09008
62761.82153
59606.27858
55281.59043
50086.1485
44258.51574
38015.08342
31614.99945
25374.66003
19614.31133
14563.06023
10271.44615
6207.236157
3394.192943
1240.188701
165.493219
28.85646345
4.483850217
0.361730603
0.07773909027
0.06148873819
0.231196627
8.667811744
36.68934062
171.5820453
1270.659515
4154.62356
11255.96716
19647.20004
24929.98357
31796.62744
39526.00154
47381.11697
54791.65019
61346.84988
66865.90861
71386.2115
74992.82266
77612.13975
79017.60892
79016.39238
77608.4095
74986.26639
71376.50895
66852.98967
61331.12584
54774.04679
47362.98324
39509.30267
31783.42874
24918.28847
19632.93998
11255.54293
4150.963415
1270.062604
171.4415476
36.65965312
8.683371177
0.2311201937
0.06167876332
0.0005835670939
0.005424741322
0.1725960992
5.921777871
185.7924203
2090.294816
5037.602265
11805.35393
21567.29105
40958.38419
54597.94974
67812.07574
80085.17544
90279.93644
97776.84153
102556.393
105311.0657
107111.0949
108477.8618
109278.0972
109275.4996
108469.5402
107095.6407
105287.0138
102523.3434
97736.61639
90236.47376
80042.89522
67780.36107
54590.88143
40974.15255
21568.27951
11803.27582
5034.16586
2090.530723
185.8410285
5.920451902
0.1724966829
0.005422089794
0.000583134709
5.008524091e-06
8.960611638e-05
0.002913320881
0.06546874951
3.160827298
196.344263
2647.428932
17535.11569
26557.91799
46755.82908
101151.2075
124232.3603
148925.0087
168064.5219
179323.4148
182845.2804
180684.0715
177583.8275
175894.2134
175318.7556
175313.7157
175877.1516
177549.878
180627.8902
182765.3972
179227.8706
167967.5652
148821.1838
124190.2712
101229.3697
46756.52338
26564.58368
17534.67531
2652.186067
196.4316423
3.161490443
0.06546681383
0.002912642933
8.959057175e-05
5.007125658e-06
7.651803175e-09
8.533455222e-08
3.212257586e-06
0.0001872063159
0.01699566672
1.758082189
179.0353626
2086.553972
28443.24833
57979.78556
141105.4869
226089.2688
287994.3424
343186.1272
370167.3643
375807.4758
359868.6437
343618.4267
335050.5229
331603.3683
331595.1878
335020.0033
343551.2819
359747.9606
375629.6872
369971.6803
343025.3159
287463.1227
226295.9083
141160.2671
57994.50996
28472.00022
2087.657941
179.022809
1.758523813
0.01699831317
0.0001872168081
3.212167804e-06
8.533270452e-08
7.651681141e-09
1.399469404e-12
1.504169937e-11
7.942049761e-10
9.731762217e-08
1.84901051e-05
0.003848768331
0.7289255234
105.6672762
1927.487007
47571.18883
226300.6014
286862.5516
407777.3437
741745.8714
805052.5078
850446.5578
798663.2182
755864.8862
737373.5855
729091.8371
729083.9708
737332.7809
755759.7233
798447.7361
850112.9878
804829.9531
742431.9581
407977.2103
287081.3781
226479.5697
47632.13003
1927.549859
105.7721019
0.7292973947
0.003849726749
1.849219906e-05
9.732297988e-08
7.942185288e-10
1.504174432e-11
1.39947103e-12
3.364917698e-17
3.942356977e-16
2.965931328e-14
6.893383955e-12
2.804686969e-09
1.315430244e-06
0.0005582766914
0.1875766444
44.13845995
1888.157443
22129.25143
310822.4279
514670.4185
781291.593
1579006.898
1996289.642
1802954.236
1797246.984
1776965.535
1750835.386
1750825.806
1776878.171
1797086.45
1802614.97
1995713.665
1578907.32
781305.5331
514829.2706
311198.7465
22157.12972
1887.984084
44.13156866
0.1876637933
0.0005584409551
1.315581842e-06
2.804778361e-09
6.893401175e-12
2.965881224e-14
3.942226108e-16
3.364774664e-17
1.358746883e-22
1.695800278e-21
1.625165269e-19
6.078836746e-17
4.811870301e-14
5.062228583e-11
5.251018203e-08
4.506023978e-05
0.02768946859
9.718910884
1419.93962
26671.46727
521120.1083
959259.4556
1853652.055
2161022.753
3443101.326
4746639.691
4304248.81
4066072.45
4065801.525
4302999.826
4745208.796
3442579.453
2160410.721
1853163.844
959184.8863
521062.4529
26676.40677
1420.787349
9.718401662
0.02769006702
4.506644255e-05
5.251360049e-08
5.062173315e-11
4.811647859e-14
6.078478032e-17
1.625052442e-19
1.695661223e-21
1.358623166e-22
1.564973663e-28
1.871839343e-27
1.834640506e-25
8.316572073e-23
9.874058109e-20
1.931420707e-16
4.471540694e-13
9.810319764e-10
1.723594104e-06
0.002049821645
1.385519059
618.8788338
15892.47707
659874.928
2673337.526
2208782.322
3616477.74
4874754.16
4413724.046
4234497.233
4234099.26
4412298.614
4873311.36
3615903.162
2208042.76
2673044.277
660054.4127
15884.69213
619.0459233
1.386168837
0.002050059803
1.723606663e-06
9.810192286e-10
4.471311329e-13
1.931260317e-16
9.873095595e-20
8.315717403e-23
1.834441532e-25
1.871621301e-27
1.564781726e-28
1.195358906e-34
1.187337057e-33
8.954465214e-32
3.335881315e-29
3.880762651e-26
9.424225836e-23
3.476067912e-19
1.523965559e-15
6.475251617e-12
2.190796084e-08
4.800465363e-05
0.05876389125
33.07284676
1749.418752
29918.84992
986313.9205
3921050.425
5647253.649
3858379.436
3945023.458
3944337.331
3856679.844
5645765.959
3921073.141
986578.6171
29930.01732
1749.505468
33.08796955
0.05881201526
4.803206925e-05
2.191178449e-08
6.475237793e-12
1.523873655e-15
3.475751037e-19
9.423190921e-23
3.880305974e-26
3.335479713e-29
8.953360229e-32
1.187185314e-33
1.195202048e-34
1.690339717e-40
1.222027631e-39
5.396563203e-38
1.099401944e-35
7.536092187e-33
1.294124706e-29
4.320787734e-26
2.251273489e-22
1.48573301e-18
9.941352304e-15
5.214204311e-11
1.608101792e-07
0.0002100041749
0.0839820676
16.17779598
974.0829034
2050.018152
35688.96541
464218.4717
1112130.395
1111210.928
463347.7694
35597.71641
2049.466052
973.3269847
16.1811559
0.08405880369
0.000210254901
1.609742647e-07
5.21695069e-11
9.942833857e-15
1.48571524e-18
2.251118609e-22
4.320378389e-26
1.29398462e-29
7.535235752e-33
1.099275139e-35
5.395932837e-38
1.22188236e-39
1.690136057e-40
1.139811622e-45
5.54425306e-45
1.197379239e-43
9.819792694e-42
2.552343556e-39
1.765379136e-36
2.774919808e-33
8.538054972e-30
4.377769864e-26
3.071478311e-22
2.28180551e-18
1.29633654e-14
3.875643873e-11
4.421341077e-08
1.82638401e-05
0.002395292141
0.09154673604
3.367302645
42.41435621
154.1010326
154.087707