/*--------------------------------*- C++ -*----------------------------------*\
  =========                 |
  \\      /  F ield         | OpenFOAM: The Open Source CFD Toolbox
   \\    /   O peration     | Website:  https://openfoam.org
    \\  /    A nd           | Version:  10
     \\/     M anipulation  |
\*---------------------------------------------------------------------------*/
FoamFile
{
    format      ascii;
    class       volScalarField;
    location    "0.0005";
    object      T;
}
// * * * * * * * * * * * * * * * * * * * * * * * * * * * * * * * * * * * * * //

dimensions      [0 0 0 1 0 0 0];

internalField   nonuniform List<scalar> 
16000
(
1411.681825
1486.145805
1575.488592
1666.627785
1749.386741
1824.961384
1887.618174
1938.83532
1981.673351
2017.807415
2049.073056
2076.814241
2101.629531
2123.750899
2143.149117
2159.73264
2173.371688
2183.883965
2191.057873
2194.702526
2194.703198
2191.059911
2183.887362
2173.376406
2159.738598
2143.156138
2123.758594
2101.63696
2076.819881
2049.074911
2017.803439
1981.663801
1938.824184
1887.602859
1824.939314
1749.349549
1666.561921
1575.385768
1486.030276
1411.560798
1402.450084
1479.482933
1575.702368
1679.939636
1770.474421
1854.09864
1914.486305
1961.638399
2001.673928
2034.555456
2062.716996
2087.988544
2110.953788
2131.629498
2149.851426
2165.466106
2178.330288
2188.267101
2195.065516
2198.527102
2198.527445
2195.066602
2188.268934
2178.332837
2165.4693
2149.855105
2131.633261
2110.956574
2087.988127
2062.709897
2034.537448
2001.643783
1961.610787
1914.453711
1854.067037
1770.425651
1679.848228
1575.554194
1479.336973
1402.293521
1401.603159
1481.454048
1574.208076
1679.70983
1787.62115
1916.950223
1965.781545
2001.490793
2038.844428
2067.165516
2090.293609
2111.560324
2131.345962
2149.433626
2165.429243
2179.098759
2190.332635
2199.021635
2204.992579
2208.047134
2208.046679
2204.99131
2199.019605
2190.329891
2179.095403
2165.425469
2149.429472
2131.340581
2111.551014
2090.275523
2067.129159
2038.783674
2001.449791
1965.723863
1916.931779
1787.580384
1679.609201
1574.05631
1481.297884
1401.436639
1388.343384
1490.770953
1585.816762
1693.773701
1788.846414
1920.919589
1978.156651
2036.174964
2081.521338
2109.642943
2129.012958
2147.051999
2163.691559
2178.942551
2192.201941
2203.213556
2212.042129
2218.811944
2223.487997
2225.900262
2225.898353
2223.482418
2218.802848
2212.029777
2203.198611
2192.185759
2178.926751
2163.676861
2147.03726
2128.996959
2109.615289
2081.392638
2036.205396
1978.174423
1920.913868
1788.803684
1693.685338
1585.653044
1490.541476
1388.045228
1267.564515
1343.01318
1448.276157
1609.194451
1822.122077
1951.00587
1986.799883
2039.602014
2095.251008
2153.340605
2173.244842
2192.575639
2208.111165
2221.69763
2232.650414
2240.840263
2246.767596
2251.103204
2254.119035
2255.702962
2255.69877
2254.106682
2251.082984
2246.740128
2240.807407
2232.616176
2221.667393
2208.089794
2192.565702
2173.257022
2153.416273
2095.273988
2039.621524
1986.808459
1951.010203
1822.127197
1609.182446
1448.226587
1342.971458
1267.480126
1120.793378
1198.608711
1301.103736
1410.887309
1581.063593
1806.00777
2002.550801
2056.294175
2116.134507
2160.09061
2212.881465
2246.481046
2264.419121
2279.10211
2289.261461
2295.202985
2298.253079
2300.050773
2301.349589
2302.066917
2302.059596
2301.328011
2300.015437
2298.205052
2295.146198
2289.204632
2279.056915
2264.398652
2246.493091
2212.913701
2160.09132
2116.172294
2056.329348
2002.575942
1806.039406
1581.079318
1410.890648
1301.095789
1198.596664
1120.777139
979.9148147
1027.974415
1108.520296
1215.408235
1361.737462
1554.241789
1815.813647
2023.701465
2136.631007
2174.57781
2232.619422
2312.772274
2332.36393
2352.068424
2363.463672
2368.458723
2369.684753
2369.697289
2369.798523
2369.834138
2369.823303
2369.766821
2369.64582
2369.615032
2368.378005
2363.387103
2352.012407
2332.365571
2312.872157
2232.626982
2174.573919
2136.713716
2023.795128
1815.828085
1554.263146
1361.746192
1215.410819
1108.519154
1027.971395
979.9110801
841.3231512
875.7511649
939.7341077
1031.052317
1153.645587
1313.215858
1523.764864
1808.271169
1917.844522
2146.937337
2251.842058
2356.764693
2409.830729
2439.129224
2452.076232
2458.16579
2461.605811
2461.898749
2461.767139
2461.31131
2461.297682
2461.72805
2461.837485
2461.524568
2458.077188
2452.000237
2439.040367
2409.9047
2356.846787
2251.885219
2147.020465
1917.84864
1808.290284
1523.788934
1313.226141
1153.648839
1031.052962
939.7334996
875.7498674
841.3216151
716.2256296
741.9549752
791.8322141
865.1541135
963.6178259
1090.970374
1254.846002
1465.654942
1718.181515
1922.273441
2212.444639
2417.054538
2438.5528
2468.828181
2538.96667
2550.57778
2571.306832
2572.873327
2571.573228
2570.178576
2570.163966
2571.532979
2572.816609
2571.234948
2550.518509
2538.964543
2468.828217
2438.579647
2417.203295
2212.538078
1922.238658
1718.176738
1465.668028
1254.85426
1090.973171
963.6182507
865.1536894
791.8314115
741.9539476
716.2245073
610.0066703
629.1175495
666.8576321
723.164041
799.1737209
897.5723435
1023.455404
1184.952647
1393.683993
1688.752315
1907.370254
2132.880327
2430.996775
2494.510217
2549.101479
2612.105695
2709.01308
2689.155887
2676.191887
2675.865509
2675.849217
2676.148676
2689.11644
2708.945505
2612.104986
2549.073998
2494.477205
2430.95287
2132.87721
1907.397184
1688.673745
1393.670646
1184.952511
1023.4561
897.5722307
799.1731261
723.1632617
666.8567702
629.1166294
610.0057195
524.0321407
537.8970626
565.5312729
607.1235182
663.5943315
736.9702351
830.9086174
951.3390847
1107.329143
1313.363089
1573.035816
1892.144514
2166.850756
2486.021205
2559.792644
2630.898819
2712.820456
2695.565507
2728.06766
2764.605338
2764.580091
2728.010642
2695.522224
2712.751173
2630.854641
2559.761948
2486.05027
2166.786181
1892.147784
1573.105005
1313.359836
1107.324804
951.3373057
830.9077153
736.9694639
663.5935564
607.1227452
565.5305037
537.8962897
524.0313631
457.2570004
467.0311566
486.6119467
516.2454448
556.6568874
609.3234834
676.7973328
763.104816
874.2695947
1018.9146
1206.688466
1453.272551
1786.87302
1990.175729
2357.729629
2629.84897
2760.620008
2686.889457
2730.276924
2765.220022
2765.194631
2730.219058
2686.851063
2760.548151
2629.872785
2357.750722
1990.394342
1786.941918
1453.338042
1206.721979
1018.91992
874.2687381
763.1036553
676.7964652
609.3227598
556.6562229
516.2448136
486.611336
467.030556
457.2564036
407.3105268
414.0008978
427.4437124
447.8546704
475.7590023
512.1640876
558.7475839
618.0678972
693.8069955
790.9733145
915.5883034
1074.294047
1271.566501
1501.430906
1774.562618
1908.046242
2114.257905
2537.769608
2757.867825
2834.759688
2834.740735
2757.820944
2537.806773
2114.036146
1907.995655
1774.456423
1501.553659
1271.653947
1074.344187
915.6070306
790.9770867
693.8068448
618.0672261
558.7469754
512.1635528
475.7585101
447.854205
427.4432647
414.0004606
407.3100944
371.2443107
375.6944982
384.651208
398.2730067
416.909777
441.2033752
472.1921189
511.4149614
561.0097702
623.7560025
702.8667214
801.2837382
919.9463269
1055.459525
1205.519475
1360.567702
1538.625697
1748.342748
1891.39702
1900.563977
1900.559781
1891.390107
1748.225529
1538.399947
1360.444781
1205.510327
1055.512714
919.99031
801.3062981
702.874408
623.7575042
561.0096162
511.414552
472.191725
441.2030152
416.9094403
398.2726859
384.6508985
375.6941962
371.2440123
346.0531632
348.932922
354.733939
363.5605091
375.6292763
391.3244715
411.253473
436.297022
467.6466629
506.8015804
555.4394151
615.0189276
685.9877744
766.879974
854.8444075
945.9543017
1040.835322
1139.215926
1219.166479
1261.990086
1261.9766
1219.123938
1139.142966
1040.752772
945.9208332
854.8503239
766.9003752
686.003543
615.0264842
555.4418122
506.8019459
467.6464903
436.2967682
411.2532285
391.3242422
375.6290579
363.5602989
354.7337351
348.9327225
346.052966
329.0053398
330.8200474
334.4770707
340.0396011
347.6335376
357.4761765
369.9042542
385.3970935
404.5895135
428.260531
457.2619947
492.3274383
533.718254
580.8017656
631.9350302
684.8608444
737.9068975
788.6339809
829.2576673
851.6211059
851.6163756
829.2415324
788.6080674
737.8839837
684.853142
631.9383841
580.8081161
533.7227662
492.329453
457.2625487
428.260534
404.5893775
385.396941
369.9041077
357.4760363
347.633402
340.0394692
334.4769419
330.8199209
329.0052146
317.8112467
318.9255567
321.1716393
324.5853378
329.235844
335.2398071
342.7745972
352.0880471
363.5014822
377.3994465
394.1915728
414.2234015
437.619221
464.0853285
492.7876815
522.4474439
551.6024497
578.2790121
599.1105116
610.5643322
610.5629847
599.1059778
578.2720479
551.5970391
522.4458748
492.788731
464.086925
437.6202652
414.2238127
394.1916364
377.3993866
363.5013953
352.0879594
342.7745123
335.2397244
329.2357628
324.5852581
321.1715611
318.9254797
317.8111703
310.6704336
311.3373325
312.6820896
314.7239267
317.4990126
321.067028
325.5169698
330.9706376
337.5820509
345.5298203
354.996762
366.1281771
378.962339
393.341604
408.8407132
424.7644582
440.1990943
453.963426
464.4970979
470.2388028
470.2384828
464.4960499
453.9618731
440.1979606
424.7641471
408.8409377
393.341916
378.9625182
366.1282213
354.9967373
345.5297739
337.5820015
330.9705891
325.5169222
321.0669807
317.4989657
314.7238803
312.6820439
311.3372873
310.6703887
306.2404016
306.62934
307.4143582
308.6052597
310.2200967
312.2880572
314.8517772
317.9682171
321.707188
326.1462278
331.3596742
337.3989365
344.2617602
351.8531429
359.949833
368.1864483
376.065464
382.9656818
388.1616508
390.9676041
390.9675371
388.161438
382.9653752
376.0652415
368.186377
359.9498573
351.8531795
344.2617707
337.3989232
331.3596502
326.1462015
321.7071618
317.9681912
314.8517513
312.2880311
310.2200706
308.6052337
307.4143324
306.6293145
306.2403762
303.5652012
303.786059
304.2328208
304.9102544
305.8269766
306.9966498
308.4387938
310.1787567
312.2463865
314.6728496
317.4848244
320.6951102
324.289039
328.2077282
332.3323108
336.4757748
340.3862579
343.7597138
346.2655424
347.607024
347.6070106
346.2655015
343.7596557
340.3862128
336.4757534
332.3323042
328.2077231
324.2890298
320.6950978
317.484811
314.6728362
312.2463732
310.1787432
308.43878
306.9966359
305.8269625
304.9102403
304.2328068
303.7860451
303.5651874
1407.140943
1475.301201
1563.591471
1654.878116
1739.096266
1816.140391
1880.71247
1933.605786
1977.725022
2014.838295
2046.819801
2074.952466
2099.84831
2121.761435
2140.776427
2156.909469
2170.111566
2180.258037
2187.172768
2190.683704
2190.683994
2187.173695
2180.259695
2170.114062
2156.912874
2140.780691
2121.766274
2099.853023
2074.955711
2046.820052
2014.833963
1977.716116
1933.593655
1880.693433
1816.11186
1739.053029
1654.810412
1563.492827
1475.185578
1407.028814
1397.633609
1467.952159
1563.226167
1666.359025
1758.129332
1842.895048
1906.972806
1956.733263
1998.229991
2032.082481
2061.030379
2086.740343
2109.754774
2130.156293
2147.912209
2162.995071
2175.355758
2184.879091
2191.388716
2194.702593
2194.702592
2191.388791
2184.879319
2175.356202
2162.995737
2147.912981
2130.156781
2109.754046
2086.736621
2061.020977
2032.063931
1998.202078
1956.701827
1906.92897
1842.849805
1758.073071
1666.274157
1563.108995
1467.828325
1397.483955
1397.294882
1468.472602
1561.561951
1665.035875
1769.910995
1892.340537
1955.006223
1997.308517
2036.877566
2065.497537
2089.587725
2111.433613
2131.299658
2149.024847
2164.406548
2177.388045
2187.983355
2196.158533
2201.777345
2204.654174
2204.653491
2201.775379
2196.155313
2187.978891
2177.382345
2164.399609
2149.016481
2131.289142
2111.419166
2089.565732
2065.458161
2036.816895
1997.250184
1954.904411
1892.338058
1769.857446
1664.948366
1561.442409
1468.338026
1397.137324
1396.599165
1481.206186
1573.852551
1678.427078
1770.913258
1894.19788
1965.47024
2033.809249
2083.679631
2109.146689
2129.557191
2148.389811
2165.269038
2180.102355
2192.570815
2202.682768
2210.671426
2216.770013
2220.99383
2223.181418
2223.179553
2220.98828
2216.760692
2210.658296
2202.666084
2192.551336
2180.081059
2165.246892
2148.367811
2129.536553
2109.120476
2083.599436
2033.809347
1965.408361
1894.23502
1770.864515
1678.350763
1573.717872
1481.053482
1396.416956
1255.278106
1323.679307
1433.725813
1593.385595
1798.746782
1915.895177
1975.262792
2037.198567
2093.087072
2151.675847
2175.486317
2195.620488
2211.648312
2224.819993
2234.808437
2241.864573
2246.677261
2250.112152
2252.534672
2253.831287
2253.827686
2252.523808
2250.093703
2246.651142
2241.831777
2234.771753
2224.783387
2211.616851
2195.602065
2175.495676
2151.735364
2093.100064
2037.191785
1975.203278
1916.448149
1798.79098
1593.373796
1433.682309
1323.659572
1255.238999
1111.145964
1186.524164
1288.524566
1397.555936
1565.34689
1786.909977
1981.746935
2054.115348
2113.497167
2161.722146
2220.834934
2251.578194
2269.926818
2284.370227
2293.427976
2298.061935
2299.588307
2300.1402
2300.667996
2301.031847
2301.026101
2300.65054
2300.11033
2299.545872
2298.009439
2293.372309
2284.320455
2269.893264
2251.585721
2220.891353
2161.730409
2113.534807
2054.146863
1981.772635
1786.920673
1565.357347
1397.557168
1288.517286
1186.517364
1111.136973
972.212918
1019.350904
1098.86913
1204.3888
1348.556741
1537.691549
1792.870977
1992.88492
2129.965812
2178.980191
2245.486465
2318.322156
2338.002855
2359.460454
2369.55303
2373.407455
2372.268439
2370.52138
2369.7209
2369.375829
2369.368029
2369.697188
2370.480908
2372.210939
2373.338076
2369.486223
2359.411903
2337.985819
2318.427128
2245.509783
2178.996547
2130.057177
1992.968308
1792.890659
1537.708254
1348.563992
1204.391121
1098.868562
1019.349591
972.2112715
835.17445
869.0877327
932.1936394
1022.22425
1142.88951
1299.442974
1504.85007
1784.223684
1912.315839
2155.378835
2266.787036
2357.637464
2404.31223
2451.738617
2459.719321
2466.249569
2464.701893
2462.808834
2462.081437
2461.232773
2461.223455
2462.053488
2462.76373
2464.639229
2466.17897
2459.667941
2451.723173
2404.398644
2357.722037
2266.839422
2155.461878
1912.320685
1784.258713
1504.879155
1299.454015
1142.893119
1022.225349
932.1936193
869.0872179
835.1737615
711.4071715
736.7868466
785.9879157
858.2728205
955.2181964
1080.331397
1240.866253
1447.937866
1701.454698
1914.34811
2188.604925
2398.520579
2431.534045
2466.346538
2544.358113
2567.568932
2572.62057
2574.206647
2574.206779
2571.162435
2571.150323
2574.170287
2574.162989
2572.567271
2567.530365
2544.376343
2466.371221
2431.58172
2398.660003
2188.708508
1914.327499
1701.452885
1447.957284
1240.877248
1080.335074
955.2190609
858.2727773
785.9874892
736.7862038
711.4064315
606.3273838
625.1853661
662.4152903
717.9229294
792.7706089
889.5050879
1012.989942
1171.148928
1374.986383
1655.583601
1898.785481
2127.411052
2428.264343
2494.674388
2564.113555
2611.847786
2694.197707
2695.16054
2689.860732
2676.074948
2676.05045
2689.764502
2695.098487
2694.141359
2611.821335
2564.094621
2494.66967
2428.247263
2127.403943
1898.803408
1655.554346
1374.982972
1171.152218
1012.991815
889.5053632
792.7702205
717.9223344
662.4146085
625.1846203
606.3266009
521.3066419
534.9872781
562.2432995
603.2357768
658.8297853
730.9539521
823.098009
940.9229547
1092.945001
1292.193056
1544.35679
1882.090159
2141.907934
2486.762122
2595.317755
2625.352728
2697.28409
2698.635235
2707.694801
2726.053573
2726.01172
2707.595534
2698.570705
2697.228059
2625.317219
2595.285148
2486.769401
2141.848428
1882.097732
1544.391857
1292.195094
1092.943766
940.9224385
823.0975235
730.9533091
658.8290801
603.2350753
562.2426066
534.9865815
521.3059388
455.3022133
464.9443155
484.2520512
513.4494075
553.2199256
604.9693824
671.1300237
755.5273521
863.8303798
1004.069235
1185.765388
1424.218376
1742.401158
1919.84993
2271.444774
2585.851673
2722.339395
2679.528226
2707.056633
2728.3125
2728.269628
2706.958228
2679.465945
2722.248921
2585.890891
2271.45366
1919.871331
1742.424744
1424.26654
1185.790596
1004.074317
863.830221
755.5265999
671.1293042
604.9687038
553.2192867
513.4488069
484.2514767
464.9437531
455.3016547
405.9529972
412.5513301
425.8033135
445.9087739
473.3638115
509.1270783
554.7971892
612.8042667
686.6182548
780.9085741
901.2674253
1053.59848
1241.096123
1453.298258
1705.429419
1896.4319
2043.019984
2424.708373
2648.120787
2749.170821
2749.101736
2647.941523
2424.573661
2042.61546
1896.408246
1705.369625
1453.376824
1241.159504
1053.636758
901.2819799
780.9117066
686.6182432
612.8037425
554.7966464
509.1265689
473.3633365
445.9083283
425.8028886
412.550917
405.9525892
370.3304246
374.7184603
383.5463038
396.9620567
415.296773
439.1614733
469.5460289
507.9141084
556.2861875
617.2629193
693.8124354
788.5675559
902.2523591
1031.669162
1174.613506
1321.455789
1480.90766
1669.82818
1823.116825
1891.04944
1891.046774
1823.006897
1669.682781
1480.675642
1321.379598
1174.619904
1031.710972
902.2863005
788.5850513
693.8184508
617.2641365
556.2860837
507.9137663
469.5456723
439.1611335
415.2964522
396.9617524
383.5460119
374.7181761
370.330144
345.4559165
348.2950253
354.0118868
362.7043477
374.5776353
389.9976062
409.5434725
434.053745
464.6572339
502.7623397
549.9264606
607.4764524
675.7922976
753.5354266
837.949309
924.8002811
1012.439224
1102.180163
1176.889283
1217.69908
1217.687432
1176.846995
1102.11361
1012.371732
924.7778537
837.9569528
753.5520874
675.8047427
607.4823769
549.928343
502.7626322
464.6570946
434.0535275
409.5432517
389.9973931
374.5774308
362.7041511
354.0116964
348.2948392
345.4557325
328.6259279
330.414856
334.018635
339.4966948
346.9683629
356.6405102
368.8341828
384.0057864
402.7573017
425.8221178
453.9935412
487.9426794
527.8927101
573.237879
622.3871508
673.0144882
723.0024889
770.1111278
807.8747431
828.8149966
828.8113979
807.8617401
770.0897741
722.9848051
673.0091748
622.3903494
573.2430536
527.896283
487.9442549
453.9939692
425.8221156
402.7571878
384.0056544
368.8340515
356.6403819
346.9682379
339.4965731
334.0185161
330.4147391
328.6258121
317.5766977
318.6751316
320.888514
324.2505929
328.8269425
334.7285457
342.1243765
351.2502598
362.4107984
375.968053
392.3035545
411.7328782
434.358771
459.8887562
487.5090494
515.9387156
543.6467533
568.7363783
588.2503646
598.9831184
598.9821859
588.2470175
568.730943
543.6426512
515.937611
487.5099515
459.8900278
434.3595818
411.7331889
392.3035963
375.9680006
362.4107246
351.2501838
342.1243012
334.7284711
328.8268689
324.2505204
320.8884425
318.6750609
317.5766276
310.529216
311.1866069
312.5118367
314.523006
317.254369
320.7626449
325.1325095
330.4797055
336.9500384
344.7114126
353.9336287
364.7482138
377.182758
391.0774424
406.0147671
421.3084605
436.0489617
449.1028171
459.0479994
464.4593558
464.4591443
459.0472581
449.1016458
436.0481082
421.3082294
406.0149411
391.0776766
377.182887
364.7482399
353.9336041
344.7113728
336.9499963
330.4796636
325.1324676
320.7626028
317.2543269
314.5229642
312.5117952
311.1865658
310.529175
306.157538
306.5409326
307.3145972
308.4877568
310.0774856
312.1114778
314.6302254
317.6877466
321.3499716
325.6895453
330.7750555
336.6519791
343.3134395
350.6632577
358.4818383
366.4113386
373.965711
380.549908
385.4889639
388.1505547
388.1505112
385.4888166
380.5496812
373.9655419
366.4112796
358.48185
350.6632785
343.3134414
336.6519646
330.7750342
325.6895229
321.3499494
317.6877244
314.6302028
312.1114549
310.0774624
308.4877336
307.314574
306.5409095
306.157515
303.5177891
303.7354969
304.1758251
304.8432524
305.7459118
306.8967366
308.314217
310.022321
312.0491292
314.4236618
317.1701826
320.2991166
323.7940681
327.5959361
331.5879209
335.5876354
339.3508024
342.5860937
344.9821819
346.2625339
346.2625252
344.9821536
342.5860506
339.3507669
335.587616
331.5879121
327.5959287
323.7940585
320.2991053
317.1701711
314.4236506
312.049118
310.0223096
308.3142052
306.8967244
305.7458994
304.8432399
304.1758126
303.7354845
303.5177766
1390.016816
1453.806945
1544.529195
1635.513834
1721.996492
1801.247686
1868.813392
1924.461248
1970.758319
2009.589415
2042.815645
2071.580575
2096.501389
2117.951863
2136.208234
2151.475676
2163.854896
2173.322739
2179.762025
2183.029542
2183.029527
2179.762043
2173.322913
2163.855359
2151.476514
2136.209394
2117.953091
2096.50218
2071.580227
2042.813437
2009.584791
1970.75134
1924.451787
1868.797439
1801.221525
1721.953781
1635.454016
1544.461979
1453.70923
1389.950413
1378.063008
1438.812775
1549.509365
1644.502421
1738.241014
1826.538092
1895.524495
1948.816796
1992.493789
2027.993206
2058.293447
2084.676911
2107.634561
2127.412596
2144.225014
2158.27164
2169.673473
2178.422342
2184.397643
2187.440448
2187.440198
2184.396957
2178.421265
2169.672
2158.269653
2144.222216
2127.408458
2107.628293
2084.667491
2058.279685
2027.973581
1992.467384
1948.785957
1895.482178
1826.498519
1738.185085
1644.444958
1549.501174
1438.727455
1377.980553
1377.3508
1437.759196
1548.949793
1643.157066
1742.654468
1873.572363
1946.862362
1993.536343
2034.285311
2063.516858
2089.137887
2111.82072
2131.588479
2148.452702
2162.567817
2174.188812
2183.551962
2190.752529
2195.711545
2198.257991
2198.257239
2195.709291
2190.748602
2183.546044
2174.180453
2162.556452
2148.437662
2131.569031
2111.796138
2089.107134
2063.475417
2034.221198
1993.4643
1946.736554
1873.533938
1742.585364
1643.108107
1548.941281
1437.655048
1377.26812
1368.50395
1419.531053
1581.011674
1656.10172
1744.771671
1875.233334
1962.136835
2041.809563
2089.253164
2110.22236
2132.089178
2152.038658
2168.947484
2182.69794
2193.513667
2201.831657
2208.190745
2213.006624
2216.373703
2218.137982
2218.136467
2216.368982
2212.998062
2208.177493
2201.812928
2193.489009
2182.66734
2168.911494
2151.999551
2132.051471
2110.180624
2089.189876
2041.806431
1962.069185
1875.200383
1744.722043
1656.057573
1581.100753
1419.517836
1368.618542
1215.067395
1283.953783
1407.9419
1562.312062
1749.605926
1910.782724
1977.04824
2045.783081
2097.413359
2155.338244
2182.360729
2203.194444
2219.459103
2231.326018
2239.297761
2244.09457
2246.767622
2248.480182
2249.763147
2250.507513
2250.505105
2249.755381
2248.465591
2246.744559
2244.062105
2239.256493
2231.278072
2219.407087
2203.149046
2182.348404
2155.373978
2097.417386
2045.768378
1976.995104
1910.790794
1749.62186
1562.301202
1407.919245
1283.937817
1215.045731
1090.348974
1162.674997
1263.968063
1370.836933
1532.4564
1752.977937
1928.136609
2079.38643
2115.864146
2167.699127
2242.705778
2263.57761
2282.315973
2294.988337
2301.843514
2303.907778
2302.645354
2300.810294
2299.797931
2299.45112
2299.448079
2299.787663
2300.790039
2302.612355
2303.861357
2301.787002
2294.927515
2282.243286
2263.542878
2242.783488
2167.700522
2115.88659
2079.384324
1928.271669
1753.005195
1532.466185
1370.835831
1263.960698
1162.670356
1090.342409
956.7007234
1002.380589
1080.007145
1182.725212
1322.374037
1505.580264
1747.351679
1910.650787
2122.015476
2188.097422
2276.708436
2326.685165
2353.21372
2372.818746
2381.38379
2383.102639
2378.183233
2372.960704
2370.116589
2368.953725
2368.950952
2370.106341
2372.938665
2378.14524
2383.048814
2381.323731
2372.765898
2353.009022
2326.784169
2276.748691
2188.121725
2122.106366
1910.689249
1747.347464
1505.591569
1322.379434
1182.726763
1080.006501
1002.38016
956.7004351
822.9786796
855.9752505
917.4439946
1004.99578
1121.947052
1272.842051
1466.979561
1715.891555
1904.898941
2169.323981
2326.786417
2352.777188
2392.426484
2463.071957
2473.072863
2479.817198
2472.096264
2465.367193
2462.353207
2460.981211
2460.979901
2462.346481
2465.350241
2472.063205
2479.768832
2473.038964
2463.184394
2392.482668
2352.861711
2326.872095
2169.444402
1904.901301
1715.949641
1467.001346
1272.850042
1121.949871
1004.996879
917.4442781
855.9752937
822.9786951
701.8951693
726.6211444
774.5411895
844.844321
938.8996413
1059.804672
1213.773957
1411.222269
1666.244751
1903.41007
2099.675835
2361.702761
2419.423148
2469.40504
2558.561039
2589.74155
2576.102738
2575.680564
2574.170535
2572.202136
2572.201409
2574.163997
2575.668671
2576.077676
2589.702706
2558.552756
2469.407221
2419.459343
2361.837915
2099.7867
1903.40344
1666.236129
1411.240619
1213.782538
1059.807231
938.9002084
844.8443562
774.5409898
726.6207991
701.8947568
599.0803785
617.4553218
653.7075793
707.6818223
780.3061972
873.8851323
992.8340462
1144.574963
1339.510403
1586.713722
1883.050154
2116.245763
2420.884704
2494.751823
2579.80131
2600.459771
2665.284203
2711.908067
2697.526694
2689.229782
2689.220101
2697.484263
2711.863508
2665.262574
2600.421322
2579.766128
2494.742121
2420.871711
2116.26233
1883.092332
1586.7111
1339.511172
1144.57853
992.8353138
873.8849678
780.3056423
707.6812401
653.7069952
617.4547065
599.0797355
515.945827
529.2709226
555.7972548
595.6335107
649.542064
719.2740335
808.0171429
920.9676635
1065.839191
1252.941353
1494.938346
1826.152879
2070.928819
2448.931523
2629.666957
2603.430493
2672.312839
2715.849962
2701.203931
2695.1401
2695.126383
2701.156575
2715.806084
2672.290047
2603.384931
2629.651725
2448.964211
2070.886862
1826.170813
1494.959149
1252.944965
1065.839355
920.9674459
808.0164825
719.2731871
649.5412543
595.6327933
555.7965958
529.2702809
515.9451851
451.4610712
460.8472187
479.6262674
507.9808233
546.5166663
596.5076591
660.167725
740.9652786
843.9642346
976.1005364
1146.217884
1366.822886
1650.461516
1897.913301
2126.575043
2498.227733
2683.963237
2737.83308
2681.633626
2684.845778
2684.820589
2681.569977
2737.79338
2683.964076
2498.261315
2126.608764
1897.916864
1650.486276
1366.853209
1146.232725
976.1038205
843.9642046
740.9646262
660.1669427
596.5068902
546.5159749
507.9802125
479.6257094
460.8466853
451.4605456
403.2872791
409.7068382
422.5886716
442.1029489
468.6913854
503.2221089
547.1483369
602.6677913
672.8733474
761.8281186
874.3310731
1015.119331
1185.915303
1380.179804
1612.626
1856.792042
1909.361935
2142.629518
2407.383436
2513.34513
2513.24035
2407.165473
2142.394706
1909.342366
1856.738715
1612.636735
1380.214305
1185.948517
1015.140097
874.3390158
761.8298233
672.8732408
602.6672996
547.1477791
503.2215699
468.6908947
442.1025059
422.5882618
409.7064462
403.2868942
368.5367109
372.8038981
381.3815257
394.3981291
412.1495632
435.1893579
464.4176507
501.1601789
547.2254901
604.8964586
676.7206814
764.8764919
869.8790219
989.4965442
1121.64058
1257.802827
1383.445379
1535.413438
1664.047744
1738.285846
1738.280645
1664.013251
1535.320368
1383.383995
1257.783003
1121.651498
989.517776
869.8964749
764.8856271
676.723812
604.8970445
547.2253399
501.1598598
464.4173006
435.1890169
412.1492455
394.3978349
381.3812487
372.8036312
368.5364483
344.2840566
347.0440767
352.5974177
361.0298488
372.5252105
387.414994
406.2259551
429.7185561
458.9070171
495.0366391
539.4552512
593.2770595
656.7862271
728.8500437
806.9167266
886.8268852
963.9283122
1038.920318
1101.021051
1136.64866
1136.652571
1101.019903
1038.895275
963.9073386
886.8208429
806.9225027
728.8588011
656.7926195
593.2800773
539.4561745
495.0367351
458.9068766
429.7183589
406.2257468
387.4147894
372.5250154
361.0296638
352.5972404
347.0439043
344.2838863
327.881644
329.6203918
333.1206501
338.4347904
345.6698066
355.0130236
366.7561566
381.3130062
399.2250484
421.1427083
447.7550067
479.6257077
516.9143266
559.0572091
604.5822093
651.2105301
696.290105
737.3386093
769.8486222
787.9924792
787.9936347
769.8483941
737.3317731
696.2840735
651.2090456
604.5842304
559.0598979
516.9161181
479.6264653
447.7551805
421.1426655
399.2249463
381.3128896
366.7560367
355.0129048
345.6696911
338.4346785
333.1205412
329.6202849
327.881538
317.1166548
318.1841715
320.3339396
323.59577
328.0284372
333.7322842
340.8605562
349.626682
360.3042972
373.2142619
388.6873707
406.9862324
428.1765282
451.9694071
477.5990538
503.8255467
529.0579004
551.4558674
568.668466
578.1053137
578.1054863
568.6681866
551.4541148
529.0563982
503.8251973
477.5995514
451.9700277
428.1768998
406.9863526
388.6873612
373.2142091
360.304234
349.6266162
340.8604892
333.7322171
328.0283707
323.5957045
320.333875
318.1841076
317.1165914
310.2522587
310.8911252
312.1783451
314.1299107
316.7764744
320.1691898
324.3846286
329.5272196
335.7275186
343.1337307
351.8919989
362.1092439
373.7945514
386.7856765
400.6838457
414.8319538
428.3457094
440.1665023
449.0843045
453.9135883
453.913597
449.0841865
440.1660994
428.3453692
414.8318544
400.6839172
386.7857678
373.7945899
362.1092353
351.8919694
343.1336961
335.7274834
329.5271839
324.3845922
320.1691528
316.7764372
314.1298735
312.1783081
310.8910884
310.252222
305.9950343
306.3676227
307.1191749
308.2578275
309.7988139
311.7670205
314.1989156
317.1430175
320.6580424
324.8076139
329.6498376
335.2195568
341.5019089
348.399408
355.7009784
363.0664904
370.0357616
376.0596599
380.5450629
382.9516319
382.951628
380.5450283
376.0595736
370.0356846
363.0664538
355.7009705
348.3994034
341.5018967
335.219539
329.6498185
324.8075954
320.6580242
317.1429988
314.1988963
311.7670006
309.7987936
308.2578071
307.1191544
306.3676022
305.9950139
303.4248119
303.6363768
304.0641676
304.7121194
305.5874547
306.7017355
308.0715205
309.7181955
311.6665542
313.9416559
316.5633575
319.537832
322.8457316
326.4279446
330.1721728
333.9057375
337.3996342
340.3855979
342.5850612
343.7562207
343.7562188
342.5850519
340.3855788
337.3996146
333.9057227
330.1721618
326.4279344
322.8457212
319.5378219
316.5633481
313.9416468
311.6665451
309.7181861
308.0715105
306.7017251
305.587444
304.7121085
304.0641566
303.6363658
303.4248009
1360.465099
1424.717042
1518.869142
1609.725017
1699.867426
1780.868439
1852.182184
1911.678282
1961.06753
2002.406185
2037.371525
2066.930773
2091.752202
2112.425317
2129.515645
2143.502764
2154.697001
2163.20755
2168.986331
2171.918991
2171.918762
2168.985702
2163.206621
2154.695837
2143.501307
2129.513678
2112.422482
2091.74818
2066.925647
2037.365987
2002.401261
1961.064093
1911.67534
1852.175394
1780.849227
1699.827382
1609.674316
1518.844445
1424.650103
1360.413949
1335.929877
1402.096256
1521.840114
1609.014214
1712.581754
1802.39918
1878.256927
1937.29993
1984.417279
2022.746429
2055.038227
2082.225602
2104.892779
2123.597277
2138.925106
2151.406802
2161.402853
2169.042476
2174.265582
2176.930907
2176.930503
2174.264399
2169.040456
2161.399759
2151.402143
2138.918097
2123.58697