/*--------------------------------*- C++ -*----------------------------------*\
  =========                 |
  \\      /  F ield         | OpenFOAM: The Open Source CFD Toolbox
   \\    /   O peration     | Website:  https://openfoam.org
    \\  /    A nd           | Version:  6
     \\/     M anipulation  |
\*---------------------------------------------------------------------------*/
FoamFile
{
    version     2.0;
    format      ascii;
    class       volScalarField;
    location    "0.0012";
    object      TRHS;
}
// * * * * * * * * * * * * * * * * * * * * * * * * * * * * * * * * * * * * * //

dimensions      [1 -1 -3 0 0 0 0];

internalField   nonuniform List<scalar> 
57600
(
2.916303775e-09
6.032741989e-09
5.524936577e-09
5.263961017e-09
4.820428745e-09
4.405537042e-09
4.019416619e-09
3.664699685e-09
3.340782584e-09
3.050286049e-09
2.791907552e-09
2.567245702e-09
2.37372314e-09
2.211601653e-09
2.076897816e-09
1.968719271e-09
1.882159895e-09
1.815943952e-09
1.765197611e-09
1.729100176e-09
1.703247234e-09
1.687241372e-09
1.676809406e-09
1.671744194e-09
1.66810461e-09
1.666637718e-09
1.664634282e-09
1.664228605e-09
1.663596705e-09
1.665170501e-09
1.666691983e-09
1.67015333e-09
1.673094815e-09
1.67805039e-09
1.683456742e-09
1.692802681e-09
1.704806615e-09
1.722587248e-09
1.743760533e-09
1.770414457e-09
1.799404116e-09
1.832923124e-09
1.868476923e-09
1.909480065e-09
1.954552127e-09
2.008097561e-09
2.068962782e-09
2.141234731e-09
2.222503739e-09
2.315236961e-09
2.415065493e-09
2.523084259e-09
2.634180716e-09
2.749830289e-09
2.865585304e-09
2.983488756e-09
3.098289014e-09
3.210061388e-09
3.310493328e-09
3.397257954e-09
3.460987811e-09
3.500665827e-09
3.509356719e-09
3.488715881e-09
3.432804887e-09
3.342875084e-09
3.211563596e-09
3.039988991e-09
2.822680854e-09
2.565343357e-09
2.267834206e-09
1.940484429e-09
1.584940928e-09
1.210837143e-09
8.173127415e-10
4.120508543e-10
-6.209728551e-12
-4.2795186e-10
-8.518531488e-10
-1.266433282e-09
-1.671002469e-09
-2.057620966e-09
-2.431766854e-09
-2.792542073e-09
-3.15157962e-09
-3.511659646e-09
-3.88524681e-09
-4.273944233e-09
-4.688783171e-09
-5.131842656e-09
-5.617812866e-09
-6.156280016e-09
-6.772541378e-09
-7.489792688e-09
-8.349596614e-09
-9.395555827e-09
-1.069486346e-08
-1.232384542e-08
-1.438984096e-08
-1.701788643e-08
-2.037267625e-08
-2.464792488e-08
-3.00886546e-08
-3.698071843e-08
-4.56661739e-08
-5.652434088e-08
-6.997689554e-08
-8.646675342e-08
-1.064663604e-07
-1.304619141e-07
-1.58956971e-07
-1.924498073e-07
-2.314229971e-07
-2.763156933e-07
-3.274757989e-07
-3.851186355e-07
-4.495633208e-07
-5.25119374e-07
-6.367511898e-07
-3.688891023e-07
-0.004931657127
0
0
0
0
0
0
0
0
0
0
0
0
0
0
0
0
0
0
0
0
0
0
0
0
0
0
0
0
0
0
0
0
0
0
0
0
0
0
0
0
0
0
0
0
0
0
0
0
0
0
0
0
0
0
0
0
0
0
0
0
0
0
0
0
0
0
0
0
0
0
0
0
0
0
0
0
0
0
0
0
0
0
0
0
0
0
0
0
0
0
0
0
0
0
0
0
0
0
0
0
0
0
0
0
0
0
0
0
0
0
0
0
0
0
0
0
0
0
0
2.85917813e-09
5.921583716e-09
5.526061181e-09
5.249578214e-09
4.815553558e-09
4.401292542e-09
4.018511782e-09
3.662773311e-09
3.341695809e-09
3.049966516e-09
2.794477739e-09
2.568598571e-09
2.378090117e-09
2.214759761e-09
2.083197406e-09
1.973826982e-09
1.890555835e-09
1.823243018e-09
1.776041035e-09
1.739012827e-09
1.71695034e-09
1.700073037e-09
1.693575557e-09
1.687655884e-09
1.688213105e-09
1.68615081e-09
1.688831767e-09
1.68815421e-09
1.69252301e-09
1.693758554e-09
1.700207539e-09
1.703069556e-09
1.7109212e-09
1.715244111e-09
1.72571409e-09
1.734217938e-09
1.750862833e-09
1.766701094e-09
1.791194489e-09
1.814199398e-09
1.845059649e-09
1.873502999e-09
1.909946594e-09
1.944767938e-09
1.989666672e-09
2.035308435e-09
2.093896857e-09
2.15529865e-09
2.231087673e-09
2.309317229e-09
2.400448495e-09
2.490948075e-09
2.591224582e-09
2.687581897e-09
2.791469878e-09
2.888965937e-09
2.991137972e-09
3.081566308e-09
3.169153873e-09
3.234928016e-09
3.287753705e-09
3.309536852e-09
3.312011472e-09
3.278744385e-09
3.222594819e-09
3.125843615e-09
3.000452958e-09
2.828107987e-09
2.623206173e-09
2.371231416e-09
2.091769961e-09
1.77371661e-09
1.438240051e-09
1.072981559e-09
6.972796392e-10
2.972500318e-10
-1.071897652e-10
-5.278660416e-10
-9.421471355e-10
-1.360351456e-09
-1.760752925e-09
-2.157117844e-09
-2.533283941e-09
-2.908737366e-09
-3.272374707e-09
-3.646151658e-09
-4.019870979e-09
-4.414412869e-09
-4.819661736e-09
-5.257625119e-09
-5.723423501e-09
-6.246500002e-09
-6.833583676e-09
-7.527117573e-09
-8.351182612e-09
-9.368172772e-09
-1.062920943e-08
-1.222870598e-08
-1.425895182e-08
-1.686134339e-08
-2.018600053e-08
-2.444083929e-08
-2.985714687e-08
-3.673341943e-08
-4.539946397e-08
-5.624577163e-08
-6.968265746e-08
-8.616234912e-08
-1.061478524e-07
-1.30134501e-07
-1.586200875e-07
-1.921113218e-07
-2.310929623e-07
-2.760127886e-07
-3.272429529e-07
-3.850141071e-07
-4.498083463e-07
-5.258270582e-07
-6.418314569e-07
-3.729051243e-07
-0.004938459191
0
0
0
0
0
0
0
0
0
0
0
0
0
0
0
0
0
0
0
0
0
0
0
0
0
0
0
0
0
0
0
0
0
0
0
0
0
0
0
0
0
0
0
0
0
0
0
0
0
0
0
0
0
0
0
0
0
0
0
0
0
0
0
0
0
0
0
0
0
0
0
0
0
0
0
0
0
0
0
0
0
0
0
0
0
0
0
0
0
0
0
0
0
0
0
0
0
0
0
0
0
0
0
0
0
0
0
0
0
0
0
0
0
0
0
0
0
0
0
2.846655523e-09
5.894791223e-09
5.498935443e-09
5.234272812e-09
4.803930151e-09
4.395563651e-09
4.012602257e-09
3.660695725e-09
3.338292684e-09
3.049942883e-09
2.792820361e-09
2.570247978e-09
2.377969621e-09
2.217932234e-09
2.084418166e-09
1.978325393e-09
1.893032153e-09
1.829156933e-09
1.780030736e-09
1.746682134e-09
1.722717999e-09
1.709575769e-09
1.700994805e-09
1.698871971e-09
1.697444216e-09
1.699666268e-09
1.700807703e-09
1.704948623e-09
1.707856901e-09
1.713842238e-09
1.718366707e-09
1.725757371e-09
1.731544447e-09
1.740719809e-09
1.749294497e-09
1.762746421e-09
1.776779627e-09
1.796425253e-09
1.816505342e-09
1.841714039e-09
1.866697136e-09
1.896760472e-09
1.92707042e-09
1.96380329e-09
2.002448078e-09
2.049570293e-09
2.100374464e-09
2.161189589e-09
2.226294286e-09
2.301250354e-09
2.379111496e-09
2.464844485e-09
2.55089905e-09
2.642492427e-09
2.73198358e-09
2.824530851e-09
2.911126511e-09
2.995237839e-09
3.065498111e-09
3.124229741e-09
3.159862586e-09
3.176388418e-09
3.164006781e-09
3.128372482e-09
3.059566208e-09
2.962462792e-09
2.825893127e-09
2.655224645e-09
2.441382233e-09
2.193802101e-09
1.90732406e-09
1.594343475e-09
1.250312152e-09
8.869081837e-10
4.98341186e-10
9.629287297e-11
-3.236364333e-10
-7.472653486e-10
-1.176929078e-09
-1.597999117e-09
-2.014608117e-09
-2.415930752e-09
-2.810742234e-09
-3.192780906e-09
-3.574021455e-09
-3.950211559e-09
-4.333865173e-09
-4.721276593e-09
-5.125881959e-09
-5.547156193e-09
-6.003587756e-09
-6.50291984e-09
-7.073846537e-09
-7.737705075e-09
-8.539512224e-09
-9.522208735e-09
-1.075732937e-08
-1.232176523e-08
-1.432692826e-08
-1.689792065e-08
-2.020183884e-08
-2.443141169e-08
-2.983320956e-08
-3.669251912e-08
-4.535321472e-08
-5.619451838e-08
-6.963884917e-08
-8.612859823e-08
-1.061373971e-07
-1.301545712e-07
-1.586890129e-07
-1.922473564e-07
-2.313271433e-07
-2.763897608e-07
-3.278290955e-07
-3.859383253e-07
-4.512404554e-07
-5.281351602e-07
-6.457170224e-07
-3.754121504e-07
-0.004952091053
0
0
0
0
0
0
0
0
0
0
0
0
0
0
0
0
0
0
0
0
0
0
0
0
0
0
0
0
0
0
0
0
0
0
0
0
0
0
0
0
0
0
0
0
0
0
0
0
0
0
0
0
0
0
0
0
0
0
0
0
0
0
0
0
0
0
0
0
0
0
0
0
0
0
0
0
0
0
0
0
0
0
0
0
0
0
0
0
0
0
0
0
0
0
0
0
0
0
0
0
0
0
0
0
0
0
0
0
0
0
0
0
0
0
0
0
0
0
0
2.837328401e-09
5.872583494e-09
5.479845279e-09
5.217803673e-09
4.792848301e-09
4.386304928e-09
4.006959715e-09
3.655322709e-09
3.335637996e-09
3.046938942e-09
2.792217171e-09
2.569047184e-09
2.378998651e-09
2.218107989e-09
2.08667142e-09
1.979529601e-09
1.896287063e-09
1.831382472e-09
1.784488191e-09
1.750190114e-09
1.728509483e-09
1.714251772e-09
1.707846643e-09
1.70452283e-09
1.705551746e-09
1.707036876e-09
1.711288733e-09
1.715088392e-09
1.721216281e-09
1.726496167e-09
1.733838561e-09
1.740157635e-09
1.74885964e-09
1.757231041e-09
1.769078659e-09
1.781513443e-09
1.797998702e-09
1.814977005e-09
1.835630438e-09
1.856340506e-09
1.880852793e-09
1.906073703e-09
1.936422807e-09
1.96893122e-09
2.008089922e-09
2.050548938e-09
2.100607664e-09
2.154487657e-09
2.216310399e-09
2.281759821e-09
2.354605357e-09
2.42986084e-09
2.510981942e-09
2.592421071e-09
2.67727199e-09
2.758960504e-09
2.83939876e-09
2.910226139e-09
2.972135595e-09
3.016032437e-09
3.043286338e-09
3.045930514e-09
3.026807499e-09
2.978360275e-09
2.903147115e-09
2.792511739e-09
2.64871242e-09
2.463904279e-09
2.243060217e-09
1.981685889e-09
1.688035479e-09
1.359365051e-09
1.004395878e-09
6.200048416e-10
2.151637513e-10
-2.118920342e-10
-6.496970205e-10
-1.097644638e-09
-1.543168236e-09
-1.986629042e-09
-2.418297262e-09
-2.842259999e-09
-3.252443417e-09
-3.655631646e-09
-4.047739786e-09
-4.436806012e-09
-4.820317564e-09
-5.208151787e-09
-5.600824546e-09
-6.012087076e-09
-6.448179372e-09
-6.930000891e-09
-7.473725983e-09
-8.112866525e-09
-8.88082057e-09
-9.832891335e-09
-1.103074556e-08
-1.256354567e-08
-1.453379048e-08
-1.707755015e-08
-2.035339349e-08
-2.456383782e-08
-2.994805433e-08
-3.680080296e-08
-4.546018804e-08
-5.6314256e-08
-6.978050318e-08
-8.630895151e-08
-1.063701325e-07
-1.304618352e-07
-1.590940903e-07
-1.927838997e-07
-2.320368901e-07
-2.773289905e-07
-3.290835398e-07
-3.876009554e-07
-4.535071592e-07
-5.310660883e-07
-6.498904352e-07
-3.777740872e-07
-0.004972636434
0
0
0
0
0
0
0
0
0
0
0
0
0
0
0
0
0
0
0
0
0
0
0
0
0
0
0
0
0
0
0
0
0
0
0
0
0
0
0
0
0
0
0
0
0
0
0
0
0
0
0
0
0
0
0
0
0
0
0
0
0
0
0
0
0
0
0
0
0
0
0
0
0
0
0
0
0
0
0
0
0
0
0
0
0
0
0
0
0
0
0
0
0
0
0
0
0
0
0
0
0
0
0
0
0
0
0
0
0
0
0
0
0
0
0
0
0
0
0
2.830587264e-09
5.858067213e-09
5.463499529e-09
5.203758518e-09
4.780490272e-09
4.377137023e-09
3.998944867e-09
3.649786516e-09
3.330580349e-09
3.043903675e-09
2.789288383e-09
2.567863037e-09
2.377612474e-09
2.218202556e-09
2.086249997e-09
1.980387483e-09
1.896507445e-09
1.832948977e-09
1.785507404e-09
1.752643626e-09
1.730318622e-09
1.717320599e-09
1.71005065e-09
1.708028125e-09
1.708490918e-09
1.711894828e-09
1.716177791e-09
1.72229276e-09
1.728382658e-09
1.735634527e-09
1.742458671e-09
1.750576118e-09
1.758877173e-09
1.769450478e-09
1.781040918e-09
1.795301462e-09
1.810306711e-09
1.82734735e-09
1.844554535e-09
1.863867174e-09
1.88422177e-09
1.90832947e-09
1.935303581e-09
1.967647636e-09
2.003788865e-09
2.045657521e-09
2.091256962e-09
2.142542944e-09
2.197634112e-09
2.258707425e-09
2.323713677e-09
2.39447506e-09
2.468127204e-09
2.545579644e-09
2.622705159e-09
2.69915828e-09
2.769391686e-09
2.832057211e-09
2.881002973e-09
2.915147548e-09
2.928996935e-09
2.922369046e-09
2.890063337e-09
2.831634212e-09
2.740999305e-09
2.617203097e-09
2.454475969e-09
2.253675902e-09
2.011730565e-09
1.732489508e-09
1.414989629e-09
1.064153081e-09
6.792881272e-10
2.659656242e-10
-1.747954998e-10
-6.345145714e-10
-1.109086241e-09
-1.588088544e-09
-2.067645246e-09
-2.539666134e-09
-3.003699221e-09
-3.454860434e-09
-3.89478428e-09
-4.319745054e-09
-4.732251626e-09
-5.130342613e-09
-5.519373963e-09
-5.901419459e-09
-6.286209357e-09
-6.680527285e-09
-7.099075439e-09
-7.555079255e-09
-8.072058069e-09
-8.676192448e-09
-9.408651221e-09
-1.031916394e-08
-1.147786271e-08
-1.296935286e-08
-1.490393256e-08
-1.741308897e-08
-2.066215076e-08
-2.484956846e-08
-3.02212473e-08
-3.706927013e-08
-4.573865025e-08
-5.661564717e-08
-7.012401763e-08
-8.671275212e-08
-1.068587504e-07
-1.310615575e-07
-1.598396705e-07
-1.937160861e-07
-2.332069275e-07
-2.788019293e-07
-3.309304516e-07
-3.899362274e-07
-4.563771065e-07
-5.347260281e-07
-6.543838592e-07
-3.803530766e-07
-0.005000251948
0
0
0
0
0
0
0
0
0
0
0
0
0
0
0
0
0
0
0
0
0
0
0
0
0
0
0
0
0
0
0
0
0
0
0
0
0
0
0
0
0
0
0
0
0
0
0
0
0
0
0
0
0
0
0
0
0
0
0
0
0
0
0
0
0
0
0
0
0
0
0
0
0
0
0
0
0
0
0
0
0
0
0
0
0
0
0
0
0
0
0
0
0
0
0
0
0
0
0
0
0
0
0
0
0
0
0
0
0
0
0
0
0
0
0
0
0
0
0
2.82486436e-09
5.844594464e-09
5.449629485e-09
5.190011646e-09
4.768683819e-09
4.366682124e-09
3.99057676e-09
3.64250162e-09
3.325019962e-09
3.039052507e-09
2.785833772e-09
2.564796212e-09
2.375617175e-09
2.216222864e-09
2.085016838e-09
1.978905597e-09
1.895673876e-09
1.831861499e-09
1.785128688e-09
1.751980354e-09
1.730225527e-09
1.716716358e-09
1.709892858e-09
1.707453866e-09
1.708790806e-09
1.712359859e-09
1.718074988e-09
1.724602331e-09
1.732028546e-09
1.739336351e-09
1.747215618e-09
1.755336232e-09
1.76493675e-09
1.775749829e-09
1.788559228e-09
1.80227981e-09
1.817085773e-09
1.83177349e-09
1.847160844e-09
1.863113292e-09
1.881559364e-09
1.902912811e-09
1.928942298e-09
1.959210053e-09
1.994458862e-09
2.033443332e-09
2.07670922e-09
2.123343551e-09
2.174569151e-09
2.229954544e-09
2.290799637e-09
2.356050706e-09
2.425868209e-09
2.497618035e-09
2.569812543e-09
2.638268706e-09
2.700479604e-09
2.751819946e-09
2.790073814e-09
2.811236524e-09
2.813712396e-09
2.793519011e-09
2.748457516e-09
2.673449021e-09
2.565478923e-09
2.419489524e-09
2.233842659e-09
2.005863082e-09
1.736732886e-09
1.426001983e-09
1.076129157e-09
6.871058496e-10
2.620267675e-10
-1.973578154e-10
-6.846696425e-10
-1.194122715e-09
-1.716050696e-09
-2.243558801e-09
-2.7684638e-09
-3.287057796e-09
-3.794435479e-09
-4.288852681e-09
-4.765848111e-09
-5.223539668e-09
-5.658395864e-09
-6.071496706e-09
-6.464350384e-09
-6.843914274e-09
-7.217193638e-09
-7.595545092e-09
-7.990074212e-09
-8.417416133e-09
-8.897347873e-09
-9.460030918e-09
-1.014462024e-08
-1.100618652e-08
-1.211410265e-08
-1.355824441e-08
-1.544780487e-08
-1.791861273e-08
-2.113479455e-08
-2.529917111e-08
-3.065747799e-08
-3.75067612e-08
-4.619273289e-08
-5.710653891e-08
-7.067292794e-08
-8.734574334e-08
-1.076043551e-07
-1.319548183e-07
-1.609211469e-07
-1.950347079e-07
-2.348204515e-07
-2.807741456e-07
-3.333454867e-07
-3.928498468e-07
-4.599376669e-07
-5.388453069e-07
-6.595892543e-07
-3.833052962e-07
-0.005035112198
0
0
0
0
0
0
0
0
0
0
0
0
0
0
0
0
0
0
0
0
0
0
0
0
0
0
0
0
0
0
0
0
0
0
0
0
0
0
0
0
0
0
0
0
0
0
0
0
0
0
0
0
0
0
0
0
0
0
0
0
0
0
0
0
0
0
0
0
0
0
0
0
0
0
0
0
0
0
0
0
0
0
0
0
0
0
0
0
0
0
0
0
0
0
0
0
0
0
0
0
0
0
0
0
0
0
0
0
0
0
0
0
0
0
0
0
0
0
0
2.818704822e-09
5.831364327e-09
5.435869793e-09
5.176701184e-09
4.756337654e-09
4.355940906e-09
3.981095004e-09
3.634571901e-09
3.318137694e-09
3.033464733e-09
2.78100434e-09
2.560923671e-09
2.372100595e-09
2.213272302e-09
2.082060413e-09
1.976259807e-09
1.892877979e-09
1.829356515e-09
1.782436246e-09
1.749475487e-09
1.727338715e-09
1.713823551e-09
1.706571235e-09
1.704347234e-09
1.705699052e-09
1.710050747e-09
1.716203255e-09
1.723650701e-09
1.731376173e-09
1.739390778e-09
1.747455399e-09
1.756407249e-09
1.766418031e-09
1.778086682e-09
1.790790328e-09
1.804256308e-09
1.81738079e-09
1.830243405e-09
1.842828411e-09
1.856628366e-09
1.872664824e-09
1.89266798e-09
1.916954813e-09
1.946019446e-09
1.978945824e-09
2.015578836e-09
2.055133131e-09
2.098225443e-09
2.144965024e-09
2.196558906e-09
2.252961945e-09
2.314457165e-09
2.379393457e-09
2.44613491e-09
2.511158738e-09
2.571472297e-09
2.622947145e-09
2.662851795e-09
2.68781446e-09
2.695847031e-09
2.68363507e-09
2.648365426e-09
2.585198825e-09
2.489899844e-09
2.357068378e-09
2.183379477e-09
1.965635427e-09
1.703414298e-09
1.39605948e-09
1.044693829e-09
6.491241694e-10
2.107320061e-10
-2.694492738e-10
-7.869845309e-10
-1.336247602e-09
-1.908100658e-09
-2.493912429e-09
-3.084389164e-09
-3.673204674e-09
-4.254243071e-09
-4.823319517e-09
-5.37450918e-09
-5.902503399e-09
-6.40086771e-09
-6.866250461e-09
-7.297403059e-09
-7.698301201e-09
-8.075116327e-09
-8.437471994e-09
-8.795132679e-09
-9.160617892e-09
-9.548531332e-09
-9.980682759e-09
-1.048699487e-08
-1.111061815e-08
-1.190809502e-08
-1.295320516e-08
-1.433694548e-08
-1.617196217e-08
-1.859461074e-08
-2.177233601e-08
-2.590919367e-08
-3.125494137e-08
-3.810865983e-08
-4.682015831e-08
-5.77826988e-08
-7.142506357e-08
-8.820390786e-08
-1.086038628e-07
-1.331359998e-07
-1.623314916e-07
-1.967289303e-07
-2.368599466e-07
-2.832311688e-07
-3.362843704e-07
-3.963759336e-07
-4.640461058e-07
-5.438300368e-07
-6.654974381e-07
-3.867193236e-07
-0.005077457594
0
0
0
0
0
0
0
0
0
0
0
0
0
0
0
0
0
0
0
0
0
0
0
0
0
0
0
0
0
0
0
0
0
0
0
0
0
0
0
0
0
0
0
0
0
0
0
0
0
0
0
0
0
0
0
0
0
0
0
0
0
0
0
0
0
0
0
0
0
0
0
0
0
0
0
0
0
0
0
0
0
0
0
0
0
0
0
0
0
0
0
0
0
0
0
0
0
0
0
0
0
0
0
0
0
0
0
0
0
0
0
0
0
0
0
0
0
0
0
2.812134615e-09
5.817086907e-09
5.421785041e-09
5.162825888e-09
4.743600428e-09
4.344372317e-09
3.970929041e-09
3.625614726e-09
3.310461542e-09
3.026769911e-09
2.775283818e-09
2.555813414e-09
2.3675823e-09
2.208943771e-09
2.077939014e-09
1.972068325e-09
1.888760542e-09
1.825045577e-09
1.778081563e-09
1.744762377e-09
1.72237449e-09
1.708366125e-09
1.700932837e-09
1.698524095e-09
1.700176211e-09
1.704781481e-09
1.711487812e-09
1.719230153e-09
1.727430878e-09
1.735683076e-09
1.744348379e-09
1.75376257e-09
1.764454828e-09
1.776243811e-09
1.788715977e-09
1.800895794e-09
1.812272757e-09
1.82269457e-09
1.83309436e-09
1.844746145e-09
1.859331974e-09
1.877825612e-09
1.900766449e-09
1.927664076e-09
1.958015157e-09
1.991082632e-09
2.026949972e-09
2.065895195e-09
2.108884864e-09
2.156457338e-09
2.209004408e-09
2.265719634e-09
2.32513274e-09
2.384443841e-09
2.440505878e-09
2.489527029e-09
2.52828829e-09
2.55367703e-09
2.563384205e-09
2.55469094e-09
2.524654719e-09
2.468887379e-09
2.382436435e-09
2.259509287e-09
2.095222805e-09
1.885487156e-09
1.628289625e-09
1.322510266e-09
9.682459633e-10
5.651642062e-10
1.133174635e-10
-3.872655856e-10
-9.344749649e-10
-1.524026897e-09
-2.148306486e-09
-2.798173178e-09
-3.463620543e-09
-4.136051027e-09
-4.807811625e-09
-5.472321995e-09
-6.122007105e-09
-6.748354524e-09
-7.341577397e-09
-7.893247607e-09
-8.397676394e-09
-8.854320532e-09
-9.266974404e-09
-9.64327838e-09
-9.992108971e-09
-1.032353112e-08
-1.064869217e-08
-1.098310521e-08
-1.134918831e-08
-1.178036983e-08
-1.232275747e-08
-1.30374551e-08
-1.400108614e-08
-1.530814512e-08
-1.707313679e-08
-1.943551031e-08
-2.256500735e-08
-2.666949513e-08
-3.200170137e-08
-3.886450445e-08
-4.761036244e-08
-5.863587386e-08
-7.237260827e-08
-8.928145104e-08
-1.098515047e-07
-1.345999684e-07
-1.640644406e-07
-1.987903533e-07
-2.393173865e-07
-2.861536094e-07
-3.397605667e-07
-4.004513507e-07
-4.688883166e-07
-5.493198095e-07
-6.723647004e-07
-3.90640561e-07
-0.005127578511
0
0
0
0
0
0
0
0
0
0
0
0
0
0
0
0
0
0
0
0
0
0
0
0
0
0
0
0
0
0
0
0
0
0
0
0
0
0
0
0
0
0
0
0
0
0
0
0
0
0
0
0
0
0
0
0
0
0
0
0
0
0
0
0
0
0
0
0
0
0
0
0
0
0
0
0
0
0
0
0
0
0
0
0
0
0
0
0
0
0
0
0
0
0
0
0
0
0
0
0
0
0
0
0
0
0
0
0
0
0
0
0
0
0
0
0
0
0
0
2.804837784e-09
5.801608423e-09
5.406682868e-09
5.14816251e-09
4.730006735e-09
4.332055818e-09
3.959854235e-09
3.615828057e-09
3.301801071e-09
3.019178766e-09
2.768523726e-09
2.549737718e-09
2.361893645e-09
2.20350929e-09
2.072536422e-09
1.966658869e-09
1.88317159e-09
1.819302259e-09
1.771963358e-09
1.738236879e-09
1.71529439e-09
1.70085739e-09
1.693045032e-09
1.690578358e-09
1.692271062e-09
1.697130592e-09
1.704002316e-09
1.711981749e-09
1.72034409e-09
1.729000512e-09
1.738119505e-09
1.748154203e-09
1.75915286e-09
1.770822334e-09
1.782304293e-09
1.792835564e-09
1.801966448e-09
1.810176812e-09
1.81857319e-09
1.828799051e-09
1.842129238e-09
1.85935952e-09
1.880303874e-09
1.904456951e-09
1.931064777e-09
1.959973314e-09
1.991386768e-09
2.026137857e-09
2.064899852e-09
2.10816298e-09
2.155507677e-09
2.205792067e-09
2.256758669e-09
2.305554517e-09
2.34866467e-09
2.382727047e-09
2.404523072e-09
2.411514614e-09
2.401165539e-09
2.370782873e-09
2.316487541e-09
2.233423092e-09
2.115605547e-09
1.957212294e-09
1.753000118e-09
1.499498563e-09
1.194547963e-09
8.373805581e-10
4.272755011e-10
-3.646553068e-11
-5.549069858e-10
-1.128050316e-09
-1.753951909e-09
-2.427406039e-09
-3.140513643e-09
-3.88355436e-09
-4.646905291e-09
-5.421548602e-09
-6.1990891e-09
-6.970149118e-09
-7.723497052e-09
-8.44561896e-09
-9.122690718e-09
-9.74282803e-09
-1.029915217e-08
-1.079047042e-08
-1.122095654e-08
-1.159760496e-08
-1.192873667e-08
-1.222300003e-08
-1.249153413e-08
-1.275068644e-08
-1.30261989e-08
-1.335563477e-08
-1.37904175e-08
-1.439613604e-08
-1.52536879e-08
-1.646072642e-08
-1.813526203e-08
-2.042016243e-08
-2.348944336e-08
-2.755504764e-08
-3.287376095e-08
-3.97515591e-08
-4.854368359e-08
-5.964907107e-08
-7.350227602e-08
-9.056779777e-08
-1.113395923e-07
-1.363404155e-07
-1.66114202e-07
-2.012133862e-07
-2.421828712e-07
-2.895422713e-07
-3.437413227e-07
-4.051456409e-07
-4.742844531e-07
-5.558072239e-07
-6.800516534e-07
-3.951067311e-07
-0.005185829774
0
0
0
0
0
0
0
0
0
0
0
0
0
0
0
0
0
0
0
0
0
0
0
0
0
0
0
0
0
0
0
0
0
0
0
0
0
0
0
0
0
0
0
0
0
0
0
0
0
0
0
0
0
0
0
0
0
0
0
0
0
0
0
0
0
0
0
0
0
0
0
0
0
0
0
0
0
0
0
0
0
0
0
0
0
0
0
0
0
0
0
0
0
0
0
0
0
0
0
0
0
0
0
0
0
0
0
0
0
0
0
0
0
0
0
0
0
0
0
2.796791027e-09
5.784550093e-09
5.390340336e-09
5.132357458e-09
4.715428843e-09
4.318757224e-09
3.947887849e-09
3.605093089e-09
3.292259556e-09
3.010638133e-09
2.760823144e-09
2.54263219e-09
2.355174564e-09
2.196949462e-09
2.066018491e-09
1.960017968e-09
1.876347025e-09
1.812114e-09
1.764315227e-09
1.7299771e-09
1.706427551e-09
1.691440321e-09
1.683311107e-09
1.680682259e-09
1.682394546e-09
1.687263282e-09
1.694170906e-09
1.702152625e-09
1.71069946e-09
1.71968746e-09
1.72935331e-09
1.739816918e-09
1.750892911e-09
1.761883258e-09
1.771932406e-09
1.780362506e-09
1.787250705e-09
1.793425681e-09
1.800371785e-09
1.809510885e-09
1.821813114e-09
1.837358002e-09
1.855656558e-09
1.875960745e-09
1.897929373e-09
1.921738718e-09
1.948134525e-09
1.977885686e-09
2.011472e-09
2.048616803e-09
2.088275562e-09
2.128531169e-09
2.166829898e-09
2.200052681e-09
2.224908341e-09
2.238158911e-09
2.236983972e-09
2.218839163e-09
2.181186514e-09
2.120765473e-09
2.033264753e-09
1.913146007e-09
1.754347503e-09
1.550960345e-09
1.298260649e-09
9.929279431e-10
6.330824705e-10
2.174426484e-10
-2.553300152e-10
-7.870973853e-10
-1.379740404e-09
-2.033894802e-09
-2.747614614e-09
-3.51567659e-09
-4.330264089e-09
-5.182279396e-09
-6.062593678e-09
-6.962058019e-09
-7.87036403e-09
-8.774399979e-09
-9.657471579e-09
-1.050027913e-08
-1.128364917e-08
-1.199215029e-08
-1.261657489e-08
-1.31546393e-08
-1.360916442e-08
-1.398564737e-08
-1.429031763e-08
-1.453074272e-08
-1.471833379e-08
-1.487244809e-08
-1.502372911e-08
-1.521623946e-08
-1.550769766e-08
-1.596948527e-08
-1.668714285e-08
-1.776284938e-08
-1.931931339e-08
-2.150484231e-08
-2.449914452e-08
-2.851942549e-08
-3.382657168e-08
-4.072925908e-08
-4.958442352e-08
-6.079248938e-08
-7.479002402e-08
-9.204456278e-08
-1.130541989e-07
-1.383467406e-07
-1.68472056e-07
-2.039887172e-07
-2.454505584e-07
-2.933789118e-07
-3.482495776e-07
-4.103787516e-07
-4.80455168e-07
-5.627877793e-07
-6.887980837e-07
-4.001298697e-07
-0.005252630982
0
0
0
0
0
0
0
0
0
0
0
0
0
0
0
0
0
0
0
0
0
0
0
0
0
0
0
0
0
0
0
0
0
0
0
0
0
0
0
0
0
0
0
0
0
0
0
0
0
0
0
0
0
0
0
0
0
0
0
0
0
0
0
0
0
0
0
0
0
0
0
0
0
0
0
0
0
0
0
0
0
0
0
0
0
0
0
0
0
0
0
0
0
0
0
0
0
0
0
0
0
0
0
0
0
0
0
0
0
0
0
0
0
0
0
0
0
0
0
2.78790268e-09
5.765842627e-09
5.372526791e-09
5.115241188e-09
4.699667463e-09
4.304396466e-09
3.934889045e-09
3.593416834e-09
3.281763384e-09
3.001171683e-09
2.752167512e-09
2.53454725e-09
2.347427339e-09
2.189359641e-09
2.058406103e-09
1.952276677e-09
1.868314834e-09
1.803629543e-09
1.755218829e-09
1.720184792e-09
1.695949048e-09
1.680421604e-09
1.671938825e-09
1.669145116e-09
1.67074024e-09
1.675494034e-09
1.682246618e-09
1.690181571e-09
1.698851396e-09
1.708226358e-09
1.718343005e-09
1.729065831e-09
1.73979218e-09
1.749667906e-09
1.757839851e-09
1.764051799e-09
1.768819031e-09
1.773417969e-09
1.779311531e-09
1.787629438e-09
1.798626488e-09
1.811852507e-09
1.826443855e-09
1.841858581e-09
1.858145761e-09
1.876026117e-09
1.89637657e-09
1.91976227e-09
1.945936602e-09
1.973800434e-09
2.001431211e-09
2.026378682e-09
2.045760763e-09
2.056479376e-09
2.055358363e-09
2.039435761e-09
2.006021806e-09
1.952644783e-09
1.876530776e-09
1.774187281e-09
1.641000182e-09
1.471543586e-09
1.260048776e-09
1.001321552e-09
6.912062053e-10
3.268402184e-10
-9.381234134e-11
-5.727106323e-10
-1.112411317e-09
-1.716271277e-09
-2.387424853e-09
-3.127489602e-09
-3.935049755e-09
-4.805678351e-09
-5.732662347e-09
-6.708456669e-09
-7.724962897e-09
-8.77265358e-09
-9.838506424e-09
-1.09043518e-08
-1.194678275e-08
-1.293935136e-08
-1.385657601e-08
-1.467798926e-08
-1.539074224e-08
-1.598942744e-08
-1.6473869e-08
-1.684627292e-08
-1.711020654e-08
-1.72721129e-08
-1.734526843e-08
-1.735397169e-08
-1.733641298e-08
-1.734505612e-08
-1.744561828e-08
-1.771620999e-08
-1.824845921e-08
-1.915082429e-08
-2.055327119e-08
-2.26121685e-08
-2.55149467e-08
-2.948507394e-08
-3.47871542e-08
-4.173143206e-08
-5.067482834e-08
-6.201758225e-08
-7.619667269e-08
-9.368124063e-08
-1.149720322e-07
-1.40600844e-07
-1.711226251e-07
-2.071032039e-07
-2.491028086e-07
-2.976587679e-07
-3.532363785e-07
-4.162213614e-07
-4.87148367e-07
-5.708338529e-07
-6.983730892e-07
-4.057226121e-07
-0.005328475439
0
0
0
0
0
0
0
0
0
0
0
0
0
0
0
0
0
0
0
0
0
0
0
0
0
0
0
0
0
0
0
0
0
0
0
0
0
0
0
0
0
0
0
0
0
0
0
0
0
0
0
0
0
0
0
0
0
0
0
0
0
0
0
0
0
0
0
0
0
0
0
0
0
0
0
0
0
0
0
0
0
0
0
0
0
0
0
0
0
0
0
0
0
0
0
0
0
0
0
0
0
0
0
0
0
0
0
0
0
0
0
0
0
0
0
0
0
0
0
2.778122266e-09
5.745282893e-09
5.353098817e-09
5.096638515e-09
4.682597452e-09
4.288839457e-09
3.920814617e-09
3.580721399e-09
3.270305856e-09
2.990748133e-09
2.742548785e-09
2.525485632e-09
2.338701702e-09
2.180766482e-09
2.04979799e-09
1.943476506e-09
1.859158559e-09
1.793937611e-09
1.744827188e-09
1.709016163e-09
1.684082202e-09
1.668017569e-09
1.659187899e-09
1.656149754e-09
1.657530321e-09
1.662032582e-09
1.668565396e-09
1.676400589e-09
1.685230186e-09
1.69494122e-09
1.705379962e-09
1.71601673e-09
1.725997746e-09
1.734333282e-09
1.740450867e-09
1.744522948e-09
1.74756628e-09
1.751025613e-09
1.756177157e-09
1.763517526e-09
1.772635347e-09
1.78252768e-09
1.79231671e-09
1.801743893e-09
1.811388519e-09
1.822214663e-09
1.834958245e-09
1.849482902e-09
1.864602643e-09
1.878186585e-09
1.887560144e-09
1.889749387e-09
1.881675978e-09
1.860193846e-09
1.822236922e-09
1.764950321e-09
1.6858054e-09
1.582373292e-09
1.451989773e-09
1.291291326e-09
1.096179369e-09
8.620171405e-10
5.842411254e-10
2.588454289e-10
-1.173496661e-10
-5.468101813e-10
-1.031989701e-09
-1.575959965e-09
-2.18318639e-09
-2.858930732e-09
-3.608312985e-09
-4.434299944e-09
-5.337015916e-09
-6.313726349e-09
-7.360210704e-09
-8.471385496e-09
-9.640801778e-09
-1.085841549e-08
-1.210796677e-08
-1.336537049e-08
-1.459943314e-08
-1.577527509e-08
-1.685918818e-08
-1.782331659e-08
-1.864825746e-08
-1.932279945e-08
-1.984144321e-08
-2.020166845e-08
-2.040371309e-08
-2.045347419e-08
-2.036765874e-08
-2.017804917e-08
-1.993301699e-08
-1.96958867e-08
-1.954219256e-08
-1.955853238e-08
-1.98447303e-08
-2.051862167e-08
-2.17212626e-08
-2.362068609e-08
-2.641460901e-08
-3.033339054e-08
-3.564458472e-08
-4.265777426e-08
-5.172732449e-08
-6.325044445e-08
-7.766188293e-08
-9.542967383e-08
-1.170550915e-07
-1.430720088e-07
-1.74040015e-07
-2.105314895e-07
-2.531187754e-07
-3.023446324e-07
-3.587107582e-07
-4.22550491e-07
-4.945996412e-07
-5.792773773e-07
-7.090080228e-07
-4.118667384e-07
-0.005413937781
0
0
0
0
0
0
0
0
0
0
0
0
0
0
0
0
0
0
0
0
0
0
0
0
0
0
0
0
0
0
0
0
0
0
0
0
0
0
0
0
0
0
0
0
0
0
0
0
0
0
0
0
0
0
0
0
0
0
0
0
0
0
0
0
0
0
0
0
0
0
0
0
0
0
0
0
0
0
0
0
0
0
0
0
0
0
0
0
0
0
0
0
0
0
0
0
0
0
0
0
0
0
0
0
0
0
0
0
0
0
0
0
0
0
0
0
0
0
0
2.767404119e-09
5.722817705e-09
5.331948091e-09
5.076433252e-09
4.664080477e-09
4.272007483e-09
3.905568618e-09
3.566945319e-09
3.257818848e-09
2.979345103e-09
2.731960409e-09
2.51546496e-09
2.32900708e-09
2.171217526e-09
2.040208425e-09
1.933688279e-09
1.848958758e-09
1.783114928e-09
1.733239568e-09
1.696646419e-09
1.671012071e-09
1.654420484e-09
1.645218333e-09
1.641886267e-09
1.642959743e-09
1.647126798e-09
1.653392435e-09
1.661158228e-09
1.670133054e-09
1.680108479e-09
1.690611865e-09
1.700807812e-09
1.70962137e-09
1.716178836e-09
1.720251948e-09
1.72252724e-09
1.724311341e-09
1.727039213e-09
1.731459387e-09
1.737354751e-09
1.743640774e-09
1.749068223e-09
1.752887735e-09
1.755306231e-09
1.757181395e-09
1.759396256e-09
1.761999562e-09
1.763820217e-09
1.762469258e-09
1.754815655e-09
1.737416513e-09
1.706833405e-09
1.659662318e-09
1.592584666e-09
1.50245737e-09
1.38653582e-09
1.242498125e-09
1.068360479e-09
8.620661013e-10
6.213043208e-10
3.434301377e-10
2.574397539e-11
-3.342172481e-10
-7.385961406e-10
-1.189228299e-09
-1.688323328e-09
-2.238960997e-09
-2.846179993e-09
-3.516802481e-09
-4.25896516e-09
-5.08005366e-09
-5.98533825e-09
-6.977216614e-09
-8.056129117e-09
-9.221601772e-09
-1.047229823e-08
-1.18041918e-08
-1.320727342e-08
-1.466231735e-08
-1.613929708e-08
-1.759873667e-08
-1.899568194e-08
-2.028519527e-08
-2.142773295e-08
-2.239271789e-08
-2.315941852e-08
-2.371457024e-08
-2.404981676e-08
-2.416152853e-08
-2.40555817e-08
-2.375349293e-08
-2.329707471e-08
-2.274793134e-08
-2.218338428e-08
-2.169150087e-08
-2.136996122e-08
-2.133010916e-08
-2.170387557e-08
-2.264897196e-08
-2.435014126e-08
-2.701833042e-08
-3.08912592e-08
-3.623748554e-08
-4.336269349e-08
-5.261460669e-08
-6.438322717e-08
-7.909675465e-08
-9.721821972e-08
-1.192457744e-07
-1.457132177e-07
-1.771834119e-07
-2.142372501e-07
-2.574568729e-07
-3.074083858e-07
-3.645872878e-07
-4.294172332e-07
-5.024601769e-07
-5.887611939e-07
-7.203614566e-07
-4.185403271e-07
-0.005509685446
0
0
0
0
0
0
0
0
0
0
0
0
0
0
0
0
0
0
0
0
0
0
0
0
0
0
0
0
0
0
0
0
0
0
0
0
0
0
0
0
0
0
0
0
0
0
0
0
0
0
0
0
0
0
0
0
0
0
0
0
0
0
0
0
0
0
0
0
0
0
0
0
0
0
0
0
0
0
0
0
0
0
0
0
0
0
0
0
0
0
0
0
0
0
0
0
0
0
0
0
0
0
0
0
0
0
0
0
0
0
0
0
0
0
0
0
0
0
0
2.755697355e-09
5.69828518e-09
5.308929171e-09
5.054515764e-09
4.644044158e-09
4.253795943e-09
3.889081845e-09
3.552025134e-09
3.24427613e-09
2.96691484e-09
2.720380642e-09
2.504469125e-09
2.318369745e-09
2.160738962e-09
2.029703124e-09
1.922938266e-09
1.837749268e-09
1.771239257e-09
1.720591335e-09
1.683207677e-09
1.656909956e-09
1.639799221e-09
1.63020222e-09
1.626501331e-09
1.627190364e-09
1.630989046e-09
1.637010742e-09
1.644722188e-09
1.653831054e-09
1.663888709e-09
1.674147085e-09
1.68350744e-09
1.690862812e-09
1.695568895e-09
1.697877003e-09