/*--------------------------------*- C++ -*----------------------------------*\
  =========                 |
  \\      /  F ield         | OpenFOAM: The Open Source CFD Toolbox
   \\    /   O peration     | Website:  https://openfoam.org
    \\  /    A nd           | Version:  10
     \\/     M anipulation  |
\*---------------------------------------------------------------------------*/
FoamFile
{
    format      ascii;
    class       volScalarField;
    location    "0.0001";
    object      p;
}
// * * * * * * * * * * * * * * * * * * * * * * * * * * * * * * * * * * * * * //

dimensions      [1 -1 -2 0 0 0 0];

internalField   nonuniform List<scalar> 
16000
(
0.06707678335
0.07015458185
0.08255080185
0.1021115372
0.1256340326
0.1446518679
0.1452125449
0.1287894148
0.09258737655
-0.1034512858
-0.4716984821
-0.7670585334
-0.854644561
-0.8072342897
-0.5460247533
-0.2674591179
-0.07968858254
0.01628952754
0.04934125501
0.05157097524
0.0524406634
0.05156655712
0.01907918744
-0.07702000567
-0.2653675388
-0.5449235647
-0.8075244755
-0.8563595117
-0.7702137987
-0.4761074629
-0.1068860604
0.09138573688
0.1289141942
0.1459048016
0.145758804
0.1270318358
0.1032737415
0.08299859176
0.06986185531
0.0663771824
0.07989867834
0.08674046354
0.1063559309
0.144521188
0.2079003064
0.308030724
0.4755739273
0.7672074636
0.9453811543
0.1046361831
-1.161400263
-1.810136696
-1.908832637
-1.775750246
-1.121047589
-0.4693729537
-0.05510632113
0.146264755
0.2018381191
0.1900874501
0.1923446652
0.2072799498
0.1524873396
-0.04972733811
-0.464935031
-1.117996479
-1.775193988
-1.911640538
-1.817076729
-1.171873483
0.09533117152
0.9427000989
0.7683982401
0.4769953837
0.310062049
0.2108970315
0.1472324001
0.1073810293
0.08588188244
0.0779668987
0.08772440549
0.09350039341
0.1174904719
0.169475709
0.2649649621
0.4367709735
0.7761849385
1.455404491
1.961168172
0.2090135593
-1.603557613
-2.242564186
-2.265982797
-2.287415164
-1.248742388
-0.3286937099
0.1894445785
0.3939500016
0.4091697872
0.3481509531
0.3509521312
0.4154082179
0.4000598579
0.1939086303
-0.3248476442
-1.245136449
-2.285460119
-2.268357405
-2.25168091
-1.619785079
0.1955659912
1.954496887
1.45895252
0.7773083165
0.4370709311
0.2672983219
0.1725140717
0.118728507
0.09223403827
0.08493621398
0.08549018073
0.08955766517
0.1147216209
0.1724986239
0.2750458965
0.4299725191
0.754787062
2.281787654
5.477879048
3.377245746
-6.381707709
-10.00385784
-7.933076452
-6.91195541
-2.489195843
-0.1256364283
0.7303784733
0.9097655598
0.6103139056
0.2555831869
0.2583267409
0.6159436258
0.914361323
0.7330170331
-0.1231491965
-2.485597526
-6.908450364
-7.93260244
-10.00997002
-6.401546276
3.368780251
5.488663507
2.300145384
0.7588319682
0.4289177949
0.2758427854
0.174955862
0.1158278165
0.08813613558
0.08242517563
0.08601236885
0.04374891417
0.02700050087
0.02717284683
-0.02646085157
-0.2990631384
-0.5695289254
5.82683222
23.98494557
22.2578814
-10.6568842
-26.31502087
-27.2805176
-26.48201795
-4.697007707
-0.2346617092
2.008282389
3.873608351
1.420754143
-1.42621586
-1.422572303
1.42739796
3.876417416
2.007955284
-0.2333987715
-4.693409771
-26.47645677
-27.27241199
-26.29552766
-10.57196811
22.30747202
23.86678542
5.82675722
-0.5727907654
-0.306252588
-0.02925237653
0.02821475231
0.02766208651
0.04207426564
0.08272384703
0.05985562567
0.0278686412
0.01226384472
0.008351159386
-0.05431380748
-1.350780071
-193.9300348
-1635.049024
-2137.081832
1514.790076
4058.296022
3067.002393
696.8366514
-1791.449152
883.8964152
1466.280118
-1008.872133
-2733.250709
-3506.787717
-3946.033944
-3946.135246
-3506.820121
-2733.134295
-1008.662181
1466.370139
884.0292455
-1791.676975
696.3431132
3067.427409
4058.609943
1510.808606
-2136.362129
-1633.663652
-193.9060141
-1.358281291
-0.05755297303
0.009589943265
0.01305778353
0.02615830836
0.05645541645
-2.267729106
-3.463927579
-6.692712266
-14.3747328
-33.62272732
-86.48947706
-248.1398786
-613.7218321
-457.6024259
934.7807368
2242.989394
2855.268686
164.839289
-1044.752637
350.5062709
299.5640107
-1318.275859
-3144.966332
-4529.904404
-5116.637534
-5116.746699
-4530.046522
-3145.104408
-1318.260626
299.4926241
350.5401912
-1044.824554
164.4116235
2855.67212
2242.883259
933.9228809
-457.4760692
-613.3176541
-248.0118019
-86.43731317
-33.59429116
-14.35563342
-6.67857271
-3.453084573
-2.260151706
-3.645392581
-5.318188501
-9.504121351
-18.37062033
-36.5857176
-72.81069883
-135.9744655
-186.2360307
17.61107938
625.6740502
1210.705433
1323.305124
476.4766009
-103.9205664
321.3824967
907.1477587
-897.4360807
-3166.420016
-5021.96653
-5816.60969
-5816.682652
-5022.026965
-3166.830871
-897.4038581
907.2553264
321.4313831
-103.929016
476.4388668
1323.418218
1210.657819
625.4897673
17.65774419
-186.0847335
-135.8745631
-72.74890308
-36.54410089
-18.33943935
-9.478658544
-5.29618499
-3.627249412
-3.53876962
-4.941626289
-8.178372122
-14.14338331
-23.93334771
-37.19125917
-45.5242783
-13.94812725
135.616102
420.694978
675.7463741
697.8063228
390.2986598
104.1923901
88.17975629
4.446142876
-801.9340136
-1926.821196
-2918.693935
-3429.446755
-3429.467465
-2918.734408
-1926.908675
-801.926791
4.482726957
88.20606856
104.2055893
390.3139007
697.8468235
675.7430676
420.669217
135.6540089
-13.86968922
-45.45179755
-37.13328084
-23.88690135
-14.10437861
-8.143828039
-4.909786786
-3.510795669
-2.214203523
-2.983212444
-4.555651642
-6.844266342
-9.044487461
-8.110190029
4.489402279
46.95109451
142.3234778
281.708433
393.9208655
394.6251593
259.9493414
94.15714628
-28.87228179
-222.1774629
-661.1155646
-1241.982694
-1766.312793
-2059.268844
-2059.274561
-1766.325189
-1241.998653
-661.1076089
-222.1579325
-28.85248588
94.17553483
259.9705217
394.6510093
393.9368925
281.7240736
142.3610055
47.00598197
4.546823866
-8.056920806
-8.996310048
-6.800018751
-4.513871323
-2.942878783
-2.177410056
-0.2509547911
-0.3792700735
-0.4520562464
0.04342035294
2.391701928
9.422252288
26.47138926
61.229796
118.7321355
188.3912734
237.3858725
229.8279654
156.2390522
47.00147099
-76.53487815
-248.0931154
-511.747842
-829.0232367
-1111.888642
-1274.567979
-1274.568786
-1111.889592
-829.0217551
-511.7381044
-248.0777168
-76.51706759
47.02091123
156.2610004
229.8522189
237.4098809
188.41892
118.7697494
61.27635667
26.52173186
9.472724141
2.440994704
0.09162265522
-0.404349155
-0.3316280319
-0.2063727401
1.784623035
2.119300884
3.030851994
5.074872953
9.345668858
17.72186046
32.89147698
57.44924253
91.0195494
125.7764111
145.6225646
134.1779828
85.93877366
9.121954263
-89.62027364
-218.1526608
-383.7795973
-566.323686
-724.2290385
-815.1940566
-815.1932735
-724.2261888
-566.3177437
-383.7692128
-218.13846
-89.60323555
9.141496651
85.96099343
134.20282
145.6499319
125.8079293
91.05720294
57.49274143
32.9388372
17.77128323
9.396249455
5.12643338
3.083584066
2.1732501
1.836034811
3.500228575
4.082752009
5.459696499
8.061119702
12.61515552
20.14614848
31.74873945
47.85873518
66.84855692
83.54215548
89.5637348
76.80970358
41.75621699
-13.69733401
-86.87821819
-177.8362175
-284.3491605
-393.9501971
-485.5261233
-537.7117541
-537.7104936
-485.5221739
-393.9432075
-284.3387906
-177.8226122
-86.86166564
-13.67793189
41.77857516
76.83513386
89.59252875
83.57503786
66.8862567
47.90117079
31.79511604
20.19564982
12.66728074
8.115710284
5.516798342
4.142187512
3.557653232
4.702762345
5.357528078
6.818738162
9.357655147
13.37600801
19.3242637
27.47671935
37.48111944
47.72612353
54.89535777
54.3975047
41.94762558
15.34700382
-25.07686392
-77.77340034
-140.8500987
-210.4586593
-278.5337632
-333.6245562
-364.5551466
-364.5537733
-333.6203875
-278.5266859
-210.4485696
-140.8369815
-77.75727905
-25.05769636
15.36935839
41.97334756
54.42687029
54.92875595
47.763912
37.52333326
27.52309498
19.37450288
13.42991321
9.415179908
6.879901358
5.422023032
4.765808334
5.355453241
5.968560774
7.288545826
9.454251512
12.63889244
16.96284219
22.33171627
28.18883168
33.24844024
35.39842827
32.01834647
20.74346532
0.2744585064
-29.32104668
-66.90091821
-110.4433367
-156.5692205
-200.0214306
-234.2621465
-253.2080197
-253.2066672
-234.258071
-200.0145731
-156.5595038
-110.430668
-66.88519957
-29.30215595
0.2966910131
20.76923931
32.04790712
35.43206722
33.28643668
28.23134412
22.37879273
17.01452011
12.69525238
9.515431554
7.354630131
6.03916964
5.425463445
5.518043292
6.030896338
7.106826897
8.793715988
11.12704032
14.06131303
17.36860749
20.51248708
22.54558417
22.12051425
17.70062335
7.954317806
-7.838591879
-29.57734803
-56.35771986
-86.50624054
-117.4799741
-145.8505696
-167.7375505
-179.6961609
-179.6948644
-167.7336396
-145.8439743
-117.4705912
-86.49393325
-56.34233235
-29.55870747
-7.816492413
7.980115312
17.73040106
22.15460593
22.58435484
20.55630665
17.41786936
14.11649151
11.18872292
8.862562681
7.183336704
6.114776874
5.603736524
5.295516952
5.688899121
6.497833218
7.716172151
9.307388368
11.15737804
13.01624212
14.43878641
14.75291547
13.09714169
8.556773991
0.3805303846
-11.79888534
-27.82575832
-46.98374196
-68.00279789
-89.0761375
-107.963709
-122.2929823
-130.0416924
-130.0404328
-122.2891746
-107.9572667
-89.06692914
-67.99065146
-46.96845109
-27.80707897
-11.77651773
0.4069568356
8.587722536
13.1331988
14.79482137
14.48748751
13.07298246
11.22383342
9.385782676
7.809228509
6.608221166
5.817630563
5.436160101
4.802981561
5.081424756
5.644626358
6.45919972
7.458250634
8.511263747
9.393254995
9.759799649
9.144239695
6.995662985
2.766999708
-3.959811461
-13.3477355
-25.21654552
-39.00788832
-53.79282919
-68.31714273
-81.11028145
-90.6871689
-95.82283807
-95.82156408
-90.68330958
-81.10372574
-68.30770975
-53.78026558
-38.99185762
-25.19660323
-13.32328731
-3.930058628
2.803139029
7.039671845
9.198174649
9.826550383
9.476925648
8.617705177
7.595678982
6.6385593
5.878609778
5.379752729
5.159102008
4.145434302
4.325523986
4.683830852
5.177046173
5.731676565
6.225880627
6.474749638
6.222381368
5.149494425
2.9048134
-0.8375009414
-6.302862732
-13.5420549
-22.37746218
-32.3807685
-42.88352678
-53.02200002
-61.82399812
-68.34163032
-71.81288669
-71.81146068
-68.33728675
-61.81653571
-53.01106584
-42.868584
-32.36104045
-22.35184231
-13.50897125
-6.260080474
-0.7818302773
2.977952814
5.246720714
6.35330961
6.65339921
6.47269269
6.076196047
5.660712131
5.360069858
5.248253682
5.32545687
3.407914583
3.511352662
3.71006447
3.962270251
4.199847875
4.319547971
4.177251933
3.587901967
2.335711527
0.1981728886
-3.016221923
-7.42199092
-13.01237813
-19.62755715
-26.94283588
-34.48022379
-41.64507249
-47.78911475
-52.29702946
-54.68397979
-54.68196879
-52.29083394
-47.77822625
-41.62856971
-34.45665135
-26.91000992
-19.58226709
-12.94993861
-7.335573784
-2.895865199
0.3670330962
2.574413638
3.927766819
4.664303303
5.021397542
5.215428308
5.434183806
5.834247474
6.519388453
7.439775891
0.0652633486
0.06829856366
0.08041106388
0.099544972
0.122727014
0.1420424878
0.1435770908
0.1266753371
0.09556183513
-0.08123507744
-0.4034573593
-0.7065970423
-0.8269794262
-0.8099050318
-0.5862176833
-0.2946919016
-0.106300241
-0.0104715667
0.0353300993
0.05039935533
0.05103923409
0.03700626509
-0.008321743402
-0.1042612199
-0.2931316563
-0.5854842541
-0.8104251541
-0.8289560017
-0.7101767285
-0.4076877446
-0.08395784559
0.09506767182
0.127158165
0.1443651608
0.1431462532
0.1240389619
0.1006438894
0.08092705918
0.068181805
0.06477243875
0.0773718634
0.08404343108
0.1029787508
0.139579191
0.1998449759
0.2937791175
0.4478457085
0.7224585193
0.9509775388
0.2351407406
-1.037854252
-1.727652333
-1.87227515
-1.806720127
-1.246246846
-0.5307892316
-0.1092503534
0.08104854191
0.1727217019
0.2045452394
0.2060273714
0.1764402083
0.08554441146
-0.1050988769
-0.5272853526
-1.244008195
-1.806946609
-1.876082647
-1.735445239
-1.046972132
0.2255791812
0.9504485107
0.7248406659
0.4498313449
0.2959637071
0.2027415292
0.1421501838
0.1040988414
0.08354177364
0.07590598562
0.08470670684
0.09028906708
0.1132769767
0.1626600247
0.2523248149
0.4106470446
0.7168641175
1.350838551
1.959838446
0.4594450262
-1.50189264
-2.218579497
-2.242061755
-2.356346023
-1.517991129
-0.4161328787
0.1344098509
0.2979979607
0.3828628057
0.412740222
0.4141949489
0.3864094502
0.301873768
0.1376024426
-0.41290203
-1.515090764
-2.355832237
-2.246459647
-2.230629006
-1.526013403
0.4390630132
1.960085663
1.357132412
0.71877538
0.4114535089
0.254766435
0.165592286
0.1145862916
0.08940531166
0.0824732009
0.08243435599
0.08629420835
0.110292702
0.1650241041
0.2621177055
0.4075482248
0.6696729391
1.857077785
4.996465227
4.123625464
-5.462800394
-10.06219877
-7.976592156
-6.957069346
-3.215986683
-0.1187726433
0.6187679061
0.6748338048
0.6196665805
0.6144073157
0.6154581017
0.6222131198
0.6773502402
0.6206646884
-0.1162401477
-3.213136169
-6.955551573
-7.979350136
-10.07635481
-5.503467318
4.116096236
5.026544869
1.879554293
0.6742474765
0.4070690488
0.2633333012
0.1675139006
0.1114771474
0.08520917307
0.07988400876
0.08370026026
0.04247074499
0.02668526088
0.02874285717
-0.01577130191
-0.2627288566
-0.7301380845
3.114676441
20.87504562
24.38620565
-11.50075452
-30.05704348
-24.77692504
-25.69551516
-7.951882344
2.587488542
1.051170189
2.026469667
1.211562019
1.42769174
1.428166242
1.213316869
2.028164073
1.052732601
2.590363462
-7.950350904
-25.69122417
-24.77288433
-30.04706935
-11.46533637
24.46927849
20.80966685
3.126432007
-0.7311310034
-0.268571189
-0.01753429617
0.03009030766
0.02744804695
0.04108662754
0.08088269571
0.05814217808
0.02692020315
0.0123107302
0.01045465462
-0.0419696406
-0.5339914657
-91.9714966
-1281.213
-2353.264556
638.2368672
3552.855369
3196.154055
1466.999061
-1976.266098
-5.924675043
1214.843513
-416.8582891
-2115.77164
-2962.227564
-3506.875422
-3506.824807
-2962.242473
-2115.665517
-416.5027608
1215.090297
-5.596523339
-1976.65392
1466.650716
3196.756664
3550.43086
637.1969421
-2352.034903
-1281.034985
-92.16247948
-0.5413936081
-0.04373685135
0.01209941417
0.01321294248
0.02549392681
0.0552191077
-2.134449555
-3.254066641
-6.260876245
-13.34294126
-30.80715887
-77.50028892
-214.3568635
-561.2572556
-558.8408243
698.9948369
2185.456241
3034.860656
906.2209677
-2512.113018
228.1794455
322.9965
-821.2507629
-2444.838834
-3853.376639
-4530.000004
-4530.030188
-3853.3925
-2444.764267
-821.087948
323.1135708
228.3672397
-2512.488425
905.8971997
3035.467487
2184.953112
698.8412322
-558.449842
-561.0672136
-214.3283213
-77.47658053
-30.78829319
-13.32758005
-6.248397927
-3.24399088
-2.127052539
-3.432993993
-5.006694489
-8.933775899
-17.21890222
-34.16763315
-67.7978797
-127.1559904
-184.9917885
-28.96936725
544.4934376
1185.249113
1376.139773
606.5647696
-373.7542638
134.3092546
872.6791372
-188.1625035
-2285.605642
-4324.510917
-5022.020608
-5022.003553
-4324.519658
-2285.39227
-187.800976
872.8217419
134.3417959
-373.8931788
606.4356721
1376.214141
1185.173245
544.5218383
-28.80708244
-184.8686009
-127.0913767
-67.7553224
-34.13547884
-17.19242209
-8.910763361
-4.985989848
-3.415260615
-3.319017474
-4.645251211
-7.704081021
-13.3465949
-22.65700371
-35.53151519
-44.9505071
-20.50652169
111.4248942
384.74411
655.6272254
705.1240774
413.2992291
52.39780729
39.24774079
44.57474883
-529.6059837
-1502.555377
-2445.110904
-2918.724905
-2918.716232
-2445.083005
-1502.474945
-529.4863688
44.64394982
39.26240944
52.35576637
413.2595562
705.139937
655.6409858
384.796375
111.5147493
-20.42361697
-44.8882142
-35.48318619
-22.61705293
-13.31158362
-7.671959717
-4.614823462
-3.291395749
-2.038018874
-2.767963982
-4.264885061
-6.465303601
-8.669828866
-8.170070302
2.714790842
40.71285716
128.6546141
263.2507713
380.1792605
391.6683791
264.4795322
88.56671029
-27.9429094
-177.5546886
-527.9243567
-1026.573662
-1499.408972
-1766.31445
-1766.307754
-1499.387558
-1026.534593
-527.8740011
-177.5177611
-27.92700109
88.56422077
264.4790997
391.6876026
380.2104246
263.2991658
128.7165892
40.7749994
2.770319506
-8.121057887
-8.625536076
-6.423964805
-4.225133822
-2.728894135
-2.001330453
-0.1391796602
-0.2604130869
-0.3329939342
0.1137614906
2.258863174
8.703694208
24.39038675
56.60913282
110.7570953
178.4110931
229.2239004
226.7708222
158.5385659
52.08416134
-63.03301985
-211.7991857
-436.6785055
-713.1271173
-965.2654438
-1111.874324
-1111.869712
-965.2515888
-713.1049259
-436.6515002
-211.7751583
-63.01550089
52.0968963
158.5539256
226.7952812
229.2573088
178.4537184
110.8066287
56.66083517
24.44102531
8.752370927
2.305925004
0.1599684523
-0.2868603891
-0.2137851603
-0.09437276608
1.834391318
2.156725462
3.028860503
4.969914035
9.001562379
16.88049286
31.14240015
54.3217058
86.36462744
120.3781678
141.2797559
132.7618419
88.46981542
16.05748809
-75.58885575
-191.3674906
-338.2603114
-500.5737123
-642.1507988
-724.2059801
-724.2028172
-642.1415235
-500.5592361
-338.2424362
-191.3489518
-75.57099991
16.07553331
88.49086373
132.78844
141.3124913
120.4168809
86.4081846
54.36822414
31.19032441
16.92909785
9.050793482
5.020069431
3.080362084
2.209875983
1.886325016
3.502565864
4.064674908
5.389622224
7.883000631
12.23185791
19.40577966
30.45543431
45.85030706
64.17960606
80.70923753
87.52869057
76.68442172
44.46402956
-7.329421341
-75.3846144
-158.8730302
-255.6445687
-354.9426898
-438.0399599
-485.4976519
-485.4953355
-438.0331741
-354.9319707
-255.6307748
-158.8571761
-75.36715749
-7.309914188
44.48674052
76.711417
87.56040851
80.74562585
64.22018862
45.89430105
30.50210746
19.4547151
12.28296336
7.936408309
5.445572178
4.123298314
3.560557061
4.675486745
5.309227072
6.721375704
9.169448978
13.03566852
18.75138067
26.58952514
36.2467962
46.24838414
53.50339072
53.65290947
42.53045629
17.92309159
-19.85069148
-69.07284848
-127.6517332
-191.9047865
-254.5283734
-305.1603603
-333.592384
-333.5905442
-305.1549327
-254.5196227
-191.893088
-127.6374424
-69.05606504
-19.83114144
17.94595273
42.55715054
53.68372674
53.53837992
46.28739742
36.28953429
26.6356807
18.80076739
13.08824643
9.225305199
6.780666384
5.371991286
4.738115123
5.31443921
5.909695317
7.190236768
9.288534228
12.37076811
16.5547845
21.75851721
27.4673975
32.48017366
34.80628283
31.94833538
21.61892171
2.537398081
-25.22915768
-60.51431319
-101.2961254
-144.3492749
-184.7985325
-216.626555
-234.2274161
-234.2258606
-216.6219268
-184.7909299
-144.3388195
-101.282891
-60.49824759
-25.21005217
2.559858193
21.64504157
31.97832874
34.84025391
32.51812793
27.50925496
21.80416985
16.60415118
12.42381432
9.345285747
7.250775817
5.974033207
5.378863702
5.475136375
5.974575418
7.022062561
8.66344349
10.93346799
13.79068094
17.02158569
20.12115494
22.19421034
21.96147426
17.95380103
8.886054715
-5.945280944
-26.44379178
-51.72100799
-80.14858358
-109.2994388
-135.9523387
-156.4883047
-167.701152
-167.6997748
-156.4841774
-135.9454657
-109.2898112
-80.1361511
-51.70565706
-26.42534391
-5.923517617
8.911343688
17.98278092
21.99424823
22.23080797
20.16152233
17.06558964
13.83811403
10.98405594
8.716896803
7.078206006
6.033440438
5.533389376
5.258351691
5.64262042
6.4329116
7.623258205
9.179110482
10.9921757
12.82510711
14.2547557
14.64133649
13.16250105
8.941282596
1.252911324
-10.2603809
-25.45004668
-43.62267823
-63.55359045
-83.51602634
-101.3878773
-114.9343134
-122.2556395
-122.254381
-114.9305268
-101.3815265
-83.507051
-63.54190075
-43.60815492
-25.43254885
-10.23976354
1.276767406
8.968439159
13.19292921
14.67487364
14.29105125
12.86355669
11.03184912
9.218715644
7.661284855
6.468207076
5.675415558
5.287514371
4.775730541
5.048609903
5.600855986
6.400194631
7.382524561
8.422891072
9.30606571
9.702622883
9.165958331
7.167992778
3.182872062
-3.192976166
-12.11845497
-23.42113334
-36.56305608
-50.65058999
-64.48257198
-76.65775902
-85.76666249
-90.649495
-90.64834004
-85.76318464
-76.65192068
-64.47431667
-50.63984938
-36.5497615
-23.40523392
-12.09994572
-3.171941848
3.206196378
7.193138961
9.192108658
9.728448349
9.329507163
8.4408997
7.390896812
6.393999415
5.576616434
5.009349999
4.732326461
4.12998665
4.307138052
4.660011265
5.146645763
5.696266994
6.191642275
6.455018945
6.240513884
5.241305214
3.119533796
-0.4387420652
-5.651389271
-12.56830034
-21.0189646
-30.59088813
-40.6407886
-50.33945753
-58.75634746
-64.98656441
-68.30402869
-68.30298144
-64.9834144
-58.75107255
-50.33202986
-40.63118836
-30.57912519
-21.00511125
-12.55254058
-5.634092839
-0.4205711033
3.137473067
5.257245674
6.251719258
6.457360254
6.179104154
5.66076107
5.079685917
4.560799153
4.205024269
4.111410296
3.405746436
3.507889979
3.704819856
3.955937583
4.195388652
4.32346569
4.201117005
3.64989172
2.461735432
0.4220302393
-2.65413547
-6.877606892
-12.24228361
-18.59424324
-25.6203835
-32.86000068
-39.74076929
-45.63989723
-49.96727694
-52.25857903
-52.25739665
-49.96368942
-45.6337811
-39.73190991
-32.84807833
-25.60495187
-18.57469675
-12.21780824
-6.847105539
-2.616113435
0.4696408891
2.521842876
3.726649855
4.300566552
4.454704426
4.373378531
4.210168698
4.10809966
4.264657616
5.080197755
0.06185576076
0.06478859232
0.07635397342
0.09476322444
0.1176700991
0.1386910979
0.1454811459
0.1346403969
0.1139864724
-0.02577836705
-0.3097465151
-0.6092612765
-0.7722110467
-0.8145564006
-0.671018267
-0.3609480532
-0.1616651559
-0.06932183337
-0.00938756741
0.01816713018
0.01846301894
-0.008536134917
-0.06805889688
-0.1603364139
-0.3600079256
-0.6709192718
-0.8155959017
-0.7745710078
-0.613131477
-0.3137738337
-0.02816453828
0.1142615793
0.1354954686
0.1464372285
0.139844938
0.1189221156
0.09582003164
0.07693370575
0.06481152468
0.06152076677
0.07271715779
0.0790315951
0.09672873278
0.1308354475
0.1870285387
0.2750836846
0.4190486813
0.6800424284
0.9706427967
0.4876495642
-0.6893789093
-1.510345642
-1.794681816
-1.875569112
-1.522023594
-0.7015370982
-0.2208124607
-0.04188117711
0.08362929503
0.1506471051
0.1510092935
0.08484955132
-0.03971712728
-0.2180809639
-0.6991112836
-1.521129911
-1.877350967
-1.799987344
-1.519530365
-0.7016917779
0.4768150775
0.9726467843
0.6836108441
0.4214400126
0.2774741303
0.1898463859
0.1332383668
0.09789001121
0.07880002952
0.07161420632
0.07921778245
0.08439299105
0.1056270878
0.1510666326
0.2334831435
0.3795798133
0.6608352437
1.254255943
1.987734133
0.9692733671
-1.06076209
-2.048661542
-2.249726162
-2.559243357
-2.163476358
-0.7296929959
0.02514726548
0.1706498284
0.3010951398
0.3990095043
0.3988508694
0.3011063988
0.1716480405
0.02743661374
-0.726727618
-2.161718787
-2.560884834
-2.256614471
-2.063519624
-1.091476341
0.9345805542
1.995825775
1.263104131
0.6636694883
0.3810916203
0.2361731778
0.1538522451
0.1068775448
0.08375930918
0.07741974891
0.07690317951
0.08033980717
0.1023629106
0.1525638956
0.2429502676
0.3855604283
0.6336278128
1.634385152
4.802950818
5.665687334
-2.985356895
-9.490908505
-8.489716446
-7.842199022
-6.003577736
-0.7156819543
0.6519902014
0.4095999395
0.6780937652
0.9155106339
0.9149625008
0.6774240319
0.4099907124
0.6536309429
-0.7128765962
-6.001394246
-7.842653723
-8.494710077
-9.514108516
-3.053057768
5.697068257
4.875764707
1.663184457
0.6396656144
0.3865080659
0.2449342152
0.1551362368
0.1034992165
0.07945758922
0.07477171906
0.07952160879
0.04020462542
0.02614077208
0.03147224904
0.002786598674
-0.1776073861
-0.5764293334
2.287962443
20.73117594
31.39140963
16.00998967
-1.681518731
-22.13855512
-31.03757637
-27.94239927
5.055119342
2.086818351
-1.192602681
2.031733542
3.881714711
3.880559301
2.030175043
-1.191150505
2.089739794
5.05743718
-27.93920958
-31.0364855
-22.13026562
-1.673456677
16.0023997
31.60650365
20.7149086
2.307470921
-0.576155076
-0.1809056815
0.002837837339
0.0333500742
0.02694256151
0.03901242906
0.07711737776
0.05514551013
0.02532034009
0.01248136504
0.01422702557
-0.02141591499
-0.3215770685
-59.36736636
-1197.685419
-2843.123686
-112.4417962
6236.749931
6478.576996
2471.11114
-1880.735794
-3076.658699
934.7012637
715.8853003
-771.9645244
-2115.885279
-2733.238676
-2733.135709
-2115.664641
-771.7689293
716.1431487
934.7213785
-3076.974002
-1881.405506
2470.60291
6480.265134
6230.025005
-108.1428053
-2840.827033
-1198.381801
-59.57342783
-0.3257117685
-0.0211486255
0.0164377145
0.01339441454
0.02407450897
0.05264973354
-1.89176244
-2.872841369
-5.486260492
-11.55863807
-26.3457446
-65.7121125
-183.3846239
-527.2338697
-711.9207724
393.7605135
2430.320779
3065.851148
2012.189188
-2555.335784
-1236.727102
211.1328688
-299.4692161
-1313.714014
-2444.881862
-3145.106463
-3145.074371
-2444.749722
-1313.519263
-299.2753867
211.2415622
-1236.838719
-2556.197196
2011.410744
3065.768445
2429.490938
394.8652061
-711.1806643
-527.2423561
-183.4244331
-65.71067516
-26.33480258
-11.54655806
-5.475371847
-2.863542522
-1.88467553
-3.046518875
-4.438033143
-7.892830418
-15.13824455
-29.92978273
-59.62343661
-114.8861671
-185.7594587
-103.0422518
401.2566272
1138.779369
1401.190009
840.7757379
-415.3487982
-293.0035633
713.0037555
389.6591702
-717.8849416
-2285.557938
-3166.800391
-3166.777841
-2285.365137
-717.4561821
389.9584266
713.0557915
-293.0675773
-415.6611318
840.466525
1401.104568
1138.759012
401.6261635
-102.7513764
-185.6720475
-114.855243
-59.59896204
-29.90654865
-15.1162808
-7.872238863
-4.418665861
-3.029495154
-2.921526841
-4.104519632
-6.829825976
-11.865127
-20.26732714
-32.39664533
-43.67396122
-31.2612291
69.03516099
312.9970966
602.7427814
696.2243165
461.1427445
42.98478491
-55.77242511
52.87313523
-205.150858
-800.7977583
-1502.563463
-1926.901848
-1926.871638
-1502.455835
-800.6277885
-205.0043143
52.93608853
-55.78587275
42.88619808
461.0453256
696.2115729
602.8056285
313.156222
69.1769101
-31.17978683
-43.62419137
-32.35862506
-20.23405022
-11.83419514
-6.800190763
-4.075591646
-2.894726877
-1.725035651
-2.380242299
-3.729834597
-5.74652905
-7.907463149
-8.093887768
-0.1499663641
29.88704361
103.4911397
225.8388804
347.4151233
378.8609183
274.8829637
96.25096106
-25.98723249
-120.3386905
-336.3359584
-674.4876354
-1026.569909
-1241.981332
-1241.963559
-1026.516785
-674.411982
-336.2646457
-120.2959392
-25.97775703
96.23187427
274.8671347
378.8796176
347.4715496
225.9257144
103.5755452
29.95286113
-0.09845907068
-8.050113414
-7.867499999
-5.708325551
-3.69223391
-2.342556403
-1.689064697
0.04939548763
-0.05667472468
-0.1227906048
0.2491242493
2.052800566
7.480755172
20.74136323
48.28315108
95.81076536
158.5045413
211.3549581
218.6416872
163.224279
65.40877534
-38.38272722
-154.035645
-317.1803471
-520.6168116
-713.1118315
-828.9915835
-828.9822064
-713.0852482
-520.5795241
-317.1424402
-154.0065931
-38.36550673
65.41769813
163.2369997
218.6698448
211.4006314
158.5627151
95.87051525
48.33790432
20.79084276
7.526801501
2.097169455
0.2930808341
-0.07835580133
-0.0111734694
0.09372149075
1.902457885
2.20307912
3.005558173
4.763980481
8.369236744
15.35436106
27.96158781
48.56106943
77.57789064
109.7736901
132.2085924
129.2327279
93.10180941
29.62994115
-50.14350808
-145.4899778
-261.4776919
-388.5978265
-500.5511304
-566.2768847
-566.2717449
-500.536657
-388.5769897
-261.4545942
-145.4683565
-50.12464017
29.64784913
93.12344075
129.262458
132.2473512
109.8192424
77.62624427
48.60941267
28.00916827
15.40156406
8.416782972
4.812576166
3.055814825
2.255435975
1.954240617
3.477472235
4.002072844
5.231731846
7.527705528
11.50179789
18.02128403
28.04781422
42.09148872
59.10827831
75.17486609
83.33314492
76.06234082
49.32996494
4.483795239
-54.51681911
-125.3056722
-205.4900411
-286.8723075
-354.9153697
-393.8938754
-393.8907314
-354.9064021
-286.8588306
-205.4737693
-125.2880847
-54.49837967
4.503938808
49.35368645
76.09134478
83.36785308
75.21440403
59.15112705
42.13643317
28.09434598
18.06944147
11.55189864
7.580162087
5.286966167
4.060395596
3.53583612
4.591239027
5.185778158
6.506634893
8.786191116
12.37047052
17.65434803
24.90449243
33.90027927
43.41039838
50.7641877
52.06485145
43.41119237
22.56534124
-10.26448076
-53.2083976
-103.8600388
-158.743028
-211.7773291
-254.4977681
-278.470738
-278.4685464
-254.4914028
-211.7673535
-158.7301455
-103.8448071
-53.19092963
-10.24433793
22.58897316
43.4390441
52.09716473
50.80068295
43.45052894
33.94356487
24.95071044
17.70353369
12.42283207
8.842023034
6.566254521
5.249397776
4.655511683
5.201755063
5.763423258
6.969828382
8.941777925
11.83221165
15.75368296
20.64542778
26.06836283
30.97582358
33.60534431
31.69907937
23.12694316
6.641185488
-17.72404133
-48.80775777
-84.61182034
-122.1701788
-157.2561105
-184.7656314
-199.9536664
-199.9519569
-184.7605866
-157.2479455
-122.1591437
-84.5980751
-48.79125854
-17.70451097
6.664169146
23.15376676
31.72994347
33.64024447
31.01464517
26.11100897
20.6919118
15.80414851
11.88690165
9.000979556
7.033804684
5.832266906
5.271832941
5.357294013
5.83131517
6.824902109
8.380263966
10.53067223
13.2419257
16.32683899
19.33806712
21.47723377
21.59327971
18.34675648
10.54328005
-2.490929366
-20.67871585
-43.17805745
-68.45448548
-94.29008299
-117.8291622
-135.9179023
-145.7796422
-145.7781907
-135.9135699
-117.8219994
-94.28013009
-68.44172233
-43.16236348
-20.65986523
-2.468631283
10.56931121
18.37674629
21.62738718
21.51559016
19.38083335
16.37425377
13.29432002
10.58843894
8.443765428
6.894300018
5.906304167
5.433577682
5.15065913
5.517552399
6.272237877
7.409253256
8.897679954
10.64001475
12.42221785
13.86216045
14.38049323
13.22871176
9.601820369
2.825924606
-7.439648583
-21.06380796
-37.40208879
-55.31853504
-73.23440032
-89.24112243
-101.3525033
-107.890898
-107.8895894
-101.3485715
-89.23454356
-73.22511992
-55.30645069
-37.3870374
-21.04556615
-7.417948637
2.851369808
9.631300548
13.26252223
14.41895886
13.90567268
12.47126846
10.69519874
8.959612208
7.478295607
6.347936342
5.597846135
5.228303765
4.686759395
4.948972753
5.480108561
6.250156771
7.200221862
8.215787913
9.099923142
9.551347297
9.161187591
7.44453539
3.91589066
-1.800724702
-9.856959481
-20.09655648
-32.02208743
-44.80775165
-57.35161149
-68.38003701
-76.62190242
-81.03660787
-81.03539313
-76.61824122
-68.3738767
-57.3428605
-44.79627456
-32.00770172
-20.07903396
-9.836033154
-1.7760983
3.944537006
7.477548393
9.198954702
9.594317078
9.148612267
8.270717603
7.261634147
6.317226108
5.549391501
5.012324805
4.726036481
4.063378934
4.234903537
4.577179759