/*--------------------------------*- C++ -*----------------------------------*\
  =========                 |
  \\      /  F ield         | OpenFOAM: The Open Source CFD Toolbox
   \\    /   O peration     | Website:  https://openfoam.org
    \\  /    A nd           | Version:  10
     \\/     M anipulation  |
\*---------------------------------------------------------------------------*/
FoamFile
{
    format      ascii;
    class       volScalarField;
    location    "0.0001";
    object      rhok;
}
// * * * * * * * * * * * * * * * * * * * * * * * * * * * * * * * * * * * * * //

dimensions      [0 0 0 0 0 0 0];

internalField   nonuniform List<scalar> 
16000
(
0.9836124018
0.9830536928
0.9819460651
0.9802809114
0.9780168168
0.9750825274
0.9714037079
0.9669714784
0.9619662272
0.9568814213
0.952298556
0.9482424728
0.9448108576
0.9420113904
0.939833759
0.9381345099
0.9368183687
0.9358215056
0.9351446287
0.9348021511
0.9348022122
0.9351448555
0.9358220171
0.936819306
0.9381360241
0.9398360372
0.9420146573
0.9448153167
0.9482482296
0.9523058234
0.9568892439
0.9619732851
0.9669765783
0.9714063665
0.9750835694
0.9780171066
0.9802809458
0.9819460485
0.9830536822
0.9836124006
0.9836356993
0.9830119366
0.9817983831
0.9799954235
0.9775522497
0.974369905
0.9703235361
0.965337029
0.959571187
0.9537501372
0.9488424318
0.9447547665
0.9414756793
0.9388056277
0.9368884604
0.9353905499
0.9341956366
0.933207531
0.9325062032
0.9321477519
0.9321478089
0.9325064089
0.9332080139
0.9341965168
0.9353919418
0.9368905458
0.9388086598
0.9414798996
0.9447603419
0.9488494326
0.9537585735
0.9595807166
0.9653452555
0.9703276078
0.9743713578
0.9775526128
0.9799954542
0.9817983556
0.9830119197
0.983635695
0.9837724928
0.9829949814
0.9815622821
0.9794975224
0.9767339285
0.9731283258
0.9684625719
0.9624844879
0.9551786958
0.947665481
0.9418012397
0.9375144316
0.9344536637
0.9317130622
0.9305994659
0.9297046343
0.9289174815
0.9279494181
0.9272112656
0.9268414257
0.9268414373
0.9272113807
0.9279497888
0.9289181642
0.9297056038
0.9306009006
0.9317151936
0.9344566737
0.9375183809
0.9418059066
0.9476709446
0.9551903173
0.9625018342
0.9684701767
0.9731306436
0.9767344448
0.9794975659
0.9815622492
0.98299496
0.9837724859
0.9842305827
0.9831225564
0.9813365939
0.9789076341
0.9757376875
0.9716476527
0.9663306532
0.9592009652
0.949739373
0.9388421322
0.9310076446
0.9260591081
0.9234958012
0.9189863652
0.9208972195
0.9214494278
0.9216546465
0.9203935984
0.9195096839
0.9191434577
0.9191434063
0.9195096857
0.9203938692
0.9216551263
0.9214495017
0.9208973093
0.9189864438
0.9234959332
0.9260592441
0.9310071834
0.9388302134
0.9496899259
0.9592366447
0.9663427837
0.9716504697
0.9757382228
0.9789076811
0.981336568
0.9831225379
0.984230576
0.9854308835
0.9835052788
0.9812210067
0.9783644096
0.9747529048
0.9702231798
0.9646375063
0.9578218513
0.9491272844
0.9436255435
0.9400158263
0.935324338
0.9298823743
0.9218389623
0.9253579495
0.9244452415
0.9205699536
0.9194818075
0.9184638353
0.917686722
0.9176868756
0.9184636768
0.9194814709
0.9205693744
0.924445152
0.9253571116
0.9218388172
0.929880935
0.9353235616
0.940013235
0.9436207764
0.9491273882
0.957821994
0.964637559
0.970223192
0.9747529072
0.9783644098
0.9812210067
0.9835052789
0.9854308835
1
1
1
1
1
1
1
1
1
1
1
0.9999990581
0.9996707399
0.9983820225
0.9986051039
0.9984053795
0.9973351107
0.995562575
0.9936608268
0.9926909435
0.9926909962
0.9936606116
0.9955627207
0.9973350156
0.9984053464
0.9986049471
0.9983818736
0.9996705975
0.9999990573
1
1
1
1
1
1
1
1
1
1
1
1
1
1
1
1
1
1
1
1
1
1
1
1
1
0.9999991255
0.9998669406
0.9989289208
0.9984201811
0.9981097176
0.9979544206
0.9979544207
0.9981097135
0.9984201269
0.9989289161
0.9998669402
0.9999991255
1
1
1
1
1
1
1
1
1
1
1
1
1
1
1
1
1
1
1
1
1
1
1
1
1
1
1
1
1
1
1
1
1
1
1
1
1
1
1
1
1
1
1
1
1
1
1
1
1
1
1
1
1
1
1
1
1
1
1
1
1
1
1
1
1
1
1
1
1
1
1
1
1
1
1
1
1
1
1
1
1
1
1
1
1
1
1
1
1
1
1
1
1
1
1
1
1
1
1
1
1
1
1
1
1
1
1
1
1
1
1
1
1
1
1
1
1
1
1
1
1
1
1
1
1
1
1
1
1
1
1
1
1
1
1
1
1
1
1
1
1
1
1
1
1
1
1
1
1
1
1
1
1
1
1
1
1
1
1
1
1
1
1
1
1
1
1
1
1
1
1
1
1
1
1
1
1
1
1
1
1
1
1
1
1
1
1
1
1
1
1
1
1
1
1
1
1
1
1
1
1
1
1
1
1
1
1
1
1
1
1
1
1
1
1
1
1
1
1
1
1
1
1
1
1
1
1
1
1
1
1
1
1
1
1
1
1
1
1
1
1
1
1
1
1
1
1
1
1
1
1
1
1
1
1
1
1
1
1
1
1
1
1
1
1
1
1
1
1
1
1
1
1
1
1
1
1
1
1
1
1
1
1
1
1
1
1
1
1
1
1
1
1
1
1
1
1
1
1
1
1
1
1
1
1
1
1
1
1
1
1
1
1
1
1
1
1
1
1
1
1
1
1
1
1
1
1
1
1
1
1
1
1
1
1
1
1
1
1
1
1
1
1
1
1
1
1
1
1
1
1
1
1
1
1
1
1
1
1
1
1
1
1
1
1
1
1
1
1
1
1
1
1
1
1
1
1
1
1
1
1
1
1
1
1
1
1
1
1
1
1
1
1
1
1
1
1
1
1
1
1
1
1
1
1
1
1
1
1
1
1
1
1
1
1
1
1
1
1
1
1
1
1
1
1
1
1
1
1
1
1
1
1
1
1
1
1
1
1
1
1
1
1
1
1
1
1
1
1
1
1
1
1
1
1
1
1
1
1
1
1
1
1
1
1
1
1
1
1
1
1
1
1
1
1
1
1
1
1
1
1
1
1
1
1
1
1
1
1
1
1
1
1
1
1
1
1
1
1
1
1
1
1
1
1
1
1
1
1
1
1
1
1
1
1
1
1
1
1
1
1
1
1
1
1
1
1
1
1
1
1
1
1
1
0.9836837446
0.9831352657
0.982048403
0.9804158498
0.978198812
0.975329413
0.9717346809
0.9673983353
0.9624747327
0.9574152232
0.9528092775
0.948743875
0.9452736678
0.9424255913
0.9401974968
0.9384681786
0.9371435845
0.9361523153
0.9354828378
0.9351447779
0.9351448378
0.935483061
0.9361528134
0.9371444897
0.9384696382
0.9401996958
0.9424287571
0.9452780094
0.9487495152
0.9528165262
0.9574227096
0.9624813189
0.9674028321
0.9717369333
0.9753302561
0.9781990209
0.980415855
0.9820483764
0.9831352515
0.9836837418
0.9837077202
0.983095514
0.9819049687
0.980137822
0.9777467191
0.974638124
0.9706918749
0.9658261839
0.960163726
0.9543421649
0.9493727758
0.9452398581
0.9419046424
0.9391815883
0.937198365
0.9356784805
0.934500316
0.9335442819
0.932858605
0.9325063513
0.9325064057
0.9328588121
0.9335447632
0.9345011743
0.9356798353
0.9372003956
0.9391845614
0.941908813
0.9452454481
0.9493802134
0.9543512452
0.9601734542
0.965833465
0.9706952873
0.9746392851
0.9777469776
0.9801378196
0.9819049311
0.9830954938
0.9837077144
0.983844282
0.9830813908
0.9816761105
0.9796526508
0.9769487795
0.9734303017
0.9688925826
0.9630918674
0.9559628865
0.9484015474
0.9424053672
0.9379876036
0.9348540238
0.9320585029
0.930787952
0.9298965972
0.92920102
0.9283254086
0.9275806606
0.9272113727
0.9272113976
0.9275807688
0.928325785
0.9292016485
0.929897543
0.9307893378
0.9320606273
0.9348570575
0.9379916328
0.9424102792
0.9484113779
0.9559784056
0.963107082
0.968898807
0.9734321332
0.9769491516
0.9796526565
0.9816760683
0.9830813668
0.9838442738
0.9842974873
0.9832106269
0.9814589318
0.9790778785
0.9759743518
0.9719806739
0.9668193118
0.9599713821
0.9508714474
0.9399478448
0.9317629148
0.926540067
0.9241110693
0.91949967
0.9207895812
0.9215063922
0.9220991387
0.9210479643
0.9198578577
0.9195097019
0.9195097117
0.9198576466
0.921048241
0.9220991815
0.9215064283
0.9207894874
0.9194997586
0.9241111938
0.9265401209
0.9317614145
0.9399252962
0.9508478408
0.9600024778
0.9668287101
0.9719828448
0.9759747367
0.9790778926
0.9814588992
0.9832106068
0.9842974799
0.9854802823
0.9835922944
0.9813521203
0.9785505352
0.9750086014
0.9705662644
0.9650892389
0.9584474657
0.9499884395
0.9433568907
0.9399882772
0.9353598942
0.9302665535
0.9220772308
0.9244961887
0.9244931304
0.9209038465
0.9196794749
0.9193530656
0.9184638353
0.918463659
0.9193535342
0.9196790346
0.9209040676
0.9244930968
0.9244969377
0.9220767196
0.930265571
0.9353592719
0.9399863507
0.9433554847
0.9499881841
0.9584475151
0.9650892783
0.9705662737
0.9750086032
0.9785505353
0.9813521203
0.9835922944
0.9854802824
1
1
1
1
1
1
1
1
1
1
1
1
0.9998683837
0.9985271711
0.9985912098
0.9984719981
0.9977377475
0.9962725193
0.9944534033
0.9936607985
0.9936606126
0.9944535697
0.9962725153
0.9977379572
0.9984719384
0.9985911901
0.9985270058
0.9998683784
1
1
1
1
1
1
1
1
1
1
1
1
1
1
1
1
1
1
1
1
1
1
1
1
1
1
1
0.9999120455
0.9991561324
0.9985944304
0.9982627811
0.9981097157
0.9981097135
0.998262773
0.9985944164
0.9991561278
0.9999120447
1
1
1
1
1
1
1
1
1
1
1
1
1
1
1
1
1
1
1
1
1
1
1
1
1
1
1
1
1
1
1
1
1
1
1
1
1
1
1
1
1
1
1
1
1
1
1
1
1
1
1
1
1
1
1
1
1
1
1
1
1
1
1
1
1
1
1
1
1
1
1
1
1
1
1
1
1
1
1
1
1
1
1
1
1
1
1
1
1
1
1
1
1
1
1
1
1
1
1
1
1
1
1
1
1
1
1
1
1
1
1
1
1
1
1
1
1
1
1
1
1
1
1
1
1
1
1
1
1
1
1
1
1
1
1
1
1
1
1
1
1
1
1
1
1
1
1
1
1
1
1
1
1
1
1
1
1
1
1
1
1
1
1
1
1
1
1
1
1
1
1
1
1
1
1
1
1
1
1
1
1
1
1
1
1
1
1
1
1
1
1
1
1
1
1
1
1
1
1
1
1
1
1
1
1
1
1
1
1
1
1
1
1
1
1
1
1
1
1
1
1
1
1
1
1
1
1
1
1
1
1
1
1
1
1
1
1
1
1
1
1
1
1
1
1
1
1
1
1
1
1
1
1
1
1
1
1
1
1
1
1
1
1
1
1
1
1
1
1
1
1
1
1
1
1
1
1
1
1
1
1
1
1
1
1
1
1
1
1
1
1
1
1
1
1
1
1
1
1
1
1
1
1
1
1
1
1
1
1
1
1
1
1
1
1
1
1
1
1
1
1
1
1
1
1
1
1
1
1
1
1
1
1
1
1
1
1
1
1
1
1
1
1
1
1
1
1
1
1
1
1
1
1
1
1
1
1
1
1
1
1
1
1
1
1
1
1
1
1
1
1
1
1
1
1
1
1
1
1
1
1
1
1
1
1
1
1
1
1
1
1
1
1
1
1
1
1
1
1
1
1
1
1
1
1
1
1
1
1
1
1
1
1
1
1
1
1
1
1
1
1
1
1
1
1
1
1
1
1
1
1
1
1
1
1
1
1
1
1
1
1
1
1
1
1
1
1
1
1
1
1
1
1
1
1
1
1
1
1
1
1
1
1
1
1
1
1
1
1
1
1
1
1
1
1
1
1
1
1
1
1
1
1
1
1
1
1
1
1
1
1
1
1
1
1
1
1
1
1
1
1
1
1
1
1
1
1
1
1
1
1
1
1
1
1
1
1
1
1
1
1
1
1
1
1
1
1
1
1
1
1
1
1
1
1
0.9838229966
0.9832942552
0.9822473628
0.9806773174
0.9785500847
0.9758041349
0.9723698545
0.9682199152
0.9634658561
0.9584827174
0.9538435832
0.9497589371
0.946217434
0.9432772374
0.9409469639
0.93915117
0.9377978511
0.936809478
0.9361525254
0.9358218913
0.9358219631
0.9361527774
0.9368100073
0.9377987812
0.9391526501
0.9409491871
0.9432804392
0.9462218309
0.9497646435
0.9538505967
0.9584897385
0.9634717095
0.9682235804
0.9723715709
0.9758047263
0.9785501998
0.9806772947
0.9822473299
0.9832942399
0.9838229936
0.9838482413
0.9832583396
0.9821120787
0.9804135144
0.9781214014
0.9751518643
0.9713933754
0.9667554111
0.9613000605
0.9555294869
0.9504354896
0.9462288231
0.9427758569
0.9399507815
0.9378262046
0.9362522845
0.9350777793
0.9341806405
0.9335444999
0.9332079187
0.9332079868
0.9335447426
0.9341811556
0.9350786688
0.9362536769
0.9378283017
0.939953858
0.9427802221
0.9462346904
0.9504431713
0.9555395808
0.9613098545
0.9667614701
0.971395948
0.9751526607
0.9781215371
0.9804134794
0.982112035
0.9832583187
0.9838482355
0.9839842513
0.9832496193
0.9818971807
0.9799528232
0.9773620512
0.9740054232
0.9696981095
0.964199182
0.9573513532
0.9498074681
0.9435717579
0.9389473774
0.9355839489
0.9327066494
0.9310531054
0.9301979495
0.9295757573
0.9289314573
0.9283256298
0.9279497664
0.9279498002
0.9283257886
0.9289318472
0.92957642
0.9301989306
0.9310546085
0.9327089277
0.9355872532
0.9389518308
0.9435780365
0.949827548
0.9573733556
0.9642124442
0.9697028098
0.9740066741
0.977362253
0.9799527892
0.9818971324
0.9832495951
0.9839842433
0.9844277951
0.983381951
0.9816965218
0.9794076277
0.9764302693
0.9726136298
0.9677124134
0.9612388838
0.9524551618
0.9416635727
0.9330391357
0.9275790773
0.9245567668
0.9201077712
0.9193948673
0.9212042095
0.9220098125
0.9218431683
0.9210483342
0.9203940275
0.920393895
0.9210482579
0.9218432175
0.9220099613
0.921204231
0.9193949861
0.9201077255
0.9245569806
0.9275791552
0.9330347923
0.941623307
0.9524748273
0.9612681519
0.9677195024
0.9726151141
0.9764304867
0.9794076077
0.981696485
0.9833819314
0.984427788
0.9855763181
0.9837613678
0.9816068422
0.9789121077
0.9755052929
0.9712325943
0.9659652663
0.9595904411
0.9514862233
0.944501425
0.9424283111
0.9383555577
0.9323397473
0.9229865724
0.9193456205
0.9247816591
0.9230462848
0.9205614045
0.9196790785
0.9194811816
0.9194814673
0.9196790252
0.9205614199
0.9230459237
0.9247818196
0.9193453993
0.9229866051
0.93233792
0.9383537075
0.9424235699
0.9445028537
0.9514852986
0.9595904826
0.9659652956
0.9712326006
0.975505294
0.9789121077
0.9816068421
0.9837613678
0.9855763181
1
1
1
1
1
1
1
1
1
1
1
1
0.9999117272
0.9988709424
0.9981282293
0.9985663291
0.9982417263
0.9975474186
0.9962725643
0.9955626688
0.9955627157
0.9962725158
0.9975474862
0.9982417048
0.9985662664
0.9981280008
0.9988707321
0.9999117087
1
1
1
1
1
1
1
1
1
1
1
1
1
1
1
1
1
1
1
1
1
1
1
1
1
1
1
0.999975689
0.9996927967
0.9989718923
0.9985944273
0.9984201332
0.9984201268
0.9985944163
0.9989718849
0.9996927849
0.9999756887
1
1
1
1
1
1
1
1
1
1
1
1
1
1
1
1
1
1
1
1
1
1
1
1
1
1
1
1
1
1
1
1
1
1
1
1
1
1
1
1
1
1
1
1
1
1
1
1
1
1
1
1
1
1
1
1
1
1
1
1
1
1
1
1
1
1
1
1
1
1
1
1
1
1
1
1
1
1
1
1
1
1
1
1
1
1
1
1
1
1
1
1
1
1
1
1
1
1
1
1
1
1
1
1
1
1
1
1
1
1
1
1
1
1
1
1
1
1
1
1
1
1
1
1
1
1
1
1
1
1
1
1
1
1
1
1
1
1
1
1
1
1
1
1
1
1
1
1
1
1
1
1
1
1
1
1
1
1
1
1
1
1
1
1
1
1
1
1
1
1
1
1
1
1
1
1
1
1
1
1
1
1
1
1
1
1
1
1
1
1
1
1
1
1
1
1
1
1
1
1
1
1
1
1
1
1
1
1
1
1
1
1
1
1
1
1
1
1
1
1
1
1
1
1
1
1
1
1
1
1
1
1
1
1
1
1
1
1
1
1
1
1
1
1
1
1
1
1
1
1
1
1
1
1
1
1
1
1
1
1
1
1
1
1
1
1
1
1
1
1
1
1
1
1
1
1
1
1
1
1
1
1
1
1
1
1
1
1
1
1
1
1
1
1
1
1
1
1
1
1
1
1
1
1
1
1
1
1
1
1
1
1
1
1
1
1
1
1
1
1
1
1
1
1
1
1
1
1
1
1
1
1
1
1
1
1
1
1
1
1
1
1
1
1
1
1
1
1
1
1
1
1
1
1
1
1
1
1
1
1
1
1
1
1
1
1
1
1
1
1
1
1
1
1
1
1
1
1
1
1
1
1
1
1
1
1
1
1
1
1
1
1
1
1
1
1
1
1
1
1
1
1
1
1
1
1
1
1
1
1
1
1
1
1
1
1
1
1
1
1
1
1
1
1
1
1
1
1
1
1
1
1
1
1
1
1
1
1
1
1
1
1
1
1
1
1
1
1
1
1
1
1
1
1
1
1
1
1
1
1
1
1
1
1
1
1
1
1
1
1
1
1
1
1
1
1
1
1
1
1
1
1
1
1
1
1
1
1
1
1
1
1
1
1
1
1
1
1
1
1
1
1
1
1
1
1
1
1
1
1
1
1
1
1
1
1
1
1
1
1
1
1
1
1
1
1
1
1
1
1
1
1
1
1
1
0.9840237163
0.9835229229
0.9825324519
0.9810502009
0.9790484454
0.9764747694
0.9732669012
0.9693904066
0.964911801
0.9601006791
0.9554469002
0.9513119483
0.9476783165
0.9446128129
0.9421373645
0.9402282167
0.9388086428
0.9377981087
0.9371440763
0.9368190844
0.9368191753
0.9371443776
0.9377987059
0.9388096561
0.9402298046
0.9421397335
0.9446162131
0.9476829653
0.9513179227
0.9554535293
0.960106718
0.9649163546
0.9693930103
0.9732680303
0.9764751108
0.9790484779
0.9810501595
0.9825324181
0.9835229095
0.9840237145
0.9840506672
0.9834923687
0.9824086414
0.9808063705
0.9786523546
0.9758764666
0.9723836046
0.9680878434
0.9630023977
0.9574342033
0.9521739697
0.9478004746
0.9441617853
0.941193621
0.9388691575
0.9371677919
0.9359470045
0.9350780356
0.9345008062
0.934196336
0.9341964247
0.9345010929
0.9350786109
0.9359479722
0.9371693128
0.938871461
0.9411970228
0.9441666379
0.9478069265
0.9521818141
0.9574429192
0.9630098169
0.9680918635
0.9723851829
0.9758768939
0.978652382
0.9808063141
0.9824085978
0.9834923502
0.9840506628
0.9841856463
0.9834911432
0.9822134964
0.9803804496
0.9779476787
0.9748166949
0.9708387543
0.9658205772
0.9595962453
0.9523924693
0.9456645972
0.9405918277
0.9368315647
0.9338916579
0.9318045019
0.9307319685
0.9300752451
0.9295759708
0.9292014533
0.9289180638
0.9289181295
0.9292016147
0.9295763915
0.9300759259
0.930733043
0.9318061455
0.9338942663
0.9368353711
0.940597034
0.9456716485
0.9524071639
0.9596125935
0.9658284551
0.9708413811
0.9748173239
0.9779477259
0.9803803885
0.9822134484
0.9834911219
0.9841856398
0.9846149415
0.9836275354
0.9820363302
0.9798779682
0.9770783291
0.9735107188
0.9689890749
0.9631944055
0.9555473623
0.9458155042
0.935769649
0.9294728366
0.9254641367
0.921874763
0.9197883188
0.9210417454
0.9217880086
0.9220099041
0.9220996118
0.9216551021
0.9216551383
0.9220991829
0.9220099613
0.9217879755
0.9210417671
0.9197880403
0.9218747669
0.9254639564
0.9294725409
0.9357602945
0.9457849817
0.9555797127
0.9632078441
0.968992495
0.9735114082
0.9770783867
0.9798779237
0.9820362938
0.9836275185
0.9846149359
0.9857137728
0.9840030989
0.9819709121
0.9794288172
0.9762150285
0.9721846606
0.9672168693
0.9612234823
0.9540276009
0.9453402227
0.9419959049
0.9400513627
0.9322328704
0.926231407
0.9198513583
0.9262303071
0.9256067932
0.9230461469
0.9209033477
0.9205695074
0.9205693641
0.9209040715
0.9230459169
0.9256074624
0.926229969
0.9198518861
0.9262298501
0.932230474
0.940048637
0.9419995754
0.945343767
0.9540267468
0.9612235126
0.9672168832
0.9721846636
0.9762150288
0.979428817
0.981970912
0.9840030989
0.9857137728
1
1
1
1
1
1
1
1
1
1
1
1
0.9999924518
0.9992285551
0.9981609606
0.9984557293
0.998203413
0.998241692
0.9977377307
0.9973351501
0.9973350145
0.9977379555
0.9982417054
0.9982035934
0.9984557159
0.9981609969
0.9992284322
0.999992455
1
1
1
1
1
1
1
1
1
1
1
1
1
1
1
1
1
1
1
1
1
1
1
1
1
1
1
0.9999998347
0.9999404116
0.9996927983
0.9991561347
0.998928918
0.9989289158
0.9991561275
0.9996927848
0.9999404112
0.9999998347
1
1
1
1
1
1
1
1
1
1
1
1
1
1
1
1
1
1
1
1
1
1
1
1
1
1
1
1
1
1
1
1
1
1
1
1
1
1
1
1
1
1
1
1
1
1
1
1
1
1
1
1
1
1
1
1
1
1
1
1
1
1
1
1
1
1
1
1
1
1
1
1
1
1
1
1
1
1
1
1
1
1
1
1
1
1
1
1
1
1
1
1
1
1
1
1
1
1
1
1
1
1
1
1
1
1
1
1
1
1
1
1
1
1
1
1
1
1
1
1
1
1
1
1
1
1
1
1
1
1
1
1
1
1
1
1
1
1
1
1
1
1
1
1
1
1
1
1
1
1
1
1
1
1
1
1
1
1
1
1
1
1
1
1
1
1
1
1
1
1
1
1
1
1
1
1
1
1
1
1
1
1
1
1
1
1
1
1
1
1
1
1
1
1
1
1
1
1
1
1
1
1
1
1
1
1
1
1
1
1
1
1
1
1
1
1
1
1
1
1
1
1
1
1
1
1
1
1
1
1
1
1
1
1
1
1
1
1
1
1
1
1
1
1
1
1
1
1
1
1
1
1
1
1
1
1
1
1
1
1
1
1
1
1
1
1
1
1
1
1
1
1
1
1
1
1
1
1
1
1
1
1
1
1
1
1
1
1
1
1
1
1
1
1
1
1
1
1
1
1
1
1
1
1
1
1
1
1
1
1
1
1
1
1
1
1
1
1
1
1
1
1
1
1
1
1
1
1
1
1
1
1
1
1
1
1
1
1
1
1
1
1
1
1
1
1
1
1
1
1
1
1
1
1
1
1
1
1
1
1
1
1
1
1
1
1
1
1
1
1
1
1
1
1
1
1
1
1
1
1
1
1
1
1
1
1
1
1
1
1
1
1
1
1
1
1
1
1
1
1
1
1
1
1
1
1
1
1
1
1
1
1
1
1
1
1
1
1
1
1
1
1
1
1
1
1
1
1
1
1
1
1
1
1
1
1
1
1
1
1
1
1
1
1
1
1
1
1
1
1
1
1
1
1
1
1
1
1
1
1
1
1
1
1
1
1
1
1
1
1
1
1
1
1
1
1
1
1
1
1
1
1
1
1
1
1
1
1
1
1
1
1
1
1
1
1
1
1
1
1
1
1
1
1
1
1
1
1
1
1
1
1
1
1
1
1
1
1
1
1
1
1
1
1
1
1
1
1
1
1
1
1
1
1
1
0.9842771074
0.9838107663
0.9828895598
0.9815143333
0.9796641942
0.9772971822
0.9743613189
0.9708208514
0.9667060943
0.9621853349
0.9576104741
0.9533848762
0.9496728838
0.9464727214
0.9438304032
0.9417618194
0.9402285021
0.939151731
0.9384690128
0.938135631
0.9381357445
0.9384693785
0.9391524298
0.9402296619
0.9417636109
0.9438330319
0.9464764035
0.9496777945
0.9533909175
0.9576163772
0.9621900474
0.966709183
0.9708224528
0.9743619439
0.9772973269
0.9796641714
0.9815142857
0.9828895306
0.9838107567
0.9842771078
0.9843060173
0.9837866981
0.9827797485
0.981294736
0.9793069395
0.9767612761
0.9735824445
0.9696977524
0.9650917896
0.9599163407
0.9546423995
0.9499668553
0.9461223175
0.9429620502
0.940412957
0.9385004882
0.937168072
0.9362528303
0.9356792808
0.9353916124
0.9353917207
0.9356796269
0.9362534966
0.9371691938
0.9385022593
0.9404156215
0.9429659333
0.9461277099
0.9499741078
0.9546505422
0.9599233166
0.9650963326
0.9696999506
0.9735832237
0.9767614298
0.9793068987
0.9812946739
0.9827797109
0.9837866843
0.9843060154
0.984439308
0.9837944165
0.9826088233
0.9809115878
0.9786688288
0.9758036655
0.9722049638
0.967733706
0.9622568754
0.9557827811
0.9488690364
0.943014389
0.9387241136
0.9356150249
0.9330938235
0.9315046121
0.9307321879
0.9301983691
0.929897188
0.9297054071
0.9297054859
0.9298974273
0.9301988273
0.9307329717
0.9315059049
0.9330958406
0.9356181408
0.9387287306
0.9430213579
0.9488834389
0.9557965319
0.9622653472
0.9677373165
0.9722060885
0.9758038671
0.9786687834
0.9809115195
0.9826087821
0.9837944003
0.9844393041
0.9848500531
0.9839351705
0.9824605676
0.980462743
0.9778789587
0.9746060933
0.9705093385
0.9653972058
0.9589529211
0.9507114915
0.9408224613
0.9320905034
0.9270070306
0.9244234924
0.9209205024
0.9200893837
0.9210417995
0.9212042881
0.9215064488
0.9214495162
0.9214494896
0.9215064189
0.9212042237
0.9210417633
0.9200893444
0.9209204022
0.9244235558
0.9270069304
0.9320849937
0.9407901732
0.950734359
0.9589674654
0.9654019849
0.9705105785
0.9746062939
0.9778789276
0.980462692
0.9824605369
0.9839351578
0.9848500496
0.9858855956
0.9843046554
0.9824247521
0.980072684
0.9770992257
0.9733705532
0.9687751956
0.9632342871
0.956707253
0.9489315004
0.9409105136
0.9386597499
0.9344083444
0.9305888185
0.9242093699
0.9242268984
0.9262299546
0.9247813807
0.9244931732
0.924444908
0.924445181
0.9244931039
0.9247818189
0.9262299626
0.9242272538
0.924210609
0.9305877119
0.9344067243
0.9386582816
0.9409175822
0.9489302292
0.9567072104
0.9632343046
0.9687752008
0.9733705541
0.9770992257
0.9800726838
0.982424752
0.9843046554
0.9858855956
1
1
1
1
1
1
1
1
1
1
1
1
1
0.9999120266
0.9987323336
0.9984169388
0.9984557828
0.9985662905
0.9984719308
0.9984053306
0.99840534
0.9984719365
0.9985662653
0.9984557164
0.9984168519
0.9987322318
0.9999120091
1
1
1
1
1
1
1
1
1
1
1
1
1
1
1
1
1
1
1
1
1
1
1
1
1
1
1
1
1
0.9999998347
0.999975689
0.9999120455
0.9998669412
0.9998669407
0.9999120447
0.9999756887
0.9999998347
1
1
1
1
1
1
1
1
1
1
1
1
1
1
1
1
1
1
1
1
1
1
1
1
1
1
1
1
1
1
1
1
1
1
1
1
1
1
1
1
1
1
1
1
1
1
1
1
1
1
1
1
1
1
1
1
1
1
1
1
1
1
1
1
1
1
1
1
1
1
1
1
1
1
1
1
1
1
1
1
1
1
1
1
1
1
1
1
1
1
1
1
1
1
1
1
1
1
1
1
1
1
1
1
1
1
1
1
1
1
1
1
1
1
1
1
1
1
1
1
1
1
1
1
1
1
1
1
1
1
1
1
1
1
1
1
1
1
1
1
1
1
1
1
1
1
1
1
1
1
1
1
1
1
1
1
1
1
1
1
1
1
1
1
1
1
1
1
1
1
1
1
1
1
1
1
1
1
1
1
1
1
1
1
1
1
1
1
1
1
1
1
1
1
1
1
1
1
1
1
1
1
1
1
1
1
1
1
1
1
1
1
1
1
1
1
1
1
1
1
1
1
1
1
1
1
1
1
1
1
1
1
1
1
1
1
1
1
1
1
1
1
1
1
1
1
1
1
1
1
1
1
1
1
1
1
1
1
1
1
1
1
1
1
1
1
1
1
1
1
1
1
1
1
1
1
1
1
1
1
1
1
1
1
1
1
1
1
1
1
1
1
1
1
1
1
1
1
1
1
1
1
1
1
1
1
1
1
1
1
1
1
1
1
1
1
1
1
1
1
1
1
1
1
1
1
1
1
1
1
1
1
1
1
1
1
1
1
1
1
1
1
1
1
1
1
1
1
1
1
1
1
1
1
1
1
1
1
1
1
1
1
1
1
1
1
1
1
1
1
1
1
1
1
1
1
1
1
1
1
1
1
1
1
1
1
1
1
1
1
1
1
1
1
1
1
1
1
1
1
1
1
1
1
1
1
1
1
1
1
1
1
1
1
1
1
1
1
1
1
1
1
1
1
1
1
1
1
1
1
1
1
1
1
1
1
1
1
1
1
1
1
1
1
1
1
1
1
1
1
1
1
1
1
1
1
1
1
1
1
1
1
1
1
1
1
1
1
1
1
1
1
1
1
1
1
1
1
1
1
1
1
1
1
1
1
1
1
1
1
1
1
1
1
1
1
1
1
1
1
1
1
1
1
1
1
1
1
1
1
1
1
1
1
1
1
1
1
1
1
1
1
1
1
1
1
1
1
1
1
1
1
1
1
1
1
0.9845728486
0.9841455699
0.9833025263
0.9820470795
0.9803647019
0.9782235835
0.9755828865
0.9724102501
0.9687131949
0.9645847841
0.960244216
0.9560150675
0.9521983015
0.9488771901
0.9460786639
0.9438307069
0.9421379645
0.9409478673
0.9401987218
0.9398353428
0.9398354813
0.9401991637
0.9409487017
0.9421393335
0.9438327803
0.9460816166
0.9488811419
0.9522032292
0.9560202212
0.9602486386
0.9645878999
0.9687150153
0.9724110964
0.975583162
0.9782236066
0.9803646547
0.9820470369
0.9833025052
0.9841455652
0.9845728514
0.9846038288
0.9841287184
0.9832084
0.9818544512
0.9800497788
0.97775307
0.9749077341
0.9714571112
0.9673753194
0.9627251406
0.9577409205
0.9528842027
0.9487176661
0.9453147492
0.9425653582
0.9404132788
0.9388697654
0.9378270909
0.937199538
0.936889957
0.9368900877
0.9371999543
0.9378278969
0.9388711259
0.9404154111
0.9425684541
0.9453191033
0.9487234548
0.9528911531
0.9577471072
0.962729395
0.9673776808
0.9714581259
0.9749080258
0.9777530724
0.9800497122
0.9818543966
0.9832083722
0.9841287103
0.9846038296
0.9847346955
0.9841461887
0.9830646927
0.9815195641
0.9794860566
0.9769057953
0.9736983853
0.9697687206
0.965022562
0.9594164629
0.9530882428
0.9466693171
0.9415466296
0.9378714151
0.9352350975
0.9330940769
0.9318049871
0.9310538188
0.9307888189
0.930600544
0.9306006345
0.9307890753
0.9310543654
0.93180594
0.9330957118
0.9352375876
0.9378750724
0.9415521634
0.9466810479
0.9530995582
0.9594236556
0.9650261673
0.969770101
0.9736987356
0.9769057903
0.9794859805
0.9815195048
0.9830646622
0.9841461783
0.9847346944
0.9851230621
0.9842909042
0.9829488584
0.9811323507
0.9787891509
0.9758357461
0.9721732319
0.967683911
0.962207303
0.9554882315
0.9472082693
0.9374863264
0.9300454508
0.9262139124
0.9242911861
0.9209205464
0.9197885314
0.9193951967
0.9207896709
0.9208972768
0.920897285
0.9207894653
0.9193949625
0.919788022
0.9209203946
0.9242911233
0.9262135952
0.930042112
0.9374657138
0.9472225266
0.9555001563
0.962211921
0.9676853858
0.9721735558
0.9758357437
0.9787890928
0.981132307
0.9829488361
0.984290896
0.9851230606
0.9860838966
0.9846512858
0.9829455097
0.9808107638
0.9781122744
0.9747288684
0.9705595602
0.9655332786
0.9596195519
0.9528295537
0.944873782
0.938101504
0.9363704931
0.933064389
0.9306370592
0.9242090964
0.9198509508
0.919345041
0.9244959493
0.9253574618
0.9253571008
0.9244969184
0.9193453882
0.9198518719
0.9242106076
0.93063905
0.9330636357
0.9363704554
0.938108722
0.9448728609
0.9528293926
0.9596195655
0.9655332845
0.9705595616
0.9747288685
0.9781122742
0.9808107636
0.9829455096
0.9846512858
0.9860838966
1
1
1
1
1
1
1
1
1
1
1
1
1
0.9999983993
0.999788788
0.9987322755
0.998160961
0.9981281607
0.9985911187
0.9986050487
0.9986049434
0.9985911879
0.9981279979
0.9981609946
0.9987322307
0.9997887623
0.9999984062
1
1
1
1
1
1
1
1
1
1
1
1
1
1
1
1
1
1
1
1
1
1
1
1
1
1
1
1
1
1
1
1
0.9999991255
0.9999991255
1
1
1
1
1
1
1
1
1
1
1
1
1
1
1
1
1
1
1
1
1
1
1
1
1
1
1
1
1
1
1
1
1
1
1
1
1
1
1
1
1
1
1
1
1
1
1
1
1
1
1
1
1
1
1
1
1
1
1
1
1
1
1
1
1
1
1
1
1
1
1
1
1
1
1
1
1
1
1
1
1
1
1
1
1
1
1
1
1
1
1
1
1
1
1
1
1
1
1
1
1
1
1
1
1
1
1
1
1
1
1
1
1
1
1
1
1
1
1
1
1
1
1
1
1
1
1
1
1
1
1
1
1
1
1
1
1
1
1
1
1
1
1
1
1
1
1
1
1
1
1
1
1
1
1
1
1
1
1
1
1
1
1
1
1
1
1
1
1
1
1
1
1
1
1
1
1
1
1
1
1
1
1
1
1
1
1
1
1
1
1
1
1
1
1
1
1
1
1
1
1
1
1
1
1
1
1
1
1
1
1
1
1
1
1
1
1
1
1
1
1
1
1
1
1
1
1
1
1
1
1
1
1
1
1
1
1
1
1
1
1
1
1
1
1
1
1
1
1
1
1
1
1
1
1
1
1
1
1
1
1
1
1
1
1
1
1
1
1
1
1
1
1
1
1
1
1
1
1
1
1
1
1
1
1
1
1
1
1
1
1
1
1
1
1
1
1
1
1
1
1
1
1
1
1
1
1
1
1
1
1
1
1
1
1
1
1
1
1
1
1
1
1
1
1
1
1
1
1
1
1
1
1
1
1
1
1
1
1
1
1
1
1
1
1
1
1
1
1
1
1
1
1
1
1
1
1
1
1
1
1
1
1
1
1
1
1
1
1
1
1
1
1
1
1
1
1
1
1
1
1
1
1
1
1
1
1
1
1
1
1
1
1
1
1
1
1
1
1
1
1
1
1
1
1
1
1
1
1
1
1
1
1
1
1
1
1
1
1
1
1
1
1
1
1
1
1
1
1
1
1
1
1
1
1
1
1
1
1
1
1
1
1
1
1
1
1
1
1
1
1
1
1
1
1
1
1
1
1
1
1
1
1
1
1
1
1
1
1
1
1
1
1
1
1
1
1
1
1
1
1
1
1
1
1
1
1
1
1
1
1
1
1
1
1
1
1
1
1
1
1
1
1
1
1
1
1
1
1
1
1
1
1
1
1
1
1
1
1
1
1
1
1
1
1
1
1
1
1
1
1
1
1
1
1
1
1
1
1
0.9848999287
0.9845144468
0.9837546362
0.9826256847
0.98111838
0.9792096847
0.9768690445
0.9740700133
0.9708091504
0.9671328635
0.9631651339
0.9591164535
0.9552509425
0.9518124642
0.9488774542
0.9464733071
0.9446137226
0.943278476
0.9424272009
0.9420134352
0.9420136029
0.942427735
0.9432794795
0.9446153561
0.946475712
0.9488807139
0.9518164916
0.9552551128
0.9591201673
0.9631679248
0.9671346307
0.9708100744
0.9740703797
0.9768691198
0.9792096517
0.9811183319
0.9826256536
0.9837546242
0.9845144467
0.9848999335
0.9849330928
0.9845052803
0.9836771605
0.9824614474
0.9808472341
0.9788045134
0.9762921521
0.9732685546
0.9697088533
0.9656339158
0.9611519661
0.956501993
0.9520729495
0.9483156147
0.9453151044
0.9429627669
0.9411946052
0.9399520382
0.939183173
0.938807614
0.9388077797
0.9391837065
0.9399530574
0.9411963099
0.9429653591
0.9453187485
0.948320334
0.9520783519
0.9565068883
0.9611555385
0.9656360628
0.9697098991
0.9732689263
0.9762922012
0.9788044562
0.9808471705
0.9824614073
0.9836771435
0.9845052775
0.9849330959
0.9850610279
0.9845329254
0.9835623441
0.9821779024
0.9803622275
0.9780714532
0.9752477741
0.9718274521
0.9677495289
0.9629742489
0.9575264301
0.9515911795
0.9457439082
0.941092551
0.9378717494
0.9356156167
0.9338924138
0.9327076202
0.9320596987
0.9317145461
0.9317146688
0.9320601111
0.9327084442
0.9338938348
0.9356177957
0.9378748599
0.9410970319
0.9457524356
0.9515992952
0.9575318725
0.9629772186
0.9677508311
0.9718278563
0.975247805
0.9780713806
0.9803621568
0.982177859
0.9835623247
0.9845329205
0.9850610292
0.9854241119
0.9846808249
0.9834805304
0.9818568857
0.979767086
0.977143328
0.973910866
0.9699933747
0.9653082112
0.9597470847
0.9531379355
0.9452729898
0.9362929168
0.9294459195
0.9262139061
0.9244235094
0.9218747815
0.9201078416
0.9194997355
0.9189864483
0.9189863968
0.9194997152
0.9201076919
0.9218747397
0.924423542
0.9262135873
0.9294430137
0.9362793787
0.9452824407
0.953146171
0.9597506293
0.9653095113
0.9699937184
0.9739108827
0.9771432691
0.9797670335
0.9818568548
0.9834805163
0.9846808207
0.985424112
0.986301438
0.9850284488
0.9835096598
0.9816083538
0.9792056448
0.9761940336
0.972483683
0.9680113818
0.9627503929
0.9567208831
0.9499890157
0.9423607699
0.9361271878
0.9355449258
0.9330648477
0.9305885647
0.9262313885
0.9229868631
0.9220775701
0.921838879
0.9218387779
0.9220766839
0.9229865833
0.9262298483
0.9305877156
0.9330636393
0.9355427065
0.9361301331
0.9423604222
0.9499888159
0.95672089
0.9627503978
0.9680113834
0.9724836832
0.9761940335
0.9792056445
0.9816083537
0.9835096598
0.9850284488
0.986301438
1
1
1
1
1
1
1
1
1
1
1
1
1
1
0.9999984
0.9999120269
0.9992285665
0.9988708625
0.9985271061
0.9983819071
0.9983818719
0.998527004
0.9988707302
0.9992284304
0.9999120088
0.9999984062
1
1
1
1
1
1
1
1
1
1
1
1
1
1
1
1
1
1
1
1
1
1
1
1
1
1
1
1
1
1
1
1
1
1
1
1
1
1
1
1
1
1
1
1
1
1
1
1
1
1
1
1
1
1
1
1
1
1
1
1
1
1
1
1
1
1
1
1
1
1
1
1
1
1
1
1
1
1
1
1
1
1
1
1
1
1
1
1
1
1
1
1
1
1
1
1
1
1
1
1
1
1
1
1
1
1
1
1
1
1
1
1
1
1
1
1
1
1
1
1
1
1
1
1
1
1
1
1
1
1
1
1
1
1
1
1
1
1
1
1
1
1
1
1
1
1
1
1
1
1
1
1
1
1
1
1
1
1
1
1
1
1
1
1
1
1
1
1
1
1
1
1
1
1
1
1
1
1
1
1
1
1
1
1
1
1
1
1
1
1
1
1
1
1
1
1
1
1
1
1
1
1
1
1
1
1
1
1
1
1
1
1
1
1
1
1
1
1
1
1
1
1
1
1
1
1
1
1
1
1
1
1
1
1
1
1
1
1
1
1
1
1
1
1
1
1
1
1
1
1
1
1
1
1
1
1
1
1
1
1
1
1
1
1
1
1
1
1
1
1
1
1
1
1
1
1
1
1
1
1
1
1
1
1
1
1
1
1
1
1
1
1
1
1
1
1
1
1
1
1
1
1
1
1
1
1
1
1
1
1
1
1
1
1
1
1
1
1
1
1
1
1
1
1
1
1
1
1
1
1
1
1
1
1
1
1
1
1
1
1
1
1
1
1
1
1
1
1
1
1
1
1
1
1
1
1
1
1
1
1
1
1
1
1
1
1
1
1
1
1
1
1
1
1
1
1
1
1
1
1
1
1
1
1
1
1
1
1
1
1
1
1
1
1
1
1
1
1
1
1
1
1
1
1
1
1
1
1
1
1
1
1
1
1
1
1
1
1
1
1
1
1
1
1
1
1
1
1
1
1
1
1
1
1
1
1
1
1
1
1
1
1
1
1
1
1
1
1
1
1
1
1
1
1
1
1
1
1
1
1
1
1
1
1
1
1
1
1
1
1
1
1
1
1
1
1
1
1
1
1
1
1
1
1
1
1
1
1
1
1
1
1
1
1
1
1
1
1
1
1
1
1
1
1
1
1
1
1
1
1
1
1
1
1
1
1
1
1
1
1
1
1
1
1
1
1
1
1
1
1
1
1
1
1
1
1
1
1
1
1
1
1
1
1
1
1
1
1
1
1
1
1
1
1
1
1
1
1
1
1
1
1
1
1
1
1
1
1
1
1
1
1
1
1
0.9852472912
0.9849046415
0.9842297151
0.9832288011
0.9818968074
0.980217719
0.9781695355
0.9757322111
0.9728988989
0.9696907872
0.9661732399
0.9624673391
0.9587518981
0.9552508803
0.9521986405
0.9496736327
0.9476793866
0.9462188375
0.9452754874
0.9448131866
0.9448133847
0.945276122
0.9462200317
0.9476813022
0.9496763325
0.9522020694
0.9552544097
0.9587549657
0.9624696588
0.9661747764
0.9696916532
0.9728992871
0.9757323207
0.9781695213
0.9802176738
0.9818967713
0.9832287832
0.9842297111
0.9849046449
0.9852472972
0.9852830012
0.9849036267
0.9841693812
0.9830933372
0.9816693457
0.9798761359
0.9776843602
0.9750645883
0.9719973036
0.9684868439
0.9645800939
0.9603882622
0.9561123038
0.9520729342
0.9487182805
0.9461233883
0.9441631136
0.9427774337
0.941906578
0.9414780873
0.9414782971
0.9419072473
0.9427787324
0.9441652624
0.9461265017
0.9487224906
0.95207776
0.9561163468
0.9603911031
0.9645818568
0.9684877669
0.9719976754
0.9750646641
0.9776843177
0.9798760723
0.9816692987
0.9830933128
0.9841693735
0.984903628
0.9852830059
0.9854083103
0.9849421016
0.9840842811
0.9828621248
0.9812641918
0.9792576561
0.9768005522
0.9738498692
0.9703678123
0.9663287991