/*--------------------------------*- C++ -*----------------------------------*\
  =========                 |
  \\      /  F ield         | OpenFOAM: The Open Source CFD Toolbox
   \\    /   O peration     | Website:  https://openfoam.org
    \\  /    A nd           | Version:  10
     \\/     M anipulation  |
\*---------------------------------------------------------------------------*/
FoamFile
{
    format      ascii;
    class       volScalarField;
    location    "0.0001";
    object      T;
}
// * * * * * * * * * * * * * * * * * * * * * * * * * * * * * * * * * * * * * //

dimensions      [0 0 0 1 0 0 0];

internalField   nonuniform List<scalar> 
16000
(
412.7196481
426.9211624
455.097942
497.5060149
555.2366175
630.1099276
723.9236201
836.6018754
962.984679
1090.00778
1203.866895
1304.958617
1390.466891
1460.19781
1514.306615
1556.384554
1589.003824
1613.801708
1630.707514
1639.27591
1639.274174
1630.701324
1613.788319
1588.979893
1556.346347
1514.249457
1460.116228
1390.35606
1304.816293
1203.688836
1089.80969
962.802822
836.4650144
723.8497731
630.0800009
555.2278862
497.5047752
455.0983474
426.9214885
412.7197353
412.0222937
427.8478614
458.669749
504.5268433
566.7679279
647.9549769
751.2168735
878.1630061
1023.787393
1168.360748
1289.504423
1390.824676
1472.626188
1539.274794
1586.970238
1623.91907
1653.477297
1678.049609
1695.624705
1704.604023
1704.602413
1695.619134
1678.037221
1653.455315
1623.884422
1586.918125
1539.199131
1472.521513
1390.687244
1289.334501
1168.151803
1023.550211
877.9437453
751.1036955
647.9130403
566.7568345
504.5255794
458.6704096
427.8483428
412.0224545
408.3650536
428.0246887
464.3044987
516.6791009
586.9237363
678.7953832
797.9590712
950.6720734
1135.709266
1320.706235
1463.941131
1569.626317
1646.877824
1714.798585
1742.134244
1763.62615
1783.180655
1807.324853
1826.139135
1835.345072
1835.344549
1826.135597
1807.31516
1783.163933
1763.602602
1742.098593
1714.745314
1646.803331
1569.528874
1463.825834
1320.583533
1135.437987
950.2151065
797.7490567
678.7289777
586.9080749
516.6773636
464.3052636
428.0252712
408.3652711
396.5406558
424.44096
469.4981224
530.8751133
611.1184958
714.9459647
850.6411952
1034.000904
1275.419508
1541.316636
1730.127004
1853.358812
1924.21553
2029.603394
1979.587331
1964.443979
1960.764828
1992.160964
2015.809946
2023.909084
2023.911051
2015.807594
1992.151691
1960.75137
1964.442242
1979.585122
2029.601232
1924.212104
1853.354341
1730.133101
1541.538865
1276.531458
1033.069566
850.3095797
714.8666339
611.1025353
530.8733515
469.4987222
424.4414704
396.5408619
366.0140744
414.3207067
471.7482447
543.6251649
634.5127941
748.5024579
889.0685571
1061.691451
1302.506908
1556.221586
1739.543345
1864.662554
1938.862233
2067.698166
1992.999615
1979.900361
2009.798766
2045.830831
2073.240956
2088.982223
2088.981934
2073.241712
2045.832127
2009.799839
1979.901364
1993.001482
2067.701622
1938.866051
1864.662673
1739.549214
1556.229652
1302.498407
1061.686986
889.0671068
748.5021122
634.5127227
543.6251557
471.748247
414.3207092
366.0140757
365.7222224
414.2741146
471.7412701
543.657585
634.5915097
748.6325629
889.2096463
1058.998986
1260.717395
1490.488348
1722.698845
1881.419511
1950.208397
2089.598865
1988.800802
1977.916035
2011.75392
2048.625367
2076.922366
2092.390942
2092.391057
2076.922802
2048.62586
2011.754475
1977.917236
1988.802828
2089.601545
1950.211758
1881.414053
1722.701385
1490.491038
1260.718012
1058.998792
889.2095269
748.6325294
634.5915029
543.6575842
471.7412702
414.2741147
365.7222223
344.2382148
365.0837164
395.9482774
435.7156855
485.8509935
548.3377738
624.9531769
716.9599909
824.8997356
947.360022
1077.411192
1204.130796
1353.985744
1531.104598
1894.13773
1924.944934
2116.732168
2219.753871
2283.002434
2314.585148
2314.58511
2283.00312
2219.755659
2116.732171
1924.944976
1894.137806
1531.105217
1353.986374
1204.131498
1077.412307
947.360787
824.8999634
716.9599955
624.9531645
548.3377693
485.8509925
435.7156854
395.9482773
365.0837163
344.2382147
324.5509803
333.5491776
348.4297129
368.17142
393.1242636
424.1193205
461.9788591
507.2799649
560.1952119
620.1672141
685.1809651
752.2940583
824.7465045
912.8014366
1046.832024
1180.544431
1318.220439
1412.091197
1467.359617
1493.35728
1493.357325
1467.35985
1412.091301
1318.220521
1180.544575
1046.832208
912.801743
824.746821
752.2944285
685.1812942
620.1673938
560.1952666
507.279972
461.9788587
424.11932
393.1242635
368.1714199
348.4297129
333.5491776
324.5509803
311.8380882
315.5632953
322.0889377
330.937577
342.1671481
356.0923255
373.0566204
393.3050761
416.9057893
443.6532254
472.9136221
503.7388647
536.2376481
573.0754995
619.8550562
671.9001566
724.9113613
768.5924086
796.8881021
810.6474077
810.647418
796.8881356
768.5924283
724.9113874
671.900187
619.8551038
573.0755872
536.2377467
503.7389688
472.9136992
443.653263
416.9058009
393.3050783
373.0566206
356.0923255
342.1671481
330.937577
322.0889377
315.5632953
311.8380882
305.0740186
306.5184607
309.1322298
312.7320056
317.3186464
323.0020235
329.9128917
338.1466992
347.7300856
358.590645
370.5210952
383.1989589
396.4528636
410.7043861
426.9923655
445.1058446
463.3391082
479.2309101
490.2419504
495.7986234
495.7986254
490.2419556
479.2309149
463.3391141
445.1058507
426.9923761
410.7044054
396.4528864
383.1989814
370.5211106
358.5906521
347.7300879
338.1466997
329.9128918
323.0020236
317.3186464
312.7320057
309.1322298
306.5184607
305.0740186
301.9607027
302.479836
303.4389089
304.7749416
306.4833865
308.5998926
311.1700993
314.228074
317.783411
321.8115738
326.2448153
330.9745088
335.9006964
341.0330012
346.5181801
352.3657657
358.1473274
363.2299489
366.8786848
368.7658914
368.7658919
366.8786858
363.2299501
358.1473287
352.365767
346.5181822
341.0330049
335.9007008
330.9745129
326.244818
321.811575
317.7834114
314.2280741
311.1700994
308.5998926
306.4833866
304.7749416
303.4389089
302.479836
301.9607027
300.6911689
300.8630995
301.1863542
301.640962
302.2243043
302.9471185
303.8240631
304.8663026
306.0769752
307.4481371
308.9583152
310.5724343
312.2504967
313.9679407
315.726768
317.5167786
319.2406864
320.7409553
321.8325107
322.404205
322.4042052
321.8325109
320.7409556
319.2406867
317.5167789
315.7267684
313.9679413
312.2504975
310.572435
308.9583156
307.4481373
306.0769753
304.8663026
303.8240632
302.9471185
302.2243043
301.640962
301.1863542
300.8630995
300.6911689
300.2255286
300.2773628
300.3774536
300.5198039
300.7032689
300.9307962
301.2067035
301.5343485
301.9146599
302.3451988
302.8194834
303.3268255
303.8537582
304.3878305
304.9206952
305.4433681
305.9325917
306.3510368
306.6555061
306.8155608
306.8155608
306.6555061
306.3510369
305.9325918
305.4433682
304.9206952
304.3878306
303.8537583
303.3268256
302.8194835
302.3451989
301.9146599
301.5343485
301.2067035
300.9307962
300.7032689
300.5198039
300.3774536
300.2773628
300.2255286
300.0701875
300.0836696
300.1118047
300.1527872
300.2060963
300.2724028
300.3528394
300.4483182
300.5590808
300.6844178
300.822481
300.970214
301.123573
301.2782001
301.4301412
301.5754465
301.7081213
301.8195474
301.9000888
301.9423585
301.9423585
301.9000888
301.8195474
301.7081213
301.5754465
301.4301412
301.2782001
301.123573
300.970214
300.822481
300.6844178
300.5590808
300.4483182
300.3528394
300.2724028
300.2060963
300.1527872
300.1118047
300.0836696
300.0701875
300.0226305
300.0247653
300.0314662
300.0420978
300.0563513
300.0742736
300.0960876
300.1219968
300.152047
300.1860397
300.2234773
300.2635398
300.3051159
300.3469201
300.3876447
300.4259717
300.4603221
300.4887209
300.5090711
300.519708
300.519708
300.5090712
300.4887209
300.4603221
300.4259717
300.3876447
300.3469201
300.3051159
300.2635398
300.2234773
300.1860397
300.152047
300.1219968
300.0960876
300.0742737
300.0563513
300.0420978
300.0314662
300.0247653
300.0226305
300.0091704
300.0081813
300.0089518
300.0111522
300.0145364
300.0189909
300.0244961
300.0310647
300.0386911
300.0473181
300.0568181
300.0669837
300.0775314
300.0881215
300.098389
300.1079594
300.1164291
300.1233481
300.1282664
300.1308256
300.1308256
300.1282664
300.1233481
300.1164291
300.1079594
300.098389
300.0881215
300.0775314
300.0669837
300.0568181
300.0473181
300.0386911
300.0310647
300.0244961
300.0189909
300.0145364
300.0111522
300.0089518
300.0081813
300.0091704
300.0056261
300.0038333
300.0030721
300.0030878
300.0036513
300.0046099
300.0058837
300.0074375
300.0092528
300.0113094
300.0135746
300.0159985
300.0185132
300.0210361
300.0234758
300.0257371
300.0277223
300.0293305
300.0304665
300.0310552
300.0310552
300.0304665
300.0293305
300.0277223
300.0257371
300.0234758
300.0210361
300.0185132
300.0159985
300.0135746
300.0113094
300.0092528
300.0074375
300.0058837
300.0046099
300.0036513
300.0030878
300.0030721
300.0038333
300.0056261
300.004753
300.0027661
300.001634
300.0011192
300.0009966
300.0011049
300.0013499
300.001685
300.0020889
300.0025503
300.0030596
300.0036047
300.0041703
300.0047375
300.0052852
300.0057913
300.0062334
300.0065896
300.00684
300.0069694
300.0069694
300.00684
300.0065896
300.0062334
300.0057913
300.0052852
300.0047375
300.0041703
300.0036047
300.0030596
300.0025503
300.0020889
300.001685
300.0013499
300.0011049
300.0009966
300.0011192
300.001634
300.0027661
300.004753
300.0045509
300.0025198
300.0013031
300.000667
300.0003874
300.0003011
300.0003106
300.0003669
300.000448
300.0005449
300.0006529
300.000769
300.0008894
300.0010101
300.0011266
300.0012341
300.0013277
300.0014029
300.0014555
300.0014827
300.0014827
300.0014555
300.0014029
300.0013277
300.0012341
300.0011266
300.0010101
300.0008894
300.000769
300.0006529
300.0005449
300.000448
300.0003669
300.0003106
300.0003011
300.0003874
300.000667
300.0013031
300.0025198
300.0045509
300.0045067
300.0024662
300.0012312
300.0005688
300.0002553
300.0001269
300.0000855
300.0000815
300.0000929
300.000111
300.0001325
300.0001558
300.0001802
300.0002046
300.0002281
300.0002498
300.0002687
300.0002838
300.0002944
300.0002998
300.0002998
300.0002944
300.0002838
300.0002687
300.0002498
300.0002281
300.0002046
300.0001802
300.0001558
300.0001325
300.000111
300.0000929
300.0000815
300.0000855
300.0001269
300.0002553
300.0005688
300.0012312
300.0024662
300.0045067
410.9030394
424.8428626
452.4876495
494.0590325
550.5812812
623.7931919
715.4739879
825.7681913
950.2095893
1076.737205
1191.062015
1292.479544
1378.948911
1449.894456
1505.265294
1548.083412
1580.892857
1605.530045
1622.243826
1630.703459
1630.701772
1622.237769
1605.517013
1580.869701
1548.046465
1505.209925
1449.81511
1378.840541
1292.339057
1190.880139
1076.544031
950.0374209
825.6463099
715.4109406
623.7687649
550.5748512
494.0586433
452.4883512
424.8432957
410.9031753
410.1902953
425.7209677
455.9544977
500.8933423
561.7968221
641.0920262
741.8068171
865.7413966
1008.944618
1153.800784
1276.272379
1378.795808
1461.858291
1529.865045
1579.242947
1616.714422
1645.830702
1669.582773
1686.779979
1695.620658
1695.619162
1686.774506
1669.570488
1645.809219
1616.680533
1579.191976
1529.790598
1461.754461
1378.657226
1276.094557
1153.573261
1008.700353
865.545723
741.7111067
641.0581157
561.7886943
500.8930416
455.9554577
425.721552
410.1905037
406.54225
425.8306649
461.4122559
512.7311652
581.4428805
671.0720283
786.9458211
935.1492571
1116.014081
1302.867069
1449.339651
1557.988813
1636.164964
1706.077226
1737.608968
1758.824899
1775.978796
1797.737388
1816.861683
1826.135768
1826.134968
1816.858852
1797.727803
1775.96364
1758.801744
1737.574162
1706.023958
1636.089565
1557.887983
1449.209018
1302.649965
1115.670934
934.7516384
786.7734737
671.0190042
581.4312859
512.7305224
461.4132983
425.8313301
406.5425081
394.8456203
422.2120393
466.4021071
526.5623383
605.1093785
706.4516136
838.0542146
1013.873721
1246.445915
1514.982576
1712.294628
1842.020593
1903.679925
2017.159827
1983.845176
1963.417984
1949.704704
1975.42449
2007.980241
2015.807933
2015.80669
2007.985924
1975.415512
1949.703983
1963.417385
1983.846866
2017.156872
1903.675773
1842.01767
1712.314571
1515.33663
1247.148037
1013.085774
837.7991196
706.3901115
605.0976795
526.5615567
466.4029223
422.2126014
394.8458498
364.7649263
412.1281346
468.4474247
538.9406813
628.0781127
739.8690832
877.6929753
1045.37374
1271.644072
1532.60774
1722.245833
1854.382752
1915.223305
2055.903493
2000.471243
1979.057725
1996.841844
2032.920457
2058.485967
2073.241173
2073.241772
2058.485601
2032.922038
1996.842232
1979.059004
2000.473642
2055.908136
1915.225158
1854.384835
1722.253038
1532.6258
1271.66448
1045.373223
877.6919118
739.8688185
628.0780596
538.9406765
468.4474281
412.1281374
364.7649276
364.478025
412.0814704
468.439479
538.9713325
628.154541
739.997854
877.8537812
1044.249693
1241.512847
1467.655314
1699.644305
1882.058748
1913.604818
2075.8548
1996.979806
1976.81937
1998.196173
2034.667395
2062.474046
2076.922499
2076.922825
2062.474719
2034.66829
1998.196874
1976.82049
1996.981915
2075.859496
1913.605128
1882.056172
1699.647127
1467.65933
1241.51486
1044.249744
877.8537048
739.9978296
628.1545362
538.9713322
468.4394792
412.0814704
364.4780249
343.4068388
363.8523719
394.1293733
433.1416764
482.3252667
543.6252202
618.782828
709.0258279
814.8659758
935.1605731
1063.62725
1189.420122
1330.523719
1508.539455
1888.713044
1918.81071
2074.265653
2184.77368
2251.921295
2283.002708
2283.003115
2251.92281
2184.775045
2074.266453
1918.810834
1888.713923
1508.540956
1330.525224
1189.421282
1063.62833
935.1614313
814.8662986
709.0258555
618.7828211
543.625217
482.325266
433.1416763
394.1293732
363.8523718
343.4068387
324.0928592
332.9207776
347.5211059
366.8918354
391.3759605
421.7886572
458.9364373
503.3848841
555.3061685
614.1968988
678.1851493
744.2848688
814.4686957
899.2744405
1025.53237
1154.97385
1283.934165
1382.004972
1440.482184
1467.359726
1467.359863
1440.482636
1382.005414
1283.934528
1154.974073
1025.532636
899.2749108
814.469216
744.2852963
678.1854531
614.1970717
555.3062251
503.3848923
458.9364373
421.788657
391.3759604
366.8918353
347.5211059
332.9207776
324.0928591
311.6185414
315.2739599
321.6777545
330.361437
341.3817521
355.0474174
371.6955116
391.5666822
414.7294079
440.9911955
469.750573
500.0517543
531.7662723
567.2470496
611.4820425
661.430318
710.9206127
754.2147773
782.935731
796.8881165
796.8881418
782.9358075
754.2148629
710.9206857
661.4303686
611.4821128
567.2471638
531.7664008
500.0518632
469.7506433
440.9912295
414.7294186
391.5666843
371.6955118
355.0474174
341.3817521
330.361437
321.6777545
315.2739599
311.6185414
304.9804251
306.3979932
308.9632702
312.4963534
316.9980543
322.5761798
329.3590603
337.4404636
346.8470357
357.5097105
369.2290246
381.6834734
394.6571924
408.4707902
424.0284845
441.3208643
458.4961433
473.8770952
484.7376679
490.2419528
490.2419575
484.737681
473.877111
458.4961573
441.3208759
424.0285005
408.470814
394.6572193
381.6834961
369.2290387
357.5097169
346.8470378
337.4404641
329.3590604
322.5761798
316.9980544
312.4963534
308.9632702
306.3979932
304.9804251
301.9247341
302.4342422
303.3756023
304.6869998
306.3639602
308.4414647
310.9643103
313.9659609
317.4559569
321.4106342
325.7642704
330.4093905
335.2387239
340.2392458
345.5261408
351.122484
356.6133287
361.4941589
365.0380672
366.8786855
366.8786864
365.0380696
361.4941619
356.6133314
351.1224865
345.526144
340.2392502
335.2387288
330.4093947
325.7642729
321.4106353
317.4559573
313.965961
310.9643103
308.4414648
306.3639603
304.6869998
303.3756023
302.4342422
301.9247341
300.6785864
300.8473192
301.1646147
301.6108666
302.1834987
302.8930463
303.7538967
304.7770146
305.9655074
307.3116609
308.7945477
310.379614
312.0259669
313.7049121
315.4117733
317.135265
318.7849158
320.2254226
321.2791807
321.8325109
321.8325111
321.2791812
320.2254231
318.7849164
317.1352655
315.4117739
313.7049128
312.0259677
310.3796147
308.7945481
307.3116611
305.9655074
304.7770146
303.7538967
302.8930463
302.1834987
301.6108666
301.1646147
300.8473192
300.6785864
300.2214903
300.272338
300.3705747
300.5103093
300.6904134
300.9137772
301.1846375
301.5062909
301.8796541
302.3023489
302.768041
303.2662249
303.7834134
304.3065514
304.8260963
305.3324875
305.8039421
306.2070798
306.5008922
306.6555062
306.6555062
306.5008922
306.2070799
305.8039422
305.3324875
304.8260964
304.3065516
303.7834135
303.266225
302.768041
302.3023489
301.8796541
301.5062909
301.1846375
300.9137772
300.6904134
300.5103093
300.3705747
300.272338
300.2214903
300.0689903
300.0821892
300.1097884
300.1500114
300.2023427
300.2674376
300.3464065
300.440144
300.548888
300.6719447
300.8075053
300.9525687
301.103125
301.254759
301.4033452
301.5448181
301.6734394
301.7812759
301.8591956
301.9000888
301.9000888
301.8591957
301.7812759
301.6734394
301.5448181
301.4033452
301.254759
301.103125
300.9525687
300.8075053
300.6719448
300.548888
300.440144
300.3464065
300.2674376
300.2023427
300.1500114
300.1097884
300.0821892
300.0689903
300.0223008
300.0243595
300.0309159
300.0413421
300.0553305
300.0729244
300.0943406
300.1197782
300.1492819
300.1826572
300.2194165
300.2587549
300.2995761
300.3405974
300.380495
300.4179381
300.4513909
300.4789929
300.49875
300.5090712
300.5090712
300.49875
300.4789929
300.4513909
300.4179381
300.380495
300.3405974
300.2995762
300.2587549
300.2194165
300.1826572
300.1492819
300.1197782
300.0943406
300.0729244
300.0553305
300.0413421
300.0309159
300.0243595
300.0223008
300.0090856
300.0080773
300.0088114
300.0109597
300.0142767
300.0186478
300.0240521
300.0305012
300.0379891
300.0464597
300.0557877
300.0657696
300.0761265
300.086522
300.0965916
300.1059616
300.1142362
300.1209843
300.1257753
300.1282664
300.1282664
300.1257753
300.1209843
300.1142362
300.1059616
300.0965916
300.086522
300.0761265
300.0657696
300.0557877
300.0464597
300.0379891
300.0305012
300.0240521
300.0186478
300.0142767
300.0109597
300.0088114
300.0080773
300.0090856
300.0056056
300.0038082
300.0030384
300.0030418
300.0035892
300.0045279
300.0057777
300.007303
300.0090853
300.0111046
300.0133289
300.0157091
300.0181784
300.0206554
300.0230494
300.0252663
300.0272098
300.0287823
300.0298918
300.0304665
300.0304665
300.0298918
300.0287823
300.0272098
300.0252663
300.0230494
300.0206554
300.0181784
300.0157091
300.0133289
300.0111046
300.0090853
300.007303
300.0057777
300.0045279
300.0035892
300.0030418
300.0030384
300.0038082
300.0056056
300.0047484
300.0027605
300.0016264
300.0011088
300.0009826
300.0010865
300.0013261
300.0016547
300.0020511
300.0025042
300.0030043
300.0035396
300.004095
300.004652
300.0051896
300.0056861
300.0061195
300.0064684
300.0067134
300.00684
300.00684
300.0067134
300.0064684
300.0061195
300.0056861
300.0051896
300.004652
300.004095
300.0035396
300.0030043
300.0025042
300.0020511
300.0016547
300.0013261
300.0010865
300.0009826
300.0011088
300.0016264
300.0027605
300.0047484
300.0045499
300.0025186
300.0013015
300.0006647
300.0003844
300.0002971
300.0003055
300.0003604
300.00044
300.0005351
300.0006412
300.0007551
300.0008733
300.0009919
300.0011063
300.0012118
300.0013036
300.0013773
300.0014289
300.0014555
300.0014555
300.0014289
300.0013773
300.0013036
300.0012118
300.0011063
300.0009919
300.0008733
300.0007551
300.0006412
300.0005351
300.00044
300.0003604
300.0003055
300.0002971
300.0003844
300.0006647
300.0013015
300.0025186
300.0045499
300.0045065
300.0024659
300.0012309
300.0005684
300.0002547
300.0001261
300.0000844
300.0000802
300.0000913
300.000109
300.0001301
300.000153
300.0001769
300.0002009
300.000224
300.0002453
300.0002638
300.0002787
300.000289
300.0002944
300.0002944
300.000289
300.0002787
300.0002638
300.0002453
300.000224
300.0002009
300.0001769
300.000153
300.0001301
300.000109
300.0000913
300.0000802
300.0000844
300.0001261
300.0002547
300.0005684
300.0012309
300.0024659
300.0045065
407.3576206
420.7927811
447.4139888
487.3815975
541.5974595
611.6452363
699.2451252
804.8806289
925.2450581
1050.170189
1165.447119
1267.266037
1355.495373
1428.738225
1486.663681
1531.133821
1564.629664
1589.155173
1605.524628
1613.791646
1613.789706
1605.517938
1589.141422
1564.605844
1531.096206
1486.607453
1428.657655
1355.385187
1267.123427
1165.267571
1049.985446
925.0879926
804.7793395
699.1963605
611.6278216
541.5937412
487.3820507
447.4148964
420.7932548
407.3577672
406.6161919
421.5779689
450.6796023
493.8607122
552.2215407
627.9470755
723.8768311
842.122767
980.4164427
1124.515189
1249.978054
1354.347598
1440.199838
1510.748351
1563.680987
1602.456332
1631.433831
1653.673391
1669.577229
1678.039586
1678.03782
1669.570987
1653.660348
1631.41148
1602.421313
1563.628187
1510.671232
1440.091194
1354.201123
1249.781143
1124.256001
980.1593409
841.9547785
723.8028466
627.923178
552.2169346
493.8613911
450.6807651
421.5785824
406.6164066
402.9885492
421.5597114
455.7963603
505.0945889
570.9057115
656.374592
766.3532561
907.000361
1081.298122
1268.551638
1420.403873
1534.376783
1617.825954
1690.165262
1731.614654
1751.539939
1766.603775
1782.403476
1797.731482
1807.315245
1807.314516
1797.727604
1782.393982
1766.587697
1751.51568
1731.577147
1690.108812
1617.74439
1534.264687
1420.239081
1268.135069
1080.780563
906.6412943
766.2188825
656.3370892
570.8989165
505.0951274
455.7976071
421.5603926
402.9888087
391.5443915
417.8764357
460.3903469
518.2115704
593.5421386
690.3452295
815.2574216
981.6424997
1206.837819
1475.290477
1681.302704
1816.676555
1891.296645
2003.508969
2021.596343
1972.372538
1952.560747
1955.096814
1975.413301
1992.14648
1992.150593
1975.414887
1955.095409
1952.557446
1972.372184
2021.593499
2003.511199
1891.291285
1816.674205
1681.365145
1476.054428
1206.745474
980.8852144
815.0584374
690.301478
593.5350155
518.2117845
460.3913059
417.8769911
391.5446127
362.3364121
407.8678306
462.0346419
529.8403749
615.5786447
723.1020035
855.6479423
1016.440736
1231.602771
1497.84302
1690.255689
1826.365283
1901.344174
2039.56629
2082.399314
1987.584091
1976.377774
2006.076861
2032.921301
2045.832466
2045.832161
2032.922077
2006.07786
1976.378694
1987.585307
2082.402041
2039.574069
1901.344707
1826.36773
1690.25975
1497.861166
1231.634948
1016.440506
855.6471277
723.1018155
615.5786119
529.8403749
462.0346461
407.8678334
362.3364133
362.0591629
407.8210662
462.0248232
529.8675123
615.6502205
723.2260852
855.8127769
1015.793367
1205.273305
1423.862561
1652.256384
1850.589198
1899.056226
2059.013609
2098.260606
1985.596794
1976.485886
2007.739884
2034.667443
2048.625616
2048.625904
2034.668317
2007.740937
1976.48681
1985.59793
2098.263596
2059.019812
1899.050306
1850.591297
1652.259309
1423.867625
1205.276027
1015.793509
855.8127312
723.2260696
615.6502177
529.8675123
462.0248234
407.8210663
362.0591628
341.7900967
361.4586513
390.5940348
428.1390754
475.4733334
534.467398
606.7954179
693.6333721
795.477615
911.5070409
1036.550659
1160.736967
1293.155553
1451.361531
1655.521538
1905.685876
1979.152644
2109.237708
2184.773383
2219.754938
2219.75567
2184.775062
2109.239177
1979.154874
1905.686003
1655.522352
1451.363
1293.15653
1160.738684
1036.551694
911.5080003
795.4779833
693.6334095
606.7954151
534.4673961
475.473333
428.1390753
390.5940347
361.4586512
341.7900966
323.2017173
331.6987308
345.7544688
364.4041461
387.9772082
417.2579732
453.0226808
495.8162384
545.8125206
602.590826
664.5416256
728.7831737
795.4916968
871.8713908
971.0408734
1104.86707
1218.875755
1318.077676
1382.00492
1412.091154
1412.091331
1382.005432
1318.078265
1218.876257
1104.867255
971.0411326
871.8718411
795.4920949
728.7835984
664.5418959
602.5909925
545.8125751
495.8162465
453.0226811
417.2579731
387.9772081
364.4041461
345.7544688
331.6987307
323.2017173
311.1913693
314.7111317
320.8780621
329.2410612
339.8545509
353.015669
369.0490205
388.1868127
410.4980936
435.8126425
463.5907403
492.9036426
523.2731864
556.1639269
594.9771227
641.8470028
685.5280132
725.4335217
754.2147734
768.5924081
768.5924422
754.2148705
725.4336404
685.5280993
641.8470568
594.9771939
556.1640365
523.2733011
492.9037433
463.5908006
435.812672
410.4981027
388.1868144
369.0490208
353.015669
339.854551
329.2410612
320.8780621
314.7111317
311.1913693
304.7982809
306.1636012
308.6345979
312.0380082
316.3745469
321.7480029
328.2819924
336.0670027
345.1295742
355.4066094
366.7138888
378.7400277
391.2073722
404.2409508
418.4682129
434.2986898
449.6297098
463.5349792
473.8770958
479.2309128
479.2309193
473.8771134
463.5350011
449.6297274
434.298704
418.4682298
404.240974
391.2073975
378.7400484
366.7139006
355.4066146
345.1295758
336.0670031
328.2819925
321.7480029
316.3745469
312.0380082
308.6345979
306.1636012
304.7982809
301.8547219
302.3455146
303.2524326
304.5159253
306.1316577
308.1333109
310.5640412
313.4561331
316.8189881
320.6305389
324.8290234
329.3106847
333.9591473
338.7232393
343.6595901
348.803859
353.7710576
358.1959768
361.4941595
363.2299502
363.2299514
361.4941626
358.1959807
353.7710611
348.8038622
343.6595936
338.7232437
333.959152
329.3106884
324.8290255
320.6305398
316.8189884
313.4561332
310.5640412
308.1333109
306.1316577
304.5159253
303.2524326
302.3455146
301.8547219
300.6540908
300.8166051
301.122312
301.5523139
302.1041159
302.7878593
303.6174038
304.6033238
305.7486585
307.046122
308.4758494
310.0045495
311.5905438
313.1987412
314.812825
316.4169247
317.9315306
319.2503021
320.2254228
320.7409558
320.740956
320.2254234
319.2503028
317.9315313
316.4169254
314.8128257
313.198742
311.5905446
310.0045501
308.4758497
307.0461221
305.7486585
304.6033238
303.6174038
302.7878593
302.1041159
301.5523139
301.122312
300.8166051
300.6540908
300.2136275
300.2625567
300.3571875
300.4918347
300.6654018
300.8806667
301.1417089
301.4517058
301.8115492
302.2189751
302.6679357
303.14832
303.6467647
304.1493788
304.6446544
305.1216629
305.5607106
305.9341921
306.2070799
306.351037
306.351037
306.20708
305.9341922
305.5607108
305.121663
304.6446545
304.1493789
303.6467648
303.1483201
302.6679358
302.2189751
301.8115492
301.4517058
301.1417089
300.8806667
300.6654018
300.4918347
300.3571875
300.2625567
300.2136275
300.0666592
300.079307
300.105864
300.1446098
300.195039
300.257777
300.3338904
300.4242401
300.5290562
300.647675
300.7783633
300.9182338
301.0633684
301.2093007
301.3516481
301.4861135
301.6073047
301.7083511
301.7812759
301.8195475
301.8195475
301.7812759
301.7083511
301.6073047
301.4861135
301.3516481
301.2093007
301.0633684
300.9182338
300.7783633
300.647675
300.5290562
300.4242401
300.3338904
300.257777
300.195039
300.1446098
300.105864
300.079307
300.0666592
300.0216586
300.0235695
300.029845
300.0398713
300.0533442
300.0702989
300.0909413
300.1154613
300.1439017
300.1760753
300.2115142
300.2494437
300.2888002
300.328316
300.3666504
300.4024509
300.4342431
300.4603508
300.4789929
300.4887209
300.4887209
300.4789929
300.4603508
300.4342431
300.4024509
300.3666504
300.328316
300.2888002
300.2494437
300.2115142
300.1760753
300.1439017
300.1154613
300.0909413
300.0702989
300.0533442
300.0398713
300.029845
300.0235695
300.0216586
300.0089204
300.0078749
300.008538
300.010585
300.0137712
300.0179802
300.0231882
300.0294046
300.036623
300.0447891
300.0537824
300.0634069
300.073393
300.0834122
300.0931035
300.1020954
300.1100048
300.1164321
300.1209843
300.1233481
300.1233481
300.1209843
300.1164321
300.1100048
300.1020954
300.0931035
300.0834122
300.073393
300.0634069
300.0537824
300.0447891
300.036623
300.0294046
300.0231882
300.0179802
300.0137712
300.010585
300.008538
300.0078749
300.0089204
300.0055657
300.0037595
300.0029729
300.0029521
300.0034683
300.0043684
300.0055714
300.0070412
300.0087593
300.0107062
300.0128507
300.0151457
300.0175267
300.0199147
300.022221
300.0243531
300.0262177
300.0277225
300.0287823
300.0293305
300.0293305
300.0287823
300.0277225
300.0262177
300.0243531
300.022221
300.0199147
300.0175267
300.0151457
300.0128507
300.0107062
300.0087593
300.0070412
300.0055714
300.0043684
300.0034683
300.0029521
300.0029729
300.0037595
300.0055657
300.0047393
300.0027494
300.0016116
300.0010885
300.0009554
300.0010505
300.0012796
300.0015957
300.0019778
300.0024145
300.0028967
300.0034129
300.0039484
300.0044855
300.0050037
300.0054818
300.0058985
300.0062334
300.0064684
300.0065896
300.0065896
300.0064684
300.0062334
300.0058985
300.0054818
300.0050037
300.0044855
300.0039484
300.0034129
300.0028967
300.0024145
300.0019778
300.0015957
300.0012796
300.0010505
300.0009554
300.0010885
300.0016116
300.0027494
300.0047393
300.0045479
300.0025163
300.0012983
300.0006604
300.0003786
300.0002894
300.0002956
300.0003478
300.0004243
300.0005159
300.0006183
300.0007281
300.0008421
300.0009565
300.0010668
300.0011684
300.0012568
300.0013277
300.0013773
300.0014029
300.0014029
300.0013773
300.0013277
300.0012568
300.0011684
300.0010668
300.0009565
300.0008421
300.0007281
300.0006183
300.0005159
300.0004243
300.0003478
300.0002956
300.0002894
300.0003786
300.0006604
300.0012983
300.0025163
300.0045479
300.0045061
300.0024654
300.0012302
300.0005675
300.0002535
300.0001245
300.0000824
300.0000776
300.0000881
300.0001052
300.0001254
300.0001476
300.0001706
300.0001937
300.000216
300.0002366
300.0002544
300.0002687
300.0002787
300.0002838
300.0002838
300.0002787
300.0002687
300.0002544
300.0002366
300.000216
300.0001937
300.0001706
300.0001476
300.0001254
300.0001052
300.0000881
300.0000776
300.0000824
300.0001245
300.0002535
300.0005675
300.0012302
300.0024654
300.0045061
402.2479678
414.9690298
440.1463463
477.8624147
528.8549569
594.4789528
676.2920892
775.0247666
888.6348329
1009.722052
1125.737965
1228.666876
1319.194147
1395.546632
1457.092372
1504.426379
1539.574818
1564.623182
1580.880428
1588.985652
1588.983272
1580.872592
1564.607782
1539.548873
1504.385919
1457.032305
1395.461021
1319.078151
1228.518522
1125.567923
1009.562889
888.5111303
774.9520994
676.2597148
594.4687276
528.8537098
477.8634749
440.1473099
414.969465
402.2480834
401.4682545
415.6244836
443.1288108
483.8430212
538.6551481
609.3959625
698.5043339
808.0603266
937.2902667
1077.299522
1207.40375
1315.581786
1405.880854
1479.859421
1537.628977
1579.687623
1609.870181
1631.427514
1645.818568
1653.45989
1653.45764
1645.811318
1631.412974
1609.845752
1579.649242