/*--------------------------------*- C++ -*----------------------------------*\
  =========                 |
  \\      /  F ield         | OpenFOAM: The Open Source CFD Toolbox
   \\    /   O peration     | Website:  https://openfoam.org
    \\  /    A nd           | Version:  6
     \\/     M anipulation  |
\*---------------------------------------------------------------------------*/
FoamFile
{
    version     2.0;
    format      ascii;
    class       volVectorField;
    location    "0.0013";
    object      gradT;
}
// * * * * * * * * * * * * * * * * * * * * * * * * * * * * * * * * * * * * * //

dimensions      [0 -1 0 1 0 0 0];

internalField   nonuniform List<vector> 
9600
(
(0 -1.882954246e-06 7.07441919e-06)
(0 -5.652674419e-06 7.070607584e-06)
(0 -9.418582876e-06 7.059172597e-06)
(0 -1.319211466e-05 7.040114355e-06)
(0 -1.696564655e-05 7.009621211e-06)
(0 -2.075061318e-05 6.979127983e-06)
(0 -2.453176827e-05 6.944823148e-06)
(0 -2.832054682e-05 6.902895059e-06)
(0 -3.212838327e-05 6.845720293e-06)
(0 -3.594003154e-05 6.784733921e-06)
(0 -3.976311499e-05 6.704689348e-06)
(0 -4.359382127e-05 6.617021397e-06)
(0 -4.743596272e-05 6.517918542e-06)
(0 -5.130097438e-05 6.407380781e-06)
(0 -5.518123201e-05 6.273973053e-06)
(0 -5.90653016e-05 6.129130419e-06)
(0 -6.295699486e-05 5.969041227e-06)
(0 -6.687918055e-05 5.778458778e-06)
(0 -7.081280157e-05 5.565006475e-06)
(0 -7.475404633e-05 5.324872666e-06)
(0 -7.871434843e-05 5.058057255e-06)
(0 -8.268989758e-05 4.756937041e-06)
(0 -8.667688219e-05 4.42151202e-06)
(0 -9.0682924e-05 4.040347166e-06)
(0 -9.469277798e-05 3.617254208e-06)
(0 -9.87064442e-05 3.144609842e-06)
(0 -0.0001027467908 2.610979065e-06)
(0 -0.0001067871379 2.023985232e-06)
(0 -0.0001108274858 1.368381737e-06)
(0 -0.0001148678323 6.251103163e-07)
(0 -0.0001189119911 -1.82959117e-07)
(0 -0.0001229370924 -1.090131412e-06)
(0 -0.0001269621922 -2.100218197e-06)
(0 -0.0001309720462 -3.228466085e-06)
(0 -0.0001349552195 -4.474875096e-06)
(0 -0.0001389155212 -5.86231504e-06)
(0 -0.0001428377073 -7.398409293e-06)
(0 -0.0001467027195 -9.098404476e-06)
(0 -0.0001505219902 -1.098898196e-05)
(0 -0.0001542650288 -1.307395357e-05)
(0 -0.0001579280237 -1.539524746e-05)
(0 -0.0001614957256 -1.79642983e-05)
(0 -0.0001649528905 -2.081159956e-05)
(0 -0.000168253779 -2.396002117e-05)
(0 -0.0001713945761 -2.745149084e-05)
(0 -0.0001743409802 -3.130506724e-05)
(0 -0.0001770510632 -3.556649022e-05)
(0 -0.0001794867054 -4.027387562e-05)
(0 -0.0001815869236 -4.546152892e-05)
(0 -0.0001832983548 -5.116375504e-05)
(0 -0.0001845600092 -5.742248119e-05)
(0 -0.0001852689758 -6.427963643e-05)
(0 -0.0001853299633 -7.175427912e-05)
(0 -0.0001846438655 -7.986927786e-05)
(0 -0.0001830696551 -8.863606904e-05)
(0 -0.0001805044159 -9.804702869e-05)
(0 -0.0001768033053 -0.0001080907218)
(0 -0.0001718252927 -0.0001187709603)
(0 -0.000165429347 -0.0001301144257)
(0 -0.0001573943923 -0.0001422850185)
(0 -0.0001472744661 -0.0001556562807)
(0 -0.0001340404234 -0.0001708342642)
(0 -0.000115447203 -0.0001884669491)
(0 -8.76145473e-05 -0.0002076738447)
(0 -4.878528633e-05 -0.000220698247)
(0 -2.619745861e-05 -0.0001964828454)
(0 7.419373358e-05 -0.0001990938241)
(0 0.0001827799706 -0.0001120662715)
(0 0.0001759494958 -5.896619874e-05)
(0 0.0001514139159 -7.2726249e-06)
(0 0.00013830947 3.746850272e-05)
(0 0.0001334648642 7.415180545e-05)
(0 0.000134463516 0.0001027925306)
(0 0.0001385343572 0.0001224034616)
(0 0.0001423993677 0.000133922262)
(0 0.0001439926367 0.0001404249339)
(0 0.000143066407 0.0001444690936)
(0 0.0001402991495 0.0001475298463)
(0 0.0001365103712 0.0001501141438)
(0 0.0001323023123 0.0001521762465)
(0 0.0001279112927 0.0001534569594)
(0 0.0001232648934 0.0001537047165)
(0 0.0001180810525 0.0001528585315)
(0 0.000112085329 0.000151055621)
(0 0.0001050185331 0.0001485856729)
(0 9.674725698e-05 0.0001458565336)
(0 8.728674539e-05 0.0001432722352)
(0 7.677040781e-05 0.000141236815)
(0 6.544218954e-05 0.0001400895097)
(0 5.364513776e-05 0.0001400437691)
(0 4.173373691e-05 0.0001412215684)
(0 3.009296327e-05 0.0001436229077)
(0 1.910016948e-05 0.0001471563048)
(0 9.064099587e-06 0.0001516083099)
(0 2.172639527e-07 0.0001566663681)
(0 -7.303118086e-06 0.0001619607467)
(0 -1.349323488e-05 0.0001670874136)
(0 -1.850174081e-05 0.0001716956974)
(0 -2.25916393e-05 0.0001755073446)
(0 -2.607548582e-05 0.0001784346905)
(0 -2.920866087e-05 0.000180553968)
(0 -3.209026679e-05 0.0001821548592)
(0 -3.448779355e-05 0.000183500371)
(0 -3.585236385e-05 0.0001846781715)
(0 -3.540640078e-05 0.000185169873)
(0 -3.254766458e-05 0.0001835232409)
(0 -2.767637826e-05 0.0001771806593)
(0 -2.298042742e-05 0.0001632376488)
(0 -2.173020679e-05 0.0001410576675)
(0 -2.640328773e-05 0.0001116927299)
(0 -3.888262401e-05 7.471974104e-05)
(0 -6.13713488e-05 2.979184288e-05)
(0 -7.820358803e-05 -1.710286589e-05)
(0 0.000248835834 -0.0003052939682)
(0 0.0006568041717 -0.0005795839894)
(0 0.0007656496043 -0.0004538034108)
(0 0.0008214406954 -0.0003792590029)
(0 0.0008673786804 -0.0003085681741)
(0 0.0009044202837 -0.0002357885634)
(0 0.0004603480082 -0.0001601044739)
(0 -1.890577531e-06 7.436525731e-06)
(0 -5.656486033e-06 7.436525775e-06)
(0 -9.437641061e-06 7.421279138e-06)
(0 -1.321117283e-05 7.406032545e-06)
(0 -1.699613964e-05 7.379351051e-06)
(0 -2.078491789e-05 7.348857821e-06)
(0 -2.457369625e-05 7.310741339e-06)
(0 -2.837390972e-05 7.257378307e-06)
(0 -3.218936945e-05 7.207826836e-06)
(0 -3.601245264e-05 7.139217167e-06)
(0 -3.983934772e-05 7.066795893e-06)
(0 -4.368911221e-05 6.979127941e-06)
(0 -4.755031189e-05 6.87240179e-06)
(0 -5.142294681e-05 6.746617438e-06)
(0 -5.531463937e-05 6.620833006e-06)
(0 -5.922157882e-05 6.475990372e-06)
(0 -6.314376525e-05 6.296842942e-06)
(0 -6.70888208e-05 6.098637196e-06)
(0 -7.103768839e-05 5.881373246e-06)
(0 -7.500942631e-05 5.637427792e-06)
(0 -7.900403322e-05 5.359177436e-06)
(0 -8.302151048e-05 5.050433928e-06)
(0 -8.70427999e-05 4.695950669e-06)
(0 -9.108695817e-05 4.30716252e-06)
(0 -9.51501752e-05 3.872634619e-06)
(0 -9.922482777e-05 3.369497071e-06)
(0 -0.000103322349 2.824431351e-06)
(0 -0.0001074274942 2.203132687e-06)
(0 -0.0001115364517 1.517036012e-06)
(0 -0.0001156644661 7.508947047e-07)
(0 -0.0001197924811 -9.910285443e-08)
(0 -0.0001239243086 -1.052014923e-06)
(0 -0.0001280599462 -2.107841481e-06)
(0 -0.0001321879612 -3.285640789e-06)
(0 -0.0001363083538 -4.593036166e-06)
(0 -0.0001404096865 -6.037650824e-06)
(0 -0.0001444957734 -7.646166384e-06)
(0 -0.000148551368 -9.430017821e-06)
(0 -0.0001525612211 -1.141207485e-05)
(0 -0.0001565367702 -1.361139589e-05)
(0 -0.0001604437106 -1.605085087e-05)
(0 -0.0001642896628 -1.876855597e-05)
(0 -0.0001680403246 -2.176832314e-05)
(0 -0.0001716766381 -2.509970386e-05)
(0 -0.0001751909767 -2.879319086e-05)
(0 -0.0001785376039 -3.288690108e-05)
(0 -0.0001816936497 -3.743038601e-05)
(0 -0.0001846171829 -4.245794983e-05)
(0 -0.0001872548434 -4.802295627e-05)
(0 -0.0001895342102 -5.417495687e-05)
(0 -0.00019140954 -6.096731372e-05)
(0 -0.0001927779218 -6.843433263e-05)
(0 -0.000193525006 -7.663700012e-05)
(0 -0.0001935440631 -8.560580799e-05)
(0 -0.0001926864425 -9.535219273e-05)
(0 -0.0001908149234 -0.0001058799653)
(0 -0.0001878189677 -0.0001171662557)
(0 -0.0001835651683 -0.0001291920059)
(0 -0.0001780230318 -0.0001419800859)
(0 -0.0001712230512 -0.0001557020195)
(0 -0.0001631232987 -0.0001709638591)
(0 -0.0001531520269 -0.000189301699)
(0 -0.0001384924277 -0.0002139097)
(0 -0.0001092494623 -0.0002500021973)
(0 -3.508241055e-05 -0.0003021302991)
(0 9.479569208e-06 -0.0003614090525)
(0 0.0001263142113 -0.0001907653715)
(0 0.0002436824856 -9.55237173e-05)
(0 0.0002201264979 -4.646399214e-05)
(0 0.0001939290395 -4.497744932e-06)
(0 0.0001749165391 3.142703999e-05)
(0 0.0001632224013 6.142471151e-05)
(0 0.0001570665893 8.545334206e-05)
(0 0.0001542383473 0.0001033490312)
(0 0.0001525688444 0.0001157483223)
(0 0.0001505524825 0.0001240996436)
(0 0.0001475641511 0.0001298666682)
(0 0.0001436572108 0.0001340937853)
(0 0.0001390832329 0.0001373070048)
(0 0.0001341014094 0.0001397045324)
(0 0.0001288413341 0.0001412673073)
(0 0.000123261081 0.000141953404)
(0 0.0001172081843 0.0001417971273)
(0 0.0001105225526 0.000140924259)
(0 0.0001030593453 0.0001395444423)
(0 9.473089446e-05 0.0001379473625)
(0 8.555244491e-05 0.0001364417607)
(0 7.562310123e-05 0.0001353173244)
(0 6.512963399e-05 0.0001348065644)
(0 5.430836423e-05 0.0001351000605)
(0 4.343373178e-05 0.0001362816714)
(0 3.279161007e-05 0.0001383666439)
(0 2.266024883e-05 0.000141271119)
(0 1.32645359e-05 0.000144846445)
(0 4.775995283e-06 0.0001488639232)
(0 -2.694835311e-06 0.0001530643587)
(0 -9.163202387e-06 0.0001571580689)
(0 -1.470533903e-05 0.0001609011084)
(0 -1.948133419e-05 0.0001640952687)
(0 -2.367033562e-05 0.0001666528847)
(0 -2.74248093e-05 0.0001685815797)
(0 -3.080192949e-05 0.0001699461488)
(0 -3.369115886e-05 0.0001707770881)
(0 -3.587142187e-05 0.00017094099)
(0 -3.713688887e-05 0.0001699194672)
(0 -3.750280711e-05 0.000166713871)
(0 -3.76743315e-05 0.0001599291381)
(0 -3.927141189e-05 0.0001482235654)
(0 -4.44857467e-05 0.0001311054531)
(0 -5.561957156e-05 0.000108715832)
(0 -7.478453861e-05 8.081837779e-05)
(0 -0.0001033261607 4.638775917e-05)
(0 -0.0001371545397 2.275554017e-06)
(0 -7.706390427e-05 -7.941187959e-05)
(0 0.0004542417449 -0.0004513029641)
(0 0.0008925546172 -0.0004723928167)
(0 0.0008991906915 -0.0004298738777)
(0 0.0009437984109 -0.0003543841842)
(0 0.0009837483021 -0.0002718810595)
(0 0.0005008048399 -0.0001863934109)
(0 -1.886765882e-06 7.825313852e-06)
(0 -5.667920978e-06 7.817690602e-06)
(0 -9.452887654e-06 7.806255611e-06)
(0 -1.323404271e-05 7.787197369e-06)
(0 -1.701900953e-05 7.764327527e-06)
(0 -2.081922273e-05 7.733834294e-06)
(0 -2.462705933e-05 7.688094515e-06)
(0 -2.842346115e-05 7.64616643e-06)
(0 -3.224654417e-05 7.585180012e-06)
(0 -3.608487396e-05 7.52419364e-06)
(0 -3.991939233e-05 7.44796072e-06)
(0 -4.378440342e-05 7.352669469e-06)
(0 -4.766466133e-05 7.249754967e-06)
(0 -5.155254286e-05 7.135405562e-06)
(0 -5.5459482e-05 6.998186182e-06)
(0 -5.938547969e-05 6.841908604e-06)
(0 -6.333053601e-05 6.670384473e-06)
(0 -6.729083816e-05 6.475990372e-06)
(0 -7.127401058e-05 6.251103126e-06)
(0 -7.528005334e-05 5.999534377e-06)
(0 -7.930515344e-05 5.709849075e-06)
(0 -8.335312387e-05 5.39348227e-06)
(0 -8.742015308e-05 5.035187365e-06)
(0 -9.151005112e-05 4.631152621e-06)
(0 -9.562281958e-05 4.173754831e-06)
(0 -9.975845853e-05 3.670617284e-06)
(0 -0.0001039169662 3.098870025e-06)
(0 -0.000108090721 2.469948064e-06)
(0 -0.0001122759114 1.764793149e-06)
(0 -0.0001164839704 9.719703031e-07)
(0 -0.0001207149 9.147955794e-08)
(0 -0.0001249420187 -8.843023987e-07)
(0 -0.000129199629 -1.974433792e-06)
(0 -0.0001334534284 -3.190349583e-06)
(0 -0.0001377072287 -4.53967309e-06)
(0 -0.0001419724623 -6.041462472e-06)
(0 -0.0001462262617 -7.703341108e-06)
(0 -0.0001504762504 -9.559613862e-06)
(0 -0.0001547033674 -1.161409221e-05)
(0 -0.0001589114271 -1.390108116e-05)
(0 -0.0001630775596 -1.643963899e-05)
(0 -0.0001672093853 -1.92526353e-05)
(0 -0.0001712802256 -2.238581016e-05)
(0 -0.0001752786457 -2.585822187e-05)
(0 -0.0001791855841 -2.972704468e-05)
(0 -0.0001829819858 -3.402277226e-05)
(0 -0.0001866182993 -3.879495609e-05)
(0 -0.0001900754632 -4.410077022e-05)
(0 -0.0001933039292 -4.999739006e-05)
(0 -0.0001962427112 -5.654580209e-05)
(0 -0.0001988231959 -6.380699166e-05)
(0 -0.000200934849 -7.185719276e-05)
(0 -0.000202497626 -8.075358025e-05)
(0 -0.0002033590573 -9.054951577e-05)
(0 -0.0002033514344 -0.0001012793058)
(0 -0.0002023222895 -0.0001129505728)
(0 -0.0002001191566 -0.0001255213887)
(0 -0.0001966391218 -0.0001388888391)
(0 -0.0001919317363 -0.0001529271397)
(0 -0.000186374353 -0.0001675943621)
(0 -0.0001808741446 -0.0001832183083)
(0 -0.0001769900751 -0.0002015104084)
(0 -0.0001761477008 -0.0002278870142)
(0 -0.0001758351456 -0.0002763178169)
(0 -0.0001601959529 -0.0003764155119)
(0 8.516746859e-05 -0.0004194299623)
(0 0.0003400866916 -0.0001384657459)
(0 0.0003270775381 -6.702021154e-05)
(0 0.0002669792782 -2.687593179e-05)
(0 0.0002292973236 4.295727575e-06)
(0 0.000204231926 3.127457406e-05)
(0 0.0001874911656 5.465141257e-05)
(0 0.0001763878343 7.421660303e-05)
(0 0.0001688331485 8.978718665e-05)
(0 0.0001631461683 0.000101599484)
(0 0.0001581147926 0.0001103395935)
(0 0.0001530567363 0.0001168003379)
(0 0.0001477394861 0.0001216449422)
(0 0.0001421287398 0.0001253231827)
(0 0.0001362588024 0.0001280561353)
(0 0.0001301677876 0.0001299467121)
(0 0.0001237909001 0.0001310559017)
(0 0.0001170442834 0.0001314599372)
(0 0.0001098364559 0.0001312884122)
(0 0.0001020454469 0.000130716665)
(0 9.36445747e-05 0.0001299619594)
(0 8.464908428e-05 0.0001292377455)
(0 7.513521025e-05 0.0001287689127)
(0 6.522873685e-05 0.0001287384203)
(0 5.512024531e-05 0.0001292720503)
(0 4.499269591e-05 0.0001304574729)
(0 3.508241068e-05 0.0001322946882)
(0 2.558759468e-05 0.0001347379539)
(0 1.665309119e-05 0.0001376538648)
(0 8.431365974e-06 0.0001409052016)
(0 9.948401926e-07 0.0001442937561)
(0 -5.652674351e-06 0.00014760989)
(0 -1.15607292e-05 0.0001506820794)
(0 -1.684748525e-05 0.0001533578556)
(0 -2.159298732e-05 0.00015554193)
(0 -2.591539659e-05 0.000157199998)
(0 -2.989094556e-05 0.0001582977517)
(0 -3.34967648e-05 0.0001587780194)
(0 -3.671379614e-05 0.000158434972)
(0 -3.962970683e-05 0.0001568950652)
(0 -4.253799444e-05 0.0001535522496)
(0 -4.61628722e-05 0.0001476823122)
(0 -5.180792298e-05 0.0001387058797)
(0 -6.123412909e-05 0.000126500982)
(0 -7.668655155e-05 0.0001113458693)
(0 -0.0001012145076 9.353022469e-05)
(0 -0.0001399065489 7.277198834e-05)
(0 -0.0002040032271 4.587318693e-05)
(0 -0.0002047464973 -2.416584989e-06)
(0 0.0002638194218 -0.0002040908938)
(0 0.0007870824979 -0.0005547587242)
(0 0.0009394531319 -0.0005136043547)
(0 0.001025371495 -0.00040733179)
(0 0.001072407241 -0.0003110457454)
(0 0.0005458508989 -0.0002181978039)
(0 -1.890577542e-06 8.229348616e-06)
(0 -5.679355957e-06 8.221725368e-06)
(0 -9.464322655e-06 8.214102022e-06)
(0 -1.325310104e-05 8.195043781e-06)
(0 -1.704950282e-05 8.168362292e-06)
(0 -2.085352769e-05 8.137869057e-06)
(0 -2.466517596e-05 8.103564223e-06)
(0 -2.84768244e-05 8.050201195e-06)
(0 -3.231515404e-05 7.996838071e-06)
(0 -3.61496722e-05 7.928228402e-06)
(0 -4.001087213e-05 7.851995484e-06)
(0 -4.387969489e-05 7.764327527e-06)
(0 -4.777901107e-05 7.661413023e-06)
(0 -5.167070426e-05 7.543251972e-06)
(0 -5.560432497e-05 7.406032589e-06)
(0 -5.955319257e-05 7.253566658e-06)
(0 -6.351730716e-05 7.082042529e-06)
(0 -6.750047922e-05 6.880025128e-06)
(0 -7.15179565e-05 6.658949528e-06)
(0 -7.554686917e-05 6.399757484e-06)
(0 -7.961008577e-05 6.110072177e-06)
(0 -8.369617272e-05 5.786082074e-06)
(0 -8.780894173e-05 5.423975521e-06)
(0 -9.194839122e-05 5.016129124e-06)
(0 -9.611071113e-05 4.551108035e-06)
(0 -0.0001002997132 4.036535542e-06)
(0 -0.0001045192072 3.464788278e-06)
(0 -0.0001087653834 2.816808072e-06)
(0 -0.0001130344301 2.096406561e-06)
(0 -0.0001173301571 1.292148764e-06)
(0 -0.0001216525662 4.002230684e-07)
(0 -0.0001259902227 -5.98428782e-07)
(0 -0.0001303659941 -1.707618425e-06)
(0 -0.0001347532013 -2.950215761e-06)
(0 -0.0001391556559 -4.333844109e-06)
(0 -0.000143577167 -5.86231504e-06)
(0 -0.0001480139256 -7.569933465e-06)
(0 -0.0001524583084 -9.460511064e-06)
(0 -0.0001569026894 -1.157216415e-05)
(0 -0.0001613585062 -1.391251619e-05)
(0 -0.0001658028891 -1.652349535e-05)
(0 -0.000170235835 -1.941653629e-05)
(0 -0.0001746459121 -2.264119073e-05)
(0 -0.0001790178737 -2.622795191e-05)
(0 -0.0001833517167 -3.022255913e-05)
(0 -0.0001876055162 -3.466312937e-05)
(0 -0.0001917754606 -3.962208401e-05)
(0 -0.0001958196182 -4.514897376e-05)
(0 -0.0001996922529 -5.131240901e-05)
(0 -0.0002033552481 -5.819243449e-05)
(0 -0.0002067247439 -6.587290541e-05)
(0 -0.0002097206995 -7.444149072e-05)
(0 -0.0002122173304 -8.398204684e-05)
(0 -0.0002140697902 -9.457461688e-05)
(0 -0.000215083689 -0.0001062840006)
(0 -0.0002150570076 -0.0001191368786)
(0 -0.0002137458004 -0.0001330608297)
(0 -0.0002109785438 -0.0001478957648)
(0 -0.0002067285561 -0.0001632643308)
(0 -0.0002015142211 -0.0001785261704)
(0 -0.0001970431577 -0.0001928198514)
(0 -0.0001978245457 -0.0002056651062)
(0 -0.0002132922143 -0.0002198330027)
(0 -0.000257781773 -0.0002510046623)
(0 -0.0001781907454 -0.0001634930296)
(0 0.0002474293363 -9.525309045e-06)
(0 0.0004787201529 4.844604952e-06)
(0 0.0003552761141 -7.211638571e-06)
(0 0.0002914386267 1.661878646e-06)
(0 0.0002520757351 1.726295502e-05)
(0 0.0002252722258 3.468981112e-05)
(0 0.0002061682433 5.16668923e-05)
(0 0.000192202364 6.696303681e-05)
(0 0.0001816212295 7.995694625e-05)
(0 0.0001731174411 9.050758818e-05)
(0 0.000165749525 9.883603965e-05)
(0 0.0001588771242 0.0001053234656)
(0 0.0001521800572 0.0001103662757)
(0 0.0001454906145 0.0001142694035)
(0 0.0001387249396 0.0001172272433)
(0 0.000131841102 0.0001193922588)
(0 0.0001247704945 0.0001208444968)
(0 0.0001174445072 0.0001216944951)
(0 0.0001097869051 0.0001220489776)
(0 0.000101725269 0.0001220718475)
(0 9.324816384e-05 0.000121923194)
(0 8.435939952e-05 0.0001217745389)
(0 7.512758741e-05 0.0001217821622)
(0 6.562896031e-05 0.0001220947181)
(0 5.603504122e-05 0.0001228113073)
(0 4.645255747e-05 0.0001239929182)
(0 3.70720913e-05 0.0001256433627)
(0 2.801942643e-05 0.0001277207102)
(0 1.943940618e-05 0.0001301563535)
(0 1.141207499e-05 0.0001328321314)
(0 4.006042332e-06 0.0001356108222)
(0 -2.774879941e-06 0.0001383399623)
(0 -8.961185137e-06 0.0001408861442)
(0 -1.461385947e-05 0.0001431350158)
(0 -1.982438265e-05 0.0001450027235)
(0 -2.466898775e-05 0.0001464168459)
(0 -2.922771894e-05 0.0001473240173)
(0 -3.355393972e-05 0.0001476365725)
(0 -3.77505647e-05 0.0001472020454)
(0 -4.201961053e-05 0.0001457536182)
(0 -4.671937285e-05 0.0001429863616)
(0 -5.252832513e-05 0.0001386029669)
(0 -6.044130662e-05 0.0001325005172)
(0 -7.184956989e-05 0.0001249496419)
(0 -8.859032963e-05 0.0001167164824)
(0 -0.0001133584196 0.0001092837676)
(0 -0.0001509870113 0.0001053958863)
(0 -0.0002123393031 0.0001109837634)
(0 -0.0003270203633 0.0001421554222)
(0 -9.810039153e-05 0.0001325615035)
(0 0.0005830335346 -0.0002221276159)
(0 0.001046613817 -0.00066267411)
(0 0.001146364652 -0.000450445346)
(0 0.001172878485 -0.0003468714296)
(0 0.000593675653 -0.0002582887217)
(0 -1.894389179e-06 8.660064818e-06)
(0 -5.683167571e-06 8.656253222e-06)
(0 -9.48338084e-06 8.644818225e-06)
(0 -1.327597085e-05 8.625759984e-06)
(0 -1.707618425e-05 8.602890146e-06)
(0 -2.089164404e-05 8.572396908e-06)
(0 -2.470710394e-05 8.534280426e-06)
(0 -2.85301873e-05 8.492352346e-06)
(0 -3.237232857e-05 8.435177571e-06)
(0 -3.62220933e-05 8.370379551e-06)
(0 -4.009472815e-05 8.290334988e-06)
(0 -4.397498583e-05 8.210290325e-06)
(0 -4.788573693e-05 8.11118747e-06)
(0 -5.180029999e-05 7.993026423e-06)
(0 -5.574916727e-05 7.859618686e-06)
(0 -5.971709309e-05 7.707152756e-06)
(0 -6.370026589e-05 7.528005334e-06)
(0 -6.771393112e-05 7.337422876e-06)
(0 -7.175808991e-05 7.108723981e-06)
(0 -7.582130739e-05 6.857155238e-06)
(0 -7.991501715e-05 6.571281579e-06)
(0 -8.404303221e-05 6.243479829e-06)
(0 -8.819010603e-05 5.885184929e-06)
(0 -9.238673022e-05 5.469715235e-06)
(0 -9.659860153e-05 5.012317445e-06)
(0 -0.0001008485899 4.493933311e-06)
(0 -0.0001051366936 3.91456275e-06)
(0 -0.0001094514794 3.2627709e-06)
(0 -0.0001138043824 2.538557748e-06)
(0 -0.0001181877772 1.726676656e-06)
(0 -0.0001226054775 8.233160214e-07)
(0 -0.0001270536718 -1.867707652e-07)
(0 -0.0001315476043 -1.311206997e-06)
(0 -0.0001360758424 -2.561427622e-06)
(0 -0.0001406231396 -3.956490905e-06)
(0 -0.0001452123633 -5.511643366e-06)
(0 -0.0001498244577 -7.234508374e-06)
(0 -0.0001544822927 -9.155579145e-06)
(0 -0.0001591515609 -1.129010211e-05)
(0 -0.0001638589465 -1.366857062e-05)
(0 -0.0001685815797 -1.631004295e-05)
(0 -0.0001733270808 -1.925644695e-05)
(0 -0.0001780916411 -2.253065279e-05)
(0 -0.0001828600141 -2.618221197e-05)
(0 -0.0001876245733 -3.025305214e-05)
(0 -0.0001923776987 -3.480416015e-05)
(0 -0.0001971041437 -3.98774642e-05)
(0 -0.0002017696 -4.55606315e-05)
(0 -0.0002063512012 -5.191464913e-05)
(0 -0.0002108032076 -5.9050055e-05)
(0 -0.0002150608174 -6.705832762e-05)
(0 -0.0002190478015 -7.605381748e-05)
(0 -0.0002226307522 -8.615468585e-05)
(0 -0.0002256610112 -9.748671558e-05)
(0 -0.0002279136957 -0.0001101642578)
(0 -0.0002290991185 -0.0001242482982)
(0 -0.000228885666 -0.0001397235901)
(0 -0.0002268426226 -0.0001563919279)
(0 -0.0002225583301 -0.0001737196809)
(0 -0.000215926062 -0.000190449005)
(0 -0.0002080130802 -0.0002038926884)
(0 -0.0002040032263 -0.0002085085946)
(0 -0.0002214834451 -0.0001948171539)
(0 -0.0001194989844 -0.0001562813901)
(0 8.128721072e-05 1.8356898e-05)
(0 0.0002535051021 0.0001968945022)
(0 0.0003423889271 7.223073429e-05)
(0 0.0003238986234 3.163668064e-05)
(0 0.0002914614949 2.346069496e-05)
(0 0.0002623252557 2.83853445e-05)
(0 0.0002386396749 3.855101061e-05)
(0 0.0002197643914 5.035949664e-05)
(0 0.0002046740759 6.200027039e-05)
(0 0.0001923776998 7.255472482e-05)
(0 0.0001820290737 8.162644722e-05)
(0 0.0001729306693 8.91620758e-05)
(0 0.0001645869723 9.530645335e-05)
(0 0.0001566854245 0.0001002387256)
(0 0.0001489897067 0.0001041494767)
(0 0.0001413816576 0.0001072140425)
(0 0.0001337812302 0.0001095467706)
(0 0.000126089324 0.0001112429541)
(0 0.0001182563876 0.0001124131308)
(0 0.0001102138091 0.0001131602132)
(0 0.0001019158508 0.0001136137993)
(0 9.334726614e-05 0.0001139034853)
(0 8.451186494e-05 0.0001141626767)
(0 7.545920035e-05 0.0001145209716)
(0 6.625407023e-05 0.0001150736613)
(0 5.701082284e-05 0.0001159084116)
(0 4.782475056e-05 0.000117063341)
(0 3.881782598e-05 0.0001185651311)
(0 3.009677456e-05 0.0001203718517)
(0 2.176832314e-05 0.0001224491999)
(0 1.3882023e-05 0.0001246866382)
(0 6.50267191e-06 0.0001269964963)
(0 -3.773531765e-07 0.0001292834853)
(0 -6.76567568e-06 0.000131429444)
(0 -1.27270935e-05 0.000133339079)
(0 -1.831115818e-05 0.0001349514062)
(0 -2.359410279e-05 0.000136197816)
(0 -2.866740647e-05 0.0001370135079)
(0 -3.362254919e-05 0.0001373260631)
(0 -3.860056203e-05 0.0001370249437)
(0 -4.384538979e-05 0.0001359957978)
(0 -4.968864655e-05 0.0001341014086)
(0 -5.664490494e-05 0.0001313227179)
(0 -6.54688703e-05 0.0001278312473)
(0 -7.701816449e-05 0.0001241491951)
(0 -9.234861429e-05 0.0001213971858)
(0 -0.0001125312912 0.0001215992024)
(0 -0.0001382103655 0.0001286774332)
(0 -0.0001672513145 0.0001506363396)
(0 -0.0001831687565 0.0002058518752)
(0 -0.0001004674245 0.0003398236878)
(0 -8.145492354e-06 0.0001797268392)
(0 0.0007111315902 -0.0002291334227)
(0 0.001341170364 -0.0003851251273)
(0 0.001264567677 -0.0003678240581)
(0 0.0006344488508 -0.0003117585218)
(0 -1.894389179e-06 9.106027663e-06)
(0 -5.694602516e-06 9.098404421e-06)
(0 -9.494815784e-06 9.09078107e-06)
(0 -1.329884074e-05 9.079346125e-06)
(0 -1.710286579e-05 9.05647629e-06)
(0 -2.091832558e-05 9.02598305e-06)
(0 -2.474522042e-05 8.995489864e-06)
(0 -2.857973873e-05 8.949750139e-06)
(0 -3.243331494e-05 8.896387009e-06)
(0 -3.629451461e-05 8.835400637e-06)
(0 -4.016714947e-05 8.762979373e-06)
(0 -4.407027704e-05 8.679123059e-06)
(0 -4.798865143e-05 8.583831853e-06)
(0 -5.192608439e-05 8.473294105e-06)
(0 -5.58863866e-05 8.343698014e-06)
(0 -5.988099397e-05 8.195043732e-06)
(0 -6.388322501e-05 8.031142905e-06)
(0 -6.792738342e-05 7.832937148e-06)
(0 -7.199822375e-05 7.61186155e-06)
(0 -7.608812277e-05 7.36029281e-06)
(0 -8.021994901e-05 7.078230795e-06)
(0 -8.438608055e-05 6.758052343e-06)
(0 -8.857889415e-05 6.395945798e-06)
(0 -9.281744647e-05 5.995722693e-06)
(0 -9.709030416e-05 5.534513255e-06)
(0 -0.0001013936556 5.02375242e-06)
(0 -0.0001057541806 4.444381856e-06)
(0 -0.0001101413878 3.804024951e-06)
(0 -0.0001145705237 3.079811802e-06)
(0 -0.0001190453981 2.271742355e-06)
(0 -0.0001235583896 1.372193369e-06)
(0 -0.000128124745 3.621065857e-07)
(0 -0.0001327406502 -7.623296495e-07)
(0 -0.0001373984844 -2.012550275e-06)
(0 -0.0001421020592 -3.399990257e-06)
(0 -0.0001468589953 -4.95895437e-06)
(0 -0.0001516540488 -6.689442674e-06)
(0 -0.0001565139013 -8.606701794e-06)
(0 -0.0001614194916 -1.075265971e-05)
(0 -0.0001663822576 -1.313875151e-05)
(0 -0.0001713869528 -1.578784714e-05)
(0 -0.0001764602556 -1.874187443e-05)
(0 -0.0001815716759 -2.204276181e-05)
(0 -0.0001867440837 -2.571337923e-05)
(0 -0.0001919660407 -2.981090094e-05)
(0 -0.0001972299269 -3.439250214e-05)
(0 -0.0002025281192 -3.951916927e-05)
(0 -0.0002078606139 -4.527094623e-05)
(0 -0.0002131854865 -5.173931331e-05)
(0 -0.0002184951138 -5.902718511e-05)
(0 -0.0002237285055 -6.724509838e-05)
(0 -0.0002288170559 -7.654933175e-05)
(0 -0.000233654039 -8.709997462e-05)
(0 -0.0002380755495 -9.907236125e-05)
(0 -0.0002418452701 -0.0001126418292)
(0 -0.0002446125269 -0.0001279799019)
(0 -0.0002458970522 -0.0001451971169)
(0 -0.0002449746333 -0.0001642515466)
(0 -0.0002407894437 -0.0001847848958)
(0 -0.0002316872275 -0.0002056879747)
(0 -0.0002151027459 -0.0002238276088)
(0 -0.0001887375751 -0.0002296899239)
(0 -0.0001610726319 -0.0001946570647)
(0 -4.460771952e-05 -7.518476182e-05)
(0 0.0001749851482 2.077729465e-05)
(0 0.0003013069829 7.677040749e-05)
(0 0.0003134585169 5.553571496e-05)
(0 0.0003065022607 3.803643809e-05)
(0 0.0002881911007 3.212838308e-05)
(0 0.0002671698606 3.42476595e-05)
(0 0.0002472463767 4.075795495e-05)
(0 0.0002296175021 4.921219052e-05)
(0 0.000214393779 5.812001248e-05)
(0 0.0002012397821 6.661236517e-05)
(0 0.0001897362265 7.42623428e-05)
(0 0.0001794257179 8.088698746e-05)
(0 0.0001699423381 8.647486431e-05)
(0 0.0001610345152 9.110220476e-05)
(0 0.0001524659299 9.489098312e-05)
(0 0.0001441146095 9.792505571e-05)
(0 0.0001358738251 0.0001003149586)
(0 0.0001276406649 0.0001021597963)
(0 0.0001193617656 0.0001035434253)
(0 0.0001109799504 0.0001045649464)
(0 0.0001024723515 0.0001053196527)
(0 9.379704063e-05 0.0001059142705)
(0 8.497307438e-05 0.0001064593355)
(0 7.603475924e-05 0.0001070463294)
(0 6.702402318e-05 0.0001077705432)
(0 5.802853292e-05 0.0001086815265)
(0 4.911308767e-05 0.0001098212093)
(0 4.038060178e-05 0.000111197215)
(0 3.189968418e-05 0.0001127981066)
(0 2.374656858e-05 0.0001145781463)
(0 1.59669946e-05 0.0001164877828)
(0 8.602890094e-06 0.0001184507809)
(0 1.650443691e-06 0.0001203870982)
(0 -4.897968027e-06 0.0001222205018)
(0 -1.10918964e-05 0.0001238861913)
(0 -1.6969458e-05 0.0001253117478)
(0 -2.261069754e-05 0.0001264514314)
(0 -2.809565923e-05 0.0001272556884)
(0 -3.354250458e-05 0.000127671158)
(0 -3.908082972e-05 0.0001276482889)
(0 -4.493933284e-05 0.0001271451506)
(0 -5.139626497e-05 0.0001261731803)
(0 -5.879848622e-05 0.0001248314809)
(0 -6.761482826e-05 0.000123413547)
(0 -7.828744335e-05 0.0001225178096)
(0 -9.113269849e-05 0.0001231962837)
(0 -0.0001060781707 0.0001271794554)
(0 -0.0001219536857 0.0001371774088)
(0 -0.0001351610477 0.0001571504465)
(0 -0.0001378292006 0.0001909368957)
(0 -0.0001242292397 0.0002316834154)
(0 1.408022871e-05 0.0002063359558)
(0 0.0004817656569 0.0002175307655)
(0 0.001007666389 -0.0004932844579)
(0 0.001246248895 -0.0004276783709)
(0 0.0006497488068 -0.0003889443988)
(0 -1.898200839e-06 9.582483751e-06)
(0 -5.698414198e-06 9.582483809e-06)
(0 -9.502439138e-06 9.571048807e-06)
(0 -1.331408741e-05 9.555802214e-06)
(0 -1.712573578e-05 9.540555678e-06)
(0 -2.095644219e-05 9.513874083e-06)
(0 -2.478333705e-05 9.4757576e-06)
(0 -2.862547868e-05 9.437641174e-06)
(0 -3.248667821e-05 9.38808969e-06)
(0 -3.635931285e-05 9.334726614e-06)
(0 -4.024719433e-05 9.269928649e-06)
(0 -4.415794521e-05 9.182260683e-06)
(0 -4.809156623e-05 9.090781125e-06)
(0 -5.204043415e-05 8.984055027e-06)
(0 -5.602360628e-05 8.862082228e-06)
(0 -6.003346026e-05 8.724862891e-06)
(0 -6.406999616e-05 8.560962066e-06)
(0 -6.812940118e-05 8.370379602e-06)
(0 -7.222692307e-05 8.156927298e-06)
(0 -7.635112696e-05 7.912981857e-06)
(0 -8.052106971e-05 7.64616643e-06)
(0 -8.472531775e-05 7.333611272e-06)
(0 -8.895624787e-05 6.975316376e-06)
(0 -9.324435164e-05 6.582716563e-06)
(0 -9.757438407e-05 6.136753715e-06)
(0 -0.0001019349103 5.629804529e-06)
(0 -0.0001063564217 5.065680551e-06)
(0 -0.0001108198618 4.432946938e-06)
(0 -0.0001153290424 3.723980382e-06)
(0 -0.000119899208 2.934969168e-06)
(0 -0.000124515114 2.039231825e-06)
(0 -0.000129184384 1.044391632e-06)
(0 -0.000133922262 -6.479802059e-08)
(0 -0.0001387173155 -1.29977206e-06)
(0 -0.0001435733563 -2.675777102e-06)
(0 -0.0001484941933 -4.211871339e-06)
(0 -0.0001534836409 -5.92711306e-06)
(0 -0.0001585416991 -7.836748891e-06)
(0 -0.0001636798 -9.95983693e-06)
(0 -0.0001688941349 -1.231924721e-05)
(0 -0.0001741885153 -1.49569079e-05)
(0 -0.000179578185 -1.788806533e-05)
(0 -0.0001850593352 -2.115083625e-05)
(0 -0.0001906281544 -2.480239544e-05)
(0 -0.0001963036976 -2.8869424e-05)
(0 -0.0002020897796 -3.342434368e-05)
(0 -0.0002079864008 -3.853576424e-05)
(0 -0.0002139897455 -4.426848301e-05)
(0 -0.0002200998177 -5.074066177e-05)
(0 -0.0002263051825 -5.80514035e-05)
(0 -0.0002325905891 -6.634936144e-05)
(0 -0.000238898867 -7.58060608e-05)
(0 -0.0002451499716 -8.662733076e-05)
(0 -0.0002512028676 -9.90456803e-05)
(0 -0.0002568250493 -0.0001133507965)
(0 -0.0002616620311 -0.0001298476103)
(0 -0.0002651535008 -0.0001488486769)
(0 -0.0002664227796 -0.0001706436817)
(0 -0.0002639947598 -0.000195480382)
(0 -0.0002549763999 -0.0002237056374)
(0 -0.0002320150306 -0.000256058908)
(0 -0.0001748326833 -0.0002917969224)
(0 -6.698209517e-05 -0.0003010287343)
(0 9.593918714e-05 -0.0001093828706)
(0 0.0002332309466 2.14976963e-05)
(0 0.0002882711476 3.384362505e-05)
(0 0.0003036663944 3.507478738e-05)
(0 0.0003004874815 3.284497334e-05)
(0 0.000287665095 3.273824699e-05)
(0 0.0002709586406 3.571133264e-05)
(0 0.0002536003959 4.099808904e-05)
(0 0.0002371226389 4.758080536e-05)
(0 0.0002220780632 5.461710806e-05)
(0 0.0002085238432 6.151238015e-05)
(0 0.0001962960743 6.791213723e-05)
(0 0.0001851431914 7.362198634e-05)