/*--------------------------------*- C++ -*----------------------------------*\
  =========                 |
  \\      /  F ield         | OpenFOAM: The Open Source CFD Toolbox
   \\    /   O peration     | Website:  https://openfoam.org
    \\  /    A nd           | Version:  6
     \\/     M anipulation  |
\*---------------------------------------------------------------------------*/
FoamFile
{
    version     2.0;
    format      ascii;
    class       volScalarField;
    location    "0.0013";
    object      TRHS;
}
// * * * * * * * * * * * * * * * * * * * * * * * * * * * * * * * * * * * * * //

dimensions      [1 -1 -3 0 0 0 0];

internalField   nonuniform List<scalar> 
9600
(
5.742532001e-10
5.53736149e-10
5.548411206e-10
5.661842746e-10
6.005858181e-10
6.412135669e-10
6.747989375e-10
7.093589113e-10
7.338798171e-10
7.578205883e-10
7.712268714e-10
7.844830711e-10
7.878888008e-10
7.920312368e-10
7.869968971e-10
7.83442358e-10
7.713670771e-10
7.61537453e-10
7.436272424e-10
7.280012047e-10
7.035182471e-10
6.800463013e-10
6.460917575e-10
6.115554095e-10
5.645790976e-10
5.139333981e-10
4.4528416e-10
3.641826798e-10
2.52940829e-10
1.146093084e-10
-7.075141166e-11
-3.034397695e-10
-6.097946302e-10
-9.999393897e-10
-1.511956818e-09
-2.167488091e-09
-3.015347929e-09
-4.089188765e-09
-5.453809282e-09
-7.162977835e-09
-9.302675307e-09
-1.1945404e-08
-1.519366579e-08
-1.913934032e-08
-2.391255753e-08
-2.964285097e-08
-3.650273246e-08
-4.466154086e-08
-5.43252623e-08
-6.569540582e-08
-7.901931585e-08
-9.455199375e-08
-1.12599942e-07
-1.334775843e-07
-1.575638636e-07
-1.852928998e-07
-2.173001209e-07
-2.546333546e-07
-2.992056372e-07
-3.535727589e-07
-4.184954438e-07
-4.821709158e-07
-4.939185013e-07
-4.028703985e-07
-2.509099908e-07
-9.840811276e-07
-0.001635097833
1294.970118
0
0
0
0
0
0
0
0
0
0
0
0
0
0
0
0
0
0
0
0
0
0
0
0
0
0
0
0
0
0
0
0
0
0
0
0
0
0
0
0
0
0
0
0
771.6914609
-0.0009749564902
2.584573228e-07
5.686755574e-07
3.904042449e-07
7.056612212e-10
-2.630657877e-07
-3.490642379e-08
6.216334005e-10
5.916833163e-10
5.865870584e-10
5.905152208e-10
6.208251168e-10
6.558255928e-10
6.87149028e-10
7.176579699e-10
7.413169676e-10
7.624074327e-10
7.759949985e-10
7.871563171e-10
7.912827237e-10
7.935993183e-10
7.894569925e-10
7.842096554e-10
7.731927949e-10
7.61733437e-10
7.447628705e-10
7.270619621e-10
7.029192949e-10
6.767964679e-10
6.428189364e-10
6.05324651e-10
5.575825359e-10
5.020800584e-10
4.292282817e-10
3.383931791e-10
2.173637678e-10
6.352616629e-11
-1.379019112e-10
-3.94434482e-10
-7.291287824e-10
-1.160343797e-09
-1.72232065e-09
-2.443413701e-09
-3.367563094e-09
-4.535271088e-09
-6.006635501e-09
-7.84079439e-09
-1.011491222e-08
-1.290150298e-08
-1.628922932e-08
-2.036548963e-08
-2.524064552e-08
-3.102960329e-08
-3.787021613e-08
-4.589992247e-08
-5.527508124e-08
-6.61556709e-08
-7.873195526e-08
-9.32066438e-08
-1.098099149e-07
-1.287662245e-07
-1.502869659e-07
-1.745232146e-07
-2.016620688e-07
-2.323365926e-07
-2.68759587e-07
-3.166102156e-07
-3.859447476e-07
-4.746933698e-07
-5.072357868e-07
-4.708523584e-07
7.090755521e-07
-0.005374343977
2131.937268
0
0
0
0
0
0
0
0
0
0
0
0
0
0
0
0
0
0
0
0
0
0
0
0
0
0
0
0
0
0
0
0
0
0
0
0
0
0
0
0
0
0
0
0
0
0
1865.889429
-0.004703113446
8.667460896e-07
2.624863087e-07
4.474312719e-08
-3.120320372e-07
-7.327075276e-08
6.715217746e-10
6.310974547e-10
6.200595344e-10
6.160193597e-10
6.424370242e-10
6.712172654e-10
7.005279929e-10
7.26425448e-10
7.495313173e-10
7.672328841e-10
7.813162698e-10
7.898600376e-10
7.950251156e-10
7.949999384e-10
7.921146441e-10
7.846644284e-10
7.750724094e-10
7.614744958e-10
7.458385725e-10
7.256422467e-10
7.023669959e-10
6.732444258e-10
6.397325071e-10
5.986879994e-10
5.503331254e-10
4.89079652e-10
4.119873264e-10
3.105282364e-10
1.796819346e-10
9.16078933e-12
-2.091732414e-10
-4.919888318e-10
-8.573673845e-10
-1.333633427e-09
-1.949552401e-09
-2.742246596e-09
-3.749425206e-09
-5.020330679e-09
-6.608769761e-09
-8.580857367e-09
-1.1003727e-08
-1.395157046e-08
-1.749743965e-08
-2.172392493e-08
-2.671706158e-08
-3.257412214e-08
-3.939210484e-08
-4.727275154e-08
-5.631589049e-08
-6.663430739e-08
-7.83535711e-08
-9.162345687e-08
-1.066052062e-07
-1.234494094e-07
-1.421985155e-07
-1.626274058e-07
-1.840597608e-07
-2.054329355e-07
-2.261627308e-07
-2.513826449e-07
-3.009294892e-07
-4.239150216e-07
-6.49260084e-07
3.76997827e-07
9.661096507e-07
-0.05127554191
5154.293148
0
0
0
0
0
0
0
0
0
0
0
0
0
0
0
0
0
0
0
0
0
0
0
0
0
0
0
0
0
0
0
0
0
0
0
0
0
0
0
0
0
0
0
0
0
0
4637.231481
-0.04872392666
1.952935134e-06
1.509546085e-06
5.898089723e-08
-3.071837319e-07
-4.329882154e-08
7.224501574e-10
6.735023994e-10
6.533598318e-10
6.433610899e-10
6.6290192e-10
6.876737063e-10
7.121151841e-10
7.357897588e-10
7.555814371e-10
7.724252398e-10
7.842737192e-10
7.927635732e-10
7.962017308e-10
7.964676078e-10
7.920662488e-10
7.851186646e-10
7.742055971e-10
7.612336736e-10
7.441859337e-10
7.243502142e-10
6.992443594e-10
6.700441904e-10
6.342372802e-10
5.924335121e-10
5.40382706e-10
4.758479995e-10
3.912773329e-10
2.81733699e-10
1.37932105e-10
-4.68283069e-11
-2.858521895e-10
-5.937638464e-10
-9.952711326e-10
-1.517138179e-09
-2.194143417e-09
-3.06092808e-09
-4.160856512e-09
-5.541010578e-09
-7.260628294e-09
-9.381850182e-09
-1.197327827e-08
-1.509992009e-08
-1.883010627e-08
-2.322953295e-08
-2.836852652e-08
-3.431216108e-08
-4.112256655e-08
-4.884911149e-08
-5.753805853e-08
-6.723455889e-08
-7.800105774e-08
-8.992344402e-08
-1.031249139e-07
-1.177313096e-07
-1.337516296e-07
-1.507548346e-07
-1.671939898e-07
-1.787987152e-07
-1.760555676e-07
-1.376052726e-07
-2.295313595e-08
1.986019731e-07
1.182253185e-07
2.754519359e-07
-2.413717098e-06
15187.05576
0
0
0
0
0
0
0
0
0
0
0
0
0
0
0
0
0
0
0
0
0
0
0
0
0
0
0
0
0
0
0
0
0
0
0
0
0
0
0
0
0
0
0
0
0
0
0
0
14691.51385
-1.789674931e-06
2.26850911e-06
8.103216572e-07
1.894737527e-07
1.09756111e-07
7.765286259e-10
7.167913045e-10
6.885544454e-10
6.707613432e-10
6.846269535e-10
7.036542004e-10
7.245510625e-10
7.443837309e-10
7.623050103e-10
7.766518742e-10
7.87728216e-10
7.944998206e-10
7.976852154e-10
7.965623561e-10
7.921895754e-10
7.841298258e-10
7.735117954e-10
7.595741982e-10
7.428085758e-10
7.21767508e-10
6.965604884e-10
6.657192009e-10
6.292617843e-10
5.848943269e-10
5.305765975e-10
4.608096307e-10
3.70202899e-10
2.508030314e-10
9.566812265e-11
-1.052920996e-10
-3.641229186e-10
-7.004187836e-10
-1.138796332e-09
-1.711132662e-09
-2.451479862e-09
-3.399009139e-09
-4.596599772e-09
-6.096551191e-09
-7.957563426e-09
-1.024492444e-08
-1.302279071e-08
-1.635401471e-08
-2.029606911e-08
-2.490379497e-08
-3.022409858e-08
-3.629366419e-08
-4.312963628e-08
-5.072905895e-08
-5.90689654e-08
-6.811833098e-08
-7.78525085e-08
-8.828486902e-08
-9.950264108e-08
-1.116898151e-07
-1.250783449e-07
-1.397439576e-07
-1.548714518e-07
-1.668216744e-07
-1.631563946e-07
-1.104482459e-07
6.479597673e-08
4.172033383e-07
1.225409622e-06
-0.004185033169
1660.084553
0
0
0
0
0
0
0
0
0
0
0
0
0
0
0
0
0
0
0
0
0
0
0
0
0
0
0
0
0
0
0
0
0
0
0
0
0
0
0
0
0
0
0
0
0
0
0
0
0
0
1129.230412
-0.002845804361
1.503943929e-06
-1.879852588e-07
-1.413245972e-07
8.323449142e-10
7.62134889e-10
7.244034162e-10
6.992807723e-10
7.063439019e-10
7.202816998e-10
7.366894547e-10
7.534568112e-10
7.685575783e-10
7.812423493e-10
7.905271295e-10
7.963906386e-10
7.983089529e-10
7.966699028e-10
7.913918788e-10
7.831659984e-10
7.719492215e-10
7.580387516e-10
7.40660483e-10
7.194287883e-10
6.932431901e-10
6.617334314e-10
6.236322197e-10
5.775363994e-10
5.197818046e-10
4.456056906e-10
3.479993366e-10
2.198692558e-10
5.260722227e-11
-1.637001729e-10
-4.440483862e-10
-8.09217633e-10
-1.287556191e-09
-1.912066089e-09
-2.720021506e-09
-3.751727935e-09
-5.054137853e-09
-6.681735727e-09
-8.697205121e-09
-1.116608342e-08
-1.415271697e-08
-1.771528869e-08
-2.190513349e-08
-2.676343457e-08
-3.231749611e-08
-3.857163925e-08
-4.549950141e-08
-5.303743791e-08
-6.108521042e-08
-6.951256545e-08
-7.818025512e-08
-8.698308047e-08
-9.592132355e-08
-1.051969147e-07
-1.15346223e-07
-1.273802077e-07
-1.426246875e-07
-1.605828159e-07
-1.729570616e-07
-1.339212402e-07
2.244841437e-08
1.220587974e-06
1.703305638e-06
-0.01653044652
5404.378824
0
0
0
0
0
0
0
0
0
0
0
0
0
0
0
0
0
0
0
0
0
0
0
0
0
0
0
0
0
0
0
0
0
0
0
0
0
0
0
0
0
0
0
0
0
0
0
0
0
0
4327.136675
-0.01090795825
3.925892997e-06
7.936742486e-07
-3.531815442e-07
8.902895959e-10
8.084558969e-10
7.611662664e-10
7.280576204e-10
7.284304521e-10
7.368024796e-10
7.489908297e-10
7.622662847e-10
7.748869177e-10
7.854311429e-10
7.932589664e-10
7.977097198e-10
7.98729842e-10
7.961490994e-10
7.904041946e-10
7.816747312e-10
7.703410258e-10
7.560986903e-10
7.385643196e-10
7.167510266e-10
6.900257766e-10
6.574169654e-10
6.180580363e-10
5.697297489e-10
5.089418322e-10
4.299668691e-10
3.260343873e-10
1.890974502e-10
1.042843659e-11
-2.216904718e-10
-5.236928503e-10
-9.193407663e-10
-1.438865409e-09
-2.11796744e-09
-2.995616576e-09
-4.115456559e-09
-5.527709693e-09
-7.291607973e-09
-9.473097437e-09
-1.214046816e-08
-1.535802945e-08
-1.918257501e-08
-2.366006756e-08
-2.88220075e-08
-3.467726402e-08
-4.120133655e-08
-4.832411187e-08
-5.592030426e-08
-6.380307141e-08
-7.172410468e-08
-7.93902194e-08
-8.650868054e-08
-9.286911801e-08
-9.847965522e-08
-1.038356626e-07
-1.104229446e-07
-1.208538339e-07
-1.381872039e-07
-1.48972866e-07
-7.246540008e-08
1.045790577e-07
1.123753951e-06
8.675771193e-07
1153.460649
0
0
0
0
0
0
0
0
0
0
0
0
0
0
0
0
0
0
0
0
0
0
0
0
0
0
0
0
0
0
0
0
0
0
0
0
0
0
0
0
0
0
0
0
0
0
0
0
0
0
0
0
-0.1846255101
2.105396581e-06
1.930914783e-06
-4.237417462e-07
9.495249646e-10
8.557001171e-10
7.98197436e-10
7.56937835e-10
7.50295617e-10
7.531505084e-10
7.609242077e-10
7.708612789e-10
7.807851833e-10
7.893155862e-10
7.954388956e-10
7.986487295e-10
7.985712794e-10
7.953011642e-10
7.889986254e-10
7.80035682e-10
7.684789617e-10
7.54119145e-10
7.362447256e-10
7.140354385e-10
6.865619394e-10
6.530565124e-10
6.122459607e-10
5.619211696e-10
4.980070169e-10
4.147242214e-10
3.046847053e-10
1.596402937e-10
-3.026272903e-11
-2.779827527e-10
-6.02280642e-10
-1.028984114e-09
-1.590815075e-09
-2.325372424e-09
-3.274365356e-09
-4.484708765e-09
-6.011446134e-09
-7.91868119e-09
-1.027719779e-08
-1.315858054e-08
-1.662948279e-08
-2.074731122e-08
-2.555659182e-08
-3.108287941e-08
-3.732213767e-08
-4.422652574e-08
-5.16882967e-08
-5.952421901e-08
-6.745957167e-08
-7.511752627e-08
-8.202304518e-08
-8.763473438e-08
-9.140457217e-08
-9.288507157e-08
-9.198893224e-08
-8.95662608e-08
-9.009917464e-08
-1.046941109e-07
-1.603190234e-07
-2.512690692e-07
2.291839838e-07
7.689699796e-07
-0.02765247989
4270.465397
0
0
0
0
0
0
0
0
0
0
0
0
0
0
0
0
0
0
0
0
0
0
0
0
0
0
0
0
0
0
0
0
0
0
0
0
0
0
0
0
0
0
0
0
0
0
0
0
0
0
0
0
1533.943332
-0.003867609724
4.177207052e-06
-3.438828913e-07
1.009472172e-09
9.029001557e-10
8.349084943e-10
7.852477782e-10
7.715561424e-10
7.687877655e-10
7.722317491e-10
7.787565971e-10
7.860712723e-10
7.925028819e-10
7.970262033e-10
7.989312685e-10
7.97946929e-10
7.940174507e-10
7.87375884e-10
7.781969784e-10
7.665348226e-10
7.519681955e-10
7.338006941e-10
7.110699771e-10
6.82936752e-10
6.484896965e-10
6.064308851e-10
5.541965679e-10
4.875506135e-10
4.002691881e-10
2.847309609e-10
1.320153006e-10
-6.865462876e-11
-3.319394357e-10
-6.785649897e-10
-1.136633945e-09
-1.740815366e-09
-2.530917174e-09
-3.551438754e-09
-4.853570367e-09
-6.497695348e-09
-8.553893806e-09
-1.109831025e-08
-1.420727607e-08
-1.795169309e-08
-2.239298578e-08
-2.757875975e-08
-3.353464829e-08
-4.025134169e-08
-4.766700367e-08
-5.564780128e-08
-6.396469329e-08
-7.226674986e-08
-8.005386197e-08
-8.666433123e-08
-9.128609542e-08
-9.299011542e-08
-9.074866752e-08
-8.323191793e-08
-6.78788135e-08
-3.694328024e-08
3.029003501e-08
1.792279114e-07
-1.549013098e-07
5.321808584e-07
-1.872194755e-06
6698.94614
0
0
0
0
0
0
0
0
0
0
0
0
0
0
0
0
0
0
0
0
0
0
0
0
0
0
0
0
0
0
0
0
0
0
0
0
0
0
0
0
0
0
0
0
0
0
0
0
0
0
0
0
0
0
-0.2400292382
4.140367694e-06
-0.05859485617
1.069017132e-09
9.492967411e-10
8.704237453e-10
8.122702638e-10
7.914415731e-10
7.831562099e-10
7.822961305e-10
7.855414296e-10
7.902760658e-10
7.947237281e-10
7.977114442e-10
7.98499981e-10
7.967458129e-10
7.923736925e-10
7.85486837e-10
7.762073833e-10
7.643955313e-10
7.496111455e-10
7.310418256e-10
7.07816729e-10
6.79050187e-10
6.438343769e-10
6.006925055e-10
5.469100815e-10
4.778670641e-10
3.871260998e-10
2.665882242e-10
1.067411197e-10
-1.04353446e-10
-3.829255733e-10
-7.516619748e-10
-1.240544824e-09
-1.886184353e-09
-2.730618661e-09
-3.821711748e-09
-5.215422971e-09
-6.978192264e-09
-9.186455807e-09
-1.192255655e-08
-1.526888124e-08
-1.930295369e-08
-2.409393053e-08
-2.969748793e-08
-3.614649788e-08
-4.343569972e-08
-5.150279387e-08
-6.020504088e-08
-6.929012286e-08
-7.835579497e-08
-8.68036744e-08
-9.379906006e-08
-9.826453805e-08
-9.896094201e-08
-9.477371557e-08
-8.526824266e-08
-7.042012732e-08
-4.741791479e-08
7.930975023e-09
1.888523601e-07
5.272031122e-07
1.594919212e-06
1.577353782e-06
-0.009267060189
0
0
0
0
0
0
0
0
0
0
0
0
0
0
0
0
0
0
0
0
0
0
0
0
0
0
0
0
0
0
0
0
0
0
0
0
0
0
0
0
0
0
0
0
0
0
0
0
0
0
0
0
0
0
-0.06320962147
-1.59385737e-07
-0.0314333357
1.126817191e-09
9.933759164e-10
9.035280712e-10
8.368692063e-10
8.090378798e-10
7.953559808e-10
7.904122631e-10
7.905226066e-10
7.928994353e-10
7.955667603e-10
7.972656504e-10
7.971787566e-10
7.949202074e-10
7.90287973e-10
7.833043997e-10
7.739167047e-10
7.619473983e-10
7.468388433e-10
7.278759724e-10
7.041707991e-10
6.749317588e-10
6.391771767e-10
5.953060085e-10
5.402979886e-10
4.693179215e-10
3.755301878e-10
2.504791211e-10
8.393026093e-11
-1.371232549e-10
-4.304470809e-10
-8.204539728e-10
-1.338866643e-09
-2.024072727e-09
-2.920540279e-09
-4.079860221e-09
-5.563306497e-09
-7.443710117e-09
-9.804217013e-09
-1.273382448e-08
-1.632214815e-08
-2.065570558e-08
-2.581491238e-08
-3.18689031e-08
-3.886474543e-08
-4.681191697e-08
-5.566261828e-08
-6.528854957e-08
-7.544663846e-08
-8.572729613e-08
-9.547880745e-08
-1.03708779e-07
-1.089668881e-07
-1.092870302e-07
-1.025086643e-07
-8.763522033e-08
-6.916323607e-08
-6.380472029e-08
-1.051242693e-07
-1.189375463e-07
1.252389501e-06
2.354452847e-06
-0.06628732133
18517.92171
0
0
0
0
0
0
0
0
0
0
0
0
0
0
0
0
0
0
0
0
0
0
0
0
0
0
0
0
0
0
0
0
0
0
0
0
0
0
0
0
0
0
0
0
0
0
0
0
0
0
0
0
0
0
12095.21579
-0.03049019452
-8.128528217e-07
1.180959504e-09
1.03356202e-09
9.325934882e-10
8.576103553e-10
8.230004896e-10
8.042609469e-10
7.955614308e-10
7.929379132e-10
7.933033886e-10
7.945878524e-10
7.95371397e-10
7.948087497e-10
7.923216427e-10
7.87650817e-10
7.806366656e-10
7.711535952e-10
7.589359486e-10
7.435029291e-10
7.241563312e-10
7.001492635e-10
6.706738665e-10
6.347084836e-10
5.904156368e-10
5.345613038e-10
4.619612083e-10
3.655194939e-10
2.363480194e-10
6.357617793e-11
-1.668545563e-10
-4.74044702e-10
-8.839016211e-10
-1.429679107e-09
-2.151571189e-09
-3.096710325e-09
-4.320748817e-09
-5.890458713e-09
-7.885055345e-09
-1.039433642e-08
-1.351429149e-08
-1.734288472e-08
-2.197755591e-08
-2.751309715e-08
-3.403604171e-08
-4.161400003e-08
-5.028041971e-08
-6.001805276e-08
-7.073844033e-08
-8.225115485e-08
-9.420893475e-08
-1.06014044e-07
-1.16646732e-07
-1.243347876e-07
-1.259236303e-07
-1.157830014e-07
-8.422436829e-08
-1.665330159e-08
1.092812443e-07
3.245564543e-07
2.646737998e-07
7.809346438e-07
-1.408487786e-06
7778.385768
0
0
0
0
0
0
0
0
0
0
0
0
0
0
0
0
0
0
0
0
0
0
0
0
0
0
0
0
0
0
0
0
0
0
0
0
0
0
0
0
0
0
0
0
0
0
0
0
0
0
0
0
0
0
0
0
1198.276722
-0.01059671338
1.228987009e-09
1.067326835e-09
9.554565712e-10
8.725205124e-10
8.316399239e-10
8.083939948e-10
7.965605436e-10
7.917843282e-10
7.90789408e-10
7.912706844e-10
7.917241685e-10
7.910965867e-10
7.887431108e-10
7.841996337e-10
7.772279939e-10
7.676295398e-10
7.551645182e-10
7.394472217e-10
7.198893825e-10
6.958171611e-10
6.664320873e-10
6.30555135e-10
5.861559118e-10
5.296824668e-10
4.557246431e-10
3.568874402e-10
2.239632195e-10
4.549416323e-11
-1.934236149e-10
-5.131100745e-10
-9.407706276e-10
-1.511087656e-09
-2.266088425e-09
-3.25569923e-09
-4.53974769e-09
-6.190452441e-09
-8.293120547e-09
-1.094388144e-08
-1.424576165e-08
-1.830567943e-08
-2.323343566e-08
-2.913999967e-08
-3.613208833e-08
-4.430140682e-08
-5.371206048e-08
-6.438851829e-08
-7.630426793e-08
-8.936324636e-08
-1.033667817e-07
-1.179515203e-07
-1.324604651e-07
-1.456272751e-07
-1.547896721e-07
-1.539185928e-07
-1.291696618e-07
-4.879165023e-08
1.525249092e-07
5.627128271e-07
2.301633196e-07
1.386317563e-06
-8.281612873e-07
-0.5625962439
0
0
0
0
0
0
0
0
0
0
0
0
0
0
0
0
0
0
0
0
0
0
0
0
0
0
0
0
0
0
0
0
0
0
0
0
0
0
0
0
0
0
0
0
0
0
0
0
0
0
0
0
0
0
0
0
-0.3421671778
-0.001748194708
1.267600887e-09
1.091721615e-09
9.692948394e-10
8.791023076e-10
8.32758254e-10
8.059571304e-10
7.919407861e-10
7.859974985e-10
7.845366892e-10
7.850673319e-10
7.858645682e-10
7.857515925e-10
7.838592901e-10
7.796405556e-10
7.72768196e-10
7.630872986e-10
7.504638184e-10
7.346326243e-10
7.151362762e-10
6.913327886e-10
6.623185271e-10
6.267820458e-10
5.824149654e-10
5.254572411e-10
4.502657759e-10
3.492895026e-10
2.130457358e-10
2.963516628e-11
-2.166376515e-10
-5.470504651e-10
-9.89982415e-10
-1.581463287e-09
-2.365432361e-09
-3.394671754e-09
-4.73307767e-09
-6.45784218e-09
-8.659700546e-09
-1.144057874e-08
-1.491035407e-08
-1.918528964e-08
-2.438796462e-08
-3.064612044e-08
-3.808685673e-08
-4.682687814e-08
-5.696231374e-08
-6.856298988e-08
-8.167042606e-08
-9.62978184e-08
-1.124316612e-07
-1.300467721e-07
-1.491444754e-07
-1.698119445e-07
-1.922321304e-07
-2.162557592e-07
-2.388890891e-07
-2.45663246e-07
-1.845917126e-07
1.029635378e-07
1.658531909e-06
3.330878431e-06
-0.03520213208
13965.70375
0
0
0
0
0
0
0
0
0
0
0
0
0
0
0
0
0
0
0
0
0
0
0
0
0
0
0
0
0
0
0
0
0
0
0
0
0
0
0
0
0
0
0
0
0
0
0
0
0
0
0
0
0
0
0
0
25082.7081
-0.1147723256
1.292559513e-09
1.102541572e-09
9.703848606e-10
8.741018845e-10
8.236629462e-10
7.94740112e-10
7.800186776e-10
7.743023242e-10
7.736535607e-10
7.753146656e-10
7.773352983e-10
7.783224072e-10
7.772920344e-10
7.735917371e-10
7.669555552e-10
7.573371717e-10
7.447886391e-10
7.291510538e-10
7.100617736e-10
6.868058138e-10
6.583946335e-10
6.232682941e-10
5.789617811e-10
5.215151552e-10
4.452022005e-10
3.423674898e-10
2.033923152e-10
1.597998543e-11
-2.361548836e-10
-5.75198789e-10
-1.030569056e-09
-1.639652059e-09
-2.448214176e-09
-3.511785136e-09
-4.897887553e-09
-6.688015058e-09
-8.977496144e-09
-1.187330761e-08
-1.549180761e-08
-1.99583139e-08
-2.54079343e-08
-3.198423542e-08
-3.983337426e-08
-4.909481044e-08
-5.989391785e-08
-7.234022437e-08
-8.653214152e-08
-1.025656557e-07
-1.205552654e-07
-1.406890919e-07
-1.633681666e-07
-1.895209159e-07
-2.212798034e-07
-2.631182239e-07
-3.234345882e-07
-4.110580767e-07
-5.112204994e-07
-4.778035283e-07
1.245967278e-06
3.238946137e-06
-0.06428746348
16739.66293
0
0
0
0
0
0
0
0
0
0
0
0
0
0
0
0
0
0
0
0
0
0
0
0
0
0
0
0
0
0
0
0
0
0
0
0
0
0
0
0
0
0
0
0
0
0
0
0
0
0
0
0
0
0
0
0
-0.1586430943
-2.088435165e-06
1.298233366e-09
1.094682186e-09
9.540338612e-10
8.53496202e-10
8.010423385e-10
7.721801559e-10
7.588746685e-10
7.553233595e-10
7.571720913e-10
7.613138841e-10
7.655701506e-10
7.683598881e-10
7.686063589e-10
7.657299172e-10
7.595854855e-10
7.50337125e-10
7.381957592e-10
7.231463193e-10
7.047768575e-10
6.822911387e-10
6.545101007e-10
6.197376414e-10
5.753675753e-10
5.174221542e-10
4.401470633e-10
3.35908034e-10
1.94957812e-10
4.728823894e-12
-2.516615054e-10
-5.971178569e-10
-1.062070668e-09
-1.685127696e-09
-2.513813721e-09
-3.606039915e-09
-5.03232872e-09
-6.877497939e-09
-9.240471224e-09
-1.223250014e-08
-1.597584284e-08
-2.060429595e-08
-2.626427417e-08
-3.311326014e-08
-4.131363357e-08
-5.102429243e-08
-6.239495742e-08
-7.556703041e-08
-9.067871116e-08
-1.078722131e-07
-1.273042334e-07
-1.491748948e-07
-1.737952088e-07
-2.017343515e-07
-2.340773185e-07
-2.727305775e-07
-3.202417187e-07
-3.708555425e-07
-3.782242917e-07
-5.426584331e-07
1.155089204e-07
-1.600246239e-06
8763.625254
0
0
0
0
0
0
0
0
0
0
0
0
0
0
0
0
0
0
0
0
0
0
0
0
0
0
0
0
0
0
0
0
0
0
0
0
0
0
0
0
0
0
0
0
0
0
0
0
0
0
0
0
0
0
0
0
0
0
-0.4203112882
1.277366637e-09
1.061127058e-09
9.141659876e-10
8.122411945e-10
7.609244806e-10
7.353088335e-10
7.263655708e-10
7.275674305e-10
7.340409816e-10
7.423248617e-10
7.49987421e-10
7.553757517e-10
7.574668367e-10
7.558305934e-10
7.505880474e-10
7.421507393e-10
7.308765273e-10
7.16773122e-10
6.993581495e-10
6.776663755e-10
6.503892764e-10
6.157656467e-10
5.712247279e-10
5.128218754e-10
4.349107326e-10
3.298662114e-10
1.878731868e-10
-3.949301641e-12
-2.629115145e-10
-6.126684388e-10
-1.084475289e-09
-1.718071968e-09
-2.562414004e-09
-3.677251809e-09
-5.135256466e-09
-7.023560407e-09
-9.443674172e-09
-1.251029842e-08
-1.635082251e-08
-2.110641523e-08
-2.693300987e-08
-3.399927542e-08
-4.248050142e-08
-5.255123133e-08
-6.438178639e-08
-7.814036453e-08
-9.399852328e-08
-1.121338732e-07
-1.32731099e-07
-1.559847009e-07
-1.821114594e-07
-2.113791021e-07
-2.441146624e-07
-2.807226248e-07
-3.207983732e-07
-3.570772086e-07
-3.780345145e-07
-1.109708907e-06
-1.151418052e-06
-1.793112064e-06
-0.4379376621
0
0
0
0
0
0
0
0
0
0
0
0
0
0
0
0
0
0
0
0
0
0
0
0
0
0
0
0
0
0
0
0
0
0
0
0
0
0
0
0
0
0
0
0
0
0
0
0
0
0
0
0
0
0
0
0
0
0
0
1.220250874e-09
9.930993648e-10
8.431487929e-10
7.441970482e-10
6.986661879e-10
6.807949052e-10
6.802423186e-10
6.895666435e-10
7.032841446e-10
7.17638602e-10
7.300808783e-10
7.390324524e-10
7.436592858e-10
7.43876786e-10
7.400922229e-10
7.329877723e-10
7.230147577e-10
7.101363978e-10
6.937110133e-10
6.72662223e-10
6.456414903e-10
6.109648591e-10
5.661856791e-10
5.075626289e-10
4.294984633e-10
3.244042714e-10
1.823059683e-10
-9.895128947e-12
-2.700053173e-10
-6.221868211e-10
-1.09842014e-09
-1.739264329e-09
-2.594722275e-09
-3.725685035e-09
-5.206045904e-09
-7.124196886e-09
-9.583309853e-09
-1.270069978e-08
-1.660796081e-08
-2.145206702e-08
-2.7395993e-08
-3.461624545e-08
-4.329716473e-08
-5.362526976e-08
-6.578785611e-08
-7.997761733e-08
-9.639916299e-08
-1.152744065e-07
-1.368470007e-07
-1.613974656e-07
-1.892883213e-07
-2.210967584e-07
-2.57949448e-07
-3.023884674e-07
-3.59757748e-07
-4.380160248e-07
-5.352905486e-07
-3.863208291e-07
-5.540600685e-07
-0.007664418533
3040.379953
0
0
0
0
0
0
0
0
0
0
0
0
0
0
0
0
0
0
0
0
0
0
0
0
0
0
0
0
0
0
0
0
0
0
0
0
0
0
0
0
0
0
0
0
0
0
0
0
0
0
0
0
0
0
0
0
0
0
0
1.11408972e-09
8.787008074e-10
7.311742983e-10
6.418800148e-10
6.089837774e-10
6.051276844e-10
6.182914195e-10
6.399249008e-10
6.640665928e-10
6.867517823e-10
7.055789094e-10
7.19198014e-10
7.272386152e-10
7.300233036e-10
7.28355149e-10
7.231023651e-10
7.147692609e-10
7.031926104e-10
6.876216224e-10
6.669194862e-10
6.398849314e-10
6.050259898e-10
5.60176401e-10
5.017247677e-10
4.241466871e-10
3.197385705e-10
1.783861733e-10
-1.329437416e-11
-2.733732605e-10
-6.264438539e-10
-1.104896963e-09
-1.749819504e-09
-2.611650928e-09
-3.751731598e-09
-5.244225313e-09
-7.177899072e-09
-9.656697508e-09
-1.279974868e-08
-1.674160116e-08
-2.163308889e-08
-2.764115306e-08
-3.494614045e-08
-4.373692215e-08
-5.420706777e-08
-6.655595081e-08
-8.099499465e-08
-9.775652708e-08
-1.17101723e-07
-1.393310066e-07
-1.6480258e-07
-1.939637186e-07
-2.27388113e-07
-2.657645036e-07
-3.096457572e-07
-3.580351974e-07
-4.035480452e-07
-4.19395529e-07
-2.968805852e-07
-2.307331676e-08
-0.003093964222
1227.451359
0
0
0
0
0
0
0
0
0
0
0
0
0
0
0
0
0
0
0
0
0
0
0
0
0
0
0
0
0
0
0
0
0
0
0
0
0
0
0
0
0
0
0
0
0
0
0
0
0
0
0
0
0
0
0
0
0
0
0
9.412056047e-10
7.024669816e-10
5.659149645e-10
4.965099394e-10
4.861156561e-10
5.049031393e-10
5.386347043e-10
5.777766028e-10
6.160121258e-10
6.495971542e-10
6.765428697e-10
6.961121523e-10
7.085423007e-10
7.146959932e-10
7.157566833e-10
7.127623672e-10
7.061850892e-10
6.957844064e-10
6.807566529e-10
6.60118957e-10
6.328644111e-10
5.979230248e-10
5.533299784e-10
4.956026501e-10
4.19113052e-10
3.160179353e-10
1.75953127e-10
-1.459351001e-11
-2.738590569e-10
-6.265281019e-10
-1.105159795e-09
-1.750844672e-09
-2.614002853e-09
-3.755614508e-09
-5.249405865e-09
-7.183681702e-09
-9.662516101e-09
-1.280586734e-08
-1.674981323e-08
-2.164649684e-08
-2.766329467e-08
-3.497990888e-08
-4.378451127e-08
-5.427166362e-08
-6.664469928e-08
-8.112272202e-08
-9.794929668e-08
-1.17401608e-07
-1.398016674e-07
-1.655295719e-07
-1.950172645e-07
-2.286512764e-07
-2.663813726e-07
-3.065542382e-07
-3.43004207e-07
-3.591290668e-07
-3.189070179e-07
-1.410141171e-07
2.824875758e-07
-0.001708828278
677.9935184
0
0
0
0
0
0
0
0
0
0
0
0
0
0
0
0
0
0
0
0
0
0
0
0
0
0
0
0
0
0
0
0
0
0
0
0
0
0
0
0
0
0
0
0
0
0
0
0
0
0
0
0
0
0
0
0
0
0
0
6.769497093e-10
4.429819447e-10
3.317563944e-10
2.98016125e-10
3.244721272e-10
3.774213303e-10
4.403830557e-10
5.030776636e-10
5.595302004e-10
6.067201896e-10
6.436222743e-10
6.704441304e-10
6.882217418e-10
6.98450384e-10
7.027024597e-10
7.021331146e-10
6.97219036e-10
6.87693965e-10
6.728740836e-10
6.520279581e-10
6.246152825e-10
5.898521134e-10
5.460282243e-10
4.895606727e-10
4.14641916e-10
3.131204416e-10
1.745440682e-10
-1.463323321e-11
-2.72499303e-10
-6.235888293e-10
-1.100199882e-09
-1.743120166e-09
-2.602112826e-09
-3.737324489e-09
-5.221310613e-09
-7.141419862e-09
-9.601067138e-09
-1.272013396e-08
-1.663435984e-08
-2.149451112e-08
-2.746450886e-08
-3.471873932e-08
-4.343911709e-08
-5.381419064e-08
-6.604148519e-08
-8.033278304e-08
-9.692021261e-08
-1.160633229e-07
-1.380605169e-07
-1.632641884e-07
-1.920780732e-07
-2.248636621e-07
-2.615636715e-07
-3.005804729e-07
-3.359561937e-07
-3.516153529e-07
-3.128316363e-07
-1.3868015e-07
2.820880222e-07
-0.001707598402
677.5055455
0
0
0
0
0
0
0
0
0
0
0
0
0
0
0
0
0
0
0
0
0
0
0
0
0
0
0
0
0
0
0
0
0
0
0
0
0
0
0
0
0
0
0
0
0
0
0
0
0
0
0
0
0
0
0
0
0
0
0
2.848986515e-10
7.106289365e-11
9.423003045e-12
3.603919857e-11
1.197067849e-10
2.219318192e-10
3.244024732e-10
4.173529388e-10
4.961945929e-10
5.596215575e-10
6.081432677e-10
6.433189062e-10
6.672106516e-10
6.820039583e-10
6.895927393e-10
6.913308355e-10
6.877428246e-10
6.78708659e-10
6.638042468e-10
6.427377554e-10
6.15372803e-10
5.81260669e-10
5.386862045e-10
4.838661445e-10
4.10630621e-10
3.106356787e-10
1.733828116e-10
-1.436733498e-11
-2.703293652e-10
-6.185055504e-10
-1.090670627e-09
-1.726872211e-09
-2.575954449e-09
-3.696666119e-09
-5.16008899e-09
-7.052023821e-09
-9.4746802e-09
-1.254651306e-08
-1.640101755e-08
-2.118451636e-08
-2.705386769e-08
-3.417386125e-08
-4.271529156e-08
-5.285416296e-08
-6.477262061e-08
-7.866023968e-08
-9.471517077e-08
-1.131466056e-07
-1.341850674e-07
-1.581060098e-07
-1.852677212e-07
-2.161589273e-07
-2.514299818e-07
-2.917523168e-07
-3.366030381e-07
-3.807807307e-07
-4.010676806e-07
-2.883434993e-07
-2.539977675e-08
-0.003090379707
1226.028988
0
0
0
0
0
0
0
0
0
0
0
0
0
0
0
0
0
0
0
0
0
0
0
0
0
0
0
0
0
0
0
0
0
0
0
0
0
0
0
0
0
0
0
0
0
0
0
0
0
0
0
0
0
0
0
0
0
0
0
-2.914548282e-10
-4.549645045e-10
-4.23687869e-10
-2.979627101e-10
-1.286697925e-10
4.13737325e-11
1.946771901e-10
3.243660338e-10
4.292245865e-10
5.108610096e-10
5.721446645e-10
6.163296171e-10
6.466617736e-10
6.660241591e-10
6.767647613e-10
6.804002014e-10
6.776901741e-10
6.687771773e-10
6.536709684e-10
6.325272188e-10
6.056280967e-10
5.726256656e-10
5.316447633e-10
4.785164072e-10
4.067237496e-10
3.077942982e-10
1.715410613e-10
-1.476150236e-11
-2.68037382e-10
-6.116201884e-10
-1.076476471e-09
-1.701811035e-09
-2.535175037e-09
-3.633776344e-09
-5.066744573e-09
-6.91799624e-09
-9.287613139e-09
-1.22914163e-08
-1.605843636e-08
-2.072790972e-08
-2.644633959e-08
-3.336565103e-08
-4.164171903e-08
-5.143342267e-08
-6.290044089e-08
-7.619984983e-08
-9.148063199e-08
-1.088802455e-07
-1.285286953e-07
-1.505690868e-07
-1.752077178e-07
-2.028535699e-07
-2.345146788e-07
-2.727352989e-07
-3.236887211e-07
-3.989615059e-07
-5.014029201e-07
-3.694884846e-07
-5.620112964e-07
-0.007658807801
3038.152609
0
0
0
0
0
0
0
0
0
0
0
0
0
0
0
0
0
0
0
0
0
0
0
0
0
0
0
0
0
0
0
0
0
0
0
0
0
0
0
0
0
0
0
0
0
0
0
0
0
0
0
0
0
0
0
0
0
0
0
-1.147300228e-09
-1.193942146e-09
-9.897527226e-10
-7.049672991e-10
-4.129815498e-10
-1.54638901e-10
5.973143458e-11
2.308859485e-10
3.636823746e-10
4.641870571e-10
5.383129535e-10
5.913527862e-10
6.27786157e-10
6.512486183e-10
6.645011242e-10
6.694319565e-10
6.670895424e-10
6.580634855e-10
6.428078672e-10
6.21944556e-10
5.959177989e-10
5.643373041e-10
5.249419376e-10
4.731526069e-10
4.021742182e-10
3.037336469e-10
1.681710605e-10
-1.63059746e-11
-2.657705025e-10
-6.026283634e-10
-1.057119749e-09
-1.6673877e-09
-2.479704836e-09
-3.549389976e-09
-4.943448034e-09
-6.743251646e-09
-9.045973231e-09
-1.19631744e-08
-1.561752135e-08
-2.013869516e-08
-2.566074871e-08
-3.232056907e-08
-4.025730764e-08
-4.960980586e-08
-6.051176885e-08
-7.308305326e-08
-8.742005267e-08
-1.035877756e-07
-1.21619372e-07
-1.415217837e-07
-1.63286174e-07
-1.869073852e-07
-2.12443369e-07
-2.400235237e-07
-2.701062797e-07
-2.984086962e-07
-3.208055696e-07
-1.07427784e-06
-1.174962434e-06
-1.80803801e-06
-0.4380379498
0
0
0
0
0
0
0
0
0
0
0
0
0
0
0
0
0
0
0
0
0
0
0
0
0
0
0
0
0
0
0
0
0
0
0
0
0
0
0
0
0
0
0
0
0
0
0
0
0
0
0
0
0
0
0
0
0
0
0
-2.465071483e-09
-2.229424723e-09
-1.698235741e-09
-1.166338832e-09
-7.098342788e-10
-3.464561808e-10
-6.591503479e-11
1.469756812e-10
3.064188667e-10
4.242041354e-10
5.097530027e-10
5.703740061e-10
6.117633598e-10
6.382636015e-10
6.531134793e-10
6.585840515e-10
6.561913534e-10
6.469524034e-10
6.317872337e-10
6.115284532e-10
5.866744838e-10
5.564908126e-10
5.182917749e-10
4.671002287e-10
3.961585987e-10
2.976362444e-10
1.628405287e-10
-1.901435828e-11
-2.629637921e-10
-5.907306814e-10
-1.03174925e-09
-1.623303265e-09
-2.410104063e-09
-3.445444967e-09
-4.793647245e-09
-6.533004918e-09
-8.756668269e-09
-1.157073859e-08
-1.508972626e-08
-1.943231691e-08
-2.471858392e-08
-3.106974786e-08
-3.860711118e-08
-4.744862442e-08
-5.77000273e-08
-6.944333921e-08
-8.272534462e-08
-9.755357783e-08
-1.139051092e-07
-1.317542328e-07
-1.511275183e-07
-1.722222128e-07
-1.956064546e-07
-2.226089303e-07
-2.550055009e-07
-2.88170843e-07
-2.848893763e-07
-4.785440438e-07
4.98943776e-08
-1.757095182e-06
8761.177212
0