/*--------------------------------*- C++ -*----------------------------------*\
  =========                 |
  \\      /  F ield         | OpenFOAM: The Open Source CFD Toolbox
   \\    /   O peration     | Website:  https://openfoam.org
    \\  /    A nd           | Version:  6
     \\/     M anipulation  |
\*---------------------------------------------------------------------------*/
FoamFile
{
    version     2.0;
    format      ascii;
    class       volScalarField;
    location    "0.0044";
    object      TRHS;
}
// * * * * * * * * * * * * * * * * * * * * * * * * * * * * * * * * * * * * * //

dimensions      [1 -1 -3 0 0 0 0];

internalField   nonuniform List<scalar> 
9600
(
-1.526737592e-09
-3.412023008e-09
-4.399006234e-09
-4.507236708e-09
-4.193646037e-09
-3.700081869e-09
-3.17857754e-09
-2.690799363e-09
-2.280829412e-09
-1.952259792e-09
-1.719789802e-09
-1.572825821e-09
-1.520213378e-09
-1.549534023e-09
-1.6701328e-09
-1.870891178e-09
-2.162916896e-09
-2.536788077e-09
-3.005347271e-09
-3.560715698e-09
-4.217207133e-09
-4.968140101e-09
-5.828702521e-09
-6.792711744e-09
-7.875665929e-09
-9.07160996e-09
-1.039609847e-08
-1.184276919e-08
-1.342565334e-08
-1.513563605e-08
-1.698280144e-08
-1.895387584e-08
-2.105499273e-08
-2.326980694e-08
-2.560103998e-08
-2.802788796e-08
-3.054568122e-08
-3.312386442e-08
-3.574613128e-08
-3.837151712e-08
-4.097527619e-08
-4.351103517e-08
-4.5948803e-08
-4.823666997e-08
-5.033799696e-08
-5.2197571e-08
-5.378127591e-08
-5.50466081e-08
-5.598192131e-08
-5.65809845e-08
-5.688491545e-08
-5.69685332e-08
-5.69963106e-08
-5.723858652e-08
-5.816998358e-08
-6.055495208e-08
-6.563242057e-08
-7.525745972e-08
-9.189653973e-08
-1.17963369e-07
-1.537306535e-07
-1.947548858e-07
-2.353523597e-07
-3.054613058e-07
-4.502185304e-07
-1.150997282e-06
-1.825681067e-06
-0.002039350854
268.4828431
0
0
0
0
0
0
0
0
0
0
0
0
0
0
0
0
0
0
0
0
0
0
0
0
0
0
0
0
0
0
0
0
0
0
0
0
0
0
0
0
0
0
-0.00775470148
-0.001031072096
-1.270189678e-06
-6.318970834e-07
-1.050683898e-07
-2.193837944e-08
-7.260742634e-08
-1.914547327e-07
5.547002975e-08
-3.519426419e-09
-6.072833493e-09
-6.862566704e-09
-6.416443099e-09
-5.586738524e-09
-4.699835584e-09
-3.89373527e-09
-3.208348906e-09
-2.657468212e-09
-2.23169941e-09
-1.927378724e-09
-1.730775306e-09
-1.639347901e-09
-1.642331618e-09
-1.740785831e-09
-1.927378001e-09
-2.206329188e-09
-2.573018619e-09
-3.034131595e-09
-3.587155429e-09
-4.240679934e-09
-4.99373501e-09
-5.856057274e-09
-6.827538154e-09
-7.918642837e-09
-9.129869435e-09
-1.047198047e-08
-1.194511492e-08
-1.355848868e-08
-1.530964589e-08
-1.720451562e-08
-1.923761674e-08
-2.141247555e-08
-2.372173177e-08
-2.616620762e-08
-2.873394137e-08
-3.141833026e-08
-3.419840928e-08
-3.705874319e-08
-3.997219229e-08
-4.291983404e-08
-4.587268342e-08
-4.880863955e-08
-5.169410911e-08
-5.450272466e-08
-5.720229279e-08
-5.977702049e-08
-6.221669016e-08
-6.453812812e-08
-6.677603494e-08
-6.900835921e-08
-7.135794886e-08
-7.403380991e-08
-7.735973793e-08
-8.184951616e-08
-8.827544435e-08
-9.777260292e-08
-1.118986499e-07
-1.326285203e-07
-1.621653185e-07
-2.029181993e-07
-2.584098956e-07
-3.395784093e-07
-4.759469577e-07
-7.103921056e-07
-1.097999673e-06
-1.526126845e-06
-1.271981834e-06
-0.0006146742052
218.7121761
0
0
0
0
0
0
0
0
0
0
0
0
0
0
0
0
0
0
0
0
0
0
0
0
0
0
0
0
0
0
0
0
0
0
0
0
0
0
0
0
-0.007487406358
-8.995854916e-07
-1.442995148e-06
-1.563316367e-06
-1.017262765e-06
-6.586795964e-07
-4.466091809e-07
-3.829142257e-07
-3.323579708e-07
1.640464669e-08
-9.359821259e-09
-1.137647448e-08
-1.062993976e-08
-8.846634939e-09
-7.138614774e-09
-5.709706159e-09
-4.564823744e-09
-3.668094306e-09
-2.977338354e-09
-2.461409625e-09
-2.092708578e-09
-1.854296787e-09
-1.73023631e-09
-1.712831935e-09
-1.793470288e-09
-1.970220002e-09
-2.239041848e-09
-2.601763061e-09
-3.057446807e-09
-3.610635649e-09
-4.262666362e-09
-5.019942447e-09
-5.885260223e-09
-6.866209116e-09
-7.966631685e-09
-9.195036333e-09
-1.055575641e-08
-1.205696346e-08
-1.370160064e-08
-1.549549956e-08
-1.743911265e-08
-1.953630851e-08
-2.17864326e-08
-2.419238294e-08
-2.675127439e-08
-2.946122602e-08
-3.231220672e-08
-3.529451182e-08
-3.839232201e-08
-4.159363687e-08
-4.488322387e-08
-4.824950325e-08
-5.167522957e-08
-5.514467046e-08
-5.863876409e-08
-6.21476537e-08
-6.566939225e-08
-6.922209603e-08
-7.284109697e-08
-7.659148393e-08
-8.057000577e-08
-8.492665461e-08
-8.988121957e-08
-9.576545424e-08
-1.030658749e-07
-1.124895113e-07
-1.250193615e-07
-1.419745078e-07
-1.650565021e-07
-1.964632348e-07
-2.392814562e-07
-2.986526821e-07
-3.840506955e-07
-5.103981214e-07
-6.848976154e-07
-8.766652633e-07
-9.025712435e-07
-1.016817094e-06
-9.513824783e-07
-0.001793728794
1203.953807
0
0
0
0
0
0
0
0
0
0
0
0
0
0
0
0
0
0
0
0
0
0
0
0
0
0
0
0
0
0
0
0
0
0
0
0
0
0
840.1641334
-0.001060004343
-1.586494692e-06
-1.519826676e-06
-1.290376677e-06
-1.166658462e-06
-9.476728372e-07
-7.418334166e-07
-6.075047889e-07
-5.733352991e-07
-9.790302204e-08
-3.451441887e-08
-2.376558843e-08
-1.589612545e-08
-1.144308686e-08
-8.541284524e-09
-6.528009327e-09
-5.072542427e-09
-3.996322826e-09
-3.198328926e-09
-2.613006578e-09
-2.2005525e-09
-1.931200239e-09
-1.787668989e-09
-1.755207913e-09
-1.827095314e-09
-1.996252637e-09
-2.261727146e-09
-2.6209519e-09
-3.076707819e-09
-3.629513343e-09
-4.284773163e-09
-5.045151978e-09
-5.917771831e-09
-6.906760807e-09
-8.020558154e-09
-9.264403795e-09
-1.064734732e-08
-1.217438351e-08
-1.385332254e-08
-1.56873215e-08
-1.768246727e-08
-1.984104904e-08
-2.216902734e-08
-2.466832301e-08
-2.734270437e-08
-3.018930005e-08
-3.32051782e-08
-3.638148253e-08
-3.971253656e-08
-4.319084654e-08
-4.681398363e-08
-5.057611978e-08
-5.447278423e-08
-5.849471672e-08
-6.263810043e-08
-6.690404266e-08
-7.131026116e-08
-7.588841299e-08
-8.069292448e-08
-8.579904175e-08
-9.131633423e-08
-9.73942297e-08
-1.042455631e-07
-1.121671171e-07
-1.215816856e-07
-1.330751363e-07
-1.474427061e-07
-1.657221625e-07
-1.892490068e-07
-2.197571799e-07
-2.59609316e-07
-3.121057859e-07
-3.814124532e-07
-4.700881117e-07
-5.701159291e-07
-6.511065671e-07
-6.629888998e-07
-6.552135709e-07
-1.038220561e-06
-1.031303658e-06
-0.001519599007
2049.595184
4962.536073
0
0
0
0
0
0
0
0
0
0
0
0
0
0
0
0
0
0
0
0
0
0
0
0
0
0
0
0
0
0
0
0
0
0
4718.21628
1904.959969
-0.001061632565
-1.885940999e-06
-1.882262014e-06
-1.410458084e-06
-1.314552995e-06
-1.232923353e-06
-1.085050068e-06
-9.455391583e-07
-8.516593971e-07
-8.187394754e-07
-2.684471313e-07
-4.220360446e-08
-2.785419169e-08
-1.782110715e-08
-1.24584283e-08
-9.108677258e-09
-6.861495052e-09
-5.274521722e-09
-4.122477156e-09
-3.277714543e-09
-2.664577176e-09
-2.233710934e-09
-1.953905394e-09
-1.802900746e-09
-1.767087145e-09
-1.83622779e-09
-2.00528247e-09
-2.270362029e-09
-2.631390802e-09
-3.088494362e-09
-3.644987129e-09
-4.303847641e-09
-5.070697368e-09
-5.950438892e-09
-6.950370472e-09
-8.076882405e-09
-9.338502658e-09
-1.074232255e-08
-1.22967385e-08
-1.400789171e-08
-1.588287227e-08
-1.79269469e-08
-2.014719831e-08
-2.254942979e-08
-2.514056675e-08
-2.792415159e-08
-3.090237015e-08
-3.407307128e-08
-3.743458089e-08
-4.098505167e-08
-4.472690395e-08
-4.866299574e-08
-5.279733951e-08
-5.713051466e-08
-6.16641765e-08
-6.640279503e-08
-7.136225293e-08
-7.657087467e-08
-8.207378776e-08
-8.79311846e-08
-9.422432307e-08
-1.010583362e-07
-1.085731256e-07
-1.169511624e-07
-1.264366734e-07
-1.373555968e-07
-1.501433384e-07
-1.653608684e-07
-1.837051607e-07
-2.060091026e-07
-2.332479871e-07
-2.66518427e-07
-3.068631032e-07
-3.545546728e-07
-4.07156621e-07
-4.561330251e-07
-4.866741711e-07
-4.9042234e-07
-5.069684738e-07
-4.934214158e-07
-3.555638283e-07
7.166038026e-07
-0.005166003818
-0.05020947141
14955.47909
0
0
0
0
0
0
0
0
0
0
0
0
0
0
0
0
0
0
0
0
0
0
0
0
0
0
0
0
0
0
0
0
14788.00611
-0.04917122949
-0.004802085568
-1.135392605e-07
-1.410572863e-06
-1.483282414e-06
-1.43090796e-06
-1.33277519e-06
-1.246664182e-06
-1.185167155e-06
-1.126868765e-06
-1.083651974e-06
-1.113104063e-06
-4.730090006e-07
-2.388419566e-08
-1.986858504e-08
-1.509148737e-08
-1.13634979e-08
-8.612465679e-09
-6.599707907e-09
-5.115762155e-09
-4.01442018e-09
-3.198821237e-09
-2.604002752e-09
-2.186672355e-09
-1.916801636e-09
-1.774381036e-09
-1.745308691e-09
-1.820853852e-09
-1.995113413e-09
-2.265579884e-09
-2.631268082e-09
-3.093713417e-09
-3.655415535e-09
-4.320826604e-09
-5.094865163e-09
-5.984023536e-09
-6.994988692e-09
-8.135847273e-09
-9.414587878e-09
-1.08400447e-08
-1.242022629e-08
-1.416339546e-08
-1.607687989e-08
-1.816877876e-08
-2.044704068e-08
-2.292059161e-08
-2.559716912e-08
-2.848331373e-08
-3.158241495e-08
-3.489669531e-08
-3.842806208e-08
-4.218161124e-08
-4.616500147e-08
-5.03882091e-08
-5.485977958e-08
-5.958739564e-08
-6.45791983e-08
-6.98502677e-08
-7.542594851e-08
-8.13449986e-08
-8.765775396e-08
-9.442737954e-08
-1.017308433e-07
-1.096644468e-07
-1.183463692e-07
-1.279220249e-07
-1.385684924e-07
-1.505048737e-07
-1.639972532e-07
-1.793541874e-07
-1.968975949e-07
-2.169123603e-07
-2.395611352e-07
-2.647359498e-07
-2.917465654e-07
-3.187079713e-07
-3.415525244e-07
-3.531781937e-07
-3.448349148e-07
-3.109132742e-07
-2.506302088e-07
-1.058619185e-07
2.849735821e-07
9.67472838e-07
1.257665375e-06
2.721360424e-06
-1.249630442e-06
1391.63738
4852.309699
0
0
0
0
0
0
0
0
0
0
0
0
0
0
0
0
0
0
0
0
0
0
0
0
0
0
0
0
4638.77641
1263.691911
-1.899259514e-06
1.850473951e-06
8.542510485e-07
2.566235799e-07
-7.17541719e-07
-1.152457905e-06
-1.256473924e-06
-1.27490442e-06
-1.248115263e-06
-1.253604572e-06
-1.242524299e-06
-1.28576066e-06
-1.399063524e-06
-6.867293755e-07
-1.530341157e-08
-1.41067319e-08
-1.177908894e-08
-9.464615137e-09
-7.486131483e-09
-5.897176383e-09
-4.653954207e-09
-3.696561775e-09
-2.971502796e-09
-2.43699342e-09
-2.0614502e-09
-1.822110541e-09
-1.702425017e-09
-1.691216246e-09
-1.78079596e-09
-1.966810589e-09
-2.246984288e-09
-2.621458249e-09
-3.091819684e-09
-3.661520206e-09
-4.335014199e-09
-5.118178076e-09
-6.017510727e-09
-7.040714804e-09
-8.195900826e-09
-9.492061496e-09
-1.093812071e-08
-1.254331647e-08
-1.431640134e-08
-1.626649276e-08
-1.840277389e-08
-2.073534758e-08
-2.327422689e-08
-2.602904614e-08
-2.900737607e-08
-3.221520827e-08
-3.565751997e-08
-3.934112289e-08
-4.327573357e-08
-4.747445693e-08
-5.195105711e-08
-5.671860481e-08
-6.178920862e-08
-6.717842767e-08
-7.290938422e-08
-7.9016482e-08
-8.554415783e-08
-9.254553044e-08
-1.00080938e-07
-1.082207361e-07
-1.170471284e-07
-1.266554307e-07
-1.371507384e-07
-1.486452658e-07
-1.612523595e-07
-1.750755222e-07
-1.901769649e-07
-2.065212238e-07
-2.238829669e-07
-2.417186806e-07
-2.589759101e-07
-2.738097265e-07
-2.831784019e-07
-2.823977202e-07
-2.649528961e-07
-2.230940017e-07
-1.482208642e-07
-2.647254699e-08
1.825531003e-07
5.33672397e-07
1.093347855e-06
1.143805273e-06
2.538749661e-06
3.754277861e-06
-0.003506584998
-0.01378556118
616.2809487
3174.084098
0
0
0
0
0
0
0
0
0
0
0
0
0
0
0
0
0
0
0
0
0
0
0
0
2951.405507
480.4967044
-0.01290492622
-0.003184837211
2.291284321e-06
1.570912964e-06
5.391166742e-07
2.328555573e-07
-4.037906432e-07
-8.195233234e-07
-1.032907762e-06
-1.15459401e-06
-1.213255604e-06
-1.292072773e-06
-1.337800413e-06
-1.43527495e-06
-1.654148448e-06
-8.867424303e-07
-9.664629481e-09
-9.636461603e-09
-8.658213939e-09
-7.367328502e-09
-6.079961401e-09
-4.939995912e-09
-3.987742701e-09
-3.221690834e-09
-2.625724403e-09
-2.180622867e-09
-1.868934296e-09
-1.676284985e-09
-1.591806813e-09
-1.607598147e-09
-1.718516859e-09
-1.921601177e-09
-2.215995231e-09
-2.602517764e-09
-3.08370174e-09
-3.663445175e-09
-4.3469377e-09
-5.140397376e-09
-6.051044337e-09
-7.086855028e-09
-8.25661398e-09
-9.569585868e-09
-1.103544866e-08
-1.266389868e-08
-1.446486497e-08
-1.644843702e-08
-1.862535231e-08
-2.100677124e-08
-2.360401435e-08
-2.642748262e-08
-2.9486207e-08
-3.278794821e-08
-3.634093506e-08
-4.015567247e-08
-4.424613164e-08
-4.862861112e-08
-5.331981115e-08
-5.833540833e-08
-6.369206551e-08
-6.941133015e-08
-7.552399326e-08
-8.207058228e-08
-8.909928066e-08
-9.666245271e-08
-1.048164297e-07
-1.136231922e-07
-1.231523544e-07
-1.334784705e-07
-1.446738304e-07
-1.567958121e-07
-1.698699231e-07
-1.838599049e-07
-1.986191208e-07
-2.138103172e-07
-2.287956578e-07
-2.424900049e-07
-2.531778616e-07
-2.58283176e-07
-2.541105831e-07
-2.356178333e-07
-1.96342614e-07
-1.285123862e-07
-2.270610107e-08
1.341809662e-07
3.624851742e-07
6.758253454e-07
1.056321412e-06
1.314050523e-06
1.607740433e-06
2.510146878e-06
3.069298999e-06
5.098505142e-06
2.985860028e-06
-0.02202755762
5563.554862
-0.09849847288
13552.0111
0
0
0
0
0
0
0
0
0
0
0
0
0
0
0
0
0
0
13221.19698
-0.1069294435
5423.059159
-0.02111209406
2.190093069e-06
3.930822149e-06
2.196772537e-06
1.52271829e-06
7.817854464e-07
4.880209216e-07
1.899260658e-07
-2.588834824e-07
-6.502358886e-07
-8.865806623e-07
-1.048292747e-06
-1.19056368e-06
-1.310776883e-06
-1.423799067e-06
-1.599382607e-06
-1.88992031e-06
-1.052908102e-06
-5.741072212e-09
-6.220196141e-09
-5.980377302e-09
-5.372645113e-09
-4.623874501e-09
-3.880934262e-09
-3.213200159e-09
-2.649751185e-09
-2.198802479e-09
-1.858815707e-09
-1.624476267e-09
-1.489794068e-09
-1.449438444e-09
-1.49945551e-09
-1.637338943e-09
-1.862119891e-09
-2.174311776e-09
-2.575911519e-09
-3.070255176e-09
-3.662018897e-09
-4.356966345e-09
-5.161908368e-09
-6.084516867e-09
-7.133284822e-09
-8.317378149e-09
-9.646538155e-09
-1.113085184e-08
-1.278074785e-08
-1.46069125e-08
-1.662051286e-08
-1.883325806e-08
-2.125726529e-08
-2.390446256e-08
-2.678593982e-08
-2.991162975e-08
-3.329114179e-08
-3.693532913e-08
-4.085792926e-08
-4.507564392e-08
-4.960677043e-08
-5.446926507e-08
-5.968090008e-08
-6.526197106e-08
-7.123979421e-08
-7.765097422e-08
-8.454052743e-08
-9.195767631e-08
-9.995299037e-08
-1.085782083e-07
-1.178890835e-07
-1.279466009e-07
-1.388131228e-07
-1.505406385e-07
-1.63151859e-07
-1.766112089e-07
-1.90783535e-07
-2.053694933e-07
-2.198166704e-07
-2.33199883e-07
-2.440770852e-07
-2.503178712e-07
-2.489143963e-07
-2.357893839e-07
-2.056507861e-07
-1.519493141e-07
-6.697077435e-08
5.801908575e-08
2.323411302e-07
4.636524639e-07
7.484562882e-07
1.061999942e-06
1.350287513e-06
1.703810205e-06
2.536310764e-06
2.764147297e-06
3.798149741e-06
3.422043971e-06
5.078601522e-06
1.079897699e-06
-6.650977904e-07
-0.03416345135
9223.36405
-0.1416273323
11575.92008
4149.438172
0
0
0
0
0
0
0
0
0
0
4108.587483
11508.17565
-0.1463281679
8939.768724
-0.03332963145
-7.570800249e-07
3.678614241e-07
3.902456022e-06
2.42118876e-06
2.777402198e-06
1.814108305e-06
1.632224527e-06
7.979068288e-07
4.44472571e-07
1.416493093e-07
-1.924601275e-07
-5.281187308e-07
-7.735802103e-07
-9.877065336e-07
-1.155687374e-06
-1.315940754e-06
-1.469399013e-06
-1.707059342e-06
-2.036792679e-06
-1.175370807e-06
-2.853239339e-09
-3.576055841e-09
-3.756101573e-09
-3.595576132e-09
-3.243090168e-09
-2.822704941e-09
-2.406002985e-09
-2.033718257e-09
-1.727253747e-09
-1.496555685e-09
-1.345397914e-09
-1.274575973e-09
-1.283815775e-09
-1.372791487e-09
-1.541676618e-09
-1.791520823e-09
-2.124366515e-09
-2.543370413e-09
-3.05284715e-09
-3.658193936e-09
-4.365829622e-09
-5.183098477e-09
-6.118166124e-09
-7.179952725e-09
-8.378007581e-09
-9.722431881e-09
-1.122375889e-08
-1.289294224e-08
-1.474140023e-08
-1.678105294e-08
-1.90243262e-08
-2.148382669e-08
-2.417178998e-08
-2.709961897e-08
-3.027803463e-08
-3.371813489e-08
-3.743291335e-08
-4.143823724e-08
-4.575230418e-08
-5.039395014e-08
-5.538156606e-08
-6.073429384e-08
-6.647576239e-08
-7.263771623e-08
-7.926110442e-08
-8.639298016e-08
-9.408227736e-08
-1.023770489e-07
-1.113260467e-07
-1.209824823e-07
-1.314060883e-07
-1.426584647e-07
-1.547888917e-07
-1.678091545e-07
-1.816580518e-07
-1.96150266e-07
-2.109079086e-07
-2.252664317e-07
-2.381580303e-07
-2.479683975e-07
-2.523728534e-07
-2.481544078e-07
-2.310288348e-07
-1.955134052e-07
-1.34896007e-07
-4.137837716e-08
9.339481663e-08
2.767834268e-07
5.113584698e-07
7.885702641e-07
1.088077493e-06
1.395647274e-06
1.770033079e-06
2.320766772e-06
2.485817057e-06
2.518581273e-06
2.218798736e-06
2.03681109e-06
2.561409124e-07
2.570212067e-06
8.102685267e-06
-0.02324489224
-3.570349516e-07
-0.02918088694
-0.02052889607
3994.277974
0
0
0
0
0
0
0
0
3748.04382
-0.01980520493
-0.02901011493
-3.689124337e-07
-0.02253000114
7.580624831e-06
2.017613178e-06
-7.364224257e-07
1.034149747e-06
1.215544906e-06
1.506116561e-06
1.492201874e-06
1.344448385e-06
7.972300734e-07
4.103632933e-07
1.058914287e-07
-1.917007667e-07
-4.889878411e-07
-7.469143321e-07
-9.439496861e-07
-1.153866073e-06
-1.340048669e-06
-1.534930927e-06
-1.758828246e-06
-2.132711198e-06
-1.24757459e-06
-6.581195913e-10
-1.50498271e-09
-1.931978561e-09
-2.064234386e-09
-1.995919189e-09
-1.826158806e-09
-1.618330905e-09
-1.414645675e-09
-1.241947897e-09
-1.116585123e-09
-1.048256066e-09
-1.042748044e-09
-1.103773421e-09
-1.23409613e-09
-1.436340121e-09
-1.713408032e-09
-2.068847579e-09
-2.506976485e-09
-3.03302957e-09
-3.653151087e-09
-4.3743718e-09
-5.204570314e-09
-6.15236988e-09
-7.227064001e-09
-8.438544956e-09
-9.797205217e-09
-1.131394809e-08
-1.300015579e-08
-1.486775562e-08
-1.692919263e-08
-1.919726701e-08
-2.168473664e-08
-2.440383297e-08
-2.736602796e-08
-3.058255026e-08
-3.406556607e-08
-3.782947534e-08
-4.189122501e-08
-4.626921209e-08
-5.098175331e-08
-5.604683276e-08
-6.148454832e-08
-6.732096314e-08
-7.359102994e-08
-8.033773406e-08
-8.760836621e-08
-9.545007407e-08
-1.039088332e-07
-1.1303261e-07
-1.228772071e-07
-1.335097544e-07
-1.450042122e-07
-1.574250351e-07
-1.707992897e-07
-1.850767739e-07
-2.000791655e-07
-2.154315759e-07
-2.304755598e-07
-2.441544867e-07
-2.548697972e-07
-2.603029375e-07
-2.572166059e-07
-2.412595547e-07
-2.06817146e-07
-1.469371429e-07
-5.336073952e-08
8.314718056e-08
2.712779503e-07
5.146833579e-07
8.035951819e-07
1.112811458e-06
1.422296414e-06
1.789340496e-06
2.320930168e-06
2.463531948e-06
2.466301564e-06
2.124552734e-06
1.97010612e-06
1.092646781e-07
2.588350842e-06
8.002136876e-06
-0.02320460576
-3.58723498e-07
-0.02912897376
-0.02047011977
3993.507447
0
0
0
0
0
0
0
0
3747.185658
-0.01975050479
-0.0289627641
-3.704106698e-07
-0.02249377519
7.61790681e-06
1.96305797e-06
-7.583247211e-07
9.235008074e-07
1.125923159e-06
1.472296028e-06
1.44001512e-06
1.265034802e-06
7.139469526e-07
3.616830249e-07
1.066759466e-07
-1.858057882e-07
-4.773700762e-07
-7.45058327e-07
-9.502150049e-07
-1.165812686e-06
-1.34986306e-06
-1.517458115e-06
-1.762511311e-06
-2.146517036e-06
-1.258493893e-06
1.04251679e-09
1.316156388e-10
-4.442996126e-10
-7.694382854e-10
-9.026071742e-10
-9.226623503e-10
-8.825388946e-10
-8.212443522e-10
-7.66549135e-10
-7.376129766e-10
-7.475216786e-10
-8.053473212e-10
-9.176710226e-10
-1.089729986e-09
-1.326138139e-09
-1.631483988e-09
-2.010592745e-09
-2.468901183e-09
-3.012481976e-09
-3.648164024e-09
-4.383581526e-09
-5.227078946e-09
-6.187690688e-09
-7.275058552e-09
-8.499319497e-09
-9.871133372e-09
-1.140164074e-08
-1.310253536e-08
-1.498605285e-08
-1.706488239e-08
-1.935189105e-08
-2.185968198e-08
-2.460021084e-08
-2.758481334e-08
-3.082490425e-08
-3.433320684e-08
-3.812464399e-08
-4.221607505e-08
-4.662499412e-08
-5.136830999e-08
-5.64631565e-08
-6.19299038e-08
-6.779599015e-08
-7.409747047e-08
-8.087722701e-08
-8.818058397e-08
-9.605210851e-08
-1.04536164e-07
-1.136826243e-07
-1.235551405e-07
-1.342364938e-07
-1.458244779e-07
-1.584150679e-07
-1.720736058e-07
-1.86798334e-07
-2.024750039e-07
-2.188209291e-07
-2.353078563e-07
-2.510534858e-07
-2.646637696e-07
-2.7402529e-07
-2.760645645e-07
-2.665173204e-07
-2.397542915e-07
-1.88652732e-07
-1.043408535e-07
2.437097246e-08
2.112003635e-07
4.684788248e-07
7.911463817e-07
1.137541529e-06
1.436270007e-06
1.769138352e-06
2.558259806e-06
2.640388992e-06
3.636400377e-06
3.164875446e-06
4.953645364e-06
9.605574734e-07
-7.362547441e-07
-0.03408955694
9207.413537
-0.1423037436
11555.32636
4126.892416
0
0
0
0
0
0
0
0
0
0
4087.746362
11489.39177
-0.1469344455
8925.379894
-0.03326498942
-7.470626366e-07
2.031207407e-07
3.704472805e-06
2.009348709e-06
2.442586448e-06
1.564984336e-06
1.431206206e-06
6.331056735e-07
3.422330331e-07
1.070192049e-07
-1.943145293e-07
-5.027547656e-07
-7.751577473e-07
-9.669243428e-07
-1.169579505e-06
-1.330603461e-06
-1.524353321e-06
-1.728791231e-06
-2.087539585e-06
-1.213724912e-06
2.372776561e-09
1.431062638e-09
7.644915459e-10
3.117199247e-10
3.661209199e-11
-1.249841993e-10
-2.163657471e-10
-2.718056645e-10
-3.177130524e-10
-3.738473496e-10
-4.54848552e-10
-5.71685089e-10
-7.328982835e-10
-9.454773372e-10
-1.215635705e-09
-1.549273045e-09
-1.95240615e-09
-2.431331641e-09
-2.992906554e-09
-3.644588618e-09
-4.39450599e-09
-5.251457305e-09
-6.22484302e-09
-7.324551666e-09
-8.56093671e-09
-9.944807365e-09
-1.148745468e-08
-1.320072369e-08
-1.509697032e-08
-1.718885419e-08
-1.94890431e-08
-2.200973219e-08
-2.476237267e-08
-2.775789929e-08
-3.100754547e-08
-3.452395104e-08
-3.832164133e-08
-4.24163944e-08
-4.682381504e-08
-5.155880226e-08
-5.663700015e-08
-6.207827154e-08
-6.790974862e-08
-7.416643334e-08
-8.088848885e-08
-8.811744635e-08
-9.589422525e-08
-1.042620721e-07
-1.132749378e-07
-1.230084835e-07
-1.335670716e-07
-1.450801348e-07
-1.576857515e-07
-1.71506168e-07
-1.866197475e-07
-2.03032152e-07
-2.20639924e-07
-2.391727477e-07
-2.580866015e-07
-2.763871506e-07
-2.923798967e-07
-3.033702757e-07
-3.053747063e-07
-2.929312833e-07
-2.590248477e-07
-1.947753816e-07
-8.756555982e-08
8.356584249e-08
3.509650351e-07
7.346054385e-07
1.18298512e-06
1.474097351e-06
1.739281094e-06
2.502964376e-06
2.88507663e-06
4.858390474e-06
2.803768547e-06
-0.02192305848
5548.404928
-0.09934342961
13522.65712
0
0
0
0
0
0
0
0
0
0
0
0
0
0
0
0
0
0
13195.55003
-0.1076563891
5410.19045
-0.0210247711
1.820640303e-06
3.378142414e-06
1.739670268e-06
1.262364411e-06
4.860794644e-07
3.748618056e-07
1.724708776e-07
-2.069715379e-07
-5.706594969e-07
-8.279156763e-07
-1.016114052e-06
-1.184630298e-06
-1.328155782e-06
-1.466435772e-06
-1.645361663e-06
-1.95992802e-06
-1.116145892e-06
3.415836708e-09
2.463091541e-09
1.742290295e-09
1.205367047e-09
8.309858878e-10
5.651380126e-10
3.72432996e-10
2.233680595e-10
9.383127528e-11
-3.527202202e-11
-1.789675918e-10
-3.491662461e-10
-5.555394264e-10
-8.062970257e-10
-1.108806008e-09
-1.470016536e-09
-1.896820215e-09
-2.396309351e-09
-2.975934156e-09
-3.643712142e-09
-4.408220963e-09
-5.278649589e-09
-6.264652249e-09
-7.376352151e-09
-8.624209866e-09
-1.001908413e-08
-1.157233784e-08
-1.32958193e-08
-1.520177896e-08
-1.730265967e-08
-1.961065195e-08
-2.213732995e-08
-2.489343005e-08
-2.788922313e-08
-3.113534328e-08
-3.464365453e-08
-3.842740428e-08
-4.250032772e-08
-4.687545816e-08
-5.156509123e-08
-5.658280627e-08
-6.194667316e-08
-6.768159628e-08
-7.381890884e-08
-8.03936346e-08
-8.744146089e-08
-9.49985997e-08
-1.031071321e-07
-1.118261608e-07
-1.212450268e-07
-1.314913617e-07
-1.427276968e-07
-1.551380605e-07
-1.689114078e-07
-1.842305295e-07
-2.012674704e-07
-2.201768797e-07
-2.410612799e-07
-2.638726776e-07
-2.882242069e-07
-3.131013025e-07
-3.364830216e-07
-3.549121033e-07
-3.631933209e-07
-3.545701244e-07
-3.213431915e-07
-2.531637005e-07
-1.275576794e-07
1.230066964e-07
5.869119778e-07
1.248312797e-06
1.473732668e-06
2.76066129e-06
3.706487037e-06
-0.003466350531
-0.01367694834
599.805732
3147.737433
0
0
0
0
0
0
0
0
0
0
0
0
0
0
0
0
0
0
0
0
0
0
0
0
2929.58301
467.0315035
-0.01281789984
-0.003153552192
2.248596399e-06
1.66297479e-06
5.097431131e-07
3.804364554e-07
-2.338701855e-07
-6.960606739e-07
-9.264888425e-07
-1.109975809e-06
-1.226664399e-06
-1.297635275e-06
-1.390997348e-06
-1.521545898e-06
-1.792483734e-06
-9.705083493e-07
4.230377054e-09
3.279372659e-09
2.528027325e-09
1.936627638e-09
1.493671129e-09
1.152042981e-09
8.824542603e-10
6.596428995e-10
4.620306422e-10
2.717146458e-10
7.401071279e-11
-1.432506205e-10
-3.903262504e-10
-6.762027249e-10
-1.009007713e-09
-1.396453885e-09
-1.846113217e-09
-2.365650548e-09
-2.963058129e-09
-3.646774309e-09
-4.425789684e-09
-5.309580847e-09
-6.308050652e-09
-7.431383506e-09
-8.690097771e-09
-1.009504968e-08
-1.165754953e-08
-1.338929201e-08
-1.530231556e-08
-1.740857463e-08
-1.971962331e-08
-2.224618635e-08
-2.499808814e-08
-2.798465144e-08
-3.121544665e-08
-3.470091206e-08
-3.845223654e-08
-4.248036992e-08
-4.679514678e-08
-5.140572249e-08
-5.632272212e-08
-6.1560964e-08
-6.714086519e-08
-7.308757113e-08
-7.94284758e-08
-8.619138158e-08
-9.340629832e-08
-1.011131876e-07
-1.093755293e-07
-1.182948012e-07
-1.28018095e-07
-1.387355365e-07
-1.506716683e-07
-1.640821717e-07
-1.792652199e-07
-1.965892184e-07
-2.165217184e-07
-2.396240289e-07
-2.664783687e-07
-2.97524607e-07
-3.327845104e-07
-3.713830032e-07
-4.10793275e-07
-4.459784236e-07
-4.694779778e-07
-4.739173337e-07
-4.580316038e-07
-4.136075795e-07
-2.38573701e-07
2.768866385e-07
1.260798992e-06
1.727691807e-06
3.052381522e-06
-1.14761308e-06
1375.675847
4825.653923
0
0
0
0
0
0
0
0
0
0
0
0
0
0
0
0
0
0
0
0
0
0
0
0
0
0
0
0
4617.619145
1251.214293
-1.730277967e-06
2.265319316e-06
1.443696801e-06
7.143125308e-07
-3.780609547e-07
-8.606560597e-07
-1.085237402e-06
-1.184868653e-06
-1.234022078e-06
-1.288970522e-06
-1.286426017e-06
-1.394855525e-06
-1.549000453e-06
-7.899558825e-07
4.859632525e-09
3.918910399e-09
3.153180154e-09
2.528044564e-09
2.038872015e-09
1.64312851e-09
1.316176822e-09
1.036280701e-09
7.842305842e-10
5.435721849e-10
3.002831188e-10
4.234642256e-11
-2.407014763e-10
-5.582205344e-10
-9.188524682e-10
-1.330800305e-09
-1.802114637e-09
-2.340897655e-09
-2.955547973e-09
-3.654878828e-09
-4.448192799e-09
-5.345205543e-09
-6.355929782e-09
-7.490607511e-09
-8.759684354e-09
-1.017395128e-08
-1.174454595e-08
-1.348299203e-08
-1.540086077e-08
-1.75095367e-08
-1.98196988e-08
-2.234106932e-08
-2.508235646e-08
-2.805164825e-08
-3.125700673e-08
-3.470686716e-08
-3.840968875e-08
-4.237304803e-08
-4.660308882e-08
-5.110520733e-08
-5.588598991e-08
-6.095525609e-08
-6.632669567e-08
-7.201681388e-08
-7.804298925e-08
-8.442306581e-08
-9.117893258e-08
-9.834648628e-08
-1.059905373e-07
-1.142188348e-07
-1.231886018e-07
-1.33104514e-07
-1.442176054e-07
-1.568383789e-07
-1.713750711e-07
-1.883958654e-07
-2.086923252e-07
-2.333131615e-07
-2.63549116e-07
-3.008766067e-07
-3.46804811e-07
-4.024113622e-07
-4.671115643e-07
-5.363838636e-07
-5.989089664e-07
-6.416381355e-07
-6.627894552e-07
-7.0643988e-07
-6.931011102e-07
-4.211926411e-07
1.076998565e-06
-0.005123932664
-0.05008451602
14934.86698
0
0
0
0
0
0
0
0
0
0
0
0
0
0
0
0
0
0
0
0
0
0
0
0
0
0
0
0
0
0
0
0
14772.36254
-0.04907817868
-0.004771322509
7.126066746e-07
-7.558213246e-07
-1.205211932e-06
-1.253060725e-06
-1.242589112e-06
-1.243153951e-06
-1.246611863e-06
-1.215422735e-06
-1.211344646e-06
-1.292945231e-06
-5.869975857e-07
5.336475662e-09
4.412189829e-09
3.64333046e-09
2.999322351e-09
2.480389123e-09
2.047084108e-09
1.678249799e-09
1.354995212e-09
1.060235588e-09
7.789111587e-10
4.978251011e-10
2.053629635e-10
-1.089194281e-10
-4.54495757e-10
-8.402723981e-10
-1.27474647e-09
-1.766277693e-09
-2.323288775e-09
-2.954483551e-09
-3.668973457e-09
-4.476331623e-09
-5.386389023e-09
-6.409224277e-09
-7.554998756e-09
-8.834072055e-09
-1.025707633e-08
-1.183498961e-08
-1.357896576e-08
-1.55001161e-08
-1.760899929e-08
-1.991532356e-08
-2.242762748e-08
-2.51533209e-08
-2.80989803e-08
-3.127082434e-08
-3.467478353e-08
-3.831610748e-08
-4.219852539e-08
-4.632398948e-08
-5.069339221e-08
-5.530809424e-08
-6.017116028e-08
-6.528748714e-08
-7.066266946e-08
-7.630195327e-08
-8.221088372e-08
-8.840083183e-08
-9.49004137e-08
-1.017704273e-07
-1.091157744e-07
-1.170891986e-07
-1.258909763e-07
-1.35776444e-07
-1.470871272e-07
-1.603158722e-07
-1.761982669e-07
-1.958050861e-07
-2.206149299e-07
-2.525935014e-07
-2.94333465e-07
-3.49227755e-07
-4.214004023e-07
-5.146195267e-07
-6.277173599e-07
-7.464832257e-07
-8.314650381e-07
-8.298531833e-07
-8.604137647e-07
-1.199373339e-06
-1.073246915e-06
-0.001469924891
2032.98644
4933.644358
0
0
0
0
0
0
0
0
0
0
0
0
0
0
0
0
0
0
0
0
0
0
0
0
0
0
0
0
0
0
0
0
0
0
4697.079632
1893.035375
-0.001026826281
-1.034332543e-06
-1.361731383e-06
-1.214207325e-06
-1.230567995e-06
-1.240203704e-06
-1.192974594e-06
-1.08199343e-06
-1.001057219e-06
-1.01318085e-06
-3.815299807e-07
5.686665505e-09
4.783227239e-09
4.019471173e-09
3.367439855e-09
2.83106237e-09
2.37288864e-09
1.974425293e-09
1.619045858e-09
1.291464792e-09
9.779119694e-10
6.660486417e-10
3.447194091e-10
3.758330705e-12
-3.663425688e-10
-7.745233473e-10
-1.229443198e-09
-1.739618495e-09
-2.313716638e-09
-2.960669801e-09
-3.689838893e-09
-4.510930245e-09
-5.433893291e-09
-6.468718202e-09
-7.625473962e-09
-8.914340881e-09
-1.034580248e-08
-1.193058849e-08
-1.367950169e-08
-1.560299365e-08
-1.771076503e-08
-2.001137732e-08
-2.251207017e-08
-2.521879178e-08
-2.813643146e-08
-3.126903072e-08
-3.4619716e-08
-3.81901278e-08
-4.197983289e-08
-4.598610013e-08
-5.020452826e-08
-5.462997366e-08
-5.925716742e-08
-6.40803132e-08
-6.909230538e-08
-7.428410651e-08
-7.964688289e-08
-8.517870342e-08
-9.089665148e-08
-9.685011233e-08
-1.031287234e-07
-1.098632978e-07
-1.172268677e-07
-1.254513779e-07
-1.348759932e-07
-1.460322837e-07
-1.59753957e-07
-1.772844714e-07
-2.003849976e-07
-2.315031118e-07
-2.741005748e-07
-3.332457606e-07
-4.166524678e-07
-5.353164289e-07
-7.023553288e-07
-9.113790222e-07
-1.107410219e-06
-1.077843922e-06
-1.085132566e-06
-1.014375859e-06
-0.001691064807
1164.572683
0
0
0
0
0
0
0
0
0
0
0
0
0
0
0
0
0
0
0
0
0
0
0
0
0
0
0
0
0
0
0
0
0
0
0
0
0
0
812.887481
-0.001025189771
-8.292428208e-07
-1.122435716e-06
-1.252343972e-06
-1.263879392e-06
-1.10676323e-06
-8.984379952e-07
-8.078890864e-07
-7.559283235e-07
-1.979338653e-07
5.930770769e-09
5.051608622e-09
4.298994818e-09
3.647028711e-09
3.102482243e-09
2.629270218e-09
2.210888046e-09
1.832525584e-09
1.480385872e-09
1.141843344e-09
8.0535603e-10
4.603286883e-10
9.685026709e-11
-2.943778958e-10
-7.222955273e-10
-1.195550018e-09
-1.722789948e-09
-2.312786363e-09
-2.974695184e-09
-3.718026461e-09
-4.552608351e-09
-5.488332352e-09
-6.535116814e-09