/*--------------------------------*- C++ -*----------------------------------*\
  =========                 |
  \\      /  F ield         | OpenFOAM: The Open Source CFD Toolbox
   \\    /   O peration     | Website:  https://openfoam.org
    \\  /    A nd           | Version:  6
     \\/     M anipulation  |
\*---------------------------------------------------------------------------*/
FoamFile
{
    version     2.0;
    format      ascii;
    class       volScalarField;
    location    "0.0044";
    object      ViscousDissipation;
}
// * * * * * * * * * * * * * * * * * * * * * * * * * * * * * * * * * * * * * //

dimensions      [1 -1 -3 0 0 0 0];

internalField   nonuniform List<scalar> 
9600
(
1.322757905e-18
1.257771991e-18
1.20294853e-18
1.171303979e-18
1.161996173e-18
1.169679925e-18
1.189681639e-18
1.218862133e-18
1.255343106e-18
1.298127868e-18
1.346780746e-18
1.401250658e-18
1.461736149e-18
1.528636707e-18
1.602493475e-18
1.683989449e-18
1.773913604e-18
1.873183122e-18
1.982814775e-18
2.103961391e-18
2.237879548e-18
2.385972856e-18
2.549746785e-18
2.730858471e-18
2.931060148e-18
3.152256866e-18
3.396422487e-18
3.66564008e-18
3.961958849e-18
4.287405091e-18
4.64378803e-18
5.032703525e-18
5.455283834e-18
5.912137057e-18
6.402923291e-18
6.926099903e-18
7.478239444e-18
8.053582123e-18
8.643153567e-18
9.234151278e-18
9.808788371e-18
1.034338473e-17
1.080697232e-17
1.116055955e-17
1.135658101e-17
1.133999791e-17
1.105083841e-17
1.043020261e-17
9.430376209e-18
8.032014445e-18
6.269699157e-18
4.268729217e-18
2.293797173e-18
8.11300188e-19
5.656156411e-19
2.670977331e-18
8.712863932e-18
2.082546817e-17
4.165726292e-17
7.422386359e-17
1.226406763e-16
1.98201915e-16
3.393600752e-16
6.286160017e-16
1.070085582e-15
1.539611463e-15
2.902225175e-16
5.967348451e-16
1.320521684e-15
1.892215642e-15
2.520497171e-15
3.957255732e-15
1.370803023e-15
4.588564523e-16
2.636129374e-17
4.151187279e-17
1.329788441e-16
2.327232131e-16
3.290993767e-16
4.07575232e-16
4.527983845e-16
4.619875723e-16
4.446062348e-16
4.097452004e-16
3.632561804e-16
3.116729229e-16
2.620610738e-16
2.203327103e-16
1.905737042e-16
1.753847355e-16
1.764525307e-16
1.948793424e-16
2.310418509e-16
2.839694404e-16
3.503305965e-16
4.235379642e-16
4.940118248e-16
5.511657951e-16
5.843714862e-16
5.792800957e-16
5.217584141e-16
4.155171097e-16
2.841686119e-16
1.520782766e-16
4.594295776e-17
5.895941582e-17
5.578097696e-16
1.319459393e-15
3.4450791e-15
2.321689303e-15
1.85202367e-15
2.037131553e-15
2.850903779e-16
1.823714708e-15
3.087706499e-15
1.375510577e-15
1.18370528e-15
1.88646719e-15
3.961706857e-15
1.487555949e-15
1.28226009e-18
1.167296513e-18
1.090099476e-18
1.054567604e-18
1.047985631e-18
1.059358048e-18
1.082159588e-18
1.112894676e-18
1.149782017e-18
1.192008189e-18
1.239292008e-18
1.291697787e-18
1.349493108e-18
1.413122333e-18
1.483138413e-18
1.560225485e-18
1.645146747e-18
1.738789982e-18
1.842117377e-18
1.956226272e-18
2.08229138e-18
2.221632604e-18
2.37564251e-18
2.545863455e-18
2.73390233e-18
2.941514569e-18
3.170488035e-18
3.422707409e-18
3.699982494e-18
4.004091423e-18
4.336571789e-18
4.698764299e-18
5.091550637e-18
5.515322972e-18
5.969546316e-18
6.45254332e-18
6.960843569e-18
7.488833198e-18
8.027961131e-18
8.566231743e-18
9.087113377e-18
9.568690351e-18
9.982323391e-18
1.029197121e-17
1.045365073e-17
1.041640808e-17
1.012454611e-17
9.523101049e-18
8.56733796e-18
7.2394484e-18
5.574447427e-18
3.699491053e-18
1.889940293e-18
6.479072581e-19
8.091678113e-19
3.686934398e-18
1.125833438e-17
2.63899845e-17
5.309150471e-17
9.688252968e-17
1.658714814e-16
2.74112193e-16
4.470550035e-16
7.106603238e-16
9.951200495e-16
9.153328288e-16
8.555860976e-17
1.177066235e-15
4.22850005e-16
1.19896719e-15
1.360232004e-14
3.963734412e-14
1.163577629e-14
3.303158224e-15
2.184748802e-16
1.312469703e-16
2.669567711e-16
4.203370803e-16
5.941469606e-16
7.37376166e-16
7.993453156e-16
7.802792452e-16
7.202506016e-16
6.399326528e-16
5.425372932e-16
4.384568247e-16
3.415341148e-16
2.622623354e-16
2.065010511e-16
1.771286018e-16
1.758606149e-16
2.042867796e-16
2.637859812e-16
3.54216371e-16
4.713183991e-16
6.039040247e-16
7.341698448e-16
8.455107917e-16
9.284940874e-16
9.54949866e-16
8.746854313e-16
6.878657778e-16
4.62395736e-16
2.596426975e-16
9.20932251e-17
2.233723619e-16
3.560247756e-15
1.159093246e-14
3.809218095e-14
1.364966924e-14
2.053022718e-15
8.714719441e-17
4.204935888e-16
1.144595555e-15
1.950814872e-15
1.853872111e-15
1.581146514e-15
1.675111609e-15
2.635575325e-15
9.763391664e-16
1.235415437e-18
1.062804341e-18
9.677757131e-19
9.373034755e-19
9.380947364e-19
9.548658127e-19
9.808426512e-19
1.013028377e-18
1.050112387e-18
1.091587222e-18
1.137377539e-18
1.187656399e-18
1.242770951e-18
1.30318839e-18
1.369486049e-18
1.442326101e-18
1.522465333e-18
1.610738616e-18
1.70807957e-18
1.81550526e-18
1.934140238e-18
2.065193967e-18
2.209984875e-18
2.369912057e-18
2.546481778e-18
2.741267085e-18
2.95591989e-18
3.192093489e-18
3.451424329e-18
3.735422917e-18
4.04544966e-18
4.382590113e-18
4.747599992e-18
5.1406814e-18
5.561283882e-18
6.00770159e-18
6.476738825e-18
6.96321102e-18
7.459536171e-18
7.955068605e-18
8.43540227e-18
8.881345159e-18
9.268019777e-18
9.564020012e-18
9.731271604e-18
9.725647943e-18
9.499305294e-18
9.005489895e-18
8.207934755e-18
7.09703049e-18
5.716533669e-18
4.205106947e-18
2.85932837e-18
2.226344984e-18
3.23764089e-18
7.397724037e-18
1.704349214e-17
3.568657942e-17
6.844808166e-17
1.226187673e-16
2.084525399e-16
3.400441659e-16
5.332051322e-16
7.862744566e-16
1.012326077e-15
9.510250018e-16
4.847413527e-16
7.724221405e-16
1.77737786e-15
6.956833754e-16
3.75846185e-14
2.585025952e-13
1.748747959e-13
3.336970136e-14
7.043649952e-15
1.065564955e-15
8.047604138e-16
8.61922081e-16
1.212394361e-15
1.508729148e-15
1.553615392e-15
1.392179468e-15
1.213285856e-15
1.045420285e-15
8.485852637e-16
6.406227059e-16
4.535933252e-16
3.066886979e-16
2.065288095e-16
1.538524506e-16
1.487519531e-16
1.933454905e-16
2.919718775e-16
4.484446933e-16
6.596332925e-16
9.060999544e-16
1.149189168e-15
1.360268506e-15
1.573053596e-15
1.752590924e-15
1.686053779e-15
1.321358964e-15
9.000668865e-16
7.753821753e-16
9.613065967e-16
6.861596418e-15
3.394032377e-14
1.737817811e-13
2.552293201e-13
3.520036661e-14
3.293756669e-16
2.059602073e-16
2.886283197e-16
1.07681323e-15
1.968303488e-15
1.98822651e-15
1.532330701e-15
1.206318835e-15
1.49399973e-15
5.814018276e-16
1.694023391e-18
1.000133959e-18
8.54964317e-19
8.290364864e-19
8.370267929e-19
8.583444337e-19
8.866334736e-19
9.196243999e-19
9.564686072e-19
9.969275759e-19
1.041077668e-18
1.089181938e-18
1.141634722e-18
1.198927661e-18
1.261639887e-18
1.330423971e-18
1.406010607e-18
1.489201863e-18
1.580883121e-18
1.682017673e-18
1.793658661e-18
1.916938533e-18
2.053078119e-18
2.203373653e-18
2.36920374e-18
2.552006435e-18
2.753267019e-18
2.974466313e-18
3.217040275e-18
3.482311961e-18
3.771447566e-18
4.085382579e-18
4.424739989e-18
4.789668034e-18
5.179625559e-18
5.59309051e-18
6.027262453e-18
6.477745061e-18
6.938206981e-18
7.399921666e-18
7.85114476e-18
8.276345573e-18
8.655448112e-18
8.963312619e-18
9.169703246e-18
9.240097482e-18
9.137914633e-18
8.82934044e-18
8.29254746e-18
7.534103678e-18
6.616370399e-18
5.701614947e-18
5.120805989e-18
5.478459544e-18
7.808211286e-18
1.379775314e-17
2.610319011e-17
4.876857456e-17
8.774605647e-17
1.514569286e-16
2.511515585e-16
4.001372581e-16
6.085174956e-16
8.64801725e-16
1.094834712e-15
1.137222435e-15
9.402269418e-16
1.142853766e-15
2.493803718e-15
4.044560909e-15
2.663758129e-15
1.214286735e-13
5.324482289e-13
5.805948967e-13
1.435918265e-13
5.044170274e-15
2.25252759e-15
1.508183114e-15
2.785312803e-15
3.639467518e-15
3.433968473e-15
2.571552176e-15
2.081297107e-15
1.803933087e-15
1.419661751e-15
9.981851929e-16
6.349332832e-16
3.656297713e-16
1.910037444e-16
1.014738001e-16
9.052829394e-17
1.606603196e-16
3.241493695e-16
5.980067625e-16
9.893140095e-16
1.464892607e-15
1.917230717e-15
2.251170321e-15
2.783312597e-15
3.689693446e-15
3.889410529e-15
2.922483201e-15
1.549733868e-15
2.221447656e-15
4.891453762e-15
1.421582716e-13
5.759922178e-13
5.367314608e-13
1.232059142e-13
1.054713418e-15
1.001084824e-15
8.246415746e-16
9.994360145e-16
1.682178336e-15
2.141576734e-15
1.903253694e-15
1.266260638e-15
7.262164256e-16
7.080498243e-16
3.232325725e-16
6.476402498e-19
6.848857725e-19
7.066106643e-19
7.218254819e-19
7.425109783e-19
7.685679787e-19
7.987034032e-19
8.321081346e-19
8.684631371e-19
9.077685246e-19
9.502258694e-19
9.961687454e-19
1.046028574e-18
1.100314019e-18
1.159603273e-18
1.224537405e-18
1.295822301e-18
1.374228441e-18
1.460597117e-18
1.555841012e-18
1.660948837e-18
1.776980684e-18
1.905069909e-18
2.046415535e-18
2.202280955e-18
2.373975388e-18
2.562834803e-18
2.770178199e-18
2.997269309e-18
3.245263498e-18
3.515173207e-18
3.807808831e-18
4.123709903e-18
4.463005275e-18
4.825242319e-18
5.20916402e-18
5.612519841e-18
6.031867801e-18
6.462383441e-18
6.897540336e-18
7.328685179e-18
7.744491655e-18
8.130520845e-18
8.469007318e-18
8.739160557e-18
8.918199763e-18
8.983829671e-18
8.919239732e-18
8.722646407e-18
8.424147121e-18
8.114239393e-18
7.99025255e-18
8.430211291e-18
1.01072165e-17
1.416185424e-17
2.245335434e-17
3.791048191e-17
6.499192555e-17
1.102271949e-16
1.827011657e-16
2.940690534e-16
4.570085324e-16
6.795517033e-16
9.51111687e-16
1.22047932e-15
1.395078343e-15
1.448918222e-15
1.680108174e-15
2.500846167e-15
4.381336313e-15
5.88191935e-15
1.372200293e-15
2.184547223e-15
2.49248214e-13
8.400371444e-13
1.709591752e-13
3.455753382e-15
1.232956113e-15
8.887344657e-15
1.146930839e-14
9.47869824e-15
4.552544831e-15
3.410274296e-15
3.367168621e-15
2.622091562e-15
1.717225866e-15
9.872918915e-16
4.888669745e-16
1.888108233e-16
4.240011762e-17
2.325934671e-17
1.335342687e-16
4.057602413e-16
8.961424299e-16
1.655642059e-15
2.642492237e-15
3.501889505e-15
3.605848862e-15
4.744180575e-15
9.742072438e-15
1.185854753e-14
9.092774204e-15
1.259688093e-15
3.418266143e-15
1.698055748e-13
8.339432289e-13
2.447542947e-13
2.083381346e-15
2.533265689e-16
1.817424507e-15
2.929259462e-15
2.398146577e-15
2.288438957e-15
2.33245469e-15
2.181503149e-15
1.649158987e-15
9.366238782e-16
3.733568465e-16
2.857701245e-16
1.881848194e-16
4.786727432e-19
5.433730587e-19
5.889557301e-19
6.220192686e-19
6.52496114e-19
6.8338504e-19
7.156415557e-19
7.496156187e-19
7.855615147e-19
8.237714446e-19
8.646018678e-19
9.084709858e-19
9.558546085e-19
1.007281104e-18
1.063331052e-18
1.124635408e-18
1.191879481e-18
1.265804315e-18
1.347213219e-18
1.436972163e-18
1.53601308e-18
1.645329691e-18
1.765977503e-18
1.899066194e-18
2.04575506e-18
2.207234859e-18
2.384706582e-18
2.579344147e-18
2.792260092e-18
3.024466129e-18
3.276844272e-18
3.550103687e-18
3.844719952e-18
4.160828626e-18
4.498095412e-18
4.855580232e-18
5.231642758e-18
5.623878689e-18
6.02905192e-18
6.442949436e-18
6.860151531e-18
7.27378747e-18
7.675432226e-18
8.055307382e-18
8.402957727e-18
8.708701716e-18
8.966492214e-18
9.179410986e-18
9.369756635e-18
9.596722042e-18
9.986135785e-18
1.077915735e-17
1.241014441e-17
1.562821639e-17
2.168130202e-17
3.258433212e-17
5.149033338e-17
8.316573134e-17
1.345183736e-16
2.149982207e-16
3.364116523e-16
5.111649203e-16
7.47204956e-16
1.037867862e-15
1.349071764e-15
1.620614189e-15
1.814785139e-15
2.001930364e-15
2.236691397e-15
2.240845731e-15
1.4479529e-15
5.694295859e-15
7.934960286e-15
6.29692004e-15
2.891087431e-13
4.710417451e-13
6.27343947e-14
2.013850122e-14
6.77766334e-14
5.520013363e-14
4.150569908e-14
6.09920387e-15
4.536098697e-15
7.438104951e-15
5.606580169e-15
3.380975588e-15
1.789925522e-15
8.231389732e-16
3.003726897e-16
6.459080461e-17
3.518331408e-17
2.121482714e-16
6.793289414e-16
1.608772957e-15
3.219304584e-15
5.585136483e-15
7.684735867e-15
4.817815643e-15
5.997639557e-15
4.112704453e-14
5.574567356e-14
6.816800537e-14
1.982913702e-14
6.176750058e-14
4.736521065e-13
2.849403886e-13
4.012110549e-15
4.050278805e-15
2.720183594e-15
3.737007865e-16
1.896096035e-15
2.559621149e-15
2.608512342e-15
2.373719013e-15
1.922064651e-15
1.293013055e-15
6.513329815e-16
1.873182389e-16
1.734129734e-16
1.470353862e-16
3.371379817e-19
4.20042362e-19
4.814941762e-19
5.280240056e-19
5.669880973e-19
6.026095685e-19
6.371523806e-19
6.718629661e-19
7.075309525e-19
7.44755064e-19
7.840653475e-19
8.259781531e-19
8.710221421e-19
9.197513482e-19
9.72752637e-19
1.030650924e-18
1.094114562e-18
1.163860277e-18
1.240657897e-18
1.325332956e-18
1.418767012e-18
1.521895494e-18
1.635704412e-18
1.761224108e-18
1.899520228e-18
2.051677386e-18
2.218776174e-18
2.401862587e-18
2.601917408e-18
2.819827378e-18
3.0563613e-18
3.312137588e-18
3.58757483e-18
3.882815755e-18
4.197646578e-18
4.531440059e-18
4.883157619e-18
5.251397224e-18
5.634450716e-18
6.030317776e-18
6.436700549e-18
6.851064002e-18
7.270916728e-18
7.69443432e-18
8.121590934e-18
8.55608518e-18
9.008754248e-18
9.503703544e-18
1.008918347e-17
1.085623788e-17
1.196980731e-17
1.3719409e-17
1.660015722e-17
2.143921537e-17
2.958713021e-17
4.319524879e-17
6.559517378e-17
1.017734776e-16
1.588755877e-16
2.465417296e-16
3.766298403e-16
5.614952073e-16
8.096222629e-16
1.117739935e-15
1.46133379e-15
1.791976209e-15
2.053537519e-15
2.205791013e-15
2.176983538e-15
1.806927318e-15
1.272506394e-15
4.125656579e-15
1.786745258e-14
1.548060762e-14
5.353732366e-15
2.770984815e-15
1.790963078e-14
7.879541923e-14
7.223186701e-13
4.414617452e-13
3.56930887e-13
2.234082503e-14
6.392602015e-15
2.618141501e-14
1.482358903e-14
7.861733628e-15
3.782896792e-15
1.710912381e-15
7.507681094e-16
3.625696754e-16
3.224092455e-16
6.249045505e-16
1.486496951e-15
3.456528857e-15
7.497744392e-15
1.471670392e-14
2.70866539e-14
7.331307401e-15
2.063674193e-14
3.495938209e-13
4.396453505e-13
7.199175851e-13
8.19681642e-14
1.894830262e-14
1.817081855e-15
2.618911083e-15
8.356263373e-15
1.261165244e-14
2.158828241e-15
4.896864102e-16
1.525193911e-15
2.230169552e-15
2.303533671e-15
2.002160696e-15
1.513752719e-15
9.598727692e-16
4.738579574e-16
1.617034095e-16
2.724805965e-16
1.667239342e-16
2.617206708e-19
3.341500271e-19
3.959382989e-19
4.466131758e-19
4.896268094e-19
5.280485738e-19
5.640833488e-19
5.992242507e-19
6.345176819e-19
6.707561987e-19
7.085997081e-19
7.486459884e-19
7.914712225e-19
8.37653411e-19
8.877870297e-19
9.424928215e-19
1.002426044e-18
1.068282698e-18
1.140804627e-18
1.220781915e-18
1.309053209e-18
1.406502891e-18
1.514057098e-18
1.632676137e-18
1.763344027e-18
1.907051749e-18
2.06477517e-18
2.237448504e-18
2.425938549e-18
2.631021738e-18
2.853364012e-18
3.093494907e-18
3.35176943e-18
3.628320724e-18
3.923026854e-18
4.235525007e-18
4.565295605e-18
4.911804112e-18
5.274663996e-18
5.653801422e-18
6.049665431e-18
6.463593498e-18
6.898460105e-18
7.359722411e-18
7.856999853e-18
8.406517421e-18
9.035115562e-18
9.787113217e-18
1.073604702e-17
1.200438978e-17
1.379597627e-17
1.644843816e-17
2.051654646e-17
2.690178751e-17
3.70474923e-17
5.321996367e-17
7.888876607e-17
1.191939553e-16
1.814259951e-16
2.753185053e-16
4.127363572e-16
6.060448971e-16
8.642210363e-16
1.186079796e-15
1.551664122e-15
1.916038221e-15
2.211094211e-15
2.352980265e-15
2.241308384e-15
1.803567578e-15
1.299353949e-15
2.218149465e-15
6.512011567e-15
7.768315022e-15
1.167113509e-14
1.632835177e-14
8.549254192e-15
3.207399662e-15
8.535337874e-13
8.114478735e-13
4.803359695e-13
9.029197179e-14
1.234456811e-13
2.09510417e-13
5.451211882e-14
2.20762513e-14
8.673841893e-15
3.73372769e-15
1.864591016e-15
1.193968898e-15
1.145715398e-15
1.705234732e-15
3.417090442e-15
8.125187002e-15
2.126507191e-14
5.397969903e-14
2.143569059e-13
1.29466316e-13
8.329300116e-14
4.728909982e-13
7.926310933e-13
8.545553088e-13
2.295525989e-15
5.445900427e-15
9.69485952e-15
5.812938978e-15
4.416001608e-15
4.181782905e-15
1.134305323e-15
7.06693006e-16
1.392773453e-15
1.855501574e-15
1.850136605e-15
1.5420726e-15
1.118740151e-15
7.093629824e-16
3.985670302e-16
2.36692822e-16
4.684431063e-16
2.134384734e-16
2.149233719e-19
2.74303344e-19
3.300543858e-19
3.790543369e-19
4.221943693e-19
4.610980886e-19
4.973474434e-19
5.322445384e-19
5.668251139e-19
6.019279509e-19
6.382652405e-19
6.764761837e-19
7.171640052e-19
7.609208698e-19
8.083446603e-19
8.600513917e-19
9.166845745e-19
9.789223637e-19
1.047482648e-18
1.123125488e-18
1.206652885e-18
1.298906129e-18
1.400760303e-18
1.513116205e-18
1.636888073e-18
1.772986892e-18
1.922299178e-18
2.085663772e-18
2.263849043e-18
2.457532987e-18
2.667284232e-18
2.893539504e-18
3.136575141e-18
3.396484166e-18
3.673184625e-18
3.966490669e-18
4.27626029e-18
4.602605071e-18
4.946137283e-18
5.308260951e-18
5.691577464e-18
6.100519937e-18
6.542331281e-18
7.028474439e-18
7.57662206e-18
8.213572348e-18
8.979844356e-18
9.93724787e-18
1.118148447e-17
1.286288534e-17
1.52200643e-17
1.86337986e-17
2.371204607e-17
3.142127262e-17
4.328309517e-17
6.16557273e-17
9.011164011e-17
1.338957752e-16
2.003863698e-16
2.993594287e-16
4.426609364e-16
6.426394069e-16
9.085173614e-16
1.240102587e-15
1.619317513e-15
2.002021608e-15
2.31428948e-15
2.457056534e-15
2.325757659e-15
1.876960847e-15
1.294465015e-15
1.178875526e-15
2.10329914e-15
2.823046056e-15
4.517465392e-15
9.788834928e-15
1.603141485e-14
2.130007782e-14
1.97941984e-14
1.522222306e-14
1.498666217e-14
7.540157702e-13
7.296126933e-13
3.988329748e-13
4.413035196e-13
6.786960877e-14
1.872713095e-14
7.328779722e-15
3.752413825e-15
2.587506392e-15
2.536742409e-15
3.574386473e-15
6.927775411e-15
1.787192788e-14
6.606656133e-14
4.376787176e-13
3.955094059e-13
7.012605573e-13
7.5118164e-13
1.451279269e-14
1.376433065e-14
1.609704056e-14
1.475567035e-14
1.011673455e-14
6.035743322e-15
2.318869285e-15
1.627539902e-15
1.284908572e-15
6.429490792e-16
7.994018974e-16
1.277913623e-15
1.541461225e-15
1.463060128e-15
1.169884328e-15
8.356720527e-16
5.578196457e-16
3.915950616e-16
3.460300388e-16
6.684195711e-16
2.604596531e-16
1.822528572e-19
2.307420257e-19
2.790744408e-19
3.23776926e-19
3.645914538e-19
4.021451398e-19
4.373846504e-19
4.712724477e-19
5.046869765e-19
5.384051343e-19
5.731206869e-19
6.094705559e-19
6.480592642e-19
6.89478354e-19
7.343215257e-19
7.831966559e-19
8.367350695e-19
8.95598547e-19
9.604841729e-19
1.032126474e-18
1.111296981e-18
1.198801197e-18
1.295472443e-18
1.402162354e-18
1.519727761e-18
1.649013583e-18
1.790832817e-18
1.945944895e-18
2.115034501e-18
2.298691527e-18
2.497391e-18
2.711470438e-18
2.941108397e-18
3.186319748e-18
3.446995614e-18
3.723013548e-18
4.014425473e-18
4.32170802e-18
4.646065318e-18
4.989815833e-18
5.356952707e-18
5.753992154e-18
6.191204066e-18
6.684304355e-18
7.256759151e-18
7.943090207e-18
8.79395556e-18
9.884336782e-18
1.132688195e-17
1.329352699e-17
1.605015622e-17
2.001158534e-17
2.582765306e-17
3.451539808e-17
4.765590997e-17
6.767483114e-17
9.821679665e-17
1.445964948e-16
2.14245761e-16
3.169573576e-16
4.645384367e-16
6.692572271e-16
9.403126596e-16
1.277730446e-15
1.663907842e-15
2.054600571e-15
2.373167889e-15
2.514625872e-15
2.372187266e-15
1.90735614e-15
1.255474181e-15
7.298353519e-16
5.641610947e-16
6.049068344e-16
6.99166029e-16
1.458993055e-15
2.806073701e-15
7.865341409e-15
1.751748496e-14
1.148874028e-14
3.681064501e-14
1.690167705e-14
6.825084438e-16
1.047211548e-15
5.066418117e-16
1.465462084e-13
3.426488654e-14
1.164802278e-14
5.627981224e-15
3.861306755e-15
3.81216418e-15
5.446227142e-15
1.118739089e-14
3.304656435e-14
1.427862461e-13
4.987086356e-16
1.027185446e-15
6.725466993e-16
1.607893604e-14
3.377426541e-14
1.07670374e-14
1.641601559e-14
7.055195618e-15
2.021781873e-15
8.203768955e-16
3.291149142e-16
4.011548473e-16
3.694466259e-16
4.584885231e-16
7.935794436e-16
1.167727262e-15
1.329881114e-15
1.212724028e-15
9.415644114e-16
6.690045647e-16
4.804829704e-16
4.020576571e-16
4.277294711e-16
7.964024556e-16
2.921496722e-16
1.574873096e-19
1.974415187e-19
2.387926889e-19
2.784251153e-19
3.157258778e-19
3.507917712e-19
3.84114648e-19
4.163408826e-19
4.481533802e-19
4.802164204e-19
5.131612833e-19
5.475900096e-19
5.840859341e-19
6.232256112e-19
6.655900621e-19
7.117745864e-19
7.623966371e-19
8.181021123e-19
8.795695299e-19
9.475117946e-19
1.022675635e-18
1.10583809e-18
1.197799481e-18
1.299372932e-18
1.411370242e-18
1.534584784e-18
1.669771875e-18
1.817627907e-18
1.978768499e-18
2.153706214e-18
2.3428267e-18
2.546363519e-18
2.764379266e-18
2.996772123e-18
3.243333891e-18
3.503880316e-18
3.778453677e-18
4.067585631e-18
4.372624338e-18
4.69617906e-18
5.04278297e-18
5.419880464e-18
5.839216739e-18
6.318697553e-18
6.884891713e-18
7.576589382e-18
8.450230643e-18
9.588538192e-18
1.11144125e-17
1.321318577e-17
1.616795917e-17
2.041523014e-17
2.663149495e-17
3.586563973e-17
4.973560196e-17
7.070804978e-17
1.024711038e-16
1.503814146e-16
2.21902173e-16
3.268278697e-16
4.769053967e-16
6.842393971e-16
9.577353049e-16
1.297026438e-15
1.684113633e-15
2.074320514e-15
2.389848601e-15
2.522127332e-15
2.357823019e-15
1.856844317e-15
1.178298346e-15
6.905007356e-16
6.519817367e-16
8.0369297e-16
8.972667252e-16
1.567749494e-15
2.778523961e-15
7.553497263e-15
1.710429998e-14
1.160266266e-14
3.678497952e-14
1.693140471e-14
6.839086087e-16
1.047268385e-15
5.067250714e-16
1.465746561e-13
3.426801109e-14
1.164601642e-14
5.625161002e-15
3.858624163e-15
3.809958316e-15
5.445058106e-15
1.118917444e-14
3.30583143e-14
1.428365347e-13
4.988137852e-16
1.027281151e-15
6.738271642e-16
1.600071969e-14
3.378053605e-14
1.09925906e-14
1.585951676e-14
6.523753278e-15
1.786529182e-15
8.175299542e-16
4.882264851e-16
5.581374105e-16
4.776126803e-16
4.842133805e-16
7.54910533e-16
1.092103051e-15
1.242969051e-15
1.131420624e-15
8.779451768e-16
6.26317741e-16
4.610369277e-16
4.055485007e-16
4.418811135e-16
8.202859582e-16
2.980747622e-16
1.376165053e-19
1.708809805e-19
2.061635428e-19
2.40818405e-19
2.74220779e-19
3.0624051e-19
3.370990612e-19
3.672095784e-19
3.970809642e-19
4.272576162e-19
4.58291303e-19
4.907315395e-19
5.251260619e-19
5.62025945e-19
6.019924997e-19
6.45604169e-19
6.934627422e-19
7.461982117e-19
8.044722421e-19
8.689797147e-19
9.404478101e-19
1.019631995e-18
1.10730822e-18
1.204261537e-18
1.311271302e-18
1.429093921e-18
1.55844348e-18
1.699970112e-18
1.854236198e-18
2.021689675e-18
2.202634359e-18
2.397199762e-18
2.605320436e-18
2.826745279e-18
3.061100165e-18
3.308017894e-18
3.567331357e-18
3.839321314e-18
4.125036348e-18
4.426754019e-18
4.748685259e-18
5.098018127e-18
5.486358645e-18
5.931639292e-18
6.460680646e-18
7.11285588e-18
7.945685763e-18
9.043711201e-18
1.053267421e-17
1.260205788e-17
1.55406321e-17
1.979214266e-17
2.604178808e-17
3.53483629e-17
4.934067009e-17
7.049727757e-17
1.02519587e-16
1.507785168e-16
2.227473929e-16
3.282078313e-16
4.788199854e-16
6.864203666e-16
9.592993264e-16
1.296019438e-15
1.677349553e-15
2.058280094e-15
2.362435189e-15
2.480818402e-15
2.287943695e-15
1.733636255e-15
1.079145302e-15
1.095310582e-15
2.39638063e-15
3.356078205e-15
4.892517908e-15
9.862911207e-15
1.610490074e-14
2.082368447e-14
1.936224627e-14
1.525307684e-14
1.510756607e-14
7.554900072e-13
7.300566043e-13
3.994206248e-13
4.416782363e-13
6.794303008e-14
1.873819893e-14
7.32552454e-15
3.74608549e-15
2.581099418e-15
2.531525693e-15
3.572028223e-15
6.932851293e-15
1.789919392e-14
6.616789549e-14
4.380872254e-13
3.960824756e-13
7.017148055e-13
7.525317789e-13
1.444893477e-14
1.37230504e-14
1.535429131e-14
1.412650505e-14
9.931076098e-15
6.025396918e-15
2.754775914e-15
2.086620042e-15
1.608967413e-15
7.291313571e-16
7.041570479e-16
1.068717081e-15
1.289798635e-15
1.219019814e-15
9.754297257e-16
7.027041714e-16
4.933270852e-16
3.825034093e-16
3.828959001e-16
7.312795629e-16
2.7658947e-16
1.210387765e-19
1.489753137e-19
1.791125383e-19
2.092186898e-19
2.387734579e-19
2.67580751e-19
2.957231364e-19
3.234632483e-19
3.511780395e-19
3.793076546e-19
4.083257175e-19
4.38724602e-19
4.71010235e-19
5.057024964e-19
5.43338539e-19
5.844770879e-19
6.297027421e-19
6.796297129e-19
7.349044393e-19
7.962070439e-19
8.642500809e-19
9.397739887e-19
1.023538624e-18
1.116311067e-18
1.218850706e-18
1.331891858e-18
1.456124147e-18
1.59216941e-18
1.740554394e-18
1.901678356e-18
2.075776223e-18
2.26288106e-18
2.462797459e-18
2.67510522e-18
2.899212957e-18
3.134469222e-18
3.380324561e-18
3.636539359e-18
3.903467783e-18
4.182492685e-18
4.476711855e-18
4.791952687e-18
5.138163343e-18
5.531249734e-18
5.995568138e-18
6.567540061e-18
7.301234357e-18
8.277245458e-18
9.616851883e-18
1.150440839e-17
1.422251344e-17
1.820703453e-17
2.413270952e-17
3.304439774e-17
4.655301949e-17
6.711576084e-17
9.841101924e-17
1.457879921e-16
2.167004306e-16
3.208979061e-16
4.699270411e-16
6.752294347e-16
9.440249608e-16
1.272730499e-15
1.639422913e-15
1.99905415e-15
2.283188515e-15
2.395039588e-15
2.195716174e-15
1.593842394e-15
1.004282435e-15
2.193946217e-15
6.977419342e-15
8.311192498e-15
1.193515505e-14
1.58995615e-14
8.475972231e-15
3.091374713e-15
8.530637825e-13
8.098105084e-13
4.806274959e-13
9.038142054e-14
1.232897339e-13
2.097263961e-13
5.464021443e-14
2.212509264e-14
8.686028281e-15
3.732050155e-15
1.858414337e-15
1.187093813e-15
1.14026836e-15
1.703591167e-15
3.423804377e-15
8.150172442e-15
2.132835108e-14
5.410798284e-14
2.145035187e-13
1.292989906e-13
8.336544821e-14
4.730784832e-13
7.911680492e-13
8.542756004e-13
2.056167909e-15
4.999259469e-15
9.097824871e-15
6.453477734e-15
4.897546019e-15
4.621490704e-15
1.286800092e-15
6.094641596e-16
1.078552926e-15
1.447773545e-15
1.450039226e-15
1.213806983e-15
8.969302569e-16
5.911096523e-16
3.687117681e-16
2.759979111e-16
5.572329099e-16
2.35031442e-16
1.068343655e-19
1.304492432e-19
1.562443882e-19
1.823208468e-19
2.082841973e-19
2.339454624e-19
2.593273846e-19
2.846047791e-19
3.100637142e-19
3.360631057e-19
3.630093194e-19
3.913411879e-19
4.215227461e-19
4.540412063e-19
4.894078613e-19
5.281603401e-19
5.708654153e-19
6.181218279e-19
6.705626464e-19
7.288562932e-19
7.937053051e-19
8.65841112e-19
9.460151533e-19
1.034986354e-18
1.133506253e-18
1.242302001e-18
1.36205607e-18
1.493381102e-18
1.636788126e-18
1.79264788e-18
1.961145932e-18
2.142236255e-18
2.33560499e-18
2.54066104e-18
2.756568608e-18
2.982324165e-18
3.216869211e-18
3.459239089e-18
3.708784621e-18
3.965543777e-18
4.230852206e-18
4.508255292e-18
4.804758851e-18
5.132497167e-18
5.511042534e-18
5.970840952e-18
6.558614276e-18
7.346022146e-18
8.443472583e-18
1.002188909e-17
1.234683699e-17
1.583205077e-17
2.112315614e-17
2.922691119e-17
4.17053839e-17
6.095536166e-17
9.058475946e-17
1.35868469e-16
2.041938978e-16
3.052538516e-16
4.504712793e-16
6.50776962e-16
9.116999092e-16
1.22564051e-15
1.564602074e-15
1.882189528e-15
2.130658798e-15
2.264385816e-15
2.152303099e-15
1.579720901e-15
1.023502218e-15
4.297948624e-15
1.815876359e-14
1.603905296e-14
5.744324334e-15
2.796033977e-15
1.798762169e-14
7.918310658e-14
7.215441456e-13
4.410955367e-13
3.568186892e-13
2.233564151e-14
6.400529369e-15
2.625630791e-14
1.488463793e-14
7.894502485e-15
3.795047821e-15
1.712033213e-15
7.471124661e-16
3.577334616e-16
3.188626413e-16
6.251600331e-16
1.494073323e-15
3.476614062e-15
7.535861963e-15
1.477228283e-14
2.71368108e-14
7.326018437e-15
2.063948589e-14
3.494198285e-13
4.392673139e-13
7.193606924e-13
8.231255153e-14
1.906279688e-14
1.690161275e-15
3.077370574e-15
8.961994307e-15
1.288957887e-14
2.252471705e-15
4.534978537e-16
1.164143355e-15
1.708777303e-15
1.777095509e-15
1.55719355e-15
1.191845744e-15
7.738409565e-16
4.006629015e-16
1.781742616e-16
3.514362204e-16
1.871513995e-16
9.444135491e-20
1.144924725e-19
1.366123296e-19
1.591657773e-19
1.818720153e-19
2.045762207e-19
2.272835732e-19
2.501221127e-19
2.733192858e-19
2.971748833e-19
3.220415884e-19
3.483121654e-19
3.764125008e-19
4.067985576e-19
4.399560446e-19
4.764014372e-19
5.166839145e-19
5.613876289e-19
6.111340261e-19
6.665828974e-19
7.284307871e-19
7.974055873e-19
8.742572772e-19
9.597457427e-19
1.054626484e-18
1.159634247e-18
1.275461912e-18
1.402732982e-18
1.541965153e-18
1.693525167e-18
1.857575861e-18
2.034020414e-18
2.222453381e-18
2.422132519e-18
2.63198102e-18
2.850618717e-18
3.0764132e-18
3.307555356e-18
3.54219906e-18
3.778738181e-18
4.016295901e-18
4.255474606e-18
4.499400361e-18
4.755149458e-18
5.035797152e-18
5.363579508e-18
5.774992042e-18
6.329051003e-18
7.120461825e-18
8.30030481e-18
1.010846454e-17
1.292473051e-17
1.734932341e-17
2.432811292e-17
3.534201222e-17
5.268152928e-17
7.982136234e-17
1.218850769e-16
1.861189165e-16
2.8212157e-16
4.212258682e-16
6.138737348e-16
8.633588756e-16
1.155312474e-15
1.448397998e-15
1.686349883e-15
1.858677453e-15
2.064476946e-15
2.290028308e-15
2.091940717e-15
1.385800438e-15
5.715246155e-15
8.547156428e-15
6.814566564e-15
2.885462463e-13
4.714342012e-13
6.26330616e-14
2.013981562e-14
6.766839606e-14
5.512351838e-14
4.151894173e-14
6.125736986e-15
4.55981616e-15
7.476036305e-15
5.642108514e-15
3.404651179e-15
1.801786355e-15
8.269435952e-16
2.999240872e-16
6.279906219e-17
3.437178268e-17
2.145145168e-16
6.872822036e-16
1.624658711e-15
3.243853307e-15
5.614435786e-15
7.708390406e-15
4.827313443e-15
6.008143011e-15
4.110439611e-14
5.56583995e-14
6.810406305e-14
1.982386221e-14
6.169571295e-14
4.738918328e-13
2.844741088e-13
4.479786183e-15
4.349946796e-15
2.783267484e-15
4.409694533e-16
1.550329347e-15
2.035078407e-15
2.051282294e-15
1.878655058e-15
1.535700791e-15
1.042961363e-15
5.345282294e-16
1.575850734e-16
2.057062478e-16
1.5394854e-16
8.349764533e-20
1.005697474e-19
1.195615079e-19
1.390498806e-19
1.588469345e-19
1.78837585e-19
1.990294273e-19
2.195281184e-19
2.405249509e-19
2.622783055e-19
2.850998774e-19
3.09344851e-19
3.354060978e-19
3.637113165e-19
3.947221657e-19
4.289349122e-19
4.668818885e-19
5.09133927e-19
5.563026931e-19
6.09041946e-19
6.680458041e-19
7.340431937e-19
8.077887655e-19
8.900516741e-19
9.816025772e-19
1.083197877e-18
1.195558466e-18
1.319339327e-18
1.455089158e-18
1.603199079e-18
1.76384289e-18
1.936911759e-18
2.121951537e-18
2.318111764e-18
2.524111834e-18
2.738219539e-18
2.958233909e-18
3.181479552e-18
3.404851647e-18
3.624976078e-18
3.838545391e-18
4.042868139e-18
4.236667428e-18