/*--------------------------------*- C++ -*----------------------------------*\
  =========                 |
  \\      /  F ield         | OpenFOAM: The Open Source CFD Toolbox
   \\    /   O peration     | Website:  https://openfoam.org
    \\  /    A nd           | Version:  6
     \\/     M anipulation  |
\*---------------------------------------------------------------------------*/
FoamFile
{
    version     2.0;
    format      ascii;
    class       volVectorField;
    location    "0.0029";
    object      gradT;
}
// * * * * * * * * * * * * * * * * * * * * * * * * * * * * * * * * * * * * * //

dimensions      [0 -1 0 1 0 0 0];

internalField   nonuniform List<vector> 
9600
(
(0 1.234974017e-05 -0.0002053449236)
(0 3.594765635e-05 -0.0002010034683)
(0 5.771597707e-05 -0.0001929723135)
(0 7.680852291e-05 -0.0001822310889)
(0 9.28784373e-05 -0.0001698318075)
(0 0.000105975255 -0.0001566663644)
(0 0.0001163353148 -0.0001434056403)
(0 0.0001242978553 -0.0001305070306)
(0 0.0001302478307 -0.0001182601971)
(0 0.0001345206883 -0.0001068214409)
(0 0.000137398491 -9.625555781e-05)
(0 0.0001391594642 -8.65739656e-05)
(0 0.0001399904035 -7.774618837e-05)
(0 0.0001400666449 -6.974173133e-05)
(0 0.0001395482523 -6.249578391e-05)
(0 0.0001385305422 -5.595880725e-05)
(0 0.0001370935591 -5.006600213e-05)
(0 0.0001353325694 -4.475637318e-05)
(0 0.0001332933376 -3.999181293e-05)
(0 0.0001310368497 -3.569608755e-05)
(0 0.000128597387 -3.183488578e-05)
(0 0.0001260207128 -2.836247427e-05)
(0 0.0001233182617 -2.52483592e-05)
(0 0.0001205319394 -2.245441956e-05)
(0 0.0001176808266 -1.994635504e-05)
(0 0.0001147687342 -1.768986037e-05)
(0 0.0001118299466 -1.566968576e-05)
(0 0.0001088759192 -1.386296451e-05)
(0 0.0001058990283 -1.223920311e-05)
(0 0.0001029259364 -1.078315276e-05)
(0 9.995666244e-05 -9.487192374e-06)
(0 9.70102642e-05 -8.32845182e-06)
(0 9.409053586e-05 -7.280248065e-06)
(0 9.118987158e-05 -6.346394256e-06)
(0 8.833495237e-05 -5.515455279e-06)
(0 8.55219507e-05 -4.775995197e-06)
(0 8.274325916e-05 -4.11276841e-06)
(0 8.001412385e-05 -3.514339853e-06)
(0 7.733071872e-05 -2.98833219e-06)
(0 7.47044931e-05 -2.523311109e-06)
(0 7.212782325e-05 -2.11165323e-06)
(0 6.960831946e-05 -1.73811158e-06)
(0 6.714980637e-05 -1.410309835e-06)
(0 6.473322529e-05 -1.120624639e-06)
(0 6.238143447e-05 -8.6905579e-07)
(0 6.00982572e-05 -6.403568979e-07)
(0 5.786463482e-05 -4.421512179e-07)
(0 5.568818023e-05 -2.706270223e-07)
(0 5.357271547e-05 -1.219727425e-07)
(0 5.151442854e-05 7.623296861e-09)
(0 4.950949849e-05 1.219727425e-07)
(0 4.75731812e-05 2.134522993e-07)
(0 4.569022973e-05 3.01120226e-07)
(0 4.38644475e-05 3.697298756e-07)
(0 4.209203109e-05 4.307162468e-07)
(0 4.037298017e-05 4.802677022e-07)
(0 3.871491078e-05 5.221958036e-07)
(0 3.711020689e-05 5.48877341e-07)
(0 3.555505656e-05 5.75558913e-07)
(0 3.404945339e-05 5.946171195e-07)
(0 3.260102707e-05 6.098637123e-07)
(0 3.118690746e-05 6.174870457e-07)
(0 2.983758212e-05 6.251103051e-07)
(0 2.853018679e-05 6.289219533e-07)
(0 2.727234452e-05 6.28921991e-07)
(0 2.60640504e-05 6.212986569e-07)
(0 2.489387441e-05 6.174870087e-07)
(0 2.376943961e-05 6.060521004e-07)
(0 2.269074174e-05 5.946171195e-07)
(0 2.165016179e-05 5.831821749e-07)
(0 2.06515112e-05 5.717472646e-07)
(0 1.969478626e-05 5.526889892e-07)
(0 1.877617904e-05 5.450656928e-07)
(0 1.788425444e-05 5.336307802e-07)
(0 1.703425581e-05 5.10760859e-07)
(0 1.62185631e-05 4.993259144e-07)
(0 1.543336449e-05 4.840793507e-07)
(0 1.469009217e-05 4.573977842e-07)
(0 1.396587901e-05 4.459628396e-07)
(0 1.327215983e-05 4.307162726e-07)
(0 1.262417884e-05 4.116580058e-07)
(0 1.199525689e-05 4.002230612e-07)
(0 1.139682881e-05 3.81164843e-07)
(0 1.082508089e-05 3.58294931e-07)
(0 1.02723919e-05 3.430483381e-07)
(0 9.746385036e-06 3.239901166e-07)
(0 9.250870185e-06 3.087435043e-07)
(0 8.785849105e-06 2.973085597e-07)
(0 8.332263469e-06 2.820619838e-07)
(0 7.901546722e-06 2.744386705e-07)
(0 7.493700364e-06 2.630037259e-07)
(0 7.097289377e-06 2.439454995e-07)
(0 6.742805669e-06 2.363221885e-07)
(0 6.388322386e-06 2.210755957e-07)
(0 6.060521004e-06 2.020173668e-07)
(0 5.74415384e-06 1.982057065e-07)
(0 5.458280225e-06 1.867707619e-07)
(0 5.168595272e-06 1.791474762e-07)
(0 4.909402884e-06 1.715241691e-07)
(0 4.665457399e-06 1.639008727e-07)
(0 4.429135476e-06 1.486542888e-07)
(0 4.211871263e-06 1.372193353e-07)
(0 4.009853908e-06 1.257843907e-07)
(0 3.815460079e-06 1.219727498e-07)
(0 3.643935681e-06 1.105377978e-07)
(0 3.47622316e-06 9.529120504e-08)
(0 3.331380728e-06 8.76679139e-08)
(0 3.186537897e-06 8.004461223e-08)
(0 3.056941858e-06 7.623296403e-08)
(0 2.934969291e-06 7.242132018e-08)
(0 2.835866262e-06 6.479801943e-08)
(0 2.740575057e-06 5.336307482e-08)
(0 2.656718956e-06 4.573978116e-08)
(0 2.584297481e-06 4.192813022e-08)
(0 2.519499461e-06 3.430483381e-08)
(0 2.466136534e-06 2.668153901e-08)
(0 2.428019904e-06 1.905824101e-08)
(0 2.393715071e-06 1.14349446e-08)
(0 2.370845324e-06 0)
(0 2.363221885e-06 0)
(0 1.487686284e-05 -0.0002377782367)
(0 4.30944969e-05 -0.000231641497)
(0 6.846101294e-05 -0.0002205572102)
(0 8.989391065e-05 -0.0002062063548)
(0 0.0001071683066 -0.0001901898206)
(0 0.0001205776785 -0.0001737196774)
(0 0.0001306289947 -0.0001575887823)
(0 0.000137909251 -0.0001422964583)
(0 0.0001429711115 -0.0001280637555)
(0 0.0001462453173 -0.0001150126721)
(0 0.0001481244688 -0.0001031432059)
(0 0.0001489058478 -9.239054021e-05)
(0 0.0001488181798 -8.269751889e-05)
(0 0.0001480406125 -7.397266064e-05)
(0 0.0001467332083 -6.612828425e-05)
(0 0.0001449874734 -5.909579336e-05)
(0 0.0001428986988 -5.278370715e-05)
(0 0.0001405545266 -4.712340643e-05)
(0 0.0001379816641 -4.204629106e-05)
(0 0.0001352449088 -3.749137374e-05)
(0 0.0001323823529 -3.340528464e-05)
(0 0.0001294092673 -2.974991404e-05)
(0 0.0001263561447 -2.646046324e-05)
(0 0.0001232687021 -2.351024597e-05)
(0 0.000120127904 -2.087258543e-05)
(0 0.0001169680547 -1.850555302e-05)
(0 0.000113800568 -1.637484058e-05)
(0 0.0001106369 -1.448045143e-05)
(0 0.0001074770501 -1.277664546e-05)
(0 0.0001043400572 -1.125198542e-05)
(0 0.0001012259407 -9.887415376e-06)
(0 9.814613484e-05 -8.66387683e-06)
(0 9.510443371e-05 -7.569933283e-06)
(0 9.210085494e-05 -6.597962997e-06)
(0 8.914302131e-05 -5.72128426e-06)
(0 8.623854005e-05 -4.947519336e-06)
(0 8.339123886e-05 -4.246176071e-06)
(0 8.058205898e-05 -3.632500932e-06)
(0 7.784147911e-05 -3.083623377e-06)
(0 7.515807879e-05 -2.591920762e-06)
(0 7.25280459e-05 -2.165016295e-06)
(0 6.996661397e-05 -1.776228051e-06)
(0 6.746617276e-05 -1.436991363e-06)
(0 6.501147524e-05 -1.132059577e-06)
(0 6.263300287e-05 -8.652441366e-07)
(0 6.031170913e-05 -6.289219495e-07)
(0 5.805140525e-05 -4.230929732e-07)
(0 5.585208076e-05 -2.515687798e-07)
(0 5.371755778e-05 -9.147955629e-08)
(0 5.163640098e-05 4.573978089e-08)
(0 4.962003599e-05 1.639008717e-07)
(0 4.766466048e-05 2.668153725e-07)
(0 4.576646243e-05 3.544833019e-07)
(0 4.393305691e-05 4.192812997e-07)
(0 4.214920556e-05 4.802676705e-07)
(0 4.041871971e-05 5.260074802e-07)
(0 3.874921539e-05 5.717472268e-07)
(0 3.713688821e-05 6.060520604e-07)
(0 3.557411459e-05 6.327336356e-07)
(0 3.407232307e-05 6.479801904e-07)
(0 3.260483852e-05 6.594151349e-07)
(0 3.119834222e-05 6.708501197e-07)
(0 2.984139359e-05 6.746617276e-07)
(0 2.853399827e-05 6.784733758e-07)
(0 2.727234436e-05 6.822850649e-07)
(0 2.605642695e-05 6.784733758e-07)
(0 2.488625096e-05 6.708500795e-07)
(0 2.375800452e-05 6.594151745e-07)
(0 2.267930666e-05 6.365452459e-07)
(0 2.163872671e-05 6.289219495e-07)
(0 2.063245283e-05 6.136753936e-07)
(0 1.967953955e-05 5.984287641e-07)
(0 1.876093234e-05 5.831821714e-07)
(0 1.786900773e-05 5.641239643e-07)
(0 1.701900912e-05 5.488773377e-07)
(0 1.620331641e-05 5.298190969e-07)
(0 1.541049451e-05 5.107608866e-07)
(0 1.467103384e-05 4.955142632e-07)
(0 1.395063233e-05 4.68832726e-07)
(0 1.326072481e-05 4.573978089e-07)
(0 1.260512053e-05 4.421511887e-07)
(0 1.197619858e-05 4.26904596e-07)
(0 1.137395885e-05 4.040347312e-07)
(0 1.080221094e-05 3.849764661e-07)
(0 1.025714525e-05 3.582949288e-07)
(0 9.734950033e-06 3.468600051e-07)
(0 9.239435185e-06 3.316133916e-07)
(0 8.766790811e-06 3.163667988e-07)
(0 8.320828474e-06 3.049318726e-07)
(0 7.89011173e-06 2.858736134e-07)
(0 7.478453727e-06 2.706270207e-07)
(0 7.089666038e-06 2.630037401e-07)
(0 6.723747387e-06 2.515687798e-07)
(0 6.384510699e-06 2.363221871e-07)
(0 6.041462726e-06 2.24887256e-07)
(0 5.740342157e-06 2.172639462e-07)
(0 5.439221951e-06 2.058290017e-07)
(0 5.164783592e-06 1.905824204e-07)
(0 4.901779558e-06 1.791474644e-07)
(0 4.650210778e-06 1.677125199e-07)
(0 4.417700504e-06 1.562775847e-07)
(0 4.196624645e-06 1.448426308e-07)
(0 4.002230588e-06 1.372193344e-07)
(0 3.807836759e-06 1.257843974e-07)
(0 3.632500714e-06 1.143494454e-07)
(0 3.468599843e-06 1.06726149e-07)
(0 3.316134115e-06 9.529121019e-08)
(0 3.182726229e-06 8.766790811e-08)
(0 3.053130191e-06 8.004461175e-08)
(0 2.927345977e-06 7.242131974e-08)
(0 2.828242949e-06 6.860966722e-08)
(0 2.732951744e-06 6.098637086e-08)
(0 2.645283995e-06 5.33630777e-08)
(0 2.576674169e-06 4.573977815e-08)
(0 2.515687798e-06 3.430483361e-08)
(0 2.458513223e-06 2.668153885e-08)
(0 2.420396594e-06 1.905824089e-08)
(0 2.38609176e-06 7.623296358e-09)
(0 2.367033661e-06 3.811648407e-09)
(0 2.359410223e-06 0)
(0 1.85131752e-05 -0.000276409291)
(0 5.317249528e-05 -0.0002672918446)
(0 8.315110502e-05 -0.0002514696769)
(0 0.0001071683002 -0.0002319311684)
(0 0.0001253727394 -0.0002110738422)
(0 0.0001385762812 -0.0001904718711)
(0 0.0001477585417 -0.0001709943489)
(0 0.0001538228831 -0.0001530414952)
(0 0.0001575277959 -0.0001367505017)
(0 0.000159445055 -0.0001220756562)
(0 0.0001600244351 -0.0001089292882)
(0 0.0001595975209 -9.718559361e-05)
(0 0.00015841591 -8.669593783e-05)
(0 0.000156632068 -7.733834619e-05)
(0 0.0001544251143 -6.899083204e-05)
(0 0.00015187131 -6.153143655e-05)
(0 0.0001490659459 -5.487249047e-05)
(0 0.0001460737932 -4.891869273e-05)
(0 0.0001429253718 -4.359000857e-05)
(0 0.0001396740442 -3.883307398e-05)
(0 0.000136346467 -3.456783733e-05)
(0 0.0001329693467 -3.074856586e-05)
(0 0.0001295503061 -2.732570743e-05)
(0 0.0001261160033 -2.426876395e-05)
(0 0.0001226893316 -2.152056562e-05)
(0 0.0001192664787 -1.906205369e-05)
(0 0.0001158550464 -1.686654319e-05)
(0 0.0001124741145 -1.489210943e-05)
(0 0.0001091274939 -1.313494041e-05)
(0 0.0001058113534 -1.155691728e-05)
(0 0.000102544771 -1.01427958e-05)
(0 9.93239342e-05 -8.877329141e-06)
(0 9.615644861e-05 -7.749080747e-06)
(0 9.304614369e-05 -6.73899398e-06)
(0 8.99853956e-05 -5.835633712e-06)
(0 8.699705803e-05 -5.031375596e-06)
(0 8.405827729e-05 -4.314785738e-06)
(0 8.117667613e-05 -3.678240713e-06)
(0 7.836748656e-05 -3.110304914e-06)
(0 7.562691152e-05 -2.607167354e-06)
(0 7.294732722e-05 -2.149769702e-06)
(0 7.034015549e-05 -1.760981459e-06)
(0 6.779016286e-05 -1.406498178e-06)
(0 6.530116052e-05 -1.097754741e-06)
(0 6.289219495e-05 -8.233160066e-07)
(0 6.053278473e-05 -5.831821714e-07)
(0 5.824579931e-05 -3.773531923e-07)
(0 5.601979328e-05 -1.943940571e-07)
(0 5.386621206e-05 -3.430483361e-08)
(0 5.176599702e-05 1.02914507e-07)
(0 4.973438544e-05 2.286988907e-07)
(0 4.775614003e-05 3.392366879e-07)
(0 4.584650705e-05 4.154696764e-07)
(0 4.399785493e-05 4.917026151e-07)
(0 4.219875699e-05 5.488773377e-07)
(0 4.046445949e-05 5.984288e-07)
(0 3.879114352e-05 6.365452459e-07)
(0 3.716356974e-05 6.784733758e-07)
(0 3.559698448e-05 6.899083618e-07)
(0 3.408375801e-05 7.127782094e-07)
(0 3.261627347e-05 7.24213154e-07)
(0 3.120977716e-05 7.356481426e-07)
(0 2.984520524e-05 7.394597467e-07)
(0 2.853399827e-05 7.394597467e-07)
(0 2.726853271e-05 7.280248458e-07)
(0 2.60526153e-05 7.24213154e-07)
(0 2.487481601e-05 7.165898576e-07)
(0 2.373894628e-05 7.01343307e-07)
(0 2.266406007e-05 6.899083204e-07)
(0 2.162348012e-05 6.746617276e-07)
(0 2.062101788e-05 6.594151745e-07)
(0 1.966048131e-05 6.40356894e-07)
(0 1.874568574e-05 6.212986531e-07)
(0 1.784994949e-05 6.060520968e-07)
(0 1.699995088e-05 5.869938195e-07)
(0 1.618425817e-05 5.641239305e-07)
(0 1.539905957e-05 5.488773707e-07)
(0 1.46443523e-05 5.298190969e-07)
(0 1.393538574e-05 5.10760856e-07)
(0 1.324166657e-05 4.878909962e-07)
(0 1.258987393e-05 4.68832726e-07)
(0 1.195714034e-05 4.497744851e-07)
(0 1.135490061e-05 4.383395669e-07)
(0 1.077934105e-05 4.154696515e-07)
(0 1.023427536e-05 3.925997624e-07)
(0 9.719703439e-06 3.773531923e-07)
(0 9.224188593e-06 3.582949288e-07)
(0 8.755355867e-06 3.430483361e-07)
(0 8.30558188e-06 3.27801763e-07)
(0 7.871053489e-06 3.087435025e-07)
(0 7.467018782e-06 2.973085579e-07)
(0 7.078231093e-06 2.820619822e-07)
(0 6.716124091e-06 2.706270207e-07)
(0 6.365452459e-06 2.55380428e-07)
(0 6.033839429e-06 2.439454981e-07)
(0 5.725095565e-06 2.286988907e-07)
(0 5.427787007e-06 2.096406498e-07)
(0 5.149536999e-06 1.982057172e-07)
(0 4.890344613e-06 1.905824089e-07)
(0 4.638775834e-06 1.753358162e-07)
(0 4.402453911e-06 1.600892331e-07)
(0 4.192812997e-06 1.48654279e-07)
(0 3.990795643e-06 1.410309826e-07)
(0 3.800213462e-06 1.372193427e-07)
(0 3.62106577e-06 1.257843899e-07)
(0 3.45335325e-06 1.143494454e-07)
(0 3.304699169e-06 1.02914507e-07)
(0 3.175102933e-06 9.147955629e-08)
(0 3.045506895e-06 8.385625993e-08)
(0 2.927345977e-06 7.623296815e-08)
(0 2.820619652e-06 7.24213154e-08)
(0 2.725328448e-06 6.479801904e-08)
(0 2.637660698e-06 5.717472611e-08)
(0 2.565239224e-06 4.955142632e-08)
(0 2.508064502e-06 3.811648179e-08)
(0 2.450889926e-06 3.430483567e-08)
(0 2.412773297e-06 2.668153725e-08)
(0 2.378468464e-06 1.905824089e-08)
(0 2.363222013e-06 1.524659363e-08)
(0 2.355598574e-06 3.811648179e-09)
(0 2.402481862e-05 -0.000324218796)
(0 6.803030119e-05 -0.0003097307398)
(0 0.0001038178621 -0.0002861899819)
(0 0.0001302935705 -0.0002590358001)
(0 0.0001486314189 -0.0002317596595)
(0 0.0001606571601 -0.0002061568046)
(0 0.0001680555692 -0.0001829286205)
(0 0.0001721607247 -0.0001621970757)
(0 0.0001739369424 -0.0001438401682)
(0 0.0001740665384 -0.0001276482866)
(0 0.0001730107223 -0.0001133584243)
(0 0.0001711391926 -0.0001007494853)
(0 0.0001686616213 -8.960422592e-05)
(0 0.000165749532 -7.972825022e-05)
(0 0.0001625401143 -7.096526622e-05)
(0 0.0001591096309 -6.318569224e-05)
(0 0.0001555114443 -5.625993083e-05)
(0 0.0001518293828 -5.008886902e-05)
(0 0.000148067286 -4.458484901e-05)
(0 0.0001442708931 -3.967163686e-05)
(0 0.0001404630479 -3.528061575e-05)
(0 0.000136647588 -3.135461811e-05)
(0 0.0001328473827 -2.784028014e-05)
(0 0.0001290700314 -2.46956687e-05)
(0 0.0001253269929 -2.188648397e-05)
(0 0.0001216258898 -1.937079732e-05)
(0 0.0001179705118 -1.711811207e-05)
(0 0.0001143685043 -1.510175017e-05)
(0 0.0001108198665 -1.329502973e-05)
(0 0.0001073283901 -1.167889009e-05)
(0 0.00010390553 -1.023808707e-05)
(0 0.0001005398506 -8.945938866e-06)
(0 9.724276892e-05 -7.791008924e-06)
(0 9.40066796e-05 -6.76186391e-06)
(0 9.085445199e-05 -5.847068692e-06)
(0 8.776319984e-05 -5.019940682e-06)
(0 8.474437447e-05 -4.291915875e-06)
(0 8.178654037e-05 -3.640124251e-06)
(0 7.891255272e-05 -3.064565154e-06)
(0 7.611099129e-05 -2.546180999e-06)
(0 7.337423228e-05 -2.092594988e-06)
(0 7.071369744e-05 -1.688560153e-06)
(0 6.812558831e-05 -1.334076871e-06)
(0 6.559846949e-05 -1.021521779e-06)
(0 6.314757576e-05 -7.432713993e-07)
(0 6.076529563e-05 -4.993259144e-07)
(0 5.844019373e-05 -2.934969291e-07)
(0 5.619131779e-05 -1.029145014e-07)
(0 5.401486667e-05 5.336307482e-08)
(0 5.189559338e-05 1.943940699e-07)
(0 4.984873518e-05 3.125551525e-07)
(0 4.785905482e-05 4.116580058e-07)
(0 4.591892864e-05 4.993259444e-07)
(0 4.405884156e-05 5.641239338e-07)
(0 4.225593196e-05 6.289219533e-07)
(0 4.051019952e-05 6.784734206e-07)
(0 3.882544858e-05 7.165898619e-07)
(0 3.719406315e-05 7.432713993e-07)
(0 3.561604293e-05 7.737646314e-07)
(0 3.409900481e-05 7.813878813e-07)
(0 3.262770861e-05 7.966344741e-07)
(0 3.120977735e-05 8.004461704e-07)
(0 2.984901707e-05 8.004461223e-07)
(0 2.853018679e-05 7.966344741e-07)
(0 2.725709793e-05 7.890112251e-07)
(0 2.604118051e-05 7.775762331e-07)
(0 2.486719287e-05 7.661412885e-07)
(0 2.372751148e-05 7.547063892e-07)
(0 2.264881361e-05 7.432713993e-07)
(0 2.16120453e-05 7.280248065e-07)
(0 2.059814812e-05 7.08966608e-07)
(0 1.964523483e-05 6.937199727e-07)
(0 1.872662761e-05 6.708500835e-07)
(0 1.783089136e-05 6.441685847e-07)
(0 1.697708109e-05 6.251103051e-07)
(0 1.616138838e-05 6.098637123e-07)
(0 1.537618977e-05 5.831822098e-07)
(0 1.46291058e-05 5.603122856e-07)
(0 1.390870429e-05 5.412540446e-07)
(0 1.322642005e-05 5.145725381e-07)
(0 1.256700412e-05 4.993259144e-07)
(0 1.194189382e-05 4.764560252e-07)
(0 1.133965408e-05 4.573978116e-07)
(0 1.076028287e-05 4.34527895e-07)
(0 1.021521718e-05 4.192813022e-07)
(0 9.700645255e-06 4.002230852e-07)
(0 9.208942055e-06 3.849764684e-07)
(0 8.740109326e-06 3.697298756e-07)
(0 8.282712039e-06 3.506716556e-07)
(0 7.855806944e-06 3.316133935e-07)
(0 7.447960586e-06 3.125551525e-07)
(0 7.062984541e-06 2.934969291e-07)
(0 6.69706589e-06 2.744386705e-07)
(0 6.354017552e-06 2.630037259e-07)
(0 6.018592872e-06 2.47757148e-07)
(0 5.709849006e-06 2.286988921e-07)
(0 5.416352095e-06 2.172639475e-07)
(0 5.134290436e-06 2.020173668e-07)
(0 4.878909698e-06 1.867707619e-07)
(0 4.627340917e-06 1.753358173e-07)
(0 4.391018992e-06 1.677125309e-07)
(0 4.177566429e-06 1.600892245e-07)
(0 3.986984019e-06 1.448426317e-07)
(0 3.792590188e-06 1.334076951e-07)
(0 3.609630847e-06 1.257843907e-07)
(0 3.449541623e-06 1.181610943e-07)
(0 3.293264244e-06 1.105378045e-07)
(0 3.163668007e-06 9.910285324e-08)
(0 3.034071969e-06 8.385626044e-08)
(0 2.919722698e-06 8.004461704e-08)
(0 2.812996373e-06 6.860966763e-08)
(0 2.717705168e-06 6.098637123e-08)
(0 2.630037417e-06 5.336307802e-08)
(0 2.557615943e-06 4.192813022e-08)
(0 2.496629572e-06 4.192813022e-08)
(0 2.447078292e-06 3.049318744e-08)
(0 2.405150015e-06 2.286988921e-08)
(0 2.37465683e-06 1.524659281e-08)
(0 2.35559873e-06 1.524659372e-08)
(0 2.344163644e-06 3.811648202e-09)
(0 3.302793147e-05 -0.0003865964165)
(0 9.120131145e-05 -0.0003613175875)
(0 0.0001338460258 -0.0003246228288)
(0 0.0001616024478 -0.0002863310112)
(0 0.0001782441145 -0.0002508636399)
(0 0.000187407306 -0.0002195547467)
(0 0.0001917220917 -0.0001924272467)
(0 0.0001929037143 -0.0001690351719)
(0 0.000192076575 -0.0001488448614)
(0 0.0001899306171 -0.0001313684545)
(0 0.0001869232379 -0.0001161676085)
(0 0.0001833593356 -0.0001028954426)
(0 0.000179433338 -9.126610399e-05)
(0 0.0001752672171 -8.103945679e-05)
(0 0.0001709676674 -7.200584575e-05)
(0 0.0001665804604 -6.401281951e-05)
(0 0.0001621589582 -5.692315732e-05)
(0 0.0001577488715 -5.062631111e-05)
(0 0.0001533426062 -4.501175334e-05)
(0 0.000148978278 -4.000706168e-05)
(0 0.0001446634833 -3.554361927e-05)
(0 0.000140409684 -3.155663527e-05)
(0 0.0001362054442 -2.800418085e-05)
(0 0.000132077421 -2.481382964e-05)
(0 0.0001280142041 -2.196271681e-05)
(0 0.0001240348508 -1.941272534e-05)
(0 0.0001201240924 -1.713335856e-05)
(0 0.0001162971976 -1.509031514e-05)
(0 0.0001125427309 -1.326834811e-05)
(0 0.0001088759186 -1.163696189e-05)
(0 0.0001052815343 -1.017710064e-05)
(0 0.0001017672008 -8.877329141e-06)
(0 9.834052301e-05 -7.714775914e-06)
(0 9.499008426e-05 -6.678007609e-06)
(0 9.172731893e-05 -5.747965798e-06)
(0 8.854458719e-05 -4.920837799e-06)
(0 8.543809393e-05 -4.189001348e-06)
(0 8.240402692e-05 -3.537209722e-06)
(0 7.946905288e-05 -2.95021569e-06)
(0 7.660269345e-05 -2.431831538e-06)
(0 7.380494811e-05 -1.970622227e-06)
(0 7.109867348e-05 -1.562775753e-06)
(0 6.845720129e-05 -1.212104121e-06)
(0 6.589196602e-05 -8.957373758e-07)
(0 6.340676745e-05 -6.251103013e-07)
(0 6.098637086e-05 -3.849764661e-07)
(0 5.86383991e-05 -1.753358267e-07)
(0 5.637046492e-05 7.623296358e-09)
(0 5.416733227e-05 1.71524168e-07)
(0 5.202518911e-05 3.08743521e-07)
(0 4.995164938e-05 4.230929478e-07)
(0 4.794672244e-05 5.183841523e-07)
(0 4.599897298e-05 6.060520968e-07)
(0 4.412363932e-05 6.746617276e-07)
(0 4.231310643e-05 7.318364503e-07)
(0 4.055593906e-05 7.775762751e-07)
(0 3.885594153e-05 8.156927103e-07)
(0 3.722074447e-05 8.385625993e-07)
(0 3.563510096e-05 8.614325401e-07)
(0 3.41066279e-05 8.766790811e-07)
(0 3.263533171e-05 8.804907293e-07)
(0 3.121358881e-05 8.804907821e-07)
(0 2.983758194e-05 8.804907293e-07)
(0 2.852256332e-05 8.728674329e-07)
(0 2.725328611e-05 8.652441885e-07)
(0 2.602974541e-05 8.53809192e-07)
(0 2.485194613e-05 8.385625993e-07)
(0 2.371607639e-05 8.23316056e-07)
(0 2.262975524e-05 8.042577657e-07)
(0 2.159298693e-05 7.775762285e-07)
(0 2.05829014e-05 7.623296815e-07)
(0 1.962617647e-05 7.432713949e-07)
(0 1.869613432e-05 7.204015058e-07)
(0 1.780420971e-05 6.937200102e-07)
(0 1.69618344e-05 6.708500795e-07)
(0 1.614233004e-05 6.479801904e-07)
(0 1.535331979e-05 6.251103388e-07)
(0 1.460242417e-05 6.022404122e-07)
(0 1.389345761e-05 5.793705232e-07)
(0 1.319592679e-05 5.565006675e-07)
(0 1.25479458e-05 5.298190969e-07)
(0 1.19228355e-05 5.069492078e-07)
(0 1.131297247e-05 4.840793478e-07)
(0 1.074122457e-05 4.68832726e-07)
(0 1.019997053e-05 4.497744851e-07)
(0 9.685398603e-06 4.269046216e-07)
(0 9.186072111e-06 4.154696515e-07)
(0 8.721051033e-06 3.887881142e-07)
(0 8.267465396e-06 3.697298955e-07)
(0 7.836748656e-06 3.506716324e-07)
(0 7.4289023e-06 3.278017434e-07)
(0 7.043926257e-06 3.163668178e-07)
(0 6.689442554e-06 2.934969098e-07)
(0 6.334959273e-06 2.782503171e-07)
(0 6.003346242e-06 2.630037401e-07)
(0 5.690790731e-06 2.515687798e-07)
(0 5.401105469e-06 2.325105389e-07)
(0 5.119043811e-06 2.172639592e-07)
(0 4.863663076e-06 2.020173535e-07)
(0 4.615905945e-06 1.905824089e-07)
(0 4.383395669e-06 1.753358267e-07)
(0 4.173754756e-06 1.677125199e-07)
(0 3.971737402e-06 1.562775753e-07)
(0 3.777343572e-06 1.448426395e-07)
(0 3.602007529e-06 1.372193344e-07)
(0 3.438106657e-06 1.295960381e-07)
(0 3.285640927e-06 1.143494522e-07)
(0 3.156044692e-06 1.029145008e-07)
(0 3.022637006e-06 9.529120447e-08)
(0 2.908287735e-06 8.004461656e-08)
(0 2.801561411e-06 6.860966722e-08)
(0 2.710081855e-06 6.098637086e-08)
(0 2.626225753e-06 5.717472611e-08)
(0 2.55380428e-06 5.717472268e-08)
(0 2.489006261e-06 4.573977815e-08)
(0 2.435643332e-06 3.811648407e-08)
(0 2.397526704e-06 3.049318543e-08)
(0 2.370845167e-06 2.286988907e-08)
(0 2.344163771e-06 1.143494522e-08)
(0 2.336540334e-06 7.623296358e-09)
(0 4.933416238e-05 -0.0004743481809)
(0 0.0001300000806 -0.0004244079919)
(0 0.0001788082277 -0.0003647518608)
(0 0.0002040527736 -0.0003109085186)
(0 0.0002154076865 -0.0002658853463)
(0 0.0002190897257 -0.0002288437334)
(0 0.0002185827765 -0.0001982476334)
(0 0.0002157392999 -0.0001727172243)
(0 0.0002116074603 -0.000151189025)
(0 0.0002067399856 -0.0001328435623)
(0 0.0002014799232 -0.0001170824041)
(0 0.0001960406891 -0.0001034481316)
(0 0.0001905214226 -9.15672242e-05)
(0 0.0001850097904 -8.116524119e-05)
(0 0.0001795705574 -7.202490399e-05)
(0 0.0001741846985 -6.395564479e-05)
(0 0.0001689093875 -5.680499622e-05)
(0 0.0001637369708 -5.046622189e-05)
(0 0.000158686537 -4.483260588e-05)
(0 0.0001537352152 -3.980504432e-05)
(0 0.000148913471 -3.533397862e-05)
(0 0.000144190839 -3.133937133e-05)
(0 0.000139590188 -2.777929359e-05)
(0 0.0001351076813 -2.45889424e-05)
(0 0.0001307280976 -2.173401792e-05)
(0 0.0001264514359 -1.918402643e-05)
(0 0.0001222929202 -1.690465967e-05)
(0 0.0001182297032 -1.48654279e-05)
(0 0.0001142770309 -1.30472725e-05)
(0 0.0001104234477 -1.14158863e-05)
(0 0.0001066651626 -9.963648339e-06)
(0 0.0001030021749 -8.656253533e-06)
(0 9.944208934e-05 -7.501323616e-06)
(0 9.597348949e-05 -6.468366959e-06)
(0 9.260399806e-05 -5.542136784e-06)
(0 8.932597507e-05 -4.726443742e-06)
(0 8.61318139e-05 -3.986983995e-06)
(0 8.302913726e-05 -3.335192357e-06)
(0 8.001411857e-05 -2.752009985e-06)
(0 7.709058442e-05 -2.245060777e-06)
(0 7.423566438e-05 -1.791474752e-06)
(0 7.147602665e-05 -1.395063233e-06)
(0 6.879643798e-05 -1.036768305e-06)
(0 6.61816513e-05 -7.280248458e-07)
(0 6.366214788e-05 -4.612094296e-07)
(0 6.12112581e-05 -2.286988907e-07)
(0 5.883279317e-05 -1.905824204e-08)
(0 5.654198908e-05 1.600892235e-07)
(0 5.430836325e-05 3.125551507e-07)
(0 5.215097351e-05 4.459628637e-07)
(0 5.005837553e-05 5.565006341e-07)
(0 4.803439035e-05 6.517918386e-07)
(0 4.607520595e-05 7.242131974e-07)
(0 4.418843734e-05 7.928228212e-07)
(0 4.235884621e-05 8.423742475e-07)
(0 4.059405554e-05 8.881140789e-07)
(0 3.888643472e-05 9.186072111e-07)
(0 3.723980271e-05 9.414771002e-07)
(0 3.565034756e-05 9.567237503e-07)
(0 3.41218745e-05 9.681586374e-07)
(0 3.263533171e-05 9.719702856e-07)
(0 3.120977716e-05 9.719703439e-07)
(0 2.984139359e-05 9.681586374e-07)
(0 2.851112838e-05 9.605353411e-07)
(0 2.723803952e-05 9.452888051e-07)
(0 2.601449882e-05 9.300421556e-07)
(0 2.483288788e-05 9.109839147e-07)
(0 2.369701815e-05 8.919257274e-07)
(0 2.2610697e-05 8.690557848e-07)
(0 2.15663054e-05 8.461858957e-07)
(0 2.056384316e-05 8.195044076e-07)
(0 1.960330658e-05 7.966344694e-07)
(0 1.867326443e-05 7.775762285e-07)
(0 1.778515147e-05 7.508947363e-07)
(0 1.693134121e-05 7.24213154e-07)
(0 1.611946015e-05 6.975316167e-07)
(0 1.532663825e-05 6.708501197e-07)
(0 1.457955428e-05 6.441685422e-07)
(0 1.386677607e-05 6.17487005e-07)
(0 1.31730569e-05 5.946171516e-07)
(0 1.252507592e-05 5.679355786e-07)
(0 1.189615397e-05 5.450656896e-07)
(0 1.129010258e-05 5.14572535e-07)
(0 1.072597798e-05 4.955142632e-07)
(0 1.018091229e-05 4.764560223e-07)
(0 9.662528713e-06 4.573978089e-07)
(0 9.170825518e-06 4.307162442e-07)
(0 8.698181144e-06 4.078463551e-07)
(0 8.244595505e-06 3.849764892e-07)
(0 7.813878767e-06 3.697298733e-07)
(0 7.40984406e-06 3.506716324e-07)
(0 7.024868015e-06 3.316134115e-07)
(0 6.662761017e-06 3.087435025e-07)
(0 6.323524329e-06 2.858736134e-07)
(0 5.988099648e-06 2.744386853e-07)
(0 5.683167435e-06 2.55380428e-07)
(0 5.382047228e-06 2.477571316e-07)
(0 5.103797218e-06 2.325105529e-07)
(0 4.852228132e-06 2.172639462e-07)
(0 4.604471e-06 2.020173535e-07)
(0 4.375772372e-06 1.905824204e-07)
(0 4.154696515e-06 1.791474644e-07)
(0 3.960302458e-06 1.677125199e-07)
(0 3.769720275e-06 1.524659363e-07)
(0 3.594384233e-06 1.48654279e-07)
(0 3.426671713e-06 1.372193344e-07)
(0 3.270394334e-06 1.257843974e-07)
(0 3.144609748e-06 1.105377972e-07)
(0 3.011202061e-06 9.529120447e-08)
(0 2.893041141e-06 9.147956178e-08)
(0 2.797749763e-06 8.004461175e-08)
(0 2.706270207e-06 7.24213154e-08)
(0 2.614790808e-06 6.479802293e-08)
(0 2.546180983e-06 4.955142632e-08)
(0 2.489006261e-06 4.955142632e-08)
(0 2.428020036e-06 4.573978089e-08)
(0 2.38609176e-06 3.430483361e-08)
(0 2.359410223e-06 2.286988907e-08)
(0 2.340352122e-06 1.524659363e-08)
(0 2.325105389e-06 7.623296358e-09)
(0 8.300245124e-05 -0.0006121430779)
(0 0.0002007976393 -0.0004973362639)
(0 0.0002473492868 -0.000399163423)
(0 0.0002604651682 -0.0003267535421)
(0 0.0002603050946 -0.0002730245654)
(0 0.0002550488161 -0.0002317863271)
(0 0.0002478486127 -0.0001990785739)
(0 0.0002399661386 -0.0001724732798)
(0 0.000231950228 -0.0001503923914)
(0 0.0002240296231 -0.0001317953599)
(0 0.0002163224834 -0.000115931287)
(0 0.0002088783215 -0.0001022703329)
(0 0.0002017086112 -9.041610699e-05)
(0 0.0001948095396 -8.007129858e-05)
(0 0.0001881810717 -7.098813611e-05)
(0 0.000181796561 -6.298367488e-05)
(0 0.000175648383 -5.590544753e-05)
(0 0.0001697250711 -4.962384794e-05)
(0 0.0001639999755 -4.404359497e-05)
(0 0.0001584730951 -3.908083136e-05)
(0 0.0001531329665 -3.465550545e-05)
(0 0.0001479681832 -3.070663791e-05)
(0 0.000142959686 -2.717324166e-05)
(0 0.0001381188842 -2.402863026e-05)
(0 0.0001334229337 -2.121182224e-05)
(0 0.0001288565868 -1.86923239e-05)
(0 0.0001244426905 -1.643582705e-05)
(0 0.0001201622096 -1.44232768e-05)
(0 0.0001159922734 -1.262036795e-05)
(0 0.000111955731 -1.10156633e-05)
(0 0.0001080411683 -9.578671931e-06)
(0 0.0001042257147 -8.301770281e-06)
(0 0.000100536033 -7.154463675e-06)
(0 9.694927201e-05 -6.132941956e-06)
(0 9.347305446e-05 -5.225769998e-06)
(0 9.009592854e-05 -4.410076969e-06)
(0 8.682172274e-05 -3.697298756e-06)
(0 8.364281316e-05 -3.053130393e-06)
(0 8.055918474e-05 -2.489006276e-06)
(0 7.756322926e-05 -1.989680361e-06)
(0 7.465875781e-05 -1.547529263e-06)
(0 7.18495686e-05 -1.158741053e-06)
(0 6.912042849e-05 -8.195043634e-07)
(0 6.647133698e-05 -5.183841865e-07)
(0 6.390609375e-05 -2.553804295e-07)
(0 6.143233407e-05 -3.049318561e-08)
(0 5.902337594e-05 1.677125309e-07)
(0 5.670207865e-05 3.392366899e-07)
(0 5.444939456e-05 4.840793216e-07)
(0 5.226913493e-05 6.060521004e-07)
(0 5.015747869e-05 7.127782137e-07)
(0 4.812205855e-05 8.004461223e-07)
(0 4.614000425e-05 8.76679139e-07)
(0 4.424180068e-05 9.338538094e-07)
(0 4.240458624e-05 9.795935878e-07)
(0 4.062836062e-05 1.013898482e-06)
(0 3.891311649e-05 1.040579959e-06)
(0 3.725504952e-05 1.055826552e-06)
(0 3.566178271e-05 1.06726156e-06)
(0 3.41218747e-05 1.071073145e-06)
(0 3.26429552e-05 1.071073145e-06)
(0 3.12059657e-05 1.06726156e-06)
(0 2.982995883e-05 1.0596382e-06)
(0 2.849588196e-05 1.044391607e-06)
(0 2.722279309e-05 1.025333428e-06)
(0 2.599925238e-05 1.010086773e-06)
(0 2.481001814e-05 9.872168842e-07)
(0 2.36741484e-05 9.605354044e-07)
(0 2.258782724e-05 9.414771058e-07)
(0 2.154343564e-05 9.147955684e-07)
(0 2.053716174e-05 8.881140843e-07)
(0 1.957281352e-05 8.576208454e-07)
(0 1.86542063e-05 8.233160116e-07)
(0 1.775465839e-05 8.042578188e-07)
(0 1.690465977e-05 7.737645849e-07)
(0 1.608896706e-05 7.394597511e-07)
(0 1.52999568e-05 7.127782565e-07)
(0 1.455287283e-05 6.860966763e-07)
(0 1.384009462e-05 6.594151389e-07)
(0 1.314637544e-05 6.251103426e-07)
(0 1.249458281e-05 5.984287677e-07)
(0 1.18694725e-05 5.717472302e-07)
(0 1.127104441e-05 5.48877374e-07)
(0 1.070310815e-05 5.221958036e-07)
(0 1.015804246e-05 4.993259144e-07)
(0 9.63965888e-06 4.802677022e-07)
(0 9.144144036e-06 4.497744878e-07)
(0 8.679122955e-06 4.307162468e-07)
(0 8.221725664e-06 4.07846382e-07)
(0 7.794820572e-06 3.849764684e-07)