/*--------------------------------*- C++ -*----------------------------------*\
  =========                 |
  \\      /  F ield         | OpenFOAM: The Open Source CFD Toolbox
   \\    /   O peration     | Website:  https://openfoam.org
    \\  /    A nd           | Version:  6
     \\/     M anipulation  |
\*---------------------------------------------------------------------------*/
FoamFile
{
    version     2.0;
    format      ascii;
    class       volScalarField;
    location    "0.0028";
    object      TRHS;
}
// * * * * * * * * * * * * * * * * * * * * * * * * * * * * * * * * * * * * * //

dimensions      [1 -1 -3 0 0 0 0];

internalField   nonuniform List<scalar> 
3600
(
2.067335889e-10
3.346092279e-10
2.2044148e-12
-3.299333075e-10
-7.173231136e-10
-1.15015016e-09
-1.639174806e-09
-2.19826773e-09
-2.843170732e-09
-3.597732586e-09
-4.488273532e-09
-5.548189605e-09
-6.820955305e-09
-8.381762174e-09
-1.033086762e-08
-1.271339659e-08
-1.5302443e-08
-1.737394234e-08
-1.790632084e-08
-1.685594819e-08
-1.634660498e-08
-1.736554394e-08
-1.869756402e-08
-2.05169568e-08
-2.466447838e-08
-3.333737604e-08
-4.482683854e-08
-5.918472822e-08
-7.046994847e-08
-2.734994124e-08
-0.0007016256525
0
0
0
0
0
0
0
0
0
0
0
0
0
0
0
0
0
0
0
0
0
0
0
0
0
0
0
0
0
2.241287838e-10
3.777529795e-10
7.004034338e-11
-2.425894006e-10
-6.122955012e-10
-1.031820822e-09
-1.524782428e-09
-2.114543045e-09
-2.84099367e-09
-3.744050152e-09
-4.870776036e-09
-6.248340151e-09
-7.898967292e-09
-9.842539468e-09
-1.215288217e-08
-1.494120769e-08
-1.822232924e-08
-2.146293996e-08
-2.31467183e-08
-2.212842631e-08
-2.147547919e-08
-2.253110872e-08
-2.270306703e-08
-2.213615289e-08
-2.241205509e-08
-2.726561328e-08
-3.529338276e-08
-4.751486115e-08
-6.557142895e-08
-2.536521704e-08
-0.0007267870745
0
0
0
0
0
0
0
0
0
0
0
0
0
0
0
0
0
0
0
0
0
0
0
0
0
0
0
0
0
2.418837283e-10
4.122745065e-10
1.052838888e-10
-2.112446883e-10
-5.915130634e-10
-1.041708804e-09
-1.595042811e-09
-2.301680035e-09
-3.223038794e-09
-4.431101555e-09
-5.983387291e-09
-7.906444418e-09
-1.017145881e-08
-1.273124961e-08
-1.560831643e-08
-1.909368811e-08
-2.370109302e-08
-2.940803978e-08
-3.322322816e-08
-3.05625287e-08
-2.867831971e-08
-3.054874723e-08
-2.885787595e-08
-2.438643277e-08
-1.820921234e-08
-1.938293168e-08
-2.507406495e-08
-3.445811872e-08
-5.13650934e-08
-1.305416533e-08
-0.0007815697776
0
0
0
0
0
0
0
0
0
0
0
0
0
0
0
0
0
0
0
0
0
0
0
0
0
0
0
0
0
2.597817278e-10
4.431325998e-10
1.220514638e-10
-2.1237876e-10
-6.266779519e-10
-1.137572517e-09
-1.801137606e-09
-2.693691687e-09
-3.915069409e-09
-5.57305918e-09
-7.761781697e-09
-1.051333737e-08
-1.375156749e-08
-1.726728468e-08
-2.087874266e-08
-2.493812843e-08
-3.097200982e-08
-4.112755669e-08
-5.023901776e-08
-4.32124562e-08
-3.835577678e-08
-4.293276152e-08
-3.813423275e-08
-2.889531269e-08
-1.216303352e-08
-9.749118285e-09
-1.302966746e-08
-1.619972327e-08
-2.931945075e-08
7.560580263e-09
-0.0008767608228
0
0
0
0
0
0
0
0
0
0
0
0
0
0
0
0
0
0
0
0
0
0
0
0
0
0
0
0
0
2.774031301e-10
4.662841379e-10
1.191698923e-10
-2.500623091e-10
-7.199005886e-10
-1.325539808e-09
-2.14623321e-09
-3.292861065e-09
-4.906068258e-09
-7.148842933e-09
-1.018124244e-08
-1.410228965e-08
-1.882863351e-08
-2.391065862e-08
-2.853986897e-08
-3.246068992e-08
-3.826116129e-08
-5.523635782e-08
-7.784855415e-08
-6.221299824e-08
-5.245836461e-08
-5.983812395e-08
-4.882688914e-08
-3.638966643e-08
-6.678779788e-09
-7.727128109e-10
-1.308146274e-09
1.13677574e-08
1.931295316e-10
3.576372011e-08
-0.001034720649
0
0
0
0
0
0
0
0
0
0
0
0
0
0
0
0
0
0
0
0
0
0
0
0
0
0
0
0
0
2.924504282e-10
4.789904191e-10
9.278012482e-11
-3.274124024e-10
-8.780347658e-10
-1.614501354e-09
-2.64333109e-09
-4.107131489e-09
-6.187556017e-09
-9.10889871e-09
-1.313867922e-08
-1.855363862e-08
-2.545069911e-08
-3.327100988e-08
-4.003035234e-08
-4.295107894e-08
-4.236489354e-08
-6.591867308e-08
-1.119689902e-07
-1.189793931e-07
-1.289914837e-07
-5.206749042e-08
-4.28516371e-08
-2.154196305e-08
-6.771361663e-08
-2.041844427e-08
1.064725156e-08
5.857824243e-08
4.198708128e-08
7.081484617e-08
-0.001302726059
0
0
0
0
0
0
0
0
0
0
0
0
0
0
0
0
0
0
0
0
0
0
0
0
0
0
0
0
0
3.031668097e-10
4.768845935e-10
3.926173804e-11
-4.50387367e-10
-1.11007903e-09
-2.020798237e-09
-3.316454303e-09
-5.166261409e-09
-7.776419732e-09
-1.14090845e-08
-1.643816143e-08
-2.342381778e-08
-3.305608795e-08
-4.546806166e-08
-5.787129348e-08
-6.275437207e-08
-4.353320829e-08
-7.588352408e-08
-6.379379883e-08
-1.984916426e-07
-2.334218119e-07
-4.994212161e-08
-1.140080742e-08
-1.236626249e-08
-1.473357207e-07
-4.94829621e-08
4.789749865e-08
1.625997519e-07
1.179515055e-07
1.133802858e-07
-0.001789203814
0
0
0
0
0
0
0
0
0
0
0
0
0
0
0
0
0
0
0
0
0
0
0
0
0
0
0
0
0
3.071023999e-10
4.556843461e-10
-4.541899572e-11
-6.228861205e-10
-1.423281096e-09
-2.559767244e-09
-4.198877966e-09
-6.532251832e-09
-9.764518801e-09
-1.412339804e-08
-1.994900232e-08
-2.79612448e-08
-3.973027046e-08
-5.781173388e-08
-8.15281795e-08
-1.009977223e-07
-8.999046729e-08
-3.407139351e-08
4.072393234e-08
-2.381403468e-07
-2.072810895e-07
-0.0001743469817
-0.0001109663971
-0.0001494676942
-1.38803784e-07
-2.985762698e-07
1.05371424e-07
3.828571808e-07
3.610149295e-07
1.795590237e-07
-0.002771116141
0
0
0
0
0
0
0
0
0
0
0
0
0
0
0
0
0
0
0
0
0
0
0
0
0
0
0
0
0
3.012471739e-10
4.097512402e-10
-1.641696325e-10
-8.440356879e-10
-1.812816872e-09
-3.228712834e-09
-5.30633992e-09
-8.277388062e-09
-1.234524068e-08
-1.76259948e-08
-2.412843801e-08
-3.202552233e-08
-4.286250998e-08
-6.314495269e-08
-1.0071959e-07
-1.607972402e-07
-2.230370682e-07
-0.0001712267485
-0.0007740845953
167.3375045
-0.005864834831
69.16524582
44.03840478
59.30549084
-0.006562082662
144.7813271
-0.0004247941624
1.097108225e-07
4.36927861e-07
3.592056751e-07
-0.005046438311
0
0
0
0
0
0
0
0
0
0
0
0
0
0
0
0
0
0
0
0
0
0
0
0
0
0
0
0
0
2.799828682e-10
3.297011281e-10
-3.208417615e-10
-1.104938322e-09
-2.252141104e-09
-3.980570537e-09
-6.581645396e-09
-1.038123934e-08
-1.567726593e-08
-2.257768148e-08
-3.064501174e-08
-3.831798217e-08
-4.264458986e-08
-4.490191239e-08
-8.890141227e-08
-2.174130996e-07
-4.401915579e-07
67.93940422
139.838192
0
0
0
0
0
0
0
23.86716737
106.5964686
-0.0002681161392
-0.0001400846667
55.57092529
0
0
0
0
0
0
0
0
0
0
0
0
0
0
0
0
0
0
0
0
0
0
0
0
0
0
0
0
0
2.300165108e-10
1.933458863e-10
-5.279839835e-10
-1.395168954e-09
-2.692710174e-09
-4.708210136e-09
-7.82853708e-09
-1.253932809e-08
-1.942534649e-08
-2.911135368e-08
-4.191785422e-08
-5.672195783e-08
-6.765445394e-08
-7.441514179e-08
-3.69594472e-08
-0.0001722331366
68.33770731
0
0
0
0
0
0
0
0
0
0
0
384.7933079
-0.002109749049
452.1333347
0
0
0
0
0
0
0
0
0
0
0
0
0
0
0
0
0
0
0
0
0
0
0
0
0
0
0
0
0
1.145836534e-10
-5.234605569e-11
-8.228858292e-10
-1.717793955e-09
-3.088254824e-09
-5.278880775e-09
-8.741112256e-09
-1.406920818e-08
-2.210757162e-08
-3.418917297e-08
-5.25647026e-08
-8.067497729e-08
-1.151294807e-07
-6.284880775e-08
5.928377967e-08
-0.0007853560524
141.4249345
0
0
0
0
0
0
0
0
0
0
0
-0.005128010861
-4.382135836e-05
17.37719386
0
0
0
0
0
0
0
0
0
0
0
0
0
0
0
0
0
0
0
0
0
0
0
0
0
0
0
0
0
-1.764274458e-10
-5.324784496e-10
-1.290556787e-09
-2.110760068e-09
-3.435880213e-09
-5.642609489e-09
-9.168333969e-09
-1.452876408e-08
-2.232305227e-08
-3.325108089e-08
-4.817616009e-08
-6.891875381e-08
-1.235553776e-07
-1.98237868e-07
-2.366638929e-07
170.2180285
0
0
0
0
0
0
0
0
0
0
0
0
0
-0.001403000509
0
0
0
0
0
0
0
0
0
0
0
0
0
0
0
0
0
0
0
0
0
0
0
0
0
0
0
0
0
0
-1.019066867e-09
-1.53700739e-09
-2.082012768e-09
-2.639743606e-09
-3.77949536e-09
-5.881950798e-09
-9.356867146e-09
-1.467159152e-08
-2.232330187e-08
-3.272540873e-08
-4.600250012e-08
-6.367649226e-08
-1.408610822e-07
-2.381975683e-07
-2.082321505e-07
-0.005605843987
0
0
0
0
0
0
0
0
0
0
0
0
0
0
0
0
0
0
0
0
0
0
0
0
0
0
0
0
0
0
0
0
0
0
0
0
0
0
0
0
0
0
0
0
-3.581867873e-09
-3.667038399e-09
-3.377213055e-09
-3.332590419e-09
-4.11437702e-09
-6.003890659e-09
-9.352604807e-09
-1.467896241e-08
-2.276721206e-08
-3.483385113e-08
-5.262254449e-08
-7.667896888e-08
-7.324321099e-08
-7.770058873e-08
-0.0002142180818
84.98058361
0
0
0
0
0
0
0
0
0
0
0
0
0
0
0
0
0
0
0
0
0
0
0
0
0
0
0
0
0
0
0
0
0
0
0
0
0
0
0
0
0
0
0
0
-1.514382313e-08
-8.974634737e-09
-5.275825209e-09
-4.06358716e-09
-4.327286237e-09
-5.875920813e-09
-8.834246921e-09
-1.35622937e-08
-2.068355893e-08
-3.121940236e-08
-4.668423226e-08
-6.737326607e-08
-6.013683835e-08
-5.825160853e-08
-0.000208125609
82.56918763
0
0
0
0
0
0
0
0
0
0
0
0
0
0
0
0
0
0
0
0
0
0
0
0
0
0
0
0
0
0
0
0
0
0
0
0
0
0
0
0
0
0
0
0
-1.708523387e-08
-9.875894369e-09
-5.535959176e-09
-4.097816451e-09
-4.191982607e-09
-5.46650681e-09
-7.878836885e-09
-1.150002093e-08
-1.638019899e-08
-2.237015723e-08
-2.888270579e-08
-3.663973988e-08
-1.02219328e-07
-1.773218878e-07
-1.588965858e-07
-0.005844851033
0
0
0
0
0
0
0
0
0
0
0
0
0
0
0
0
0
0
0
0
0
0
0
0
0
0
0
0
0
0
0
0
0
0
0
0
0
0
0
0
0
0
0
0
-6.017742834e-09
-4.947104406e-09
-3.71941332e-09
-3.308754723e-09
-3.72472522e-09
-4.944584908e-09
-6.970714294e-09
-9.800378773e-09
-1.337138834e-08
-1.753317359e-08
-2.213164857e-08
-2.772393596e-08
-5.958318823e-08
-9.084238999e-08
-2.494957809e-07
162.6843961
0
0
0
0
0
0
0
0
0
0
0
0
0
-0.002528936189
0
0
0
0
0
0
0
0
0
0
0
0
0
0
0
0
0
0
0
0
0
0
0
0
0
0
0
0
0
0
-3.934718656e-10
-1.511813077e-09
-1.900185893e-09
-2.367768622e-09
-3.168935358e-09
-4.435195614e-09
-6.208675001e-09
-8.492383398e-09
-1.12713772e-08
-1.471120684e-08
-1.956162594e-08
-2.76222204e-08
-3.586344815e-08
2.852517087e-08
1.162818729e-07
-0.0007007628339
115.4395655
0
0
0
0
0
0
0
0
0
0
0
-0.00529066684
-1.894237256e-05
7.506527781
0
0
0
0
0
0
0
0
0
0
0
0
0
0
0
0
0
0
0
0
0
0
0
0
0
0
0
0
0
3.344506544e-09
9.699154569e-10
-4.271283784e-10
-1.53258922e-09
-2.65527182e-09
-3.951331308e-09
-5.441895177e-09
-6.965081234e-09
-8.115818973e-09
-8.035461801e-09
-4.913986115e-09
5.450105642e-09
3.359220026e-08
9.240358389e-08
2.609201453e-07
-0.0001163775493
46.23581439
0
0
0
0
0
0
0
0
0
0
0
393.7128196
-0.002066295491
425.9718306
0
0
0
0
0
0
0
0
0
0
0
0
0
0
0
0
0
0
0
0
0
0
0
0
0
0
0
0
0
5.756490419e-09
2.613851208e-09
6.126130272e-10
-9.161370562e-10
-2.25767746e-09
-3.571172054e-09
-4.809434063e-09
-5.663436525e-09
-5.387632159e-09
-2.514602591e-09
5.718755434e-09
2.430674779e-08
6.160434886e-08
1.249702499e-07
1.777455684e-07
1.920258727e-07
-1.869043272e-07
21.92721345
18.22874913
0
0
0
0
0
0
0
-0.005972238653
20.34657071
-5.117172484e-05
-2.519401748e-10
-9.828763159e-05
0
0
0
0
0
0
0
0
0
0
0
0
0
0
0
0
0
0
0
0
0
0
0
0
0
0
0
0
0
7.087431791e-09
3.54204811e-09
1.219433527e-09
-5.486617021e-10
-2.034472451e-09
-3.386657886e-09
-4.528710104e-09
-5.094781827e-09
-4.278880075e-09
-6.871565798e-10
7.815905065e-09
2.397841222e-08
5.049661054e-08
8.782095843e-08
1.434247348e-07
2.412050697e-07
5.470203037e-07
-5.471832301e-05
-4.604621779e-05
441.0458492
132.9583696
126.7899674
66.44120738
117.6990121
105.8928943
360.0707085
-1.786517071e-07
-1.45385098e-07
-1.415125956e-08
7.093842285e-08
-0.008773702983
0
0
0
0
0
0
0
0
0
0
0
0
0
0
0
0
0
0
0
0
0
0
0
0
0
0
0
0
0
7.460211761e-09
3.84841364e-09
1.442430784e-09
-4.156537295e-10
-1.98990669e-09
-3.42401328e-09
-4.648138785e-09
-5.298354014e-09
-4.612011129e-09
-1.346162402e-09
6.114697623e-09
1.921027888e-08
3.788649859e-08
5.900257616e-08
8.344104027e-08
1.22672752e-07
1.777272818e-07
2.4267069e-07
7.078202113e-07
-0.002211538363
-0.0006554113317
-0.0006224748264
-0.0003180323844
-0.0005775872143
-0.0005205318966
-0.001805470076
-1.803677413e-07
-2.076099448e-07
-3.078257098e-07
-1.955360969e-07
-0.007212221876
0
0
0
0
0
0
0
0
0
0
0
0
0
0
0
0
0
0
0
0
0
0
0
0
0
0
0
0
0
6.988658088e-09
3.621099596e-09
1.339219496e-09
-4.873586323e-10
-2.10673261e-09
-3.674137037e-09
-5.144039921e-09
-6.188932015e-09
-6.053928312e-09
-3.392369072e-09
3.881331769e-09
1.851343845e-08
4.320655682e-08
7.855774196e-08
1.318163149e-07
2.25076405e-07
5.262155689e-07
-4.391761269e-05
-2.758761076e-05
436.8921333
127.0402084
120.1428564
59.72073683
111.4271103
100.5996502
356.5225472
-2.270680738e-07
-1.613937285e-07
-2.495876081e-08
6.311767842e-08
-0.008774500233
0
0
0
0
0
0
0
0
0
0
0
0
0
0
0
0
0
0
0
0
0
0
0
0
0
0
0
0
0
5.827870322e-09
2.970880942e-09
9.801145797e-10
-7.163138702e-10
-2.351279812e-09
-4.10122043e-09
-5.984149792e-09
-7.773174492e-09
-8.826251624e-09
-7.779579738e-09
-1.962273884e-09
1.356545746e-08
4.714483699e-08
1.063291045e-07
1.544426085e-07
1.645016355e-07
-2.103247564e-07
17.63588928
10.89959331
0
0
0
0
0
0
0
-0.006186229415
17.08496159
-4.295242521e-05
-2.154444654e-10
-8.647299967e-05
0
0
0
0
0
0
0
0
0
0
0
0
0
0
0
0
0
0
0
0
0
0
0
0
0
0
0
0
0
4.190570762e-09
2.031384136e-09
4.492088929e-10
-1.048093006e-09
-2.673564301e-09
-4.636832304e-09
-7.057204584e-09
-9.914780418e-09
-1.295226598e-08
-1.547231954e-08
-1.579778634e-08
-9.853919386e-09
1.285592234e-08
6.597080497e-08
2.27116826e-07
-0.0001046005943
41.55317049
0
0
0
0
0
0
0
0
0
0
0
391.8050893
-0.002065114083
427.410757
0
0
0
0
0
0
0
0
0
0
0
0
0
0
0
0
0
0
0
0
0
0
0
0
0
0
0
0
0
2.330570472e-09
9.548538014e-10
-1.641269387e-10
-1.425229491e-09
-3.016832754e-09
-5.177007185e-09
-8.122591802e-09
-1.20482509e-08
-1.715610466e-08
-2.381744158e-08
-3.29627828e-08
-4.659010304e-08
-6.108340144e-08
-7.278912469e-09
7.881156225e-08
-0.0006627697656
106.5547472
0
0
0
0
0
0
0
0
0
0
0
-0.005417580673
-2.511078054e-05
9.95338304
0
0
0
0
0
0
0
0
0
0
0
0
0
0
0
0
0
0
0
0
0
0
0
0
0
0
0
0
0
5.179905427e-10
-1.030238234e-10
-7.736577789e-10
-1.801066371e-09
-3.346478677e-09
-5.660432735e-09
-9.009487225e-09
-1.36525123e-08
-1.980383087e-08
-2.763094021e-08
-3.735264594e-08
-5.011056771e-08
-9.30147007e-08
-1.444197213e-07
-2.768362196e-07
156.4892919
0
0
0
0
0
0
0
0
0
0
0
0
0
-0.002528705261
0
0
0
0
0
0
0
0
0
0
0
0
0
0
0
0
0
0
0
0
0
0
0
0
0
0
0
0
0
0
-9.998394962e-10
-1.002092971e-09
-1.305095656e-09
-2.143174268e-09
-3.658994188e-09
-6.123723975e-09
-9.867364509e-09
-1.525955816e-08
-2.264420558e-08
-3.222113071e-08
-4.384214027e-08
-5.890299693e-08
-1.371724917e-07
-2.341610146e-07
-1.937843329e-07
-0.006212997051
0
0
0
0
0
0
0
0
0
0
0
0
0
0
0
0
0
0
0
0
0
0
0
0
0
0
0
0
0
0
0
0
0
0
0
0
0
0
0
0
0
0
0
0
-2.030933762e-09
-1.632726073e-09
-1.697723047e-09
-2.416142126e-09
-3.92500162e-09
-6.522720759e-09
-1.063045749e-08
-1.683804623e-08
-2.60051448e-08
-3.944675828e-08
-5.908728205e-08
-8.597342018e-08
-9.105713625e-08
-1.115558388e-07
-0.0001753837783
69.5680886
0
0
0
0
0
0
0
0
0
0
0
0
0
0
0
0
0
0
0
0
0
0
0
0
0
0
0
0
0
0
0
0
0
0
0
0
0
0
0
0
0
0
0
0
-2.469153932e-09
-1.932458366e-09
-1.912190719e-09
-2.585569851e-09
-4.083460531e-09
-6.701528309e-09
-1.086144245e-08
-1.716284612e-08
-2.648403248e-08
-4.018040449e-08
-6.021684842e-08
-8.774050442e-08
-9.367984784e-08
-1.157361139e-07
-0.000175315197
69.53973364
0
0
0
0
0
0
0
0
0
0
0
0
0
0
0
0
0
0
0
0
0
0
0
0
0
0
0
0
0
0
0
0
0
0
0
0
0
0
0
0
0
0
0
0
-2.30597454e-09
-1.894496351e-09
-1.942832527e-09
-2.645580796e-09
-4.128286076e-09
-6.651671976e-09
-1.055019751e-08
-1.621707611e-08
-2.40544153e-08
-3.435964374e-08
-4.714749707e-08
-6.399986959e-08
-1.44897558e-07
-2.468255613e-07
-2.033549234e-07
-0.006215769986
0
0
0
0
0
0
0
0
0
0
0
0
0
0
0
0
0
0
0
0
0
0
0
0
0
0
0
0
0
0
0
0
0
0
0
0
0
0
0
0
0
0
0
0
-1.631977332e-09
-1.568342869e-09
-1.817377087e-09
-2.620624421e-09
-4.109642511e-09
-6.518526212e-09
-1.011957269e-08
-1.520930875e-08
-2.208366992e-08
-3.105253025e-08
-4.252930944e-08
-5.797074603e-08
-1.054369093e-07
-1.65798511e-07
-2.820209436e-07
156.406716
0
0
0
0
0
0
0
0
0
0
0
0
0
-0.00247837817
0
0
0
0
0
0
0
0
0
0
0
0
0
0
0
0
0
0
0
0
0
0
0
0
0
0
0
0
0
0
-6.16046664e-10
-1.04611923e-09
-1.583163644e-09
-2.535436227e-09
-4.049696103e-09
-6.341748177e-09
-9.636994039e-09
-1.41782112e-08
-2.026615672e-08
-2.842411346e-08
-3.977576736e-08
-5.652702439e-08
-7.510415669e-08
-2.550315629e-08
6.332389482e-08
-0.0006619134127
106.2901468
0
0
0
0
0
0
0
0
0
0
0
-0.005430656131
-2.640565848e-05
10.46709155
0
0
0
0
0
0
0
0
0
0
0
0
0
0
0
0
0
0
0
0
0
0
0
0
0
0
0
0
0
5.224469708e-10
-4.462570949e-10
-1.298197297e-09
-2.411986586e-09
-3.947584943e-09
-6.088361084e-09
-8.966608708e-09
-1.262096036e-08
-1.690634518e-08
-2.128576786e-08
-2.428904919e-08
-2.2075692e-08
-4.566723278e-09
4.02847975e-08
1.856620321e-07
-0.0001041097698
41.34922237
0
0
0
0
0
0
0
0
0
0
0
391.1475364
-0.002065608438
428.2645126
0
0
0
0
0
0
0
0
0
0
0
0
0
0
0
0
0
0
0
0
0
0
0
0
0
0
0
0
0
1.556188949e-09
1.066709259e-10
-1.026750735e-09
-2.28419694e-09
-3.833333666e-09
-5.82537592e-09
-8.295289608e-09
-1.108885261e-08
-1.368007958e-08
-1.486353006e-08
-1.212252504e-08
-6.627741422e-10
2.784111855e-08
8.056960072e-08
1.182052247e-07
1.262169173e-07
-2.380747942e-07
17.2768163
10.02012392
0
0
0
0
0
0
0
-0.006133422172
18.12055558
-4.555936922e-05
-8.500694533e-11
-3.379468263e-05
0
0
0
0
0
0
0
0
0
0
0
0
0
0
0
0
0
0
0
0
0
0
0
0
0
0
0
0
0
2.287305533e-09
5.045950557e-10
-8.289219338e-10
-2.189673481e-09
-3.756604191e-09
-5.656593658e-09
-7.877761053e-09
-1.017284747e-08
-1.192436152e-08
-1.193875485e-08
-8.284459238e-09
1.687049797e-09
2.068415461e-08
4.954963061e-08
9.620971174e-08
1.823294488e-07
4.777347413e-07
-4.304275405e-05
-2.536521775e-05
435.2302211
128.5608766
122.6369614
62.44464494
113.9959277
102.5664572
357.0164545
-1.906347663e-07
-1.535886298e-07
-2.300377678e-08
8.193139263e-08
-0.008695011692
0
0
0
0
0
0
0
0
0
0
0
0
0
0
0
0
0
0
0
0
0
0
0
0
0
0
0
0
0
2.588335744e-09
6.741319838e-10
-7.44270024e-10
-2.158250262e-09
-3.749835367e-09
-5.645004851e-09
-7.820047817e-09
-1.001786374e-08
-1.162991184e-08
-1.158978362e-08
-8.438924559e-09
-8.153172669e-10
1.130420873e-08
2.521153903e-08
4.275589537e-08
7.478266631e-08
1.271767344e-07
2.165305918e-07
6.724382035e-07
-0.00219259336
-0.0006481286377
-0.0006184153561
-0.0003150798948
-0.000575085263
-0.0005175344094
-0.00179938835
-1.932303034e-07
-2.093190956e-07
-3.264479528e-07
-1.787120797e-07
-0.007138562331
0
0
0
0
0
0
0
0
0
0
0
0
0
0
0
0
0
0
0
0
0
0
0
0
0
0
0
0
0
2.419942093e-09
5.936835939e-10
-7.846362801e-10
-2.198344609e-09
-3.822511588e-09
-5.804223626e-09
-8.133644252e-09
-1.058846216e-08
-1.254616337e-08
-1.283173971e-08
-9.502089274e-09
5.592644253e-11
1.855839566e-08
4.694374249e-08
9.314348469e-08
1.766235789e-07
4.736364292e-07
-4.248979393e-05
-2.471097906e-05
435.1811727
128.5486931
122.6854901
62.54606192
114.1376788
102.736998
357.160159
-2.121958531e-07
-1.733953965e-07
8.782750447e-09
7.452062387e-08
-0.008690896168
0
0
0
0
0
0
0
0
0
0
0
0
0
0
0
0
0
0
0
0
0
0
0
0
0
0
0
0
0
1.840946941e-09
3.018198357e-10
-9.345175038e-10
-2.293507408e-09
-3.966383287e-09
-6.113274316e-09
-8.808099268e-09
-1.19107888e-08
-1.493003551e-08
-1.664956333e-08
-1.458398406e-08
-3.921458146e-09
2.365731179e-08
7.520854384e-08
1.094887447e-07
1.155996734e-07
-2.463402552e-07
17.05672269
9.759568854
0
0
0
0
0
0
0
-0.006121988256
18.3328613
-4.610310509e-05
-8.18533442e-11
-2.985053753e-05
0
0
0
0
0
0
0
0
0
0
0
0
0
0
0
0
0
0
0
0
0
0
0
0
0
0
0
0
0
1.004947538e-09
-1.255543268e-10
-1.141522768e-09
-2.42163173e-09
-4.140409039e-09
-6.518474518e-09
-9.724220328e-09
-1.38503893e-08
-1.877579772e-08
-2.399144934e-08
-2.80312418e-08
-2.711123266e-08
-1.118725092e-08
3.188295957e-08
1.740566621e-07
-0.0001032335201
40.9977723
0
0
0
0
0
0
0
0
0
0
0
391.0692514
-0.002065449672
428.2798371
0
0
0
0
0
0
0
0
0
0
0
0
0
0
0
0
0
0
0
0
0
0
0
0
0
0
0
0
0
1.213763741e-10
-5.651163558e-10
-1.347451379e-09
-2.534345423e-09
-4.299560941e-09
-6.905428333e-09
-1.063216094e-08
-1.579103693e-08
-2.273160904e-08
-3.201834611e-08
-4.477819486e-08
-6.325115071e-08
-8.377764407e-08
-3.691478538e-08
5.008660013e-08
-0.0006578097825
105.4936056
0
0
0
0
0
0
0
0
0
0
0
-0.005433004659
-2.643300587e-05
10.47795229
0
0
0
0
0
0
0
0
0
0
0
0
0
0
0
0
0
0
0
0
0
0
0
0
0
0
0
0
0
-5.746181167e-10
-8.955183855e-10
-1.493237952e-09
-2.611190747e-09
-4.423843216e-09
-7.218906843e-09
-1.134287107e-08
-1.717536227e-08
-2.509444568e-08
-3.546220393e-08
-4.874377347e-08
-6.635462593e-08
-1.163947095e-07
-1.808573975e-07
-2.933646134e-07
155.5736887
0
0
0
0
0
0
0
0
0
0
0
0
0
-0.002462870183
0
0
0
0
0
0
0
0
0
0
0
0
0
0
0
0
0
0
0
0
0
0
0
0
0
0
0
0
0
0
-8.713947876e-10
-1.013416587e-09
-1.535690089e-09
-2.647160189e-09
-4.528175511e-09
-7.504795873e-09
-1.199607421e-08
-1.849864872e-08
-2.751728895e-08
-3.944201292e-08
-5.430950543e-08
-7.372230227e-08
-1.576492667e-07
-2.637221616e-07
-2.119185803e-07
-0.006276739491
0
0
0
0
0
0
0
0
0
0
0
0
0
0
0
0
0
0
0
0
0
0
0
0
0
0
0
0
0
0
0
0
0
0
0
0
0
0
0
0
0
0
0
0
-6.357533526e-10
-8.604925785e-10
-1.46204728e-09
-2.648089042e-09
-4.621347553e-09
-7.750676963e-09
-1.255147965e-08
-1.973854676e-08
-3.03241149e-08
-4.578660146e-08
-6.818933942e-08
-9.862545939e-08
-1.08598498e-07
-1.360751352e-07
-0.000168367997
66.77977147
0
0
0
0
0
0
0
0
0
0
0
0
0
0
0
0
0
0
0
0
0
0
0
0
0
0
0
0
0
0
0
0
0
0
0
0
0
0
0
0
0
0
0
0
1.529500357e-10
-4.501466773e-10
-1.299275815e-09
-2.640729371e-09
-4.702461664e-09
-7.862883243e-09
-1.263669036e-08
-1.973398529e-08
-3.016736367e-08
-4.54314807e-08
-6.760961004e-08
-9.789257701e-08
-1.079432076e-07
-1.353620743e-07
-0.0001645477841
65.26519055
0
0
0
0
0
0
0
0
0
0
0
0
0
0
0
0
0
0
0
0
0
0
0
0
0
0
0
0
0
0
0
0
0
0
0
0
0
0
0
0
0
0
0
0
1.365971735e-09
1.126928916e-10
-1.13553741e-09
-2.704927486e-09
-4.853347874e-09
-7.932490038e-09
-1.235291018e-08
-1.85868153e-08
-2.713140895e-08
-3.841385323e-08
-5.258650585e-08
-7.140031513e-08
-1.562027415e-07
-2.614638874e-07
-2.028814486e-07
-0.006438666525
0
0
0
0
0
0
0
0
0
0
0
0
0
0
0
0
0
0
0
0
0
0
0
0
0
0
0
0
0
0
0
0
0
0
0
0
0
0
0
0
0
0
0
0
2.715274742e-09
6.235781043e-10
-1.122190743e-09
-2.973982851e-09
-5.23694346e-09
-8.234384912e-09
-1.227631747e-08
-1.767082263e-08
-2.47410211e-08
-3.389908421e-08
-4.587022748e-08
-6.27448113e-08
-1.142909108e-07
-1.815983134e-07
-3.298483593e-07
149.7272741
0
0
0
0
0
0
0
0
0
0
0
0
0
-0.002961357906
0
0
0
0
0
0
0
0
0
0
0
0
0
0
0
0
0
0
0
0
0
0
0
0
0
0
0
0
0
0
3.748259926e-09
7.811102332e-10
-1.459322282e-09
-3.599025188e-09
-6.004707732e-09
-8.962774633e-09
-1.266437325e-08
-1.724395157e-08
-2.287729245e-08
-3.005750963e-08
-4.015863188e-08
-5.617737963e-08
-7.672332615e-08
-4.772970989e-08
5.256683155e-09
-0.0005674702119
75.50276747
0
0
0
0
0
0
0
0
0
0
0
-0.005872336876
-1.698030901e-05
6.727174156
0
0
0
0
0
0
0
0
0
0
0
0
0
0
0
0
0
0
0
0
0
0
0
0
0
0
0
0
0
3.851352141e-09
1.984236191e-10
-2.374619929e-09
-4.726472293e-09
-7.279863951e-09
-1.024390828e-08
-1.36067873e-08
-1.712777203e-08
-2.0313084e-08
-2.239219947e-08
-2.211475932e-08
-1.671367234e-08
1.954066218e-09
4.255900895e-08
1.816822556e-07
-1.464329509e-06
0.5892347337
0
0
0
0
0
0
0
0
0
0
0
381.0144694
-0.00199176543
409.0996093
0
0
0
0
0
0
0
0
0
0
0
0
0
0
0
0
0
0
0
0
0
0
0
0
0
0
0
0
0
2.19811708e-09
-1.583188784e-09
-4.082992167e-09
-6.474992438e-09
-9.181180725e-09
-1.227755465e-08
-1.550659295e-08
-1.82055357e-08
-1.91703422e-08
-1.655153277e-08
-7.852692915e-09
1.031942568e-08
4.365465578e-08
1.010848148e-07
1.045826387e-07
7.250113452e-08
-4.382329661e-07
697.495254
95.21606311
0
0
0
0
0
0
0
-0.0008339508787
369.2903067
-4.774943778e-07
-6.155990491e-09
-0.002441608337
0
0
0
0
0
0
0
0
0
0
0
0
0
0
0
0
0
0
0
0
0
0
0
0
0
0
0
0
0
-2.319361193e-09
-5.0008808e-09
-6.671313296e-09
-8.864102728e-09
-1.177310304e-08
-1.525024491e-08
-1.880442162e-08
-2.143940668e-08
-2.138974878e-08
-1.603364397e-08
-2.802410256e-09
1.833312387e-08
3.932010486e-08
6.058322907e-08
1.238755249e-07
3.523217002e-07
6.519113997e-07
-0.001757104387
-0.0004547442866
85.17665405
281.8246233
158.0677184
0
157.0954245
279.6009393
-0.002697986191
-2.99902475e-09
-0.0009305555037
-5.753117967e-09
-3.127780112e-07
-0.01412385648
0
0
0
0
0
0
0
0
0
0
0
0
0
0
0
0
0
0
0
0
0
0
0
0
0
0
0
0
0
-1.370744089e-08
-1.081736669e-08
-9.908628252e-09
-1.171497077e-08
-1.501554797e-08
-1.92459247e-08
-2.373718992e-08
-2.732251339e-08
-2.776117765e-08
-2.095447616e-08
-1.612209102e-09
3.388951506e-08
6.523982527e-08
1.058311374e-07
2.415083194e-07
3.978790511e-07
7.620506997e-07
7.702675607e-07
-7.489292384e-09
-0.000290531784
-0.001966397994
-0.0006774385405
-0.04744438141
-0.0006583180445
-0.001917430424
-0.0001896341459
-1.664187732e-08
-9.038856044e-08
3.676089614e-08
-2.955818345e-09
-0.00546205929
0
0
0
0
0
0
0
0
0
0
0
0
0
0
0
0
0
0
0
0
0
0
0
0
0
0
0
0
0
-1.411806503e-08
-1.182512024e-08
-1.172353679e-08
-1.440706222e-08
-1.877522858e-08
-2.428580729e-08
-3.034807966e-08
-3.603741166e-08
-3.933443191e-08
-3.48653579e-08
-1.251315789e-08
4.86526222e-08
8.898413176e-08
2.640707549e-07
4.654598892e-07
-2.329023928e-05
-0.0001090831195
-0.003842296925
-0.002970354061
115.2503912
498.2361608
110.6456952
0
104.0320347
481.034642
75.22462674
-0.006601396974
-0.01150572174
-0.0002025058912
-0.0009502427948
216.1777766
0
0
0
0
0
0
0
0
0
0
0
0
0
0
0
0
0
0
0
0
0
0
0
0
0
0
0
0
0
-4.802129194e-09
-8.522039722e-09
-1.227503866e-08
-1.70839112e-08
-2.325153627e-08
-3.055031375e-08
-3.852620318e-08
-4.680202825e-08
-5.519711784e-08
-5.965978538e-08
-5.015499131e-08
5.426968434e-09
8.296368839e-08
2.878567863e-07
-5.454459255e-08
9.403951857
43.32202135
0
0
0
0
0
0
0
0
0
0
0
80.45939334
160.7790504
0
0
0
0
0
0
0
0
0
0
0
0
0
0
0
0
0
0
0
0
0
0
0
0
0
0
0
0
0
0
-2.928529358e-09
-7.827792925e-09
-1.360306798e-08
-2.054698438e-08
-2.90472512e-08
-3.875179094e-08
-4.87084247e-08
-5.817178267e-08
-6.977945126e-08
-8.609120786e-08
-1.290316042e-07
-1.164924975e-07
-0.000137918798
-0.0008204753636
230.6622461
0
0
0
0
0
0
0
0
0
0
0
0
0
0
0
0
0
0
0
0
0
0
0
0
0
0
0
0
0
0
0
0
0
0
0
0
0
0
0
0
0
0
0
0
0
-2.431037681e-09
-8.044128374e-09
-1.557537431e-08
-2.492392223e-08
-3.66949163e-08
-5.042740773e-08
-6.379052141e-08
-7.142616158e-08
-7.106176897e-08
-1.04674832e-07
-2.20061181e-07
-4.348192059e-07
54.75643434
94.92021822
0
0
0
0
0
0
0
0
0
0
0
0
0
0
0
0
0
0
0
0
0
0
0
0
0
0
0
0
0
0
0
0
0
0
0
0
0
0
0
0
0
0
0
0
0
0
-2.31998952e-09
-8.513351495e-09
-1.763511397e-08
-2.957431914e-08
-4.580011825e-08
-6.719045878e-08
-9.274687585e-08
-1.147467191e-07
-1.184636589e-07
-6.701270301e-08
-0.0001872440774
74.2742702
0
0
0
0
0
0
0
0
0
0
0
0
0
0
0
0
0
0
0
0
0
0
0
0
0
0
0
0
0
0
0
0
0
0
0
0
0
0
0
0
0
0
0
0
0
0
0
0
-2.234504123e-09
-8.718160677e-09
-1.886642776e-08
-3.262950815e-08
-5.256305728e-08
-8.211162041e-08
-1.260650058e-07
-1.808313618e-07
-1.623980096e-07
-6.563860974e-08
-0.000680762156
172.9872056
0
0
0
0
0
0
0
0
0
0
0
0
0
0
0
0
0
0
0
0
0
0
0
0
0
0
0
0
0
0
0
0
0
0
0
0
0
0
0
0
0
0
0
0
0
0
0
0
-2.04394801e-09
-8.291242339e-09
-1.838848518e-08
-3.191108896e-08
-5.112525777e-08
-7.889926432e-08
-1.201639241e-07
-2.263162216e-07
-3.202428187e-07
-3.671011332e-07
97.15187189
0
0
0
0
0
0
0
0
0
0
0
0
0
0
0
0
0
0
0
0
0
0
0
0
0
0
0
0
0
0
0
0
0
0
0
0
0
0
0
0
0
0
0
0
0
0
0
0
0
)
;

boundaryField
{
    lowerWall
    {
        type            calculated;
        value           uniform 0;
    }
    atmosphere
    {
        type            calculated;
        value           nonuniform List<scalar> 
60
(
2.067335889e-10
2.241287838e-10
2.418837283e-10
2.597817278e-10
2.774031301e-10
2.924504282e-10
3.031668097e-10
3.071023999e-10
3.012471739e-10
2.799828682e-10
2.300165108e-10
1.145836534e-10
-1.764274458e-10
-1.019066867e-09
-3.581867873e-09
-1.514382313e-08
-1.708523387e-08
-6.017742834e-09
-3.934718656e-10
3.344506544e-09
5.756490419e-09
7.087431791e-09
7.460211761e-09
6.988658088e-09
5.827870322e-09
4.190570762e-09
2.330570472e-09
5.179905427e-10
-9.998394962e-10
-2.030933762e-09
-2.469153932e-09
-2.30597454e-09
-1.631977332e-09
-6.16046664e-10
5.224469708e-10
1.556188949e-09
2.287305533e-09
2.588335744e-09
2.419942093e-09
1.840946941e-09
1.004947538e-09
1.213763741e-10
-5.746181167e-10
-8.713947876e-10
-6.357533526e-10
1.529500357e-10
1.365971735e-09
2.715274742e-09
3.748259926e-09
3.851352141e-09
2.19811708e-09
-2.319361193e-09
-1.370744089e-08
-1.411806503e-08
-4.802129194e-09
-2.928529358e-09
-2.431037681e-09
-2.31998952e-09
-2.234504123e-09
-2.04394801e-09
)
;
    }
    rightWall
    {
        type            empty;
    }
    leftWall
    {
        type            empty;
    }
    frontAndBack
    {
        type            calculated;
        value           nonuniform List<scalar> 
120
(
2.067335889e-10
3.346092279e-10
2.2044148e-12
-3.299333075e-10
-7.173231136e-10
-1.15015016e-09
-1.639174806e-09
-2.19826773e-09
-2.843170732e-09
-3.597732586e-09
-4.488273532e-09
-5.548189605e-09
-6.820955305e-09
-8.381762174e-09
-1.033086762e-08
-1.271339659e-08
-1.5302443e-08
-1.737394234e-08
-1.790632084e-08
-1.685594819e-08
-1.634660498e-08
-1.736554394e-08
-1.869756402e-08
-2.05169568e-08
-2.466447838e-08
-3.333737604e-08
-4.482683854e-08
-5.918472822e-08
-7.046994847e-08
-2.734994124e-08
-0.0007016256525
0
0
0
0
0
0
0
0
0
0
0
0
0
0
0
0
0
0
0
0
0
0
0
0
0
0
0
0
0
-2.04394801e-09
-8.291242339e-09
-1.838848518e-08
-3.191108896e-08
-5.112525777e-08
-7.889926432e-08
-1.201639241e-07
-2.263162216e-07
-3.202428187e-07
-3.671011332e-07
97.15187189
0
0
0
0
0
0
0
0
0
0
0
0
0
0
0
0
0
0
0
0
0
0
0
0
0
0
0
0
0
0
0
0
0
0
0
0
0
0
0
0
0
0
0
0
0
0
0
0
0
)
;
    }
}


// ************************************************************************* //
