/*--------------------------------*- C++ -*----------------------------------*\
  =========                 |
  \\      /  F ield         | OpenFOAM: The Open Source CFD Toolbox
   \\    /   O peration     | Website:  https://openfoam.org
    \\  /    A nd           | Version:  6
     \\/     M anipulation  |
\*---------------------------------------------------------------------------*/
FoamFile
{
    version     2.0;
    format      ascii;
    class       volVectorField;
    location    "0.0026";
    object      gradT;
}
// * * * * * * * * * * * * * * * * * * * * * * * * * * * * * * * * * * * * * //

dimensions      [0 -1 0 1 0 0 0];

internalField   nonuniform List<vector> 
9600
(
(0 1.039817623e-05 0.0001789416354)
(0 3.034453297e-05 0.0001757322382)
(0 4.905972371e-05 0.0001696869536)
(0 6.587290383e-05 0.000161427112)
(0 8.044483964e-05 0.0001516311853)
(0 9.27145303e-05 0.0001409623729)
(0 0.0001027467883 0.0001299581447)
(0 0.0001107436328 0.0001190149099)
(0 0.0001169413661 0.0001084147091)
(0 0.0001215877653 9.833289972e-05)
(0 0.0001248962834 8.888382921e-05)
(0 0.0001271032202 8.012084472e-05)
(0 0.0001283648757 7.204396223e-05)
(0 0.0001288527744 6.464936864e-05)
(0 0.0001286926775 5.790655913e-05)
(0 0.0001279875225 5.177742886e-05)
(0 0.0001268249775 4.622386024e-05)
(0 0.0001253079339 4.119629352e-05)
(0 0.0001234783428 3.665662054e-05)
(0 0.0001213895668 3.256291235e-05)
(0 0.0001190911357 2.888085825e-05)
(0 0.000116628811 2.556472434e-05)
(0 0.0001140254621 2.258020517e-05)
(0 0.0001113344317 1.991205009e-05)
(0 0.0001085519285 1.751452338e-05)
(0 0.0001056970103 1.536475473e-05)
(0 0.0001028192096 1.343224818e-05)
(0 9.990329877e-05 1.171319485e-05)
(0 9.696452384e-05 1.01656663e-05)
(0 9.404479552e-05 8.7896607e-06)
(0 9.112126136e-05 7.558498339e-06)
(0 8.822060239e-05 6.464555699e-06)
(0 8.535042602e-05 5.488773377e-06)
(0 8.251074813e-05 4.619717593e-06)
(0 7.969775655e-05 3.849764892e-06)
(0 7.694574179e-05 3.167479637e-06)
(0 7.423565993e-05 2.572862521e-06)
(0 7.156369885e-05 2.039231898e-06)
(0 6.89565272e-05 1.574210698e-06)
(0 6.641415787e-05 1.162552695e-06)
(0 6.39137205e-05 8.004461656e-07)
(0 6.148188512e-05 4.878909669e-07)
(0 5.911103996e-05 2.172639462e-07)
(0 5.679356127e-05 -2.286989044e-08)
(0 5.455230873e-05 -2.325105389e-07)
(0 5.236061103e-05 -3.964114106e-07)
(0 5.024133766e-05 -5.488773707e-07)
(0 4.818304463e-05 -6.708500795e-07)
(0 4.618574098e-05 -7.775762285e-07)
(0 4.424942636e-05 -8.576208917e-07)
(0 4.23817161e-05 -9.224188593e-07)
(0 4.056355992e-05 -9.795935819e-07)
(0 3.881020409e-05 -1.025333422e-06)
(0 3.711401832e-05 -1.059638194e-06)
(0 3.54826329e-05 -1.078696435e-06)
(0 3.390461258e-05 -1.093943093e-06)
(0 3.237995128e-05 -1.093943027e-06)
(0 3.090865508e-05 -1.097754675e-06)
(0 2.949453538e-05 -1.097754741e-06)
(0 2.813758686e-05 -1.078696435e-06)
(0 2.683400318e-05 -1.06726149e-06)
(0 2.556853752e-05 -1.048203312e-06)
(0 2.436405516e-05 -1.02533336e-06)
(0 2.319769082e-05 -9.948401747e-07)
(0 2.208087922e-05 -9.795936407e-07)
(0 2.101361641e-05 -9.491003965e-07)
(0 1.998065975e-05 -9.262305074e-07)
(0 1.898582072e-05 -8.919257274e-07)
(0 1.804434248e-05 -8.614324884e-07)
(0 1.714479351e-05 -8.30939303e-07)
(0 1.627955035e-05 -8.004461656e-07)
(0 1.545242172e-05 -7.699529321e-07)
(0 1.46519756e-05 -7.394597467e-07)
(0 1.389727009e-05 -7.089666038e-07)
(0 1.317305611e-05 -6.746617276e-07)
(0 1.248695943e-05 -6.441685422e-07)
(0 1.182373336e-05 -6.136753936e-07)
(0 1.11948107e-05 -5.869938195e-07)
(0 1.059638194e-05 -5.603122823e-07)
(0 1.003225861e-05 -5.33630777e-07)
(0 9.494815613e-06 -5.145725041e-07)
(0 8.972619813e-06 -4.878909669e-07)
(0 8.477106058e-06 -4.650211057e-07)
(0 8.000649527e-06 -4.383395406e-07)
(0 7.55468669e-06 -4.154696515e-07)
(0 7.13159417e-06 -3.887881376e-07)
(0 6.723747387e-06 -3.697298733e-07)
(0 6.346394218e-06 -3.506716324e-07)
(0 5.991911297e-06 -3.239901146e-07)
(0 5.648862601e-06 -3.087435025e-07)
(0 5.33630745e-06 -2.934969098e-07)
(0 5.023752601e-06 -2.820619822e-07)
(0 4.734067038e-06 -2.591920762e-07)
(0 4.459628369e-06 -2.401338353e-07)
(0 4.200436545e-06 -2.325105529e-07)
(0 3.964114106e-06 -2.13452298e-07)
(0 3.731603567e-06 -2.020173535e-07)
(0 3.521963129e-06 -1.86770772e-07)
(0 3.331380508e-06 -1.829591126e-07)
(0 3.125551507e-06 -1.639008717e-07)
(0 2.950215867e-06 -1.562775847e-07)
(0 2.790126467e-06 -1.448426308e-07)
(0 2.63766054e-06 -1.334076863e-07)
(0 2.48900641e-06 -1.21972749e-07)
(0 2.351786926e-06 -1.06726149e-07)
(0 2.233625833e-06 -1.029145008e-07)
(0 2.115464866e-06 -9.147956178e-08)
(0 2.016361887e-06 -8.385625993e-08)
(0 1.913447386e-06 -8.004461175e-08)
(0 1.825779587e-06 -6.860967133e-08)
(0 1.753358162e-06 -6.098637086e-08)
(0 1.684748495e-06 -5.717472268e-08)
(0 1.616138925e-06 -4.573978089e-08)
(0 1.566587401e-06 -4.192812997e-08)
(0 1.520847623e-06 -3.430483361e-08)
(0 1.478919582e-06 -2.668153885e-08)
(0 1.448426308e-06 -2.286988907e-08)
(0 1.421744771e-06 -1.524659272e-08)
(0 1.406498262e-06 -1.143494522e-08)
(0 1.398874882e-06 0)
(0 9.014547943e-06 0.0001541659222)
(0 2.637660698e-05 0.000151753158)
(0 4.286960707e-05 0.0001471677362)
(0 5.797898045e-05 0.0001407832255)
(0 7.139598632e-05 0.0001330913274)
(0 8.301388569e-05 0.0001245417926)
(0 9.28174448e-05 0.0001155501145)
(0 0.0001009057683 0.0001064517167)
(0 0.0001074160573 9.750196041e-05)
(0 0.0001125236659 8.887238894e-05)
(0 0.0001163848725 8.067735019e-05)
(0 0.0001191940502 7.299687427e-05)
(0 0.0001210579462 6.585384558e-05)
(0 0.0001221518965 5.925588614e-05)
(0 0.0001225711705 5.320679693e-05)
(0 0.0001224148929 4.767228377e-05)
(0 0.00012176692 4.264091073e-05)
(0 0.0001207263328 3.806311871e-05)
(0 0.0001193388928 3.391985714e-05)
(0 0.0001176503397 3.016919715e-05)
(0 0.0001157254504 2.67806401e-05)
(0 0.0001136023623 2.373132156e-05)
(0 0.0001113039451 2.098693613e-05)
(0 0.0001088873535 1.85131752e-05)
(0 0.0001063487958 1.628717267e-05)
(0 0.0001037340114 1.429368153e-05)
(0 0.0001010506049 1.251364097e-05)
(0 9.831765312e-05 1.090893709e-05)
(0 9.555802558e-05 9.471946293e-06)
(0 9.277932832e-05 8.191231936e-06)
(0 9.00006368e-05 7.047737483e-06)
(0 8.721432721e-05 6.026216132e-06)
(0 8.445850035e-05 5.119043504e-06)
(0 8.171792531e-05 4.31097409e-06)
(0 7.899641325e-05 3.594384448e-06)
(0 7.632063148e-05 2.957838987e-06)
(0 7.368297094e-05 2.393715056e-06)
(0 7.10796195e-05 1.894389259e-06)
(0 6.852962261e-05 1.463672901e-06)
(0 6.604061635e-05 1.074884786e-06)
(0 6.358973038e-05 7.356481426e-07)
(0 6.119982316e-05 4.459628369e-07)
(0 5.886709447e-05 1.905824089e-07)
(0 5.657629731e-05 -2.668153885e-08)
(0 5.436172633e-05 -2.172639462e-07)
(0 5.22081451e-05 -3.849764661e-07)
(0 5.011174161e-05 -5.221958318e-07)
(0 4.807631848e-05 -6.365452459e-07)
(0 4.609044978e-05 -7.318364503e-07)
(0 4.417319339e-05 -8.156927592e-07)
(0 4.231691808e-05 -8.843023775e-07)
(0 4.051782014e-05 -9.338538038e-07)
(0 3.877589925e-05 -9.757819923e-07)
(0 3.708733678e-05 -1.002463471e-06)
(0 3.546357466e-05 -1.02533336e-06)
(0 3.389317764e-05 -1.036768367e-06)
(0 3.237613963e-05 -1.044391601e-06)
(0 3.091246673e-05 -1.044391601e-06)
(0 2.950597032e-05 -1.036768367e-06)
(0 2.81490218e-05 -1.02533336e-06)
(0 2.684543812e-05 -1.010086767e-06)
(0 2.558759576e-05 -9.948402344e-07)
(0 2.43907367e-05 -9.757819338e-07)
(0 2.3228184e-05 -9.529120447e-07)
(0 2.210756076e-05 -9.186072662e-07)
(0 2.10364863e-05 -8.995489702e-07)
(0 2.000352964e-05 -8.766790811e-07)
(0 1.901250226e-05 -8.538092433e-07)
(0 1.808245896e-05 -8.233160066e-07)
(0 1.717147505e-05 -7.928228212e-07)
(0 1.631004354e-05 -7.585180331e-07)
(0 1.547529161e-05 -7.318364503e-07)
(0 1.468628043e-05 -7.051549131e-07)
(0 1.392776328e-05 -6.746617681e-07)
(0 1.320354929e-05 -6.441685422e-07)
(0 1.251745262e-05 -6.136753568e-07)
(0 1.18504149e-05 -5.869938548e-07)
(0 1.122149224e-05 -5.641239305e-07)
(0 1.062687512e-05 -5.374423932e-07)
(0 1.00475052e-05 -5.107608866e-07)
(0 9.517685502e-06 -4.878909669e-07)
(0 8.99930135e-06 -4.650210778e-07)
(0 8.4961643e-06 -4.421512153e-07)
(0 8.027331065e-06 -4.230929478e-07)
(0 7.581368228e-06 -3.887881142e-07)
(0 7.150652412e-06 -3.773531923e-07)
(0 6.746617276e-06 -3.544832806e-07)
(0 6.369264107e-06 -3.354250397e-07)
(0 6.00715789e-06 -3.201784662e-07)
(0 5.67173249e-06 -2.973085579e-07)
(0 5.347742395e-06 -2.820619652e-07)
(0 5.038999195e-06 -2.630037401e-07)
(0 4.749313631e-06 -2.515687798e-07)
(0 4.474874962e-06 -2.363221871e-07)
(0 4.219494787e-06 -2.172639592e-07)
(0 3.97554905e-06 -2.096406498e-07)
(0 3.74685016e-06 -1.905824089e-07)
(0 3.533398074e-06 -1.791474752e-07)
(0 3.335192156e-06 -1.677125199e-07)
(0 3.140798099e-06 -1.600892235e-07)
(0 2.965462461e-06 -1.486542879e-07)
(0 2.793938115e-06 -1.372193344e-07)
(0 2.645283836e-06 -1.334076863e-07)
(0 2.504253004e-06 -1.21972749e-07)
(0 2.367033519e-06 -1.105377972e-07)
(0 2.237437481e-06 -9.529120447e-08)
(0 2.126899811e-06 -9.147956178e-08)
(0 2.020173535e-06 -8.385625993e-08)
(0 1.921070682e-06 -7.24213154e-08)
(0 1.837214532e-06 -6.479802293e-08)
(0 1.753358162e-06 -6.098637086e-08)
(0 1.692371791e-06 -5.33630745e-08)
(0 1.623762222e-06 -4.573978089e-08)
(0 1.574210698e-06 -4.192812997e-08)
(0 1.52847092e-06 -3.430483361e-08)
(0 1.486542879e-06 -2.668153885e-08)
(0 1.456049604e-06 -2.286988907e-08)
(0 1.425556419e-06 -1.524659272e-08)
(0 1.410309911e-06 -1.143494522e-08)
(0 1.406498178e-06 -3.811648179e-09)
(0 7.973968038e-06 0.0001318601579)
(0 2.334253499e-05 0.0001300229513)
(0 3.809361213e-05 0.0001264933572)
(0 5.179648741e-05 0.0001215344029)
(0 6.420340616e-05 0.0001154586426)
(0 7.516951418e-05 0.0001086129155)
(0 8.465670656e-05 0.0001013059859)
(0 9.269928983e-05 9.379704457e-05)
(0 9.935823367e-05 8.631477353e-05)
(0 0.0001047631508 7.900403228e-05)
(0 0.0001090245801 7.19982272e-05)
(0 0.0001122759094 6.535833171e-05)
(0 0.0001146276964 5.91415335e-05)
(0 0.0001162057257 5.336307802e-05)
(0 0.0001171090793 4.801152075e-05)
(0 0.0001174140112 4.310592951e-05)
(0 0.0001172158125 3.86119986e-05)
(0 0.0001165906952 3.452209776e-05)
(0 0.0001155806084 3.079811747e-05)
(0 0.0001142503501 2.742481046e-05)
(0 0.000112649451 2.43640553e-05)
(0 0.0001108351064 2.160061036e-05)
(0 0.0001088111277 1.911160523e-05)
(0 0.0001066422934 1.686273164e-05)
(0 0.0001043324346 1.48425581e-05)
(0 0.000101923479 1.302821433e-05)
(0 9.942684334e-05 1.139682812e-05)
(0 9.68616041e-05 9.933155214e-06)
(0 9.425444239e-05 8.629572046e-06)
(0 9.161677618e-05 7.459395531e-06)
(0 8.896005738e-05 6.411192275e-06)
(0 8.628809717e-05 5.477338794e-06)
(0 8.363518484e-05 4.650210806e-06)
(0 8.098608934e-05 3.903127758e-06)
(0 7.834843349e-05 3.247524463e-06)
(0 7.574888471e-05 2.671965389e-06)
(0 7.316839888e-05 2.153581234e-06)
(0 7.062984541e-05 1.696183552e-06)
(0 6.813702325e-05 1.295960389e-06)
(0 6.568613346e-05 9.414771058e-07)
(0 6.328861054e-05 6.365452879e-07)
(0 6.09368198e-05 3.621065792e-07)
(0 5.863458429e-05 1.257843907e-07)
(0 5.638571523e-05 -7.242132018e-08)
(0 5.419401413e-05 -2.439454849e-07)
(0 5.205949114e-05 -3.925997648e-07)
(0 4.998595752e-05 -5.183841865e-07)
(0 4.797340427e-05 -6.289219533e-07)
(0 4.600659379e-05 -7.204015101e-07)
(0 4.410077234e-05 -7.890112251e-07)
(0 4.225974361e-05 -8.538091972e-07)
(0 4.04797039e-05 -9.033606238e-07)
(0 3.874159465e-05 -9.338538654e-07)
(0 3.706065546e-05 -9.605353468e-07)
(0 3.544832828e-05 -9.795935878e-07)
(0 3.38817429e-05 -9.872169435e-07)
(0 3.237613982e-05 -9.986518288e-07)
(0 3.092009021e-05 -9.910285324e-07)
(0 2.950978215e-05 -9.83405295e-07)
(0 2.816426856e-05 -9.719702914e-07)
(0 2.686068488e-05 -9.605353468e-07)
(0 2.560284251e-05 -9.452888107e-07)
(0 2.440979508e-05 -9.26230513e-07)
(0 2.325486568e-05 -9.07172272e-07)
(0 2.213043079e-05 -8.843024358e-07)
(0 2.105554467e-05 -8.614324936e-07)
(0 2.00302113e-05 -8.347509562e-07)
(0 1.904299556e-05 -8.042578188e-07)
(0 1.810532896e-05 -7.775762331e-07)
(0 1.720577998e-05 -7.508946957e-07)
(0 1.633672517e-05 -7.242132018e-07)
(0 1.550578488e-05 -6.975316209e-07)
(0 1.471296206e-05 -6.708500835e-07)
(0 1.395825655e-05 -6.403569363e-07)
(0 1.323404256e-05 -6.098637123e-07)
(0 1.254032258e-05 -5.869938231e-07)
(0 1.187328486e-05 -5.603123193e-07)
(0 1.124817384e-05 -5.336307482e-07)
(0 1.065355672e-05 -5.069492108e-07)
(0 1.007799845e-05 -4.878909991e-07)
(0 9.536743801e-06 -4.612094324e-07)
(0 9.018359645e-06 -4.421511914e-07)
(0 8.519034242e-06 -4.192813273e-07)
(0 8.050201002e-06 -3.96411413e-07)
(0 7.604238162e-06 -3.77353172e-07)
(0 7.169710698e-06 -3.582949525e-07)
(0 6.765675558e-06 -3.392366899e-07)
(0 6.388322386e-06 -3.163668007e-07)
(0 6.026216168e-06 -2.973085776e-07)
(0 5.683167469e-06 -2.820619669e-07)
(0 5.370612316e-06 -2.668153741e-07)
(0 5.054245819e-06 -2.515687964e-07)
(0 4.764560252e-06 -2.286988921e-07)
(0 4.486309933e-06 -2.172639475e-07)
(0 4.234741406e-06 -2.058290152e-07)
(0 3.986984019e-06 -1.982057065e-07)
(0 3.762096775e-06 -1.829591137e-07)
(0 3.541021392e-06 -1.753358278e-07)
(0 3.342815473e-06 -1.639008727e-07)
(0 3.156044711e-06 -1.524659281e-07)
(0 2.969274127e-06 -1.410309919e-07)
(0 2.805373076e-06 -1.334076871e-07)
(0 2.660530445e-06 -1.219727425e-07)
(0 2.508064667e-06 -1.105378045e-07)
(0 2.382280126e-06 -1.029145014e-07)
(0 2.252684087e-06 -8.766790864e-08)
(0 2.126899824e-06 -8.385626547e-08)
(0 2.023985195e-06 -7.623296403e-08)
(0 1.936317286e-06 -7.242131583e-08)
(0 1.837214543e-06 -6.098637489e-08)
(0 1.764793117e-06 -5.717472302e-08)
(0 1.69618345e-06 -5.336307482e-08)
(0 1.631385528e-06 -4.573978116e-08)
(0 1.581834004e-06 -3.430483381e-08)
(0 1.536094225e-06 -3.049318561e-08)
(0 1.490354536e-06 -2.286989058e-08)
(0 1.459861261e-06 -1.905824101e-08)
(0 1.436991372e-06 -1.14349446e-08)
(0 1.414121568e-06 -7.623296861e-09)
(0 1.410309835e-06 -3.811648202e-09)
(0 7.165898576e-06 0.0001114640277)
(0 2.100599437e-05 0.0001100499128)
(0 3.438106657e-05 0.0001073207661)
(0 4.694044732e-05 0.0001034481316)
(0 5.847449822e-05 9.865689573e-05)
(0 6.885742435e-05 9.319860962e-05)
(0 7.800537998e-05 8.730198989e-05)
(0 8.591074346e-05 8.117667613e-05)
(0 9.262686239e-05 7.498655462e-05)
(0 9.820711533e-05 6.889172918e-05)
(0 0.0001027429828 6.299130158e-05)
(0 0.0001063335492 5.735387015e-05)
(0 0.000109066501 5.203662094e-05)
(0 0.0001110218832 4.705479959e-05)
(0 0.0001123178369 4.242745588e-05)
(0 0.0001130115569 3.815078662e-05)
(0 0.0001131868995 3.422479105e-05)
(0 0.0001129086424 3.063040476e-05)
(0 0.0001122377923 2.735619898e-05)
(0 0.0001112124656 2.436786827e-05)
(0 0.0001099050636 2.16615966e-05)
(0 0.0001083499111 1.921833012e-05)
(0 0.0001065698778 1.700376355e-05)
(0 0.0001046183076 1.501027053e-05)
(0 0.0001025104661 1.320354929e-05)
(0 0.0001002882812 1.158359951e-05)
(0 9.796316984e-05 1.012754921e-05)
(0 9.55465849e-05 8.820153886e-06)
(0 9.307664246e-05 7.653790002e-06)
(0 9.056476073e-05 6.601774646e-06)
(0 8.801857974e-05 5.664109194e-06)
(0 8.545334565e-05 4.833170181e-06)
(0 8.288428965e-05 4.086086848e-06)
(0 8.032286207e-05 3.426671713e-06)
(0 7.775762751e-05 2.832054767e-06)
(0 7.522668846e-05 2.313670445e-06)
(0 7.271100066e-05 1.848649367e-06)
(0 7.022199861e-05 1.440803098e-06)
(0 6.777872792e-05 1.082508083e-06)
(0 6.536976627e-05 7.661412839e-07)
(0 6.301035982e-05 4.840793478e-07)
(0 6.06966856e-05 2.439454834e-07)
(0 5.842494328e-05 3.430483361e-08)
(0 5.620656742e-05 -1.524659363e-07)
(0 5.403773623e-05 -3.087435025e-07)
(0 5.193370644e-05 -4.421511887e-07)
(0 4.987541941e-05 -5.526890191e-07)
(0 4.787811277e-05 -6.479801904e-07)
(0 4.593036055e-05 -7.204015058e-07)
(0 4.403597405e-05 -7.928228688e-07)
(0 4.221019193e-05 -8.423742475e-07)
(0 4.043777553e-05 -8.843023775e-07)
(0 3.871110123e-05 -9.186072662e-07)
(0 3.704540865e-05 -9.414771002e-07)
(0 3.543308147e-05 -9.567236929e-07)
(0 3.38741194e-05 -9.605353987e-07)
(0 3.237995128e-05 -9.605353411e-07)
(0 3.092390167e-05 -9.605353411e-07)
(0 2.952121692e-05 -9.529121019e-07)
(0 2.817570334e-05 -9.37665452e-07)
(0 2.687593131e-05 -9.262305074e-07)
(0 2.56219006e-05 -9.033606726e-07)
(0 2.442885318e-05 -8.843023775e-07)
(0 2.327011213e-05 -8.690557848e-07)
(0 2.21494889e-05 -8.499975949e-07)
(0 2.108222608e-05 -8.271276548e-07)
(0 2.005689272e-05 -8.004461175e-07)
(0 1.907730028e-05 -7.737646267e-07)
(0 1.813201039e-05 -7.432713949e-07)
(0 1.722864977e-05 -7.204015058e-07)
(0 1.635959496e-05 -6.975316586e-07)
(0 1.553246633e-05 -6.670384313e-07)
(0 1.473964351e-05 -6.40356894e-07)
(0 1.398874966e-05 -6.136753936e-07)
(0 1.326072401e-05 -5.908054677e-07)
(0 1.256700405e-05 -5.641239305e-07)
(0 1.189996633e-05 -5.374424255e-07)
(0 1.127485531e-05 -5.10760856e-07)
(0 1.06726149e-05 -4.917026151e-07)
(0 1.009705663e-05 -4.612094573e-07)
(0 9.559613632e-06 -4.421511887e-07)
(0 9.04122948e-06 -4.230929478e-07)
(0 8.541904081e-06 -4.078463796e-07)
(0 8.073070843e-06 -3.811648179e-07)
(0 7.619484709e-06 -3.659182252e-07)
(0 7.192580545e-06 -3.392367083e-07)
(0 6.784733758e-06 -3.20178447e-07)
(0 6.40356894e-06 -3.011202061e-07)
(0 6.045274374e-06 -2.89685279e-07)
(0 5.702225675e-06 -2.744386689e-07)
(0 5.382047228e-06 -2.591920762e-07)
(0 5.069492382e-06 -2.363222013e-07)
(0 4.783618464e-06 -2.248872425e-07)
(0 4.505368147e-06 -2.13452298e-07)
(0 4.238553029e-06 -1.982057172e-07)
(0 4.002230588e-06 -1.829591126e-07)
(0 3.762096752e-06 -1.791474644e-07)
(0 3.556267964e-06 -1.677125299e-07)
(0 3.354250397e-06 -1.600892235e-07)
(0 3.171291285e-06 -1.524659272e-07)
(0 2.980709055e-06 -1.410309911e-07)
(0 2.816808004e-06 -1.219727417e-07)
(0 2.660530429e-06 -1.181610935e-07)
(0 2.523311246e-06 -1.105378038e-07)
(0 2.38609176e-06 -1.06726149e-07)
(0 2.26030737e-06 -9.529120447e-08)
(0 2.138334757e-06 -8.385626496e-08)
(0 2.039231776e-06 -7.623296358e-08)
(0 1.936317275e-06 -6.860966722e-08)
(0 1.848649478e-06 -6.098637452e-08)
(0 1.764793107e-06 -5.33630745e-08)
(0 1.703806736e-06 -4.955142632e-08)
(0 1.635197167e-06 -3.811648407e-08)
(0 1.589457291e-06 -3.049318543e-08)
(0 1.543717512e-06 -3.049318543e-08)
(0 1.494166176e-06 -2.286989044e-08)
(0 1.467484549e-06 -1.905824089e-08)
(0 1.436991363e-06 -1.524659272e-08)
(0 1.421744856e-06 -1.143494522e-08)
(0 1.417933123e-06 -3.811648179e-09)
(0 6.544599923e-06 9.252013624e-05)
(0 1.919927303e-05 9.1433822e-05)
(0 3.14956489e-05 8.932597507e-05)
(0 4.313642244e-05 8.632239631e-05)
(0 5.395388321e-05 8.257936275e-05)
(0 6.381080216e-05 7.82683837e-05)
(0 7.263095605e-05 7.355718655e-05)
(0 8.038385327e-05 6.862872958e-05)
(0 8.707710264e-05 6.360497316e-05)
(0 9.276789338e-05 5.861552569e-05)
(0 9.748290802e-05 5.374424255e-05)
(0 0.0001013174202 4.905591206e-05)
(0 0.0001043324339 4.459628369e-05)
(0 0.000106600371 4.040728477e-05)
(0 0.0001082012569 3.649271966e-05)
(0 0.0001092151553 3.286021895e-05)
(0 0.0001096992412 2.951359362e-05)
(0 0.0001097182928 2.643759177e-05)
(0 0.0001093180698 2.361697212e-05)
(0 0.0001085595583 2.10555458e-05)
(0 0.0001075037252 1.872281585e-05)
(0 0.0001061658367 1.659972782e-05)
(0 0.0001046030672 1.467865802e-05)
(0 0.0001028382679 1.294816886e-05)
(0 0.0001009133855 1.138539311e-05)
(0 9.884747815e-05 9.978895531e-06)
(0 9.666339781e-05 8.709616089e-06)
(0 9.438784385e-05 7.569933283e-06)
(0 9.203606245e-05 6.548411964e-06)
(0 8.963090692e-05 5.637427656e-06)
(0 8.718764044e-05 4.817923298e-06)
(0 8.471007421e-05 4.089898741e-06)
(0 8.222487451e-05 3.434295009e-06)
(0 7.972824496e-05 2.858736134e-06)
(0 7.723924333e-05 2.347975419e-06)
(0 7.476547903e-05 1.886765849e-06)
(0 7.229553101e-05 1.482731142e-06)
(0 6.986370366e-05 1.12443628e-06)
(0 6.745854947e-05 8.080694139e-07)
(0 6.50953276e-05 5.33630745e-07)
(0 6.276641433e-05 2.934969274e-07)
(0 6.04832333e-05 8.004461175e-08)
(0 5.824198417e-05 -9.910285265e-08)
(0 5.604266654e-05 -2.553804433e-07)
(0 5.390814019e-05 -3.925997624e-07)
(0 5.181935699e-05 -5.069492078e-07)
(0 4.977631655e-05 -6.022404484e-07)
(0 4.780187981e-05 -6.860966722e-07)
(0 4.586175089e-05 -7.547063394e-07)
(0 4.398642262e-05 -8.04257814e-07)
(0 4.216445215e-05 -8.499975439e-07)
(0 4.039965905e-05 -8.881140257e-07)
(0 3.868441969e-05 -9.109839694e-07)
(0 3.703016206e-05 -9.300421556e-07)
(0 3.542545817e-05 -9.338538038e-07)
(0 3.38741194e-05 -9.414771566e-07)
(0 3.237995128e-05 -9.37665452e-07)
(0 3.093152497e-05 -9.300421556e-07)
(0 2.953265186e-05 -9.186072662e-07)
(0 2.819094993e-05 -9.071722666e-07)
(0 2.68911779e-05 -8.843023775e-07)
(0 2.564477049e-05 -8.728674853e-07)
(0 2.444409977e-05 -8.53809192e-07)
(0 2.328917037e-05 -8.30939303e-07)
(0 2.217235879e-05 -8.118811108e-07)
(0 2.110509597e-05 -7.89011173e-07)
(0 2.008357425e-05 -7.699529321e-07)
(0 1.910017017e-05 -7.432714395e-07)
(0 1.815869192e-05 -7.204015058e-07)
(0 1.725533131e-05 -6.937199685e-07)
(0 1.63862765e-05 -6.670384713e-07)
(0 1.556295951e-05 -6.40356894e-07)
(0 1.476632504e-05 -6.098637086e-07)
(0 1.40078079e-05 -5.908055032e-07)
(0 1.328740555e-05 -5.641239305e-07)
(0 1.259368558e-05 -5.33630745e-07)
(0 1.192664787e-05 -5.14572535e-07)
(0 1.129391355e-05 -4.917026151e-07)
(0 1.069929644e-05 -4.650210778e-07)
(0 1.011992652e-05 -4.459628637e-07)
(0 9.582483521e-06 -4.230929478e-07)
(0 9.056476073e-06 -4.002230588e-07)
(0 8.560962323e-06 -3.773531923e-07)
(0 8.092129084e-06 -3.582949288e-07)
(0 7.63854295e-06 -3.392366879e-07)
(0 7.215450435e-06 -3.239901146e-07)
(0 6.807603647e-06 -3.087435025e-07)
(0 6.418815533e-06 -2.896852616e-07)
(0 6.060520968e-06 -2.744386853e-07)
(0 5.717472268e-06 -2.591920762e-07)
(0 5.393482173e-06 -2.439454834e-07)
(0 5.088550624e-06 -2.325105529e-07)
(0 4.795053409e-06 -2.172639462e-07)
(0 4.516803092e-06 -2.020173535e-07)
(0 4.253799623e-06 -1.905824204e-07)
(0 4.009853884e-06 -1.791474644e-07)
(0 3.777343345e-06 -1.677125199e-07)
(0 3.560079613e-06 -1.600892331e-07)
(0 3.361873694e-06 -1.48654279e-07)
(0 3.175102933e-06 -1.410309826e-07)
(0 2.992144e-06 -1.334076943e-07)
(0 2.832054597e-06 -1.295960381e-07)
(0 2.668153725e-06 -1.143494454e-07)
(0 2.530934543e-06 -1.067261554e-07)
(0 2.397526704e-06 -9.910285265e-08)
(0 2.267930666e-06 -9.529120447e-08)
(0 2.142146405e-06 -8.766791337e-08)
(0 2.043043424e-06 -7.623296358e-08)
(0 1.947752219e-06 -6.860966722e-08)
(0 1.856272774e-06 -6.479802293e-08)
(0 1.772416403e-06 -5.33630745e-08)
(0 1.71524168e-06 -4.573977815e-08)
(0 1.646632112e-06 -3.811648407e-08)
(0 1.593268939e-06 -3.430483361e-08)
(0 1.543717512e-06 -2.668153725e-08)
(0 1.501789473e-06 -2.668153885e-08)
(0 1.471296197e-06 -1.905824089e-08)
(0 1.44461466e-06 -1.143494454e-08)
(0 1.425556504e-06 -7.623296815e-09)
(0 1.421744771e-06 -3.811648179e-09)
(0 6.071955585e-06 7.47044931e-05)
(0 1.781183312e-05 7.387736988e-05)
(0 2.926583489e-05 7.227266155e-05)
(0 4.019383029e-05 6.997804933e-05)
(0 5.042048544e-05 6.709644732e-05)
(0 5.984287677e-05 6.375362782e-05)
(0 6.836572214e-05 6.00906339e-05)
(0 7.595852992e-05 5.620275611e-05)
(0 8.260985147e-05 5.223101531e-05)
(0 8.834638202e-05 4.824784294e-05)
(0 9.318336918e-05 4.433328289e-05)
(0 9.719321749e-05 4.055212522e-05)
(0 0.0001004102486 3.693105943e-05)
(0 0.0001029145076 3.35043897e-05)
(0 0.0001047707741 3.029879155e-05)
(0 0.0001060362413 2.731045936e-05)
(0 0.0001067604609 2.454320424e-05)
(0 0.0001070196466 2.199321012e-05)
(0 0.000106851934 1.965666978e-05)
(0 0.000106314498 1.751071289e-05)
(0 0.0001054530591 1.556677126e-05)
(0 0.000104305753 1.379054319e-05)
(0 0.0001029221309 1.218202838e-05)
(0 0.0001013174208 1.072597804e-05)
(0 9.954500443e-05 9.414771058e-06)
(0 9.7608693e-05 8.221725664e-06)
(0 9.555420877e-05 7.158275323e-06)
(0 9.338919259e-05 6.201551624e-06)
(0 9.114413727e-05 5.340119451e-06)
(0 8.883046134e-05 4.570166194e-06)
(0 8.64710511e-05 3.884069517e-06)
(0 8.406971778e-05 3.266582705e-06)
(0 8.165693942e-05 2.71389352e-06)
(0 7.922891952e-05 2.22600255e-06)
(0 7.678946928e-05 1.795286411e-06)
(0 7.436525641e-05 1.410309835e-06)
(0 7.194867145e-05 1.067261496e-06)
(0 6.955114891e-05 7.661413345e-07)
(0 6.71841112e-05 4.993259144e-07)
(0 6.485519415e-05 2.706270223e-07)
(0 6.256058569e-05 6.860967175e-08)
(0 6.030027455e-05 -1.067261496e-07)
(0 5.808951859e-05 -2.591920777e-07)
(0 5.591307082e-05 -3.925997883e-07)
(0 5.378997942e-05 -4.993259144e-07)
(0 5.172025445e-05 -5.946171195e-07)
(0 4.969627223e-05 -6.746617722e-07)
(0 4.772945878e-05 -7.394597511e-07)
(0 4.581219974e-05 -7.966344741e-07)
(0 4.394068311e-05 -8.347510062e-07)
(0 4.213014757e-05 -8.652441418e-07)
(0 4.03691661e-05 -8.919256792e-07)
(0 3.866917333e-05 -9.109839749e-07)
(0 3.701872733e-05 -9.224188648e-07)
(0 3.542164674e-05 -9.224188648e-07)
(0 3.38741196e-05 -9.262305686e-07)
(0 3.238757477e-05 -9.186072166e-07)
(0 3.09429601e-05 -9.07172272e-07)
(0 2.954789863e-05 -8.919257327e-07)
(0 2.820619669e-05 -8.804907346e-07)
(0 2.69102363e-05 -8.652441418e-07)
(0 2.565620558e-05 -8.423743031e-07)
(0 2.446696981e-05 -8.271276598e-07)
(0 2.33120404e-05 -8.080694188e-07)
(0 2.219522881e-05 -7.813879282e-07)
(0 2.112415433e-05 -7.623296403e-07)
(0 2.010644426e-05 -7.356481029e-07)
(0 1.912304018e-05 -7.127782565e-07)
(0 1.818537357e-05 -6.899083245e-07)
(0 1.728201295e-05 -6.632267871e-07)
(0 1.640914649e-05 -6.327336394e-07)
(0 1.559345279e-05 -6.098637123e-07)
(0 1.478919502e-05 -5.869938231e-07)
(0 1.403067787e-05 -5.603123193e-07)
(0 1.331408717e-05 -5.374423964e-07)
(0 1.261655555e-05 -5.183841554e-07)
(0 1.195332948e-05 -4.917026475e-07)
(0 1.131678351e-05 -4.72644377e-07)
(0 1.071835474e-05 -4.497744878e-07)
(0 1.014660812e-05 -4.269046242e-07)
(0 9.605353468e-06 -4.002230612e-07)
(0 9.079346016e-06 -3.811648202e-07)
(0 8.580020617e-06 -3.54483304e-07)
(0 8.111187373e-06 -3.430483381e-07)
(0 7.653789589e-06 -3.201784489e-07)
(0 7.226885424e-06 -3.087435229e-07)
(0 6.822850281e-06 -2.934969115e-07)
(0 6.437873813e-06 -2.782503187e-07)
(0 6.07195595e-06 -2.591920933e-07)
(0 5.732718895e-06 -2.439454849e-07)
(0 5.408728798e-06 -2.286988921e-07)
(0 5.103797248e-06 -2.172639605e-07)
(0 4.806488382e-06 -2.058290029e-07)
(0 4.528238064e-06 -1.943940583e-07)
(0 4.269046242e-06 -1.829591247e-07)
(0 4.021288853e-06 -1.677125209e-07)
(0 3.788778312e-06 -1.562775763e-07)
(0 3.571514579e-06 -1.448426404e-07)
(0 3.373308658e-06 -1.372193353e-07)
(0 3.182726248e-06 -1.295960389e-07)
(0 2.995955666e-06 -1.181611013e-07)
(0 2.832054614e-06 -1.14349446e-07)
(0 2.683400334e-06 -1.105377978e-07)
(0 2.534746206e-06 -1.029145076e-07)
(0 2.401338367e-06 -9.529120504e-08)
(0 2.279365625e-06 -9.147955684e-08)
(0 2.153581363e-06 -7.623296861e-08)
(0 2.050666732e-06 -6.860966763e-08)
(0 1.955375527e-06 -6.479801943e-08)
(0 1.860084434e-06 -5.717472646e-08)
(0 1.783851358e-06 -4.573977842e-08)
(0 1.719053339e-06 -3.811648202e-08)
(0 1.65044377e-06 -3.81164843e-08)
(0 1.600892245e-06 -3.049318561e-08)
(0 1.54752917e-06 -2.668153741e-08)
(0 1.50560113e-06 -2.286989058e-08)
(0 1.475107854e-06 -1.524659281e-08)
(0 1.452237965e-06 -1.14349446e-08)
(0 1.429368161e-06 -7.623296861e-09)
(0 1.429368076e-06 -3.811648202e-09)
(0 5.717472268e-06 5.774265826e-05)
(0 1.677125299e-05 5.713660963e-05)
(0 2.759252117e-05 5.595499526e-05)
(0 3.796020421e-05 5.425500018e-05)
(0 4.773327301e-05 5.210904538e-05)
(0 5.679736951e-05 4.96124127e-05)
(0 6.508389265e-05 4.684515612e-05)
(0 7.25204226e-05 4.39140013e-05)
(0 7.912600454e-05 4.088755001e-05)
(0 8.48663467e-05 3.784204312e-05)
(0 8.979100154e-05 3.48270315e-05)
(0 9.391138783e-05 3.189968361e-05)
(0 9.728850812e-05 2.90904989e-05)
(0 9.996429113e-05 2.641853511e-05)
(0 0.0001020111402 2.390665738e-05)
(0 0.0001034595665 2.155487045e-05)
(0 0.00010437818 1.936317391e-05)
(0 0.0001048279482 1.734299921e-05)
(0 0.0001048431948 1.549434985e-05)
(0 0.0001044734712 1.379816724e-05)
(0 0.0001037759333 1.22392023e-05)
(0 0.0001027849048 1.082508083e-05)
(0 0.0001015385019 9.536744316e-06)
(0 0.0001000710113 8.366567752e-06)
(0 9.840913268e-05 7.314552855e-06)
(0 9.659098229e-05 6.365452841e-06)
(0 9.463941263e-05 5.50401997e-06)
(0 9.257349932e-05 4.734067038e-06)
(0 9.040467693e-05 4.040347312e-06)
(0 8.817485732e-05 3.422860065e-06)
(0 8.588024512e-05 2.870171079e-06)
(0 8.35437098e-05 2.370845309e-06)
(0 8.118810621e-05 1.936317275e-06)
(0 7.880963774e-05 1.539905864e-06)
(0 7.641973892e-05 1.1968576e-06)
(0 7.403745422e-05 8.843023775e-07)
(0 7.165136246e-05 6.098637086e-07)
(0 6.92919564e-05 3.659182471e-07)
(0 6.696684685e-05 1.524659272e-07)
(0 6.46607997e-05 -3.049318543e-08)
(0 6.238524949e-05 -1.905824204e-07)
(0 6.015543156e-05 -3.278017434e-07)
(0 5.795992221e-05 -4.535861333e-07)
(0 5.580253269e-05 -5.526890191e-07)
(0 5.369849954e-05 -6.441685422e-07)
(0 5.164402117e-05 -7.127782094e-07)
(0 4.963909721e-05 -7.699529783e-07)
(0 4.767609542e-05 -8.195043584e-07)
(0 4.576645968e-05 -8.53809192e-07)
(0 4.39140013e-05 -8.881140789e-07)
(0 4.211108908e-05 -9.071722666e-07)
(0 4.035391927e-05 -9.186072111e-07)
(0 3.865773815e-05 -9.26230563e-07)
(0 3.701872711e-05 -9.262305074e-07)
(0 3.542164653e-05 -9.262305074e-07)
(0 3.387793105e-05 -9.186072662e-07)
(0 3.239519787e-05 -9.109839147e-07)
(0 3.095820651e-05 -8.995489702e-07)
(0 2.95593334e-05 -8.881140789e-07)
(0 2.822144312e-05 -8.728674329e-07)
(0 2.692929438e-05 -8.53809192e-07)
(0 2.567907532e-05 -8.347510012e-07)
(0 2.44860279e-05 -8.080694139e-07)
(0 2.332728685e-05 -7.851995248e-07)
(0 2.222191022e-05 -7.661413299e-07)
(0 2.11470241e-05 -7.394597467e-07)
(0 2.012931403e-05 -7.165898576e-07)
(0 1.915353325e-05 -6.937200102e-07)
(0 1.820824335e-05 -6.670384313e-07)
(0 1.730488273e-05 -6.40356894e-07)
(0 1.643963958e-05 -6.17487042e-07)
(0 1.561251094e-05 -5.946171159e-07)
(0 1.481206482e-05 -5.641239305e-07)
(0 1.405735933e-05 -5.450657223e-07)
(0 1.333314533e-05 -5.221958005e-07)
(0 1.264323701e-05 -4.993259114e-07)
(0 1.197238765e-05 -4.764560509e-07)
(0 1.133965333e-05 -4.535861333e-07)
(0 1.074122457e-05 -4.26904596e-07)
(0 1.01656663e-05 -4.078463796e-07)
(0 9.624411651e-06 -3.849764661e-07)
(0 9.106027499e-06 -3.62106577e-07)
(0 8.602890456e-06 -3.506716535e-07)
(0 8.126433917e-06 -3.278017434e-07)
(0 7.672847784e-06 -3.163667988e-07)