/*--------------------------------*- C++ -*----------------------------------*\
  =========                 |
  \\      /  F ield         | OpenFOAM: The Open Source CFD Toolbox
   \\    /   O peration     | Website:  https://openfoam.org
    \\  /    A nd           | Version:  6
     \\/     M anipulation  |
\*---------------------------------------------------------------------------*/
FoamFile
{
    version     2.0;
    format      ascii;
    class       volVectorField;
    location    "0.0024";
    object      gradT;
}
// * * * * * * * * * * * * * * * * * * * * * * * * * * * * * * * * * * * * * //

dimensions      [0 -1 0 1 0 0 0];

internalField   nonuniform List<vector> 
3600
(
(0 -3.906939448e-08 -1.085271546e-05)
(0 -1.172081836e-07 -1.100804014e-05)
(0 -1.972527965e-07 -1.132154819e-05)
(0 -2.772974096e-07 -1.179323966e-05)
(0 -3.563891111e-07 -1.242883202e-05)
(0 -4.431041081e-07 -1.322737231e-05)
(0 -5.279132815e-07 -1.419648388e-05)
(0 -6.127224558e-07 -1.533902546e-05)
(0 -6.975316282e-07 -1.665309117e-05)
(0 -7.794820654e-07 -1.813582233e-05)
(0 -8.538092074e-07 -1.977864276e-05)
(0 -9.195601383e-07 -2.156916449e-05)
(0 -9.643470051e-07 -2.347308278e-05)
(0 -9.843581594e-07 -2.54551399e-05)
(-1.239779192e-25 -9.748290382e-07 -2.745434939e-05)
(1.239779192e-25 -9.205130508e-07 -2.939638417e-05)
(0 -8.156927246e-07 -3.118690595e-05)
(0 -6.613209699e-07 -3.271823559e-05)
(0 -4.583507011e-07 -3.388459996e-05)
(0 -2.134523019e-07 -3.45868962e-05)
(0 4.764560302e-08 -3.476699652e-05)
(0 3.230371885e-07 -3.440393703e-05)
(0 6.117695437e-07 -3.348437694e-05)
(0 9.252776107e-07 -3.197877584e-05)
(0 1.274996337e-06 -2.981471255e-05)
(0 1.658066988e-06 -2.690737789e-05)
(0 2.055431314e-06 -2.318530334e-05)
(0 2.430878666e-06 -1.865039485e-05)
(0 2.741528002e-06 -1.338650864e-05)
(0 1.437944299e-06 -7.571839232e-06)
(0 5.050433897e-08 -7.570886286e-06)
(0 1.438897226e-07 -7.36410448e-06)
(0 2.229814211e-07 -6.974363339e-06)
(0 2.782503204e-07 -6.448355884e-06)
(0 3.11602247e-07 -5.833727695e-06)
(0 3.239900991e-07 -5.176218289e-06)
(0 3.182726267e-07 -4.516803146e-06)
(0 3.001673022e-07 -3.885975423e-06)
(0 2.782503204e-07 -3.298981538e-06)
(0 2.487100467e-07 -2.768209523e-06)
(0 2.172639521e-07 -2.299376826e-06)
(0 1.877236751e-07 -1.893436256e-06)
(0 1.610421375e-07 -1.544670443e-06)
(0 1.35313514e-07 -1.250220636e-06)
(0 1.124436226e-07 -1.004369307e-06)
(0 9.243246944e-08 -7.994932151e-07)
(0 7.623296563e-08 -6.317807027e-07)
(0 6.098637159e-08 -4.955142692e-07)
(0 4.859851486e-08 -3.868822948e-07)
(0 4.002230696e-08 -2.992143901e-07)
(0 3.04931858e-08 -2.306047176e-07)
(0 2.572862552e-08 -1.753358183e-07)
(0 1.810532934e-08 -1.315018657e-07)
(0 1.52465929e-08 -9.910285384e-08)
(0 1.048203262e-08 -7.337422832e-08)
(0 8.576208634e-09 -5.526890008e-08)
(0 7.623296449e-09 -3.811648225e-08)
(0 7.623296449e-09 -2.38228014e-08)
(0 5.717472423e-09 -1.429368106e-08)
(0 2.858736168e-09 -3.811648225e-09)
(0 -1.162552731e-07 -1.079077633e-05)
(0 -3.50671644e-07 -1.094514811e-05)
(0 -5.888996622e-07 -1.125770325e-05)
(0 -8.309393292e-07 -1.17274889e-05)
(0 -1.074884822e-06 -1.236022254e-05)
(0 -1.32740652e-06 -1.316257449e-05)
(0 -1.58469278e-06 -1.413263898e-05)
(0 -1.841979043e-06 -1.52770864e-05)
(0 -2.098312389e-06 -1.659877543e-05)
(0 -2.348928264e-06 -1.809675321e-05)
(0 -2.577627166e-06 -1.976530228e-05)
(0 -2.774879962e-06 -2.158631723e-05)
(0 -2.923534245e-06 -2.354073989e-05)
(0 -2.995002654e-06 -2.558759506e-05)
(0 -2.969274026e-06 -2.767351957e-05)
(0 -2.812043534e-06 -2.971751598e-05)
(0 -2.504252935e-06 -3.162048141e-05)
(0 -2.035420192e-06 -3.326711344e-05)
(0 -1.411262783e-06 -3.453162776e-05)
(0 -6.679913654e-07 -3.530062786e-05)
(0 1.353135146e-07 -3.550264517e-05)
(0 9.586295472e-07 -3.514625605e-05)
(0 1.813391681e-06 -3.425528331e-05)
(0 2.745339687e-06 -3.280780982e-05)
(0 3.796401706e-06 -3.072188529e-05)
(0 4.970389389e-06 -2.786600784e-05)
(0 6.202504694e-06 -2.412296917e-05)
(0 7.36696325e-06 -1.94765699e-05)
(0 8.337027754e-06 -1.401543082e-05)
(0 4.378630983e-06 -7.929181374e-06)
(0 1.572304916e-07 -7.928228426e-06)
(0 4.49774504e-07 -7.694765084e-06)
(0 6.946728993e-07 -7.260237065e-06)
(0 8.623854237e-07 -6.676101965e-06)
(0 9.605353814e-07 -6.005251958e-06)
(0 9.919814653e-07 -5.301049848e-06)
(0 9.73876136e-07 -4.6025653e-06)
(0 9.167014255e-07 -3.939338558e-06)
(0 8.404684461e-07 -3.331380598e-06)
(0 7.508947115e-07 -2.787267806e-06)
(0 6.575093385e-07 -2.308905981e-06)
(0 5.669826819e-07 -1.89629502e-06)
(0 4.812205956e-07 -1.545623378e-06)
(0 4.04987636e-07 -1.248314831e-06)
(0 3.392366971e-07 -1.000557674e-06)
(0 2.792032366e-07 -7.975874029e-07)
(0 2.267930762e-07 -6.317807122e-07)
(0 1.839120296e-07 -4.955142766e-07)
(0 1.48654283e-07 -3.849764765e-07)
(0 1.172081864e-07 -2.973085704e-07)
(0 9.33853829e-08 -2.277459848e-07)
(0 7.337422942e-08 -1.734299968e-07)
(0 5.6221813e-08 -1.324547798e-07)
(0 4.383395524e-08 -9.910285532e-08)
(0 3.335192246e-08 -7.337422942e-08)
(0 2.668153837e-08 -5.241016466e-08)
(0 2.286988969e-08 -3.716357075e-08)
(0 1.810532934e-08 -2.382280176e-08)
(0 1.429368127e-08 -1.334076919e-08)
(0 1.429368106e-08 -3.811648282e-09)
(0 -1.943940603e-07 -1.066785052e-05)
(0 -5.841350939e-07 -1.082412811e-05)
(0 -9.77687774e-07 -1.113191869e-05)
(0 -1.3826754e-06 -1.160075142e-05)
(0 -1.792427588e-06 -1.223253214e-05)
(0 -2.213614716e-06 -1.30291666e-05)
(0 -2.642425144e-06 -1.400208982e-05)
(0 -3.079811784e-06 -1.515320761e-05)
(0 -3.517198415e-06 -1.648919029e-05)
(0 -3.944103018e-06 -1.801099085e-05)
(0 -4.343373178e-06 -1.972146803e-05)
(0 -4.694997722e-06 -2.161013971e-05)
(0 -4.967530571e-06 -2.366080646e-05)
(0 -5.11713777e-06 -2.583821055e-05)
(-1.239779192e-25 -5.102844086e-06 -2.809280047e-05)
(1.239779192e-25 -4.868427719e-06 -3.034548458e-05)
(0 -4.365290153e-06 -3.248763091e-05)
(0 -3.571514402e-06 -3.438011423e-05)
(0 -2.491865038e-06 -3.586189248e-05)
(0 -1.185422605e-06 -3.677478229e-05)
(0 2.010644447e-07 -3.699109327e-05)
(0 1.571351988e-06 -3.662041048e-05)
(0 2.951168656e-06 -3.576946007e-05)
(0 4.458675531e-06 -3.445634719e-05)
(0 6.21584537e-06 -3.256672258e-05)
(0 8.256983016e-06 -2.986426402e-05)
(0 1.044677492e-05 -2.609168513e-05)
(0 1.253746398e-05 -2.122706906e-05)
(0 1.428796346e-05 -1.534379002e-05)
(0 7.524193629e-06 -8.67626431e-06)
(0 2.858736168e-07 -8.675311359e-06)
(0 8.137869081e-07 -8.377050011e-06)
(0 1.240691497e-06 -7.83674875e-06)
(0 1.532282586e-06 -7.133499652e-06)
(0 1.687607277e-06 -6.345441477e-06)
(0 1.726676646e-06 -5.541183606e-06)
(0 1.679031043e-06 -4.765513193e-06)
(0 1.571352004e-06 -4.045111739e-06)
(0 1.430320996e-06 -3.39713148e-06)
(0 1.270231771e-06 -2.826337158e-06)
(0 1.108236738e-06 -2.330822924e-06)
(0 9.519591441e-07 -1.906777024e-06)
(0 8.099752477e-07 -1.546576267e-06)
(0 6.775204821e-07 -1.2473619e-06)
(0 5.641239372e-07 -9.996047469e-07)
(0 4.640681713e-07 -7.947286548e-07)
(0 3.78306092e-07 -6.260632303e-07)
(0 3.068376821e-07 -4.907497089e-07)
(0 2.468042225e-07 -3.830706466e-07)
(0 1.953469744e-07 -2.963556539e-07)
(0 1.543717531e-07 -2.267930694e-07)
(0 1.219727432e-07 -1.734299942e-07)
(0 9.433829497e-08 -1.315018657e-07)
(0 7.337422832e-08 -9.719702973e-08)
(0 5.717472337e-08 -7.146840421e-08)
(0 4.383395524e-08 -5.14572518e-08)
(0 3.716357019e-08 -3.621065813e-08)
(0 3.04931858e-08 -2.477571346e-08)
(0 2.477571383e-08 -1.334076899e-08)
(0 2.191697729e-08 -4.764560281e-09)
(0 -2.715799372e-07 -1.048584431e-05)
(0 -8.147398129e-07 -1.063735735e-05)
(0 -1.367428807e-06 -1.094419501e-05)
(0 -1.92869401e-06 -1.140826319e-05)
(0 -2.505205811e-06 -1.203146769e-05)
(0 -3.096964196e-06 -1.282619633e-05)
(0 -3.707780827e-06 -1.379721372e-05)
(0 -4.328126585e-06 -1.495309607e-05)
(0 -4.958954362e-06 -1.630432535e-05)
(0 -5.581205938e-06 -1.786328948e-05)
(0 -6.175823073e-06 -1.962998847e-05)
(0 -6.714218378e-06 -2.160918679e-05)
(0 -7.148746277e-06 -2.379230832e-05)
(0 -7.428902431e-06 -2.616124773e-05)
(1.239779192e-25 -7.476548029e-06 -2.867407682e-05)
(-1.239779192e-25 -7.207826828e-06 -3.125456268e-05)
(0 -6.538882565e-06 -3.378454423e-05)
(0 -5.409681767e-06 -3.609154429e-05)
(0 -3.806883681e-06 -3.796020484e-05)
(0 -1.795286325e-06 -3.913895712e-05)
(0 2.896852664e-07 -3.926569436e-05)
(0 2.182168618e-06 -3.876636844e-05)
(0 3.976502034e-06 -3.793352336e-05)
(0 5.946171257e-06 -3.686721471e-05)
(0 8.38943778e-06 -3.539591848e-05)
(0 1.144542677e-05 -3.30860597e-05)
(0 1.483779369e-05 -2.929156383e-05)
(0 1.811676409e-05 -2.410391057e-05)
(0 2.08878324e-05 -1.753739359e-05)
(0 1.104806243e-05 -9.875980594e-06)
(0 4.554919628e-07 -9.875027638e-06)
(0 1.288337119e-06 -9.458605211e-06)
(0 1.936317298e-06 -8.72676861e-06)
(0 2.356551515e-06 -7.812925948e-06)
(0 2.550945613e-06 -6.835238281e-06)
(0 2.572862552e-06 -5.87660865e-06)
(0 2.469948049e-06 -4.984682966e-06)
(0 2.285083145e-06 -4.182331077e-06)
(0 2.060195865e-06 -3.478129005e-06)
(0 1.817203291e-06 -2.869218201e-06)
(0 1.577069477e-06 -2.35178699e-06)
(0 1.349323471e-06 -1.910588673e-06)
(0 1.141588643e-06 -1.545623355e-06)
(0 9.538649825e-07 -1.24259734e-06)
(0 7.909170066e-07 -9.919814504e-07)
(0 6.517918464e-07 -7.861524463e-07)
(0 5.288661991e-07 -6.203457578e-07)
(0 4.278575132e-07 -4.850322366e-07)
(0 3.430483402e-07 -3.773531742e-07)
(0 2.725328521e-07 -2.925440056e-07)
(0 2.163110367e-07 -2.248872452e-07)
(0 1.69618346e-07 -1.715241701e-07)
(0 1.324547778e-07 -1.286431295e-07)
(0 1.029145021e-07 -9.529120561e-08)
(0 8.004461272e-08 -6.95625801e-08)
(0 6.193928458e-08 -5.050433973e-08)
(0 4.955142692e-08 -3.621065813e-08)
(0 4.192813047e-08 -2.286988935e-08)
(0 3.525774661e-08 -1.429368106e-08)
(0 3.04931858e-08 -5.717472337e-09)
(0 -3.44954171e-07 -1.024285189e-05)
(0 -1.042485811e-06 -1.039150619e-05)
(0 -1.747640745e-06 -1.068976765e-05)
(0 -2.468995186e-06 -1.11433538e-05)
(0 -3.211313697e-06 -1.175988793e-05)
(0 -3.978407912e-06 -1.254413455e-05)
(0 -4.770277846e-06 -1.350848157e-05)
(0 -5.587876415e-06 -1.466626976e-05)
(0 -6.426439032e-06 -1.603179274e-05)
(0 -7.267860394e-06 -1.762029717e-05)
(0 -8.090223526e-06 -1.944798256e-05)
(0 -8.859223559e-06 -2.153295415e-05)
(0 -9.519591626e-06 -2.388188242e-05)
(0 -9.99890641e-06 -2.649476735e-05)
(0 -1.019425338e-05 -2.934588027e-05)
(0 -9.976989427e-06 -3.237995231e-05)
(0 -9.204177739e-06 -3.54788224e-05)
(0 -7.748128079e-06 -3.843475562e-05)
(0 -5.538324978e-06 -4.09428202e-05)
(0 -2.491865079e-06 -4.276192942e-05)
(0 5.73653069e-07 -4.236932958e-05)
(0 2.90257018e-06 -4.145358107e-05)
(0 4.849369555e-06 -4.053592681e-05)
(0 6.997233365e-06 -3.987555868e-05)
(0 9.997953488e-06 -3.924282506e-05)
(0 1.436229081e-05 -3.795829964e-05)
(0 1.942701847e-05 -3.402849019e-05)
(0 2.429163461e-05 -2.847777735e-05)
(0 2.851589388e-05 -2.09107026e-05)
(0 1.518655973e-05 -1.165792632e-05)
(0 7.0420202e-07 -1.165697336e-05)
(0 1.962045982e-06 -1.101756952e-05)
(0 2.886370661e-06 -9.952213664e-06)
(0 3.423813069e-06 -8.702945939e-06)
(0 3.623924658e-06 -7.443196294e-06)
(0 3.576279e-06 -6.271114335e-06)
(0 3.373308729e-06 -5.22862853e-06)
(0 3.077906034e-06 -4.326220865e-06)
(0 2.742480939e-06 -3.555314935e-06)
(0 2.398479681e-06 -2.906381815e-06)
(0 2.0659134e-06 -2.36322197e-06)
(0 1.759075682e-06 -1.911541613e-06)
(0 1.477013709e-06 -1.538000082e-06)
(0 1.232115326e-06 -1.231162413e-06)
(0 1.019615915e-06 -9.795936084e-07)
(0 8.366567978e-07 -7.747175133e-07)
(0 6.803792285e-07 -6.089108221e-07)
(0 5.479244405e-07 -4.774089473e-07)
(0 4.392924645e-07 -3.697298833e-07)
(0 3.497187351e-07 -2.858736254e-07)
(0 2.753915884e-07 -2.191697762e-07)
(0 2.182168641e-07 -1.658067003e-07)
(0 1.696183511e-07 -1.23878571e-07)
(0 1.315018657e-07 -9.243247083e-08)
(0 1.029145036e-07 -6.860966907e-08)
(0 7.813879095e-08 -4.859851632e-08)
(0 6.289219665e-08 -3.335192246e-08)
(0 5.14572518e-08 -2.382280176e-08)
(0 4.38339559e-08 -1.429368127e-08)
(0 4.097521903e-08 -4.764560352e-09)
(0 -4.192813066e-07 -9.93887279e-06)
(0 -1.262608482e-06 -1.008276253e-05)
(0 -2.120229334e-06 -1.037340069e-05)
(0 -2.998814254e-06 -1.081555189e-05)
(0 -3.904080717e-06 -1.141493359e-05)
(0 -4.846510739e-06 -1.21839336e-05)
(0 -5.828963074e-06 -1.313017528e-05)
(0 -6.851437725e-06 -1.427938725e-05)
(0 -7.912028838e-06 -1.56439573e-05)
(0 -8.999301499e-06 -1.725342577e-05)
(0 -1.008848e-05 -1.913542711e-05)
(0 -1.114716528e-05 -2.132236026e-05)
(0 -1.211151229e-05 -2.384662431e-05)
(0 -1.289194728e-05 -2.673394788e-05)
(0 -1.336268583e-05 -2.999481294e-05)
(0 -1.334172176e-05 -3.361397295e-05)
(0 -1.25936858e-05 -3.750471291e-05)
(0 -1.087272661e-05 -4.141832271e-05)
(0 -8.134057348e-06 -4.482021876e-05)
(0 -3.223701505e-06 -4.881482619e-05)
(0 1.599939349e-06 -4.622004658e-05)
(0 4.014618511e-06 -4.435996224e-05)
(0 5.555477321e-06 -4.309830673e-05)
(0 7.240225835e-06 -4.306400183e-05)
(0 1.030383811e-05 -4.394544549e-05)
(0 1.665976158e-05 -4.567307512e-05)
(0 2.432022161e-05 -4.055117273e-05)
(0 3.123550443e-05 -3.500522454e-05)
(0 3.770673029e-05 -2.606500363e-05)
(0 2.030179145e-05 -1.425651734e-05)
(0 1.095848865e-06 -1.425365854e-05)
(0 2.992143901e-06 -1.31759152e-05)
(0 4.252846507e-06 -1.152737714e-05)
(0 4.863663134e-06 -9.757819455e-06)
(0 4.982777216e-06 -8.108328807e-06)
(0 4.788383082e-06 -6.667525657e-06)
(0 4.414841556e-06 -5.451609873e-06)
(0 3.958396741e-06 -4.439617336e-06)
(0 3.480034829e-06 -3.60581922e-06)
(0 3.009296273e-06 -2.920675452e-06)
(0 2.571909678e-06 -2.35655155e-06)
(0 2.175498224e-06 -1.897247904e-06)
(0 1.821014939e-06 -1.520847642e-06)
(0 1.512271456e-06 -1.211151242e-06)
(0 1.247361881e-06 -9.614882646e-07)
(0 1.020568812e-06 -7.604238208e-07)
(0 8.271276771e-07 -5.984287802e-07)
(0 6.679913513e-07 -4.659739954e-07)
(0 5.345836635e-07 -3.621065813e-07)
(0 4.249987834e-07 -2.782503246e-07)
(0 3.344721317e-07 -2.115464765e-07)
(0 2.639566395e-07 -1.610421375e-07)
(0 2.058290072e-07 -1.21972745e-07)
(0 1.600892254e-07 -9.147955739e-08)
(0 1.229256552e-07 -6.575093187e-08)
(0 9.719703118e-08 -4.859851559e-08)
(0 7.528005243e-08 -3.335192196e-08)
(0 6.098637159e-08 -2.286988935e-08)
(0 5.241016387e-08 -1.334076899e-08)
(0 5.145725103e-08 -4.764560281e-09)
(0 -4.907497111e-07 -9.577719119e-06)
(0 -1.476060784e-06 -9.715891383e-06)
(0 -2.480430093e-06 -9.995094602e-06)
(0 -3.510528031e-06 -1.041723464e-05)
(0 -4.578742457e-06 -1.099374646e-05)
(0 -5.694602473e-06 -1.17332062e-05)
(0 -6.865731395e-06 -1.265371925e-05)
(0 -8.10165835e-06 -1.377148512e-05)
(0 -9.401430388e-06 -1.511890275e-05)
(0 -1.075837716e-05 -1.672551248e-05)
(0 -1.215915791e-05 -1.863705411e-05)
(0 -1.357042065e-05 -2.090117313e-05)
(0 -1.493213199e-05 -2.358362058e-05)
(0 -1.614709488e-05 -2.674252409e-05)
(0 -1.707523122e-05 -3.044554034e-05)
(0 -1.748593632e-05 -3.474984412e-05)
(0 -1.70094803e-05 -3.969355192e-05)
(0 -1.506268094e-05 -4.511848024e-05)
(0 -1.293482831e-05 -4.831835894e-05)
(0 -3.890739949e-06 -6.169152688e-05)
(0 5.028516943e-06 -4.956762665e-05)
(0 6.024310046e-06 -4.689756705e-05)
(0 6.146282799e-06 -4.465917669e-05)
(0 6.149141526e-06 -4.555967852e-05)
(0 7.390785941e-06 -4.802772076e-05)
(0 1.775561045e-05 -6.044702373e-05)
(0 3.009391578e-05 -4.769038989e-05)
(0 3.877970921e-05 -4.507845793e-05)
(0 4.926364777e-05 -3.419620225e-05)
(0 2.699695158e-05 -1.812057574e-05)
(0 1.784804281e-06 -1.811866984e-05)
(0 4.688327386e-06 -1.608420284e-05)
(0 6.303513251e-06 -1.340175516e-05)
(0 6.844767299e-06 -1.085557414e-05)
(0 6.714218448e-06 -8.705804675e-06)
(0 6.233950671e-06 -6.969598779e-06)
(0 5.601217066e-06 -5.583111737e-06)
(0 4.922743756e-06 -4.482498379e-06)
(0 4.261422715e-06 -3.602007572e-06)
(0 3.645841527e-06 -2.893993914e-06)
(0 3.089340932e-06 -2.322246716e-06)
(0 2.594779529e-06 -1.859131422e-06)
(0 2.164063279e-06 -1.482731159e-06)
(0 1.79052178e-06 -1.181610967e-06)
(0 1.472249127e-06 -9.33853815e-07)
(0 1.200669191e-06 -7.366010194e-07)
(0 9.729232239e-07 -5.765118026e-07)
(0 7.851995343e-07 -4.507274026e-07)
(0 6.270161329e-07 -3.478129005e-07)
(0 4.983730128e-07 -2.687212039e-07)
(0 3.935526792e-07 -2.048760921e-07)
(0 3.068376821e-07 -1.553246651e-07)
(0 2.401338417e-07 -1.181610967e-07)
(0 1.877236751e-07 -8.766790916e-08)
(0 1.448426325e-07 -6.479801982e-08)
(0 1.124436243e-07 -4.669269145e-08)
(0 8.957373328e-08 -3.239900991e-08)
(0 7.146840421e-08 -2.001115318e-08)
(0 6.003346044e-08 -1.048203277e-08)
(0 5.908054748e-08 -2.858736168e-09)
(0 -5.574535637e-07 -9.16320251e-06)
(0 -1.67998399e-06 -9.293751479e-06)
(0 -2.821572653e-06 -9.553896461e-06)
(0 -3.998419065e-06 -9.952213708e-06)
(0 -5.221005265e-06 -1.049537361e-05)
(0 -6.506483646e-06 -1.119481105e-05)
(0 -7.867242089e-06 -1.206767851e-05)
(0 -9.316621368e-06 -1.313684588e-05)
(0 -1.086510348e-05 -1.44337592e-05)
(0 -1.251745301e-05 -1.600034665e-05)
(0 -1.426414087e-05 -1.789378297e-05)
(0 -1.609373203e-05 -2.01874423e-05)
(0 -1.795191058e-05 -2.296899265e-05)
(0 -1.975482024e-05 -2.634801889e-05)
(0 -2.136905329e-05 -3.044458789e-05)
(0 -2.258878074e-05 -3.541402436e-05)
(0 -2.296232229e-05 -4.15860359e-05)
(0 -1.949943978e-05 -5.124856429e-05)
(0 -2.470519845e-05 -4.186523909e-05)
(0 -4.472969285e-06 -3.536161423e-05)
(0 1.63910406e-05 -2.541892959e-05)
(0 8.924974492e-06 -2.399623187e-05)
(0 6.892413047e-06 -2.251731236e-05)
(0 3.87168176e-06 -2.324724297e-05)
(0 -4.583507079e-06 -2.479667801e-05)
(0 1.699804561e-05 -3.522630072e-05)
(0 3.968878791e-05 -4.489454658e-05)
(0 4.472778696e-05 -6.360688099e-05)
(0 6.466461349e-05 -4.76608504e-05)
(0 3.638027719e-05 -2.423064824e-05)
(0 3.1341278e-06 -2.422778939e-05)
(0 7.708105853e-06 -1.984344125e-05)
(0 9.481475101e-06 -1.532473192e-05)
(0 9.559613891e-06 -1.172653594e-05)
(0 8.869705685e-06 -9.042182772e-06)
(0 7.909170185e-06 -7.051549321e-06)
(0 6.901942126e-06 -5.556430283e-06)
(0 5.941406848e-06 -4.410077128e-06)
(0 5.067586391e-06 -3.518151364e-06)
(0 4.290963053e-06 -2.811090608e-06)
(0 3.605819329e-06 -2.246966696e-06)
(0 3.013107967e-06 -1.794333429e-06)
(0 2.499488361e-06 -1.429368106e-06)
(0 2.062101751e-06 -1.134918293e-06)
(0 1.690466013e-06 -8.966902583e-07)
(0 1.377910854e-06 -7.061078442e-07)
(0 1.113954227e-06 -5.536419212e-07)
(0 8.966902583e-07 -4.307162558e-07)
(0 7.16589877e-07 -3.335192246e-07)
(0 5.679356025e-07 -2.563333508e-07)
(0 4.478686731e-07 -1.972527986e-07)
(0 3.51624554e-07 -1.496071951e-07)
(0 2.734857683e-07 -1.095848897e-07)
(0 2.124993917e-07 -8.290335013e-08)
(0 1.658067003e-07 -6.193928458e-08)
(0 1.276902194e-07 -4.38339559e-08)
(0 1.010086795e-07 -3.144609832e-08)
(0 8.195043806e-08 -2.001115348e-08)
(0 7.051549427e-08 -1.048203293e-08)
(0 6.575093286e-08 -3.811648282e-09)
(0 -6.203457513e-07 -8.702945848e-06)
(0 -1.866754729e-06 -8.821106957e-06)
(0 -3.139845239e-06 -9.062193695e-06)
(0 -4.451052234e-06 -9.427159014e-06)
(0 -5.820386874e-06 -9.926484948e-06)
(0 -7.266907373e-06 -1.057065349e-05)
(0 -8.808719087e-06 -1.137777e-05)
(0 -1.0467739e-05 -1.236879856e-05)
(0 -1.226397822e-05 -1.357709104e-05)
(0 -1.422030668e-05 -1.505219891e-05)
(0 -1.63453006e-05 -1.686082602e-05)
(0 -1.864563029e-05 -1.909635769e-05)
(0 -2.109175555e-05 -2.188171964e-05)
(0 -2.362269e-05 -2.53684249e-05)
(0 -2.614218948e-05 -2.971846844e-05)
(0 -2.862833704e-05 -3.504143521e-05)
(0 -3.28421142e-05 -4.017953707e-05)
(0 -1.534188417e-05 -2.767256623e-05)
(0 2.951168651e-06 -1.741923246e-05)
(0 1.255461641e-05 8.843976846e-06)
(0 1.639771074e-05 5.264839134e-06)
(0 8.923068534e-06 6.629409204e-06)
(0 6.894318767e-06 6.116742525e-06)
(0 3.870728789e-06 6.356876355e-06)
(0 -4.589224483e-06 5.48972638e-06)
(0 -2.342257848e-06 9.749243305e-06)
(0 1.715241709e-06 -1.542574043e-05)
(0 3.60134055e-05 -3.799546259e-05)
(0 8.863987999e-05 -6.878595718e-05)
(0 5.043001206e-05 -3.496901388e-05)
(0 6.170105563e-06 -3.496043752e-05)
(0 1.359138486e-05 -2.396859731e-05)
(0 1.442232397e-05 -1.653016544e-05)
(0 1.312636357e-05 -1.186089636e-05)
(0 1.138825215e-05 -8.843024014e-06)
(0 9.720655885e-06 -6.780922191e-06)
(0 8.242689286e-06 -5.301049768e-06)
(0 6.960069762e-06 -4.193766022e-06)
(0 5.861362057e-06 -3.338050933e-06)
(0 4.91702621e-06 -2.667200845e-06)
(0 4.106098111e-06 -2.132617214e-06)
(0 3.413330985e-06 -1.701900932e-06)
(0 2.824431334e-06 -1.355993856e-06)
(0 2.322246716e-06 -1.075837728e-06)
(0 1.901059552e-06 -8.509504661e-07)
(0 1.543717531e-06 -6.698971755e-07)
(0 1.248314812e-06 -5.250545508e-07)
(0 1.005322219e-06 -4.087992721e-07)
(0 8.013990392e-07 -3.173197147e-07)
(0 6.346394389e-07 -2.4394549e-07)
(0 5.002788295e-07 -1.877236751e-07)
(0 3.945055912e-07 -1.410309843e-07)
(0 3.058847746e-07 -1.067261519e-07)
(0 2.353692779e-07 -7.909170066e-08)
(0 1.839120268e-07 -5.908054748e-08)
(0 1.419838985e-07 -4.288104317e-08)
(0 1.143494467e-07 -3.04931858e-08)
(0 9.33853815e-08 -1.810532907e-08)
(0 7.71858777e-08 -1.143494485e-08)
(0 7.242131627e-08 -3.811648225e-09)
(0 -6.765675629e-07 -8.198855368e-06)
(0 -2.037325988e-06 -8.304628619e-06)
(0 -3.427624681e-06 -8.519986732e-06)
(0 -4.863663156e-06 -8.847788481e-06)
(0 -6.364499661e-06 -9.291845515e-06)
(0 -7.956815705e-06 -9.868357298e-06)
(0 -9.664434117e-06 -1.058590008e-05)
(0 -1.151689518e-05 -1.146639084e-05)
(0 -1.354945659e-05 -1.254413436e-05)
(0 -1.580023487e-05 -1.386391757e-05)
(0 -1.830925236e-05 -1.549911469e-05)
(0 -2.111653126e-05 -1.756121636e-05)
(0 -2.422207166e-05 -2.020840607e-05)
(0 -2.759061583e-05 -2.364555989e-05)
(0 -3.104301621e-05 -2.815473975e-05)
(0 -3.305080192e-05 -3.500713038e-05)
(0 -1.559345297e-05 -2.00749984e-05)
(0 3.260865071e-06 5.122855237e-06)
(0 1.18122979e-05 8.884952051e-06)
(0 1.82101495e-05 1.603941583e-05)
(0 1.417551981e-05 1.083651595e-05)
(0 9.777830652e-06 1.205147883e-05)
(0 6.621785918e-06 1.141969815e-05)
(0 3.243712654e-06 1.185613186e-05)
(0 -1.191140076e-06 1.135680594e-05)
(0 -3.917421486e-06 1.710477151e-05)
(0 -8.055918559e-06 1.119671671e-05)
(0 -8.633383267e-06 7.953004056e-06)
(0 6.769296705e-05 -4.324505519e-05)
(0 7.020579605e-05 -7.140074778e-05)
(0 1.41326387e-05 -4.915310968e-05)
(0 2.614123683e-05 -2.478714878e-05)
(0 2.158726972e-05 -1.517893614e-05)
(0 1.724580239e-05 -1.053158404e-05)
(0 1.39496798e-05 -7.841513428e-06)
(0 1.145114418e-05 -6.065285237e-06)
(0 9.489098255e-06 -4.791241818e-06)
(0 7.903452712e-06 -3.824036139e-06)
(0 6.59510434e-06 -3.066470997e-06)
(0 5.495443828e-06 -2.462324753e-06)
(0 4.571119202e-06 -1.977292546e-06)
(0 3.789731247e-06 -1.584692749e-06)
(0 3.126504456e-06 -1.264514298e-06)
(0 2.566192206e-06 -1.005322234e-06)
(0 2.096406523e-06 -7.98540303e-07)
(0 1.703806756e-06 -6.270161329e-07)
(0 1.375052118e-06 -4.926555404e-07)
(0 1.104425073e-06 -3.830706466e-07)
(0 8.814436519e-07 -2.982614736e-07)
(0 6.984845476e-07 -2.286988969e-07)
(0 5.507831684e-07 -1.734299942e-07)
(0 4.316691614e-07 -1.343605999e-07)
(0 3.354250488e-07 -1.019615915e-07)
(0 2.610979034e-07 -7.528005243e-08)
(0 2.020173559e-07 -5.526889926e-08)
(0 1.562775795e-07 -3.811648282e-08)
(0 1.248314794e-07 -2.763444963e-08)
(0 1.010086779e-07 -1.905824112e-08)
(0 8.576208634e-08 -1.048203277e-08)
(0 8.004461272e-08 -2.858736168e-09)
(0 -7.251660889e-07 -7.661413081e-06)
(0 -2.187886127e-06 -7.753845564e-06)
(0 -3.681099345e-06 -7.939663407e-06)
(0 -5.224816906e-06 -8.223631205e-06)
(0 -6.841908707e-06 -8.607654784e-06)
(0 -8.559056255e-06 -9.098404489e-06)
(0 -1.040770568e-05 -9.708268217e-06)
(0 -1.242597347e-05 -1.045153965e-05)
(0 -1.466341101e-05 -1.135204155e-05)
(0 -1.717338141e-05 -1.244598461e-05)
(0 -2.004164679e-05 -1.380197851e-05)
(0 -2.335492204e-05 -1.553532555e-05)
(0 -2.717705237e-05 -1.78432786e-05)
(0 -3.156902416e-05 -2.095930111e-05)
(6.198896052e-26 -3.750376054e-05 -2.436691467e-05)
(-6.198896052e-26 -2.054859599e-05 -2.148149691e-05)
(0 7.287871555e-06 -2.114511896e-06)
(0 1.361806646e-05 8.43708351e-06)
(0 1.386772942e-05 1.457002562e-05)
(0 1.450618054e-05 1.221633282e-05)
(0 1.240882104e-05 9.978895246e-06)
(0 9.507203769e-06 9.58534256e-06)
(0 6.697066071e-06 9.458605268e-06)
(0 3.807836651e-06 9.951260796e-06)
(0 6.594151557e-07 1.10013699e-05)
(0 -2.500441288e-06 1.384104791e-05)
(0 -7.437478743e-06 1.58154817e-05)
(0 -1.842836661e-05 2.13709591e-05)
(0 9.287081094e-06 2.431069289e-05)
(0 4.452100504e-05 -2.584106964e-05)
(0 5.278275249e-05 -1.3373168e-05)
(0 4.756746545e-05 -1.112906024e-05)
(0 2.867788876e-05 -9.087922416e-06)
(0 2.046378671e-05 -7.426996677e-06)
(0 1.585359835e-05 -6.082437837e-06)
(0 1.277188048e-05 -4.987541777e-06)
(0 1.048489151e-05 -4.086086958e-06)
(0 8.68484074e-06 -3.341862681e-06)
(0 7.223073494e-06 -2.725328521e-06)
(0 6.005251868e-06 -2.214567652e-06)
(0 4.984683115e-06 -1.793380543e-06)
(0 4.126109265e-06 -1.445567611e-06)
(0 3.401896091e-06 -1.160646902e-06)
(0 2.789173672e-06 -9.262305463e-07)
(0 2.279365672e-06 -7.346952063e-07)
(0 1.849602329e-06 -5.81276363e-07)
(0 1.493213237e-06 -4.545390644e-07)
(0 1.198763385e-06 -3.563891143e-07)
(0 9.548178946e-07 -2.763445004e-07)
(0 7.575651074e-07 -2.144052191e-07)
(0 5.974758682e-07 -1.639008761e-07)
(0 4.659740024e-07 -1.248314812e-07)
(0 3.649653284e-07 -9.433829639e-08)
(0 2.830148849e-07 -6.860966907e-08)
(0 2.191697762e-07 -5.050433973e-08)
(0 1.705712632e-07 -3.71635713e-08)
(0 1.343606019e-07 -2.477571383e-08)
(0 1.095848881e-07 -1.61995052e-08)
(0 9.33853843e-08 -8.576208762e-09)
(0 8.576208634e-08 -2.858736211e-09)
(0 -7.690000328e-07 -7.101100674e-06)
(0 -2.317482134e-06 -7.178286562e-06)
(0 -3.896457415e-06 -7.335517041e-06)
(0 -5.529748687e-06 -7.568980496e-06)
(0 -7.241178758e-06 -7.886300224e-06)
(0 -9.058382046e-06 -8.285570365e-06)
(0 -1.101756924e-05 -8.77346134e-06)
(0 -1.315971557e-05 -9.356643535e-06)
(0 -1.554390153e-05 -1.00427402e-05)
(0 -1.825112469e-05 -1.084985672e-05)
(0 -2.139859326e-05 -1.181134501e-05)
(0 -2.515592548e-05 -1.301773166e-05)
(0 -2.964795294e-05 -1.476156073e-05)
(0 -3.411329889e-05 -1.807483598e-05)
(0 -3.15642591e-05 -2.69655055e-05)
(0 -1.079649365e-05 -6.428344762e-06)
(0 1.43232212e-05 4.730255473e-06)
(0 1.994635525e-05 7.123970564e-06)
(0 1.559250004e-05 8.858270514e-06)
(0 1.361806628e-05 8.257935928e-06)
(0 1.15435767e-05 7.266907373e-06)
(0 9.258493579e-06 6.84000277e-06)
(0 6.98770415e-06 6.873354702e-06)
(0 4.787430192e-06 7.497512091e-06)
(0 2.699599867e-06 8.882093315e-06)
(0 8.93831514e-07 1.148163743e-05)
(0 -5.269603694e-07 1.550864378e-05)
(0 -1.372193367e-07 2.374656855e-05)
(0 2.048093895e-05 4.216159418e-05)
(0 3.252288862e-05 3.216268786e-05)
(0 2.884560085e-05 2.066961541e-05)
(0 3.042457658e-05 2.468995174e-06)
(0 2.528742723e-05 -2.835866279e-06)
(0 2.025223993e-05 -4.181378102e-06)
(0 1.639008761e-05 -4.226165032e-06)
(0 1.344654202e-05 -3.843094322e-06)
(0 1.113477738e-05 -3.337098021e-06)
(0 9.264211149e-06 -2.828243025e-06)
(0 7.721446391e-06 -2.361316075e-06)
(0 6.428344731e-06 -1.951563891e-06)
(0 5.340119243e-06 -1.598033542e-06)
(0 4.423417765e-06 -1.29786622e-06)
(0 3.646794439e-06 -1.04725035e-06)
(0 2.990238077e-06 -8.404684461e-07)
(0 2.4423136e-06 -6.698971755e-07)
(0 1.983962901e-06 -5.317249273e-07)
(0 1.599939366e-06 -4.183283989e-07)
(0 1.28357254e-06 -3.278017473e-07)
(0 1.022474636e-06 -2.54427519e-07)
(0 8.11881084e-07 -1.972527986e-07)
(0 6.394039897e-07 -1.515130169e-07)
(0 5.002788295e-07 -1.143494467e-07)
(0 3.916468609e-07 -8.766791048e-08)
(0 3.030260338e-07 -6.670384393e-08)
(0 2.353692779e-07 -4.859851486e-08)
(0 1.820062055e-07 -3.525774661e-08)
(0 1.448426325e-07 -2.477571346e-08)
(0 1.19114007e-07 -1.619950495e-08)
(0 9.910285532e-08 -7.623296563e-09)
(0 9.147955739e-08 -1.905824112e-09)
(0 -8.04257779e-07 -6.528400526e-06)
(0 -2.421349549e-06 -6.591292732e-06)
(0 -4.073699058e-06 -6.714218378e-06)
(0 -5.774647086e-06 -6.90003623e-06)
(0 -7.55659265e-06 -7.14493464e-06)
(0 -9.448123079e-06 -7.449866488e-06)
(0 -1.147877868e-05 -7.811020159e-06)
(0 -1.369525215e-05 -8.225536918e-06)
(0 -1.615567107e-05 -8.682934695e-06)
(0 -1.894198594e-05 -9.167014021e-06)
(0 -2.221047434e-05 -9.644422978e-06)
(0 -2.630513743e-05 -1.003702273e-05)
(0 -3.223320336e-05 -1.018091245e-05)
(0 -4.377392137e-05 -9.692068577e-06)
(0 -2.585631586e-05 -7.602332421e-06)
(0 1.114621238e-05 5.888043624e-06)
(0 2.083828096e-05 1.014946637e-05)
(0 1.774703421e-05 6.440732616e-06)
(0 1.500169457e-05 5.454468634e-06)
(0 1.291481717e-05 4.665457455e-06)
(0 1.09908877e-05 3.970784556e-06)
(0 9.114603858e-06 3.62106583e-06)
(0 7.355528205e-06 3.691581328e-06)
(0 5.816575217e-06 4.288104272e-06)
(0 4.64354047e-06 5.556430224e-06)
(0 4.125156316e-06 7.721446437e-06)
(0 4.827452498e-06 1.102709836e-05)
(0 8.225536906e-06 1.600034641e-05)
(0 1.770224737e-05 2.198082253e-05)
(0 2.302807285e-05 1.119099924e-05)
(0 2.309001203e-05 8.687699216e-06)
(0 2.406102978e-05 2.938780825e-06)
(0 2.203037383e-05 -7.270718988e-07)
(0 1.90725348e-05 -2.391809261e-06)
(0 1.619283481e-05 -2.933063353e-06)
(0 1.365999432e-05 -2.930204573e-06)
(0 1.149783687e-05 -2.68816491e-06)
(0 9.661575482e-06 -2.357504462e-06)
(0 8.099752477e-06 -2.014456087e-06)
(0 6.769487247e-06 -1.690465988e-06)
(0 5.638380721e-06 -1.400780744e-06)
(0 4.674986547e-06 -1.150164852e-06)
(0 3.859293827e-06 -9.348067271e-07)
(0 3.168432634e-06 -7.537534477e-07)
(0 2.58620332e-06 -6.031933315e-07)
(0 2.103076908e-06 -4.802676763e-07)
(0 1.697136397e-06 -3.79259004e-07)
(0 1.361711328e-06 -2.963556495e-07)
(0 1.086319744e-06 -2.296518055e-07)
(0 8.604795996e-07 -1.772416451e-07)
(0 6.79426296e-07 -1.372193361e-07)
(0 5.298191032e-07 -1.048203262e-07)
(0 4.135638386e-07 -8.004461392e-08)
(0 3.211313629e-07 -6.193928365e-08)
(0 2.506158708e-07 -4.573977869e-08)
(0 1.943940624e-07 -3.239901039e-08)
(0 1.543717531e-07 -2.191697729e-08)
(0 1.267373035e-07 -1.334076879e-08)
(0 1.057732398e-07 -9.529120704e-09)
(0 9.624411767e-08 -2.858736168e-09)
(0 -8.318922412e-07 -5.954747555e-06)
(0 -2.503300024e-06 -6.002393168e-06)
(0 -4.206153898e-06 -6.09482563e-06)
(0 -5.959512115e-06 -6.230139144e-06)
(0 -7.791009135e-06 -6.4073808e-06)
(0 -9.724467722e-06 -6.618927271e-06)
(0 -1.179323984e-05 -6.860014026e-06)
(0 -1.40297245e-05 -7.111582824e-06)