/*--------------------------------*- C++ -*----------------------------------*\
  =========                 |
  \\      /  F ield         | OpenFOAM: The Open Source CFD Toolbox
   \\    /   O peration     | Website:  https://openfoam.org
    \\  /    A nd           | Version:  6
     \\/     M anipulation  |
\*---------------------------------------------------------------------------*/
FoamFile
{
    version     2.0;
    format      ascii;
    class       volVectorField;
    location    "0.0024";
    object      U;
}
// * * * * * * * * * * * * * * * * * * * * * * * * * * * * * * * * * * * * * //

dimensions      [0 1 -1 0 0 0 0];

internalField   nonuniform List<vector> 
3600
(
(0 1.317857501e-10 -1.110543704e-13)
(0 1.325114462e-10 -3.232878824e-13)
(0 1.335491747e-10 -5.033174024e-13)
(0 1.347130605e-10 -6.261128641e-13)
(0 1.35864913e-10 -6.640591511e-13)
(0 1.367966767e-10 -5.859079599e-13)
(0 1.372299073e-10 -3.558110114e-13)
(0 1.368066618e-10 6.526161048e-14)
(0 1.350823601e-10 7.161945482e-13)
(0 1.315265916e-10 1.627223965e-12)
(0 1.25543907e-10 2.80703195e-12)
(0 1.165282076e-10 4.224095029e-12)
(0 1.039568989e-10 5.789673551e-12)
(0 8.75096653e-11 7.354105524e-12)
(8.889857077e-53 6.71637111e-11 8.740872805e-12)
(5.91865589e-53 4.319044332e-11 9.832879141e-12)
(0 1.599943058e-11 1.068127597e-11)
(0 -1.408286688e-11 1.150005299e-11)
(0 -4.674976706e-11 1.234260554e-11)
(0 -8.089854113e-11 1.248430779e-11)
(0 -1.133660135e-10 1.041104223e-11)
(0 -1.391858001e-10 5.461277655e-12)
(0 -1.536956759e-10 -1.690341276e-12)
(0 -1.536588624e-10 -1.055123921e-11)
(0 -1.367785375e-10 -2.10804695e-11)
(0 -1.019365519e-10 -3.247398172e-11)
(0 -5.215280199e-11 -4.109966502e-11)
(0 1.146602949e-12 -4.129113614e-11)
(0 4.079497724e-11 -2.822187445e-11)
(0 1.179204762e-12 5.738959255e-25)
(0 2.316669972e-12 4.228817567e-14)
(0 2.198527166e-12 7.709846814e-14)
(0 2.022702024e-12 1.001157116e-13)
(0 1.813015936e-12 1.108724474e-13)
(0 1.591711757e-12 1.115444857e-13)
(0 1.375775812e-12 1.052979885e-13)
(0 1.17605595e-12 9.514613978e-14)
(0 9.980887758e-13 8.340257126e-14)
(0 8.435562357e-13 7.160645275e-14)
(0 7.117133998e-13 6.06375597e-14)
(0 6.005058245e-13 5.091479538e-14)
(0 5.073340447e-13 4.255682771e-14)
(0 4.295193754e-13 3.55188827e-14)
(0 3.64557048e-13 2.9670156e-14)
(0 3.102297119e-13 2.485296702e-14)
(0 2.646399506e-13 2.090540523e-14)
(0 2.261980825e-13 1.768143752e-14)
(0 1.935906586e-13 1.505166952e-14)
(0 1.657415503e-13 1.290892137e-14)
(0 1.417729505e-13 1.116310603e-14)
(0 1.209673091e-13 9.742375891e-15)
(0 1.027338428e-13 8.587679275e-15)
(0 8.658258772e-14 7.652619336e-15)
(0 7.21091937e-14 6.899548124e-15)
(0 5.898310793e-14 6.299357223e-15)
(0 4.692675419e-14 5.828980513e-15)
(0 3.570430839e-14 5.473598375e-15)
(0 2.508392257e-14 5.211175711e-15)
(0 1.489957923e-14 5.058106724e-15)
(0 4.953159202e-15 4.962982941e-15)
(0 1.311850796e-10 -3.438706449e-13)
(0 1.319774593e-10 -1.002139334e-12)
(0 1.331407091e-10 -1.56557251e-12)
(0 1.344970258e-10 -1.960361831e-12)
(0 1.359168525e-10 -2.105159564e-12)
(0 1.372023279e-10 -1.906864233e-12)
(0 1.380841177e-10 -1.258704651e-12)
(0 1.382075765e-10 -4.244597784e-14)
(0 1.371180956e-10 1.861422609e-12)
(0 1.342520712e-10 4.551046245e-12)
(0 1.289473963e-10 8.063375599e-12)
(0 1.204934786e-10 1.231670971e-11)
(0 1.082396642e-10 1.704819447e-11)
(0 9.176412901e-11 2.17875453e-11)
(0 7.105865262e-11 2.594381945e-11)
(0 4.66017456e-11 2.908608508e-11)
(0 1.911798913e-11 3.136261892e-11)
(0 -1.105729876e-11 3.36370349e-11)
(0 -4.449979453e-11 3.650402841e-11)
(0 -8.158650644e-11 3.78500369e-11)
(0 -1.191519341e-10 3.220149745e-11)
(0 -1.503859738e-10 1.73178269e-11)
(0 -1.698371117e-10 -3.858384595e-12)
(0 -1.751817023e-10 -2.965912287e-11)
(0 -1.642167417e-10 -6.072828649e-11)
(0 -1.32891097e-10 -9.594235415e-11)
(0 -7.99633773e-11 -1.240368068e-10)
(0 -1.587823851e-11 -1.264055671e-10)
(0 3.78248972e-11 -8.706505982e-11)
(0 1.221492938e-12 6.249093953e-25)
(0 2.39376844e-12 1.343601009e-13)
(0 2.256354702e-12 2.431204067e-13)
(0 2.056476003e-12 3.126316909e-13)
(0 1.82444471e-12 3.427327504e-13)
(0 1.586137298e-12 3.415730717e-13)
(0 1.359377466e-12 3.198231539e-13)
(0 1.154160533e-12 2.870437827e-13)
(0 9.745490888e-13 2.502749544e-13)
(0 8.207912242e-13 2.139988214e-13)
(0 6.910217426e-13 1.806752765e-13)
(0 5.824250925e-13 1.5138331e-13)
(0 4.91938132e-13 1.26356975e-13)
(0 4.166327038e-13 1.053705853e-13)
(0 3.538911323e-13 8.798454533e-14)
(0 3.014649612e-13 7.369218164e-14)
(0 2.574684212e-13 6.199733942e-14)
(0 2.203443468e-13 5.245256694e-14)
(0 1.888181424e-13 4.467178463e-14)
(0 1.618529868e-13 3.833203596e-14)
(0 1.38606405e-13 3.316761973e-14)
(0 1.183918824e-13 2.896341746e-14)
(0 1.006440862e-13 2.554615399e-14)
(0 8.489445657e-14 2.2777579e-14)
(0 7.075593159e-14 2.054756986e-14)
(0 5.791254033e-14 1.876983835e-14)
(0 4.610099534e-14 1.737738512e-14)
(0 3.508650359e-14 1.63201645e-14)
(0 2.466843092e-14 1.555764644e-14)
(0 1.465138646e-14 1.506419538e-14)
(0 4.858035419e-15 1.482370044e-14)
(0 1.301380449e-10 -6.110850525e-13)
(0 1.310397694e-10 -1.78588431e-12)
(0 1.324058054e-10 -2.809060294e-12)
(0 1.340717137e-10 -3.562614003e-12)
(0 1.359221832e-10 -3.915651227e-12)
(0 1.377764556e-10 -3.717135354e-12)
(0 1.393816944e-10 -2.791968309e-12)
(0 1.403926864e-10 -9.418580154e-13)
(0 1.403466523e-10 2.042007988e-12)
(0 1.386384616e-10 6.347565997e-12)
(0 1.34510729e-10 1.207865552e-11)
(0 1.270852164e-10 1.915134246e-11)
(0 1.154761061e-10 2.71556094e-11)
(0 9.902823598e-11 3.524345981e-11)
(1.001492117e-52 7.767795752e-11 4.219885942e-11)
(6.889091214e-53 5.226539024e-11 4.693729322e-11)
(0 2.431705076e-11 4.955663585e-11)
(0 -5.324918221e-12 5.227882682e-11)
(0 -3.870058556e-11 5.809775829e-11)
(0 -7.978196788e-11 6.417103047e-11)
(0 -1.25679713e-10 5.697578887e-11)
(0 -1.651230274e-10 3.153901984e-11)
(0 -1.912756401e-10 -2.711712878e-12)
(0 -2.051081381e-10 -4.212169461e-11)
(0 -2.063738755e-10 -9.079271581e-11)
(0 -1.859238571e-10 -1.528988379e-10)
(0 -1.333309001e-10 -2.082342484e-10)
(0 -5.550614454e-11 -2.193238362e-10)
(0 2.086891168e-11 -1.542732267e-10)
(0 1.313564863e-12 7.22664874e-25)
(0 2.559790378e-12 2.520571442e-13)
(0 2.376798756e-12 4.484146283e-13)
(0 2.122314368e-12 5.64579353e-13)
(0 1.841957316e-12 6.058770912e-13)
(0 1.568802161e-12 5.922156899e-13)
(0 1.321246523e-12 5.453994018e-13)
(0 1.106507751e-12 4.829470428e-13)
(0 9.250438145e-13 4.166649546e-13)
(0 7.739565581e-13 3.534436836e-13)
(0 6.490978887e-13 2.966835901e-13)
(0 5.46187523e-13 2.475869053e-13)
(0 4.613213201e-13 2.061179634e-13)
(0 3.911469459e-13 1.716229574e-13)
(0 3.328786444e-13 1.43206858e-13)
(0 2.842425061e-13 1.199355726e-13)
(0 2.43400336e-13 1.009411012e-13)
(0 2.088725278e-13 8.546134478e-14)
(0 1.794701276e-13 7.285253303e-14)
(0 1.542373854e-13 6.258131488e-14)
(0 1.324043319e-13 5.421375346e-14)
(0 1.133458434e-13 4.739927452e-14)
(0 9.654800434e-14 4.185752707e-14)
(0 8.158400359e-14 3.736479455e-14)
(0 6.810145306e-14 3.374407034e-14)
(0 5.581292321e-14 3.085620716e-14)
(0 4.447708034e-14 2.859319701e-14)
(0 3.388456972e-14 2.687342017e-14)
(0 2.382795346e-14 2.563094944e-14)
(0 1.416563323e-14 2.483319629e-14)
(0 4.712664263e-15 2.44343381e-14)
(0 1.2853986e-10 -9.312553927e-13)
(0 1.295881504e-10 -2.731757521e-12)
(0 1.312250344e-10 -4.333345517e-12)
(0 1.333040543e-10 -5.580673742e-12)
(0 1.357291228e-10 -6.300424473e-12)
(0 1.383431177e-10 -6.291518712e-12)
(0 1.40917973e-10 -5.317560894e-12)
(0 1.431285038e-10 -3.103890826e-12)
(0 1.44516503e-10 6.548426873e-13)
(0 1.444464168e-10 6.264800643e-12)
(0 1.420613626e-10 1.395921507e-11)
(0 1.362660653e-10 2.374908995e-11)
(0 1.258008178e-10 3.517396394e-11)
(0 1.095277044e-10 4.699105508e-11)
(-1.130349792e-52 8.706508829e-11 5.702849701e-11)
(-7.570097283e-53 5.96962342e-11 6.276063353e-11)
(0 3.070686843e-11 6.34141426e-11)
(0 3.159328345e-12 6.336594025e-11)
(0 -2.670977931e-11 7.265851914e-11)
(0 -7.162804907e-11 9.13133491e-11)
(0 -1.300564843e-10 8.64448816e-11)
(0 -1.796441251e-10 4.697173501e-11)
(0 -2.108511528e-10 9.301027511e-13)
(0 -2.336486836e-10 -4.448108931e-11)
(0 -2.550058001e-10 -1.015991195e-10)
(0 -2.576377738e-10 -1.948545859e-10)
(0 -2.123792538e-10 -2.919822695e-10)
(0 -1.179529634e-10 -3.241971394e-10)
(0 -7.72502967e-12 -2.363875562e-10)
(0 1.473550082e-12 8.687095592e-25)
(0 2.842183069e-12 4.254643662e-13)
(0 2.568876913e-12 7.339019472e-13)
(0 2.213938467e-12 8.913854784e-13)
(0 1.852081046e-12 9.239657582e-13)
(0 1.525659609e-12 8.76005045e-13)
(0 1.250108819e-12 7.866038411e-13)
(0 1.025426086e-12 6.826748042e-13)
(0 8.45045729e-13 5.799841487e-13)
(0 7.008098596e-13 4.864168497e-13)
(0 5.851649642e-13 4.050145603e-13)
(0 4.918594654e-13 3.361506464e-13)
(0 4.15974184e-13 2.78892607e-13)
(0 3.537215983e-13 2.317871495e-13)
(0 3.022037473e-13 1.932755682e-13)
(0 2.591992044e-13 1.618958875e-13)
(0 2.229941934e-13 1.363640162e-13)
(0 1.922557786e-13 1.155946828e-13)
(0 1.659381125e-13 9.869104529e-14)
(0 1.432142072e-13 8.49233694e-14)
(0 1.234243645e-13 7.370319782e-14)
(0 1.06035656e-13 6.455953507e-14)
(0 9.060960626e-14 5.711683646e-14)
(0 7.67809998e-14 5.107711321e-14)
(0 6.424734418e-14 4.620483337e-14)
(0 5.2761667e-14 4.23153e-14)
(0 4.211820834e-14 3.92650205e-14)
(0 3.212425602e-14 3.694376037e-14)
(0 2.262820705e-14 3.52714022e-14)
(0 1.345477512e-14 3.418259112e-14)
(0 4.459177225e-15 3.365175984e-14)
(0 1.262537521e-10 -1.320665e-12)
(0 1.274778508e-10 -3.889401168e-12)
(0 1.2943898e-10 -6.224381256e-12)
(0 1.320120753e-10 -8.141728639e-12)
(0 1.351230719e-10 -9.436043349e-12)
(0 1.386421461e-10 -9.868210332e-12)
(0 1.423718896e-10 -9.15451228e-12)
(0 1.460188123e-10 -6.956865683e-12)
(0 1.491522648e-10 -2.878244594e-12)
(0 1.511445724e-10 3.525734601e-12)
(0 1.510852094e-10 1.268926537e-11)
(0 1.476750783e-10 2.487376779e-11)
(0 1.391647094e-10 3.980623245e-11)
(0 1.235470427e-10 5.604161656e-11)
(0 9.943718618e-11 7.018714151e-11)
(0 6.81041236e-11 7.686693709e-11)
(0 3.587447464e-11 7.178891248e-11)
(0 1.255599936e-11 6.054965905e-11)
(0 -5.35844642e-12 7.033036529e-11)
(0 -5.15150083e-11 1.187515615e-10)
(0 -1.288206001e-10 1.234745295e-10)
(0 -1.88744019e-10 5.781615968e-11)
(0 -2.166416159e-10 1.126896865e-12)
(0 -2.426444713e-10 -3.619725361e-11)
(0 -2.923150423e-10 -7.829719653e-11)
(0 -3.372293878e-10 -2.076893985e-10)
(0 -3.13297123e-10 -3.711611213e-10)
(0 -2.025676304e-10 -4.4360881e-10)
(0 -4.752816305e-11 -3.413317085e-10)
(0 1.739029228e-12 1.093657991e-24)
(0 3.293692325e-12 7.159091683e-13)
(0 2.84271987e-12 1.170334705e-12)
(0 2.312378179e-12 1.343064465e-12)
(0 1.826576882e-12 1.322558413e-12)
(0 1.431440243e-12 1.201200709e-12)
(0 1.127916282e-12 1.042310933e-12)
(0 8.998880589e-13 8.81143007e-13)
(0 7.287858595e-13 7.341616639e-13)
(0 5.989869698e-13 6.072055961e-13)
(0 4.988316856e-13 5.0078861e-13)
(0 4.200655693e-13 4.130900558e-13)
(0 3.569578231e-13 3.414987583e-13)
(0 3.055299072e-13 2.833431573e-13)
(0 2.629873821e-13 2.362008767e-13)
(0 2.273309541e-13 1.979982997e-13)
(0 1.970991314e-13 1.670163119e-13)
(0 1.711995567e-13 1.418550265e-13)
(0 1.487988143e-13 1.213875188e-13)
(0 1.29249538e-13 1.047122128e-13)
(0 1.120404975e-13 9.111121213e-14)
(0 9.675948207e-14 8.001409859e-14)
(0 8.306558249e-14 7.09688405e-14)
(0 7.067200047e-14 6.361780468e-14)
(0 5.933963985e-14 5.767915011e-14)
(0 4.887311034e-14 5.293189987e-14)
(0 3.910554069e-14 4.920417853e-14)
(0 2.989095142e-14 4.636485282e-14)
(0 2.106678422e-14 4.431324086e-14)
(0 1.254599087e-14 4.298724626e-14)
(0 4.181832979e-15 4.232916082e-14)
(0 1.231196969e-10 -1.791723649e-12)
(0 1.245385564e-10 -5.296671483e-12)
(0 1.268584116e-10 -8.547171739e-12)
(0 1.299769273e-10 -1.134121998e-11)
(0 1.338410304e-10 -1.345342992e-11)
(0 1.383456284e-10 -1.462211055e-11)
(0 1.433212783e-10 -1.453659802e-11)
(0 1.485090591e-10 -1.28218723e-11)
(0 1.535268335e-10 -9.018645469e-12)
(0 1.578137575e-10 -2.562415227e-12)
(0 1.60521861e-10 7.216192283e-12)
(0 1.603066699e-10 2.099894132e-11)
(0 1.55001769e-10 3.912249743e-11)
(0 1.413664303e-10 6.062536686e-11)
(0 1.156980353e-10 8.133329716e-11)
(0 7.717196984e-11 9.146255169e-11)
(0 3.523361746e-11 7.709266863e-11)
(0 1.643893369e-11 3.598074167e-11)
(0 2.733637588e-11 2.967872003e-11)
(0 -1.372380489e-11 1.439107199e-10)
(0 -1.185124118e-10 1.717852817e-10)
(0 -1.85282053e-10 5.021833041e-11)
(0 -1.926185811e-10 -1.437344975e-11)
(0 -2.060330641e-10 -2.452283822e-11)
(0 -2.869055975e-10 -2.088181479e-12)
(0 -3.971394948e-10 -1.718946008e-10)
(0 -4.208339085e-10 -4.384372437e-10)
(0 -3.023624457e-10 -5.722507674e-10)
(0 -9.849292256e-11 -4.769998949e-10)
(0 2.189459246e-12 1.480206715e-24)
(0 4.01251777e-12 1.268041069e-12)
(0 3.196032209e-12 1.888617282e-12)
(0 2.366162174e-12 1.988026942e-12)
(0 1.71021729e-12 1.821982157e-12)
(0 1.245412129e-12 1.563886765e-12)
(0 9.30051118e-13 1.300254265e-12)
(0 7.172768182e-13 1.065390498e-12)
(0 5.711083181e-13 8.682846136e-13)
(0 4.674368065e-13 7.07429971e-13)
(0 3.910494247e-13 5.778204435e-13)
(0 3.325696136e-13 4.739010605e-13)
(0 2.862272859e-13 3.906499769e-13)
(0 2.484237171e-13 3.238696618e-13)
(0 2.168588897e-13 2.701724176e-13)
(0 1.900146398e-13 2.2686863e-13)
(0 1.668509204e-13 1.918379414e-13)
(0 1.466269854e-13 1.634133289e-13)
(0 1.287952989e-13 1.402843674e-13)
(0 1.129379007e-13 1.214203205e-13)
(0 9.872625032e-14 1.06009342e-13)
(0 8.589328444e-14 9.341141173e-14)
(0 7.421331242e-14 8.312155159e-14)
(0 6.349130941e-14 7.474153595e-14)
(0 5.356143941e-14 6.795791714e-14)
(0 4.428669545e-14 6.252508899e-14)
(0 3.555116128e-14 5.825206088e-14)
(0 2.723331836e-14 5.4991825e-14)
(0 1.925060051e-14 5.263733849e-14)
(0 1.147069507e-14 5.110384375e-14)
(0 3.80109178e-15 5.035313207e-14)
(0 1.18961934e-10 -2.352400856e-12)
(0 1.205829752e-10 -6.977639294e-12)
(0 1.232749309e-10 -1.134255406e-11)
(0 1.269573907e-10 -1.523749889e-11)
(0 1.315928213e-10 -1.842887178e-11)
(0 1.370895683e-10 -2.064714436e-11)
(0 1.432876139e-10 -2.157640567e-11)
(0 1.499399847e-10 -2.084027318e-11)
(0 1.567007624e-10 -1.7976439e-11)
(0 1.631116234e-10 -1.238795719e-11)
(0 1.685431294e-10 -3.260897861e-12)
(0 1.719735843e-10 1.053092364e-11)
(0 1.713861501e-10 3.037576108e-11)
(0 1.625945605e-10 5.714968202e-11)
(0 1.380846392e-10 8.828858594e-11)
(0 8.97418145e-11 1.105456969e-10)
(0 2.351090711e-11 9.168392374e-11)
(0 1.179008843e-12 -1.154195351e-11)
(0 6.487917286e-11 -8.492575243e-11)
(0 3.227768335e-11 1.767411052e-10)
(0 -8.813999027e-11 2.577484144e-10)
(0 -1.46072315e-10 -6.945255371e-12)
(0 -1.226631752e-10 -6.198577572e-11)
(0 -1.093856165e-10 -3.796353493e-11)
(0 -1.976243273e-10 1.666677609e-10)
(0 -3.602041691e-10 -5.606753704e-11)
(0 -4.899295772e-10 -4.79248951e-10)
(0 -3.901997999e-10 -6.757216121e-10)
(0 -1.636319855e-10 -6.445803013e-10)
(0 3.007070296e-12 2.215455547e-24)
(0 5.182309609e-12 2.467886653e-12)
(0 3.562705746e-12 3.128359103e-12)
(0 2.245743054e-12 2.898604465e-12)
(0 1.402436704e-12 2.413496068e-12)
(0 9.097123491e-13 1.932087524e-12)
(0 6.294200152e-13 1.529388853e-12)
(0 4.679184074e-13 1.211840102e-12)
(0 3.708253309e-13 9.661217674e-13)
(0 3.085227995e-13 7.763788519e-13)
(0 2.653027751e-13 6.291354549e-13)
(0 2.328951019e-13 5.140197108e-13)
(0 2.069264243e-13 4.233094506e-13)
(0 1.850523479e-13 3.512947571e-13)
(0 1.6598635e-13 2.937350536e-13)
(0 1.489964778e-13 2.474526616e-13)
(0 1.336438302e-13 2.100424599e-13)
(0 1.196459826e-13 1.796664228e-13)
(0 1.068058059e-13 1.549080815e-13)
(0 9.49745126e-14 1.346679648e-13)
(0 8.403158862e-14 1.180877963e-13)
(0 7.387169162e-14 1.044945412e-13)
(0 6.439570672e-14 9.335885678e-14)
(0 5.550836596e-14 8.426383745e-14)
(0 4.712319288e-14 7.688146141e-14)
(0 3.916725409e-14 7.095446318e-14)
(0 3.157227667e-14 6.628235017e-14)
(0 2.427622902e-14 6.27116647e-14)
(0 1.717880296e-14 6.012539987e-14)
(0 1.026178444e-14 5.844871077e-14)
(0 3.4311213e-15 5.761753986e-14)
(0 1.135978752e-10 -3.005964753e-12)
(0 1.154165822e-10 -8.942081344e-12)
(0 1.18472727e-10 -1.462668933e-11)
(0 1.227063886e-10 -1.985216305e-11)
(0 1.280879622e-10 -2.438523325e-11)
(0 1.345210631e-10 -2.795620989e-11)
(0 1.418184772e-10 -3.025432523e-11)
(0 1.496817009e-10 -3.092633561e-11)
(0 1.577098671e-10 -2.957148024e-11)
(0 1.654590129e-10 -2.57111884e-11)
(0 1.725493368e-10 -1.867801084e-11)
(0 1.787125437e-10 -7.313167223e-12)
(0 1.833544016e-10 1.063862385e-11)
(0 1.835703736e-10 3.913020845e-11)
(0 1.690324995e-10 8.224837962e-11)
(0 1.171548794e-10 1.32578696e-10)
(0 3.673113873e-12 1.408327173e-10)
(0 -3.409249499e-11 -5.712888724e-11)
(0 9.509971819e-11 -3.596812008e-10)
(0 9.414164342e-25 1.44969933e-11)
(0 -3.08817156e-24 9.856881804e-12)
(0 -1.304257154e-24 -4.289457775e-12)
(0 -1.715714327e-25 -2.731153132e-12)
(0 1.004295958e-24 -3.677980115e-12)
(0 2.719084515e-24 1.102872886e-11)
(0 -1.917974122e-24 1.589582012e-11)
(0 -4.325798358e-10 -4.827995883e-10)
(0 -3.848476201e-10 -6.623602217e-10)
(0 -2.720335274e-10 -8.168003158e-10)
(0 4.657345893e-12 3.262390282e-24)
(0 7.140876869e-12 5.474352936e-12)
(0 3.626750024e-12 5.258047502e-12)
(0 1.651299143e-12 4.064471667e-12)
(0 7.437003496e-13 3.001272708e-12)
(0 3.613049112e-13 2.221529725e-12)
(0 2.098036969e-13 1.673319511e-12)
(0 1.540097327e-13 1.286409403e-12)
(0 1.356470662e-13 1.007940381e-12)
(0 1.304504939e-13 8.027916703e-13)
(0 1.286902837e-13 6.482911726e-13)
(0 1.267436086e-13 5.297054304e-13)
(0 1.235023322e-13 4.37249391e-13)
(0 1.188493202e-13 3.642443044e-13)
(0 1.130167938e-13 3.060027721e-13)
(0 1.063220461e-13 2.591496473e-13)
(0 9.906468158e-14 2.21200144e-13)
(0 9.14926068e-14 1.902910199e-13)
(0 8.379684098e-14 1.650041293e-13)
(0 7.611761556e-14 1.442473435e-13)
(0 6.855282659e-14 1.271718381e-13)
(0 6.116434493e-14 1.131133045e-13)
(0 5.398260867e-14 1.015492905e-13)
(0 4.701391398e-14 9.206792916e-14)
(0 4.025206513e-14 8.434457289e-14)
(0 3.368758422e-14 7.812404735e-14)
(0 2.730836277e-14 7.320713782e-14)
(0 2.107636806e-14 6.943996965e-14)
(0 1.498764658e-14 6.670987307e-14)
(0 8.962835055e-15 6.492873217e-14)
(0 2.96992087e-15 6.405408349e-14)
(0 1.068482053e-10 -3.751141736e-12)
(0 1.088477481e-10 -1.118595817e-11)
(0 1.122390271e-10 -1.839290112e-11)
(0 1.169836968e-10 -2.517579628e-11)
(0 1.230566762e-10 -3.130632607e-11)
(0 1.303422269e-10 -3.651004005e-11)
(0 1.385847174e-10 -4.046492852e-11)
(0 1.473386793e-10 -4.281757498e-11)
(0 1.559559631e-10 -4.322520873e-11)
(0 1.636750131e-10 -4.142350368e-11)
(0 1.699270471e-10 -3.726960509e-11)
(0 1.749913407e-10 -3.054946311e-11)
(0 1.808489613e-10 -1.996342491e-11)
(0 1.907107286e-10 -2.425446111e-13)
(0 2.008241141e-10 4.305663624e-11)
(0 1.772070875e-10 1.296040309e-10)
(0 -1.006347384e-11 2.606056697e-10)
(0 2.386709276e-24 -4.213845945e-12)
(0 -1.037839384e-11 -8.672419469e-12)
(0 -1.026772936e-11 1.850501793e-11)
(0 6.088936224e-12 1.384661649e-11)
(0 7.53657639e-12 -4.158267492e-12)
(0 6.114776588e-13 -2.95628744e-12)
(0 -6.364729333e-12 -2.883975774e-12)
(0 -5.301587064e-12 1.652315593e-11)
(0 9.095882305e-12 2.292807153e-11)
(0 8.979567017e-12 -1.480182803e-12)
(0 -4.627201731e-25 9.834756208e-12)
(0 -5.536510126e-10 -8.3878855e-10)
(0 8.481423204e-12 -2.272521122e-11)
(0 1.044035708e-11 1.417106982e-11)
(0 2.152824477e-12 8.364660338e-12)
(0 -1.103173219e-14 5.099764472e-12)
(0 -4.405052302e-13 3.305473847e-12)
(0 -4.182408478e-13 2.279349405e-12)
(0 -3.057003047e-13 1.655875307e-12)
(0 -1.974607199e-13 1.252474722e-12)
(0 -1.127924013e-13 9.763864937e-13)
(0 -5.112640736e-14 7.785126777e-13)
(0 -7.783463605e-15 6.314952914e-13)
(0 2.185332032e-14 5.192298126e-13)
(0 4.146529886e-14 4.317112048e-13)
(0 5.380572961e-14 3.624069747e-13)
(0 6.089169283e-14 3.068622602e-13)
(0 6.419384996e-14 2.619261697e-13)
(0 6.478520312e-14 2.253031618e-13)
(0 6.344996782e-14 1.952811248e-13)
(0 6.076212968e-14 1.705594722e-13)
(0 5.714222156e-14 1.501361382e-13)
(0 5.289754964e-14 1.332306245e-13)
(0 4.824914412e-14 1.192299855e-13)
(0 4.335033147e-14 1.07650143e-13)
(0 3.830364832e-14 9.810772108e-14)
(0 3.317931112e-14 9.029914857e-14)
(0 2.802981906e-14 8.398470962e-14)
(0 2.288819897e-14 7.897619558e-14)
(0 1.777896429e-14 7.512852788e-14)
(0 1.266756549e-14 7.233066686e-14)
(0 7.605994864e-15 7.051054796e-14)
(0 2.556472626e-15 6.960770709e-14)
(0 9.854848485e-11 -4.582382239e-12)
(0 1.006980316e-10 -1.369163753e-11)
(0 1.043709214e-10 -2.26124204e-11)
(0 1.095576562e-10 -3.117324696e-11)
(0 1.162473984e-10 -3.915636333e-11)
(0 1.24312745e-10 -4.626948447e-11)
(0 1.334203963e-10 -5.213295131e-11)
(0 1.429139169e-10 -5.629419265e-11)
(0 1.516907631e-10 -5.830114538e-11)
(0 1.581389495e-10 -5.789258347e-11)
(0 1.603342037e-10 -5.537842204e-11)
(0 1.570277647e-10 -5.219942657e-11)
(0 1.504986096e-10 -5.117505857e-11)
(0 1.527058344e-10 -5.448583472e-11)
(0 1.876949783e-10 -5.371891452e-11)
(0 2.857579283e-10 -2.334674707e-11)
(0 1.115998926e-11 1.113528854e-11)
(0 1.620296717e-11 -2.31129642e-12)
(0 2.594252349e-12 -9.853471773e-12)
(0 -2.356351033e-12 5.474959788e-12)
(0 2.212101859e-12 5.952366198e-12)
(0 3.321707374e-12 1.180523031e-12)
(0 1.27429172e-12 6.800230431e-13)
(0 -6.451679379e-13 2.378179461e-12)
(0 9.366600393e-13 8.61720536e-12)
(0 6.872048295e-12 1.049955606e-11)
(0 7.031296249e-12 4.432167091e-13)
(0 8.424600317e-12 1.487204069e-11)
(0 -1.611399863e-11 1.406729109e-12)
(0 -2.617158294e-11 -6.472928491e-11)
(0 -6.769250141e-12 2.056890044e-11)
(0 -5.444555377e-12 8.929598515e-12)
(0 -3.40788736e-12 4.664256636e-12)
(0 -2.076714716e-12 2.841348858e-12)
(0 -1.288293635e-12 1.934395863e-12)
(0 -8.170709868e-13 1.418261082e-12)
(0 -5.254790796e-13 1.091150229e-12)
(0 -3.383149802e-13 8.665552021e-13)
(0 -2.144407085e-13 7.03325393e-13)
(0 -1.305925812e-13 5.799041165e-13)
(0 -7.304047869e-14 4.839705902e-13)
(0 -3.332050577e-14 4.079273516e-13)
(0 -5.999624318e-15 3.467835288e-13)
(0 1.25359885e-14 2.970905827e-13)
(0 2.47629477e-14 2.563705618e-13)
(0 3.241963674e-14 2.227890674e-13)
(0 3.6748917e-14 1.949570911e-13)
(0 3.86518544e-14 1.718046939e-13)
(0 3.878876783e-14 1.524968816e-13)
(0 3.764667374e-14 1.363754358e-13)
(0 3.558386342e-14 1.229175424e-13)
(0 3.286034425e-14 1.117058684e-13)
(0 2.966291949e-14 1.024066407e-13)
(0 2.612905367e-14 9.475323914e-14)
(0 2.236463124e-14 8.853341311e-14)
(0 1.8452181e-14 8.357932654e-14)
(0 1.443083933e-14 7.97597806e-14)
(0 1.036966667e-14 7.697790805e-14)
(0 6.239875277e-15 7.51573435e-14)
(0 2.067079996e-15 7.426053702e-14)
(0 8.856467638e-11 -5.490632253e-12)
(0 9.081543435e-11 -1.642686554e-11)
(0 9.46806568e-11 -2.722925181e-11)
(0 1.001946373e-10 -3.777656462e-11)
(0 1.073889598e-10 -4.788074848e-11)
(0 1.161703819e-10 -5.7229516e-11)
(0 1.261949818e-10 -6.533925193e-11)
(0 1.366755523e-10 -7.152161786e-11)
(0 1.46091215e-10 -7.489559102e-11)
(0 1.517536297e-10 -7.453000416e-11)
(0 1.492175994e-10 -6.990174377e-11)
(0 1.317850741e-10 -6.201368764e-11)
(0 9.131636282e-11 -5.546928182e-11)
(0 2.58757374e-11 -6.025328831e-11)
(1.908147079e-52 -4.364289443e-11 -7.13996094e-11)
(3.892490471e-52 -4.238546786e-12 2.699669497e-24)
(0 -2.311296268e-12 1.610456174e-11)
(0 3.886626612e-12 3.772665308e-12)
(0 2.158637986e-12 -6.022217041e-13)
(0 7.873327739e-13 2.545044437e-12)
(0 1.794499451e-12 3.307030397e-12)
(0 2.264233219e-12 2.247489515e-12)
(0 1.809134091e-12 2.117130365e-12)
(0 1.572453005e-12 3.098943378e-12)
(0 2.819789563e-12 5.067717427e-12)
(0 5.67266951e-12 5.258614047e-12)
(0 8.601276077e-12 2.593532125e-12)
(0 1.633734804e-11 3.591301715e-12)
(0 3.527405832e-11 -9.64099679e-12)
(0 -4.176210386e-12 -3.210488617e-11)
(0 -3.772056132e-11 2.083599904e-12)
(0 -1.375181938e-11 2.120139936e-12)
(0 -6.099281402e-12 1.785954901e-12)
(0 -3.170366002e-12 1.461012162e-12)
(0 -1.84132863e-12 1.198445462e-12)
(0 -1.14894594e-12 9.91494046e-13)
(0 -7.491665993e-13 8.272125732e-13)
(0 -5.006172387e-13 6.952824819e-13)
(0 -3.377774933e-13 5.882682795e-13)
(0 -2.271382664e-13 5.007747686e-13)
(0 -1.501234453e-13 4.2877892e-13)
(0 -9.572176264e-14 3.692085379e-13)
(0 -5.703103922e-14 3.196792118e-13)
(0 -2.952127446e-14 2.783207246e-13)
(0 -1.010766543e-14 2.436551925e-13)
(0 3.371732372e-15 2.145075669e-13)
(0 1.246559416e-14 1.899383664e-13)
(0 1.830192016e-14 1.69192522e-13)
(0 2.171296342e-14 1.51660245e-13)
(0 2.331821039e-14 1.368469012e-13)
(0 2.357957672e-14 1.243498469e-13)
(0 2.283942974e-14 1.138407435e-13)
(0 2.135101901e-14 1.0505217e-13)
(0 1.930608353e-14 9.776716232e-14)
(0 1.685590646e-14 9.181053189e-14)
(0 1.411456643e-14 8.704170583e-14)
(0 1.117754579e-14 8.335030132e-14)
(0 8.0651284e-15 8.065043388e-14)
(0 4.888623831e-15 7.888601719e-14)
(0 1.659666147e-15 7.800919314e-14)
(0 7.681788443e-11 -6.467221129e-12)
(0 7.909757504e-11 -1.93442422e-11)
(0 8.300854906e-11 -3.21461973e-11)
(0 8.865002705e-11 -4.485368741e-11)
(0 9.613576718e-11 -5.735648071e-11)
(0 1.054802705e-10 -6.935866621e-11)
(0 1.164705919e-10 -8.028859743e-11)
(0 1.284652232e-10 -8.918675618e-11)
(0 1.400594068e-10 -9.456705844e-11)
(0 1.484810317e-10 -9.426768251e-11)
(0 1.4839262e-10 -8.534224804e-11)
(0 1.293875907e-10 -6.417401072e-11)
(0 7.043960469e-11 -2.740590912e-11)
(0 -6.15807156e-11 2.292783013e-11)
(0 -3.490674761e-10 8.610068747e-11)
(0 -8.770825274e-12 -1.055703028e-11)
(0 -9.94273217e-12 2.339498505e-12)
(0 -5.038159798e-13 1.899967531e-12)
(0 1.366631485e-12 1.127029218e-12)
(0 1.552901059e-12 2.000365422e-12)
(0 1.914546939e-12 2.483015842e-12)
(0 2.131807346e-12 2.384912681e-12)
(0 2.125745581e-12 2.44150458e-12)
(0 2.305419116e-12 2.83246282e-12)
(0 3.096330702e-12 3.296041112e-12)
(0 4.397862999e-12 2.874377026e-12)
(0 5.36398392e-12 1.081707664e-12)
(0 4.619489553e-12 -1.889478808e-12)
(0 -6.810187769e-12 -1.166935296e-11)
(0 -9.696210796e-12 1.225717554e-11)
(0 -4.364029174e-12 -1.406873158e-11)
(0 -5.742200379e-12 -4.319045449e-12)
(0 -4.067015131e-12 -1.101992495e-12)
(0 -2.664224153e-12 1.800283638e-14)
(0 -1.757811752e-12 4.066697308e-13)
(0 -1.188303875e-12 5.219053121e-13)
(0 -8.216906424e-13 5.308098616e-13)
(0 -5.77259274e-13 4.990060114e-13)
(0 -4.089484212e-13 4.536206442e-13)
(0 -2.9008194e-13 4.060909512e-13)
(0 -2.046067094e-13 3.611146983e-13)
(0 -1.424202136e-13 3.204092709e-13)
(0 -9.688743723e-14 2.843709996e-13)
(0 -6.348803077e-14 2.528302366e-13)
(0 -3.905020976e-14 2.253987739e-13)
(0 -2.129718911e-14 2.016283022e-13)
(0 -8.56612797e-15 1.810801208e-13)
(0 3.737330798e-16 1.633532277e-13)
(0 6.443147169e-15 1.480930866e-13)
(0 1.033627569e-14 1.349917715e-13)
(0 1.257770581e-14 1.23784663e-13)
(0 1.356266738e-14 1.142463124e-13)
(0 1.358933833e-14 1.06186501e-13)
(0 1.28874156e-14 9.944632364e-14)
(0 1.163917479e-14 9.389412529e-14)
(0 9.991950426e-15 8.942186525e-14)
(0 8.039567395e-15 8.59423258e-14)
(0 5.905382562e-15 8.338987416e-14)
(0 3.598634534e-15 8.171157582e-14)
(0 1.190255941e-15 8.088146721e-14)
(0 6.332957776e-11 -7.520360956e-12)
(0 6.553533187e-11 -2.238969647e-11)
(0 6.925712695e-11 -3.720690371e-11)
(0 7.468927596e-11 -5.21552156e-11)
(0 8.205837807e-11 -6.728446906e-11)
(0 9.153747172e-11 -8.239579301e-11)
(0 1.031569643e-10 -9.693763013e-11)
(0 1.16684211e-10 -1.098538698e-10)
(0 1.314704709e-10 -1.193725732e-10)
(0 1.463062534e-10 -1.227438276e-10)
(0 1.59404603e-10 -1.159480846e-10)
(0 1.68808606e-10 -9.353002619e-11)
(0 1.71735651e-10 -4.981699055e-11)
(0 1.798130979e-10 7.65346333e-12)
(0 1.431835699e-11 9.715932311e-25)
(0 1.822556311e-11 -1.070300907e-11)
(0 5.394925685e-12 -2.840322896e-12)
(0 2.674157352e-12 3.606625666e-13)
(0 2.259035885e-12 1.20998562e-12)
(0 2.143319399e-12 1.846252701e-12)
(0 2.179046711e-12 2.239532798e-12)
(0 2.222721958e-12 2.367317254e-12)
(0 2.256684231e-12 2.431064235e-12)
(0 2.426989536e-12 2.492941788e-12)
(0 2.861703767e-12 2.409822445e-12)
(0 3.45833606e-12 1.86162818e-12)
(0 3.837420245e-12 7.482259467e-13)
(0 3.586287441e-12 -5.614743884e-13)
(0 2.935713197e-12 -9.189666155e-13)
(0 5.119604562e-12 2.206805115e-12)
(0 3.883410776e-12 -8.116625194e-12)
(0 -7.850802629e-13 -4.226002991e-12)
(0 -1.762233107e-12 -1.893253875e-12)
(0 -1.661703778e-12 -6.939708295e-13)
(0 -1.337426151e-12 -1.118942168e-13)
(0 -1.024805808e-12 1.584832302e-13)
(0 -7.720658996e-13 2.749908103e-13)
(0 -5.77806456e-13 3.16214622e-13)
(0 -4.306925533e-13 3.21041193e-13)
(0 -3.196442122e-13 3.087921675e-13)
(0 -2.358051259e-13 2.891289617e-13)
(0 -1.724654613e-13 2.66900581e-13)
(0 -1.246100734e-13 2.445299208e-13)
(0 -8.849350032e-14 2.232009065e-13)
(0 -6.130959979e-14 2.034567558e-13)
(0 -4.094692073e-14 1.855062977e-13)
(0 -2.580948055e-14 1.693836362e-13)
(0 -1.468511399e-14 1.550330608e-13)
(0 -6.648492703e-15 1.423550721e-13)
(0 -9.902133038e-16 1.312317171e-13)
(0 2.834117575e-15 1.21540848e-13)
(0 5.241267778e-15 1.13164494e-13)
(0 6.551030225e-15 1.059938244e-13)
(0 7.013707779e-15 9.993158024e-14)
(0 6.83144808e-15 9.489258201e-14)
(0 6.16276691e-15 9.080345918e-14)
(0 5.145554696e-15 8.760336793e-14)
(0 3.834378425e-15 8.524303151e-14)
(0 2.380216876e-15 8.369088096e-14)
(0 8.295575399e-16 8.2917046e-14)
(0 4.831738031e-11 -8.732835752e-12)
(0 5.028434012e-11 -2.553585783e-11)
(0 5.344886091e-11 -4.218624653e-11)
(0 5.815960256e-11 -5.926603166e-11)
(0 6.475218896e-11 -7.707984028e-11)
(0 7.353099521e-11 -9.560630727e-11)
(0 8.472738902e-11 -1.14434513e-10)
(0 9.842569979e-11 -1.326211937e-10)
(0 1.144611238e-10 -1.485089808e-10)
(0 1.323619943e-10 -1.596261624e-10)
(0 1.51581331e-10 -1.629048276e-10)
(0 1.7273672e-10 -1.554848122e-10)
(0 1.984599082e-10 -1.356716977e-10)
(0 2.574133805e-10 -9.564315714e-11)
(0 9.421602367e-12 -2.79350185e-24)
(0 1.326423908e-11 5.286744355e-12)
(0 5.871715287e-12 1.392036463e-12)
(0 3.546492549e-12 1.17280569e-12)
(0 2.852221622e-12 1.505752918e-12)
(0 2.582448239e-12 1.93481477e-12)
(0 2.435611493e-12 2.261193761e-12)
(0 2.323338783e-12 2.413424485e-12)
(0 2.251370116e-12 2.42221371e-12)
(0 2.284177327e-12 2.2982929e-12)
(0 2.465017093e-12 1.988874892e-12)