/*--------------------------------*- C++ -*----------------------------------*\
  =========                 |
  \\      /  F ield         | OpenFOAM: The Open Source CFD Toolbox
   \\    /   O peration     | Website:  https://openfoam.org
    \\  /    A nd           | Version:  6
     \\/     M anipulation  |
\*---------------------------------------------------------------------------*/
FoamFile
{
    version     2.0;
    format      ascii;
    class       volVectorField;
    location    "0.0035";
    object      gradT;
}
// * * * * * * * * * * * * * * * * * * * * * * * * * * * * * * * * * * * * * //

dimensions      [0 -1 0 1 0 0 0];

internalField   nonuniform List<vector> 
9600
(
(0 1.328740563e-05 -0.0002169590156)
(0 3.869585486e-05 -0.0002124460369)
(0 6.221372195e-05 -0.0002040794564)
(0 8.295289981e-05 -0.0001928655874)
(0 0.0001005627205 -0.0001798945593)
(0 0.0001150660359 -0.0001660697005)
(0 0.0001267068095 -0.0001520923865)
(0 0.0001358014103 -0.0001384581292)
(0 0.0001427614717 -0.0001254642122)
(0 0.0001479071968 -0.0001132898078)
(0 0.0001515549532 -0.0001020111469)
(0 0.0001539753408 -9.163964606e-05)
(0 0.0001553780273 -8.216770028e-05)
(0 0.0001559497839 -7.356100306e-05)
(0 0.0001558392367 -6.574711983e-05)
(0 0.0001551569517 -5.868032406e-05)
(0 0.0001539982199 -5.230725141e-05)
(0 0.0001524697397 -4.655547114e-05)
(0 0.0001506210903 -4.138306453e-05)
(0 0.0001485018228 -3.671760933e-05)
(0 0.0001461652736 -3.252860575e-05)
(0 0.0001436533974 -2.876269733e-05)
(0 0.0001409890638 -2.538557855e-05)
(0 0.0001382141754 -2.234769341e-05)
(0 0.0001353440043 -1.962236494e-05)
(0 0.0001323899849 -1.718291112e-05)
(0 0.0001293902099 -1.500264732e-05)
(0 0.0001263485146 -1.304727179e-05)
(0 0.0001232763335 -1.129772595e-05)
(0 0.0001201927027 -9.731137859e-06)
(0 0.0001171090793 -8.328451321e-06)
(0 0.0001140178395 -7.085854432e-06)
(0 0.0001109494559 -5.969041084e-06)
(0 0.0001078887023 -4.966577607e-06)
(0 0.0001048660716 -4.093710414e-06)
(0 0.0001018586749 -3.308510639e-06)
(0 9.889321259e-05 -2.610979018e-06)
(0 9.596968418e-05 -1.997303778e-06)
(0 9.309188403e-05 -1.448426317e-06)
(0 9.025601777e-05 -9.757819396e-07)
(0 8.745827323e-05 -5.526890224e-07)
(0 8.471388128e-05 -1.867707619e-07)
(0 8.20266693e-05 1.372193353e-07)
(0 7.938901351e-05 4.154696789e-07)
(0 7.681233456e-05 6.556034907e-07)
(0 7.42852118e-05 8.728674382e-07)
(0 7.181526808e-05 1.052014967e-06)
(0 6.940249046e-05 1.200669184e-06)
(0 6.703926857e-05 1.334076871e-06)
(0 6.473703694e-05 1.436991458e-06)
(0 6.248816062e-05 1.528470929e-06)
(0 6.030789785e-05 1.600892245e-06)
(0 5.818481329e-05 1.654255419e-06)
(0 5.610746153e-05 1.692371802e-06)
(0 5.407966469e-05 1.726676635e-06)
(0 5.212048064e-05 1.74954663e-06)
(0 5.021465341e-05 1.757169821e-06)
(0 4.836600403e-05 1.764793117e-06)
(0 4.657072052e-05 1.757169926e-06)
(0 4.482498285e-05 1.745734876e-06)
(0 4.312117611e-05 1.730488284e-06)
(0 4.147835822e-05 1.703806848e-06)
(0 3.988508678e-05 1.677125209e-06)
(0 3.833374596e-05 1.650443671e-06)
(0 3.683958208e-05 1.623762231e-06)
(0 3.53949652e-05 1.5894573e-06)
(0 3.400371361e-05 1.555152466e-06)
(0 3.264295716e-05 1.517036075e-06)
(0 3.133937151e-05 1.478919502e-06)
(0 3.007390431e-05 1.429368076e-06)
(0 2.885417862e-05 1.395063326e-06)
(0 2.767256594e-05 1.35694676e-06)
(0 2.653669478e-05 1.311206981e-06)
(0 2.544275327e-05 1.269278927e-06)
(0 2.438311355e-05 1.231162369e-06)
(0 2.336540348e-05 1.185422591e-06)
(0 2.238199958e-05 1.147306178e-06)
(0 2.143670949e-05 1.105377978e-06)
(0 2.052953721e-05 1.067261496e-06)
(0 1.964142436e-05 1.025333428e-06)
(0 1.880286058e-05 9.757819396e-07)
(0 1.799860281e-05 9.45288754e-07)
(0 1.721721596e-05 9.03360678e-07)
(0 1.647775518e-05 8.652441418e-07)
(0 1.576116531e-05 8.271276598e-07)
(0 1.507125789e-05 7.890112251e-07)
(0 1.44156535e-05 7.547063439e-07)
(0 1.378673155e-05 7.204015101e-07)
(0 1.317686862e-05 6.860967175e-07)
(0 1.26051206e-05 6.517918425e-07)
(0 1.205624326e-05 6.289219533e-07)
(0 1.153404815e-05 5.984288036e-07)
(0 1.102709825e-05 5.717472302e-07)
(0 1.055445387e-05 5.412540446e-07)
(0 1.00894334e-05 5.145725381e-07)
(0 9.662528191e-06 4.840793216e-07)
(0 9.258493482e-06 4.612094324e-07)
(0 8.865894249e-06 4.345279211e-07)
(0 8.503787138e-06 4.116580058e-07)
(0 8.156927152e-06 3.849764684e-07)
(0 7.825314228e-06 3.621066009e-07)
(0 7.516570254e-06 3.354250417e-07)
(0 7.234508287e-06 3.163668007e-07)
(0 6.952446737e-06 2.934969291e-07)
(0 6.704689187e-06 2.706270223e-07)
(0 6.468366998e-06 2.515687813e-07)
(0 6.247291777e-06 2.325105543e-07)
(0 6.045274048e-06 2.134522993e-07)
(0 5.858503286e-06 1.943940583e-07)
(0 5.686979458e-06 1.791474762e-07)
(0 5.538324837e-06 1.639008727e-07)
(0 5.397293854e-06 1.448426317e-07)
(0 5.279133076e-06 1.219727498e-07)
(0 5.180029906e-06 1.029145014e-07)
(0 5.080927053e-06 8.385626044e-08)
(0 5.000882741e-06 6.860967175e-08)
(0 4.936084421e-06 5.336307482e-08)
(0 4.897967939e-06 3.811648202e-08)
(0 4.867475046e-06 2.286989058e-08)
(0 4.852228161e-06 7.623296403e-09)
(0 1.591363115e-05 -0.0002512486014)
(0 4.611332243e-05 -0.0002448907869)
(0 7.340090898e-05 -0.0002333834063)
(0 9.662146968e-05 -0.0002184493688)
(0 0.0001155386865 -0.0002017124337)
(0 0.0001304269774 -0.0001844227855)
(0 0.0001417933123 -0.0001674342695)
(0 0.0001502208754 -0.0001512576438)
(0 0.0001562737637 -0.0001361558846)
(0 0.0001604132136 -0.0001222548037)
(0 0.0001630318257 -0.0001095505869)
(0 0.0001644345024 -9.802034457e-05)
(0 0.000164872842 -8.759929844e-05)
(0 0.0001645412385 -7.819977873e-05)
(0 0.0001635921282 -6.973029178e-05)
(0 0.0001621437019 -6.211461872e-05)
(0 0.0001602950621 -5.526890191e-05)
(0 0.000158133848 -4.912833338e-05)
(0 0.0001557096398 -4.360525517e-05)
(0 0.0001530758 -3.86615498e-05)
(0 0.0001502704178 -3.42095424e-05)
(0 0.0001473354487 -3.023399335e-05)
(0 0.0001443013854 -2.665485731e-05)
(0 0.0001411834485 -2.345307124e-05)
(0 0.0001380007223 -2.058671181e-05)
(0 0.0001347722644 -1.801003873e-05)
(0 0.0001315247321 -1.570780214e-05)
(0 0.0001282505263 -1.364951213e-05)
(0 0.0001249839513 -1.180848677e-05)
(0 0.0001217173613 -1.016947734e-05)
(0 0.0001184660254 -8.690557848e-06)
(0 0.0001152337547 -7.386974614e-06)
(0 0.0001120319633 -6.21679818e-06)
(0 0.0001088568603 -5.176218227e-06)
(0 0.0001057160686 -4.246176326e-06)
(0 0.0001026210039 -3.430483361e-06)
(0 9.956787373e-05 -2.698646911e-06)
(0 9.656048911e-05 -2.054478492e-06)
(0 9.361789092e-05 -1.48654279e-06)
(0 9.071341501e-05 -9.872168783e-07)
(0 8.785849579e-05 -5.450657223e-07)
(0 8.507598735e-05 -1.600892235e-07)
(0 8.233922396e-05 1.829591126e-07)
(0 7.965582842e-05 4.726444025e-07)
(0 7.704865629e-05 7.24213154e-07)
(0 7.448722871e-05 9.529120447e-07)
(0 7.198298018e-05 1.135871225e-06)
(0 6.954352102e-05 1.292148733e-06)
(0 6.716124091e-05 1.425556419e-06)
(0 6.483995106e-05 1.536094308e-06)
(0 6.257582815e-05 1.631385421e-06)
(0 6.037650715e-05 1.711430032e-06)
(0 5.822292942e-05 1.768604861e-06)
(0 5.614176603e-05 1.806721237e-06)
(0 5.411396919e-05 1.833402774e-06)
(0 5.213572692e-05 1.852461126e-06)
(0 5.02222764e-05 1.867707608e-06)
(0 4.836219209e-05 1.867707608e-06)
(0 4.65592853e-05 1.860084423e-06)
(0 4.480973599e-05 1.848649367e-06)
(0 4.310211761e-05 1.825779478e-06)
(0 4.144786478e-05 1.802909697e-06)
(0 3.985459336e-05 1.772416403e-06)
(0 3.83070642e-05 1.745734866e-06)
(0 3.681290032e-05 1.711430135e-06)
(0 3.536066015e-05 1.677125199e-06)
(0 3.396178527e-05 1.639008717e-06)
(0 3.260484048e-05 1.600892331e-06)
(0 3.130125484e-05 1.558964105e-06)
(0 3.00243527e-05 1.517035975e-06)
(0 2.881225031e-05 1.467484637e-06)
(0 2.76344493e-05 1.425556419e-06)
(0 2.649857814e-05 1.383628289e-06)
(0 2.539320169e-05 1.341700239e-06)
(0 2.434499692e-05 1.295960381e-06)
(0 2.332728685e-05 1.250220603e-06)
(0 2.233244802e-05 1.204480897e-06)
(0 2.139478123e-05 1.162552695e-06)
(0 2.048760896e-05 1.120624565e-06)
(0 1.959949611e-05 1.071073203e-06)
(0 1.876474398e-05 1.040579953e-06)
(0 1.795667457e-05 9.910285265e-07)
(0 1.717909937e-05 9.529121019e-07)
(0 1.64320153e-05 9.147955629e-07)
(0 1.572304874e-05 8.690557848e-07)
(0 1.503314132e-05 8.347510012e-07)
(0 1.438516023e-05 7.966344694e-07)
(0 1.374861498e-05 7.585179876e-07)
(0 1.314637536e-05 7.280248458e-07)
(0 1.257462734e-05 6.937199685e-07)
(0 1.202575e-05 6.594151349e-07)
(0 1.149974325e-05 6.289219872e-07)
(0 1.100041664e-05 5.946171159e-07)
(0 1.052396062e-05 5.679355786e-07)
(0 1.006656344e-05 5.374424255e-07)
(0 9.635846596e-06 5.145725041e-07)
(0 9.231811889e-06 4.878909669e-07)
(0 8.846835954e-06 4.650211057e-07)
(0 8.47710555e-06 4.345278924e-07)
(0 8.130245565e-06 4.116580033e-07)
(0 7.80244429e-06 3.849764892e-07)
(0 7.489888671e-06 3.659182252e-07)
(0 7.207826706e-06 3.354250397e-07)
(0 6.933388453e-06 3.125551694e-07)
(0 6.685630906e-06 2.934969098e-07)
(0 6.44549707e-06 2.706270207e-07)
(0 6.228233498e-06 2.515687949e-07)
(0 6.022404122e-06 2.286988907e-07)
(0 5.83944501e-06 2.058290017e-07)
(0 5.667921182e-06 1.86770772e-07)
(0 5.519266563e-06 1.71524168e-07)
(0 5.382047228e-06 1.48654279e-07)
(0 5.260074802e-06 1.295960459e-07)
(0 5.157159986e-06 1.06726149e-07)
(0 5.061868781e-06 9.147955629e-08)
(0 4.985636117e-06 7.242131974e-08)
(0 4.928461095e-06 5.717472268e-08)
(0 4.875098021e-06 3.811648179e-08)
(0 4.852228423e-06 2.668153885e-08)
(0 4.836981539e-06 7.623296358e-09)
(0 1.96757279e-05 -0.0002919417573)
(0 5.655723907e-05 -0.0002825384382)
(0 8.865512499e-05 -0.0002661750156)
(0 0.000114623884 -0.0002458818007)
(0 0.0001345854936 -0.0002241211147)
(0 0.0001493441873 -0.0002025281143)
(0 0.0001598719596 -0.0001820138238)
(0 0.0001670797963 -0.0001630165791)
(0 0.0001717681135 -0.00014569644)
(0 0.0001745125002 -0.000130030566)
(0 0.0001757817896 -0.0001159579679)
(0 0.0001759304333 -0.0001033299705)
(0 0.0001752100318 -9.202843363e-05)
(0 0.000173814979 -8.191232428e-05)
(0 0.0001719205795 -7.287490153e-05)
(0 0.0001696107207 -6.479039574e-05)
(0 0.0001669883167 -5.75520793e-05)
(0 0.0001641371939 -5.107227395e-05)
(0 0.000161091687 -4.527475707e-05)
(0 0.0001578937236 -4.00871063e-05)
(0 0.0001545966385 -3.544070477e-05)
(0 0.0001512118949 -3.127076166e-05)
(0 0.0001477661738 -2.754678304e-05)
(0 0.0001442823185 -2.421540088e-05)
(0 0.0001407832255 -2.123088036e-05)
(0 0.0001372650825 -1.856272774e-05)
(0 0.0001337507346 -1.616519993e-05)
(0 0.0001302478299 -1.403448859e-05)
(0 0.0001267601794 -1.212485358e-05)
(0 0.0001233106302 -1.041723447e-05)
(0 0.0001198877702 -8.900198497e-06)
(0 0.0001164954103 -7.53944055e-06)
(0 0.0001131563995 -6.331147625e-06)
(0 0.0001098631355 -5.256262839e-06)
(0 0.0001066041827 -4.303351052e-06)
(0 0.0001034138267 -3.449541602e-06)
(0 0.0001002654053 -2.702458559e-06)
(0 9.718559945e-05 -2.03542025e-06)
(0 9.415914496e-05 -1.44461466e-06)
(0 9.119368268e-05 -9.300421556e-07)
(0 8.828540041e-05 -4.726444025e-07)
(0 8.544190558e-05 -7.623296358e-08)
(0 8.265940241e-05 2.744386689e-07)
(0 7.99378904e-05 5.793705579e-07)
(0 7.728879012e-05 8.423742475e-07)
(0 7.469305771e-05 1.063449842e-06)
(0 7.2158316e-05 1.250220678e-06)
(0 6.968836365e-05 1.410309826e-06)
(0 6.72870253e-05 1.547529161e-06)
(0 6.494286557e-05 1.665690354e-06)
(0 6.266349606e-05 1.75716981e-06)
(0 6.044130517e-05 1.833402774e-06)
(0 5.827248085e-05 1.886765962e-06)
(0 5.617607086e-05 1.928693978e-06)
(0 5.413302744e-05 1.959187164e-06)
(0 5.214716186e-05 1.974433875e-06)
(0 5.023371135e-05 1.985868701e-06)
(0 4.836219209e-05 1.985868701e-06)
(0 4.654785035e-05 1.978245523e-06)
(0 4.479067775e-05 1.959187164e-06)
(0 4.307924772e-05 1.940128923e-06)
(0 4.142118324e-05 1.913447501e-06)
(0 3.982410017e-05 1.8829542e-06)
(0 3.827657101e-05 1.844837719e-06)
(0 3.677478384e-05 1.814344642e-06)
(0 3.532635532e-05 1.780039699e-06)
(0 3.391985714e-05 1.73811157e-06)
(0 3.256672399e-05 1.688560245e-06)
(0 3.125170342e-05 1.642820365e-06)
(0 2.998623622e-05 1.600892235e-06)
(0 2.876269888e-05 1.55515255e-06)
(0 2.758489787e-05 1.505601031e-06)
(0 2.645283836e-05 1.459861252e-06)
(0 2.535508521e-05 1.414121559e-06)
(0 2.429163384e-05 1.368381696e-06)
(0 2.328154708e-05 1.315018622e-06)
(0 2.229433154e-05 1.273090568e-06)
(0 2.13452298e-05 1.223539065e-06)
(0 2.043805753e-05 1.177799287e-06)
(0 1.956137963e-05 1.132059577e-06)
(0 1.872281585e-05 1.086319731e-06)
(0 1.791855809e-05 1.044391601e-06)
(0 1.713717124e-05 1.00627518e-06)
(0 1.639008717e-05 9.643469892e-07)
(0 1.568112061e-05 9.186072111e-07)
(0 1.499121319e-05 8.766791337e-07)
(0 1.43432321e-05 8.385625993e-07)
(0 1.37181218e-05 8.004461175e-07)
(0 1.311588217e-05 7.623296815e-07)
(0 1.254032251e-05 7.356480985e-07)
(0 1.199144517e-05 6.975316167e-07)
(0 1.146543841e-05 6.632268229e-07)
(0 1.096992346e-05 6.327335977e-07)
(0 1.049727908e-05 5.984287641e-07)
(0 1.003607026e-05 5.679356127e-07)
(0 9.612976707e-06 5.450656896e-07)
(0 9.201318704e-06 5.10760856e-07)
(0 8.816342767e-06 4.802676993e-07)
(0 8.450424012e-06 4.535861333e-07)
(0 8.103564028e-06 4.26904596e-07)
(0 7.7795744e-06 4.002230828e-07)
(0 7.47083043e-06 3.773531697e-07)
(0 7.181145169e-06 3.544832806e-07)
(0 6.910518563e-06 3.27801763e-07)
(0 6.662761017e-06 3.087435025e-07)
(0 6.422627181e-06 2.858736134e-07)
(0 6.205363607e-06 2.591920917e-07)
(0 6.00715753e-06 2.363221871e-07)
(0 5.816575121e-06 2.248872425e-07)
(0 5.64886294e-06 1.982057172e-07)
(0 5.500208322e-06 1.791474644e-07)
(0 5.359177339e-06 1.600892235e-07)
(0 5.24101656e-06 1.448426395e-07)
(0 5.134290097e-06 1.219727417e-07)
(0 5.046622189e-06 9.529120447e-08)
(0 4.970389523e-06 8.004461656e-08)
(0 4.909402854e-06 6.479801904e-08)
(0 4.863663076e-06 4.955142632e-08)
(0 4.833170181e-06 2.668153885e-08)
(0 4.817923298e-06 7.623296358e-09)
(0 2.535127219e-05 -0.0003420839912)
(0 7.188387775e-05 -0.0003272071479)
(0 0.0001100575302 -0.0003029574224)
(0 0.0001386715732 -0.0002748274586)
(0 0.0001588885648 -0.000246423071)
(0 0.0001725342558 -0.0002195928645)
(0 0.00018130867 -0.0001951106481)
(0 0.0001865382625 -0.0001731403183)
(0 0.0001892597682 -0.0001535941759)
(0 0.0001901516938 -0.0001362740465)
(0 0.0001897324239 -0.0001209321697)
(0 0.0001883640308 -0.000107339825)
(0 0.0001862828709 -9.529120504e-05)
(0 0.0001836909612 -8.459572526e-05)
(0 0.0001807254878 -7.508184628e-05)
(0 0.0001774665286 -6.661998727e-05)
(0 0.0001740131858 -5.907292737e-05)
(0 0.0001704111678 -5.234155311e-05)
(0 0.0001666948108 -4.633439554e-05)
(0 0.0001629098539 -4.097140898e-05)
(0 0.0001590829493 -3.617254143e-05)
(0 0.000155229373 -3.188443721e-05)
(0 0.0001513567475 -2.80499208e-05)
(0 0.0001475031621 -2.461943573e-05)
(0 0.0001436533974 -2.155105893e-05)
(0 0.0001398341343 -1.881429665e-05)
(0 0.0001360529709 -1.636340573e-05)
(0 0.0001323023091 -1.417170801e-05)
(0 0.0001285935831 -1.222014487e-05)
(0 0.0001249420164 -1.047440926e-05)
(0 0.0001213438205 -8.92306844e-06)
(0 0.0001177989947 -7.535628947e-06)
(0 0.0001143151412 -6.296842829e-06)
(0 0.0001108922811 -5.199088147e-06)
(0 0.0001075227906 -4.223306461e-06)
(0 0.0001042180851 -3.358062066e-06)
(0 0.0001009858075 -2.591920777e-06)
(0 9.781833367e-05 -1.913447512e-06)
(0 9.471945781e-05 -1.31501863e-06)
(0 9.168919749e-05 -7.851995295e-07)
(0 8.871230557e-05 -3.27801765e-07)
(0 8.581925926e-05 7.623296403e-08)
(0 8.298720465e-05 4.269045986e-07)
(0 8.022757616e-05 7.356481471e-07)
(0 7.752892442e-05 9.948401806e-07)
(0 7.489888716e-05 1.215915776e-06)
(0 7.233365226e-05 1.406498271e-06)
(0 6.983701835e-05 1.570399059e-06)
(0 6.741281009e-05 1.707618394e-06)
(0 6.504578046e-05 1.814344653e-06)
(0 6.274354105e-05 1.909635749e-06)
(0 6.051372685e-05 1.978245417e-06)
(0 5.832203263e-05 2.035420262e-06)
(0 5.621037603e-05 2.073536622e-06)
(0 5.41597093e-05 2.104029807e-06)
(0 5.216240877e-05 2.123088176e-06)
(0 5.02299e-05 2.123088048e-06)
(0 4.835838073e-05 2.1192764e-06)
(0 4.653260404e-05 2.107841582e-06)
(0 4.476780813e-05 2.084971566e-06)
(0 4.305637809e-05 2.058290029e-06)
(0 4.139069031e-05 2.031608613e-06)
(0 3.978979558e-05 2.001115306e-06)
(0 3.824226641e-05 1.966810472e-06)
(0 3.673666757e-05 1.921070809e-06)
(0 3.52844274e-05 1.879142563e-06)
(0 3.387411757e-05 1.829591137e-06)
(0 3.251336111e-05 1.787663114e-06)
(0 3.120977548e-05 1.734299932e-06)
(0 2.994430827e-05 1.688560153e-06)
(0 2.871314763e-05 1.642820473e-06)
(0 2.753534661e-05 1.5894573e-06)
(0 2.640328709e-05 1.536094225e-06)
(0 2.530553393e-05 1.486542888e-06)
(0 2.424589421e-05 1.433179724e-06)
(0 2.323199579e-05 1.387439945e-06)
(0 2.224096859e-05 1.334076951e-06)
(0 2.129949015e-05 1.284525444e-06)
(0 2.038850623e-05 1.231162369e-06)
(0 1.951563996e-05 1.18923431e-06)
(0 1.868088784e-05 1.14349446e-06)
(0 1.787281842e-05 1.093943034e-06)
(0 1.709143156e-05 1.048203318e-06)
(0 1.634815914e-05 1.002463477e-06)
(0 1.563919257e-05 9.605353468e-07)
(0 1.495690844e-05 9.186072717e-07)
(0 1.430130405e-05 8.804907346e-07)
(0 1.36800054e-05 8.385626044e-07)
(0 1.308157741e-05 8.042578188e-07)
(0 1.25022061e-05 7.661412885e-07)
(0 1.196095206e-05 7.280248065e-07)
(0 1.143113364e-05 6.975316628e-07)
(0 1.093561869e-05 6.556034907e-07)
(0 1.046297431e-05 6.289219533e-07)
(0 1.000557713e-05 5.946171551e-07)
(0 9.582483579e-06 5.565006374e-07)
(0 9.170825573e-06 5.298191e-07)
(0 8.785849632e-06 4.993259444e-07)
(0 8.423742526e-06 4.72644377e-07)
(0 8.080694188e-06 4.421511914e-07)
(0 7.752892907e-06 4.154696789e-07)
(0 7.444148938e-06 3.925997648e-07)
(0 7.154463675e-06 3.621065792e-07)
(0 6.891460362e-06 3.430483587e-07)
(0 6.639891167e-06 3.125551525e-07)
(0 6.399757331e-06 2.934969115e-07)
(0 6.182493754e-06 2.74438687e-07)
(0 5.980476028e-06 2.515687813e-07)
(0 5.801328563e-06 2.286988921e-07)
(0 5.629804732e-06 2.096406637e-07)
(0 5.477338466e-06 1.829591137e-07)
(0 5.343930779e-06 1.639008727e-07)
(0 5.214335053e-06 1.410309919e-07)
(0 5.115231887e-06 1.181610943e-07)
(0 5.027563978e-06 1.067261496e-07)
(0 4.947519663e-06 8.76679139e-08)
(0 4.894156291e-06 6.479801943e-08)
(0 4.844604864e-06 4.573977842e-08)
(0 4.810300319e-06 2.668153901e-08)
(0 4.802676734e-06 7.623296403e-09)
(0 3.458689557e-05 -0.0004071602585)
(0 9.568380997e-05 -0.0003813477999)
(0 0.0001410386059 -0.000343688693)
(0 0.0001711582498 -0.0003041275965)
(0 0.0001898239023 -0.0002672079883)
(0 0.0002006527834 -0.0002343896815)
(0 0.0002063168926 -0.000205748957)
(0 0.0002085962707 -0.0001809046451)
(0 0.0002086381864 -0.0001593345172)
(0 0.0002071783251 -0.0001405735848)
(0 0.0002047198243 -0.0001241873168)
(0 0.000201567579 -0.0001098402656)
(0 0.0001979541365 -9.72237101e-05)
(0 0.0001940243389 -8.610132588e-05)
(0 0.0001898925006 -7.626345676e-05)
(0 0.0001856234547 -6.753859408e-05)
(0 0.0001812667517 -5.979332857e-05)
(0 0.0001768719104 -5.290948837e-05)
(0 0.0001724618335 -4.67727348e-05)
(0 0.0001680555783 -4.12915872e-05)
(0 0.0001636836077 -3.64088634e-05)
(0 0.0001593345172 -3.204833789e-05)
(0 0.0001550311757 -2.815283514e-05)
(0 0.0001507811787 -2.467279866e-05)
(0 0.0001465883657 -2.156249375e-05)
(0 0.0001424565476 -1.878380335e-05)
(0 0.0001383856988 -1.630241926e-05)
(0 0.0001343910915 -1.408785167e-05)
(0 0.00013046129 -1.210579534e-05)
(0 0.0001266077059 -1.034100151e-05)
(0 0.0001228303626 -8.766790811e-06)
(0 0.0001191254477 -7.364104723e-06)
(0 0.0001154891282 -6.121506975e-06)
(0 0.0001119328604 -5.012317355e-06)
(0 0.0001084452088 -4.032724015e-06)
(0 0.0001050414005 -3.163667988e-06)
(0 0.00010171002 -2.393715056e-06)
(0 9.846250166e-05 -1.711430135e-06)
(0 9.528358117e-05 -1.113001268e-06)
(0 9.218852285e-05 -5.831821714e-07)
(0 8.914683295e-05 -1.21972749e-07)
(0 8.620042356e-05 2.858736134e-07)
(0 8.331881754e-05 6.327335977e-07)
(0 8.050582601e-05 9.414771566e-07)
(0 7.777286944e-05 1.200669176e-06)
(0 7.510471571e-05 1.421744771e-06)
(0 7.250898766e-05 1.608515628e-06)
(0 6.999329551e-05 1.768604755e-06)
(0 6.753478243e-05 1.905824089e-06)
(0 6.514107128e-05 2.012550359e-06)
(0 6.282739693e-05 2.09259485e-06)
(0 6.056327791e-05 2.157392869e-06)
(0 5.837158371e-05 2.210756076e-06)
(0 5.624849217e-05 2.245060777e-06)
(0 5.417876721e-05 2.275553963e-06)
(0 5.217003175e-05 2.283177396e-06)
(0 5.022608805e-05 2.283177259e-06)
(0 4.83469455e-05 2.271742315e-06)
(0 4.651735716e-05 2.256495857e-06)
(0 4.474112632e-05 2.229814185e-06)
(0 4.302588464e-05 2.203132647e-06)
(0 4.136019687e-05 2.161204647e-06)
(0 3.97554905e-05 2.130711332e-06)
(0 3.81965264e-05 2.084971554e-06)
(0 3.669473922e-05 2.043043546e-06)
(0 3.523487576e-05 1.989680349e-06)
(0 3.382837759e-05 1.943940571e-06)
(0 3.246380949e-05 1.894389259e-06)
(0 3.115641221e-05 1.84102607e-06)
(0 2.989475667e-05 1.787662996e-06)
(0 2.865978438e-05 1.734300025e-06)
(0 2.748579502e-05 1.680936847e-06)
(0 2.634992386e-05 1.631385421e-06)
(0 2.52521707e-05 1.570399144e-06)
(0 2.419634264e-05 1.520847623e-06)
(0 2.317482093e-05 1.467484549e-06)
(0 2.219141703e-05 1.410309911e-06)
(0 2.12499386e-05 1.356946752e-06)
(0 2.034276633e-05 1.311206974e-06)
(0 1.946608842e-05 1.257843974e-06)
(0 1.86313363e-05 1.204480824e-06)
(0 1.781945524e-05 1.154929398e-06)
(0 1.704569168e-05 1.105378038e-06)
(0 1.630623091e-05 1.059638194e-06)
(0 1.559726435e-05 1.013898416e-06)
(0 1.491116857e-05 9.719703439e-07)
(0 1.426318749e-05 9.262305074e-07)
(0 1.364188883e-05 8.919256738e-07)
(0 1.30396492e-05 8.499975949e-07)
(0 1.246408954e-05 8.042577657e-07)
(0 1.19228355e-05 7.661412839e-07)
(0 1.139682874e-05 7.242131974e-07)
(0 1.090512544e-05 6.937199685e-07)
(0 1.042866942e-05 6.594151349e-07)
(0 9.971272234e-06 6.251103388e-07)
(0 9.548178688e-06 5.908054677e-07)
(0 9.136520685e-06 5.565006341e-07)
(0 8.75916804e-06 5.221958318e-07)
(0 8.39324929e-06 4.917026151e-07)
(0 8.046389305e-06 4.612094296e-07)
(0 7.73002297e-06 4.421512153e-07)
(0 7.421279004e-06 4.116580033e-07)
(0 7.131593743e-06 3.925997624e-07)
(0 6.860967133e-06 3.544833019e-07)
(0 6.61320959e-06 3.354250397e-07)
(0 6.380699051e-06 3.087435025e-07)
(0 6.159623826e-06 2.858736306e-07)
(0 5.961417752e-06 2.630037243e-07)
(0 5.778458639e-06 2.401338353e-07)
(0 5.599311511e-06 2.210756076e-07)
(0 5.458280192e-06 1.943940571e-07)
(0 5.321060858e-06 1.71524168e-07)
(0 5.199088428e-06 1.524659363e-07)
(0 5.096173615e-06 1.372193344e-07)
(0 5.008505707e-06 1.143494454e-07)
(0 4.928461391e-06 9.529121019e-08)
(0 4.871286372e-06 7.24213154e-08)
(0 4.825546594e-06 5.33630745e-08)
(0 4.791242048e-06 3.049318726e-08)
(0 4.783618464e-06 1.524659272e-08)
(0 5.120186999e-05 -0.0004981214306)
(0 0.0001353630699 -0.0004474151017)
(0 0.0001872738983 -0.0003864020225)
(0 0.0002151484815 -0.0003308586852)
(0 0.0002286302948 -0.000283983053)
(0 0.0002339970817 -0.0002450622964)
(0 0.0002347975278 -0.0002126518519)
(0 0.0002329565157 -0.0001854100135)
(0 0.0002295870048 -0.0001623037911)
(0 0.0002252950889 -0.0001425175254)
(0 0.0002204581206 -0.000125452784)
(0 0.0002153276289 -0.0001106369)
(0 0.0002100256263 -9.769635447e-05)
(0 0.0002046512146 -8.633764808e-05)
(0 0.0001992844017 -7.633968972e-05)
(0 0.000193940471 -6.75004776e-05)
(0 0.000188646103 -5.966754417e-05)
(0 0.0001834355686 -5.271890596e-05)
(0 0.0001783089018 -4.653260097e-05)
(0 0.000173273725 -4.102477181e-05)
(0 0.0001683261952 -3.611917814e-05)
(0 0.000163485402 -3.173959438e-05)
(0 0.0001587322863 -2.784027997e-05)
(0 0.0001540935009 -2.434499692e-05)
(0 0.0001495462046 -2.123088036e-05)
(0 0.0001450942083 -1.844837829e-05)
(0 0.0001407489206 -1.596318257e-05)
(0 0.0001364951213 -1.374099168e-05)
(0 0.0001323328094 -1.176655863e-05)
(0 0.0001282848311 -1.000176482e-05)
(0 0.000124320717 -8.431365771e-06)
(0 0.000120444278 -7.032491312e-06)
(0 0.0001166669275 -5.793705232e-06)
(0 0.000112977252 -4.695950556e-06)
(0 0.0001093752511 -3.716357197e-06)
(0 0.0001058647165 -2.851112838e-06)
(0 0.0001024380448 -2.081159906e-06)
(0 9.90952353e-05 -1.406498262e-06)
(0 9.585151675e-05 -8.156927103e-07)
(0 9.267641382e-05 -2.973085579e-07)
(0 8.957754922e-05 1.562775847e-07)
(0 8.657396508e-05 5.526889859e-07)
(0 8.364661928e-05 8.995489702e-07)
(0 8.0787888e-05 1.193045952e-06)
(0 7.800919163e-05 1.448426308e-06)
(0 7.531054472e-05 1.661878606e-06)
(0 7.267670019e-05 1.852461126e-06)
(0 7.013432649e-05 2.004926942e-06)
(0 6.765675517e-05 2.123088036e-06)
(0 6.523636249e-05 2.229814318e-06)
(0 6.289219495e-05 2.306047148e-06)
(0 6.062426428e-05 2.367033519e-06)
(0 5.841351184e-05 2.408961794e-06)
(0 5.627136206e-05 2.443266483e-06)
(0 5.419401381e-05 2.454701427e-06)
(0 5.21738434e-05 2.462324871e-06)
(0 5.02222764e-05 2.454701427e-06)
(0 4.832788726e-05 2.439454834e-06)
(0 4.649067563e-05 2.41658509e-06)
(0 4.471444479e-05 2.389903408e-06)
(0 4.299157981e-05 2.351786926e-06)
(0 4.132208039e-05 2.317482232e-06)
(0 3.971737402e-05 2.271742315e-06)
(0 3.815078662e-05 2.229814185e-06)
(0 3.663756449e-05 2.172639592e-06)
(0 3.518532434e-05 2.119276387e-06)
(0 3.377501451e-05 2.062101665e-06)
(0 3.241044641e-05 2.004927062e-06)
(0 3.110686079e-05 1.951563868e-06)
(0 2.98337703e-05 1.894389145e-06)
(0 2.861023295e-05 1.833402884e-06)
(0 2.742862029e-05 1.780039699e-06)
(0 2.629656079e-05 1.726676625e-06)
(0 2.519499597e-05 1.669502002e-06)
(0 2.413916792e-05 1.604703883e-06)
(0 2.31176462e-05 1.543717512e-06)
(0 2.21342423e-05 1.486542879e-06)
(0 2.119657552e-05 1.425556419e-06)
(0 2.02932149e-05 1.376004993e-06)
(0 1.941272534e-05 1.318830349e-06)
(0 1.858178487e-05 1.265467195e-06)
(0 1.776990381e-05 1.219727417e-06)
(0 1.699614025e-05 1.166364413e-06)
(0 1.625286783e-05 1.113001268e-06)
(0 1.555533622e-05 1.06726149e-06)
(0 1.486924044e-05 1.021521773e-06)
(0 1.422125936e-05 9.757819338e-07)
(0 1.35999607e-05 9.300421556e-07)
(0 1.299390942e-05 8.843024305e-07)
(0 1.242216141e-05 8.423742475e-07)
(0 1.188090737e-05 8.004461175e-07)
(0 1.135871225e-05 7.623296815e-07)
(0 1.086319731e-05 7.204015058e-07)
(0 1.039817623e-05 6.82285024e-07)
(0 9.936967398e-06 6.479802293e-07)
(0 9.513873854e-06 6.136753568e-07)
(0 9.109839147e-06 5.831821714e-07)
(0 8.721051556e-06 5.526890191e-07)
(0 8.362756104e-06 5.183841523e-07)
(0 8.023519416e-06 4.917026151e-07)
(0 7.699529783e-06 4.573978089e-07)
(0 7.394597467e-06 4.307162442e-07)
(0 7.104912205e-06 4.04034707e-07)
(0 6.834285595e-06 3.811648407e-07)
(0 6.590339701e-06 3.506716324e-07)
(0 6.354017514e-06 3.239900952e-07)
(0 6.136753936e-06 2.973085758e-07)
(0 5.938547863e-06 2.706270207e-07)
(0 5.751777102e-06 2.439454834e-07)
(0 5.584064917e-06 2.286989044e-07)
(0 5.431598655e-06 2.096406498e-07)
(0 5.298190969e-06 1.829591126e-07)
(0 5.176218537e-06 1.600892331e-07)
(0 5.077115374e-06 1.410309826e-07)
(0 4.989447466e-06 1.181610935e-07)
(0 4.9055915e-06 9.910285859e-08)
(0 4.852228132e-06 8.004461175e-08)
(0 4.798865057e-06 5.33630745e-08)
(0 4.772183806e-06 3.430483567e-08)
(0 4.764560223e-06 7.623296358e-09)
(0 8.533899159e-05 -0.0006398690069)
(0 0.000207403226 -0.0005238729603)
(0 0.0002575911855 -0.0004237447422)
(0 0.0002735810497 -0.0003490021326)
(0 0.0002756164864 -0.0002928641955)
(0 0.0002719839691 -0.000249297039)
(0 0.0002659729999 -0.0002144280812)
(0 0.0002589405245 -0.0001858483542)
(0 0.0002515306648 -0.0001619874253)
(0 0.0002440293412 -0.0001417933131)
(0 0.000236600453 -0.0001245036843)
(0 0.0002293278141 -0.0001095810741)
(0 0.000222253395 -9.659478873e-05)
(0 0.0002153810062 -8.523989385e-05)
(0 0.0002087296672 -7.526099374e-05)
(0 0.0002022917934 -6.646370969e-05)
(0 0.0001960483254 -5.867651594e-05)
(0 0.0001900068512 -5.176218258e-05)
(0 0.0001841559712 -4.562161733e-05)
(0 0.0001784728145 -4.016333951e-05)
(0 0.0001729649721 -3.5299674e-05)
(0 0.0001676172297 -3.096201834e-05)
(0 0.0001624257746 -2.708557375e-05)
(0 0.0001573867659 -2.363984215e-05)
(0 0.000152488798 -2.05524071e-05)
(0 0.0001477204349 -1.780039817e-05)
(0 0.0001430968968 -1.534569566e-05)
(0 0.0001385839053 -1.315780959e-05)
(0 0.0001342005179 -1.120243474e-05)
(0 0.0001299428988 -9.464322485e-06)
(0 0.0001257996372 -7.916793315e-06)
(0 0.0001217592975 -6.544600355e-06)
(0 0.0001178332925 -5.32106089e-06)
(0 0.0001140063977 -4.234741152e-06)
(0 0.000110293859 -3.270394353e-06)
(0 0.0001066765982 -2.420396608e-06)
(0 0.0001031508236 -1.673313561e-06)
(0 9.972415788e-05 -1.017710131e-06)
(0 9.640039467e-05 -4.383395432e-07)
(0 9.315668205e-05 6.479801943e-08)
(0 8.999683109e-05 5.069492412e-07)
(0 8.693607218e-05 8.843023828e-07)
(0 8.396298659e-05 1.215915776e-06)
(0 8.106232717e-05 1.501789482e-06)
(0 7.823789099e-05 1.741923228e-06)
(0 7.550875087e-05 1.951563879e-06)
(0 7.284441315e-05 2.126899824e-06)
(0 7.027154625e-05 2.26793068e-06)
(0 6.775585843e-05 2.382280126e-06)
(0 6.53240308e-05 2.473759831e-06)
(0 6.296461664e-05 2.546180999e-06)
(0 6.067381607e-05 2.599544074e-06)
(0 5.844019373e-05 2.630037417e-06)
(0 5.629423229e-05 2.652907148e-06)
(0 5.419782578e-05 2.664342093e-06)
(0 5.217003207e-05 2.656718956e-06)
(0 5.020321846e-05 2.641472204e-06)
(0 4.830882931e-05 2.618602315e-06)
(0 4.646780601e-05 2.588109284e-06)
(0 4.467632857e-05 2.553804295e-06)
(0 4.295346358e-05 2.511876165e-06)
(0 4.12801525e-05 2.469948183e-06)
(0 3.966401119e-05 2.41658496e-06)
(0 3.809742378e-05 2.363221885e-06)
(0 3.658420163e-05 2.302235652e-06)
(0 3.512814983e-05 2.248872439e-06)
(0 3.371783999e-05 2.191697716e-06)
(0 3.235327188e-05 2.126899824e-06)
(0 3.10458746e-05 2.065913325e-06)
(0 2.97727841e-05 2.001115306e-06)
(0 2.854924674e-05 1.940129051e-06)
(0 2.737906903e-05 1.879142563e-06)
(0 2.623176292e-05 1.814344544e-06)
(0 2.513400975e-05 1.753358278e-06)
(0 2.407055839e-05 1.684748505e-06)
(0 2.306047162e-05 1.623762134e-06)
(0 2.207325606e-05 1.562775856e-06)
(0 2.113940093e-05 1.50560104e-06)
(0 2.02360403e-05 1.44080302e-06)
(0 1.935936238e-05 1.387440029e-06)
(0 1.852461026e-05 1.326453574e-06)
(0 1.771654084e-05 1.269278851e-06)
(0 1.694658892e-05 1.212104201e-06)
(0 1.620712815e-05 1.16636435e-06)
(0 1.550197324e-05 1.120624571e-06)
(0 1.48196891e-05 1.06726156e-06)
(0 1.417551966e-05 1.01771007e-06)
(0 1.355040936e-05 9.681586432e-07)
(0 1.295198137e-05 9.224189201e-07)
(0 1.238404501e-05 8.804907346e-07)
(0 1.183516767e-05 8.385626044e-07)