/*--------------------------------*- C++ -*----------------------------------*\
  =========                 |
  \\      /  F ield         | OpenFOAM: The Open Source CFD Toolbox
   \\    /   O peration     | Website:  https://openfoam.org
    \\  /    A nd           | Version:  10
     \\/     M anipulation  |
\*---------------------------------------------------------------------------*/
FoamFile
{
    format      ascii;
    class       volScalarField;
    location    "0.0003";
    object      Num_divU;
}
// * * * * * * * * * * * * * * * * * * * * * * * * * * * * * * * * * * * * * //

dimensions      [0 0 -1 0 0 0 0];

internalField   nonuniform List<scalar> 
64000
(
-0.0007505219595
0.007434300069
0.004889206643
0.001634808349
-0.00237639007
-0.005169436687
-0.01283582619
-0.02012182634
-0.02193275377
-0.022536668
-0.01884766773
-0.005524631377
0.008975366069
0.01740090871
0.01285612437
0.01089577416
0.01042067594
0.004575005713
-0.01443526069
0.005443260186
-0.005800258879
-0.001248020743
0.01832313534
0.009020811928
0.01172258525
-0.01685073911
-0.02732465117
0.006740176505
0.02709933093
0.01562628313
0.01364436389
0.02617062513
0.03794635242
0.0199859343
-0.0278545638
-0.04753184522
-0.02338022857
-0.0009044275655
0.006175933623
-0.0004868490919
0.001987535523
0.01589008562
0.005480148958
-0.001902936631
-0.01189176214
-0.01904296563
-0.0291742787
-0.04233806929
-0.04702383108
-0.04211241093
-0.02573685269
-0.008943797218
0.003813663859
0.01236172406
0.01471833397
0.002507420629
0.01287357105
-0.001451363975
-0.06646709536
-0.03974870337
-0.02203660169
0.01408569944
0.01039293101
-0.04389424845
-0.02787602943
0.006155836989
0.01312535704
0.003790338474
-0.0004088416466
-0.008645017093
0.000760074015
0.03684255789
0.04293709309
0.01109865048
-0.04576070299
-0.05177474715
-0.008848926183
0.001902916186
-0.007682055442
-0.02073041585
0.01403076547
0.01586966611
0.006307472393
-0.0006113593033
-0.005837954097
-0.01716253717
-0.02690587546
-0.02819419669
-0.0213064694
-0.01052244321
0.004838842414
0.01938313525
0.02362136223
0.007882066667
-0.009068407919
-0.0161230888
-0.01153133776
-0.002121981696
0.004149891424
-0.003540004024
0.001920631479
0.0004046695899
0.009951730818
0.005507420224
-0.02169780978
-0.0233831837
-0.01975776168
-0.007899381658
-0.001108576687
0.01146339087
0.01716091854
0.0218789934
0.01013395102
-0.01975965996
-0.03048429822
-0.0148677749
-0.005370432928
-0.008237346649
-0.02344453744
-0.02867523933
0.007546624917
0.009404005397
0.004008322447
-0.006706298916
-0.003786930673
-0.003599114468
-0.00477035853
-0.002335592192
-0.001384049362
-0.0004456696532
0.0002359174974
0.001216391572
-0.0003290873193
-0.003105425847
-0.002437295347
0.0006214371743
-0.001654625118
-0.00015166637
-0.001445189233
-0.001310804566
-0.0002424198188
-0.0003632840959
0.0008996166378
-0.001705820822
-0.004092315401
-0.001758234665
0.002982049077
0.0009954607605
-0.001089415013
-1.280597404e-05
0.002553251398
0.00286047806
0.000444631449
-0.004016918819
-0.002947605503
-0.003544609404
-0.006437051344
-0.01134671624
-0.0172232812
-0.01506534531
0.001791739359
0.005895551607
0.005361938139
0.0005950630281
-0.0006994830695
-0.0002896426083
-4.527581018e-05
1.388610673e-06
4.662621174e-06
1.548036785e-05
4.275125367e-05
6.213196617e-05
7.765518796e-05
8.275362415e-06
-2.507831328e-06
-6.595065784e-05
-6.339651306e-05
-0.0003304247275
-1.72139078e-05
1.264995112e-05
-3.03228308e-05
-4.416876306e-05
-0.0004260301868
-5.500269781e-05
-1.298523965e-05
-2.491255353e-05
-8.762028932e-07
7.272266266e-05
6.663408694e-05
4.630271845e-05
9.207667881e-06
6.376485694e-07
-0.0001086268871
-0.0003126365439
-0.0005788120447
-0.0008275394561
-0.0005058895566
-0.004255381992
-0.007979605325
-0.002309038223
-6.671884754e-15
-8.471597919e-06
-4.873092862e-06
-1.01110092e-14
1.217397885e-10
1.37753147e-10
1.406297201e-10
1.390592705e-10
1.351620518e-10
1.300942915e-10
1.242772761e-10
1.178232159e-10
1.115697265e-10
1.062915429e-10
9.945115045e-11
9.245131826e-11
8.757026345e-11
7.878685622e-11
8.132673605e-11
7.237376898e-11
7.358592183e-11
7.482870283e-11
7.428416739e-11
8.115467476e-11
7.848494255e-11
8.7770963e-11
9.056236581e-11
9.428421566e-11
1.024444844e-10
1.103010303e-10
1.158498122e-10
1.231528378e-10
1.30060159e-10
1.352439969e-10
1.389403371e-10
1.390754062e-10
1.356524899e-10
-4.059392183e-06
-1.043421904e-05
-1.464941158e-14
6.819560699e-14
2.544597566e-10
2.060976774e-10
2.966975969e-10
3.303535919e-10
3.399389761e-10
3.391608811e-10
3.321589018e-10
3.218595397e-10
3.098468736e-10
2.965016885e-10
2.819293748e-10
2.671087196e-10
2.506490385e-10
2.337807322e-10
2.161144625e-10
1.981989638e-10
1.992134135e-10
1.881212058e-10
1.831021196e-10
1.823222915e-10
1.776790507e-10
1.926095779e-10
1.973299884e-10
2.08033914e-10
2.178289245e-10
2.279768728e-10
2.444943575e-10
2.610262081e-10
2.738592334e-10
2.891686743e-10
3.041178207e-10
3.154589846e-10
3.26461909e-10
3.314035401e-10
3.235206081e-10
2.831379729e-10
2.36213872e-10
2.143884505e-10
2.017298032e-10
1.798261842e-10
5.495104806e-10
5.035515059e-10
5.283361424e-10
5.419260681e-10
5.445586658e-10
5.384505246e-10
5.259115866e-10
5.091389937e-10
4.899541515e-10
4.692707129e-10
4.483140314e-10
4.255613591e-10
3.989525233e-10
3.735934108e-10
3.555999244e-10
3.32408601e-10
3.245013007e-10
3.133434416e-10
3.08463971e-10
3.07802572e-10
3.101266792e-10
3.242777483e-10
3.279045408e-10
3.40388219e-10
3.540989053e-10
3.766344555e-10
4.017121612e-10
4.215205428e-10
4.434404566e-10
4.673380218e-10
4.87613766e-10
5.068011987e-10
5.224657688e-10
5.302052906e-10
5.27815209e-10
5.132781677e-10
4.918451019e-10
4.791300771e-10
4.230925996e-10
3.344032685e-10
8.103279914e-10
7.297165753e-10
7.364290989e-10
7.414074628e-10
7.385615256e-10
7.277729679e-10
7.107684952e-10
6.897261704e-10
6.656343335e-10
6.382381704e-10
6.092869035e-10
5.803586635e-10
5.522200983e-10
5.248877548e-10
4.946199173e-10
4.768705659e-10
4.607074208e-10
4.519335769e-10
4.455895757e-10
4.434477953e-10
4.497934964e-10
4.533110928e-10
4.646729049e-10
4.802508163e-10
5.043006852e-10
5.318678432e-10
5.573828675e-10
5.847639781e-10
6.151172674e-10
6.42867918e-10
6.670469186e-10
6.890654433e-10
7.07109315e-10
7.189089975e-10
7.235402066e-10
7.215232155e-10
7.151315486e-10
7.076149548e-10
6.085347552e-10
4.701705229e-10
1.033782746e-09
9.272551064e-10
9.265395345e-10
9.265108926e-10
9.199589979e-10
9.060494692e-10
8.855759087e-10
8.604112136e-10
8.32576775e-10
8.038991276e-10
7.747062464e-10
7.429413767e-10
7.088392844e-10
6.766896555e-10
6.447629063e-10
6.217971746e-10
6.048613634e-10
5.929890582e-10
5.873041323e-10
5.850459609e-10
5.903257914e-10
5.981549057e-10
6.117164955e-10
6.326311972e-10
6.594790066e-10
6.889368139e-10
7.196336677e-10
7.518554623e-10
7.82713776e-10
8.100602649e-10
8.354387963e-10
8.598407363e-10
8.811512311e-10
8.97605382e-10
9.085254396e-10
9.131949723e-10
9.11482019e-10
9.054453112e-10
7.689488706e-10
5.904498873e-10
1.227685068e-09
1.100898583e-09
1.096090457e-09
1.093351217e-09
1.084796895e-09
1.069322278e-09
1.047682187e-09
1.021993984e-09
9.937661387e-10
9.635373466e-10
9.318808435e-10
8.98057369e-10
8.62247163e-10
8.272425622e-10
7.959382033e-10
7.693290198e-10
7.527421231e-10
7.428400047e-10
7.372466162e-10
7.352005848e-10
7.37566882e-10
7.465666042e-10
7.624198822e-10
7.843852453e-10
8.109106992e-10
8.411521733e-10
8.737750584e-10
9.061229821e-10
9.360352312e-10
9.643156625e-10
9.926642005e-10
1.020395506e-09
1.045482072e-09
1.066064385e-09
1.080073202e-09
1.085677246e-09
1.083281725e-09
1.076417595e-09
9.067324707e-10
6.946094588e-10
1.391650605e-09
1.249202826e-09
1.242202382e-09
1.238502692e-09
1.229777253e-09
1.214187791e-09
1.191752549e-09
1.164586304e-09
1.135066837e-09
1.104343121e-09
1.072624294e-09
1.039786205e-09
1.005734459e-09
9.712006838e-10
9.396510612e-10
9.141384666e-10
8.968661793e-10
8.857920794e-10
8.790228742e-10
8.769423655e-10
8.798349355e-10
8.881013652e-10
9.020163893e-10
9.2266195e-10
9.503965951e-10
9.832128984e-10
1.017241613e-09
1.049686875e-09
1.080711534e-09
1.111733116e-09
1.143016164e-09
1.173049246e-09
1.199499959e-09
1.219660979e-09
1.231131548e-09
1.233226277e-09
1.2281466e-09
1.220332912e-09
1.022525105e-09
7.816910493e-10
1.524732354e-09
1.370552046e-09
1.362646685e-09
1.359766765e-09
1.353300071e-09
1.340548033e-09
1.320785711e-09
1.295763505e-09
1.267687333e-09
1.237657996e-09
1.20593455e-09
1.172839786e-09
1.139236054e-09
1.106607163e-09
1.07617442e-09
1.050695644e-09
1.031934743e-09
1.019819182e-09
1.013365e-09
1.01151562e-09
1.014096126e-09
1.021911817e-09
1.036711123e-09
1.059759952e-09
1.089786185e-09
1.123132846e-09
1.156430686e-09
1.188741997e-09
1.220851564e-09
1.253034848e-09
1.28414396e-09
1.312054272e-09
1.334314548e-09
1.348715225e-09
1.354294749e-09
1.352185371e-09
1.3454514e-09
1.337855109e-09
1.116862423e-09
8.514312792e-10
1.62636713e-09
1.463543476e-09
1.455193553e-09
1.454287014e-09
1.451968329e-09
1.444717481e-09
1.430717429e-09
1.410687906e-09
1.386347916e-09
1.358912457e-09
1.329140861e-09
1.297733573e-09
1.265682092e-09
1.234705744e-09
1.205966884e-09
1.181491397e-09
1.162788e-09
1.150179379e-09
1.143323115e-09
1.141675126e-09
1.145647127e-09
1.156217295e-09
1.174044691e-09
1.198415484e-09
1.227053304e-09
1.257342191e-09
1.28787606e-09
1.31855792e-09
1.349198612e-09
1.37856128e-09
1.404690008e-09
1.425644941e-09
1.439953363e-09
1.446979218e-09
1.447351044e-09
1.442963052e-09
1.436317633e-09
1.429698887e-09
1.189721761e-09
9.038642329e-10
1.695965794e-09
1.526740765e-09
1.517441447e-09
1.517891026e-09
1.519133075e-09
1.517457222e-09
1.510343075e-09
1.497360061e-09
1.479445536e-09
1.457825447e-09
1.433606881e-09
1.407621752e-09
1.380681854e-09
1.353981745e-09
1.328757614e-09
1.306746845e-09
1.289477862e-09
1.27767735e-09
1.271620892e-09
1.271434417e-09
1.27741969e-09
1.289585995e-09
1.307164831e-09
1.328685195e-09
1.352601328e-09
1.377906771e-09
1.40413348e-09
1.430671598e-09
1.456090372e-09
1.478382039e-09
1.495826064e-09
1.507569945e-09
1.513641873e-09
1.514746954e-09
1.512098485e-09
1.507157203e-09
1.501241392e-09
1.495325636e-09
1.240122976e-09
9.39432077e-10
1.733073827e-09
1.560614147e-09
1.550847735e-09
1.55248336e-09
1.556611257e-09
1.559850487e-09
1.55954299e-09
1.554497045e-09
1.544832276e-09
1.531420316e-09
1.515331737e-09
1.49732982e-09
1.478036663e-09
1.458228251e-09
1.438984887e-09
1.421838014e-09
1.408290602e-09
1.399303979e-09
1.395344351e-09
1.396517982e-09
1.402645817e-09
1.413147507e-09
1.427064362e-09
1.443406788e-09
1.461487077e-09
1.480833182e-09
1.500737577e-09
1.519872273e-09
1.536402833e-09
1.548700193e-09
1.556069138e-09
1.558890327e-09
1.558193898e-09
1.555111443e-09
1.550560102e-09
1.545152546e-09
1.539217146e-09
1.532981167e-09
1.266479662e-09
9.575733452e-10
1.736279457e-09
1.564865229e-09
1.556147571e-09
1.559691386e-09
1.566776543e-09
1.574614378e-09
1.58076605e-09
1.583678778e-09
1.58284689e-09
1.578639547e-09
1.571895007e-09
1.563329597e-09
1.553466209e-09
1.542769536e-09
1.531893138e-09
1.521870737e-09
1.513849639e-09
1.50867951e-09
1.506780747e-09
1.508194551e-09
1.512680599e-09
1.519781222e-09
1.528906014e-09
1.539481686e-09
1.550989824e-09
1.56278201e-09
1.573864122e-09
1.582919144e-09
1.588672741e-09
1.590440799e-09
1.588454934e-09
1.583696927e-09
1.57737695e-09
1.570424854e-09
1.563282787e-09
1.55599777e-09
1.548453427e-09
1.540666338e-09
1.267437313e-09
9.564208807e-10
1.703441685e-09
1.538050868e-09
1.532576538e-09
1.539585784e-09
1.550678169e-09
1.563654463e-09
1.576396195e-09
1.587303117e-09
1.59562647e-09
1.601397054e-09
1.605086872e-09
1.607109389e-09
1.607670712e-09
1.606854945e-09
1.604855709e-09
1.602205721e-09
1.599671152e-09
1.597947207e-09
1.597468898e-09
1.598390038e-09
1.600649672e-09
1.604022784e-09
1.60813411e-09
1.612488321e-09
1.616490654e-09
1.61943439e-09
1.62053112e-09
1.619043175e-09
1.614502661e-09
1.606926843e-09
1.596882842e-09
1.585312104e-09
1.573185821e-09
1.561185207e-09
1.549592277e-09
1.538413152e-09
1.527611834e-09
1.517353511e-09
1.242792739e-09
9.34890698e-10
1.634075847e-09
1.48100197e-09
1.48134115e-09
1.49381803e-09
1.510330445e-09
1.529132026e-09
1.548587513e-09
1.567447519e-09
1.585035827e-09
1.601038638e-09
1.615272689e-09
1.627531409e-09
1.637609807e-09
1.64537668e-09
1.650858708e-09
1.654361932e-09
1.656429225e-09
1.657634677e-09
1.658414198e-09
1.659004897e-09
1.659450616e-09
1.659604459e-09
1.659123145e-09
1.657512309e-09
1.654225845e-09
1.648770101e-09
1.6407877e-09
1.630108485e-09
1.61677523e-09
1.601066615e-09
1.583506872e-09
1.564811123e-09
1.545746323e-09
1.526976757e-09
1.509006603e-09
1.492246803e-09
1.477121465e-09
1.464139871e-09
1.194307426e-09
2.311229418e-09
2.584450987e-09
2.531868223e-09
2.564013117e-09
2.60607247e-09
2.653500352e-09
2.705739026e-09
2.761739e-09
2.819564814e-09
2.876840304e-09
2.931353632e-09
2.98143235e-09
3.025995121e-09
3.064424648e-09
3.096432916e-09
3.122003137e-09
3.141405814e-09
3.155195562e-09
3.164080752e-09
3.16868309e-09
3.169312438e-09
3.165865921e-09
3.157877129e-09
3.144668685e-09
3.125555664e-09
3.10005459e-09
3.068043479e-09
3.029816406e-09
2.986005791e-09
2.93742067e-09
2.884919449e-09
2.829430227e-09
2.772125863e-09
2.714627413e-09
2.659068841e-09
2.607938172e-09
2.563719849e-09
2.52843215e-09
2.503250443e-09
2.239872031e-09
1.543994257e-09
2.230174388e-09
2.14414308e-09
2.16951502e-09
2.204737732e-09
2.244657003e-09
2.289053045e-09
2.337352607e-09
2.388038993e-09
2.439016622e-09
2.488204046e-09
2.533945129e-09
2.57512555e-09
2.611079097e-09
2.641472148e-09
2.666216976e-09
2.685459327e-09
2.699605999e-09
2.709247648e-09
2.714950314e-09
2.717023933e-09
2.715405498e-09
2.709698964e-09
2.699319698e-09
2.683673791e-09
2.662336275e-09
2.635190719e-09
2.602481138e-09
2.564748206e-09
2.522679581e-09
2.47697721e-09
2.428362517e-09
2.377748663e-09
2.326466205e-09
2.276364963e-09
2.229688607e-09
2.188744946e-09
2.155462204e-09
2.130978172e-09
2.115572959e-09
7.139162723e-10
1.256498348e-09
1.153788715e-09
1.167156802e-09
1.190312167e-09
1.217533824e-09
1.24830087e-09
1.282085558e-09
1.31790534e-09
1.354403598e-09
1.390136142e-09
1.423863705e-09
1.454712274e-09
1.482172564e-09
1.506006378e-09
1.526128079e-09
1.54251931e-09
1.555199727e-09
1.564214601e-09
1.569603679e-09
1.571357411e-09
1.569392882e-09
1.563569156e-09
1.553732408e-09
1.539770062e-09
1.521662837e-09
1.499527681e-09
1.473641636e-09
1.444437647e-09
1.41247416e-09
1.378399521e-09
1.34294471e-09
1.306962491e-09
1.271488688e-09
1.237765738e-09
1.207173815e-09
1.181058059e-09
1.160499011e-09
1.146154594e-09
9.196564757e-10
6.885363808e-10
1.151541328e-09
1.05869438e-09
1.072034173e-09
1.095964157e-09
1.125151042e-09
1.158744255e-09
1.195888063e-09
1.235424062e-09
1.275928663e-09
1.315906018e-09
1.354029758e-09
1.389307538e-09
1.421105795e-09
1.449064115e-09
1.472966678e-09
1.492639786e-09
1.507914864e-09
1.518640933e-09
1.524706259e-09
1.526044419e-09
1.522626914e-09
1.514455413e-09
1.501560838e-09
1.484011142e-09
1.461932071e-09
1.435543765e-09
1.405206248e-09
1.37145575e-09
1.335011797e-09
1.296749281e-09
1.25765365e-09
1.218789046e-09
1.181291934e-09
1.146368064e-09
1.115250852e-09
1.089095563e-09
1.068834499e-09
1.055088906e-09
8.500442714e-10
6.146514382e-10
1.010491398e-09
9.293494331e-10
9.417200681e-10
9.649251291e-10
9.942415644e-10
1.028602906e-09
1.066913729e-09
1.107908712e-09
1.150182692e-09
1.192291922e-09
1.232908009e-09
1.270950021e-09
1.305629553e-09
1.336403351e-09
1.362876099e-09
1.384712604e-09
1.401602561e-09
1.413278593e-09
1.419555527e-09
1.420356648e-09
1.415712668e-09
1.405739841e-09
1.390612534e-09
1.370545769e-09
1.345800494e-09
1.316716563e-09
1.28376453e-09
1.247593233e-09
1.20904562e-09
1.169128014e-09
1.12894416e-09
1.089626456e-09
1.05229313e-09
1.018032132e-09
9.878845323e-10
9.627985991e-10
9.435566258e-10
9.307090325e-10
7.483733198e-10
5.364052596e-10
8.673963087e-10
7.981749503e-10
8.096084812e-10
8.316224287e-10
8.600915841e-10
8.938661369e-10
9.317541267e-10
9.724788847e-10
1.014717481e-09
1.057141738e-09
1.098490717e-09
1.137654029e-09
1.173722222e-09
1.205981809e-09
1.233867542e-09
1.256907498e-09
1.274695814e-09
1.286903645e-09
1.293311509e-09
1.293835612e-09
1.288530532e-09
1.277568579e-09
1.261209178e-09
1.239775168e-09
1.213649411e-09
1.183296172e-09
1.149299311e-09
1.112397833e-09
1.07349564e-09
1.033631503e-09
9.93915423e-10
9.554565599e-10
9.193106215e-10
8.864569979e-10
8.577920734e-10
8.341155482e-10
8.160985645e-10
8.042354538e-10
6.44399381e-10
4.581441647e-10
7.272701215e-10
6.702364759e-10
6.812710995e-10
7.021909119e-10
7.294059031e-10
7.617732169e-10
7.981251291e-10
8.37261257e-10
8.779898024e-10
9.191376979e-10
9.595681322e-10
9.982180391e-10
1.034138475e-09
1.066515868e-09
1.094667156e-09
1.118020554e-09
1.136102232e-09
1.148541486e-09
1.155090664e-09
1.155644965e-09
1.150248391e-09
1.139082345e-09
1.122443612e-09
1.100723216e-09
1.074396184e-09
1.044026433e-09
1.01028284e-09
9.739550531e-10
9.359543902e-10
8.972894518e-10
8.590176811e-10
8.22187125e-10
7.877877705e-10
7.567240931e-10
7.298054183e-10
7.077403217e-10
6.911215061e-10
6.803893578e-10
5.430525266e-10
3.816550761e-10
5.936677803e-10
5.488138022e-10
5.600080714e-10
5.801171512e-10
6.060317062e-10
6.366595874e-10
6.709216509e-10
7.07740139e-10
7.460717813e-10
7.849050623e-10
8.232501805e-10
8.601449111e-10
8.946779839e-10
9.260170309e-10
9.534281014e-10
9.762834885e-10
9.940645234e-10
1.006368086e-09
1.012919577e-09
1.013587412e-09
1.008391261e-09
9.974994392e-10
9.81216566e-10
9.599667184e-10
9.342782084e-10
9.04774136e-10
8.721690537e-10
8.372677324e-10
8.009589163e-10
7.641971508e-10
7.279703564e-10
6.932581269e-10
6.609910235e-10
6.320201354e-10
6.070993473e-10
5.868751025e-10
5.718735571e-10
5.624697403e-10
4.471699541e-10
3.088139922e-10
4.701156094e-10
4.367602715e-10
4.482800934e-10
4.676238256e-10
4.921456007e-10
5.208314233e-10
5.527138708e-10
5.86846244e-10
6.223226911e-10
6.582718395e-10
6.938389058e-10
7.281764422e-10
7.604531432e-10
7.898769101e-10
8.157217102e-10
8.373497389e-10
8.542270122e-10
8.65935611e-10
8.72185967e-10
8.728291626e-10
8.678660167e-10
8.574492921e-10
8.418774445e-10
8.215811143e-10
7.971055547e-10
7.690927635e-10
7.382661511e-10
7.054183384e-10
6.713998539e-10
6.371045072e-10
6.034476642e-10
5.713369182e-10
5.416389385e-10
5.151485066e-10
4.925642992e-10
4.744716708e-10
4.613268104e-10
4.534276439e-10
3.59096746e-10
2.417421655e-10
3.598930896e-10
3.366108108e-10
3.481208369e-10
3.663256925e-10
3.890544613e-10
4.154036041e-10
4.445274613e-10
4.756040391e-10
5.078446105e-10
5.404886386e-10
5.727891891e-10
6.040015484e-10
6.333846621e-10
6.602169218e-10
6.838207841e-10
7.035885884e-10
7.190045547e-10
7.296620853e-10
7.352778321e-10
7.357035353e-10
7.30934762e-10
7.211143605e-10
7.065286984e-10
6.875962608e-10
6.64850103e-10
6.38917147e-10
6.104977456e-10
5.803479721e-10
5.492649065e-10
5.180727152e-10
4.876060276e-10
4.586880598e-10
4.321037814e-10
4.085713531e-10
3.887161312e-10
3.730497397e-10
3.619516864e-10
3.556408032e-10
2.806008637e-10
1.824673241e-10
2.65412723e-10
2.502842688e-10
2.611283264e-10
2.775261069e-10
2.977911837e-10
3.211653663e-10
3.469360559e-10
3.744031016e-10
4.028832249e-10
4.317087582e-10
4.602208152e-10
4.877630048e-10
5.13682273e-10
5.373399561e-10
5.58131348e-10
5.755090527e-10
5.890054101e-10
5.982513879e-10
6.029915056e-10
6.030951704e-10
5.985642724e-10
5.895359961e-10
5.762795332e-10
5.591860583e-10
5.387526686e-10
5.155623858e-10
4.902631319e-10
4.635483256e-10
4.361403519e-10
4.087761374e-10
3.821924652e-10
3.571084969e-10
3.34204487e-10
3.140980152e-10
2.973207261e-10
2.842981452e-10
2.753313816e-10
2.705697469e-10
2.126513777e-10
1.323874373e-10
1.875945584e-10
1.786030377e-10
1.880919496e-10
2.019910386e-10
2.190807992e-10
2.387718882e-10
2.60495473e-10
2.836775495e-10
3.077424137e-10
3.321156516e-10
3.562249981e-10
3.79500994e-10
4.01380736e-10
4.213172227e-10
4.387944493e-10
4.533460946e-10
4.645746842e-10
4.721686674e-10
4.759160995e-10
4.757145616e-10
4.715771474e-10
4.636340676e-10
4.521292165e-10
4.374113256e-10
4.199200914e-10
4.001686351e-10
3.787243685e-10
3.561904275e-10
3.331891121e-10
3.103474682e-10
2.882838498e-10
2.67593737e-10
2.488336413e-10
2.325033362e-10
2.190279999e-10
2.087419432e-10
2.018729248e-10
1.985174919e-10
1.552789579e-10
9.186797136e-11
1.256072269e-10
1.209844839e-10
1.286111216e-10
1.395178222e-10
1.529018064e-10
1.68344826e-10
1.854247618e-10
2.036996708e-10
2.227120247e-10
2.419946537e-10
2.610766644e-10
2.794892284e-10
2.967722472e-10
3.124832206e-10
3.262089215e-10
3.375792419e-10
3.462816336e-10
3.520743849e-10
3.547974334e-10
3.543800258e-10
3.50844919e-10
3.443088875e-10
3.349792859e-10
3.231465435e-10
3.091728643e-10
2.934779655e-10
2.765232012e-10
2.587956176e-10
2.407932156e-10
2.230119877e-10
2.059344294e-10
1.900186231e-10
1.756870056e-10
1.633145613e-10
1.532170093e-10
1.456397069e-10
1.407461268e-10
1.38597708e-10
1.075865123e-10
6.017595542e-11
7.70882589e-11
7.549324675e-11
8.099634594e-11
8.868506028e-11
9.810065246e-11
1.089780019e-10
1.210342683e-10
1.339618178e-10
1.474328827e-10
1.611062133e-10
1.746345008e-10
1.87671821e-10
1.998809777e-10
2.109411815e-10
2.205565422e-10
2.284653897e-10
2.344498415e-10
2.38344678e-10
2.400446199e-10
2.395093748e-10
2.367661236e-10
2.319092899e-10
2.250975157e-10
2.165478579e-10
2.065274046e-10
1.953428126e-10
1.833285785e-10
1.708350558e-10
1.582171787e-10
1.458245223e-10
1.339928121e-10
1.230365151e-10
1.132419477e-10
1.048605298e-10
9.810224099e-11
9.312947617e-11
9.005025968e-11
8.890432548e-11
6.789749149e-11
3.571904319e-11
3.870279289e-11
3.91762154e-11
4.248226374e-11
4.692892025e-11
5.232361999e-11
5.852725684e-11
6.538344043e-11
7.271762695e-11
8.034081715e-11
8.805457276e-11
9.565663757e-11
1.029464852e-10
1.09730462e-10
1.158266322e-10
1.210696364e-10
1.253157337e-10
1.284478736e-10
1.303803683e-10
1.31062664e-10
1.304818192e-10
1.286634773e-10
1.25671262e-10
1.216045944e-10
1.165949819e-10
1.108009093e-10
1.044016026e-10
9.75901043e-11
9.056622652e-11
8.352995923e-11
7.667576089e-11
7.01878797e-11
6.423655307e-11
5.897476081e-11
5.453526668e-11
5.102793642e-11
4.85375145e-11
4.712149374e-11
4.680418971e-11
3.398750672e-11
1.552352981e-11
1.300695797e-11
1.406562373e-11
1.572584954e-11
1.779511287e-11
2.019422717e-11
2.285528252e-11
2.57158319e-11
2.871568937e-11
3.17925334e-11
3.487835406e-11
3.789957328e-11
4.077866196e-11
4.343811434e-11
4.580373782e-11
4.780838954e-11
4.939483346e-11
5.051758014e-11
5.114533694e-11
5.126192841e-11
5.08672039e-11
4.9976874e-11
4.862217164e-11
4.684896651e-11
4.471575012e-11
4.229221725e-11
3.965590524e-11
3.688912865e-11
3.407564208e-11
3.129580497e-11
2.862295461e-11
2.611975913e-11
2.383705166e-11
2.181512871e-11
2.008853883e-11
1.869266241e-11
1.76688842e-11
1.706365765e-11
1.690152064e-11
1.098910464e-11
-2.06401681e-11
2.01621826e-08
1.76876626e-08
1.754671577e-08
1.754731448e-08
1.752984464e-08
1.750097866e-08
1.747543409e-08
1.745612768e-08
1.743958704e-08
1.74282414e-08
1.742524534e-08
1.74291446e-08
1.743662474e-08
1.744604174e-08
1.745749539e-08
1.747114175e-08
1.748606707e-08
1.750030408e-08
1.751149335e-08
1.751760341e-08
1.751743961e-08
1.751088114e-08
1.749885454e-08
1.748306659e-08
1.746558893e-08
1.744845509e-08
1.743341949e-08
1.742194221e-08
1.7415276e-08
1.741445135e-08
1.742007414e-08
1.743201203e-08
1.744916601e-08
1.746956439e-08
1.749115678e-08
1.751304105e-08
1.753439589e-08
1.754980424e-08
1.741082542e-08
2.920607933e-08
9.810579061e-08
8.892112142e-08
8.749057596e-08
8.732023115e-08
8.721685502e-08
8.711088559e-08
8.70033183e-08
8.690702299e-08
8.683202111e-08
8.679060374e-08
8.678442312e-08
8.680315338e-08
8.683702848e-08
8.688335378e-08
8.694261202e-08
8.70123424e-08
8.708486532e-08
8.714903807e-08
8.719361796e-08
8.721028471e-08
8.719551396e-08
8.715114189e-08
8.708368659e-08
8.700268482e-08
8.691863027e-08
8.684127428e-08
8.677883043e-08
8.673795237e-08
8.672371374e-08
8.673894927e-08
8.678311447e-08
8.685153033e-08
8.693582692e-08
8.702644517e-08
8.711780787e-08
8.721120079e-08
8.730893522e-08
8.732514322e-08
7.453004581e-08
7.016795869e-08
1.260396405e-07
1.173981798e-07
1.161258587e-07
1.159196518e-07
1.15806775e-07
1.156880258e-07
1.155582678e-07
1.154405576e-07
1.153540989e-07
1.153080441e-07
1.152981673e-07
1.153148717e-07
1.153532555e-07
1.154135138e-07
1.154945538e-07
1.155890558e-07
1.156835261e-07
1.157618882e-07
1.158098556e-07
1.158183288e-07
1.157851736e-07
1.157152847e-07
1.156191117e-07
1.155101799e-07
1.15402502e-07
1.153087804e-07
1.152397183e-07
1.152038395e-07
1.15206803e-07
1.152499474e-07
1.153290432e-07
1.154345321e-07
1.155539383e-07
1.156768487e-07
1.157999218e-07
1.159208323e-07
1.160202064e-07
1.154176858e-07
9.088061364e-08
6.185114492e-08
1.180849574e-07
1.099051294e-07
1.086500767e-07
1.08496207e-07
1.084305468e-07
1.083373823e-07
1.082207505e-07
1.081077247e-07
1.080159694e-07
1.079537191e-07
1.079215092e-07
1.079172218e-07
1.079406584e-07
1.079923431e-07
1.080690359e-07
1.081611109e-07
1.082537338e-07
1.083304802e-07
1.08377314e-07
1.083855744e-07
1.083534793e-07
1.082860672e-07
1.081937578e-07
1.080900397e-07
1.079891007e-07
1.079041513e-07
1.078465203e-07
1.078247868e-07
1.078432621e-07
1.079002921e-07
1.079879246e-07
1.080938909e-07
1.082056999e-07
1.083158884e-07
1.084223473e-07
1.085161474e-07
1.085750828e-07
1.079719093e-07
8.503448977e-08
5.932851268e-08
9.300773921e-08
8.639539069e-08
8.524689859e-08
8.510663721e-08
8.503928292e-08
8.495170503e-08
8.485277147e-08
8.475998403e-08
8.468456216e-08
8.463209606e-08
8.460407306e-08
8.460081529e-08
8.462296469e-08
8.466972683e-08
8.473622608e-08
8.481276303e-08
8.488650455e-08
8.494443998e-08
8.497626399e-08
8.497640945e-08
8.494493624e-08
8.488722701e-08
8.48126418e-08
8.473256708e-08
8.465849505e-08
8.460059335e-08
8.456666829e-08
8.456103625e-08
8.458336554e-08
8.462861716e-08
8.468906842e-08
8.475757423e-08
8.483027893e-08
8.490740884e-08
8.49883746e-08
8.506671731e-08
8.514331519e-08
8.461439208e-08
6.33681889e-08
0.007432995257
0.008886518528
0.002883592677
-0.003594157845
-0.01066578938
-0.02131560005
-0.03350194217
-0.04130008138
-0.04370172418
-0.03137420401
-0.004809633904
0.01411757481
0.0219163011
0.01423271016
0.001422601981
-0.003968906206
0.006523870094
-0.01027527957
0.0209333151
-0.0150685889
-0.04469713859
-0.002060935889
-0.0115326439
0.01958704956
-0.02657652341
-0.07668845657
-0.01132190824
0.0168226484
0.009330058893
0.01517391854
0.0343118533
0.02717088969
0.01035919634
-0.008841630416
-0.04022278206
-0.03389144774
-0.01012678962
0.002810023201
-0.003542168878
-0.01579408812
0.01588907945
0.01436359744
0.002188684783
-0.01254897006
-0.02961627104
-0.04239068333
-0.06503230335
-0.08254722917
-0.07234929311
-0.03804050361
0.002174632091
0.02768905028
0.02380520422
-1.733985114e-05
-0.01398554733
-0.02448980491
-0.03432169157
-0.07739978235
-0.06342016881
0.0084292853
-0.05065478229
-0.04893288814
-0.06054296883
-0.04996109327
-0.002021661929
-0.08427260643
-0.01594297016
0.006374717952
0.005005310981
0.02450706417
0.05764257129
0.05625830987
-0.005328096908
-0.03920812442
-0.07046049662
-0.03875568324
-6.538784548e-05
0.007268605795
-0.02081545754
-0.03087069599
0.01587289723
0.0161218898
0.002391735
-0.0002391980408
-0.01488165916
-0.03125271745
-0.03977526429
-0.03498400105
-0.02283367821
-0.005603868552
0.007697168446
0.009637152461
-0.003943881536
-0.01202276574
-0.03575607128
-0.03085653609
-0.02655709751
0.01665276531
-0.06098654171
-0.05241957788
-0.035482442
-0.04414563661
-0.008700639277
-0.08513704674
-0.06259180186
-0.04525024694
-0.04376778241
-0.02543679432
0.02066152114
0.03503127308
0.0107459812
-0.01631503522
-0.01054249891
-0.02653916241
-0.02917261408
-0.01273068362
0.004459040138
-0.0001165374795
-0.02602148882
-0.03197758055
0.009415706456
0.005881342021
-0.007193861213
-0.01249200957
-0.009727006963
-0.006920323496
-0.004763288729
-0.002541918177
0.0001727869212
0.002201496894
0.002047359297
-0.000502566131
-0.008697537931
-0.01277956475
-0.004510191543
0.004334179432
0.01227111184
-0.01492956503
-0.007063599227
-0.005193217897
-0.007834299275
0.002366189239
-0.0193944977
-0.01113611858
-0.009059114771
-0.002366486146
0.01048438201
0.01242947703
0.008440871516
-0.0003304856286
-0.004111291493
-0.002650094912
-0.002814555553
-0.004270410368
-0.002584918292
0.0003880102677
0.00159560303
-0.006129584394
-0.02979203455
-0.01638808733
0.005905385762
0.00561317751
0.005253028543
-0.001069393684
-0.000358405151
1.089009502e-05
8.337541526e-05
4.115067055e-05
-3.680443446e-06
-1.396558949e-05
-5.405210985e-05
-4.075771134e-05
2.400416687e-05
2.219513272e-05
5.425488696e-05
4.330237172e-05
-0.0007384711291
0.0006236305411
-0.0003416423361
-2.169618275e-05
-1.48541005e-05
-0.000404274701
0.0005993032154
-0.0007378926028
3.998226768e-06
5.628326336e-05
5.386725046e-05
7.045882439e-05
-2.397452159e-06
-2.151990381e-05
-7.208830715e-05
-7.927654826e-05
-7.258780273e-05
-0.0001216879966
-0.0001041153787
0.000316254952
0.001082052687
-0.006183430314
-0.01046632908
-0.00485449713
-8.465178104e-06
-3.821714676e-06
-9.38839239e-15
2.214679197e-10
2.527444721e-10
2.602159387e-10
2.589066634e-10
2.529608689e-10
2.445855755e-10
2.349032298e-10
2.239600784e-10
2.123143547e-10
1.985353434e-10
1.839282223e-10
1.714766772e-10
1.630332761e-10
1.540645255e-10
1.475706569e-10
1.378527501e-10
1.307522717e-10
1.280085575e-10
1.296422984e-10
1.412430183e-10
1.493262801e-10
1.54396453e-10
1.612756534e-10
1.74168938e-10
1.879914638e-10
2.010347471e-10
2.172494069e-10
2.27804318e-10
2.352274491e-10
2.416807624e-10
2.469656927e-10
2.512275679e-10
2.445200393e-10
2.054186117e-10
1.144104351e-10
-1.474284073e-05
-1.033728358e-05
2.543015668e-10
4.153773511e-10
4.687419785e-10
5.163877396e-10
5.332169836e-10
5.354612627e-10
5.278120665e-10
5.134375238e-10
4.947129124e-10
4.728105911e-10
4.498682916e-10
4.274531922e-10
4.041319048e-10
3.787202664e-10
3.60533913e-10
3.348052358e-10
3.187204517e-10
2.967415102e-10
2.884682723e-10