/*--------------------------------*- C++ -*----------------------------------*\
  =========                 |
  \\      /  F ield         | OpenFOAM: The Open Source CFD Toolbox
   \\    /   O peration     | Website:  https://openfoam.org
    \\  /    A nd           | Version:  10
     \\/     M anipulation  |
\*---------------------------------------------------------------------------*/
FoamFile
{
    format      ascii;
    class       volScalarField;
    location    "0.0003";
    object      p_rgh;
}
// * * * * * * * * * * * * * * * * * * * * * * * * * * * * * * * * * * * * * //

dimensions      [1 -1 -2 0 0 0 0];

internalField   nonuniform List<scalar> 
64000
(
1.380368692
1.378382908
1.512014819
1.534799659
1.589521877
1.655977154
1.713450253
1.742287524
1.755040921
1.719194378
1.69665649
1.645660673
1.452242895
1.251785963
1.157565205
1.085811776
0.9943135121
1.007644951
1.048973196
1.137787165
1.137790459
1.049153825
1.008254827
0.9954366283
1.087007867
1.157954846
1.250803198
1.450428768
1.644207879
1.696240545
1.71969596
1.755987709
1.743174667
1.714031588
1.656303642
1.589744938
1.534179669
1.508548836
1.377841575
1.379920291
0.6508993986
0.8824357423
1.259458214
1.492443492
1.204247283
0.9599756807
0.8033624586
0.7753298773
0.6979958914
0.2810428408
-0.1098895142
-0.4308138611
-0.7469633482
-0.9499491825
-0.9974610879
-0.9240917206
-0.4416565525
0.4543024471
1.096683233
1.391663185
1.391605607
1.096831284
0.4551521146
-0.4399504295
-0.9221815314
-0.9966206908
-0.9510471645
-0.7493744318
-0.433053286
-0.1107506664
0.2812617156
0.6983806883
0.7752955253
0.8024073245
0.9589740834
1.204075437
1.487538215
1.255747915
0.8808428242
0.6492125604
0.3607496906
0.688021876
1.221068321
1.60022947
1.812464917
1.085196093
0.960058738
2.551046522
4.733287083
5.503931857
6.670058673
7.268903697
1.972987455
-3.71337285
-4.710024574
-2.32426724
3.54446346
11.79635562
16.98572965
18.81736927
18.81729408
16.98610474
11.79818899
3.546769656
-2.322255428
-4.709553787
-3.71521828
1.968876754
7.263683677
6.665730419
5.500990544
4.731493561
2.547756571
0.954488995
1.079271056
1.80001035
1.595741048
1.213907031
0.6839452872
0.3580847088
-2.922751663
-0.8810378485
2.63807057
7.997059272
14.43435224
25.33310534
101.6115256
296.2007503
662.1422504
1150.867831
1448.022744
1411.016812
1240.796766
1513.958312
1865.961852
2242.600808
3132.103627
3486.043392
3314.006487
2839.515739
2839.452824
3313.795789
3485.90838
3132.129842
2242.705912
1866.037002
1514.005177
1240.68907
1410.743143
1447.745398
1150.69732
662.157729
296.2907055
101.6432769
25.26778693
14.37194464
7.976585257
2.627547112
-0.8882605098
-2.925241985
462.9612414
-121.4333085
-262.4382502
-584.0686271
-912.57584
-842.8925563
-595.7779891
925.0921343
2487.350454
3071.468631
2917.659064
2102.938013
1371.151199
1801.482938
2208.788294
2025.069415
2499.199559
2327.374104
1526.659815
404.9282374
404.7940092
1526.29093
2327.12686
2499.183301
2025.228756
2209.042761
1801.588513
1370.584589
2102.729045
2916.534959
3069.396459
2486.093968
929.6799589
-594.6413282
-842.9674995
-912.903787
-584.0508915
-262.2714696
-121.268547
462.7440414
-128.9629266
-3422.02512
-4475.472044
-4534.007276
-6241.094838
-7271.468328
-5527.172881
-1454.033432
465.9175981
225.8967774
-420.2863353
-985.0857126
-1329.173072
-1432.111823
-1549.954923
-1733.385939
-1680.113685
-1684.912147
-1883.565233
-2166.095638
-2166.144376
-1883.65863
-1684.982908
-1680.165137
-1733.437267
-1550.033028
-1432.394025
-1329.743455
-985.2892127
-421.3672301
223.6076663
465.4613878
-1447.310359
-5523.303659
-7272.456603
-6241.319455
-4533.674005
-4474.15075
-3418.347731
-126.6793928
-1848.611912
-2686.798412
-3098.4531
-3155.176941
-3319.53746
-3105.394531
-2087.294927
-597.9395456
326.0703619
574.8988003
587.6992852
566.7201226
562.6695284
579.145539
609.7712076
696.6516697
884.1183896
1045.462025
1105.906506
1077.96863
1077.953964
1105.877393
1045.438788
884.1013314
696.6189233
609.6978759
578.9950186
562.4556347
566.5255701
587.271498
574.2713596
326.1774078
-596.1185238
-2085.896695
-3105.345422
-3319.688758
-3155.080312
-3098.011947
-2685.815146
-1847.440826
-1883.818786
-2075.372091
-2146.84757
-2054.993904
-1878.222032
-1520.642517
-913.5245236
-199.4839218
344.268375
656.4796942
838.6935284
955.5825614
1027.212021
1069.855064
1116.976445
1207.744596
1349.062654
1485.61544
1572.803375
1601.328454
1601.3222
1572.788588
1485.597024
1349.038505
1207.7032
1116.906833
1069.751918
1027.086945
955.4478956
838.5057832
656.2950467
344.3651758
-198.9245836
-913.0206627
-1520.523835
-1878.25833
-2054.972352
-2146.692551
-2075.021951
-1883.296323
-1535.948402
-1548.263447
-1492.768711
-1345.737378
-1123.114883
-813.7592556
-419.4323396
0.2086141152
357.6802538
620.7748457
806.6902341
932.4427384
1008.369597
1051.799353
1091.842242
1154.687852
1243.568694
1334.039717
1400.625512
1431.754318
1431.749638
1400.61237
1334.018481
1243.537227
1154.641092
1091.776439
1051.715832
1008.275674
932.3446441
806.5874832
620.7001231
357.7164441
0.3857335472
-419.2575205
-813.6996724
-1123.127422
-1345.742622
-1492.720177
-1548.131375
-1535.72731
-1163.496159
-1130.185929
-1043.860976
-898.5633671
-702.3491745
-461.7946501
-189.2730734
87.07039557
333.4195582
531.7927093
680.7614901
783.8797414
847.7509391
885.813559
917.477996
958.7937045
1012.751582
1068.580656
1112.347434
1135.159379
1135.154739
1112.333629
1068.557194
1012.717073
958.746134
917.416618
885.7406981
847.6716732
783.7995324
680.6861323
531.7379158
333.4102011
87.10871977
-189.2320159
-461.7905775
-702.3757087
-898.5922769
-1043.868745
-1130.157453
-1163.420293
-857.7289962
-818.6462902
-737.1193067
-614.6640712
-458.555306
-277.8104021
-83.916454
107.5314435
280.3493292
423.9332689
534.3975991
612.2756956
662.145348
693.2155804
717.4722037
744.5266839
776.9848576
810.2685697
837.0742773
851.6807909
851.6760493
837.0599951
810.2444052
776.9501101
744.4806432
717.4152094
693.1496897
662.0741415
612.2033513
534.328892
423.8754297
280.3099394
107.5086978
-83.93844833
-277.8464174
-458.6054819
-614.7184749
-737.1671964
-818.6797537
-857.7326159
-630.2062816
-596.5452722
-530.0960114
-434.442904
-316.0699217
-182.9444781
-44.04410562
90.8286437
212.4894155
314.4259665
393.5689759
450.0274224
487.0008602
510.4948438
527.7992577
544.7484859
563.4742774
582.2751291
597.5565326
606.0483587
606.0436506
597.5423524
582.2512981
563.4405239
544.7047206
527.7460995
510.4338778
486.9344904
449.9584411
393.5004108
314.3611216
212.4305461
90.77401338
-44.10080582
-183.0092009
-316.1436375
-434.5222482
-530.1763061
-596.6218145
-630.2603594
-470.097063
-443.9815134
-393.4322527
-322.0106667
-235.0228154
-138.7615641
-39.91948726
54.89117181
139.8785309
210.9071227
265.9477359
305.1430162
330.7152269
346.5489043
357.1658592
366.2645992
375.5904964
384.8134576
392.381973
396.6469454
396.6424138
392.3683472
384.790658
375.558472
366.2234863
357.1161949
346.4917291
330.6520009
305.0754464
265.8775574
210.8357942
139.8065655
54.81730858
-39.99810011
-138.8476097
-235.117179
-322.1123865
-393.5393106
-444.0905208
-470.1870098
-362.320798
-343.1180545
-306.2722984
-254.7022838
-192.4930041
-124.3772057
-55.24142491
10.31430713
68.43090018
116.4096743
152.9661093
178.2912358
193.9409977
202.4849034
206.8597573
209.571546
212.0954384
214.7637397
217.1320259
218.5340939
218.5298297
217.1192241
214.7423725
212.0654933
209.5331016
206.8131006
202.4306072
193.879883
178.2242519
152.8941063
116.3331441
68.34971101
10.22754608
-55.3352198
-124.4794024
-192.6043281
-254.8226935
-306.4009487
-343.2521037
-362.4377521
-293.0601661
-279.4763714
-253.5493094
-217.4876009
-174.3156561
-127.4938052
-80.53968865
-36.68296481
1.442639293
32.04702093
54.33004573
68.5072699
75.70581945
77.7080334
76.54958453
74.06477062
71.54371163
69.63090197
68.46518905
67.93921515
67.93524371
68.45324966
69.61091786
71.51557853
74.02842631
76.50511149
77.65571113
75.64606395
68.44049437
54.25648326
31.96660277
1.354962564
-36.77858994
-80.64410254
-127.6078152
-174.4399071
-217.6224651
-253.6945265
-279.6293943
-293.1976607
-251.0834829
-241.8402017
-224.2863593
-200.025311
-171.2389036
-140.4077121
-110.0314034
-82.37112951
-59.2316717
-41.79924008
-30.55187352
-25.25332974
-25.0372416
-28.58478908
-34.37814941
-40.97422784
-47.21797717
-52.33409156
-55.89340071
-57.70594136
-57.70970866
-55.90475266
-52.35316708
-47.24495892
-41.00926171
-34.42126476
-28.63589116
-25.09620274
-25.3201206
-30.6266611
-41.88239379
-59.32368881
-82.4725563
-110.1428017
-140.5296786
-171.3720982
-200.1703516
-224.4433417
-242.0068328
-251.2361772
-227.7139088
-221.7353593
-210.4625422
-195.0295317
-176.9802542
-158.0635129
-140.0302301
-124.4451054
-112.5297833
-105.0501108
-102.2570316
-103.8870938
-109.2250553
-117.2254628
-126.6774928
-136.3804304
-145.288224
-152.5919398
-157.735347
-160.3852041
-160.3889053
-157.7465013
-152.6106837
-145.314732
-136.4148516
-126.719909
-117.275913
-109.2836224
-103.9539914
-102.3326322
-105.1348957
-112.6242533
-124.5497325
-140.1454911
-158.1899805
-177.1186602
-195.1806566
-210.6267245
-221.9106101
-227.8770219
-216.4240977
-212.8586384
-206.2230784
-197.303382
-187.1733284
-177.0445751
-168.1210692
-161.4626134
-157.8711613
-157.8098767
-161.3616092
-168.2303706
-177.7861938
-189.1491196
-201.3008108
-213.2043835
-223.9097016
-232.6267619
-238.7622632
-241.9273273
-241.9310466
-238.7734573
-232.6455283
-223.9361672
-213.2386692
-201.3430182
-189.1993611
-177.844652
-168.2973436
-161.4375094
-157.8951823
-157.9663558
-161.5681698
-168.2374989
-177.1725106
-187.3135621
-197.4567536
-206.3900664
-213.0376711
-216.5931802
-212.3877458
-210.5794473
-207.3157628
-203.1311885
-198.7583837
-195.018758
-192.7185648
-192.5505377
-195.011269
-200.3422234
-208.499494
-219.1548007
-231.727518
-245.4441162
-259.4171211
-272.7316976
-284.5265091
-294.0581865
-300.7447606
-304.1898783
-304.1936067
-300.7559731
-294.0769576
-284.5529421
-272.7659046
-259.4592157
-245.4942297
-231.7858287
-219.2215598
-208.5750348
-200.4269533
-195.1056562
-192.6551109
-192.8339311
-195.1456202
-198.8975136
-203.2833133
-207.4813067
-210.7573422
-212.5589053
-212.0880783
-211.5406451
-210.6827556
-209.8753224
-209.6054731
-210.4128808
-212.8159175
-217.2409001
-223.9621019
-233.0586165
-244.3921342
-257.6076274
-272.1567703
-287.3414513
-302.3720547
-316.4329319
-328.7466584
-338.6299257
-345.5368524
-349.0888482
-349.0925308
-345.5479302
-338.6484805
-328.7728062
-316.4668021
-302.4137757
-287.3911456
-272.2145604
-257.6736536
-244.4665878
-233.1417848
-224.0544128
-217.3429423
-212.9284117
-210.5365894
-209.7410561
-210.023165
-210.8427459
-211.7114371
-212.2591376
-213.140428
-213.4573619
-214.272461
-215.8105106
-218.3820661
-222.3246358
-227.9495621
-235.4911283
-245.0631341
-256.6275381
-269.9783925
-284.7427499
-300.3985438
-316.3076494
-331.7605298
-346.0274328
-358.4104942
-368.2916094
-375.1723667
-378.7041151
-378.7076977
-375.1831398
-368.3096424
-358.4358846
-346.0602875
-331.8009492
-316.355715
-300.454316
-284.8062858
-270.0497919
-256.7070124
-245.1510736
-235.5881284
-228.0563744
-222.4420337
-218.5106498
-215.9504683
-214.4231383
-213.6155123
-213.2847049
-213.7383762
-214.6423558
-216.5777851
-219.6779895
-224.1288708
-230.1243748
-237.8285827
-247.3392605
-258.6566426
-271.6609554
-286.1012305
-301.5968167
-317.6517403
-333.6807361
-349.0444902
-363.090616
-375.1963661
-384.8092095
-391.4820896
-394.901158
-394.9047151
-391.4927764
-384.8270683
-375.2214546
-363.1229919
-349.0841953
-333.7277829
-317.7061098
-301.6584782
-286.1701902
-271.737326
-258.7407095
-247.4315085
-237.9296565
-230.2349689
-224.2495725
-219.8090945
-216.7190136
-214.7917713
-213.8799416
-212.623554
-213.8984438
-216.5349775
-220.6031385
-226.2013541
-233.4229022
-242.3288793
-252.9222282
-265.1255336
-278.7652513
-293.5643683
-309.1446589
-325.0387584
-340.7112867
-355.5873028
-369.0855992
-380.6538939
-389.8029228
-396.1367491
-399.3771695
-399.3807248
-396.1474134
-389.8206901
-380.6787503
-369.1175154
-355.6262263
-340.7571327
-325.0914115
-309.2039933
-293.6302931
-278.8377744
-265.2048239
-253.0086471
-242.4229632
-233.5252921
-226.3126916
-220.7239393
-216.6654385
-214.0376003
-212.7581287
-209.0501166
-210.5327184
-213.5548291
-218.1431007
-224.3356301
-232.1565941
-241.5970227
-252.5964363
-265.0272878
-278.6842269
-293.279738
-308.4470891
-323.7508286
-338.7043145
-352.7930467
-365.5019655
-376.3444925
-384.8909593
-390.7942028
-393.8104376
-393.8139654
-390.8047661
-384.908499
-376.3689141
-365.5331417
-352.8308181
-338.7484901
-323.8011928
-308.5034236
-293.3418621
-278.752053
-265.1008768
-252.6760351
-241.6830693
-232.2496881
-224.4364736
-218.2524073
-213.6731509
-210.6596593
-209.1744264
-202.5935846
-204.1619673
-207.3337785
-212.1069728
-218.479292
-226.4291533
-235.9020625
-246.7977857
-258.9596755
-272.1676737
-286.1361826
-300.5175436
-314.9113344
-328.8791272
-341.9637992
-353.712017
-363.6981812
-371.5479745
-376.9596971
-379.7217825
-379.7252137
-376.9699562
-371.5649614
-363.721737
-353.741933
-341.9998259
-328.9209827
-314.9587181
-300.5701593
-286.1937747
-272.2300736
-259.0268503
-246.8698791
-235.9794184
-226.5123177
-218.568987
-212.2040275
-207.4389616
-204.2752519
-202.7056025
-193.0727685
-194.6365482
-197.7832573
-202.4928746
-208.7375201
-216.4671498
-225.6000554
-236.0140554
-247.5393821
-259.9544104
-272.9851342
-286.3089619
-299.5629991
-312.3565582
-324.2872076
-334.959304
-344.0036824
-351.0970334
-355.9795042
-358.4691931
-358.4724531
-355.9892418
-351.1131247
-344.0259301
-334.9874485
-324.32094
-312.3955342
-299.606857
-286.357347
-273.0377304
-260.010979
-247.5998051
-236.0783773
-225.6685197
-216.5402219
-208.815885
-202.5773869
-197.8747906
-194.7353456
-193.1712917
-180.4871542
-181.9800017
-184.9735292
-189.4375741
-195.3294995
-202.5836153
-211.104635
-220.7617651
-231.384155
-242.7585607
-254.6299076
-266.7051825
-278.6607827
-290.1531184
-300.8319405
-310.3555778
-318.4070482
-324.7098899
-329.042542
-331.250197
-331.2532369
-329.0516164
-324.7248652
-318.4277096
-310.3816406
-300.8630635
-290.18892
-278.7008609
-266.749138
-254.6773723
-242.8092314
-231.4378316
-220.818394
-211.1643521
-202.6467817
-195.3967161
-189.5096525
-185.0513697
-182.064054
-180.5716221
-164.9690153
-166.3428701
-169.0906975
-173.1778813
-178.5550194
-185.1502404
-192.864787
-201.5691701
-211.1004231
-221.2610866
-231.8204371
-242.5182754
-253.0713675
-263.1823724
-272.5508458
-280.8856866
-287.9182204
-293.415015
-297.1895065
-299.1115782
-299.114377
-297.1978567
-293.4287801
-287.9371796
-280.9095443
-272.5792442
-263.2149079
-253.1076096
-242.557789
-231.8628081
-221.3059526
-211.1475091
-201.6183316
-192.9160556
-185.2038666
-178.6114984
-173.2379428
-169.1552183
-166.4124503
-165.0394407
-146.7470992
-147.9676754
-150.4041121
-154.0214292
-158.7693085
-164.576648
-171.3486557
-178.9644477
-187.2755306
-196.1056358
-205.2522782
-214.4902736
-223.5772723
-232.2611755
-240.2891148
-247.417501
-253.4225222
-258.1103875
-261.3266001
-262.9635881
-262.9661325
-261.3341872
-258.1228806
-253.439699
-247.4390617
-240.3146939
-232.2903567
-223.6096063
-214.5252995
-205.2895471
-196.1447402
-187.3161383
-179.0063434
-171.3917863
-164.6211664
-158.8156061
-154.0701397
-150.4560557
-148.0235426
-146.804029
-126.1193159
-127.1626079
-129.2419528
-132.3249117
-136.3644992
-141.2954413
-147.032326
-153.4681792
-160.4737454
-167.8978087
-175.568825
-183.298031
-190.8840647
-198.1189907
-204.7954809
-210.7147747
-215.6949428
-219.5789204
-222.2417596
-223.5965903
-223.5988545
-222.2485072
-219.5900169
-215.7101691
-210.7338342
-204.8180103
-198.144574
-190.9122497
-183.3283495
-175.6008158
-167.9310451
-160.5078679
-153.5029335
-147.0676048
-141.3313255
-136.4012909
-132.3631476
-129.2823719
-127.2059278
-126.1637585
-103.4323919
-104.2819738
-105.9731943
-108.4781919
-111.7563641
-115.7518986
-120.3926451
-125.5893287
-131.2353072
-137.2071091
-143.3659444
-149.5602996
-155.6296402
-161.4091331
-166.7352019
-171.4516348
-175.4158901
-178.5052038
-180.6220895
-181.6988518
-181.7007899
-180.6278613
-178.5146826
-175.4288692
-171.467834
-166.7542779
-161.4306917
-155.653252
-149.5855188
-143.3923305
-137.234252
-131.2628565
-125.6170275
-120.420365
-115.7796753
-111.7844273
-108.5069821
-106.0033477
-104.3141753
-103.465676
-79.06685612
-79.71181705
-80.99447327
-82.89294269
-85.37514883
-88.39729349
-91.90320615
-95.82394974
-100.0778219
-104.5709139
-109.1983563
-113.8463253
-118.3948214
-122.7211556
-126.7040094
-130.2278683
-133.1875778
-135.4927434
-137.0716833
-137.8746683
-137.876219
-137.0762982
-135.5003123
-133.1979208
-130.2407418
-126.719115
-122.7381508
-118.4133336
-113.865968
-109.2187479
-104.5916995
-100.0986972
-95.84468827
-91.92368658
-88.41752738
-85.39530472
-82.91336244
-81.01567002
-79.73439023
-79.09041788
-53.42604251
-53.85944209
-54.72065404
-55.99470531
-57.65949001
-59.68494152
-62.03269292
-64.65590407
-67.49934647
-70.49984683
-73.58716862
-76.68537704
-79.71469159
-82.5937844
-85.24243699
-87.58442734
-89.5504871
-91.08114983
-92.12930662
-92.66229753
-92.66339403
-92.13256804
-91.08649291
-89.55777615
-87.59347884
-85.25302626
-82.60565409
-79.7275622
-76.6989593
-73.60117773
-70.51401846
-67.51345423
-64.66977818
-62.04623928
-59.69816036
-57.67249287
-56.0077287
-54.73406567
-53.87370811
-53.44116598
-26.92807113
-27.14581288
-27.57811702
-28.21746047
-29.05258947
-30.06822214
-31.24491123
-32.55898454
-33.98261182
-35.4840473
-37.02808538
-38.57675085
-40.09022529
-41.52798838
-42.85013157
-44.01878139
-44.99955419
-45.76295531
-46.28563321
-46.55140496
-46.55198292
-46.28735164
-45.76576837
-45.0033872
-44.02353348
-42.85567936
-41.53419071
-40.09692911
-38.58379802
-37.03532047
-35.49132627
-33.98981122
-32.56601122
-31.25171206
-30.07479347
-29.05898603
-28.22380363
-27.58460282
-27.1527153
-26.93560187
-1.253950267e-05
-5.7822134e-06
-6.347170932e-06
-6.761627442e-06
-6.884732327e-06
-6.943244938e-06
-6.991239758e-06
-7.029216656e-06
-7.055808958e-06
-7.075826821e-06
-7.088338391e-06
-7.094721917e-06
-7.099422337e-06
-7.1021389e-06
-7.102501629e-06
-7.101612464e-06
-7.102344565e-06
-7.102873749e-06
-7.101610816e-06
-7.102499357e-06
-7.102725895e-06
-7.101995356e-06
-7.102157298e-06
-7.102268004e-06
-7.10213638e-06
-7.101639121e-06
-7.101286506e-06
-7.099229058e-06
-7.095266271e-06
-7.088380933e-06
-7.074560918e-06
-7.055978739e-06
-7.030123821e-06
-6.990248398e-06
-6.942833641e-06
-6.885550175e-06
-6.762120464e-06
-6.346218518e-06
-5.781637006e-06
-1.254006889e-05
-1.451963758e-05
-6.802478737e-06
-7.085246376e-06
-7.492197114e-06
-7.658372828e-06
-7.758563661e-06
-7.840998685e-06
-7.908807937e-06
-7.960678334e-06
-7.997449913e-06
-8.021711908e-06
-8.036668509e-06
-8.045307617e-06
-8.049992244e-06
-8.052379652e-06
-8.05352344e-06
-8.054038278e-06
-8.054255537e-06
-8.054340634e-06
-8.054369102e-06
-8.054369369e-06
-8.054341433e-06
-8.054256849e-06
-8.054040073e-06
-8.053525666e-06
-8.052382228e-06
-8.049995057e-06
-8.045310531e-06
-8.036671374e-06
-8.021714589e-06
-7.997452313e-06
-7.96068043e-06
-7.908809768e-06
-7.841000306e-06
-7.758565068e-06
-7.658373943e-06
-7.492197988e-06
-7.085247682e-06
-6.802482044e-06
-1.451963187e-05
-4.078878297e-06
-3.166904276e-06
-3.097337013e-06
-3.08758428e-06
-3.059666511e-06
-3.037595308e-06
-3.024618155e-06
-3.017622552e-06
-3.014129154e-06
-3.012531138e-06
-3.011855023e-06
-3.011576581e-06
-3.011449608e-06
-3.011375331e-06
-3.011321512e-06
-3.011280333e-06
-3.011250246e-06
-3.011230073e-06
-3.011218125e-06
-3.011212765e-06
-3.011213013e-06
-3.011218866e-06
-3.011231295e-06
-3.011251926e-06
-3.011282426e-06
-3.011323951e-06
-3.011378022e-06
-3.01145243e-06
-3.011579395e-06
-3.0118577e-06
-3.012533583e-06
-3.014131333e-06
-3.017624497e-06
-3.024619918e-06
-3.037596885e-06
-3.059667795e-06
-3.087585205e-06
-3.097337935e-06
-3.166906038e-06
-4.078875517e-06
-3.574191877e-06
-3.0255126e-06
-2.833103354e-06
-2.748388972e-06
-2.702928371e-06
-2.678873187e-06
-2.667572147e-06
-2.663445599e-06
-2.663016291e-06
-2.664163197e-06
-2.665706972e-06
-2.66709503e-06
-2.668144048e-06
-2.668855318e-06
-2.669300592e-06
-2.669562076e-06
-2.66970751e-06
-2.669784351e-06
-2.669822262e-06
-2.669837731e-06
-2.669837961e-06
-2.669822949e-06
-2.669785488e-06
-2.669709081e-06
-2.66956405e-06
-2.669302916e-06
-2.668857916e-06
-2.668146819e-06
-2.667097854e-06
-2.665709728e-06
-2.664165792e-06
-2.663018687e-06
-2.663447822e-06
-2.667574247e-06
-2.678875142e-06
-2.702929995e-06
-2.748390007e-06
-2.833103977e-06
-3.02551402e-06
-3.574191047e-06
-3.110554114e-06
-2.825845947e-06
-2.685557108e-06
-2.600096181e-06
-2.546266154e-06
-2.513755111e-06
-2.495363087e-06
-2.485794235e-06
-2.481416303e-06
-2.479846389e-06
-2.479623973e-06
-2.479930128e-06
-2.480356071e-06
-2.480731038e-06
-2.481007103e-06
-2.481189994e-06
-2.481302337e-06
-2.481366988e-06
-2.48140124e-06
-2.481415927e-06
-2.481416138e-06
-2.48140187e-06
-2.481368033e-06
-2.481303783e-06
-2.481191818e-06
-2.481009261e-06
-2.480733467e-06
-2.480358688e-06
-2.479932838e-06
-2.479626684e-06
-2.47984904e-06
-2.48141889e-06
-2.48579682e-06
-2.495365749e-06
-2.513757815e-06
-2.546268602e-06
-2.600097827e-06
-2.685557729e-06
-2.825846604e-06
-3.1105523e-06
-2.959944206e-06
-2.753370307e-06
-2.627580903e-06
-2.541448132e-06
-2.485940812e-06
-2.451275141e-06
-2.430365422e-06
-2.418299902e-06
-2.411734036e-06
-2.408416268e-06
-2.406895649e-06
-2.40629311e-06
-2.40611395e-06
-2.406102943e-06
-2.406141943e-06
-2.406184089e-06
-2.406215533e-06
-2.40623538e-06
-2.406246384e-06
-2.406251246e-06
-2.406251444e-06
-2.406246977e-06
-2.406236364e-06
-2.406216893e-06
-2.406185799e-06
-2.40614396e-06
-2.406105206e-06
-2.406116383e-06
-2.406295637e-06
-2.40689821e-06
-2.40841885e-06
-2.411736691e-06
-2.418302753e-06
-2.430368595e-06
-2.451278609e-06
-2.485944195e-06
-2.541450663e-06
-2.627581902e-06
-2.753370527e-06
-2.95994283e-06
1.378380944
1.385335907
1.456496898
1.545555169
1.63282294
1.685089389
1.697751664
1.67891455
1.649133815
1.602638832
1.557773009
1.49366947
1.371956684
1.226378856
1.123068704
1.048854345
0.9531571772
0.9111044535
0.8923174648
0.9206634357
0.9205582767
0.8922265666
0.9113665393
0.9539825146
1.049903165
1.123525946
1.225772688
1.370707039
1.49272112
1.55760126
1.60314131
1.649884826
1.679544304
1.698165451
1.685293219
1.632858976
1.545203529
1.455733823
1.384848284
1.378052101
0.8824348407
1.077251917
1.277552047
1.500723324
1.632266912
1.608793857
1.44018224
1.211357402
0.9441402016
0.5986732089
0.346767459
0.140955546
0.01497200189
-0.1102471168
-0.1764758331
-0.2385793471
-0.3427554525
-0.2114885267
-0.07466140252
0.0980221334
0.09793281393
-0.07466239704
-0.2111227434
-0.3415820698
-0.2368516483
-0.1753745852
-0.1107659896
0.01286014016
0.1387730905
0.3463644496
0.5992589599
0.9447703111
1.211564719
1.43990057
1.608087085
1.630994961
1.498473451
1.274994715
1.075151761
0.8807171279
0.6880191765
0.8316641093
1.191150906
1.576009646
2.318389307
3.390181925
4.508929012
6.17994038
7.99785742
9.692647646
12.88734473
17.42988375
17.42848546
14.34072189
12.55490343
13.08348507
16.46223015
21.31899527
21.8271799
22.60425549
22.60424408
21.82730251
21.31906401
16.46374061
13.0850444
12.55593438
14.34073767
17.43173394
17.43566452
12.88989723
9.693120682
7.997231385
6.177979815
4.506474701
3.386370525
2.314550254
1.572014507
1.185698802
0.8285240001
0.6846203318
-0.8810417264
-0.03788344349
2.338150823
5.889676674
12.35783869
21.95057789
70.91351351
231.0842746
430.8055384
542.8028471
622.6964372
611.6168299
343.2562922
170.2827631
39.35821732
-13.64644291
91.67852478
172.0010075
85.53173493
-7.928576921
-7.934160382
85.51284351
171.9813503
91.69036427
-13.64416264
39.33937536
170.2391882
343.1767927
611.4222309
622.5958677
542.7309828
430.6642714
230.9617513
70.85761028
21.93118891
12.34746535
5.881491254
2.333376026
-0.04029074202
-0.8856067647
-121.4333427
-122.3392665
-410.1237123
-877.9878689
-1076.377347
447.6530133
4151.748592
4322.30829
4028.029569
2822.553193
2525.212539
2104.100359
2170.698523
2416.467247
2634.560768
4273.034504
7891.14768
10162.36472
11201.38766
11012.60639
11012.666
11201.4837
10162.8438
7891.995954
4273.542044
2634.573702
2416.101304
2171.331413
2103.956205
2526.455108
2822.049267
4024.802629
4318.320582
4154.554073
446.5206613
-1076.887424
-878.0260771
-409.8642289
-122.4391005
-121.2958422
-3422.025629
-4353.348278
-4798.386917
-5054.768661
-3939.498652
-1239.93585
1607.370355
2233.904309
2106.612891
1547.099691
1549.319917
1887.612378
2500.351854
2943.122195
3378.092695
4281.156708
5645.355127
6615.423132
7213.455037
7203.205197
7203.201344
7213.479812
6615.546009
5645.610412
4281.350831
3378.153217
2943.056683
2500.566676
1887.846643
1549.734923
1546.225767
2104.934494
2233.481573
1609.974157
-1240.918504
-3942.383553
-5054.379234
-4799.724257
-4358.696628
-3418.78811
-2686.791675
-2983.982596
-3032.696765
-2772.319001
-2217.830559
-1328.080091
-292.4961364
424.997278
843.1728928
1078.32273
1378.456571
1712.730027
1969.419578
2085.508706
2206.013111
2514.990942
3009.537947
3436.635682
3716.948964
3770.85052
3770.846733
3716.95043
3436.655248
3009.584012
2515.010513
2205.978177
2085.429735
1969.391362
1712.736947
1378.408576
1077.981723
842.8752732
425.3164106
-291.7468602
-1328.210812
-2218.471454
-2772.489608
-3033.053977
-2984.696249
-2685.917722
-2075.360724
-2111.189183
-2012.706582
-1749.038437
-1372.875598
-892.366711
-340.8227727
169.5148633
580.5445568
903.7139057
1186.968926
1412.799554
1539.540782
1574.102045
1605.631733
1721.308773
1924.232881
2126.676947
2270.509595
2322.762867
2322.759546
2270.502906
2126.668295
1924.220918
1721.276571
1605.569285
1574.017261
1539.463396
1412.734346
1186.882615
903.5860346
580.512783
169.714663
-340.5529408
-892.3481223
-1373.032074
-1749.139279
-2012.791683
-2111.224275
-2075.037518
-1548.248657
-1507.123135
-1379.207154
-1159.31967
-875.5807169
-543.8857439
-180.8862368
175.1376058
489.6609033
751.1647736
960.7147443
1107.630629
1182.584899
1203.061081
1218.217077
1271.440562
1367.253978
1471.762214
1552.137524
1589.86405
1589.860218
1552.126534
1471.743257
1367.224517
1271.394435
1218.15139
1202.981243
1182.503536
1107.554159
960.6392216
751.0994389
489.6542824
175.2167014
-180.7916961
-543.8708973
-875.6331307
-1159.373035
-1379.237105
-1507.100746
-1548.122101
-1130.168328
-1076.766149
-960.760292
-786.2978895
-569.8103171
-325.8733408
-68.38292385
183.3768779
410.1190621
599.9911258
746.9667765
846.0903731
898.4721556
918.7530426
933.4006013
964.4599322
1015.767819
1073.435489
1120.238046
1144.800883
1144.796497
1120.224812
1073.412569
1015.733526
964.4119812
933.3386615
918.6807844
898.3963568
846.0166757
746.8985667
599.9366867
410.0944427
183.3849981
-68.37036789
-325.8888336
-569.8536379
-786.3471528
-960.7977713
-1076.777642
-1130.140688
-818.6262986
-771.7747158
-678.4392744
-544.7490813
-381.9922956
-201.9496021
-16.09306457
163.2205348
324.2707606
458.6013637
561.3522114
630.8351792
670.3938591
690.0657226
704.2587761
724.5545739
753.8262421
786.3526548
813.4437752
828.3721656
828.3675504
813.4297834
786.3287718
753.7916635
724.5086034
704.2019057
690.0004062
670.3241257
630.7651371
561.2855322
458.5428483
324.2255559
163.1872253
-16.12624855
-201.9949848
-382.0511784
-544.813739
-678.5010299
-771.8273304
-818.6607309
-596.5232561
-559.9354292
-489.0652418
-389.4980693
-269.5079549
-138.1593749
-4.390171167
123.1561181
236.8481484
331.117543
402.9357214
452.0413016
481.5174815
497.8090428
509.0177761
521.5836462
537.6810043
555.1731215
569.9143459
578.2259718
578.2213845
569.9004874
555.1497408
537.6478169
521.540584
508.965455
497.7490592
481.4522664
451.9735377
402.867971
331.0522538
236.7867889
123.0970153
-4.452243094
-138.2295003
-269.5871905
-389.5837586
-489.1537756
-560.0241661
-596.6022497
-443.957828
-416.867398
-364.9378289
-292.5893424
-205.9148973
-111.679164
-16.57556827
73.22178604
152.5444679
217.7469369
267.0296896
300.6128664
320.8250722
331.7697647
338.2461167
344.1389913
351.1996398
358.9527561
365.6589217
369.5265509
369.5221445
365.6456781
358.9306092
351.1685273
344.0989664
338.1975804
331.7136514
320.7628127
300.5461064
266.9599442
217.6752788
152.4710534
73.14531259
-16.65760527
-111.7690377
-206.0133627
-292.6957197
-365.050936
-416.9861507
-444.0710931
-343.0930516
-323.7019281
-286.7059461
-235.393368
-174.1924882
-108.0414271
-41.82952181
20.03078165
73.96828052
117.5585837
149.7159638
170.7658715
182.3780298
187.240256
188.4034228
188.4525677
188.8895489
190.0305959
191.400116
192.3081211
192.3040053
191.387757
190.0099474
188.8605374
188.4151601
188.3577827
187.1868778
182.3177034
170.6994737
149.6441748
117.48165
73.8858678
19.94195606
-41.92603542
-108.1467369
-174.3071937
-235.5176355
-286.8397408
-323.8448725
-343.2332065
-279.4503985
-265.9837219
-240.3765911
-204.9971885
-163.0167555
-117.980677
-73.40059059
-32.4119866
2.500175858
29.70404082
48.53591945
59.31921764
63.26927564
62.24658051
58.35811257
53.50036303
49.01474969
45.58701324
43.38943518
42.34032833
42.33648931
43.3778733
45.56759707
48.98729761
53.46473306
58.31432399
62.19487352
63.21002064
59.25272619
48.46226497
29.62297955
2.411195182
-32.50955649
-73.50745024
-118.09746
-163.1440387
-205.1355624
-240.526607
-266.1453801
-279.6113316
-241.8135982
-232.792743
-215.7104934
-192.2392442
-164.6208331
-135.3665963
-106.9642419
-81.6204565
-61.05629458
-46.36404856
-37.93295393
-35.44924285
-37.97858634
-44.13892867
-52.34964469
-61.10325139
-69.17923792
-75.73887112
-80.29674311
-82.62014286
-82.62383946
-80.3079005
-75.75767272
-69.20591874
-61.13800025
-52.39252214
-44.18986977
-38.03751725
-35.51622937
-38.00828245
-46.44819617
-61.14981013
-81.72385757
-107.0779994
-135.4912088
-164.7569494
-192.3877118
-215.8721947
-232.967939
-241.9898413
-221.7084526
-215.9751331
-205.1948692
-190.5317837
-173.5519634
-156.0114705
-139.6475212
-125.9898474
-116.2092354
-111.0129068
-110.5923347
-114.6268713
-122.3456174
-132.6462037
-144.2568874
-155.911013