/*--------------------------------*- C++ -*----------------------------------*\
  =========                 |
  \\      /  F ield         | OpenFOAM: The Open Source CFD Toolbox
   \\    /   O peration     | Website:  https://openfoam.org
    \\  /    A nd           | Version:  10
     \\/     M anipulation  |
\*---------------------------------------------------------------------------*/
FoamFile
{
    format      ascii;
    class       volScalarField;
    location    "0.0003";
    object      pVap;
}
// * * * * * * * * * * * * * * * * * * * * * * * * * * * * * * * * * * * * * //

dimensions      [1 -1 -2 0 0 0 0];

internalField   nonuniform List<scalar> 
64000
(
7.100887046e-46
8.173244137e-45
3.324624781e-43
3.283972493e-41
2.25576505e-38
7.384063217e-35
3.55415767e-31
1.116505951e-27
2.163336045e-24
2.027729943e-21
7.255290939e-19
8.467894183e-17
3.185838066e-15
4.549402745e-14
2.949447917e-13
9.375417154e-13
2.245261776e-12
5.005483753e-12
9.657132939e-12
1.427221165e-11
1.427268607e-11
9.658085644e-12
5.006229939e-12
2.24572262e-12
9.378152654e-13
2.951079292e-13
4.553600028e-14
3.190327412e-15
8.484131756e-17
7.27258277e-19
2.033887136e-21
2.172282448e-24
1.122928151e-27
3.582958815e-31
7.457013815e-35
2.284900462e-38
3.319191442e-41
3.298279371e-43
8.026207643e-45
6.967958188e-46
3.187893211e-48
7.989025649e-47
5.733340808e-45
2.148703114e-43
1.092581225e-41
2.130239727e-38
2.08960043e-34
7.75724405e-31
3.131130987e-27
7.515448274e-24
7.054586587e-21
1.959318037e-18
1.369580337e-16
2.619993295e-15
1.824321576e-14
2.982260367e-14
5.029558037e-14
1.452786848e-13
3.652472225e-13
6.416681198e-13
6.416857153e-13
3.652808369e-13
1.452942611e-13
5.030134607e-14
2.98226642e-14
1.825052699e-14
2.62198814e-15
1.37125029e-16
1.962043234e-18
7.060959823e-21
7.521253879e-24
3.137340876e-27
7.778900702e-31
2.104582049e-34
2.147155113e-38
1.098533743e-41
2.135980884e-43
5.606684975e-45
7.810930025e-47
3.13181452e-48
1.045048004e-53
3.62629917e-51
1.322007774e-48
2.34175975e-46
1.638758766e-44
1.673750871e-41
1.780030647e-37
2.080098053e-33
1.357200411e-29
2.943867119e-26
1.486869077e-23
1.878268188e-21
9.548045225e-20
2.89405414e-18
5.760902242e-17
7.707641888e-16
5.910138137e-15
2.536882897e-14
7.143487318e-14
1.157547539e-13
1.157547251e-13
7.143469424e-14
2.536909923e-14
5.910531241e-15
7.708715711e-16
5.761833063e-17
2.894419002e-18
9.548422936e-20
1.877935855e-21
1.486377819e-23
2.94227663e-26
1.35560576e-29
2.075421308e-33
1.7748656e-37
1.66371314e-41
1.61954069e-44
2.296993365e-46
1.284056053e-48
3.55702283e-51
1.037087656e-53
1.44669516e-58
1.844934644e-58
3.236334891e-56
3.641195343e-52
6.820868046e-47
2.073355377e-42
4.14555851e-38
6.958186267e-34
7.008633711e-30
1.974089636e-26
1.140601788e-23
1.585496248e-21
8.397207849e-20
2.543866185e-18
4.799240483e-17
5.811551637e-16
4.623504875e-15
2.119699631e-14
6.217031114e-14
1.003882364e-13
1.003881662e-13
6.21699097e-14
2.119716956e-14
4.623846423e-15
5.81227072e-16
4.799892856e-17
2.544161514e-18
8.397730897e-20
1.58537761e-21
1.140387577e-23
1.973115504e-26
7.001728329e-30
6.945384925e-34
4.136868608e-38
2.068978043e-42
6.794158301e-47
3.616585827e-52
3.246026267e-56
1.848719423e-58
1.444189132e-58
8.101058709e-59
9.603312008e-59
1.526423633e-56
6.601812578e-54
1.832944777e-50
1.675761858e-46
2.496918545e-42
2.635472355e-38
1.824048043e-34
6.95611407e-31
1.047378567e-27
4.845265349e-25
8.025761512e-23
5.817138415e-21
1.982330986e-19
3.360951986e-18
2.942076399e-17
1.430187397e-16
4.323944712e-16
7.533258924e-16
7.533359708e-16
4.324087708e-16
1.430269441e-16
2.942323328e-17
3.361316987e-18
1.98256325e-19
5.817756756e-21
8.026225213e-23
4.845151631e-25
1.047270512e-27
6.953966453e-31
1.822691188e-34
2.633138307e-38
2.496297721e-42
1.67467439e-46
1.829892945e-50
6.595724611e-54
1.533462165e-56
9.629899899e-59
8.096883841e-59
4.550018042e-59
2.05172452e-58
5.908790066e-57
7.846124946e-55
4.173472328e-52
6.65318715e-49
2.193603687e-45
9.665073683e-42
3.790328604e-38
1.00099724e-34
1.542936064e-31
8.508664308e-29
1.842668018e-26
1.729957336e-24
7.506142555e-23
1.602704609e-21
1.772840031e-20
1.070680114e-19
3.646925645e-19
6.78924701e-19
6.789313547e-19
3.647020731e-19
1.070722004e-19
1.772914344e-20
1.602765349e-21
7.506337053e-23
1.729966128e-24
1.842594967e-26
8.508030286e-29
1.542703309e-31
1.000757519e-34
3.788978404e-38
9.662699917e-42
2.193084123e-45
6.64959937e-49
4.169465529e-52
7.837599424e-55
5.90569898e-57
2.050015414e-58
4.544419764e-59
6.622865029e-60
2.498035048e-59
3.608907782e-58
1.843090703e-56
3.015022236e-54
1.319569821e-51
1.197478625e-48
1.648857226e-45
2.486013309e-42
3.075942114e-39
2.531081225e-36
1.024306712e-33
1.962735062e-31
1.817534137e-29
8.380783e-28
1.99219235e-26
2.506317661e-25
1.692561693e-24
6.143200011e-24
1.177668306e-23
1.177668786e-23
6.143200667e-24
1.6925582e-24
2.506292433e-25
1.992143062e-26
8.380399131e-28
1.817399545e-29
1.962515951e-31
1.024152709e-33
2.530581723e-36
3.075197309e-39
2.485327771e-42
1.648434384e-45
1.19713518e-48
1.318985155e-51
3.012993976e-54
1.841528625e-56
3.605847469e-58
2.495790089e-59
6.6170566e-60
5.257050626e-61
1.402995818e-60
9.971852336e-60
1.842124813e-58
8.481853262e-57
8.914964249e-55
1.848020848e-52
6.163313297e-50
2.601188086e-47
1.092592727e-44
3.70585531e-42
8.206133557e-40
1.07356719e-37
7.952720411e-36
3.279187765e-34
7.480605518e-33
9.373082708e-32
6.372290075e-31
2.317862415e-30
4.442808025e-30
4.442766968e-30
2.317798335e-30
6.371998109e-31
9.372468455e-32
7.479944849e-33
3.278810902e-34
7.951560082e-36
1.073372946e-37
8.204360222e-40
3.704934349e-42
1.092297447e-44
2.600470536e-47
6.161670237e-50
1.847497284e-52
8.911832098e-55
8.478048353e-57
1.841147414e-58
9.966337703e-60
1.402256382e-60
5.254565498e-61
5.506938266e-62
1.064297284e-61
4.001867794e-61
2.933882645e-60
4.170965263e-59
1.116395866e-57
5.252877889e-56
3.874398624e-54
3.844832653e-52
4.330906475e-50
4.687900802e-48
4.153297907e-46
2.686959586e-44
1.17525105e-42
3.293377099e-41
5.678098362e-40
5.818639475e-39
3.436891559e-38
1.141092427e-37
2.090181807e-37
2.090150425e-37
1.141041617e-37
3.436641532e-38
5.818057816e-39
5.677377967e-40
3.292869703e-41
1.175037324e-42
2.686396396e-44
4.152323213e-46
4.686714287e-48
4.329782833e-50
3.843863693e-52
3.873476773e-54
5.25163993e-56
1.116112854e-57
4.169796243e-59
2.933006908e-60
4.000692579e-61
1.064016557e-61
5.505665893e-62
1.085282611e-62
1.640549787e-62
3.786008293e-62
1.349599606e-61
7.50543936e-61
6.498784117e-60
8.54288333e-59
1.612143047e-57
4.01035358e-56
1.183970819e-54
3.704306977e-53
1.096058295e-51
2.779652603e-50
5.572920792e-49
8.264486235e-48
8.572401523e-47
5.928408429e-46
2.625453353e-45
7.213282926e-45
1.202609476e-44
1.202590608e-44
7.212947415e-45
2.625254297e-45
5.927797356e-46
8.571303777e-47
8.263241065e-48
5.571968816e-49
2.779129917e-50
1.09583809e-51
3.703540047e-53
1.183729483e-54
4.009585627e-56
1.611860304e-57
8.541481195e-59
6.497738923e-60
7.504234964e-61
1.349388819e-61
3.78546315e-62
1.640345078e-62
1.085164345e-62
3.881021004e-63
4.968828048e-63
8.217627001e-63
1.77632792e-62
5.080354641e-62
1.934982208e-61
9.752057118e-61
6.345757829e-60
5.104018809e-59
4.783977678e-58
4.877858755e-57
5.027132872e-56
4.877825604e-55
4.174541117e-54
2.970838605e-53
1.667710017e-52
7.048963621e-52
2.156428055e-51
4.627955116e-51
6.817985627e-51
6.817899182e-51
4.627781204e-51
2.156296219e-51
7.048381553e-52
1.667541179e-52
2.970492062e-53
4.174004571e-54
4.877158983e-55
5.026425908e-56
4.877177513e-57
4.78334104e-58
5.103398021e-59
6.345070339e-60
9.751110206e-61
1.934809462e-61
5.079933063e-62
1.776193448e-62
8.21708074e-63
4.968547659e-63
3.880829035e-63
2.11154632e-63
2.435751459e-63
3.263018893e-63
5.119928058e-63
9.498513017e-63
2.097399724e-62
5.511215365e-62
1.705666066e-61
6.085921372e-61
2.426122496e-60
1.039228732e-59
4.577901324e-59
1.981709144e-58
8.0610116e-58
2.951939668e-57
9.349584719e-57
2.469793194e-56
5.273123968e-56
8.873450399e-56
1.156329804e-55
1.156320026e-55
8.873228232e-56
5.272909787e-56
2.469658537e-56
9.348966504e-57
2.951718447e-57
8.060360735e-58
1.981543651e-58
4.577519893e-59
1.039145372e-59
2.425942197e-60
6.085517914e-61
1.705567797e-61
5.510940299e-62
2.09730785e-62
9.498145565e-63
5.119755537e-63
3.262925559e-63
2.435693063e-63
2.111501779e-63
1.485242492e-63
1.609322637e-63
1.898450076e-63
2.451038674e-63
3.48397382e-63
5.477176235e-63
9.532861129e-63
1.828856123e-62
3.827072723e-62
8.593703127e-62
2.027183325e-61
4.900376174e-61
1.181770261e-60
2.765799425e-60
6.112164144e-60
1.242244651e-59
2.265964075e-59
3.631009085e-59
5.023439129e-59
5.927384852e-59
5.927356169e-59
5.02336726e-59
3.630925101e-59
2.265894156e-59
1.242198612e-59
6.111910941e-60
2.76567823e-60
1.181717903e-60
4.900165075e-61
2.027101464e-61
8.593389531e-62
3.826950893e-62
1.828806653e-62
9.532644011e-63
5.477070699e-63
3.483916855e-63
2.451004994e-63
1.898428494e-63
1.609307461e-63
1.485230154e-63
1.212507751e-63
1.266635581e-63
1.386940577e-63
1.596509743e-63
1.938355865e-63
2.488756514e-63
3.381869328e-63
4.853926273e-63
7.320143791e-63
1.150180422e-62
1.861810796e-62
3.06317659e-62
5.046299227e-62
8.193705157e-62
1.290424058e-61
1.940487338e-61
2.745458774e-61
3.607217588e-61
4.35472699e-61
4.794077737e-61
4.794066013e-61
4.354695557e-61
3.607175647e-61
2.745416443e-61
1.940451716e-61
1.290397897e-61
8.193532162e-62
5.046193548e-62
3.063115577e-62
1.861776838e-62
1.150161893e-62
7.320043079e-63
4.853870731e-63
3.381837564e-63
2.488737347e-63
1.938343618e-63
1.596501521e-63
1.386934799e-63
1.266631252e-63
1.212504108e-63
1.078934755e-63
1.103823922e-63
1.158310188e-63
1.248595242e-63
1.384930576e-63
1.582802394e-63
1.864645088e-63
2.262079862e-63
2.818473182e-63
3.591161714e-63
4.651907426e-63
6.083083564e-63
7.966070691e-63
1.035808601e-62
1.325601623e-62
1.655268819e-62
2.000204294e-62
2.321920149e-62
2.573849705e-62
2.712887734e-62
2.712884707e-62
2.573841244e-62
2.321907899e-62
2.00019038e-62
1.655255221e-62
1.325589724e-62
1.03579905e-62
7.965999035e-63
6.083032521e-63
4.651872429e-63
3.591138357e-63
2.818457849e-63
2.262069841e-63
1.864638468e-63
1.582797915e-63
1.384927457e-63
1.248593014e-63
1.158308553e-63
1.10382266e-63
1.078933676e-63
1.009794492e-63
1.02116652e-63
1.046512891e-63
1.087650825e-63
1.147313693e-63
1.229119617e-63
1.337510141e-63
1.477625717e-63
1.655061223e-63
1.87541509e-63
2.143524561e-63
2.462291572e-63
2.831068007e-63
3.243700325e-63
3.686576791e-63
4.137342661e-63
4.565190001e-63
4.933538448e-63
5.205304373e-63
5.349880566e-63
5.349878067e-63
5.205297223e-63
4.933527611e-63
4.565176851e-63
4.137328691e-63
3.686563322e-63
3.2436883e-63
2.831057921e-63
2.462283531e-63
2.143518406e-63
1.875410529e-63
1.655057925e-63
1.47762337e-63
1.337508478e-63
1.229118431e-63
1.147312837e-63
1.087650199e-63
1.046512425e-63
1.021166158e-63
1.009794181e-63
9.735020596e-64
9.783210057e-64
9.899002125e-64
1.00880258e-63
1.035808348e-63
1.071826757e-63
1.117787419e-63
1.174515798e-63
1.24259495e-63
1.322212559e-63
1.412991566e-63
1.513807702e-63
1.62260779e-63
1.736257753e-63
1.850470723e-63
1.959884495e-63
2.058355839e-63
2.139502247e-63
2.197450101e-63
2.227663106e-63
2.227662701e-63
2.197448929e-63
2.13950043e-63
2.058353558e-63
1.959881967e-63
1.850468164e-63
1.736255344e-63
1.622605656e-63
1.513805906e-63
1.412990119e-63
1.322211434e-63
1.242594102e-63
1.174515172e-63
1.117786963e-63
1.071826427e-63
1.035808108e-63
1.008802404e-63
9.899000826e-64
9.783209051e-64
9.735019735e-64
9.546752498e-64
9.56278526e-64
9.612013595e-64
9.696182952e-64
9.817536442e-64
9.978336458e-64
1.018032511e-63
1.04241864e-63
1.070906295e-63
1.103215828e-63
1.138843522e-63
1.177041333e-63
1.216807652e-63
1.256892398e-63
1.295823245e-63
1.331962066e-63
1.363598709e-63
1.389081485e-63
1.406972242e-63
1.41620272e-63
1.416202626e-63
1.406971969e-63
1.389081057e-63
1.363598164e-63
1.33196145e-63
1.295822608e-63
1.256891786e-63
1.216807097e-63
1.177040856e-63
1.13884313e-63
1.103215519e-63
1.070906059e-63
1.042418465e-63
1.018032383e-63
9.978335532e-64
9.817535775e-64
9.696182472e-64
9.612013244e-64
9.562784992e-64
9.546752271e-64
9.451660612e-64
9.452078387e-64
9.469250281e-64
9.503623377e-64
9.555719073e-64
9.625935523e-64
9.714331712e-64
9.820425359e-64
9.943032207e-64
1.008016281e-63
1.022897992e-63
1.038581096e-63
1.054620829e-63
1.070505565e-63
1.085672958e-63
1.099533129e-63
1.111499983e-63
1.121029805e-63
1.127663744e-63
1.131068488e-63
1.131068462e-63
1.127663669e-63
1.121029687e-63
1.111499832e-63
1.099532958e-63
1.085672779e-63
1.070505392e-63
1.054620671e-63
1.03858096e-63
1.02289788e-63
1.008016192e-63
9.943031535e-64
9.820424863e-64
9.714331354e-64
9.625935268e-64
9.555718892e-64
9.50362325e-64
9.46925019e-64
9.452078319e-64
9.451660555e-64
9.405262377e-64
9.398278038e-64
9.400323261e-64
9.411378988e-64
9.431387348e-64
9.460194603e-64
9.497486129e-64
9.542724108e-64
9.595098646e-64
9.653499871e-64
9.71651356e-64
9.782438637e-64
9.849323132e-64
9.915016458e-64
9.977239116e-64
1.003367315e-63
1.00820753e-63
1.012040906e-63
1.014698468e-63
1.01605895e-63
1.016058942e-63
1.014698446e-63
1.012040872e-63
1.008207485e-63
1.003367265e-63
9.977238593e-64
9.915015953e-64
9.849322672e-64
9.782438243e-64
9.716513238e-64
9.65349962e-64
9.595098457e-64
9.54272397e-64
9.497486031e-64
9.460194535e-64
9.431387301e-64
9.411378955e-64
9.400323239e-64
9.398278022e-64
9.405262363e-64
9.383471054e-64
9.37308682e-64
9.368201961e-64
9.368621011e-64
9.374077223e-64
9.384239296e-64
9.398712537e-64
9.417034246e-64
9.438665998e-64
9.462986704e-64
9.489289849e-64
9.516786837e-64
9.544617082e-64
9.571865086e-64
9.597585087e-64
9.620834127e-64
9.640713658e-64
9.656417828e-64
9.667284151e-64
9.672840308e-64
9.672840286e-64
9.667284087e-64
9.656417727e-64
9.640713528e-64
9.62083398e-64
9.597584935e-64
9.57186494e-64
9.544616949e-64
9.516786724e-64
9.489289758e-64
9.462986634e-64
9.438665946e-64
9.417034209e-64
9.398712511e-64
9.384239279e-64
9.374077211e-64
9.368621003e-64
9.368201956e-64
9.373086816e-64
9.383471051e-64
9.373631498e-64
9.361739607e-64
9.353786297e-64
9.349507555e-64
9.348558026e-64
9.350545225e-64
9.355058769e-64
9.361689548e-64
9.370037984e-64
9.379713782e-64
9.390331114e-64
9.40150303e-64
9.412837879e-64
9.423939392e-64
9.434411292e-64
9.443866722e-64
9.451942139e-64
9.458314562e-64
9.462720161e-64
9.464971622e-64
9.464971616e-64
9.462720142e-64
9.458314533e-64
9.451942102e-64
9.443866679e-64
9.434411249e-64
9.42393935e-64
9.412837842e-64
9.401502999e-64
9.390331089e-64
9.379713763e-64
9.37003797e-64
9.361689538e-64
9.355058762e-64
9.350545221e-64
9.348558023e-64
9.349507553e-64
9.353786296e-64
9.361739606e-64
9.373631498e-64
9.369359572e-64
9.356823085e-64
9.347559121e-64
9.341276966e-64
9.337601242e-64
9.336117519e-64
9.33641309e-64
9.338105829e-64
9.340858794e-64
9.344382385e-64
9.348428244e-64
9.3527795e-64
9.357241066e-64
9.361632292e-64
9.36578306e-64
9.369533449e-64
9.372736557e-64
9.375263607e-64
9.377010231e-64
9.377902663e-64
9.377902661e-64
9.377010225e-64
9.375263598e-64
9.372736546e-64
9.369533437e-64
9.365783048e-64
9.361632281e-64
9.357241056e-64
9.352779492e-64
9.348428237e-64
9.34438238e-64
9.34085879e-64
9.338105826e-64
9.336413088e-64
9.336117518e-64
9.337601241e-64
9.341276965e-64
9.347559121e-64
9.356823085e-64
9.369359572e-64
9.367574984e-64
9.354772799e-64
9.344968955e-64
9.337862476e-64
9.333066592e-64
9.330158907e-64
9.328726784e-64
9.328400055e-64
9.328868136e-64
9.329883105e-64
9.331253044e-64
9.332830548e-64
9.334500483e-64
9.336169583e-64
9.337759033e-64
9.339200193e-64
9.340432984e-64
9.34140621e-64
9.342079033e-64
9.342422832e-64
9.342422831e-64
9.342079032e-64
9.341406208e-64
9.340432981e-64
9.33920019e-64
9.337759029e-64
9.33616958e-64
9.334500481e-64
9.332830546e-64
9.331253042e-64
9.329883103e-64
9.328868135e-64
9.328400055e-64
9.328726783e-64
9.330158907e-64
9.333066592e-64
9.337862476e-64
9.344968955e-64
9.354772799e-64
9.367574984e-64
9.366857078e-64
9.353949246e-64
9.343930843e-64
9.336497042e-64
9.331256831e-64
9.327784948e-64
9.325669047e-64
9.324543898e-64
9.324109476e-64
9.324134401e-64
9.324449058e-64
9.324933436e-64
9.325503884e-64
9.326101493e-64
9.326683303e-64
9.327216458e-64
9.327674855e-64
9.328037612e-64
9.328288677e-64
9.328417028e-64
9.328417028e-64
9.328288677e-64
9.328037611e-64
9.327674855e-64
9.327216457e-64
9.326683303e-64
9.326101493e-64
9.325503883e-64
9.324933436e-64
9.324449058e-64
9.3241344e-64
9.324109476e-64
9.324543898e-64
9.325669047e-64
9.327784948e-64
9.331256831e-64
9.336497042e-64
9.343930843e-64
9.353949246e-64
9.366857078e-64
9.366578983e-64
9.353630585e-64
9.343529837e-64
9.335970503e-64
9.330560036e-64
9.326872166e-64
9.324494732e-64
9.323064449e-64
9.322285353e-64
9.321932387e-64
9.321844446e-64
9.321911954e-64
9.322063249e-64
9.322252507e-64
9.322450409e-64
9.322637709e-64
9.322801213e-64
9.322931547e-64
9.323022062e-64
9.323068406e-64
9.323068405e-64
9.323022062e-64
9.322931546e-64
9.322801213e-64
9.322637708e-64
9.322450409e-64
9.322252507e-64
9.322063249e-64
9.321911954e-64
9.321844446e-64
9.321932387e-64
9.322285353e-64
9.323064449e-64
9.324494732e-64
9.326872166e-64
9.330560036e-64
9.335970503e-64
9.343529837e-64
9.353630585e-64
9.366578983e-64
9.366475737e-64
9.35351227e-64
9.343380947e-64
9.335775039e-64
9.330301463e-64
9.326533609e-64
9.324059412e-64
9.322516322e-64
9.321609882e-64
9.321117372e-64
9.320880822e-64
9.3207945e-64
9.320791162e-64
9.320829802e-64
9.320886129e-64
9.320945907e-64
9.321000697e-64
9.321045357e-64
9.321076697e-64
9.321092817e-64
9.321092817e-64
9.321076697e-64
9.321045357e-64
9.321000697e-64
9.320945907e-64
9.320886129e-64
9.320829802e-64
9.320791162e-64
9.3207945e-64
9.320880822e-64
9.321117372e-64
9.321609882e-64
9.322516322e-64
9.324059412e-64
9.326533609e-64
9.330301463e-64
9.335775039e-64
9.343380947e-64
9.35351227e-64
9.366475737e-64
9.36644003e-64
9.353471116e-64
9.343328753e-64
9.335706053e-64
9.330209761e-64
9.326413163e-64
9.323904245e-64
9.322320726e-64
9.321368697e-64
9.320826271e-64
9.320536593e-64
9.3203953e-64
9.320336721e-64
9.320321568e-64
9.320327341e-64
9.32034159e-64
9.32035757e-64
9.32037165e-64
9.32038187e-64
9.320387204e-64
9.320387204e-64
9.32038187e-64
9.32037165e-64
9.32035757e-64
9.32034159e-64
9.320327341e-64
9.320321568e-64
9.320336721e-64
9.3203953e-64
9.320536593e-64
9.320826271e-64
9.321368697e-64
9.322320726e-64
9.323904245e-64
9.326413163e-64
9.330209761e-64
9.335706053e-64
9.343328753e-64
9.353471116e-64
9.36644003e-64
9.366430362e-64
9.353459488e-64
9.34331317e-64
9.335684481e-64
9.330180129e-64
9.326373384e-64
9.323852267e-64
9.322254602e-64
9.321286672e-64
9.320726878e-64
9.320418748e-64
9.320258388e-64
9.320180666e-64
9.320146884e-64
9.320135157e-64
9.320133651e-64
9.320136204e-64
9.320139706e-64
9.320142621e-64
9.320144224e-64
9.320144224e-64
9.320142621e-64
9.320139706e-64
9.320136204e-64
9.320133651e-64
9.320135157e-64
9.320146884e-64
9.320180666e-64
9.320258388e-64
9.320418748e-64
9.320726878e-64
9.321286672e-64
9.322254602e-64
9.323852267e-64
9.326373384e-64
9.330180129e-64
9.335684481e-64
9.34331317e-64
9.353459488e-64
9.366430362e-64
9.366431678e-64
9.353460035e-64
9.34331219e-64
9.335681229e-64
9.330173879e-64
9.326363435e-64
9.323837952e-64
9.322235306e-64
9.32126185e-64
9.320696082e-64
9.320381654e-64
9.320214821e-64
9.320130625e-64
9.320090559e-64
9.320072939e-64
9.320066135e-64
9.320064177e-64
9.320064126e-64
9.320064588e-64
9.320064939e-64
9.320064939e-64
9.320064588e-64
9.320064126e-64
9.320064177e-64
9.320066135e-64
9.320072939e-64
9.320090559e-64
9.320130625e-64
9.320214821e-64
9.320381654e-64
9.320696082e-64
9.32126185e-64
9.322235306e-64
9.323837952e-64
9.326363435e-64
9.330173879e-64
9.335681229e-64
9.34331219e-64
9.353460035e-64
9.366431678e-64
9.366439214e-64
9.353467152e-64
9.343318508e-64
9.335686413e-64
9.330177643e-64
9.326365548e-64
9.323838231e-64
9.322233606e-64
9.321258059e-64
9.320690119e-64
9.320373471e-64
9.32020441e-64
9.320118023e-64
9.320075854e-64
9.320056279e-64
9.320047726e-64
9.320044284e-64
9.320043067e-64
9.320042726e-64
9.320042666e-64
9.320042666e-64
9.320042726e-64
9.320043067e-64
9.320044284e-64
9.320047726e-64
9.320056279e-64
9.320075854e-64
9.320118023e-64
9.32020441e-64
9.320373471e-64
9.320690119e-64
9.321258059e-64
9.322233606e-64
9.323838231e-64
9.326365548e-64
9.330177643e-64
9.335686413e-64
9.343318508e-64
9.353467152e-64
9.366439214e-64
9.366452112e-64
9.353479673e-64
9.343330336e-64
9.335697303e-64
9.330187437e-64
9.326374167e-64
9.323845662e-64
9.322239885e-64
9.321263246e-64
9.320694283e-64
9.320376682e-64
9.320206735e-64
9.320119528e-64
9.320076607e-64
9.320056356e-64
9.320047211e-64
9.320043275e-64
9.320041674e-64
9.32004107e-64
9.320040877e-64
9.320040877e-64
9.32004107e-64
9.320041674e-64
9.320043275e-64
9.320047211e-64
9.320056356e-64
9.320076607e-64
9.320119528e-64
9.320206735e-64
9.320376682e-64
9.320694283e-64
9.321263246e-64
9.322239885e-64
9.323845662e-64
9.326374167e-64
9.330187437e-64
9.335697303e-64
9.343330336e-64
9.353479673e-64
9.366452112e-64
9.366470932e-64
9.353498033e-64
9.343347867e-64
9.335713736e-64
9.330202623e-64
9.326388074e-64
9.323858352e-64
9.322251478e-64
9.321273894e-64
9.32070414e-64
9.320385888e-64
9.320215409e-64
9.320127767e-64
9.320084489e-64
9.320063944e-64
9.320054561e-64
9.320050436e-64
9.320048694e-64
9.320047996e-64
9.320047755e-64
9.320047755e-64
9.320047996e-64
9.320048694e-64
9.320050436e-64
9.320054561e-64
9.320063944e-64
9.320084489e-64
9.320127767e-64
9.320215409e-64
9.320385888e-64
9.32070414e-64
9.321273894e-64
9.322251478e-64
9.323858352e-64
9.326388074e-64
9.330202623e-64
9.335713736e-64
9.343347867e-64
9.353498033e-64
9.366470932e-64
9.366496631e-64
9.353523134e-64
9.343371894e-64
9.335736348e-64
9.330223641e-64
9.326407476e-64
9.323876241e-64
9.32226804e-64
9.321289349e-64
9.320718712e-64
9.320399779e-64
9.320228786e-64
9.320140762e-64
9.320097203e-64
9.320076452e-64
9.320066917e-64
9.320062684e-64
9.320060867e-64
9.320060121e-64
9.320059857e-64
9.320059857e-64
9.320060121e-64
9.320060867e-64
9.320062684e-64
9.320066917e-64
9.320076452e-64
9.320097203e-64
9.320140762e-64
9.320228786e-64
9.320399779e-64
9.320718712e-64
9.321289349e-64
9.32226804e-64
9.323876241e-64
9.326407476e-64
9.330223641e-64
9.335736348e-64
9.343371894e-64
9.353523134e-64
9.366496631e-64
9.366530086e-64
9.353555822e-64
9.343403206e-64
9.33576585e-64
9.330251108e-64
9.326432885e-64
9.323899729e-64
9.322289849e-64
9.321309771e-64
9.320738039e-64
9.320418274e-64
9.320246669e-64
9.320158204e-64
9.320114334e-64
9.320093366e-64
9.320083683e-64
9.320079349e-64
9.320077465e-64
9.320076679e-64
9.320076396e-64
9.320076396e-64
9.320076679e-64
9.320077465e-64
9.320079349e-64
9.320083683e-64
9.320093366e-64
9.320114334e-64
9.320158204e-64
9.320246669e-64
9.320418274e-64
9.320738039e-64
9.321309771e-64
9.322289849e-64
9.323899729e-64
9.326432885e-64
9.330251108e-64
9.33576585e-64
9.343403206e-64
9.353555822e-64
9.366530086e-64
9.366613374e-64
9.353637217e-64
9.343481204e-64
9.335839379e-64
9.330319612e-64
9.326496305e-64
9.323958407e-64
9.322344386e-64
9.321360888e-64
9.320786462e-64
9.320464656e-64
9.320291555e-64
9.320202024e-64
9.320157407e-64
9.320135926e-64
9.320125895e-64
9.32012133e-64
9.320119298e-64
9.320118424e-64
9.320118101e-64
9.320118101e-64
9.320118424e-64
9.320119298e-64
9.32012133e-64
9.320125895e-64
9.320135926e-64
9.320157407e-64
9.320202024e-64
9.320291555e-64
9.320464656e-64
9.320786462e-64
9.321360888e-64
9.322344386e-64
9.323958407e-64
9.326496305e-64
9.330319612e-64
9.335839379e-64
9.343481204e-64
9.353637217e-64
9.366613374e-64
9.382585791e-64
9.369275196e-64
9.358517641e-64
9.350077527e-64
9.343648364e-64
9.338889486e-64
9.335460976e-64
9.333051044e-64
9.33139306e-64
9.330272332e-64
9.329524776e-64
9.329030517e-64
9.328705246e-64
9.328491489e-64
9.328351009e-64
9.32825882e-64
9.328198824e-64
9.3281608e-64
9.32813843e-64
9.328128075e-64
9.328128075e-64
9.32813843e-64
9.3281608e-64
9.328198824e-64
9.32825882e-64
9.328351009e-64
9.328491489e-64
9.328705246e-64
9.329030517e-64
9.329524776e-64
9.330272332e-64
9.33139306e-64
9.333051044e-64
9.335460976e-64
9.338889486e-64
9.343648364e-64
9.350077527e-64
9.358517641e-64
9.369275196e-64
9.382585791e-64
9.394184078e-64
9.380645558e-64
9.369477333e-64
9.360488724e-64
9.353428656e-64
9.348012581e-64
9.343949065e-64
9.340961938e-64
9.33880563e-64
9.337273232e-64
9.336198269e-64
9.335451985e-64
9.334938073e-64
9.334586486e-64
9.334347442e-64
9.334186247e-64
9.334079162e-64
9.334010293e-64
9.333969388e-64
9.333950354e-64
9.333950354e-64
9.333969388e-64
9.334010293e-64
9.334079162e-64
9.334186247e-64
9.334347442e-64
9.334586486e-64
9.334938073e-64
9.335451985e-64
9.336198269e-64
9.337273232e-64
9.33880563e-64
9.340961938e-64
9.343949065e-64
9.348012581e-64
9.353428656e-64
9.360488724e-64
9.369477333e-64
9.380645558e-64
9.394184078e-64
9.401743933e-64
9.388063439e-64
9.376639137e-64
9.367306987e-64
9.359849099e-64
9.354015033e-64
9.349543474e-64
9.346181118e-64
9.343696729e-64
9.341889663e-64
9.340593251e-64
9.339674181e-64
9.339029242e-64
9.33858075e-64
9.338271647e-64
9.338060938e-64
9.337919798e-64
9.337828488e-64
9.337774041e-64
9.337748648e-64
9.337748648e-64
9.337774041e-64
9.337828488e-64
9.337919798e-64
9.338060938e-64
9.338271647e-64
9.33858075e-64
9.339029242e-64
9.339674181e-64
9.340593251e-64
9.341889663e-64
9.343696729e-64
9.346181118e-64
9.349543474e-64
9.354015033e-64
9.359849099e-64
9.367306987e-64
9.376639137e-64
9.388063439e-64
9.401743933e-64
9.405473884e-64
9.391725225e-64
9.380177901e-64
9.370680282e-64
9.363030021e-64
9.3569928e-64
9.352321725e-64
9.348774648e-64
9.346127557e-64
9.344183219e-64
9.342775259e-64
9.341768471e-64
9.341056513e-64
9.340558107e-64
9.34021269e-64
9.339976173e-64
9.339817204e-64
9.339714102e-64
9.33965252e-64
9.339623772e-64
9.339623772e-64
9.33965252e-64
9.339714102e-64
9.339817204e-64
9.339976173e-64
9.34021269e-64
9.340558107e-64
9.341056513e-64
9.341768471e-64
9.342775259e-64
9.344183219e-64
9.346127557e-64
9.348774648e-64
9.352321725e-64
9.3569928e-64
9.363030021e-64
9.370680282e-64
9.380177901e-64
9.391725225e-64
9.405473884e-64
8.173138684e-45
7.992684477e-44
6.583128169e-42
2.616871627e-39
4.471333078e-36
2.129755898e-32
1.279471522e-28
4.863728885e-25
8.843895907e-22
5.843615413e-19
1.160261523e-16
7.283466268e-15
1.804165412e-13
2.228295316e-12
1.57195991e-11
6.794346754e-11
2.051982619e-10
4.761339532e-10
8.751848165e-10
1.213580742e-09
1.213610227e-09
8.752535728e-10
4.762020375e-10
2.052441594e-10
6.796540733e-11
1.572711526e-11
2.229920782e-12
1.806246233e-13
7.294894706e-15
1.162901707e-16
5.859678254e-19
8.873072417e-22
4.883430261e-25
1.285626145e-28
2.140393233e-32
4.489922152e-36
2.620306497e-39
6.541980635e-42
7.890003402e-44
8.031656246e-45
7.988956244e-47
8.745309611e-46
5.468022188e-44
5.660900864e-42
2.564802452e-39
1.017301281e-35
1.081690507e-31
9.198771854e-28
4.403818448e-24
7.617862495e-21
3.197275763e-18
3.353808946e-16
1.165229945e-14
1.905529739e-13
1.768571148e-12
9.66879013e-12
3.807071528e-11
1.130810027e-10
2.456364611e-10
3.6457563e-10
3.645804012e-10
2.456480918e-10
1.130916155e-10
3.807635718e-11
9.670771665e-12
1.769232696e-12
1.906707683e-13
1.166739909e-14
3.357766529e-16
3.202160577e-18
7.624958563e-21
4.407837392e-24
9.208846886e-28
1.083131271e-31
1.016867236e-35
2.554109265e-39
5.604573088e-42
5.374610055e-44
8.596360832e-46
7.84402087e-47
3.626280349e-51
9.952872427e-50
1.688331041e-47
2.987593531e-45
3.490843253e-43
6.457314729e-40
1.057417086e-35
3.040120929e-31
5.027664809e-27
1.794505294e-23
1.039238647e-20
9.642692909e-19
2.216804908e-17
4.247618974e-16
7.907505361e-15
1.156021934e-13
1.254961651e-12
7.477441824e-12
2.253717331e-11
3.588968604e-11
3.588926831e-11
2.25370319e-11
7.477624282e-12
1.255114934e-12
1.156219544e-13
7.908918439e-15
4.247894175e-16
2.216425996e-17
9.638107825e-19
1.038530809e-20
1.792786412e-23
5.021154821e-27
3.034393364e-31
1.055018274e-35
6.436976015e-40
3.470993525e-43
2.952971941e-45
1.663329677e-47
9.799922393e-50
3.572044356e-51
1.844932255e-58
5.700617379e-57
1.206615713e-54
2.35858083e-50
1.335188001e-45
4.427511777e-41
2.146815259e-36
1.076177015e-31
2.516472223e-27
1.119277641e-23
7.336530931e-21
7.166137526e-19
1.688103813e-17
3.350519485e-16
6.396409117e-15
1.013361918e-13
1.333486867e-12
8.44215153e-12
2.546356228e-11
3.881264107e-11
3.881201935e-11
2.54628096e-11
8.44208421e-12
1.333672813e-12
1.013561025e-13
6.397508234e-15
3.35067336e-16
1.687927625e-17
7.163690264e-19
7.333539923e-21
1.118668093e-23
2.514303133e-27
1.074792858e-31
2.14351533e-36
4.418947519e-41
1.331855473e-45
2.351666615e-50
1.210408208e-54
5.709756057e-57
1.84576e-58
9.603296608e-59
3.973636934e-57
4.142408873e-55
5.976572486e-52
3.063201135e-48
2.488419765e-44
2.763020953e-40
3.771182242e-36
4.575947289e-32
2.665653997e-28
5.144996392e-25
2.282398881e-22
3.126507136e-20
2.143123259e-18
7.877862562e-17
1.492799959e-15
1.376997213e-14
6.341514204e-14
1.847796193e-13
3.071734822e-13
3.071750096e-13
1.847822458e-13
6.341722232e-14
1.377114363e-14
1.492995091e-15
7.87902929e-17
2.143387018e-18
3.126700612e-20
2.282309967e-22
5.14453443e-25
2.665061917e-28
4.573783882e-32
3.767849011e-36
2.760819148e-40
2.487144479e-44
3.060117924e-48
5.974518345e-52
4.154593061e-55
3.981284106e-57
9.610646989e-59
2.051725479e-58
1.723054548e-57
8.291380543e-56
2.190069771e-53
2.251067691e-50
6.075275032e-47
3.034370648e-43
2.03911332e-39
1.382363429e-35
5.622021501e-32
2.025373078e-28
1.277745933e-25
2.81508439e-23
2.718301553e-21
1.21548225e-19
2.580778451e-18
2.669702404e-17
1.467155127e-16
4.756067637e-16
8.619433075e-16
8.619512715e-16
4.756181061e-16
1.46720836e-16
2.669821015e-17
2.58091028e-18
1.215544695e-19
2.718393356e-21
2.81508212e-23
1.277680928e-25
2.025174644e-28
5.621006727e-32
1.381980402e-35
2.038432945e-39
3.033397181e-43
6.072381382e-47
2.249304723e-50
2.188792428e-53
8.295130156e-56
1.723150105e-57
2.05019201e-58
2.498035823e-59
1.239502435e-58
2.731532955e-57
2.380563725e-55