/*--------------------------------*- C++ -*----------------------------------*\
  =========                 |
  \\      /  F ield         | OpenFOAM: The Open Source CFD Toolbox
   \\    /   O peration     | Website:  https://openfoam.org
    \\  /    A nd           | Version:  6
     \\/     M anipulation  |
\*---------------------------------------------------------------------------*/
FoamFile
{
    version     2.0;
    format      ascii;
    class       volVectorField;
    location    "0.002";
    object      U;
}
// * * * * * * * * * * * * * * * * * * * * * * * * * * * * * * * * * * * * * //

dimensions      [0 1 -1 0 0 0 0];

internalField   nonuniform List<vector> 
600
(
(0 1.097986834e-10 -9.256709437e-14)
(0 1.104444309e-10 -2.694525369e-13)
(0 1.113547611e-10 -4.192945189e-13)
(0 1.123622611e-10 -5.209045792e-13)
(0 1.133589941e-10 -5.50721184e-13)
(0 1.141780014e-10 -4.817610341e-13)
(0 1.145938391e-10 -2.824559209e-13)
(0 1.143139577e-10 8.240753108e-14)
(0 1.129708194e-10 6.491990713e-13)
(0 1.101197531e-10 1.44809845e-12)
(0 1.052538171e-10 2.491390482e-12)
(0 9.78491965e-11 3.755524169e-12)
(0 8.744831338e-11 5.1637259e-12)
(0 7.37675205e-11 6.580613826e-12)
(8.889856876e-53 5.678340664e-11 7.843927693e-12)
(5.91865589e-53 3.672371587e-11 8.849293022e-12)
(0 1.39077665e-11 9.659771804e-12)
(0 -1.147827094e-11 1.050333528e-11)
(0 -3.93223199e-11 1.145217054e-11)
(0 -6.877307762e-11 1.180436691e-11)
(0 -9.697043272e-11 1.006572012e-11)
(0 -1.192841042e-10 5.580065273e-12)
(0 -1.313862423e-10 -1.002514916e-12)
(0 -1.303245092e-10 -9.256353526e-12)
(0 -1.139843901e-10 -1.92512832e-11)
(0 -8.128511447e-11 -3.032089245e-11)
(0 -3.511976561e-11 -3.895886118e-11)
(0 1.3357062e-11 -3.956019005e-11)
(0 4.738211081e-11 -2.725250952e-11)
(0 1.179204762e-12 4.743082932e-25)
(0 1.093005991e-10 -2.866052215e-13)
(0 1.1000164e-10 -8.351443552e-13)
(0 1.110165545e-10 -1.30405033e-12)
(0 1.121854002e-10 -1.630847385e-12)
(0 1.134085273e-10 -1.746186882e-12)
(0 1.145291713e-10 -1.569653784e-12)
(0 1.153317767e-10 -1.007303079e-12)
(0 1.155291437e-10 4.752851762e-14)
(0 1.147474876e-10 1.706534437e-12)
(0 1.125146264e-10 4.067307638e-12)
(0 1.082641152e-10 7.177224929e-12)
(0 1.013750414e-10 1.097827455e-11)
(0 9.126752105e-11 1.524352014e-11)
(0 7.755867387e-11 1.954570269e-11)
(0 6.023776272e-11 2.3336671e-11)
(0 3.973483104e-11 2.622301612e-11)
(0 1.667953352e-11 2.838703111e-11)
(0 -8.734389769e-12 3.073143267e-11)
(0 -3.727376338e-11 3.390376285e-11)
(0 -6.956070599e-11 3.585519064e-11)
(0 -1.027282079e-10 3.116972133e-11)
(0 -1.303062004e-10 1.762458948e-11)
(0 -1.471957441e-10 -1.904985708e-12)
(0 -1.513902189e-10 -2.594100533e-11)
(0 -1.40908982e-10 -5.544651626e-11)
(0 -1.117713718e-10 -8.969953761e-11)
(0 -6.261515416e-11 -1.178090837e-10)
(0 -3.571138068e-12 -1.21359991e-10)
(0 4.432600176e-11 -8.424290975e-11)
(0 1.221492938e-12 5.245028005e-25)
(0 1.084339364e-10 -5.091556284e-13)
(0 1.092257807e-10 -1.487789029e-12)
(0 1.104101894e-10 -2.339111543e-12)
(0 1.118397136e-10 -2.963302303e-12)
(0 1.134285645e-10 -3.248841033e-12)
(0 1.150372548e-10 -3.065384245e-12)
(0 1.164680476e-10 -2.259072497e-12)
(0 1.174462825e-10 -6.512279846e-13)
(0 1.175954442e-10 1.953063022e-12)
(0 1.164097558e-10 5.739507875e-12)
(0 1.132372993e-10 1.0827924e-11)
(0 1.072995032e-10 1.71728908e-11)
(0 9.778881669e-11 2.442410723e-11)
(0 8.409113986e-11 3.180579543e-11)
(1.001492057e-52 6.613532772e-11 3.817336957e-11)
(6.889091609e-53 4.470185867e-11 4.250286236e-11)
(0 2.120905137e-11 4.494303145e-11)
(0 -3.651638423e-12 4.77707122e-11)
(0 -3.211062245e-11 5.405430404e-11)
(0 -6.837222003e-11 6.104500746e-11)
(0 -1.098231346e-10 5.530437337e-11)
(0 -1.455100516e-10 3.189272233e-11)
(0 -1.689394182e-10 1.468269115e-13)
(0 -1.814094119e-10 -3.655510188e-11)
(0 -1.829299819e-10 -8.279312517e-11)
(0 -1.644768633e-10 -1.433588369e-10)
(0 -1.155615189e-10 -1.986432776e-10)
(0 -4.281633714e-11 -2.115071202e-10)
(0 2.76008212e-11 -1.498882933e-10)
(0 1.313564863e-12 6.195557092e-25)
(0 1.071110533e-10 -7.755995662e-13)
(0 1.080250212e-10 -2.274911159e-12)
(0 1.094368674e-10 -3.607278832e-12)
(0 1.11216159e-10 -4.641367653e-12)
(0 1.132961034e-10 -5.229683036e-12)
(0 1.155613984e-10 -5.199126327e-12)
(0 1.178410921e-10 -4.34263476e-12)
(0 1.19884728e-10 -2.413502541e-12)
(0 1.213272496e-10 8.725746472e-13)
(0 1.216421177e-10 5.816076529e-12)
(0 1.20089502e-10 1.266968505e-11)
(0 1.156851501e-10 2.149606314e-11)
(0 1.072552817e-10 3.19176814e-11)
(0 9.370296393e-11 4.279376524e-11)
(-1.130349733e-52 7.462826991e-11 5.205323037e-11)
(-7.570098073e-53 5.123357612e-11 5.725237374e-11)
(0 2.666988324e-11 5.767882506e-11)
(0 3.827148903e-12 5.77663233e-11)
(0 -2.125322897e-11 6.763371343e-11)
(0 -6.151147462e-11 8.740233686e-11)
(0 -1.156390494e-10 8.427200384e-11)
(0 -1.615444379e-10 4.721124906e-11)
(0 -1.899826415e-10 4.168526038e-12)
(0 -2.112265736e-10 -3.796388062e-11)
(0 -2.325108135e-10 -9.207664996e-11)
(0 -2.367302356e-10 -1.833415191e-10)
(0 -1.947605121e-10 -2.802548714e-10)
(0 -1.051623157e-10 -3.145338946e-10)
(0 -8.354269801e-13 -2.309170726e-10)
(0 1.473550082e-12 7.611158289e-25)
(0 1.052175756e-10 -1.09949551e-12)
(0 1.062785712e-10 -3.237840212e-12)
(0 1.07964028e-10 -5.180186697e-12)
(0 1.101640626e-10 -6.771197157e-12)
(0 1.128341152e-10 -7.836537986e-12)
(0 1.158874358e-10 -8.171408828e-12)
(0 1.191867566e-10 -7.529065484e-12)
(0 1.225187576e-10 -5.608055976e-12)
(0 1.255541918e-10 -2.040914632e-12)
(0 1.277852896e-10 3.605228981e-12)
(0 1.284309447e-10 1.17845529e-11)
(0 1.263143411e-10 2.282073534e-11)
(0 1.197779314e-10 3.654588702e-11)
(0 1.068512162e-10 5.16478008e-11)
(0 8.611170394e-11 6.486593964e-11)
(0 5.871231694e-11 7.092794656e-11)
(0 3.079951379e-11 6.560641553e-11)
(0 1.196760473e-11 5.453974128e-11)
(0 -1.501136428e-12 6.496172929e-11)
(0 -4.343759869e-11 1.145721147e-10)
(0 -1.169028523e-10 1.210646665e-10)
(0 -1.735218243e-10 5.782677663e-11)
(0 -1.988561411e-10 4.153316975e-12)
(0 -2.232669905e-10 -2.983047975e-11)
(0 -2.725435225e-10 -6.878400917e-11)
(0 -3.184604528e-10 -1.959485961e-10)
(0 -2.970828397e-10 -3.589308222e-10)
(0 -1.905117309e-10 -4.333481713e-10)
(0 -4.089091557e-11 -3.354334341e-10)
(0 1.739029228e-12 9.789464123e-25)
(0 1.026199377e-10 -1.491154303e-12)
(0 1.038443855e-10 -4.408051693e-12)
(0 1.058340615e-10 -7.111916479e-12)
(0 1.085013156e-10 -9.432322937e-12)
(0 1.11823517e-10 -1.117882612e-11)
(0 1.157409796e-10 -1.212933647e-11)
(0 1.201488473e-10 -1.201735514e-11)
(0 1.248754202e-10 -1.051367218e-11)
(0 1.296497154e-10 -7.19881814e-12)
(0 1.340426788e-10 -1.528665365e-12)
(0 1.373482149e-10 7.182847683e-12)
(0 1.383542208e-10 1.968689061e-11)
(0 1.349893331e-10 3.64460231e-11)
(0 1.240394966e-10 5.666434955e-11)
(0 1.017353902e-10 7.633618397e-11)
(0 6.708467998e-11 8.580721888e-11)
(0 2.928211166e-11 7.122277872e-11)
(0 1.459907533e-11 3.034752269e-11)
(0 2.933542484e-11 2.473048297e-11)
(0 -8.298555245e-12 1.401455949e-10)
(0 -1.101070518e-10 1.695540288e-10)
(0 -1.743365387e-10 5.000193864e-11)
(0 -1.796609389e-10 -1.209074569e-11)
(0 -1.917130034e-10 -1.943476812e-11)
(0 -2.720031057e-10 5.740794463e-12)
(0 -3.825653526e-10 -1.61913343e-10)
(0 -4.076919887e-10 -4.275539378e-10)
(0 -2.922234273e-10 -5.628320858e-10)
(0 -9.273127497e-11 -4.714494091e-10)
(0 2.189459246e-12 1.355480746e-24)
(0 9.917144542e-11 -1.95714621e-12)
(0 1.005661745e-10 -5.805399475e-12)
(0 1.028731183e-10 -9.436188516e-12)
(0 1.060265523e-10 -1.267291649e-11)
(0 1.100212023e-10 -1.531940493e-11)
(0 1.148144452e-10 -1.715005227e-11)
(0 1.203169962e-10 -1.790011467e-11)
(0 1.263780795e-10 -1.724914483e-11)
(0 1.327744587e-10 -1.478730916e-11)
(0 1.391926257e-10 -9.950808024e-12)
(0 1.451575672e-10 -1.917218466e-12)
(0 1.497889249e-10 1.051172658e-11)
(0 1.511656862e-10 2.886920196e-11)
(0 1.451143872e-10 5.423302417e-11)
(0 1.240176215e-10 8.425331314e-11)
(0 7.952667073e-11 1.058508796e-10)
(0 1.723563389e-11 8.686342026e-11)
(0 -1.469933357e-12 -1.600136593e-11)
(0 6.518181354e-11 -8.865972772e-11)
(0 3.48222508e-11 1.742045267e-10)
(0 -8.390667454e-11 2.562414985e-10)
(0 -1.404415856e-10 -7.229974563e-12)
(0 -1.159194702e-10 -6.078178352e-11)
(0 -1.01832559e-10 -3.507052264e-11)
(0 -1.895771507e-10 1.712909453e-10)
(0 -3.519146528e-10 -4.980765497e-11)
(0 -4.814269328e-10 -4.71457265e-10)
(0 -3.831234794e-10 -6.685432469e-10)
(0 -1.593687545e-10 -6.401440766e-10)
(0 3.007070296e-12 2.076450007e-24)
(0 9.47194936e-11 -2.500052462e-12)
(0 9.628136507e-11 -7.437659993e-12)
(0 9.89009146e-11 -1.216594717e-11)
(0 1.025333626e-10 -1.651020637e-11)
(0 1.071839013e-10 -2.027570963e-11)
(0 1.128098943e-10 -2.32403092e-11)
(0 1.193025306e-10 -2.515177531e-11)
(0 1.264703329e-10 -2.572475342e-11)
(0 1.34048521e-10 -2.462719095e-11)
(0 1.417524678e-10 -2.143177269e-11)
(0 1.493701895e-10 -1.547723593e-11)
(0 1.567840558e-10 -5.535994532e-12)
(0 1.63497025e-10 1.080876375e-11)
(0 1.666050011e-10 3.775275759e-11)
(0 1.556415622e-10 7.965791765e-11)
(0 1.077169216e-10 1.293397693e-10)
(0 -1.90887439e-12 1.376296475e-10)
(0 -3.647267507e-11 -5.972828801e-11)
(0 9.443648008e-11 -3.615095106e-10)
(0 8.184168233e-25 1.44969933e-11)
(0 -3.033670635e-24 9.856881804e-12)
(0 -1.233562353e-24 -4.289457775e-12)
(0 -8.929883681e-26 -2.731153132e-12)
(0 1.093549043e-24 -3.677980115e-12)
(0 2.806518724e-24 1.102872886e-11)
(0 -1.61779384e-24 1.589582012e-11)
(0 -4.294756549e-10 -4.794211383e-10)
(0 -3.814788599e-10 -6.584815015e-10)
(0 -2.696228263e-10 -8.140466461e-10)
(0 4.657345893e-12 3.102461332e-24)
(0 8.911376769e-11 -3.118576368e-12)
(0 9.082934793e-11 -9.300934822e-12)
(0 9.373940352e-11 -1.529515349e-11)
(0 9.782138506e-11 -2.093609347e-11)
(0 1.030876732e-10 -2.603362712e-11)
(0 1.094812588e-10 -3.036401661e-11)
(0 1.168331758e-10 -3.367232023e-11)
(0 1.248167923e-10 -3.568815367e-11)
(0 1.329347379e-10 -3.615914682e-11)
(0 1.406007717e-10 -3.489796142e-11)
(0 1.474290098e-10 -3.179163408e-11)
(0 1.538613132e-10 -2.656909315e-11)
(0 1.619825755e-10 -1.775693356e-11)
(0 1.750025175e-10 2.029503664e-13)
(0 1.890125651e-10 4.211040426e-11)
(0 1.696817038e-10 1.279621166e-10)
(0 -1.354773939e-11 2.592034043e-10)
(0 2.25657835e-24 -4.213845945e-12)
(0 -1.037839384e-11 -8.672419469e-12)
(0 -1.026772936e-11 1.850501793e-11)
(0 6.088936224e-12 1.384661649e-11)
(0 7.53657639e-12 -4.158267492e-12)
(0 6.114776588e-13 -2.95628744e-12)
(0 -6.364729333e-12 -2.883975774e-12)
(0 -5.301587064e-12 1.652315593e-11)
(0 9.095882305e-12 2.292807153e-11)
(0 8.979567017e-12 -1.480182803e-12)
(0 5.273242338e-26 9.834756208e-12)
(0 -5.529301582e-10 -8.378734936e-10)
(0 8.481423204e-12 -2.272521122e-11)
(0 8.221558656e-11 -3.807681282e-12)
(0 8.4059632e-11 -1.13797589e-11)
(0 8.721798575e-11 -1.879970428e-11)
(0 9.169734539e-11 -2.592287509e-11)
(0 9.752609531e-11 -3.256733322e-11)
(0 1.046393517e-10 -3.849423133e-11)
(0 1.127975665e-10 -4.340146647e-11)
(0 1.214740025e-10 -4.693948949e-11)
(0 1.297310602e-10 -4.87762553e-11)
(0 1.361481894e-10 -4.876400764e-11)
(0 1.39000368e-10 -4.727887088e-11)
(0 1.372168437e-10 -4.572887348e-11)
(0 1.331955719e-10 -4.675630114e-11)
(0 1.389131027e-10 -5.220461012e-11)
(0 1.782831464e-10 -5.319929239e-11)
(0 2.81277489e-10 -2.377630974e-11)
(0 1.115998926e-11 1.113528854e-11)
(0 1.620296717e-11 -2.31129642e-12)
(0 2.594252349e-12 -9.853471773e-12)
(0 -2.356351033e-12 5.474959788e-12)
(0 2.212101859e-12 5.952366198e-12)
(0 3.321707374e-12 1.180523031e-12)
(0 1.27429172e-12 6.800230431e-13)
(0 -6.451679379e-13 2.378179461e-12)
(0 9.366600393e-13 8.61720536e-12)
(0 6.872048295e-12 1.049955606e-11)
(0 7.031296249e-12 4.432167091e-13)
(0 8.424600317e-12 1.487204069e-11)
(0 -1.611399863e-11 1.406729109e-12)
(0 -2.617158294e-11 -6.472928491e-11)
(0 7.39104043e-11 -4.558992362e-12)
(0 7.58421892e-11 -1.364581895e-11)
(0 7.917675415e-11 -2.263298238e-11)
(0 8.396406052e-11 -3.141804321e-11)
(0 9.027441013e-11 -3.984289277e-11)
(0 9.807785784e-11 -4.765041234e-11)
(0 1.071278225e-10 -5.444747734e-11)
(0 1.167738313e-10 -5.967512403e-11)
(0 1.256702695e-10 -6.261237771e-11)
(0 1.313330666e-10 -6.249205624e-11)
(0 1.295306978e-10 -5.891003504e-11)
(0 1.137589502e-10 -5.287796555e-11)
(0 7.601693845e-11 -4.883543537e-11)
(0 1.442363011e-11 -5.639589074e-11)
(1.908147237e-52 -5.017774371e-11 -7.003021498e-11)
(3.892490471e-52 -4.238546786e-12 2.52783615e-24)
(0 -2.311296268e-12 1.610456174e-11)
(0 3.886626612e-12 3.772665308e-12)
(0 2.158637986e-12 -6.022217041e-13)
(0 7.873327739e-13 2.545044437e-12)
(0 1.794499451e-12 3.307030397e-12)
(0 2.264233219e-12 2.247489515e-12)
(0 1.809134091e-12 2.117130365e-12)
(0 1.572453005e-12 3.098943378e-12)
(0 2.819789563e-12 5.067717427e-12)
(0 5.67266951e-12 5.258614047e-12)
(0 8.601276077e-12 2.593532125e-12)
(0 1.633734804e-11 3.591301715e-12)
(0 3.527405832e-11 -9.64099679e-12)
(0 -4.176210386e-12 -3.210488617e-11)
(0 6.412791576e-11 -5.363439771e-12)
(0 6.608595567e-11 -1.605642328e-11)
(0 6.947585425e-11 -2.671296332e-11)
(0 7.440959599e-11 -3.73165336e-11)
(0 8.103527641e-11 -4.777460493e-11)
(0 8.942681671e-11 -5.784598689e-11)
(0 9.946652511e-11 -6.706485979e-11)
(0 1.10649545e-10 -7.463456787e-11)
(0 1.217481889e-10 -7.928103139e-11)
(0 1.301982745e-10 -7.907300078e-11)
(0 1.308818026e-10 -7.125425103e-11)
(0 1.135940347e-10 -5.227630306e-11)
(0 5.745410091e-11 -1.864723259e-11)
(0 -7.064634721e-11 2.799374721e-11)
(0 -3.532314057e-10 8.756946579e-11)
(0 -8.770825274e-12 -1.055703028e-11)
(0 -9.94273217e-12 2.339498505e-12)
(0 -5.038159798e-13 1.899967531e-12)
(0 1.366631485e-12 1.127029218e-12)
(0 1.552901059e-12 2.000365422e-12)
(0 1.914546939e-12 2.483015842e-12)
(0 2.131807346e-12 2.384912681e-12)
(0 2.125745581e-12 2.44150458e-12)
(0 2.305419116e-12 2.83246282e-12)
(0 3.096330702e-12 3.296041112e-12)
(0 4.397862999e-12 2.874377026e-12)
(0 5.36398392e-12 1.081707664e-12)
(0 4.619489553e-12 -1.889478808e-12)
(0 -6.810187769e-12 -1.166935296e-11)
(0 -9.696210796e-12 1.225717554e-11)
(0 5.287917129e-11 -6.223683064e-12)
(0 5.47748076e-11 -1.855969888e-11)
(0 5.802382616e-11 -3.09050656e-11)
(0 6.282370838e-11 -4.341209181e-11)
(0 6.942544491e-11 -5.61252865e-11)
(0 7.805248227e-11 -6.889665147e-11)
(0 8.882172202e-11 -8.129774329e-11)
(0 1.01627148e-10 -9.247541855e-11)
(0 1.159849595e-10 -1.009330827e-10)
(0 1.308801016e-10 -1.0423374e-10)
(0 1.447340965e-10 -9.863772848e-11)
(0 1.557937551e-10 -7.883765179e-11)
(0 1.614678669e-10 -3.908511036e-11)
(0 1.735375622e-10 1.339250941e-11)
(0 1.431835699e-11 8.583349303e-25)
(0 1.822556311e-11 -1.070300907e-11)
(0 5.394925685e-12 -2.840322896e-12)
(0 2.674157352e-12 3.606625666e-13)
(0 2.259035885e-12 1.20998562e-12)
(0 2.143319399e-12 1.846252701e-12)
(0 2.179046711e-12 2.239532798e-12)
(0 2.222721958e-12 2.367317254e-12)
(0 2.256684231e-12 2.431064235e-12)
(0 2.426989536e-12 2.492941788e-12)
(0 2.861703767e-12 2.409822445e-12)
(0 3.45833606e-12 1.86162818e-12)
(0 3.837420245e-12 7.482259467e-13)
(0 3.586287441e-12 -5.614743884e-13)
(0 2.935713197e-12 -9.189666155e-13)
(0 5.119604562e-12 2.206805115e-12)
(0 4.033489271e-11 -7.199158213e-12)
(0 4.202772922e-11 -2.112012964e-11)
(0 4.482867035e-11 -3.501268215e-11)
(0 4.906276604e-11 -4.935326293e-11)
(0 5.507484794e-11 -6.440367956e-11)
(0 6.320824518e-11 -8.018699795e-11)
(0 7.376688043e-11 -9.643440335e-11)
(0 8.694039924e-11 -1.12450036e-10)
(0 1.026972498e-10 -1.269225862e-10)
(0 1.207174121e-10 -1.377859783e-10)
(0 1.406106889e-10 -1.423526687e-10)
(0 1.631420418e-10 -1.379922795e-10)
(0 1.91069865e-10 -1.229587247e-10)
(0 2.531109912e-10 -8.902276427e-11)
(0 9.421602367e-12 -2.807949392e-24)
(0 1.326423908e-11 5.286744355e-12)
(0 5.871715287e-12 1.392036463e-12)
(0 3.546492549e-12 1.17280569e-12)
(0 2.852221622e-12 1.505752918e-12)
(0 2.582448239e-12 1.93481477e-12)
(0 2.435611493e-12 2.261193761e-12)
(0 2.323338783e-12 2.413424485e-12)
(0 2.251370116e-12 2.42221371e-12)
(0 2.284177327e-12 2.2982929e-12)
(0 2.465017093e-12 1.988874892e-12)
(0 2.736266498e-12 1.41462907e-12)
(0 2.940881346e-12 6.11338967e-13)
(0 2.952296988e-12 -1.854217496e-13)
(0 2.902508638e-12 -5.958114825e-13)
(0 3.230742463e-12 -6.30069894e-13)
(0 2.70418311e-11 -8.568142226e-12)
(0 2.816526328e-11 -2.377865853e-11)
(0 3.003953712e-11 -3.878131176e-11)
(0 3.313567e-11 -5.463813779e-11)
(0 3.781483166e-11 -7.185497497e-11)
(0 4.444270955e-11 -9.064581725e-11)
(0 5.338476602e-11 -1.109437463e-10)
(0 6.490568621e-11 -1.322361454e-10)
(0 7.890115259e-11 -1.532776357e-10)
(0 9.427776265e-11 -1.717708533e-10)
(0 1.07596292e-10 -1.84226345e-10)
(0 1.102761186e-10 -1.86296345e-10)
(0 8.470799908e-11 -1.731660088e-10)
(0 -5.771264046e-12 -1.296169573e-10)
(0 -5.270285989e-12 -1.318855164e-24)
(0 -5.257787752e-12 5.582271964e-12)
(0 1.280987029e-12 1.948573868e-12)
(0 2.787873807e-12 1.432406395e-12)
(0 3.021044963e-12 1.705036515e-12)
(0 2.898760241e-12 2.125660485e-12)
(0 2.657656424e-12 2.456603555e-12)
(0 2.383741906e-12 2.60269071e-12)
(0 2.141552646e-12 2.546012056e-12)
(0 1.993650719e-12 2.289300843e-12)
(0 1.978039939e-12 1.833179858e-12)
(0 2.080800138e-12 1.197291869e-12)
(0 2.237369429e-12 4.684058264e-13)
(0 2.379136994e-12 -1.952386277e-13)
(0 2.491065054e-12 -6.483984254e-13)
(0 2.517080207e-12 -9.327678922e-13)
(0 1.461324336e-11 -1.118843581e-11)
(0 1.361722735e-11 -2.663378073e-11)
(0 1.388485549e-11 -4.187590528e-11)
(0 1.52336009e-11 -5.864609217e-11)
(0 1.779644334e-11 -7.755680595e-11)
(0 2.182464527e-11 -9.89596434e-11)
(0 2.76676071e-11 -1.229961558e-10)
(0 3.569873835e-11 -1.493462203e-10)
(0 4.612266929e-11 -1.767123159e-10)
(0 5.847609076e-11 -2.019625435e-10)
(0 7.042171855e-11 -2.188182874e-10)
(0 7.506466912e-11 -2.161574659e-10)
(0 5.686352282e-11 -1.77268604e-10)
(0 -1.929170475e-11 -9.262924281e-11)
(0 -5.120737165e-12 1.844946688e-24)
(0 -4.911798543e-12 -5.031029937e-12)
(0 1.721849729e-12 -6.12636979e-13)
(0 3.302955199e-12 9.030243952e-13)
(0 3.545475713e-12 1.755993039e-12)
(0 3.33401528e-12 2.405787377e-12)
(0 2.912641718e-12 2.836547506e-12)
(0 2.412747284e-12 2.994614806e-12)
(0 1.937980248e-12 2.870045412e-12)
(0 1.571345129e-12 2.48011752e-12)
(0 1.373008119e-12 1.857717384e-12)
(0 1.371492466e-12 1.073318083e-12)
(0 1.54835085e-12 2.607085259e-13)
(0 1.835492736e-12 -4.150813575e-13)
(0 2.164979374e-12 -8.694455444e-13)
(0 2.4079638e-12 -9.811362813e-13)
(0 -6.076156855e-13 -2.060544875e-11)
(0 -2.567644659e-12 -3.017151498e-11)
(0 -3.672168786e-12 -4.391811657e-11)
(0 -4.303784898e-12 -6.071235586e-11)
(0 -4.484001033e-12 -8.054139452e-11)
(0 -4.105570925e-12 -1.037451367e-10)
(0 -2.913046295e-12 -1.306993697e-10)
(0 -4.560198516e-13 -1.614566364e-10)
(0 4.034114498e-12 -1.951535106e-10)
(0 1.193273606e-11 -2.290070207e-10)
(0 2.590598303e-11 -2.566898684e-10)
(0 5.157713167e-11 -2.659773596e-10)
(0 9.828884283e-11 -2.364856019e-10)
(0 2.015838526e-10 -1.465222756e-10)
(0 9.823295558e-12 3.147212014e-24)
(0 1.425418675e-11 -4.96909303e-12)
(0 7.215041362e-12 -2.709754956e-13)
(0 5.156503826e-12 1.036179337e-12)
(0 4.523807947e-12 2.009948441e-12)
(0 3.979314709e-12 2.904715629e-12)
(0 3.246483853e-12 3.489004594e-12)
(0 2.417239812e-12 3.669279562e-12)
(0 1.627055359e-12 3.45977212e-12)
(0 9.8132269e-13 2.90378832e-12)
(0 5.712405008e-13 2.044469196e-12)
(0 4.837912784e-13 9.780060005e-13)
(0 7.489699872e-13 -8.36188805e-14)
(0 1.248982923e-12 -8.560058712e-13)
(0 1.925010129e-12 -1.432505279e-12)
(0 2.959090618e-12 -1.694814512e-12)
(0 -1.875383272e-11 -2.381678815e-11)
(0 -2.002334334e-11 -3.144714705e-11)
(0 -2.202156433e-11 -4.394119477e-11)
(0 -2.467642136e-11 -6.013896342e-11)
(0 -2.804392064e-11 -7.990928251e-11)
(0 -3.220615814e-11 -1.03650557e-10)
(0 -3.720025627e-11 -1.319897391e-10)
(0 -4.291592689e-11 -1.654606391e-10)
(0 -4.889293201e-11 -2.040277881e-10)
(0 -5.392250152e-11 -2.463409188e-10)
(0 -5.532017692e-11 -2.886239002e-10)
(0 -4.769785741e-11 -3.229238963e-10)
(0 -2.295821219e-11 -3.330082762e-10)
(0 4.263324054e-11 -2.748236371e-10)
(0 1.478555714e-11 -6.525438071e-25)
(0 1.96926133e-11 1.030131593e-11)
(0 7.727122096e-12 3.461923727e-12)
(0 5.583879134e-12 1.503116585e-12)
(0 5.414012004e-12 2.342478386e-12)
(0 4.813071433e-12 3.713715543e-12)
(0 3.677205651e-12 4.545378491e-12)
(0 2.38351481e-12 4.734018577e-12)
(0 1.172489006e-12 4.396433291e-12)
(0 1.560422048e-13 3.631047716e-12)
(0 -5.527741994e-13 2.438448341e-12)
(0 -7.565956109e-13 8.772821082e-13)
(0 -2.856610216e-13 -7.162952519e-13)
(0 4.866063389e-13 -1.491971665e-12)
(0 1.326170733e-12 -2.310841282e-12)
(0 4.893389575e-12 -5.417879205e-12)
(0 -3.51320399e-11 -2.406091998e-11)
(0 -3.667704965e-11 -3.052566893e-11)
(0 -3.979515215e-11 -4.1652416e-11)
(0 -4.460020516e-11 -5.653584187e-11)
(0 -5.137403048e-11 -7.506309894e-11)
(0 -6.053360873e-11 -9.766635582e-11)
(0 -7.261481364e-11 -1.251019851e-10)
(0 -8.822631426e-11 -1.581914925e-10)
(0 -1.079651936e-10 -1.97422313e-10)
(0 -1.323343857e-10 -2.422956396e-10)
(0 -1.618856133e-10 -2.902762708e-10)
(0 -1.982416819e-10 -3.350709325e-10)
(0 -2.477722425e-10 -3.635974244e-10)
(0 -3.220264107e-10 -3.492381073e-10)
(0 -4.634060824e-10 -2.619102992e-10)
(0 -7.159276845e-12 1.008983019e-11)
(0 -6.333933822e-12 -2.43589437e-12)
(0 4.037058483e-12 -8.293953616e-13)
(0 6.734406905e-12 2.141853757e-12)
(0 6.182214815e-12 5.061424296e-12)
(0 4.266786888e-12 6.244655519e-12)
(0 2.268294612e-12 6.325280993e-12)
(0 5.240844977e-13 5.761172233e-12)
(0 -9.766622599e-13 4.785255263e-12)
(0 -2.182525107e-12 3.199977266e-12)
(0 -2.670952316e-12 8.111611573e-13)
(0 -1.620283787e-12 -2.164550773e-12)
(0 -3.455631072e-13 -2.085399145e-12)
(0 -8.945314177e-12 6.044138005e-12)
(0 -9.357428305e-12 -1.692844308e-11)
(0 -4.95849237e-11 -2.219389593e-11)
(0 -5.160712814e-11 -2.761438424e-11)
(0 -5.587541479e-11 -3.708686743e-11)
(0 -6.271837976e-11 -4.989412076e-11)
(0 -7.269352593e-11 -6.592877006e-11)
(0 -8.659713471e-11 -8.555889933e-11)
(0 -1.054997015e-10 -1.094750671e-10)
(0 -1.30731389e-10 -1.384771878e-10)
(0 -1.637790735e-10 -1.731072222e-10)
(0 -2.06020261e-10 -2.129752685e-10)
(0 -2.581360176e-10 -2.555270308e-10)
(0 -3.187206585e-10 -2.938153085e-10)
(0 -3.805880445e-10 -3.127110687e-10)
(0 -4.18642901e-10 -2.838590663e-10)
(0 -3.719131013e-10 -1.760942798e-10)
(0 -2.867892531e-12 -2.477489865e-24)
(0 1.558672415e-12 -1.771611011e-11)
(0 1.016162726e-11 -4.52800661e-12)
(0 1.130483166e-11 1.99171635e-12)
(0 8.915873196e-12 8.144573743e-12)
(0 4.941062349e-12 9.0467829e-12)
(0 1.900031524e-12 8.561915836e-12)
(0 -3.675367248e-13 7.537962346e-12)
(0 -2.405152762e-12 6.548350575e-12)
(0 -4.526868306e-12 4.766764228e-12)
(0 -6.121123652e-12 1.335453671e-12)
(0 -3.182221325e-12 -6.665519282e-12)
(0 8.695295116e-12 -1.072875818e-11)
(0 3.296812602e-11 -9.835131549e-13)
(0 -2.000313388e-12 2.548212332e-11)
)
;

boundaryField
{
    lowerWall
    {
        type            slip;
    }
    atmosphere
    {
        type            pressureInletOutletVelocity;
        tangentialVelocity uniform (0 0 0);
        value           nonuniform List<vector> 
20
(
(0 1.097986834e-10 0)
(0 1.093005991e-10 0)
(0 1.084339364e-10 0)
(0 1.071110533e-10 0)
(0 1.052175756e-10 0)
(0 1.026199377e-10 0)
(0 9.917144542e-11 0)
(0 9.47194936e-11 0)
(0 8.911376769e-11 0)
(0 8.221558656e-11 0)
(0 7.39104043e-11 0)
(0 6.412791576e-11 0)
(0 5.287917129e-11 0)
(0 4.033489271e-11 0)
(0 2.70418311e-11 0)
(0 1.461324336e-11 0)
(0 -6.076156855e-13 -2.060544875e-11)
(0 -1.875383272e-11 -2.381678815e-11)
(0 -3.51320399e-11 -2.406091998e-11)
(0 -4.95849237e-11 -2.219389593e-11)
)
;
    }
    rightWall
    {
        type            empty;
    }
    leftWall
    {
        type            empty;
    }
    frontAndBack
    {
        type            slip;
    }
    procBoundary0to1
    {
        type            processor;
        value           nonuniform List<vector> 
20
(
(0 2.316669972e-12 4.228817567e-14)
(0 2.39376844e-12 1.343601009e-13)
(0 2.559790378e-12 2.520571442e-13)
(0 2.842183069e-12 4.254643662e-13)
(0 3.293692325e-12 7.159091683e-13)
(0 4.01251777e-12 1.268041069e-12)
(0 5.182309609e-12 2.467886653e-12)
(0 7.140876869e-12 5.474352936e-12)
(0 1.044035708e-11 1.417106982e-11)
(0 -6.769250141e-12 2.056890044e-11)
(0 -3.772056132e-11 2.083599904e-12)
(0 -4.364029174e-12 -1.406873158e-11)
(0 3.883410776e-12 -8.116625194e-12)
(0 2.383357679e-12 -3.198335852e-12)
(0 1.938082231e-12 -1.471177091e-12)
(0 1.990021341e-12 -4.274351308e-13)
(0 2.609210985e-12 1.052920504e-12)
(0 4.521233892e-12 5.4972516e-12)
(0 -2.823596344e-12 1.084562865e-11)
(0 -3.439050801e-11 -5.706955759e-12)
)
;
    }
    procBoundary0to2
    {
        type            processor;
        value           nonuniform List<vector> 
30
(
(0 -6.169222157e-11 -1.887856835e-11)
(0 -6.413361532e-11 -2.315365555e-11)
(0 -6.933629073e-11 -3.061495244e-11)
(0 -7.778880949e-11 -4.064449209e-11)
(0 -9.02827752e-11 -5.306746039e-11)
(0 -1.079388864e-10 -6.80702049e-11)
(0 -1.322722982e-10 -8.609944132e-11)
(0 -1.651817852e-10 -1.077077525e-10)
(0 -2.087808973e-10 -1.332882609e-10)
(0 -2.648962583e-10 -1.626040469e-10)
(0 -3.338781852e-10 -1.940263938e-10)
(0 -4.119704398e-10 -2.234809131e-10)
(0 -4.857766712e-10 -2.435376426e-10)
(0 -5.214314583e-10 -2.441308933e-10)
(0 -4.537735895e-10 -2.190130054e-10)
(0 -1.643490485e-10 -1.573768344e-10)
(0 1.401344648e-11 -1.25059427e-11)
(0 2.374488489e-11 -1.558672384e-12)
(0 1.940698725e-11 2.207816995e-12)
(0 1.323728136e-11 1.647851632e-11)
(0 4.684128981e-12 1.323690253e-11)
(0 7.594740574e-13 1.133884152e-11)
(0 -1.489480763e-12 9.281034122e-12)
(0 -3.747860377e-12 9.103408614e-12)
(0 -7.39542201e-12 7.984685201e-12)
(0 -1.410323583e-11 6.431316445e-12)
(0 -1.368449564e-11 -1.510404687e-11)
(0 -3.092975449e-12 -2.47501756e-11)
(0 -1.773443139e-11 -8.425506206e-12)
(0 -1.883164618e-11 5.715708208e-11)
)
;
    }
}


// ************************************************************************* //
