/*--------------------------------*- C++ -*----------------------------------*\
  =========                 |
  \\      /  F ield         | OpenFOAM: The Open Source CFD Toolbox
   \\    /   O peration     | Website:  https://openfoam.org
    \\  /    A nd           | Version:  6
     \\/     M anipulation  |
\*---------------------------------------------------------------------------*/
FoamFile
{
    version     2.0;
    format      ascii;
    class       volVectorField;
    location    "0.0016";
    object      gradT;
}
// * * * * * * * * * * * * * * * * * * * * * * * * * * * * * * * * * * * * * //

dimensions      [0 -1 0 1 0 0 0];

internalField   nonuniform List<vector> 
9600
(
(0 -2.165016205e-06 -1.337888535e-05)
(0 -6.491237004e-06 -1.337126213e-05)
(0 -1.082126937e-05 -1.334076887e-05)
(0 -1.515130178e-05 -1.330646403e-05)
(0 -1.948895761e-05 -1.325691268e-05)
(0 -2.382280155e-05 -1.320354953e-05)
(0 -2.81718922e-05 -1.312731656e-05)
(0 -3.252479469e-05 -1.304346038e-05)
(0 -3.688150844e-05 -1.293673415e-05)
(0 -4.125346898e-05 -1.281476141e-05)
(0 -4.563305309e-05 -1.267754215e-05)
(0 -5.001263665e-05 -1.252126449e-05)
(0 -5.440746708e-05 -1.234974032e-05)
(0 -5.881373281e-05 -1.215534633e-05)
(0 -6.322380948e-05 -1.193427066e-05)
(0 -6.766056804e-05 -1.168270188e-05)
(0 -7.208970374e-05 -1.140445162e-05)
(0 -7.653789681e-05 -1.10995197e-05)
(0 -8.099371361e-05 -1.0760283e-05)
(0 -8.546477752e-05 -1.037911824e-05)
(0 -8.994346369e-05 -9.956025222e-06)
(0 -9.443358533e-05 -9.494815784e-06)
(0 -9.891608426e-05 -8.984054973e-06)
(0 -0.0001034176402 -8.423742627e-06)
(0 -0.0001079191968 -7.798632314e-06)
(0 -0.0001124169424 -7.104912376e-06)
(0 -0.0001169184983 -6.357829277e-06)
(0 -0.00012140862 -5.526889959e-06)
(0 -0.0001258796841 -4.608282759e-06)
(0 -0.0001303507468 -3.60963089e-06)
(0 -0.0001348027519 -2.508064547e-06)
(0 -0.0001392242647 -1.295960412e-06)
(0 -0.000143622906 3.430483423e-08)
(0 -0.0001479796199 1.497977761e-06)
(0 -0.0001522829717 3.102681692e-06)
(0 -0.0001565405819 4.856039867e-06)
(0 -0.0001607181484 6.78473388e-06)
(0 -0.0001648271062 8.892575415e-06)
(0 -0.0001688407708 1.12100575e-05)
(0 -0.0001727438986 1.375242688e-05)
(0 -0.000176521243 1.65273069e-05)
(0 -0.0001801537428 1.95766254e-05)
(0 -0.0001836147194 2.290419432e-05)
(0 -0.0001868851147 2.65633768e-05)
(0 -0.0001899268089 3.054654905e-05)
(0 -0.0001927093121 3.49108863e-05)
(0 -0.0001951792613 3.967544685e-05)
(0 -0.0001973061599 4.487834646e-05)
(0 -0.0001990290249 5.053864411e-05)
(0 -0.00020028687 5.669826802e-05)
(0 -0.000201011082 6.338008706e-05)
(0 -0.0002011063732 7.059934884e-05)
(0 -0.0002005003223 7.837892338e-05)
(0 -0.0001990747647 8.673405587e-05)
(0 -0.0001967229781 9.564568964e-05)
(0 -0.000193311553 0.000105113824)
(0 -0.00018872614 0.0001151117773)
(0 -0.0001827837804 0.0001256166799)
(0 -0.0001752938917 0.0001366209085)
(0 -0.0001659629766 0.0001481473327)
(0 -0.000154287898 0.0001602569392)
(0 -0.0001394262816 0.0001729077999)
(0 -0.0001200859783 0.0001856691981)
(0 -9.482618527e-05 0.0001969478653)
(0 -6.354017644e-05 0.0002031379822)
(0 -2.887323553e-05 0.0002012283463)
(0 2.638422917e-05 0.0002153619376)
(0 0.0001008714598 0.0001368000564)
(0 0.0001254108506 6.681819378e-05)
(0 0.0001084147111 1.137777002e-05)
(0 0.0001043553063 -4.303350897e-05)
(0 0.0001088454274 -8.616230863e-05)
(0 0.0001199220772 -0.0001202231974)
(0 0.0001343834714 -0.0001402686563)
(0 0.0001459556347 -0.0001475984551)
(0 0.0001515473227 -0.0001494394812)
(0 0.0001521571873 -0.0001500569691)
(0 0.0001498587625 -0.000151208086)
(0 0.0001464359024 -0.0001529652558)
(0 0.0001429101286 -0.0001547148033)
(0 0.0001395863705 -0.0001556905843)
(0 0.0001362054385 -0.0001552941729)
(0 0.0001322489484 -0.0001533540449)
(0 0.0001271565855 -0.0001500836497)
(0 0.0001205319409 -0.0001459213299)
(0 0.0001121729969 -0.0001414617023)
(0 0.0001020645051 -0.000137337498)
(0 9.044278961e-05 -0.0001341052203)
(0 7.76699568e-05 -0.0001322032086)
(0 6.421483802e-05 -0.0001319440157)
(0 5.058057224e-05 -0.0001334458051)
(0 3.727410843e-05 -0.0001367428817)
(0 2.481001844e-05 -0.0001416751537)
(0 1.363426578e-05 -0.0001479719966)
(0 4.097521891e-06 -0.0001552065059)
(0 -3.605819242e-06 -0.0001628336131)
(0 -9.479569191e-06 -0.0001702587039)
(0 -1.375623861e-05 -0.0001769290894)
(0 -1.686273185e-05 -0.0001824369201)
(0 -1.93479265e-05 -0.0001866144865)
(0 -2.174926503e-05 -0.0001896752412)
(0 -2.432975076e-05 -0.0001922252328)
(0 -2.678826388e-05 -0.0001950458525)
(0 -2.812996423e-05 -0.000198769834)
(0 -2.661673971e-05 -0.0002032828243)
(0 -2.026272208e-05 -0.0002067781058)
(0 -8.324639822e-06 -0.0002048341664)
(0 5.686979185e-06 -0.0001903346552)
(0 1.555914815e-05 -0.0001630966169)
(0 1.890196377e-05 -0.0001282467177)
(0 1.491497959e-05 -8.326926761e-05)
(0 -4.30716252e-06 -3.923710706e-05)
(0 0.0002627674085 0.0002396726316)
(0 0.0006173078686 0.000563350176)
(0 0.0007535438003 0.0005367067548)
(0 0.0008587109922 0.0004600735695)
(0 0.000930457642 0.0003852127952)
(0 0.0009842095056 0.0003096735502)
(0 0.001024384284 0.0002311269162)
(0 0.0005206978321 0.0001492870153)
(0 -2.157392908e-06 -1.280332646e-05)
(0 -6.472178763e-06 -1.278807995e-05)
(0 -1.079077619e-05 -1.276139833e-05)
(0 -1.511699695e-05 -1.273471679e-05)
(0 -1.943178288e-05 -1.26813538e-05)
(0 -2.376181517e-05 -1.2624179e-05)
(0 -2.809184758e-05 -1.255938098e-05)
(0 -3.242950348e-05 -1.246790149e-05)
(0 -3.677478229e-05 -1.237261021e-05)
(0 -4.112768459e-05 -1.225444912e-05)
(0 -4.548439881e-05 -1.21210415e-05)
(0 -4.984873578e-05 -1.19685755e-05)
(0 -5.422831962e-05 -1.180467462e-05)
(0 -5.860028051e-05 -1.160265733e-05)
(0 -6.299511058e-05 -1.138920496e-05)
(0 -6.740137596e-05 -1.114907112e-05)
(0 -7.180001847e-05 -1.088225581e-05)
(0 -7.621771835e-05 -1.058875883e-05)
(0 -8.064304197e-05 -1.025714543e-05)
(0 -8.507217774e-05 -9.891227261e-06)
(0 -8.951274744e-05 -9.494815784e-06)
(0 -9.3949506e-05 -9.045041291e-06)
(0 -9.839388845e-05 -8.553338718e-06)
(0 -0.0001028344581 -8.015896264e-06)
(0 -0.0001072788399 -7.425090786e-06)
(0 -0.0001117117875 -6.773298976e-06)
(0 -0.0001161409221 -6.04527412e-06)
(0 -0.0001205548108 -5.256262933e-06)
(0 -0.0001249496419 -4.391018807e-06)
(0 -0.000129329225 -3.441918367e-06)
(0 -0.0001336706924 -2.397526748e-06)
(0 -0.0001379816674 -1.254032281e-06)
(0 -0.0001422621475 3.811648247e-09)
(0 -0.0001464854538 1.383628314e-06)
(0 -0.0001506553979 2.896852685e-06)
(0 -0.0001547452955 4.543484711e-06)
(0 -0.0001587589612 6.357829277e-06)
(0 -0.0001626811482 8.339886415e-06)
(0 -0.0001664889838 1.050871422e-05)
(0 -0.0001701672244 1.288337108e-05)
(0 -0.0001737006233 1.547529198e-05)
(0 -0.0001770701193 1.831496983e-05)
(0 -0.000180249034 2.141383985e-05)
(0 -0.0001831954392 2.4794772e-05)
(0 -0.0001859017083 2.849207065e-05)
(0 -0.0001883144817 3.25171712e-05)
(0 -0.0001903880195 3.69081902e-05)
(0 -0.0001920956367 4.167275029e-05)
(0 -0.0001933763505 4.684515696e-05)
(0 -0.0001941539279 5.245971514e-05)
(0 -0.000194390249 5.851642389e-05)
(0 -0.0001939824026 6.50267191e-05)
(0 -0.0001928617792 7.200584747e-05)
(0 -0.0001909254607 7.945380772e-05)
(0 -0.0001880781598 8.735535469e-05)
(0 -0.000184197902 9.567618289e-05)
(0 -0.0001791665262 0.0001043857991)
(0 -0.0001728201318 0.0001134384637)
(0 -0.0001649643249 0.000122765567)
(0 -0.0001553322897 0.000132279441)
(0 -0.0001435199917 0.0001418238082)
(0 -0.0001289785537 0.0001510594321)
(0 -0.0001110447486 0.0001592849689)
(0 -8.911252454e-05 0.0001651396606)
(0 -6.310564854e-05 0.0001665880871)
(0 -3.306604861e-05 0.0001619569343)
(0 3.903127805e-06 0.0001512423908)
(0 4.335749907e-05 0.0001144942907)
(0 6.091395064e-05 4.841936769e-05)
(0 5.204424517e-05 -6.93719981e-06)
(0 5.133909055e-05 -6.916235786e-05)
(0 6.697447136e-05 -0.0001167927139)
(0 9.119749597e-05 -0.0001614576081)
(0 0.000122174762 -0.0001809198851)
(0 0.0001443852356 -0.0001770853659)
(0 0.0001528394714 -0.0001702282107)
(0 0.0001527556161 -0.0001659134259)
(0 0.0001490011416 -0.0001652921262)
(0 0.0001447702121 -0.0001670797893)
(0 0.0001414883838 -0.0001695192452)
(0 0.0001393614832 -0.0001710019753)
(0 0.0001376996046 -0.0001703578068)
(0 0.0001354507329 -0.0001673466057)
(0 0.000131681012 -0.0001623571571)
(0 0.0001257653339 -0.0001560641258)
(0 0.0001173758968 -0.0001493518142)
(0 0.0001065470035 -0.0001431312033)
(0 9.362170425e-05 -0.0001382065538)
(0 7.913362974e-05 -0.0001351305545)
(0 6.37307587e-05 -0.0001342614979)
(0 4.805344945e-05 -0.0001357594756)
(0 3.278779842e-05 -0.0001396321111)
(0 1.860084345e-05 -0.0001457155008)
(0 6.091013899e-06 -0.0001536551641)
(0 -4.20805969e-06 -0.0001629060354)
(0 -1.199906868e-05 -0.0001726905355)
(0 -1.727820151e-05 -0.0001821281766)
(0 -2.03885066e-05 -0.0001903803962)
(0 -2.19703405e-05 -0.0001968144573)
(0 -2.296518069e-05 -0.0002010949382)
(0 -2.442123047e-05 -0.0002035000895)
(0 -2.701696278e-05 -0.00020521533)
(0 -3.05656073e-05 -0.000207837744)
(0 -3.363017269e-05 -0.0002131588062)
(0 -3.299743888e-05 -0.0002224439801)
(0 -2.378468506e-05 -0.0002344011206)
(0 -1.07869646e-06 -0.0002428820394)
(0 2.866740647e-05 -0.0002268731153)
(0 4.991734545e-05 -0.0001883297283)
(0 6.253390152e-05 -0.0001494318588)
(0 5.857359862e-05 -0.0001011154047)
(0 0.0002689270304 0.0001400323333)
(0 0.0005315191047 0.0004152371509)
(0 0.0006228423819 0.0004379355137)
(0 0.0007176304505 0.0004231577535)
(0 0.0007998820128 0.0003789883759)
(0 0.0008644703876 0.0003235555731)
(0 0.000914181904 0.0002622985741)
(0 0.0009509338221 0.0001968678215)
(0 0.0004831721551 0.0001282467169)
(0 -2.153581273e-06 -1.225063754e-05)
(0 -6.449308912e-06 -1.223539102e-05)
(0 -1.076028307e-05 -1.221633271e-05)
(0 -1.507506891e-05 -1.218202787e-05)
(0 -1.938223157e-05 -1.213247652e-05)
(0 -2.370082894e-05 -1.207911337e-05)
(0 -2.801561479e-05 -1.200669205e-05)
(0 -3.233421247e-05 -1.192664751e-05)
(0 -3.666805636e-05 -1.183135623e-05)
(0 -4.100190044e-05 -1.172081843e-05)
(0 -4.53433681e-05 -1.158359916e-05)
(0 -4.969627015e-05 -1.144256811e-05)
(0 -5.404536082e-05 -1.127485558e-05)
(0 -5.840207515e-05 -1.109189653e-05)
(0 -6.277403536e-05 -1.088606746e-05)
(0 -6.714599593e-05 -1.065355692e-05)
(0 -7.152558022e-05 -1.039817654e-05)
(0 -7.59165986e-05 -1.011230286e-05)
(0 -8.029618246e-05 -9.803559351e-06)
(0 -8.469863672e-05 -9.456699415e-06)
(0 -8.910108997e-05 -9.071722883e-06)
(0 -9.349592042e-05 -8.652441574e-06)
(0 -9.788693982e-05 -8.187420534e-06)
(0 -0.0001022855813 -7.672847968e-06)
(0 -0.0001066727885 -7.116347321e-06)
(0 -0.0001110409381 -6.495048692e-06)
(0 -0.0001154052747 -5.820386909e-06)
(0 -0.0001197505537 -5.073303848e-06)
(0 -0.0001240653403 -4.257611143e-06)
(0 -0.0001283572555 -3.369497071e-06)
(0 -0.0001326148666 -2.389903465e-06)
(0 -0.0001368229271 -1.318830309e-06)
(0 -0.0001409814346 -1.448426343e-07)
(0 -0.0001450865798 1.135871185e-06)
(0 -0.0001491269278 2.538557763e-06)
(0 -0.0001530757945 4.078463649e-06)
(0 -0.0001569331826 5.755588888e-06)
(0 -0.0001606762221 7.5928034e-06)
(0 -0.000164297287 9.597730345e-06)
(0 -0.0001677735103 1.178561645e-05)
(0 -0.0001710896453 1.417552e-05)
(0 -0.0001742190075 1.678268733e-05)
(0 -0.0001771311068 1.962998859e-05)
(0 -0.0001798106966 2.272504712e-05)
(0 -0.0001822044106 2.609835571e-05)
(0 -0.0001842893822 2.976897299e-05)
(0 -0.0001860236833 3.374833399e-05)
(0 -0.0001873615707 3.807074292e-05)
(0 -0.0001882458731 4.274001205e-05)
(0 -0.0001886232274 4.777901135e-05)
(0 -0.0001884402672 5.319536326e-05)
(0 -0.0001876169512 5.899669193e-05)
(0 -0.0001860694231 6.518299746e-05)
(0 -0.0001837290699 7.173522045e-05)
(0 -0.0001805006042 7.864192725e-05)
(0 -0.0001762811096 8.586500079e-05)
(0 -0.0001709600485 9.334345466e-05)
(0 -0.0001644040135 0.0001010048677)
(0 -0.0001564529153 0.0001087501371)
(0 -0.0001469047362 0.0001164077384)
(0 -0.0001355117195 0.0001237146681)
(0 -0.0001219651216 0.0001302478334)
(0 -0.0001060095619 0.0001352944556)
(0 -8.752306774e-05 0.0001377491571)
(0 -6.672671478e-05 0.0001361482649)
(0 -4.421893166e-05 0.0001287689137)
(0 -2.107460329e-05 0.0001131754604)
(0 -1.947752278e-06 8.281187082e-05)
(0 3.983172442e-06 3.574563748e-05)
(0 -9.16701409e-06 -1.672551261e-05)
(0 -5.500208487e-06 -8.191994512e-05)
(0 1.655017679e-05 -0.0001503542777)
(0 5.579109573e-05 -0.0002278527103)
(0 0.0001187557142 -0.0002448488514)
(0 0.000156647309 -0.0002095491753)
(0 0.0001627230763 -0.0001884478905)
(0 0.0001570894611 -0.0001780382801)
(0 0.0001486885874 -0.0001769290894)
(0 0.000142212597 -0.0001805272854)
(0 0.000138991755 -0.0001852499187)
(0 0.000138743997 -0.0001884135856)
(0 0.0001398646216 -0.0001877541705)
(0 0.0001402457873 -0.0001832792965)
(0 0.0001384390652 -0.0001758961327)
(0 0.0001335487204 -0.0001665918993)
(0 0.0001250944853 -0.0001567044846)
(0 0.0001132135769 -0.0001476213259)
(0 9.844725152e-05 -0.0001404173106)
(0 8.161501325e-05 -0.000135816652)
(0 6.358591644e-05 -0.0001341738308)
(0 4.520614849e-05 -0.0001356679969)
(0 2.731808332e-05 -0.0001402877154)
(0 1.07869646e-05 -0.0001478652713)
(0 -3.560079484e-06 -0.0001580271256)
(0 -1.493784966e-05 -0.0001700643119)
(0 -2.282414984e-05 -0.0001828981306)
(0 -2.716942887e-05 -0.0001951792613)
(0 -2.844251956e-05 -0.0002056460487)
(0 -2.758108688e-05 -0.0002133608236)
(0 -2.602974604e-05 -0.0002174659688)
(0 -2.586584532e-05 -0.0002180148474)
(0 -2.866359499e-05 -0.0002172982562)
(0 -3.474317398e-05 -0.0002179538597)
(0 -4.272857737e-05 -0.000223633217)
(0 -4.786286733e-05 -0.0002389484184)
(0 -4.070078023e-05 -0.0002655651583)
(0 -7.92822845e-07 -0.0003054578709)
(0 6.023166597e-05 -0.0002859994047)
(0 9.29965945e-05 -0.0002139897455)
(0 0.0001061162885 -0.0001618616448)
(0 0.0003043829843 6.950921786e-05)
(0 0.000512041582 0.0003075428407)
(0 0.0005606782173 0.000338901273)
(0 0.0006252322891 0.0003501989965)
(0 0.0006945928526 0.0003391871446)
(0 0.0007590973809 0.0003093114473)
(0 0.0008137716591 0.0002678140308)
(0 0.000857521758 0.0002191773988)
(0 0.0008903362433 0.0001658333823)
(0 0.0004520691082 0.0001094286102)
(0 -2.149769612e-06 -1.171700671e-05)
(0 -6.43406228e-06 -1.170938349e-05)
(0 -1.074122476e-05 -1.169413682e-05)
(0 -1.502932904e-05 -1.165983199e-05)
(0 -1.932886838e-05 -1.161790393e-05)
(0 -2.363603078e-05 -1.155691749e-05)
(0 -2.79431933e-05 -1.149593111e-05)
(0 -3.225416766e-05 -1.141969822e-05)
(0 -3.656514164e-05 -1.132440694e-05)
(0 -4.087992745e-05 -1.121386914e-05)
(0 -4.520996013e-05 -1.109189647e-05)
(0 -4.953999227e-05 -1.095086541e-05)
(0 -5.387383633e-05 -1.079458784e-05)
(0 -5.821530403e-05 -1.062306373e-05)
(0 -6.256058268e-05 -1.042485796e-05)
(0 -6.690586169e-05 -1.020759401e-05)
(0 -7.126257606e-05 -9.963648578e-06)
(0 -7.562310123e-05 -9.696833141e-06)
(0 -7.998362682e-05 -9.39571293e-06)
(0 -8.434034128e-05 -9.071722883e-06)
(0 -8.870467801e-05 -8.709616245e-06)
(0 -9.306139196e-05 -8.309393179e-06)
(0 -9.741810649e-05 -7.874865326e-06)
(0 -0.0001017710082 -7.406032545e-06)
(0 -0.0001061010406 -6.876213438e-06)
(0 -0.0001104082038 -6.300654591e-06)
(0 -0.0001147191773 -5.667920944e-06)
(0 -0.0001189996583 -4.978012611e-06)
(0 -0.0001232458352 -4.227117932e-06)
(0 -0.0001274577057 -3.399990237e-06)
(0 -0.0001316238373 -2.492817954e-06)
(0 -0.0001357366066 -1.505601067e-06)
(0 -0.0001398036344 -4.230929555e-07)
(0 -0.0001437982418 7.623296495e-07)
(0 -0.0001477128054 2.046855121e-06)
(0 -0.0001515282644 3.45716496e-06)
(0 -0.0001552484331 4.993259204e-06)
(0 -0.0001588351951 6.670384473e-06)
(0 -0.0001622923591 8.50378724e-06)
(0 -0.0001655894348 1.048965598e-05)
(0 -0.0001686997408 1.265848391e-05)
(0 -0.0001716194623 1.502170574e-05)
(0 -0.0001743066744 1.759075666e-05)
(0 -0.0001767270721 2.038469495e-05)
(0 -0.000178861594 2.341495518e-05)
(0 -0.000180660692 2.670440762e-05)
(0 -0.0001820900612 3.026829891e-05)
(0 -0.0001831115818 3.411806346e-05)
(0 -0.0001836604592 3.82689484e-05)
(0 -0.0001836985767 4.273238876e-05)
(0 -0.0001831725682 4.750457211e-05)
(0 -0.0001819985805 5.259693417e-05)
(0 -0.0001801156274 5.799422843e-05)
(0 -0.0001774627191 6.368883057e-05)
(0 -0.0001739521914 6.963881361e-05)
(0 -0.0001695001863 7.580987217e-05)
(0 -0.0001640228477 8.213720823e-05)
(0 -0.0001574172613 8.852171906e-05)
(0 -0.0001495652659 9.483762027e-05)
(0 -0.000140363947 0.0001008943293)
(0 -0.0001296798969 0.000106413596)
(0 -0.0001174025779 0.0001109532691)
(0 -0.0001035396132 0.0001139149197)
(0 -8.826252698e-05 0.0001144599854)
(0 -7.207826853e-05 0.0001115250163)
(0 -5.603504099e-05 0.00010385598)
(0 -4.206153841e-05 8.993202875e-05)
(0 -3.407232389e-05 6.78625858e-05)
(0 -3.862724334e-05 3.820033874e-05)
(0 -6.562514788e-05 5.077115466e-06)
(0 -8.228586286e-05 -2.696359986e-05)
(0 -7.896210509e-05 -8.317778805e-05)
(0 -3.289452438e-06 -0.0002257867956)
(0 0.0001404706737 -0.0003610317009)
(0 0.0002007861947 -0.0002277840993)
(0 0.0001843541791 -0.0001959492131)
(0 0.0001642744172 -0.0001808284056)
(0 0.0001465083237 -0.0001838319833)
(0 0.0001364531956 -0.0001928236615)
(0 0.0001336020835 -0.0002025014377)
(0 0.0001368534187 -0.000209625407)
(0 0.0001428338948 -0.000208931687)
(0 0.0001473087707 -0.0002021050262)
(0 0.000148368408 -0.0001913256838)
(0 0.0001449607945 -0.0001776761714)
(0 0.0001363426586 -0.0001632262139)
(0 0.0001228341764 -0.0001501789409)
(0 0.0001054263789 -0.0001400170867)
(0 8.537710961e-05 -0.0001335029807)
(0 6.387178968e-05 -0.0001309453639)
(0 4.194718896e-05 -0.0001324319067)
(0 2.059052396e-05 -0.0001379549858)
(0 8.576208557e-07 -0.0001474345542)
(0 -1.610421385e-05 -0.0001605237543)
(0 -2.907144136e-05 -0.0001764259518)
(0 -3.711783063e-05 -0.0001936546009)
(0 -4.003374154e-05 -0.0002100599349)
(0 -3.85662572e-05 -0.0002236865787)
(0 -3.378263842e-05 -0.0002335282532)
(0 -2.762301485e-05 -0.000237419946)
(0 -2.425732959e-05 -0.0002338369981)
(0 -2.695978805e-05 -0.000228047103)
(0 -3.690056668e-05 -0.0002231033952)
(0 -5.462091971e-05 -0.0002245060831)
(0 -7.492938125e-05 -0.0002442237382)
(0 -9.029032368e-05 -0.0002834913384)
(0 -2.151675449e-05 -0.0004274534836)
(0 0.0001201355295 -0.0003021874731)
(0 0.0001740589172 -0.0001125960892)
(0 0.0003460328649 6.458075664e-05)
(0 0.0005279780803 0.0002555252752)
(0 0.0005383228936 0.0002707489983)
(0 0.0005741752605 0.0002828090551)
(0 0.0006231244438 0.0002849359531)
(0 0.0006767428997 0.0002742137866)
(0 0.0007285165222 0.0002513782034)
(0 0.0007743401531 0.0002193374867)
(0 0.0008121974435 0.0001808322162)
(0 0.0008411812218 0.0001379397393)
(0 0.0004267483261 9.229525066e-05)
(0 -2.142146315e-06 -1.121386914e-05)
(0 -6.418815687e-06 -1.120624591e-05)
(0 -1.071835487e-05 -1.118718761e-05)
(0 -1.499502421e-05 -1.115669442e-05)
(0 -1.927931695e-05 -1.1118578e-05)
(0 -2.357885606e-05 -1.106902651e-05)
(0 -2.787077198e-05 -1.100041684e-05)
(0 -3.21626881e-05 -1.092418394e-05)
(0 -3.646603878e-05 -1.083270432e-05)
(0 -4.076938965e-05 -1.072978982e-05)
(0 -4.508417574e-05 -1.061925208e-05)
(0 -4.939514964e-05 -1.048203268e-05)
(0 -5.371755875e-05 -1.03333784e-05)
(0 -5.802853327e-05 -1.016947759e-05)
(0 -6.236237698e-05 -9.990330056e-06)
(0 -6.668478609e-05 -9.784501051e-06)
(0 -7.101863057e-05 -9.56342551e-06)
(0 -7.534485091e-05 -9.311856668e-06)
(0 -7.968250661e-05 -9.033606346e-06)
(0 -8.400872788e-05 -8.732486187e-06)
(0 -8.833494813e-05 -8.389437793e-06)
(0 -9.266498054e-05 -8.031142857e-06)
(0 -9.697976694e-05 -7.623296541e-06)
(0 -0.0001012831172 -7.181145298e-06)
(0 -0.0001055674099 -6.693254322e-06)
(0 -0.0001098326449 -6.167246901e-06)
(0 -0.0001140902553 -5.591687979e-06)
(0 -0.0001183021267 -4.955142722e-06)
(0 -0.0001224873172 -4.261422766e-06)
(0 -0.0001266267664 -3.502904739e-06)
(0 -0.0001307204766 -2.683400366e-06)
(0 -0.0001347532013 -1.78385139e-06)
(0 -0.0001387211263 -8.080694284e-07)
(0 -0.0001426166308 2.591920808e-07)
(0 -0.0001464206567 1.43317975e-06)
(0 -0.0001501332012 2.706270256e-06)
(0 -0.0001537199622 4.086086921e-06)
(0 -0.0001571695048 5.584064716e-06)
(0 -0.0001604818262 7.223073429e-06)
(0 -0.0001636188127 9.00311316e-06)
(0 -0.0001665537828 1.094324218e-05)
(0 -0.000169282922 1.30434603e-05)
(0 -0.0001717719283 1.532282595e-05)
(0 -0.0001739864969 1.779658577e-05)
(0 -0.0001758846967 2.047617439e-05)
(0 -0.0001774360376 2.33768387e-05)
(0 -0.0001786062146 2.650620207e-05)
(0 -0.0001793571083 2.987569896e-05)
(0 -0.0001796391703 3.350057645e-05)
(0 -0.0001793876025 3.736939964e-05)
(0 -0.0001785757204 4.150503777e-05)
(0 -0.0001771234824 4.589605655e-05)
(0 -0.0001749813371 5.052720947e-05)
(0 -0.0001720921067 5.537562574e-05)
(0 -0.0001683719383 6.042224813e-05)
(0 -0.0001637827139 6.561371309e-05)
(0 -0.0001582520122 7.087759929e-05)
(0 -0.0001516997889 7.611861564e-05)
(0 -0.0001440726808 8.120716611e-05)
(0 -0.0001353363829 8.595266813e-05)
(0 -0.0001254565906 9.008449484e-05)
(0 -0.0001144599855 9.325959789e-05)
(0 -0.0001025028449 9.499008614e-05)
(0 -8.991297067e-05 9.468515428e-05)
(0 -7.733071983e-05 9.165489398e-05)
(0 -6.581191876e-05 8.522845497e-05)
(0 -5.706799756e-05 7.486077158e-05)
(0 -5.367563094e-05 6.055565607e-05)
(0 -5.880992081e-05 4.41388867e-05)
(0 -7.433095247e-05 3.058085389e-05)
(0 -9.374748921e-05 3.06227822e-05)
(0 -0.0001822768308 1.59822411e-05)
(0 -0.0002220628152 -2.055240735e-05)
(0 0.0001167622215 -0.0001296760858)
(0 0.0003217374169 -0.0001445720064)
(0 0.0002096711468 -0.0001866754729)
(0 0.00016920669 -0.0001654712747)
(0 0.0001366971411 -0.0001847124741)
(0 0.0001235393313 -0.0002043843907)
(0 0.0001221900086 -0.0002222800805)
(0 0.0001323213689 -0.0002385977453)
(0 0.0001473850028 -0.0002362116535)
(0 0.0001578479782 -0.0002248224499)
(0 0.0001628602947 -0.0002095987255)
(0 0.0001616443789 -0.0001895418324)
(0 0.0001525955269 -0.0001683147643)
(0 0.0001364227024 -0.0001498092111)
(0 0.000115123212 -0.0001359309998)
(0 9.069054729e-05 -0.0001272061377)
(0 6.466461252e-05 -0.0001236308109)
(0 3.818890379e-05 -0.0001251097304)
(0 1.231924721e-05 -0.0001316619546)
(0 -1.177799308e-05 -0.0001433637139)
(0 -3.255528768e-05 -0.0001601654594)
(0 -4.806869634e-05 -0.0001814458926)
(0 -5.645813384e-05 -0.00020521533)
(0 -5.72052169e-05 -0.0002277040547)
(0 -5.191083779e-05 -0.0002455235117)
(0 -4.131064371e-05 -0.0002596532903)
(0 -2.634230104e-05 -0.0002648485668)
(0 -1.648919042e-05 -0.0002518927759)
(0 -1.792999336e-05 -0.0002379764467)
(0 -3.120215255e-05 -0.0002219294076)
(0 -6.385273182e-05 -0.0002070982855)
(0 -0.0001068519353 -0.000229975797)
(0 -0.0002239267112 -0.0001967839641)
(0 -1.948514596e-05 -0.0002017924711)
(0 0.0003750814341 -8.297958235e-06)
(0 0.0004597686349 0.0001183249965)
(0 0.0004742338428 0.0002644026056)
(0 0.0005105474128 0.0002412963923)
(0 0.0005393329804 0.0002372674801)
(0 0.0005748613572 0.000236817707)
(0 0.0006166370185 0.0002326515741)
(0 0.0006610350973 0.0002214948797)
(0 0.0007042172645 0.0002027377598)
(0 0.0007432218568 0.0001773941094)
(0 0.0007761278161 0.0001469314166)
(0 0.0008018030835 0.0001128362237)
(0 0.0004064131827 7.643498231e-05)
(0 -2.13833468e-06 -1.073360153e-05)
(0 -6.411192429e-06 -1.07259783e-05)
(0 -1.068786175e-05 -1.070691999e-05)
(0 -1.496453111e-05 -1.067261516e-05)
(0 -1.923357729e-05 -1.063449874e-05)
(0 -2.352549312e-05 -1.058875889e-05)
(0 -2.780216248e-05 -1.053158417e-05)
(0 -3.207883204e-05 -1.045153962e-05)
(0 -3.637455944e-05 -1.037149494e-05)
(0 -4.06664754e-05 -1.028001538e-05)
(0 -4.495839162e-05 -1.0165666e-05)
(0 -4.92579306e-05 -1.004369319e-05)
(0 -5.356509314e-05 -9.906473854e-06)
(0 -5.786844439e-05 -9.754007982e-06)
(0 -6.217179494e-05 -9.582483751e-06)
(0 -6.648276913e-05 -9.399524634e-06)
(0 -7.078612045e-05 -9.186072386e-06)
(0 -7.509328257e-05 -8.953561787e-06)
(0 -7.940044512e-05 -8.701993001e-06)
(0 -8.370379652e-05 -8.41993108e-06)
(0 -8.800333526e-05 -8.118810816e-06)
(0 -9.229525122e-05 -7.77957412e-06)
(0 -9.656810951e-05 -7.41365593e-06)
(0 -0.0001008447783 -7.009621169e-06)
(0 -0.0001050833312 -6.56746997e-06)
(0 -0.0001093104498 -6.091013972e-06)
(0 -0.0001135032622 -5.572629771e-06)
(0 -0.0001176732054 -4.997070882e-06)
(0 -0.0001217974096 -4.371960592e-06)
(0 -0.0001258758725 -3.693487174e-06)
(0 -0.0001299009731 -2.954027409e-06)
(0 -0.0001338612764 -2.145957989e-06)
(0 -0.0001377605918 -1.276902171e-06)
(0 -0.0001415608051 -3.354250478e-07)
(0 -0.0001452695397 6.975316376e-07)
(0 -0.0001488791698 1.818156225e-06)
(0 -0.0001523630163 3.037883671e-06)
(0 -0.0001556943978 4.364337296e-06)
(0 -0.0001588733116 5.801328667e-06)
(0 -0.0001618692671 7.364104458e-06)
(0 -0.0001646632063 9.052664696e-06)
(0 -0.0001672398795 1.087844416e-05)
(0 -0.0001695497384 1.286050126e-05)
(0 -0.0001715775363 1.500645933e-05)
(0 -0.000173281342 1.732394139e-05)
(0 -0.0001746306655 1.981675936e-05)
(0 -0.0001755912019 2.250397152e-05)
(0 -0.0001761172083 2.538557748e-05)
(0 -0.0001761667598 2.846920093e-05)
(0 -0.0001756941164 3.175484193e-05)
(0 -0.0001746459121 3.525393485e-05)
(0 -0.0001729802218 3.894742203e-05)
(0 -0.0001706322475 4.283530352e-05)
(0 -0.0001675638696 4.689089702e-05)
(0 -0.0001637141052 5.107608691e-05)
(0 -0.0001590448361 5.535275631e-05)
(0 -0.000153517946 5.965610719e-05)
(0 -0.0001470876954 6.389466007e-05)
(0 -0.0001397350259 6.793881893e-05)
(0 -0.0001314828073 7.163230607e-05)
(0 -0.0001223653446 7.475404601e-05)
(0 -0.0001125046106 7.703341173e-05)
(0 -0.000102117869 7.811973144e-05)
(0 -9.15939081e-05 7.763565211e-05)
(0 -8.153496834e-05 7.52076322e-05)
(0 -7.283297528e-05 7.057266785e-05)
(0 -6.673052627e-05 6.375362897e-05)
(0 -6.479039769e-05 5.5390873e-05)
(0 -6.860585722e-05 4.725300361e-05)
(0 -7.914125304e-05 4.25227481e-05)
(0 -9.688447631e-05 4.482117228e-05)
(0 -0.0001301372952 5.173550197e-05)
(0 -0.0001489477795 0.00013468078)
(0 1.645107403e-05 0.0001877084318)
(0 0.0001437868077 -2.971942156e-05)
(0 0.0001634511011 -5.132003231e-05)
(0 0.0001662412287 -0.0001096306282)
(0 0.000107599019 -0.0001851317565)
(0 9.888559108e-05 -0.0002176832327)
(0 9.938110595e-05 -0.0002435986308)
(0 0.0001229218451 -0.0002862547851)
(0 0.0001566130041 -0.0002724680533)
(0 0.0001739178883 -0.0002513591467)
(0 0.0001836604603 -0.0002326630104)
(0 0.0001862409461 -0.0002025204959)
(0 0.0001760790929 -0.0001706246242)
(0 0.0001552141292 -0.0001447740246)
(0 0.0001280256421 -0.0001266420138)
(0 9.768111081e-05 -0.0001157140189)
(0 6.596819661e-05 -0.0001112162732)
(0 3.391604631e-05 -0.0001126990044)
(0 2.340352052e-06 -0.0001201812707)
(0 -2.765731985e-05 -0.0001341585842)
(0 -5.419020346e-05 -0.0001553322903)
(0 -7.411750106e-05 -0.0001839692049)
(0 -8.337599426e-05 -0.0002180529626)
(0 -8.033811059e-05 -0.0002500288799)
(0 -7.051168177e-05 -0.0002710386868)
(0 -5.311531865e-05 -0.0002947357025)
(0 -1.985487584e-05 -0.0003104358817)
(0 2.610979081e-06 -0.0002709167141)
(0 3.003578837e-06 -0.0002500593731)
(0 -6.022404267e-06 -0.0002195585637)
(0 -6.266730959e-05 -0.0001520161572)
(0 -6.461124983e-05 -0.0001087615717)
(0 -6.211080856e-05 -5.400343269e-05)
(0 0.0001669654418 0.0002282033833)
(0 0.0004402606218 0.0002623290689)
(0 0.0004467594821 0.0002280280461)
(0 0.0004690004526 0.0002207020595)
(0 0.0005008429594 0.0002081198072)
(0 0.0005338442101 0.0002003440447)
(0 0.0005695593579 0.000194653255)
(0 0.0006077978099 0.0001874606736)
(0 0.0006468367115 0.0001764640683)
(0 0.0006844157559 0.0001607905716)
(0 0.0007185338154 0.0001406307629)
(0 0.0007476395616 0.0001167393516)
(0 0.0007706886033 9.005781422e-05)
(0 0.0003903470877 6.15924244e-05)
(0 -2.134523019e-06 -1.028001532e-05)
(0 -6.395945798e-06 -1.026476879e-05)
(0 -1.066118015e-05 -1.025333379e-05)
(0 -1.493022619e-05 -1.02228406e-05)
(0 -1.919546069e-05 -1.018472418e-05)
(0 -2.346831826e-05 -1.013517269e-05)
(0 -2.77373643e-05 -1.007799797e-05)
(0 -3.200641053e-05 -1.001701165e-05)
(0 -3.629451461e-05 -9.944590277e-06)
(0 -4.056356065e-05 -9.85311072e-06)
(0 -4.484785355e-05 -9.754007924e-06)
(0 -4.913214591e-05 -9.643470066e-06)
(0 -5.342406184e-05 -9.513874026e-06)
(0 -5.771216646e-05 -9.372843097e-06)
(0 -6.200408204e-05 -9.22037711e-06)
(0 -6.628837467e-05 -9.041229643e-06)
(0 -7.057647937e-05 -8.850647284e-06)
(0 -7.486077158e-05 -8.648629873e-06)
(0 -7.914506421e-05 -8.412307682e-06)
(0 -8.342173404e-05 -8.160738947e-06)
(0 -8.770221452e-05 -7.882488576e-06)
(0 -9.195982562e-05 -7.585180012e-06)
(0 -9.620600234e-05 -7.24975501e-06)
(0 -0.0001004369313 -6.891460031e-06)
(0 -0.0001046488026 -6.498860262e-06)
(0 -0.0001088378047 -6.064332398e-06)
(0 -0.0001129925006 -5.603122924e-06)
(0 -0.0001171052691 -5.096173707e-06)
(0 -0.0001211837335 -4.551108035e-06)
(0 -0.0001252088333 -3.952679233e-06)
(0 -0.0001291767591 -3.30469903e-06)
(0 -0.0001330760761 -2.603355769e-06)
(0 -0.0001369029701 -1.841026103e-06)
(0 -0.0001406383854 -1.013898434e-06)
(0 -0.0001442632637 -1.219727446e-07)
(0 -0.0001477890375 8.461859109e-07)
(0 -0.0001511775928 1.898200827e-06)
(0 -0.0001544098714 3.034072023e-06)
(0 -0.0001574858706 4.265234389e-06)
(0 -0.0001603636651 5.591687979e-06)
(0 -0.0001630356315 7.02867941e-06)
(0 -0.000165478897 8.580020205e-06)
(0 -0.0001676477249 1.024571049e-05)
(0 -0.0001695230568 1.204862018e-05)
(0 -0.000171070585 1.398874907e-05)
(0 -0.0001722560076 1.607372066e-05)
(0 -0.0001730412082 1.830734664e-05)
(0 -0.0001733918788 2.069343834e-05)
(0 -0.0001732660944 2.323961936e-05)
(0 -0.0001726028686 2.594970142e-05)
(0 -0.0001713793285 2.88122491e-05)
(0 -0.000169542114 3.183488616e-05)
(0 -0.0001670454854 3.499855442e-05)
(0 -0.0001638475116 3.82765717e-05)
(0 -0.0001599100792 4.165750377e-05)
(0 -0.0001552065054 4.508417558e-05)
(0 -0.0001497062968 4.851084733e-05)
(0 -0.0001434208889 5.18650978e-05)
(0 -0.0001363312232 5.503638918e-05)
(0 -0.0001285211558 5.790656028e-05)
(0 -0.0001200554851 6.029646373e-05)
(0 -0.0001110943001 6.201932878e-05)
(0 -0.0001019006044 6.284645642e-05)
(0 -9.282506994e-05 6.25605828e-05)
(0 -8.439370405e-05 6.099780705e-05)
(0 -7.726973341e-05 5.813525917e-05)
(0 -7.224979253e-05 5.422069632e-05)
(0 -7.01762563e-05 5.002026025e-05)
(0 -7.1670422e-05 4.700524619e-05)