/*--------------------------------*- C++ -*----------------------------------*\
  =========                 |
  \\      /  F ield         | OpenFOAM: The Open Source CFD Toolbox
   \\    /   O peration     | Website:  https://openfoam.org
    \\  /    A nd           | Version:  6
     \\/     M anipulation  |
\*---------------------------------------------------------------------------*/
FoamFile
{
    version     2.0;
    format      ascii;
    class       volScalarField;
    location    "0.0052";
    object      Num_divU;
}
// * * * * * * * * * * * * * * * * * * * * * * * * * * * * * * * * * * * * * //

dimensions      [0 0 -1 0 0 0 0];

internalField   nonuniform List<scalar> 
600
(
-1.030036177e-10
-4.573816039e-09
-1.547021724e-08
-2.748478341e-08
-4.162812202e-08
-5.810728789e-08
-7.724639352e-08
-9.926970281e-08
-1.242526083e-07
-1.521491408e-07
-1.827073306e-07
-2.15499457e-07
-2.499550588e-07
-2.856067236e-07
-3.220854882e-07
-3.584135101e-07
-3.909516509e-07
-4.11262107e-07
-4.081864674e-07
-3.806276447e-07
-3.49443963e-07
-3.244582594e-07
-2.9380456e-07
-2.599089608e-07
-2.423895406e-07
-2.651592015e-07
-3.139406006e-07
-3.941070709e-07
-4.382082458e-07
-9.422708194e-08
9.537721868e-11
-4.158376477e-09
-1.495307836e-08
-2.696212861e-08
-4.119307008e-08
-5.789904141e-08
-7.754793317e-08
-1.004638806e-07
-1.269525097e-07
-1.57095658e-07
-1.907911097e-07
-2.274672902e-07
-2.662426185e-07
-3.059935815e-07
-3.459963323e-07
-3.858734331e-07
-4.243869069e-07
-4.550411687e-07
-4.618127794e-07
-4.326932488e-07
-3.980649819e-07
-3.714651525e-07
-3.274678202e-07
-2.68497615e-07
-2.119415169e-07
-1.974456197e-07
-2.140634629e-07
-2.770122555e-07
-3.962455339e-07
-8.080650181e-08
1.991979742e-10
-4.216084171e-09
-1.553775663e-08
-2.81985743e-08
-4.327234891e-08
-6.116902274e-08
-8.24591997e-08
-1.077180996e-07
-1.374201533e-07
-1.718873744e-07
-2.110073449e-07
-2.540584678e-07
-2.994876183e-07
-3.453408406e-07
-3.902474945e-07
-4.355513373e-07
-4.850166868e-07
-5.373833389e-07
-5.621336193e-07
-5.131821136e-07
-4.629489243e-07
-4.416736958e-07
-3.770538012e-07
-2.782941534e-07
-1.581510993e-07
-1.098039514e-07
-1.079954291e-07
-1.490481878e-07
-2.650907617e-07
3.390298237e-08
2.206763443e-10
-4.63477854e-09
-1.695308335e-08
-3.07524461e-08
-4.728742934e-08
-6.709600886e-08
-9.097531993e-08
-1.197254361e-07
-1.541267042e-07
-1.947361198e-07
-2.416415475e-07
-2.939771364e-07
-3.494983063e-07
-4.044181217e-07
-4.551480468e-07
-5.035497834e-07
-5.63566104e-07
-6.558750614e-07
-7.287360862e-07
-6.316239132e-07
-5.476126651e-07
-5.504022803e-07
-4.531410704e-07
-3.070167082e-07
-8.396732078e-08
-4.992770129e-09
1.342630017e-08
2.600557643e-08
-6.229312802e-08
2.281618415e-07
1.541703875e-10
-5.441187827e-09
-1.915861909e-08
-3.456024282e-08
-5.308420789e-08
-7.547246304e-08
-1.027407779e-07
-1.35977502e-07
-1.762629751e-07
-2.245460174e-07
-2.813667815e-07
-3.462864654e-07
-4.167288077e-07
-4.862482791e-07
-5.447727617e-07
-5.879598832e-07
-6.404393001e-07
-7.946891661e-07
-9.962141307e-07
-8.080616959e-07
-6.707794201e-07
-6.992439712e-07
-5.395639658e-07
-3.635252122e-07
-1.557637042e-08
9.023214989e-08
1.255495587e-07
2.866168812e-07
2.062037731e-07
4.944781834e-07
-2.14117021e-11
-6.635007702e-09
-2.21100251e-08
-3.949592772e-08
-6.047496361e-08
-8.600428664e-08
-1.173467261e-07
-1.558309333e-07
-2.028138483e-07
-2.596699989e-07
-3.277821813e-07
-4.082270907e-07
-4.999555756e-07
-5.95154028e-07
-6.717335671e-07
-6.999173826e-07
-6.818137436e-07
-8.935476263e-07
-1.321189326e-06
-1.355132635e-06
-1.411341875e-06
-5.962573621e-07
-4.566016739e-07
-1.963926622e-07
-6.147766574e-07
-1.067966256e-07
2.299130646e-07
7.339186911e-07
5.875903366e-07
8.268754271e-07
-3.215248145e-10
-8.226907467e-09
-2.574249731e-08
-4.542427175e-08
-6.922961869e-08
-9.837736222e-08
-1.343665006e-07
-1.786982321e-07
-2.328243773e-07
-2.982987192e-07
-3.773360724e-07
-4.736017547e-07
-5.917306771e-07
-7.305715417e-07
-8.596989587e-07
-9.01569188e-07
-6.891887423e-07
-9.775303869e-07
-8.120945142e-07
-2.126422875e-06
-2.424488227e-06
-5.454484491e-07
-1.166802978e-07
-8.516879644e-08
-1.399748501e-06
-3.997360919e-07
5.725332081e-07
1.739049104e-06
1.302061384e-06
1.236578893e-06
-7.713920939e-10
-1.023033225e-08
-2.998921959e-08
-5.216220924e-08
-7.904560264e-08
-1.121805551e-07
-1.53346117e-07
-2.041634842e-07
-2.659121545e-07
-3.39610394e-07
-4.269364917e-07
-5.329744253e-07
-6.710130962e-07
-8.639733815e-07
-1.102282322e-06
-1.283728771e-06
-1.145401458e-06
-5.374335571e-07
2.827291155e-07
-2.222662469e-06
-1.942975075e-06
6.328224202e-08
4.808601155e-07
3.400830511e-07
-1.180359286e-06
-2.736095259e-06
1.07431883e-06
3.900034224e-06
3.683015458e-06
1.895336538e-06
-1.413721214e-09
-1.269654273e-08
-3.479051256e-08
-5.947494155e-08
-8.946442023e-08
-1.267547672e-07
-1.735575754e-07
-2.317870761e-07
-3.025599318e-07
-3.85617069e-07
-4.791947378e-07
-5.82855947e-07
-7.097005397e-07
-9.222791457e-07
-1.296491967e-06
-1.877961329e-06
-2.477926618e-06
4.021939562e-07
2.713202716e-06
2.691152296e-12
1.380567007e-11
2.042777192e-11
2.661568241e-11
2.727189296e-11
-2.524148335e-12
-9.507720861e-12
3.660360041e-06
1.267731357e-06
4.391838358e-06
3.727507562e-06
-2.349711876e-09
-1.578019011e-08
-4.015972563e-08
-6.708040141e-08
-9.980688197e-08
-1.409611023e-07
-1.934814593e-07
-2.601190547e-07
-3.428007961e-07
-4.410719327e-07
-5.486740531e-07
-6.479458474e-07
-7.073607228e-07
-7.377673881e-07
-1.175691274e-06
-2.435433424e-06
-4.203664401e-06
-1.847707317e-11
-1.009046253e-11
3.192027658e-13
7.488783103e-12
1.185542056e-11
1.869836769e-11
1.138477084e-11
-8.84652718e-13
-3.533243946e-11
-2.816222995e-11
1.060216049e-11
6.126907055e-06
-6.788986472e-13
-3.845452462e-09
-1.991588126e-08
-4.633689939e-08
-7.476756517e-08
-1.092119215e-07
-1.530684622e-07
-2.102020606e-07
-2.84857511e-07
-3.817113895e-07
-5.054163693e-07
-6.573698325e-07
-8.246046429e-07
-9.472683373e-07
-1.022494711e-06
-6.718181133e-07
3.462633522e-07
-6.542611751e-12
-9.245001758e-12
-6.938320903e-12
-5.068515713e-13
3.751789036e-12
6.003019776e-12
1.021371355e-11
1.161773982e-11
-8.902463854e-12
-1.973274985e-11
6.43153037e-14
-1.39324765e-11
-1.643219554e-11
-2.743028901e-11
-6.654694357e-09
-2.618401232e-08
-5.407101036e-08
-8.260678584e-08
-1.169187295e-07
-1.611471538e-07
-2.19776843e-07
-2.980152646e-07
-4.030181364e-07
-5.464991149e-07
-7.492702154e-07
-1.044080329e-06
-1.394537339e-06
-8.652193356e-07
4.207031378e-07
2.527218235e-06
-3.884455946e-12
-7.986457766e-12
-5.469901474e-12
-9.963835215e-13
1.320787646e-12
1.007890229e-12
1.870124337e-12
2.881648664e-12
-2.859045144e-12
-1.3539072e-11
-6.813016049e-12
-1.014306187e-11
-2.261146562e-11
-1.109974086e-11
-1.305129206e-08
-3.713268797e-08
-6.502083082e-08
-9.119521497e-08
-1.226833955e-07
-1.641904754e-07
-2.199694807e-07
-2.94247078e-07
-3.9159184e-07
-5.174710688e-07
-6.793706016e-07
-8.955211191e-07
-1.44807901e-06
-2.222068369e-06
-2.24643965e-06
-2.982549744e-12
-7.802018246e-12
-9.681233933e-12
-7.539156065e-12
-4.091432027e-12
-2.910127907e-12
-3.703023344e-12
-3.232892431e-12
-9.949442242e-13
-2.443972804e-12
-5.245260215e-12
-5.166150208e-12
-1.101197617e-11
-1.205979451e-11
-1.770198869e-11
-3.075587434e-08
-5.867383349e-08
-8.209387519e-08
-1.014827996e-07
-1.267234144e-07
-1.626081083e-07
-2.127597947e-07
-2.805359094e-07
-3.69223608e-07
-4.813697286e-07
-6.172599032e-07
-7.924084377e-07
-1.559500236e-06
-2.535250842e-06
-2.019408674e-06
-7.910346114e-12
-1.275769736e-11
-1.441652597e-11
-1.282208447e-11
-1.036225709e-11
-9.228204046e-12
-9.036683265e-12
-6.518021498e-12
-8.610042372e-13
3.026588576e-12
2.713681243e-12
2.086023679e-12
-2.453030414e-12
-9.119923019e-12
-8.958703609e-12
-8.355411773e-08
-1.029564704e-07
-1.086534233e-07
-1.135852921e-07
-1.284816525e-07
-1.560864985e-07
-1.984631632e-07
-2.5879801e-07
-3.428470953e-07
-4.610417042e-07
-6.29939798e-07
-8.55492967e-07
-8.022114549e-07
-8.295154029e-07
1.346585241e-08
-1.170188206e-11
-1.814667807e-11
-2.061369172e-11
-1.861147469e-11
-1.606793319e-11
-1.489325126e-11
-1.217809075e-11
-5.06790096e-12
3.794048904e-12
1.02971878e-11
1.328355427e-11
9.330634629e-12
4.03203342e-12
-3.823844371e-13
-1.261799221e-11
-3.172677323e-07
-2.108897566e-07
-1.460707729e-07
-1.244222317e-07
-1.255626059e-07
-1.428688785e-07
-1.741308544e-07
-2.200122166e-07
-2.842150669e-07
-3.750745487e-07
-5.069253806e-07
-6.833822251e-07
-5.757787508e-07
-5.181704495e-07
2.171490572e-07
-1.355392913e-11
-1.928726367e-11
-1.997008902e-11
-2.281882727e-11
-2.23539493e-11
-1.888100492e-11
-1.227484948e-11
-4.44528546e-13
1.110790754e-11
1.699328737e-11
1.367454031e-11
1.640892592e-11
1.131107964e-11
7.847398079e-13
-2.622121501e-13
-3.62275013e-07
-2.295203967e-07
-1.477815345e-07
-1.182820897e-07
-1.130019085e-07
-1.222332244e-07
-1.413221461e-07
-1.67627035e-07
-1.989375541e-07
-2.319014657e-07
-2.599806992e-07
-2.910695385e-07
-8.937817105e-07
-1.578531891e-06
-1.314840398e-06
-1.019590102e-11
-1.392447261e-11
-2.5287365e-11
-2.387432011e-11
-2.305341479e-11
-2.028398754e-11
-9.059081894e-12
4.977785076e-12
1.525045296e-11
1.675080122e-11
2.682699004e-11
1.501765671e-11
1.434938762e-11
1.944265581e-11
-1.015667264e-11
-1.448495519e-07
-1.272991278e-07
-1.038745883e-07
-9.229035857e-08
-9.101511885e-08
-9.683683902e-08
-1.06569605e-07
-1.171647362e-07
-1.25506591e-07
-1.285492016e-07
-1.245210319e-07
-1.197627082e-07
-3.688630746e-07
-5.705711249e-07
-2.113436885e-06
-4.695752179e-12
-1.103627663e-11
-8.072760575e-12
-3.564002336e-11
-3.455076545e-11
-2.179663984e-11
-3.519401715e-12
1.329854191e-11
1.87060834e-11
1.949109928e-11
-3.530322748e-12
4.30767018e-11
3.670015073e-11
-3.179810651e-11
1.947114607e-11
-2.907323254e-08
-5.060052681e-08
-5.705919845e-08
-6.116130906e-08
-6.573845659e-08
-7.047723526e-08
-7.335116863e-08
-7.18216258e-08
-6.36843548e-08
-4.974656488e-08
-3.858944694e-08
-5.196660397e-08
-6.775980446e-08
6.277057381e-07
1.462906823e-06
3.808000934e-06
5.383111978e-12
-6.369491209e-11
-6.225078258e-11
-4.901457782e-11
-2.387591932e-11
-1.182233228e-13
1.330224376e-11
7.281010063e-12
-1.376156047e-11
9.258140143e-11
8.467160265e-11
-5.297292671e-12
4.134882186e-11
-4.341859004e-11
5.112173586e-08
8.28908099e-09
-1.647137595e-08
-3.207498798e-08
-4.18100645e-08
-4.599018229e-08
-4.276460138e-08
-2.829535631e-08
3.107199242e-09
6.027613024e-08
1.594081448e-07
3.380401012e-07
6.950598523e-07
1.352499637e-06
3.134759561e-06
2.227648989e-06
-3.953467009e-11
-4.854855367e-11
-7.138070021e-11
-6.150942311e-11
-1.445840227e-11
1.562639855e-11
2.058736656e-11
4.508269189e-12
7.108886814e-11
1.019989643e-10
1.075936983e-10
5.031876649e-11
-2.4281712e-11
9.72044786e-11
)
;

boundaryField
{
    lowerWall
    {
        type            calculated;
        value           nonuniform 0();
    }
    atmosphere
    {
        type            calculated;
        value           nonuniform List<scalar> 
20
(
-1.030036177e-10
9.537721868e-11
1.991979742e-10
2.206763443e-10
1.541703875e-10
-2.14117021e-11
-3.215248145e-10
-7.713920939e-10
-1.413721214e-09
-2.349711876e-09
-3.845452462e-09
-6.654694357e-09
-1.305129206e-08
-3.075587434e-08
-8.355411773e-08
-3.172677323e-07
-3.62275013e-07
-1.448495519e-07
-2.907323254e-08
5.112173586e-08
)
;
    }
    rightWall
    {
        type            empty;
    }
    leftWall
    {
        type            empty;
    }
    frontAndBack
    {
        type            calculated;
        value           nonuniform List<scalar> 
30
(
-1.030036177e-10
-4.573816039e-09
-1.547021724e-08
-2.748478341e-08
-4.162812202e-08
-5.810728789e-08
-7.724639352e-08
-9.926970281e-08
-1.242526083e-07
-1.521491408e-07
-1.827073306e-07
-2.15499457e-07
-2.499550588e-07
-2.856067236e-07
-3.220854882e-07
-3.584135101e-07
-3.909516509e-07
-4.11262107e-07
-4.081864674e-07
-3.806276447e-07
-3.49443963e-07
-3.244582594e-07
-2.9380456e-07
-2.599089608e-07
-2.423895406e-07
-2.651592015e-07
-3.139406006e-07
-3.941070709e-07
-4.382082458e-07
-9.422708194e-08
)
;
    }
    procBoundary0to1
    {
        type            processor;
        value           nonuniform List<scalar> 
20
(
1.645868026e-11
1.698943098e-11
1.721838544e-11
1.730500087e-11
1.754237386e-11
2.340911737e-11
2.500726449e-11
-3.947732666e-13
1.277488763e-11
-4.774429139e-11
-1.173370754e-11
-2.289970961e-11
-1.658344468e-11
-2.168220534e-11
-1.440062372e-11
-1.972500737e-11
-4.19652449e-12
-2.818476932e-11
3.681636365e-11
-4.202293239e-11
)
;
    }
    procBoundary0to2
    {
        type            processor;
        value           nonuniform List<scalar> 
30
(
1.05130059e-07
4.986374723e-08
1.423337706e-08
-9.032859349e-09
-2.249452226e-08
-2.644823441e-08
-1.847941706e-08
6.513925036e-09
5.72937219e-08
1.482300379e-07
3.041528272e-07
5.69076789e-07
1.017388744e-06
1.710497359e-06
2.268373278e-06
2.370292605e-06
-1.248798649e-06
-7.674564424e-11
-8.107608531e-11
-4.466798751e-11
3.604978552e-12
3.601422359e-11
3.200379521e-11
6.925535963e-12
2.853248469e-11
1.498170835e-10
8.992091796e-11
2.491469952e-11
1.545067231e-06
-4.155813154e-11
)
;
    }
}


// ************************************************************************* //
