/*--------------------------------*- C++ -*----------------------------------*\
  =========                 |
  \\      /  F ield         | OpenFOAM: The Open Source CFD Toolbox
   \\    /   O peration     | Website:  https://openfoam.org
    \\  /    A nd           | Version:  6
     \\/     M anipulation  |
\*---------------------------------------------------------------------------*/
FoamFile
{
    version     2.0;
    format      ascii;
    class       volScalarField;
    location    "0.0001";
    object      Num_divU;
}
// * * * * * * * * * * * * * * * * * * * * * * * * * * * * * * * * * * * * * //

dimensions      [0 0 -1 0 0 0 0];

internalField   nonuniform List<scalar> 
3600
(
5.782785469e-10
1.042161554e-09
1.474353396e-10
-1.752260503e-11
-1.227596484e-10
-2.054635659e-10
-2.76868111e-10
-3.215411955e-10
-3.104109965e-10
-2.550548887e-10
-1.77145967e-10
-1.199041959e-10
-8.42987976e-11
-6.569295199e-11
-6.308114922e-11
-1.272726157e-10
-2.645430045e-10
-2.605645011e-10
3.869734983e-10
1.736715813e-09
2.227473751e-09
1.481390279e-09
1.308788928e-09
2.110861762e-09
3.029908918e-09
2.62612249e-09
3.037908442e-09
-2.047446523e-08
-1.334767512e-07
-1.650581598e-07
1.645868006e-11
2.085643528e-11
2.081465655e-11
1.82474562e-11
1.51351386e-11
1.206067354e-11
9.667338253e-12
7.778715067e-12
6.515764488e-12
5.519533286e-12
4.823834853e-12
4.171440642e-12
3.659794657e-12
3.141530877e-12
2.732063114e-12
2.326265959e-12
2.022965365e-12
1.747518929e-12
1.596959597e-12
1.505862096e-12
1.489351418e-12
1.408312409e-12
1.262991048e-12
1.100208458e-12
1.08437906e-12
1.075138093e-12
1.328852076e-12
6.027957402e-13
1.945374776e-12
2.947121817e-13
5.690394836e-10
1.032040631e-09
1.574992938e-10
-8.743562098e-12
-1.208528597e-10
-1.902715146e-10
-2.577176296e-10
-2.806930467e-10
-2.763977922e-10
-2.328638994e-10
-2.095968428e-10
-1.928644993e-10
-1.899368698e-10
-1.238475459e-10
-3.772997683e-11
-2.708623196e-11
-3.524113772e-10
-8.426859762e-10
-4.220211461e-10
2.176341317e-09
3.005865207e-09
7.023257482e-10
2.380120087e-10
1.818434877e-09
4.782662377e-09
4.372814194e-09
4.391526004e-09
-1.803798751e-08
-1.431543916e-07
-1.694683687e-07
1.698943079e-11
2.181506972e-11
2.153615628e-11
1.91688296e-11
1.576756107e-11
1.277582824e-11
1.007668699e-11
8.219470265e-12
6.716457877e-12
5.78134272e-12
4.935474339e-12
4.366897218e-12
3.754472777e-12
3.309995978e-12
2.819308287e-12
2.467808447e-12
2.096595471e-12
1.861403233e-12
1.663105502e-12
1.607471822e-12
1.559055272e-12
1.490901292e-12
1.314285885e-12
1.154385566e-12
1.131807726e-12
1.238285337e-12
1.098719845e-12
1.606987431e-12
3.799893902e-13
1.190976356e-12
5.652162551e-10
1.024679682e-09
1.609613365e-10
-1.564316078e-11
-1.178376941e-10
-1.850047283e-10
-2.237456966e-10
-2.404890435e-10
-2.332850634e-10
-2.421719094e-10
-2.761471223e-10
-3.329721352e-10
-3.14643327e-10
-1.448830077e-10
2.312140458e-10
4.513200633e-10
-2.074844952e-10
-2.374384422e-09
-3.240830342e-09
4.667716068e-09
7.21928395e-09
-1.581940159e-09
-2.83747786e-09
5.598006972e-10
1.092703338e-08
8.849050385e-09
4.017230527e-09
-2.110374951e-08
-1.600483665e-07
-1.731846282e-07
1.721838524e-11
2.155426162e-11
2.145838878e-11
1.894645386e-11
1.584892752e-11
1.27095483e-11
1.015213179e-11
8.08809093e-12
6.66822001e-12
5.584779009e-12
4.845200918e-12
4.195035235e-12
3.690369924e-12
3.189518219e-12
2.782999758e-12
2.383182734e-12
2.07212445e-12
1.797527656e-12
1.641861258e-12
1.560881643e-12
1.541981463e-12
1.455916374e-12
1.287644081e-12
1.12289986e-12
1.11935786e-12
1.154335036e-12
1.37061561e-12
4.797740592e-13
2.421426122e-12
7.165237427e-15
5.518575167e-10
1.017662105e-09
1.554424796e-10
-1.702020841e-11
-1.167226031e-10
-1.616060417e-10
-1.811280959e-10
-1.795929651e-10
-1.930703929e-10
-2.507114714e-10
-3.764552545e-10
-5.16511108e-10
-5.523331402e-10
-2.271958167e-10
6.766081425e-10
1.865138067e-09
1.213028314e-09
-5.672101444e-09
-1.392602169e-08
1.26308726e-08
2.233036943e-08
-1.015187019e-08
-1.187503966e-08
-6.003146972e-09
3.000199371e-08
1.917836885e-08
1.13738244e-09
-2.910798102e-08
-1.908925197e-07
-1.765826591e-07
1.730500065e-11
2.18251137e-11
2.128039257e-11
1.872437531e-11
1.552299166e-11
1.253941184e-11
9.919790942e-12
7.91976908e-12
6.400879842e-12
5.363266259e-12
4.572115232e-12
3.9946248e-12
3.476244661e-12
3.046337896e-12
2.631439846e-12
2.283844064e-12
1.961732587e-12
1.722123906e-12
1.556067439e-12
1.49926166e-12
1.473102054e-12
1.3994332e-12
1.227625241e-12
1.068090754e-12
1.059116758e-12
1.215629953e-12
9.304370158e-13
1.963005313e-12
-2.41346568e-13
1.360242347e-12
5.359341128e-10
1.00128382e-09
1.51737361e-10
-1.940364703e-11
-1.040246614e-10
-1.282633684e-10
-1.196019353e-10
-1.0789273e-10
-1.326216525e-10
-2.391248978e-10
-4.524567451e-10
-7.601808087e-10
-1.055017056e-09
-8.659155191e-10
8.037269923e-10
4.860430429e-09
7.958851172e-09
-1.054916468e-08
-5.375972284e-08
3.467463815e-08
6.442878406e-08
-3.363305317e-08
-3.219223655e-08
-2.644901526e-08
7.874126982e-08
4.053032501e-08
-1.700741234e-08
-3.885328632e-08
-2.497376642e-07
-1.765557159e-07
1.754237361e-11
2.129598725e-11
2.05467858e-11
1.783638497e-11
1.482353198e-11
1.195420759e-11
9.516840563e-12
7.538458341e-12
6.08595947e-12
5.028434692e-12
4.291503824e-12
3.717744834e-12
3.26113006e-12
2.84449142e-12
2.480221152e-12
2.140737734e-12
1.853184636e-12
1.615219421e-12
1.470658307e-12
1.413250214e-12
1.399999786e-12
1.326018794e-12
1.162133778e-12
1.011909056e-12
1.022185767e-12
1.044954955e-12
1.360244202e-12
2.77654953e-14
2.818631323e-12
-2.685174308e-13
5.129806061e-10
9.786520871e-10
1.453048605e-10
-1.564439471e-11
-8.425401936e-11
-8.357333353e-11
-5.275353577e-11
-2.476936284e-11
-4.013588583e-11
-1.426560288e-10
-3.982868506e-10
-9.657253667e-10
-1.979083794e-09
-3.045399941e-09
-1.499630953e-09
8.665001563e-09
3.181199897e-08
-1.177219775e-08
-1.498166588e-07
-8.93605851e-08
-1.559678225e-07
6.786823248e-08
-4.004658809e-09
6.381983942e-08
-1.710218288e-07
-6.413774698e-08
-6.639907004e-08
-5.23906118e-08
-3.544460451e-07
-1.63445408e-07
2.340911708e-11
2.644624946e-11
2.271075047e-11
1.810751307e-11
1.427255763e-11
1.128216628e-11
8.89588263e-12
7.04106578e-12
5.64221012e-12
4.649714457e-12
3.937680454e-12
3.417555523e-12
2.990745257e-12
2.624428471e-12
2.286659762e-12
1.984921796e-12
1.713823433e-12
1.49943623e-12
1.363150874e-12
1.31934497e-12
1.311255811e-12
1.247310284e-12
1.090257373e-12
9.437305791e-13
9.426599525e-13
1.129228823e-12
7.382425552e-13
2.199294744e-12
-8.45801227e-13
1.499914083e-12
4.849206375e-10
9.468804046e-10
1.40211268e-10
-8.408935978e-12
-5.806018296e-11
-3.749363172e-11
1.225852364e-11
6.32807462e-11
1.019346032e-10
1.197251459e-10
9.210528351e-12
-6.584049275e-10
-2.900555025e-09
-7.737047276e-09
-1.190618868e-08
-3.574982212e-10
9.054498968e-08
-8.107481487e-08
2.09396165e-08
-5.27239363e-07
-6.937527086e-07
2.021545416e-07
1.80055383e-07
1.469104168e-07
-7.851702711e-07
-5.73524978e-07
-1.188929197e-07
2.754886261e-08
-4.82225471e-07
-9.730605673e-08
2.500726414e-11
3.007622547e-11
2.536468971e-11
1.902307578e-11
1.415130597e-11
1.075387991e-11
8.316630235e-12
6.501824456e-12
5.174604882e-12
4.228057825e-12
3.569849216e-12
3.088456601e-12
2.710955795e-12
2.381038014e-12
2.084227323e-12
1.809681735e-12
1.566457475e-12
1.368619147e-12
1.248798875e-12
1.214425265e-12
1.21659438e-12
1.159172352e-12
1.011143388e-12
8.78944611e-13
9.017360989e-13
9.009283928e-13
1.318748949e-12
-4.235714916e-13
3.150208238e-12
-5.340726305e-13
4.509572823e-10
9.069782158e-10
1.3617337e-10
3.576139178e-12
-3.136497533e-11
-5.262159224e-13
5.307958055e-11
1.212349446e-10
2.46886947e-10
5.272150695e-10
9.973305585e-10
1.168369263e-09
-1.18257353e-09
-1.178658287e-08
-3.220626282e-08
-4.701133886e-08
-2.950631345e-08
6.695866222e-08
3.966696036e-07
-1.108163361e-06
-9.290418379e-07
2.710013211e-07
3.243600032e-07
2.115184826e-07
-9.966824054e-07
-1.728690546e-06
-1.713264711e-08
3.111858632e-07
1.286709997e-07
2.590867961e-07
-3.947736671e-13
1.803114545e-11
2.078866934e-11
1.69849234e-11
1.281217496e-11
9.661906522e-12
7.399179229e-12
5.747469244e-12
4.545923101e-12
3.700462371e-12
3.11429669e-12
2.698576743e-12
2.373991373e-12
2.096255675e-12
1.841003049e-12
1.604825473e-12
1.38979871e-12
1.216197216e-12
1.113621094e-12
1.094379739e-12
1.107393384e-12
1.061119442e-12
9.232648383e-13
7.920845411e-13
7.955163928e-13
1.00700749e-12
5.248220411e-13
2.378921741e-12
-1.425622475e-12
1.599117802e-12
4.118202762e-10
8.576897808e-10
1.344368869e-10
1.812441238e-11
-5.746287225e-12
2.118041241e-11
5.288612281e-11
8.959204256e-11
2.309385769e-10
7.588227832e-10
2.252013738e-09
5.396982574e-09
8.852326704e-09
-1.791776519e-09
-4.572913021e-08
-1.916524929e-07
-5.480574403e-07
5.52337132e-07
1.768310979e-06
2.691151634e-12
1.380566944e-11
2.04277719e-11
2.661568245e-11
2.727189283e-11
-2.524149208e-12
-9.507721969e-12
1.285276563e-06
-7.330378651e-07
1.027528773e-06
2.192678775e-06
1.277488731e-11
1.969692405e-11
1.943924748e-11
1.543714989e-11
1.145878698e-11
8.511311098e-12
6.429719145e-12
4.936200267e-12
3.866686944e-12
3.122720274e-12
2.620819469e-12
2.273258464e-12
2.011260189e-12
1.786348688e-12
1.578988744e-12
1.381053061e-12
1.198704323e-12
1.050618742e-12
9.696912512e-13
9.659160048e-13
9.897178606e-13
9.513091601e-13
8.223032398e-13
7.077941327e-13
7.425574855e-13
7.212733823e-13
1.238495134e-12
-8.652835823e-13
3.398807324e-12
-7.822133867e-13
3.676263305e-10
7.998511632e-10
1.363069724e-10
3.958593959e-11
2.311248155e-11
3.677324003e-11
1.44617944e-11
-7.150737548e-11
-1.764498729e-10
-2.037889437e-12
1.611648763e-09
8.632139558e-09
3.224060799e-08
8.426373794e-08
-2.223654879e-08
-5.206113506e-07
-2.095827599e-06
-1.847707427e-11
-1.009046233e-11
3.19202763e-13
7.488783104e-12
1.185542056e-11
1.869836769e-11
1.138477084e-11
-8.846527179e-13
-3.533243946e-11
-2.816223024e-11
1.060216361e-11
3.379485012e-06
-6.788955798e-13
-4.774429447e-11
1.320096029e-11
1.492706238e-11
1.218618319e-11
9.125973533e-12
6.766815206e-12
5.075352305e-12
3.857757586e-12
2.990087407e-12
2.398850166e-12
2.012297789e-12
1.759913656e-12
1.575960621e-12
1.420016194e-12
1.26958261e-12
1.120573082e-12
9.771731898e-13
8.621205487e-13
8.066794577e-13
8.213697343e-13
8.575663248e-13
8.299212978e-13
7.12577599e-13
6.015374321e-13
6.144982414e-13
8.545923181e-13
2.998562812e-13
2.504605505e-12
-1.95789019e-12
1.660532691e-12
3.192650787e-10
7.311585806e-10
1.424752796e-10
6.958647855e-11
6.843130941e-11
7.652935805e-11
8.663178134e-12
-2.459881096e-10
-8.905068754e-10
-2.421004269e-09
-5.771031158e-09
-1.169315954e-08
-1.539685325e-08
-7.163435424e-08
9.646006315e-08
5.280054685e-07
-6.542612842e-12
-9.245001758e-12
-6.938320903e-12
-5.068515713e-13
3.751789036e-12
6.003019776e-12
1.021371355e-11
1.161773982e-11
-8.902463854e-12
-1.973274985e-11
6.431530364e-14
-1.393247648e-11
-1.643218754e-11
-2.743030058e-11
-1.17337022e-11
6.597026062e-12
8.645039284e-12
7.728812621e-12
6.099458388e-12
4.644840563e-12
3.509531268e-12
2.649856772e-12
2.027805167e-12
1.609989833e-12
1.356018262e-12
1.206922218e-12
1.111412049e-12
1.02868122e-12
9.419433925e-13
8.444069096e-13
7.453536366e-13
6.663564283e-13
6.392862912e-13
6.721141408e-13
7.187274255e-13
6.991884694e-13
5.953800233e-13
5.100401438e-13
5.671995883e-13
5.349437934e-13
1.146738588e-12
-1.2675039e-12
3.567895477e-12
-1.003232883e-12
2.668974226e-10
6.515499223e-10
1.527806741e-10
1.122825956e-10
1.374469093e-10
1.750013226e-10
1.448380955e-10
-5.888658869e-11
-7.939444085e-10
-3.540953034e-09
-1.412550648e-08
-5.343272659e-08
-1.562784557e-07
2.789574134e-08
5.047637024e-07
1.753289498e-06
-3.884455753e-12
-7.986457766e-12
-5.469901474e-12
-9.963835215e-13
1.320787646e-12
1.007890229e-12
1.870124337e-12
2.881648664e-12
-2.859045144e-12
-1.3539072e-11
-6.813016049e-12
-1.014306187e-11
-2.261146515e-11
-1.109974207e-11
-2.289971047e-11
-3.55399454e-13
2.826177465e-12
3.288339977e-12
2.824594173e-12
2.214208382e-12
1.66507141e-12
1.221924649e-12
8.952031378e-13
6.946129698e-13
5.997549369e-13
5.780014792e-13
5.842622739e-13
5.897733391e-13
5.753068023e-13
5.403904833e-13
4.922246866e-13
4.554780177e-13
4.590174874e-13
5.122061988e-13
5.714387636e-13
5.666317379e-13
4.836043475e-13
4.100000833e-13
4.428664193e-13
7.10642819e-13
9.108200903e-14
2.575560758e-12
-2.42356287e-12
1.673793254e-12
2.1140441e-10
5.564536027e-10
1.628840645e-10
1.569008661e-10
2.172574102e-10
3.048543708e-10
4.094512253e-10
6.246313165e-10
1.324190698e-09
3.588271404e-09
1.086812532e-08
3.087124682e-08
-8.290700725e-08
-4.816091232e-07
-1.114242267e-06
-2.982550346e-12
-7.802018247e-12
-9.681233933e-12
-7.539156065e-12
-4.091432027e-12
-2.910127907e-12
-3.703023344e-12
-3.232892431e-12
-9.949442242e-13
-2.443972803e-12
-5.245260215e-12
-5.166150208e-12
-1.101197617e-11
-1.20597945e-11
-1.770198709e-11
-1.65834447e-11
-5.563650669e-12
-2.502759195e-12
-1.053916785e-12
-4.863803213e-13
-2.864625291e-13
-2.325820931e-13
-2.431914051e-13
-2.564097203e-13
-2.357869042e-13
-1.64648695e-13
-6.105867453e-14
5.066630996e-14
1.424341403e-13
2.037018372e-13
2.309140751e-13
2.368433631e-13
2.427452485e-13
2.783774812e-13
3.50569272e-13
4.225358375e-13
4.337457938e-13
3.741697958e-13
3.322707098e-13
4.112471684e-13
3.595964131e-13
1.029902687e-12
-1.631394048e-12
3.625982708e-12
-1.200834078e-12
1.439926034e-10
4.424212622e-10
1.658212679e-10
1.923007149e-10
2.709197296e-10
3.770600387e-10
5.114009433e-10
8.274574098e-10
1.891503608e-09
5.689835353e-09
1.966622046e-08
5.959073858e-08
-1.552884579e-07
-6.334768976e-07
-8.655737436e-07
-7.910346723e-12
-1.275769736e-11
-1.441652597e-11
-1.282208447e-11
-1.036225709e-11
-9.228204046e-12
-9.036683265e-12
-6.518021498e-12
-8.610042372e-13
3.026588576e-12
2.713681243e-12
2.086023679e-12
-2.453030414e-12
-9.119923019e-12
-8.958703609e-12
-2.168220534e-11
-9.686360316e-12
-6.701267445e-12
-4.868343494e-12
-3.688104715e-12
-2.857653048e-12
-2.24765553e-12
-1.814495039e-12
-1.491616141e-12
-1.226674103e-12
-9.780649982e-13
-7.384328715e-13
-5.186324102e-13
-3.338070764e-13
-1.945515515e-13
-9.835125567e-14
-3.615911407e-14
1.637741628e-14
8.451879173e-14
1.788644012e-13
2.69033743e-13
3.037090926e-13
2.70818996e-13
2.368493055e-13
2.739552162e-13
5.400661926e-13
-1.531657891e-13
2.557337385e-12
-2.837289851e-12
1.635515067e-12
9.328837383e-12
2.876621498e-10
1.5446004e-10
2.042883019e-10
2.86585196e-10
3.644441319e-10
4.01161473e-10
3.080722308e-10
-3.008611886e-10
-3.119005832e-09
-1.414872756e-08
-4.410404869e-08
6.771198511e-08
2.3943055e-07
3.724403951e-07
-1.170188206e-11
-1.814667807e-11
-2.061369172e-11
-1.861147469e-11
-1.606793319e-11
-1.489325126e-11
-1.217809075e-11
-5.06790096e-12
3.794048904e-12
1.02971878e-11
1.328355427e-11
9.330634629e-12
4.03203342e-12
-3.823844372e-13
-1.261799221e-11
-1.440062372e-11
-1.204411132e-11
-1.001598298e-11
-8.177349087e-12
-6.627252043e-12
-5.290284923e-12
-4.204323538e-12
-3.353712598e-12
-2.716634788e-12
-2.214227197e-12
-1.795851872e-12
-1.425070014e-12
-1.099573543e-12
-8.251298367e-13
-6.068464919e-13
-4.435472772e-13
-3.223125703e-13
-2.234695144e-13
-1.206061525e-13
-3.3826564e-15
1.076097309e-13
1.642778089e-13
1.550697049e-13
1.414697176e-13
2.199398982e-13
1.033426805e-13
8.545886279e-13
-1.972490291e-12
3.598707284e-12
-1.372586925e-12
-9.446077847e-10
-8.177253987e-11
1.077517966e-10
1.924994699e-10
2.764065055e-10
3.535164218e-10
4.148049423e-10
4.018015272e-10
-4.776716612e-11
-2.578054485e-09
-1.311820811e-08
-4.215110407e-08
6.666144035e-08
2.285293604e-07
3.597968233e-07
-1.355392916e-11
-1.928726367e-11
-1.997008902e-11
-2.281882727e-11
-2.23539493e-11
-1.888100492e-11
-1.227484948e-11
-4.44528546e-13
1.110790754e-11
1.699328737e-11
1.367454031e-11
1.640892592e-11
1.131107964e-11
7.847398079e-13
-2.622121501e-13
-1.972500737e-11
-1.63259372e-11
-1.457554491e-11
-1.230466549e-11
-1.006778433e-11
-8.026157931e-12
-6.344866501e-12
-5.012346789e-12
-4.021563998e-12
-3.259351667e-12
-2.660125584e-12
-2.151187485e-12
-1.718582655e-12
-1.350742765e-12
-1.052247811e-12
-8.174004896e-13
-6.352616398e-13
-4.878601338e-13
-3.47991162e-13
-2.032916576e-13
-6.756307403e-14
1.445974225e-14
2.551240901e-14
1.36841049e-14
2.037040264e-14
2.729345895e-13
-3.935380098e-13
2.525855703e-12
-3.194892738e-12
1.647731002e-12
-9.830288117e-10
-2.288571302e-10
6.643114165e-11
1.603240175e-10
2.33789311e-10
3.393637576e-10
5.341426653e-10
1.053764997e-09
2.522267521e-09
7.023012216e-09
2.229173194e-08
6.429873056e-08
-1.606410154e-07
-6.611730716e-07
-8.855282894e-07
-1.019590172e-11
-1.392447261e-11
-2.5287365e-11
-2.387432011e-11
-2.305341479e-11
-2.028398754e-11
-9.059081894e-12
4.977785076e-12
1.525045296e-11
1.675080122e-11
2.682699004e-11
1.501765671e-11
1.434938762e-11
1.944265581e-11
-1.015667264e-11
-4.19652449e-12
-1.68371878e-11
-1.749743966e-11
-1.573916202e-11
-1.313975108e-11
-1.063783402e-11
-8.404804444e-12
-6.671588644e-12
-5.315843146e-12
-4.32172953e-12
-3.524486151e-12
-2.887073279e-12
-2.336199872e-12
-1.87817502e-12
-1.494652383e-12
-1.188214269e-12
-9.44608073e-13
-7.459679141e-13
-5.695280844e-13
-3.943328563e-13
-2.372563279e-13
-1.318208836e-13
-1.03970323e-13
-9.771329458e-14
-7.668484777e-14
-1.213358099e-13
7.386013587e-13
-2.244704706e-12
3.721378919e-12
-1.437984642e-12
-4.922075826e-11
-1.485912948e-10
3.922700746e-11
9.648357815e-11
1.475593691e-10
2.266018766e-10
4.047281119e-10
8.647891876e-10
2.020913729e-09
4.922446638e-09
1.26384186e-08
3.167547873e-08
-7.667250917e-08
-4.963425945e-07
-1.298017273e-06
-4.695752927e-12
-1.103627664e-11
-8.072760575e-12
-3.564002336e-11
-3.455076545e-11
-2.179663984e-11
-3.519401715e-12
1.329854191e-11
1.87060834e-11
1.949109928e-11
-3.530322748e-12
4.30767018e-11
3.670015073e-11
-3.17981065e-11
1.947114789e-11
-2.818476934e-11
-3.076193716e-11
-2.715282186e-11
-2.194777532e-11
-1.730510934e-11
-1.350803802e-11
-1.056335426e-11
-8.283308247e-12
-6.60591884e-12
-5.330920342e-12
-4.375045703e-12
-3.58282074e-12
-2.939795141e-12
-2.377050629e-12
-1.923668075e-12
-1.537421694e-12
-1.240294674e-12
-9.859382227e-13
-7.74899052e-13
-5.666164016e-13
-3.862339187e-13
-2.560061822e-13
-2.05670792e-13
-2.274122121e-13
-1.99616354e-13
1.386322654e-13
-5.103060377e-13
2.722740245e-12
-3.329789585e-12
1.550367422e-12
1.022390874e-10
-2.669039621e-10
-1.702378395e-11
2.865167248e-12
2.913959379e-11
3.266984967e-11
6.779737134e-11
6.302117575e-11
-2.320201703e-10
-2.2457384e-09
-1.140908631e-08
-4.654499105e-08
-1.38963659e-07
-1.793598864e-08
3.417720267e-07
1.626169305e-06
5.383111849e-12
-6.369491209e-11
-6.225078258e-11
-4.901457782e-11
-2.387591932e-11
-1.182233229e-13
1.330224376e-11
7.281010063e-12
-1.376156047e-11
9.258140143e-11
8.467160265e-11
-5.297292671e-12
4.134882193e-11
-4.34185909e-11
3.681636259e-11
-1.847552126e-11
-2.621158238e-11
-2.339806336e-11
-1.878916724e-11
-1.467638955e-11
-1.145983001e-11
-9.012658142e-12
-7.182261541e-12
-5.833827603e-12
-4.777098747e-12
-3.953488727e-12
-3.233276083e-12
-2.653865875e-12
-2.133736759e-12
-1.735414266e-12
-1.38159832e-12
-1.120342915e-12
-8.697663302e-13
-6.634589602e-13
-4.58569637e-13
-3.296099872e-13
-2.669724757e-13
-2.848019499e-13
-1.635611735e-13
-1.696470757e-13
8.754846822e-13
-2.401118252e-12
3.608743925e-12
-2.438537e-12
1.49827239e-10
-3.821250072e-10
-9.828657836e-11
-7.2307666e-11
-9.975024646e-11
-1.273679351e-10
-2.122346217e-10
-3.732443564e-10
-8.289896945e-10
-2.001736439e-09
-4.764226278e-09
-9.617367218e-09
-1.260625895e-08
-3.957835961e-08
1.268626854e-07
2.865044644e-07
-3.953467163e-11
-4.854855367e-11
-7.138070021e-11
-6.150942311e-11
-1.445840227e-11
1.562639855e-11
2.058736656e-11
4.508269189e-12
7.108886814e-11
1.019989643e-10
1.075936983e-10
5.031876651e-11
-2.428170529e-11
9.72044679e-11
-4.202292724e-11
-3.472091532e-11
-3.432687951e-11
-2.756786574e-11
-2.095453021e-11
-1.603827192e-11
-1.245527123e-11
-9.83923211e-12
-7.906221154e-12
-6.445126415e-12
-5.341711133e-12
-4.421777754e-12
-3.680068752e-12
-3.009483331e-12
-2.473750366e-12
-1.990209441e-12
-1.625359514e-12
-1.295778453e-12
-1.045298099e-12
-7.944134563e-13
-5.960787404e-13
-4.274443767e-13
-3.73162225e-13
-3.200885624e-13
-2.758863e-13
1.64579093e-13
-7.892545571e-13
2.996373111e-12
-6.085149664e-12
3.642750659e-12
1.947611232e-10
-4.977851271e-10
-1.330781618e-10
-1.380075429e-10
-1.590040173e-10
-2.247677196e-10
-3.211269896e-10
-4.927101751e-10
-6.917941335e-10
-7.297216629e-10
3.95946945e-10
6.510401309e-09
3.008500666e-08
8.868761519e-08
-2.277471685e-08
-5.198983787e-07
-2.317819597e-06
-7.674564625e-11
-8.107608514e-11
-4.466798752e-11
3.604978552e-12
3.601422359e-11
3.200379521e-11
6.925535962e-12
2.853248469e-11
1.498170835e-10
8.992091715e-11
2.491470034e-11
1.099540339e-06
-4.155812863e-11
5.707936572e-11
-4.922950572e-11
-5.427572503e-11
-4.464706713e-11
-3.425689536e-11
-2.62199337e-11
-2.040772015e-11
-1.614460129e-11
-1.298437188e-11
-1.062169018e-11
-8.783038424e-12
-7.316423725e-12
-6.061282863e-12
-5.008323816e-12
-4.085404349e-12
-3.331505708e-12
-2.687266313e-12
-2.180587642e-12
-1.739169106e-12
-1.365191745e-12
-1.012544171e-12
-7.498986462e-13
-5.934820477e-13
-5.622201369e-13
-3.900469353e-13
-5.08760388e-13
1.287449241e-12
-4.60163944e-12
6.847505114e-12
-3.576345107e-12
1.861957253e-10
-6.012080299e-10
-1.897608709e-10
-1.898394259e-10
-2.135529217e-10
-2.920648238e-10
-4.166744236e-10
-6.300088481e-10
-8.837331842e-10
-1.161270653e-09
-1.380289212e-09
-1.982343939e-09
-5.756320712e-09
-2.821064113e-08
-7.749939897e-08
-1.270850775e-07
2.241228689e-07
1.38970829e-06
-5.238845453e-07
1.239760459e-11
-6.636839492e-13
2.665351016e-11
4.509854243e-12
-2.461745488e-11
4.68335134e-11
1.149419066e-17
-9.527891199e-07
-1.006900533e-06
-1.395346862e-07
8.183897978e-07
-4.721979813e-11
-4.977252757e-11
-4.155388126e-11
-3.160611232e-11
-2.373023177e-11
-1.821078743e-11
-1.440214548e-11
-1.165525253e-11
-9.589918967e-12
-7.991202868e-12
-6.69633656e-12
-5.62796908e-12
-4.700059173e-12
-3.910413003e-12
-3.216477276e-12
-2.639607833e-12
-2.144187122e-12
-1.74478554e-12
-1.397045458e-12
-1.103554525e-12
-8.406258645e-13
-6.517162815e-13
-5.316710261e-13
-4.781215463e-13
-3.741671918e-13
2.060481992e-14
-6.415164836e-13
1.626439431e-12
-3.276177959e-12
1.197084824e-12
1.46679327e-10
-6.613494506e-10
-2.131960653e-10
-1.935482911e-10
-2.175956225e-10
-2.896242561e-10
-4.379169491e-10
-6.736004898e-10
-1.021247366e-09
-1.591245586e-09
-3.071400027e-09
-8.01259873e-09
-2.488175833e-08
-7.706613123e-08
-1.937816065e-07
-3.901012188e-07
-9.264810834e-07
-1.386520745e-06
1.948530653e-06
9.635307074e-06
-2.495461288e-11
2.050389806e-11
-5.687257381e-12
8.025174363e-11
6.645837047e-12
6.422858755e-06
-1.883258208e-06
-1.439289529e-06
-1.374566725e-06
-8.658116071e-07
-4.098817347e-11
-4.405264605e-11
-3.754962095e-11
-2.939556211e-11
-2.264797558e-11
-1.783564246e-11
-1.442219746e-11
-1.192194885e-11
-9.984002943e-12
-8.434065343e-12
-7.146139158e-12
-6.048407309e-12
-5.093740015e-12
-4.258239336e-12
-3.533251377e-12
-2.908792983e-12
-2.382332417e-12
-1.938778985e-12
-1.56611125e-12
-1.243155226e-12
-9.727586784e-13
-7.698001588e-13
-6.46767159e-13
-5.431791681e-13
-3.744031101e-13
-4.150919338e-13
5.177303938e-13
-2.634800018e-12
2.686470909e-12
-1.518714182e-12
8.000318626e-11
-6.942249123e-10
-2.036766505e-10
-1.690924007e-10
-1.748349869e-10
-2.429097165e-10
-3.853346822e-10
-6.198670436e-10
-9.102320363e-10
-1.218959485e-09
-1.528485158e-09
-2.170985436e-09
-6.024822182e-09
-2.782083531e-08
-7.729933426e-08
-1.415798233e-07
1.846516722e-07
1.326248267e-06
-6.220276969e-07
-7.170828787e-11
-9.340869147e-12
1.871562922e-11
5.060125889e-11
2.005398616e-11
1.118975328e-10
3.39365718e-11
-1.265823972e-06
-1.072913939e-06
-1.917557667e-07
7.585700413e-07
-2.63141537e-11
-3.250055204e-11
-2.967664969e-11
-2.459535174e-11
-1.996747309e-11
-1.638149627e-11
-1.372356144e-11
-1.166186777e-11
-1.000656241e-11
-8.607235759e-12
-7.399820168e-12
-6.327998637e-12
-5.374869149e-12
-4.525639334e-12
-3.778968435e-12
-3.129927282e-12
-2.574627695e-12
-2.105538397e-12
-1.708927206e-12
-1.372863271e-12
-1.093089443e-12
-8.803246423e-13
-7.341403676e-13
-6.316793046e-13
-5.213923247e-13
-1.535397777e-13
-7.711078778e-13
1.822035138e-12
-3.361150882e-12
9.828273269e-13
-1.830609766e-11
-6.932881019e-10
-1.711447441e-10
-1.087615006e-10
-9.293904963e-11
-1.399358245e-10
-2.702922154e-10
-4.974616762e-10
-7.913862663e-10
-9.637986089e-10
-1.853655054e-11
5.915540589e-09
2.917934071e-08
8.707737603e-08
-3.453099645e-08
-5.662593143e-07
-2.391292924e-06
-4.887427193e-11
-5.658235014e-11
-4.8256662e-11
-8.095329875e-12
1.531476803e-11
2.750577867e-11
7.9747352e-11
6.447009831e-11
4.563734298e-11
6.079186042e-11
3.217049268e-11
1.101178613e-06
2.555060093e-11
1.715055456e-11
-1.48347442e-11
-1.925907359e-11
-1.868846636e-11
-1.667773274e-11
-1.461466207e-11
-1.279404625e-11
-1.125338859e-11
-9.895887963e-12
-8.68489272e-12
-7.567311361e-12
-6.542131188e-12
-5.59673837e-12
-4.743969677e-12
-3.980363969e-12
-3.312330898e-12
-2.733803602e-12
-2.242984033e-12
-1.827972493e-12
-1.480971655e-12
-1.196419391e-12
-9.766641823e-13
-8.187256893e-13
-6.870125361e-13
-5.204995137e-13
-5.712288805e-13
2.808143613e-13
-2.417438607e-12
2.344950418e-12
-1.460293461e-12
-1.322440617e-10
-6.677553191e-10
-1.172532707e-10
-2.459332718e-11
2.478842403e-11
1.498350313e-11
-7.620469822e-11
-3.034299212e-10
-8.320835705e-10
-2.099656236e-09
-4.875210839e-09
-9.632073377e-09
-1.246382958e-08
-3.84670553e-08
9.807059577e-08
2.235282627e-07
-2.944753873e-11
-3.449701982e-11
-5.523276986e-11
-3.590963597e-11
-2.480405583e-12
1.9841256e-11
3.142249635e-11
4.719547173e-11
6.438205917e-11
6.713303308e-11
6.149369158e-11
9.883418814e-11
7.725150862e-11
4.641458219e-11
4.672617375e-11
-3.400000578e-12
-1.12807558e-11
-1.383082693e-11
-1.39705918e-11
-1.311800666e-11
-1.20010028e-11
-1.084841338e-11
-9.753530429e-12
-8.691497269e-12
-7.672869587e-12
-6.687091382e-12
-5.762047509e-12
-4.903709996e-12
-4.132286072e-12
-3.446063315e-12
-2.852419395e-12
-2.343900323e-12
-1.9181578e-12
-1.564017657e-12
-1.276105664e-12
-1.046828792e-12
-8.698258627e-13
-7.352875523e-13
-6.359358207e-13
-2.979002665e-13
-9.209433905e-13
1.599407172e-12
-3.206648116e-12
7.852649571e-13
-2.541941527e-10
-6.271623681e-10
-5.415934201e-11
7.343698366e-11
1.669061167e-10
2.215929024e-10
2.414239946e-10
1.854608429e-10
-2.171843451e-10
-2.268845371e-09
-1.108324566e-08
-4.498187486e-08
-1.313788097e-07
-3.899791355e-08
2.155518715e-07
1.58124359e-06
-4.067278887e-11
-4.193038191e-11
-3.925885959e-11
-2.589405464e-11
-2.670538863e-12
1.648678614e-11
2.838633503e-11
4.532901472e-11
5.007563568e-11
5.53878019e-11
7.794926754e-11
8.55869556e-11
7.266047111e-11
4.866456998e-11
5.180571816e-11
5.207308807e-12
-4.300926925e-12
-9.399988615e-12
-1.140263899e-11
-1.170554157e-11
-1.121029686e-11
-1.044230555e-11
-9.569021226e-12
-8.664970571e-12
-7.728618512e-12
-6.796421986e-12
-5.884875752e-12
-5.032406448e-12
-4.24942337e-12
-3.554263952e-12
-2.944675532e-12
-2.425332206e-12
-1.988145408e-12
-1.630105004e-12
-1.339398082e-12
-1.105986582e-12
-9.174847529e-13
-7.60236852e-13
-6.015028549e-13
-6.790388522e-13
1.280497881e-13
-2.347900727e-12
1.930948787e-12
-1.377542758e-12
-3.650939597e-10
-5.805764925e-10
7.369999731e-12
1.663435637e-10
3.006817385e-10
4.312100557e-10
6.238802187e-10
1.046501952e-09
2.115347735e-09
4.889182719e-09
1.268043318e-08
3.240311929e-08
-8.221786644e-08
-5.483077825e-07
-1.378008466e-06
-3.972197396e-11
-3.679444657e-11
-3.598882827e-11
-3.617672892e-11
-2.541252686e-11
-6.260569691e-12
1.154837876e-11
2.351830776e-11
3.525660209e-11
4.736421395e-11
5.743202101e-11
7.150694724e-11
8.333184973e-11
7.156637741e-11
4.938105071e-11
5.813738999e-11
1.201063239e-11
7.872084849e-13
-6.348487668e-12
-9.831818817e-12
-1.092279865e-11
-1.082783601e-11
-1.023539703e-11
-9.482041431e-12
-8.646656125e-12
-7.771502207e-12
-6.865754914e-12
-5.973821667e-12
-5.118545777e-12
-4.33365715e-12
-3.626498173e-12
-3.009997532e-12
-2.480080444e-12
-2.038734079e-12
-1.677034667e-12
-1.38629993e-12
-1.146651594e-12
-9.460361442e-13
-7.877456581e-13
-6.906504108e-13
-3.818858558e-13
-9.806087381e-13
1.313352407e-12
-2.991931322e-12
5.879590862e-13
-4.557911722e-10
-5.416282093e-10
5.377053165e-11
2.30683274e-10
3.85145477e-10
5.38134886e-10
7.760720493e-10
1.312362628e-09
2.78673433e-09
7.30259036e-09
2.292771481e-08
6.672299482e-08
-1.686663541e-07
-7.317380438e-07
-9.777134601e-07
-2.770784163e-11
-3.266228792e-11
-3.604166618e-11
-3.569296335e-11
-2.660735248e-11
-1.179528376e-11
3.531467075e-12
1.839629876e-11
3.479932678e-11
5.124097831e-11
6.555614728e-11
7.71177596e-11
8.22002999e-11
7.024058238e-11
4.932388359e-11
6.313183243e-11
1.707871536e-11
4.887915283e-12
-3.899326659e-12
-8.534564976e-12
-1.027096082e-11
-1.045608387e-11
-1.000952795e-11
-9.331319297e-12
-8.57024866e-12
-7.743045539e-12
-6.881767584e-12
-6.007823214e-12
-5.166698392e-12
-4.380116784e-12
-3.673916877e-12
-3.050811112e-12
-2.517930071e-12
-2.070825387e-12
-1.709967922e-12
-1.420577419e-12
-1.182112259e-12
-9.757607229e-13
-7.998440143e-13
-6.412933647e-13
-7.280448846e-13
2.934554578e-14
-2.204350779e-12
1.521584834e-12
-1.255661764e-12
-5.113352626e-10
-5.150063541e-10
7.749946848e-11
2.577184949e-10
4.034407662e-10
5.261810156e-10
6.472759042e-10
7.44162935e-10
4.682972545e-10
-1.778853609e-09
-1.154224201e-08
-3.814409589e-08
5.732965096e-08
1.39248594e-07
2.444963676e-07
-3.011229708e-11
-3.332499072e-11
-3.582827143e-11
-3.615629278e-11
-3.175963154e-11
-1.904793092e-11
-3.521386079e-12
1.626865174e-11
3.984379154e-11
6.059928292e-11
7.714296666e-11
8.497174514e-11
7.793863693e-11
7.132467603e-11
5.074117154e-11
6.577643268e-11
2.014293677e-11
6.998088478e-12
-2.822171191e-12
-8.164424623e-12
-1.020483263e-11
-1.046240159e-11
-9.978542324e-12
-9.2731193e-12
-8.49855268e-12
-7.69171221e-12
-6.848288563e-12
-5.998753862e-12
-5.167152909e-12