/*--------------------------------*- C++ -*----------------------------------*\
  =========                 |
  \\      /  F ield         | OpenFOAM: The Open Source CFD Toolbox
   \\    /   O peration     | Website:  https://openfoam.org
    \\  /    A nd           | Version:  10
     \\/     M anipulation  |
\*---------------------------------------------------------------------------*/
FoamFile
{
    format      ascii;
    class       volVectorField;
    location    "0.0002";
    object      Marangoni;
}
// * * * * * * * * * * * * * * * * * * * * * * * * * * * * * * * * * * * * * //

dimensions      [1 -2 -2 0 0 0 0];

internalField   nonuniform List<vector> 
3600
(
(-0 4.278449813e-10 2.160217896e-10)
(-0 5.507539314e-10 3.351687064e-10)
(-0 8.905098588e-11 6.47890448e-11)
(-0 6.787244294e-11 5.873233065e-11)
(-0 5.112112799e-11 5.24588216e-11)
(-0 3.892839238e-11 4.730963746e-11)
(-0 3.823559635e-11 5.503058827e-11)
(-0 2.812801799e-11 4.799100346e-11)
(-0 1.790656532e-11 3.628336402e-11)
(-0 3.079248189e-11 7.428469637e-11)
(-0 6.573288354e-12 1.893765145e-11)
(-0 4.986199901e-12 1.72161312e-11)
(-0 3.193484354e-11 1.326655287e-10)
(-0 2.593954796e-11 1.302062622e-10)
(-0 2.245985832e-11 1.36842752e-10)
(-0 1.605277397e-11 1.192833119e-10)
(-0 2.695939913e-12 2.455314269e-11)
(-0 5.423289868e-12 6.084814071e-11)
(-0 3.541756301e-12 4.921140931e-11)
(-0 2.510676614e-12 4.343289145e-11)
(-0 1.196350036e-12 2.590707966e-11)
(-0 1.505913261e-12 4.104575913e-11)
(-0 7.150630316e-13 2.466685449e-11)
(-0 5.625800822e-13 2.46978154e-11)
(-0 9.189554046e-13 5.16276361e-11)
(-0 6.376852652e-13 4.610174271e-11)
(-0 8.563417607e-13 8.011016665e-11)
(-0 3.126451573e-13 3.805588706e-11)
(-0 1.739309327e-13 2.769923725e-11)
(-0 5.125734397e-13 1.073861158e-10)
(-0 2.98146432e-14 8.262096592e-12)
(-0 2.985140183e-13 1.100139045e-10)
(-0 2.546210179e-13 1.254694107e-10)
(-0 1.145238508e-13 7.586176729e-11)
(-0 3.721982161e-14 3.33189259e-11)
(-0 1.699135036e-14 2.066444064e-11)
(-0 0 0)
(-0 2.563541641e-14 5.845115049e-11)
(-0 1.339697546e-14 4.215044593e-11)
(-0 2.281118851e-14 9.954165438e-11)
(-0 1.021478351e-14 6.213680393e-11)
(-0 1.348409516e-14 1.149177648e-10)
(-0 5.564719826e-15 6.677587897e-11)
(-0 2.434258135e-16 4.133336143e-12)
(-0 3.086184992e-15 7.451494151e-11)
(-0 0 0)
(-0 1.25165597e-15 6.200034107e-11)
(-0 7.154351129e-16 5.112682891e-11)
(-0 3.764325316e-16 3.899405199e-11)
(-0 1.59751944e-16 2.410143901e-11)
(-0 3.90926716e-16 8.630716737e-11)
(-0 1.80058021e-16 5.845459914e-11)
(-0 1.292141043e-16 6.200047193e-11)
(-0 1.681339984e-16 1.199388316e-10)
(-0 1.594919286e-17 1.704230173e-11)
(-0 6.942838998e-17 1.124396961e-10)
(-0 6.095382879e-17 1.529903704e-10)
(-0 1.420587705e-17 5.801455046e-11)
(-0 8.745799302e-18 6.613384974e-11)
(-0 3.53260394e-18 8.480957193e-11)
(-0 4.174895357e-10 -1.413032748e-10)
(-0 3.903541015e-10 -8.377793918e-11)
(-0 1.980922596e-10 -1.602827469e-11)
(-0 8.819068393e-11 5.821966287e-12)
(-0 5.58011689e-11 1.284112367e-11)
(-0 7.40867348e-11 3.083216492e-11)
(-0 3.186524035e-11 2.007294082e-11)
(-0 2.968546372e-11 2.608090138e-11)
(-0 2.767131645e-11 3.240253241e-11)
(-0 1.528936185e-11 2.321362364e-11)
(-0 2.360537759e-11 4.566584186e-11)
(-0 3.477113359e-11 8.475875125e-11)
(-0 2.314912737e-12 7.061051287e-12)
(-0 2.944669292e-11 1.119451601e-10)
(-0 2.795362661e-11 1.322025763e-10)
(-0 1.341175069e-11 7.888960339e-11)
(-0 2.110634492e-11 1.545669341e-10)
(-0 6.213929589e-12 5.676676532e-11)
(-0 7.100076355e-12 8.113333141e-11)
(-0 5.353612239e-12 7.677797432e-11)
(-0 2.210142596e-12 3.993149164e-11)
(-0 2.693571442e-12 6.156665632e-11)
(-0 0 0)
(-0 2.370198793e-12 8.789928894e-11)
(-0 1.659617668e-12 7.896791099e-11)
(-0 1.128282842e-12 6.922912269e-11)
(-0 1.529882203e-13 1.216711803e-11)
(-0 6.321642242e-13 6.550598052e-11)
(-0 8.517364706e-13 1.156009731e-10)
(-0 3.145613809e-13 5.621651167e-11)
(-0 1.032992693e-12 2.443775973e-10)
(-0 1.964418126e-13 6.184549905e-11)
(-0 2.444463206e-13 1.029600507e-10)
(-0 1.100927396e-13 6.236619798e-11)
(-0 2.575460244e-14 1.972584723e-11)
(-0 1.532472278e-14 1.59528005e-11)
(-0 5.176605069e-14 7.362294064e-11)
(-0 1.386924659e-14 2.708885543e-11)
(-0 3.886253019e-14 1.047777361e-10)
(-0 2.061471303e-14 7.711339831e-11)
(-0 3.279778186e-14 1.7108402e-10)
(-0 8.370815191e-15 6.119643619e-11)
(-0 1.177285074e-14 1.212263369e-10)
(-0 8.439334192e-15 1.230063821e-10)
(-0 2.128585773e-15 4.413079777e-11)
(-0 4.048953401e-15 1.199869439e-10)
(-0 1.266623244e-15 5.391066499e-11)
(-0 1.324777093e-15 8.137406547e-11)
(-0 6.460222734e-16 5.754024976e-11)
(-0 3.491268217e-16 4.530398315e-11)
(-0 6.143384412e-16 1.166966488e-10)
(-0 4.897477105e-16 1.368458652e-10)
(-0 2.962676526e-17 1.223987066e-11)
(-0 5.195163677e-17 3.191768536e-11)
(-0 2.150780796e-16 1.98006234e-10)
(-0 6.654635035e-17 9.289413397e-11)
(-0 7.142021913e-17 1.545330004e-10)
(-0 2.401200994e-17 8.453494743e-11)
(-0 1.801453328e-17 1.17528331e-10)
(-0 4.882139576e-18 1.009326254e-10)
(-0 2.319612214e-10 -2.363380746e-10)
(-0 3.661226042e-10 -3.249097519e-10)
(-0 1.694075792e-10 -1.272833973e-10)
(-0 8.806567461e-11 -5.350677306e-11)
(-0 2.857611046e-11 -1.293654407e-11)
(-0 5.276096247e-11 -1.491641799e-11)
(-0 1.080068636e-10 -1.002620663e-11)
(-0 6.896503162e-11 8.46686004e-12)
(-0 4.963822217e-11 1.842763128e-11)
(-0 1.827349074e-11 1.208760891e-11)
(-0 3.40291974e-11 3.418875312e-11)
(-0 3.63339882e-11 5.141275552e-11)
(-0 1.679904597e-11 3.209366685e-11)
(-0 6.195829904e-12 1.557683814e-11)
(-0 3.173750359e-11 1.033253775e-10)
(-0 3.45811769e-11 1.443245975e-10)
(-0 6.386702919e-12 3.396252375e-11)
(-0 1.57298281e-11 1.062310819e-10)
(-0 7.372477944e-12 6.315657692e-11)
(-0 4.058322369e-12 4.411307957e-11)
(-0 6.461739749e-12 8.92544568e-11)
(-0 4.520850031e-12 7.954139782e-11)
(-0 5.360705494e-12 1.205098744e-10)
(-0 2.742711885e-12 7.9063897e-11)
(-0 3.277808664e-12 1.216554078e-10)
(-0 1.476641802e-12 7.08706935e-11)
(-0 1.052639166e-12 6.563225277e-11)
(-0 5.129489508e-13 4.174872069e-11)
(-0 6.250146105e-13 6.673240274e-11)
(-0 1.104723208e-12 1.555136241e-10)
(-0 4.127199992e-13 7.699465989e-11)
(-0 7.194413233e-13 1.787856014e-10)
(-0 9.746292343e-14 3.243113837e-11)
(-0 2.255314847e-13 1.010122194e-10)
(-0 7.528223229e-14 4.562060823e-11)
(-0 4.152576456e-14 3.42248318e-11)
(-0 1.320405811e-14 1.487755191e-11)
(-0 3.550215672e-14 5.496854108e-11)
(-0 4.493879747e-14 9.610346484e-11)
(-0 2.077570046e-14 6.167941454e-11)
(-0 2.495362067e-14 1.033663752e-10)
(-0 3.346593471e-15 1.943963601e-11)
(-0 7.496574019e-15 6.136912559e-11)
(-0 6.605135705e-15 7.658005095e-11)
(-0 2.975720613e-15 4.91022212e-11)
(-0 1.835712415e-15 4.332121476e-11)
(-0 2.644158477e-15 8.96736433e-11)
(-0 7.836588907e-16 3.837632888e-11)
(-0 9.983011501e-16 7.092824524e-11)
(-0 1.55884975e-16 1.614512794e-11)
(-0 4.853870399e-16 7.363321991e-11)
(-0 3.785066623e-16 8.451189425e-11)
(-0 2.875132748e-16 9.496878774e-11)
(-0 2.057943862e-16 1.011492974e-10)
(-0 6.368947631e-17 4.693226608e-11)
(-0 1.178701885e-16 1.317590243e-10)
(-0 4.216911562e-17 7.310048227e-11)
(-0 5.5710254e-17 1.572810693e-10)
(-0 1.810653107e-17 9.476282095e-11)
(-0 1.017351187e-17 1.685608163e-10)
(-0 2.648979456e-10 -3.938773003e-10)
(-0 3.419215098e-10 -4.638346944e-10)
(-0 1.691838149e-10 -2.073725416e-10)
(-0 7.492517357e-11 -8.180319792e-11)
(-0 8.202443385e-11 -7.808081337e-11)
(-0 1.27312187e-10 -1.022132508e-10)
(-0 1.632904704e-10 -1.046407344e-10)
(-0 7.083195762e-11 -3.267673803e-11)
(-0 7.531581025e-11 -1.949795896e-11)
(-0 2.561473447e-11 -6.847442861e-13)
(-0 4.926292586e-11 1.199838927e-11)
(-0 4.863319875e-11 2.736183036e-11)
(-0 3.862188396e-11 3.645659894e-11)
(-0 1.818717124e-11 2.5548796e-11)
(-0 2.305241826e-11 4.535117917e-11)
(-0 1.678097292e-11 4.464145009e-11)
(-0 1.962649121e-11 6.910248939e-11)
(-0 1.17538289e-11 5.404344752e-11)
(-0 8.182966742e-12 4.873279431e-11)
(-0 7.731434934e-12 5.935855171e-11)
(-0 5.937903881e-12 5.864357693e-11)
(-0 8.022088035e-12 1.018786261e-10)
(-0 2.724934275e-12 4.454468003e-11)
(-0 2.897618068e-12 6.109542813e-11)
(-0 2.504022188e-12 6.829033176e-11)
(-0 1.202287368e-12 4.255700475e-11)
(-0 2.142127244e-13 9.879602517e-12)
(-0 7.752493168e-13 4.67854504e-11)
(-0 4.603480411e-13 3.651670647e-11)
(-0 1.080720387e-12 1.132146892e-10)
(-0 1.256832057e-12 1.747284024e-10)
(-0 2.169082033e-13 4.021775825e-11)
(-0 2.977982479e-13 7.40133656e-11)
(-0 7.066541137e-14 2.366202166e-11)
(-0 1.331208724e-13 6.03629278e-11)
(-0 1.042566989e-13 6.434784106e-11)
(-0 5.219423012e-14 4.407417764e-11)
(-0 7.23317451e-14 8.399297964e-11)
(-0 2.297474888e-14 3.687479308e-11)
(-0 5.431877121e-14 1.211142383e-10)
(-0 2.124231376e-14 6.613063662e-11)
(-0 7.24133103e-15 3.163369568e-11)
(-0 4.650645395e-15 2.865071776e-11)
(-0 1.116498521e-14 9.74800916e-11)
(-0 4.34872869e-15 5.407340482e-11)
(-0 4.146015027e-15 7.377790735e-11)
(-0 1.642070744e-15 4.202019556e-11)
(-0 2.611392221e-15 9.655809349e-11)
(-0 1.510988562e-15 8.111319971e-11)
(-0 7.293069798e-16 5.711025437e-11)
(-0 7.686374371e-16 8.822042825e-11)
(-0 1.388751267e-16 2.34754997e-11)
(-0 1.562848962e-16 3.910990183e-11)
(-0 1.370782897e-16 5.108125715e-11)
(-0 1.23093077e-16 6.8811154e-11)
(-0 1.007561087e-16 8.55016724e-11)
(-0 9.204395554e-17 1.211963692e-10)
(-0 3.54371751e-17 7.603256415e-11)
(-0 1.583794449e-17 6.300941729e-11)
(-0 6.071431978e-18 7.647505493e-11)
(-0 3.661368337e-10 -6.496282503e-10)
(-0 3.185716419e-10 -5.253748486e-10)
(-0 6.755942767e-11 -1.031334137e-10)
(-0 1.502846426e-11 -2.110366385e-11)
(-0 5.091595337e-11 -6.516591194e-11)
(-0 2.222095814e-10 -2.557329235e-10)
(-0 1.262980617e-10 -1.281042286e-10)
(-0 1.401784391e-10 -1.215026211e-10)
(-0 3.298922289e-11 -2.32306644e-11)
(-0 0 -0)
(-0 6.351899228e-11 -1.986573375e-11)
(-0 1.034572419e-10 -7.241801388e-12)
(-0 5.049659257e-11 1.093100204e-11)
(-0 7.158718846e-11 4.002609391e-11)
(-0 2.406669943e-11 2.344047234e-11)
(-0 4.753596697e-12 7.043559862e-12)
(-0 1.477943607e-11 3.117386909e-11)
(-0 1.850754846e-11 5.351868509e-11)
(-0 1.019496788e-11 3.950731405e-11)
(-0 1.801776873e-12 9.22588704e-12)
(-0 1.979763401e-11 1.328036861e-10)
(-0 9.662513585e-12 8.450121876e-11)
(-0 3.765226309e-12 4.283101843e-11)
(-0 2.486965245e-12 3.678488224e-11)
(-0 5.53261724e-13 1.065139068e-11)
(-0 7.987561279e-13 2.005690614e-11)
(-0 9.187119636e-14 3.017482788e-12)
(-0 9.163018567e-13 3.950228307e-11)
(-0 1.387758766e-12 7.883448763e-11)
(-0 9.86786309e-13 7.418121441e-11)
(-0 9.783206795e-13 9.776477353e-11)
(-0 4.873073127e-13 6.503973612e-11)
(-0 1.561272964e-13 2.796619157e-11)
(-0 6.322396284e-13 1.527427329e-10)
(-0 1.476323275e-13 4.83457382e-11)
(-0 1.388417014e-13 6.19419719e-11)
(-0 7.101393043e-14 4.338064869e-11)
(-0 5.640136287e-14 4.741662277e-11)
(-0 7.513058997e-14 8.736645577e-11)
(-0 2.71283506e-14 4.385608181e-11)
(-0 2.218326886e-14 5.01063274e-11)
(-0 3.239053817e-14 1.027345562e-10)
(-0 1.96264977e-14 8.784749804e-11)
(-0 8.917985279e-15 5.660890442e-11)
(-0 9.484865252e-15 8.580402679e-11)
(-0 1.436784295e-15 1.861393506e-11)
(-0 8.485321548e-16 1.581905574e-11)
(-0 3.384911051e-15 9.124450736e-11)
(-0 2.036707172e-15 7.976322485e-11)
(-0 2.810500239e-15 1.606695652e-10)
(-0 1.19841227e-15 1.00483213e-10)
(-0 7.81903585e-16 9.662570566e-11)
(-0 3.658325982e-16 6.697311099e-11)
(-0 3.667779917e-16 1.000517424e-10)
(-0 2.23710821e-16 9.161499103e-11)
(-0 9.528129286e-17 5.927273141e-11)
(-0 1.544918672e-16 1.492094949e-10)
(-0 4.730408659e-17 7.445947516e-11)
(-0 3.99271527e-17 1.165805573e-10)
(-0 8.847352641e-18 8.190778671e-11)
(-0 3.800725045e-10 -7.355014173e-10)
(-0 4.317981305e-10 -7.843387646e-10)
(-0 3.787479829e-10 -6.447341019e-10)
(-0 6.69607593e-11 -1.06516499e-10)
(-0 2.525797623e-10 -3.737836512e-10)
(-0 1.044697404e-10 -1.42875414e-10)
(-0 3.281563374e-10 -4.107708648e-10)
(-0 1.192346398e-10 -1.346963145e-10)
(-0 7.719032907e-11 -7.706405335e-11)
(-0 2.20540544e-11 -1.883832745e-11)
(-0 9.011092444e-11 -6.241955298e-11)
(-0 7.161816876e-11 -3.640723294e-11)
(-0 1.367993739e-10 -4.024450278e-11)
(-0 1.737228648e-11 -7.182502623e-13)
(-0 9.218802219e-12 2.410897492e-12)
(-0 2.73763279e-11 1.722097378e-11)
(-0 1.86839495e-11 2.018317411e-11)
(-0 2.815863312e-11 4.617787642e-11)
(-0 2.311047235e-12 5.409341327e-12)
(-0 1.967125105e-11 6.344710697e-11)
(-0 8.188307234e-12 3.562752194e-11)
(-0 1.237181552e-11 7.167477916e-11)
(-0 8.889885421e-12 6.804187738e-11)
(-0 1.092876658e-12 1.100375992e-11)
(-0 3.073346442e-12 4.06343626e-11)
(-0 3.613804656e-12 6.27422989e-11)
(-0 1.82983213e-12 4.177310427e-11)
(-0 1.013209592e-12 3.048445304e-11)
(-0 1.616779408e-12 6.430556388e-11)
(-0 0 0)
(-0 8.686227582e-13 6.105867657e-11)
(-0 4.194096386e-13 3.944306621e-11)
(-0 2.704567845e-13 3.418446102e-11)
(-0 9.997873934e-14 1.706442758e-11)
(-0 5.93428921e-13 1.374394665e-10)
(-0 1.257233695e-13 3.970611286e-11)
(-0 1.653079168e-13 7.154764836e-11)
(-0 8.125649093e-14 4.843885481e-11)
(-0 4.642477029e-14 3.830877292e-11)
(-0 3.186130065e-14 3.657648997e-11)
(-0 2.491677958e-14 3.999379259e-11)
(-0 5.649571762e-14 1.274212989e-10)
(-0 2.746198147e-14 8.746553629e-11)
(-0 1.784852013e-14 8.067264338e-11)
(-0 1.034068748e-14 6.665267378e-11)
(-0 2.625280267e-15 2.424928966e-11)
(-0 1.306977248e-15 1.738376337e-11)
(-0 3.570309332e-15 6.87090402e-11)
(-0 4.006107471e-15 1.120812481e-10)
(-0 1.087909418e-15 4.445962313e-11)
(-0 1.820665281e-15 1.092035536e-10)
(-0 6.974479724e-16 6.169569003e-11)
(-0 7.244953269e-16 9.500446888e-11)
(-0 3.29775411e-16 6.447962097e-11)
(-0 2.646867465e-16 7.774633117e-11)
(-0 3.379980042e-16 1.509074679e-10)
(-0 1.032707131e-16 7.162165735e-11)
(-0 8.138856589e-17 9.203521838e-11)
(-0 0 0)
(-0 1.559948352e-17 1.03876231e-10)
(-0 7.06432741e-10 -1.423787455e-09)
(-0 6.187911971e-10 -1.17751387e-09)
(-0 2.149155367e-10 -3.860394665e-10)
(-0 2.668716212e-11 -4.520062706e-11)
(-0 1.518202442e-10 -2.419623078e-10)
(-0 4.930501487e-10 -7.369285084e-10)
(-0 1.797202425e-10 -2.506410322e-10)
(-0 3.520125916e-10 -4.547072799e-10)
(-0 1.992662513e-10 -2.358786784e-10)
(-0 1.531108541e-10 -1.635168904e-10)
(-0 3.158861739e-11 -2.973159559e-11)
(-0 2.236547409e-10 -1.788193298e-10)
(-0 5.721667723e-11 -3.65038091e-11)
(-0 1.320562331e-11 -5.947176777e-12)
(-0 2.955584053e-11 -6.757751059e-12)
(-0 3.22128291e-11 1.204452775e-12)
(-0 1.51815006e-11 5.481272262e-12)
(-0 6.692051588e-12 5.083837024e-12)
(-0 2.165034005e-11 2.719394161e-11)
(-0 2.070623195e-11 3.893127119e-11)
(-0 8.341784557e-12 2.228779861e-11)
(-0 1.981442447e-12 7.299623735e-12)
(-0 8.667730339e-13 4.323084799e-12)
(-0 8.892871754e-12 5.938488354e-11)
(-0 7.052140325e-12 6.264680009e-11)
(-0 1.847329265e-12 2.175921709e-11)
(-0 6.186952288e-12 9.652647351e-11)
(-0 9.696104231e-13 2.004890727e-11)
(-0 3.642976815e-12 1.000099964e-10)
(-0 1.106508076e-12 4.043787842e-11)
(-0 2.373810243e-12 1.158685111e-10)
(-0 3.952722814e-14 2.58674205e-12)
(-0 9.59327835e-13 8.452216425e-11)
(-0 6.380768816e-13 7.602365303e-11)
(-0 6.445078158e-14 1.043242512e-11)
(-0 4.565896395e-13 1.008864953e-10)
(-0 8.881575182e-14 2.691881323e-11)
(-0 1.850459891e-13 7.73107097e-11)
(-0 5.294516106e-14 3.064295817e-11)
(-0 9.598282337e-14 7.733916523e-11)
(-0 6.838439443e-14 7.709429912e-11)
(-0 5.900064413e-14 9.352653419e-11)
(-0 2.846660003e-14 6.376353733e-11)
(-0 4.880380642e-14 1.552331912e-10)
(-0 7.049039101e-15 3.199471345e-11)
(-0 1.3290616e-14 8.65008059e-11)
(-0 8.11110312e-15 7.606360679e-11)
(-0 5.612518406e-15 7.6200767e-11)
(-0 3.461123876e-15 6.835848012e-11)
(-0 1.38911894e-15 4.010057738e-11)
(-0 6.183400531e-16 2.621476288e-11)
(-0 6.769221967e-16 4.235145934e-11)
(-0 1.786519351e-16 1.657981191e-11)
(-0 2.207895545e-16 3.057173234e-11)
(-0 4.987308021e-16 1.038064367e-10)
(-0 4.140706963e-17 1.310755516e-11)
(-0 1.818562718e-16 8.947772542e-11)
(-0 4.092681147e-17 3.284747399e-11)
(-0 2.20442239e-17 3.284748185e-11)
(-0 1.475509412e-17 6.980321416e-11)
(-0 6.878818829e-11 -1.407766349e-10)
(-0 3.760486013e-10 -7.293310647e-10)
(-0 5.932651986e-10 -1.091044769e-09)
(-0 1.086068715e-10 -1.893893344e-10)
(-0 2.030073224e-10 -3.354326618e-10)
(-0 1.899734712e-10 -2.969665571e-10)
(-0 6.68248705e-10 -9.856857248e-10)
(-0 3.275416175e-10 -4.540631423e-10)
(-0 1.837316204e-10 -2.379771729e-10)
(-0 2.32633344e-10 -2.791529077e-10)
(-0 3.581812446e-10 -3.933288844e-10)
(-0 1.66971774e-10 -1.647834407e-10)
(-0 1.869860865e-10 -1.613261743e-10)
(-0 7.730460989e-11 -5.576508097e-11)
(-0 2.923981107e-11 -1.628962963e-11)
(-0 2.631977591e-11 -9.549285885e-12)
(-0 3.341377707e-11 -4.318465153e-12)
(-0 2.75446861e-11 4.288586176e-12)
(-0 3.592428312e-11 1.824310269e-11)
(-0 1.284999442e-11 1.218175719e-11)
(-0 9.87284046e-12 1.484748984e-11)
(-0 1.08039252e-11 2.390118362e-11)
(-0 8.018973461e-12 2.503894644e-11)
(-0 6.732015921e-12 2.895242863e-11)
(-0 6.716018574e-12 3.919795147e-11)
(-0 1.248325128e-11 9.800869192e-11)
(-0 3.935045354e-12 4.135878589e-11)
(-0 1.472513289e-12 2.067481461e-11)
(-0 1.72012198e-12 3.225762665e-11)
(-0 2.877753033e-12 7.216964728e-11)
(-0 1.056736645e-12 3.552063713e-11)
(-0 1.801766374e-12 8.142185678e-11)
(-0 4.115829392e-13 2.509507366e-11)
(-0 8.899073879e-13 7.35029338e-11)
(-0 1.949806975e-13 2.191049195e-11)
(-0 1.211088806e-13 1.859962132e-11)
(-0 3.279896157e-13 6.916557662e-11)
(-0 2.595094236e-14 7.550315833e-12)
(-0 1.914045371e-13 7.720698508e-11)
(-0 1.276993484e-13 7.176515753e-11)
(-0 6.266688313e-14 4.930836697e-11)
(-0 5.0125952e-14 5.549343333e-11)
(-0 3.224833995e-14 5.04798862e-11)
(-0 1.599649889e-14 3.557921464e-11)
(-0 1.584543176e-14 5.032162683e-11)
(-0 2.678698344e-15 1.220563555e-11)
(-0 1.000606853e-14 6.573252732e-11)
(-0 7.563362254e-15 7.197693016e-11)
(-0 2.492541077e-15 3.452635209e-11)
(-0 2.094052623e-15 4.242195067e-11)
(-0 1.195523028e-15 3.558988314e-11)
(-0 8.331052391e-16 3.662195107e-11)
(-0 6.270268655e-16 4.090977396e-11)
(-0 2.876934334e-16 2.802188511e-11)
(-0 1.905735677e-16 2.791948852e-11)
(-0 3.071484729e-16 6.847235655e-11)
(-0 9.76674723e-17 3.385743267e-11)
(-0 1.01738833e-16 5.755766912e-11)
(-0 4.556546627e-17 4.78816847e-11)
(-0 2.27060585e-18 7.570760278e-12)
(-0 2.542189487e-10 -5.206162697e-10)
(-0 5.35801474e-10 -1.042430473e-09)
(-0 5.399883518e-10 -9.991570618e-10)
(-0 5.762766488e-10 -1.014756881e-09)
(-0 3.236424469e-10 -5.424165204e-10)
(-0 2.499265272e-10 -3.984868911e-10)
(-0 2.767616656e-10 -4.193034845e-10)
(-0 3.954832723e-10 -5.681563383e-10)
(-0 4.734150113e-10 -6.428205121e-10)
(-0 8.325924862e-11 -1.063415346e-10)
(-0 3.69433523e-10 -4.407685278e-10)
(-0 3.56604652e-10 -3.934680578e-10)
(-0 2.552203598e-10 -2.566450304e-10)
(-0 1.614902899e-10 -1.447950741e-10)
(-0 9.248634961e-11 -7.14516929e-11)
(-0 4.616838865e-11 -2.901316853e-11)
(-0 2.892500138e-12 -1.323994795e-12)
(-0 3.822458118e-11 -9.636994872e-12)
(-0 3.220622382e-11 -1.87368736e-14)
(-0 2.922249325e-11 9.09797857e-12)
(-0 1.458171611e-11 1.024805196e-11)
(-0 1.561944059e-11 1.87330618e-11)
(-0 7.557808293e-13 1.386947006e-12)
(-0 4.18498911e-12 1.111559734e-11)
(-0 1.247551935e-11 4.646184538e-11)
(-0 6.064005897e-12 3.107126994e-11)
(-0 7.809402916e-12 5.443029919e-11)
(-0 3.908991582e-12 3.682034898e-11)
(-0 3.039026158e-12 3.856200629e-11)
(-0 2.66347702e-12 4.548538288e-11)
(-0 2.385217833e-12 5.485979374e-11)
(-0 5.789431122e-13 1.796740528e-11)
(-0 1.840232939e-12 7.727554387e-11)
(-0 3.010232964e-13 1.716175387e-11)
(-0 3.890754537e-13 3.023168285e-11)
(-0 3.36256802e-13 3.575923483e-11)
(-0 1.332771765e-13 1.948449066e-11)
(-0 4.148158275e-13 8.375425453e-11)
(-0 2.793560008e-13 7.826745488e-11)
(-0 5.561308703e-14 2.172495314e-11)
(-0 3.767745893e-14 2.062193492e-11)
(-0 2.779327458e-14 2.141761433e-11)
(-0 5.035520376e-14 5.490097936e-11)
(-0 1.846134109e-14 2.8616825e-11)
(-0 2.197114444e-15 4.865696365e-12)
(-0 1.147432212e-14 3.648010424e-11)
(-0 2.555493105e-15 1.172010901e-11)
(-0 5.63293165e-15 3.744544741e-11)
(-0 2.707140432e-15 2.620904848e-11)
(-0 4.858436057e-16 6.88298584e-12)
(-0 4.673115976e-16 9.734158589e-12)
(-0 4.302060715e-16 1.32400221e-11)
(-0 1.220717252e-15 5.579220356e-11)
(-0 3.282616928e-16 2.24102014e-11)
(-0 2.551152934e-16 2.621067207e-11)
(-0 4.174670315e-17 6.530046697e-12)
(-0 2.612290011e-16 6.3572621e-11)
(-0 3.286787286e-17 1.306012128e-11)
(-0 5.157783231e-17 3.80764878e-11)
(-0 1.038607628e-17 2.433611624e-11)
(-0 9.551502365e-10 -1.940267131e-09)
(-0 8.896656964e-10 -1.719796781e-09)
(-0 2.24656575e-10 -4.138554624e-10)
(-0 6.10547105e-10 -1.072968945e-09)
(-0 7.316838858e-10 -1.227489762e-09)
(-0 1.238054687e-10 -1.983157612e-10)
(-0 6.196208457e-10 -9.474148672e-10)
(-0 2.964449564e-10 -4.322743418e-10)
(-0 1.775355531e-10 -2.464731974e-10)
(-0 2.349458902e-10 -3.097096127e-10)
(-0 4.780729006e-10 -5.959913595e-10)
(-0 2.475059461e-10 -2.901062259e-10)
(-0 3.80557634e-10 -4.15878603e-10)
(-0 1.516145312e-10 -1.526050636e-10)
(-0 6.948020289e-11 -6.326281635e-11)
(-0 1.084638975e-10 -8.690742666e-11)
(-0 1.183437245e-10 -7.979399157e-11)
(-0 6.194403667e-12 -3.243888615e-12)
(-0 5.26821252e-11 -1.801236824e-11)
(-0 4.75749931e-11 -5.656879099e-12)
(-0 1.160778343e-11 1.841041248e-12)
(-0 3.03297321e-11 1.541645313e-11)
(-0 2.249173919e-11 2.14531344e-11)
(-0 1.360876774e-11 2.078056991e-11)
(-0 9.761150756e-12 2.216571034e-11)
(-0 1.639259076e-11 5.317123519e-11)
(-0 9.728355155e-12 4.402087777e-11)
(-0 7.155728422e-12 4.453752194e-11)
(-0 3.152093948e-12 2.676373026e-11)
(-0 4.44420071e-12 5.125356759e-11)
(-0 1.687719275e-13 2.639223889e-12)
(-0 3.446961047e-12 7.310280638e-11)
(-0 3.987520931e-13 1.148633601e-11)
(-0 9.80221867e-13 3.844726957e-11)
(-0 2.203406025e-13 1.180558255e-11)
(-0 5.041002386e-13 3.703176944e-11)
(-0 6.765872505e-13 6.842595093e-11)
(-0 2.381977166e-13 3.330924544e-11)
(-0 2.589775825e-13 5.0302762e-11)
(-0 1.564726719e-13 4.241298755e-11)
(-0 1.182059514e-13 4.492575987e-11)
(-0 3.957322301e-14 2.119047167e-11)
(-0 5.717925537e-14 4.334710596e-11)
(-0 5.476816906e-15 5.906569775e-12)
(-0 3.360163308e-14 5.18029466e-11)
(-0 2.81245655e-15 6.22819515e-12)
(-0 1.394419978e-14 4.456965898e-11)
(-0 2.584895551e-15 1.198213565e-11)
(-0 0 0)
(-0 6.299193785e-16 6.229696706e-12)
(-0 1.54390209e-15 2.246196924e-11)
(-0 2.144319041e-15 4.611823594e-11)
(-0 8.630707745e-16 2.758129502e-11)
(-0 1.700755878e-15 8.122952193e-11)
(-0 5.290848385e-16 3.804921727e-11)
(-0 3.861534918e-16 4.230025737e-11)
(-0 2.092609485e-16 3.568044573e-11)
(-0 2.527894316e-16 7.040269799e-11)
(-0 5.449852334e-17 2.8207921e-11)
(-0 3.137518272e-17 5.156316525e-11)
(-0 2.324719495e-09 -4.658610601e-09)
(-0 1.256216486e-09 -2.398371088e-09)
(-0 1.163673842e-09 -2.120142864e-09)
(-0 1.91599287e-09 -3.335726638e-09)
(-0 3.671163289e-10 -6.113703602e-10)
(-0 4.588438584e-10 -7.314108324e-10)
(-0 6.522674602e-10 -9.955015622e-10)
(-0 8.458873853e-10 -1.235882442e-09)
(-0 1.665108628e-10 -2.327277389e-10)
(-0 5.208871624e-10 -6.954855092e-10)
(-0 5.562553095e-10 -7.079069833e-10)
(-0 6.05297548e-10 -7.317209948e-10)
(-0 1.525986972e-10 -1.743556468e-10)
(-0 1.905765748e-10 -2.043334299e-10)
(-0 1.994396295e-10 -1.985874038e-10)
(-0 3.689787536e-11 -3.360406991e-11)
(-0 3.918715491e-11 -3.190029621e-11)
(-0 1.286493274e-11 -9.026218504e-12)
(-0 3.27844137e-12 -1.862567221e-12)
(-0 1.312979846e-11 -5.33891376e-12)
(-0 3.966876795e-11 -8.247595207e-12)
(-0 2.409296595e-11 9.699593029e-13)
(-0 3.884035331e-11 1.375972048e-11)
(-0 1.945654832e-11 1.47115914e-11)
(-0 3.457807467e-11 4.410805382e-11)
(-0 2.487030122e-11 4.857478588e-11)
(-0 1.181028956e-11 3.358621078e-11)
(-0 1.120189881e-11 4.506774019e-11)
(-0 8.051104641e-12 4.504907146e-11)
(-0 2.06983391e-12 1.59463373e-11)
(-0 3.767787911e-12 3.974775595e-11)
(-0 2.328106545e-13 3.354750377e-12)
(-0 1.287229294e-12 2.532768106e-11)
(-0 5.003589061e-13 1.345881971e-11)
(-0 6.75054171e-13 2.487837783e-11)
(-0 6.145286808e-13 3.112392454e-11)
(-0 2.810229495e-13 1.962989677e-11)
(-0 1.287617591e-13 1.24542737e-11)
(-0 3.53381822e-13 4.753216852e-11)
(-0 3.470510021e-13 6.520686052e-11)
(-0 1.158972342e-13 3.055867078e-11)
(-0 1.861017902e-13 6.918590498e-11)
(-0 1.009750605e-13 5.318087912e-11)
(-0 2.365449505e-14 1.773417427e-11)
(-0 4.478648941e-14 4.802711553e-11)
(-0 3.108260534e-14 4.790537444e-11)
(-0 4.783624063e-15 1.064709784e-11)
(-0 3.686153013e-15 1.190494155e-11)
(-0 7.171421742e-15 3.376785125e-11)
(-0 4.24373902e-15 2.927202677e-11)
(-0 3.675459627e-15 3.731577965e-11)
(-0 1.089767543e-15 1.636438417e-11)
(-0 4.512499137e-15 1.007375764e-10)
(-0 6.57721502e-16 2.195562582e-11)
(-0 2.098868911e-15 1.055501543e-10)
(-0 3.275424771e-16 2.510264479e-11)
(-0 1.601864578e-16 1.911765437e-11)
(-0 2.912697387e-16 5.68010415e-11)
(-0 7.344552231e-17 2.662551355e-11)
(-0 5.432769821e-17 6.253063153e-11)
(-0 2.432873316e-09 -4.792326337e-09)
(-0 1.13426847e-09 -2.130434251e-09)
(-0 2.854078509e-09 -5.120645699e-09)
(-0 5.900544438e-10 -1.012790744e-09)
(-0 9.389028653e-10 -1.543693595e-09)
(-0 1.564668056e-09 -2.466590127e-09)
(-0 6.176656914e-10 -9.342264219e-10)
(-0 8.633087935e-10 -1.253228123e-09)
(-0 3.812671831e-10 -5.311622678e-10)
(-0 7.278070508e-10 -9.72539719e-10)
(-0 5.641004837e-10 -7.221697881e-10)
(-0 5.438287573e-10 -6.657324483e-10)
(-0 2.304891093e-10 -2.690063872e-10)
(-0 1.069229654e-10 -1.184614198e-10)
(-0 1.551178117e-10 -1.621223094e-10)
(-0 1.300501593e-10 -1.270700158e-10)
(-0 1.974625392e-10 -1.780088254e-10)
(-0 5.265589873e-11 -4.294089842e-11)
(-0 1.218475125e-10 -8.717549066e-11)
(-0 1.413967861e-11 -8.434114836e-12)
(-0 3.194038802e-11 -1.444438356e-11)
(-0 6.907381061e-11 -1.893957576e-11)
(-0 2.376397297e-11 -1.212731097e-12)
(-0 5.445752852e-11 1.266164435e-11)
(-0 1.476900546e-11 8.81751309e-12)
(-0 2.317416406e-11 2.480853318e-11)
(-0 2.469672643e-11 4.176675627e-11)
(-0 1.649271248e-11 4.141915767e-11)
(-0 9.392752461e-12 3.384346012e-11)
(-0 1.721611904e-12 8.722158762e-12)
(-0 1.863096907e-12 1.311496117e-11)
(-0 3.715531696e-12 3.609921251e-11)
(-0 2.345076091e-12 3.134602382e-11)
(-0 1.494954094e-12 2.746851422e-11)
(-0 1.038568236e-12 2.625303092e-11)
(-0 2.279346173e-13 7.942570225e-12)
(-0 3.579134036e-13 1.724140855e-11)
(-0 6.469549261e-13 4.323295721e-11)
(-0 2.585199093e-13 2.405871093e-11)
(-0 3.245841002e-13 4.224433974e-11)
(-0 1.779746235e-13 3.253729831e-11)
(-0 5.80565648e-14 1.497751979e-11)
(-0 1.521133085e-13 5.563472465e-11)
(-0 8.462408008e-14 4.408731631e-11)
(-0 1.031828394e-13 7.693659222e-11)
(-0 4.312940471e-14 4.62460592e-11)
(-0 3.063927415e-14 4.747067059e-11)
(-0 1.185995854e-14 2.667726915e-11)
(-0 1.669066423e-14 5.476507856e-11)
(-0 1.294611651e-14 6.225878372e-11)
(-0 3.122424999e-15 2.211321762e-11)
(-0 2.17467669e-15 2.279096051e-11)
(-0 5.499148013e-16 8.572214764e-12)
(-0 2.48463796e-15 5.794387897e-11)
(-0 1.288099629e-15 4.527699506e-11)
(-0 8.86113774e-16 4.748984819e-11)
(-0 2.669128382e-16 2.22861679e-11)
(-0 2.712980344e-16 3.702601655e-11)
(-0 1.254517924e-17 3.183749826e-12)
(-0 5.892418295e-17 4.749022294e-11)
(-0 1.808828337e-09 -3.493841586e-09)
(-0 2.051573087e-09 -3.780766737e-09)
(-0 1.685016514e-09 -2.968309445e-09)
(-0 6.559190333e-10 -1.106329895e-09)
(-0 7.844204449e-10 -1.268603368e-09)
(-0 1.698431603e-10 -2.636796035e-10)
(-0 1.973657539e-10 -2.944099794e-10)
(-0 1.281462894e-09 -1.837903304e-09)
(-0 5.45233814e-10 -7.521199168e-10)
(-0 2.003510504e-10 -2.658160317e-10)
(-0 1.09599331e-09 -1.397955677e-09)
(-0 4.91381616e-10 -6.01973698e-10)
(-0 5.59007304e-10 -6.566381129e-10)
(-0 4.338419689e-10 -4.873834789e-10)
(-0 2.685281753e-10 -2.874115363e-10)
(-0 2.673402536e-10 -2.711149375e-10)
(-0 2.43049114e-10 -2.31682007e-10)
(-0 1.04038461e-10 -9.214206089e-11)
(-0 4.791971602e-11 -3.875758147e-11)
(-0 2.27254109e-11 -1.634649996e-11)
(-0 3.833897201e-11 -2.349113144e-11)
(-0 1.046221267e-10 -5.054963684e-11)
(-0 8.064891083e-11 -2.603060746e-11)
(-0 2.774815889e-11 -3.356277507e-12)
(-0 1.336919949e-11 1.825470023e-12)
(-0 7.228997922e-12 3.391253658e-12)
(-0 2.300334047e-11 2.077728083e-11)
(-0 1.373555638e-11 2.026204599e-11)
(-0 1.939810277e-11 4.335209392e-11)
(-0 9.176591642e-12 2.983777358e-11)
(-0 2.246198153e-12 1.038016987e-11)
(-0 4.604297342e-12 2.982757087e-11)
(-0 3.179556288e-12 2.865003437e-11)
(-0 2.646608649e-12 3.303996083e-11)
(-0 1.624203384e-12 2.805477995e-11)
(-0 1.57272565e-12 3.760557612e-11)
(-0 1.159469838e-12 3.844727241e-11)
(-0 2.123844852e-13 9.792792372e-12)
(-0 3.276959721e-13 2.108077058e-11)
(-0 2.040494098e-13 1.838389896e-11)
(-0 4.247356326e-13 5.381522328e-11)
(-0 7.909845962e-14 1.415580765e-11)
(-0 2.201569385e-13 5.59039208e-11)
(-0 9.534346004e-14 3.451048403e-11)
(-0 1.360081019e-13 7.050323745e-11)
(-0 9.517007385e-15 7.098680716e-12)
(-0 5.047444959e-14 5.442982277e-11)
(-0 1.360159296e-14 2.130584563e-11)
(-0 7.686039245e-15 1.757150934e-11)
(-0 1.080436236e-14 3.622080551e-11)
(-0 1.370148968e-14 6.767753209e-11)
(-0 3.342635894e-15 2.444502993e-11)
(-0 2.890061168e-15 3.145245047e-11)
(-0 3.086450422e-15 5.027666386e-11)
(-0 2.608835109e-15 6.408331503e-11)
(-0 1.153355927e-15 4.32159227e-11)
(-0 2.433131041e-17 1.420938058e-12)
(-0 2.083159828e-16 1.989319678e-11)
(-0 1.600022155e-16 2.841890578e-11)
(-0 8.564372889e-17 4.831218137e-11)
(-0 1.059193715e-09 -2.002614242e-09)
(-0 2.391405555e-09 -4.315768813e-09)
(-0 3.740137887e-09 -6.455503665e-09)
(-0 2.470045468e-09 -4.084504409e-09)
(-0 2.641863322e-09 -4.191761342e-09)
(-0 2.079825725e-09 -3.17053894e-09)
(-0 1.164948249e-09 -1.708081948e-09)
(-0 1.169262749e-09 -1.650402471e-09)
(-0 6.752483355e-11 -9.181046696e-11)
(-0 5.713527568e-10 -7.485848791e-10)
(-0 2.48556294e-10 -3.138253746e-10)
(-0 8.560757661e-10 -1.041243316e-09)
(-0 2.708101088e-10 -3.170450122e-10)
(-0 2.800492376e-10 -3.151188021e-10)
(-0 1.49247557e-10 -1.610425092e-10)
(-0 2.038599123e-10 -2.102245781e-10)
(-0 2.526473399e-10 -2.47763992e-10)