/*--------------------------------*- C++ -*----------------------------------*\
  =========                 |
  \\      /  F ield         | OpenFOAM: The Open Source CFD Toolbox
   \\    /   O peration     | Website:  https://openfoam.org
    \\  /    A nd           | Version:  10
     \\/     M anipulation  |
\*---------------------------------------------------------------------------*/
FoamFile
{
    format      ascii;
    class       volScalarField;
    location    "0.0002";
    object      pVap;
}
// * * * * * * * * * * * * * * * * * * * * * * * * * * * * * * * * * * * * * //

dimensions      [1 -1 -2 0 0 0 0];

internalField   nonuniform List<scalar> 
3600
(
9.416692586e-64
9.408427044e-64
9.400914733e-64
9.394141852e-64
9.38808336e-64
9.382705241e-64
9.37796668e-64
9.373822099e-64
9.370222992e-64
9.367119535e-64
9.364461963e-64
9.362201687e-64
9.36029219e-64
9.358689683e-64
9.357353571e-64
9.356246732e-64
9.355335645e-64
9.354590397e-64
9.353984583e-64
9.353495136e-64
9.353102104e-64
9.352788391e-64
9.352539479e-64
9.352343145e-64
9.352189186e-64
9.352069154e-64
9.351976109e-64
9.351904392e-64
9.351849425e-64
9.351807531e-64
9.351775778e-64
9.351751842e-64
9.351733897e-64
9.351720517e-64
9.351710592e-64
9.351703271e-64
9.351697898e-64
9.351693975e-64
9.351691126e-64
9.351689067e-64
9.351687588e-64
9.351686529e-64
9.351685776e-64
9.351685242e-64
9.351684866e-64
9.351684603e-64
9.351684419e-64
9.351684291e-64
9.351684203e-64
9.351684142e-64
9.3516841e-64
9.351684072e-64
9.351684053e-64
9.35168404e-64
9.351684031e-64
9.351684025e-64
9.351684022e-64
9.351684019e-64
9.351684018e-64
9.351684017e-64
9.415987142e-64
9.406840073e-64
9.398530262e-64
9.391041669e-64
9.384345857e-64
9.378404525e-64
9.373171928e-64
9.368597129e-64
9.364626042e-64
9.361203202e-64
9.358273287e-64
9.355782348e-64
9.353678789e-64
9.351914083e-64
9.350443283e-64
9.349225314e-64
9.348223114e-64
9.347403631e-64
9.346737706e-64
9.346199884e-64
9.345768156e-64
9.345423674e-64
9.345150442e-64
9.344934998e-64
9.344766111e-64
9.344634485e-64
9.344532486e-64
9.344453893e-64
9.344393677e-64
9.344347797e-64
9.344313034e-64
9.344286837e-64
9.344267204e-64
9.34425257e-64
9.344241719e-64
9.344233716e-64
9.344227845e-64
9.34422356e-64
9.344220449e-64
9.344218202e-64
9.344216587e-64
9.344215433e-64
9.344214611e-64
9.34421403e-64
9.34421362e-64
9.344213333e-64
9.344213132e-64
9.344212993e-64
9.344212897e-64
9.344212831e-64
9.344212786e-64
9.344212755e-64
9.344212734e-64
9.34421272e-64
9.344212711e-64
9.344212704e-64
9.3442127e-64
9.344212698e-64
9.344212696e-64
9.344212695e-64
9.423170562e-64
9.412174844e-64
9.402193384e-64
9.393205239e-64
9.385174681e-64
9.378054269e-64
9.371787788e-64
9.366312973e-64
9.36156395e-64
9.357473375e-64
9.353974235e-64
9.351001316e-64
9.348492356e-64
9.346388896e-64
9.344636858e-64
9.343186893e-64
9.341994525e-64
9.34102013e-64
9.340228793e-64
9.33959006e-64
9.339077626e-64
9.338668985e-64
9.338345049e-64
9.33808977e-64
9.337889769e-64
9.33773398e-64
9.337613325e-64
9.337520409e-64
9.337449257e-64
9.337395076e-64
9.337354044e-64
9.337323142e-64
9.337299995e-64
9.337282749e-64
9.33726997e-64
9.33726055e-64
9.337253643e-64
9.337248605e-64
9.337244949e-64
9.33724231e-64
9.337240414e-64
9.33723906e-64
9.337238096e-64
9.337237415e-64
9.337236935e-64
9.337236599e-64
9.337236364e-64
9.337236202e-64
9.337236089e-64
9.337236012e-64
9.337235959e-64
9.337235923e-64
9.337235899e-64
9.337235883e-64
9.337235872e-64
9.337235864e-64
9.33723586e-64
9.337235857e-64
9.337235855e-64
9.337235854e-64
9.439439947e-64
9.425462722e-64
9.412787414e-64
9.401384612e-64
9.391206326e-64
9.382189952e-64
9.374262041e-64
9.367341774e-64
9.361344062e-64
9.356182242e-64
9.351770342e-64
9.348024916e-64
9.344866473e-64
9.342220522e-64
9.340018278e-64
9.338197071e-64
9.336700499e-64
9.335478385e-64
9.334486566e-64
9.333686569e-64
9.3330452e-64
9.332534087e-64
9.332129193e-64
9.331810329e-64
9.331560676e-64
9.331366341e-64
9.33121593e-64
9.331100175e-64
9.331011592e-64
9.33094418e-64
9.330893162e-64
9.330854763e-64
9.330826019e-64
9.330804618e-64
9.330788769e-64
9.330777094e-64
9.330768539e-64
9.330762302e-64
9.33075778e-64
9.330754517e-64
9.330752175e-64
9.330750503e-64
9.330749314e-64
9.330748474e-64
9.330747883e-64
9.330747469e-64
9.33074718e-64
9.33074698e-64
9.330746842e-64
9.330746747e-64
9.330746682e-64
9.330746638e-64
9.330746609e-64
9.330746588e-64
9.330746575e-64
9.330746566e-64
9.33074656e-64
9.330746557e-64
9.330746554e-64
9.330746553e-64
9.466704023e-64
9.448346121e-64
9.431717419e-64
9.416774851e-64
9.403451346e-64
9.39166112e-64
9.38130467e-64
9.372273331e-64
9.36445334e-64
9.357729332e-64
9.351987267e-64
9.347116782e-64
9.343013012e-64
9.339577907e-64
9.336721102e-64
9.334360411e-64
9.332421987e-64
9.330840227e-64
9.329557471e-64
9.328523548e-64
9.327695225e-64
9.327035588e-64
9.326513398e-64
9.326102441e-64
9.325780905e-64
9.325530782e-64
9.325337322e-64
9.325188537e-64
9.325074752e-64
9.324988218e-64
9.324922772e-64
9.324873546e-64
9.324836721e-64
9.324809321e-64
9.324789043e-64
9.324774115e-64
9.324763183e-64
9.32475522e-64
9.324749449e-64
9.324745288e-64
9.324742303e-64
9.324740173e-64
9.32473866e-64
9.324737591e-64
9.32473684e-64
9.324736314e-64
9.324735948e-64
9.324735694e-64
9.324735519e-64
9.324735399e-64
9.324735317e-64
9.324735261e-64
9.324735223e-64
9.324735198e-64
9.324735181e-64
9.32473517e-64
9.324735162e-64
9.324735158e-64
9.324735155e-64
9.324735154e-64
9.507718782e-64
9.483191911e-64
9.461004636e-64
9.44109233e-64
9.423359031e-64
9.407684615e-64
9.393931503e-64
9.381950742e-64
9.371587377e-64
9.362685045e-64
9.355089799e-64
9.348653152e-64
9.34323441e-64
9.338702344e-64
9.334936271e-64
9.331826635e-64
9.329275165e-64
9.327194695e-64
9.32550872e-64
9.324150758e-64
9.32306359e-64
9.322198415e-64
9.321513977e-64
9.320975693e-64
9.320554812e-64
9.320227623e-64
9.319974721e-64
9.319780345e-64
9.319631789e-64
9.319518883e-64
9.319433547e-64
9.3193694e-64
9.319321443e-64
9.319285783e-64
9.319259408e-64
9.319240005e-64
9.319225804e-64
9.319215466e-64
9.319207979e-64
9.319202584e-64
9.319198717e-64
9.319195958e-64
9.319194001e-64
9.319192618e-64
9.319191647e-64
9.319190968e-64
9.319190495e-64
9.319190168e-64
9.319189942e-64
9.319189788e-64
9.319189682e-64
9.31918961e-64
9.319189562e-64
9.319189529e-64
9.319189507e-64
9.319189493e-64
9.319189484e-64
9.319189478e-64
9.319189474e-64
9.319189473e-64
9.566286276e-64
9.533256478e-64
9.50342299e-64
9.476687243e-64
9.452909812e-64
9.431920207e-64
9.413525928e-64
9.397520597e-64
9.383691078e-64
9.371823519e-64
9.361708326e-64
9.353144109e-64
9.345940651e-64
9.339921014e-64
9.334922863e-64
9.330799136e-64
9.327418158e-64
9.324663327e-64
9.322432451e-64
9.32063685e-64
9.319200289e-64
9.318057825e-64
9.317154614e-64
9.316444732e-64
9.315890032e-64
9.315459083e-64
9.315126186e-64
9.314870485e-64
9.314675179e-64
9.314526833e-64
9.314414777e-64
9.314330597e-64
9.3142677e-64
9.314220959e-64
9.314186409e-64
9.314161006e-64
9.314142426e-64
9.314128908e-64
9.314119123e-64
9.314112077e-64
9.314107029e-64
9.31410343e-64
9.314100878e-64
9.314099077e-64
9.314097812e-64
9.314096928e-64
9.314096314e-64
9.314095888e-64
9.314095595e-64
9.314095394e-64
9.314095257e-64
9.314095164e-64
9.314095101e-64
9.314095059e-64
9.314095031e-64
9.314095012e-64
9.314095e-64
9.314094993e-64
9.314094988e-64
9.314094986e-64
9.647535297e-64
9.60291664e-64
9.562688421e-64
9.526698332e-64
9.494741336e-64
9.466573042e-64
9.441921905e-64
9.42050007e-64
9.402012748e-64
9.386166105e-64
9.372673684e-64
9.361261437e-64
9.351671467e-64
9.343664621e-64
9.337022066e-64
9.331546015e-64
9.327059732e-64
9.323406989e-64
9.32045108e-64
9.318073547e-64
9.316172686e-64
9.31466196e-64
9.313468369e-64
9.312530847e-64
9.31179872e-64
9.311230272e-64
9.310791422e-64
9.310454537e-64
9.310197373e-64
9.310002155e-64
9.309854779e-64
9.309744127e-64
9.3096615e-64
9.309600131e-64
9.309554794e-64
9.309521478e-64
9.309497125e-64
9.309479416e-64
9.309466606e-64
9.309457386e-64
9.309450784e-64
9.309446081e-64
9.309442747e-64
9.309440395e-64
9.309438745e-64
9.309437593e-64
9.309436791e-64
9.309436237e-64
9.309435856e-64
9.309435595e-64
9.309435416e-64
9.309435295e-64
9.309435214e-64
9.309435159e-64
9.309435122e-64
9.309435098e-64
9.309435083e-64
9.309435073e-64
9.309435067e-64
9.309435064e-64
9.758313558e-64
9.697988616e-64
9.643717492e-64
9.595261995e-64
9.55231715e-64
9.514529415e-64
9.481513034e-64
9.452864352e-64
9.428174037e-64
9.407037222e-64
9.389061657e-64
9.373873996e-64
9.361124391e-64
9.350489586e-64
9.341674689e-64
9.334413865e-64
9.328470115e-64
9.323634346e-64
9.319723921e-64
9.316580816e-64
9.314069552e-64
9.312074995e-64
9.310500131e-64
9.309263892e-64
9.308299073e-64
9.307550396e-64
9.306972743e-64
9.306529558e-64
9.306191441e-64
9.305934914e-64
9.30574136e-64
9.305596118e-64
9.30548772e-64
9.305407255e-64
9.305347842e-64
9.305304207e-64
9.305272328e-64
9.305249159e-64
9.305232407e-64
9.305220357e-64
9.305211734e-64
9.305205594e-64
9.305201244e-64
9.305198177e-64
9.305196026e-64
9.305194525e-64
9.305193482e-64
9.305192761e-64
9.305192265e-64
9.305191925e-64
9.305191694e-64
9.305191537e-64
9.305191431e-64
9.30519136e-64
9.305191312e-64
9.305191281e-64
9.30519126e-64
9.305191248e-64
9.30519124e-64
9.305191237e-64
9.907738062e-64
9.826169568e-64
9.752980639e-64
9.687794246e-64
9.630151326e-64
9.579535448e-64
9.535394488e-64
9.49715927e-64
9.464259199e-64
9.436135007e-64
9.41224883e-64
9.392091811e-64
9.375189511e-64
9.361105388e-64
9.349442628e-64
9.33984459e-64
9.331994145e-64
9.325612133e-64
9.320455184e-64
9.31631309e-64
9.313005899e-64
9.310380893e-64
9.308309544e-64
9.306684567e-64
9.305417111e-64
9.304434168e-64
9.303676194e-64
9.303094991e-64
9.30265182e-64
9.302315774e-64
9.302062358e-64
9.301872297e-64
9.301730525e-64
9.30162534e-64
9.301547717e-64
9.301490737e-64
9.30144913e-64
9.301418906e-64
9.301397065e-64
9.301381363e-64
9.301370132e-64
9.301362139e-64
9.301356479e-64
9.301352491e-64
9.301349695e-64
9.301347745e-64
9.30134639e-64
9.301345455e-64
9.301344811e-64
9.301344371e-64
9.301344071e-64
9.301343868e-64
9.301343731e-64
9.301343639e-64
9.301343578e-64
9.301343537e-64
9.301343511e-64
9.301343494e-64
9.301343484e-64
9.30134348e-64
1.010797802e-63
9.99765596e-64
9.898989268e-64
9.81137365e-64
9.734109089e-64
9.66643286e-64
9.607547809e-64
9.556646068e-64
9.512928485e-64
9.475620109e-64
9.443982099e-64
9.41732046e-64
9.394991983e-64
9.376407777e-64
9.361034781e-64
9.348395596e-64
9.338066987e-64
9.329677352e-64
9.322903444e-64
9.317466597e-64
9.313128657e-64
9.309687804e-64
9.306974414e-64
9.30484706e-64
9.303188746e-64
9.301903426e-64
9.300912842e-64
9.300153695e-64
9.299575157e-64
9.299136698e-64
9.298806227e-64
9.298558505e-64
9.298373816e-64
9.298236861e-64
9.298135845e-64
9.29806173e-64
9.298007638e-64
9.297968365e-64
9.297939999e-64
9.297919615e-64
9.297905043e-64
9.297894678e-64
9.297887342e-64
9.297882175e-64
9.297878555e-64
9.297876031e-64
9.297874279e-64
9.29787307e-64
9.297872238e-64
9.29787167e-64
9.297871282e-64
9.29787102e-64
9.297870843e-64
9.297870725e-64
9.297870646e-64
9.297870594e-64
9.29787056e-64
9.297870538e-64
9.297870526e-64
9.29787052e-64
1.037539035e-63
1.022602491e-63
1.009297811e-63
9.975268657e-64
9.871813874e-64
9.781473025e-64
9.7030832e-64
9.635488393e-64
9.577562545e-64
9.528227271e-64
9.486464952e-64
9.451327834e-64
9.421943719e-64
9.397518783e-64
9.377338021e-64
9.360763758e-64
9.34723266e-64
9.336251593e-64
9.327392689e-64
9.32028789e-64
9.314623241e-64
9.310133124e-64
9.306594612e-64
9.303822075e-64
9.301662124e-64
9.299988968e-64
9.298700208e-64
9.297713093e-64
9.296961227e-64
9.296391709e-64
9.29596268e-64
9.295641243e-64
9.295401719e-64
9.29522419e-64
9.295093312e-64
9.294997335e-64
9.294927322e-64
9.294876514e-64
9.294839835e-64
9.294813491e-64
9.294794667e-64
9.294781283e-64
9.294771816e-64
9.294765152e-64
9.294760484e-64
9.294757231e-64
9.294754975e-64
9.294753418e-64
9.294752348e-64
9.294751617e-64
9.294751119e-64
9.294750782e-64
9.294750555e-64
9.294750403e-64
9.294750302e-64
9.294750235e-64
9.294750191e-64
9.294750164e-64
9.294750148e-64
9.294750141e-64
1.073220449e-63
1.052951758e-63
1.034988026e-63
1.019167709e-63
1.005320762e-63
9.932741394e-64
9.828561148e-64
9.738996246e-64
9.6624477e-64
9.597406283e-64
9.542464887e-64
9.496326132e-64
9.457806071e-64
9.425834713e-64
9.399453976e-64
9.377813627e-64
9.360165675e-64
9.345857634e-64
9.334325053e-64
9.325083606e-64
9.317721046e-64
9.311889242e-64
9.307296487e-64
9.303700215e-64
9.30090024e-64
9.298732574e-64
9.297063859e-64
9.295786422e-64
9.294813945e-64
9.294077705e-64
9.293523366e-64
9.293108255e-64
9.292799082e-64
9.292570045e-64
9.292401276e-64
9.292277573e-64
9.292187377e-64
9.292121956e-64
9.292074748e-64
9.292040859e-64
9.292016654e-64
9.291999454e-64
9.291987292e-64
9.291978736e-64
9.291972746e-64
9.291968573e-64
9.29196568e-64
9.291963685e-64
9.291962314e-64
9.291961378e-64
9.291960741e-64
9.29196031e-64
9.29196002e-64
9.291959826e-64
9.291959696e-64
9.291959611e-64
9.291959555e-64
9.291959521e-64
9.2919595e-64
9.291959491e-64
1.120908597e-63
1.093295296e-63
1.068975211e-63
1.047678517e-63
1.029133718e-63
1.013074136e-63
9.992426213e-64
9.8739487e-64
9.773016491e-64
9.687501689e-64
9.615448027e-64
9.55507299e-64
9.504766016e-64
9.463083684e-64
9.428742585e-64
9.400610467e-64
9.377696135e-64
9.35913853e-64
9.344195351e-64
9.332231535e-64
9.322707872e-64
9.315169971e-64
9.309237774e-64
9.304595742e-64
9.30098382e-64
9.298189232e-64
9.296039128e-64
9.294394086e-64
9.29314243e-64
9.292195325e-64
9.291482582e-64
9.29094912e-64
9.290551995e-64
9.290257945e-64
9.290041375e-64
9.289882711e-64
9.289767079e-64
9.289683247e-64
9.289622783e-64
9.289579397e-64
9.289548424e-64
9.289526424e-64
9.289510876e-64
9.289499943e-64
9.289492292e-64
9.289486965e-64
9.289483274e-64
9.289480728e-64
9.289478981e-64
9.289477788e-64
9.289476977e-64
9.289476428e-64
9.289476059e-64
9.289475812e-64
9.289475647e-64
9.289475539e-64
9.289475468e-64
9.289475424e-64
9.289475398e-64
9.289475386e-64
1.184914108e-63
1.147065392e-63
1.11399057e-63
1.08523188e-63
1.060348179e-63
1.038921374e-63
1.020560306e-63
1.004902808e-63
9.916164672e-64
9.803984891e-64
9.709749639e-64
9.630997209e-64
9.565529214e-64
9.51139478e-64
9.466873677e-64
9.430458852e-64
9.400838705e-64
9.376879408e-64
9.357607507e-64
9.342193035e-64
9.329933318e-64
9.320237653e-64
9.312612983e-64
9.306650672e-64
9.302014446e-64
9.298429528e-64
9.29567296e-64
9.293565087e-64
9.29196214e-64
9.290749851e-64
9.289838009e-64
9.289155865e-64
9.288648305e-64
9.288272665e-64
9.287996133e-64
9.287793635e-64
9.287646126e-64
9.287539232e-64
9.287462171e-64
9.287406901e-64
9.287367462e-64
9.287339461e-64
9.287319681e-64
9.287305778e-64
9.287296054e-64
9.287289286e-64
9.287284598e-64
9.287281367e-64
9.287279151e-64
9.287277638e-64
9.28727661e-64
9.287275915e-64
9.287275447e-64
9.287275134e-64
9.287274926e-64
9.287274789e-64
9.2872747e-64
9.287274644e-64
9.287274611e-64
9.287274596e-64
1.271434933e-63
1.219103991e-63
1.173817989e-63
1.134786977e-63
1.101280608e-63
1.072631139e-63
1.04823319e-63
1.027541513e-63
1.010067619e-63
9.953758571e-64
9.83079301e-64
9.728356816e-64
9.643434692e-64
9.57338166e-64
9.515888228e-64
9.468947768e-64
9.430825964e-64
9.400032235e-64
9.375293012e-64
9.355526814e-64
9.339821106e-64
9.327410919e-64
9.317659241e-64
9.310039181e-64
9.304117888e-64
9.299542181e-64
9.296025849e-64
9.293338523e-64
9.291296034e-64
9.289752131e-64
9.288591447e-64
9.287723577e-64
9.287078135e-64
9.286600676e-64
9.286249354e-64
9.285992206e-64
9.285804974e-64
9.285669356e-64
9.285571631e-64
9.285501572e-64
9.285451602e-64
9.28541614e-64
9.285391101e-64
9.285373509e-64
9.28536121e-64
9.285352654e-64
9.28534673e-64
9.285342649e-64
9.285339851e-64
9.285337941e-64
9.285336645e-64
9.285335768e-64
9.285335179e-64
9.285334784e-64
9.285334522e-64
9.28533435e-64
9.285334238e-64
9.285334167e-64
9.285334126e-64
9.285334108e-64
1.389620339e-63
1.316403513e-63
1.253808843e-63
1.200446909e-63
1.155083931e-63
1.116631985e-63
1.08413638e-63
1.05676208e-63
1.033780352e-63
1.014556283e-63
9.985374822e-64
9.852440499e-64
9.742597772e-64
9.652244556e-64
9.578271585e-64
9.518003488e-64
9.469146812e-64
9.429743871e-64
9.398131513e-64
9.372904125e-64
9.352880335e-64
9.337073048e-64
9.324662522e-64
9.314972269e-64
9.307447606e-64
9.301636683e-64
9.297173841e-64
9.293765119e-64
9.291175755e-64
9.289219501e-64
9.287749564e-64
9.286650998e-64
9.285834377e-64
9.285230575e-64
9.284786492e-64
9.284461597e-64
9.284225143e-64
9.284053948e-64
9.283930641e-64
9.283842281e-64
9.283779285e-64
9.283734599e-64
9.28370306e-64
9.283680911e-64
9.283665433e-64
9.28365467e-64
9.283647221e-64
9.283642092e-64
9.283638577e-64
9.283636179e-64
9.283634551e-64
9.283633452e-64
9.283632712e-64
9.283632218e-64
9.28363189e-64
9.283631674e-64
9.283631534e-64
9.283631445e-64
9.283631394e-64
9.283631371e-64
1.553387263e-63
1.449337019e-63
1.361714171e-63
1.288021397e-63
1.226128098e-63
1.174223329e-63
1.130770673e-63
1.094467215e-63
1.064207509e-63
1.039052681e-63
1.018204347e-63
1.000982828e-63
9.868090649e-64
9.751896115e-64
9.65704173e-64
9.579951918e-64
9.517590821e-64
9.467387832e-64
9.427173727e-64
9.395125386e-64
9.369717605e-64
9.349680863e-64
9.333964204e-64
9.321702608e-64
9.312188358e-64
9.304845998e-64
9.299210564e-64
9.294908758e-64
9.291642805e-64
9.289176701e-64
9.287324603e-64
9.285941107e-64
9.284913174e-64
9.284153483e-64
9.283595001e-64
9.283186595e-64
9.282889494e-64
9.282674485e-64
9.282519686e-64
9.282408806e-64
9.282329789e-64
9.282273763e-64
9.282234236e-64
9.28220649e-64
9.282187108e-64
9.282173636e-64
9.282164317e-64
9.282157902e-64
9.282153508e-64
9.282150512e-64
9.282148479e-64
9.282147106e-64
9.282146183e-64
9.282145567e-64
9.282145157e-64
9.282144888e-64
9.282144713e-64
9.282144604e-64
9.28214454e-64
9.28214451e-64
1.784629696e-63
1.633765849e-63
1.509068721e-63
1.405936237e-63
1.320598413e-63
1.249969748e-63
1.191522952e-63
1.143183629e-63
1.103244009e-63
1.070293142e-63
1.043160924e-63
1.020873434e-63
1.002617395e-63
9.877118731e-64
9.755856901e-64
9.657592738e-64
9.578299702e-64
9.514600315e-64
9.463666844e-64
9.423138244e-64
9.391049961e-64
9.365774064e-64
9.345967846e-64
9.3305295e-64
9.318559838e-64
9.309329246e-64
9.302249222e-64
9.296847989e-64
9.292749684e-64
9.289656742e-64
9.287335066e-64
9.285601655e-64
9.284314348e-64
9.283363407e-64
9.282664646e-64
9.282153881e-64
9.28178248e-64
9.281513816e-64
9.281320469e-64
9.281182037e-64
9.281083427e-64
9.281013536e-64
9.280964249e-64
9.280929665e-64
9.280905518e-64
9.28088874e-64
9.280877139e-64
9.280869157e-64
9.28086369e-64
9.280859965e-64
9.280857439e-64
9.280855733e-64
9.280854588e-64
9.280853822e-64
9.280853314e-64
9.28085298e-64
9.280852764e-64
9.280852628e-64
9.280852548e-64
9.280852512e-64
2.119108891e-63
1.894776244e-63
1.713564767e-63
1.566744514e-63
1.4474601e-63
1.350318472e-63
1.271062761e-63
1.206317619e-63
1.153392147e-63
1.110128258e-63
1.074784402e-63
1.045946521e-63
1.022459827e-63
1.003376411e-63
9.879148479e-64
9.754288515e-64
9.653827533e-64
9.573321234e-64
9.509082746e-64
9.458057151e-64
9.417718591e-64
9.385984904e-64
9.361146073e-64
9.341803806e-64
9.326820245e-64
9.315274304e-64
9.306424511e-64
9.299677432e-64
9.294560943e-64
9.290701709e-64
9.28780633e-64
9.285645649e-64
9.284041797e-64
9.282857565e-64
9.281987769e-64
9.281352263e-64
9.280890355e-64
9.28055636e-64
9.280316099e-64
9.280144148e-64
9.28002171e-64
9.279934968e-64
9.279873822e-64
9.279830933e-64
9.279800999e-64
9.279780209e-64
9.27976584e-64
9.279755957e-64
9.279749192e-64
9.279744583e-64
9.279741459e-64
9.279739351e-64
9.279737935e-64
9.27973699e-64
9.279736363e-64
9.27973595e-64
9.279735683e-64
9.279735516e-64
9.279735418e-64
9.279735373e-64
2.617729032e-63
2.273558561e-63
2.003262931e-63
1.789714279e-63
1.620055518e-63
1.484589852e-63
1.37595947e-63
1.288541461e-63
1.218004665e-63
1.160984745e-63
1.114845666e-63
1.077504193e-63
1.047300294e-63
1.022901011e-63
1.003228736e-63
9.874073139e-64
9.747211922e-64
9.64584129e-64
9.565149401e-64
9.501184495e-64
9.450703196e-64
9.411048052e-64
9.380047421e-64
9.355932754e-64
9.337269677e-64
9.322900234e-64
9.31189436e-64
9.303509058e-64
9.297154124e-64
9.292363463e-64
9.288771177e-64
9.286091766e-64
9.284103812e-64
9.282636646e-64
9.281559518e-64
9.280772867e-64
9.280201343e-64
9.27978826e-64
9.279491227e-64
9.279278731e-64
9.279127485e-64
9.279020375e-64
9.278944901e-64
9.278891984e-64
9.278855065e-64
9.278829434e-64
9.278811726e-64
9.278799551e-64
9.27879122e-64
9.278785548e-64
9.278781703e-64
9.27877911e-64
9.27877737e-64
9.278776208e-64
9.278775438e-64
9.278774931e-64
9.278774603e-64
9.278774397e-64
9.278774278e-64
9.278774223e-64
3.389159039e-63
2.840612268e-63
2.424343661e-63
2.105407245e-63
1.858826739e-63
1.666607319e-63
1.515664749e-63
1.396389543e-63
1.301648751e-63
1.226089022e-63
1.165647388e-63
1.117205734e-63
1.078345084e-63
1.047169602e-63
1.022179511e-63
1.002178548e-63
9.862059067e-64
9.734856443e-64
9.633885997e-64
9.55403345e-64
9.491136975e-64
9.441810524e-64
9.403302985e-64
9.37338443e-64
9.350253211e-64
9.332459414e-64
9.318841435e-64
9.308473249e-64
9.300620531e-64
9.294704199e-64
9.290270216e-64
9.28696467e-64
9.284513338e-64
9.282705013e-64
9.281378007e-64
9.280409279e-64
9.279705765e-64
9.279197491e-64
9.278832156e-64
9.278570902e-64
9.278385023e-64
9.278253439e-64
9.278160756e-64
9.278095797e-64
9.278050495e-64
9.278019055e-64
9.277997343e-64
9.27798242e-64
9.277972213e-64
9.277965266e-64
9.277960559e-64
9.277957385e-64
9.277955257e-64
9.277953836e-64
9.277952894e-64
9.277952275e-64
9.277951875e-64
9.277951623e-64
9.277951477e-64
9.27795141e-64
4.637651958e-63
3.722295844e-63
3.055972909e-63
2.56407781e-63
2.196105525e-63
1.917454961e-63
1.704114868e-63
1.539197717e-63
1.410661372e-63
1.309798065e-63
1.230222523e-63
1.167187436e-63
1.117115568e-63
1.077276599e-63
1.045561548e-63
1.020323624e-63
1.000264668e-63
9.843531622e-64
9.717642539e-64
9.618352697e-64
9.540322157e-64
9.479241506e-64
9.431632682e-64
9.394691815e-64
9.366163531e-64
9.344239268e-64
9.327474292e-64
9.314719588e-64
9.305065766e-64
9.297796835e-64
9.292352157e-64
9.288295219e-64
9.28528812e-64
9.283070829e-64
9.281444424e-64
9.280257637e-64
9.279396119e-64
9.278773939e-64
9.27832691e-64
9.278007359e-64
9.27778009e-64
9.277619267e-64
9.277506032e-64
9.277426699e-64
9.277371392e-64
9.277333024e-64
9.277306536e-64
9.277288338e-64
9.277275896e-64
9.27726743e-64
9.277261697e-64
9.277257832e-64
9.277255241e-64
9.277253513e-64
9.277252367e-64
9.277251615e-64
9.277251128e-64
9.277250822e-64
9.277250645e-64
9.277250563e-64
6.770185314e-63
5.157023525e-63
4.040130559e-63
3.25170313e-63
2.68483738e-63
2.27028537e-63
1.96241292e-63
1.73061726e-63
1.554013216e-63
1.418097378e-63
1.312623908e-63
1.230232322e-63
1.165548313e-63
1.114586264e-63
1.074346772e-63
1.042541881e-63
1.017404998e-63
9.97557607e-64
9.819144889e-64
9.696153329e-64
9.599746043e-64
9.524441906e-64
9.465850931e-64
9.420456156e-64
9.385442931e-64
9.358563461e-64
9.338028085e-64
9.322417277e-64
9.310609991e-64
9.301725165e-64
9.295073915e-64
9.290120533e-64
9.286450762e-64
9.283746095e-64
9.281763066e-64
9.28031666e-64
9.279267105e-64
9.278509429e-64
9.277965258e-64
9.277576415e-64
9.277299969e-64
9.277104419e-64
9.276966783e-64
9.276870391e-64
9.276803215e-64
9.27675663e-64
9.276724482e-64
9.276702403e-64
9.276687312e-64
9.276677048e-64
9.276670099e-64
9.276665418e-64
9.276662279e-64
9.276660187e-64
9.276658801e-64
9.27665789e-64
9.276657301e-64
9.276656932e-64
9.276656717e-64
9.276656619e-64
1.065257308e-62
7.621188011e-63
5.644526812e-63
4.321940974e-63
3.415084646e-63
2.778981615e-63
2.323447385e-63
1.991114669e-63
1.744680786e-63
1.559363802e-63
1.418353207e-63
1.310013732e-63
1.226134525e-63
1.160813024e-63
1.109731108e-63
1.069677843e-63
1.038229763e-63
1.01353334e-63
9.941546484e-64
9.789738283e-64
9.671097543e-64
9.578653467e-64
9.506871541e-64
9.451349481e-64
9.408584514e-64
9.375792396e-64
9.350764716e-64
9.33175512e-64
9.317387836e-64
9.306583752e-64
9.298500503e-64
9.292483905e-64
9.28802865e-64
9.284746596e-64
9.282341291e-64
9.280587615e-64
9.279315609e-64
9.278397705e-64
9.277738708e-64
9.277267991e-64
9.276933461e-64
9.276696909e-64
9.276530474e-64
9.276413954e-64
9.276332781e-64
9.276276508e-64
9.276237688e-64
9.276211037e-64
9.276192827e-64
9.276180446e-64
9.276172066e-64
9.276166423e-64
9.276162642e-64
9.276160121e-64
9.276158452e-64
9.276157356e-64
9.276156648e-64
9.276156203e-64
9.276155945e-64
9.276155827e-64
1.826739858e-62
1.212969475e-62
8.402821808e-63
6.062965447e-63
4.546566045e-63
3.534330398e-63
2.840092152e-63
2.352208304e-63
2.001874129e-63
1.745555924e-63
1.55500622e-63
1.411449511e-63
1.302116448e-63
1.218131215e-63
1.153196115e-63
1.102755893e-63
1.063456645e-63
1.032789027e-63
1.008848829e-63
9.901734774e-64
9.75628418e-64
9.643267244e-64
9.55571156e-64
9.488116024e-64
9.436132416e-64
9.396322893e-64
9.365972304e-64
9.342940962e-64
9.325547885e-64
9.312477493e-64
9.302704681e-64
9.29543452e-64
9.290053735e-64
9.286091731e-64
9.283189391e-64
9.281074219e-64
9.27954062e-64
9.278434374e-64
9.277640457e-64
9.277073576e-64
9.276670848e-64
9.276386174e-64
9.276185952e-64
9.276045826e-64
9.275948241e-64
9.275880615e-64
9.275833978e-64
9.275801971e-64
9.27578011e-64
9.27576525e-64
9.275755198e-64
9.27574843e-64
9.275743896e-64
9.275740875e-64
9.275738875e-64
9.275737563e-64
9.275736714e-64
9.275736182e-64
9.275735873e-64
9.275735732e-64
3.45448621e-62
2.10050405e-62
1.344665245e-62
9.044773917e-63
6.37578394e-63
4.695414633e-63
3.600255542e-63
2.863853155e-63
2.354740314e-63
1.994108715e-63
1.733259607e-63
1.541223921e-63
1.397766998e-63
1.289326407e-63
1.206591397e-63
1.143025266e-63
1.093942637e-63
1.055920857e-63
1.026416884e-63
1.003513027e-63
9.85744958e-64
9.719831246e-64
9.61349385e-64
9.531572329e-64
9.468680841e-64
9.420586866e-64
9.38396386e-64
9.356200512e-64
9.335251696e-64
9.319520828e-64
9.307766331e-64
9.299026974e-64
9.292562162e-64
9.287804227e-64
9.284320378e-64
9.281782472e-64
9.279943104e-64
9.2786168e-64
9.277665306e-64
9.276986157e-64
9.27650384e-64
9.276163025e-64
9.275923399e-64
9.275755752e-64
9.275639041e-64
9.275558188e-64
9.275502447e-64
9.275464205e-64
9.275438094e-64
9.275420352e-64
9.275408353e-64
9.275400278e-64
9.27539487e-64
9.275391267e-64
9.275388883e-64
9.275387319e-64
9.275386308e-64
9.275385675e-64
9.275385307e-64
9.275385138e-64
7.292912444e-62
4.00027769e-62
2.33459529e-62
1.446302243e-62
9.48149224e-63
6.553164817e-63
4.755503841e-63
3.607707322e-63
2.848677752e-63
2.331012845e-63
1.968405717e-63
1.708567407e-63
1.518792337e-63
1.378005852e-63
1.272245557e-63
1.192018744e-63
1.130715014e-63
1.083628697e-63
1.047342656e-63
1.01933126e-63
9.976991389e-64
9.810056996e-64
9.6814481e-64
9.582605801e-64
9.506871707e-64
9.449048855e-64
9.405075046e-64
9.371775443e-64
9.34667226e-64
9.327836526e-64
9.313771522e-64
9.303320553e-64
9.295593722e-64
9.289909729e-64
9.285749663e-64
9.282720415e-64
9.28052581e-64
9.278943955e-64
9.277809542e-64
9.277000116e-64
9.276425478e-64
9.276019565e-64
9.275734264e-64
9.275534728e-64
9.275395861e-64
9.275299691e-64
9.275233412e-64
9.275187955e-64
9.275156927e-64
9.27513585e-64
9.275121601e-64
9.275112015e-64
9.275105597e-64
9.275101323e-64
9.275098495e-64
9.275096641e-64
9.275095443e-64
9.275094692e-64
9.275094256e-64
9.275094056e-64
1.740382228e-61
8.470394579e-62
4.439652406e-62
2.499339124e-62
1.505723562e-62
9.664993308e-63
6.577636674e-63
4.721747028e-63
3.556395635e-63
2.79593167e-63
2.28278341e-63
1.926438438e-63
1.672917863e-63
1.488893633e-63
1.353116486e-63
1.251629585e-63
1.175010613e-63
1.116735896e-63
1.072183672e-63
1.038011472e-63
1.011757951e-63
9.915824701e-64
9.760909967e-64
9.642171404e-64
9.551390714e-64
9.482202264e-64
9.429660909e-64
9.389920715e-64
9.359991876e-64
9.337554034e-64
9.320811237e-64
9.308378275e-64
9.29919113e-64
9.292436248e-64
9.287494644e-64
9.283897808e-64
9.281293029e-64
9.279416227e-64
9.278070778e-64
9.277111107e-64
9.276430036e-64
9.2759491e-64
9.275611177e-64
9.275374914e-64
9.27521054e-64
9.27509674e-64
9.275018336e-64
9.274964579e-64
9.274927899e-64
9.274902989e-64
9.274886154e-64
9.274874831e-64
9.274867253e-64
9.274862209e-64
9.274858872e-64
9.274856684e-64
9.274855271e-64
9.274854387e-64
9.274853873e-64
9.274853637e-64
4.752982055e-61
2.016055084e-61
9.336278175e-62
4.706381147e-62
2.571676744e-62
1.515431623e-62
9.575208927e-63
6.447537023e-63
4.597845087e-63
3.450905617e-63
2.709701336e-63
2.21334164e-63
1.870751e-63
1.628248017e-63
1.452996075e-63
1.324212668e-63
1.228325746e-63
1.156213573e-63
1.101582566e-63
1.059986462e-63
1.02821744e-63
1.003918664e-63
9.853317967e-64
9.711286255e-64
9.60296159e-64
9.520564135e-64
9.458091483e-64
9.410901026e-64
9.375399361e-64
9.348807329e-64
9.328979752e-64
9.31426566e-64
9.303399101e-64
9.295413474e-64
9.289574183e-64
9.285325743e-64
9.282250291e-64
9.280035181e-64
9.278447768e-64
9.277315897e-64
9.276512882e-64
9.275946019e-64
9.275547847e-64
9.275269548e-64
9.275075987e-64
9.274942022e-64
9.274849753e-64
9.274786508e-64
9.274743367e-64
9.274714079e-64
9.274694291e-64
9.274680985e-64
9.274672083e-64
9.274666159e-64
9.274662242e-64
9.274659674e-64
9.274658016e-64
9.274656978e-64
9.274656375e-64
9.274656099e-64
1.503038861e-60
5.450794697e-61
2.191435581e-61
9.735840363e-62
4.757007807e-62
2.541276978e-62
1.47442863e-62
9.224382405e-63
6.177235944e-63
4.395526639e-63
3.299895784e-63
2.596168209e-63
2.127066328e-63
1.804456491e-63
1.576790479e-63
1.412717801e-63
1.292479594e-63
1.203210332e-63
1.136280466e-63
1.085744039e-63
1.047404493e-63
1.018236819e-63
9.960207692e-64
9.791021769e-64
9.662338335e-64
9.564668343e-64
9.490746171e-64
9.434986341e-64
9.393086593e-64
9.361732278e-64
9.338372631e-64
9.321049234e-64
9.308263234e-64
9.298871938e-64
9.292007991e-64
9.287016173e-64
9.283404009e-64
9.280803289e-64
9.278940189e-64
9.27761219e-64
9.276670337e-64
9.276005675e-64
9.275538952e-64
9.275212838e-64
9.27498609e-64
9.274829202e-64