/*--------------------------------*- C++ -*----------------------------------*\
  =========                 |
  \\      /  F ield         | OpenFOAM: The Open Source CFD Toolbox
   \\    /   O peration     | Website:  https://openfoam.org
    \\  /    A nd           | Version:  10
     \\/     M anipulation  |
\*---------------------------------------------------------------------------*/
FoamFile
{
    format      ascii;
    class       volScalarField;
    location    "0.0002";
    object      T;
}
// * * * * * * * * * * * * * * * * * * * * * * * * * * * * * * * * * * * * * //

dimensions      [0 0 0 1 0 0 0];

internalField   nonuniform List<scalar> 
3600
(
300.0270792
300.0255148
300.0240915
300.0228071
300.0216573
300.0206358
300.0197351
300.0189468
300.0182618
300.0176708
300.0171645
300.0167337
300.0163696
300.0160639
300.0158089
300.0155976
300.0154236
300.0152812
300.0151655
300.0150719
300.0149967
300.0149367
300.0148891
300.0148515
300.0148221
300.0147991
300.0147812
300.0147675
300.014757
300.0147489
300.0147428
300.0147382
300.0147348
300.0147322
300.0147303
300.0147289
300.0147279
300.0147271
300.0147266
300.0147262
300.0147259
300.0147257
300.0147256
300.0147255
300.0147254
300.0147253
300.0147253
300.0147253
300.0147253
300.0147252
300.0147252
300.0147252
300.0147252
300.0147252
300.0147252
300.0147252
300.0147252
300.0147252
300.0147252
300.0147252
300.0269607
300.0252296
300.0236552
300.022235
300.020964
300.0198352
300.0188404
300.01797
300.0172139
300.0165619
300.0160034
300.0155284
300.0151271
300.0147903
300.0145094
300.0142768
300.0140853
300.0139287
300.0138013
300.0136985
300.0136159
300.0135499
300.0134976
300.0134564
300.013424
300.0133988
300.0133792
300.0133642
300.0133526
300.0133438
300.0133371
300.0133321
300.0133283
300.0133255
300.0133234
300.0133219
300.0133208
300.0133199
300.0133193
300.0133189
300.0133186
300.0133184
300.0133182
300.0133181
300.013318
300.013318
300.0133179
300.0133179
300.0133179
300.0133179
300.0133179
300.0133179
300.0133179
300.0133179
300.0133179
300.0133179
300.0133179
300.0133179
300.0133179
300.0133179
300.0283313
300.0262524
300.0243628
300.0226594
300.0211357
300.0197835
300.0185923
300.0175508
300.0166467
300.0158675
300.0152005
300.0146335
300.0141547
300.0137531
300.0134185
300.0131415
300.0129135
300.0127272
300.0125759
300.0124536
300.0123556
300.0122773
300.0122153
300.0121664
300.012128
300.0120982
300.012075
300.0120572
300.0120436
300.0120332
300.0120253
300.0120193
300.0120149
300.0120116
300.0120091
300.0120073
300.012006
300.012005
300.0120043
300.0120038
300.0120034
300.0120032
300.012003
300.0120029
300.0120028
300.0120027
300.0120027
300.0120026
300.0120026
300.0120026
300.0120026
300.0120026
300.0120026
300.0120026
300.0120026
300.0120026
300.0120026
300.0120026
300.0120026
300.0120026
300.0314128
300.0287753
300.0263798
300.0242216
300.0222927
300.020582
300.0190761
300.0177604
300.0166191
300.015636
300.0147952
300.014081
300.0134783
300.0129731
300.0125525
300.0122044
300.0119183
300.0116846
300.0114948
300.0113417
300.0112189
300.0111211
300.0110435
300.0109824
300.0109345
300.0108973
300.0108684
300.0108462
300.0108292
300.0108162
300.0108064
300.0107991
300.0107935
300.0107894
300.0107864
300.0107841
300.0107825
300.0107813
300.0107804
300.0107798
300.0107793
300.010779
300.0107788
300.0107786
300.0107785
300.0107784
300.0107784
300.0107783
300.0107783
300.0107783
300.0107783
300.0107783
300.0107783
300.0107783
300.0107783
300.0107783
300.0107782
300.0107782
300.0107782
300.0107782
300.0365544
300.0331007
300.0299661
300.0271442
300.0246239
300.0223903
300.0204257
300.0187103
300.0172234
300.0159437
300.0148499
300.0139214
300.0131385
300.0124828
300.0119372
300.011486
300.0111154
300.0108129
300.0105674
300.0103695
300.0102109
300.0100846
300.0099845
300.0099057
300.0098441
300.0097961
300.009759
300.0097304
300.0097086
300.0096919
300.0096794
300.0096699
300.0096628
300.0096576
300.0096537
300.0096508
300.0096487
300.0096471
300.009646
300.0096452
300.0096447
300.0096442
300.009644
300.0096438
300.0096436
300.0096435
300.0096434
300.0096434
300.0096433
300.0096433
300.0096433
300.0096433
300.0096433
300.0096433
300.0096433
300.0096433
300.0096433
300.0096433
300.0096433
300.0096433
300.0442531
300.0396587
300.0354919
300.0317434
300.0283979
300.0254352
300.0228311
300.0205591
300.0185911
300.0168985
300.0154528
300.0142265
300.0131932
300.0123284
300.0116092
300.0110151
300.0105273
300.0101294
300.0098068
300.0095468
300.0093386
300.0091728
300.0090417
300.0089384
300.0088577
300.008795
300.0087464
300.0087091
300.0086806
300.0086589
300.0086425
300.0086302
300.0086209
300.0086141
300.008609
300.0086053
300.0086025
300.0086005
300.0085991
300.0085981
300.0085973
300.0085968
300.0085964
300.0085961
300.008596
300.0085958
300.0085957
300.0085957
300.0085956
300.0085956
300.0085956
300.0085956
300.0085955
300.0085955
300.0085955
300.0085955
300.0085955
300.0085955
300.0085955
300.0085955
300.0551814
300.0490313
300.0434573
300.0384466
300.0339777
300.0300229
300.0265493
300.0235207
300.0208992
300.0186461
300.0167231
300.015093
300.0137204
300.0125723
300.0116183
300.0108306
300.0101844
300.0096575
300.0092306
300.0088869
300.0086117
300.0083928
300.0082197
300.0080836
300.0079772
300.0078945
300.0078306
300.0077815
300.007744
300.0077155
300.007694
300.0076778
300.0076657
300.0076567
300.00765
300.0076451
300.0076416
300.007639
300.0076371
300.0076357
300.0076347
300.007634
300.0076336
300.0076332
300.007633
300.0076328
300.0076327
300.0076326
300.0076325
300.0076325
300.0076325
300.0076324
300.0076324
300.0076324
300.0076324
300.0076324
300.0076324
300.0076324
300.0076324
300.0076324
300.0702243
300.0619836
300.05452
300.0478153
300.0418398
300.0365553
300.031917
300.0278757
300.0243801
300.0213777
300.0188169
300.0166476
300.0148222
300.0132964
300.0120293
300.0109838
300.0101266
300.0094282
300.0088627
300.0084076
300.0080435
300.007754
300.0075252
300.0073454
300.007205
300.0070959
300.0070117
300.006947
300.0068976
300.00686
300.0068317
300.0068104
300.0067945
300.0067827
300.006774
300.0067676
300.0067629
300.0067595
300.006757
300.0067552
300.006754
300.0067531
300.0067524
300.006752
300.0067516
300.0067514
300.0067513
300.0067512
300.0067511
300.006751
300.006751
300.006751
300.006751
300.0067509
300.0067509
300.0067509
300.0067509
300.0067509
300.0067509
300.0067509
300.0905244
300.0795029
300.0695278
300.060573
300.0525979
300.0455497
300.0393677
300.0339852
300.0293325
300.025339
300.021935
300.0190534
300.0166302
300.0146059
300.012926
300.0115407
300.0104056
300.0094814
300.0087335
300.0081319
300.007651
300.0072689
300.006967
300.0067299
300.0065448
300.0064011
300.0062902
300.0062051
300.0061401
300.0060908
300.0060536
300.0060257
300.0060048
300.0059893
300.0059779
300.0059695
300.0059633
300.0059589
300.0059557
300.0059533
300.0059517
300.0059505
300.0059496
300.005949
300.0059486
300.0059483
300.0059481
300.005948
300.0059479
300.0059478
300.0059478
300.0059478
300.0059477
300.0059477
300.0059477
300.0059477
300.0059477
300.0059477
300.0059477
300.0059477
300.1175373
300.1028464
300.0895595
300.0776402
300.0670321
300.0576636
300.0494519
300.0423071
300.0361352
300.0308413
300.0263318
300.0225168
300.0193108
300.0166343
300.0144145
300.0125851
300.0110871
300.009868
300.0088821
300.0080896
300.0074564
300.0069536
300.0065565
300.0062449
300.0060018
300.0058131
300.0056676
300.005556
300.0054708
300.0054062
300.0053575
300.0053209
300.0052936
300.0052734
300.0052584
300.0052475
300.0052395
300.0052336
300.0052294
300.0052264
300.0052242
300.0052227
300.0052216
300.0052208
300.0052203
300.0052199
300.0052196
300.0052195
300.0052193
300.0052192
300.0052192
300.0052191
300.0052191
300.0052191
300.0052191
300.0052191
300.0052191
300.0052191
300.0052191
300.0052191
300.1530989
300.1335983
300.115974
300.1001749
300.0861236
300.0737229
300.062861
300.0534167
300.0452638
300.0382754
300.0323266
300.027297
300.023073
300.0195489
300.0166279
300.0142222
300.0122533
300.0106521
300.0093579
300.0083182
300.007488
300.006829
300.006309
300.0059011
300.005583
300.0053363
300.0051461
300.0050003
300.0048891
300.0048048
300.0047413
300.0046936
300.0046581
300.0046317
300.0046122
300.004598
300.0045875
300.00458
300.0045745
300.0045706
300.0045678
300.0045658
300.0045643
300.0045633
300.0045626
300.0045622
300.0045618
300.0045616
300.0045614
300.0045613
300.0045612
300.0045612
300.0045612
300.0045611
300.0045611
300.0045611
300.0045611
300.0045611
300.0045611
300.0045611
300.1995034
300.1737371
300.1504667
300.1296212
300.111095
300.0947566
300.0804554
300.0680292
300.0573096
300.0481271
300.0403157
300.0337156
300.0281762
300.0235576
300.0197317
300.0165826
300.014007
300.0119135
300.0102224
300.0088646
300.007781
300.0069214
300.0062435
300.005712
300.0052977
300.0049766
300.0047292
300.0045396
300.0043951
300.0042856
300.0042031
300.0041413
300.0040952
300.004061
300.0040358
300.0040173
300.0040038
300.003994
300.003987
300.0039819
300.0039782
300.0039757
300.0039738
300.0039725
300.0039716
300.003971
300.0039706
300.0039703
300.0039701
300.0039699
300.0039698
300.0039698
300.0039697
300.0039697
300.0039697
300.0039697
300.0039697
300.0039696
300.0039696
300.0039696
300.2595949
300.2257131
300.1951361
300.1677652
300.1434573
300.1220351
300.1032972
300.0870273
300.0730013
300.0609946
300.0507874
300.0421686
300.0349396
300.0289161
300.0239294
300.0198274
300.0164744
300.0137507
300.0115517
300.0097872
300.0083798
300.0072639
300.0063843
300.0056951
300.0051582
300.0047423
300.0044219
300.0041766
300.0039897
300.0038482
300.0037416
300.0036618
300.0036023
300.0035582
300.0035257
300.0035018
300.0034844
300.0034718
300.0034627
300.0034562
300.0034515
300.0034482
300.0034458
300.0034442
300.003443
300.0034422
300.0034417
300.0034413
300.003441
300.0034408
300.0034407
300.0034406
300.0034406
300.0034405
300.0034405
300.0034405
300.0034405
300.0034405
300.0034405
300.0034405
300.3368715
300.2925382
300.2525591
300.2167986
300.1850631
300.1571152
300.1326868
300.1114905
300.0932302
300.0776093
300.0643383
300.0531399
300.0437532
300.0359366
300.0294696
300.0241531
300.0198099
300.0162839
300.0134389
300.0111573
300.0093384
300.0078971
300.0067617
300.0058724
300.00518
300.0046439
300.0042312
300.0039153
300.0036748
300.0034928
300.0033557
300.0032531
300.0031767
300.0031201
300.0030784
300.0030478
300.0030255
300.0030094
300.0029977
300.0029893
300.0029834
300.0029791
300.0029761
300.002974
300.0029725
300.0029715
300.0029708
300.0029703
300.0029699
300.0029697
300.0029695
300.0029694
300.0029694
300.0029693
300.0029693
300.0029693
300.0029693
300.0029692
300.0029692
300.0029692
300.4356037
300.3778855
300.325876
300.2793897
300.2381663
300.2018895
300.1702037
300.1427296
300.1190774
300.0988578
300.0816913
300.0672152
300.0550889
300.0449973
300.0366531
300.0297976
300.0242005
300.0196592
300.015997
300.0130617
300.010723
300.0088708
300.0074125
300.006271
300.0053826
300.0046951
300.0041661
300.0037614
300.0034535
300.0032205
300.0030452
300.002914
300.0028163
300.002744
300.0026907
300.0026517
300.0026233
300.0026027
300.0025878
300.0025772
300.0025695
300.0025641
300.0025603
300.0025576
300.0025558
300.0025544
300.0025535
300.0025529
300.0025525
300.0025522
300.002552
300.0025519
300.0025518
300.0025517
300.0025517
300.0025516
300.0025516
300.0025516
300.0025516
300.0025516
300.5609651
300.486201
300.4188845
300.358763
300.3054883
300.2586409
300.2177521
300.1823235
300.1518446
300.1258068
300.1037154
300.0850984
300.0695134
300.0565517
300.045841
300.0370465
300.0298706
300.0240516
300.0193618
300.0156049
300.0126134
300.0102453
300.0083819
300.006924
300.0057899
300.0049128
300.0042383
300.0037225
300.0033302
300.0030335
300.0028104
300.0026435
300.0025193
300.0024274
300.0023597
300.0023102
300.0022741
300.0022479
300.0022291
300.0022156
300.0022059
300.0021991
300.0021942
300.0021909
300.0021885
300.0021868
300.0021857
300.0021849
300.0021843
300.002184
300.0021837
300.0021836
300.0021834
300.0021834
300.0021833
300.0021833
300.0021833
300.0021832
300.0021832
300.0021832
300.719176
300.6228253
300.5361419
300.458784
300.3902886
300.330102
300.2776091
300.2321588
300.1930857
300.159729
300.1314469
300.1076287
300.0877023
300.0711403
300.0574631
300.0462396
300.0370872
300.0296697
300.023695
300.0189115
300.0151046
300.0120927
300.0097238
300.0078715
300.0064314
300.0053181
300.0044623
300.0038083
300.0033111
300.0029352
300.0026527
300.0024414
300.0022843
300.0021681
300.0020826
300.00202
300.0019745
300.0019414
300.0019177
300.0019006
300.0018885
300.0018798
300.0018737
300.0018695
300.0018665
300.0018644
300.001863
300.001862
300.0018613
300.0018608
300.0018605
300.0018603
300.0018601
300.00186
300.00186
300.0018599
300.0018599
300.0018599
300.0018599
300.0018599
300.9176572
300.7941231
300.6830744
300.5840516
300.4964415
300.4195176
300.3524767
300.2944722
300.2446418
300.202131
300.1661119
300.1357978
300.1104533
300.0894014
300.0720269
300.0577781
300.0461655
300.0367597
300.0291876
300.0231286
300.0183092
300.0144983
300.0115026
300.0091613
300.0073419
300.0059362
300.0048562
300.004031
300.0034041
300.0029305
300.0025746
300.0023085
300.0021108
300.0019646
300.0018571
300.0017784
300.0017212
300.0016797
300.0016499
300.0016285
300.0016132
300.0016024
300.0015948
300.0015894
300.0015857
300.0015831
300.0015813
300.00158
300.0015792
300.0015786
300.0015782
300.0015779
300.0015778
300.0015777
300.0015776
300.0015775
300.0015775
300.0015775
300.0015775
300.0015774
301.1651926
301.0076205
300.8660919
300.7399925
300.6285146
300.5307095
300.4455343
300.3718938
300.308676
300.2547818
300.2091486
300.1707687
300.1387014
300.1120821
300.0901264
300.0721313
300.0574742
300.0456093
300.036063
300.0284284
300.022359
300.0175623
300.0137936
300.0108497
300.0085631
300.0067973
300.0054413
300.0044058
300.0036195
300.0030256
300.0025796
300.0022464
300.0019988
300.0018158
300.0016813
300.0015829
300.0015114
300.0014596
300.0014223
300.0013956
300.0013766
300.0013631
300.0013536
300.0013469
300.0013422
300.001339
300.0013367
300.0013352
300.0013341
300.0013334
300.0013329
300.0013326
300.0013324
300.0013322
300.0013321
300.001332
300.001332
300.001332
300.001332
300.001332
301.4720958
301.2721445
301.0927042
300.9329581
300.7918482
300.6681423
300.5604927
300.4674901
300.387708
300.3197401
300.2622299
300.2138928
300.1735323
300.1400499
300.1124505
300.0898435
300.0714407
300.0565523
300.04458
300.0350106
300.027407
300.0214011
300.0166847
300.0130023
300.0101437
300.0079371
300.0062434
300.0049507
300.0039695
300.0032288
300.0026726
300.0022574
300.001949
300.0017212
300.0015538
300.0014314
300.0013424
300.001278
300.0012317
300.0011986
300.0011749
300.0011582
300.0011464
300.0011381
300.0011323
300.0011283
300.0011255
300.0011236
300.0011223
300.0011214
300.0011208
300.0011204
300.0011201
300.0011199
300.0011198
300.0011197
300.0011197
300.0011196
300.0011196
300.0011196
301.8503766
301.5979621
301.3716365
301.17032
300.9926344
300.8369869
300.7016456
300.5848062
300.4846484
300.3993822
300.3272847
300.2667274
300.2161962
300.1743029
300.1397917
300.1115402
300.0885561
300.0699718
300.0550361
300.0431043
300.0336289
300.0261483
300.0202768
300.0156949
300.0121397
300.0093967
300.0072924
300.0056869
300.0044689
300.0035498
300.0028601
300.0023453
300.0019631
300.0016809
300.0014737
300.0013222
300.0012121
300.0011325
300.0010753
300.0010343
300.0010051
300.0009845
300.0009699
300.0009597
300.0009525
300.0009476
300.0009442
300.0009418
300.0009402
300.0009391
300.0009383
300.0009378
300.0009375
300.0009373
300.0009371
300.000937
300.000937
300.0009369
300.0009369
300.0009369
302.3139021
301.9969138
301.7129393
301.4605599
301.2379894
301.04318
300.8739174
300.7279039
300.6028287
300.4964253
300.406517
300.3310504
300.2681193
300.2159788
300.1730527
300.1379335
300.109379
300.0863038
300.0677691
300.0529704
300.0412243
300.0319559
300.0246849
300.0190137
300.0146154
300.0112236
300.0086227
300.0066392
300.0051351
300.0040007
300.0031497
300.0025148
300.0020437
300.001696
300.0014407
300.0012542
300.0011187
300.0010208
300.0009504
300.0009
300.0008642
300.0008388
300.0008209
300.0008083
300.0007996
300.0007935
300.0007893
300.0007864
300.0007844
300.0007831
300.0007822
300.0007816
300.0007812
300.0007809
300.0007807
300.0007806
300.0007805
300.0007805
300.0007804
300.0007804
302.8785438
302.4825336
302.1280867
301.813349
301.5360181
301.2934754
301.0829044
300.9013943
300.7460271
300.6139482
300.5024218
300.4088725
300.3309132
300.2663624
300.2132518
300.1698265
300.1345391
300.1060392
300.0831599
300.0649021
300.0504182
300.0389953
300.0300387
300.023056
300.0176433
300.0134712
300.0102733
300.0078358
300.0059882
300.0045952
300.0035508
300.0027719
300.0021942
300.0017679
300.0014551
300.0012267
300.0010608
300.0009409
300.0008548
300.0007932
300.0007494
300.0007183
300.0006965
300.0006812
300.0006705
300.0006631
300.0006579
300.0006544
300.000652
300.0006504
300.0006493
300.0006485
300.000648
300.0006477
300.0006475
300.0006473
300.0006472
300.0006472
300.0006471
300.0006471
303.5623034
303.0701515
302.6300573
302.2396127
301.8958654
301.5954842
301.3349058
301.110462
300.9184872
300.755405
300.6177955
300.5024452
300.406381
300.3268896
300.2615266
300.2081154
300.1647387
300.1297253
300.1016325
300.0792264
300.061461
300.0474572
300.0364823
300.0279304
300.0213044
300.0161994
300.0122884
300.0093085
300.0070507
300.0053493
300.0040742
300.0031236
300.0024188
300.001899
300.0015177
300.0012394
300.0010374
300.0008914
300.0007866
300.0007116
300.0006583
300.0006206
300.000594
300.0005754
300.0005625
300.0005535
300.0005472
300.000543
300.00054
300.0005381
300.0005367
300.0005358
300.0005352
300.0005348
300.0005345
300.0005343
300.0005342
300.0005342
300.0005341
300.0005341
304.3854072
303.7769661
303.2333917
302.7515739
302.3277482
301.9576991
301.6369416
301.3608777
301.1249268
300.9246319
300.7557402
300.6142638
300.4965188
300.3991489
300.3191345
300.2537899
300.2007527
300.1579655
300.1236543
300.0963032
300.0746282
300.0575513
300.0441746
300.0337562
300.0256878
300.0194744
300.0147162
300.0110926
300.0083482
300.006281
300.0047323
300.0035783
300.002723
300.0020924
300.00163
300.0012927
300.0010478
300.0008711
300.0007441
300.0006534
300.0005889
300.0005433
300.0005112
300.0004887
300.000473
300.0004621
300.0004546
300.0004495
300.000446
300.0004436
300.0004419
300.0004409
300.0004401
300.0004396
300.0004393
300.0004391
300.000439
300.0004389
300.0004388
300.0004388
305.3703592
304.6220816
303.9542158
303.3627683
302.8429642
302.3894975
301.9967528
301.6589965
301.3705352
301.1258431
300.9196602
300.7470633
300.6035124
300.4848779
300.3874491
300.3079306
300.2434264
300.1914178
300.1497346
300.1165245
300.0902201
300.0695062
300.0532885
300.0406634
300.0308906
300.0233681
300.01761
300.0132267
300.0099083
300.0074098
300.0055388
300.0041452
300.0031126
300.0023517
300.0017939
300.0013872
300.0010921
300.0008791
300.0007262
300.000617
300.0005393
300.0004844
300.0004458
300.0004188
300.0003999
300.0003869
300.0003778
300.0003717
300.0003674
300.0003645
300.0003626
300.0003613
300.0003604
300.0003598
300.0003594
300.0003592
300.000359
300.0003589
300.0003589
300.0003588
306.5419398
305.6264978
304.8102252
304.0880241
303.4538704
302.9011205
302.4227807
302.0117387
301.6609549
301.3636151
301.1132475
300.9038064
300.7297269
300.5859544
300.467954
300.3717031
300.293671
300.2307904
300.1804211
300.1403117
300.1085589
300.0835672
300.0640096
300.0487916
300.0370171
300.0279579
300.0210265
300.0157524
300.0117613
300.0087574
300.0065089
300.0048347
300.0035948
300.0026814
300.0020121
300.0015241
300.0011703
300.000915
300.0007318
300.0006009
300.000508
300.0004423
300.000396
300.0003637
300.0003412
300.0003255
300.0003148
300.0003074
300.0003023
300.0002989
300.0002966
300.000295
300.000294
300.0002933
300.0002928
300.0002925
300.0002923
300.0002922
300.0002921
300.0002921
307.9271408
306.8130428
305.8206197
304.9434002
304.1738253
303.5036202
302.92412
302.4265484
302.0022468
301.6428563
301.3404563
301.0876623
300.8776887
300.7043823
300.5622301
300.4463482
300.3524554
300.2768359
300.2162953
300.1681118
300.1299866
300.099994
300.0765342
300.0582884
300.0441777
300.0333258
300.0250263
300.0187139
300.0139389
300.0103466
300.0076586
300.005658
300.0041769
300.0030862
300.0022873
300.0017051
300.001283
300.0009786
300.0007602
300.0006043
300.0004936
300.0004153
300.0003603
300.0003218
300.000295
300.0002764
300.0002636
300.0002548
300.0002488
300.0002447
300.000242
300.0002401
300.0002389
300.000238
300.0002375
300.0002371
300.0002369
300.0002368
300.0002367
300.0002366
309.5550214
308.206239
307.0059791
305.9460741
305.0170894
304.2087721
303.5104429
302.9113282
302.4008338
301.9687601
301.6054641
301.3019736
301.050059
300.8422692
300.671938
300.5331678
300.4207948
300.3303424
300.2579656
300.2003919
300.1548597
300.1190577
300.0910673
300.0693079
300.0524873
300.039557
300.0296723
300.0221572
300.0164748
300.0122015
300.0090051
300.006627
300.0048671
300.0035716
300.002623
300.0019319
300.0014311
300.00107
300.000811
300.0006262
300.000495
300.0004023
300.0003371
300.0002915
300.0002598
300.0002378
300.0002227
300.0002123
300.0002052
300.0002004
300.0001971
300.0001949
300.0001935
300.0001925
300.0001919
300.0001914
300.0001912
300.000191
300.0001909
300.0001908
311.4564762
309.8320904
308.3880732
307.1141732
305.9986772
305.0289474
304.1918891
303.474346
302.8634231
302.3467394
301.9126169
301.5502123
301.2495973
301.0017973
300.798795
300.6335062
300.4997364
300.392121
300.3060574
300.2376318
300.1835446
300.1410365
300.1078188
300.0820075
300.0620637
300.046739
300.0350288
300.0261294
300.019403
300.0143466
300.0105658
300.007754
300.0056739
300.0041432
300.0030227
300.0022067
300.0016156
300.0011895
300.000884
300.0006661
300.0005114
300.0004021
300.0003254
300.0002717
300.0002343
300.0002085
300.0001907
300.0001784
300.0001701
300.0001644
300.0001606
300.000158
300.0001563
300.0001552
300.0001544
300.0001539
300.0001536
300.0001534
300.0001533
300.0001532
313.6639003
311.7177836
309.9895962
308.4665427
307.1341564
305.9769398
304.9789193
304.1241116
303.3969022
302.7823408
302.2663594
301.8359222
301.4791151
301.1851861
300.9445441
300.7487259
300.5903398
300.4629918
300.3612021
300.2803152
300.2164098
300.1662098
300.1269996
300.0965457
300.0730248
300.0549594
300.0411604
300.0306779
300.022758
300.0168066
300.0123583
300.0090513
300.0066057
300.0048066
300.0034901
300.0025317
300.0018377
300.0013376
300.0009791
300.0007235
300.0005421
300.000414
300.000324
300.0002611
300.0002174
300.0001871
300.0001662
300.0001519
300.0001422
300.0001356
300.0001311
300.0001281
300.0001261
300.0001247
300.0001238
300.0001232
300.0001229
300.0001226
300.0001225
300.0001224
316.2107436
313.8912914
311.8338196
310.0224436
308.439388
307.0657452
305.8821288
304.8692201
304.0082096
303.281138
302.671147
302.1626473
301.7414178
301.3946455
301.1109179
300.8801784
300.6936541
300.5437654
300.4240228
300.3289188
300.2538183
300.1948523
300.1488166
300.1130774
300.0854864
300.0643037
300.0481303
300.0358488
300.0265734
300.0196058
300.0144
300.0105311
300.007671
300.0055677
300.0040291
300.0029094
300.0020987
300.0015148
300.0010964
300.0007981
300.0005865
300.0004371
300.0003322
300.0002589
300.0002079
300.0001727
300.0001484
300.0001317
300.0001204
300.0001127
300.0001075
300.000104
300.0001016
300.0001001
300.000099
300.0000984
300.0000979
300.0000976
300.0000975
300.0000974
319.1309418
316.3808727
313.9441567
311.801178
309.9302067
308.3082904
306.9120194
305.7181625
304.7041774
303.8486025
303.1313404
302.5338467
302.0392362
301.6323213
301.2995944
301.0291696
300.810691
300.6352216
300.4951179
300.3838993
300.296117
300.2272265
300.1734672
300.1317503
300.0995583
300.0748534
300.0559983
300.041686
300.0308808
300.0227671
300.0167071
300.0122049
300.0088778
300.0064319
300.0046432
300.0033419
300.0024001
300.0017219
300.0012361
300.0008898
300.0006442
300.0004709
300.0003493
300.0002643
300.0002052
300.0001643
300.0001362
300.0001169
300.0001037
300.0000948
300.0000888
300.0000847
300.000082
300.0000802
300.000079
300.0000783
300.0000778
300.0000774
300.0000773
300.0000772
322.4582167
319.214462
316.3436343
313.8216363
311.622036
309.7171093
308.0787293
306.6791012
305.4913473
304.4899525
303.6510833
302.9527958
302.3751476
301.9002317
301.5121471
301.1969206
300.9423936
300.7380854
300.575042
300.4456792
300.3436261
300.2635739
300.2011326
300.1526999
300.1153412
300.0866829
300.064819
300.0482292
300.0357092
300.0263113
300.0192945
300.0140832
300.0102333
300.0074041
300.0053357
300.0038313
300.0027429
300.0019594
300.0013982
300.0009984
300.0007149
300.0005149
300.0003746
300.0002765
300.0002084
300.0001613
300.0001288
300.0001066
300.0000915
300.0000812
300.0000743
300.0000696
300.0000665
300.0000644
300.000063
300.0000621
300.0000616
300.0000612
300.000061
300.0000609
326.2252406
322.4189431
319.0542699
316.1017672
313.5294411
311.3039681
309.3917216
307.7596132
306.3757592
305.2099816
304.2341635
303.4224743
302.7514855
302.2001966
301.7499886
301.384523
301.0896017
300.8530001
300.6642857
300.5146308
300.396627
300.3041059
300.2319713
300.176044
300.1329222
300.0998563
300.0746396
300.0555128
300.0410835
300.0302561
300.0221748
300.0161749
300.0117439
300.0084885
300.0061093
300.0043794
300.0031282
300.0022277
300.001583
300.0011238
300.0007983
300.0005687
300.0004076
300.0002951
300.0002169
300.0001629
300.0001257
300.0001002
300.0000829
300.0000711
300.0000632
300.0000578
300.0000543
300.0000519
300.0000503
300.0000493
300.0000486
300.0000482
300.000048
300.0000479
330.4626582
326.0193089
322.096354
318.6579705
315.6656193
313.0794417
310.8594334
308.9664018
307.3627163
306.012868
304.8838588
303.945443
303.1702423
302.5337593
302.0143094
301.5928915
301.2530149
300.9804984
300.7632528
300.591059
300.4553486
300.3489939
300.2661106
300.2018771
300.1523712
300.1144249
300.0854972
300.0635639
300.0470231
300.0346155
300.0253579
300.0184869
300.013414
300.0096883
300.0069662
300.0049875
300.0035567
300.0025274
300.0017905
300.0012658
300.000894
300.0006318
300.0004479
300.0003195
300.0002303
300.0001686
300.0001262
300.0000972
300.0000774
300.000064
300.0000549
300.0000489
300.0000448
300.0000421
300.0000403
300.0000391
300.0000384
300.0000379
300.0000376
300.0000375
335.1979689
330.0377061
325.4876421
321.5044185
318.0418348
315.0524448
312.488891
310.304982
308.45653
306.9019682
305.602772
304.5237119
303.6329639
302.902104
302.306013
301.8227123
301.4331526
301.1209717
300.872237
300.675183
300.5199541
300.3983587
300.3036396
300.2302645
300.1737357
300.1304232
300.097417
300.0724003
300.0535407
300.0393985
300.02885
300.0210234
300.0152468
300.0110054
300.0079074
300.0056563
300.0040288
300.0028583
300.0020206
300.0014242
300.0010017
300.0007039
300.000495
300.0003493
300.000248
300.000178
300.0001299
300.000097
300.0000745
300.0000593
300.0000491
300.0000422
300.0000376
300.0000345
300.0000325
300.0000312
300.0000303
300.0000298
300.0000295
300.0000293
340.4542725
334.4923736
329.242463
324.6523135
320.6668031
317.2297266
314.2852965
311.7793449
309.6602484
307.8795995
306.3926566
305.158602
304.1406407
303.3059701
302.6256487
302.0743917
301.6303134
301.2746386
300.9913977
300.7671186
300.5905269
300.45226
300.3446011
300.2612364
300.1970371
300.1478661
300.1104092
300.082029
300.060641
300.0446082
300.0326532
300.0237857
300.0172428
300.0124402
300.0089332
300.0063855
300.0045442
300.0032202
300.002273
300.0015987
300.0011212
300.0007846
300.0005487
300.000384
300.0002697
300.0001907
300.0001364
300.0000992
300.0000739
300.0000567
300.0000451
300.0000374
300.0000322
300.0000287
300.0000264
300.000025
300.000024
300.0000234
300.000023
300.0000229
346.2488912
339.3964878
333.3707582
328.109093
323.5460397
319.6153388
316.2515963
313.3916098
310.9753768
308.9468164
307.2542395
305.8506048
304.6935974
303.7455651
302.9733438
302.3480028
301.8445353
301.4415146
301.1207363
300.8668593
300.6670569
300.5106864
300.3889833
300.2947821
300.2222658
300.1667455
300.1244669
300.0924445
300.0683196
300.0502408
300.0367645
300.0267715
300.0194002
300.0139911
300.0100423
300.0071744
300.0051021
300.0036125
300.002547
300.0017887
300.0012518
300.0008735
300.0006083
300.0004233
300.0002949
300.0002062
300.0001452
300.0001035
300.000075
300.0000558
300.0000428
300.0000341
300.0000283
300.0000244
300.0000219
300.0000202
300.0000191
300.0000184
300.000018
300.0000179
352.5918866
344.7569334
337.8770701
331.8776027
326.6811864
322.2100909
318.3880428
315.1416724
312.4015983
310.1031893
308.1870462
306.5992448
305.2913849
304.2204816
303.348739
302.6432362
302.0755564
301.6213814
301.2600739
300.97426
300.7494272
300.5735449
300.4367132
300.3308444
300.2493775
300.1870271
300.139564
300.1036268
300.0765613
300.0562852
300.0411754
300.0299744
300.0217143
300.0156546
300.011232
300.0080208
300.0057011
300.0040339
300.0028417
300.0019935
300.0013931
300.0009701
300.0006736
300.0004669
300.0003233
300.0002242
300.0001561
300.0001095
300.0000778
300.0000563
300.0000418
300.0000321
300.0000256
300.0000213
300.0000184
300.0000166
300.0000154
300.0000146
300.0000142
300.000014
359.4845025
350.5730293
342.7595051
335.9552576
330.0693371
325.0110098
320.6917634
317.0268637
313.9365032
311.3465914
309.1892336
307.4029498
305.9326793
304.7296183
303.750928
302.9593531
302.3227799
301.8137613
301.4090306
301.0890209
300.8374033
300.6406531
300.4876498
300.369315
300.2782895
300.2086482
300.1556532
300.1155405
300.0853397
300.0627217
300.0458714
300.0333837
300.0241772
300.017425
300.0124982
300.0089217
300.0063388
300.0044829
300.003156
300.0022122
300.0015442
300.0010737
300.0007441
300.0005142
300.0003547
300.0002445
300.0001688
300.000117
300.0000818
300.0000579
300.0000418
300.0000311
300.0000238
300.0000191
300.0000159
300.0000138
300.0000125
300.0000117
300.0000112
300.000011
366.9175772
356.835248
348.0087076
340.3332226
333.702386
328.0108249
323.1563555