/*--------------------------------*- C++ -*----------------------------------*\
  =========                 |
  \\      /  F ield         | OpenFOAM: The Open Source CFD Toolbox
   \\    /   O peration     | Website:  https://openfoam.org
    \\  /    A nd           | Version:  10
     \\/     M anipulation  |
\*---------------------------------------------------------------------------*/
FoamFile
{
    format      ascii;
    class       surfaceScalarField;
    location    "0.0003";
    object      alphaPhi.metal;
}
// * * * * * * * * * * * * * * * * * * * * * * * * * * * * * * * * * * * * * //

dimensions      [0 3 -1 0 0 0 0];

internalField   nonuniform List<scalar> 
7080
(
-2.414122932e-50
-4.657008576e-51
-4.618176883e-50
-5.662339772e-52
-7.685811199e-49
-7.500676739e-51
-2.148128019e-47
-2.205858249e-49
-5.85112e-46
-6.462532178e-48
-1.553536018e-44
-1.868888724e-46
-4.110970518e-43
-5.284475669e-45
-1.16461656e-41
-1.4559738e-43
-3.176417702e-40
-3.741074233e-42
-4.640671665e-39
-6.689626945e-41
-2.649238913e-38
-5.567551227e-40
-8.832901719e-38
-2.127924304e-39
-2.185081355e-37
-7.185611773e-38
-4.21759069e-37
-2.473796713e-37
-6.55025947e-37
-5.719257605e-37
-9.029345012e-37
-9.908785862e-37
-1.415456971e-36
-1.163007926e-36
-3.161696386e-36
-1.08519296e-36
-2.018392298e-35
-8.545919513e-37
-1.439165119e-34
-1.112401332e-35
-5.073985162e-34
-5.526764538e-35
-1.196586797e-33
-5.719214082e-34
-2.006436122e-33
-1.788609661e-33
-2.717265962e-33
-3.036899623e-33
-3.436035631e-33
-3.973214909e-33
-4.484366397e-33
-4.845441423e-33
-6.182959158e-33
-6.742158444e-33
-6.216579471e-33
-1.204743035e-32
-5.400122748e-33
-2.169496783e-32
-5.162902808e-33
-2.176685609e-32
-6.444237718e-33
-2.024830124e-32
-1.584991815e-32
-1.714560854e-32
-1.064621686e-32
-8.517930749e-32
-1.512053998e-33
-2.220916489e-32
-4.917519452e-34
-4.033202619e-33
-3.319689976e-33
-1.849625355e-34
-1.462463423e-33
-3.20937197e-34
0
-1.781530503e-31
0
-2.995719405e-28
-9.387044777e-22
-7.474328283e-24
1.792372842e-21
-2.61107487e-22
1.750142118e-21
4.22307244e-23
1.66640494e-21
8.373674144e-23
1.545720854e-21
1.206830216e-22
1.393909635e-21
1.51809412e-22
1.217703626e-21
1.762033721e-22
1.024227284e-21
1.934729151e-22
8.20497103e-22
2.037261274e-22
6.130160277e-22
2.074765568e-22
4.07490752e-22
2.055203384e-22
2.086719801e-22
1.98813361e-22
2.030077759e-23
1.883652607e-22
-1.548636788e-22
1.751579751e-22
-3.14960793e-22
1.600901057e-22
-4.589127224e-22
1.439444099e-22
-5.862945889e-22
1.273738654e-22
-6.972042238e-22
1.109012139e-22
-7.921400838e-22
9.492716327e-23
-8.718922642e-22
7.974315975e-23
6.554519183e-23
-9.768008309e-49
-9.350653225e-51
-2.547809451e-47
-2.652761452e-49
-7.427394145e-46
-1.300888461e-47
-2.156715923e-44
-4.191071895e-46
-6.165122841e-43
-1.280910245e-44
-1.722195967e-41
-3.894017549e-43
-4.761378595e-40
-1.175267453e-41
-1.434478541e-38
-3.514047364e-40
-4.980881965e-37
-1.040332444e-38
-1.078379817e-35
-2.321114182e-37
-7.366268322e-35
-2.149868235e-36
-1.84770239e-34
-7.951798819e-36
-2.849355652e-34
-1.654577292e-35
-3.464546601e-34
-2.521301405e-35
-3.444133074e-34
-3.163637518e-35
-3.746602503e-34
-4.030747314e-35
-8.885043425e-34
-6.625698557e-35
-2.617542169e-33
-2.820280348e-34
-1.458104502e-32
-1.002341866e-33
-1.646267951e-31
-1.258222695e-32
-5.770704546e-31
-2.4248207e-31
-7.426319155e-31
-5.962150514e-31
-6.493956862e-31
-6.822791971e-31
-6.151111717e-31
-5.656052455e-31
-7.164356185e-31
-5.656362605e-31
-1.10523448e-30
-7.3472877e-31
-9.972696869e-31
-1.190089711e-30
-4.242388056e-31
-1.459985901e-30
-8.860259295e-32
-4.464248708e-31
-9.221545963e-32
-7.84247554e-32
-9.22034155e-31
-2.273437987e-31
-6.756341492e-30
-2.249498555e-30
-6.193149261e-30
-7.784203948e-30
-7.807520966e-31
-8.105106318e-30
-4.929299619e-34
-7.927217291e-31
-5.939810845e-34
-3.096811979e-33
-2.735970142e-33
-1.22643076e-33
0
-5.2685494e-31
0
-8.941360192e-28
2.45594948e-22
-8.803853607e-24
1.837397373e-21
-5.378898534e-22
1.791623803e-21
8.800332106e-23
1.70335122e-21
1.720072139e-22
1.576847244e-21
2.47183583e-22
1.418303596e-21
3.103482607e-22
1.234973169e-21
3.595276852e-22
1.034480496e-21
3.93958386e-22
8.242475325e-22
4.139510206e-22
6.110598095e-22
4.206554015e-22
4.007837746e-22
4.157866035e-22
1.982238799e-22
4.013625163e-22
7.093492086e-24
3.794839532e-22
-1.699315482e-22
3.521703926e-22
-3.311064886e-22
3.212514537e-22
-4.754832668e-22
2.883065765e-22
-6.027672403e-22
2.546421294e-22
-7.131782744e-22
2.212949533e-22
-8.073240873e-22
1.890529235e-22
-8.860902321e-22
1.58484841e-22
1.299734818e-22
-9.603427642e-46
-2.549444777e-47
-9.436048171e-45
-1.112173486e-46
-2.742211594e-43
-5.432813772e-45
-8.405110391e-42
-3.829357871e-43
-2.539512352e-40
-1.419471628e-41
-7.523642647e-39
-4.914285181e-40
-2.199203567e-37
-1.661672595e-38
-6.955825586e-36
-5.719547282e-37
-2.836796114e-34
-2.098186305e-35
-8.915495667e-33
-7.93009473e-34
-8.095110674e-32
-1.25424982e-32
-2.201407061e-31
-4.223052672e-32
-3.414598859e-31
-5.021286392e-32
-3.835727413e-31
-5.047165567e-32
-3.300050291e-31
-5.131663235e-32
-3.365905025e-31
-4.741196773e-32
-6.911914602e-31
-6.222087094e-32
-1.671358046e-30
-2.797404557e-31
-4.052613093e-30
-6.732865228e-31
-3.840822724e-29
-2.418188068e-30
-2.166605912e-28
-1.150721591e-28
-3.872927538e-28
-3.395428723e-28
-3.346437003e-28
-4.677316272e-28
-2.835299128e-28
-3.318373262e-28
-2.798718974e-28
-2.671021189e-28
-4.604515632e-28
-3.380092182e-28
-4.643218887e-28
-8.120436686e-28
-2.291912743e-28
-8.396939586e-28
-3.744330247e-29
-1.767638694e-28
-3.584148856e-29
-4.080062408e-29
-2.542827249e-28
-1.002220502e-28
-2.423245396e-27
-1.017969712e-27
-2.873971315e-27
-4.788365874e-27
-4.536869532e-28
-1.33379238e-26
-1.242067385e-32
-2.368106186e-27
-1.82598481e-33
-4.088959178e-32
-1.184293079e-33
-3.735498093e-33
0
-1.104084388e-30
0
-1.724675756e-27
6.468883295e-22
-1.191210867e-23
1.92577508e-21
-8.580176477e-22
1.875621754e-21
1.381558736e-22
1.778527589e-21
2.690996536e-22
1.640011922e-21
3.856964259e-22
1.46748302e-21
4.828731983e-22
1.26940387e-21
5.57601819e-22
1.054473131e-21
6.088832158e-22
8.309519134e-22
6.374655293e-22
6.061910114e-22
6.454087726e-22
3.863596875e-22
6.35609526e-22
1.763453168e-22
6.113676242e-22
-2.022006849e-23
5.760392479e-22
-2.008504871e-22
5.32789894e-22
-3.640513659e-22
4.844405716e-22
-5.091477139e-22
4.333903636e-22
-6.361144164e-22
3.81595566e-22
-7.454203042e-22
3.30586831e-22
-8.378921697e-22
2.815092947e-22
-9.146015913e-22
2.351745658e-22
1.921154444e-22
-1.735611491e-42
-7.011261994e-44
-2.726444991e-42
-8.500843779e-44
-4.275924554e-41
-8.472129765e-43
-1.36153152e-39
-3.726230087e-41
-4.442154489e-38
-3.876586707e-39
-1.411352419e-36
-1.713232945e-37
-4.388808234e-35
-6.345019557e-36
-1.417946527e-33
-2.34272911e-34
-6.032676348e-32
-8.899083317e-33
-3.092165376e-30
-3.736579884e-31
-5.768946297e-29
-1.334410535e-29
-2.240220696e-28
-1.365379536e-28
-3.270235629e-28
-3.005980718e-28
-3.309331137e-28
-2.469560049e-28
-2.534261752e-28
-1.50513772e-28
-1.595980787e-28
-9.686104487e-29
-3.591692475e-28
-3.961608469e-29
-9.715056535e-28
-1.548744727e-28
-1.258669496e-27
-3.224545316e-28
-1.903499347e-27
-3.956277462e-28
-8.46706856e-27
-7.485842737e-28
-2.530182499e-26
-5.265580706e-27
-2.496147612e-26
-1.611562521e-26
-2.26791142e-26
-1.209763391e-26
-2.278365759e-26
-1.080110681e-26
-4.130412983e-26
-1.311427461e-26
-3.731720678e-26
-4.380722066e-26
-1.856509186e-26
-2.609255648e-26
-6.808632402e-27
-1.010031045e-26
-6.56468269e-27
-6.895552117e-27
-3.905869897e-26
-1.963020554e-26
-6.172962034e-25
-2.514012442e-25
-1.189811803e-24
-6.153941466e-24
-1.814748176e-25
-1.48022782e-23
-2.188226386e-31
-1.232957679e-24
-3.788409038e-33
-1.301828763e-32
-2.30199181e-33
-8.473093343e-33
0
-2.003714106e-30
0
-2.733936824e-27
4.003378246e-22
-1.566455227e-23
2.064341572e-21
-1.2454772e-21
2.006573071e-21
1.959236458e-22
1.895124362e-21
3.805467376e-22
1.737188695e-21
5.436294351e-22
1.542211641e-21
6.778465407e-22
1.320685266e-21
7.791235008e-22
1.083055444e-21
8.465074509e-22
8.388951567e-22
8.816193524e-22
5.963917647e-22
8.879047984e-22
3.621177857e-22
8.698752632e-22
1.410169405e-22
8.324594197e-22
-6.346942235e-23
7.805157533e-22
-2.491998094e-22
7.185095294e-22
-4.151015739e-22
6.503306166e-22
-5.609425115e-22
5.79218693e-22
-6.871231514e-22
5.077628114e-22
-7.944978405e-22
4.379474101e-22
-8.842268986e-22
3.712235051e-22
-9.576607127e-22
3.085902397e-22
2.506765045e-22
-2.70473091e-39
-1.640852724e-40
-2.698667654e-39
-1.397749865e-40
-3.581236341e-39
-1.361043482e-40
-4.795771943e-38
-7.565882494e-40
-1.500005465e-36
-2.460816368e-38
-4.862300405e-35
-1.164425389e-36
-1.550232721e-33
-7.671512681e-35
-4.899674174e-32
-3.059921273e-33
-1.720010915e-30
-1.128263554e-31
-7.951090205e-29
-4.297417293e-30
-3.036148085e-27
-1.607302507e-28
-4.164502352e-26
-4.923685335e-27
-1.696199177e-25
-7.04532677e-26
-2.635083214e-25
-2.853252837e-25
-2.169740595e-25
-4.621143322e-25
-7.307910363e-26
-3.227234396e-25
-1.116155631e-25
-3.075371781e-26
-3.231125648e-25
-3.00633142e-26
-3.746213982e-25
-1.083151307e-26
-3.279125038e-25
-4.31158826e-27
-6.993508789e-26
-2.665849581e-25
-1.654900405e-25
-2.510074282e-26
-3.205987662e-25
-6.656747526e-26
-4.056022664e-25
-1.270983588e-25
-5.821935192e-25
-1.872553064e-25
-7.153926427e-25
-2.78520884e-25
-4.946650998e-25
-2.736332606e-25
-4.772851948e-25
-2.742319716e-25
-4.97385029e-25
-4.101384839e-25
-7.76187833e-25
-8.617510011e-26
-5.353943785e-24
0
-1.967353199e-22
0
-1.319246904e-22
-1.921261428e-21
-7.614448162e-24
-6.00626437e-22
-2.161918089e-31
-2.030345319e-23
-8.114605596e-33
-2.275438171e-31
-3.982564878e-33
-1.509542065e-32
0
-3.438904933e-30
0
-4.278923189e-27
2.629751031e-22
-2.054171006e-23
2.260481545e-21
-1.728320653e-21
2.191209228e-21
2.651952781e-22
2.058207059e-21
5.135473441e-22
1.8714058e-21
7.304281288e-22
1.643488601e-21
9.057601679e-22
1.388069217e-21
1.034538353e-21
1.118167346e-21
1.116403858e-21
8.451806027e-22
1.154599703e-21
5.783622295e-22
1.154715887e-21
3.247019422e-22
1.123527457e-21
8.907327409e-23
1.068079221e-21
-1.254756462e-22
9.950549905e-22
-3.173787223e-22
9.104020442e-22
-4.862134975e-22
8.191538832e-22
-6.323983931e-22
7.253911965e-22
-7.569385527e-22
6.322897858e-22
-8.612217454e-22
5.422166991e-22
-9.468601641e-22
4.568475284e-22
-1.015574448e-21
3.772873151e-22
3.041849578e-22
-4.66209141e-36
-3.128981117e-37
-3.660210487e-36
-1.002401127e-36
-2.503743129e-36
-1.163605526e-36
-2.54758786e-36
-1.703594655e-37
-7.360091344e-36
-3.011632846e-37
-1.969209663e-34
-4.088443493e-36
-6.036004393e-33
-1.336050842e-34
-1.832552054e-31
-4.50609203e-33
-5.619571338e-30
-1.539545017e-31
-1.860341405e-28
-5.354026964e-30
-7.140650876e-27
-1.814529318e-28
-2.514197919e-25
-5.835509848e-27
-4.540325758e-24
-2.081899602e-25
-2.924826179e-23
-4.366558937e-24
-5.922496322e-23
-3.703951022e-23
-2.654250782e-23
-1.025228661e-22
-2.622036136e-23
-9.405199914e-24
-7.614640517e-23
0
-1.035275815e-22
0
-9.087012238e-23
0
-1.05090907e-23
-8.069027801e-23
-7.936588197e-25
-9.712878177e-24
-2.325666934e-24
-2.597746765e-25
-7.021405557e-24
-3.897205211e-24
-2.55998253e-23
0
-4.889605859e-23
0
-8.45232261e-24
-4.276566825e-23
-2.087240845e-23
-4.077183155e-24
-4.946202257e-23
0
-1.014465313e-22
0
-1.848800983e-21
0
-4.931573645e-21
-3.573986059e-20
-1.192072778e-21
-1.32634495e-20
-3.359658641e-23
-1.001582146e-21
-4.417658507e-29
-2.455226761e-23
-1.860263462e-32
-4.439588361e-29
-8.126421418e-33
-4.445972174e-32
0
-5.554515094e-30
0
-6.31303221e-27
9.931837573e-22
-2.743036762e-23
2.525859934e-21
-2.340679766e-21
2.439578857e-21
3.51475689e-22
2.275087844e-21
6.780367924e-22
2.046737839e-21
9.587755728e-22
1.772266786e-21
1.180227683e-21
1.469934721e-21
1.336865932e-21
1.156363191e-21
1.429969958e-21
8.452967873e-22
1.465659765e-21
5.471737992e-22
1.45283172e-21
2.692537068e-22
1.40143967e-21
1.604904328e-23
1.321275233e-21
-2.101285925e-22
1.221223088e-21
-4.086268832e-22
1.108889897e-21
-5.799761842e-22
9.904918834e-22
-7.254998038e-22
8.709027234e-22
-8.470116394e-22
7.537887619e-22
-9.465909161e-22
6.417823857e-22
-1.026420377e-21
5.366628555e-22
-1.088676805e-21
4.395270803e-22
3.509422102e-22
-6.382931505e-33
-6.139691742e-34
-4.998252489e-33
-1.2782899e-33
-3.721256291e-33
-1.281638415e-33
-2.102937131e-33
-1.620990047e-33
-5.792619145e-34
-1.542013703e-33
-8.312659801e-34
-3.035321771e-34
-8.774086807e-33
-2.498491497e-34
-2.319880738e-31
-6.999385381e-33
-6.45531738e-30
-2.238406966e-31
-1.799029206e-28
-7.171529541e-30
-5.40518051e-27
-2.255897962e-28
-2.055830667e-25
-7.205591126e-27
-7.807411975e-24
-1.101569142e-25
-1.2132978e-22
-1.42673141e-24
-5.85794637e-22
-2.25452665e-23
-1.760731197e-21
-1.473263878e-22
-4.004291571e-21
-4.66294493e-21
-1.589003778e-20
0
-2.506410049e-20
0
-2.157208588e-20
0
-2.350644085e-21
-1.931165357e-20
-8.109083304e-23
-2.245700087e-21
-1.241286597e-22
-6.729402127e-25
-5.128804518e-22
-8.066707414e-22
-3.187835941e-21
0
-7.160196313e-21
0
-8.641734767e-22
-6.68123039e-21
-1.865640627e-21
-2.050146574e-23
-6.216272244e-21
0
-2.330079518e-20
-4.455570619e-20
-8.686968239e-20
-3.727894554e-19
-2.91315974e-20
-1.575923679e-19
-2.401065829e-21
-3.058690612e-23
-3.840792891e-23
-6.940883826e-24
-4.700769919e-27
-2.267181343e-25
-1.100862254e-30
-4.744655318e-27
-3.343767422e-31
-4.671830306e-30
0
-9.821172181e-30
0
-8.591798148e-27
1.362775635e-21
-3.257170435e-23
2.877563005e-21
-3.124308736e-21
2.76616252e-21
4.628754782e-22
2.555826624e-21
8.883710544e-22
2.268189949e-21
1.24640962e-21
1.928905035e-21
1.519509013e-21
1.563038747e-21
1.7027277e-21
1.192052998e-21
1.800950275e-21
8.324687423e-22
1.825237752e-21
4.957817495e-22
1.7895117e-21
1.8908927e-22
1.708124398e-21
-8.400310249e-23
1.59435899e-21
-3.22461783e-22
1.459672213e-21
-5.27024897e-22
1.313442582e-21
-6.995653442e-22
1.163021113e-21
-8.426137653e-22
1.013939179e-21
-9.590180156e-22
8.701802695e-22
-1.051710446e-21
7.344612641e-22
-1.123556153e-21
6.084943129e-22
-1.177261675e-21
4.93216263e-22
3.889826056e-22
-8.66964742e-30
-4.159588252e-30
-5.929643435e-30
-1.993812502e-30
-4.200364876e-30
-1.731594346e-30
-2.258174404e-30
-1.945603524e-30
-6.27496367e-31
-1.632345415e-30
-1.289331229e-31
-4.991337854e-31
-2.192257518e-31
-1.392649244e-32
-3.043566401e-30
-1.456584564e-31
-6.369951156e-29
-2.882306269e-30
-1.651324762e-27
-1.09015186e-28
-2.706161122e-26
-8.248671626e-27
-2.142896551e-25
-1.229412655e-25
-1.982750423e-24
-4.733905534e-25
-2.554829436e-23
-1.786280193e-24
-1.425726427e-22
-1.624069026e-23
0
-6.258058712e-23
-2.94547075e-19
-3.072939715e-21
-2.77198016e-18
0
-5.310201185e-18
0
-4.453103817e-18
0
-4.442289615e-19
-4.029710729e-18
-2.355455297e-20
-4.154871036e-19
-7.326628015e-21
-1.623515899e-20
-3.514884181e-20
-1.305613686e-21
-3.624658046e-19
0
-9.256545541e-19
0
-8.633494826e-20
-8.953944922e-19
-1.285111336e-19
0
-1.906316195e-18
0
-2.092255855e-18
-2.839473663e-18
-8.941543979e-19
-1.773603777e-18
-1.869174674e-21
-1.048722407e-21
-1.30070879e-23
-1.92629955e-21
-2.650897946e-25
-2.21634248e-23
-3.9962875e-27
-5.153016415e-25
-2.09958012e-28
-1.580049872e-26
-7.158167146e-30
-1.247876938e-27
0
-3.32653509e-29
0
-1.172951052e-26
6.240868211e-22
-3.620379979e-23
3.340765275e-21
-4.130637079e-21
3.191686732e-21
6.119532593e-22
2.91386519e-21
1.166190862e-21
2.541289342e-21
1.618982742e-21
2.112123722e-21
1.948670967e-21
1.661261322e-21
2.153585518e-21
1.216340475e-21
2.245865675e-21
7.967426906e-22
2.244829314e-21
4.143944474e-22
2.171852977e-21
7.532386166e-23
2.047187174e-21
-2.186898788e-22
1.888363908e-21
-4.686914148e-22
1.709663944e-21
-6.774463653e-22
1.522186911e-21
-8.48647279e-22
1.334210675e-21
-9.863726744e-22
1.151652447e-21
-1.094737021e-21
9.785316662e-22
-1.177677398e-21
8.173878427e-22
-1.238834202e-21
6.696365491e-22
-1.281495333e-21
5.358613466e-22
4.160477363e-22
-1.247423458e-26
-8.766039257e-27
-1.001096067e-26
-1.010093077e-26
-5.496984416e-27
-5.33787025e-27
-2.131872036e-27
-2.66217564e-27
-5.620376263e-28
-1.561686021e-27
-6.734636883e-29
-4.934173203e-28
-8.830242362e-29
-8.826733102e-30
-4.554569074e-28
-6.372495046e-29
-4.447940134e-27
-4.748346669e-28
-8.199401941e-26
-3.209365679e-27
-1.04998057e-24
-4.434059096e-26
-6.073857762e-24
-4.094566109e-25
-2.380080124e-23
-2.826315408e-24
-6.322304654e-23
-1.339641738e-23
-6.876362879e-23
-7.857617932e-24
-3.155026741e-21
-5.781165505e-22
-1.310615451e-19
-2.080767725e-20
-2.51401096e-16
0
-1.610096786e-15
-6.858524893e-16
-1.770178023e-15
-1.963072987e-15
-3.087926588e-16
-1.36717323e-15
-1.311337987e-17
-6.0577807e-17
-4.706254104e-19
-1.265474794e-17
-4.979402482e-19
-1.207098748e-20
-3.980942097e-17
0
-1.95665873e-16
-3.896534367e-16
-1.549128936e-17
-9.286371663e-16
-1.247073992e-17
-2.92958453e-18
-8.208292281e-18
-2.413432934e-17
-7.161301276e-18
-3.556227273e-19
-5.109821686e-19
-2.444977552e-19
-5.493570761e-21
-5.087056582e-19
-9.116990594e-22
-6.585882846e-21
-3.598506054e-23
-9.374224818e-22
-4.986569522e-25
-3.886515076e-23
-2.592912791e-26
-7.839571346e-25
-1.258446433e-28
-7.62144283e-26
-2.069124368e-29
-2.508335033e-27
0
-2.87914572e-26
6.627402475e-22
-4.251541664e-23
3.953205442e-21
-5.423499162e-21
3.745960672e-21
8.191972001e-22
3.36665707e-21
1.545492634e-21
2.870977568e-21
2.114659421e-21
2.317038273e-21
2.502606509e-21
1.753541479e-21
2.717077669e-21
1.215304114e-21
2.784097586e-21
7.237663539e-22
2.736360857e-21
2.897286443e-22
2.605883629e-21
-8.349940396e-23
2.420407173e-21
-3.973898432e-22
2.202245201e-21
-6.561684478e-22
1.968432435e-21
-8.654226013e-22
1.731430185e-21
-1.031205507e-21
1.499981972e-21
-1.159493455e-21
1.279927982e-21
-1.255880845e-21
1.074905759e-21
-1.325428691e-21
8.869216197e-22
-1.372609405e-21
7.168024144e-22
-1.401308943e-21
5.645449049e-22
4.295815679e-22
-2.709851752e-24
-2.425346926e-25
-4.700367496e-24
-2.098905874e-24
-4.664943834e-24
-3.450891133e-24
-3.145657684e-24
-3.133914858e-24
-6.697773445e-25
-1.764294214e-24
-4.575677462e-26
-1.76245423e-25
-5.7088927e-26
-1.335688167e-27
-3.554812555e-25
-2.503202297e-26
-8.579310358e-25
-3.761619206e-25
-1.378500818e-24
-2.555705794e-25
-3.211931379e-24
0
-1.249186793e-23
-4.813777432e-25
-7.100731618e-23
-6.769845694e-24
-2.416952097e-21
-4.216190475e-22
-1.15469233e-20
-5.409013011e-20
0
0
0
-6.42658584e-17
-3.201604407e-15
-1.74845963e-15
-6.954431391e-15
-1.928134877e-15
-6.807414129e-15
-2.108694562e-15
-6.042454265e-15
-2.129993615e-15
-1.780435319e-15
-2.136494623e-15
-8.582638889e-17
-1.515994146e-15
-4.436246357e-17
-4.21898664e-17
-1.353225304e-15
-1.008759292e-15
-3.259472827e-15
-2.936500999e-15
-3.928786971e-15
-2.992535013e-15
-6.620491525e-16
-2.337512563e-15
-3.833234648e-18
-5.968407134e-20
-3.534561154e-18
-2.145957749e-19
-6.432273399e-19
-1.079967006e-17
-1.046890185e-19
-5.121769584e-19
-5.030158298e-20
-6.512283309e-20
-3.481543322e-21
-5.502548409e-20
-9.963964813e-23
-3.738469789e-21
-2.939249439e-24
-1.00222588e-22
-1.321914589e-26
-3.193050402e-24
-4.612428981e-27
-9.056019163e-26
0
-5.872623051e-26
1.511381071e-21
-4.958258999e-23
4.773127385e-21
-7.082971417e-21
4.472302483e-21
1.120021215e-21
3.935823857e-21
2.081969364e-21
3.258924655e-21
2.791555733e-21
2.531509433e-21
3.23001792e-21
1.820561397e-21
3.428021041e-21
1.167567384e-21
3.437086171e-21
5.932891259e-22
3.310632909e-21
1.042521882e-22
3.09491342e-21
-3.016613756e-22
2.826312499e-21
-6.312026095e-22
2.531777103e-21
-8.931706975e-22
2.230390258e-21
-1.096870815e-21
1.935119274e-21
-1.251259496e-21
1.654358828e-21
-1.364515678e-21
1.393171551e-21
-1.443864984e-21
1.15424158e-21
-1.495547896e-21
9.385903855e-22
-1.524866914e-21
7.461065236e-22
-1.53627228e-21
5.759340116e-22
4.267533712e-22
-1.776939973e-23
-2.051664457e-25
-1.143351622e-22
-3.400808244e-24
-3.20045246e-22
-2.98454841e-23
-4.57214969e-22
-1.427656143e-22
-2.984627444e-22
-3.308960794e-22
-4.920829886e-23
-8.916805888e-23
-2.400368195e-23
0
-5.770439467e-23
0
-2.232095884e-22
-1.142220234e-24
-2.458586978e-22
-8.982636057e-23
-1.78556573e-22
0
-1.832479669e-22
0
-3.226221987e-22
-7.535615792e-23
0
-3.368512616e-20
0
-1.628020325e-18
-1.858717939e-16
-1.622961228e-16
-7.109922523e-15
-1.020758502e-15
-7.003834208e-15
-1.854077519e-15
-6.895903322e-15
-2.035612398e-15
-6.75452852e-15
-2.249598937e-15
-6.859630464e-15
-2.023495984e-15
-7.79608568e-15
-1.176524937e-15
-3.43480328e-15
-2.23424086e-15
-2.814162996e-15
-1.399947167e-15
-4.866070894e-15
-2.627291376e-15
-4.6281662e-15
-3.114160205e-15
-4.382051462e-15
-3.17656498e-15
-2.47859883e-19
-2.051091609e-15
-2.170017386e-19
-6.237239643e-20
0
-1.001430848e-19
-5.211274194e-17
-2.780145871e-18
-9.311307189e-18
-2.37145261e-16
-4.137452345e-18
-5.514129213e-18
-3.147669822e-19
-4.512925157e-18
-1.632856348e-20
-3.322193775e-19
-6.005529037e-22
-1.610832799e-20
-3.846728244e-24
-6.206077894e-22
-1.007353458e-26
-3.957296443e-24
0
-1.06202009e-25
6.052663755e-22
-5.595787444e-23
5.894215202e-21
-9.211269815e-21
5.434310425e-21
1.579925073e-21
4.645410226e-21
2.870867636e-21
3.697386843e-21
3.739576196e-21
2.729512554e-21
4.197888396e-21
1.829626527e-21
4.327902471e-21
1.041114123e-21
4.225593273e-21
3.775696362e-22
3.974171284e-21
-1.643487323e-22
3.636824657e-21
-5.961967715e-22
3.258152291e-21
-9.325894547e-22
2.868160529e-21
-1.188441681e-21
2.486232302e-21
-1.377631261e-21
2.124297856e-21
-1.512446773e-21
1.789162494e-21
-1.603445649e-21
1.484157839e-21
-1.659516178e-21
1.21029878e-21
-1.688031758e-21
9.67091953e-22
-1.695039427e-21
7.530994876e-22
-1.68545292e-21
5.663312244e-22
4.045147532e-22
-9.892014799e-24
-1.631445759e-26
-1.600564847e-22
-4.810867283e-25
-1.122170455e-21
-6.428483034e-24
-4.395611548e-21
-6.974114945e-23
-1.102643171e-20
-5.674169972e-22
-1.196916252e-20
-5.963723308e-21
-2.499551195e-21
-7.668632979e-21
-2.433740218e-21
0
-7.344964847e-21
0
-3.069596591e-20
0
-7.742910748e-20
0
-7.76405977e-20
-1.165472628e-19
-3.70076672e-20
-1.822292941e-19
0
-8.743159825e-20
-1.994263694e-18
-6.706826171e-19
-2.889197937e-15
-6.507953938e-17
-6.931943249e-15
-2.029726197e-15
-6.825817752e-15
-1.959743553e-15
-6.722361515e-15
-2.138598209e-15
-7.017972434e-15
-1.952592331e-15
-2.772399976e-15
-9.430237825e-21
-9.956848325e-16
-2.956497896e-19
-2.415603611e-15
-1.535714101e-17
-3.789718033e-15
-6.215922036e-16
-4.918444189e-15
-1.391029608e-15
-5.404524709e-15
-2.567834197e-15
-2.955765247e-15
-1.694602738e-15
-1.786561008e-19
-1.873485276e-19
-1.469683e-19
-6.53312467e-20
-1.454885709e-19
-7.954886253e-20
-1.734080607e-18
-1.196972348e-18
-5.255426375e-16
-1.811254112e-16
-6.411552244e-16
-1.851688275e-15
-7.982464769e-17
-4.021975666e-15
-2.025102112e-18
-2.376678527e-16
-7.907155541e-20
-1.941735773e-18
-9.970226548e-22
-7.713679481e-20
-4.881904185e-24
-9.973979675e-22
-1.9927453e-25
-4.824945755e-24
-2.065427143e-22
-6.241144458e-23
7.475679197e-21
-1.194257812e-20
6.725331319e-21
2.33027203e-21
5.514118786e-21
4.082078239e-21
4.155699042e-21
5.09799304e-21
2.859526629e-21
5.494057077e-21
1.727317329e-21
5.460107336e-21
7.896921342e-22
5.163213345e-21
4.022300889e-23
4.723634423e-21
-5.43021098e-22
4.220061751e-21
-9.861885338e-22
3.701311656e-21
-1.314517682e-21
3.196480706e-21
-1.550376127e-21
2.722080863e-21
-1.712766623e-21
2.286677508e-21
-1.817451428e-21
1.893835629e-21
-1.877304709e-21
1.54399876e-21
-1.902723004e-21
1.23570407e-21
-1.902024224e-21
9.663792135e-22
-1.88180769e-21
7.328681838e-22
-1.847269391e-21
5.317768537e-22
3.59696725e-22
-4.732307318e-25
-9.821913607e-28
-8.847205204e-24
-1.298471727e-26
-9.586656821e-23
-1.221647333e-25
-1.058143058e-21
-7.652110968e-25
-1.762490241e-20
-1.499186258e-23
-1.721765326e-19
-6.769279966e-22
-3.786683457e-19
-2.764237031e-20
-2.067705178e-19
0
-2.589672689e-19
0
-4.050676456e-19
0
-1.152946039e-18
0
-1.924408309e-18
-3.117155165e-20
-8.972440611e-19
-3.820704331e-19
0
-2.53449562e-20
-6.769431944e-19
-6.048432775e-20
-7.858118216e-16
-4.3442336e-18
-5.885098061e-15
-5.7013844e-16
-6.846522835e-15
-9.978139583e-16
-6.74633775e-15
-2.236256166e-15
-2.185723664e-20
-9.949234789e-20
-2.507748321e-20
-1.388399789e-20
-3.086623165e-19
-2.004166646e-20
-1.564454339e-17
-2.890477162e-20
-6.355567714e-16
-1.726951295e-18
-1.674393824e-15
-1.020966489e-17
-6.470583341e-16
-1.637760691e-17
-9.505443596e-20
-1.309367404e-17
-7.896844042e-20
-1.747055725e-19
-6.578974565e-20
-5.042295775e-20
0
-7.168456019e-20
-9.943602205e-19
-1.335532703e-19
-2.709385679e-16
-1.401707635e-17
-2.407689693e-15
-1.822991198e-15
-1.228296302e-15
-4.274428324e-15
-3.113428809e-16
-3.227310576e-15
-6.741676896e-18
-4.808757946e-16
-1.158722386e-19
-6.832349182e-18
-1.923374976e-21
-1.154185446e-19
-4.433600132e-25
-1.929378294e-21
1.238012744e-21
-6.064421941e-23
9.808035422e-21
-1.546039486e-20
8.477242931e-21
3.6610636e-21
6.530033587e-21
6.029285679e-21
4.55176308e-21
7.076260721e-21
2.825576887e-21
7.220239665e-21
1.430423338e-21
6.855256608e-21
3.501132123e-22
6.243518488e-21
-4.633496625e-22
5.537091422e-21
-1.061771193e-21
4.818476435e-21
-1.491019484e-21
4.130552165e-21
-1.788917524e-21
3.494370028e-21
-1.985779482e-21
2.918933284e-21
-2.105608502e-21
2.406495985e-21
-2.167288298e-21
1.955503963e-21
-2.185599399e-21
1.562297501e-21
-2.17204786e-21
1.222139373e-21
-2.135535253e-21
9.298524187e-22
-2.08289902e-21
6.802168341e-22
-2.01934952e-21
4.682112777e-22
2.891514392e-22
-5.882157051e-26
-9.295523476e-28
-3.622891795e-25
-2.656704384e-27
-3.392806598e-24
-9.480120813e-26
-1.234298366e-23
-8.190873252e-25
-3.672274542e-23
-1.512051878e-23
-1.27397376e-21
-3.125149607e-22
-2.219454243e-18
-7.971940135e-21
-2.979840084e-17
0
-1.439540038e-16
0
-1.170621975e-16
-3.544923621e-16
-2.584451623e-18
-1.450968924e-18
-3.31035595e-18
0
-1.085162776e-19
-1.958870337e-20
-1.727469289e-19
-2.270858096e-20
0
-4.021999261e-20
-3.866733477e-18
-2.808395021e-19
-1.360109674e-15
-2.28065517e-17
-2.041872623e-15
-1.980137735e-16
-1.206562064e-19
-1.184440836e-16
-2.957069634e-20
-1.976177885e-19
-2.075313565e-20
-3.067826872e-20
-2.017821332e-20
-2.899201076e-20
-3.375234121e-20
-2.39071111e-20
-1.719800167e-19
-1.597406167e-18
-3.550040252e-19
-1.007361661e-17
-3.333945469e-19
-1.656279698e-17
-2.327086477e-19
-1.321145341e-17
-7.948220612e-20
-3.007793376e-19
-5.851609877e-20
0
-1.314770225e-20
-1.234245498e-20
-9.483658161e-20
-3.817157389e-20
-1.388935883e-17
-2.048525163e-19
-9.793853702e-16
-2.396453619e-17
-1.481976549e-15
-1.019369443e-15
-2.438024214e-15
-5.857142483e-15
-9.515616122e-16
-5.571590784e-15
-4.658548357e-17
-2.723312435e-15
-3.403175346e-19
-4.644025778e-17
-4.473395018e-25
-3.426776479e-19
1.09388973e-21
-6.816911812e-23
1.347126379e-20
-2.002945245e-20
1.084561358e-20
6.286712907e-21
7.57700863e-21
9.297888778e-21
4.695742025e-21
9.95752458e-21
2.460593831e-21
9.455384362e-21
8.18685219e-22
8.497161054e-21
-3.563138534e-22
7.418512646e-21
-1.18196465e-21
6.362736424e-21
-1.749695463e-21
5.386200439e-21
-2.127201621e-21
4.508050789e-21
-2.364354268e-21
3.731514171e-21
-2.498216781e-21
3.052786318e-21
-2.556600524e-21
2.464869363e-21
-2.56049476e-21
1.959387071e-21
-2.525757527e-21
1.527548194e-21
-2.464334815e-21
1.160703538e-21
-2.385170838e-21
8.506744156e-22
-2.294904576e-21
5.899356235e-22
-2.198409359e-21
3.717000799e-22
1.899380369e-22
-5.626964649e-26
-1.983341692e-27
-1.288358034e-25
-3.732577081e-27
-2.603009562e-24
-1.740208823e-25
-1.123012939e-23
-4.277311012e-24
-5.308172268e-24
-1.441189784e-22
0
-4.812342292e-21
0
-1.757893584e-19
-8.758889313e-16
0
-1.123073599e-14
-1.332683988e-15
-1.700935669e-14
-3.213557401e-15
-3.876511853e-15
-1.849502865e-15
-1.243752349e-19
-5.011523373e-16
-1.263005387e-19
-2.044529265e-20
-1.259619904e-19
-2.577413434e-20
-2.518811346e-19
-5.924191856e-20
-1.05453348e-18
0
-4.126539842e-18
-2.0820971e-17
-2.063046715e-18
-1.981352516e-16
-7.643341654e-19
-1.189702666e-16
-7.18828225e-20
-5.773714743e-19
-1.764532594e-19
-1.857466189e-20
0
-1.964603505e-19
-3.340429333e-21
-2.768301094e-20
-5.624843311e-18
-3.611958461e-18
-1.463250348e-17
-1.821448408e-17
-2.045179252e-17
-2.297031357e-17
-1.636304195e-17
-2.585141443e-17
-4.033156207e-18
-1.932474839e-17
-4.188259333e-20
-5.087969787e-18
-3.084508504e-20
-1.223697261e-20
-2.24790697e-20
-3.267024196e-20
-1.496754133e-19
-6.371533147e-20
-2.394763235e-17
-1.488776681e-19
-1.03383593e-15
-9.23095446e-18
-2.777255389e-15
-8.025764405e-16
-3.399763243e-15
-7.011043415e-15
-1.892544404e-15
-6.188398192e-15
-8.905664026e-17
-3.974597551e-15
-6.570471465e-25
-8.939974888e-17
4.318712601e-24
-7.803657536e-23
1.975957686e-20
-2.605952672e-20
1.385702677e-20
1.218926216e-20
8.236644433e-21
1.491826931e-20
4.193601808e-21
1.400056453e-20
1.502370522e-21
1.214661223e-20
-2.599631882e-22
1.025949066e-20
-1.412090076e-21
8.570634566e-21
-2.158500635e-21
7.109141226e-21
-2.627845113e-21
5.855538013e-21
-2.903738239e-21
4.783936179e-21
-3.043082121e-21
3.870849716e-21
-3.086133736e-21
3.095828769e-21
-3.062082815e-21
2.440808373e-21
-2.992333637e-21
1.889626848e-21
-2.892602183e-21
1.427804634e-21
-2.774363937e-21
1.042452106e-21
-2.64590963e-21
7.222062154e-22
-2.51314012e-21
4.571513781e-22
-2.380171402e-21
2.387156407e-22
5.954731691e-23
-4.160569808e-26
-1.466081187e-26
-8.101046676e-25
-1.103346542e-25
-9.863268375e-24
-1.609212106e-24
-7.511239361e-24
-7.633309272e-23
0
-4.237518441e-21
0
-2.492389691e-19
0
-1.919286869e-17
-1.072753687e-14
-7.857698651e-16
-2.199268438e-14
-2.874694737e-15
-2.190541425e-14
-3.154977565e-15
-1.719153144e-14
-4.35202795e-15
-1.95388825e-19
-1.900424795e-20
-1.861055214e-19
-2.13592357e-20
-1.764370001e-19
-3.82236731e-20
0
-5.432278832e-19
-1.459592855e-16
-6.131629632e-17
-4.063684607e-16
-2.979629705e-16
-5.268343215e-16
-3.38548515e-16
-1.799756656e-16
-3.176468697e-16
-1.184732096e-18
-1.174150182e-16
-5.447151965e-19
-5.925601766e-19
0
-5.026412007e-23
-2.583282277e-20
-1.198839633e-21
-2.141961188e-17
-4.646064578e-19
-2.810468761e-17