/*--------------------------------*- C++ -*----------------------------------*\
  =========                 |
  \\      /  F ield         | OpenFOAM: The Open Source CFD Toolbox
   \\    /   O peration     | Website:  https://openfoam.org
    \\  /    A nd           | Version:  10
     \\/     M anipulation  |
\*---------------------------------------------------------------------------*/
FoamFile
{
    format      ascii;
    class       volScalarField;
    location    "0.0003";
    object      Qv;
}
// * * * * * * * * * * * * * * * * * * * * * * * * * * * * * * * * * * * * * //

dimensions      [1 0 -3 0 0 0 0];

internalField   nonuniform List<scalar> 
3600
(
3.530948425e-41
5.555700644e-41
1.233525425e-40
3.530584801e-40
1.210264029e-39
4.683789699e-39
1.952363717e-38
8.443292843e-38
3.676651502e-37
1.573464459e-36
6.486561388e-36
2.532162587e-35
9.219412847e-35
3.087352535e-34
9.383508039e-34
2.555093771e-33
6.153909877e-33
1.294512728e-32
2.348985833e-32
3.632523117e-32
4.730642048e-32
5.126189514e-32
4.563396188e-32
3.289938639e-32
1.889230324e-32
8.47482065e-33
2.903190257e-33
7.398403909e-34
1.360848266e-34
1.744762466e-35
1.497192672e-36
8.199764811e-38
2.711254969e-39
5.073092255e-41
4.98474761e-43
2.361868556e-45
4.905059599e-48
4.023803886e-51
1.170151313e-54
1.088322375e-58
1.076914528e-58
1.059143359e-58
1.030269638e-58
9.919194369e-59
9.461593923e-59
8.952523171e-59
8.414252078e-59
7.866857832e-59
7.327054834e-59
6.807691599e-59
6.317793342e-59
5.862973422e-59
5.446038012e-59
5.067643291e-59
4.726911205e-59
4.421953181e-59
4.150284044e-59
3.909129408e-59
3.695640875e-59
3.507037418e-59
5.447393505e-41
8.634869183e-41
1.942775408e-40
5.660376559e-40
1.982082942e-39
7.857182453e-39
3.362091844e-38
1.495360074e-37
6.708148308e-37
2.962331114e-36
1.262234174e-35
5.101643383e-35
1.926492018e-34
6.702217769e-34
2.119349725e-33
6.010787355e-33
1.508769369e-32
3.307627073e-32
6.25099009e-32
1.005642637e-31
1.360623207e-31
1.529807823e-31
1.411419514e-31
1.053274366e-31
6.249539958e-32
2.88855925e-32
1.015315666e-32
2.639889142e-33
4.919185508e-34
6.334439957e-35
5.402670235e-36
2.903819081e-37
9.27676541e-39
1.645219182e-40
1.496610416e-42
6.379255597e-45
1.15076676e-47
7.854744758e-51
1.80200081e-54
1.236379616e-58
1.222967621e-58
1.200954507e-58
1.164943449e-58
1.117137011e-58
1.060312096e-58
9.974703233e-59
9.315149806e-59
8.65006035e-59
8.000153327e-59
7.380774159e-59
6.802142941e-59
6.270063908e-59
5.786840866e-59
5.35220797e-59
4.96415951e-59
4.619625199e-59
4.314981195e-59
4.046412361e-59
3.810152448e-59
3.602631022e-59
1.273282481e-40
2.047358813e-40
4.725500295e-40
1.424736112e-39
5.197217191e-39
2.157295367e-38
9.70545242e-38
4.554012854e-37
2.161851727e-36
1.013278032e-35
4.596620933e-35
1.984282266e-34
8.029323817e-34
3.002829053e-33
1.023618078e-32
3.136232236e-32
8.513438989e-32
2.01789875e-31
4.116597107e-31
7.130012672e-31
1.03547183e-30
1.24643226e-30
1.228835004e-30
9.781738946e-31
6.174241227e-31
3.021440025e-31
1.116037285e-31
3.018105096e-32
5.774712942e-33
7.518563567e-34
6.364070941e-35
3.317598222e-36
9.988705763e-38
1.61046754e-39
1.273219295e-41
4.459933283e-44
6.168340394e-47
2.960865561e-50
4.284626975e-54
1.612318324e-58
1.593656792e-58
1.559974071e-58
1.504295209e-58
1.430560711e-58
1.343657484e-58
1.248734478e-58
1.150602842e-58
1.053318684e-58
9.599772245e-59
8.726908978e-59
7.926944622e-59
7.205158956e-59
6.561636419e-59
5.992982932e-59
5.493730251e-59
5.057388422e-59
4.677175702e-59
4.346485901e-59
4.059159119e-59
3.809615019e-59
4.354309431e-40
7.144170583e-40
1.709502238e-39
5.409144858e-39
2.090071715e-38
9.254267766e-38
4.465241802e-37
2.257050932e-36
1.158779956e-35
5.896678179e-35
2.915955758e-34
1.37815985e-33
6.13363389e-33
2.534475269e-32
9.585043493e-32
3.268199494e-31
9.887695579e-31
2.610306693e-30
5.913117669e-30
1.131649793e-29
1.80623185e-29
2.380150634e-29
2.564248227e-29
2.228809532e-29
1.533162411e-29
8.134051495e-30
3.22617912e-30
9.241124519e-31
1.842027797e-31
2.450890295e-32
2.071692168e-33
1.04760757e-34
2.946857522e-36
4.227555237e-38
2.792412477e-40
7.539532552e-43
7.25359202e-46
2.124717516e-49
1.58469802e-53
2.461130361e-58
2.429983045e-58
2.366321193e-58
2.260049912e-58
2.120231323e-58
1.957817771e-58
1.783904983e-58
1.608320264e-58
1.438775386e-58
1.280595026e-58
1.136883184e-58
1.008938081e-58
8.967476296e-59
7.994527117e-59
7.157221484e-59
6.440251191e-59
5.828108519e-59
5.306153221e-59
4.861158723e-59
4.481516236e-59
4.157232139e-59
2.075719215e-39
3.491249562e-39
8.733127309e-39
2.932138943e-38
1.215644429e-37
5.822797566e-37
3.057860738e-36
1.690289538e-35
9.529393549e-35
5.346950506e-34
2.928741099e-33
1.541096635e-32
7.679619483e-32
3.573969713e-31
1.530680338e-30
5.936110501e-30
2.047043921e-29
6.153290131e-29
1.57923121e-28
3.394784338e-28
6.029725319e-28
8.792063099e-28
1.048032918e-27
1.01063825e-27
7.723476209e-28
4.534827417e-28
1.96882867e-28
6.072166926e-29
1.279428816e-29
1.764985728e-30
1.512010988e-31
7.520729303e-33
1.997357008e-34
2.557434603e-36
1.39736081e-38
2.820631587e-41
1.775215106e-44
2.852589278e-48
9.23444119e-53
4.532724593e-58
4.468889611e-58
4.318545331e-58
4.066123929e-58
3.738190967e-58
3.365686185e-58
2.978247486e-58
2.600144885e-58
2.248413727e-58
1.932908443e-58
1.65755335e-58
1.422046741e-58
1.223492047e-58
1.057693071e-58
9.200506874e-59
8.061096587e-59
7.118445893e-59
6.337732328e-59
5.689672443e-59
5.150092387e-59
4.699270155e-59
1.301548553e-38
2.251523702e-38
5.922314626e-38
2.126248513e-37
9.542185989e-37
4.990233671e-36
2.878362196e-35
1.755069834e-34
1.09535616e-33
6.828983117e-33
4.174725397e-32
2.465432434e-31
1.388049903e-30
7.351895646e-30
3.609792361e-29
1.614893045e-28
6.447689292e-28
2.242341432e-27
6.610643932e-27
1.60825953e-26
3.178591089e-26
5.112845236e-26
6.754546881e-26
7.293377135e-26
6.293683377e-26
4.170580267e-26
2.016891272e-26
6.782821715e-27
1.52889568e-27
2.2226556e-28
1.972829884e-29
9.915403354e-31
2.560131742e-32
3.008194479e-34
1.388147291e-36
2.106953513e-39
8.496716981e-43
7.023293885e-47
8.633705803e-52
1.050546187e-57
1.033901811e-57
9.883019128e-58
9.117879995e-58
8.144344092e-58
7.073848303e-58
6.005035923e-58
5.00980578e-58
4.130018397e-58
3.381797942e-58
2.763162297e-58
2.261659177e-58
1.860310386e-58
1.541478743e-58
1.288978292e-58
1.088966518e-58
9.301115785e-59
8.033914385e-59
7.017471911e-59
6.197122991e-59
5.530751223e-59
1.007167967e-37
1.795476004e-37
4.983978709e-37
1.922243207e-36
9.384565448e-36
5.383528178e-35
3.423593072e-34
2.308503326e-33
1.596699248e-32
1.10594046e-31
7.539937389e-31
4.994373882e-30
3.178026846e-29
1.919843068e-28
1.085691892e-27
5.646181435e-27
2.63874639e-26
1.075996645e-25
3.690725507e-25
1.017891392e-24
2.206216457e-24
3.832529249e-24
5.559200073e-24
6.752551372e-24
6.695224721e-24
5.127046397e-24
2.810489331e-24
1.035329689e-24
2.507174978e-25
3.900654779e-26
3.687008626e-27
1.943962949e-28
5.105464499e-30
5.784129176e-32
2.366744257e-34
2.813543855e-37
7.425063206e-41
3.101360406e-45
1.3255729e-50
3.237557973e-57
3.179551026e-57
2.993788751e-57
2.684821534e-57
2.303854332e-57
1.903629011e-57
1.525837881e-57
1.195744767e-57
9.232650439e-58
7.074249499e-58
5.412898837e-58
4.157688363e-58
3.219202833e-58
2.520363135e-58
1.99952346e-58
1.609587583e-58
1.315572985e-58
1.091919541e-58
9.201078082e-59
7.867555093e-59
6.821788506e-59
9.006296958e-37
1.656014097e-36
4.859194014e-36
2.017442909e-35
1.073482398e-34
6.761856931e-34
4.738356876e-33
3.523672145e-32
2.687112611e-31
2.052691162e-30
1.547278652e-29
1.139546025e-28
8.133168683e-28
5.57324046e-27
3.622068331e-26
2.1951306e-25
1.210861371e-24
5.875490404e-24
2.400497931e-23
7.527560303e-23
1.729092543e-22
3.080032615e-22
4.814021614e-22
6.598322108e-22
7.708752144e-22
7.089205935e-22
4.506643773e-22
1.791849992e-22
4.602932242e-23
7.764368542e-24
8.071081489e-25
4.673630502e-26
1.321984275e-27
1.542354393e-29
6.007082776e-32
6.003612564e-35
1.101643707e-38
2.397047246e-43
3.435351727e-49
1.421361918e-56
1.392546707e-56
1.284416022e-56
1.107931175e-56
8.998823631e-57
6.945836024e-57
5.149416448e-57
3.707920495e-57
2.62146874e-57
1.837776445e-57
1.288487408e-57
9.097874008e-58
6.504549317e-58
4.727256291e-58
3.501374736e-58
2.646953946e-58
2.043565556e-58
1.6111249e-58
1.296351203e-58
1.063610316e-58
8.888657485e-59
8.724726267e-36
1.654760305e-35
5.134152753e-35
2.295403309e-34
1.331045959e-33
9.194265795e-33
7.075229211e-32
5.765145308e-31
4.79810925e-30
3.98717216e-29
3.270085928e-28
2.634440255e-27
2.077749123e-26
1.59500737e-25
1.180928262e-24
8.319527724e-24
5.449783656e-23
3.174909815e-22
1.497491986e-21
4.800934685e-21
1.167494919e-20
2.206298238e-20
3.687301801e-20
5.71883025e-20
8.187741317e-20
9.645777702e-20
7.290568569e-20
3.026897527e-20
7.868577317e-21
1.467691203e-21
1.745944379e-22
1.16955261e-23
3.80232705e-25
4.930720033e-27
1.98990854e-29
1.835069567e-32
2.574788617e-36
3.15566872e-41
1.548761851e-47
9.659663696e-56
9.438771595e-56
8.466298015e-56
6.927903186e-56
5.223860679e-56
3.678595331e-56
2.456471248e-56
1.580235008e-56
9.941409812e-57
6.199506349e-57
3.8763801e-57
2.452733039e-57
1.581416695e-57
1.04407116e-57
7.08000263e-58
4.939035335e-58
3.545982077e-58
2.618919259e-58
1.987665653e-58
1.548022283e-58
1.235111318e-58
8.613513638e-35
1.684365279e-34
5.523395961e-34
2.65805354e-33
1.678462236e-32
1.269063869e-31
1.067931307e-30
9.457220481e-30
8.473223691e-29
7.511076874e-28
6.547387548e-27
5.635022113e-26
4.807247745e-25
4.056190894e-24
3.366359004e-23
2.733737531e-22
2.14403867e-21
1.286346754e-20
4.767114018e-20
1.401247032e-19
3.700572105e-19
9.257441261e-19
2.067538782e-18
3.735848013e-18
6.392311044e-18
7.52041051e-18
6.124848003e-18
3.407676176e-18
1.031975715e-18
2.287599373e-19
3.276609069e-20
2.676681114e-21
1.071949679e-22
1.677177319e-24
7.659789608e-27
7.237730815e-30
8.776141184e-34
6.855703092e-39
1.251861599e-45
1.11904173e-54
1.09035209e-54
9.420938146e-55
7.182286494e-55
4.903261608e-55
3.056319522e-55
1.777693724e-55
9.863300979e-56
5.329241003e-56
2.855577008e-56
1.540617247e-56
8.469349828e-57
4.786101786e-57
2.796941537e-57
1.696283438e-57
1.069353567e-57
7.007991288e-58
4.769614339e-58
3.365417443e-58
2.456482875e-58
1.85037949e-58
8.192430598e-34
1.650582192e-33
5.716658645e-33
2.960250824e-32
2.035586655e-31
1.684072694e-30
1.546281343e-29
1.478098499e-28
1.404562367e-27
1.294960869e-26
1.161439361e-25
1.034699012e-24
9.30143531e-24
8.417717359e-23
7.62096933e-22
6.945365673e-21
5.398375464e-20
2.441671053e-19
8.177674383e-19
2.493897124e-18
7.063689059e-18
2.018970303e-17
5.721224842e-17
1.483447447e-16
2.563221346e-16
3.029744159e-16
2.718835769e-16
1.865033024e-16
9.262702586e-17
2.73720065e-17
4.89486813e-18
5.007138397e-19
2.699563459e-20
5.57706148e-22
3.101965505e-24
3.327640165e-27
4.020715928e-31
2.365083e-36
1.863857533e-43
2.459574598e-53
2.389479646e-53
1.964201118e-53
1.362884927e-53
8.158373549e-54
4.33324982e-54
2.105868212e-54
9.652666227e-55
4.291180173e-55
1.895351625e-55
8.482856369e-56
3.905982179e-56
1.870699644e-56
9.385941585e-57
4.953283856e-57
2.75357779e-57
1.611797852e-57
9.916674448e-58
6.396054169e-58
4.310959448e-58
3.026046836e-58
7.135568696e-33
1.479943684e-32
5.409828551e-32
3.015364874e-31
2.262174582e-30
2.054625478e-29
2.065310751e-28
2.130177094e-27
2.121995561e-26
1.970720876e-25
1.734333079e-24
1.533050255e-23
1.415177059e-22
1.341237348e-21
1.270055607e-20
1.150253099e-19
7.237661659e-19
3.182123632e-18
1.191597685e-17
3.810505104e-17
1.189075085e-16
4.112285201e-16
1.386621301e-15
3.664361955e-15
6.587985807e-15
9.380737422e-15
1.015133903e-14
9.187343364e-15
6.693129443e-15
2.613524782e-15
5.659626578e-16
6.600401309e-17
4.652344942e-18
1.532605957e-19
1.20476398e-21
1.601616867e-24
2.262491036e-28
1.235976773e-33
5.221336611e-41
1.148357565e-51
1.112363359e-51
8.558903228e-52
5.244334355e-52
2.643538189e-52
1.141510366e-52
4.407531398e-53
1.585709063e-53
5.515590685e-54
1.913625487e-54
6.790141203e-55
2.5111102e-55
9.808219522e-56
4.080441598e-56
1.816021966e-56
8.656833178e-57
4.41491509e-57
2.402133878e-57
1.389037949e-57
8.498714116e-58
5.47643592e-58
5.440647212e-32
1.160237692e-31
4.472116498e-31
2.685261137e-30
2.206660722e-29
2.218935453e-28
2.474134264e-27
2.794215443e-26
2.928124484e-25
2.630502866e-24
2.094855532e-23
1.724472071e-22
1.617609726e-21
1.603997003e-20
1.542906908e-19
1.327200391e-18
7.961723571e-18
3.829405886e-17
1.589779255e-16
6.172290588e-16
2.813008139e-15
1.266375874e-14
4.306659596e-14
1.045054869e-13
2.091875693e-13
3.407443665e-13
4.76093757e-13
5.756657923e-13
4.580822869e-13
2.103651783e-13
5.287609947e-14
6.453029744e-15
4.091519806e-16
1.672266554e-17
2.567795083e-19
7.0328365e-22
1.413334091e-25
9.277891922e-31
2.79875235e-38
1.273760302e-49
1.23038316e-49
8.671327728e-50
4.512092104e-50
1.820709749e-50
6.038678162e-51
1.746230893e-51
4.650015014e-52
1.195784948e-52
3.08861516e-53
8.26404331e-54
2.343592909e-54
7.156018996e-55
2.375443858e-55
8.612246835e-56
3.412800946e-56
1.475051915e-56
6.925145521e-57
3.512910784e-57
1.913974283e-57
1.113171783e-57
3.490545951e-31
7.639056911e-31
3.098567142e-30
2.004271226e-29
1.812488598e-28
2.043464518e-27
2.591677841e-26
3.340960379e-25
3.883823041e-24
3.198889868e-23
1.953768238e-22
1.335458725e-21
1.33306824e-20
1.468379439e-19
1.527206425e-18
1.354434236e-17
9.122679146e-17
4.985814637e-16
2.501814325e-15
1.399412606e-14
7.862734382e-14
3.59494226e-13
1.310398605e-12
3.737184996e-12
8.38769083e-12
1.554362108e-11
2.544393286e-11
3.143972081e-11
2.65593539e-11
1.400860306e-11
4.182621205e-12
6.05266024e-13
3.457138433e-14
1.01904857e-15
1.72332744e-17
1.013293098e-19
7.400634233e-23
9.547865097e-28
2.934327567e-35
3.717492891e-47
3.581706147e-47
2.24367951e-47
9.417131179e-48
2.856347389e-48
6.804670573e-49
1.378604602e-49
2.548388308e-50
4.5603632e-51
8.28671081e-52
1.586392068e-52
3.286679646e-53
7.50413994e-54
1.90858333e-54
5.433168011e-55
1.731303091e-55
6.155135686e-56
2.427760025e-56
1.054924053e-56
5.010962866e-57
2.581462147e-57
1.821228948e-30
4.077096423e-30
1.732619736e-29
1.20347392e-28
1.199110242e-27
1.53175319e-26
2.273458251e-25
3.555949681e-24
3.507611596e-23
1.763013851e-22
8.125121046e-22
5.569648313e-21
7.538484908e-20
1.041779828e-18
1.278404258e-17
1.31821146e-16
1.098580141e-15
7.419384306e-15
4.613865097e-14
2.882176903e-13
1.603425587e-12
7.623836289e-12
3.007902296e-11
9.690649384e-11
2.539080334e-10
5.432974478e-10
9.451099773e-10
1.255180587e-09
1.1850162e-09
7.364341424e-10
2.730148563e-10
5.2251429e-11
4.127747768e-12
1.000681262e-13
8.962229873e-16
3.940429364e-18
6.247122452e-21
6.022477008e-25
6.307499039e-32
3.104861914e-44
2.984622421e-44
1.589124879e-44
5.016797505e-45
1.057976877e-45
1.676779736e-46
2.215709791e-47
2.66261051e-48
3.122158748e-49
3.776306263e-50
4.914387601e-51
7.093896798e-52
1.159104481e-52
2.169075507e-53
4.671038004e-54
1.156818246e-54
3.279701658e-55
1.056706306e-55
3.834851015e-56
1.55237441e-56
6.940755047e-57
7.513292422e-30
1.711688444e-29
7.558605586e-29
5.58654086e-28
6.087004125e-27
8.788399353e-26
1.535136408e-24
2.240236347e-23
1.198260027e-22
4.87889244e-22
2.156089531e-21
1.554680448e-20
3.144143794e-19
5.933452981e-18
8.864330618e-17
1.087009315e-15
1.079418411e-14
8.71156563e-14
6.192325507e-13
4.018474412e-12
2.310484043e-11
1.167988793e-10
4.998293747e-10
1.780271903e-09
5.223804549e-09
1.252800487e-08
2.411777802e-08
3.585874137e-08
3.910912099e-08
2.935320103e-08
1.389468213e-08
3.651990336e-09
4.390684104e-10
1.789129216e-11
1.477817898e-13
2.271909454e-16
1.652861059e-19
3.632350009e-23
7.335180999e-29
7.89901813e-41
7.56933682e-41
3.180010562e-41
6.840013866e-42
9.11348656e-43
8.839266027e-44
7.096803717e-45
5.217115861e-46
3.799908881e-47
2.914761556e-48
2.465616022e-49
2.377617478e-50
2.671876079e-51
3.543292662e-52
5.571853442e-53
1.037596903e-53
2.27489606e-54
5.819910204e-55
1.718651257e-55
5.789908637e-56
2.198794209e-56
2.398649722e-29
5.521168826e-29
2.501657991e-28
1.934978157e-27
2.261596262e-26
3.62244544e-25
7.084434921e-24
6.005691522e-23
2.536185741e-22
1.018007529e-21
4.551804955e-21
4.770384808e-20
1.364576905e-18
2.933948791e-17
5.01776571e-16
6.995852207e-15
7.68838917e-14
6.944857264e-13
5.470523249e-12
3.785941806e-11
2.346591422e-10
1.289404292e-09
6.003323921e-09
2.342900347e-08
7.594799208e-08
2.024299055e-07
4.35995365e-07
7.378470484e-07
9.446059619e-07
8.674367266e-07
5.306390557e-07
1.936668907e-07
3.552874137e-08
2.496656996e-09
4.302028847e-11
8.60011767e-14
1.227934542e-17
6.945111659e-22
6.229604108e-27
6.416460477e-37
6.11490863e-37
1.758186807e-37
2.229530115e-38
1.67586008e-39
9.156086025e-41
4.20266128e-42
1.803528475e-43
7.849784385e-45
3.689348982e-46
1.963721393e-47
1.225494676e-48
9.178399132e-50
8.36118669e-51
9.311289179e-52
1.265523076e-52
2.085041568e-53
4.121555516e-54
9.652974299e-55
2.642295469e-55
8.336300512e-56
5.845200865e-29
1.347294976e-28
6.161674229e-28
4.870684179e-27
5.910068298e-26
9.994000244e-25
1.842582705e-23
1.162082317e-22
4.685374753e-22
1.871751102e-21
1.014386967e-20
1.915896559e-19
5.340019294e-18
1.21747776e-16
2.247148685e-15
3.383460862e-14
4.049719762e-13
4.032056425e-12
3.454178672e-11
2.570887191e-10
1.745966331e-09
1.046086969e-08
5.299219576e-08
2.256393571e-07
8.039405285e-07
2.375442203e-06
5.740896112e-06
1.111593828e-05
1.675718061e-05
1.885962095e-05
1.492367973e-05
7.55890744e-06
2.107698723e-06
2.537467164e-07
8.843314442e-09
4.565867294e-11
1.087498624e-14
6.448214016e-20
2.627576056e-25
2.485232848e-32
1.683462977e-32
2.412107935e-33
1.465304135e-34
5.518947626e-36
1.590630999e-37
4.024568594e-39
9.867595198e-41
2.52837779e-42
7.184919582e-44
2.372237273e-45
9.424306717e-47
4.615763408e-48
2.8276441e-49
2.179321225e-50
2.110206285e-51
2.5490137e-52
3.798608327e-53
6.888018582e-54
1.496849303e-54
3.837766005e-55
1.081524382e-28
2.472586049e-28
1.120952373e-27
8.820326518e-27
1.074334698e-25
1.860411242e-24
3.291721705e-23
1.903360762e-22
8.027833902e-22
3.470515942e-21
2.423513831e-20
5.888956867e-19
1.70845617e-17
4.103355412e-16
7.994959722e-15
1.270786225e-13
1.662724629e-12
1.811192707e-11
1.654320437e-10
1.348584388e-09
1.005115101e-08
6.452125021e-08
3.516605246e-07
1.625465485e-06
6.343775439e-06
2.074599439e-05
5.622466337e-05
0.0001243956436
0.0002199986841
0.0003017500764
0.0003067223651
0.000213814497
8.979889582e-05
1.83560732e-05
1.27322202e-06
1.605897226e-08
1.188661674e-11
5.788259308e-17
3.467748594e-24
2.101107362e-25
1.68989822e-27
6.147480179e-29
1.415350063e-30
2.466405738e-32
3.679950994e-34
5.164799337e-36
7.347656439e-38
1.126954804e-39
1.962946926e-41
4.054946766e-43
1.028326582e-44
3.283511218e-46
1.341513362e-47
7.065201205e-49
4.79564615e-50
4.16854221e-51
4.589069511e-52
6.307763348e-53
1.065222191e-53
2.173168799e-54
1.524259626e-28
3.425832425e-28
1.512926593e-27
1.152769972e-26
1.350604259e-25
2.226411915e-24
3.983124142e-23
2.707621491e-22
1.295448383e-21
6.29326254e-21
5.029786219e-20
1.348550687e-18
4.398232712e-17
1.117002703e-15
2.284613818e-14
3.837260677e-13
5.36386256e-12
6.30063645e-11
6.362700397e-10
5.695177107e-09
4.481865644e-08
3.052241663e-07
1.786222672e-06
8.946441587e-06
3.816878849e-05
0.0001378187558
0.0004176039197
0.001050451993
0.002162332348
0.003570005752
0.004579868261
0.004307457761
0.002689083188
0.0009294430594
0.0001310308601
4.299803316e-06
1.101537275e-08
4.964174141e-13
2.590079796e-18
2.350014057e-19
1.614985377e-22
1.39799955e-24
1.230465229e-26
1.041982233e-28
8.57007311e-31
7.113754721e-33
6.232594024e-35
6.028075533e-37
6.71940092e-39
8.980662018e-41
1.489054089e-42
3.146255547e-44
8.630306686e-46
3.104590455e-47
1.467923487e-48
9.081612041e-50
7.279560213e-51
7.457416055e-52
9.607691476e-53
1.529936032e-53
1.653839166e-28
3.630528183e-28
1.541774755e-27
1.113527444e-26
1.208787103e-25
1.755459478e-24
3.023661944e-23
3.283115874e-22
1.900589186e-21
1.020908212e-20
9.694378906e-20
2.928738721e-18
9.60346158e-17
2.476614889e-15
5.233201804e-14
9.229436706e-13
1.374747613e-11
1.746885584e-10
1.91748784e-09
1.839063271e-08
1.541175814e-07
1.12260593e-06
7.075973275e-06
3.844571378e-05
0.0001792637513
0.0007134134811
0.002407375442
0.00683640096
0.01618670496
0.0315730962
0.04968588186
0.06094044738
0.05446561302
0.03117534576
0.009143776385
0.0008870556033
7.372993879e-06
1.838203833e-10
6.769538539e-11
7.757352238e-14
4.854899263e-18
1.344681251e-20
5.837042867e-23
2.898077319e-25
1.521068306e-27
8.41958613e-30
5.023962051e-32
3.334647314e-34
2.551919017e-36
2.33603148e-38
2.647533114e-40
3.825190946e-42
7.202884528e-44
1.792630413e-45
5.932099032e-47
2.606818729e-48
1.510213138e-49
1.13985398e-50
1.10419953e-51
1.350023371e-52
1.403311006e-28
3.000501651e-28
1.21985964e-27
8.318824837e-27
8.384300522e-26
1.099997667e-24
1.641771855e-23
2.297877973e-22
2.122325121e-21
1.646179618e-20
2.212080649e-19
6.137893362e-18
1.773037361e-16
4.441874941e-15
9.558621835e-14
1.761040971e-12
2.784295391e-11
3.795765289e-10
4.489354999e-09
4.63008711e-08
4.168856777e-07
3.271546775e-06
2.231951026e-05
0.000131958498
0.0006733976221
0.002951747718
0.01105283466
0.03516411064
0.0944404515
0.2129798575
0.3978811253
0.6045746723
0.7195758157
0.6245221582
0.3564243855
0.1197626904
0.006373995025
6.392422741e-06
5.158072487e-08
2.591074944e-11
1.068239466e-14
3.013143242e-17
1.05008419e-19
4.039856659e-22
1.648500651e-24
7.106465077e-27
3.281440332e-29
1.663871118e-31
9.567786224e-34
6.467964951e-36
5.328579705e-38
5.526779786e-40
7.410737633e-42
1.30922149e-43
3.080896213e-45
9.689215051e-47
4.058829516e-48
2.245230581e-49
1.619669681e-50
1.500869125e-51
9.473219728e-29
1.973533279e-28
7.697997042e-28
4.995947009e-27
4.775474126e-26
5.950421253e-25
8.547053389e-24
1.2512571e-22
1.689009657e-21
2.267255484e-20
4.106596319e-19
9.944524091e-18
2.570667972e-16
6.283529503e-15
1.380163353e-13
2.660697033e-12
4.469868081e-11
6.53778804e-10
8.338617554e-09
9.292619137e-08
9.05531117e-07
7.711402648e-06
5.72936507e-05
0.0003703659004
0.002074995725
0.01002853407
0.04158479814
0.1471990072
0.4418728001
1.123508926
2.404863842
4.286419788
6.233880013
7.088916508
6.148728614
6.38767837
0.1099321575
0.001206673257
6.065767668e-06
5.005241765e-09
4.906667684e-12
1.775950815e-14
6.575654332e-17
2.486722545e-19
9.57371821e-22
3.771076797e-24
1.542225371e-26
6.707915031e-29
3.203709764e-31
1.743367369e-33
1.123242884e-35
8.8857458e-38
8.906120917e-40
1.159064441e-41
1.991655185e-43
4.559158005e-45
1.392868771e-46
5.655720084e-48
3.025478756e-49
2.106463074e-50
5.169145962e-29
1.051119289e-28
3.952398231e-28
2.467034786e-27
2.284361637e-26
2.8096542e-25
4.139772351e-24
6.703319627e-23
1.13810322e-21
2.081774266e-20
4.439452218e-19
1.088042237e-17
2.787101205e-16
6.88988237e-15
1.566153811e-13
3.185999276e-12
5.723506595e-11
9.030067039e-10
1.249134376e-08
1.514833897e-07
1.610552082e-06
1.500481615e-05
0.0001223300686
0.0008703528937
0.005380813751
0.02876665321
0.1311219266
0.5104031786
1.693203426
4.771352135
11.34221547
22.54410257
37.03658014
47.42125566
33.06210194
12.48013352
0.6660190145
0.01920689705
0.0001811692564
3.822112431e-07
6.532242428e-10
3.242079e-12
1.513019822e-14
6.714278014e-17
2.860622463e-19
1.184749808e-21
4.85906616e-24
2.025840582e-26
8.87763148e-29
4.25038638e-31
2.316288808e-33
1.495425707e-35
1.185874792e-37
1.190387217e-39
1.547464815e-41
2.644944984e-43
5.990786338e-45
1.800668722e-46
7.154454706e-48
3.727751979e-49
2.310872638e-29
4.594893873e-29
1.672385407e-28
1.011745376e-27
9.191860079e-27
1.136019778e-25
1.747017801e-24
3.113596105e-23
6.162819062e-22
1.343189642e-20
3.241352493e-19
8.448324491e-18
2.251583914e-16
5.811609529e-15
1.395334416e-13
3.03531395e-12
5.890435462e-11
1.011480154e-09
1.530945686e-08
2.039047083e-07
2.387870614e-06
2.456947308e-05
0.0002218163667
0.001751929694
0.01199351527
0.07022943613
0.351367813
1.501480806
5.468349958
16.86151168
43.42835167
92.31542683
164.3958233
236.9106655
147.28319
44.5837153
3.547838992
0.1054198145
0.001792866726
8.225879606e-06
2.890541217e-08
2.203499954e-10
1.45850323e-12
8.55432262e-15
4.522242105e-17
2.19441485e-19
9.996612255e-22
4.399226459e-24
1.936690794e-26
8.877399818e-29
4.422183162e-31
2.49851934e-33
1.66647049e-35
1.358927378e-37
1.394085147e-39
1.838149206e-41
3.159886692e-43
7.136676954e-45
2.121802549e-46
8.281545437e-48
8.56085685e-30
1.666168624e-29
5.881779863e-29
3.46015566e-28
3.097989908e-27
3.861512474e-26
6.18138826e-25
1.189365121e-23
2.623452332e-22
6.440654414e-21
1.720290629e-19
4.842526869e-18
1.377514853e-16
3.797953505e-15
9.809161543e-14
2.315276473e-12
4.913560113e-11
9.286406154e-10
1.55488054e-08
2.299612892e-07
2.998763703e-06
3.443849275e-05
0.0003478327142
0.003062105275
0.02307570151
0.1486009771
0.8166843044
3.827249953
15.24933753
51.08174823
140.0557707
306.0629968
560.5438349
505.9224549
329.6714198
153.3212644
8.177535133
0.3203638643
0.00866810937
8.391812308e-05
5.911654821e-07
7.093542969e-09
6.992684212e-11
5.766224735e-13
4.053370908e-15
2.48010712e-17
1.353692059e-19
6.789762149e-22
3.241728325e-24
1.533504523e-26
7.504693413e-29
3.970389555e-31
2.369262103e-33
1.657638041e-35
1.405968759e-37
1.485482023e-39
1.995748214e-41
3.458296494e-43
7.794397962e-45
2.292544834e-46
2.655170076e-30
5.058190705e-30
1.731475877e-29
9.898815318e-29
8.720006912e-28
1.091642204e-26
1.80143169e-25
3.672432015e-24
8.77747125e-23
2.360402183e-21
6.891862557e-20
2.106704582e-18
6.48935098e-17
1.942842649e-15
5.483922309e-14
1.424926637e-12
3.350819228e-11
7.056862772e-10
1.323303488e-08
2.200328361e-07
3.233258275e-06
4.189595936e-05
0.0004774028533
0.004668541725
0.03898012544
0.2771954856
1.675767196
8.604852899
37.42518869
135.7805128
391.4593355
833.4994945
1111.259554
808.8946406
492.8841913
116.6944078
10.53357126
0.6744338007
0.02878794093
0.000526040628
7.121411123e-06
1.330673223e-07
1.96324037e-09
2.322688234e-11
2.243904539e-13
1.80727491e-15
1.243390486e-17
7.521084964e-20
4.137407703e-22
2.15095536e-24
1.101916599e-26
5.809636256e-29
3.291056868e-31
2.086454907e-33
1.535955981e-35
1.355442641e-37
1.472047878e-39
2.008243036e-41
3.493654778e-43
7.827426693e-45
6.964741648e-31
1.297522777e-30
4.298105148e-30
2.379714958e-29
2.051613919e-28
2.55892624e-27
4.301979427e-26
9.142834852e-25
2.323543407e-23
6.732599288e-22
2.132123779e-20
7.092905678e-19
2.387261881e-17
7.856962645e-16
2.456741799e-14
7.123415945e-13
1.882018896e-11
4.480192603e-10
9.533525623e-09
1.804763117e-07
3.02555577e-06
4.474257641e-05
0.0005750412043
0.00630339106
0.05874143597
0.4635354687
3.087808932
17.3391796
81.94132097
321.2292289
977.2798641
2012.130096
1971.48099
1138.53254
477.1001255
105.9618108
14.71096162
1.381466229
0.08583668603
0.002605187451
6.101953734e-05
1.714795043e-06
3.704410605e-08
6.246239725e-10
8.355551276e-12
9.034394441e-14
8.072091817e-16
6.118179279e-18
4.056471344e-20
2.436699733e-22
1.378453103e-24
7.651502482e-27
4.345381621e-29
2.630399118e-31
1.764013731e-33
1.35746953e-35
1.236273623e-37
1.36781147e-39
1.87819434e-41
3.254413949e-43
1.561964037e-31
2.84113027e-31
9.077565662e-31
4.842157164e-30
4.05544808e-29
4.990395251e-28
8.442495483e-27
1.844058225e-25
4.911686217e-24
1.515728332e-22
5.175452964e-21
1.874877182e-19
6.935921072e-18
2.533110913e-16
8.874348532e-15
2.909789378e-13
8.760241006e-12
2.390823606e-10
5.857205459e-09
1.279267997e-07
2.47427543e-06
4.210178858e-05
0.0006155888203
0.007645752222
0.08025232853
0.7075718736
5.209928963
31.89068051
161.8633369
676.0794614
2174.071145
3736.955209
3344.541392
1905.025433
622.2690197
146.2149462
25.11341855
3.026263115
0.2489699231
0.01200209989
0.0004303181261
1.72136683e-05
5.235169322e-07
1.229510623e-08
2.25739487e-10
3.288172355e-12
3.870127321e-14
3.763162798e-16
3.103476396e-18
2.237726956e-20
1.459636622e-22
8.938105354e-25
5.341585945e-27
3.240435938e-29
2.074019609e-31
1.453040293e-33
1.15295719e-35
1.068553855e-37
1.188448632e-39
1.623225986e-41
3.031201068e-32
5.372414074e-32
1.649251479e-31
8.424212176e-31
6.796866508e-30
8.164175095e-29
1.37265323e-27
3.040703551e-26
8.381801548e-25
2.727420727e-23
9.984047914e-22
3.935597766e-20
1.60622558e-18
6.556603073e-17
2.598420265e-15
9.750325416e-14
3.39205443e-12
1.076566851e-10
3.081590287e-09
7.875048044e-08
1.777911249e-06
3.510631868e-05
0.0005922979265
0.00844510676
0.1010498813
1.006155183
8.254685495
55.1462206
296.2647419
1277.572427
4804.515127
4840.081461
4074.356717
2831.552549
950.6434095
235.303159
46.70930886
6.972900656
0.6850072053
0.04991648682
0.002825343812
0.0001465364265
5.978279351e-06
1.898652521e-07
4.704305541e-09
9.175418084e-11
1.427928569e-12
1.803979233e-14
1.889263229e-16
1.681230012e-18
1.307938013e-20
9.182568365e-23
6.021256218e-25
3.823302022e-27
2.439178909e-29
1.622078472e-31
1.165403278e-33
9.359985632e-36
8.675095044e-38
9.550393048e-40
5.158437026e-33
8.893818626e-33
2.612896373e-32
1.269717834e-31
9.783139729e-31
1.134388093e-29
1.871500686e-28
4.149145291e-27
1.169095252e-25
3.971142238e-24
1.548254786e-22
6.62433751e-21
2.987365644e-19
1.370264242e-17
6.194375388e-16
2.686648656e-14
1.093109767e-12
4.094591041e-11
1.39002461e-09
4.216390572e-08
1.126581321e-06
2.612938845e-05
0.0005170769881
0.008594148006
0.1189731494
1.357854811
12.61356395
93.61453528
538.0346794
2250.010216
6196.183747
6200.348272
4996.6699
3368.932399
1406.701824
374.3636428
86.55397205
16.2870113
2.057462124
0.2001577745
0.0157325144
0.001071049985
5.742569116e-05
2.409835261e-06
7.916088577e-08
2.046431827e-09
4.201292806e-11
6.933164575e-13
9.337845318e-15
1.045666929e-16
9.953641047e-19
8.263198779e-21
6.157772594e-23
4.251317979e-25
2.812451507e-27
1.846629618e-29
1.247424805e-31
8.987081571e-34
7.153539127e-36
6.5074188e-38
7.807607209e-34
1.309020948e-33
3.670255084e-33
1.687046147e-32
1.229474077e-31
1.360041307e-30
2.1726396e-29
4.754526508e-28
1.351482564e-26
4.738392415e-25
1.951158762e-23
9.017367776e-22
4.488986209e-20
2.32180275e-18
1.204459688e-16
6.091036915e-15
2.929846576e-13
1.31202861e-11
5.361894615e-10
1.962506899e-08
6.313607346e-07