/*--------------------------------*- C++ -*----------------------------------*\
  =========                 |
  \\      /  F ield         | OpenFOAM: The Open Source CFD Toolbox
   \\    /   O peration     | Website:  https://openfoam.org
    \\  /    A nd           | Version:  6
     \\/     M anipulation  |
\*---------------------------------------------------------------------------*/
FoamFile
{
    version     2.0;
    format      ascii;
    class       volScalarField;
    location    "0.005";
    object      TRHS;
}
// * * * * * * * * * * * * * * * * * * * * * * * * * * * * * * * * * * * * * //

dimensions      [1 -1 -3 0 0 0 0];

internalField   nonuniform List<scalar> 
600
(
2.630275827e-11
-3.341829927e-10
-1.320560229e-09
-2.409858148e-09
-3.699976881e-09
-5.210365602e-09
-6.973477793e-09
-9.013351791e-09
-1.134085524e-08
-1.395646323e-08
-1.684170975e-08
-1.996195568e-08
-2.3269281e-08
-2.672649376e-08
-3.030596777e-08
-3.39181357e-08
-3.720549417e-08
-3.932827606e-08
-3.917192933e-08
-3.662531502e-08
-3.37701581e-08
-3.158177375e-08
-2.886378252e-08
-2.584618907e-08
-2.447556781e-08
-2.712582311e-08
-3.235090712e-08
-4.066421706e-08
-4.537323197e-08
-1.207880753e-08
4.622776893e-11
-2.917762276e-10
-1.266580894e-09
-2.353855088e-09
-3.651065195e-09
-5.182258541e-09
-6.994272332e-09
-9.121184893e-09
-1.159701114e-08
-1.443521116e-08
-1.763256587e-08
-2.114038945e-08
-2.48800127e-08
-2.874896664e-08
-3.268435475e-08
-3.665664843e-08
-4.054814307e-08
-4.371260511e-08
-4.454797096e-08
-4.185089887e-08
-3.86547293e-08
-3.630555623e-08
-3.225070987e-08
-2.671998077e-08
-2.143695063e-08
-2.034911747e-08
-2.234387944e-08
-2.891922516e-08
-4.111631795e-08
-1.075842854e-08
5.769434352e-11
-2.930965969e-10
-1.316077931e-09
-2.463993182e-09
-3.840861059e-09
-5.486467562e-09
-7.458044476e-09
-9.815018809e-09
-1.26085919e-08
-1.587664938e-08
-1.961542526e-08
-2.376173978e-08
-2.81702631e-08
-3.265587849e-08
-3.709118545e-08
-4.161856399e-08
-4.661972914e-08
-5.197045426e-08
-5.461697134e-08
-4.994602316e-08
-4.519344325e-08
-4.337435654e-08
-3.724825714e-08
-2.772330942e-08
-1.606073022e-08
-1.15625556e-08
-1.168704944e-08
-1.604520953e-08
-2.789137675e-08
6.440448581e-10
6.172036026e-11
-3.276651091e-10
-1.443339244e-09
-2.6982477e-09
-4.214407648e-09
-6.044547553e-09
-8.26879242e-09
-1.096938464e-08
-1.422857702e-08
-1.810830021e-08
-2.262543062e-08
-2.770300622e-08
-3.312717139e-08
-3.853001863e-08
-4.356261963e-08
-4.841890298e-08
-5.449728223e-08
-6.386502266e-08
-7.134197043e-08
-6.186699097e-08
-5.374022969e-08
-5.432068947e-08
-4.491355065e-08
-3.062637283e-08
-8.639928567e-09
-1.040336493e-09
5.36362037e-10
1.577943741e-09
-7.453927163e-09
1.992784275e-08
5.765581334e-11
-3.985872888e-10
-1.645289405e-09
-3.051835705e-09
-4.758578992e-09
-6.83884788e-09
-9.394923727e-09
-1.253829598e-08
-1.638174085e-08
-2.102697311e-08
-2.653676253e-08
-3.287753886e-08
-3.980296641e-08
-4.6679937e-08
-5.251167055e-08
-5.687176818e-08
-6.222620047e-08
-7.781958347e-08
-9.818889138e-08
-7.962308756e-08
-6.617169903e-08
-6.930590838e-08
-5.363009371e-08
-3.631415805e-08
-1.791773525e-09
8.543982329e-09
1.186300359e-08
2.779510907e-08
1.959685091e-08
4.628399106e-08
4.324890214e-11
-5.064171737e-10
-1.91874022e-09
-3.514197199e-09
-5.457571631e-09
-7.843961759e-09
-1.0800681e-08
-1.446366093e-08
-1.897385032e-08
-2.447607997e-08
-3.111795851e-08
-3.901804704e-08
-4.808336936e-08
-5.754480481e-08
-6.52048983e-08
-6.809489353e-08
-6.642819785e-08
-8.781342214e-08
-1.308295788e-07
-1.344853571e-07
-1.403854344e-07
-5.913977063e-08
-4.542643551e-08
-1.964337612e-08
-6.16955869e-08
-1.107296354e-08
2.24517187e-08
7.271577175e-08
5.797048125e-08
7.898855702e-08
1.683776219e-11
-6.528264377e-10
-2.258578439e-09
-4.074093364e-09
-6.291765293e-09
-9.033101105e-09
-1.244932362e-08
-1.669397102e-08
-2.191785196e-08
-2.828408001e-08
-3.602375356e-08
-4.551456263e-08
-5.723229129e-08
-7.107483597e-08
-8.401273894e-08
-8.830392324e-08
-6.725201355e-08
-9.63626511e-08
-8.012249579e-08
-2.117983738e-07
-2.419024565e-07
-5.422144152e-08
-1.154472432e-08
-8.573972226e-09
-1.401828462e-07
-4.027264094e-08
5.691320106e-08
1.734448017e-07
1.296703001e-07
1.188789353e-07
-2.421406026e-11
-8.396694757e-10
-2.65941955e-09
-4.715563039e-09
-7.234490868e-09
-1.037014459e-08
-1.430192197e-08
-1.919556527e-08
-2.518478008e-08
-3.237913473e-08
-4.095587423e-08
-5.143415872e-08
-6.515479808e-08
-8.442315347e-08
-1.082969346e-07
-1.265757494e-07
-1.129700062e-07
-5.254977649e-08
2.906505893e-08
-2.436289244e-07
-2.089897682e-07
-0.0001743472228
-0.0001109651083
-0.0001494649143
-1.34687497e-07
-2.974016183e-07
1.07447898e-07
3.897628775e-07
3.680121417e-07
1.824138441e-07
-8.412477306e-11
-1.072317244e-09
-3.116272608e-09
-5.417209557e-09
-8.243382426e-09
-1.179420042e-08
-1.629230368e-08
-2.193268604e-08
-2.883258432e-08
-3.697336399e-08
-4.61871569e-08
-5.643961412e-08
-6.905078746e-08
-9.028734471e-08
-1.277529497e-07
-1.860539206e-07
-2.46208861e-07
-0.0001712391494
-0.0007740869905
167.3375045
-0.005864834831
69.16524582
44.03840478
59.30549084
-0.006562082662
144.7813271
-0.0004247914944
1.119618779e-07
4.391127194e-07
3.599933056e-07
-1.727000605e-10
-1.36576604e-09
-3.630673429e-09
-6.152286954e-09
-9.253537277e-09
-1.319606628e-08
-1.827486703e-08
-2.476829315e-08
-3.287408954e-08
-4.25530527e-08
-5.318617506e-08
-6.301406631e-08
-6.889028902e-08
-7.190657509e-08
-1.157226408e-07
-2.418723641e-07
-4.529440146e-07
67.93940422
139.838192
0
0
0
0
0
0
0
23.86716737
106.5964686
-0.0002681154076
-0.0001400846667
-3.154304706e-10
-1.76164553e-09
-4.225392273e-09
-6.900046062e-09
-1.018102753e-08
-1.440656065e-08
-1.996358367e-08
-2.727926943e-08
-3.68255219e-08
-4.907249123e-08
-6.416441441e-08
-8.080756699e-08
-9.301562844e-08
-1.004930534e-07
-6.523332871e-08
-0.0001722485377
68.33770731
0
0
0
0
0
0
0
0
0
0
0
384.7933079
-0.002109749049
-5.84430307e-10
-2.363171675e-09
-4.971680619e-09
-7.666308767e-09
-1.095085721e-08
-1.523558758e-08
-2.096845457e-08
-2.867231594e-08
-3.906615134e-08
-5.332469774e-08
-7.353149713e-08
-1.029630126e-07
-1.379874031e-07
-8.508539968e-08
4.314006771e-08
-0.0007853659199
141.4249345
0
0
0
0
0
0
0
0
0
0
0
-0.005128010861
-4.382135836e-05
-1.197227732e-09
-3.413988424e-09
-6.027966511e-09
-8.507880203e-09
-1.153875566e-08
-1.55842474e-08
-2.106841371e-08
-2.841590657e-08
-3.80863889e-08
-5.062805497e-08
-6.678744479e-08
-8.83784098e-08
-1.435999731e-07
-2.207994755e-07
-2.45564465e-07
170.2180285
0
0
0
0
0
0
0
0
0
0
0
0
0
-0.001403000509
-2.89277006e-09
-5.479742886e-09
-7.672591455e-09
-9.516208605e-09
-1.19667112e-08
-1.549461707e-08
-2.046220259e-08
-2.720851324e-08
-3.606549691e-08
-4.728865519e-08
-6.090307251e-08
-7.845029896e-08
-1.551839257e-07
-2.527141165e-07
-2.156238839e-07
-0.005605843987
0
0
0
0
0
0
0
0
0
0
0
0
0
0
-7.948841554e-09
-9.723751805e-09
-1.022820939e-08
-1.070339548e-08
-1.218204485e-08
-1.49368213e-08
-1.918023797e-08
-2.523793865e-08
-3.369038043e-08
-4.558176629e-08
-6.256408228e-08
-8.52231015e-08
-7.99952e-08
-8.279856038e-08
-0.0002142199121
84.98058361
0
0
0
0
0
0
0
0
0
0
0
0
0
0
-3.034322958e-08
-2.006755969e-08
-1.382853068e-08
-1.177625624e-08
-1.195525616e-08
-1.373811326e-08
-1.692472095e-08
-2.159430418e-08
-2.812397389e-08
-3.73486935e-08
-5.069807135e-08
-6.852503422e-08
-5.794775639e-08
-5.238013698e-08
-0.0002081212407
82.56918763
0
0
0
0
0
0
0
0
0
0
0
0
0
0
-3.461744266e-08
-2.185038041e-08
-1.401714155e-08
-1.123339883e-08
-1.081274456e-08
-1.183026741e-08
-1.384621438e-08
-1.661090026e-08
-1.9910195e-08
-2.340948826e-08
-2.64504848e-08
-2.981559067e-08
-9.035436754e-08
-1.591671491e-07
-1.470315077e-07
-0.005844851033
0
0
0
0
0
0
0
0
0
0
0
0
0
0
-1.373611657e-08
-1.206461679e-08
-9.850593469e-09
-8.801771648e-09
-8.776657818e-09
-9.472650257e-09
-1.058690848e-08
-1.182469768e-08
-1.287831726e-08
-1.344084423e-08
-1.332795837e-08
-1.316713033e-08
-3.841336456e-08
-5.914837003e-08
-2.34500825e-07
162.6843961
0
0
0
0
0
0
0
0
0
0
0
0
0
-0.002528936189
-2.639570526e-09
-4.748818363e-09
-5.41954786e-09
-5.887314099e-09
-6.431106705e-09
-7.026208287e-09
-7.47814092e-09
-7.538081467e-09
-6.984995746e-09
-5.892007998e-09
-5.102106317e-09
-6.767435602e-09
-8.637437707e-09
6.071919783e-08
1.445817718e-07
-0.0007007447232
115.4395655
0
0
0
0
0
0
0
0
0
0
0
-0.00529066684
-1.894237256e-05
5.030885342e-09
8.505956874e-10
-1.590572614e-09
-3.170094328e-09
-4.21338735e-09
-4.754664208e-09
-4.612783634e-09
-3.404984111e-09
-5.575528067e-10
4.825146835e-09
1.438322397e-08
3.189763926e-08
6.728601152e-08
1.327734536e-07
3.106011131e-07
-0.0001163500058
46.23581439
0
0
0
0
0
0
0
0
0
0
0
393.7128196
-0.002066295491
)
;

boundaryField
{
    lowerWall
    {
        type            calculated;
        value           nonuniform 0();
    }
    atmosphere
    {
        type            calculated;
        value           nonuniform List<scalar> 
20
(
2.630275827e-11
4.622776893e-11
5.769434352e-11
6.172036026e-11
5.765581334e-11
4.324890214e-11
1.683776219e-11
-2.421406026e-11
-8.412477306e-11
-1.727000605e-10
-3.154304706e-10
-5.84430307e-10
-1.197227732e-09
-2.89277006e-09
-7.948841554e-09
-3.034322958e-08
-3.461744266e-08
-1.373611657e-08
-2.639570526e-09
5.030885342e-09
)
;
    }
    rightWall
    {
        type            empty;
    }
    leftWall
    {
        type            empty;
    }
    frontAndBack
    {
        type            calculated;
        value           nonuniform List<scalar> 
30
(
2.630275827e-11
-3.341829927e-10
-1.320560229e-09
-2.409858148e-09
-3.699976881e-09
-5.210365602e-09
-6.973477793e-09
-9.013351791e-09
-1.134085524e-08
-1.395646323e-08
-1.684170975e-08
-1.996195568e-08
-2.3269281e-08
-2.672649376e-08
-3.030596777e-08
-3.39181357e-08
-3.720549417e-08
-3.932827606e-08
-3.917192933e-08
-3.662531502e-08
-3.37701581e-08
-3.158177375e-08
-2.886378252e-08
-2.584618907e-08
-2.447556781e-08
-2.712582311e-08
-3.235090712e-08
-4.066421706e-08
-4.537323197e-08
-1.207880753e-08
)
;
    }
    procBoundary0to1
    {
        type            processor;
        value           nonuniform List<scalar> 
20
(
-0.0007016256525
-0.0007267870745
-0.0007815697776
-0.0008767608228
-0.001034720649
-0.001302726059
-0.001789203814
-0.002771116141
-0.005046438311
55.57092529
452.1333347
17.37719386
0
0
0
0
0
0
7.506527781
425.9718306
)
;
    }
    procBoundary0to2
    {
        type            processor;
        value           nonuniform List<scalar> 
30
(
1.018304303e-08
4.788720332e-09
1.294103884e-09
-1.026589869e-09
-2.430047949e-09
-2.948760358e-09
-2.343438782e-09
-1.02326571e-10
4.658810183e-09
1.33935308e-08
2.861085864e-08
5.474735437e-08
9.928405148e-08
1.684106037e-07
2.241738959e-07
2.347106247e-07
-1.65783284e-07
21.92721345
18.22874913
0
0
0
0
0
0
0
-0.005972238653
20.34657071
-5.117110815e-05
-2.519401748e-10
)
;
    }
}


// ************************************************************************* //
