/*--------------------------------*- C++ -*----------------------------------*\
  =========                 |
  \\      /  F ield         | OpenFOAM: The Open Source CFD Toolbox
   \\    /   O peration     | Website:  https://openfoam.org
    \\  /    A nd           | Version:  6
     \\/     M anipulation  |
\*---------------------------------------------------------------------------*/
FoamFile
{
    version     2.0;
    format      ascii;
    class       volVectorField;
    location    "0.005";
    object      U;
}
// * * * * * * * * * * * * * * * * * * * * * * * * * * * * * * * * * * * * * //

dimensions      [0 1 -1 0 0 0 0];

internalField   nonuniform List<vector> 
600
(
(0 2.730941794e-10 -2.448217326e-13)
(0 2.741179445e-10 -7.162954058e-13)
(0 2.755215045e-10 -1.129258519e-12)
(0 2.769902687e-10 -1.439815653e-12)
(0 2.781796827e-10 -1.601927219e-12)
(0 2.786141029e-10 -1.567020555e-12)
(0 2.776924715e-10 -1.284417091e-12)
(0 2.746920668e-10 -7.048203787e-13)
(0 2.687816081e-10 2.137725845e-13)
(0 2.590507748e-10 1.494925032e-12)
(0 2.445677039e-10 3.128890993e-12)
(0 2.244756051e-10 5.053507089e-12)
(0 1.981301203e-10 7.138797111e-12)
(0 1.652563998e-10 9.186866841e-12)
(8.88985768e-53 1.260719107e-10 1.097066377e-11)
(5.918655287e-53 8.129577379e-11 1.232468135e-11)
(0 3.198896446e-11 1.325695284e-11)
(0 -2.068616769e-11 1.394580067e-11)
(0 -7.543524957e-11 1.441922164e-11)
(0 -1.300612852e-10 1.394310581e-11)
(0 -1.802592926e-10 1.101853791e-11)
(0 -2.199483432e-10 5.033308819e-12)
(0 -2.434712633e-10 -3.243912752e-12)
(0 -2.468228819e-10 -1.317853267e-11)
(0 -2.27272581e-10 -2.455081053e-11)
(0 -1.836921491e-10 -3.637074216e-11)
(0 -1.195648705e-10 -4.485912195e-11)
(0 -4.723002532e-11 -4.429317676e-11)
(0 1.469750216e-11 -2.99163355e-11)
(0 1.179204762e-12 1.217946937e-24)
(0 2.716952147e-10 -7.556710864e-13)
(0 2.728367997e-10 -2.212763434e-12)
(0 2.744552032e-10 -3.496708759e-12)
(0 2.762436608e-10 -4.477464859e-12)
(0 2.778634749e-10 -5.018546349e-12)
(0 2.788444808e-10 -4.974735608e-12)
(0 2.785874471e-10 -4.194297549e-12)
(0 2.763628108e-10 -2.5274077e-12)
(0 2.71316554e-10 1.55808717e-13)
(0 2.62491068e-10 3.934527245e-12)
(0 2.488745852e-10 8.791280494e-12)
(0 2.29496484e-10 1.45529602e-11)
(0 2.035820801e-10 2.083317537e-11)
(0 1.707618839e-10 2.701708371e-11)
(0 1.312835996e-10 3.236283458e-11)
(0 8.609433892e-11 3.629620454e-11)
(0 3.658972862e-11 3.883971104e-11)
(0 -1.604824714e-11 4.075494784e-11)
(0 -7.14113697e-11 4.256561755e-11)
(0 -1.28801727e-10 4.213363518e-11)
(0 -1.839423293e-10 3.403187177e-11)
(0 -2.289389729e-10 1.61607077e-11)
(0 -2.573637911e-10 -8.269583594e-12)
(0 -2.661273388e-10 -3.718491985e-11)
(0 -2.52582768e-10 -7.071447923e-11)
(0 -2.126564123e-10 -1.07193675e-10)
(0 -1.455722866e-10 -1.34921028e-10)
(0 -6.272948579e-11 -1.351103187e-10)
(0 1.27852088e-11 -9.197051902e-11)
(0 1.221492938e-12 1.275930862e-24)
(0 2.692430883e-10 -1.335331917e-12)
(0 2.705749684e-10 -3.917904651e-12)
(0 2.725324091e-10 -6.220604502e-12)
(0 2.748214399e-10 -8.033097084e-12)
(0 2.771129267e-10 -9.133216544e-12)
(0 2.789464895e-10 -9.282706603e-12)
(0 2.797288011e-10 -8.230003894e-12)
(0 2.787258202e-10 -5.721492926e-12)
(0 2.750589192e-10 -1.527572693e-12)
(0 2.677120043e-10 4.511827293e-12)
(0 2.555639464e-10 1.241304946e-11)
(0 2.374697689e-10 2.194182302e-11)
(0 2.124249326e-10 3.248302199e-11)
(0 1.798470434e-10 4.29482926e-11)
(1.001492432e-52 1.399633457e-10 5.187257582e-11)
(6.889088253e-53 9.412585295e-11 5.793962391e-11)
(0 4.457126603e-11 6.105128973e-11)
(0 -6.993601e-12 6.327897004e-11)
(0 -6.164389799e-11 6.751923511e-11)
(0 -1.223397902e-10 7.090593192e-11)
(0 -1.851813226e-10 6.000139184e-11)
(0 -2.379288689e-10 3.004292331e-11)
(0 -2.728666349e-10 -9.149287529e-12)
(0 -2.902582885e-10 -5.33207789e-11)
(0 -2.894226099e-10 -1.058030146e-10)
(0 -2.611448028e-10 -1.699420728e-10)
(0 -1.953789622e-10 -2.24832179e-10)
(0 -9.990103217e-11 -2.32665081e-10)
(0 -2.880007952e-12 -1.618074511e-10)
(0 1.313564863e-12 1.389937879e-24)
(0 2.655261408e-10 -2.020975817e-12)
(0 2.671090674e-10 -5.945231294e-12)
(0 2.695100825e-10 -9.495555507e-12)
(0 2.724521463e-10 -1.239012047e-11)
(0 2.756188447e-10 -1.432917585e-11)
(0 2.785637229e-10 -1.49889346e-11)
(0 2.807046537e-10 -1.402301115e-11)
(0 2.813103582e-10 -1.107401228e-11)
(0 2.794870564e-10 -5.800439883e-12)
(0 2.741688236e-10 2.072437854e-12)
(0 2.641204981e-10 1.266184043e-11)
(0 2.479764827e-10 2.577221652e-11)
(0 2.243722665e-10 4.065696096e-11)
(0 1.92279066e-10 5.573667046e-11)
(-1.130350286e-52 1.516652407e-10 6.849393841e-11)
(-7.570092742e-53 1.043999722e-10 7.609105607e-11)
(0 5.454959954e-11 7.750702698e-11)
(0 6.078694697e-12 7.694940267e-11)
(0 -4.383826661e-11 8.437012444e-11)
(0 -1.070279588e-10 9.979646627e-11)
(0 -1.811263256e-10 9.049492847e-11)
(0 -2.430337103e-10 4.562887757e-11)
(0 -2.825188526e-10 -6.323362793e-12)
(0 -3.089748519e-10 -5.748108169e-11)
(0 -3.289835641e-10 -1.192909437e-10)
(0 -3.251402113e-10 -2.151957683e-10)
(0 -2.684960516e-10 -3.120291641e-10)
(0 -1.584005819e-10 -3.404694901e-10)
(0 -2.950674204e-11 -2.456513287e-10)
(0 1.473550082e-12 1.562375364e-24)
(0 2.602698593e-10 -2.844527599e-12)
(0 2.621487294e-10 -8.391525181e-12)
(0 2.650696081e-10 -1.34867932e-11)
(0 2.68775226e-10 -1.778817641e-11)
(0 2.729630236e-10 -2.092980829e-11)
(0 2.772020218e-10 -2.251370069e-11)
(0 2.80924592e-10 -2.210970094e-11)
(0 2.834109547e-10 -1.926437912e-11)
(0 2.837722158e-10 -1.352227855e-11)
(0 2.809285683e-10 -4.466608533e-12)
(0 2.7357592e-10 8.198369747e-12)
(0 2.601436792e-10 2.447419543e-11)
(0 2.387993418e-10 4.371939702e-11)
(0 2.076975969e-10 6.40516304e-11)
(0 1.658903672e-10 8.163256143e-11)
(0 1.153471516e-10 9.069837449e-11)
(0 6.329561947e-11 8.667784432e-11)
(0 2.052748575e-11 7.502069321e-11)
(0 -1.554203044e-11 8.287118076e-11)
(0 -7.782602071e-11 1.279205861e-10)
(0 -1.686965165e-10 1.281327865e-10)
(0 -2.392322243e-10 5.704291267e-11)
(0 -2.743813957e-10 -5.602048874e-12)
(0 -3.039014217e-10 -4.877848703e-11)
(0 -3.530765952e-10 -9.579265679e-11)
(0 -3.933442643e-10 -2.282040876e-10)
(0 -3.606247583e-10 -3.918107607e-10)
(0 -2.37149144e-10 -4.606525937e-10)
(0 -6.637855601e-11 -3.511730989e-10)
(0 1.739029228e-12 1.825811012e-24)
(0 2.531543001e-10 -3.82992014e-12)
(0 2.553545423e-10 -1.132915596e-11)
(0 2.588368146e-10 -1.831675358e-11)
(0 2.633643507e-10 -2.440306231e-11)
(0 2.686461489e-10 -2.916924401e-11)
(0 2.742626306e-10 -3.215737834e-11)
(0 2.796561103e-10 -3.28698243e-11)
(0 2.841189134e-10 -3.077651594e-11)
(0 2.867853654e-10 -2.532812713e-11)
(0 2.866179833e-10 -1.597406896e-11)
(0 2.823576008e-10 -2.198100641e-12)
(0 2.723862653e-10 1.637105494e-11)
(0 2.544792826e-10 3.961469082e-11)
(0 2.256211959e-10 6.60214993e-11)
(0 1.826582999e-10 9.085680914e-11)
(0 1.256285189e-10 1.038647352e-10)
(0 6.507494793e-11 9.082585605e-11)
(0 2.871101369e-11 4.942779937e-11)
(0 2.406591145e-11 4.130555337e-11)
(0 -3.004646796e-11 1.523186761e-10)
(0 -1.452763275e-10 1.762895843e-10)
(0 -2.200628034e-10 5.016130106e-11)
(0 -2.329340168e-10 -1.940332027e-11)
(0 -2.492795263e-10 -3.449291932e-11)
(0 -3.303797653e-10 -1.636970625e-11)
(0 -4.38099528e-10 -1.891913825e-10)
(0 -4.56469346e-10 -4.566354906e-10)
(0 -3.290947929e-10 -5.877208584e-10)
(0 -1.133858571e-10 -4.861476515e-10)
(0 2.189459246e-12 2.266641691e-24)
(0 2.438319753e-10 -4.991917252e-12)
(0 2.463574639e-10 -1.480214373e-11)
(0 2.504042516e-10 -2.405834936e-11)
(0 2.557548401e-10 -3.233610357e-11)
(0 2.621239539e-10 -3.917626666e-11)
(0 2.690919194e-10 -4.407392576e-11)
(0 2.760921102e-10 -4.648013336e-11)
(0 2.82405458e-10 -4.581434641e-11)
(0 2.87175375e-10 -4.148023903e-11)
(0 2.894391137e-10 -3.286799825e-11)
(0 2.881332339e-10 -1.932116849e-11)
(0 2.819534024e-10 -7.146510831e-14)
(0 2.68841254e-10 2.571886379e-11)
(0 2.448947182e-10 5.824163494e-11)
(0 2.032694707e-10 9.422417364e-11)
(0 1.369150414e-10 1.198285678e-10)
(0 5.317357286e-11 1.02476495e-10)
(0 1.533058295e-11 -1.000753749e-12)
(0 6.688320153e-11 -7.604165418e-11)
(0 2.534518587e-11 1.825615234e-10)
(0 -1.011401126e-10 2.609591172e-10)
(0 -1.635253525e-10 -6.553197501e-12)
(0 -1.431798361e-10 -6.460691526e-11)
(0 -1.316522531e-10 -4.360012836e-11)
(0 -2.204066884e-10 1.582649818e-10)
(0 -3.825308615e-10 -6.689592142e-11)
(0 -5.116709593e-10 -4.922177925e-10)
(0 -4.076102348e-10 -6.874301782e-10)
(0 -1.738074371e-10 -6.518363724e-10)
(0 3.007070296e-12 3.078824443e-24)
(0 2.319488007e-10 -6.335575858e-12)
(0 2.347809962e-10 -1.882455778e-11)
(0 2.393558137e-10 -3.073211812e-11)
(0 2.454736141e-10 -4.161071008e-11)
(0 2.528485206e-10 -5.09705385e-11)
(0 2.610448567e-10 -5.826525459e-11)
(0 2.694529888e-10 -6.289804839e-11)
(0 2.772809614e-10 -6.42502845e-11)
(0 2.835904431e-10 -6.172701994e-11)
(0 2.874024836e-10 -5.479245147e-11)
(0 2.878725627e-10 -4.292623176e-11)
(0 2.844250933e-10 -2.536881994e-11)
(0 2.764159508e-10 -5.198871698e-13)
(0 2.612499308e-10 3.472370168e-11)
(0 2.293576057e-10 8.353639843e-11)
(0 1.594108923e-10 1.377192788e-10)
(0 2.894113324e-11 1.474751721e-10)
(0 -2.274772615e-11 -5.105021936e-11)
(0 9.891329615e-11 -3.551922587e-10)
(0 1.668472196e-24 1.44969933e-11)
(0 -3.388765741e-24 9.856881804e-12)
(0 -1.696693471e-24 -4.289457775e-12)
(0 -6.304160274e-25 -2.731153132e-12)
(0 5.066260638e-25 -3.677980115e-12)
(0 2.230804858e-24 1.102872886e-11)
(0 -3.636900853e-24 1.589582012e-11)
(0 -4.401363474e-10 -4.883203117e-10)
(0 -3.926759857e-10 -6.686426374e-10)
(0 -2.77395915e-10 -8.212929873e-10)
(0 4.657345893e-12 4.237836946e-24)
(0 2.171680945e-10 -7.856644504e-12)
(0 2.202655565e-10 -2.338103048e-11)
(0 2.252912581e-10 -3.830689675e-11)
(0 2.320653427e-10 -5.217537417e-11)
(0 2.403019471e-10 -6.44731595e-11)
(0 2.495410582e-10 -7.460643372e-11)
(0 2.590961867e-10 -8.190626533e-11)
(0 2.68014175e-10 -8.567779949e-11)
(0 2.750877898e-10 -8.530342623e-11)
(0 2.789906636e-10 -8.039394972e-11)
(0 2.786510623e-10 -7.092174561e-11)
(0 2.739948179e-10 -5.709996682e-11)
(0 2.669012744e-10 -3.839168273e-11)
(0 2.608411188e-10 -1.057418407e-11)
(0 2.52803888e-10 3.961102218e-11)
(0 2.101246059e-10 1.307618528e-10)
(0 5.208013753e-12 2.631466789e-10)
(0 3.140324737e-24 -4.213845945e-12)
(0 -1.037839384e-11 -8.672419469e-12)
(0 -1.026772936e-11 1.850501793e-11)
(0 6.088936224e-12 1.384661649e-11)
(0 7.53657639e-12 -4.158267492e-12)
(0 6.114776588e-13 -2.95628744e-12)
(0 -6.364729333e-12 -2.883975774e-12)
(0 -5.301587064e-12 1.652315593e-11)
(0 9.095882305e-12 2.292807153e-11)
(0 8.979567017e-12 -1.480182803e-12)
(0 -3.40492423e-24 9.834756208e-12)
(0 -5.551529347e-10 -8.402874021e-10)
(0 8.481423204e-12 -2.272521122e-11)
(0 1.991986366e-10 -9.543093783e-12)
(0 2.024957737e-10 -2.842885113e-11)
(0 2.078492046e-10 -4.670067714e-11)
(0 2.151083197e-10 -6.390646897e-11)
(0 2.240052171e-10 -7.952184303e-11)
(0 2.34075393e-10 -9.289372941e-11)
(0 2.445605509e-10 -1.032270793e-10)
(0 2.542972781e-10 -1.096350505e-10)
(0 2.616160627e-10 -1.112856752e-10)
(0 2.643197614e-10 -1.076960812e-10)
(0 2.599431194e-10 -9.922963819e-11)
(0 2.468204279e-10 -8.775663783e-11)
(0 2.2702762e-10 -7.695311946e-11)
(0 2.126247386e-10 -7.025561389e-11)
(0 2.281774993e-10 -6.078270295e-11)
(0 3.049851391e-10 -2.435487292e-11)
(0 1.115998926e-11 1.113528854e-11)
(0 1.620296717e-11 -2.31129642e-12)
(0 2.594252349e-12 -9.853471773e-12)
(0 -2.356351033e-12 5.474959788e-12)
(0 2.212101859e-12 5.952366198e-12)
(0 3.321707374e-12 1.180523031e-12)
(0 1.27429172e-12 6.800230431e-13)
(0 -6.451679379e-13 2.378179461e-12)
(0 9.366600393e-13 8.61720536e-12)
(0 6.872048295e-12 1.049955606e-11)
(0 7.031296249e-12 4.432167091e-13)
(0 8.424600317e-12 1.487204069e-11)
(0 -1.611399863e-11 1.406729109e-12)
(0 -2.617158294e-11 -6.472928491e-11)
(0 1.778307528e-10 -1.137967807e-11)
(0 1.8123554e-10 -3.39025926e-11)
(0 1.867325187e-10 -5.57776437e-11)
(0 1.94220681e-10 -7.659855747e-11)
(0 2.034930097e-10 -9.586565544e-11)
(0 2.141461002e-10 -1.128715714e-10)
(0 2.254396129e-10 -1.266432989e-10)
(0 2.361050407e-10 -1.35948229e-10)
(0 2.440727002e-10 -1.393939388e-10)
(0 2.46073159e-10 -1.356979722e-10)
(0 2.371002777e-10 -1.242922269e-10)
(0 2.099802654e-10 -1.065717752e-10)
(0 1.562476617e-10 -8.804407203e-11)
(0 7.38133878e-11 -8.01045737e-11)
(1.90814623e-52 -1.640199434e-11 -7.959130109e-11)
(3.892490471e-52 -4.238546786e-12 3.630182124e-24)
(0 -2.311296268e-12 1.610456174e-11)
(0 3.886626612e-12 3.772665308e-12)
(0 2.158637986e-12 -6.022217041e-13)
(0 7.873327739e-13 2.545044437e-12)
(0 1.794499451e-12 3.307030397e-12)
(0 2.264233219e-12 2.247489515e-12)
(0 1.809134091e-12 2.117130365e-12)
(0 1.572453005e-12 3.098943378e-12)
(0 2.819789563e-12 5.067717427e-12)
(0 5.67266951e-12 5.258614047e-12)
(0 8.601276077e-12 2.593532125e-12)
(0 1.633734804e-11 3.591301715e-12)
(0 3.527405832e-11 -9.64099679e-12)
(0 -4.176210386e-12 -3.210488617e-11)
(0 1.529890906e-10 -1.336233305e-11)
(0 1.563810269e-10 -3.97273749e-11)
(0 1.617470237e-10 -6.534012531e-11)
(0 1.690725002e-10 -8.993053733e-11)
(0 1.78276243e-10 -1.131075699e-10)
(0 1.891175336e-10 -1.341619392e-10)
(0 2.010461838e-10 -1.519564687e-10)
(0 2.13000278e-10 -1.648619039e-10)
(0 2.230849029e-10 -1.707243611e-10)
(0 2.279948221e-10 -1.668698386e-10)
(0 2.218554008e-10 -1.5017371e-10)
(0 1.937698382e-10 -1.173375412e-10)
(0 1.223354833e-10 -6.591727671e-11)
(0 -2.567222094e-11 5.029265415e-13)
(0 -3.324243114e-10 7.901065661e-11)
(0 -8.770825274e-12 -1.055703028e-11)
(0 -9.94273217e-12 2.339498505e-12)
(0 -5.038159798e-13 1.899967531e-12)
(0 1.366631485e-12 1.127029218e-12)
(0 1.552901059e-12 2.000365422e-12)
(0 1.914546939e-12 2.483015842e-12)
(0 2.131807346e-12 2.384912681e-12)
(0 2.125745581e-12 2.44150458e-12)
(0 2.305419116e-12 2.83246282e-12)
(0 3.096330702e-12 3.296041112e-12)
(0 4.397862999e-12 2.874377026e-12)
(0 5.36398392e-12 1.081707664e-12)
(0 4.619489553e-12 -1.889478808e-12)
(0 -6.810187769e-12 -1.166935296e-11)
(0 -9.696210796e-12 1.225717554e-11)
(0 1.248235615e-10 -1.554415062e-11)
(0 1.280468802e-10 -4.585751502e-11)
(0 1.328659708e-10 -7.512172752e-11)
(0 1.394307094e-10 -1.034101195e-10)
(0 1.478562819e-10 -1.305888208e-10)
(0 1.58148036e-10 -1.560512525e-10)
(0 1.700919188e-10 -1.786042062e-10)
(0 1.831380472e-10 -1.963842695e-10)
(0 1.962601563e-10 -2.067761148e-10)
(0 2.078268849e-10 -2.063323016e-10)
(0 2.155991742e-10 -1.906919037e-10)
(0 2.171401117e-10 -1.546001107e-10)
(0 2.091040353e-10 -9.319466817e-11)
(0 2.024704586e-10 -1.521027851e-11)
(0 1.431835699e-11 1.556499529e-24)
(0 1.822556311e-11 -1.070300907e-11)
(0 5.394925685e-12 -2.840322896e-12)
(0 2.674157352e-12 3.606625666e-13)
(0 2.259035885e-12 1.20998562e-12)
(0 2.143319399e-12 1.846252701e-12)
(0 2.179046711e-12 2.239532798e-12)
(0 2.222721958e-12 2.367317254e-12)
(0 2.256684231e-12 2.431064235e-12)
(0 2.426989536e-12 2.492941788e-12)
(0 2.861703767e-12 2.409822445e-12)
(0 3.45833606e-12 1.86162818e-12)
(0 3.837420245e-12 7.482259467e-13)
(0 3.586287441e-12 -5.614743884e-13)
(0 2.935713197e-12 -9.189666155e-13)
(0 5.119604562e-12 2.206805115e-12)
(0 9.390597453e-11 -1.817769282e-11)
(0 9.669576997e-11 -5.236773086e-11)
(0 1.00310381e-10 -8.478992133e-11)
(0 1.052473348e-10 -1.163211937e-10)
(0 1.11859977e-10 -1.472743239e-10)
(0 1.203934425e-10 -1.772438677e-10)
(0 1.3095245e-10 -2.050970425e-10)
(0 1.434498838e-10 -2.289382384e-10)
(0 1.575216104e-10 -2.460837546e-10)
(0 1.724768396e-10 -2.531719913e-10)
(0 1.875263716e-10 -2.466284416e-10)
(0 2.03007247e-10 -2.237025222e-10)
(0 2.212049003e-10 -1.835677308e-10)
(0 2.704830855e-10 -1.19998471e-10)
(0 9.421602367e-12 -2.743682286e-24)
(0 1.326423908e-11 5.286744355e-12)
(0 5.871715287e-12 1.392036463e-12)
(0 3.546492549e-12 1.17280569e-12)
(0 2.852221622e-12 1.505752918e-12)
(0 2.582448239e-12 1.93481477e-12)
(0 2.435611493e-12 2.261193761e-12)
(0 2.323338783e-12 2.413424485e-12)
(0 2.251370116e-12 2.42221371e-12)
(0 2.284177327e-12 2.2982929e-12)
(0 2.465017093e-12 1.988874892e-12)
(0 2.736266498e-12 1.41462907e-12)
(0 2.940881346e-12 6.11338967e-13)
(0 2.952296988e-12 -1.854217496e-13)
(0 2.902508638e-12 -5.958114825e-13)
(0 3.230742463e-12 -6.30069894e-13)
(0 6.181145212e-11 -2.219657575e-11)
(0 6.325514847e-11 -5.96198257e-11)
(0 6.45596921e-11 -9.39414019e-11)
(0 6.673582727e-11 -1.277028337e-10)
(0 7.026223373e-11 -1.617440498e-10)
(0 7.548938505e-11 -1.958485773e-10)
(0 8.271630804e-11 -2.289651101e-10)
(0 9.21413712e-11 -2.591903231e-10)
(0 1.036235957e-10 -2.836625677e-10)
(0 1.160733665e-10 -2.985164187e-10)
(0 1.260823422e-10 -2.991215249e-10)
(0 1.250857455e-10 -2.808536972e-10)
(0 9.540786292e-11 -2.398803423e-10)
(0 2.377757712e-13 -1.634428522e-10)
(0 -5.270285989e-12 -1.259753484e-24)
(0 -5.257787752e-12 5.582271964e-12)
(0 1.280987029e-12 1.948573868e-12)
(0 2.787873807e-12 1.432406395e-12)
(0 3.021044963e-12 1.705036515e-12)
(0 2.898760241e-12 2.125660485e-12)
(0 2.657656424e-12 2.456603555e-12)
(0 2.383741906e-12 2.60269071e-12)
(0 2.141552646e-12 2.546012056e-12)
(0 1.993650719e-12 2.289300843e-12)
(0 1.978039939e-12 1.833179858e-12)
(0 2.080800138e-12 1.197291869e-12)
(0 2.237369429e-12 4.684058264e-13)
(0 2.379136994e-12 -1.952386277e-13)
(0 2.491065054e-12 -6.483984254e-13)
(0 2.517080207e-12 -9.327678922e-13)
(0 3.301808543e-11 -3.025586865e-11)
(0 2.873727933e-11 -6.815035059e-11)
(0 2.60626095e-11 -1.019625332e-10)
(0 2.432903511e-11 -1.363510844e-10)
(0 2.35347422e-11 -1.723170513e-10)
(0 2.386815659e-11 -2.096456841e-10)
(0 2.572290729e-11 -2.473377703e-10)
(0 2.964926375e-11 -2.835089178e-10)
(0 3.618599232e-11 -3.15043776e-10)
(0 4.536419942e-11 -3.370169547e-10)
(0 5.546225475e-11 -3.417856263e-10)
(0 6.022234457e-11 -3.177775746e-10)
(0 4.458918949e-11 -2.492044119e-10)
(0 -2.653620552e-11 -1.291433223e-10)
(0 -5.120737165e-12 1.891084595e-24)
(0 -4.911798543e-12 -5.031029937e-12)
(0 1.721849729e-12 -6.12636979e-13)
(0 3.302955199e-12 9.030243952e-13)
(0 3.545475713e-12 1.755993039e-12)
(0 3.33401528e-12 2.405787377e-12)
(0 2.912641718e-12 2.836547506e-12)
(0 2.412747284e-12 2.994614806e-12)
(0 1.937980248e-12 2.870045412e-12)
(0 1.571345129e-12 2.48011752e-12)
(0 1.373008119e-12 1.857717384e-12)
(0 1.371492466e-12 1.073318083e-12)
(0 1.54835085e-12 2.607085259e-13)
(0 1.835492736e-12 -4.150813575e-13)
(0 2.164979374e-12 -8.694455444e-13)
(0 2.4079638e-12 -9.811362813e-13)
(0 -3.516163101e-12 -5.853364134e-11)
(0 -1.019484972e-11 -7.954186946e-11)
(0 -1.580360926e-11 -1.080494649e-10)
(0 -2.143199873e-11 -1.409359209e-10)
(0 -2.726025965e-11 -1.772630367e-10)
(0 -3.318004741e-11 -2.163694879e-10)
(0 -3.872447167e-11 -2.572983829e-10)
(0 -4.297857372e-11 -2.984113529e-10)
(0 -4.441398374e-11 -3.369064457e-10)
(0 -4.059118747e-11 -3.680723696e-10)
(0 -2.752906532e-11 -3.840670591e-10)
(0 1.822271692e-12 -3.720506264e-10)
(0 5.812017447e-11 -3.123562664e-10)
(0 1.775528927e-10 -1.855521625e-10)
(0 9.823295558e-12 3.172537597e-24)
(0 1.425418675e-11 -4.96909303e-12)
(0 7.215041362e-12 -2.709754956e-13)
(0 5.156503826e-12 1.036179337e-12)
(0 4.523807947e-12 2.009948441e-12)
(0 3.979314709e-12 2.904715629e-12)
(0 3.246483853e-12 3.489004594e-12)
(0 2.417239812e-12 3.669279562e-12)
(0 1.627055359e-12 3.45977212e-12)
(0 9.8132269e-13 2.90378832e-12)
(0 5.712405008e-13 2.044469196e-12)
(0 4.837912784e-13 9.780060005e-13)
(0 7.489699872e-13 -8.36188805e-14)
(0 1.248982923e-12 -8.560058712e-13)
(0 1.925010129e-12 -1.432505279e-12)
(0 2.959090618e-12 -1.694814512e-12)
(0 -4.892674946e-11 -6.992746454e-11)
(0 -5.308576331e-11 -8.512571387e-11)
(0 -5.98579636e-11 -1.094997245e-10)
(0 -6.888502393e-11 -1.399290435e-10)
(0 -8.006177283e-11 -1.750168972e-10)
(0 -9.325015269e-11 -2.139529948e-10)
(0 -1.080501439e-10 -2.559409412e-10)
(0 -1.235787539e-10 -2.997961871e-10)
(0 -1.381823473e-10 -3.435426537e-10)
(0 -1.490112544e-10 -3.839000769e-10)
(0 -1.513554402e-10 -4.15559491e-10)
(0 -1.375802728e-10 -4.29899898e-10)
(0 -9.728542168e-11 -4.112425788e-10)
(0 -4.722975025e-12 -3.171519965e-10)
(0 1.478555714e-11 -7.619369057e-25)
(0 1.96926133e-11 1.030131593e-11)
(0 7.727122096e-12 3.461923727e-12)
(0 5.583879134e-12 1.503116585e-12)
(0 5.414012004e-12 2.342478386e-12)
(0 4.813071433e-12 3.713715543e-12)
(0 3.677205651e-12 4.545378491e-12)
(0 2.38351481e-12 4.734018577e-12)
(0 1.172489006e-12 4.396433291e-12)
(0 1.560422048e-13 3.631047716e-12)
(0 -5.527741994e-13 2.438448341e-12)
(0 -7.565956109e-13 8.772821082e-13)
(0 -2.856610216e-13 -7.162952519e-13)
(0 4.866063389e-13 -1.491971665e-12)
(0 1.326170733e-12 -2.310841282e-12)
(0 4.893389575e-12 -5.417879205e-12)
(0 -9.001696043e-11 -7.27887332e-11)
(0 -9.424434858e-11 -8.477014099e-11)
(0 -1.026366946e-10 -1.054539046e-10)
(0 -1.151222708e-10 -1.325145636e-10)
(0 -1.317700165e-10 -1.646268071e-10)
(0 -1.52657017e-10 -2.010083878e-10)
(0 -1.777036007e-10 -2.410299039e-10)
(0 -2.064806683e-10 -2.838870938e-10)
(0 -2.380130051e-10 -3.282590963e-10)
(0 -2.706638183e-10 -3.71863633e-10)
(0 -3.023788877e-10 -4.107665677e-10)
(0 -3.319928216e-10 -4.381216674e-10)
(0 -3.633942497e-10 -4.415869958e-10)
(0 -4.067895953e-10 -3.969483412e-10)
(0 -5.050644901e-10 -2.783260364e-10)
(0 -7.159276845e-12 1.008983019e-11)
(0 -6.333933822e-12 -2.43589437e-12)
(0 4.037058483e-12 -8.293953616e-13)
(0 6.734406905e-12 2.141853757e-12)
(0 6.182214815e-12 5.061424296e-12)
(0 4.266786888e-12 6.244655519e-12)
(0 2.268294612e-12 6.325280993e-12)
(0 5.240844977e-13 5.761172233e-12)
(0 -9.766622599e-13 4.785255263e-12)
(0 -2.182525107e-12 3.199977266e-12)
(0 -2.670952316e-12 8.111611573e-13)
(0 -1.620283787e-12 -2.164550773e-12)
(0 -3.455631072e-13 -2.085399145e-12)
(0 -8.945314177e-12 6.044138005e-12)
(0 -9.357428305e-12 -1.692844308e-11)
(0 -1.263335259e-10 -6.927147949e-11)
(0 -1.312449163e-10 -7.886558499e-11)
(0 -1.414281188e-10 -9.590157242e-11)
(0 -1.571731506e-10 -1.186811977e-10)
(0 -1.788686649e-10 -1.460859443e-10)
(0 -2.06934044e-10 -1.774008569e-10)
(0 -2.417157267e-10 -2.120832266e-10)
(0 -2.833151765e-10 -2.495141774e-10)
(0 -3.313584875e-10 -2.886857642e-10)
(0 -3.846951388e-10 -3.277037904e-10)
(0 -4.40938771e-10 -3.628621384e-10)
(0 -4.954209921e-10 -3.868103606e-10)
(0 -5.380465976e-10 -3.851444109e-10)
(0 -5.41737756e-10 -3.315798178e-10)
(0 -4.450533084e-10 -1.981863139e-10)
(0 -2.867892531e-12 -2.474265406e-24)
(0 1.558672415e-12 -1.771611011e-11)
(0 1.016162726e-11 -4.52800661e-12)
(0 1.130483166e-11 1.99171635e-12)
(0 8.915873196e-12 8.144573743e-12)
(0 4.941062349e-12 9.0467829e-12)
(0 1.900031524e-12 8.561915836e-12)
(0 -3.675367248e-13 7.537962346e-12)
(0 -2.405152762e-12 6.548350575e-12)
(0 -4.526868306e-12 4.766764228e-12)
(0 -6.121123652e-12 1.335453671e-12)
(0 -3.182221325e-12 -6.665519282e-12)
(0 8.695295116e-12 -1.072875818e-11)
(0 3.296812602e-11 -9.835131549e-13)
(0 -2.000313388e-12 2.548212332e-11)
)
;

boundaryField
{
    lowerWall
    {
        type            slip;
    }
    atmosphere
    {
        type            pressureInletOutletVelocity;
        tangentialVelocity uniform (0 0 0);
        value           nonuniform List<vector> 
20
(
(0 2.730941794e-10 0)
(0 2.716952147e-10 0)
(0 2.692430883e-10 0)
(0 2.655261408e-10 0)
(0 2.602698593e-10 0)
(0 2.531543001e-10 0)
(0 2.438319753e-10 0)
(0 2.319488007e-10 0)
(0 2.171680945e-10 0)
(0 1.991986366e-10 0)
(0 1.778307528e-10 0)
(0 1.529890906e-10 0)
(0 1.248235615e-10 0)
(0 9.390597453e-11 0)
(0 6.181145212e-11 0)
(0 3.301808543e-11 0)
(0 -3.516163101e-12 -5.853364134e-11)
(0 -4.892674946e-11 -6.992746454e-11)
(0 -9.001696043e-11 -7.27887332e-11)
(0 -1.263335259e-10 -6.927147949e-11)
)
;
    }
    rightWall
    {
        type            empty;
    }
    leftWall
    {
        type            empty;
    }
    frontAndBack
    {
        type            slip;
    }
    procBoundary0to1
    {
        type            processor;
        value           nonuniform List<vector> 
20
(
(0 2.316669972e-12 4.228817567e-14)
(0 2.39376844e-12 1.343601009e-13)
(0 2.559790378e-12 2.520571442e-13)
(0 2.842183069e-12 4.254643662e-13)
(0 3.293692325e-12 7.159091683e-13)
(0 4.01251777e-12 1.268041069e-12)
(0 5.182309609e-12 2.467886653e-12)
(0 7.140876869e-12 5.474352936e-12)
(0 1.044035708e-11 1.417106982e-11)
(0 -6.769250141e-12 2.056890044e-11)
(0 -3.772056132e-11 2.083599904e-12)
(0 -4.364029174e-12 -1.406873158e-11)
(0 3.883410776e-12 -8.116625194e-12)
(0 2.383357679e-12 -3.198335852e-12)
(0 1.938082231e-12 -1.471177091e-12)
(0 1.990021341e-12 -4.274351308e-13)
(0 2.609210985e-12 1.052920504e-12)
(0 4.521233892e-12 5.4972516e-12)
(0 -2.823596344e-12 1.084562865e-11)
(0 -3.439050801e-11 -5.706955759e-12)
)
;
    }
    procBoundary0to2
    {
        type            processor;
        value           nonuniform List<vector> 
30
(
(0 -1.568528835e-10 -6.118582961e-11)
(0 -1.624299489e-10 -6.853544954e-11)
(0 -1.741043348e-10 -8.168245462e-11)
(0 -1.924137391e-10 -9.932961192e-11)
(0 -2.180339565e-10 -1.205129597e-10)
(0 -2.517120725e-10 -1.445331783e-10)
(0 -2.941882847e-10 -1.708338053e-10)
(0 -3.460199599e-10 -1.988429622e-10)
(0 -4.072779387e-10 -2.277614657e-10)
(0 -4.770138269e-10 -2.562318973e-10)
(0 -5.522305039e-10 -2.818110985e-10)
(0 -6.256761487e-10 -3.002159278e-10)
(0 -6.81015642e-10 -3.04699171e-10)
(0 -6.829016683e-10 -2.869152003e-10)
(0 -5.671483126e-10 -2.432379132e-10)
(0 -2.192093642e-10 -1.652009169e-10)
(0 1.401344648e-11 -1.25059427e-11)
(0 2.374488489e-11 -1.558672384e-12)
(0 1.940698725e-11 2.207816995e-12)
(0 1.323728136e-11 1.647851632e-11)
(0 4.684128981e-12 1.323690253e-11)
(0 7.594740574e-13 1.133884152e-11)
(0 -1.489480763e-12 9.281034122e-12)
(0 -3.747860377e-12 9.103408614e-12)
(0 -7.39542201e-12 7.984685201e-12)
(0 -1.410323583e-11 6.431316445e-12)
(0 -1.368449564e-11 -1.510404687e-11)
(0 -3.092975449e-12 -2.47501756e-11)
(0 -1.773443139e-11 -8.425506206e-12)
(0 -1.883164618e-11 5.715708208e-11)
)
;
    }
}


// ************************************************************************* //
