/*--------------------------------*- C++ -*----------------------------------*\
  =========                 |
  \\      /  F ield         | OpenFOAM: The Open Source CFD Toolbox
   \\    /   O peration     | Website:  https://openfoam.org
    \\  /    A nd           | Version:  6
     \\/     M anipulation  |
\*---------------------------------------------------------------------------*/
FoamFile
{
    version     2.0;
    format      ascii;
    class       volScalarField;
    location    "0.005";
    object      ViscousDissipation;
}
// * * * * * * * * * * * * * * * * * * * * * * * * * * * * * * * * * * * * * //

dimensions      [1 -1 -3 0 0 0 0];

internalField   nonuniform List<scalar> 
600
(
7.985004649e-22
2.771095511e-21
5.002185523e-21
6.506506874e-21
6.334283572e-21
4.419489307e-21
2.875344491e-21
7.519775672e-21
2.942409975e-20
8.570999409e-20
1.981656665e-19
3.877777544e-19
6.643125375e-19
1.013951286e-18
1.394469081e-18
1.749700751e-18
2.040949069e-18
2.260359381e-18
2.373934848e-18
2.214717301e-18
1.579921595e-18
6.848914474e-19
1.457983111e-19
5.378374355e-19
2.310549491e-18
5.488438818e-18
8.465742741e-18
8.214744858e-18
2.761997766e-18
9.13687905e-20
4.245714059e-21
6.203662516e-21
8.329208499e-21
9.684750532e-21
9.374369474e-21
7.363033063e-21
5.769426127e-21
1.039655851e-20
3.23144458e-20
8.880647312e-20
2.021908877e-19
3.944389197e-19
6.758222166e-19
1.029783746e-18
1.404408763e-18
1.72966679e-18
1.97025895e-18
2.174381946e-18
2.400679759e-18
2.46973007e-18
1.99753763e-18
1.172167838e-18
7.031282287e-19
1.136035179e-18
2.984689871e-18
6.504155358e-18
9.973792931e-18
1.001652263e-17
4.514661e-18
7.195705718e-19
1.131381831e-20
1.337232159e-20
1.553563056e-20
1.693027474e-20
1.669735718e-20
1.476949924e-20
1.314020976e-20
1.735866827e-20
3.818146056e-20
9.277520232e-20
2.041399856e-19
3.96205866e-19
6.814324469e-19
1.040202861e-18
1.402488883e-18
1.663048078e-18
1.773411672e-18
1.887524299e-18
2.304339419e-18
2.86088229e-18
2.673237435e-18
1.812956271e-18
1.298463603e-18
1.660242008e-18
3.61410589e-18
7.863951917e-18
1.240102068e-17
1.325401996e-17
8.538514884e-18
2.196554414e-18
2.445204829e-20
2.677488863e-20
2.920411645e-20
3.09557199e-20
3.120298701e-20
2.981421452e-20
2.855839755e-20
3.253278109e-20
5.183666738e-20
1.031396428e-19
2.100474477e-19
3.995946501e-19
6.895509793e-19
1.060602554e-18
1.418083761e-18
1.587529732e-18
1.450789972e-18
1.317178278e-18
2.041959671e-18
3.517840129e-18
3.695838719e-18
2.334078137e-18
1.430600255e-18
1.604306667e-18
4.139503596e-18
9.9676634e-18
1.629526634e-17
1.857047533e-17
1.658483799e-17
5.178279512e-18
4.709484617e-20
4.996634648e-20
5.310015818e-20
5.580659038e-20
5.725021779e-20
5.715629054e-20
5.692773078e-20
6.094930804e-20
7.82366401e-20
1.243499015e-19
2.23104401e-19
4.059184066e-19
7.01953178e-19
1.10456066e-18
1.501873129e-18
1.616793964e-18
1.147575672e-18
5.737421785e-19
2.101364395e-18
5.007987434e-18
5.289975231e-18
2.36510307e-18
6.797915265e-19
1.047157075e-18
5.823534154e-18
1.404262121e-17
2.225092517e-17
2.589723731e-17
3.093799531e-17
1.090415034e-17
8.393434192e-20
8.775759797e-20
9.224003974e-20
9.675729875e-20
1.00362791e-19
1.024945584e-19
1.039847938e-19
1.082257077e-19
1.226940859e-19
1.610218536e-19
2.460688039e-19
4.139465756e-19
7.138557214e-19
1.180919615e-18
1.734488611e-18
2.029119757e-18
1.548382442e-18
7.296418298e-19
5.528303187e-18
8.844657344e-18
8.450887797e-18
2.490057852e-18
6.045070596e-19
4.004826346e-18
1.702120293e-17
2.237164954e-17
2.879502875e-17
3.085931511e-17
5.238246383e-17
2.145791185e-17
1.40820732e-19
1.460876351e-19
1.527143081e-19
1.600516157e-19
1.668379026e-19
1.71942238e-19
1.752924172e-19
1.789626257e-19
1.885604343e-19
2.150847457e-19
2.784863122e-19
4.166067296e-19
7.041241394e-19
1.268787407e-18
2.203722185e-18
3.32105116e-18
4.716674738e-18
5.496883562e-18
2.945861679e-17
1.427953674e-17
4.348873679e-18
1.329057082e-18
3.446930721e-18
1.966795457e-17
1.612869863e-17
2.463007017e-17
3.09129276e-17
2.094552442e-17
6.884676898e-17
3.960644293e-17
2.243905506e-19
2.316301755e-19
2.412681747e-19
2.524558697e-19
2.632416178e-19
2.71365271e-19
2.751540077e-19
2.747445597e-19
2.736581069e-19
2.805113523e-19
3.116709833e-19
4.005025312e-19
6.331327218e-19
1.263592958e-18
2.901655667e-18
6.488765707e-18
1.429768897e-17
2.340938249e-17
6.602224121e-19
1.082626215e-17
7.265716508e-18
2.088857059e-18
2.147549074e-18
1.781274109e-18
6.688072863e-18
2.746935866e-17
6.722119432e-17
6.101192665e-17
3.337829491e-17
6.755506229e-17
3.413655202e-19
3.510757727e-19
3.646234413e-19
3.807213139e-19
3.961341695e-19
4.06442949e-19
4.068962023e-19
3.94047589e-19
3.684552506e-19
3.382007877e-19
3.23063297e-19
3.623256241e-19
5.43382437e-19
1.143784677e-18
3.686547509e-18
2.02735849e-17
6.063106692e-18
4.846304103e-18
1.35961067e-17
1.694605269e-16
1.65045749e-16
4.597349713e-17
6.345743597e-17
7.591576337e-17
1.83715874e-16
8.994653782e-17
4.248190899e-17
1.456036681e-16
9.004853459e-17
9.661873787e-17
4.974577141e-19
5.099664796e-19
5.284124477e-19
5.509238152e-19
5.72252242e-19
5.843020014e-19
5.767058839e-19
5.388887014e-19
4.651075055e-19
3.648874344e-19
2.835075679e-19
3.466467715e-19
8.979180355e-19
2.871245536e-18
7.71427168e-18
6.138001814e-18
7.423842361e-18
8.640072911e-17
1.878303465e-16
1.876874522e-16
5.494128407e-17
2.972699966e-17
1.351922764e-17
4.936053876e-17
9.745298013e-17
1.270059498e-16
8.228394796e-18
2.208389909e-16
1.007114744e-16
3.271011119e-20
6.957965688e-19
7.107845527e-19
7.352871457e-19
7.671338001e-19
7.985045939e-19
8.161412154e-19
8.013098314e-19
7.317328404e-19
5.895343332e-19
3.865379129e-19
2.404874691e-19
5.939125281e-19
2.748986345e-18
9.426393906e-18
2.377868952e-17
3.947960071e-18
8.949593242e-17
1.816908176e-16
4.060738698e-17
1.303944902e-17
4.388686898e-18
1.305525829e-18
1.533776998e-18
5.682555811e-18
1.660179623e-17
3.16492295e-17
3.649441165e-17
3.417731091e-16
2.865959917e-16
1.940183473e-18
9.347818127e-19
9.49749912e-19
9.814392399e-19
1.028268671e-18
1.079635659e-18
1.116711477e-18
1.112122534e-18
1.031737392e-18
8.455989546e-19
5.715924587e-19
4.455929751e-19
1.601624847e-18
8.145251949e-18
3.888330922e-17
8.257455687e-19
1.173995829e-17
1.92232214e-16
4.344055208e-17
2.297318614e-18
1.361545533e-18
5.397706651e-19
1.902270463e-20
1.61357305e-19
8.444098723e-19
3.489650741e-18
8.075416131e-18
1.489083474e-17
1.495801321e-16
1.36119454e-16
2.009778896e-19
1.205016248e-18
1.211625002e-18
1.25115229e-18
1.322572981e-18
1.41148168e-18
1.494267775e-18
1.538660429e-18
1.507368613e-18
1.374943743e-18
1.178700724e-18
1.157253362e-18
2.100815289e-18
5.659414377e-18
1.618916172e-17
1.230662514e-17
1.569718408e-16
1.841307273e-16
1.31617297e-17
1.475328447e-18
6.495677346e-19
1.824701016e-19
2.445907245e-20
2.246532612e-20
1.988674326e-19
1.088233921e-18
2.623321248e-18
3.652521938e-18
2.828124401e-18
6.184953924e-17
5.590866026e-17
1.482031236e-18
1.462604798e-18
1.511614556e-18
1.622907088e-18
1.773230908e-18
1.934261377e-18
2.070968863e-18
2.144220838e-18
2.128316492e-18
2.052787392e-18
2.060047052e-18
2.375078412e-18
3.441290883e-18
4.417964907e-18
8.10473895e-18
1.590928123e-16
4.610146518e-17
3.137344146e-18
7.120371578e-19
4.246760147e-19
1.745027365e-19
4.305473198e-20
1.258497765e-20
1.410595992e-19
6.398233504e-19
1.360664047e-18
1.599160727e-18
9.298874257e-19
1.665792809e-19
7.216771054e-18
1.701482165e-18
1.646824962e-18
1.716249182e-18
1.891112152e-18
2.129534206e-18
2.399702036e-18
2.662129713e-18
2.860083363e-18
2.916324134e-18
2.734439427e-18
2.208981452e-18
1.423378595e-18
2.47656334e-18
1.301454964e-18
1.989317738e-18
8.568175771e-17
3.146280311e-17
9.818656267e-19
3.15977664e-19
4.52327577e-19
3.205551556e-19
1.890738062e-19
1.674263106e-19
3.280616568e-19
7.346830952e-19
1.19175933e-18
1.247015164e-18
7.962128216e-19
3.60301414e-19
5.43427517e-19
2.346095323e-18
1.776166781e-18
1.843346407e-18
2.096640462e-18
2.442782028e-18
2.848763852e-18
3.274206076e-18
3.641976776e-18
3.80742439e-18
3.522265084e-18
2.475051132e-18
9.646221925e-19
3.351921181e-18
1.535051451e-17
1.65386367e-18
1.026643829e-16
4.35482594e-17
4.483092618e-18
1.405738962e-18
1.019119981e-18
7.951491715e-19
6.371494604e-19
6.318020313e-19
8.373025998e-19
1.232531865e-18
1.579170994e-18
1.509362196e-18
1.027844209e-18
4.827361515e-19
3.055033023e-19
1.025203812e-18
1.452124194e-18
1.80672781e-18
2.195851691e-18
2.668002673e-18
3.233460442e-18
3.87319899e-18
4.522719574e-18
5.043935454e-18
5.209577794e-18
4.837903926e-18
4.575778348e-18
9.761791795e-18
1.27804325e-17
6.187943414e-18
1.640067892e-16
5.228403918e-17
5.489495635e-18
2.656061317e-18
2.352866255e-18
1.990659861e-18
1.72249238e-18
1.696218284e-18
1.965067422e-18
2.439609473e-18
2.782764071e-18
2.520522081e-18
1.884642417e-18
1.953961459e-18
9.910207981e-18
8.727335198e-19
1.274053657e-18
1.693208154e-18
2.170785804e-18
2.758495789e-18
3.490248785e-18
4.379476867e-18
5.407388119e-18
6.511071255e-18
7.600604107e-18
8.687076014e-18
1.023343855e-17
1.365675952e-17
1.157976964e-17
1.19243358e-17
1.334508714e-16
1.382405004e-16
3.455960479e-18
3.165830234e-18
5.296919936e-18
4.749559169e-18
4.076892792e-18
3.869205952e-18
4.324265063e-18
5.284808838e-18
6.098724581e-18
5.214630587e-18
2.803002368e-18
5.634119445e-17
7.696424214e-17
6.629014746e-19
1.046732032e-18
1.484145303e-18
2.01305004e-18
2.687964804e-18
3.563411372e-18
4.686207041e-18
6.083696339e-18
7.748787578e-18
9.628940998e-18
1.161824943e-17
1.349142748e-17
1.430790548e-17
1.571998583e-17
3.116594828e-17
3.302860433e-17
2.194684615e-16
7.594053744e-17
2.260136139e-17
1.810710378e-17
1.182204761e-17
8.880439007e-18
7.665279917e-18
8.827888141e-18
1.215808249e-17
1.770657902e-17
1.755911156e-17
8.34551225e-17
6.83198497e-17
1.655918597e-19
5.067351764e-19
8.250914065e-19
1.229920327e-18
1.759911134e-18
2.473905206e-18
3.442032319e-18
4.737179788e-18
6.416108848e-18
8.477256571e-18
1.076390181e-17
1.273065744e-17
1.29496427e-17
8.758583828e-18
2.115415623e-18
4.134717996e-17
3.39354144e-17
1.20823716e-16
2.659533667e-16
9.839569195e-17
8.244103316e-17
3.00185676e-17
1.764320684e-17
1.190038348e-17
1.56417746e-17
2.77579789e-17
8.986399774e-17
2.067169158e-16
5.563406155e-16
2.133259355e-16
1.686080287e-18
)
;

boundaryField
{
    lowerWall
    {
        type            calculated;
        value           nonuniform 0();
    }
    atmosphere
    {
        type            calculated;
        value           nonuniform List<scalar> 
20
(
6.332163509e-22
4.094212071e-21
1.11914107e-20
2.437325027e-20
4.707176353e-20
8.397702724e-20
1.409414492e-19
2.24612714e-19
3.417470946e-19
4.98163258e-19
6.973529768e-19
9.390098812e-19
1.218434112e-18
1.528236656e-18
1.868522744e-18
3.006544601e-18
7.135740546e-19
6.373882261e-19
4.953321098e-19
3.871089456e-19
)
;
    }
    rightWall
    {
        type            empty;
    }
    leftWall
    {
        type            empty;
    }
    frontAndBack
    {
        type            calculated;
        value           nonuniform List<scalar> 
30
(
4.086667389e-22
2.389688958e-21
4.627789727e-21
6.12620999e-21
5.919961906e-21
3.928844636e-21
2.257692728e-21
6.734525765e-21
2.84716486e-20
8.467239546e-20
1.972367114e-19
3.872531372e-19
6.645770311e-19
1.015586684e-18
1.39868246e-18
1.758697678e-18
2.05679197e-18
2.280719085e-18
2.387796459e-18
2.208796442e-18
1.55637652e-18
6.469820128e-19
9.036121681e-20
4.74054197e-19
2.248639448e-18
5.408976643e-18
8.355286186e-18
8.107554523e-18
2.693941941e-18
9.115772621e-20
)
;
    }
    procBoundary0to1
    {
        type            processor;
        value           nonuniform List<scalar> 
20
(
3.296419074e-19
3.756722023e-19
4.927764539e-19
7.594206098e-19
1.42252167e-18
3.418714185e-18
1.145408027e-17
5.893872118e-17
1.266643919e-16
2.746338502e-16
5.982630057e-16
1.319702049e-16
4.667146792e-17
1.807740602e-17
3.270604592e-18
2.818011614e-18
1.581936396e-17
3.670231981e-17
1.062191981e-16
4.917676919e-16
)
;
    }
    procBoundary0to2
    {
        type            processor;
        value           nonuniform List<scalar> 
30
(
3.702690398e-19
6.162361107e-19
9.635965062e-19
1.456792111e-18
2.161543656e-18
3.16170064e-18
4.552554608e-18
6.418292702e-18
8.775592886e-18
1.144636079e-17
1.380191399e-17
1.440755251e-17
1.13861082e-17
8.169456301e-18
3.777883393e-17
9.989639043e-17
7.412612835e-17
2.261041983e-17
1.137739427e-16
4.012742193e-16
7.867314288e-17
3.1115964e-17
1.002791916e-17
2.281885123e-17
5.143572361e-17
5.013065155e-16
4.09153908e-16
1.167376957e-17
5.949579342e-18
5.772200898e-20
)
;
    }
}


// ************************************************************************* //
