/*--------------------------------*- C++ -*----------------------------------*\
  =========                 |
  \\      /  F ield         | OpenFOAM: The Open Source CFD Toolbox
   \\    /   O peration     | Website:  https://openfoam.org
    \\  /    A nd           | Version:  10
     \\/     M anipulation  |
\*---------------------------------------------------------------------------*/
FoamFile
{
    format      ascii;
    class       volScalarField;
    object      p_rgh;
}
// * * * * * * * * * * * * * * * * * * * * * * * * * * * * * * * * * * * * * //

dimensions      [0 0 0 1 0 0 0];

internalField   uniform 300;

boundaryField
{
    frontAndBack
    {
	type fixedGradient;
	gradient uniform -5000.0;
    }


    lowerWall
    {
	type fixedGradient;
	gradient uniform -500.0;
    }

    atmosphere
    {
        type            zeroGradient;

    defaultFaces
    {
        type            empty;
    }
}

// ************************************************************************* //
