/*--------------------------------*- C++ -*----------------------------------*\
  =========                 |
  \\      /  F ield         | OpenFOAM: The Open Source CFD Toolbox
   \\    /   O peration     | Website:  https://openfoam.org
    \\  /    A nd           | Version:  6
     \\/     M anipulation  |
\*---------------------------------------------------------------------------*/
FoamFile
{
    version     2.0;
    format      ascii;
    class       surfaceScalarField;
    location    "0.0052";
    object      phi;
}
// * * * * * * * * * * * * * * * * * * * * * * * * * * * * * * * * * * * * * //

dimensions      [0 3 -1 0 0 0 0];

internalField   nonuniform List<scalar> 
1150
(
-1.106268291e-18
-3.884245296e-19
-1.165049275e-18
-4.305571448e-19
-1.266845424e-18
-5.05693759e-19
-1.415723004e-18
-6.057901449e-19
-1.616073524e-18
-7.243819215e-19
-1.8724972e-18
-8.563540815e-19
-2.188884369e-18
-9.974034466e-19
-2.566858219e-18
-1.143326469e-18
-3.003006187e-18
-1.289074511e-18
-3.483797489e-18
-1.427383376e-18
-3.975169385e-18
-1.546913716e-18
-4.400468434e-18
-1.630734868e-18
-4.595365411e-18
-1.659589538e-18
-4.249212354e-18
-1.632782655e-18
-3.052534703e-18
-1.634248448e-18
-6.011362785e-19
-1.855257316e-18
1.868459531e-19
-1.509749756e-18
1.297525123e-19
1.81385166e-20
1.290073179e-19
1.507336024e-20
4.748976704e-20
1.506056246e-19
1.496528607e-20
1.045090585e-19
-4.838965296e-21
8.550240569e-20
-1.502077822e-20
6.697157917e-20
-3.495069349e-20
7.065588743e-20
-6.365493336e-20
6.758969518e-20
-1.243882111e-19
7.327537447e-20
-5.807173082e-20
-1.338319036e-19
1.683205816e-20
-2.024475286e-19
-2.532911435e-19
8.444796659e-19
2.532911433e-19
-1.272542419e-18
-3.072755675e-19
-1.335394737e-18
-3.341576062e-19
-1.444650481e-18
-3.813510324e-19
-1.605452573e-18
-4.422658721e-19
-1.823528117e-18
-5.107377631e-19
-2.10512919e-18
-5.811322852e-19
-2.456173583e-18
-6.482639792e-19
-2.88072566e-18
-7.072940888e-19
-3.378310385e-18
-7.536325522e-19
-3.939611823e-18
-7.829548666e-19
-4.53977547e-18
-7.914891287e-19
-5.1296334e-18
-7.774850531e-19
-5.628171206e-18
-7.463123295e-19
-5.931391071e-18
-7.24592236e-19
-5.918265298e-18
-7.874072115e-19
-5.445390907e-18
-1.053056568e-18
-3.06037382e-18
-1.30010522e-18
5.287183082e-32
-4.042189479e-19
2.154910131e-19
-5.140345236e-19
1.393200721e-21
3.64708947e-19
-4.041366761e-21
1.09943331e-19
-2.336979173e-20
1.048426767e-19
-1.133647006e-20
5.494026189e-20
-3.801688574e-20
9.732536201e-20
-5.796925396e-20
8.75628783e-20
-2.824469198e-19
2.977530403e-19
-6.807614454e-32
-1.002472312e-18
-5.941693194e-19
-1.574549945e-19
-4.736117001e-19
6.750809556e-19
-1.477187364e-33
-1.388171562e-18
-2.206853661e-19
-1.450848236e-18
-2.330466906e-19
-1.559801413e-18
-2.533168915e-19
-1.720416095e-18
-2.758893893e-19
-1.938796868e-18
-2.945822383e-19
-2.221717821e-18
-3.029857811e-19
-2.57586961e-18
-2.94761427e-19
-3.006469549e-18
-2.640405126e-19
-3.514977433e-18
-2.061036992e-19
-4.095854214e-18
-1.18429699e-19
-4.733231389e-18
-2.002084382e-21
-5.401217837e-18
1.380655095e-19
-6.078223422e-18
2.954477139e-19
-6.794889266e-18
4.75150509e-19
-7.705632292e-18
7.221016817e-19
-9.129483055e-18
1.125193483e-18
-1.090457671e-17
1.428191375e-18
-1.0584525e-17
4.445342414e-19
-8.517034096e-18
5.961029137e-19
-4.924520148e-19
-3.612743643e-19
-2.774701736e-19
-1.050496011e-19
-7.32722063e-20
-9.934617784e-20
3.104862993e-20
-4.938310201e-20
2.205487832e-19
-9.213912378e-20
3.913005077e-19
-8.318589255e-20
5.432744867e-18
-2.948191725e-19
2.409372724e-18
1.217139893e-18
1.123153235e-18
2.234092497e-19
9.495376989e-19
-5.502300027e-19
4.907852884e-33
-1.453792023e-18
-1.378519406e-19
-1.51177636e-18
-1.374882909e-19
-1.612243738e-18
-1.340892474e-19
-1.759999646e-18
-1.228160231e-19
-1.960458177e-18
-9.740103307e-20
-2.219614067e-18
-5.071484046e-20
-2.543341837e-18
2.465988069e-20
-2.936096812e-18
1.355826567e-19
-3.398561379e-18
2.86930361e-19
-3.923658124e-18
4.792166339e-19
-4.490151532e-18
7.050817693e-19
-5.05378612e-18
9.455054307e-19
-5.539193375e-18
1.170226688e-18
-5.846151323e-18
1.355584414e-18
-5.850923345e-18
1.547680155e-18
-5.390952801e-18
1.88373856e-18
-3.027664539e-18
1.582778203e-18
5.265191085e-32
-1.45901498e-20
2.189255958e-19
-9.01287824e-21
2.852347967e-21
-1.452329869e-19
-3.438597869e-21
-9.876280676e-20
-2.330913065e-20
-7.9467327e-20
-1.170739173e-20
-6.096235148e-20
-3.882613821e-20
-6.501146442e-20
-5.941237189e-20
-6.254992663e-20
-2.853807876e-19
-6.883567385e-20
-6.803098859e-32
1.386272228e-19
-6.012855085e-19
2.05144455e-19
-4.357597846e-19
-8.245967982e-19
-2.528460759e-19
-1.474476838e-18
-6.642822574e-20
-1.523736106e-18
-5.619765981e-20
-1.608431175e-18
-3.451222164e-20
-1.732047401e-18
2.758234585e-21
-1.898336572e-18
6.177566145e-20
-2.111284374e-18
1.500249935e-19
-2.374513313e-18
2.755569154e-19
-2.6902019e-18
4.458496923e-19
-3.056978829e-18
6.657984958e-19
-3.465552315e-18
9.340252306e-19
-3.888959757e-18
1.236170523e-18
-4.26084352e-18
1.533093854e-18
-4.430036771e-18
1.742563993e-18
-4.098578303e-18
1.722035845e-18
-2.961265518e-18
1.341146307e-18
-5.791656399e-19
4.685991639e-19
1.903943199e-19
1.706178399e-19
1.322646275e-19
4.351782075e-20
1.317540563e-19
-8.527454805e-21
4.932252832e-20
-6.282290628e-20
1.585688189e-20
-6.530075826e-20
-4.804155211e-21
-5.879948333e-20
-1.575650458e-20
-4.999777732e-20
-3.636460042e-20
-4.436792532e-20
-6.569811921e-20
-3.318775446e-20
-1.269664603e-19
-7.547049531e-21
-6.017012367e-20
7.185790482e-20
1.413513174e-20
1.308534976e-19
-2.528460761e-19
1.155472497e-19
-5.076185698e-19
-1.459217795e-18
-1.183694262e-20
-1.496862129e-18
4.6129615e-21
-1.560562983e-18
3.765026386e-20
-1.651948403e-18
9.064111845e-20
-1.772370413e-18
1.692533174e-19
-1.922851331e-18
2.806822613e-19
-2.103635629e-18
4.328264978e-19
-2.313623424e-18
6.330742428e-19
-2.549573593e-18
8.862054877e-19
-2.804660358e-18
1.190576556e-18
-3.064537333e-18
1.530934524e-18
-3.294742357e-18
1.864011825e-18
-3.397393769e-18
2.087574897e-18
-3.125573308e-18
1.966772582e-18
-1.402119381e-18
8.996927015e-19
-3.436662974e-20
8.698640768e-33
6.329430106e-20
7.294382131e-20
8.021935182e-20
2.657743798e-20
7.745860463e-20
-5.791255508e-21
4.684467637e-20
-3.222493786e-20
2.235815679e-20
-4.081534108e-20
3.997550718e-21
-4.043005893e-20
-1.012665249e-20
-3.585960855e-20
-2.518442953e-20
-2.928917252e-20
-4.005741424e-20
-1.828615549e-20
-4.756150583e-20
-1.312103851e-23
-1.174530907e-21
2.549826043e-20
1.112211302e-19
1.850176286e-20
3.239880543e-19
-9.718534043e-20
1.698162462e-19
-1.419794411e-18
2.321845217e-20
-1.44454588e-18
4.191542778e-20
-1.484958662e-18
7.872716506e-20
-1.540562164e-18
1.361449995e-19
-1.60995029e-18
2.188433131e-19
-1.690639786e-18
3.32906861e-19
-1.778649756e-18
4.849976232e-19
-1.868236525e-18
6.811451722e-19
-1.952143628e-18
9.247610155e-19
-2.023439236e-18
1.213331166e-18
-2.081317014e-18
1.533066721e-18
-2.145264703e-18
1.850232407e-18
-2.254830435e-18
2.094739021e-18
-2.209292484e-18
2.092002699e-18
-1.827876894e-18
1.06784514e-18
-8.811016471e-20
-1.29408524e-19
1.692791775e-20
-3.211233795e-20
4.785065848e-20
-4.363938473e-21
5.102492234e-20
-8.982967752e-21
3.825427326e-20
-1.946579725e-20
2.274343898e-20
-2.53056937e-20
8.568001041e-21
-2.624729353e-20
-3.55621642e-21
-2.372277494e-20
-1.418141254e-20
-1.864383017e-20
-2.178437985e-20
-1.066093235e-20
-2.205012443e-20
2.772403466e-22
-8.171028472e-21
1.165380859e-20
-4.465973113e-21
1.483474615e-20
-1.214025721e-19
1.978355208e-20
5.666575941e-20
-1.369178003e-18
3.892976136e-20
-1.381581337e-18
5.61235139e-20
-1.399737368e-18
8.955839457e-20
-1.421211012e-18
1.407473466e-19
-1.442009342e-18
2.129050559e-19
-1.456315563e-18
3.102410322e-19
-1.455944712e-18
4.371409566e-19
-1.429792493e-18
5.969165254e-19
-1.363163443e-18
7.896151313e-19
-1.236770088e-18
1.008074731e-18
-1.024842385e-18
1.230965424e-18
-6.941902166e-19
1.411290812e-18
-3.145363531e-19
1.459860281e-18
1.294380698e-19
1.230413599e-18
2.022633072e-19
-3.842355329e-33
7.252969929e-20
3.074296229e-22
4.467631728e-20
-4.275309019e-21
4.32316292e-20
-2.935245433e-21
4.054209281e-20
-6.309509907e-21
3.241437683e-20
-1.134937573e-20
2.180183915e-20
-1.46959385e-20
1.109251959e-20
-1.553284135e-20
1.522728394e-21
-1.414253116e-20
-6.198514729e-21
-1.090691745e-20
-1.084620714e-20
-5.992189186e-21
-1.067355617e-20
1.301147274e-22
-4.990090914e-21
6.002124199e-21
4.828328512e-22
9.398858765e-21
8.071858805e-21
1.222633341e-20
1.437520546e-20
-1.319730413e-18
3.815498369e-20
-1.322051146e-18
5.084254263e-20
-1.322125331e-18
7.519545007e-20
-1.316059543e-18
1.117089545e-19
-1.2980129e-18
1.618509813e-19
-1.259950609e-18
2.275155692e-19
-1.191278483e-18
3.103690294e-19
-1.078743075e-18
4.108187942e-19
-9.065795905e-19
5.261143849e-19
-6.566131432e-19
6.465405771e-19
-3.069631475e-19
7.475915651e-19
1.647939469e-19
7.742560098e-19
5.371538695e-19
6.122827503e-19
8.270529334e-19
7.821642296e-20
1.392270586e-19
-1.721670008e-32
6.794696057e-20
7.157521305e-20
4.601638082e-20
1.764075416e-20
3.985736469e-20
3.207752182e-21
3.550222694e-20
-1.970235695e-21
2.906781404e-20
-4.926788317e-21
2.096493628e-20
-6.598303101e-21
1.248282975e-20
-7.049165275e-21
4.758342129e-21
-6.409867413e-21
-1.283786471e-21
-4.849322478e-21
-4.723903216e-21
-2.529298673e-21
-4.801546696e-21
2.368942727e-22
-1.593356348e-21
2.828208411e-21
3.31030751e-21
4.531728374e-21
1.022073083e-20
5.34712813e-21
4.091107217e-21
-1.281500836e-18
2.582027814e-20
-1.277322224e-18
3.214594292e-20
-1.265876496e-18
4.392644368e-20
-1.242545481e-18
6.068571879e-20
-1.20066875e-18
8.20812293e-20
-1.131436753e-18
1.076234207e-19
-1.024002945e-18
1.363903758e-19
-8.666674967e-19
1.667339547e-19
-6.503444944e-19
1.959636285e-19
-3.766909908e-19
2.200151494e-19
-7.48307755e-20
2.330989119e-19
1.726558475e-19
2.274523029e-19
3.038872417e-19
1.932773444e-19
-8.017822078e-20
1.198477744e-19
-5.752588134e-20
3.367720275e-34
1.401250174e-20
2.344672806e-23
3.158337886e-20
5.506593942e-23
3.467937684e-20
9.583052178e-23
3.254567433e-20
1.473973515e-22
2.739629928e-20
2.084713429e-22
2.051407412e-20
2.754563055e-22
1.312212761e-20
3.412161818e-22
6.318887076e-21
4.006036294e-22
1.03623733e-21
4.510356201e-22
-1.957710274e-21
4.915819455e-22
-2.210232562e-21
5.237023237e-22
1.101636125e-22
5.455774569e-22
4.125707275e-21
5.508241064e-22
8.964709911e-21
5.398253495e-22
5.087395308e-22
-1.260924027e-18
8.024959775e-21
-1.254537892e-18
7.491508592e-21
-1.239391814e-18
5.821831149e-21
-1.210936303e-18
1.686827897e-21
-1.16268407e-18
-6.940875556e-21
-1.086125102e-18
-2.279691934e-20
-9.70873605e-19
-4.922844848e-20
-8.059141836e-19
-8.974896109e-20
-5.831471243e-19
-1.467535116e-19
-3.056454323e-19
-2.183826066e-19
-4.441020274e-21
-2.913700807e-19
2.353562723e-19
-3.26023495e-19
3.49554945e-19
-2.277186495e-19
-6.308840781e-20
1.631023204e-19
-5.750243461e-20
1.786354482e-32
1.404412095e-20
-7.153652107e-20
3.162414344e-20
-1.75419746e-20
3.473094367e-20
-3.028823774e-21
3.260674832e-20
2.252938794e-21
2.746328424e-20
5.337840839e-21
2.0579834e-20
7.149370685e-21
1.318151505e-20
7.738211382e-21
6.369319066e-21
7.222665768e-21
1.076783656e-21
5.765144206e-21
-1.925589895e-21
3.52791081e-21
-2.188357429e-21
8.242811527e-22
1.15410262e-22
-1.725611735e-21
4.114708519e-21
-3.41350395e-21
8.933624091e-21
-4.257519177e-21
-3.065372684e-21
-1.260127021e-18
-8.98605631e-21
-1.255840412e-18
-1.552475485e-20
-1.24482848e-18
-2.892480528e-20
-1.223387804e-18
-5.117910214e-20
-1.186176151e-18
-8.569347147e-20
-1.126020406e-18
-1.371110622e-19
-1.033661972e-18
-2.11029477e-19
-8.978148028e-19
-3.13306379e-19
-7.055555659e-19
-4.484665786e-19
-4.427255322e-19
-6.163930446e-19
-9.302608885e-20
-8.060754969e-19
3.586272599e-19
-9.848392751e-19
6.824313034e-19
-1.082938804e-18
8.826040078e-19
-9.8097113e-19
1.392891973e-19
4.640461669e-33
6.803866736e-20
-3.012888701e-22
4.613729425e-20
4.336089731e-21
4.001270621e-20
3.076046553e-21
3.569165035e-20
6.559389217e-21
2.927481406e-20
1.173854289e-20
2.116867468e-20
1.524658929e-20
1.266596945e-20
1.624327408e-20
4.911797491e-21
1.499167977e-20
-1.160449737e-21
1.186566491e-20
-4.629219547e-21
7.029394326e-21
-4.738250314e-21
9.66525877e-22
-1.57248195e-21
-4.862421975e-21
3.270693284e-21
-8.249122917e-21
1.012577058e-20
-1.109026231e-20
-1.33184575e-20
-1.276929204e-18
-1.984300038e-20
-1.278379159e-18
-3.040244068e-20
-1.278121015e-18
-5.163607527e-20
-1.273991548e-18
-8.59351549e-20
-1.262758025e-18
-1.375655659e-19
-1.239938604e-18
-2.123932216e-19
-1.199420903e-18
-3.175476173e-19
-1.133147454e-18
-4.607332869e-19
-1.030769453e-18
-6.48803217e-19
-8.790818377e-19
-8.8505714e-19
-6.606233942e-19
-1.16453165e-18
-3.536024377e-19
-1.46607677e-18
-4.549288684e-20
-1.736986853e-18
2.43546303e-19
-1.826761197e-18
2.023315866e-19
-1.001371658e-18
7.267604604e-20
1.293402446e-19
4.487725111e-20
3.211650991e-20
4.349604891e-20
4.437389784e-21
4.087080408e-20
9.160183342e-21
3.278286047e-20
1.981567807e-20
2.216535949e-20
2.586109895e-20
1.141437517e-20
2.700244292e-20
1.785782616e-21
2.464114176e-20
-5.996720322e-21
1.967374098e-20
-1.0692088e-20
1.176065755e-20
-1.056719817e-20
8.623932802e-22
-4.959182892e-21
-1.047296842e-20
4.295538786e-22
-1.360160146e-20
7.897575419e-21
-1.853704766e-20
-5.553797955e-20
-1.305526705e-18
-2.088330798e-20
-1.31509243e-18
-3.275827774e-20
-1.32990524e-18
-5.65392963e-20
-1.349789441e-18
-9.469603328e-20
-1.374274429e-18
-1.516768662e-19
-1.402562755e-18
-2.335883674e-19
-1.433313446e-18
-3.478204909e-19
-1.464656594e-18
-5.023091943e-19
-1.494803655e-18
-7.039578209e-19
-1.524298554e-18
-9.553836408e-19
-1.562246649e-18
-1.248307957e-18
-1.640976545e-18
-1.549719432e-18
-1.815977522e-18
-1.771380941e-18
-1.903978717e-18
-1.696461207e-18
-1.724973011e-18
-7.431529958e-19
-8.789136654e-20
-7.676027952e-33
1.719813094e-20
-7.299398093e-20
4.821884247e-20
-2.660491419e-20
5.152629885e-20
5.855742142e-21
3.882828133e-20
3.248689159e-20
2.330670346e-20
4.138167012e-20
9.053074051e-21
4.127410887e-20
-3.18161821e-21
3.689828747e-20
-1.390980375e-20
3.043142743e-20
-2.159035228e-20
1.944640242e-20
-2.190255988e-20
1.197945686e-21
-8.087815937e-21
-2.425310153e-20
-4.505892348e-21
-1.715387788e-20
-1.2169558e-19
9.868776582e-20
-1.685646226e-19
-1.337767975e-18
-1.067559066e-20
-1.356199101e-18
-2.096682921e-20
-1.38739769e-18
-4.164596447e-20
-1.433243259e-18
-7.494363906e-20
-1.496101975e-18
-1.247979873e-19
-1.57890614e-18
-1.965430505e-19
-1.684941884e-18
-2.965477765e-19
-1.817592896e-18
-4.314962973e-19
-1.979908196e-18
-6.068660777e-19
-2.173527e-18
-8.237664873e-19
-2.395128006e-18
-1.072794438e-18
-2.62427578e-18
-1.322699203e-18
-2.781455134e-18
-1.502430986e-18
-2.648942366e-18
-1.483553956e-18
-1.205492234e-18
-1.152733703e-18
-3.419799118e-20
-4.127744389e-19
6.358719765e-20
-1.707864785e-19
8.067949865e-20
-4.368244926e-20
7.815744822e-20
8.333006425e-21
4.772305974e-20
6.291198259e-20
2.319914218e-20
6.589473993e-20
4.677252696e-21
5.980687335e-20
-9.648478289e-21
5.124094319e-20
-2.489482871e-20
4.567055491e-20
-3.983880895e-20
3.446193807e-20
-4.735360703e-20
8.739705708e-21
-9.885922914e-22
-7.059917738e-20
1.113357513e-19
-1.294536527e-19
3.234442445e-19
-1.134057245e-19
5.090188076e-19
-1.364798547e-18
9.878001594e-21
-1.391149498e-18
3.709477623e-21
-1.436930073e-18
-8.928048655e-21
-1.505765875e-18
-2.977328245e-20
-1.602403257e-18
-6.167984527e-20
-1.732842916e-18
-1.083996137e-19
-1.904004084e-18
-1.743119704e-19
-2.122994456e-18
-2.639517922e-19
-2.39534039e-18
-3.810164357e-19
-2.72089502e-18
-5.265582586e-19
-3.084128319e-18
-6.960793415e-19
-3.432270338e-18
-8.763942476e-19
-3.629198178e-18
-1.04649359e-18
-3.394472327e-18
-1.195512898e-18
-2.453919256e-18
-1.384507449e-18
-3.577961727e-19
-1.769946972e-18
1.906912265e-19
-1.511845471e-18
1.326949544e-19
1.429324316e-20
1.327364246e-19
8.285644636e-21
5.070581705e-20
1.448975701e-19
1.711127564e-20
9.947318937e-20
-3.888677378e-21
8.081304908e-20
-1.521886666e-20
6.257117344e-20
-3.610344558e-20
6.662564588e-20
-6.556104136e-20
6.395298842e-20
-1.266924902e-19
6.988460438e-20
-5.98430676e-20
-1.374438652e-19
1.499143324e-20
-2.042881535e-19
-2.541311733e-19
8.459615539e-19
2.541311731e-19
-1.378773238e-18
3.785244588e-20
-1.410646525e-18
3.751746737e-20
-1.466549069e-18
3.62326346e-20
-1.551240644e-18
3.291498392e-20
-1.671023274e-18
2.615101259e-20
-1.833883782e-18
1.429608859e-20
-2.049135469e-18
-4.442429936e-21
-2.326492392e-18
-3.18597278e-20
-2.674125807e-18
-6.949433043e-20
-3.09487623e-18
-1.181692335e-19
-3.579794122e-18
-1.774934257e-19
-4.098742378e-18
-2.461380438e-19
-4.591235486e-18
-3.255648557e-19
-4.970959396e-18
-4.327903841e-19
-5.124923668e-18
-6.27203487e-19
-4.913498245e-18
-1.00530273e-18
-2.845792916e-18
-1.319828334e-18
5.521307236e-32
-4.149037777e-19
2.202997809e-19
-5.738754534e-19
5.281436083e-21
3.599001792e-19
-1.548864652e-21
1.063070423e-19
-2.213055294e-20
1.014085543e-19
-1.116439431e-20
5.163550275e-20
-3.877610304e-20
9.426327994e-20
-5.96294253e-20
8.481224603e-20
-2.849723905e-19
2.952275696e-19
-6.886302592e-32
-1.058008969e-18
-6.73567988e-19
-1.138866711e-19
-5.212783948e-19
5.96854564e-19
-3.787052086e-33
-1.37431268e-18
6.899060714e-20
-1.408363641e-18
7.505236758e-20
-1.468181643e-18
8.62006643e-20
-1.558874033e-18
1.020449164e-19
-1.687213078e-18
1.227189054e-19
-1.861819477e-18
1.488518338e-19
-2.092805708e-18
1.814532078e-19
-2.390895927e-18
2.21714743e-19
-2.765640005e-18
2.705671047e-19
-3.222488066e-18
3.280447207e-19
-3.75936391e-18
3.925246978e-19
-4.366191135e-18
4.608366506e-19
-5.03742486e-18
5.318268925e-19
-5.816323498e-18
6.192607879e-19
-6.860238508e-18
7.789933463e-19
-8.473180792e-18
1.101760697e-18
-1.045280649e-17
1.352771108e-18
-1.02352706e-17
4.009197002e-19
-8.381287797e-18
5.857392898e-19
-4.873913004e-19
-3.598596225e-19
-2.747755051e-19
-1.062969677e-19
-7.190360433e-20
-1.014486827e-19
3.146338275e-20
-5.17193645e-20
2.201010157e-19
-9.438049397e-20
3.89865498e-19
-8.49532663e-20
5.385077414e-18
-2.953463945e-19
2.314283938e-18
1.153553296e-18
1.004666365e-18
2.673871073e-19
8.736942841e-19
-7.33480671e-19
2.655230586e-33
-1.349469567e-18
9.861516741e-20
-1.38206374e-18
1.103895481e-19
-1.43905489e-18
1.326301418e-19
-1.525037853e-18
1.655269938e-19
-1.646076792e-18
2.106101066e-19
-1.809936684e-18
2.705540733e-19
-2.02572202e-18
3.489735243e-19
-2.303067686e-18
4.498363669e-19
-2.650166331e-18
5.763747149e-19
-3.070063745e-18
7.289717992e-19
-3.554091038e-18
9.02034472e-19
-4.072461282e-18
1.08044246e-18
-4.564792383e-18
1.240329953e-18
-4.944105723e-18
1.367183707e-18
-5.096573063e-18
1.518303985e-18
-4.899436732e-18
1.852276992e-18
-2.822613147e-18
1.514408781e-18
5.427352622e-32
-1.411125438e-20
2.203403376e-19
-8.070191544e-21
5.250953948e-21
-1.447822853e-19
-1.599067615e-21
-9.944132389e-20
-2.21742863e-20
-8.086327775e-20
-1.11977466e-20
-6.26929528e-20
-3.879990929e-20
-6.677925324e-20
-5.96072299e-20
-6.412637703e-20
-2.848535657e-19
-7.008708696e-20
-6.965705682e-32
1.371876426e-19
-6.03584116e-19
2.041126043e-19
-4.875860914e-19
-8.081014937e-19
-2.543026348e-19
-1.306019577e-18
-1.333944193e-18
-1.382147804e-18
-1.453876767e-18
-1.553419344e-18
-1.686253487e-18
-1.85887941e-18
-2.078152775e-18
-2.34968821e-18
-2.673739524e-18
-3.035586535e-18
-3.383339461e-18
-3.581242295e-18
-3.348343806e-18
-2.416554482e-18
-3.209142402e-19
1.908732153e-19
1.327284187e-19
1.32676813e-19
5.05919156e-20
1.697897853e-20
-4.003961425e-21
-1.528404695e-20
-3.614703308e-20
-6.556793994e-20
-1.266274054e-19
-5.976239416e-20
1.516698245e-20
-2.54302635e-19
)
;

boundaryField
{
    lowerWall
    {
        type            calculated;
        value           nonuniform 0();
    }
    atmosphere
    {
        type            calculated;
        value           nonuniform List<scalar> 
20
(
1.087379879e-18
1.252375471e-18
1.368043637e-18
1.435119195e-18
1.458521305e-18
1.446885789e-18
1.411488346e-18
1.364734022e-18
1.318449245e-18
1.282272528e-18
1.262415162e-18
1.260998488e-18
1.276049214e-18
1.302153764e-18
1.331663298e-18
1.356248102e-18
1.368510182e-18
1.363367673e-18
1.338960273e-18
1.296924961e-18
)
;
    }
    rightWall
    {
        type            empty;
        value           nonuniform 0();
    }
    leftWall
    {
        type            empty;
        value           nonuniform 0();
    }
    frontAndBack
    {
        type            calculated;
        value           nonuniform 0();
    }
    procBoundary2to0
    {
        type            processor;
        value           nonuniform List<scalar> 
30
(
4.540374123e-19
5.114997946e-19
6.13815854e-19
7.506531207e-19
9.147348751e-19
1.101022987e-18
1.305577542e-18
1.524195396e-18
1.750686356e-18
1.974054694e-18
2.173464647e-18
2.308956935e-18
2.30665929e-18
2.046850646e-18
1.445736699e-18
4.573222716e-19
1.667459026e-19
3.892081507e-20
-1.436419971e-20
-6.910792615e-20
-7.198297533e-20
-6.568214801e-20
-5.677554234e-20
-5.072289415e-20
-3.887277421e-20
-1.247551138e-20
6.755538816e-20
1.275548129e-19
1.123400826e-19
-5.088032848e-19
)
;
    }
    procBoundary2to3
    {
        type            processor;
        value           nonuniform List<scalar> 
20
(
2.202527666e-21
1.966099217e-19
1.616186893e-19
1.966277873e-19
1.937773564e-21
-3.53426133e-19
-8.230456594e-21
5.038435989e-20
2.052675079e-20
1.256962923e-20
1.252598012e-20
2.039093339e-20
5.013381437e-20
-8.655242373e-21
-3.541321038e-19
7.573050877e-22
1.948465285e-19
1.599680525e-19
1.947543037e-19
6.689207349e-22
)
;
    }
    procBoundary2to4
    {
        type            processor;
        value           nonuniform List<scalar> 
30
(
1.226216885e-19
1.383233925e-19
1.681259298e-19
2.126048316e-19
2.742143284e-19
3.571306856e-19
4.66917464e-19
6.098312151e-19
7.911097845e-19
1.011590098e-18
1.261064572e-18
1.506485607e-18
1.673348457e-18
1.628014201e-18
1.25122993e-18
4.419416511e-19
1.710770819e-19
4.399323133e-20
-8.048951359e-21
-6.271316209e-20
-6.582992988e-20
-5.987237828e-20
-5.140747482e-20
-4.59040531e-20
-3.469600655e-20
-8.967477061e-21
7.035234299e-20
1.291891611e-19
1.13014296e-19
-5.093035228e-19
)
;
    }
}


// ************************************************************************* //
