/*--------------------------------*- C++ -*----------------------------------*\
  =========                 |
  \\      /  F ield         | OpenFOAM: The Open Source CFD Toolbox
   \\    /   O peration     | Website:  https://openfoam.org
    \\  /    A nd           | Version:  6
     \\/     M anipulation  |
\*---------------------------------------------------------------------------*/
FoamFile
{
    version     2.0;
    format      ascii;
    class       volVectorField;
    location    "0.0052";
    object      U;
}
// * * * * * * * * * * * * * * * * * * * * * * * * * * * * * * * * * * * * * //

dimensions      [0 1 -1 0 0 0 0];

internalField   nonuniform List<vector> 
600
(
(0 -1.631159451e-10 -6.396015217e-11)
(0 -1.688164014e-10 -7.142987059e-11)
(0 -1.807340042e-10 -8.47892454e-11)
(0 -1.993860857e-10 -1.026993438e-10)
(0 -2.254139537e-10 -1.241504576e-10)
(0 -2.595177339e-10 -1.483984686e-10)
(0 -3.023799816e-10 -1.748459935e-10)
(0 -3.544925926e-10 -2.028868549e-10)
(0 -4.15857751e-10 -2.316973374e-10)
(0 -4.854618472e-10 -2.599085437e-10)
(0 -5.602542037e-10 -2.850816448e-10)
(0 -6.329499687e-10 -3.029550962e-10)
(0 -6.872097137e-10 -3.068201362e-10)
(0 -6.877167072e-10 -2.883838982e-10)
(0 -5.703566253e-10 -2.440826814e-10)
(0 -2.206917359e-10 -1.654984308e-10)
(0 1.401344648e-11 -1.25059427e-11)
(0 2.374488489e-11 -1.558672384e-12)
(0 1.940698725e-11 2.207816995e-12)
(0 1.323728136e-11 1.647851632e-11)
(0 4.684128981e-12 1.323690253e-11)
(0 7.594740574e-13 1.133884152e-11)
(0 -1.489480763e-12 9.281034122e-12)
(0 -3.747860377e-12 9.103408614e-12)
(0 -7.39542201e-12 7.984685201e-12)
(0 -1.410323583e-11 6.431316445e-12)
(0 -1.368449564e-11 -1.510404687e-11)
(0 -3.092975449e-12 -2.47501756e-11)
(0 -1.773443139e-11 -8.425506206e-12)
(0 -1.883164618e-11 5.715708208e-11)
(0 -1.878664487e-10 -5.256442902e-11)
(0 -1.939537995e-10 -5.773022512e-11)
(0 -2.067038786e-10 -6.690554173e-11)
(0 -2.267663207e-10 -7.901544228e-11)
(0 -2.549647444e-10 -9.312935013e-11)
(0 -2.922212377e-10 -1.084548032e-10)
(0 -3.394923467e-10 -1.242960449e-10)
(0 -3.976043808e-10 -1.399958038e-10)
(0 -4.66955135e-10 -1.548626901e-10)
(0 -5.470139646e-10 -1.680894067e-10)
(0 -6.355155213e-10 -1.787075408e-10)
(0 -7.272510934e-10 -1.85798142e-10)
(0 -8.126210978e-10 -1.896211213e-10)
(0 -8.770781856e-10 -1.950224026e-10)
(0 -9.057579311e-10 -2.182357102e-10)
(0 -8.886005671e-10 -2.845763695e-10)
(0 -8.663237404e-10 -4.011384014e-10)
(0 5.392470318e-24 1.360388745e-12)
(0 1.616182597e-11 1.130502017e-12)
(0 1.626631603e-11 3.86485929e-11)
(0 -1.986124529e-13 1.608392921e-11)
(0 -2.055836885e-12 1.427588117e-11)
(0 -2.602969633e-12 9.143388089e-12)
(0 -3.701501683e-12 1.25985937e-11)
(0 -7.198960473e-12 1.163644301e-11)
(0 -2.553121302e-11 2.782713114e-11)
(0 -2.118351898e-11 -1.003739276e-11)
(0 -8.442422639e-24 -1.518356464e-11)
(0 -1.553570848e-10 2.073715446e-10)
(0 1.474574412e-11 1.899683574e-11)
(0 -2.052171664e-10 -3.961831823e-11)
(0 -2.112916857e-10 -4.2516835e-11)
(0 -2.240006284e-10 -4.74993237e-11)
(0 -2.440151574e-10 -5.366290056e-11)
(0 -2.722065008e-10 -6.008909888e-11)
(0 -3.095625621e-10 -6.587896744e-11)
(0 -3.571329113e-10 -7.017249204e-11)
(0 -4.158806153e-10 -7.217362182e-11)
(0 -4.864153397e-10 -7.119582354e-11)
(0 -5.68576134e-10 -6.67426587e-11)
(0 -6.608855826e-10 -5.862622918e-11)
(0 -7.601318928e-10 -4.711879199e-11)
(0 -8.620613142e-10 -3.310368134e-11)
(0 -9.656880687e-10 -1.816442756e-11)
(0 -1.085546226e-09 -4.440687616e-12)
(0 -1.26613394e-09 5.912097104e-12)
(0 -1.586088229e-09 1.145667416e-11)
(0 -1.690408194e-09 6.134104933e-12)
(0 -2.25030537e-09 1.245852838e-11)
(0 -3.693390115e-11 2.575937009e-13)
(0 -5.774416419e-11 3.670297443e-13)
(0 -2.630567852e-11 4.122374112e-13)
(0 -3.166768231e-12 4.167869917e-13)
(0 1.8869806e-11 3.889678668e-13)
(0 4.588869686e-11 3.282739313e-13)
(0 2.934753811e-11 2.200400865e-13)
(0 1.278663657e-09 3.231745475e-11)
(0 4.145155314e-10 9.959118664e-12)
(0 2.214806173e-10 1.032138062e-11)
(0 1.212140171e-11 2.555959582e-25)
(0 -2.152782314e-10 -2.659033402e-11)
(0 -2.209113454e-10 -2.740461648e-11)
(0 -2.326521335e-10 -2.850907617e-11)
(0 -2.510886339e-10 -2.912492606e-11)
(0 -2.769979185e-10 -2.831643415e-11)
(0 -3.112563959e-10 -2.506100887e-11)
(0 -3.547905801e-10 -1.831758327e-11)
(0 -4.084423012e-10 -7.12292663e-12)
(0 -4.727130475e-10 9.251865094e-12)
(0 -5.473151421e-10 3.106208044e-11)
(0 -6.304160271e-10 5.780173227e-11)
(0 -7.174573755e-10 8.809292514e-11)
(0 -7.996777303e-10 1.204563593e-10)
(0 -8.633490257e-10 1.56425807e-10)
(0 -8.938331195e-10 2.073983313e-10)
(0 -8.793712004e-10 2.934149873e-10)
(0 -8.574968308e-10 4.215377312e-10)
(0 5.744301106e-24 -1.094261235e-12)
(0 1.641941967e-11 -6.759658676e-13)
(0 1.663334577e-11 -3.798805138e-11)
(0 -4.396874261e-14 -1.528593058e-11)
(0 -2.006079638e-12 -1.341101286e-11)
(0 -2.626239177e-12 -8.27590902e-12)
(0 -3.790014743e-12 -1.178629411e-11)
(0 -7.367888254e-12 -1.093018643e-11)
(0 -2.585948695e-11 -2.72741135e-11)
(0 -2.140355906e-11 1.039704171e-11)
(0 -8.867176215e-24 1.538583412e-11)
(0 -1.507462888e-10 -1.980573407e-10)
(0 1.474708404e-11 -1.896345568e-11)
(0 -2.187876524e-10 -1.47712189e-11)
(0 -2.235967886e-10 -1.385590836e-11)
(0 -2.33542548e-10 -1.174342676e-11)
(0 -2.490390994e-10 -7.760678572e-12)
(0 -2.706412581e-10 -9.652613006e-13)
(0 -2.989483349e-10 9.756791346e-12)
(0 -3.345610111e-10 2.558663546e-11)
(0 -3.779710629e-10 4.761655591e-11)
(0 -4.293496326e-10 7.658003887e-11)
(0 -4.881276193e-10 1.123796755e-10)
(0 -5.520849204e-10 1.533119708e-10)
(0 -6.152416627e-10 1.949538723e-10)
(0 -6.630593657e-10 2.290619856e-10)
(0 -6.623796863e-10 2.438660199e-10)
(0 -5.511023718e-10 2.295736389e-10)
(0 -2.134473901e-10 1.681853067e-10)
(0 1.427957399e-11 1.2796338e-11)
(0 2.419942104e-11 2.16957532e-12)
(0 1.980140127e-11 -1.315524978e-12)
(0 1.358074384e-11 -1.5604192e-11)
(0 4.888455764e-12 -1.230476737e-11)
(0 8.289545009e-13 -1.037001077e-11)
(0 -1.542049484e-12 -8.322009668e-12)
(0 -3.909082873e-12 -8.203454227e-12)
(0 -7.654703969e-12 -7.180326078e-12)
(0 -1.444984345e-11 -5.728704259e-12)
(0 -1.403524379e-11 1.578638457e-11)
(0 -3.452624393e-12 2.519984644e-11)
(0 -1.790332082e-11 8.666043736e-12)
(0 -1.881812268e-11 -5.70348484e-11)
(0 -2.17040936e-10 -5.165093886e-12)
(0 -2.207517129e-10 -3.022193009e-12)
(0 -2.283098172e-10 1.355176691e-12)
(0 -2.398905269e-10 8.532786528e-12)
(0 -2.557315324e-10 1.941389823e-11)
(0 -2.760278489e-10 3.512592041e-11)
(0 -3.00893854e-10 5.68975602e-11)
(0 -3.302933996e-10 8.587391274e-11)
(0 -3.639463914e-10 1.227877256e-10)
(0 -4.01196982e-10 1.673436144e-10)
(0 -4.407407629e-10 2.170460864e-10)
(0 -4.797450503e-10 2.649666358e-10)
(0 -5.107898011e-10 2.957641393e-10)
(0 -5.104142524e-10 2.800902281e-10)
(0 -4.219067815e-10 1.827710794e-10)
(0 -2.577497233e-12 3.205318759e-24)
(0 2.169575351e-12 1.82671246e-11)
(0 1.076352398e-11 5.257144402e-12)
(0 1.182584675e-11 -1.073903273e-12)
(0 9.322746084e-12 -7.128588318e-12)
(0 5.190212492e-12 -7.958707447e-12)
(0 1.976678065e-12 -7.442215665e-12)
(0 -4.596826335e-13 -6.439303947e-12)
(0 -2.648331154e-12 -5.524282335e-12)
(0 -4.893138287e-12 -3.860543244e-12)
(0 -6.571419012e-12 -5.670127933e-13)
(0 -3.655202759e-12 7.301712391e-12)
(0 8.253494952e-12 1.120164453e-11)
(0 3.264068887e-11 1.377143196e-12)
(0 -2.207855903e-12 -2.533517425e-11)
(0 -2.117296921e-10 1.605179778e-12)
(0 -2.142201994e-10 4.38510652e-12)
(0 -2.191294314e-10 9.90128544e-12)
(0 -2.263661953e-10 1.859758599e-11)
(0 -2.358074194e-10 3.126741471e-11)
(0 -2.471787772e-10 4.893646037e-11)
(0 -2.60008821e-10 7.273695671e-11)
(0 -2.735742048e-10 1.037259628e-10)
(0 -2.868803348e-10 1.425821378e-10)
(0 -2.987767788e-10 1.890803468e-10)
(0 -3.084764988e-10 2.411668554e-10)
(0 -3.171195655e-10 2.932527389e-10)
(0 -3.320067565e-10 3.329065731e-10)
(0 -3.682420462e-10 3.332592151e-10)
(0 -4.781504059e-10 2.62440074e-10)
(0 -6.60826235e-12 -9.705639303e-12)
(0 -5.338668519e-12 3.062361254e-12)
(0 4.858393215e-12 1.666012462e-12)
(0 7.415668558e-12 -1.108066744e-12)
(0 6.695939667e-12 -3.876805137e-12)
(0 4.574828416e-12 -4.959077607e-12)
(0 2.348358e-12 -5.000801432e-12)
(0 3.758838464e-13 -4.468678767e-12)
(0 -1.330322172e-12 -3.5949752e-12)
(0 -2.697434428e-12 -2.171031588e-12)
(0 -3.287587819e-12 1.980894812e-14)
(0 -2.266586466e-12 2.786405176e-12)
(0 -9.477751184e-13 2.500238175e-12)
(0 -9.440140885e-12 -5.805134132e-12)
(0 -9.722477146e-12 1.698615041e-11)
(0 -2.047149235e-10 5.351986584e-12)
(0 -2.060350131e-10 8.169488398e-12)
(0 -2.084092344e-10 1.367993956e-11)
(0 -2.1149768e-10 2.218669013e-11)
(0 -2.148395669e-10 3.429504118e-11)
(0 -2.17719039e-10 5.079928169e-11)
(0 -2.191020534e-10 7.255607468e-11)
(0 -2.175566349e-10 1.002980128e-10)
(0 -2.111611138e-10 1.34323149e-10)
(0 -1.973730652e-10 1.739679609e-10)
(0 -1.727875759e-10 2.167127107e-10)
(0 -1.326353223e-10 2.564984469e-10)
(0 -7.173618404e-11 2.793033506e-10)
(0 2.833374462e-11 2.425258451e-10)
(0 1.516974803e-11 1.218358294e-24)
(0 2.060947547e-11 -9.682582081e-12)
(0 8.790451238e-12 -2.729073524e-12)
(0 6.593095982e-12 -5.474387927e-13)
(0 6.283029148e-12 -1.146935824e-12)
(0 5.47173522e-12 -2.311137975e-12)
(0 4.066216197e-12 -3.000122414e-12)
(0 2.467076905e-12 -3.133510115e-12)
(0 9.461435985e-13 -2.839897961e-12)
(0 -3.50683975e-13 -2.21630607e-12)
(0 -1.278354139e-12 -1.248984115e-12)
(0 -1.613982247e-12 3.055163058e-14)
(0 -1.174773531e-12 1.324194959e-12)
(0 -3.380443545e-13 1.817520368e-12)
(0 6.416018739e-13 2.400741414e-12)
(0 4.3842164e-12 5.328072363e-12)
(0 -1.977708617e-10 6.320026506e-12)
(0 -1.981325574e-10 8.65120296e-12)
(0 -1.984398893e-10 1.31576606e-11)
(0 -1.981657928e-10 1.998990334e-11)
(0 -1.966019901e-10 2.950457962e-11)
(0 -1.92723916e-10 4.216666166e-11)
(0 -1.851390732e-10 5.843050637e-11)
(0 -1.720493025e-10 7.855017398e-11)
(0 -1.51250101e-10 1.022312225e-10)
(0 -1.201452356e-10 1.279618984e-10)
(0 -7.562995967e-11 1.517494322e-10)
(0 -1.331774907e-11 1.649668173e-10)
(0 7.184563893e-11 1.517947552e-10)
(0 2.083734585e-10 9.466594391e-11)
(0 1.04420294e-11 -2.793005781e-24)
(0 1.553805145e-11 5.3911982e-12)
(0 8.547250609e-12 1.002408386e-12)
(0 6.440530916e-12 2.043800615e-14)
(0 5.651969375e-12 -6.209809199e-13)
(0 4.842753076e-12 -1.220712304e-12)
(0 3.752456276e-12 -1.59706812e-12)
(0 2.508582454e-12 -1.693650496e-12)
(0 1.293087891e-12 -1.541429895e-12)
(0 2.605916745e-13 -1.181717994e-12)
(0 -4.505767268e-13 -6.391115891e-13)
(0 -7.144087438e-13 2.752567504e-14)
(0 -4.796177285e-13 6.622749454e-13)
(0 1.287713372e-13 1.044794035e-12)
(0 1.014827876e-12 1.318009617e-12)
(0 2.306061122e-12 1.38497345e-12)
(0 -1.923434613e-10 5.122117977e-12)
(0 -1.920833446e-10 6.591201415e-12)
(0 -1.910627163e-10 9.382186314e-12)
(0 -1.886578531e-10 1.349343996e-11)
(0 -1.840422772e-10 1.900748883e-11)
(0 -1.760628395e-10 2.602668924e-11)
(0 -1.632248532e-10 3.459701261e-11)
(0 -1.437634025e-10 4.459476334e-11)
(0 -1.159365323e-10 5.552651995e-11)
(0 -7.880331782e-11 6.614117726e-11)
(0 -3.399743532e-11 7.367342291e-11)
(0 1.059756325e-11 7.258700541e-11)
(0 3.497391305e-11 5.370418909e-11)
(0 -3.97624492e-12 1.536500165e-11)
(0 -4.3144411e-12 -1.538311674e-24)
(0 -3.26350347e-12 5.369899483e-12)
(0 3.419691044e-12 1.327186508e-12)
(0 4.969706677e-12 2.477687026e-13)
(0 5.041878837e-12 -1.367128757e-13)
(0 4.49564802e-12 -3.538737734e-13)
(0 3.593278005e-12 -4.742135094e-13)
(0 2.52271513e-12 -5.030961817e-13)
(0 1.458076101e-12 -4.506947842e-13)
(0 5.516343305e-13 -3.298715142e-13)
(0 -6.911047076e-14 -1.528287545e-13)
(0 -3.125957126e-13 5.704474479e-14)
(0 -1.575051712e-13 2.5303394e-13)
(0 3.176903165e-13 3.811914359e-13)
(0 9.817812889e-13 4.415215114e-13)
(0 1.615075435e-12 3.449885059e-13)
(0 -1.893645426e-10 2.622472876e-12)
(0 -1.888868003e-10 3.049253901e-12)
(0 -1.874220779e-10 3.790153202e-12)
(0 -1.843509864e-10 4.704327948e-12)
(0 -1.788644294e-10 5.606580852e-12)
(0 -1.698435276e-10 6.247695913e-12)
(0 -1.558488732e-10 6.3054514e-12)
(0 -1.351988281e-10 5.409196049e-12)
(0 -1.062733342e-10 3.245814296e-12)
(0 -6.830741752e-11 -1.526434862e-13)
(0 -2.318229329e-11 -3.754197465e-12)
(0 2.088249246e-11 -4.350962802e-12)
(0 4.34743315e-11 4.318490566e-12)
(0 1.177507728e-12 2.068122883e-11)
(0 -4.312682596e-12 1.63979372e-24)
(0 -3.259373524e-12 -5.363480575e-12)
(0 3.425119829e-12 -1.31151815e-12)
(0 4.976631533e-12 -2.199744938e-13)
(0 5.050326899e-12 1.800252108e-13)
(0 4.505252442e-12 4.159734141e-13)
(0 3.603233868e-12 5.56862024e-13)
(0 2.532101179e-12 6.059570669e-13)
(0 1.466312559e-12 5.717452054e-13)
(0 5.584577041e-13 4.662134867e-13)
(0 -6.366046793e-14 3.014619565e-13)
(0 -3.085460493e-13 1.010987608e-13)
(0 -1.554710375e-13 -8.850257081e-14)
(0 3.172589085e-13 -2.147009882e-13)
(0 9.786249457e-13 -2.788270373e-13)
(0 1.609470316e-12 -1.917474864e-13)
(0 -1.891523001e-10 -2.134074841e-13)
(0 -1.888629406e-10 -7.979521026e-13)
(0 -1.878406671e-10 -2.035936493e-12)
(0 -1.855695681e-10 -4.184703651e-12)
(0 -1.813908031e-10 -7.666144546e-12)
(0 -1.743784867e-10 -1.305054807e-11)
(0 -1.632999566e-10 -2.102019739e-11)
(0 -1.465975863e-10 -3.22658285e-11)
(0 -1.224177806e-10 -4.722993831e-11)
(0 -8.866713734e-11 -6.553669967e-11)
(0 -4.294923277e-11 -8.483330649e-11)
(0 1.815516317e-11 -9.874523993e-11)
(0 9.843335384e-11 -9.441968157e-11)
(0 2.251442003e-10 -5.808964933e-11)
(0 1.04466898e-11 2.887442531e-24)
(0 1.554958986e-11 -5.387835745e-12)
(0 8.563197126e-12 -9.904413659e-13)
(0 6.461250038e-12 3.541708445e-15)
(0 5.677826745e-12 6.609246005e-13)
(0 4.872484833e-12 1.280728781e-12)
(0 3.783261658e-12 1.679696997e-12)
(0 2.537598311e-12 1.798611409e-12)
(0 1.318332521e-12 1.666075917e-12)
(0 2.813510817e-13 1.322310683e-12)
(0 -4.342251965e-13 7.917978848e-13)
(0 -7.0256024e-13 1.343105274e-13)
(0 -4.733049201e-13 -4.94102528e-13)
(0 1.273658501e-13 -8.746970146e-13)
(0 1.004734791e-12 -1.151083613e-12)
(0 2.288752799e-12 -1.228787263e-12)
(0 -1.914106734e-10 -2.478439708e-12)
(0 -1.916527076e-10 -3.849677887e-12)
(0 -1.918214145e-10 -6.622653404e-12)
(0 -1.915898985e-10 -1.113714398e-11)
(0 -1.905713791e-10 -1.799044483e-11)
(0 -1.882020059e-10 -2.800164016e-11)
(0 -1.836959333e-10 -4.216281993e-11)
(0 -1.759947994e-10 -6.153383023e-11)
(0 -1.637181489e-10 -8.701886315e-11)
(0 -1.450891534e-10 -1.18933499e-10)
(0 -1.177620698e-10 -1.562142365e-10)
(0 -7.840484338e-11 -1.948629511e-10)
(0 -2.38232868e-11 -2.237549879e-10)
(0 6.218397308e-11 -2.046822025e-10)
(0 1.517486899e-11 -1.078606126e-24)
(0 2.062557244e-11 9.677921678e-12)
(0 8.816497282e-12 2.733944975e-12)
(0 6.627997499e-12 5.63507725e-13)
(0 6.327513971e-12 1.178967941e-12)
(0 5.524024839e-12 2.366566575e-12)
(0 4.121116495e-12 3.083076617e-12)
(0 2.518480099e-12 3.243428773e-12)
(0 9.900118335e-13 2.972461618e-12)
(0 -3.158203278e-13 2.365455441e-12)
(0 -1.251660624e-12 1.40925389e-12)
(0 -1.594446462e-12 1.371689369e-13)
(0 -1.164478579e-12 -1.150154279e-12)
(0 -3.397221758e-13 -1.638804328e-12)
(0 6.24534697e-13 -2.22204825e-12)
(0 4.352354232e-12 -5.164232777e-12)
(0 -1.95327434e-10 -3.468771036e-12)
(0 -1.963256939e-10 -5.257327217e-12)
(0 -1.981744777e-10 -8.842046057e-12)
(0 -2.00790006e-10 -1.459957999e-11)
(0 -2.041371306e-10 -2.32088568e-11)
(0 -2.081316263e-10 -3.56051103e-11)
(0 -2.126174635e-10 -5.292555372e-11)
(0 -2.173479697e-10 -7.640262809e-11)
(0 -2.220151367e-10 -1.071417634e-10)
(0 -2.264240053e-10 -1.456829713e-10)
(0 -2.310752827e-10 -1.911663689e-10)
(0 -2.387933614e-10 -2.397180565e-10)
(0 -2.590386337e-10 -2.812253194e-10)
(0 -3.09498477e-10 -2.916779387e-10)
(0 -4.468200044e-10 -2.423342704e-10)
(0 -6.591852487e-12 9.700518343e-12)
(0 -5.301992667e-12 -3.065810328e-12)
(0 4.906273003e-12 -1.66256433e-12)
(0 7.480885595e-12 1.126194411e-12)
(0 6.77659351e-12 3.922692728e-12)
(0 4.660123857e-12 5.043207678e-12)
(0 2.426983312e-12 5.120741382e-12)
(0 4.403591879e-13 4.615457197e-12)
(0 -1.281856647e-12 3.757887629e-12)
(0 -2.662511701e-12 2.340529497e-12)
(0 -3.26196841e-12 1.545254226e-13)
(0 -2.249278185e-12 -2.604455245e-12)
(0 -9.445281209e-13 -2.306660949e-12)
(0 -9.465110424e-12 6.011303868e-12)
(0 -9.776311676e-12 -1.680769516e-11)
(0 -1.997550508e-10 -2.790137374e-12)
(0 -2.01581778e-10 -4.555295061e-12)
(0 -2.052632743e-10 -8.091505072e-12)
(0 -2.109678904e-10 -1.376214695e-11)
(0 -2.190231352e-10 -2.221922526e-11)
(0 -2.298357091e-10 -3.435399345e-11)
(0 -2.438810979e-10 -5.123783963e-11)
(0 -2.616749576e-10 -7.400495993e-11)
(0 -2.837317579e-10 -1.035987341e-10)
(0 -3.104893246e-10 -1.402367878e-10)
(0 -3.420896071e-10 -1.823214042e-10)
(0 -3.775536245e-10 -2.242807533e-10)
(0 -4.118355169e-10 -2.526500396e-10)
(0 -4.247060176e-10 -2.405217711e-10)
(0 -3.633847108e-10 -1.561024397e-10)
(0 -2.564849341e-12 -2.979960986e-24)
(0 2.204190487e-12 -1.828353446e-11)
(0 1.082000223e-11 -5.271552256e-12)
(0 1.191277103e-11 1.064156142e-12)
(0 9.441038107e-12 7.15491557e-12)
(0 5.319165149e-12 8.045730749e-12)
(0 2.090729618e-12 7.581073663e-12)
(0 -3.728419198e-13 6.610442306e-12)
(0 -2.590748028e-12 5.707648673e-12)
(0 -4.85502283e-12 4.043125535e-12)
(0 -6.539431205e-12 7.453238553e-13)
(0 -3.625664952e-12 -7.113920915e-12)
(0 8.276036936e-12 -1.099556479e-11)
(0 3.260849972e-11 -1.1038469e-12)
(0 -2.301589449e-12 2.553406386e-11)
(0 -2.034438055e-10 -4.070124887e-13)
(0 -2.060122812e-10 -1.721581605e-12)
(0 -2.113291883e-10 -4.377331337e-12)
(0 -2.197780975e-10 -8.679713869e-12)
(0 -2.319932223e-10 -1.515502171e-11)
(0 -2.487908154e-10 -2.450866473e-11)
(0 -2.7115837e-10 -3.757427816e-11)
(0 -3.001913954e-10 -5.521754832e-11)
(0 -3.369362622e-10 -7.813536813e-11)
(0 -3.820200618e-10 -1.064644952e-10)
(0 -4.34766116e-10 -1.390901256e-10)
(0 -4.910764382e-10 -1.726084056e-10)
(0 -5.385858582e-10 -2.002717916e-10)
(0 -5.46554075e-10 -2.122569589e-10)
(0 -4.551096207e-10 -2.010486994e-10)
(0 -1.499182513e-10 -1.521317395e-10)
(0 1.430184198e-11 -1.280898589e-11)
(0 2.425396356e-11 -2.204190456e-12)
(0 1.990735342e-11 1.246398829e-12)
(0 1.375816812e-11 1.558571647e-11)
(0 5.086281949e-12 1.240259469e-11)
(0 9.916948692e-13 1.054649418e-11)
(0 -1.433065802e-12 8.535908756e-12)
(0 -3.849173416e-12 8.422215055e-12)
(0 -7.624836517e-12 7.381119483e-12)
(0 -1.441901486e-11 5.896823262e-12)
(0 -1.399016683e-11 -1.560322819e-11)
(0 -3.363872575e-12 -2.503063546e-11)
(0 -1.79354805e-11 -8.505429344e-12)
(0 -1.900304011e-11 5.723624852e-11)
(0 -2.052838367e-10 3.374048347e-12)
(0 -2.08371303e-10 2.843560683e-12)
(0 -2.148272506e-10 1.715900264e-12)
(0 -2.251764592e-10 -2.241923749e-13)
(0 -2.402530198e-10 -3.305360554e-12)
(0 -2.61139158e-10 -7.94479833e-12)
(0 -2.891549215e-10 -1.462066039e-11)
(0 -3.257793044e-10 -2.382416914e-11)
(0 -3.724575378e-10 -3.596784398e-11)
(0 -4.302034079e-10 -5.123221383e-11)
(0 -4.988592427e-10 -6.938118522e-11)
(0 -5.758739301e-10 -8.976061365e-11)
(0 -6.547121153e-10 -1.121507551e-10)
(0 -7.239204523e-10 -1.398689512e-10)
(0 -7.709055179e-10 -1.862802431e-10)
(0 -7.854840374e-10 -2.726076276e-10)
(0 -8.040794874e-10 -4.017237268e-10)
(0 5.815171728e-24 1.071993237e-12)
(0 1.652248356e-11 6.214233474e-13)
(0 1.691859126e-11 3.785983123e-11)
(0 2.799428572e-13 1.543351737e-11)
(0 -1.775956318e-12 1.366662025e-11)
(0 -2.497121043e-12 8.565500723e-12)
(0 -3.7455373e-12 1.206666943e-11)
(0 -7.380414622e-12 1.115739258e-11)
(0 -2.584513617e-11 2.738341308e-11)
(0 -2.137292928e-11 -1.030828989e-11)
(0 -8.867745212e-24 -1.532161151e-11)
(0 -1.744600308e-10 2.036681522e-10)
(0 1.461348963e-11 1.905983797e-11)
(0 -2.045126527e-10 7.983177398e-12)
(0 -2.078070453e-10 8.415017614e-12)
(0 -2.147094886e-10 9.160032517e-12)
(0 -2.257878864e-10 1.010851245e-11)
(0 -2.419365982e-10 1.116570903e-11)
(0 -2.643199572e-10 1.225600424e-11)
(0 -2.943651993e-10 1.332081933e-11)
(0 -3.336853439e-10 1.431363818e-11)
(0 -3.838932714e-10 1.518707462e-11)
(0 -4.462528221e-10 1.587929043e-11)
(0 -5.211583924e-10 1.629665307e-11)
(0 -6.07663772e-10 1.630160972e-11)
(0 -7.039997454e-10 1.570304586e-11)
(0 -8.115102837e-10 1.426362047e-11)
(0 -9.461700972e-10 1.171514384e-11)
(0 -1.151726925e-09 7.731236382e-12)
(0 -1.501049314e-09 2.23797442e-12)
(0 -1.635984169e-09 -2.093159264e-12)
(0 -2.208741782e-09 1.784846529e-12)
(0 -3.655434757e-11 3.041753343e-15)
(0 -5.716251047e-11 7.555932495e-16)
(0 -2.600093323e-11 -3.009628926e-15)
(0 -3.033016622e-12 -6.28963075e-15)
(0 1.88673299e-11 -8.791052211e-15)
(0 4.574748857e-11 -1.05765208e-14)
(0 2.923991238e-11 -8.911866178e-15)
(0 1.265045648e-09 1.432538043e-11)
(0 3.981228331e-10 2.302077058e-11)
(0 1.998347874e-10 -6.283037424e-12)
(0 1.199760395e-11 -8.543462025e-26)
(0 -2.008512111e-10 1.27128955e-11)
(0 -2.040136808e-10 1.409755832e-11)
(0 -2.106103025e-10 1.669461988e-11)
(0 -2.211454468e-10 2.049504081e-11)
(0 -2.364218531e-10 2.563439864e-11)
(0 -2.574854928e-10 3.23748667e-11)
(0 -2.856221096e-10 4.107845592e-11)
(0 -3.222871186e-10 5.214677637e-11)
(0 -3.68920111e-10 6.590703197e-11)
(0 -4.265514988e-10 8.242469194e-11)
(0 -4.95062399e-10 1.012836233e-10)
(0 -5.719559711e-10 1.215473007e-10)
(0 -6.507418641e-10 1.42595254e-10)
(0 -7.199548456e-10 1.672467608e-10)
(0 -7.669342079e-10 2.083387736e-10)
(0 -7.81264318e-10 2.865141473e-10)
(0 -7.988140614e-10 4.036995667e-10)
(0 5.803411429e-24 -1.058344078e-12)
(0 1.652552531e-11 -6.052643655e-13)
(0 1.691934686e-11 -3.784814312e-11)
(0 2.738914749e-13 -1.543037186e-11)
(0 -1.783001542e-12 -1.367339703e-11)
(0 -2.502902466e-12 -8.580923806e-12)
(0 -3.74982419e-12 -1.208698103e-11)
(0 -7.380535436e-12 -1.118097324e-11)
(0 -2.583455965e-11 -2.740751114e-11)
(0 -2.136401741e-11 1.028907319e-11)
(0 -8.855526621e-24 1.530844532e-11)
(0 -1.589108608e-10 -2.02463723e-10)
(0 1.460657277e-11 -1.90726976e-11)
(0 -1.945452021e-10 1.686794518e-11)
(0 -1.972775942e-10 1.901118058e-11)
(0 -2.029043731e-10 2.307783469e-11)
(0 -2.11767465e-10 2.913600126e-11)
(0 -2.244360663e-10 3.750456863e-11)
(0 -2.416493837e-10 4.872403738e-11)
(0 -2.643198814e-10 6.351120261e-11)
(0 -2.934882861e-10 8.265540559e-11)
(0 -3.301846319e-10 1.067950465e-10)
(0 -3.750707924e-10 1.359869571e-10)
(0 -4.275637521e-10 1.689619232e-10)
(0 -4.837068307e-10 2.020259785e-10)
(0 -5.312658385e-10 2.279561232e-10)
(0 -5.394857891e-10 2.362882691e-10)
(0 -4.480818913e-10 2.188899989e-10)
(0 -1.407003204e-10 1.612973717e-10)
(0 1.431549114e-11 1.283078115e-11)
(0 2.427012254e-11 2.24114827e-12)
(0 1.990539237e-11 -1.208935717e-12)
(0 1.374515464e-11 -1.556215857e-11)
(0 5.067817057e-12 -1.239534403e-11)
(0 9.731262823e-13 -1.05551742e-11)
(0 -1.446600627e-12 -8.55753208e-12)
(0 -3.857331e-12 -8.451247971e-12)
(0 -7.628622973e-12 -7.411678765e-12)
(0 -1.441465089e-11 -5.929092307e-12)
(0 -1.397923496e-11 1.556549891e-11)
(0 -3.344655877e-12 2.49976324e-11)
(0 -1.793517393e-11 8.476072208e-12)
(0 -1.902252856e-11 -5.727046179e-11)
)
;

boundaryField
{
    lowerWall
    {
        type            slip;
    }
    atmosphere
    {
        type            pressureInletOutletVelocity;
        tangentialVelocity uniform (0 0 0);
        value           nonuniform List<vector> 
20
(
(0 -1.631159451e-10 -6.396015217e-11)
(0 -1.878664487e-10 -5.256442902e-11)
(0 -2.052171664e-10 -3.961831823e-11)
(0 -2.152782314e-10 -2.659033402e-11)
(0 -2.187876524e-10 -1.47712189e-11)
(0 -2.17040936e-10 -5.165093886e-12)
(0 -2.117296921e-10 1.605179778e-12)
(0 -2.047149235e-10 5.351986584e-12)
(0 -1.977708617e-10 6.320026506e-12)
(0 -1.923434613e-10 5.122117977e-12)
(0 -1.893645426e-10 2.622472876e-12)
(0 -1.891523001e-10 -2.134074841e-13)
(0 -1.914106734e-10 -2.478439708e-12)
(0 -1.95327434e-10 -3.468771036e-12)
(0 -1.997550508e-10 -2.790137374e-12)
(0 -2.034438055e-10 -4.070124887e-13)
(0 -2.052838367e-10 3.374048347e-12)
(0 -2.045126527e-10 7.983177398e-12)
(0 -2.008512111e-10 1.27128955e-11)
(0 -1.945452021e-10 1.686794518e-11)
)
;
    }
    rightWall
    {
        type            empty;
    }
    leftWall
    {
        type            empty;
    }
    frontAndBack
    {
        type            slip;
    }
    procBoundary2to0
    {
        type            processor;
        value           nonuniform List<vector> 
30
(
(0 -1.314485059e-10 -7.224474263e-11)
(0 -1.364824538e-10 -8.200620214e-11)
(0 -1.469058079e-10 -9.932954915e-11)
(0 -1.629857965e-10 -1.224557377e-10)
(0 -1.850765265e-10 -1.502070646e-10)
(0 -2.135529711e-10 -1.81814385e-10)
(0 -2.487082678e-10 -2.166868634e-10)
(0 -2.905835593e-10 -2.541655103e-10)
(0 -3.387412065e-10 -2.932135033e-10)
(0 -3.919689734e-10 -3.319227804e-10)
(0 -4.47827551e-10 -3.665916076e-10)
(0 -5.016113607e-10 -3.898937537e-10)
(0 -5.432092928e-10 -3.87468317e-10)
(0 -5.45549044e-10 -3.330895438e-10)
(0 -4.472139142e-10 -1.988931088e-10)
(0 -2.867892531e-12 -2.473128361e-24)
(0 1.558672415e-12 -1.771611011e-11)
(0 1.016162726e-11 -4.52800661e-12)
(0 1.130483166e-11 1.99171635e-12)
(0 8.915873196e-12 8.144573743e-12)
(0 4.941062349e-12 9.0467829e-12)
(0 1.900031524e-12 8.561915836e-12)
(0 -3.675367248e-13 7.537962346e-12)
(0 -2.405152762e-12 6.548350575e-12)
(0 -4.526868306e-12 4.766764228e-12)
(0 -6.121123652e-12 1.335453671e-12)
(0 -3.182221325e-12 -6.665519282e-12)
(0 8.695295116e-12 -1.072875818e-11)
(0 3.296812602e-11 -9.835131549e-13)
(0 -2.000313388e-12 2.548212332e-11)
)
;
    }
    procBoundary2to3
    {
        type            processor;
        value           nonuniform List<vector> 
20
(
(0 -3.217553757e-13 -2.34992539e-11)
(0 2.069164827e-11 -1.404695079e-11)
(0 1.899141236e-11 1.339918143e-15)
(0 2.06841813e-11 1.406047428e-11)
(0 -3.700873904e-13 2.3530909e-11)
(0 -3.45421417e-11 5.722013462e-12)
(0 -3.072793386e-12 -1.090825544e-11)
(0 4.186620311e-12 -5.695332122e-12)
(0 2.209887811e-12 -1.451131356e-12)
(0 1.56280407e-12 -2.55069297e-13)
(0 1.555730058e-12 3.948503282e-13)
(0 2.187878846e-12 1.591800312e-12)
(0 4.146596788e-12 5.83749908e-12)
(0 -3.137900023e-12 1.105255379e-11)
(0 -3.464517306e-11 -5.579800061e-12)
(0 -5.30466567e-13 -2.341015547e-11)
(0 2.045824937e-11 -1.399935462e-11)
(0 1.87702682e-11 -6.91685866e-15)
(0 2.044999427e-11 1.397986617e-11)
(0 -5.367744461e-13 2.338190868e-11)
)
;
    }
    procBoundary2to4
    {
        type            processor;
        value           nonuniform List<vector> 
30
(
(0 -1.863021962e-10 1.991369605e-11)
(0 -1.884095985e-10 2.247313079e-11)
(0 -1.926271065e-10 2.733633683e-11)
(0 -1.990594128e-10 3.460485449e-11)
(0 -2.079311137e-10 4.469542079e-11)
(0 -2.195226441e-10 5.831402725e-11)
(0 -2.34180089e-10 7.640985231e-11)
(0 -2.523164172e-10 1.000617115e-10)
(0 -2.744028205e-10 1.302041694e-10)
(0 -3.009258031e-10 1.670502634e-10)
(0 -3.321970753e-10 2.089224633e-10)
(0 -3.675434573e-10 2.49994607e-10)
(0 -4.023111101e-10 2.762628709e-10)
(0 -4.16595606e-10 2.599716023e-10)
(0 -3.577738307e-10 1.682495089e-10)
(0 -2.54305408e-12 3.160279312e-24)
(0 2.241148301e-12 1.833293399e-11)
(0 1.083567008e-11 5.329885171e-12)
(0 1.190241286e-11 -1.010065958e-12)
(0 9.411581253e-12 -7.118903761e-12)
(0 5.28087585e-12 -8.034605212e-12)
(0 2.054810405e-12 -7.594420887e-12)
(0 -3.989762394e-13 -6.641867818e-12)
(0 -2.603970875e-12 -5.748592355e-12)
(0 -4.858379773e-12 -4.084234735e-12)
(0 -6.53602468e-12 -7.820444718e-13)
(0 -3.617487102e-12 7.078119098e-12)
(0 8.284409078e-12 1.095704184e-11)
(0 3.260728952e-11 1.051627133e-12)
(0 -2.307395969e-12 -2.557737111e-11)
)
;
    }
}


// ************************************************************************* //
