/*--------------------------------*- C++ -*----------------------------------*\
  =========                 |
  \\      /  F ield         | OpenFOAM: The Open Source CFD Toolbox
   \\    /   O peration     | Website:  https://openfoam.org
    \\  /    A nd           | Version:  6
     \\/     M anipulation  |
\*---------------------------------------------------------------------------*/
FoamFile
{
    version     2.0;
    format      ascii;
    class       surfaceScalarField;
    location    "0.0021";
    object      phi;
}
// * * * * * * * * * * * * * * * * * * * * * * * * * * * * * * * * * * * * * //

dimensions      [0 3 -1 0 0 0 0];

internalField   nonuniform List<scalar> 
1150
(
-4.777148979e-19
4.620112781e-20
-4.838733683e-19
5.849966287e-20
-4.944086398e-19
8.170185048e-20
-5.111552533e-19
1.168756301e-19
-5.370337707e-19
1.674506798e-19
-5.767918136e-19
2.392359636e-19
-6.375413082e-19
3.403693164e-19
-7.293077032e-19
4.807805453e-19
-8.65029759e-19
6.705564284e-19
-1.059422931e-18
9.16144177e-19
-1.324333047e-18
1.212578671e-18
-1.654500203e-18
1.527875243e-18
-1.982411554e-18
1.7705918e-18
-2.095419445e-18
1.71558739e-18
-9.996998344e-19
7.720867326e-19
-3.39073877e-20
9.242680861e-33
6.378936502e-20
7.336203773e-20
8.068623596e-20
2.707190432e-20
7.801260208e-20
-5.418594754e-21
4.747514784e-20
-3.220555462e-20
2.293653009e-20
-4.129813968e-20
4.460941946e-21
-4.138656694e-20
-9.780625132e-21
-3.715076267e-20
-2.49389865e-20
-3.074384501e-20
-3.983941041e-20
-1.976045661e-20
-4.730758524e-20
-1.459782552e-21
-9.255760657e-22
2.402257836e-20
1.113843637e-19
1.690473011e-20
3.233794961e-19
-9.89926009e-20
1.682719078e-19
-4.478042178e-19
4.706383092e-20
-4.490512245e-19
5.872350633e-20
-4.501327683e-19
8.048467603e-20
-4.510186231e-19
1.130242289e-19
-4.518528368e-19
1.592408336e-19
-4.534748218e-19
2.243277196e-19
-4.578486342e-19
3.158074847e-19
-4.687908939e-19
4.431206966e-19
-4.930349583e-19
6.162787787e-19
-5.425943626e-19
8.427531967e-19
-6.402568807e-19
1.121712706e-18
-8.325191098e-19
1.434079179e-18
-1.185062683e-18
1.724734269e-18
-1.515865079e-18
1.832972359e-18
-1.594281012e-18
1.012705105e-18
-8.723270626e-20
-1.286514393e-19
1.749923164e-20
-3.137575724e-20
4.819573703e-20
-3.639941167e-21
5.122564228e-20
-8.464889826e-21
3.83825629e-20
-1.937559851e-20
2.284810286e-20
-2.576868095e-20
8.696746172e-21
-2.723148396e-20
-3.373707438e-21
-2.507199998e-20
-1.395559815e-20
-2.015548768e-20
-2.153873641e-20
-1.216604683e-20
-2.18252244e-20
-1.154385512e-21
-8.04342431e-21
1.025324952e-20
-4.512967327e-21
1.338355018e-20
-1.217482082e-19
1.824883865e-20
5.519046105e-20
-4.188048755e-19
4.44919084e-20
-4.158344654e-19
5.393068896e-20
-4.087021819e-19
7.103380615e-20
-3.955783956e-19
9.560241192e-20
-3.738951498e-19
1.29105542e-19
-3.405604816e-19
1.74824301e-19
-2.921109405e-19
2.379177799e-19
-2.249665985e-19
3.250968133e-19
-1.355949516e-19
4.433018772e-19
-2.025056154e-20
5.963737009e-19
1.262999843e-19
7.781184937e-19
3.111993534e-19
9.599515587e-19
4.31153795e-19
1.072165371e-18
4.252810738e-19
9.868993212e-19
2.030203919e-19
-2.624376406e-33
7.338665378e-20
9.78749306e-22
4.523504776e-20
-3.233618695e-21
4.337078837e-20
-1.787922256e-21
4.031493356e-20
-5.422359681e-21
3.198948048e-20
-1.106134912e-20
2.138529984e-20
-1.517078733e-20
1.085623013e-20
-1.670185531e-20
1.542804897e-21
-1.575273819e-20
-5.966157297e-21
-1.263833991e-20
-1.052707508e-20
-7.592205203e-21
-1.041758936e-20
-1.249141488e-21
-4.913123648e-21
4.761221854e-21
3.523211772e-22
8.130297994e-21
7.785637756e-21
1.082175198e-20
1.288597606e-20
-3.940818499e-19
4.029492793e-20
-3.886709163e-19
4.652053074e-20
-3.766124876e-19
5.687998074e-20
-3.547270605e-19
6.985782358e-20
-3.183791576e-19
8.476528862e-20
-2.615374673e-19
1.019563053e-19
-1.768807403e-19
1.230149898e-19
-5.627784753e-20
1.507313421e-19
1.083896514e-19
1.883834486e-19
3.243552876e-19
2.371445496e-19
5.985615405e-19
2.891385873e-19
9.339579458e-19
3.114717201e-19
1.08680584e-18
2.14960707e-19
1.037593132e-18
-1.637608359e-19
1.40655463e-19
-1.492035593e-32
6.917428567e-20
7.245246928e-20
4.668074414e-20
1.92495579e-20
3.973635089e-20
5.143850753e-21
3.467594405e-20
-3.745202688e-22
2.788004224e-20
-4.276546331e-21
1.985423184e-20
-7.15238147e-21
1.18053472e-20
-8.654832216e-21
4.657203198e-21
-8.600649453e-21
-9.200225937e-22
-7.052951363e-21
-4.18401136e-21
-4.316166305e-21
-4.407226012e-21
-1.011388485e-21
-1.544047508e-21
1.91141025e-21
3.043775178e-21
3.554181368e-21
9.849861803e-21
4.023392783e-21
2.464676229e-21
-3.756263658e-19
3.697071312e-20
-3.703708373e-19
3.988360413e-20
-3.582434905e-19
4.312270123e-20
-3.354220609e-19
4.352712714e-20
-2.962337454e-19
3.776841317e-20
-2.331728115e-19
2.2657324e-20
-1.372277799e-19
-4.435085665e-21
6.546992834e-22
-4.484245383e-20
1.856963882e-19
-9.739199144e-20
4.105212955e-19
-1.567053759e-19
6.374847691e-19
-2.113478533e-19
7.716002715e-19
-2.428075134e-19
7.324560482e-19
-2.275919574e-19
8.870028858e-20
-1.454791763e-19
-5.522022077e-20
3.667679013e-33
1.597137439e-20
1.252407583e-21
3.257503704e-20
2.633878735e-21
3.421797993e-20
3.48918834e-21
3.077391804e-20
3.058522836e-21
2.500420715e-20
1.483475503e-21
1.835178112e-20
-5.072508032e-22
1.185952997e-20
-2.165769206e-21
6.204901309e-21
-2.943810817e-21
1.816762461e-21
-2.656896506e-21
-8.79233548e-22
-1.607594372e-21
-1.484427282e-21
-3.924655158e-22
9.87236069e-23
3.403727783e-22
3.512986603e-21
1.490546753e-22
8.291145258e-21
-7.502560686e-22
-1.492391373e-21
-3.633963793e-19
3.723665581e-20
-3.612936904e-19
3.778832797e-20
-3.547347107e-19
3.556235094e-20
-3.400978771e-19
2.555129819e-20
-3.118093752e-19
1.580707286e-21
-2.622120554e-19
-4.338431195e-20
-1.816601053e-19
-1.166905135e-19
-5.967267886e-20
-2.246004621e-19
1.115043237e-19
-3.691817707e-19
3.282622169e-19
-5.421692453e-19
5.57613528e-19
-7.13781263e-19
7.083260509e-19
-8.13599955e-19
6.982801999e-19
-7.006540966e-19
8.390177869e-20
-1.592827575e-19
-5.396781343e-20
2.198988403e-32
1.735284562e-20
-7.007625394e-20
3.343034679e-20
-1.345241389e-20
3.378731458e-20
3.121931131e-21
2.919887083e-20
7.638111276e-21
2.301348094e-20
7.661235153e-21
1.669326279e-20
5.806676101e-21
1.10814884e-20
3.442590473e-21
6.491815655e-21
1.647489221e-21
2.86606461e-21
9.76163758e-22
3.358953126e-22
9.339689854e-22
-7.515889887e-22
7.068797083e-22
-9.25944969e-23
-3.101158204e-22
2.613675867e-21
-2.552723157e-21
7.549009986e-21
-5.683870532e-21
-5.993011152e-21
-3.549893246e-19
4.340945744e-20
-3.589260687e-19
4.360847525e-20
-3.634292331e-19
3.962050854e-20
-3.659956187e-19
2.455022109e-20
-3.624265883e-19
-1.049569934e-20
-3.464597173e-19
-7.629164072e-20
-3.091866268e-19
-1.851544673e-19
-2.385811969e-19
-3.495643952e-19
-1.193101946e-19
-5.786154051e-19
6.700203062e-20
-8.708169782e-19
3.415289684e-19
-1.201599385e-18
7.206002481e-19
-1.504533671e-18
9.577856235e-19
-1.64803261e-18
1.010582223e-18
-1.41861956e-18
1.442840847e-19
7.268382724e-33
7.39766847e-20
2.268507557e-22
5.000469111e-20
1.051191872e-20
3.830349416e-20
1.481885511e-20
2.922199428e-20
1.671554166e-20
2.115892155e-20
1.572010286e-20
1.432917695e-20
1.263215386e-20
9.28638701e-21
8.482913633e-21
5.820490101e-21
5.115005397e-21
2.823869795e-21
3.979921996e-21
1.088060344e-22
3.659197614e-21
-1.768584494e-21
2.591885578e-21
-2.335201801e-21
2.581501211e-22
-5.174715158e-22
-4.372825323e-21
7.239869265e-21
-1.344840193e-20
-1.852911036e-20
-3.456948267e-19
5.673303027e-20
-3.579013745e-19
5.948396238e-20
-3.778094455e-19
5.91651131e-20
-4.049339347e-19
4.712674194e-20
-4.378521133e-19
1.230591365e-20
-4.737772399e-19
-5.904065087e-20
-5.076037383e-19
-1.835148179e-19
-5.305435341e-19
-3.797348538e-19
-5.283718612e-19
-6.652116868e-19
-4.79635972e-19
-1.049290393e-18
-3.547055863e-19
-1.520384335e-18
-1.203402414e-19
-2.02590687e-18
1.32443349e-19
-2.442040408e-18
3.255130814e-19
-2.491206052e-18
2.078546158e-19
-1.286137213e-18
8.426175381e-20
1.238172156e-19
5.431162825e-20
4.04658698e-20
4.020018128e-20
2.892346769e-20
2.822655595e-20
2.868757974e-20
1.807097283e-20
2.587517542e-20
1.017993693e-20
2.052165365e-20
5.918478913e-21
1.274320701e-20
4.685406777e-21
6.350214158e-21
2.503145454e-21
6.168537843e-21
-9.585059984e-22
7.127186145e-21
-4.102319987e-21
5.73749373e-21
-6.966177288e-21
3.119283584e-21
-9.593048174e-21
-1.756369824e-21
2.159160954e-21
-2.520093344e-20
-6.636107338e-20
-3.289734187e-19
7.668561328e-20
-3.505251401e-19
8.55157713e-20
-3.88035133e-19
9.538470302e-20
-4.436822949e-19
9.613500437e-20
-5.199416517e-19
7.549450123e-20
-6.193222227e-19
1.823170517e-20
-7.434075089e-19
-9.473859891e-20
-8.912928031e-19
-2.863071494e-19
-1.057680134e-18
-5.807105818e-19
-1.232064358e-18
-9.96294899e-19
-1.402657905e-18
-1.529980499e-18
-1.571658343e-18
-2.128450037e-18
-1.76211603e-18
-2.63868741e-18
-1.816873423e-18
-2.718113774e-18
-1.556685986e-18
-1.5944082e-18
-6.243327005e-20
9.361429908e-33
4.276922598e-20
-6.474887031e-20
3.996429333e-20
3.172683955e-20
2.541415164e-20
4.323364991e-20
1.271745098e-20
3.85711678e-20
2.401490215e-21
3.083680737e-20
-4.745139883e-22
1.561861902e-20
4.503730451e-21
1.374491167e-21
3.461793765e-21
7.215638652e-21
-2.348198418e-21
1.294256407e-20
-6.720530167e-21
1.011285126e-20
-1.184183074e-20
8.23051336e-21
-3.303761206e-20
1.944440631e-20
-1.31593205e-19
7.334002733e-20
-1.92389814e-19
-2.973481368e-19
1.003406791e-19
-3.278798562e-19
1.191751444e-19
-3.823512957e-19
1.46000489e-19
-4.657430602e-19
1.693637456e-19
-5.848442265e-19
1.770358404e-19
-7.482074701e-19
1.542486941e-19
-9.651835443e-19
8.189956877e-20
-1.243755763e-18
-6.451019213e-20
-1.586621765e-18
-3.138646775e-19
-1.985297169e-18
-6.93676305e-19
-2.412236251e-18
-1.21505525e-18
-2.808694465e-18
-1.842927899e-18
-3.050149512e-18
-2.451536395e-18
-2.884104124e-18
-2.783920816e-18
-1.274978152e-18
-2.514925481e-18
-4.947841857e-22
-1.143656993e-18
1.39244934e-19
-2.044896868e-19
5.147110294e-20
1.194882687e-19
2.075166926e-20
7.394724741e-20
4.983090398e-21
5.433897688e-20
-1.281669796e-20
4.863586467e-20
-1.471864165e-20
1.752036895e-20
1.034487779e-20
-2.368645975e-20
9.188719056e-21
8.37813713e-21
-5.177911147e-21
2.731655702e-20
-8.602867956e-21
1.353401542e-20
-6.27937763e-22
2.573080304e-22
2.085800888e-20
-2.047190175e-21
3.150691698e-19
-2.208703443e-19
4.609459486e-19
-2.435952084e-19
1.216852719e-19
-2.814556206e-19
1.551395673e-19
-3.49327736e-19
2.051651705e-19
-4.545304493e-19
2.591685624e-19
-6.077592202e-19
3.064553218e-19
-8.231819619e-19
3.348228815e-19
-1.117550371e-18
3.278142981e-19
-1.507559188e-18
2.623586514e-19
-2.003881599e-18
1.073415196e-19
-2.600192758e-18
-1.747112158e-19
-3.256557272e-18
-6.175972424e-19
-3.878331731e-18
-1.224392866e-18
-4.287685386e-18
-1.923714129e-18
-4.171978185e-18
-2.548183813e-18
-3.286410974e-18
-3.04459758e-18
-4.147654674e-19
-3.785905729e-18
4.632228891e-19
-2.739791323e-18
5.930082356e-21
5.767762113e-19
1.143399083e-21
7.873420253e-20
-7.200218282e-22
5.62049484e-20
-4.393219392e-20
9.184898031e-20
-5.59254707e-20
2.951435811e-20
4.240947493e-20
-1.220174666e-19
2.812713911e-20
2.266798927e-20
-1.896045283e-20
7.440969575e-20
-2.187957552e-20
1.64531776e-20
-2.932435981e-21
-1.868800638e-20
-3.10357388e-19
3.053777618e-19
-2.031144952e-19
-2.184190092e-18
2.031144932e-19
-1.620057129e-19
1.310959604e-19
-2.051796559e-19
1.861368702e-19
-2.805834353e-19
2.643823728e-19
-3.971851794e-19
3.533787127e-19
-5.68500777e-19
4.458108371e-19
-8.12678618e-19
5.338542083e-19
-1.151993355e-18
6.059949643e-19
-1.610591032e-18
6.438232907e-19
-2.208040515e-18
6.179251824e-19
-2.945654311e-18
4.832636868e-19
-3.786440998e-18
1.794718629e-19
-4.644670191e-18
-3.429525483e-19
-5.43945683e-18
-1.039244186e-18
-6.228132124e-18
-1.596117715e-18
-7.083325961e-18
-1.751972764e-18
-7.190986568e-18
-2.208417317e-18
-6.145963881e-18
-9.500581966e-19
-2.080487199e-19
4.478636943e-32
-7.043442463e-20
-5.888066839e-20
3.492401035e-20
-4.91515468e-20
-1.062668167e-19
2.330408975e-19
-2.074572971e-19
1.307062617e-19
1.870949324e-19
-5.165649085e-19
7.986884605e-20
1.299022715e-19
-7.691697152e-20
2.312021323e-19
-7.972190388e-21
-5.248698539e-20
3.70700194e-20
-6.372911674e-20
2.100964031e-18
4.699332537e-32
1.344062191e-18
-1.439685145e-18
-1.863787792e-32
-4.94640219e-20
1.073784354e-19
-9.801244388e-20
2.040629382e-19
-1.735695263e-19
3.142141929e-19
-2.882607767e-19
4.374081705e-19
-4.5702892e-19
5.726502586e-19
-6.990677892e-19
7.173679598e-19
-1.038116676e-18
8.658607159e-19
-1.501586132e-18
1.006756887e-18
-2.115473609e-18
1.117614824e-18
-2.887656203e-18
1.152751748e-18
-3.771522794e-18
1.021596656e-18
-4.616712205e-18
5.897743165e-19
-5.247990702e-18
-2.080807763e-19
-5.781350699e-18
-7.033987516e-19
-6.438876929e-18
-1.398793694e-19
-6.579255649e-18
-3.997108763e-19
-3.653362347e-18
-5.506148966e-19
-2.669293844e-19
2.6394268e-20
-3.923771305e-19
6.656266773e-20
-3.462272089e-19
-9.530059595e-20
2.988063096e-19
-4.119916873e-19
5.210074184e-19
-9.149297108e-20
-5.42173773e-19
5.466210891e-19
-3.262390549e-19
-8.602413251e-20
3.027375751e-19
-3.977677443e-19
3.124575069e-19
-6.220327485e-20
1.007991347e-19
1.479307127e-19
-4.260139381e-19
2.464232455e-19
-8.402631139e-20
-1.62882381e-18
-1.558519567e-19
7.178641656e-20
7.914451961e-20
3.051216507e-20
2.118582901e-19
-3.376413997e-20
3.478005204e-19
-1.321369229e-19
4.974034397e-19
-2.778033053e-19
6.648328285e-19
-4.866828461e-19
8.510240971e-19
-7.775509423e-19
1.053897201e-18
-1.172961721e-18
1.268043021e-18
-1.699526487e-18
1.482502914e-18
-2.375736392e-18
1.666828139e-18
-3.157991499e-18
1.714536257e-18
-3.765250513e-18
1.350112405e-18
-3.689362412e-18
2.28051726e-20
-2.846551512e-18
-4.833452153e-19
-1.480824085e-18
4.300619231e-19
4.329090192e-32
-7.783408525e-21
5.970776883e-20
-3.58229976e-20
7.159733901e-20
1.449528408e-20
1.383518331e-19
-1.936350883e-22
1.128176047e-19
-6.976532189e-20
-1.564308878e-19
-1.427423667e-19
-2.16614407e-19
-3.130765486e-20
2.009168907e-19
1.290944046e-19
1.377532466e-19
-2.285395959e-20
-1.37433861e-19
-1.225748186e-19
-1.70000734e-19
-2.963310792e-20
-9.906676326e-20
7.699746718e-20
-1.140848694e-20
1.58765109e-19
-1.558519571e-19
-6.653190602e-20
-1.329482642e-19
1.969204004e-19
7.259146352e-20
1.737883801e-19
2.128813879e-19
1.299984706e-19
3.599294035e-19
5.843746684e-20
5.226872289e-19
-5.044037539e-20
7.060009983e-19
-2.060419369e-19
9.103259465e-19
-4.151121309e-19
1.131077061e-18
-6.818891681e-19
1.360045404e-18
-1.017378573e-18
1.592334021e-18
-1.452923242e-18
1.835489164e-18
-2.032542251e-18
2.041963981e-18
-2.418329904e-18
1.70057458e-18
-2.143166633e-18
3.8714908e-20
1.362981558e-20
-1.460850197e-18
1.972010624e-19
7.759057737e-20
9.864776396e-20
9.076431655e-20
4.668237313e-20
1.613675617e-20
5.690841971e-20
4.264000668e-21
6.878014556e-20
-1.206651698e-20
3.984055928e-20
-4.08255779e-20
-4.499617499e-20
-5.790509737e-20
-5.621234581e-20
-2.009012611e-20
4.896852487e-20
2.391761686e-20
3.803238668e-20
-1.191214687e-20
-4.449214948e-20
-4.004558357e-20
-6.337015782e-20
-1.075328762e-20
-1.729912074e-20
3.092608346e-20
9.496632906e-20
4.649131137e-20
4.60598353e-20
-1.763388406e-20
-4.47980259e-20
3.363599238e-19
6.666974665e-20
3.28537842e-19
2.013857689e-19
3.074189015e-19
3.456169195e-19
2.658647439e-19
5.068810719e-19
1.954088685e-19
6.89094127e-19
9.100861768e-20
8.894427882e-19
-4.055655052e-20
1.093808934e-18
-1.704888682e-19
1.273243839e-18
-2.533127494e-19
1.392945045e-18
-2.64815443e-19
1.469953344e-18
-4.431783041e-19
1.623343648e-18
-6.117082272e-19
1.286851785e-18
9.996517019e-33
-4.52840112e-20
-1.907375682e-19
-7.84895676e-20
-5.795334593e-20
-5.519525863e-20
2.402020303e-20
8.788484916e-21
3.480961707e-20
5.341919038e-21
4.057790143e-20
-1.507704637e-21
4.002108391e-20
-1.151054674e-20
2.27610395e-20
-2.356549404e-20
-7.181203571e-21
-2.796285265e-20
-1.220460252e-20
-1.506578977e-20
1.313876082e-20
-1.422458816e-21
9.898949788e-21
-8.667348186e-21
-1.519985325e-20
-1.494245573e-20
-2.16907863e-20
-4.261147942e-21
-1.733892787e-21
1.096705985e-20
3.0841133e-20
1.390977051e-20
1.889569315e-20
-5.696961835e-21
-1.656786149e-20
4.760007078e-19
5.703654213e-20
4.836826444e-19
1.741593928e-19
4.858538135e-19
3.018032849e-19
4.733233198e-19
4.47038851e-19
4.333160009e-19
6.139264663e-19
3.541427982e-19
7.99056407e-19
2.384931779e-19
9.82225169e-19
1.35854014e-19
1.109403905e-18
1.788048003e-19
1.071410195e-18
4.299564193e-19
7.688429e-19
8.164379261e-19
2.477276684e-19
1.597004639e-19
1.435617494e-19
9.34818019e-20
2.093346997e-20
3.754120453e-20
-2.25508889e-20
6.030396903e-21
-2.368740526e-20
2.057363751e-20
-5.758280688e-21
2.795999389e-20
-2.04816446e-21
3.057505992e-20
-4.124812162e-21
2.796613715e-20
-8.902686908e-21
1.836368126e-20
-1.396315887e-20
5.715859225e-21
-1.531560591e-20
1.438728276e-21
-1.078793288e-20
5.893871634e-21
-5.875162835e-21
3.62384238e-21
-6.392523677e-21
-4.518545673e-21
-6.79578796e-21
-6.462578793e-21
-2.315139132e-21
1.208817845e-21
3.293290542e-21
1.123440107e-20
3.878639121e-21
8.024793763e-21
-2.493080894e-21
-6.817787837e-21
6.035276522e-19
4.226918503e-20
6.273009669e-19
1.298308276e-19
6.538665766e-19
2.269973657e-19
6.713483593e-19
3.406662259e-19
6.582439274e-19
4.770970596e-19
5.80431968e-19
6.398853083e-19
3.908960944e-19
8.23942072e-19
5.228596418e-20
9.976209881e-19
-4.005159282e-19
1.043348534e-18
-3.371649417e-19
4.274951706e-19
-6.142272263e-20
-1.259712509e-32
3.707218296e-20
4.506688619e-20
4.999744259e-20
8.0077806e-21
3.640468818e-20
-8.960759616e-21
2.395952165e-20
-1.124558076e-20
2.428375377e-20
-6.086661934e-21
2.588334617e-20
-3.651710589e-21
2.579718513e-20
-4.041593054e-21
2.290566511e-20
-6.012513027e-21
1.701123422e-20
-8.069729895e-21
1.024353229e-20
-8.548601466e-21
6.351498362e-21
-6.895976391e-21
5.376510796e-21
-4.897898328e-21
3.220578094e-21
-4.232168981e-21
-3.789680461e-23
-3.532161743e-21
-8.541490605e-22
-1.496058197e-21
1.794166429e-21
6.446092245e-22
4.862680986e-21
8.066152985e-22
3.700086782e-21
-1.334017131e-21
-3.022378131e-21
7.071438866e-19
2.262011338e-20
7.467495841e-19
6.974755798e-20
7.992953611e-19
1.228634716e-19
8.540528284e-19
1.868095852e-19
8.88096889e-19
2.677162381e-19
8.560124091e-19
3.745499984e-19
6.681879125e-19
5.228314705e-19
1.870920799e-19
7.425439742e-19
-4.956264478e-19
1.058976535e-18
-1.291253627e-18
9.657619969e-19
-1.430431906e-19
-8.034419699e-20
1.307732097e-23
-9.798955368e-20
3.302890183e-20
-2.500911662e-20
3.411986652e-20
-1.005487911e-20
2.911844005e-20
-6.248592962e-21
2.671870472e-20
-3.692255736e-21
2.549346333e-20
-2.43103311e-21
2.38262648e-20
-2.377833475e-21
2.084844792e-20
-3.036609984e-21
1.653236242e-20
-3.755161032e-21
1.189615719e-20
-3.913473589e-21
8.349576296e-21
-3.349593768e-21
6.042240061e-21
-2.58817302e-21
3.920585274e-21
-2.105614508e-21
1.998206714e-21
-1.603756355e-21
1.286518349e-21
-7.803614161e-22
1.956172474e-21
-2.389349541e-23
2.722048509e-21
3.907391255e-23
2.01172575e-21
-6.253617061e-22
-1.205253134e-21
7.755138364e-19
8.272929776e-19
9.019806623e-19
9.949684405e-19
1.096733141e-18
1.192123471e-18
1.257254479e-18
1.067410288e-18
7.644551455e-19
2.513276425e-19
1.709832768e-19
7.299351449e-20
4.798313986e-20
3.79261532e-20
3.167477772e-20
2.797992775e-20
2.554666335e-20
2.316748865e-20
2.012989718e-20
1.637405011e-20
1.246003719e-20
9.110997168e-21
6.524798668e-21
4.422443487e-21
2.821601683e-21
2.042986292e-21
2.019139911e-21
2.057612928e-21
1.431834352e-21
)
;

boundaryField
{
    lowerWall
    {
        type            calculated;
        value           nonuniform 0();
    }
    atmosphere
    {
        type            calculated;
        value           nonuniform List<scalar> 
20
(
4.756766993e-19
4.472365773e-19
4.194891908e-19
3.954779152e-19
3.769443316e-19
3.637297237e-19
3.534698131e-19
3.416610132e-19
3.221139674e-19
2.877679387e-19
2.316902405e-19
1.478654728e-19
3.071608153e-20
-8.78904318e-20
-2.039877276e-19
-3.377695101e-19
-4.718698879e-19
-5.936516837e-19
-6.917968562e-19
-7.562019311e-19
)
;
    }
    rightWall
    {
        type            empty;
        value           nonuniform 0();
    }
    leftWall
    {
        type            empty;
        value           nonuniform 0();
    }
    frontAndBack
    {
        type            calculated;
        value           uniform 0;
    }
    procBoundary4to2
    {
        type            processor;
        value           nonuniform List<scalar> 
30
(
-4.109365321e-20
-5.223199382e-20
-7.326991902e-20
-1.052047809e-19
-1.511050643e-19
-2.161156641e-19
-3.072983333e-19
-4.330746889e-19
-6.015190264e-19
-8.167293991e-19
-1.071601072e-18
-1.335146189e-18
-1.532923408e-18
-1.528746125e-18
-1.198461536e-18
-4.334200159e-19
-1.710770819e-19
-4.399323133e-20
8.048951359e-21
6.271316209e-20
6.582992988e-20
5.987237828e-20
5.140747482e-20
4.59040531e-20
3.469600655e-20
8.967477061e-21
-7.035234299e-20
-1.291891611e-19
-1.13014296e-19
5.093035228e-19
)
;
    }
    procBoundary4to5
    {
        type            processor;
        value           nonuniform List<scalar> 
20
(
-3.541447757e-19
-8.664223127e-21
5.009438635e-20
2.027273146e-20
1.225076601e-20
1.204694723e-20
1.977412306e-20
4.997918224e-20
-5.562703145e-21
-3.382846342e-19
5.47140047e-20
3.1650152e-19
1.223992926e-19
-1.787574946e-19
-4.209847625e-20
-9.338446989e-21
-1.728560919e-21
-9.741019801e-23
1.9365985e-22
2.267974912e-22
)
;
    }
}


// ************************************************************************* //
