/*--------------------------------*- C++ -*----------------------------------*\
  =========                 |
  \\      /  F ield         | OpenFOAM: The Open Source CFD Toolbox
   \\    /   O peration     | Website:  https://openfoam.org
    \\  /    A nd           | Version:  6
     \\/     M anipulation  |
\*---------------------------------------------------------------------------*/
FoamFile
{
    version     2.0;
    format      ascii;
    class       volScalarField;
    location    "0.0021";
    object      ViscousDissipation;
}
// * * * * * * * * * * * * * * * * * * * * * * * * * * * * * * * * * * * * * //

dimensions      [1 -1 -3 0 0 0 0];

internalField   nonuniform List<scalar> 
600
(
8.450957758e-21
1.769941828e-20
3.417769806e-20
6.654824667e-20
1.334364318e-19
2.73226627e-19
5.609967975e-19
1.131065167e-18
2.190654088e-18
3.971279077e-18
6.475150641e-18
8.750818081e-18
7.737483632e-18
1.605109854e-18
2.006023668e-17
1.903683783e-17
1.139550637e-16
2.566741968e-16
9.511959694e-17
8.514787487e-17
3.317724104e-17
1.993753527e-17
1.331026027e-17
1.659779309e-17
2.742735891e-17
8.645528476e-17
2.02471496e-16
5.595177932e-16
2.186749777e-16
1.681227337e-18
8.673316338e-21
1.752193567e-20
3.266036391e-20
6.192320169e-20
1.222500085e-19
2.488495608e-19
5.111830229e-19
1.036133892e-18
2.031559847e-18
3.786080685e-18
6.591330967e-18
1.052673652e-17
1.493349732e-17
2.396067441e-17
1.246487151e-17
2.196938125e-17
2.233717313e-16
6.981326913e-17
2.028146812e-17
1.933372679e-17
1.42901871e-17
1.107635558e-17
9.080663161e-18
9.303344722e-18
1.122339738e-17
1.519623457e-17
1.614279438e-17
8.792996428e-17
7.094158399e-17
1.6364663e-19
7.310202765e-21
1.432774125e-20
2.638357943e-20
5.045300401e-20
1.020441857e-19
2.139687449e-19
4.514521295e-19
9.342721448e-19
1.861242957e-18
3.523800512e-18
6.291655402e-18
1.048219372e-17
1.552311822e-17
1.203126117e-17
8.004856622e-18
1.413128309e-16
1.428902647e-16
4.255553004e-18
2.712821501e-18
6.33845519e-18
6.810595226e-18
6.088970539e-18
5.190333211e-18
4.62389818e-18
4.322906187e-18
4.149650172e-18
3.729329269e-18
2.215593081e-18
5.192828003e-17
8.04810725e-17
4.953232359e-21
9.236294363e-21
1.705658584e-20
3.477203533e-20
7.730943964e-20
1.769262088e-19
3.974476072e-19
8.520967944e-19
1.711586381e-18
3.167274755e-18
5.311866828e-18
7.935588488e-18
1.191447895e-17
7.475326429e-18
7.51566332e-18
1.475892503e-16
4.843331874e-17
4.915560591e-18
2.64570406e-18
3.467831782e-18
3.880716237e-18
3.571534468e-18
2.917393025e-18
2.24265139e-18
1.630927953e-18
1.187105958e-18
1.121023811e-18
1.382076702e-18
2.592326676e-18
1.295835033e-17
2.589003298e-21
4.123618122e-21
7.680647303e-21
1.960119376e-20
5.579067838e-20
1.511229239e-19
3.733764058e-19
8.351314379e-19
1.673939341e-18
2.921232694e-18
4.148543578e-18
4.188608535e-18
3.604921055e-18
5.393442464e-18
3.004866309e-19
9.640856404e-17
3.504429646e-17
1.746810294e-18
1.122512938e-18
2.197721993e-18
2.650535534e-18
2.365213604e-18
1.76032226e-18
1.167666644e-18
6.380183543e-19
2.498678369e-19
2.263726317e-19
6.423153109e-19
1.293705229e-18
1.408358571e-18
1.139424772e-21
8.009905235e-22
1.484617355e-21
1.051181683e-20
4.706619824e-20
1.533391923e-19
4.10438785e-19
9.497726739e-19
1.92275752e-18
3.336516381e-18
4.647095374e-18
4.521476175e-18
3.820019164e-18
7.727683288e-18
3.491837155e-19
1.063396227e-16
3.906461121e-17
1.992134404e-18
1.213564321e-18
2.204225542e-18
2.404573153e-18
1.876613295e-18
1.186417628e-18
7.24379174e-19
3.671277917e-19
6.768183278e-20
4.921941245e-20
5.448246374e-19
1.449475992e-18
1.447357471e-18
1.363654475e-21
8.358024627e-22
1.67658639e-21
1.358705273e-20
6.198600764e-20
2.023503334e-19
5.415194653e-19
1.257752074e-18
2.589347563e-18
4.730982748e-18
7.6141733e-18
1.077561137e-17
1.573728544e-17
1.004400069e-17
7.875461031e-18
1.555109273e-16
6.194297581e-17
1.038526589e-17
4.634061532e-18
3.686063882e-18
3.009223396e-18
1.862475353e-18
8.302695553e-19
5.102856867e-19
4.167000105e-19
2.690644496e-19
3.801896716e-19
1.47350286e-18
4.37149649e-18
1.480456186e-17
4.314028721e-21
6.35886271e-21
1.242040758e-20
3.63382005e-20
1.131923278e-19
3.183343676e-19
7.971273419e-19
1.798712055e-18
3.68817023e-18
6.887814615e-18
1.170432023e-17
1.797076317e-17
2.397355917e-17
1.607052218e-17
1.107563521e-17
1.178011405e-16
1.107502501e-16
1.167271644e-17
7.882654552e-18
6.174616911e-18
4.845510488e-18
2.610724942e-18
5.586586048e-19
2.641487966e-19
6.793881562e-19
7.312745822e-19
1.166684982e-18
7.120235377e-18
6.949447884e-17
1.044670237e-16
1.207443076e-20
2.136362965e-20
4.025610204e-20
8.859679896e-20
2.143619101e-19
5.182691065e-19
1.193121095e-18
2.569235448e-18
5.128173797e-18
9.39020176e-18
1.55034564e-17
2.232711836e-17
2.584375902e-17
2.520225145e-17
3.069303281e-17
2.609180448e-17
2.153820557e-16
6.395549541e-17
1.229658556e-17
1.02979157e-17
1.039312594e-17
6.984376581e-18
2.78866144e-18
5.881070069e-19
2.007972294e-18
1.327111884e-18
2.254891239e-18
4.218228757e-17
3.876645512e-17
1.334367918e-19
2.826647741e-20
5.246347279e-20
9.442478023e-20
1.814755479e-19
3.763803096e-19
8.068974519e-19
1.713086274e-18
3.497848902e-18
6.717405916e-18
1.183859556e-17
1.843623889e-17
2.357130679e-17
2.049029711e-17
7.222525011e-18
3.955041032e-17
5.280052683e-17
4.631639454e-16
1.212588104e-15
6.952176277e-17
1.951203264e-17
3.074243244e-17
3.615206156e-17
4.522568509e-17
1.408346642e-17
1.355965073e-17
4.105568078e-18
3.638588147e-18
4.986996768e-16
1.355213971e-16
1.349732428e-18
5.838360746e-20
1.083865938e-19
1.846630846e-19
3.228766198e-19
6.003419402e-19
1.167976473e-18
2.302534556e-18
4.460013518e-18
8.251506097e-18
1.413225189e-17
2.148826834e-17
2.730114942e-17
2.679144715e-17
2.321820925e-17
6.455257701e-17
1.545299208e-16
1.766290221e-16
6.688870132e-16
1.144929032e-15
2.185538163e-17
1.343684945e-16
3.102758084e-16
7.019810343e-16
2.430367533e-16
1.420262606e-16
3.945615684e-17
2.247631575e-16
5.812640015e-16
5.447830982e-17
3.579576999e-19
1.12914399e-19
1.983774972e-19
3.15536661e-19
5.088790408e-19
8.673873135e-19
1.554306097e-18
2.860464659e-18
5.25944939e-18
9.383877954e-18
1.56912323e-17
2.347151866e-17
2.958612058e-17
3.021227745e-17
3.277226851e-17
6.184735174e-17
1.672049406e-16
2.049218962e-16
3.083235032e-16
7.630824742e-19
3.465934241e-16
3.271260055e-16
6.206912108e-18
6.314381254e-16
1.237441284e-18
3.777410226e-16
9.865869937e-17
3.083180728e-19
5.184107963e-17
2.808136252e-17
5.596240282e-17
1.745525073e-19
3.199495716e-19
4.742328163e-19
7.131107662e-19
1.130589205e-18
1.883430528e-18
3.241427145e-18
5.642127287e-18
9.672334865e-18
1.566628019e-17
2.227935516e-17
2.416088174e-17
1.600019407e-17
2.508804331e-17
7.156337913e-17
1.422354655e-16
3.943179668e-16
1.187473689e-16
2.576191816e-19
3.830852222e-19
3.020178287e-18
8.615802481e-20
7.850112813e-15
7.133379912e-20
2.712547306e-18
1.819440976e-19
3.381421166e-19
1.76777585e-17
7.403818338e-17
1.42603766e-17
5.164675176e-19
5.005579952e-19
6.341065052e-19
8.896781697e-19
1.323949119e-18
2.055286781e-18
3.288424196e-18
5.375202036e-18
8.856460821e-18
1.402494273e-17
1.877701462e-17
1.450258292e-17
3.134921441e-18
7.079638167e-17
1.146297697e-16
8.57654124e-17
9.94504213e-17
2.304185821e-16
3.128168889e-16
1.560688324e-16
6.751445002e-16
9.75146246e-17
8.952570118e-16
6.070282303e-17
7.169277321e-16
1.343434287e-16
6.749984326e-17
1.055421917e-16
1.994729326e-17
7.09124143e-21
5.369195947e-19
5.927788241e-19
7.379419994e-19
9.937515604e-19
1.396091786e-18
2.00008111e-18
2.895039359e-18
4.303653139e-18
6.865219973e-18
1.15479045e-17
1.674642329e-17
7.569934388e-18
1.341803591e-17
3.275610625e-17
4.973340411e-17
3.91346789e-17
7.265197168e-17
5.170911071e-18
7.130372456e-17
1.684656746e-16
4.645229311e-16
4.421683637e-16
7.934520814e-16
3.550646905e-16
4.365985051e-16
2.706090438e-16
3.234408034e-16
2.905150478e-16
3.614616747e-17
3.152190056e-16
5.551218364e-19
6.213823615e-19
7.692205074e-19
1.011221038e-18
1.348694801e-18
1.746808078e-18
2.119805918e-18
2.48721216e-18
3.769384689e-18
9.353879538e-18
3.052869245e-17
9.347791379e-18
2.184231262e-18
1.25846223e-17
8.466483447e-17
2.357252929e-16
5.353843934e-17
8.795635032e-18
1.585082283e-17
2.971254852e-17
5.697992786e-17
4.176196192e-17
4.788816011e-17
2.132404828e-17
4.030180079e-17
3.471601504e-17
4.202148064e-17
8.403838436e-17
6.141057533e-17
4.964787768e-17
4.82439637e-19
5.617651913e-19
7.189003267e-19
9.588842025e-19
1.253653141e-18
1.482733008e-18
1.35872494e-18
6.441384499e-19
9.906020006e-19
1.189387869e-17
1.079215295e-17
8.895884447e-18
3.213783226e-17
1.216226127e-16
1.70678761e-16
4.448422698e-17
3.272710044e-18
2.303992156e-18
3.87352428e-18
6.906778808e-18
9.692375397e-18
5.444828201e-18
2.30738233e-18
1.001237743e-18
4.387679971e-18
4.692529499e-18
5.447502998e-18
8.082337456e-18
6.531948542e-18
5.878177202e-18
3.408973372e-19
4.323832135e-19
6.076998416e-19
8.765790702e-19
1.219791846e-18
1.537225672e-18
1.588221569e-18
1.251924997e-18
3.200557928e-18
2.346531971e-17
1.086475355e-17
1.682962659e-16
1.873444482e-16
2.675497589e-17
1.028662803e-17
3.390532476e-18
2.173927791e-19
2.959935413e-19
1.118273222e-18
2.196607113e-18
2.626219794e-18
1.419013546e-18
2.807198778e-19
2.563682314e-19
7.862564747e-19
7.383417174e-19
6.643638821e-19
7.986543272e-19
8.06252957e-19
9.025471796e-19
1.744793149e-19
2.755976221e-19
4.711757082e-19
7.89787736e-19
1.267026355e-18
1.981512855e-18
3.317105961e-18
7.162050504e-18
2.89911765e-17
1.880988429e-18
1.293394378e-17
2.88378702e-16
8.469210604e-17
2.354440622e-18
1.923257594e-18
7.690791631e-19
1.298446949e-19
1.850599465e-19
5.866346406e-19
1.065506206e-18
1.194674939e-18
7.751840415e-19
3.486073861e-19
2.665211122e-19
2.635517405e-19
1.416924258e-19
6.368655077e-20
6.365291544e-20
1.163485525e-19
2.0065332e-19
3.649992915e-20
1.39066239e-19
3.379981885e-19
6.739389631e-19
1.215919018e-18
2.115248862e-18
3.690204494e-18
6.185048632e-18
9.235662164e-18
8.947102882e-18
2.316681853e-16
3.625516525e-16
7.239548034e-17
7.182798934e-18
2.287669707e-18
8.042905265e-19
3.35487245e-19
3.134179363e-19
5.126723594e-19
7.776550281e-19
8.428506362e-19
6.217207927e-19
3.729128054e-19
2.46349172e-19
1.473665488e-19
4.194826343e-20
3.978475517e-21
3.143670033e-21
2.679562854e-20
8.200651248e-20
)
;

boundaryField
{
    lowerWall
    {
        type            calculated;
        value           nonuniform 0();
    }
    atmosphere
    {
        type            calculated;
        value           nonuniform List<scalar> 
20
(
5.669040674e-21
5.814290451e-21
4.999543278e-21
3.529652818e-21
1.982839108e-21
1.0127482e-21
1.311686872e-21
3.801796774e-21
9.896963201e-21
2.16106274e-20
4.169185207e-20
7.580774947e-20
1.056076198e-19
5.991577346e-19
5.561056985e-19
5.550881375e-19
4.768173511e-19
3.339064945e-19
1.675228404e-19
2.994592167e-20
)
;
    }
    rightWall
    {
        type            empty;
    }
    leftWall
    {
        type            empty;
    }
    frontAndBack
    {
        type            calculated;
        value           nonuniform List<scalar> 
30
(
1.800421225e-20
1.203414442e-19
3.201073539e-19
6.611679078e-19
1.223203719e-18
2.189487521e-18
3.950818216e-18
6.730773231e-18
9.361446326e-18
1.462150693e-18
1.854484292e-16
4.21810055e-16
6.663977942e-17
7.602285875e-18
2.288149591e-18
8.296634277e-19
3.689048944e-19
3.348971274e-19
5.103153581e-19
7.463197747e-19
8.02787604e-19
6.080931385e-19
3.786850151e-19
2.432508326e-19
1.355269976e-19
3.621255662e-20
1.655927187e-21
9.135173261e-22
2.208607835e-20
7.047828576e-20
)
;
    }
    procBoundary4to2
    {
        type            processor;
        value           nonuniform List<scalar> 
30
(
6.808150829e-21
1.513189339e-20
3.129072448e-20
6.457922225e-20
1.35123071e-19
2.844515008e-19
5.93734964e-19
1.207372996e-18
2.344479484e-18
4.240350308e-18
6.884051757e-18
9.38703093e-18
9.374065226e-18
6.379960511e-18
2.223433974e-17
5.803977044e-17
5.436323979e-17
2.354784731e-17
1.104799214e-16
4.082888834e-16
8.169461845e-17
3.318550238e-17
1.095959345e-17
2.470046639e-17
5.321486848e-17
5.008308896e-16
4.016345636e-16
1.076302836e-17
5.878827925e-18
5.778604474e-20
)
;
    }
    procBoundary4to5
    {
        type            processor;
        value           nonuniform List<scalar> 
20
(
4.924800522e-16
1.072660575e-16
3.368760197e-17
1.354341155e-17
1.23848171e-18
1.086229597e-18
1.242172273e-17
2.879477758e-17
9.502747708e-17
3.776110243e-16
6.212181763e-17
5.321558859e-16
2.253037887e-16
2.407102078e-16
1.836197488e-16
1.450439441e-17
2.047101571e-18
4.575011593e-19
1.471096787e-19
7.658866115e-20
)
;
    }
}


// ************************************************************************* //
