/*--------------------------------*- C++ -*----------------------------------*\
  =========                 |
  \\      /  F ield         | OpenFOAM: The Open Source CFD Toolbox
   \\    /   O peration     | Website:  https://openfoam.org
    \\  /    A nd           | Version:  6
     \\/     M anipulation  |
\*---------------------------------------------------------------------------*/
FoamFile
{
    version     2.0;
    format      ascii;
    class       volScalarField;
    location    "0.0052";
    object      Num_divU;
}
// * * * * * * * * * * * * * * * * * * * * * * * * * * * * * * * * * * * * * //

dimensions      [0 0 -1 0 0 0 0];

internalField   nonuniform List<scalar> 
3600
(
-1.030036177e-10
-4.573816039e-09
-1.547021724e-08
-2.748478341e-08
-4.162812202e-08
-5.810728789e-08
-7.724639352e-08
-9.926970281e-08
-1.242526083e-07
-1.521491408e-07
-1.827073306e-07
-2.15499457e-07
-2.499550588e-07
-2.856067236e-07
-3.220854882e-07
-3.584135101e-07
-3.909516509e-07
-4.11262107e-07
-4.081864674e-07
-3.806276447e-07
-3.49443963e-07
-3.244582594e-07
-2.9380456e-07
-2.599089608e-07
-2.423895406e-07
-2.651592015e-07
-3.139406006e-07
-3.941070709e-07
-4.382082458e-07
-9.422708194e-08
1.645868026e-11
2.085643528e-11
2.081465655e-11
1.82474562e-11
1.51351386e-11
1.206067354e-11
9.667338253e-12
7.778715067e-12
6.515764488e-12
5.519533286e-12
4.823834853e-12
4.171440642e-12
3.659794657e-12
3.141530877e-12
2.732063114e-12
2.326265959e-12
2.022965365e-12
1.747518929e-12
1.596959597e-12
1.505862096e-12
1.489351418e-12
1.408312409e-12
1.262991048e-12
1.100208458e-12
1.08437906e-12
1.075138093e-12
1.328852076e-12
6.027957402e-13
1.945374776e-12
2.947121817e-13
9.537721868e-11
-4.158376477e-09
-1.495307836e-08
-2.696212861e-08
-4.119307008e-08
-5.789904141e-08
-7.754793317e-08
-1.004638806e-07
-1.269525097e-07
-1.57095658e-07
-1.907911097e-07
-2.274672902e-07
-2.662426185e-07
-3.059935815e-07
-3.459963323e-07
-3.858734331e-07
-4.243869069e-07
-4.550411687e-07
-4.618127794e-07
-4.326932488e-07
-3.980649819e-07
-3.714651525e-07
-3.274678202e-07
-2.68497615e-07
-2.119415169e-07
-1.974456197e-07
-2.140634629e-07
-2.770122555e-07
-3.962455339e-07
-8.080650181e-08
1.698943098e-11
2.181506972e-11
2.153615628e-11
1.91688296e-11
1.576756107e-11
1.277582824e-11
1.007668699e-11
8.219470265e-12
6.716457877e-12
5.78134272e-12
4.935474339e-12
4.366897218e-12
3.754472777e-12
3.309995978e-12
2.819308287e-12
2.467808447e-12
2.096595471e-12
1.861403233e-12
1.663105502e-12
1.607471822e-12
1.559055272e-12
1.490901292e-12
1.314285885e-12
1.154385566e-12
1.131807726e-12
1.238285337e-12
1.098719845e-12
1.606987431e-12
3.799893903e-13
1.190976356e-12
1.991979742e-10
-4.216084171e-09
-1.553775663e-08
-2.81985743e-08
-4.327234891e-08
-6.116902274e-08
-8.24591997e-08
-1.077180996e-07
-1.374201533e-07
-1.718873744e-07
-2.110073449e-07
-2.540584678e-07
-2.994876183e-07
-3.453408406e-07
-3.902474945e-07
-4.355513373e-07
-4.850166868e-07
-5.373833389e-07
-5.621336193e-07
-5.131821136e-07
-4.629489243e-07
-4.416736958e-07
-3.770538012e-07
-2.782941534e-07
-1.581510993e-07
-1.098039514e-07
-1.079954291e-07
-1.490481878e-07
-2.650907617e-07
3.390298237e-08
1.721838544e-11
2.155426162e-11
2.145838878e-11
1.894645386e-11
1.584892752e-11
1.27095483e-11
1.015213179e-11
8.08809093e-12
6.668220009e-12
5.584779009e-12
4.845200918e-12
4.195035235e-12
3.690369924e-12
3.189518219e-12
2.782999758e-12
2.383182734e-12
2.07212445e-12
1.797527656e-12
1.641861258e-12
1.560881643e-12
1.541981463e-12
1.455916374e-12
1.287644081e-12
1.12289986e-12
1.11935786e-12
1.154335036e-12
1.37061561e-12
4.797740591e-13
2.421426122e-12
7.165237536e-15
2.206763443e-10
-4.63477854e-09
-1.695308335e-08
-3.07524461e-08
-4.728742934e-08
-6.709600886e-08
-9.097531993e-08
-1.197254361e-07
-1.541267042e-07
-1.947361198e-07
-2.416415475e-07
-2.939771364e-07
-3.494983063e-07
-4.044181217e-07
-4.551480468e-07
-5.035497834e-07
-5.63566104e-07
-6.558750614e-07
-7.287360862e-07
-6.316239132e-07
-5.476126651e-07
-5.504022803e-07
-4.531410704e-07
-3.070167082e-07
-8.396732078e-08
-4.992770129e-09
1.342630017e-08
2.600557643e-08
-6.229312802e-08
2.281618415e-07
1.730500087e-11
2.18251137e-11
2.128039257e-11
1.872437531e-11
1.552299166e-11
1.253941184e-11
9.919790942e-12
7.91976908e-12
6.400879842e-12
5.363266259e-12
4.572115232e-12
3.994624801e-12
3.476244661e-12
3.046337896e-12
2.631439846e-12
2.283844064e-12
1.961732587e-12
1.722123906e-12
1.556067439e-12
1.49926166e-12
1.473102054e-12
1.3994332e-12
1.227625241e-12
1.068090754e-12
1.059116758e-12
1.215629953e-12
9.304370157e-13
1.963005313e-12
-2.41346568e-13
1.360242347e-12
1.541703875e-10
-5.441187827e-09
-1.915861909e-08
-3.456024282e-08
-5.308420789e-08
-7.547246304e-08
-1.027407779e-07
-1.35977502e-07
-1.762629751e-07
-2.245460174e-07
-2.813667815e-07
-3.462864654e-07
-4.167288077e-07
-4.862482791e-07
-5.447727617e-07
-5.879598832e-07
-6.404393001e-07
-7.946891661e-07
-9.962141307e-07
-8.080616959e-07
-6.707794201e-07
-6.992439712e-07
-5.395639658e-07
-3.635252122e-07
-1.557637042e-08
9.023214989e-08
1.255495587e-07
2.866168812e-07
2.062037731e-07
4.944781834e-07
1.754237386e-11
2.129598725e-11
2.05467858e-11
1.783638497e-11
1.482353198e-11
1.195420759e-11
9.516840563e-12
7.538458341e-12
6.08595947e-12
5.028434692e-12
4.291503823e-12
3.717744834e-12
3.26113006e-12
2.84449142e-12
2.480221152e-12
2.140737734e-12
1.853184636e-12
1.615219421e-12
1.470658307e-12
1.413250214e-12
1.399999786e-12
1.326018794e-12
1.162133778e-12
1.011909056e-12
1.022185767e-12
1.044954955e-12
1.360244202e-12
2.776549513e-14
2.818631323e-12
-2.685174308e-13
-2.14117021e-11
-6.635007702e-09
-2.21100251e-08
-3.949592772e-08
-6.047496361e-08
-8.600428664e-08
-1.173467261e-07
-1.558309333e-07
-2.028138483e-07
-2.596699989e-07
-3.277821813e-07
-4.082270907e-07
-4.999555756e-07
-5.95154028e-07
-6.717335671e-07
-6.999173826e-07
-6.818137436e-07
-8.935476263e-07
-1.321189326e-06
-1.355132635e-06
-1.411341875e-06
-5.962573621e-07
-4.566016739e-07
-1.963926622e-07
-6.147766574e-07
-1.067966256e-07
2.299130646e-07
7.339186911e-07
5.875903366e-07
8.268754271e-07
2.340911737e-11
2.644624946e-11
2.271075047e-11
1.810751307e-11
1.427255763e-11
1.128216628e-11
8.89588263e-12
7.04106578e-12
5.64221012e-12
4.649714457e-12
3.937680454e-12
3.417555523e-12
2.990745257e-12
2.624428471e-12
2.286659762e-12
1.984921796e-12
1.713823433e-12
1.49943623e-12
1.363150874e-12
1.31934497e-12
1.311255811e-12
1.247310284e-12
1.090257373e-12
9.437305791e-13
9.426599524e-13
1.129228823e-12
7.382425553e-13
2.199294744e-12
-8.45801227e-13
1.499914083e-12
-3.215248145e-10
-8.226907467e-09
-2.574249731e-08
-4.542427175e-08
-6.922961869e-08
-9.837736222e-08
-1.343665006e-07
-1.786982321e-07
-2.328243773e-07
-2.982987192e-07
-3.773360724e-07
-4.736017547e-07
-5.917306771e-07
-7.305715417e-07
-8.596989587e-07
-9.01569188e-07
-6.891887423e-07
-9.775303869e-07
-8.120945142e-07
-2.126422875e-06
-2.424488227e-06
-5.454484491e-07
-1.166802978e-07
-8.516879644e-08
-1.399748501e-06
-3.997360919e-07
5.725332081e-07
1.739049104e-06
1.302061384e-06
1.236578893e-06
2.500726449e-11
3.007622547e-11
2.536468971e-11
1.902307578e-11
1.415130597e-11
1.075387991e-11
8.316630235e-12
6.501824456e-12
5.174604882e-12
4.228057825e-12
3.569849216e-12
3.088456601e-12
2.710955795e-12
2.381038014e-12
2.084227323e-12
1.809681735e-12
1.566457475e-12
1.368619147e-12
1.248798875e-12
1.214425265e-12
1.21659438e-12
1.159172352e-12
1.011143388e-12
8.789446109e-13
9.01736099e-13
9.009283927e-13
1.318748949e-12
-4.235714916e-13
3.150208238e-12
-5.340726305e-13
-7.713920939e-10
-1.023033225e-08
-2.998921959e-08
-5.216220924e-08
-7.904560264e-08
-1.121805551e-07
-1.53346117e-07
-2.041634842e-07
-2.659121545e-07
-3.39610394e-07
-4.269364917e-07
-5.329744253e-07
-6.710130962e-07
-8.639733815e-07
-1.102282322e-06
-1.283728771e-06
-1.145401458e-06
-5.374335571e-07
2.827291155e-07
-2.222662469e-06
-1.942975075e-06
6.328224202e-08
4.808601155e-07
3.400830511e-07
-1.180359286e-06
-2.736095259e-06
1.07431883e-06
3.900034224e-06
3.683015458e-06
1.895336538e-06
-3.947732666e-13
1.803114545e-11
2.078866934e-11
1.69849234e-11
1.281217496e-11
9.661906522e-12
7.399179229e-12
5.747469243e-12
4.545923101e-12
3.700462371e-12
3.11429669e-12
2.698576743e-12
2.373991373e-12
2.096255675e-12
1.841003049e-12
1.604825473e-12
1.38979871e-12
1.216197216e-12
1.113621094e-12
1.094379739e-12
1.107393384e-12
1.061119442e-12
9.232648382e-13
7.92084541e-13
7.955163928e-13
1.00700749e-12
5.24822041e-13
2.378921741e-12
-1.425622475e-12
1.599117802e-12
-1.413721214e-09
-1.269654273e-08
-3.479051256e-08
-5.947494155e-08
-8.946442023e-08
-1.267547672e-07
-1.735575754e-07
-2.317870761e-07
-3.025599318e-07
-3.85617069e-07
-4.791947378e-07
-5.82855947e-07
-7.097005397e-07
-9.222791457e-07
-1.296491967e-06
-1.877961329e-06
-2.477926618e-06
4.021939562e-07
2.713202716e-06
2.691152296e-12
1.380567007e-11
2.042777192e-11
2.661568241e-11
2.727189296e-11
-2.524148335e-12
-9.507720861e-12
3.660360041e-06
1.267731357e-06
4.391838358e-06
3.727507562e-06
1.277488763e-11
1.969692405e-11
1.943924748e-11
1.543714989e-11
1.145878698e-11
8.511311098e-12
6.429719145e-12
4.936200267e-12
3.866686944e-12
3.122720274e-12
2.620819469e-12
2.273258464e-12
2.011260189e-12
1.786348688e-12
1.578988744e-12
1.381053061e-12
1.198704323e-12
1.050618742e-12
9.696912513e-13
9.659160047e-13
9.897178606e-13
9.513091601e-13
8.223032398e-13
7.077941328e-13
7.425574855e-13
7.212733823e-13
1.238495134e-12
-8.652835824e-13
3.398807324e-12
-7.822133868e-13
-2.349711876e-09
-1.578019011e-08
-4.015972563e-08
-6.708040141e-08
-9.980688197e-08
-1.409611023e-07
-1.934814593e-07
-2.601190547e-07
-3.428007961e-07
-4.410719327e-07
-5.486740531e-07
-6.479458474e-07
-7.073607228e-07
-7.377673881e-07
-1.175691274e-06
-2.435433424e-06
-4.203664401e-06
-1.847707317e-11
-1.009046253e-11
3.192027658e-13
7.488783103e-12
1.185542056e-11
1.869836769e-11
1.138477084e-11
-8.84652718e-13
-3.533243946e-11
-2.816222995e-11
1.060216049e-11
6.126907055e-06
-6.788986472e-13
-4.774429139e-11
1.320096029e-11
1.492706238e-11
1.218618319e-11
9.125973533e-12
6.766815206e-12
5.075352305e-12
3.857757586e-12
2.990087407e-12
2.398850166e-12
2.012297789e-12
1.759913656e-12
1.575960621e-12
1.420016194e-12
1.26958261e-12
1.120573082e-12
9.771731898e-13
8.621205488e-13
8.066794577e-13
8.213697344e-13
8.575663248e-13
8.299212979e-13
7.125775991e-13
6.01537432e-13
6.144982414e-13
8.545923182e-13
2.998562812e-13
2.504605505e-12
-1.95789019e-12
1.660532691e-12
-3.845452462e-09
-1.991588126e-08
-4.633689939e-08
-7.476756517e-08
-1.092119215e-07
-1.530684622e-07
-2.102020606e-07
-2.84857511e-07
-3.817113895e-07
-5.054163693e-07
-6.573698325e-07
-8.246046429e-07
-9.472683373e-07
-1.022494711e-06
-6.718181133e-07
3.462633522e-07
-6.542611751e-12
-9.245001758e-12
-6.938320903e-12
-5.068515713e-13
3.751789036e-12
6.003019776e-12
1.021371355e-11
1.161773982e-11
-8.902463854e-12
-1.973274985e-11
6.43153037e-14
-1.39324765e-11
-1.643219554e-11
-2.743028901e-11
-1.173370754e-11
6.597026062e-12
8.645039283e-12
7.728812621e-12
6.099458388e-12
4.644840563e-12
3.509531269e-12
2.649856772e-12
2.027805167e-12
1.609989833e-12
1.356018262e-12
1.206922218e-12
1.111412049e-12
1.02868122e-12
9.419433925e-13
8.444069096e-13
7.453536366e-13
6.663564283e-13
6.392862913e-13
6.721141407e-13
7.187274256e-13
6.991884693e-13
5.953800233e-13
5.100401438e-13
5.671995884e-13
5.349437934e-13
1.146738588e-12
-1.2675039e-12
3.567895477e-12
-1.003232883e-12
-6.654694357e-09
-2.618401232e-08
-5.407101036e-08
-8.260678584e-08
-1.169187295e-07
-1.611471538e-07
-2.19776843e-07
-2.980152646e-07
-4.030181364e-07
-5.464991149e-07
-7.492702154e-07
-1.044080329e-06
-1.394537339e-06
-8.652193356e-07
4.207031378e-07
2.527218235e-06
-3.884455946e-12
-7.986457766e-12
-5.469901474e-12
-9.963835215e-13
1.320787646e-12
1.007890229e-12
1.870124337e-12
2.881648664e-12
-2.859045144e-12
-1.3539072e-11
-6.813016049e-12
-1.014306187e-11
-2.261146562e-11
-1.109974086e-11
-2.289970961e-11
-3.55399454e-13
2.826177465e-12
3.288339977e-12
2.824594173e-12
2.214208382e-12
1.66507141e-12
1.221924649e-12
8.952031379e-13
6.946129697e-13
5.997549369e-13
5.780014792e-13
5.842622738e-13
5.897733391e-13
5.753068022e-13
5.403904832e-13
4.922246865e-13
4.554780178e-13
4.590174874e-13
5.122061987e-13
5.714387637e-13
5.66631738e-13
4.836043475e-13
4.100000833e-13
4.428664193e-13
7.106428191e-13
9.108200898e-14
2.575560758e-12
-2.42356287e-12
1.673793254e-12
-1.305129206e-08
-3.713268797e-08
-6.502083082e-08
-9.119521497e-08
-1.226833955e-07
-1.641904754e-07
-2.199694807e-07
-2.94247078e-07
-3.9159184e-07
-5.174710688e-07
-6.793706016e-07
-8.955211191e-07
-1.44807901e-06
-2.222068369e-06
-2.24643965e-06
-2.982549744e-12
-7.802018246e-12
-9.681233933e-12
-7.539156065e-12
-4.091432027e-12
-2.910127907e-12
-3.703023344e-12
-3.232892431e-12
-9.949442242e-13
-2.443972804e-12
-5.245260215e-12
-5.166150208e-12
-1.101197617e-11
-1.205979451e-11
-1.770198869e-11
-1.658344468e-11
-5.563650669e-12
-2.502759195e-12
-1.053916785e-12
-4.863803213e-13
-2.864625291e-13
-2.32582093e-13
-2.431914052e-13
-2.564097203e-13
-2.357869042e-13
-1.64648695e-13
-6.105867458e-14
5.066631001e-14
1.424341404e-13
2.037018373e-13
2.309140751e-13
2.368433632e-13
2.427452484e-13
2.783774812e-13
3.50569272e-13
4.225358375e-13
4.337457937e-13
3.741697958e-13
3.322707096e-13
4.112471683e-13
3.595964132e-13
1.029902687e-12
-1.631394048e-12
3.625982708e-12
-1.200834078e-12
-3.075587434e-08
-5.867383349e-08
-8.209387519e-08
-1.014827996e-07
-1.267234144e-07
-1.626081083e-07
-2.127597947e-07
-2.805359094e-07
-3.69223608e-07
-4.813697286e-07
-6.172599032e-07
-7.924084377e-07
-1.559500236e-06
-2.535250842e-06
-2.019408674e-06
-7.910346114e-12
-1.275769736e-11
-1.441652597e-11
-1.282208447e-11
-1.036225709e-11
-9.228204046e-12
-9.036683265e-12
-6.518021498e-12
-8.610042372e-13
3.026588576e-12
2.713681243e-12
2.086023679e-12
-2.453030414e-12
-9.119923019e-12
-8.958703609e-12
-2.168220534e-11
-9.686360316e-12
-6.701267445e-12
-4.868343494e-12
-3.688104715e-12
-2.857653048e-12
-2.247655531e-12
-1.814495039e-12
-1.491616141e-12
-1.226674103e-12
-9.780649982e-13
-7.384328715e-13
-5.186324103e-13
-3.338070764e-13
-1.945515517e-13
-9.835125572e-14
-3.615911424e-14
1.637741644e-14
8.451879178e-14
1.788644012e-13
2.69033743e-13
3.037090926e-13
2.70818996e-13
2.368493056e-13
2.739552162e-13
5.400661925e-13
-1.531657892e-13
2.557337385e-12
-2.837289851e-12
1.635515067e-12
-8.355411773e-08
-1.029564704e-07
-1.086534233e-07
-1.135852921e-07
-1.284816525e-07
-1.560864985e-07
-1.984631632e-07
-2.5879801e-07
-3.428470953e-07
-4.610417042e-07
-6.29939798e-07
-8.55492967e-07
-8.022114549e-07
-8.295154029e-07
1.346585241e-08
-1.170188206e-11
-1.814667807e-11
-2.061369172e-11
-1.861147469e-11
-1.606793319e-11
-1.489325126e-11
-1.217809075e-11
-5.06790096e-12
3.794048904e-12
1.02971878e-11
1.328355427e-11
9.330634629e-12
4.03203342e-12
-3.823844371e-13
-1.261799221e-11
-1.440062372e-11
-1.204411132e-11
-1.001598298e-11
-8.177349087e-12
-6.627252043e-12
-5.290284923e-12
-4.204323538e-12
-3.353712598e-12
-2.716634788e-12
-2.214227197e-12
-1.795851872e-12
-1.425070014e-12
-1.099573543e-12
-8.251298367e-13
-6.068464919e-13
-4.435472772e-13
-3.223125703e-13
-2.234695144e-13
-1.206061524e-13
-3.382656346e-15
1.076097309e-13
1.642778089e-13
1.550697048e-13
1.414697176e-13
2.199398982e-13
1.033426806e-13
8.54588628e-13
-1.972490291e-12
3.598707284e-12
-1.372586925e-12
-3.172677323e-07
-2.108897566e-07
-1.460707729e-07
-1.244222317e-07
-1.255626059e-07
-1.428688785e-07
-1.741308544e-07
-2.200122166e-07
-2.842150669e-07
-3.750745487e-07
-5.069253806e-07
-6.833822251e-07
-5.757787508e-07
-5.181704495e-07
2.171490572e-07
-1.355392913e-11
-1.928726367e-11
-1.997008902e-11
-2.281882727e-11
-2.23539493e-11
-1.888100492e-11
-1.227484948e-11
-4.44528546e-13
1.110790754e-11
1.699328737e-11
1.367454031e-11
1.640892592e-11
1.131107964e-11
7.847398079e-13
-2.622121501e-13
-1.972500737e-11
-1.63259372e-11
-1.457554491e-11
-1.230466549e-11
-1.006778433e-11
-8.026157931e-12
-6.344866501e-12
-5.012346789e-12
-4.021563998e-12
-3.259351667e-12
-2.660125584e-12
-2.151187485e-12
-1.718582655e-12
-1.350742766e-12
-1.052247811e-12
-8.174004895e-13
-6.352616398e-13
-4.878601338e-13
-3.47991162e-13
-2.032916577e-13
-6.756307403e-14
1.445974231e-14
2.551240907e-14
1.368410479e-14
2.037040269e-14
2.729345895e-13
-3.9353801e-13
2.525855703e-12
-3.194892738e-12
1.647731002e-12
-3.62275013e-07
-2.295203967e-07
-1.477815345e-07
-1.182820897e-07
-1.130019085e-07
-1.222332244e-07
-1.413221461e-07
-1.67627035e-07
-1.989375541e-07
-2.319014657e-07
-2.599806992e-07
-2.910695385e-07
-8.937817105e-07
-1.578531891e-06
-1.314840398e-06
-1.019590102e-11
-1.392447261e-11
-2.5287365e-11
-2.387432011e-11
-2.305341479e-11
-2.028398754e-11
-9.059081894e-12
4.977785076e-12
1.525045296e-11
1.675080122e-11
2.682699004e-11
1.501765671e-11
1.434938762e-11
1.944265581e-11
-1.015667264e-11
-4.19652449e-12
-1.68371878e-11
-1.749743966e-11
-1.573916202e-11
-1.313975108e-11
-1.063783402e-11
-8.404804444e-12
-6.671588644e-12
-5.315843146e-12
-4.32172953e-12
-3.524486151e-12
-2.887073279e-12
-2.336199872e-12
-1.87817502e-12
-1.494652383e-12
-1.188214269e-12
-9.44608073e-13
-7.459679141e-13
-5.695280844e-13
-3.943328563e-13
-2.372563279e-13
-1.318208836e-13
-1.03970323e-13
-9.771329458e-14
-7.668484776e-14
-1.213358098e-13
7.386013587e-13
-2.244704707e-12
3.721378919e-12
-1.437984642e-12
-1.448495519e-07
-1.272991278e-07
-1.038745883e-07
-9.229035857e-08
-9.101511885e-08
-9.683683902e-08
-1.06569605e-07
-1.171647362e-07
-1.25506591e-07
-1.285492016e-07
-1.245210319e-07
-1.197627082e-07
-3.688630746e-07
-5.705711249e-07
-2.113436885e-06
-4.695752179e-12
-1.103627663e-11
-8.072760575e-12
-3.564002336e-11
-3.455076545e-11
-2.179663984e-11
-3.519401715e-12
1.329854191e-11
1.87060834e-11
1.949109928e-11
-3.530322748e-12
4.30767018e-11
3.670015073e-11
-3.179810651e-11
1.947114607e-11
-2.818476932e-11
-3.076193716e-11
-2.715282186e-11
-2.194777532e-11
-1.730510934e-11
-1.350803802e-11
-1.056335426e-11
-8.283308247e-12
-6.60591884e-12
-5.330920342e-12
-4.375045703e-12
-3.58282074e-12
-2.939795142e-12
-2.377050629e-12
-1.923668075e-12
-1.537421694e-12
-1.240294674e-12
-9.859382226e-13
-7.748990521e-13
-5.666164016e-13
-3.862339187e-13
-2.560061822e-13
-2.056707921e-13
-2.274122122e-13
-1.996163539e-13
1.386322654e-13
-5.103060377e-13
2.722740245e-12
-3.329789585e-12
1.550367422e-12
-2.907323254e-08
-5.060052681e-08
-5.705919845e-08
-6.116130906e-08
-6.573845659e-08
-7.047723526e-08
-7.335116863e-08
-7.18216258e-08
-6.36843548e-08
-4.974656488e-08
-3.858944694e-08
-5.196660397e-08
-6.775980446e-08
6.277057381e-07
1.462906823e-06
3.808000934e-06
5.383111978e-12
-6.369491209e-11
-6.225078258e-11
-4.901457782e-11
-2.387591932e-11
-1.182233228e-13
1.330224376e-11
7.281010063e-12
-1.376156047e-11
9.258140143e-11
8.467160265e-11
-5.297292671e-12
4.134882186e-11
-4.341859004e-11
3.681636365e-11
-1.847552126e-11
-2.621158238e-11
-2.339806336e-11
-1.878916724e-11
-1.467638955e-11
-1.145983001e-11
-9.012658142e-12
-7.182261541e-12
-5.833827603e-12
-4.777098747e-12
-3.953488727e-12
-3.233276083e-12
-2.653865875e-12
-2.133736759e-12
-1.735414266e-12
-1.38159832e-12
-1.120342915e-12
-8.697663302e-13
-6.634589601e-13
-4.58569637e-13
-3.296099871e-13
-2.669724758e-13
-2.848019499e-13
-1.635611736e-13
-1.696470758e-13
8.754846822e-13
-2.401118252e-12
3.608743925e-12
-2.438537e-12
5.112173586e-08
8.28908099e-09
-1.647137595e-08
-3.207498798e-08
-4.18100645e-08
-4.599018229e-08
-4.276460138e-08
-2.829535631e-08
3.107199242e-09
6.027613024e-08
1.594081448e-07
3.380401012e-07
6.950598523e-07
1.352499637e-06
3.134759561e-06
2.227648989e-06
-3.953467009e-11
-4.854855367e-11
-7.138070021e-11
-6.150942311e-11
-1.445840227e-11
1.562639855e-11
2.058736656e-11
4.508269189e-12
7.108886814e-11
1.019989643e-10
1.075936983e-10
5.031876649e-11
-2.4281712e-11
9.72044786e-11
-4.202293239e-11
-3.472091532e-11
-3.432687951e-11
-2.756786574e-11
-2.095453021e-11
-1.603827192e-11
-1.245527123e-11
-9.83923211e-12
-7.906221154e-12
-6.445126415e-12
-5.341711133e-12
-4.421777754e-12
-3.680068752e-12
-3.009483331e-12
-2.473750366e-12
-1.99020944e-12
-1.625359514e-12
-1.295778453e-12
-1.045298099e-12
-7.944134562e-13
-5.960787403e-13
-4.274443767e-13
-3.731622251e-13
-3.200885625e-13
-2.758863e-13
1.645790931e-13
-7.892545571e-13
2.996373111e-12
-6.085149664e-12
3.642750659e-12
1.05130059e-07
4.986374723e-08
1.423337706e-08
-9.032859349e-09
-2.249452226e-08
-2.644823441e-08
-1.847941706e-08
6.513925036e-09
5.72937219e-08
1.482300379e-07
3.041528272e-07
5.69076789e-07
1.017388744e-06
1.710497359e-06
2.268373278e-06
2.370292605e-06
-1.248798649e-06
-7.674564424e-11
-8.107608531e-11
-4.466798751e-11
3.604978552e-12
3.601422359e-11
3.200379521e-11
6.925535963e-12
2.853248469e-11
1.498170835e-10
8.992091796e-11
2.491469952e-11
1.545067231e-06
-4.155813154e-11
5.707936867e-11
-4.922950572e-11
-5.427572503e-11
-4.464706713e-11
-3.425689536e-11
-2.62199337e-11
-2.040772015e-11
-1.614460129e-11
-1.298437188e-11
-1.062169018e-11
-8.783038424e-12
-7.316423725e-12
-6.061282863e-12
-5.008323816e-12
-4.085404349e-12
-3.331505708e-12
-2.687266313e-12
-2.180587642e-12
-1.739169106e-12
-1.365191745e-12
-1.012544171e-12
-7.498986462e-13
-5.934820477e-13
-5.622201368e-13
-3.900469354e-13
-5.08760388e-13
1.287449241e-12
-4.60163944e-12
6.847505114e-12
-3.576345107e-12
1.372095315e-07
7.548124727e-08
3.394571133e-08
6.124906206e-09
-9.970617928e-09
-1.435337235e-08
-4.286082704e-09
2.583068201e-08
8.517877685e-08
1.87035909e-07
3.493371161e-07
5.926317406e-07
9.331636549e-07
1.361183744e-06
1.934925771e-06
2.868919058e-06
5.837988653e-06
5.935536793e-06
-7.056379585e-07
1.23975985e-11
-6.636864569e-13
2.665350795e-11
4.509852857e-12
-2.461745682e-11
4.68335116e-11
7.789291256e-18
-1.318935347e-06
-1.235647766e-06
-1.098924547e-07
9.380935756e-07
-4.721979718e-11
-4.977252757e-11
-4.155388126e-11
-3.160611232e-11
-2.373023177e-11
-1.821078743e-11
-1.440214548e-11
-1.165525253e-11
-9.589918967e-12
-7.991202868e-12
-6.69633656e-12
-5.62796908e-12
-4.700059172e-12
-3.910413003e-12
-3.216477276e-12
-2.639607833e-12
-2.144187122e-12
-1.744785539e-12
-1.397045458e-12
-1.103554525e-12
-8.406258645e-13
-6.517162815e-13
-5.316710261e-13
-4.781215463e-13
-3.741671918e-13
2.060481997e-14
-6.415164837e-13
1.626439432e-12
-3.276177959e-12
1.197084824e-12
1.495401227e-07
8.647704466e-08
4.293216782e-08
1.296405291e-08
-5.006809049e-09
-1.074251058e-08
-1.460781827e-09
2.847068196e-08
8.77971806e-08
1.882088697e-07
3.422472078e-07
5.570192566e-07
8.206975324e-07
1.086923031e-06
1.347223201e-06
1.697398402e-06
2.144706609e-06
2.629811028e-06
7.149663778e-06
1.642184727e-05
-2.49546079e-11
2.050390245e-11
-5.687254614e-12
8.02517475e-11
6.645840632e-12
1.000996235e-05
-1.808459864e-06
-2.037049302e-06
-3.147584618e-06
-1.772817773e-06
-4.098817237e-11
-4.405264605e-11
-3.754962095e-11
-2.939556211e-11
-2.264797558e-11
-1.783564246e-11
-1.442219746e-11
-1.192194885e-11
-9.984002943e-12
-8.434065343e-12
-7.146139158e-12
-6.048407309e-12
-5.093740016e-12
-4.258239336e-12
-3.533251376e-12
-2.908792983e-12
-2.382332417e-12
-1.938778985e-12
-1.56611125e-12
-1.243155226e-12
-9.727586785e-13
-7.698001588e-13
-6.467671589e-13
-5.431791681e-13
-3.744031102e-13
-4.150919338e-13
5.177303938e-13
-2.634800019e-12
2.686470908e-12
-1.518714182e-12
1.44361345e-07
8.454164038e-08
4.221059959e-08
1.196428095e-08
-7.37398467e-09
-1.549113569e-08
-9.689540144e-09
1.545343712e-08
6.87813606e-08
1.632365714e-07
3.163285036e-07
5.485619987e-07
8.760863668e-07
1.290320905e-06
1.846814515e-06
2.741660143e-06
5.665218954e-06
5.779215328e-06
-8.689279406e-07
-7.170829391e-11
-9.34087164e-12
1.871562702e-11
5.060125751e-11
2.005398422e-11
1.11897531e-10
3.393656814e-11
-1.784546733e-06
-1.393988181e-06
-2.44892411e-07
8.539683651e-07
-2.631415274e-11
-3.250055204e-11
-2.967664969e-11
-2.459535174e-11
-1.996747309e-11
-1.638149627e-11
-1.372356144e-11
-1.166186777e-11
-1.000656241e-11
-8.607235759e-12
-7.399820168e-12
-6.327998637e-12
-5.374869149e-12
-4.525639334e-12
-3.778968435e-12
-3.129927282e-12
-2.574627695e-12
-2.105538396e-12
-1.708927206e-12
-1.372863271e-12
-1.093089443e-12
-8.803246422e-13
-7.341403677e-13
-6.316793047e-13
-5.213923247e-13
-1.535397778e-13
-7.711078777e-13
1.822035139e-12
-3.361150882e-12
9.828273269e-13
1.248034079e-07
7.207056844e-08
3.34844021e-08
4.405571246e-09
-1.600307236e-08
-2.746792673e-08
-2.774678633e-08
-1.219848951e-08
2.720521318e-08
1.040289981e-07
2.422829511e-07
4.85335486e-07
9.070741208e-07
1.570297271e-06
2.094252608e-06
2.175661083e-06
-1.445850908e-06
-4.887426984e-11
-5.658235024e-11
-4.8256662e-11
-8.095329875e-12
1.531476803e-11
2.750577867e-11
7.9747352e-11
6.447009831e-11
4.563734298e-11
6.079186128e-11
3.217049192e-11
1.514616391e-06
2.555059803e-11
1.715055749e-11
-1.48347442e-11
-1.925907359e-11
-1.868846636e-11
-1.667773274e-11
-1.461466207e-11
-1.279404625e-11
-1.125338859e-11
-9.895887963e-12
-8.68489272e-12
-7.567311361e-12
-6.542131188e-12
-5.59673837e-12
-4.743969677e-12
-3.980363969e-12
-3.312330898e-12
-2.733803602e-12
-2.242984033e-12
-1.827972493e-12
-1.480971655e-12
-1.196419391e-12
-9.766641824e-13
-8.187256891e-13
-6.870125361e-13
-5.204995136e-13
-5.712288805e-13
2.808143613e-13
-2.417438607e-12
2.344950418e-12
-1.460293461e-12
9.508337516e-08
5.212414651e-08
1.903866937e-08
-7.880705399e-09
-2.912479573e-08
-4.460321313e-08
-5.290811165e-08
-5.121729985e-08
-3.497214777e-08
3.295260294e-09
7.849580873e-08
2.266041297e-07
5.453088596e-07
1.162253698e-06
2.884500725e-06
2.023095574e-06
-2.94475371e-11
-3.449701982e-11
-5.523276986e-11
-3.590963597e-11
-2.480405583e-12
1.9841256e-11
3.142249635e-11
4.719547173e-11
6.438205917e-11
6.713303308e-11
6.149369158e-11
9.883418812e-11
7.725150196e-11
4.641459285e-11
4.672616861e-11
-3.400000578e-12
-1.12807558e-11
-1.383082693e-11
-1.39705918e-11
-1.311800666e-11
-1.20010028e-11
-1.084841338e-11
-9.753530429e-12
-8.691497269e-12
-7.672869587e-12
-6.687091382e-12
-5.762047509e-12
-4.903709996e-12
-4.132286072e-12
-3.446063315e-12
-2.852419395e-12
-2.343900323e-12
-1.9181578e-12
-1.564017657e-12
-1.276105664e-12
-1.046828792e-12
-8.698258627e-13
-7.352875523e-13
-6.359358206e-13
-2.979002665e-13
-9.209433905e-13
1.599407172e-12
-3.206648116e-12
7.852649572e-13
6.018599241e-08
2.823974409e-08
1.494269003e-09
-2.272414815e-08
-4.454579451e-08
-6.404601463e-08
-8.063740223e-08
-9.341063901e-08
-1.020410435e-07
-1.092172441e-07
-1.254275555e-07
-1.74885991e-07
-2.304036178e-07
3.842281527e-07
1.236528063e-06
3.62330596e-06
-4.067278867e-11
-4.193038191e-11
-3.925885959e-11
-2.589405464e-11
-2.670538863e-12
1.648678614e-11
2.838633503e-11
4.532901472e-11
5.007563568e-11
5.53878019e-11
7.794926754e-11
8.55869556e-11
7.266047106e-11
4.866457082e-11
5.180571924e-11
5.207308807e-12
-4.300926925e-12
-9.399988615e-12
-1.140263899e-11
-1.170554157e-11
-1.121029686e-11
-1.044230555e-11
-9.569021226e-12
-8.664970571e-12
-7.728618512e-12
-6.796421986e-12
-5.884875752e-12
-5.032406448e-12
-4.24942337e-12
-3.554263952e-12
-2.944675532e-12
-2.425332206e-12
-1.988145408e-12
-1.630105004e-12
-1.339398082e-12
-1.105986582e-12
-9.174847529e-13
-7.602368521e-13
-6.015028549e-13
-6.790388522e-13
1.280497881e-13
-2.347900727e-12
1.930948787e-12
-1.377542758e-12
2.535148958e-08
4.060691693e-09
-1.648080307e-08
-3.79604172e-08
-6.015732236e-08
-8.318711132e-08
-1.068430853e-07
-1.306719623e-07
-1.541628755e-07
-1.774419316e-07
-2.028905877e-07
-2.436512099e-07
-5.742559716e-07
-9.396330242e-07
-2.238794779e-06
-3.972197309e-11
-3.679444657e-11
-3.598882827e-11
-3.617672892e-11
-2.541252686e-11
-6.260569691e-12
1.154837876e-11
2.351830776e-11
3.525660209e-11
4.736421395e-11
5.743202101e-11
7.150694724e-11
8.333184973e-11
7.156637739e-11
4.938104886e-11
5.813739001e-11
1.201063239e-11
7.872084849e-13
-6.348487668e-12
-9.831818817e-12
-1.092279865e-11
-1.082783601e-11
-1.023539703e-11
-9.482041431e-12
-8.646656125e-12
-7.771502207e-12
-6.865754914e-12
-5.973821668e-12
-5.118545777e-12
-4.33365715e-12
-3.626498173e-12
-3.009997533e-12
-2.480080444e-12
-2.038734079e-12
-1.677034667e-12
-1.38629993e-12
-1.146651595e-12
-9.460361442e-13
-7.877456581e-13
-6.906504108e-13
-3.818858558e-13
-9.806087381e-13
1.313352407e-12
-2.991931322e-12
5.879590861e-13
-4.625877068e-09
-1.710383414e-08
-3.248354091e-08
-5.168835904e-08
-7.426672202e-08
-1.004921364e-07
-1.30724554e-07
-1.65515226e-07
-2.055088406e-07
-2.510273396e-07
-3.008786918e-07
-3.718748425e-07
-1.069239618e-06
-1.940170754e-06
-1.547608219e-06
-2.770784082e-11
-3.266228792e-11
-3.604166618e-11
-3.569296335e-11
-2.660735248e-11
-1.179528376e-11
3.531467075e-12
1.839629876e-11
3.479932678e-11
5.124097831e-11
6.555614728e-11
7.71177596e-11
8.22002999e-11
7.024058238e-11
4.932388359e-11
6.313183243e-11
1.707871536e-11
4.887915283e-12
-3.899326659e-12
-8.534564976e-12
-1.027096082e-11
-1.045608387e-11
-1.000952795e-11
-9.331319297e-12
-8.57024866e-12
-7.743045539e-12
-6.881767584e-12
-6.007823213e-12
-5.166698392e-12
-4.380116784e-12
-3.673916877e-12
-3.050811112e-12
-2.517930071e-12
-2.070825387e-12
-1.709967923e-12
-1.420577419e-12
-1.182112259e-12
-9.757607228e-13
-7.998440144e-13
-6.412933646e-13
-7.280448846e-13
2.934554578e-14
-2.204350779e-12
1.521584834e-12
-1.255661764e-12
-2.601677952e-08
-3.266547143e-08
-4.460237723e-08
-6.230749626e-08
-8.525929867e-08
-1.139853405e-07
-1.497259012e-07
-1.95186131e-07
-2.561124463e-07
-3.439618292e-07
-4.784229857e-07
-6.734634383e-07
-6.47491526e-07
-7.7047675e-07
5.096776374e-08
-3.011229691e-11
-3.332499072e-11
-3.582827143e-11
-3.615629278e-11
-3.175963154e-11
-1.904793092e-11
-3.521386079e-12
1.626865174e-11
3.984379154e-11
6.059928292e-11
7.714296666e-11
8.497174514e-11
7.793863693e-11
7.132467603e-11
5.074117154e-11
6.577643268e-11
2.014293677e-11
6.998088478e-12
-2.822171191e-12
-8.164424623e-12
-1.020483263e-11