/*--------------------------------*- C++ -*----------------------------------*\
  =========                 |
  \\      /  F ield         | OpenFOAM: The Open Source CFD Toolbox
   \\    /   O peration     | Website:  https://openfoam.org
    \\  /    A nd           | Version:  6
     \\/     M anipulation  |
\*---------------------------------------------------------------------------*/
FoamFile
{
    version     2.0;
    format      ascii;
    class       surfaceScalarField;
    location    "0.0052";
    object      phi;
}
// * * * * * * * * * * * * * * * * * * * * * * * * * * * * * * * * * * * * * //

dimensions      [0 3 -1 0 0 0 0];

internalField   nonuniform List<scalar> 
7080
(
1.894813784e-18
-3.487622698e-21
1.902997276e-18
-1.021629842e-20
1.912271011e-18
-1.614938743e-20
1.920747336e-18
-2.069178501e-20
1.925464569e-18
-2.321862029e-20
1.922712809e-18
-2.307370097e-20
1.907951716e-18
-1.957063776e-20
1.875874683e-18
-1.204283568e-20
1.82056646e-18
8.484196515e-23
1.735799652e-18
1.714496649e-20
1.615562506e-18
3.903388764e-20
1.454844245e-18
6.494072479e-20
1.250634111e-18
9.311899553e-20
1.002865615e-18
1.208321736e-19
7.148724679e-19
1.448440409e-19
3.928883649e-19
1.626892088e-19
4.467025344e-20
1.744618214e-19
-3.21310804e-19
1.831978978e-19
-6.933024019e-19
1.905753892e-19
-1.049509045e-18
1.870388001e-19
-1.354765579e-18
1.499481051e-19
-1.569348551e-18
7.037930024e-20
-1.66105935e-18
-3.886900553e-20
-1.607688094e-18
-1.688863498e-19
-1.396397256e-18
-3.190195235e-19
-1.034472563e-18
-4.797732275e-19
-5.743936671e-19
-5.996080527e-19
-1.523084369e-19
-5.972439293e-19
5.760143356e-20
-4.046690916e-19
1.572273024e-20
8.645260062e-33
1.516620287e-20
5.638423451e-22
1.414749283e-20
1.027979565e-21
1.282186763e-20
1.334876162e-21
1.13516783e-20
1.478299307e-21
9.871145235e-21
1.487259795e-21
8.472532347e-21
1.403973187e-21
7.208213738e-21
1.268615203e-21
6.099636672e-21
1.112034272e-21
5.14777986e-21
9.547527081e-22
4.341732186e-21
8.085008e-22
3.665012181e-21
6.788639316e-22
3.099441782e-21
5.674243723e-22
2.627483252e-21
4.735851051e-22
2.233277412e-21
3.95602076e-22
1.903118767e-21
3.313728952e-22
1.625413926e-21
2.787387378e-22
1.390560523e-21
2.35752498e-22
1.19064827e-21
2.00688928e-22
1.019239078e-21
1.721189524e-22
8.710669376e-22
1.488414123e-22
7.418305257e-22
1.298983459e-22
6.279540514e-22
1.145023909e-22
5.264804573e-22
1.020349235e-22
4.349754634e-22
9.199397545e-23
3.514659796e-22
8.399143006e-23
2.742240794e-22
7.771973939e-23
2.018333683e-22
7.298131204e-23
1.326189343e-22
6.948234316e-23
6.604212302e-23
6.744142231e-23
6.617310622e-23
1.885387388e-18
-7.286582937e-21
1.894691259e-18
-2.136833665e-20
1.905790284e-18
-3.389422445e-20
1.916811043e-18
-4.369571285e-20
1.9248345e-18
-4.955010805e-20
1.92617903e-18
-5.015113834e-20
1.916279979e-18
-4.413733377e-20
1.889736432e-18
-3.014990226e-20
1.840391422e-18
-6.993485093e-21
1.761598814e-18
2.611728298e-20
1.646693619e-18
6.914303463e-20
1.489858398e-18
1.206793732e-19
1.28732343e-18
1.773239117e-19
1.038807393e-18
2.333510652e-19
7.484927048e-19
2.81382583e-19
4.245195678e-19
3.151630439e-19
7.589907206e-20
3.344659161e-19
-2.916998099e-19
3.485562623e-19
-6.746385351e-19
3.682639921e-19
-1.056615119e-18
3.767072758e-19
-1.39621546e-18
3.126306775e-19
-1.644569276e-18
1.536374948e-19
-1.770302911e-18
-5.867662213e-20
-1.754971777e-18
-3.03549756e-19
-1.576492293e-18
-5.916952363e-19
-1.217542236e-18
-9.264768927e-19
-7.127535276e-19
-1.199536077e-18
-2.091957053e-19
-1.223918309e-18
5.220057281e-20
-8.42174494e-19
1.628657234e-20
9.194183162e-33
1.563033987e-20
1.227625676e-21
1.445438919e-20
2.213625826e-21
1.296529058e-20
2.833546405e-21
1.136063864e-20
3.091470722e-21
9.787858458e-21
3.067047782e-21
8.337174239e-21
2.860335553e-21
7.051632718e-21
2.558635252e-21
5.942355002e-21
2.224965086e-21
5.001527878e-21
1.898564925e-21
4.212095264e-21
1.600502899e-21
3.553572558e-21
1.339580182e-21
3.00560247e-21
1.117335303e-21
2.549500191e-21
9.31356039e-22
2.169048193e-21
7.775251834e-22
1.850484583e-21
6.511895315e-22
1.582427666e-21
5.478924586e-22
1.355496929e-21
4.636150542e-22
1.162078278e-21
3.949348701e-22
9.95961525e-22
3.38974863e-22
8.521238562e-22
2.933935131e-22
7.2643456e-22
2.562805555e-22
6.154865763e-22
2.261129974e-22
5.164395e-22
2.016661268e-22
4.269729117e-22
1.81973624e-22
3.451942849e-22
1.662730825e-22
2.694856468e-22
1.539787265e-22
1.983343964e-22
1.446208823e-22
1.305780125e-22
1.379529437e-22
6.477380494e-23
1.334145141e-22
1.31476234e-22
1.868801586e-18
-1.168312036e-20
1.87989965e-18
-3.434021556e-20
1.893846213e-18
-5.474645758e-20
1.908832222e-18
-7.121442113e-20
1.922007897e-18
-8.195793826e-20
1.929736065e-18
-8.506553895e-20
1.92746163e-18
-7.851143226e-20
1.909678959e-18
-6.024194187e-20
1.869960245e-18
-2.835039596e-20
1.801093595e-18
1.85895445e-20
1.695479371e-18
8.097621595e-20
1.545948291e-18
1.572955783e-19
1.347260281e-18
2.429063125e-19
1.098318697e-18
3.288078305e-19
8.045640303e-19
4.016939179e-19
4.782950262e-19
4.478536749e-19
1.333329444e-19
4.63865025e-19
-2.274731402e-19
4.70525306e-19
-6.179864517e-19
5.089401382e-19
-1.037180225e-18
5.678201085e-19
-1.42927925e-18
4.989746245e-19
-1.724365914e-18
2.524247368e-19
-1.899445964e-18
-5.117603953e-20
-1.955020975e-18
-3.716610359e-19
-1.859814191e-18
-7.571913983e-19
-1.545834451e-18
-1.289258389e-18
-1.003666704e-18
-1.789701793e-18
-3.879939234e-19
-1.905834728e-18
2.446206009e-21
-1.35043274e-18
1.751419826e-20
1.024154686e-32
1.661634029e-20
2.133136263e-21
1.507430996e-20
3.765235826e-21
1.322321509e-20
4.694178339e-21
1.133621592e-20
4.986890535e-21
9.58114633e-21
4.829161337e-21
8.035474065e-21
4.411656507e-21
6.717962691e-21
3.880658684e-21
5.615954897e-21
3.330567586e-21
4.703465929e-21
2.814017547e-21
3.95117263e-21
2.355278322e-21
3.331327712e-21
1.961578523e-21
2.819623253e-21
1.630904222e-21
2.395669385e-21
1.356950071e-21
2.042712562e-21
1.13189957e-21
1.747187538e-21
9.479514442e-22
1.498150292e-21
7.979888972e-22
1.286816759e-21
6.758695315e-22
1.106118288e-21
5.764322417e-22
9.503801945e-22
4.954426729e-22
8.15010907e-22
4.294565258e-22
6.96267013e-22
3.757097746e-22
5.910397179e-22
3.319873664e-22
4.96747002e-22
2.96531129e-22
4.112723766e-22
2.67947316e-22
3.328999365e-22
2.45143015e-22
2.601278043e-22
2.272638965e-22
1.916664608e-22
2.136913884e-22
1.260395869e-22
2.037930505e-22
6.283552382e-23
1.976947665e-22
1.943149423e-22
1.843559102e-18
-1.691681607e-20
1.857011023e-18
-4.985203783e-20
1.874669418e-18
-7.993955611e-20
1.894820541e-18
-1.050332981e-19
1.914700169e-18
-1.228542017e-19
1.930755371e-18
-1.309411893e-19
1.938473343e-18
-1.266628801e-19
1.932308118e-18
-1.072880225e-19
1.905612244e-18
-7.015527915e-20
1.850634666e-18
-1.298226501e-20
1.758668232e-18
6.55464062e-20
1.620630788e-18
1.646765166e-19
1.428591447e-18
2.796130728e-19
1.179059611e-18
3.985982781e-19
8.781726572e-19
5.002928495e-19
5.459374445e-19
5.562889827e-19
2.102368937e-19
5.490917508e-19
-1.227648166e-19
5.120269874e-19
-5.021669744e-19
5.644595893e-19
-9.692803573e-19
7.54211751e-19
-1.433500315e-18
7.19811174e-19
-1.771360982e-18
3.456621666e-19
-1.988724098e-18
-3.520895581e-20
-2.14209229e-18
-3.547447148e-19
-2.20384415e-18
-7.327583473e-19
-2.005856277e-18
-1.489465271e-18
-1.444817173e-18
-2.344773653e-18
-6.774490146e-19
-2.661644852e-18
-8.17579289e-20
-1.973809661e-18
1.964733452e-20
1.164468496e-32
1.824843992e-20
3.539721981e-21
1.600325242e-20
6.020123372e-21
1.351592728e-20
7.190961432e-21
1.117848679e-20
7.33265297e-21
9.163641424e-21
6.850905812e-21
7.504476242e-21
6.076394761e-21
6.167871639e-21
5.221672083e-21
5.099404804e-21
4.402554319e-21
4.244726704e-21
3.671540482e-21
3.557472858e-21
3.044915842e-21
3.00065338e-21
2.520430052e-21
2.545669102e-21
2.08766389e-21
2.1706189e-21
1.733545271e-21
1.858764418e-21
1.44510798e-21
1.597224991e-21
1.210660399e-21
1.376030935e-21
1.020197995e-21
1.187379458e-21
8.653928899e-22
1.02512872e-21
7.394483688e-22
8.843940532e-22
6.368689248e-22
7.612641489e-22
5.532527686e-22
6.525446048e-22
4.850840307e-22
5.555834847e-22
4.295704568e-22
4.681631845e-22
3.844970404e-22
3.884680756e-22
3.481171319e-22
3.150208212e-22
3.190609879e-22
2.465552927e-22
2.96269705e-22
1.81768123e-22
2.788920857e-22
1.199413058e-22
2.664923145e-22
5.945569664e-23
2.580731106e-22
2.543751911e-22
1.807718025e-18
-2.317745931e-20
1.823930148e-18
-6.848246625e-20
1.845929245e-18
-1.104535951e-19
1.872104577e-18
-1.465687379e-19
1.89979101e-18
-1.741336155e-19
1.925531834e-18
-1.9022533e-19
1.9448998e-18
-1.916934132e-19
1.952398752e-18
-1.752214195e-19
1.941351161e-18
-1.374467868e-19
1.9037343e-18
-7.516363347e-20
1.829952766e-18
1.427603889e-20
1.708727781e-18
1.31996407e-19
1.527899679e-18
2.752283736e-19
1.278159589e-18
4.322280236e-19
9.625383483e-19
5.737928653e-19
6.110682184e-19
6.464436115e-19
2.850191372e-19
5.905011461e-19
1.963082357e-20
4.242201194e-19
-2.968473111e-19
4.381758923e-19
-8.241676993e-19
9.223936116e-19
-1.389199717e-18
9.867190075e-19
-1.729597858e-18
3.752852125e-19
-1.936253159e-18
-6.835985906e-20
-2.186728753e-18
-2.658358805e-19
-2.512564753e-18
-4.138451783e-19
-2.550178429e-18
-1.411748417e-18
-2.019463128e-18
-2.819689151e-18
-1.074071222e-18
-3.47965148e-18
-1.965810233e-19
-2.759653739e-18
2.318705614e-20
1.406337057e-32
2.072884109e-20
6.005733644e-21
1.717409013e-20
9.584339208e-21
1.365761861e-20
1.071656486e-20
1.069673958e-20
1.030145929e-20
8.389130144e-21
9.165103481e-21
6.649753472e-21
7.821084414e-21
5.34875386e-21
6.526901402e-21
4.368390835e-21
5.386267769e-21
3.618102015e-21
4.424534173e-21
3.032987059e-21
3.632265658e-21
2.567887142e-21
2.987437304e-21
2.191550452e-21
2.46565291e-21
1.882181602e-21
2.044363512e-21
1.624316791e-21
1.70423701e-21
1.406762567e-21
1.429316944e-21
1.221225825e-21
1.206686175e-21
1.061434908e-21
1.026007445e-21
9.225492625e-22
8.790518896e-22
8.007778934e-22
7.592939198e-22
6.930953922e-22
6.615633809e-22
5.970310225e-22
5.817706226e-22
5.105100664e-22
5.166807546e-22
4.317832638e-22
4.637403469e-22
3.594119263e-22
4.209382067e-22
2.922295384e-22
3.866976806e-22
2.291776656e-22
3.597860022e-22
1.693683493e-22
3.393059549e-22
1.115221041e-22
3.243508999e-22
5.57577725e-23
3.150901672e-22
3.100136226e-22
1.759010942e-18
-3.059723656e-20
1.778206155e-18
-9.062657102e-20
1.804878158e-18
-1.469522764e-19
1.837514367e-18
-1.967586923e-19
1.873526493e-18
-2.370235036e-19
1.909527372e-18
-2.644503364e-19
1.941158791e-18
-2.754789329e-19
1.96303636e-18
-2.663571818e-19
1.96869413e-18
-2.332440451e-19
1.950400322e-18
-1.722787147e-19
1.898580742e-18
-7.958535104e-20
1.800579859e-18
4.856302694e-20
1.639239049e-18
2.143667039e-19
1.394190219e-18
4.127639511e-19
1.054180091e-18
6.152547392e-19
6.509276174e-19
7.386216917e-19
3.084084317e-19
6.29992e-19
1.652895095e-19
1.702067611e-19
3.695250956e-20
-2.068236722e-20
-5.691825126e-19
9.262474601e-19
-1.294232818e-18
1.084506254e-18
-1.521112072e-18
3.371611923e-19
-1.608722695e-18
-1.83683314e-19
-1.869145964e-18
-9.269823991e-20
-2.600756573e-18
4.453135939e-20
-3.049739958e-18
-1.010230199e-18
-2.64838352e-18
-3.118862005e-18
-1.563320587e-18
-4.238528326e-18
-3.383074018e-19
-3.723515662e-18
2.91927901e-20
1.822033045e-32
2.430744711e-20
1.090148069e-20
1.83063159e-20
1.559722431e-20
1.324251325e-20
1.579046117e-20
9.560384067e-21
1.399163626e-20
7.045111065e-21
1.168671984e-20
5.355570569e-21
9.515639206e-21
4.208120388e-21
7.678305309e-21
3.406657224e-21
6.190860296e-21
2.82583356e-21
5.007865487e-21
2.388158796e-21
4.072006961e-21
2.046102741e-21
3.331243439e-21
1.77026109e-21
2.743013475e-21
1.542055155e-21
2.273898667e-21
1.349396723e-21
1.898061855e-21
1.184131821e-21
1.595598139e-21
1.040547128e-21
1.351153056e-21
9.144793536e-22
1.152836919e-21
8.027913073e-22
9.914063519e-22
7.030473765e-22
8.596436955e-22
6.133026344e-22
7.518944986e-22
5.319411639e-22
6.637148734e-22
4.575696733e-22
5.916066054e-22
3.889811231e-22
5.328134559e-22
3.251714059e-22
4.851673597e-22
2.653178698e-22
4.469701767e-22
2.086976163e-22
4.169081351e-22
1.54413297e-22
3.939183821e-22
1.022613777e-22
3.774802835e-22
5.068122399e-23
3.662944093e-22
3.61361475e-22
1.69497758e-18
-3.924238542e-20
1.717173624e-18
-1.164790177e-19
1.748526749e-18
-1.89746512e-19
1.787596106e-18
-2.560166143e-19
1.831815565e-18
-3.120116824e-19
1.877766195e-18
-3.541242385e-19
1.921017949e-18
-3.784491321e-19
1.956168963e-18
-3.809296327e-19
1.977015228e-18
-3.575678116e-19
1.976704399e-18
-3.045450947e-19
1.947349126e-18
-2.179349999e-19
1.877990863e-18
-9.25683797e-20
1.749507452e-18
7.9858701e-20
1.527431561e-18
3.101413775e-19
1.165729542e-18
5.948683302e-19
6.561374384e-19
8.475163768e-19
2.011871397e-19
7.786361896e-19
1.805073076e-19
-2.435713589e-19
5.056163763e-19
-7.067223331e-19
-1.663851029e-19
6.531721022e-19
-1.154398739e-18
9.949695605e-19
-9.743408696e-19
-8.531821099e-20
-9.597511143e-19
-2.501309796e-19
-8.901143967e-19
-2.001877562e-19
-2.139347326e-18
6.716538406e-19
-3.132514758e-18
-1.94723253e-19
-3.062706073e-18
-2.934211485e-18
-2.102455722e-18
-4.42586796e-18
-5.094963515e-19
-4.737781082e-18
4.009427081e-20
2.662922744e-32
2.900319099e-20
2.200367485e-20
1.849955253e-20
2.611422998e-20
1.144368834e-20
2.285759856e-20
7.25546781e-21
1.818831148e-20
4.874030238e-21
1.407444688e-20
3.518236672e-21
1.087621227e-20
2.720675457e-21
8.479562804e-21
2.223662313e-21
6.69076314e-21
1.889975034e-21
5.343852591e-21
1.647395319e-21
4.316465813e-21
1.457872722e-21
3.522352636e-21
1.301146283e-21
2.901112561e-21
1.166218368e-21
2.410031451e-21
1.046932975e-21
2.018405487e-21
9.396867382e-22
1.703770699e-21
8.422310071e-22
1.44941309e-21
7.530487683e-22
1.242715361e-21
6.710286509e-22
1.074034745e-21
5.952981901e-22
9.35929178e-22
5.251229972e-22
8.226094361e-22
4.59832896e-22
7.295456831e-22
3.987765313e-22
6.531781579e-22
3.413350186e-22
5.907043656e-22
2.869742229e-22
5.399187975e-22
2.352558342e-22
4.990893371e-22
1.857078569e-22
4.66856525e-22
1.379751983e-22
4.422371514e-22
9.107550895e-23
4.241917188e-22
4.574828422e-23
4.130217265e-22
4.068723936e-22
1.613113814e-18
-4.911403903e-20
1.638117309e-18
-1.460293267e-19
1.673830879e-18
-2.387886238e-19
1.718858496e-18
-3.242274351e-19
1.770584803e-18
-3.988693683e-19
1.825396095e-18
-4.587935546e-19
1.87847457e-18
-4.996814359e-19
1.923894223e-18
-5.170886111e-19
1.955098423e-18
-5.0695519e-19
1.965843758e-18
-4.66228381e-19
1.951266425e-18
-3.93107217e-19
1.907388799e-18
-2.855682742e-19
1.824473533e-18
-1.354540729e-19
1.666161882e-18
8.446486317e-20
1.339596825e-18
4.315301379e-19
6.972718572e-19
9.192952301e-19
-1.04708719e-20
9.773116093e-19
-3.508426587e-19
-1.420589286e-19
5.279711169e-19
-1.459878725e-18
-4.386357222e-33
1.932932438e-19
-1.977976284e-32
1.314250908e-19
-6.701207225e-33
-5.719277036e-20
-1.755453429e-33
-3.641537506e-20
1.164297576e-32
-4.903973489e-20
-6.613958e-33
1.470497183e-19
-1.622709845e-18
2.11944268e-19
-2.313156273e-18
-1.766290025e-18
-2.700209056e-18
-2.30546665e-18
-7.802738421e-19
-5.020820554e-18
6.209794462e-20
2.723943223e-32
3.311374601e-20
5.0987698e-20
1.524292049e-20
4.399306934e-20
6.77440119e-21
3.133535727e-20
3.141603373e-21
2.182865815e-20
1.675795395e-21
1.554594916e-20
1.121587202e-21
1.143471465e-20
9.318758803e-22
8.67256265e-21
8.767516504e-22
6.748441801e-21
8.625882508e-22
5.3600364e-21
8.532821816e-22
4.327416532e-21
8.366325828e-22
3.540386366e-21
8.100651639e-22
2.928879348e-21
7.745924235e-22
2.446559299e-21
7.322981461e-22
2.061631434e-21
6.853291205e-22
1.751557948e-21
6.355332873e-22
1.499922179e-21
5.843681246e-22
1.294498212e-21
5.329230774e-22
1.126020324e-21
4.819784533e-22
9.873687447e-22
4.320592254e-22
8.730150551e-22
3.834653656e-22
7.786317177e-22
3.363027428e-22
7.008123893e-22
2.905494373e-22
6.36868011e-22
2.461447591e-22
5.846755133e-22
2.030230261e-22
5.425646329e-22
1.610884738e-22
5.092386362e-22
1.199297641e-22
4.836291153e-22
7.990552166e-23
4.652732598e-22
3.959894454e-23
4.526946937e-22
4.471820572e-22
1.511041143e-18
-6.015485919e-20
1.538441929e-18
-1.790730205e-19
1.577869355e-18
-2.936785002e-19
1.627978476e-18
-4.007698633e-19
1.686084687e-18
-4.967375441e-19
1.748244381e-18
-5.772887014e-19
1.808854464e-18
-6.374282196e-19
1.860560009e-18
-6.718106344e-19
1.894738544e-18
-6.756048063e-19
1.903150721e-18
-6.460259227e-19
1.881535828e-18
-5.844677646e-19
1.835068984e-18
-4.981485186e-19
1.780750979e-18
-3.96558532e-19
1.724238271e-18
-2.689242737e-19
1.590554449e-18
-1.100469409e-20
1.04605938e-18
6.291408146e-19
-9.287855443e-20
1.01494882e-18
2.355013113e-33
-5.618461263e-20
-1.383785852e-19
-1.156322596e-19
1.475526313e-21
5.344032835e-20
7.971029041e-20
5.319646254e-20
2.077739529e-20
1.749203768e-21
-1.26243598e-20
-3.001790771e-21
-7.223869839e-20
1.058672454e-20
1.550870523e-21
7.325902751e-20
1.197275608e-19
9.37633521e-20
7.003518339e-33
-1.973577072e-20
-1.873160571e-18
1.311300828e-19
-1.84658721e-18
-3.095465748e-18
1.130856433e-19
-3.030028165e-19
2.611911851e-20
1.379599005e-19
2.585207995e-21
6.753573405e-20
-2.732297758e-21
3.666150269e-20
-3.14110534e-21
2.224432669e-20
-2.435439326e-21
1.484537594e-20
-1.640564758e-21
1.064362288e-20
-9.922448538e-22
8.027100399e-21
-5.116538377e-22
6.270044651e-21
-1.700315971e-22
5.020132687e-21
6.625208187e-23
4.092520729e-21
2.251255238e-22
3.382677733e-21
3.277451304e-22
2.827270078e-21
3.896646013e-22
2.385533721e-21
4.222246405e-22
2.029865328e-21
4.336933633e-22
1.740790998e-21
4.301093493e-22
1.504119994e-21
4.158902258e-22
1.309250093e-21
3.942715073e-22
1.148105984e-21
3.67624784e-22
1.014446442e-21
3.376758814e-22
9.033932537e-22
3.056460435e-22
8.111014303e-22
2.723583791e-22
7.345228578e-22
2.383569345e-22
6.712349236e-22
2.040338826e-22
6.193131404e-22
1.696970401e-22
5.77231501e-22
1.354789478e-22
5.437772944e-22
1.015739106e-22
5.180845948e-22
6.732696351e-23
4.991356364e-22
3.408630185e-23
4.874459364e-22
4.809207087e-22
1.386699284e-18
-7.227121002e-20
1.41584916e-18
-2.15236314e-19
1.457981386e-18
-3.536594934e-19
1.511892492e-18
-4.84494481e-19
1.57496064e-18
-6.041643061e-19
1.643004192e-18
-7.079816332e-19
1.709501301e-18
-7.899170889e-19
1.76489027e-18
-8.428080718e-19
1.796160943e-18
-8.592313901e-19
1.787595834e-18
-8.334927842e-19
1.724869057e-18
-7.655961238e-19
1.607137529e-18
-6.683929241e-19
1.473602504e-18
-5.774060526e-19
1.426058968e-18
-5.492773558e-19
1.42567546e-18
-5.331506434e-19
1.150616849e-18
-1.782154351e-19
1.487998575e-19
1.484705137e-19
6.723970586e-20
2.536732701e-20
-3.264967436e-20
-1.574736407e-20
1.231660426e-21
1.955913543e-20
2.826303118e-20
2.616842014e-20
1.60264007e-20
1.399110332e-20
9.641556485e-22
1.206876467e-20
-9.566394863e-21
2.112233495e-20
2.205519545e-20
4.163704402e-20
6.957211561e-20
4.623072862e-20
2.417850151e-20
2.564532684e-20
8.814950328e-20
6.716379315e-20
-3.030028194e-19
1.87563881e-20
-4.595162154e-20
-5.600543161e-19
-4.430504745e-20
1.362921067e-19
-2.82890246e-20
5.15255783e-20
-1.714947376e-20
2.55285861e-20
-1.054005592e-20
1.564032493e-20
-6.637192636e-21
1.094656864e-20
-4.257087243e-21
8.266524964e-21
-2.749300521e-21
6.521569389e-21
-1.761565905e-21
5.284024595e-21
-1.097643556e-21
4.357539266e-21
-6.435908684e-22
3.639534197e-21
-3.302821857e-22
3.070263405e-21
-1.139912269e-22
2.611761303e-21
3.399623556e-23
2.238246686e-21
1.331502786e-22
1.931342403e-21
1.970223591e-22
1.677483177e-21
2.352394663e-22
1.466400919e-21
2.547460962e-22
1.290177762e-21
2.606119651e-22
1.14262328e-21
2.565716086e-22
1.018845323e-21
2.453840437e-22
9.149458718e-22
2.29067471e-22
8.277991436e-22
2.090704545e-22
7.548887282e-22
1.864351407e-22
6.941869386e-22
1.619522432e-22
6.440633878e-22
1.362428415e-22
6.03214013e-22
1.097862398e-22
5.706137149e-22
8.262495222e-23
5.453791518e-22
5.563727069e-23
5.27236476e-22
2.756106676e-23
5.146519669e-22
5.092197899e-22
1.238593951e-18
-8.540019648e-20
1.268549417e-18
-2.540432827e-19
1.311883157e-18
-4.1758741e-19
1.367742909e-18
-5.735842618e-19
1.433940051e-18
-7.189000797e-19
1.506578924e-18
-8.48650933e-19
1.578878781e-18
-9.556400835e-19
1.639647357e-18
-1.030179984e-18
1.671104916e-18
-1.060338454e-18
1.645890344e-18
-1.032907708e-18
1.524014865e-18
-9.358850119e-19
1.254014073e-18
-7.64883081e-19
7.963468963e-19
-5.407470216e-19
1.59038612e-19
-3.664111605e-19
-3.219334319e-20
-6.405045135e-19
-5.651395658e-20
7.261672173e-33
2.569667332e-20
6.625697602e-20
2.612501432e-20
2.493487711e-20
2.656825208e-21
7.717741346e-21
7.840945006e-21
1.437479036e-20
1.60857141e-20
1.792531851e-20
1.410406186e-20
1.597542356e-20
1.001772578e-20
1.615964017e-20
1.094831407e-20
2.019691011e-20
2.664887973e-20
2.593252171e-20
4.898671298e-20
2.388412526e-20
6.569696689e-20
8.935101514e-21
1.521343381e-19
-1.927977026e-20
3.181864348e-19
-1.473030118e-19
-3.738692394e-19
1.31989167e-19
-1.290715732e-19
-1.085107745e-19
-5.428601676e-20
-2.32570461e-20
-2.703773445e-20
-1.715853964e-21
-1.523381182e-20
3.839837331e-21
-9.317236338e-21
5.032704029e-21
-6.002042715e-21
4.953395715e-21
-3.986845176e-21
4.507931642e-21
-2.688051273e-21
3.986408405e-21
-1.815648593e-21
3.486037833e-21
-1.212861596e-21
3.037462751e-21
-7.887843212e-22
2.646788805e-21
-4.875058346e-22
2.311019227e-21
-2.729080141e-22
2.024142826e-21
-1.207089748e-22
1.779600555e-21
-1.405989634e-23
1.57125274e-21
5.901632751e-23
1.393699987e-21
1.071915929e-22
1.242333765e-21
1.368340067e-22
1.113277024e-21
1.526721693e-22
1.003291287e-21
1.582372995e-22
9.09679459e-22
1.561570537e-22
8.301988238e-22
1.483686731e-22
7.629878592e-22
1.363115776e-22
7.065086474e-22
1.211028669e-22
6.59498783e-22
1.036425504e-22
6.209264183e-22
8.455166683e-23
5.899423512e-22
6.448227557e-23
5.659582046e-22
4.305276869e-23
5.481026478e-22
2.212888175e-23
5.371615851e-22
5.309027904e-22
1.06616142e-18
-9.972103398e-20
1.095580233e-18
-2.950994345e-19
1.137847605e-18
-4.838863427e-19
1.192805833e-18
-6.652566175e-19
1.25926383e-18
-8.373219564e-19
1.334530093e-18
-9.955381535e-19
1.413168225e-18
-1.131956813e-18
1.485275282e-18
-1.23473827e-18
1.53356723e-18
-1.287749575e-18
1.527907853e-18
-1.270136828e-18
1.414569554e-18
-1.155555699e-18
1.096004897e-18
-9.103541274e-19
4.262624434e-19
-4.907989448e-19
-4.535517866e-19
1.288611408e-19
-1.380912851e-18
4.738357247e-19
-1.169443376e-19
-1.407604038e-19
-1.562542535e-20
-3.506366263e-20
8.907878921e-21
3.980233053e-22
9.313874301e-21
7.309314899e-21
1.139147326e-20
1.229674857e-20
1.413581939e-20
1.51815594e-20
1.42882787e-20
1.58234122e-20
1.405499585e-20
1.639375419e-20
1.668392584e-20
1.756926085e-20
2.460048372e-20
1.801469314e-20
3.40376899e-20
1.444090171e-20
3.748209606e-20
5.487667347e-21
2.411109829e-20
-5.91328052e-21
-1.149136023e-19
-8.288360752e-21
-1.436920892e-20
3.143984033e-20
-4.381784702e-20
-7.907231409e-20
-3.274482509e-20
-3.433022598e-20
-2.14820436e-20
-1.297737937e-20
-1.404094528e-20
-3.599799511e-21
-9.396544867e-21
3.895589942e-22
-6.447506874e-21
2.005341814e-21
-4.508368413e-21
2.569533214e-21
-3.188421945e-21
2.667005014e-21
-2.264223698e-21
2.562237454e-21
-1.603535522e-21
2.377083292e-21
-1.124553951e-21
2.168073791e-21
-7.743822404e-22
1.961104406e-21
-5.174502625e-22
1.76747052e-21
-3.290568186e-22
1.591469233e-21
-1.916126474e-22
1.43406426e-21
-9.234987544e-23
1.294677389e-21
-2.186516473e-23
1.172067821e-21
2.684827248e-23
1.064766022e-21
5.906035687e-23
9.712832107e-22
7.875665307e-23
8.9021081e-22
8.894609193e-23
8.202633578e-22
9.18894741e-23
7.602963134e-22
8.930170458e-23
7.093113522e-22
8.253050432e-23
6.664522055e-22
7.265849369e-23
6.309952585e-22
6.056751265e-23
6.023491735e-22
4.662671982e-23
5.799394784e-22
3.211171474e-23
5.637623466e-22
1.587007929e-23
5.523260815e-22
5.475167778e-22
8.703767146e-19
-1.163091839e-19
8.973213458e-19
-3.385474826e-19
9.350787857e-19
-5.505419298e-19
9.846956575e-19
-7.554046962e-19
1.046508693e-18
-9.536609458e-19
1.119800217e-18
-1.141803222e-18
1.201977083e-18
-1.311897893e-18
1.287691243e-18
-1.45122891e-18
1.367876742e-18
-1.541975892e-18
1.429072976e-18
-1.561320205e-18
1.454115198e-18
-1.482540412e-18
1.423157811e-18
-1.277406129e-18
1.207028434e-18
-9.182602426e-19
7.154933301e-19
-3.671897015e-19
1.909114274e-19
-2.570980504e-33
5.209608187e-20
-1.946383795e-21
1.983626096e-20
-2.807309288e-21
1.581917058e-20
4.410810918e-21
1.430130804e-20
8.823826703e-21
1.42762841e-20
1.231995409e-20
1.477767219e-20
1.467887792e-20
1.485862072e-20
1.574081788e-20
1.52305025e-20
1.602043557e-20
1.712935814e-20
1.566996301e-20
2.102669227e-20
1.41162728e-20
2.508445542e-20
1.038080733e-20
2.608114809e-20
4.488678614e-21
2.173601802e-20
-1.573044662e-21
1.74068248e-20
-3.964527442e-21
5.08545697e-20
-2.015772116e-21
9.242409089e-22
-2.914935571e-20
-1.13919778e-20
-2.201648001e-20
-1.210446374e-20
-1.226600576e-20
-1.005158674e-20
-5.653144928e-21
-7.78076204e-21
-1.88148187e-21
-5.883315474e-21
1.077679318e-22
-4.410896572e-21
1.097010942e-21
-3.293189546e-21
1.549189904e-21
-2.44937786e-21
1.718311807e-21
-1.812544991e-21
1.740145629e-21
-1.33152337e-21
1.686978993e-21
-9.68016126e-22
1.597570025e-21
-6.934515277e-22
1.49292844e-21
-4.864618159e-22
1.384542825e-21
-3.309995188e-22
1.278692498e-21
-2.14959427e-22
1.178739926e-21
-1.291669821e-22
1.08638064e-21
-6.663453871e-23
1.002341465e-21
-2.20120311e-23
9.267844264e-22
8.809186981e-24
8.595454005e-22
2.897904754e-23
8.002812909e-22
4.090452318e-23
7.485636137e-22
4.644254693e-23
7.039396261e-22
4.707355726e-23
6.659688711e-22
4.401241759e-23
6.342391746e-22
3.815780829e-23
6.083636035e-22
3.0449588e-23
5.881054332e-22
2.067545792e-23
5.728114126e-22
1.106076725e-23
5.635523201e-22
5.58043841e-22
6.548718403e-19
-1.393005708e-19
6.762071733e-19
-3.859600747e-19
7.042733247e-19
-6.150942476e-19
7.421089028e-19
-8.383437403e-19
7.917135708e-19
-1.059587131e-18
8.542801452e-19
-1.276640066e-18
9.29863707e-19
-1.482041363e-18
1.016906552e-18
-1.66295438e-18
1.111687594e-18
-1.800856313e-18
1.208498872e-18
-1.872073583e-18
1.302867297e-18
-1.851246569e-18
1.394919623e-18
-1.721639979e-18
1.281991278e-18
-1.498443107e-18
1.023136321e-18
-1.235112885e-18
1.256213636e-19
-1.602620537e-32
5.12351556e-20
7.243630854e-20
2.705438078e-20
2.136779545e-20
2.023218606e-20
1.122659829e-20
1.779743518e-20
1.125287888e-20
1.663520767e-20
1.347757616e-20
1.583961191e-20
1.547037225e-20
1.513823822e-20
1.643817527e-20
1.488002969e-20
1.62757472e-20
1.55756677e-20
1.497394234e-20
1.729122655e-20
1.24020591e-20
1.919232639e-20
8.480913581e-21
2.001942451e-20
3.662507617e-21
1.934453494e-20
-8.992453333e-22
1.935557985e-20
-3.97962565e-21
2.37209859e-20
-6.385159808e-21
8.057116166e-21
-1.349512252e-20
-1.641503202e-21
-1.232216569e-20
-5.491602878e-21
-8.418884428e-21
-6.27992361e-21
-4.866987904e-21
-5.791512124e-21
-2.371532514e-21
-4.894072398e-21
-7.909418618e-22
-3.958717528e-21
1.606571135e-22
-3.124067619e-21
7.137335526e-22
-2.427544001e-21
1.021125249e-21
-1.865711574e-21
1.177768013e-21
-1.420932342e-21
1.241765065e-21
-1.072657694e-21
1.248967185e-21
-8.018371104e-22
1.221877354e-21
-5.923121551e-22
1.174869511e-21
-4.309520834e-22
1.117245959e-21
-3.073186921e-22
1.055062823e-21
-2.132061695e-22
9.922520464e-22
-1.421915749e-22
9.313341495e-22
-8.925104281e-23
8.738814582e-22
-5.04549347e-23
8.208287876e-22
-2.273862899e-23
7.726845557e-22
-3.71945372e-24
7.296794202e-22
8.471781158e-24
6.918687553e-22
1.534386087e-23
6.592020577e-22
1.813685526e-23
6.315679381e-22
1.789962864e-23
6.088408595e-22
1.515556729e-23
5.907814209e-22
1.141637368e-23
5.776872006e-22
5.552279685e-24
5.681553964e-22
5.643230163e-22
4.283387811e-19
-1.811632686e-19
4.371436233e-19
-4.405233484e-19
4.478881027e-19
-6.741291376e-19
4.65800382e-19
-9.06738372e-19
4.937118524e-19
-1.144601558e-18
5.338570165e-19
-1.386157008e-18
5.879629445e-19
-1.624353141e-18
6.563175245e-19
-1.846330298e-18
7.35052096e-19
-2.031967372e-18
8.099108281e-19
-2.15183974e-18
8.436974685e-19
-2.165006454e-18
7.593690814e-19
-2.017530691e-18
5.484176149e-19
-1.644030067e-18
-7.625530354e-20
-9.791134804e-19
-7.027048021e-20
2.122273675e-33
1.666431611e-22
1.993984327e-21
1.691318398e-20
4.613189446e-21
2.025846696e-20
7.872153656e-21
2.002213275e-20
1.148094133e-20
1.862800399e-20
1.486456361e-20
1.680741517e-20
1.728434184e-20
1.49758104e-20
1.826436755e-20
1.357822502e-20
1.767108018e-20
1.300378469e-20
1.555006891e-20
1.33700813e-20
1.204033902e-20
1.437392069e-20
7.482977992e-21
1.545767185e-20
2.582903405e-21
1.62641549e-20
-1.703936371e-21
1.695004598e-20
-4.66568668e-21
1.661102361e-20
-6.051745428e-21
9.230072936e-21
-6.120572128e-21
2.261778217e-21
-5.359223906e-21
-1.939706463e-21
-4.221851297e-21
-3.78446835e-21
-3.025860394e-21
-4.210921523e-21
-1.948024785e-21
-3.942473503e-21
-1.06174112e-21
-3.405641138e-21
-3.780438407e-22
-2.816675981e-21
1.232778569e-22
-2.270901275e-21
4.741431493e-22
-1.801714531e-21
7.075971692e-22
-1.413730262e-21
8.529826396e-22
-1.099747541e-21
9.343510983e-22
-8.488449476e-22
9.704860614e-22
-6.49935734e-22
9.755935729e-22
-4.931352252e-22
9.601757402e-22
-3.701294582e-22
9.318599237e-22
-2.741240845e-22
8.961034226e-22
-1.996442679e-22
8.567550131e-22
-1.423037024e-22
8.1648729e-22
-9.859917967e-23
7.771227615e-22
-6.574376455e-23
7.398769672e-22
-4.153010834e-23
7.055387764e-22
-2.419492665e-23
6.746024934e-22
-1.229025827e-23
6.473602648e-22
-4.590213977e-24
6.239656449e-22
-1.598188512e-25
6.044563944e-22
2.061347346e-24
5.889400718e-22
1.884578146e-24
5.769873074e-22
1.719891174e-24
5.699195088e-22
5.654328688e-22
2.097674915e-19
-3.071680811e-19
1.851649732e-19
-5.096496108e-19
1.689602436e-19
-7.228447516e-19
1.589124363e-19
-9.519893343e-19
1.556765056e-19
-1.19717123e-18
1.612686872e-19
-1.455246469e-18
1.789434794e-19
-1.719419424e-18
2.124852664e-19
-1.977655293e-18
2.64085419e-19
-2.209885332e-18
3.288961207e-19
-2.383350242e-18
3.830206275e-19
-2.44443113e-18
3.658100437e-19
-2.304045541e-18
2.792002392e-19
-1.813321929e-18