/*--------------------------------*- C++ -*----------------------------------*\
  =========                 |
  \\      /  F ield         | OpenFOAM: The Open Source CFD Toolbox
   \\    /   O peration     | Website:  https://openfoam.org
    \\  /    A nd           | Version:  6
     \\/     M anipulation  |
\*---------------------------------------------------------------------------*/
FoamFile
{
    version     2.0;
    format      ascii;
    class       volVectorField;
    location    "0.0032";
    object      gradT;
}
// * * * * * * * * * * * * * * * * * * * * * * * * * * * * * * * * * * * * * //

dimensions      [0 -1 0 1 0 0 0];

internalField   nonuniform List<vector> 
600
(
(0 1.27995148e-05 3.664423328e-05)
(0 2.604975739e-05 1.298056828e-05)
(0 2.531029724e-05 4.524426463e-06)
(0 2.27793628e-05 1.22544491e-06)
(0 2.02817806e-05 -1.210198335e-07)
(0 1.799765009e-05 -6.651326182e-07)
(0 1.591172558e-05 -8.614325026e-07)
(0 1.400494876e-05 -8.995489985e-07)
(0 1.226493113e-05 -8.642912388e-07)
(0 1.068881458e-05 -7.994932187e-07)
(0 9.267069927e-06 -7.184957043e-07)
(0 7.994932187e-06 -6.346394322e-07)
(0 6.864778483e-06 -5.545948192e-07)
(0 5.864220908e-06 -4.774089494e-07)
(0 4.986588812e-06 -4.068934498e-07)
(0 4.220447516e-06 -3.440012538e-07)
(0 3.549597478e-06 -2.906381828e-07)
(0 2.976897277e-06 -2.410867513e-07)
(0 2.484241742e-06 -1.991586206e-07)
(0 2.063054642e-06 -1.648537889e-07)
(0 1.707618412e-06 -1.343606005e-07)
(0 1.409356937e-06 -1.067261508e-07)
(0 1.158741083e-06 -8.576208672e-08)
(0 9.586295328e-07 -6.765675629e-08)
(0 7.928228343e-07 -5.52688995e-08)
(0 6.603680678e-07 -4.097521921e-08)
(0 5.593593795e-07 -2.954027387e-08)
(0 4.878909749e-07 -2.001115327e-08)
(0 4.392924664e-07 -1.238785697e-08)
(0 4.183283945e-07 -3.811648242e-09)
(0 7.129688036e-06 1.406307619e-05)
(0 1.704854993e-05 7.082042539e-06)
(0 2.039898848e-05 2.728187229e-06)
(0 2.052096122e-05 6.15581191e-07)
(0 1.930981028e-05 -3.125551605e-07)
(0 1.761076779e-05 -6.832379473e-07)
(0 1.578879993e-05 -8.004461308e-07)
(0 1.399732547e-05 -8.03304879e-07)
(0 1.231067091e-05 -7.594709122e-07)
(0 1.075551843e-05 -6.918141559e-07)
(0 9.34234998e-06 -6.184399365e-07)
(0 8.071165152e-06 -5.450656986e-07)
(0 6.9371998e-06 -4.745502061e-07)
(0 5.930924753e-06 -4.097521921e-07)
(0 5.048528096e-06 -3.497187262e-07)
(0 4.272857679e-06 -2.982614749e-07)
(0 3.598195994e-06 -2.506158756e-07)
(0 3.017872495e-06 -2.086877412e-07)
(0 2.519499488e-06 -1.724770829e-07)
(0 2.09450074e-06 -1.410309871e-07)
(0 1.73429995e-06 -1.153023593e-07)
(0 1.431273915e-06 -9.529120604e-08)
(0 1.178752236e-06 -7.432714183e-08)
(0 9.710173896e-07 -5.908054775e-08)
(0 8.052106911e-07 -4.669269096e-08)
(0 6.727559247e-07 -3.525774676e-08)
(0 5.688885001e-07 -2.572862563e-08)
(0 4.964671835e-07 -1.810532915e-08)
(0 4.478686751e-07 -1.14349449e-08)
(0 4.240458669e-07 -3.811648242e-09)
(0 5.810857753e-06 -1.518941827e-06)
(0 1.471486828e-05 -1.433179763e-06)
(0 1.884288311e-05 -1.316924469e-06)
(0 1.973862045e-05 -1.19685755e-06)
(0 1.898296147e-05 -1.081555206e-06)
(0 1.751166496e-05 -9.748290393e-07)
(0 1.579165869e-05 -8.757261848e-07)
(0 1.4045924e-05 -7.832937266e-07)
(0 1.237642186e-05 -6.946728931e-07)
(0 1.082889267e-05 -6.146282799e-07)
(0 9.4138184e-06 -5.393482351e-07)
(0 8.139774832e-06 -4.697856465e-07)
(0 7.000092006e-06 -4.059405383e-07)
(0 5.989052399e-06 -3.50671644e-07)
(0 5.099032443e-06 -2.992143874e-07)
(0 4.318597464e-06 -2.534746085e-07)
(0 3.639171219e-06 -2.144052171e-07)
(0 3.054083158e-06 -1.781945556e-07)
(0 2.551898502e-06 -1.467484575e-07)
(0 2.120229369e-06 -1.200669216e-07)
(0 1.754311106e-06 -1.000557665e-07)
(0 1.450332158e-06 -8.00446132e-08)
(0 1.195904656e-06 -6.38451091e-08)
(0 9.843581599e-07 -5.050433928e-08)
(0 8.156927249e-07 -4.00223066e-08)
(0 6.813321344e-07 -3.144609851e-08)
(0 5.774647095e-07 -2.286988948e-08)
(0 5.021846566e-07 -1.619950505e-08)
(0 4.545390603e-07 -1.048203284e-08)
(0 4.326220761e-07 -2.858736186e-09)
(0 7.216403034e-06 -1.722388549e-05)
(0 1.725056729e-05 -1.001701173e-05)
(0 2.063531067e-05 -5.401105558e-06)
(0 2.075537759e-05 -3.035024912e-06)
(0 1.95318388e-05 -1.875330963e-06)
(0 1.781754971e-05 -1.288337106e-06)
(0 1.598033525e-05 -9.700644775e-07)
(0 1.417837876e-05 -7.78529165e-07)
(0 1.247838343e-05 -6.508389373e-07)
(0 1.091274892e-05 -5.52688995e-07)
(0 9.486239704e-06 -4.745502132e-07)
(0 8.203619928e-06 -4.087992739e-07)
(0 7.056313807e-06 -3.525774624e-07)
(0 6.03955673e-06 -3.011202156e-07)
(0 5.14286639e-06 -2.572862563e-07)
(0 4.357666852e-06 -2.182168618e-07)
(0 3.675381872e-06 -1.820062063e-07)
(0 3.08457634e-06 -1.524659297e-07)
(0 2.577627123e-06 -1.26737304e-07)
(0 2.141193432e-06 -1.048203282e-07)
(0 1.774322257e-06 -8.480917338e-08)
(0 1.466531661e-06 -6.860966835e-08)
(0 1.208292511e-06 -5.622181241e-08)
(0 9.967460152e-07 -4.383395478e-08)
(0 8.252218443e-07 -3.430483418e-08)
(0 6.8895543e-07 -2.572862602e-08)
(0 5.83182181e-07 -2.001115327e-08)
(0 5.088550403e-07 -1.429368091e-08)
(0 4.612094442e-07 -7.623296598e-09)
(0 4.383395478e-07 -2.858736181e-09)
(0 1.302630787e-05 -4.022908845e-05)
(0 2.653860128e-05 -1.608992038e-05)
(0 2.582486975e-05 -7.291683086e-06)
(0 2.326439504e-05 -3.71826286e-06)
(0 2.073060219e-05 -2.129758487e-06)
(0 1.841407266e-05 -1.367428807e-06)
(0 1.630051371e-05 -9.672057413e-07)
(0 1.436705535e-05 -7.3945977e-07)
(0 1.2602262e-05 -5.936642136e-07)
(0 1.100422847e-05 -4.926555352e-07)
(0 9.558661021e-06 -4.164225766e-07)
(0 8.262700476e-06 -3.544832865e-07)
(0 7.107771059e-06 -3.020731232e-07)
(0 6.083390685e-06 -2.572862602e-07)
(0 5.180982873e-06 -2.191697739e-07)
(0 4.393877511e-06 -1.848649397e-07)
(0 3.705875059e-06 -1.553246682e-07)
(0 3.109352053e-06 -1.286431282e-07)
(0 2.598591189e-06 -1.076790628e-07)
(0 2.162157498e-06 -8.957373502e-08)
(0 1.790521762e-06 -7.242131659e-08)
(0 1.47987243e-06 -6.003345981e-08)
(0 1.220680368e-06 -4.764560374e-08)
(0 1.005322224e-06 -3.811648242e-08)
(0 8.337980529e-07 -2.858736181e-08)
(0 6.965787266e-07 -2.286988979e-08)
(0 5.898525654e-07 -1.619950503e-08)
(0 5.136196006e-07 -9.529120604e-09)
(0 4.659740045e-07 -5.717472448e-09)
(0 4.42151196e-07 -1.905824121e-09)
(0 6.139802997e-05 -1.242406746e-05)
(0 5.018797323e-05 -6.941011563e-06)
(0 3.300792091e-05 -4.038441318e-06)
(0 2.591825517e-05 -2.4728068e-06)
(0 2.188172e-05 -1.608515585e-06)
(0 1.898105536e-05 -1.117765849e-06)
(0 1.660830433e-05 -8.242689335e-07)
(0 1.45509674e-05 -6.413098272e-07)
(0 1.272518767e-05 -5.164783375e-07)
(0 1.108999058e-05 -4.269046037e-07)
(0 9.625364881e-06 -3.573420286e-07)
(0 8.317016476e-06 -3.020731236e-07)
(0 7.153510848e-06 -2.572862567e-07)
(0 6.121507177e-06 -2.182168654e-07)
(0 5.216240627e-06 -1.8486494e-07)
(0 4.422464879e-06 -1.553246661e-07)
(0 3.73160369e-06 -1.295960424e-07)
(0 3.132221947e-06 -1.07679063e-07)
(0 2.616696522e-06 -8.957373381e-08)
(0 2.176451182e-06 -7.432714194e-08)
(0 1.803862533e-06 -6.098637196e-08)
(0 1.492260289e-06 -4.955142722e-08)
(0 1.23020949e-06 -3.906939512e-08)
(0 1.013898434e-06 -3.049318598e-08)
(0 8.414213506e-07 -2.286988948e-08)
(0 7.022962001e-07 -1.619950529e-08)
(0 5.946171266e-07 -1.23878568e-08)
(0 5.193370737e-07 -7.623296495e-09)
(0 4.688327415e-07 -3.811648305e-09)
(0 4.459628449e-07 -9.529120618e-10)
(0 3.708924322e-05 2.039327101e-05)
(0 3.492232171e-05 4.662598782e-06)
(0 3.029021566e-05 4.564448769e-07)
(0 2.569527371e-05 -5.927113016e-07)
(0 2.208659607e-05 -7.670942201e-07)
(0 1.919927219e-05 -7.08966573e-07)
(0 1.677696974e-05 -6.060520704e-07)
(0 1.467484595e-05 -5.079021358e-07)
(0 1.281666721e-05 -4.240458669e-07)
(0 1.116336479e-05 -3.582949347e-07)
(0 9.682539591e-06 -3.011202156e-07)
(0 8.362756242e-06 -2.582391684e-07)
(0 7.19162732e-06 -2.172639498e-07)
(0 6.156764915e-06 -1.839120304e-07)
(0 5.243875068e-06 -1.553246658e-07)
(0 4.44914641e-06 -1.315018643e-07)
(0 3.75256775e-06 -1.095848886e-07)
(0 3.14937436e-06 -9.14795578e-08)
(0 2.632896023e-06 -7.623296483e-08)
(0 2.19074486e-06 -6.098637278e-08)
(0 1.815297475e-06 -5.05043392e-08)
(0 1.500836495e-06 -4.09752186e-08)
(0 1.238785697e-06 -3.239901054e-08)
(0 1.022474641e-06 -2.572862563e-08)
(0 8.480917338e-07 -2.001115327e-08)
(0 7.070607594e-07 -1.52465932e-08)
(0 5.99381686e-07 -1.143494473e-08)
(0 5.221958091e-07 -6.670384423e-09)
(0 4.71691477e-07 -3.811648299e-09)
(0 4.488215805e-07 -1.905824121e-09)
(0 3.096297158e-05 8.996442762e-06)
(0 3.025400546e-05 4.622576474e-06)
(0 2.775451667e-05 1.720959181e-06)
(0 2.469376313e-05 3.525774624e-07)
(0 2.17654647e-05 -1.972527995e-07)
(0 1.914114456e-05 -3.79259e-07)
(0 1.680841583e-05 -4.087992739e-07)
(0 1.473297359e-05 -3.802119178e-07)
(0 1.287479485e-05 -3.382837814e-07)
(0 1.121386913e-05 -2.915910905e-07)
(0 9.726373547e-06 -2.506158756e-07)
(0 8.399919813e-06 -2.124993895e-07)
(0 7.226885066e-06 -1.829591156e-07)
(0 6.183446453e-06 -1.53418844e-07)
(0 5.268650782e-06 -1.295960402e-07)
(0 4.469157563e-06 -1.086319749e-07)
(0 3.771625992e-06 -9.05266471e-08)
(0 3.166526777e-06 -7.623296483e-08)
(0 2.646236792e-06 -6.098637187e-08)
(0 2.201226893e-06 -5.145725203e-08)
(0 1.823873684e-06 -4.288104272e-08)
(0 1.510365616e-06 -3.335192211e-08)
(0 1.245456082e-06 -2.763445017e-08)
(0 1.027239201e-06 -2.191697739e-08)
(0 8.51903382e-07 -1.715241709e-08)
(0 7.099194957e-07 -1.429368112e-08)
(0 6.031933342e-07 -1.048203266e-08)
(0 5.269603694e-07 -6.670384423e-09)
(0 4.745502132e-07 -3.811648299e-09)
(0 4.507274046e-07 -1.905824121e-09)
(0 2.817760966e-05 5.234345953e-06)
(0 2.764493223e-05 3.031213313e-06)
(0 2.602021675e-05 1.382675401e-06)
(0 2.377801467e-05 4.297633397e-07)
(0 2.135475962e-05 -3.621065888e-08)
(0 1.898867865e-05 -2.296518068e-07)
(0 1.677601684e-05 -2.896852667e-07)
(0 1.474536146e-05 -2.906381831e-07)
(0 1.290719387e-05 -2.658624651e-07)
(0 1.124912689e-05 -2.344163671e-07)
(0 9.760678392e-06 -2.039231842e-07)
(0 8.431365919e-06 -1.753358193e-07)
(0 7.251660787e-06 -1.477013695e-07)
(0 6.208222173e-06 -1.267373061e-07)
(0 5.291520677e-06 -1.057732388e-07)
(0 4.486309985e-06 -8.766790965e-08)
(0 3.784966765e-06 -7.337422983e-08)
(0 3.178914637e-06 -6.098637193e-08)
(0 2.657671739e-06 -5.145725132e-08)
(0 2.209803104e-06 -4.288104341e-08)
(0 1.833402806e-06 -3.335192215e-08)
(0 1.51608309e-06 -2.763444978e-08)
(0 1.250220643e-06 -2.096406567e-08)
(0 1.032956675e-06 -1.715241711e-08)
(0 8.547621191e-07 -1.334076886e-08)
(0 7.127782326e-07 -1.048203283e-08)
(0 6.070049831e-07 -8.576208553e-09)
(0 5.298191061e-07 -5.717472369e-09)
(0 4.764560379e-07 -2.858736227e-09)
(0 4.535861412e-07 0)
(0 2.66729615e-05 1.537047154e-06)
(0 2.640328778e-05 8.36656802e-07)
(0 2.515401967e-05 3.096964198e-07)
(0 2.327487709e-05 -1.048203267e-08)
(0 2.110509664e-05 -1.734299977e-07)
(0 1.888576413e-05 -2.35369279e-07)
(0 1.674933529e-05 -2.496629599e-07)
(0 1.475584348e-05 -2.363221946e-07)
(0 1.293101667e-05 -2.134523016e-07)
(0 1.127580842e-05 -1.896295001e-07)
(0 9.786407012e-06 -1.64853789e-07)
(0 8.455188716e-06 -1.41030985e-07)
(0 7.274530673e-06 -1.219727438e-07)
(0 6.226327499e-06 -1.038674162e-07)
(0 5.307720179e-06 -8.671499754e-08)
(0 4.501556575e-06 -7.242131662e-08)
(0 3.797354619e-06 -6.098637281e-08)
(0 3.188443756e-06 -5.050433922e-08)
(0 2.666247946e-06 -4.192813068e-08)
(0 2.217426399e-06 -3.430483471e-08)
(0 1.840073189e-06 -2.763444976e-08)
(0 1.522753473e-06 -2.19169774e-08)
(0 1.254985203e-06 -1.810532943e-08)
(0 1.03581541e-06 -1.524659297e-08)
(0 8.576208548e-07 -1.238785679e-08)
(0 7.165898805e-07 -8.576208676e-09)
(0 6.079578948e-07 -5.717472365e-09)
(0 5.3172493e-07 -6.670384426e-09)
(0 4.802676859e-07 -3.811648301e-09)
(0 4.54539053e-07 -1.905824122e-09)
(0 2.668630226e-05 -2.270789441e-06)
(0 2.641758146e-05 -1.550387946e-06)
(0 2.517117209e-05 -9.929343674e-07)
(0 2.329488824e-05 -6.327336084e-07)
(0 2.112987235e-05 -4.230929614e-07)
(0 1.891244567e-05 -3.096964198e-07)
(0 1.677601683e-05 -2.439454876e-07)
(0 1.478157211e-05 -2.02970272e-07)
(0 1.295388656e-05 -1.734299951e-07)
(0 1.129867831e-05 -1.505601056e-07)
(0 9.808323989e-06 -1.305489543e-07)
(0 8.475199869e-06 -1.114907111e-07)
(0 7.290730178e-06 -9.529120608e-08)
(0 6.242527004e-06 -7.909170224e-08)
(0 5.320108036e-06 -6.765675632e-08)
(0 4.513944432e-06 -5.717472365e-08)
(0 3.807836652e-06 -4.669269168e-08)
(0 3.197019964e-06 -3.811648243e-08)
(0 2.672918331e-06 -3.144609801e-08)
(0 2.225049695e-06 -2.477571395e-08)
(0 1.84483775e-06 -2.001115328e-08)
(0 1.526565121e-06 -1.619950503e-08)
(0 1.256891027e-06 -1.334076905e-08)
(0 1.038674146e-06 -1.048203267e-08)
(0 8.61432503e-07 -7.623296487e-09)
(0 7.175427926e-07 -6.670384526e-09)
(0 6.098637189e-07 -4.764560304e-09)
(0 5.32677842e-07 -2.858736183e-09)
(0 4.8217351e-07 -1.90582415e-09)
(0 4.573977892e-07 0)
(0 2.820524411e-05 -5.98619357e-06)
(0 2.768114289e-05 -3.774484732e-06)
(0 2.6071674e-05 -2.095453623e-06)
(0 2.384471851e-05 -1.099660519e-06)
(0 2.142908676e-05 -5.822292783e-07)
(0 1.906681744e-05 -3.335192215e-07)
(0 1.685510854e-05 -2.1726395e-07)
(0 1.482635899e-05 -1.610421408e-07)
(0 1.298247392e-05 -1.305489524e-07)
(0 1.131773655e-05 -1.105377991e-07)
(0 9.825476413e-06 -9.529120757e-08)
(0 8.492352291e-06 -8.195043728e-08)
(0 7.304070951e-06 -6.765675636e-08)
(0 6.254914865e-06 -5.908054869e-08)
(0 5.330590072e-06 -4.859851513e-08)
(0 4.522520644e-06 -4.002230658e-08)
(0 3.815459951e-06 -3.239901057e-08)
(0 3.204643263e-06 -2.572862566e-08)
(0 2.678635805e-06 -2.001115329e-08)
(0 2.228861345e-06 -1.715241736e-08)
(0 1.849602311e-06 -1.334076886e-08)
(0 1.528470947e-06 -9.529120614e-09)
(0 1.260702676e-06 -8.576208681e-09)
(0 1.040579971e-06 -4.764560307e-09)
(0 8.623854156e-07 -4.764560307e-09)
(0 7.204015292e-07 -2.858736227e-09)
(0 6.108166314e-07 -1.905824123e-09)
(0 5.336307544e-07 -9.529120614e-10)
(0 4.840793345e-07 -9.529120757e-10)
(0 4.564448774e-07 9.529120614e-10)
(0 3.094296043e-05 -9.837864112e-06)
(0 3.030832145e-05 -5.435410474e-06)
(0 2.784599623e-05 -2.490912126e-06)
(0 2.480811258e-05 -1.071073156e-06)
(0 2.189506074e-05 -4.650210925e-07)
(0 1.927836389e-05 -2.21075598e-07)
(0 1.694658808e-05 -1.295960402e-07)
(0 1.486924001e-05 -9.43382954e-08)
(0 1.300439089e-05 -8.099752514e-08)
(0 1.133203022e-05 -7.051549247e-08)
(0 9.838817171e-06 -6.289219693e-08)
(0 8.501881403e-06 -5.431598744e-08)
(0 7.314552976e-06 -4.57397789e-08)
(0 6.262538155e-06 -3.811648299e-08)
(0 5.339166275e-06 -3.049318593e-08)
(0 4.528238111e-06 -2.572862563e-08)
(0 3.823083244e-06 -2.001115357e-08)
(0 3.209407819e-06 -1.524659297e-08)
(0 2.681494538e-06 -1.238785679e-08)
(0 2.231720079e-06 -8.576208672e-09)
(0 1.853413958e-06 -6.670384423e-09)
(0 1.530376769e-06 -5.717472363e-09)
(0 1.261655587e-06 -3.811648299e-09)
(0 1.041532882e-06 -2.858736181e-09)
(0 8.642912388e-07 -3.811648242e-09)
(0 7.204015285e-07 -2.858736224e-09)
(0 6.117695428e-07 -2.858736181e-09)
(0 5.345836659e-07 0)
(0 4.831264219e-07 -9.529120747e-10)
(0 4.583507011e-07 -1.905824121e-09)
(0 3.699585783e-05 -2.137191169e-05)
(0 3.502904787e-05 -5.575488549e-06)
(0 3.043696412e-05 -1.313112819e-06)
(0 2.586965662e-05 -2.001115327e-07)
(0 2.227908431e-05 4.192813129e-08)
(0 1.940128955e-05 5.622181156e-08)
(0 1.698279874e-05 2.763444975e-08)
(0 1.487400457e-05 -2.858736224e-09)
(0 1.300629671e-05 -2.001115327e-08)
(0 1.133774769e-05 -2.668153769e-08)
(0 9.841675908e-06 -2.668153809e-08)
(0 8.508551787e-06 -2.477571357e-08)
(0 7.320270448e-06 -2.096406533e-08)
(0 6.26920854e-06 -1.619950527e-08)
(0 5.344883747e-06 -1.143494473e-08)
(0 4.532049759e-06 -7.623296483e-09)
(0 3.82594198e-06 -4.764560374e-09)
(0 3.211313644e-06 -2.858736181e-09)
(0 2.686259098e-06 -1.905824121e-09)
(0 2.234578815e-06 9.529120747e-10)
(0 1.852461045e-06 1.905824121e-09)
(0 1.531329681e-06 1.905824121e-09)
(0 1.262608499e-06 1.905824149e-09)
(0 1.042485794e-06 9.529120604e-10)
(0 8.623854147e-07 9.529120604e-10)
(0 7.204015285e-07 -9.529120747e-10)
(0 6.136753669e-07 -9.529120604e-10)
(0 5.35536578e-07 -1.905824121e-09)
(0 4.821735098e-07 -9.529120747e-10)
(0 4.593036131e-07 9.529120604e-10)
(0 6.145234596e-05 1.136252343e-05)
(0 5.036426196e-05 5.912819432e-06)
(0 3.322137321e-05 3.071235575e-06)
(0 2.616410648e-05 1.580881111e-06)
(0 2.215139412e-05 8.033048802e-07)
(0 1.926216442e-05 3.983172419e-07)
(0 1.688941338e-05 1.915353244e-07)
(0 1.482159443e-05 8.671499893e-08)
(0 1.298056811e-05 3.716357041e-08)
(0 1.132726568e-05 1.524659299e-08)
(0 9.837864274e-06 6.670384533e-09)
(0 8.509504712e-06 5.717472371e-09)
(0 7.323129195e-06 4.764560309e-09)
(0 6.271114373e-06 6.670384533e-09)
(0 5.346789579e-06 8.576208557e-09)
(0 4.535861414e-06 1.048203268e-08)
(0 3.826894898e-06 9.529120761e-09)
(0 3.213219473e-06 1.048203268e-08)
(0 2.68530619e-06 1.048203268e-08)
(0 2.235531731e-06 9.529120761e-09)
(0 1.852461048e-06 8.576208557e-09)
(0 1.531329683e-06 8.576208557e-09)
(0 1.261655589e-06 5.717472457e-09)
(0 1.041532884e-06 4.764560309e-09)
(0 8.614325039e-07 4.764560309e-09)
(0 7.194486175e-07 2.858736228e-09)
(0 6.117695437e-07 1.905824124e-09)
(0 5.355365788e-07 9.529120618e-10)
(0 4.831264226e-07 9.529120761e-10)
(0 4.593036138e-07 0)
(0 1.310254083e-05 3.90236547e-05)
(0 2.673966573e-05 1.490259194e-05)
(0 2.610597881e-05 6.176775976e-06)
(0 2.3600773e-05 2.702458603e-06)
(0 2.109556751e-05 1.223539104e-06)
(0 1.879047292e-05 5.669826759e-07)
(0 1.667024358e-05 2.68721201e-07)
(0 1.471963282e-05 1.324547784e-07)
(0 1.293482831e-05 7.242131659e-08)
(0 1.130725451e-05 4.669269096e-08)
(0 9.830240963e-06 3.621065884e-08)
(0 8.507598875e-06 3.335192211e-08)
(0 7.323129184e-06 3.239901005e-08)
(0 6.273020188e-06 3.430483469e-08)
(0 5.346789571e-06 3.335192211e-08)
(0 4.534908496e-06 3.144609799e-08)
(0 3.824989068e-06 2.954027432e-08)
(0 3.212266556e-06 2.572862563e-08)
(0 2.685306186e-06 2.382280151e-08)
(0 2.232672991e-06 2.096406564e-08)
(0 1.851508133e-06 1.810532915e-08)
(0 1.529423857e-06 1.524659297e-08)
(0 1.259749763e-06 1.334076905e-08)
(0 1.038674146e-06 1.048203266e-08)
(0 8.604795906e-07 9.529120604e-09)
(0 7.184957043e-07 7.623296598e-09)
(0 6.108166307e-07 5.717472363e-09)
(0 5.336307538e-07 3.811648242e-09)
(0 4.831264219e-07 1.905824149e-09)
(0 4.57397789e-07 0)
(0 7.31169424e-06 1.573067229e-05)
(0 1.751833558e-05 8.59336109e-06)
(0 2.101933423e-05 4.095616036e-06)
(0 2.121086955e-05 1.86866055e-06)
(0 2.001782395e-05 8.499975706e-07)
(0 1.83073465e-05 3.954585051e-07)
(0 1.645583837e-05 1.991586206e-07)
(0 1.462529452e-05 1.162552731e-07)
(0 1.2894806e-05 8.480917338e-08)
(0 1.1291055e-05 7.242131659e-08)
(0 9.82452349e-06 6.76567573e-08)
(0 8.505693051e-06 6.575093217e-08)
(0 7.322176272e-06 6.479802011e-08)
(0 6.272067276e-06 6.289219693e-08)
(0 5.345836659e-06 6.003345981e-08)
(0 4.531096847e-06 5.622181156e-08)
(0 3.822130332e-06 5.145725203e-08)
(0 3.207501995e-06 4.57397789e-08)
(0 2.680541626e-06 4.002230654e-08)
(0 2.228861343e-06 3.430483469e-08)
(0 1.847696485e-06 2.954027387e-08)
(0 1.525612209e-06 2.477571357e-08)
(0 1.256891027e-06 2.191697772e-08)
(0 1.037721234e-06 1.810532915e-08)
(0 8.585737664e-07 1.334076885e-08)
(0 7.156369681e-07 1.14349449e-08)
(0 6.079578945e-07 9.529120604e-09)
(0 5.317249297e-07 5.717472363e-09)
(0 4.793147736e-07 3.811648299e-09)
(0 4.57397789e-07 9.529120604e-10)
(0 5.955700387e-06 -3.497187267e-07)
(0 1.510365641e-05 -2.934969195e-07)
(0 1.938223134e-05 -2.15358126e-07)
(0 2.035515455e-05 -1.39125161e-07)
(0 1.962236547e-05 -7.146840571e-08)
(0 1.81386811e-05 -1.524659299e-08)
(0 1.639008746e-05 2.572862567e-08)
(0 1.460528339e-05 6.098637287e-08)
(0 1.289099437e-05 8.195043732e-08)
(0 1.12891492e-05 9.624411825e-08)
(0 9.825476417e-06 1.038674163e-07)
(0 8.504740152e-06 1.057732389e-07)
(0 7.320270459e-06 1.048203268e-07)
(0 6.268255637e-06 9.910285592e-08)
(0 5.340119195e-06 9.243247e-08)
(0 4.525379382e-06 8.385626144e-08)
(0 3.815459953e-06 7.432714194e-08)
(0 3.200831616e-06 6.575093227e-08)
(0 2.672918333e-06 5.812763577e-08)
(0 2.223143874e-06 4.955142796e-08)
(0 1.841979016e-06 4.288104278e-08)
(0 1.520847651e-06 3.525774629e-08)
(0 1.252126468e-06 2.858736228e-08)
(0 1.032956675e-06 2.286988948e-08)
(0 8.547621195e-07 1.905824124e-08)
(0 7.118253209e-07 1.334076907e-08)
(0 6.060520713e-07 1.048203268e-08)
(0 5.288661943e-07 7.623296495e-09)
(0 4.774089501e-07 3.811648305e-09)
(0 4.535861414e-07 9.529120618e-10)
(0 7.371727699e-06 -1.647299079e-05)
(0 1.765174327e-05 -9.185119488e-06)
(0 2.117370598e-05 -4.51394443e-06)
(0 2.135571219e-05 -2.125946807e-06)
(0 2.014170252e-05 -9.6911158e-07)
(0 1.840644936e-05 -4.030818016e-07)
(0 1.653207134e-05 -1.210198317e-07)
(0 1.468151634e-05 2.572862602e-08)
(0 1.293101666e-05 1.019615905e-07)
(0 1.131106616e-05 1.381722488e-07)
(0 9.835958435e-06 1.553246682e-07)
(0 8.503787227e-06 1.591363141e-07)
(0 7.315505888e-06 1.543717538e-07)
(0 6.259679419e-06 1.438897233e-07)
(0 5.329637154e-06 1.305489523e-07)
(0 4.514897342e-06 1.181610955e-07)
(0 3.804977914e-06 1.048203282e-07)
(0 3.19130249e-06 9.243246986e-08)
(0 2.663389209e-06 8.004461308e-08)
(0 2.21361475e-06 6.76567573e-08)
(0 1.833402804e-06 5.717472363e-08)
(0 1.51227144e-06 4.57397789e-08)
(0 1.245456082e-06 3.716357091e-08)
(0 1.026286289e-06 2.954027387e-08)
(0 8.490446458e-07 2.477571357e-08)
(0 7.080136715e-07 1.905824149e-08)
(0 6.031933342e-07 1.524659297e-08)
(0 5.241016332e-07 1.143494473e-08)
(0 4.726443891e-07 5.717472448e-09)
(0 4.516803166e-07 2.858736181e-09)
(0 1.325310094e-05 -3.991939204e-05)
(0 2.706175001e-05 -1.548958577e-05)
(0 2.644045094e-05 -6.538882559e-06)
(0 2.390189321e-05 -2.885417719e-06)
(0 2.134523047e-05 -1.265467235e-06)
(0 1.89867728e-05 -4.993259197e-07)
(0 1.681889787e-05 -1.181610955e-07)
(0 1.482635897e-05 7.242131768e-08)
(0 1.300248506e-05 1.686654347e-07)
(0 1.134441808e-05 2.134523015e-07)
(0 9.846440468e-06 2.286988979e-07)
(0 8.502834315e-06 2.286988945e-07)
(0 7.306929679e-06 2.172639498e-07)
(0 6.245385738e-06 2.001115357e-07)
(0 5.313437649e-06 1.820062035e-07)
(0 4.498697837e-06 1.600892262e-07)
(0 3.788778409e-06 1.410309871e-07)
(0 3.175102985e-06 1.200669196e-07)
(0 2.65004844e-06 1.029145025e-07)
(0 2.200273981e-06 8.67149988e-08)
(0 1.820062035e-06 7.242131659e-08)
(0 1.501789407e-06 5.908054775e-08)
(0 1.235926961e-06 4.764560374e-08)
(0 1.019615905e-06 4.002230654e-08)
(0 8.423742614e-07 3.049318593e-08)
(0 7.042020232e-07 2.477571394e-08)
(0 5.974758619e-07 1.810532915e-08)
(0 5.193370729e-07 1.334076885e-08)
(0 4.688327408e-07 8.576208672e-09)
(0 4.459628443e-07 2.858736181e-09)
)
;

boundaryField
{
    lowerWall
    {
        type            calculated;
        value           nonuniform List<vector> 
20
(
(0 4.126832189e-07 -3.811648242e-09)
(0 4.177991265e-07 -3.811648242e-09)
(0 4.263256393e-07 -2.858736186e-09)
(0 4.31441547e-07 -2.858736181e-09)
(0 4.365574547e-07 -1.905824121e-09)
(0 4.399680598e-07 -9.529120618e-10)
(0 4.416733623e-07 -1.905824121e-09)
(0 4.4678927e-07 -1.905824121e-09)
(0 4.484945726e-07 0)
(0 4.501998751e-07 -1.905824122e-09)
(0 4.536104802e-07 0)
(0 4.501998751e-07 9.529120614e-10)
(0 4.519051777e-07 -1.905824121e-09)
(0 4.536104802e-07 9.529120604e-10)
(0 4.519051777e-07 0)
(0 4.501998751e-07 0)
(0 4.536104802e-07 9.529120604e-10)
(0 4.484945726e-07 9.529120618e-10)
(0 4.450839675e-07 2.858736181e-09)
(0 4.382627572e-07 2.858736181e-09)
)
;
    }
    atmosphere
    {
        type            calculated;
        value           nonuniform 0();
    }
    rightWall
    {
        type            empty;
    }
    leftWall
    {
        type            empty;
    }
    frontAndBack
    {
        type            calculated;
        value           nonuniform 0();
    }
    procBoundary3to1
    {
        type            processor;
        value           nonuniform List<vector> 
30
(
(0 5.963609557e-05 8.662923554e-06)
(0 4.91683573e-05 3.728744954e-06)
(0 3.215506462e-05 1.178752221e-06)
(0 2.516545464e-05 -1.162552715e-07)
(0 2.120134078e-05 -7.432714194e-07)
(0 1.83521334e-05 -1.01675717e-06)
(0 1.602321632e-05 -1.10442508e-06)
(0 1.399923131e-05 -1.091084327e-06)
(0 1.221061516e-05 -1.027239203e-06)
(0 1.06097229e-05 -9.386183809e-07)
(0 9.177496205e-06 -8.395155391e-07)
(0 7.906311377e-06 -7.404126721e-07)
(0 6.780922232e-06 -6.441685538e-07)
(0 5.785129214e-06 -5.545948283e-07)
(0 4.914167503e-06 -4.755031189e-07)
(0 4.156602414e-06 -4.00223066e-07)
(0 3.496234407e-06 -3.363779629e-07)
(0 2.927345854e-06 -2.801561462e-07)
(0 2.442313615e-06 -2.30604719e-07)
(0 2.026843986e-06 -1.886765911e-07)
(0 1.678078141e-06 -1.53418842e-07)
(0 1.383628314e-06 -1.23878568e-07)
(0 1.138729931e-06 -1.00055768e-07)
(0 9.40524205e-07 -8.00446132e-08)
(0 7.775762425e-07 -6.00334599e-08)
(0 6.460743876e-07 -4.573977965e-08)
(0 5.498302597e-07 -3.23990101e-08)
(0 4.78361855e-07 -2.286988948e-08)
(0 4.316691705e-07 -1.238785699e-08)
(0 4.087992745e-07 -4.764560309e-09)
)
;
    }
    procBoundary3to2
    {
        type            processor;
        value           nonuniform List<vector> 
20
(
(0 8.28690448e-05 6.548888165e-05)
(0 6.017544397e-05 1.406974664e-05)
(0 5.603694696e-05 -1.518941833e-06)
(0 6.24519509e-05 -1.723150887e-05)
(0 8.677217261e-05 -7.027250021e-05)
(0 6.011731643e-05 -3.100299407e-05)
(0 4.591987949e-05 3.509575134e-05)
(0 3.30231676e-05 1.353325714e-05)
(0 2.773259985e-05 7.322176313e-06)
(0 2.57162379e-05 2.327964175e-06)
(0 2.574482526e-05 -3.083623443e-06)
(0 2.780883281e-05 -8.030189978e-06)
(0 3.313084667e-05 -1.422602421e-05)
(0 4.600945322e-05 -3.608392115e-05)
(0 6.006490626e-05 2.980613652e-05)
(0 8.656729652e-05 6.904133782e-05)
(0 6.282739825e-05 1.574020148e-05)
(0 5.808761373e-05 -3.506716403e-07)
(0 6.438159783e-05 -1.648251998e-05)
(0 8.93698109e-05 -7.100147794e-05)
)
;
    }
    procBoundary3to5
    {
        type            processor;
        value           nonuniform List<vector> 
30
(
(0 6.288171405e-05 -1.215153461e-05)
(0 5.103320624e-05 -6.378793438e-06)
(0 3.377787386e-05 -3.297075734e-06)
(0 2.662722174e-05 -1.624715065e-06)
(0 2.25287473e-05 -7.089665847e-07)
(0 1.95528026e-05 -2.010644451e-07)
(0 1.710286569e-05 8.00446132e-08)
(0 1.497024872e-05 2.296518104e-07)
(0 1.307300058e-05 3.020731236e-07)
(0 1.137109963e-05 3.325663096e-07)
(0 9.848346307e-06 3.344721387e-07)
(0 8.492352295e-06 3.192255407e-07)
(0 7.287871449e-06 2.963556512e-07)
(0 6.224421681e-06 2.706270296e-07)
(0 5.290567767e-06 2.401338396e-07)
(0 4.47392213e-06 2.115464777e-07)
(0 3.764955613e-06 1.820062065e-07)
(0 3.153186013e-06 1.553246661e-07)
(0 2.630990203e-06 1.324547766e-07)
(0 2.183121566e-06 1.105378008e-07)
(0 1.804815445e-06 9.052664588e-08)
(0 1.486542816e-06 7.623296495e-08)
(0 1.22544493e-06 6.193928495e-08)
(0 1.010086786e-06 4.859851515e-08)
(0 8.347509662e-07 3.811648247e-08)
(0 6.956258156e-07 3.144609851e-08)
(0 5.917583904e-07 2.191697742e-08)
(0 5.145725134e-07 1.619950505e-08)
(0 4.63115269e-07 9.529120761e-09)
(0 4.392924605e-07 2.858736186e-09)
)
;
    }
}


// ************************************************************************* //
