/*--------------------------------*- C++ -*----------------------------------*\
  =========                 |
  \\      /  F ield         | OpenFOAM: The Open Source CFD Toolbox
   \\    /   O peration     | Website:  https://openfoam.org
    \\  /    A nd           | Version:  6
     \\/     M anipulation  |
\*---------------------------------------------------------------------------*/
FoamFile
{
    version     2.0;
    format      ascii;
    class       surfaceScalarField;
    location    "0.0048";
    object      phi;
}
// * * * * * * * * * * * * * * * * * * * * * * * * * * * * * * * * * * * * * //

dimensions      [0 3 -1 0 0 0 0];

internalField   nonuniform List<scalar> 
1150
(
1.75285012e-18
-3.179732997e-21
1.76108799e-18
-9.3073054e-21
1.770675246e-18
-1.468543364e-20
1.779876365e-18
-1.875077689e-20
1.785937813e-18
-2.090785017e-20
1.785394584e-18
-2.052597057e-20
1.77397158e-18
-1.693824442e-20
1.746626469e-18
-9.489058643e-21
1.697682196e-18
2.396803392e-21
1.621095972e-18
1.906504934e-20
1.510959255e-18
4.043907265e-20
1.362258048e-18
6.574815513e-20
1.171852824e-18
9.329633431e-20
9.394128397e-19
1.204034151e-19
6.678736411e-19
1.43889496e-19
3.629509796e-19
1.613393171e-19
3.179002879e-20
1.728853986e-19
-3.178084934e-19
1.815860887e-19
-6.747801867e-19
1.891228287e-19
-1.01799245e-18
1.859231693e-19
-1.312876189e-18
1.493106e-19
-1.520197873e-18
7.030944194e-20
-1.6081062e-18
-3.834580366e-20
-1.554563345e-18
-1.678169948e-19
-1.346702956e-18
-3.175258414e-19
-9.915661709e-19
-4.780474408e-19
-5.411766498e-19
-5.978991413e-19
-1.309908776e-19
-5.958328306e-19
6.506067065e-20
-4.038346834e-19
7.988541083e-33
1.744393633e-18
-6.652759917e-21
1.753705409e-18
-1.949665724e-20
1.765048154e-18
-3.087756382e-20
1.776702299e-18
-3.969081577e-20
1.785960131e-18
-4.477299706e-20
1.789389054e-18
-4.486958274e-20
1.782694627e-18
-3.865899788e-20
1.760745661e-18
-2.480534172e-20
1.717628627e-18
-2.113957726e-21
1.646886081e-18
3.02262115e-20
1.541958129e-18
7.222973896e-20
1.39702277e-18
1.225728438e-19
1.208176422e-18
1.779547959e-19
9.748649266e-19
2.327632517e-19
7.008618994e-19
2.797327108e-19
3.937795971e-19
3.127072562e-19
6.201160013e-20
3.315353778e-19
-2.894412743e-19
3.455244965e-19
-6.576159994e-19
3.655095921e-19
-1.026850823e-18
3.745736144e-19
-1.35629818e-18
3.11388044e-19
-1.597547347e-18
1.534577393e-19
-1.719546646e-18
-5.774191006e-20
-1.704007028e-18
-3.015837298e-19
-1.528809968e-18
-5.889208571e-19
-1.176391894e-18
-9.232503866e-19
-6.809366122e-19
-1.196325208e-18
-1.888282438e-19
-1.22125824e-18
5.930881008e-20
-8.406003731e-19
8.526305003e-33
1.7295203e-18
-1.06885819e-20
1.740559137e-18
-3.140200627e-20
1.754652033e-18
-5.000538523e-20
1.770146035e-18
-6.490790932e-20
1.784406771e-18
-7.441359201e-20
1.794051057e-18
-7.669030211e-20
1.794799572e-18
-6.97742021e-20
1.78142186e-18
-5.164825634e-20
1.747737942e-18
-2.040890546e-20
1.686726588e-18
2.540732222e-20
1.590891372e-18
8.627932816e-20
1.453051422e-18
1.608148038e-19
1.267820059e-18
2.445265874e-19
1.03381009e-18
3.285856867e-19
7.560332501e-19
3.998556206e-19
4.462432653e-19
4.447730692e-19
1.176369735e-19
4.60024052e-19
-2.275936909e-19
4.664630213e-19
-6.039532056e-19
5.051979372e-19
-1.010998331e-18
5.648822024e-19
-1.39344936e-18
4.972120829e-19
-1.681777289e-18
2.520741664e-19
-1.853252991e-18
-5.003810548e-20
-1.90849908e-18
-3.691347715e-19
-1.816195989e-18
-7.535599972e-19
-1.508130463e-18
-1.284983609e-18
-9.744804251e-19
-1.785405996e-18
-3.692980944e-19
-1.902250596e-18
8.972577762e-21
-1.348301627e-18
9.554821563e-33
1.706829596e-18
-1.55136364e-20
1.720139553e-18
-4.570425257e-20
1.737826351e-18
-7.32378406e-20
1.75833492e-18
-9.609872127e-20
1.779121138e-18
-1.121303003e-19
1.796891565e-18
-1.189803099e-19
1.807415101e-18
-1.141037246e-19
1.80542653e-18
-9.482223696e-20
1.784530208e-18
-5.848240496e-20
1.737166512e-18
-2.754836829e-21
1.654727092e-18
7.378276993e-20
1.528106806e-18
1.705403738e-19
1.349208557e-18
2.829323414e-19
1.1142238e-18
3.994340829e-19
8.288290227e-19
4.989353675e-19
5.124561941e-19
5.532236557e-19
1.923478601e-19
5.449407062e-19
-1.259764843e-19
5.074751629e-19
-4.922039511e-19
5.601845595e-19
-9.481351725e-19
7.508046312e-19
-1.403540848e-18
7.176925217e-19
-1.735224686e-18
3.451017986e-19
-1.949221914e-18
-3.41174058e-20
-2.102102124e-18
-3.520967397e-19
-2.166190345e-18
-7.288428147e-19
-1.973177093e-18
-1.48476431e-18
-1.419424777e-18
-2.339967425e-18
-6.611306349e-19
-2.657585237e-18
-7.604984491e-20
-1.971371664e-18
1.093045007e-32
1.674503371e-18
-2.130792128e-20
1.690482002e-18
-6.295313086e-20
1.712380825e-18
-1.015079809e-19
1.738750378e-18
-1.346160296e-19
1.767150428e-18
-1.597395372e-19
1.794389275e-18
-1.740961988e-19
1.816327339e-18
-1.746492436e-19
1.827754899e-18
-1.58154804e-19
1.822250451e-18
-1.212660962e-19
1.791983602e-18
-6.072245047e-20
1.727452982e-18
2.625716238e-20
1.617343659e-18
1.410057822e-19
1.449305662e-18
2.810236833e-19
1.213675719e-18
4.348683571e-19
9.129763736e-19
5.73632221e-19
5.766133031e-19
6.440825384e-19
2.651761325e-19
5.867031222e-19
1.325707357e-20
4.198021933e-19
-2.914142798e-19
4.33928249e-19
-8.089440192e-19
9.189837679e-19
-1.36639245e-18
9.845204728e-19
-1.701500717e-18
3.745522698e-19
-1.90520486e-18
-6.753531718e-20
-2.155061231e-18
-2.635282969e-19
-2.482537913e-18
-4.102915254e-19
-2.523911387e-18
-1.40734498e-18
-1.99888347e-18
-2.815037122e-18
-1.060751158e-18
-3.475640595e-18
-1.919010241e-19
-2.757204006e-18
1.330913317e-32
1.630415914e-18
-2.819807009e-20
1.649285556e-18
-8.352760644e-20
1.675729783e-18
-1.354544246e-19
1.708399472e-18
-1.81365812e-19
1.744935365e-18
-2.184320379e-19
1.782219976e-18
-2.435316308e-19
1.816188022e-18
-2.532487192e-19
1.841747115e-18
-2.439274147e-19
1.852692336e-18
-2.117543041e-19
1.841487057e-18
-1.528088902e-19
1.798649234e-18
-6.305668827e-20
1.711476955e-18
6.14857804e-20
1.562598151e-18
2.233553139e-19
1.331249132e-18
4.178709652e-19
1.005605128e-18
6.169071372e-19
6.166737178e-19
7.375570656e-19
2.876602004e-19
6.271461731e-19
1.565244693e-19
1.665356529e-19
3.820837521e-20
-2.429049817e-20
-5.600331544e-19
9.234526519e-19
-1.279230407e-18
1.082652026e-18
-1.502097495e-18
3.364249965e-19
-1.587426439e-18
-1.832407939e-19
-1.847208907e-18
-9.112588446e-20
-2.579713269e-18
4.708980368e-20
-3.030997422e-18
-1.006885752e-18
-2.633389041e-18
-3.115043307e-18
-1.553454454e-18
-4.235112253e-18
-3.348071614e-19
-3.721363166e-18
1.740882385e-32
1.572255473e-18
-3.624925493e-20
1.594042485e-18
-1.076202153e-19
1.625054868e-18
-1.753873638e-19
1.664016372e-18
-2.367650202e-19
1.708592136e-18
-2.887059262e-19
1.755635292e-18
-3.278139466e-19
1.80101189e-18
-3.503624136e-19
1.839616629e-18
-3.524189833e-19
1.865512431e-18
-3.300301979e-19
1.87204867e-18
-2.793169728e-19
1.851435321e-18
-1.961702467e-19
1.792667441e-18
-7.51142613e-20
1.676397675e-18
9.256691231e-20
1.46772921e-18
3.181439956e-19
1.119986873e-18
5.986822911e-19
6.240704069e-19
8.480608708e-19
1.815649384e-19
7.771128562e-19
1.711501923e-19
-2.460080615e-19
5.04027906e-19
-7.091075659e-19
-1.626166548e-19
6.520158811e-19
-1.147182685e-18
9.941917806e-19
-9.64867795e-19
-8.56560998e-20
-9.48985387e-19
-2.50010639e-19
-8.78888115e-19
-1.996275613e-19
-2.128342147e-18
6.726087019e-19
-3.122067643e-18
-1.934115016e-19
-3.053667889e-18
-2.931898646e-18
-2.096223728e-18
-4.423560249e-18
-5.072289549e-19
-4.73620492e-18
2.573556599e-32
1.497660117e-18
-4.546588661e-20
1.522189289e-18
-1.352321639e-19
1.557477972e-18
-2.212832494e-19
1.602293793e-18
-3.007392185e-19
1.654251304e-18
-3.703921187e-19
1.7100066e-18
-4.265696804e-19
1.765036716e-18
-4.651685991e-19
1.813713692e-18
-4.819018396e-19
1.849753686e-18
-4.727768594e-19
1.867126175e-18
-4.346855068e-19
1.861081043e-18
-3.656245058e-19
1.827613684e-18
-2.632140864e-19
1.756777651e-18
-1.188033153e-19
1.611783027e-18
9.542331353e-20
1.299086141e-18
4.374140595e-19
6.701969297e-19
9.212500011e-19
-2.573785657e-20
9.769636718e-19
-3.577919138e-19
-1.429194749e-19
5.259846602e-19
-1.46069754e-18
-4.598977243e-33
1.932932438e-19
-1.947586569e-32
1.314250908e-19
-6.326466417e-33
-5.719277036e-20
-1.33430226e-33
-3.641537506e-20
1.207767305e-32
-4.903973489e-20
-5.612921483e-33
1.470497183e-19
-1.621003009e-18
2.11944268e-19
-2.309738582e-18
-1.765594922e-18
-2.697366167e-18
-2.304650414e-18
-7.791417546e-19
-5.019996538e-18
2.621946299e-32
1.404372146e-18
-5.579688228e-20
1.431260907e-18
-1.661818706e-19
1.470222894e-18
-2.72788905e-19
1.520072591e-18
-3.727438619e-19
1.578347595e-18
-4.6274041e-19
1.641363839e-18
-5.387692483e-19
1.703803629e-18
-5.960882705e-19
1.758604956e-18
-6.295468039e-19
1.797420941e-18
-6.34410934e-19
1.812239371e-18
-6.078539092e-19
1.798942405e-18
-5.510555628e-19
1.762724912e-18
-4.7083448e-19
1.720442549e-18
-3.761084135e-19
1.677390744e-18
-2.553999356e-19
1.557960017e-18
-3.703324001e-21
1.027400341e-18
6.315632574e-19
-9.885377189e-20
1.015005771e-18
2.417657057e-33
-5.618461263e-20
-1.383785852e-19
-1.156322596e-19
1.475526313e-21
5.344032835e-20
7.971029041e-20
5.319646254e-20
2.077739529e-20
1.749203768e-21
-1.26243598e-20
-3.001790771e-21
-7.223869839e-20
1.058672454e-20
1.550870523e-21
7.325902751e-20
1.197275608e-19
9.37633521e-20
8.304673172e-33
-1.973577072e-20
-1.872861225e-18
1.311300828e-19
-1.846287875e-18
-3.095254381e-18
-3.030028165e-19
1.290413417e-18
-6.715463525e-20
1.319049737e-18
-2.001234568e-19
1.360735052e-18
-3.292119222e-19
1.414415687e-18
-4.517388107e-19
1.47767411e-18
-5.644541336e-19
1.546565319e-18
-6.629811775e-19
1.614830258e-18
-7.4157942e-19
1.673183118e-18
-7.933219471e-19
1.708883445e-18
-8.109201349e-19
1.706452625e-18
-7.886613277e-19
1.651744922e-18
-7.263361093e-19
1.544010172e-18
-6.363680014e-19
1.422427928e-18
-5.536470595e-19
1.388616693e-18
-5.340154586e-19
1.40337931e-18
-5.257236139e-19
1.143403026e-18
-1.770579472e-19
1.487998575e-19
1.484705137e-19
6.723970586e-20
2.536732701e-20
-3.264967436e-20
-1.574736407e-20
1.231660426e-21
1.955913543e-20
2.826303118e-20
2.616842014e-20
1.60264007e-20
1.399110332e-20
9.641556485e-22
1.206876467e-20
-9.566394863e-21
2.112233495e-20
2.205519545e-20
4.163704402e-20
6.957211561e-20
4.623072862e-20
2.417850151e-20
2.564532684e-20
8.814950328e-20
6.716379315e-20
-3.030028194e-19
1.87563881e-20
-5.600543161e-19
1.154313018e-18
-7.947399447e-20
1.183796748e-18
-2.366011344e-19
1.226778402e-18
-3.894798685e-19
1.282536289e-18
-5.360427886e-19
1.349052382e-18
-6.734807892e-19
1.422626427e-18
-7.972316706e-19
1.496699046e-18
-9.004179692e-19
1.560318504e-18
-9.736308783e-19
1.595952373e-18
-1.005117119e-18
1.576477407e-18
-9.816845139e-19
1.462116424e-18
-8.911313825e-19
1.201578046e-18
-7.286321293e-19
7.554640305e-19
-5.143633932e-19
1.319359366e-19
-3.503827064e-19
-4.201259222e-20
-6.342520426e-19
-5.651395658e-20
6.952532491e-33
2.569667332e-20
6.625697602e-20
2.612501432e-20
2.493487711e-20
2.656825208e-21
7.717741346e-21
7.840945006e-21
1.437479036e-20
1.60857141e-20
1.792531851e-20
1.410406186e-20
1.597542356e-20
1.001772578e-20
1.615964017e-20
1.094831407e-20
2.019691011e-20
2.664887973e-20
2.593252171e-20
4.898671298e-20
2.388412526e-20
6.569696689e-20
8.935101514e-21
1.521343381e-19
-1.927977026e-20
3.181864348e-19
-1.473030118e-19
1.31989167e-19
9.954468867e-19
-9.290349262e-20
1.024485798e-18
-2.75208177e-19
1.066594715e-18
-4.520817196e-19
1.121707993e-18
-6.230283757e-19
1.18874757e-18
-7.864310514e-19
1.265152304e-18
-9.380539345e-19
1.345642231e-18
-1.070291025e-18
1.420495582e-18
-1.171625868e-18
1.472628498e-18
-1.226154659e-18
1.472116582e-18
-1.213082131e-18
1.36544817e-18
-1.105892087e-18
1.055285709e-18
-8.705045974e-19
3.958362196e-19
-4.625305897e-19
-4.717322069e-19
1.445623586e-19
-1.386696821e-18
4.765473313e-19
-1.169443376e-19
-1.407604038e-19
-1.562542535e-20
-3.506366263e-20
8.907878921e-21
3.980233053e-22
9.313874301e-21
7.309314899e-21
1.139147326e-20
1.229674857e-20
1.413581939e-20
1.51815594e-20
1.42882787e-20
1.58234122e-20
1.405499585e-20
1.639375419e-20
1.668392584e-20
1.756926085e-20
2.460048372e-20
1.801469314e-20
3.40376899e-20
1.444090171e-20
3.748209606e-20
5.487667347e-21
2.411109829e-20
-5.91328052e-21
-1.149136023e-19
-8.288360752e-21
3.143984033e-20
8.146103255e-19
-1.084047976e-19
8.413311371e-19
-3.159983497e-19
8.792602638e-19
-5.150454333e-19
9.294557712e-19
-7.087591546e-19
9.922769891e-19
-8.978014575e-19
1.067045933e-18
-1.078935048e-18
1.151236931e-18
-1.244588344e-18
1.239597233e-18
-1.382415643e-18
1.323183934e-18
-1.474880102e-18
1.388691644e-18
-1.49926973e-18
1.419156759e-18
-1.428723782e-18
1.395021072e-18
-1.234596875e-18
1.187530984e-18
-8.885722075e-19
7.081623717e-19
-3.519656771e-19
1.909114274e-19
-2.852568228e-33
5.209608187e-20
-1.946383795e-21
1.983626096e-20
-2.807309288e-21
1.581917058e-20
4.410810918e-21
1.430130804e-20
8.823826703e-21
1.42762841e-20
1.231995409e-20
1.477767219e-20
1.467887792e-20
1.485862072e-20
1.574081788e-20
1.52305025e-20
1.602043557e-20
1.712935814e-20
1.566996301e-20
2.102669227e-20
1.41162728e-20
2.508445542e-20
1.038080733e-20
2.608114809e-20
4.488678614e-21
2.173601802e-20
-1.573044662e-21
1.74068248e-20
-3.964527442e-21
-2.015772116e-21
6.150712374e-19
-1.297472937e-19
6.364636793e-19
-3.603078358e-19
6.652437858e-19
-5.759281971e-19
7.04298444e-19
-7.87742681e-19
7.555286572e-19
-9.995570349e-19
8.200611522e-19
-1.209419987e-18
8.979129058e-19
-1.410262921e-18
9.875107629e-19
-1.589672817e-18
1.08514371e-18
-1.72946642e-18
1.185150913e-18
-1.806124296e-18
1.283162225e-18
-1.794177576e-18
1.379487262e-18
-1.676476018e-18
1.271705868e-18
-1.46748794e-18
1.019405862e-18
-1.219678165e-18
1.256213636e-19
-1.60632935e-32
5.12351556e-20
7.243630854e-20
2.705438078e-20
2.136779545e-20
2.023218606e-20
1.122659829e-20
1.779743518e-20
1.125287888e-20
1.663520767e-20
1.347757616e-20
1.583961191e-20
1.547037225e-20
1.513823822e-20
1.643817527e-20
1.488002969e-20
1.62757472e-20
1.55756677e-20
1.497394234e-20
1.729122655e-20
1.24020591e-20
1.919232639e-20
8.480913581e-21
2.001942451e-20
3.662507617e-21
1.934453494e-20
-8.992453333e-22
1.935557985e-20
-3.97962565e-21
-6.385159808e-21
4.048199264e-19
-1.683761379e-19
4.143590722e-19
-4.109370571e-19
4.26715871e-19
-6.313657235e-19
4.46748613e-19
-8.528845739e-19
4.770945943e-19
-1.081519864e-18
5.198363754e-19
-1.315973289e-18
5.765576508e-19
-1.549648331e-18
6.474034654e-19
-1.770170835e-18
7.283722458e-19
-1.957813104e-18
8.05105711e-19
-2.083347475e-18
8.403627264e-19
-2.105752198e-18
7.571403047e-19
-1.970683204e-18
5.470641077e-19
-1.612008076e-18
-7.673090364e-20
-9.632406478e-19
-7.027048021e-20
2.092392247e-33
1.666431611e-22
1.993984327e-21
1.691318398e-20
4.613189446e-21
2.025846696e-20
7.872153656e-21
2.002213275e-20
1.148094133e-20
1.862800399e-20
1.486456361e-20
1.680741517e-20
1.728434184e-20
1.49758104e-20
1.826436755e-20
1.357822502e-20
1.767108018e-20
1.300378469e-20
1.555006891e-20
1.33700813e-20
1.204033902e-20
1.437392069e-20
7.482977992e-21
1.545767185e-20
2.582903405e-21
1.62641549e-20
-1.703936371e-21
1.695004598e-20
-4.66568668e-21
-6.051745428e-21
2.014536973e-19
-2.845234747e-19
1.797229065e-19
-4.745942931e-19
1.665164801e-19
-6.767099159e-19
1.596953791e-19
-8.958919133e-19
1.598184196e-19
-1.132483757e-18
1.687283971e-19
-1.38381563e-18
1.894414521e-19
-1.64365682e-18
2.25460636e-19
-1.900524638e-18
2.786802817e-19
-2.13478887e-18
3.439735529e-19
-2.313920319e-18
3.972217725e-19
-2.384246075e-18
3.776532508e-19
-2.256304235e-18
2.872545261e-19
-1.78051737e-18
-1.618759104e-19
-7.490425607e-19
-6.827649556e-20
1.965268208e-32
2.785848291e-21
-6.907438349e-20
2.017214811e-20
-1.278168249e-20
2.386725456e-20
4.168171619e-21
2.340575498e-20
1.193229921e-20
2.104778212e-20
1.721260138e-20
1.778744081e-20
2.053629159e-20
1.438252299e-20
2.166382988e-20
1.145721366e-20
2.059619194e-20
9.494054728e-21
1.75181647e-20
8.812720208e-21
1.272922611e-20
9.47384601e-21
6.827929764e-21
1.117083199e-20
8.93210276e-22
1.33024045e-20
-3.830481732e-21
1.556398716e-20
-6.926920566e-21
-7.030071663e-21
-4.096149765e-20
-4.111104462e-19
-8.001253958e-20
-5.285588194e-19
-1.155173481e-19
-7.006554866e-19
-1.516361193e-19
-9.074460874e-19
-1.8868372e-19
-1.141613001e-18
-2.248905566e-19
-1.398634426e-18
-2.558812598e-19
-1.673030772e-18
-2.738228652e-19
-1.955726034e-18
-2.659836707e-19
-2.231067182e-18
-2.1205014e-19
-2.472625027e-18
-7.858953779e-20
-2.636903928e-18
1.840607968e-19
-2.654120679e-18
4.144659505e-19
-2.416214743e-18
7.220979553e-19
-1.769137681e-18
1.30977274e-19
6.687912788e-33
5.907854922e-20
2.819809753e-21
3.712200218e-20
9.168675889e-21
3.163138209e-20
9.64755288e-21
2.868605714e-20
1.486701335e-20
2.437147226e-20
2.151694029e-20
1.891497907e-20
2.598376968e-20
1.331488505e-20
2.725989764e-20
8.379186382e-21
2.553410296e-20
4.705116138e-21
2.119901292e-20
2.911423866e-21
1.453036318e-20
3.539126507e-21
6.21215023e-21
6.44713998e-21
-2.008128683e-21
1.020596564e-20
-7.58292989e-21
1.546083605e-20
-1.217314979e-20
-1.556745517e-20
-3.244510008e-19
-4.561226295e-19
-3.594768437e-19
-5.446839304e-19
-4.101346787e-19
-6.91760331e-19
-4.75145228e-19
-8.799171386e-19
-5.538771317e-19
-1.100605505e-18
-6.447797725e-19
-1.348950798e-18
-7.438861393e-19
-1.620607188e-18
-8.431335013e-19
-1.90932723e-18
-9.280455527e-19
-2.204522734e-18
-9.743118689e-19
-2.488228385e-18
-9.426278531e-19
-2.731096622e-18
-7.732471828e-19
-2.886547125e-18
-4.866044916e-19
-2.879451489e-18
2.258562951e-20
-2.5493073e-18
1.97140762e-19
-1.122008198e-18
6.542741545e-20
1.345310693e-19
3.760087922e-20
3.699030711e-20
3.685084261e-20
1.03940016e-20
3.533598415e-20
1.63660318e-20
2.883830166e-20
2.799926689e-20
2.019110705e-20
3.462127689e-20
1.158909043e-20
3.586035008e-20
4.044096321e-21
3.308500753e-20
-1.963533589e-21
2.721495665e-20
-5.406789073e-21
1.798228138e-20
-4.681152411e-21
5.484944535e-21
8.723387876e-22
-7.542474681e-21
5.615745734e-21
-1.231002566e-20
1.206653072e-20
-1.863806727e-20
-5.667093426e-20
-5.884676776e-19
-4.533233744e-19
-6.292565276e-19
-5.238493792e-19
-6.967711479e-19
-6.472414433e-19
-7.913372911e-19
-8.106092893e-19
-9.136466812e-19
-1.006264699e-18
-1.063998455e-18
-1.229644111e-18
-1.241042335e-18
-1.477222041e-18
-1.440483013e-18
-1.744614154e-18
-1.653920054e-18
-2.024356957e-18
-1.868988426e-18
-2.302748312e-18
-2.073237209e-18
-2.55421504e-18
-2.266129401e-18
-2.729735282e-18
-2.461233912e-18
-2.729915654e-18
-2.414346146e-18
-2.334297482e-18
-1.913500937e-18
-9.869389666e-19
-9.545702465e-20
-3.620245627e-33
1.100457365e-20
-6.946889869e-20
4.282287282e-20
-2.145260642e-20
4.696921929e-20
1.219201831e-20
3.546031161e-20
3.948639032e-20
2.143018025e-20
4.864079673e-20
8.813747921e-21
4.847672987e-20
-1.825954614e-21
4.373062217e-20
-1.119620886e-20
3.65884469e-20
-1.790412592e-20
2.468408219e-20
-1.770857164e-20
5.330537551e-21
-3.89521219e-21
-2.131820231e-20
-7.122959081e-22
-1.549529629e-20
-1.185585598e-19
9.922657392e-20
-1.690416403e-19
-8.237537667e-19
-8.727940392e-19
-9.570472872e-19
-1.079120201e-18
-1.241928423e-18
-1.448349251e-18
-1.700272039e-18
-1.997190953e-18
-2.33438222e-18
-2.700201353e-18
-3.070945848e-18
-3.397245896e-18
-3.560576305e-18
-3.288022604e-18
-1.470676468e-18
-3.823856705e-20
5.902086589e-20
7.646749741e-20
7.426359125e-20
4.46147179e-20
2.126611335e-20
4.067640282e-21
-8.968129941e-21
-2.310057352e-20
-3.725767049e-20
-4.435731145e-20
1.927693822e-21
1.140095743e-19
3.25565439e-19
)
;

boundaryField
{
    lowerWall
    {
        type            calculated;
        value           nonuniform 0();
    }
    atmosphere
    {
        type            calculated;
        value           nonuniform List<scalar> 
20
(
-1.749431146e-18
-1.740592453e-18
-1.725101294e-18
-1.701596345e-18
-1.668309111e-18
-1.623177691e-18
-1.563959653e-18
-1.488365813e-18
-1.394212635e-18
-1.279600816e-18
-1.143146203e-18
-9.843194972e-19
-8.040330596e-19
-6.059083529e-19
-4.00008801e-19
-2.150200269e-19
1.967008756e-20
3.111697591e-19
5.748933726e-19
8.079143346e-19
)
;
    }
    rightWall
    {
        type            empty;
        value           nonuniform 0();
    }
    leftWall
    {
        type            empty;
        value           nonuniform 0();
    }
    frontAndBack
    {
        type            calculated;
        value           uniform 0;
    }
    procBoundary0to1
    {
        type            processor;
        value           nonuniform List<scalar> 
20
(
1.572273024e-20
1.628657234e-20
1.751419826e-20
1.964733452e-20
2.318705614e-20
2.91927901e-20
4.009427081e-20
6.209794462e-20
1.130856433e-19
-4.595162154e-20
-3.738692394e-19
-1.436920892e-20
5.08545697e-20
2.37209859e-20
1.661102361e-20
1.654219686e-20
2.399370548e-20
5.317866365e-20
-6.207150958e-21
-3.522362841e-19
)
;
    }
    procBoundary0to2
    {
        type            processor;
        value           nonuniform List<scalar> 
30
(
-4.154716144e-19
-4.709518724e-19
-5.698136291e-19
-7.024200925e-19
-8.622096797e-19
-1.044823662e-18
-1.246939157e-18
-1.464874897e-18
-1.692821885e-18
-1.919973506e-18
-2.125446457e-18
-2.268973135e-18
-2.276119169e-18
-2.026387911e-18
-1.435087343e-18
-4.552887816e-19
-1.667459026e-19
-3.892081507e-20
1.436419971e-20
6.910792615e-20
7.198297533e-20
6.568214801e-20
5.677554234e-20
5.072289415e-20
3.887277421e-20
1.247551138e-20
-6.755538816e-20
-1.275548129e-19
-1.123400826e-19
5.088032848e-19
)
;
    }
}


// ************************************************************************* //
