/*--------------------------------*- C++ -*----------------------------------*\
  =========                 |
  \\      /  F ield         | OpenFOAM: The Open Source CFD Toolbox
   \\    /   O peration     | Website:  https://openfoam.org
    \\  /    A nd           | Version:  6
     \\/     M anipulation  |
\*---------------------------------------------------------------------------*/
FoamFile
{
    version     2.0;
    format      ascii;
    class       volScalarField;
    location    "0.0048";
    object      ViscousDissipation;
}
// * * * * * * * * * * * * * * * * * * * * * * * * * * * * * * * * * * * * * //

dimensions      [1 -1 -3 0 0 0 0];

internalField   nonuniform List<scalar> 
600
(
7.367792258e-22
2.61137663e-21
4.728330684e-21
6.153057483e-21
5.97930729e-21
4.107415581e-21
2.478740728e-21
6.544379971e-21
2.679053361e-20
7.95828493e-20
1.85939574e-19
3.663506641e-19
6.307290177e-19
9.663468548e-19
1.332991912e-18
1.676892845e-18
1.961254236e-18
2.179226277e-18
2.29775442e-18
2.151695571e-18
1.538402531e-18
6.669905265e-19
1.437886575e-19
5.365743236e-19
2.291298102e-18
5.434495833e-18
8.37453171e-18
8.108405316e-18
2.705838853e-18
9.452969991e-20
3.853024252e-21
5.726722151e-21
7.769231855e-21
9.095166413e-21
8.855389375e-21
6.986119566e-21
5.439996043e-21
9.656725709e-21
3.011823705e-20
8.333280048e-20
1.908069729e-19
3.739528065e-19
6.431476083e-19
9.829921897e-19
1.343842682e-18
1.658380343e-18
1.893053193e-18
2.095862614e-18
2.325053288e-18
2.404491189e-18
1.953954647e-18
1.154751328e-18
7.043758535e-19
1.142049058e-18
2.978065893e-18
6.464127978e-18
9.888666056e-18
9.903347411e-18
4.445743163e-18
7.20675989e-19
1.025883714e-20
1.22496976e-20
1.437123196e-20
1.580597235e-20
1.575057658e-20
1.412199125e-20
1.276389656e-20
1.687942516e-20
3.664640546e-20
8.844365028e-20
1.944004626e-19
3.777731399e-19
6.510016148e-19
9.956652884e-19
1.344454007e-18
1.59565513e-18
1.702689796e-18
1.81691999e-18
2.232873692e-18
2.793307178e-18
2.627283119e-18
1.79741032e-18
1.304277094e-18
1.676347762e-18
3.629602421e-18
7.854132144e-18
1.233658265e-17
1.313816039e-17
8.445173308e-18
2.191121759e-18
2.220832807e-20
2.448205885e-20
2.6920051e-20
2.879970742e-20
2.936325281e-20
2.848218252e-20
2.780089535e-20
3.210005607e-20
5.092761136e-20
1.001701038e-19
2.025057672e-19
3.841261908e-19
6.625121647e-19
1.019401427e-18
1.363397887e-18
1.525273937e-18
1.390335392e-18
1.2619363e-18
1.980722056e-18
3.447630289e-18
3.64768112e-18
2.322912823e-18
1.438953851e-18
1.624366855e-18
4.177626446e-18
1.000151771e-17
1.626855784e-17
1.84606247e-17
1.646095355e-17
5.163862556e-18
4.287612106e-20
4.571433968e-20
4.890937755e-20
5.184083945e-20
5.376071347e-20
5.442242054e-20
5.513690661e-20
6.001396865e-20
7.756633384e-20
1.226115303e-19
2.180172697e-19
3.94169791e-19
6.794658581e-19
1.067684821e-18
1.450385316e-18
1.558430127e-18
1.09876205e-18
5.430186615e-19
2.060207032e-18
4.935319828e-18
5.242209763e-18
2.363775352e-18
6.845353164e-19
1.050854512e-18
5.866335766e-18
1.412317888e-17
2.2278434e-17
2.58098395e-17
3.07879895e-17
1.088048383e-17
7.661372096e-20
8.041373288e-20
8.500757198e-20
8.985136386e-20
9.411046875e-20
9.728106075e-20
1.001395776e-19
1.058486496e-19
1.214453444e-19
1.599057842e-19
2.432202281e-19
4.063855079e-19
6.972441204e-19
1.149910348e-18
1.685667415e-18
1.969273897e-18
1.504571863e-18
7.287227e-19
5.518800717e-18
8.77648263e-18
8.414311984e-18
2.50317823e-18
5.945458635e-19
3.959610647e-18
1.702124591e-17
2.247271913e-17
2.888102585e-17
3.081510126e-17
5.222694448e-17
2.142746691e-17
1.288672076e-19
1.341158451e-19
1.409043118e-19
1.486800976e-19
1.563258033e-19
1.628037574e-19
1.680195954e-19
1.738494077e-19
1.855072257e-19
2.134428439e-19
2.769587759e-19
4.130474211e-19
6.948148476e-19
1.246983641e-18
2.159728592e-18
3.251686721e-18
4.654963055e-18
5.509270759e-18
2.947403168e-17
1.423540836e-17
4.338935965e-18
1.348973701e-18
3.400161487e-18
1.953773944e-17
1.604024123e-17
2.466547207e-17
3.102551787e-17
2.094890009e-17
6.872743887e-17
3.957470325e-17
2.058437709e-19
2.130718471e-19
2.229343432e-19
2.347022082e-19
2.466126193e-19
2.56544288e-19
2.628324063e-19
2.654116204e-19
2.673757486e-19
2.768036776e-19
3.096748688e-19
3.993078725e-19
6.314760133e-19
1.256722422e-18
2.874122344e-18
6.41134262e-18
1.418711926e-17
2.335438465e-17
6.635519715e-19
1.082011875e-17
7.252184162e-18
2.07079329e-18
2.127535207e-18
1.75997663e-18
6.658149871e-18
2.743866451e-17
6.716060828e-17
6.09680721e-17
3.334406354e-17
6.752934823e-17
3.138718487e-19
3.235952546e-19
3.374644123e-19
3.543415002e-19
3.712451226e-19
3.839683039e-19
3.878135627e-19
3.790953877e-19
3.577685275e-19
3.310761204e-19
3.182524596e-19
3.59370444e-19
5.448511201e-19
1.154792448e-18
3.701157219e-18
2.02327841e-17
5.964690539e-18
4.809796583e-18
1.360260812e-17
1.694605269e-16
1.65045749e-16
4.597349713e-17
6.345743597e-17
7.591576337e-17
1.83715874e-16
8.994653782e-17
4.244992762e-17
1.45583084e-16
9.002223177e-17
9.660769462e-17
4.583897534e-19
4.709892999e-19
4.899187976e-19
5.134830911e-19
5.36783927e-19
5.520703274e-19
5.4914366e-19
5.171884741e-19
4.495846055e-19
3.542597624e-19
2.745924222e-19
3.357796914e-19
8.867834325e-19
2.877746748e-18
7.786802269e-18
6.026811852e-18
7.386707332e-18
8.640072911e-17
1.878303465e-16
1.876874522e-16
5.494128407e-17
2.972699966e-17
1.351922764e-17
4.936053876e-17
9.745298013e-17
1.270059498e-16
8.228394796e-18
2.208389909e-16
1.007010053e-16
3.271011119e-20
6.424730528e-19
6.577661169e-19
6.830220291e-19
7.162459684e-19
7.501077177e-19
7.71923733e-19
7.633810764e-19
7.021331696e-19
5.693130623e-19
3.74291415e-19
2.302843855e-19
5.729627009e-19
2.698023363e-18
9.33318828e-18
2.368973678e-17
3.928504902e-18
8.949593242e-17
1.816908176e-16
4.060738698e-17
1.303944902e-17
4.388686898e-18
1.305525829e-18
1.533776998e-18
5.682555811e-18
1.660179623e-17
3.16492295e-17
3.649441165e-17
3.417731091e-16
2.865959917e-16
1.940183473e-18
8.647958678e-19
8.80632696e-19
9.135199959e-19
9.620002023e-19
1.016177341e-18
1.058151787e-18
1.061375436e-18
9.920436724e-19
8.195081311e-19
5.591573258e-19
4.410047567e-19
1.585992615e-18
8.073534905e-18
3.864047237e-17
8.119835667e-19
1.180746038e-17
1.92232214e-16
4.344055208e-17
2.297318614e-18
1.361545533e-18
5.397706651e-19
1.902270463e-20
1.61357305e-19
8.444098723e-19
3.489650741e-18
8.075416131e-18
1.489083474e-17
1.495801321e-16
1.36119454e-16
2.009778896e-19
1.116696657e-18
1.125577437e-18
1.166999021e-18
1.240066899e-18
1.331509445e-18
1.419146872e-18
1.472005272e-18
1.453535403e-18
1.337961866e-18
1.160644145e-18
1.1561027e-18
2.107453447e-18
5.661262395e-18
1.60722694e-17
1.225402809e-17
1.569718408e-16
1.841307273e-16
1.31617297e-17
1.475328447e-18
6.495677346e-19
1.824701016e-19
2.445907245e-20
2.246532612e-20
1.988674326e-19
1.088233921e-18
2.623321248e-18
3.652521938e-18
2.828124401e-18
6.184953924e-17
5.590866026e-17
1.375315657e-18
1.361129787e-18
1.412883832e-18
1.525098516e-18
1.676622145e-18
1.841236907e-18
1.985688469e-18
2.071905385e-18
2.073926594e-18
2.0190997e-18
2.045952175e-18
2.376480552e-18
3.465919633e-18
4.389487653e-18
8.051341417e-18
1.590928123e-16
4.610146518e-17
3.137344146e-18
7.120371578e-19
4.246760147e-19
1.745027365e-19
4.305473198e-20
1.258497765e-20
1.410595992e-19
6.398233504e-19
1.360664047e-18
1.599160727e-18
9.298874257e-19
1.665792809e-19
7.216771054e-18
1.58045773e-18
1.534947268e-18
1.607375758e-18
1.781011009e-18
2.017911358e-18
2.28905666e-18
2.557217997e-18
2.767237321e-18
2.842126674e-18
2.68355385e-18
2.18164366e-18
1.41445994e-18
2.477728526e-18
1.312941539e-18
1.95796109e-18
8.568175771e-17
3.146280311e-17
9.818656267e-19
3.15977664e-19
4.52327577e-19
3.205551556e-19
1.890738062e-19
1.674263106e-19
3.280616568e-19
7.346830952e-19
1.19175933e-18
1.247015164e-18
7.962128216e-19
3.60301414e-19
5.43427517e-19
2.177174389e-18
1.657054788e-18
1.729445772e-18
1.97847854e-18
2.319348664e-18
2.722602235e-18
3.150587126e-18
3.528515534e-18
3.713156652e-18
3.455689337e-18
2.440672682e-18
9.569521029e-19
3.347524602e-18
1.525750425e-17
1.622897996e-18
1.026643829e-16
4.35482594e-17
4.483092618e-18
1.405738962e-18
1.019119981e-18
7.951491715e-19
6.371494604e-19
6.318020313e-19
8.373025998e-19
1.232531865e-18
1.579170994e-18
1.509362196e-18
1.027844209e-18
4.827361515e-19
3.055033023e-19
9.517703281e-19
1.357499115e-18
1.698382329e-18
2.075991273e-18
2.537910449e-18
3.095999172e-18
3.733774464e-18
4.389540055e-18
4.927329943e-18
5.119636802e-18
4.778837445e-18
4.533789443e-18
9.670938189e-18
1.269195449e-17
6.182051118e-18
1.640067892e-16
5.228403918e-17
5.489495635e-18
2.656061317e-18
2.352866255e-18
1.990659861e-18
1.72249238e-18
1.696218284e-18
1.965067422e-18
2.439609473e-18
2.782764071e-18
2.520522081e-18
1.884642417e-18
1.953961459e-18
9.910207981e-18
8.113456732e-19
1.192922158e-18
1.594427987e-18
2.055923528e-18
2.628762565e-18
3.348203999e-18
4.230182328e-18
5.258942864e-18
6.374014785e-18
7.485361408e-18
8.598417656e-18
1.01615294e-17
1.355553398e-17
1.144407248e-17
1.182181798e-17
1.334508714e-16
1.382405004e-16
3.455960479e-18
3.165830234e-18
5.296919936e-18
4.749559169e-18
4.076892792e-18
3.869205952e-18
4.324265063e-18
5.284808838e-18
6.098724581e-18
5.214630587e-18
2.803002368e-18
5.634119445e-17
7.696424214e-17
6.170370609e-19
9.815351514e-19
1.399805605e-18
1.909782055e-18
2.566256702e-18
3.42519627e-18
4.536102263e-18
5.929879742e-18
7.602931344e-18
9.504620381e-18
1.152799075e-17
1.344519933e-17
1.431688371e-17
1.583049385e-17
3.076217414e-17
3.285107614e-17
2.194684615e-16
7.594053744e-17
2.260136139e-17
1.810710378e-17
1.182204761e-17
8.880439007e-18
7.665279917e-18
8.827888141e-18
1.215808249e-17
1.770657902e-17
1.755911156e-17
8.34551225e-17
6.83198497e-17
1.655918597e-19
4.719437405e-19
7.744328524e-19
1.161510978e-18
1.672281253e-18
2.366336652e-18
3.315579736e-18
4.596019776e-18
6.268833642e-18
8.337497947e-18
1.064944528e-17
1.265996578e-17
1.293367062e-17
8.780017e-18
2.077701964e-18
4.084212897e-17
3.362892881e-17
1.20823716e-16
2.659533667e-16
9.839569195e-17
8.244103316e-17
3.00185676e-17
1.764320684e-17
1.190038348e-17
1.56417746e-17
2.77579789e-17
8.986399774e-17
2.067169158e-16
5.563406155e-16
2.133259355e-16
1.686080287e-18
)
;

boundaryField
{
    lowerWall
    {
        type            calculated;
        value           nonuniform 0();
    }
    atmosphere
    {
        type            calculated;
        value           nonuniform List<scalar> 
20
(
5.750255298e-22
3.702236611e-21
1.01315279e-20
2.211579307e-20
4.282665729e-20
7.661255975e-20
1.289200389e-19
2.059643745e-19
3.14102761e-19
4.588671883e-19
6.436601168e-19
8.683379932e-19
1.128557186e-18
1.417203554e-18
1.733589111e-18
2.785013091e-18
6.599746909e-19
5.900721867e-19
4.589259435e-19
3.588431523e-19
)
;
    }
    rightWall
    {
        type            empty;
    }
    leftWall
    {
        type            empty;
    }
    frontAndBack
    {
        type            calculated;
        value           nonuniform List<scalar> 
30
(
3.852742468e-22
2.267337714e-21
4.389937083e-21
5.807110819e-21
5.597482546e-21
3.646988052e-21
1.887944375e-21
5.780195331e-21
2.584901478e-20
7.853958013e-20
1.84980721e-19
3.657654915e-19
6.30899423e-19
9.678542412e-19
1.337038087e-18
1.685667617e-18
1.976812087e-18
2.199288951e-18
2.31142319e-18
2.145701611e-18
1.514676226e-18
6.286112106e-19
8.754798539e-20
4.715362071e-19
2.227628374e-18
5.353194103e-18
8.262925114e-18
8.001150966e-18
2.638374159e-18
9.431888296e-20
)
;
    }
    procBoundary0to1
    {
        type            processor;
        value           nonuniform List<scalar> 
20
(
3.296419074e-19
3.756722023e-19
4.927764539e-19
7.594206098e-19
1.42252167e-18
3.418714185e-18
1.145408027e-17
5.893872118e-17
1.266643919e-16
2.746338502e-16
5.982630057e-16
1.319702049e-16
4.667146792e-17
1.807740602e-17
3.270604592e-18
2.818011614e-18
1.581936396e-17
3.670231981e-17
1.062191981e-16
4.917676919e-16
)
;
    }
    procBoundary0to2
    {
        type            processor;
        value           nonuniform List<scalar> 
30
(
3.447221797e-19
5.785312894e-19
9.108157568e-19
1.386322711e-18
2.07163955e-18
3.05257515e-18
4.427884657e-18
6.286844482e-18
8.652276922e-18
1.135144426e-17
1.375615969e-17
1.441914874e-17
1.142191619e-17
8.105685377e-18
3.732711175e-17
9.910125377e-17
7.386127412e-17
2.261041983e-17
1.137739427e-16
4.012742193e-16
7.867314288e-17
3.1115964e-17
1.002791916e-17
2.281885123e-17
5.143572361e-17
5.013065155e-16
4.09153908e-16
1.167376957e-17
5.956133275e-18
5.772200898e-20
)
;
    }
}


// ************************************************************************* //
