/*--------------------------------*- C++ -*----------------------------------*\
  =========                 |
  \\      /  F ield         | OpenFOAM: The Open Source CFD Toolbox
   \\    /   O peration     | Website:  https://openfoam.org
    \\  /    A nd           | Version:  6
     \\/     M anipulation  |
\*---------------------------------------------------------------------------*/
FoamFile
{
    version     2.0;
    format      ascii;
    class       surfaceScalarField;
    location    "0.006";
    object      phi;
}
// * * * * * * * * * * * * * * * * * * * * * * * * * * * * * * * * * * * * * //

dimensions      [0 3 -1 0 0 0 0];

internalField   nonuniform List<scalar> 
1150
(
-1.271339319e-18
-4.564289701e-19
-1.333894038e-18
-5.008499085e-19
-1.441645177e-18
-5.800227176e-19
-1.597978449e-18
-6.850583089e-19
-1.806311812e-18
-8.085475155e-19
-2.070041736e-18
-9.444527358e-19
-2.391696868e-18
-1.087646887e-18
-2.771476706e-18
-1.23326361e-18
-3.204609247e-18
-1.375812658e-18
-3.676420817e-18
-1.507864933e-18
-4.152086383e-18
-1.618234173e-18
-4.554725445e-18
-1.690476898e-18
-4.720439472e-18
-1.706139828e-18
-4.339775078e-18
-1.665593587e-18
-3.105220477e-18
-1.654004171e-18
-6.177343017e-19
-1.863700136e-18
1.868459531e-19
-1.511276009e-18
1.297525123e-19
1.81385166e-20
1.290073179e-19
1.507336024e-20
4.748976704e-20
1.506056246e-19
1.496528607e-20
1.045090585e-19
-4.838965296e-21
8.550240569e-20
-1.502077822e-20
6.697157917e-20
-3.495069349e-20
7.065588743e-20
-6.365493336e-20
6.758969518e-20
-1.243882111e-19
7.327537447e-20
-5.807173082e-20
-1.338319036e-19
1.683205816e-20
-2.024475286e-19
-2.532911435e-19
8.439095621e-19
2.532911433e-19
-1.461878822e-18
-3.669376625e-19
-1.52842401e-18
-3.95373168e-19
-1.643495771e-18
-4.453488462e-19
-1.811565575e-18
-5.097095689e-19
-2.03737685e-18
-5.816102313e-19
-2.325943484e-18
-6.547189549e-19
-2.681772135e-18
-7.232102465e-19
-3.107454639e-18
-7.817232138e-19
-3.601127377e-18
-8.253168128e-19
-4.152344468e-18
-8.495322223e-19
-4.73557135e-18
-8.507125831e-19
-5.301599041e-18
-8.274853641e-19
-5.77017936e-18
-7.858489574e-19
-6.039031218e-18
-7.53262973e-19
-5.989881477e-18
-8.057827174e-19
-5.483496194e-18
-1.062686822e-18
-3.071678757e-18
-1.303637618e-18
5.278378648e-32
-4.04731735e-19
2.154910131e-19
-5.141591566e-19
1.393200721e-21
3.64708947e-19
-4.041366761e-21
1.09943331e-19
-2.336979173e-20
1.048426767e-19
-1.133647006e-20
5.494026189e-20
-3.801688574e-20
9.732536201e-20
-5.796925396e-20
8.75628783e-20
-2.824469198e-19
2.977530403e-19
-7.03534205e-32
-1.002296976e-18
-5.962025285e-19
-1.562303115e-19
-4.722644816e-19
6.721779757e-19
-1.369476443e-33
-1.59609292e-18
-2.705938915e-19
-1.662296526e-18
-2.839219532e-19
-1.776771607e-18
-3.059455783e-19
-1.944231731e-18
-3.307004524e-19
-2.169796718e-18
-3.515456721e-19
-2.458994442e-18
-3.615830767e-19
-2.817091399e-18
-3.540155727e-19
-3.247821354e-18
-3.225952022e-19
-3.751256098e-18
-2.623436788e-19
-4.320750055e-18
-1.70634082e-19
-4.939813596e-18
-4.852063588e-20
-5.582622546e-18
9.862574963e-20
-6.228521635e-18
2.640398735e-19
-6.910091458e-18
4.521235921e-19
-7.784741557e-18
7.070640243e-19
-9.175518426e-18
1.116887525e-18
-1.092478214e-17
1.424627441e-18
-1.059082183e-17
4.440214542e-19
-8.518534352e-18
5.95978281e-19
-4.924520148e-19
-3.612743643e-19
-2.774701736e-19
-1.050496011e-19
-7.32722063e-20
-9.934617784e-20
3.104862993e-20
-4.938310201e-20
2.205487832e-19
-9.213912378e-20
3.913005077e-19
-8.318589255e-20
5.432884137e-18
-2.948191725e-19
2.408554674e-18
1.220793483e-18
1.123031608e-18
2.202229249e-19
9.452051203e-19
-5.57812617e-19
5.407305638e-33
-1.674705907e-18
-1.775972171e-19
-1.735944289e-18
-1.777328343e-19
-1.841460664e-18
-1.752564628e-19
-1.9953894e-18
-1.651288309e-19
-2.202168555e-18
-1.40804427e-19
-2.466559335e-18
-9.484674114e-20
-2.793026813e-18
-1.95443528e-20
-3.184559347e-18
9.22091044e-20
-3.640469787e-18
2.454633597e-19
-4.152593662e-18
4.408112439e-19
-4.699092134e-18
6.708654139e-19
-5.235788003e-18
9.164634457e-19
-5.688246078e-18
1.147084398e-18
-5.958172562e-18
1.338688828e-18
-5.924828958e-18
1.536883297e-18
-5.430022026e-18
1.878015939e-18
-3.039224152e-18
1.581220415e-18
5.212281245e-32
-1.45901498e-20
2.189255958e-19
-9.01287824e-21
2.852347967e-21
-1.452329869e-19
-3.438597869e-21
-9.876280676e-20
-2.330913065e-20
-7.9467327e-20
-1.170739173e-20
-6.096235148e-20
-3.882613821e-20
-6.501146442e-20
-5.941237189e-20
-6.254992663e-20
-2.853807876e-19
-6.883567385e-20
-6.985311122e-32
1.386272228e-19
-6.008270443e-19
2.05144455e-19
-4.361559234e-19
-8.247809668e-19
-2.528460759e-19
-1.703273871e-18
-9.644173655e-20
-1.755415932e-18
-8.635402013e-20
-1.844526241e-18
-6.495304353e-20
-1.973423916e-18
-2.802560699e-20
-2.144903685e-18
3.072647495e-20
-2.36174757e-18
1.189472846e-19
-2.626205077e-18
2.448435598e-19
-2.939025338e-18
4.160269072e-19
-3.297498415e-18
6.374902627e-19
-3.691258348e-18
9.079103875e-19
-4.09271814e-18
1.212935435e-18
-4.435521106e-18
1.51337901e-18
-4.569265871e-18
1.726896299e-18
-4.197622756e-18
1.710740896e-18
-3.017900455e-18
1.334259107e-18
-5.967861015e-19
4.664662974e-19
1.903943199e-19
1.706178399e-19
1.322646275e-19
4.351782075e-20
1.317540563e-19
-8.527454805e-21
4.932252832e-20
-6.282290628e-20
1.585688189e-20
-6.530075826e-20
-4.804155211e-21
-5.879948333e-20
-1.575650458e-20
-4.999777732e-20
-3.636460042e-20
-4.436792532e-20
-6.569811921e-20
-3.318775446e-20
-1.269664603e-19
-7.547049531e-21
-6.017012367e-20
7.185790482e-20
1.413513174e-20
1.308534976e-19
-2.528460761e-19
1.155472497e-19
-5.076185698e-19
-1.691608398e-18
-3.318567318e-20
-1.731696083e-18
-1.663055939e-20
-1.799068891e-18
1.656922667e-20
-1.894699182e-18
6.978042933e-20
-2.019010377e-18
1.487034776e-19
-2.171864876e-18
2.605814222e-19
-2.352187778e-18
4.13362411e-19
-2.557504624e-18
6.144788108e-19
-2.783278835e-18
8.687478445e-19
-3.021624153e-18
1.174559129e-18
-3.257531063e-18
1.516692971e-18
-3.456417997e-18
1.851913721e-18
-3.52090663e-18
2.077997591e-18
-3.205190595e-18
1.960028771e-18
-1.430325189e-18
8.954469685e-19
-3.436662974e-20
8.923543902e-33
6.329430106e-20
7.294382131e-20
8.021935182e-20
2.657743798e-20
7.745860463e-20
-5.791255508e-21
4.684467637e-20
-3.222493786e-20
2.235815679e-20
-4.081534108e-20
3.997550718e-21
-4.043005893e-20
-1.012665249e-20
-3.585960855e-20
-2.518442953e-20
-2.928917252e-20
-4.005741424e-20
-1.828615549e-20
-4.756150583e-20
-1.312103851e-23
-1.174530907e-21
2.549826043e-20
1.112211302e-19
1.850176286e-20
3.239880543e-19
-9.718534043e-20
1.698162462e-19
-1.652543036e-18
9.06884095e-21
-1.679274028e-18
2.801570933e-20
-1.722579165e-18
6.525319144e-20
-1.781347834e-18
1.232223945e-19
-1.853281105e-18
2.065628517e-19
-1.934789565e-18
3.213321661e-19
-2.020639147e-18
4.741690153e-19
-2.103780574e-18
6.710847633e-19
-2.175718889e-18
9.15484104e-19
-2.228486622e-18
1.204867337e-18
-2.260585753e-18
1.525491147e-18
-2.291303309e-18
1.843704338e-18
-2.360748688e-18
2.089537102e-18
-2.269979181e-18
2.088557219e-18
-1.846430856e-18
1.066193219e-18
-8.811016471e-20
-1.29408524e-19
1.692791775e-20
-3.211233795e-20
4.785065848e-20
-4.363938473e-21
5.102492234e-20
-8.982967752e-21
3.825427326e-20
-1.946579725e-20
2.274343898e-20
-2.53056937e-20
8.568001041e-21
-2.624729353e-20
-3.55621642e-21
-2.372277494e-20
-1.418141254e-20
-1.864383017e-20
-2.178437985e-20
-1.066093235e-20
-2.205012443e-20
2.772403466e-22
-8.171028472e-21
1.165380859e-20
-4.465973113e-21
1.483474615e-20
-1.214025721e-19
1.978355208e-20
5.666575941e-20
-1.600205289e-18
3.035949805e-20
-1.614148892e-18
4.785542041e-20
-1.634462818e-18
8.181466874e-20
-1.658091197e-18
1.3367689e-19
-1.680187972e-18
2.065870539e-19
-1.693888968e-18
3.046869698e-19
-1.689829194e-18
4.322985953e-19
-1.655677513e-18
5.926801317e-19
-1.575569854e-18
7.858458331e-19
-1.429218411e-18
1.004632964e-18
-1.190107868e-18
1.227754545e-18
-8.245393109e-19
1.408309112e-18
-4.019250962e-19
1.45726347e-18
9.750206241e-20
1.228630439e-18
2.022633072e-19
-3.709143425e-33
7.252969929e-20
3.074296229e-22
4.467631728e-20
-4.275309019e-21
4.32316292e-20
-2.935245433e-21
4.054209281e-20
-6.309509907e-21
3.241437683e-20
-1.134937573e-20
2.180183915e-20
-1.46959385e-20
1.109251959e-20
-1.553284135e-20
1.522728394e-21
-1.414253116e-20
-6.198514729e-21
-1.090691745e-20
-1.084620714e-20
-5.992189186e-21
-1.067355617e-20
1.301147274e-22
-4.990090914e-21
6.002124199e-21
4.828328512e-22
9.398858765e-21
8.071858805e-21
1.222633341e-20
1.437520546e-20
-1.548073092e-18
3.361570916e-20
-1.551565134e-18
4.658295158e-20
-1.55318365e-18
7.142538893e-20
-1.548435006e-18
1.08564422e-19
-1.530664646e-18
1.5939046e-19
-1.490848154e-18
2.257183905e-19
-1.417284439e-18
3.091388262e-19
-1.295576985e-18
4.099953428e-19
-1.108881792e-18
5.254966532e-19
-8.381179939e-19
6.459219878e-19
-4.607773633e-19
7.468055954e-19
4.584195931e-20
7.732280647e-19
4.599250271e-19
6.110884394e-19
7.99682271e-19
7.716720564e-20
1.392270586e-19
-1.719735579e-32
6.794696057e-20
7.157521305e-20
4.601638082e-20
1.764075416e-20
3.985736469e-20
3.207752182e-21
3.550222694e-20
-1.970235695e-21
2.906781404e-20
-4.926788317e-21
2.096493628e-20
-6.598303101e-21
1.248282975e-20
-7.049165275e-21
4.758342129e-21
-6.409867413e-21
-1.283786471e-21
-4.849322478e-21
-4.723903216e-21
-2.529298673e-21
-4.801546696e-21
2.368942727e-22
-1.593356348e-21
2.828208411e-21
3.31030751e-21
4.531728374e-21
1.022073083e-20
5.34712813e-21
4.091107217e-21
-1.507140505e-18
2.401640781e-20
-1.503869735e-18
3.054743504e-20
-1.493533592e-18
4.268979266e-20
-1.47093313e-18
5.990891336e-20
-1.428629037e-18
8.179653973e-20
-1.356871912e-18
1.077940447e-19
-1.243771319e-18
1.36913216e-19
-1.076558079e-18
1.674509626e-19
-8.451498348e-19
1.966838239e-19
-5.503929924e-19
2.205483062e-19
-2.209090198e-19
2.332998346e-19
6.079601895e-20
2.27271935e-19
2.32175021e-19
1.928134475e-19
-1.053289613e-19
1.193797674e-19
-5.752588134e-20
3.212882899e-34
1.401250174e-20
2.344672806e-23
3.158337886e-20
5.506593942e-23
3.467937684e-20
9.583052178e-23
3.254567433e-20
1.473973515e-22
2.739629928e-20
2.084713429e-22
2.051407412e-20
2.754563055e-22
1.312212761e-20
3.412161818e-22
6.318887076e-21
4.006036294e-22
1.03623733e-21
4.510356201e-22
-1.957710274e-21
4.915819455e-22
-2.210232562e-21
5.237023237e-22
1.101636125e-22
5.455774569e-22
4.125707275e-21
5.508241064e-22
8.964709911e-21
5.398253495e-22
5.087395308e-22
-1.48451537e-18
8.032061087e-21
-1.47889858e-18
7.603310713e-21
-1.464637725e-18
6.120066278e-21
-1.436618771e-18
2.218611919e-21
-1.387602098e-18
-6.171302031e-21
-1.308174185e-18
-2.183194464e-20
-1.186949912e-18
-4.815512717e-20
-1.011894826e-18
-8.868978357e-20
-7.739655072e-19
-1.458484054e-19
-4.754757381e-19
-2.177609623e-19
-1.470011385e-19
-2.911125055e-19
1.263862354e-19
-3.261157138e-19
2.798145978e-19
-2.280093714e-19
-8.751882899e-20
1.628952357e-19
-5.750243461e-20
1.781307994e-32
1.404412095e-20
-7.153652107e-20
3.162414344e-20
-1.75419746e-20
3.473094367e-20
-3.028823774e-21
3.260674832e-20
2.252938794e-21
2.746328424e-20
5.337840839e-21
2.0579834e-20
7.149370685e-21
1.318151505e-20
7.738211382e-21
6.369319066e-21
7.222665768e-21
1.076783656e-21
5.765144206e-21
-1.925589895e-21
3.52791081e-21
-2.188357429e-21
8.242811527e-22
1.15410262e-22
-1.725611735e-21
4.114708519e-21
-3.41350395e-21
8.933624091e-21
-4.257519177e-21
-3.065372684e-21
-1.482670435e-18
-7.675424057e-21
-1.479140967e-18
-1.421177323e-20
-1.469001522e-18
-2.760497458e-20
-1.447996062e-18
-4.985737491e-20
-1.41004676e-18
-8.439207856e-20
-1.34709795e-18
-1.358732148e-19
-1.248915426e-18
-2.099184701e-19
-1.103218083e-18
-3.123997247e-19
-8.96158269e-19
-4.478444168e-19
-6.128220998e-19
-6.161198805e-19
-2.364193963e-19
-8.061743451e-19
2.482990259e-19
-9.852584712e-19
6.111522593e-19
-1.08351675e-18
8.574280945e-19
-9.814332355e-19
1.392891973e-19
4.433515201e-33
6.803866736e-20
-3.012888701e-22
4.613729425e-20
4.336089731e-21
4.001270621e-20
3.076046553e-21
3.569165035e-20
6.559389217e-21
2.927481406e-20
1.173854289e-20
2.116867468e-20
1.524658929e-20
1.266596945e-20
1.624327408e-20
4.911797491e-21
1.499167977e-20
-1.160449737e-21
1.186566491e-20
-4.629219547e-21
7.029394326e-21
-4.738250314e-21
9.66525877e-22
-1.57248195e-21
-4.862421975e-21
3.270693284e-21
-8.249122917e-21
1.012577058e-20
-1.109026231e-20
-1.33184575e-20
-1.499439917e-18
-1.734455146e-20
-1.501744661e-18
-2.798531583e-20
-1.502529667e-18
-4.935983524e-20
-1.49908643e-18
-8.384827878e-20
-1.487454243e-18
-1.357125449e-19
-1.462276006e-18
-2.108180652e-19
-1.416470407e-18
-3.162942584e-19
-1.340990444e-18
-4.598432829e-19
-1.224565637e-18
-6.483109429e-19
-1.053228841e-18
-8.849819347e-19
-8.089870642e-19
-1.164865614e-18
-4.697265659e-19
-1.466765885e-18
-1.22774067e-19
-1.737897135e-18
2.154452342e-19
-1.827626724e-18
2.023315866e-19
-1.001194913e-18
7.267604604e-20
1.293402446e-19
4.487725111e-20
3.211650991e-20
4.349604891e-20
4.437389784e-21
4.087080408e-20
9.160183342e-21
3.278286047e-20
1.981567807e-20
2.216535949e-20
2.586109895e-20
1.141437517e-20
2.700244292e-20
1.785782616e-21
2.464114176e-20
-5.996720322e-21
1.967374098e-20
-1.0692088e-20
1.176065755e-20
-1.056719817e-20
8.623932802e-22
-4.959182892e-21
-1.047296842e-20
4.295538786e-22
-1.360160146e-20
7.897575419e-21
-1.853704766e-20
-5.553797955e-20
-1.528751244e-18
-1.700542857e-20
-1.539348288e-18
-2.901344044e-20
-1.555505757e-18
-5.3027715e-20
-1.576506002e-18
-9.149494001e-20
-1.601150769e-18
-1.48847062e-19
-1.627764855e-18
-2.311777731e-19
-1.654034325e-18
-3.458655493e-19
-1.677097525e-18
-5.008351486e-19
-1.694250634e-18
-7.029784008e-19
-1.70530563e-18
-9.54899745e-19
-1.718928647e-18
-1.248302774e-18
-1.767414375e-18
-1.550143816e-18
-1.906841384e-18
-1.77211298e-18
-1.955497611e-18
-1.697220792e-18
-1.740558399e-18
-7.430120515e-19
-8.789136654e-20
-8.018636112e-33
1.719813094e-20
-7.299398093e-20
4.821884247e-20
-2.660491419e-20
5.152629885e-20
5.855742142e-21
3.882828133e-20
3.248689159e-20
2.330670346e-20
4.138167012e-20
9.053074051e-21
4.127410887e-20
-3.18161821e-21
3.689828747e-20
-1.390980375e-20
3.043142743e-20
-2.159035228e-20
1.944640242e-20
-2.190255988e-20
1.197945686e-21
-8.087815937e-21
-2.425310153e-20
-4.505892348e-21
-1.715387788e-20
-1.2169558e-19
9.868776582e-20
-1.685646226e-19
-1.561989225e-18
-5.042511837e-21
-1.58166713e-18
-1.548207278e-20
-1.614575166e-18
-3.64235704e-20
-1.66205081e-18
-7.007286003e-20
-1.725727883e-18
-1.203498409e-19
-1.807652291e-18
-1.925740919e-19
-1.910127056e-18
-2.931019384e-19
-2.035537192e-18
-4.28605883e-19
-2.186020773e-18
-6.045527642e-19
-2.362512036e-18
-8.220418972e-19
-2.561311383e-18
-1.071657573e-18
-2.762036712e-18
-1.322124517e-18
-2.88570592e-18
-1.502336086e-18
-2.715574352e-18
-1.483739608e-18
-1.228963944e-18
-1.152801948e-18
-3.419799118e-20
-4.125825909e-19
6.358719765e-20
-1.707864785e-19
8.067949865e-20
-4.368244926e-20
7.815744822e-20
8.333006425e-21
4.772305974e-20
6.291198259e-20
2.319914218e-20
6.589473993e-20
4.677252696e-21
5.980687335e-20
-9.648478289e-21
5.124094319e-20
-2.489482871e-20
4.567055491e-20
-3.983880895e-20
3.446193807e-20
-4.735360703e-20
8.739705708e-21
-9.885922914e-22
-7.059917738e-20
1.113357513e-19
-1.294536527e-19
3.234442445e-19
-1.134057245e-19
5.090188076e-19
-1.589754373e-18
1.76899306e-20
-1.617564713e-18
1.138960557e-20
-1.665412069e-18
-1.484335332e-21
-1.73637706e-18
-2.265316257e-20
-1.834465903e-18
-5.496016111e-20
-1.964781309e-18
-1.021509143e-19
-2.133246761e-18
-1.685999658e-19
-2.345962721e-18
-2.588372222e-19
-2.607548019e-18
-3.765542744e-19
-2.91717733e-18
-5.227963971e-19
-3.2590062e-18
-6.930553642e-19
-3.580437246e-18
-8.741268033e-19
-3.746097022e-18
-1.044963625e-18
-3.47692833e-18
-1.19463191e-18
-2.500738112e-18
-1.384079095e-18
-3.722877183e-19
-1.769450532e-18
1.906912265e-19
-1.511559512e-18
1.326949544e-19
1.429324316e-20
1.327364246e-19
8.285644636e-21
5.070581705e-20
1.448975701e-19
1.711127564e-20
9.947318937e-20
-3.888677378e-21
8.081304908e-20
-1.521886666e-20
6.257117344e-20
-3.610344558e-20
6.662564588e-20
-6.556104136e-20
6.395298842e-20
-1.266924902e-19
6.988460438e-20
-5.98430676e-20
-1.374438652e-19
1.499143324e-20
-2.042881535e-19
-2.541311733e-19
8.448539733e-19
2.541311731e-19
-1.603692961e-18
4.819137994e-20
-1.6371993e-18
4.776050963e-20
-1.695457311e-18
4.62982291e-20
-1.782676289e-18
4.272542706e-20
-1.904408559e-18
3.56245457e-20
-2.06773052e-18
2.334276046e-20
-2.280946957e-18
4.078967823e-21
-2.552755731e-18
-2.396753571e-20
-2.890421515e-18
-6.233576609e-20
-3.296125595e-18
-1.118431097e-19
-3.760652344e-18
-1.720858995e-19
-4.254129284e-18
-2.417136403e-19
-4.716978937e-18
-3.221534003e-19
-5.064521246e-18
-4.303670658e-19
-5.186158238e-18
-6.256589305e-19
-4.945666001e-18
-1.004387281e-18
-2.855270244e-18
-1.319277877e-18
5.445651315e-32
-4.148352698e-19
2.202997809e-19
-5.738586694e-19
5.281436083e-21
3.599001792e-19
-1.548864652e-21
1.063070423e-19
-2.213055294e-20
1.014085543e-19
-1.116439431e-20
5.163550275e-20
-3.877610304e-20
9.426327994e-20
-5.96294253e-20
8.481224603e-20
-2.849723905e-19
2.952275696e-19
-7.041064149e-32
-1.057560562e-18
-6.717726166e-19
-1.137947854e-19
-5.210395183e-19
5.9149252e-19
-4.363613348e-33
-1.598054179e-18
8.204080583e-20
-1.633849068e-18
8.80445358e-20
-1.69620211e-18
9.907632727e-20
-1.789662137e-18
1.147338594e-19
-1.920240991e-18
1.351305958e-19
-2.095636744e-18
1.60871565e-19
-2.324941428e-18
1.929438888e-19
-2.617853712e-18
2.325237447e-19
-2.983013209e-18
2.805367002e-19
-3.425216057e-18
3.370240641e-19
-3.942137892e-18
4.003812321e-19
-4.524001453e-18
4.674653834e-19
-5.166224261e-18
5.371569314e-19
-5.91376646e-18
6.23259831e-19
-6.926427665e-18
7.816715581e-19
-8.51137404e-18
1.10316127e-18
-1.046947217e-17
1.353154036e-18
-1.02404417e-17
4.009882078e-19
-8.382516773e-18
5.857560742e-19
-4.873913004e-19
-3.598596225e-19
-2.747755051e-19
-1.062969677e-19
-7.190360433e-20
-1.014486827e-19
3.146338275e-20
-5.17193645e-20
2.201010157e-19
-9.438049397e-20
3.89865498e-19
-8.49532663e-20
5.386129157e-18
-2.953463945e-19
2.316165321e-18
1.153958025e-18
1.001858992e-18
2.674789814e-19
8.737654111e-19
-7.321603061e-19
2.419591806e-33
-1.570721236e-18
1.143577149e-19
-1.605100243e-18
1.260950594e-19
-1.664684602e-18
1.48248579e-19
-1.753499881e-18
1.809835209e-19
-1.876837959e-18
2.257962867e-19
-2.041529232e-18
2.853251484e-19
-2.255646692e-18
3.631530122e-19
-2.527789898e-18
4.632273697e-19
-2.865231887e-18
5.887756955e-19
-3.270353378e-18
7.401932963e-19
-3.734220306e-18
9.119124838e-19
-4.227315761e-18
1.088844086e-18
-4.690171591e-18
1.247147938e-18
-5.037444605e-18
1.372321036e-18
-5.157690726e-18
1.521661246e-18
-4.931549377e-18
1.853587798e-18
-2.832072611e-18
1.514527213e-18
5.458743615e-32
-1.411125438e-20
2.203403376e-19
-8.070191544e-21
5.250953948e-21
-1.447822853e-19
-1.599067615e-21
-9.944132389e-20
-2.21742863e-20
-8.086327775e-20
-1.11977466e-20
-6.26929528e-20
-3.879990929e-20
-6.677925324e-20
-5.96072299e-20
-6.412637703e-20
-2.848535657e-19
-7.008708696e-20
-7.194741463e-32
1.371876426e-19
-6.037282304e-19
2.041126043e-19
-4.881416564e-19
-8.104790468e-19
-2.543026348e-19
-1.523519488e-18
-1.553210549e-18
-1.603962119e-18
-1.678437652e-18
-1.780139476e-18
-1.913598544e-18
-2.08427272e-18
-2.297971759e-18
-2.559376637e-18
-2.868051483e-18
-3.208964445e-18
-3.530410495e-18
-3.697396441e-18
-3.430357938e-18
-2.463163955e-18
-3.353478234e-19
1.908732153e-19
1.327284187e-19
1.32676813e-19
5.05919156e-20
1.697897853e-20
-4.003961425e-21
-1.528404695e-20
-3.614703308e-20
-6.556793994e-20
-1.266274054e-19
-5.976239416e-20
1.516698245e-20
-2.54302635e-19
)
;

boundaryField
{
    lowerWall
    {
        type            calculated;
        value           nonuniform 0();
    }
    atmosphere
    {
        type            calculated;
        value           nonuniform List<scalar> 
20
(
1.251174184e-18
1.440459165e-18
1.574763478e-18
1.654918647e-18
1.686324269e-18
1.678425921e-18
1.643538775e-18
1.595207806e-18
1.546360349e-18
1.507568057e-18
1.485708758e-18
1.483248957e-18
1.498235525e-18
1.524996291e-18
1.555431853e-18
1.580681157e-18
1.592849474e-18
1.586491283e-18
1.559579145e-18
1.513796227e-18
)
;
    }
    rightWall
    {
        type            empty;
        value           nonuniform 0();
    }
    leftWall
    {
        type            empty;
        value           nonuniform 0();
    }
    frontAndBack
    {
        type            calculated;
        value           nonuniform 0();
    }
    procBoundary2to0
    {
        type            processor;
        value           nonuniform List<scalar> 
30
(
5.278546688e-19
5.885679742e-19
6.964741505e-19
8.400009091e-19
1.010624813e-18
1.202165926e-18
1.409697013e-18
1.628230818e-18
1.851056483e-18
2.066983405e-18
2.25535451e-18
2.376779093e-18
2.358317004e-18
2.08147472e-18
1.463842539e-18
4.60851044e-19
1.667459026e-19
3.892081507e-20
-1.436419971e-20
-6.910792615e-20
-7.198297533e-20
-6.568214801e-20
-5.677554234e-20
-5.072289415e-20
-3.887277421e-20
-1.247551138e-20
6.755538816e-20
1.275548129e-19
1.123400826e-19
-5.088032848e-19
)
;
    }
    procBoundary2to3
    {
        type            processor;
        value           nonuniform List<scalar> 
20
(
2.202527666e-21
1.966099217e-19
1.616186893e-19
1.966277873e-19
1.937773564e-21
-3.53426133e-19
-8.230456594e-21
5.038435989e-20
2.052675079e-20
1.256962923e-20
1.252598012e-20
2.039093339e-20
5.013381437e-20
-8.655242373e-21
-3.541321038e-19
7.573050877e-22
1.948465285e-19
1.599680525e-19
1.947543037e-19
6.689207349e-22
)
;
    }
    procBoundary2to4
    {
        type            processor;
        value           nonuniform List<scalar> 
30
(
1.408478114e-19
1.565004817e-19
1.861851441e-19
2.304457182e-19
2.916967836e-19
3.740744403e-19
4.831104446e-19
6.250455662e-19
8.051219445e-19
1.024199667e-18
1.272105215e-18
1.515819753e-18
1.680835826e-18
1.633450319e-18
1.254260578e-18
4.424627399e-19
1.710770819e-19
4.399323133e-20
-8.048951359e-21
-6.271316209e-20
-6.582992988e-20
-5.987237828e-20
-5.140747482e-20
-4.59040531e-20
-3.469600655e-20
-8.967477061e-21
7.035234299e-20
1.291891611e-19
1.13014296e-19
-5.093035228e-19
)
;
    }
}


// ************************************************************************* //
