/*--------------------------------*- C++ -*----------------------------------*\
  =========                 |
  \\      /  F ield         | OpenFOAM: The Open Source CFD Toolbox
   \\    /   O peration     | Website:  https://openfoam.org
    \\  /    A nd           | Version:  6
     \\/     M anipulation  |
\*---------------------------------------------------------------------------*/
FoamFile
{
    version     2.0;
    format      ascii;
    class       volVectorField;
    location    "0.0056";
    object      gradT;
}
// * * * * * * * * * * * * * * * * * * * * * * * * * * * * * * * * * * * * * //

dimensions      [0 -1 0 1 0 0 0];

internalField   nonuniform List<vector> 
600
(
(0 -6.670384423e-08 -3.212361847e-05)
(0 -1.962998847e-07 -3.238662225e-05)
(0 -3.30660485e-07 -3.291167674e-05)
(0 -4.669269096e-07 -3.37064054e-05)
(0 -6.060520713e-07 -3.47765257e-05)
(0 -7.508947036e-07 -3.612966077e-05)
(0 -8.976431609e-07 -3.777438699e-05)
(0 -1.046297444e-06 -3.971642183e-05)
(0 -1.196857548e-06 -4.196243549e-05)
(0 -1.344558917e-06 -4.451052234e-05)
(0 -1.48368408e-06 -4.735305909e-05)
(0 -1.607562646e-06 -5.046717563e-05)
(0 -1.700948028e-06 -5.380903823e-05)
(0 -1.751452369e-06 -5.731289593e-05)
(-1.239779192e-25 -1.746687808e-06 -6.088059866e-05)
(1.239779192e-25 -1.665690282e-06 -6.437778592e-05)
(0 -1.4932132e-06 -6.76357923e-05)
(0 -1.218774525e-06 -7.045164736e-05)
(0 -8.423742614e-07 -7.261475774e-05)
(0 -3.811648247e-07 -7.391548281e-05)
(0 1.457955452e-07 -7.420135632e-05)
(0 7.204015177e-07 -7.337422865e-05)
(0 1.332171062e-06 -7.136549014e-05)
(0 1.997303679e-06 -6.80922371e-05)
(0 2.71961102e-06 -6.342963839e-05)
(0 3.481940674e-06 -5.725095668e-05)
(0 4.242364493e-06 -4.94847233e-05)
(0 4.927508264e-06 -4.020050109e-05)
(0 5.467809411e-06 -2.962031853e-05)
(0 2.845395412e-06 -1.811581118e-05)
(0 -1.962998874e-07 -3.194733022e-05)
(0 -5.898525751e-07 -3.220652235e-05)
(0 -9.891227336e-07 -3.272871812e-05)
(0 -1.398874926e-06 -3.351772932e-05)
(0 -1.817203329e-06 -3.458308507e-05)
(0 -2.247919584e-06 -3.592954978e-05)
(0 -2.689117875e-06 -3.756760563e-05)
(0 -3.140798203e-06 -3.950868759e-05)
(0 -3.597243082e-06 -4.175851294e-05)
(0 -4.047017581e-06 -4.432184642e-05)
(0 -4.470110549e-06 -4.719106475e-05)
(0 -4.849369548e-06 -5.035092112e-05)
(0 -5.147631028e-06 -5.376329926e-05)
(0 -5.319155207e-06 -5.737388317e-05)
(0 -5.319155203e-06 -6.108261693e-05)
(0 -5.089503393e-06 -6.475704589e-05)
(0 -4.579695436e-06 -6.821802259e-05)
(0 -3.759238135e-06 -7.125400039e-05)
(0 -2.621461118e-06 -7.362103398e-05)
(0 -1.2073396e-06 -7.508851869e-05)
(0 3.964114231e-07 -7.547063632e-05)
(0 2.116417718e-06 -7.470640083e-05)
(0 3.950773468e-06 -7.277865982e-05)
(0 5.93854805e-06 -6.961880327e-05)
(0 8.121669613e-06 -6.507817723e-05)
(0 1.046106877e-05 -5.895571724e-05)
(0 1.28080912e-05 -5.110658039e-05)
(0 1.493784968e-05 -4.15822242e-05)
(0 1.661688078e-05 -3.060944171e-05)
(0 8.660064935e-06 -1.860370243e-05)
(0 -3.258959247e-07 -3.159379936e-05)
(0 -9.786406875e-07 -3.185013276e-05)
(0 -1.642820392e-06 -3.236565813e-05)
(0 -2.321293779e-06 -3.314418729e-05)
(0 -3.016919588e-06 -3.419524934e-05)
(0 -3.736368189e-06 -3.552742035e-05)
(0 -4.47678086e-06 -3.715404124e-05)
(0 -5.237204692e-06 -3.908940569e-05)
(0 -6.009063453e-06 -4.134304265e-05)
(0 -6.777110574e-06 -4.392638725e-05)
(0 -7.512758696e-06 -4.684515696e-05)
(0 -8.179797127e-06 -5.009172828e-05)
(0 -8.723909913e-06 -5.364704318e-05)
(0 -9.070769913e-06 -5.745678566e-05)
(-1.239779192e-25 -9.129850455e-06 -6.144758133e-05)
(1.239779192e-25 -8.801095794e-06 -6.548030517e-05)
(0 -7.989214723e-06 -6.937009225e-05)
(0 -6.621785908e-06 -7.286918526e-05)
(0 -4.678798217e-06 -7.568122875e-05)
(0 -2.228861313e-06 -7.750033799e-05)
(0 5.279132815e-07 -7.803587445e-05)
(0 3.410472264e-06 -7.735740106e-05)
(0 6.419768561e-06 -7.557450271e-05)
(0 9.698738951e-06 -7.267383829e-05)
(0 1.338174406e-05 -6.844576748e-05)
(0 1.745449024e-05 -6.251198417e-05)
(0 2.161681009e-05 -5.451419315e-05)
(0 2.542464668e-05 -4.450099322e-05)
(0 2.844537796e-05 -3.270584779e-05)
(0 1.48539932e-05 -1.96185535e-05)
(0 -4.526332287e-07 -3.107065064e-05)
(0 -1.360758424e-06 -3.131936074e-05)
(0 -2.283177297e-06 -3.182154535e-05)
(0 -3.228466061e-06 -3.258196917e-05)
(0 -4.198530545e-06 -3.360920842e-05)
(0 -5.20766441e-06 -3.491850954e-05)
(0 -6.251103116e-06 -3.652416636e-05)
(0 -7.32979958e-06 -3.844142549e-05)
(0 -8.436130471e-06 -4.069410954e-05)
(0 -9.548178845e-06 -4.329937111e-05)
(0 -1.063545152e-05 -4.627722137e-05)
(0 -1.165030285e-05 -4.963814214e-05)
(0 -1.251173535e-05 -5.338213362e-05)
(0 -1.312159909e-05 -5.748918467e-05)
(1.239779192e-25 -1.334172176e-05 -6.189354418e-05)
(-1.239779192e-25 -1.301392002e-05 -6.648372157e-05)
(0 -1.196857549e-05 -7.105865242e-05)
(0 -1.006942174e-05 -7.531912217e-05)
(0 -7.250707868e-06 -7.889063657e-05)
(0 -3.562938199e-06 -8.13481969e-05)
(0 5.374424021e-07 -8.197711873e-05)
(0 4.580648274e-06 -8.12710109e-05)
(0 8.63338328e-06 -7.964057848e-05)
(0 1.306728308e-05 -7.720588805e-05)
(0 1.82835237e-05 -7.365724353e-05)
(0 2.439264296e-05 -6.825994973e-05)
(0 3.081908186e-05 -6.004680058e-05)
(0 3.674619487e-05 -4.92950938e-05)
(0 4.149932029e-05 -3.61592011e-05)
(0 2.174831195e-05 -2.124422148e-05)
(0 -5.746059811e-07 -3.037693112e-05)
(0 -1.729535418e-06 -3.061706501e-05)
(0 -2.905428916e-06 -3.110019138e-05)
(0 -4.108956866e-06 -3.183488659e-05)
(0 -5.355365868e-06 -3.282877394e-05)
(0 -6.649420457e-06 -3.410186442e-05)
(0 -7.999696867e-06 -3.566940478e-05)
(0 -9.407148016e-06 -3.755521783e-05)
(0 -1.086796221e-05 -3.978789077e-05)
(0 -1.235926961e-05 -4.239982276e-05)
(0 -1.385152994e-05 -4.542913032e-05)
(0 -1.52866155e-05 -4.891011806e-05)
(0 -1.657399972e-05 -5.287613811e-05)
(0 -1.758218071e-05 -5.734053124e-05)
(0 -1.812438767e-05 -6.228900362e-05)
(0 -1.796429844e-05 -6.764055783e-05)
(0 -1.682461561e-05 -7.319984692e-05)
(0 -1.445567617e-05 -7.86104816e-05)
(0 -1.070692007e-05 -8.337313615e-05)
(0 -5.315343561e-06 -8.719145497e-05)
(0 6.050991674e-07 -8.742015373e-05)
(0 5.746059811e-06 -8.627570633e-05)
(0 1.048584449e-05 -8.467672e-05)
(0 1.568207401e-05 -8.300435918e-05)
(0 2.232863573e-05 -8.086221284e-05)
(0 3.106302786e-05 -7.696194383e-05)
(0 4.058261944e-05 -6.823708076e-05)
(0 4.931129404e-05 -5.657057823e-05)
(0 5.649529826e-05 -4.146692191e-05)
(0 2.977278486e-05 -2.363698401e-05)
(0 -6.918141559e-07 -2.952407437e-05)
(0 -2.084018679e-06 -2.975086748e-05)
(0 -3.50099891e-06 -3.021017105e-05)
(0 -4.957048538e-06 -3.09096085e-05)
(0 -6.467414164e-06 -3.185870896e-05)
(0 -8.046389438e-06 -3.307653053e-05)
(0 -9.704456423e-06 -3.45830845e-05)
(0 -1.144828551e-05 -3.64117228e-05)
(0 -1.328073539e-05 -3.859389136e-05)
(0 -1.519037116e-05 -4.118295343e-05)
(0 -1.714574673e-05 -4.422941335e-05)
(0 -1.909635769e-05 -4.780378642e-05)
(0 -2.094119544e-05 -5.197849416e-05)
(0 -2.253541734e-05 -5.682786369e-05)
(0 -2.364079532e-05 -6.24090696e-05)
(0 -2.392571602e-05 -6.872306492e-05)
(0 -2.293945205e-05 -7.564025361e-05)
(0 -2.02427109e-05 -8.270990811e-05)
(0 -1.583168097e-05 -8.896196414e-05)
(0 -7.609955726e-06 -9.679585433e-05)
(0 1.454143804e-06 -9.441357403e-05)
(0 7.323129184e-06 -9.190550949e-05)
(0 1.190377748e-05 -8.995680446e-05)
(0 1.688179006e-05 -8.94412789e-05)
(0 2.432593908e-05 -8.999301499e-05)
(0 3.701968069e-05 -9.064004241e-05)
(0 5.121044704e-05 -7.950526485e-05)
(0 6.351635339e-05 -6.739470547e-05)
(0 7.443196115e-05 -4.958477914e-05)
(0 3.958015534e-05 -2.70931957e-05)
(0 -8.023519549e-07 -2.851970506e-05)
(0 -2.416584989e-06 -2.873220449e-05)
(0 -4.063217026e-06 -2.916101487e-05)
(0 -5.756541757e-06 -2.981185381e-05)
(0 -7.521334904e-06 -3.06999679e-05)
(0 -9.375701762e-06 -3.18415565e-05)
(0 -1.133488896e-05 -3.326234838e-05)
(0 -1.341795474e-05 -3.499474256e-05)
(0 -1.563919274e-05 -3.70882903e-05)
(0 -1.799479135e-05 -3.959635485e-05)
(0 -2.047236274e-05 -4.260088664e-05)
(0 -2.303760197e-05 -4.620003543e-05)
(0 -2.559807668e-05 -5.051863288e-05)
(0 -2.801085005e-05 -5.570247455e-05)
(0 -3.002054156e-05 -6.192022571e-05)
(0 -3.119548214e-05 -6.934150484e-05)
(0 -3.081050568e-05 -7.807399102e-05)
(0 -2.777643365e-05 -8.778225901e-05)
(0 -2.479477181e-05 -9.314238935e-05)
(0 -1.076695339e-05 -0.0001168003372)
(0 5.495443852e-06 -0.0001017147862)
(0 1.020473526e-05 -9.716367824e-05)
(0 1.294912201e-05 -9.397809336e-05)
(0 1.564491021e-05 -9.499675622e-05)
(0 2.112987203e-05 -9.920291005e-05)
(0 4.155268337e-05 -0.0001162752827)
(0 6.382604981e-05 -9.189883911e-05)
(0 7.923177909e-05 -8.404684373e-05)
(0 9.679966598e-05 -6.247672642e-05)
(0 5.226722651e-05 -3.216364078e-05)
(0 -9.05266471e-07 -2.737906973e-05)
(0 -2.723422714e-06 -2.757251092e-05)
(0 -4.581601255e-06 -2.796225192e-05)
(0 -6.496001613e-06 -2.855496323e-05)
(0 -8.496164071e-06 -2.936398563e-05)
(0 -1.060877013e-05 -3.040551848e-05)
(0 -1.285859554e-05 -3.170719637e-05)
(0 -1.527422767e-05 -3.330618289e-05)
(0 -1.788234799e-05 -3.524726473e-05)
(0 -2.070296774e-05 -3.760572212e-05)
(0 -2.374942767e-05 -4.047112879e-05)
(0 -2.701219858e-05 -4.397689225e-05)
(0 -3.044458788e-05 -4.829358395e-05)
(0 -3.393701066e-05 -5.36518086e-05)
(0 -3.72798262e-05 -6.034792172e-05)
(0 -4.007948188e-05 -6.877833485e-05)
(0 -4.13811598e-05 -7.96767903e-05)
(0 -3.531110984e-05 -9.736474415e-05)
(0 -4.484975971e-05 -7.919556962e-05)
(0 -1.618330579e-05 -6.537739172e-05)
(0 2.109175586e-05 -5.257597081e-05)
(0 1.505982243e-05 -4.977250349e-05)
(0 1.407165263e-05 -4.771993095e-05)
(0 1.16560205e-05 -4.865187889e-05)
(0 3.047412815e-06 -5.170786791e-05)
(0 4.432375231e-05 -6.67410089e-05)
(0 8.343984e-05 -8.793758499e-05)
(0 9.293751465e-05 -0.0001145629013)
(0 0.0001263142132 -8.422122803e-05)
(0 6.989705359e-05 -4.003564791e-05)
(0 -9.967460152e-07 -2.61212254e-05)
(0 -2.998814259e-06 -2.629084379e-05)
(0 -5.04566936e-06 -2.663389209e-05)
(0 -7.158275398e-06 -2.715704081e-05)
(0 -9.37284304e-06 -2.786981907e-05)
(0 -1.171891252e-05 -2.878842626e-05)
(0 -1.423460036e-05 -2.993859111e-05)
(0 -1.695992888e-05 -3.135080683e-05)
(0 -1.993682613e-05 -3.307748344e-05)
(0 -2.321865526e-05 -3.518818366e-05)
(0 -2.684543861e-05 -3.779058655e-05)
(0 -3.086005708e-05 -4.103429915e-05)
(0 -3.527394574e-05 -4.512991518e-05)
(0 -4.006423471e-05 -5.037188448e-05)
(0 -4.514611471e-05 -5.715566541e-05)
(0 -5.052435038e-05 -6.58776695e-05)
(0 -5.939691461e-05 -7.463779012e-05)
(0 -2.729616597e-05 -5.207187954e-05)
(0 7.194486056e-06 -3.37931204e-05)
(0 1.585264506e-05 8.124528239e-06)
(0 2.110128467e-05 4.979918428e-06)
(0 1.505886929e-05 6.544600031e-06)
(0 1.407069951e-05 6.19297549e-06)
(0 1.165697324e-05 6.669431511e-06)
(0 3.038836561e-06 6.295889983e-06)
(0 5.322013865e-06 1.18342149e-05)
(0 1.600606388e-05 -3.107827394e-05)
(0 8.294813612e-05 -6.74680797e-05)
(0 0.0001713269183 -0.000119956382)
(0 9.646138205e-05 -5.354508159e-05)
(0 -1.074884804e-06 -2.476046698e-05)
(0 -3.237995186e-06 -2.490530965e-05)
(0 -5.445892425e-06 -2.519594779e-05)
(0 -7.731928458e-06 -2.563714607e-05)
(0 -1.012754939e-05 -2.624033945e-05)
(0 -1.267754205e-05 -2.701315109e-05)
(0 -1.542002296e-05 -2.797559227e-05)
(0 -1.841311977e-05 -2.915434453e-05)
(0 -2.171972459e-05 -3.059419461e-05)
(0 -2.541702339e-05 -3.235708192e-05)
(0 -2.95945899e-05 -3.45478268e-05)
(0 -3.435247978e-05 -3.731889502e-05)
(0 -3.978312561e-05 -4.090756184e-05)
(0 -4.596180746e-05 -4.564544065e-05)
(0 -5.278656361e-05 -5.213191302e-05)
(0 -5.756065304e-05 -6.30570498e-05)
(0 -2.757632215e-05 -3.64136286e-05)
(0 5.535466159e-06 4.534908496e-06)
(0 1.534760165e-05 6.9371998e-06)
(0 2.258782751e-05 1.479872432e-05)
(0 1.950992153e-05 1.023618135e-05)
(0 1.627383217e-05 1.184088526e-05)
(0 1.41964839e-05 1.15816932e-05)
(0 1.175988774e-05 1.254413436e-05)
(0 8.212196137e-06 1.29977205e-05)
(0 6.949587667e-06 2.071821405e-05)
(0 4.137544166e-06 1.732679999e-05)
(0 4.060358289e-06 1.136919379e-05)
(0 0.0001402362565 -6.704689267e-05)
(0 0.0001363235994 -0.0001180591339)
(0 -1.139682841e-06 -2.331966429e-05)
(0 -3.435248034e-06 -2.34359196e-05)
(0 -5.777505909e-06 -2.367033594e-05)
(0 -8.203620051e-06 -2.402577214e-05)
(0 -1.074789531e-05 -2.450413404e-05)
(0 -1.345511849e-05 -2.511399773e-05)
(0 -1.637769983e-05 -2.586393953e-05)
(0 -1.957662569e-05 -2.677015896e-05)
(0 -2.314051682e-05 -2.78583845e-05)
(0 -2.71713349e-05 -2.917340317e-05)
(0 -3.180725219e-05 -3.079621248e-05)
(0 -3.721979273e-05 -3.286879619e-05)
(0 -4.359858615e-05 -3.561699462e-05)
(0 -5.128858665e-05 -3.925140131e-05)
(6.198896051e-26 -6.255772482e-05 -4.276192937e-05)
(-6.198896051e-26 -3.480606646e-05 -3.637551264e-05)
(0 8.194090939e-06 -3.561985339e-06)
(0 1.605275681e-05 7.236414295e-06)
(0 1.745830212e-05 1.342081366e-05)
(0 1.915448564e-05 1.121101058e-05)
(0 1.81434459e-05 9.315668442e-06)
(0 1.640438137e-05 9.274693223e-06)
(0 1.477299592e-05 9.551037739e-06)
(0 1.307300075e-05 1.05906648e-05)
(0 1.121482221e-05 1.244789043e-05)
(0 9.650140595e-06 1.642343963e-05)
(0 6.654185018e-06 1.943083012e-05)
(0 -1.425556464e-06 2.670631381e-05)
(0 4.19004969e-05 3.213886559e-05)
(0 9.085540176e-05 -6.72536755e-05)
(0 -1.191140076e-06 -2.182359201e-05)
(0 -3.589619737e-06 -2.191125995e-05)
(0 -6.036697903e-06 -2.208850156e-05)
(0 -8.565726511e-06 -2.23524582e-05)
(0 -1.121672788e-05 -2.270217696e-05)
(0 -1.403544174e-05 -2.313861065e-05)
(0 -1.707618412e-05 -2.365890064e-05)
(0 -2.04066118e-05 -2.426590565e-05)
(0 -2.412392172e-05 -2.495867269e-05)
(0 -2.835580418e-05 -2.575054261e-05)
(0 -3.328807706e-05 -2.666533823e-05)
(0 -3.917326189e-05 -2.780502101e-05)
(0 -4.616573059e-05 -2.951263942e-05)
(0 -5.310769501e-05 -3.305366067e-05)
(0 -4.991067501e-05 -4.335845168e-05)
(0 -1.83616625e-05 -8.571443987e-06)
(0 1.603655708e-05 3.289452436e-06)
(0 2.251921781e-05 5.890902358e-06)
(0 1.932219785e-05 7.750033787e-06)
(0 1.848268235e-05 7.299306394e-06)
(0 1.757360422e-05 6.536976734e-06)
(0 1.650824853e-05 6.386416629e-06)
(0 1.551245545e-05 6.758052343e-06)
(0 1.46567404e-05 7.827219664e-06)
(0 1.404592377e-05 9.798794717e-06)
(0 1.393252726e-05 1.312731656e-05)
(0 1.442041821e-05 1.7911888e-05)
(0 1.676934644e-05 2.69826579e-05)
(0 4.627531555e-05 4.579600078e-05)
(0 6.844100292e-05 2.506349301e-05)
(0 -1.227350734e-06 -2.029893271e-05)
(0 -3.700157536e-06 -2.03589662e-05)
(0 -6.218704106e-06 -2.047712727e-05)
(0 -8.817295295e-06 -2.064960435e-05)
(0 -1.153309468e-05 -2.087353871e-05)
(0 -1.441279491e-05 -2.11355895e-05)
(0 -1.750499455e-05 -2.14281335e-05)
(0 -2.087735036e-05 -2.173211248e-05)
(0 -2.462420055e-05 -2.202179772e-05)
(0 -2.887704708e-05 -2.225621408e-05)
(0 -3.386173012e-05 -2.236675192e-05)
(0 -4.006614049e-05 -2.222953255e-05)
(0 -4.884817804e-05 -2.162824504e-05)
(0 -6.513535105e-05 -2.014932554e-05)
(0 -3.80745543e-05 -1.705903171e-05)
(0 1.184183818e-05 4.715008877e-06)
(0 2.265453135e-05 8.851600139e-06)
(0 2.051333792e-05 5.270556606e-06)
(0 1.88676588e-05 4.375772181e-06)
(0 1.794047539e-05 3.690628416e-06)
(0 1.722960296e-05 3.136033591e-06)
(0 1.662736254e-05 2.967368156e-06)
(0 1.621284582e-05 3.271347108e-06)
(0 1.611469585e-05 4.165178616e-06)
(0 1.651396601e-05 5.80418736e-06)
(0 1.776513957e-05 8.394202353e-06)
(0 2.050952628e-05 1.213533509e-05)
(0 2.645760336e-05 1.755835763e-05)
(0 3.998037847e-05 2.415536786e-05)
(0 4.884722513e-05 7.208779737e-06)
(0 -1.250220642e-06 -1.876855622e-05)
(0 -3.766861437e-06 -1.880190817e-05)
(0 -6.328289088e-06 -1.886480034e-05)
(0 -8.961185151e-06 -1.895246825e-05)
(0 -1.170271321e-05 -1.905538279e-05)
(0 -1.459098969e-05 -1.915829726e-05)
(0 -1.767270734e-05 -1.923834188e-05)
(0 -2.100122925e-05 -1.926597636e-05)
(0 -2.464802372e-05 -1.91926021e-05)
(0 -2.870075878e-05 -1.893817457e-05)
(0 -3.326139602e-05 -1.83616628e-05)
(0 -3.843475562e-05 -1.716956976e-05)
(0 -4.408552422e-05 -1.466245809e-05)
(0 -4.85384824e-05 -8.892575491e-06)
(0 -2.50472939e-05 6.451214749e-06)
(0 7.549922371e-06 6.456932221e-06)
(0 1.659305797e-05 3.934573961e-06)
(0 1.804434305e-05 1.949658105e-06)
(0 1.774036409e-05 7.794820771e-07)
(0 1.724294402e-05 -6.193928495e-08)
(0 1.685129713e-05 -6.584622436e-07)
(0 1.664260938e-05 -9.30995097e-07)
(0 1.671121908e-05 -8.13786913e-07)
(0 1.718958092e-05 -2.391809308e-07)
(0 1.827494777e-05 8.557150431e-07)
(0 2.026176948e-05 2.521405353e-06)
(0 2.358457385e-05 4.688327408e-06)
(0 2.879033251e-05 6.971504739e-06)
(0 3.592573818e-05 7.636637378e-06)
(0 4.085324647e-05 1.310254103e-06)
(0 -1.260702656e-06 -1.725437868e-05)
(0 -3.797354566e-06 -1.726486074e-05)
(0 -6.370217124e-06 -1.72801073e-05)
(0 -9.007877707e-06 -1.729440098e-05)
(0 -1.173892369e-05 -1.729058936e-05)
(0 -1.459480112e-05 -1.725247285e-05)
(0 -1.76117207e-05 -1.715337e-05)
(0 -2.083161058e-05 -1.695039976e-05)
(0 -2.429735172e-05 -1.659019897e-05)
(0 -2.804515485e-05 -1.598795855e-05)
(0 -3.209407824e-05 -1.501408245e-05)
(0 -3.636788879e-05 -1.346178868e-05)
(0 -4.057023097e-05 -1.099469935e-05)
(0 -4.402072559e-05 -7.23450837e-06)
(0 -2.272504683e-05 -2.976897278e-06)
(0 9.32615034e-06 -2.976897278e-06)
(0 1.814630439e-05 -1.534188419e-06)
(0 1.735824609e-05 -2.194556475e-06)
(0 1.685701435e-05 -3.156044744e-06)
(0 1.650157818e-05 -4.06702868e-06)
(0 1.636054717e-05 -4.786477279e-06)
(0 1.647203788e-05 -5.2305343e-06)
(0 1.690561289e-05 -5.362989084e-06)
(0 1.778324487e-05 -5.1752654e-06)
(0 1.927550516e-05 -4.664504536e-06)
(0 2.159679897e-05 -3.858340938e-06)
(0 2.496057851e-05 -2.873982774e-06)
(0 2.940496036e-05 -2.007785711e-06)
(0 3.431912791e-05 -1.906777036e-06)
(0 3.774675254e-05 -3.501951822e-06)
(0 -1.261655574e-06 -1.577736506e-05)
(0 -3.791637111e-06 -1.576688305e-05)
(0 -6.356876384e-06 -1.57411544e-05)
(0 -8.971667089e-06 -1.569350879e-05)
(0 -1.166078495e-05 -1.560298217e-05)
(0 -1.445472311e-05 -1.545242204e-05)
(0 -1.736968112e-05 -1.521038238e-05)
(0 -2.043805799e-05 -1.483398213e-05)
(0 -2.36874881e-05 -1.426890526e-05)
(0 -2.712368901e-05 -1.344558923e-05)
(0 -3.073617869e-05 -1.228113071e-05)
(0 -3.44134663e-05 -1.06945321e-05)
(0 -3.785919633e-05 -8.640053691e-06)
(0 -4.052067977e-05 -6.088155188e-06)
(0 -2.079158835e-05 -2.250778298e-06)
(0 8.993584071e-06 -2.249825386e-06)
(0 1.737635152e-05 -4.90845005e-06)
(0 1.642153361e-05 -6.043368314e-06)
(0 1.58678917e-05 -7.15351087e-06)
(0 1.561251129e-05 -8.276041294e-06)
(0 1.568779132e-05 -9.203224721e-06)
(0 1.606705032e-05 -9.850252013e-06)
(0 1.676553489e-05 -1.024571054e-05)
(0 1.788806528e-05 -1.044677497e-05)
(0 1.958996623e-05 -1.049442057e-05)
(0 2.205324395e-05 -1.043343421e-05)
(0 2.543608174e-05 -1.033719008e-05)
(0 2.975753796e-05 -1.023904014e-05)
(0 3.443157169e-05 -9.787359831e-06)
(0 3.752567711e-05 -8.220772382e-06)
(0 -1.252126455e-06 -1.435180863e-05)
(0 -3.761143931e-06 -1.432703294e-05)
(0 -6.295890021e-06 -1.42708111e-05)
(0 -8.869705512e-06 -1.417266116e-05)
(0 -1.149878992e-05 -1.401924234e-05)
(0 -1.420124852e-05 -1.378673177e-05)
(0 -1.699423379e-05 -1.34417776e-05)
(0 -1.988918067e-05 -1.294435753e-05)
(0 -2.290800607e-05 -1.224301423e-05)
(0 -2.605738045e-05 -1.127866721e-05)
(0 -2.934397421e-05 -9.999859237e-06)
(0 -3.2726812e-05 -8.422789753e-06)
(0 -3.596385429e-05 -6.799980504e-06)
(0 -3.763240336e-05 -6.235856567e-06)
(0 -1.888576425e-05 -1.081841069e-05)
(0 6.668478642e-06 -1.082126943e-05)
(0 1.435371447e-05 -9.810229731e-06)
(0 1.511318537e-05 -9.924579169e-06)
(0 1.462338857e-05 -1.114716535e-05)
(0 1.445377024e-05 -1.269183583e-05)
(0 1.478443071e-05 -1.391251617e-05)
(0 1.542955217e-05 -1.473869093e-05)
(0 1.630909004e-05 -1.533807264e-05)
(0 1.753453493e-05 -1.588694997e-05)
(0 1.928884604e-05 -1.645583847e-05)
(0 2.17549825e-05 -1.707046678e-05)
(0 2.51530669e-05 -1.783089058e-05)
(0 2.995574371e-05 -1.885431814e-05)
(0 3.633834878e-05 -1.881429586e-05)
(0 4.003945919e-05 -1.214009972e-05)
(0 -1.234974036e-06 -1.2992956e-05)
(0 -3.710639586e-06 -1.295674536e-05)
(0 -6.202504629e-06 -1.287860655e-05)
(0 -8.720098304e-06 -1.274901051e-05)
(0 -1.127580848e-05 -1.255366356e-05)
(0 -1.387535257e-05 -1.226874283e-05)
(0 -1.652825976e-05 -1.186089647e-05)
(0 -1.923929462e-05 -1.12929609e-05)
(0 -2.201989199e-05 -1.051157299e-05)
(0 -2.488243983e-05 -9.453840594e-06)
(0 -2.787934832e-05 -8.04353075e-06)
(0 -3.12145405e-05 -6.212986662e-06)
(0 -3.567321605e-05 -3.92313897e-06)
(0 -4.453815704e-05 -1.249267718e-06)
(0 -2.537509538e-05 1.37505211e-06)
(0 9.999859212e-06 -8.398966942e-06)
(0 1.827208886e-05 -1.359614935e-05)
(0 1.508459798e-05 -1.270612947e-05)
(0 1.310063507e-05 -1.483017046e-05)
(0 1.284716048e-05 -1.744781993e-05)
(0 1.364188912e-05 -1.903632432e-05)
(0 1.464149387e-05 -1.986726364e-05)
(0 1.561632294e-05 -2.050285602e-05)
(0 1.677125234e-05 -2.133474822e-05)
(0 1.840740235e-05 -2.239915099e-05)
(0 2.067914475e-05 -2.359600858e-05)
(0 2.365127745e-05 -2.510542126e-05)
(0 2.877413271e-05 -2.857497408e-05)
(0 4.114388428e-05 -3.452590998e-05)
(0 4.688041485e-05 -1.730107145e-05)
(0 -1.214962883e-06 -1.170652471e-05)
(0 -3.646794477e-06 -1.166269078e-05)
(0 -6.088155181e-06 -1.157406994e-05)
(0 -8.543809572e-06 -1.142636857e-05)
(0 -1.101756931e-05 -1.120910463e-05)
(0 -1.350943434e-05 -1.08994082e-05)
(0 -1.601845181e-05 -1.047059777e-05)
(0 -1.854081007e-05 -9.882651038e-06)
(0 -2.106888575e-05 -9.085063625e-06)
(0 -2.359029107e-05 -8.002555519e-06)
(0 -2.610216732e-05 -6.532212213e-06)
(0 -2.860546727e-05 -4.48154544e-06)
(0 -3.100013529e-05 -1.441755954e-06)
(0 -3.233516513e-05 3.784966725e-06)
(0 -2.603736927e-05 1.531710854e-05)
(0 -8.300816999e-06 2.038278907e-06)
(0 1.004655191e-05 -7.969203606e-06)
(0 1.387916422e-05 -1.247552475e-05)
(0 9.881698111e-06 -1.803004918e-05)
(0 1.024761636e-05 -2.324628985e-05)
(0 1.236593986e-05 -2.492913252e-05)
(0 1.396206757e-05 -2.521214741e-05)
(0 1.484255834e-05 -2.549611524e-05)
(0 1.563823989e-05 -2.658148205e-05)
(0 1.702663277e-05 -2.824336069e-05)
(0 1.904775929e-05 -2.985092338e-05)
(0 2.017600715e-05 -3.046650453e-05)
(0 2.053620791e-05 -3.587618632e-05)
(0 4.761129847e-05 -5.490393451e-05)
(0 6.393468207e-05 -3.933144547e-05)
(0 -1.192092995e-06 -1.049346767e-05)
(0 -3.578184814e-06 -1.044963373e-05)
(0 -5.966182446e-06 -1.035624833e-05)
(0 -8.356085908e-06 -1.020568823e-05)
(0 -1.074980103e-05 -9.98747138e-06)
(0 -1.313779866e-05 -9.684445328e-06)
(0 -1.55105497e-05 -9.269928579e-06)
(0 -1.785280759e-05 -8.711522122e-06)
(0 -2.014074943e-05 -7.964439049e-06)
(0 -2.232768262e-05 -6.964834291e-06)
(0 -2.435833827e-05 -5.615510814e-06)
(0 -2.612599012e-05 -3.760191013e-06)
(0 -2.740479811e-05 -1.153976512e-06)
(0 -2.777929258e-05 2.508064561e-06)
(0 -2.712178324e-05 6.912424131e-06)
(0 -1.328835877e-05 6.380699198e-06)
(0 3.759238105e-06 -1.770510621e-06)
(0 5.024705325e-06 -1.120052843e-05)
(0 2.330822914e-06 -2.157107044e-05)
(0 5.947124214e-06 -3.258482815e-05)
(0 1.167507863e-05 -3.224082685e-05)
(0 1.407546413e-05 -3.058275985e-05)
(0 1.424698832e-05 -2.971275118e-05)
(0 1.402305397e-05 -3.128886769e-05)
(0 1.513891399e-05 -3.417904999e-05)
(0 1.845504801e-05 -3.714832404e-05)
(0 1.76269674e-05 -3.108780325e-05)
(0 4.335749901e-06 -2.962889487e-05)
(0 3.76895781e-05 -3.620779983e-05)
(0 8.120240172e-05 4.036821386e-05)
)
;

boundaryField
{
    lowerWall
    {
        type            calculated;
        value           nonuniform 0();
    }
    atmosphere
    {
        type            calculated;
        value           nonuniform List<vector> 
20
(
(0 0 -3.212361847e-05)
(0 0 -3.194733022e-05)
(0 0 -3.159379936e-05)
(0 0 -3.107065064e-05)
(0 0 -3.037693112e-05)
(0 0 -2.952407437e-05)
(0 0 -2.851970506e-05)
(0 0 -2.737906973e-05)
(0 0 -2.61212254e-05)
(0 0 -2.476046698e-05)
(0 0 -2.331966429e-05)
(0 0 -2.182359201e-05)
(0 0 -2.029893271e-05)
(0 0 -1.876855622e-05)
(0 0 -1.725437868e-05)
(0 0 -1.577736506e-05)
(0 0 -1.435180863e-05)
(0 0 -1.2992956e-05)
(0 0 -1.170652471e-05)
(0 0 -1.049346767e-05)
)
;
    }
    rightWall
    {
        type            empty;
    }
    leftWall
    {
        type            empty;
    }
    frontAndBack
    {
        type            calculated;
        value           nonuniform List<vector> 
30
(
(0 -6.670384423e-08 -3.216712214e-05)
(0 -1.962998847e-07 -3.243144403e-05)
(0 -3.30660485e-07 -3.295497192e-05)
(0 -4.669269096e-07 -3.375305352e-05)
(0 -6.060520713e-07 -3.482398352e-05)
(0 -7.508947036e-07 -3.617799375e-05)
(0 -8.976431609e-07 -3.782531602e-05)
(0 -1.046297444e-06 -3.976765564e-05)
(0 -1.196857548e-06 -4.20118338e-05)
(0 -1.344558917e-06 -4.455614522e-05)
(0 -1.48368408e-06 -4.739035807e-05)
(0 -1.607562646e-06 -5.049230342e-05)
(0 -1.700948028e-06 -5.381764341e-05)
(0 -1.751452369e-06 -5.729475532e-05)
(-1.239779192e-25 -1.746687808e-06 -6.082643692e-05)
(1.239779192e-25 -1.665690282e-06 -6.42813799e-05)
(0 -1.4932132e-06 -6.748734871e-05)
(0 -1.218774525e-06 -7.025334945e-05)
(0 -8.423742614e-07 -7.236280872e-05)
(0 -3.811648247e-07 -7.362473261e-05)
(0 1.457955452e-07 -7.38873492e-05)
(0 7.204015177e-07 -7.303981383e-05)
(0 1.332171062e-06 -7.100879849e-05)
(0 1.997303679e-06 -6.770733273e-05)
(0 2.71961102e-06 -6.302116131e-05)
(0 3.481940674e-06 -5.683261833e-05)
(0 4.242364493e-06 -4.908883941e-05)
(0 4.927508264e-06 -3.986315258e-05)
(0 5.467809411e-06 -2.937895246e-05)
(0 2.845395412e-06 -1.799435258e-05)
)
;
    }
    procBoundary0to1
    {
        type            processor;
        value           nonuniform List<vector> 
20
(
(0 8.385626094e-08 -1.811390528e-05)
(0 2.582391711e-07 -1.860179653e-05)
(0 4.621623472e-07 -1.96176005e-05)
(0 7.213544265e-07 -2.124136264e-05)
(0 1.078696464e-06 -2.363412517e-05)
(0 1.619950495e-06 -2.708938393e-05)
(0 2.527122773e-06 -3.216078189e-05)
(0 4.238552889e-06 -4.002802443e-05)
(0 7.960627317e-06 -5.352983475e-05)
(0 1.745734887e-05 -7.26528739e-05)
(0 8.332834891e-05 -3.574277885e-05)
(0 5.645146312e-05 3.786872511e-06)
(0 4.642301664e-05 -3.432389226e-06)
(0 4.115150776e-05 -3.462882464e-06)
(0 3.852337569e-05 -5.235298836e-06)
(0 3.811076494e-05 -7.494653355e-06)
(0 3.963828304e-05 -9.459558038e-06)
(0 4.265424965e-05 -1.063163986e-05)
(0 4.945423011e-05 -2.058099468e-05)
(0 7.565645315e-05 1.362664248e-05)
)
;
    }
    procBoundary0to2
    {
        type            processor;
        value           nonuniform List<vector> 
30
(
(0 -1.170176015e-06 -9.354737739e-06)
(0 -3.50957514e-06 -9.310903798e-06)
(0 -5.846115517e-06 -9.222282962e-06)
(0 -8.175985515e-06 -9.081251977e-06)
(0 -1.049442058e-05 -8.880187544e-06)
(0 -1.279093864e-05 -8.603843032e-06)
(0 -1.504552859e-05 -8.236018975e-06)
(0 -1.723627345e-05 -7.751939658e-06)
(0 -1.932219794e-05 -7.120158947e-06)
(0 -2.124136283e-05 -6.295890012e-06)
(0 -2.289657113e-05 -5.220052298e-06)
(0 -2.41448859e-05 -3.802119138e-06)
(0 -2.473187973e-05 -1.930599843e-06)
(0 -2.426876449e-05 4.821735052e-07)
(0 -2.216378172e-05 3.438106731e-06)
(0 -1.698470465e-05 7.317411748e-06)
(0 -7.533722791e-06 5.898525687e-07)
(0 -5.922348482e-06 -5.480197284e-06)
(0 -1.150260153e-05 -3.201403373e-05)
(0 -4.221400453e-07 -5.329256021e-05)
(0 1.436800811e-05 -4.088659796e-05)
(0 1.648919037e-05 -3.518627799e-05)
(0 1.413549759e-05 -3.152137824e-05)
(0 1.117289396e-05 -3.471649234e-05)
(0 1.11681294e-05 -4.008519891e-05)
(0 2.213995894e-05 -5.353078823e-05)
(0 2.769353042e-05 -3.941053717e-05)
(0 1.541621138e-05 -1.062878117e-05)
(0 0.000117610313 3.972595113e-05)
(0 0.0001137672185 8.1739844e-05)
)
;
    }
}


// ************************************************************************* //
