/*--------------------------------*- C++ -*----------------------------------*\
  =========                 |
  \\      /  F ield         | OpenFOAM: The Open Source CFD Toolbox
   \\    /   O peration     | Website:  https://openfoam.org
    \\  /    A nd           | Version:  6
     \\/     M anipulation  |
\*---------------------------------------------------------------------------*/
FoamFile
{
    version     2.0;
    format      ascii;
    class       surfaceScalarField;
    location    "0.0056";
    object      phi;
}
// * * * * * * * * * * * * * * * * * * * * * * * * * * * * * * * * * * * * * //

dimensions      [0 3 -1 0 0 0 0];

internalField   nonuniform List<scalar> 
1150
(
2.035234091e-18
-3.799992077e-21
2.043241871e-18
-1.113890178e-20
2.052006797e-18
-1.763691746e-20
2.059502467e-18
-2.26682318e-20
2.062578444e-18
-2.558002064e-20
2.057305954e-18
-2.569228857e-20
2.038911945e-18
-2.230098076e-20
2.001863754e-18
-1.473011076e-20
1.940049976e-18
-2.405475024e-21
1.847101616e-18
1.499277582e-20
1.716943788e-18
3.73360379e-20
1.544601611e-18
6.377726353e-20
1.32721373e-18
9.252522921e-20
1.064982327e-18
1.207941837e-19
7.616243685e-19
1.452992186e-19
4.238556693e-19
1.635319665e-19
5.998844683e-20
1.755538508e-19
-3.209109696e-19
1.843818156e-19
-7.064919584e-19
1.916904769e-19
-1.074395198e-18
1.879377919e-19
-1.388961033e-18
1.50512712e-19
-1.610072052e-18
7.053178626e-20
-1.705263769e-18
-3.915678971e-20
-1.652211933e-18
-1.695873958e-19
-1.438133586e-18
-3.200500936e-19
-1.070546878e-18
-4.809959652e-19
-6.023358223e-19
-6.00841047e-19
-1.702441542e-19
-5.982774657e-19
5.132537702e-20
-4.052891126e-19
9.298244237e-33
2.02478403e-18
-7.927304997e-21
2.033954002e-18
-2.326096514e-20
2.044607088e-18
-3.694726748e-20
2.054729512e-18
-4.775584358e-20
2.061210712e-18
-5.440748259e-20
2.060146581e-18
-5.554767344e-20
2.046735506e-18
-4.977888574e-20
2.015345934e-18
-3.572283167e-20
1.959620415e-18
-1.218544862e-20
1.872767878e-18
2.159346299e-20
1.748058739e-18
6.552453966e-20
1.579712646e-18
1.181305857e-19
1.364113543e-18
1.759190237e-19
1.101255847e-18
2.330651225e-19
7.957138974e-19
2.820929399e-19
4.561180421e-19
3.166614779e-19
9.20389946e-20
3.364798954e-19
-2.902613872e-19
3.507766927e-19
-6.865575074e-19
3.703764446e-19
-1.080003411e-18
3.784254272e-19
-1.428716232e-18
3.137266437e-19
-1.683458257e-18
1.539611357e-19
-1.812612045e-18
-5.918172085e-20
-1.7976329e-18
-3.0483662e-19
-1.616496794e-18
-5.936106697e-19
-1.252110343e-18
-9.28765978e-19
-7.39501436e-19
-1.201856396e-18
-2.263275033e-19
-1.22586979e-18
4.621950369e-20
-8.433460868e-19
9.856487328e-33
2.006388503e-18
-1.268284129e-20
2.017411582e-18
-3.729414333e-20
2.030997631e-18
-5.951518492e-20
2.045195429e-18
-7.756465001e-20
2.056960347e-18
-8.957025393e-20
2.062428798e-18
-9.354658558e-20
2.056804411e-18
-8.741204288e-20
2.034346729e-18
-6.908203839e-20
1.988424234e-18
-3.665047819e-20
1.911678817e-18
1.127191708e-20
1.796448062e-18
7.500826324e-20
1.635605683e-18
1.529341223e-19
1.424075688e-18
2.402709966e-19
1.161051511e-18
3.278676732e-19
8.523815877e-19
4.022703917e-19
5.108683417e-19
4.496406742e-19
1.508976821e-19
4.664629057e-19
-2.240984136e-19
4.734840666e-19
-6.274257034e-19
5.118054348e-19
-1.057562015e-18
5.70183743e-19
-1.458324268e-18
5.005198294e-19
-1.759488375e-18
2.529422723e-19
-1.937865135e-18
-5.1768804e-20
-1.993885621e-18
-3.733096711e-19
-1.89633939e-18
-7.597014638e-19
-1.577447848e-18
-1.292298647e-18
-1.028156844e-18
-1.792814999e-18
-4.036899875e-19
-1.908471618e-18
-3.034912743e-21
-1.352023278e-18
1.092131841e-32
1.978460942e-18
-1.831754913e-20
1.991909674e-18
-5.399228057e-20
2.009309802e-18
-8.662933568e-20
2.028803479e-18
-1.139553379e-19
2.047428064e-18
-1.335740088e-19
2.061400147e-18
-1.429229689e-19
2.065961354e-18
-1.392934284e-19
2.055326983e-18
-1.199099403e-19
2.022643213e-18
-8.210951494e-20
1.960012671e-18
-2.365793722e-20
1.858669305e-18
5.665936789e-20
1.709583317e-18
1.579385464e-19
1.505003702e-18
2.751976914e-19
1.24175197e-18
3.964737285e-19
9.263993311e-19
5.002275445e-19
5.794804675e-19
5.578814712e-19
2.294557273e-19
5.518206838e-19
-1.16938607e-19
5.153133869e-19
-5.082898246e-19
5.67725694e-19
-9.854927839e-19
7.569510423e-19
-1.457637523e-18
7.216569119e-19
-1.801054223e-18
3.463704276e-19
-2.02148839e-18
-3.573896855e-20
-2.175418202e-18
-3.56464386e-19
-2.235297672e-18
-7.354696729e-19
-2.033185894e-18
-1.492821373e-18
-1.466064727e-18
-2.348271942e-18
-6.911080296e-19
-2.664644112e-18
-8.653665141e-20
-1.975636433e-18
1.235104059e-32
1.938945483e-18
-2.502943875e-20
1.955233336e-18
-7.395829618e-20
1.977085075e-18
-1.193089225e-19
2.002744076e-18
-1.583966222e-19
2.029343374e-18
-1.883769726e-19
2.053192017e-18
-2.061963992e-19
2.069613187e-18
-2.08603178e-19
2.072868232e-18
-1.922210492e-19
2.056070568e-18
-1.536815526e-19
2.011050852e-18
-8.983703091e-20
1.928158736e-18
1.83364423e-21
1.796178145e-18
1.222632606e-19
1.603148281e-18
2.684415494e-19
1.340101439e-18
4.283587257e-19
1.010540735e-18
5.725542907e-19
6.45069044e-19
6.473331614e-19
3.055676618e-19
5.928708471e-19
2.785200327e-20
4.27368314e-19
-2.993737677e-19
4.414130346e-19
-8.355603556e-19
9.251353793e-19
-1.40742934e-18
9.886247938e-19
-1.75259111e-18
3.761154748e-19
-1.961931627e-18
-6.870574771e-20
-2.213051834e-18
-2.67323283e-19
-2.537581579e-18
-4.163121884e-19
-2.572081909e-18
-1.414909644e-18
-2.036627207e-18
-2.823096319e-18
-1.08517967e-18
-3.482631621e-18
-2.004835467e-19
-2.761498863e-18
1.480806216e-32
1.885444966e-18
-3.295509461e-20
1.904794977e-18
-9.75998137e-20
1.931429217e-18
-1.582367519e-19
1.963687966e-18
-2.118500369e-19
1.99877855e-18
-2.552322905e-19
2.033076831e-18
-2.849250741e-19
2.061971926e-18
-2.972405615e-19
2.079833522e-18
-2.883484264e-19
2.079983265e-18
-2.543949319e-19
2.054540629e-18
-1.91585927e-19
1.993877441e-18
-9.6198819e-20
1.885407937e-18
3.525719038e-20
1.712189534e-18
2.046805666e-19
1.454227437e-18
4.066735163e-19
1.100791972e-18
6.124081468e-19
6.84244121e-19
7.383941822e-19
3.292492907e-19
6.315789017e-19
1.751059686e-19
1.727729902e-19
3.758218293e-20
-1.79388006e-20
-5.757537577e-19
9.284976846e-19
-1.306108088e-18
1.086110589e-18
-1.536609227e-18
3.379365805e-19
-1.626290939e-18
-1.838076911e-19
-1.887340546e-18
-9.370012609e-20
-2.618246863e-18
4.274970992e-20
-3.06532415e-18
-1.012650049e-18
-2.660846451e-18
-3.121682601e-18
-1.571515685e-18
-4.241084448e-18
-3.412132995e-19
-3.725147235e-18
1.901940626e-32
1.815364586e-18
-4.216103379e-20
1.837786943e-18
-1.251113966e-19
1.869199442e-18
-2.03720908e-19
1.90801398e-18
-2.747207529e-19
1.95145935e-18
-3.346117677e-19
1.995879286e-18
-3.795914265e-19
2.036590069e-18
-4.055984883e-19
2.067941504e-18
-4.084765933e-19
2.083513012e-18
-3.842049758e-19
2.076297788e-18
-3.290375605e-19
2.03834868e-18
-2.392267629e-19
1.958774065e-18
-1.098869441e-19
1.818673758e-18
6.691625111e-20
1.583977953e-18
3.015588857e-19
1.209232489e-18
5.902131738e-19
6.869215115e-19
8.460028218e-19
2.204218721e-19
7.792199351e-19
1.902180478e-19
-2.419125176e-19
5.080952785e-19
-7.049031595e-19
-1.688810729e-19
6.541043308e-19
-1.160047976e-18
9.956427487e-19
-9.820357425e-19
-8.497435032e-20
-9.686172453e-19
-2.501400546e-19
-8.994121832e-19
-2.005408429e-19
-2.148477751e-18
6.709873566e-19
-3.141178501e-18
-1.956783622e-19
-3.070192473e-18
-2.935933574e-18
-2.107610631e-18
-4.427606977e-18
-5.113698594e-19
-4.738984203e-18
2.75077871e-32
1.726073846e-18
-5.264498026e-20
1.751359704e-18
-1.564704719e-19
1.78720561e-18
-2.556890678e-19
1.832070042e-18
-3.468528513e-19
1.883135441e-18
-4.26227298e-19
1.936554733e-18
-4.896635272e-19
1.987259647e-18
-5.326569541e-19
2.029076244e-18
-5.506391082e-19
2.055227083e-18
-5.395130175e-19
2.05930414e-18
-4.962999975e-19
2.036367408e-18
-4.194006293e-19
1.982485163e-18
-3.071221082e-19
1.888121863e-18
-1.517489879e-19
1.717310086e-18
7.343380868e-20
1.377803583e-18
4.252408008e-19
7.22967751e-19
9.167663169e-19
4.205872946e-21
9.771245673e-19
-3.439810413e-19
-1.414863397e-19
5.299935893e-19
-1.459249265e-18
-4.176414957e-33
1.932932438e-19
-2.007004713e-32
1.314250908e-19
-7.058929758e-33
-5.719277036e-20
-2.158115421e-33
-3.641537506e-20
1.122750171e-32
-4.903973489e-20
-7.579957818e-33
1.470497183e-19
-1.62412107e-18
2.11944268e-19
-2.315978336e-18
-1.766809964e-18
-2.702550366e-18
-2.306084536e-18
-7.812043602e-19
-5.021453944e-18
2.823899253e-32
1.615090733e-18
-6.434377854e-20
1.642806966e-18
-1.914512946e-19
1.682403537e-18
-3.136974005e-19
1.732394865e-18
-4.275534667e-19
1.789902884e-18
-5.291186809e-19
1.850762009e-18
-6.13842332e-19
1.909129299e-18
-6.765138032e-19
1.957408166e-18
-7.116365201e-19
1.986753601e-18
-7.143230855e-19
1.988748281e-18
-6.818581604e-19
1.959026849e-18
-6.158531371e-19
1.902764074e-18
-5.238981698e-19
1.837098428e-18
-4.159951927e-19
1.768005345e-18
-2.819849892e-19
1.621058176e-18
-1.828546102e-20
1.063588427e-18
6.2649745e-19
-8.724248561e-20
1.014730699e-18
2.297082095e-33
-5.618461263e-20
-1.383785852e-19
-1.156322596e-19
1.475526313e-21
5.344032835e-20
7.971029041e-20
5.319646254e-20
2.077739529e-20
1.749203768e-21
-1.26243598e-20
-3.001790771e-21
-7.223869839e-20
1.058672454e-20
1.550870523e-21
7.325902751e-20
1.197275608e-19
9.37633521e-20
5.749722245e-33
-1.973577072e-20
-1.873405094e-18
1.311300828e-19
-1.846831723e-18
-3.095629263e-18
-3.030028165e-19
1.480290817e-18
-7.71589786e-20
1.509759812e-18
-2.296561381e-19
1.552049577e-18
-3.769324687e-19
1.605825872e-18
-5.155753865e-19
1.668291491e-18
-6.416947e-19
1.735065734e-18
-7.503238995e-19
1.799409342e-18
-8.351918748e-19
1.851535663e-18
-8.889562208e-19
1.878217574e-18
-9.041129264e-19
1.863547965e-18
-8.750244614e-19
1.793060067e-18
-8.019179578e-19
1.665840054e-18
-6.980449749e-19
1.521109012e-18
-5.994918765e-19
1.460805287e-18
-5.635931348e-19
1.446391671e-18
-5.402518728e-19
1.157331929e-18
-1.794087389e-19
1.487998575e-19
1.484705137e-19
6.723970586e-20
2.536732701e-20
-3.264967436e-20
-1.574736407e-20
1.231660426e-21
1.955913543e-20
2.826303118e-20
2.616842014e-20
1.60264007e-20
1.399110332e-20
9.641556485e-22
1.206876467e-20
-9.566394863e-21
2.112233495e-20
2.205519545e-20
4.163704402e-20
6.957211561e-20
4.623072862e-20
2.417850151e-20
2.564532684e-20
8.814950328e-20
6.716379315e-20
-3.030028194e-19
1.87563881e-20
-5.600543161e-19
1.320173911e-18
-9.103164139e-20
1.350417825e-18
-2.705951915e-19
1.393835489e-18
-4.441903126e-19
1.449462498e-18
-6.089842904e-19
1.514967501e-18
-7.615337845e-19
1.586295263e-18
-8.966707848e-19
1.656486718e-18
-1.006937048e-18
1.714157187e-18
-1.082435864e-18
1.741329543e-18
-1.111124365e-18
1.710452004e-18
-1.079830119e-18
1.581363411e-18
-9.767674698e-19
1.302452132e-18
-7.979612554e-19
8.340427683e-19
-5.64850302e-19
1.84013778e-19
-3.811247669e-19
-2.314318258e-20
-6.463200053e-19
-5.651395658e-20
7.56104002e-33
2.569667332e-20
6.625697602e-20
2.612501432e-20
2.493487711e-20
2.656825208e-21
7.717741346e-21
7.840945006e-21
1.437479036e-20
1.60857141e-20
1.792531851e-20
1.410406186e-20
1.597542356e-20
1.001772578e-20
1.615964017e-20
1.094831407e-20
2.019691011e-20
2.664887973e-20
2.593252171e-20
4.898671298e-20
2.388412526e-20
6.569696689e-20
8.935101514e-21
1.521343381e-19
-1.927977026e-20
3.181864348e-19
-1.473030118e-19
1.31989167e-19
1.134251418e-18
-1.061731063e-19
1.163889378e-18
-3.138939626e-19
1.206086465e-18
-5.138465394e-19
1.260609446e-18
-7.048680322e-19
1.32617908e-18
-8.848140089e-19
1.40000523e-18
-1.048875634e-18
1.476532763e-18
-1.188831182e-18
1.545719289e-18
-1.292601914e-18
1.590123738e-18
-1.343909412e-18
1.579439391e-18
-1.321905846e-18
1.459758596e-18
-1.200446439e-18
1.133350325e-18
-9.462848421e-19
4.54114251e-19
-5.162690131e-19
-4.369175138e-19
1.146870385e-19
-1.37561767e-18
4.713443735e-19
-1.169443376e-19
-1.407604038e-19
-1.562542535e-20
-3.506366263e-20
8.907878921e-21
3.980233053e-22
9.313874301e-21
7.309314899e-21
1.139147326e-20
1.229674857e-20
1.413581939e-20
1.51815594e-20
1.42882787e-20
1.58234122e-20
1.405499585e-20
1.639375419e-20
1.668392584e-20
1.756926085e-20
2.460048372e-20
1.801469314e-20
3.40376899e-20
1.444090171e-20
3.748209606e-20
5.487667347e-21
2.411109829e-20
-5.91328052e-21
-1.149136023e-19
-8.288360752e-21
3.143984033e-20
9.236869416e-19
-1.237714785e-19
9.507311696e-19
-3.597913989e-19
9.881501798e-19
-5.838644267e-19
1.036991483e-18
-7.989816831e-19
1.097588675e-18
-1.005544295e-18
1.169209142e-18
-1.199824273e-18
1.249220974e-18
-1.373606385e-18
1.332211559e-18
-1.513902937e-18
1.409022895e-18
-1.602709044e-18
1.466069265e-18
-1.617177781e-18
1.486013646e-18
-1.530764316e-18
1.448752961e-18
-1.315635112e-18
1.224729545e-18
-9.447163926e-19
7.221430063e-19
-3.807476898e-19
1.909114274e-19
-2.29784063e-33
5.209608187e-20
-1.946383795e-21
1.983626096e-20
-2.807309288e-21
1.581917058e-20
4.410810918e-21
1.430130804e-20
8.823826703e-21
1.42762841e-20
1.231995409e-20
1.477767219e-20
1.467887792e-20
1.485862072e-20
1.574081788e-20
1.52305025e-20
1.602043557e-20
1.712935814e-20
1.566996301e-20
2.102669227e-20
1.41162728e-20
2.508445542e-20
1.038080733e-20
2.608114809e-20
4.488678614e-21
2.173601802e-20
-1.573044662e-21
1.74068248e-20
-3.964527442e-21
-2.015772116e-21
6.92474534e-19
-1.483176408e-19
7.136831501e-19
-4.101000209e-19
7.409584573e-19
-6.517894939e-19
7.774948848e-19
-8.854862436e-19
8.254024758e-19
-1.115150413e-18
8.859553513e-19
-1.338420516e-18
9.592625891e-19
-1.547534508e-18
1.043796323e-18
-1.729344315e-18
1.135837423e-18
-1.865100367e-18
1.22964127e-18
-1.931065292e-18
1.320642726e-18
-1.902034227e-18
1.408800495e-18
-1.761670588e-18
1.29122357e-18
-1.525800499e-18
1.026480988e-18
-1.248728165e-18
1.256213636e-19
-1.598997023e-32
5.12351556e-20
7.243630854e-20
2.705438078e-20
2.136779545e-20
2.023218606e-20
1.122659829e-20
1.779743518e-20
1.125287888e-20
1.663520767e-20
1.347757616e-20
1.583961191e-20
1.547037225e-20
1.513823822e-20
1.643817527e-20
1.488002969e-20
1.62757472e-20
1.55756677e-20
1.497394234e-20
1.729122655e-20
1.24020591e-20
1.919232639e-20
8.480913581e-21
2.001942451e-20
3.662507617e-21
1.934453494e-20
-8.992453333e-22
1.935557985e-20
-3.97962565e-21
-6.385159808e-21
4.499853486e-19
-1.932621491e-19
4.580718422e-19
-4.683903055e-19
4.672516217e-19
-7.141836536e-19
4.831165272e-19
-9.568477121e-19
5.086964674e-19
-1.202866808e-18
5.463824914e-19
-1.45048092e-18
5.98044937e-19
-1.692285957e-18
6.64107396e-19
-1.915060025e-18
7.408202674e-19
-2.098411995e-18
8.140125672e-19
-2.212819614e-18
8.465168555e-19
-2.217474271e-18
7.612423172e-19
-2.058831779e-18
5.495527112e-19
-1.672170396e-18
-7.585663844e-20
-9.93032538e-19
-7.027048021e-20
2.151572642e-33
1.666431611e-22
1.993984327e-21
1.691318398e-20
4.613189446e-21
2.025846696e-20
7.872153656e-21
2.002213275e-20
1.148094133e-20
1.862800399e-20
1.486456361e-20
1.680741517e-20
1.728434184e-20
1.49758104e-20
1.826436755e-20
1.357822502e-20
1.767108018e-20
1.300378469e-20
1.555006891e-20
1.33700813e-20
1.204033902e-20
1.437392069e-20
7.482977992e-21
1.545767185e-20
2.582903405e-21
1.62641549e-20
-1.703936371e-21
1.695004598e-20
-4.66568668e-21
-6.051745428e-21
2.165404651e-19
-3.286863727e-19
1.892468668e-19
-5.42763137e-19
1.702544754e-19
-7.661209449e-19
1.572380387e-19
-1.004204e-18
1.509540588e-19
-1.256886291e-18
1.535872908e-19
-1.520630687e-18
1.686121139e-19
-1.788188971e-18
2.000611094e-19
-2.047104731e-18
2.503771138e-19
-2.276999784e-18
3.149387059e-19
-2.444988662e-18
3.700203119e-19
-2.497561432e-18
3.550582278e-19
-2.346002947e-18
2.719290981e-19
-1.842060796e-18
-1.674081281e-19
-7.797486226e-19
-6.827649556e-20
1.969051568e-32
2.785848291e-21
-6.907438349e-20
2.017214811e-20
-1.278168249e-20
2.386725456e-20
4.168171619e-21
2.340575498e-20
1.193229921e-20
2.104778212e-20
1.721260138e-20
1.778744081e-20
2.053629159e-20
1.438252299e-20
2.166382988e-20
1.145721366e-20
2.059619194e-20
9.494054728e-21
1.75181647e-20
8.812720208e-21
1.272922611e-20
9.47384601e-21
6.827929764e-21
1.117083199e-20
8.93210276e-22
1.33024045e-20
-3.830481732e-21
1.556398716e-20
-6.926920566e-21
-7.030071663e-21
-6.150373327e-20
-4.772695311e-19
-1.078084287e-19
-6.070396911e-19
-1.506405508e-19
-7.948332279e-19
-1.944774032e-19
-1.017436567e-18
-2.393611565e-19
-1.265815781e-18
-2.830138262e-19
-1.534092959e-18
-3.203646044e-19
-1.815557191e-18
-3.427639558e-19
-2.100056757e-18
-3.366133901e-19
-2.37113736e-18
-2.807602129e-19
-2.601979503e-18
-1.410369458e-19
-2.749216888e-18
1.327892086e-19
-2.743754813e-18
3.795254911e-19
-2.478706376e-18
7.093554326e-19
-1.801412662e-18
1.30977274e-19
6.641576514e-33
5.907854922e-20
2.819809753e-21
3.712200218e-20
9.168675889e-21
3.163138209e-20
9.64755288e-21
2.868605714e-20
1.486701335e-20
2.437147226e-20
2.151694029e-20
1.891497907e-20
2.598376968e-20
1.331488505e-20
2.725989764e-20
8.379186382e-21
2.553410296e-20
4.705116138e-21
2.119901292e-20
2.911423866e-21
1.453036318e-20
3.539126507e-21
6.21215023e-21
6.44713998e-21
-2.008128683e-21
1.020596564e-20
-7.58292989e-21
1.546083605e-20
-1.217314979e-20
-1.556745517e-20
-3.87124429e-19
-5.322325713e-19
-4.274460923e-19
-6.2848865e-19
-4.853516774e-19
-7.872054029e-19
-5.587927112e-19
-9.881888981e-19
-6.463881356e-19
-1.220973623e-18
-7.457307539e-19
-1.479145929e-18
-8.518491845e-19
-1.75703322e-18
-9.555578657e-19
-2.047277071e-18
-1.041208162e-18
-2.338481887e-18
-1.083356165e-18
-2.612292754e-18
-1.0416816e-18
-2.839485432e-18
-8.55538243e-19
-2.974150809e-18
-5.445349946e-19
-2.942311084e-18
7.097583131e-22
-2.584874885e-18
1.97140762e-19
-1.128563287e-18
6.542741545e-20
1.345310693e-19
3.760087922e-20
3.699030711e-20
3.685084261e-20
1.03940016e-20
3.533598415e-20
1.63660318e-20
2.883830166e-20
2.799926689e-20
2.019110705e-20
3.462127689e-20
1.158909043e-20
3.586035008e-20
4.044096321e-21
3.308500753e-20
-1.963533589e-21
2.721495665e-20
-5.406789073e-21
1.798228138e-20
-4.681152411e-21
5.484944535e-21
8.723387876e-22
-7.542474681e-21
5.615745734e-21
-1.231002566e-20
1.206653072e-20
-1.863806727e-20
-5.667093426e-20
-6.905435591e-19
-5.321504482e-19
-7.360549649e-19
-6.079097328e-19
-8.107924474e-19
-7.399755121e-19
-9.142662257e-19
-9.135048874e-19
-1.04621168e-18
-1.119104579e-18
-1.205815725e-18
-1.350729141e-18
-1.390456204e-18
-1.603563729e-18
-1.594448628e-18
-1.87215768e-18
-1.807973839e-18
-2.148284644e-18
-2.01734023e-18
-2.417882775e-18
-2.209001164e-18
-2.655507395e-18
-2.381696528e-18
-2.812792757e-18
-2.548860073e-18
-2.791503686e-18
-2.466934288e-18
-2.372794214e-18
-1.930214803e-18
-1.002674795e-18
-9.545702465e-20
-3.604705334e-33
1.100457365e-20
-6.946889869e-20
4.282287282e-20
-2.145260642e-20
4.696921929e-20
1.219201831e-20
3.546031161e-20
3.948639032e-20
2.143018025e-20
4.864079673e-20
8.813747921e-21
4.847672987e-20
-1.825954614e-21
4.373062217e-20
-1.119620886e-20
3.65884469e-20
-1.790412592e-20
2.468408219e-20
-1.770857164e-20
5.330537551e-21
-3.89521219e-21
-2.131820231e-20
-7.122959081e-22
-1.549529629e-20
-1.185585598e-19
9.922657392e-20
-1.690416403e-19
-9.612632921e-19
-1.014938739e-18
-1.106527115e-18
-1.23788153e-18
-1.410886317e-18
-1.627151029e-18
-1.887100711e-18
-2.188641185e-18
-2.525452632e-18
-2.884441476e-18
-3.240775727e-18
-3.5444311e-18
-3.676769732e-18
-3.365270628e-18
-1.498609255e-18
-3.823856705e-20
5.902086589e-20
7.646749741e-20
7.426359125e-20
4.46147179e-20
2.126611335e-20
4.067640282e-21
-8.968129941e-21
-2.310057352e-20
-3.725767049e-20
-4.435731145e-20
1.927693822e-21
1.140095743e-19
3.25565439e-19
)
;

boundaryField
{
    lowerWall
    {
        type            calculated;
        value           nonuniform 0();
    }
    atmosphere
    {
        type            calculated;
        value           nonuniform List<scalar> 
20
(
-2.031810245e-18
-2.020945126e-18
-2.001883136e-18
-1.973080663e-18
-1.932536398e-18
-1.877922866e-18
-1.806721052e-18
-1.716379729e-18
-1.60449692e-18
-1.46903116e-18
-1.308569733e-18
-1.122714321e-18
-9.127395465e-19
-6.830263183e-19
-4.453432342e-19
-2.32894263e-19
3.650626293e-20
3.71785829e-19
6.753263413e-19
9.438564213e-19
)
;
    }
    rightWall
    {
        type            empty;
        value           nonuniform 0();
    }
    leftWall
    {
        type            empty;
        value           nonuniform 0();
    }
    frontAndBack
    {
        type            calculated;
        value           uniform 0;
    }
    procBoundary0to1
    {
        type            processor;
        value           nonuniform List<scalar> 
20
(
1.572273024e-20
1.628657234e-20
1.751419826e-20
1.964733452e-20
2.318705614e-20
2.91927901e-20
4.009427081e-20
6.209794462e-20
1.130856433e-19
-4.595162154e-20
-3.738692394e-19
-1.436920892e-20
5.08545697e-20
2.37209859e-20
1.661102361e-20
1.654219686e-20
2.399370548e-20
5.317866365e-20
-6.207150958e-21
-3.522362841e-19
)
;
    }
    procBoundary0to2
    {
        type            processor;
        value           nonuniform List<scalar> 
30
(
-4.915374158e-19
-5.507343171e-19
-6.560453773e-19
-7.964928112e-19
-9.641466852e-19
-1.153364149e-18
-1.359674805e-18
-1.578446275e-18
-1.803194837e-18
-2.022803526e-18
-2.216516756e-18
-2.344668783e-18
-2.33388214e-18
-2.065095679e-18
-1.455264798e-18
-4.591687301e-19
-1.667459026e-19
-3.892081507e-20
1.436419971e-20
6.910792615e-20
7.198297533e-20
6.568214801e-20
5.677554234e-20
5.072289415e-20
3.887277421e-20
1.247551138e-20
-6.755538816e-20
-1.275548129e-19
-1.123400826e-19
5.088032848e-19
)
;
    }
}


// ************************************************************************* //
