/*--------------------------------*- C++ -*----------------------------------*\
  =========                 |
  \\      /  F ield         | OpenFOAM: The Open Source CFD Toolbox
   \\    /   O peration     | Website:  https://openfoam.org
    \\  /    A nd           | Version:  6
     \\/     M anipulation  |
\*---------------------------------------------------------------------------*/
FoamFile
{
    version     2.0;
    format      ascii;
    class       volVectorField;
    location    "0.002";
    object      gradT;
}
// * * * * * * * * * * * * * * * * * * * * * * * * * * * * * * * * * * * * * //

dimensions      [0 -1 0 1 0 0 0];

internalField   nonuniform List<vector> 
3600
(
(0 -3.430483418e-08 -8.174079654e-06)
(0 -1.029145027e-07 -8.312251916e-06)
(0 -1.73429995e-07 -8.587643489e-06)
(0 -2.429925754e-07 -9.003113147e-06)
(0 -3.163668045e-07 -9.564378365e-06)
(0 -3.906939448e-07 -1.026953328e-05)
(0 -4.659739975e-07 -1.112524831e-05)
(0 -5.412540511e-07 -1.213247637e-05)
(0 -6.165341031e-07 -1.329312324e-05)
(0 -6.880025076e-07 -1.460337733e-05)
(0 -7.528005289e-07 -1.605370951e-05)
(0 -8.099752514e-07 -1.763173185e-05)
(0 -8.490446458e-07 -1.93107629e-05)
(0 -8.661970638e-07 -2.1054592e-05)
(-1.239779192e-25 -8.566679427e-07 -2.281366765e-05)
(1.239779192e-25 -8.061636035e-07 -2.451842733e-05)
(0 -7.156369581e-07 -2.608787351e-05)
(0 -5.784176207e-07 -2.742671492e-05)
(0 -3.992701533e-07 -2.844537792e-05)
(0 -1.915353244e-07 -2.906000624e-05)
(0 3.430483418e-08 -2.922390707e-05)
(0 2.658624649e-07 -2.892945724e-05)
(0 5.069492169e-07 -2.816903346e-05)
(0 7.690000328e-07 -2.692071862e-05)
(0 1.064402771e-06 -2.512066774e-05)
(0 1.393157434e-06 -2.268883619e-05)
(0 1.737158686e-06 -1.955470839e-05)
(0 2.066866259e-06 -1.571256696e-05)
(0 2.34321076e-06 -1.122435118e-05)
(0 1.232115294e-06 -6.23871526e-06)
(0 4.478686664e-08 -6.237762319e-06)
(0 1.295960416e-07 -6.053850383e-06)
(0 1.982057077e-07 -5.706037392e-06)
(0 2.468042225e-07 -5.236251748e-06)
(0 2.744386763e-07 -4.692139035e-06)
(0 2.820619686e-07 -4.11562717e-06)
(0 2.744386722e-07 -3.543879937e-06)
(0 2.553804349e-07 -3.001673022e-06)
(0 2.344163658e-07 -2.505205796e-06)
(0 2.0392318e-07 -2.063054602e-06)
(0 1.772416451e-07 -1.67998398e-06)
(0 1.496071928e-07 -1.351229296e-06)
(0 1.257843914e-07 -1.075837711e-06)
(0 1.029145036e-07 -8.499975668e-07)
(0 8.385626094e-08 -6.641797031e-07)
(0 6.765675599e-08 -5.145725103e-07)
(0 5.431598801e-08 -3.945055972e-07)
(0 4.097521841e-08 -2.992143856e-07)
(0 3.335192196e-08 -2.248872452e-07)
(0 2.477571383e-08 -1.686654365e-07)
(0 1.905824112e-08 -1.248314794e-07)
(0 1.52465929e-08 -9.147955739e-08)
(0 1.143494485e-08 -6.670384493e-08)
(0 7.623296449e-09 -4.764560281e-08)
(0 5.717472337e-09 -3.430483402e-08)
(0 3.811648282e-09 -2.477571383e-08)
(0 3.811648225e-09 -1.619950495e-08)
(0 3.811648225e-09 -1.048203262e-08)
(0 9.529120704e-10 -6.670384493e-09)
(0 1.905824112e-09 -2.858736168e-09)
(0 -1.029145041e-07 -8.127387085e-06)
(0 -3.087435127e-07 -8.262700612e-06)
(0 -5.193370807e-07 -8.539045102e-06)
(0 -7.337422975e-07 -8.955467678e-06)
(0 -9.491004278e-07 -9.51482708e-06)
(0 -1.172081852e-06 -1.022284074e-05)
(0 -1.396969102e-06 -1.107950869e-05)
(0 -1.626620914e-06 -1.209150133e-05)
(0 -1.854366897e-06 -1.325977152e-05)
(0 -2.072583763e-06 -1.458241348e-05)
(0 -2.274601126e-06 -1.605656848e-05)
(0 -2.44803112e-06 -1.766603695e-05)
(0 -2.574768426e-06 -1.938890198e-05)
(0 -2.635754801e-06 -2.11956233e-05)
(0 -2.60812035e-06 -2.302997903e-05)
(0 -2.46613645e-06 -2.482621829e-05)
(0 -2.193603598e-06 -2.649476735e-05)
(0 -1.779086843e-06 -2.793557038e-05)
(0 -1.232115313e-06 -2.903618383e-05)
(0 -5.888996631e-07 -2.970417524e-05)
(0 9.529120747e-08 -2.988141684e-05)
(0 7.899641099e-07 -2.958506118e-05)
(0 1.502742344e-06 -2.884464854e-05)
(0 2.279365683e-06 -2.764683802e-05)
(0 3.166526824e-06 -2.591920843e-05)
(0 4.172801981e-06 -2.353978702e-05)
(0 5.239110587e-06 -2.039327131e-05)
(0 6.264443979e-06 -1.645774444e-05)
(0 7.129688154e-06 -1.179895733e-05)
(0 3.753520662e-06 -6.578904964e-06)
(0 1.400780744e-07 -6.578904934e-06)
(0 4.030818118e-07 -6.365452726e-06)
(0 6.193928458e-07 -5.971899945e-06)
(0 7.670942167e-07 -5.450657043e-06)
(0 8.461859312e-07 -4.853181247e-06)
(0 8.66197072e-07 -4.232835417e-06)
(0 8.404684461e-07 -3.622971692e-06)
(0 7.813879095e-07 -3.053130319e-06)
(0 7.061078442e-07 -2.537604844e-06)
(0 6.203457578e-07 -2.083065786e-06)
(0 5.345836795e-07 -1.688560214e-06)
(0 4.535861455e-07 -1.355993876e-06)
(0 3.773531799e-07 -1.078696464e-06)
(0 3.087435154e-07 -8.490446675e-07)
(0 2.506158745e-07 -6.622738889e-07)
(0 2.039231831e-07 -5.126666939e-07)
(0 1.610421423e-07 -3.925997789e-07)
(0 1.248314812e-07 -2.98261478e-07)
(0 9.910285532e-08 -2.248872486e-07)
(0 7.528005469e-08 -1.68665439e-07)
(0 5.81276363e-08 -1.238785692e-07)
(0 4.288104317e-08 -9.147955876e-08)
(0 3.239901088e-08 -6.670384593e-08)
(0 2.382280176e-08 -4.764560352e-08)
(0 1.810532934e-08 -3.430483454e-08)
(0 1.334076919e-08 -2.382280212e-08)
(0 1.048203277e-08 -1.61995052e-08)
(0 7.623296563e-09 -9.529120704e-09)
(0 5.717472508e-09 -5.717472508e-09)
(0 7.623296563e-09 -1.905824141e-09)
(0 -1.715241709e-07 -8.034001581e-06)
(0 -5.136196013e-07 -8.17122093e-06)
(0 -8.652441509e-07 -8.444706679e-06)
(0 -1.220680349e-06 -8.859223426e-06)
(0 -1.583739847e-06 -9.417629907e-06)
(0 -1.954422636e-06 -1.012278482e-05)
(0 -2.333681636e-06 -1.098326441e-05)
(0 -2.722469761e-06 -1.200478616e-05)
(0 -3.107446229e-06 -1.318735e-05)
(0 -3.483846493e-06 -1.453572057e-05)
(0 -3.835471049e-06 -1.604989786e-05)
(0 -4.144214551e-06 -1.772130559e-05)
(0 -4.378630918e-06 -1.953469724e-05)
(0 -4.507274051e-06 -2.145957962e-05)
(-1.239779192e-25 -4.487262895e-06 -2.344925999e-05)
(1.239779192e-25 -4.271904769e-06 -2.54332229e-05)
(0 -3.824036102e-06 -2.731427133e-05)
(0 -3.118881174e-06 -2.896947955e-05)
(0 -2.169780762e-06 -3.025686374e-05)
(0 -1.034862499e-06 -3.103634585e-05)
(0 1.524659297e-07 -3.120786998e-05)
(0 1.302630787e-06 -3.088197405e-05)
(0 2.445172351e-06 -3.016919588e-05)
(0 3.694440058e-06 -2.908954647e-05)
(0 5.173359576e-06 -2.754011146e-05)
(0 6.919094481e-06 -2.530743854e-05)
(0 8.818248207e-06 -2.215139376e-05)
(0 1.066022722e-05 -1.803671948e-05)
(0 1.222300302e-05 -1.301487294e-05)
(0 6.453120473e-06 -7.283106878e-06)
(0 2.591920793e-07 -7.282153933e-06)
(0 7.337422942e-07 -7.008668278e-06)
(0 1.113954194e-06 -6.517918464e-06)
(0 1.364570064e-06 -5.879467386e-06)
(0 1.492260302e-06 -5.17335963e-06)
(0 1.511318521e-06 -4.457722599e-06)
(0 1.454143798e-06 -3.777343391e-06)
(0 1.342653107e-06 -3.152233129e-06)
(0 1.203527927e-06 -2.599544089e-06)
(0 1.053920734e-06 -2.119276413e-06)
(0 9.024077307e-07 -1.709524254e-06)
(0 7.613767328e-07 -1.366475888e-06)
(0 6.317806932e-07 -1.082508096e-06)
(0 5.193370784e-07 -8.509504789e-07)
(0 4.202342168e-07 -6.632267911e-07)
(0 3.363779558e-07 -5.117137741e-07)
(0 2.677682918e-07 -3.92599773e-07)
(0 2.105935644e-07 -2.973085615e-07)
(0 1.639008737e-07 -2.248872452e-07)
(0 1.248314812e-07 -1.677125244e-07)
(0 9.719702973e-08 -1.248314794e-07)
(0 7.242131627e-08 -9.147955739e-08)
(0 5.336307594e-08 -6.575093286e-08)
(0 4.002230636e-08 -4.859851486e-08)
(0 3.04931858e-08 -3.430483402e-08)
(0 2.191697762e-08 -2.382280176e-08)
(0 1.715241701e-08 -1.619950495e-08)
(0 1.52465929e-08 -9.529120561e-09)
(0 9.529120704e-09 -4.764560352e-09)
(0 9.529120561e-09 0)
(0 -2.382280151e-07 -7.895829333e-06)
(0 -7.204015188e-07 -8.030189945e-06)
(0 -1.207339581e-06 -8.30176987e-06)
(0 -1.704759676e-06 -8.711522056e-06)
(0 -2.214567632e-06 -9.265163977e-06)
(0 -2.738669262e-06 -9.9712718e-06)
(0 -3.2789704e-06 -1.083461013e-05)
(0 -3.827847752e-06 -1.186089643e-05)
(0 -4.387207126e-06 -1.306156561e-05)
(0 -4.936084473e-06 -1.444519392e-05)
(0 -5.460186114e-06 -1.601559302e-05)
(0 -5.931877576e-06 -1.777371575e-05)
(0 -6.312089488e-06 -1.971289179e-05)
(0 -6.55031751e-06 -2.181215709e-05)
(1.239779192e-25 -6.581763604e-06 -2.4034348e-05)
(-1.239779192e-25 -6.331147732e-06 -2.631180782e-05)
(0 -5.728907313e-06 -2.853781042e-05)
(0 -4.721679259e-06 -3.055893687e-05)
(0 -3.299934465e-06 -3.218079319e-05)
(0 -1.540858804e-06 -3.317849217e-05)
(0 2.506158719e-07 -3.323376102e-05)
(0 1.828638244e-06 -3.276969285e-05)
(0 3.29516991e-06 -3.205500885e-05)
(0 4.908450023e-06 -3.118881174e-05)
(0 6.947681833e-06 -3.001958864e-05)
(0 9.561519629e-06 -2.815950434e-05)
(0 1.251078244e-05 -2.500822411e-05)
(0 1.540191763e-05 -2.062864028e-05)
(0 1.788139484e-05 -1.502075283e-05)
(0 9.486239561e-06 -8.418025142e-06)
(0 4.154696565e-07 -8.41611928e-06)
(0 1.168270198e-06 -8.03114293e-06)
(0 1.748593623e-06 -7.355528161e-06)
(0 2.110700204e-06 -6.517918464e-06)
(0 2.267930728e-06 -5.631710336e-06)
(0 2.262213221e-06 -4.771230665e-06)
(0 2.14595795e-06 -3.982219483e-06)
(0 1.959187217e-06 -3.280876258e-06)
(0 1.739064502e-06 -2.674824142e-06)
(0 1.511318521e-06 -2.160251631e-06)
(0 1.287384207e-06 -1.731441232e-06)
(0 1.07964936e-06 -1.376005009e-06)
(0 8.928785966e-07 -1.08441392e-06)
(0 7.280248218e-07 -8.490446547e-07)
(0 5.898525627e-07 -6.603680549e-07)
(0 4.74550204e-07 -5.079021259e-07)
(0 3.754473557e-07 -3.878352127e-07)
(0 2.944498253e-07 -2.944498253e-07)
(0 2.267930694e-07 -2.20122685e-07)
(0 1.743829089e-07 -1.658067003e-07)
(0 1.343605999e-07 -1.229256552e-07)
(0 1.0196159e-07 -9.052664533e-08)
(0 7.623296563e-08 -6.575093286e-08)
(0 5.622181131e-08 -4.669269075e-08)
(0 4.192813047e-08 -3.239900991e-08)
(0 3.239901039e-08 -2.286988969e-08)
(0 2.38228014e-08 -1.52465929e-08)
(0 1.905824112e-08 -9.529120561e-09)
(0 1.429368106e-08 -5.717472423e-09)
(0 1.238785673e-08 -1.905824112e-09)
(0 -3.049318639e-07 -7.709058684e-06)
(0 -9.214659776e-07 -7.840560563e-06)
(0 -1.545623385e-06 -8.107375932e-06)
(0 -2.185027387e-06 -8.511410651e-06)
(0 -2.841583811e-06 -9.059335108e-06)
(0 -3.52291594e-06 -9.757819645e-06)
(0 -4.225212139e-06 -1.061734634e-05)
(0 -4.949425323e-06 -1.165030304e-05)
(0 -5.692696734e-06 -1.286717174e-05)
(0 -6.436921065e-06 -1.428510491e-05)
(0 -7.163992988e-06 -1.591744332e-05)
(0 -7.841513463e-06 -1.777657475e-05)
(0 -8.418025268e-06 -1.987107549e-05)
(0 -8.828730381e-06 -2.219522807e-05)
(0 -8.986913781e-06 -2.472711544e-05)
(0 -8.7753673e-06 -2.741337458e-05)
(0 -8.071165281e-06 -3.014918516e-05)
(0 -6.762816994e-06 -3.274777636e-05)
(0 -4.787430263e-06 -3.493375666e-05)
(0 -2.087830359e-06 -3.646985098e-05)
(0 5.622181241e-07 -3.599339489e-05)
(0 2.481383043e-06 -3.511385704e-05)
(0 4.024147698e-06 -3.430007018e-05)
(0 5.729860305e-06 -3.378930926e-05)
(0 8.202667139e-06 -3.337955707e-05)
(0 1.193141211e-05 -3.247619647e-05)
(0 1.634815955e-05 -2.923820119e-05)
(0 2.064769883e-05 -2.457464949e-05)
(0 2.443457146e-05 -1.810437653e-05)
(0 1.305775416e-05 -1.010372673e-05)
(0 6.460743837e-07 -1.010372668e-05)
(0 1.795286368e-06 -9.504345133e-06)
(0 2.625272754e-06 -8.510457701e-06)
(0 3.089340932e-06 -7.355528272e-06)
(0 3.238948176e-06 -6.201551847e-06)
(0 3.162715162e-06 -5.140007708e-06)
(0 2.943545386e-06 -4.209012615e-06)
(0 2.650048508e-06 -3.415236912e-06)
(0 2.322246716e-06 -2.748198411e-06)
(0 1.9973037e-06 -2.198368146e-06)
(0 1.688560214e-06 -1.747640763e-06)
(0 1.409356952e-06 -1.378863766e-06)
(0 1.157788166e-06 -1.0815552e-06)
(0 9.433829639e-07 -8.423742829e-07)
(0 7.613767443e-07 -6.508389441e-07)
(0 6.08910813e-07 -5.00278837e-07)
(0 4.812206028e-07 -3.82117746e-07)
(0 3.773531799e-07 -2.887323573e-07)
(0 2.915910936e-07 -2.182168641e-07)
(0 2.239343399e-07 -1.619950544e-07)
(0 1.715241727e-07 -1.191140088e-07)
(0 1.305489536e-07 -8.671499841e-08)
(0 9.814994473e-08 -6.384510968e-08)
(0 7.242131735e-08 -4.383395524e-08)
(0 5.431598801e-08 -3.049318625e-08)
(0 4.002230756e-08 -2.096406586e-08)
(0 3.049318625e-08 -1.429368106e-08)
(0 2.286988969e-08 -9.529120704e-09)
(0 1.810532961e-08 -5.717472508e-09)
(0 1.61995052e-08 -2.858736211e-09)
(0 -3.725886156e-07 -7.474642202e-06)
(0 -1.117765849e-06 -7.605191166e-06)
(0 -1.877236759e-06 -7.862477411e-06)
(0 -2.656718824e-06 -8.258888828e-06)
(0 -3.461929521e-06 -8.793472507e-06)
(0 -4.297633392e-06 -9.481475001e-06)
(0 -5.17050084e-06 -1.033051965e-05)
(0 -6.078626043e-06 -1.135871178e-05)
(0 -7.021056061e-06 -1.258320376e-05)
(0 -7.986355978e-06 -1.402686553e-05)
(0 -8.950702997e-06 -1.571542572e-05)
(0 -9.885509715e-06 -1.767747163e-05)
(0 -1.073074271e-05 -1.993777904e-05)
(0 -1.140635738e-05 -2.251921784e-05)
(0 -1.179991005e-05 -2.542655252e-05)
(0 -1.175512318e-05 -2.864358364e-05)
(0 -1.106235612e-05 -3.208931367e-05)
(0 -9.504344891e-06 -3.554647859e-05)
(0 -7.022961885e-06 -3.854338702e-05)
(0 -2.600497017e-06 -4.199483457e-05)
(0 1.605656822e-06 -3.937813798e-05)
(0 3.521962975e-06 -3.761810941e-05)
(0 4.620670588e-06 -3.646222713e-05)
(0 5.828963074e-06 -3.650224939e-05)
(0 8.261747564e-06 -3.743800903e-05)
(0 1.370096963e-05 -3.932096332e-05)
(0 2.041137633e-05 -3.5065258e-05)
(0 2.653669506e-05 -3.046936313e-05)
(0 3.235231741e-05 -2.281747932e-05)
(0 1.748688922e-05 -1.256891008e-05)
(0 1.01485134e-06 -1.25670042e-05)
(0 2.760586268e-06 -1.154452973e-05)
(0 3.899316134e-06 -9.995094557e-06)
(0 4.420559028e-06 -8.341792139e-06)
(0 4.482498379e-06 -6.819038776e-06)
(0 4.254752331e-06 -5.506878772e-06)
(0 3.870728772e-06 -4.414841556e-06)
(0 3.419048509e-06 -3.521963012e-06)
(0 2.95688611e-06 -2.798702709e-06)
(0 2.510923268e-06 -2.216473443e-06)
(0 2.105935676e-06 -1.747640737e-06)
(0 1.745734887e-06 -1.372193361e-06)
(0 1.429368084e-06 -1.072026063e-06)
(0 1.158741078e-06 -8.309393254e-07)
(0 9.319479909e-07 -6.403569017e-07)
(0 7.442243158e-07 -4.91702621e-07)
(0 5.860409233e-07 -3.744944437e-07)
(0 4.58350699e-07 -2.839677927e-07)
(0 3.56389109e-07 -2.115464765e-07)
(0 2.725328521e-07 -1.562775795e-07)
(0 2.086877403e-07 -1.162552708e-07)
(0 1.581834013e-07 -8.4809173e-08)
(0 1.172081847e-07 -6.193928458e-08)
(0 8.957373328e-08 -4.478686664e-08)
(0 6.479801982e-08 -3.144609785e-08)
(0 4.859851559e-08 -2.096406555e-08)
(0 3.716357019e-08 -1.429368084e-08)
(0 2.572862552e-08 -1.048203262e-08)
(0 2.286988969e-08 -6.670384493e-09)
(0 2.096406523e-08 -2.858736168e-09)
(0 -4.354808116e-07 -7.195438968e-06)
(0 -1.309301173e-06 -7.319317547e-06)
(0 -2.200273948e-06 -7.57088632e-06)
(0 -3.115069526e-06 -7.949192408e-06)
(0 -4.064169944e-06 -8.46662367e-06)
(0 -5.059010129e-06 -9.131756275e-06)
(0 -6.102448835e-06 -9.959836856e-06)
(0 -7.202109363e-06 -1.096801783e-05)
(0 -8.360850418e-06 -1.218298069e-05)
(0 -9.569142911e-06 -1.363426576e-05)
(0 -1.081459899e-05 -1.53580837e-05)
(0 -1.206291377e-05 -1.740398587e-05)
(0 -1.326072423e-05 -1.982057086e-05)
(0 -1.431845663e-05 -2.266120173e-05)
(0 -1.511223237e-05 -2.597924151e-05)
(0 -1.543717539e-05 -2.98175713e-05)
(0 -1.497501305e-05 -3.420573136e-05)
(0 -1.321689028e-05 -3.901317267e-05)
(0 -1.12357861e-05 -4.191955445e-05)
(0 -2.923534206e-06 -5.383381402e-05)
(0 4.940849033e-06 -4.214634752e-05)
(0 5.39729391e-06 -3.975644407e-05)
(0 5.140007662e-06 -3.766099051e-05)
(0 4.755031181e-06 -3.855101032e-05)
(0 5.383000229e-06 -4.077415415e-05)
(0 1.430416296e-05 -5.252451285e-05)
(0 2.520166526e-05 -4.142404018e-05)
(0 3.289452433e-05 -3.957157913e-05)
(0 4.233502417e-05 -3.024447593e-05)
(0 2.330727609e-05 -1.624715063e-05)
(0 1.66854901e-06 -1.624524473e-05)
(0 4.368148931e-06 -1.430035144e-05)
(0 5.827057223e-06 -1.175226439e-05)
(0 6.265396769e-06 -9.365219688e-06)
(0 6.074814449e-06 -7.369821953e-06)
(0 5.56595932e-06 -5.784176181e-06)
(0 4.930366978e-06 -4.536814299e-06)
(0 4.263328603e-06 -3.564844055e-06)
(0 3.629642022e-06 -2.800608533e-06)
(0 3.048365668e-06 -2.197415201e-06)
(0 2.533793195e-06 -1.720006287e-06)
(0 2.084018667e-06 -1.342653087e-06)
(0 1.70094802e-06 -1.043438701e-06)
(0 1.373146293e-06 -8.071165237e-07)
(0 1.101566337e-06 -6.203457485e-07)
(0 8.738203555e-07 -4.74550204e-07)
(0 6.889554269e-07 -3.611536747e-07)
(0 5.403011358e-07 -2.725328481e-07)
(0 4.173754806e-07 -2.0392318e-07)
(0 3.211313677e-07 -1.524659313e-07)
(0 2.439454864e-07 -1.114907106e-07)
(0 1.829591148e-07 -8.195043683e-08)
(0 1.391251623e-07 -6.003346044e-08)
(0 1.048203262e-07 -4.192813047e-08)
(0 7.623296449e-08 -3.04931858e-08)
(0 5.622181216e-08 -2.191697762e-08)
(0 4.192813047e-08 -1.429368084e-08)
(0 3.144609785e-08 -8.576208505e-09)
(0 2.57286259e-08 -3.811648282e-09)
(0 2.477571346e-08 0)
(0 -4.955142789e-07 -6.875260619e-06)
(0 -1.492260311e-06 -6.991515903e-06)
(0 -2.507111669e-06 -7.226885175e-06)
(0 -3.554362039e-06 -7.586133027e-06)
(0 -4.643540547e-06 -8.077835669e-06)
(0 -5.790846678e-06 -8.709616363e-06)
(0 -7.006762485e-06 -9.499580473e-06)
(0 -8.301770007e-06 -1.047059789e-05)
(0 -9.686351239e-06 -1.16483972e-05)
(0 -1.116241204e-05 -1.307300075e-05)
(0 -1.272232913e-05 -1.479681872e-05)
(0 -1.43470442e-05 -1.688369614e-05)
(0 -1.598795879e-05 -1.941177187e-05)
(0 -1.756502829e-05 -2.247347839e-05)
(0 -1.895627991e-05 -2.616887141e-05)
(0 -1.998066039e-05 -3.061706497e-05)
(0 -2.025700491e-05 -3.609345069e-05)
(0 -1.721912119e-05 -4.459247345e-05)
(0 -2.184169766e-05 -3.65155907e-05)
(0 -2.828243042e-06 -3.107636863e-05)
(0 1.568207401e-05 -2.154915366e-05)
(0 8.007320164e-06 -2.033037911e-05)
(0 5.826104434e-06 -1.893912751e-05)
(0 2.715799413e-06 -1.964428242e-05)
(0 -5.7136608e-06 -2.097835932e-05)
(0 1.305203671e-05 -3.074666105e-05)
(0 3.336716921e-05 -3.875398117e-05)
(0 3.771530701e-05 -5.633997351e-05)
(0 5.567484096e-05 -4.247796162e-05)
(0 3.148612077e-05 -2.208850189e-05)
(0 2.963556539e-06 -2.208373723e-05)
(0 7.252613877e-06 -1.785757247e-05)
(0 8.834447805e-06 -1.354755091e-05)
(0 8.804907531e-06 -1.015708976e-05)
(0 8.063542061e-06 -7.667130634e-06)
(0 7.08775998e-06 -5.848974288e-06)
(0 6.08910813e-06 -4.507274093e-06)
(0 5.157160203e-06 -3.498140263e-06)
(0 4.323362064e-06 -2.726281433e-06)
(0 3.591525593e-06 -2.126899741e-06)
(0 2.959744935e-06 -1.659019939e-06)
(0 2.422302483e-06 -1.291195855e-06)
(0 1.963951777e-06 -1.001510586e-06)
(0 1.582786973e-06 -7.728117007e-07)
(0 1.264514317e-06 -5.946171319e-07)
(0 1.002463498e-06 -4.535861455e-07)
(0 7.890112061e-07 -3.449541747e-07)
(0 6.165341096e-07 -2.591920832e-07)
(0 4.764560352e-07 -1.934411503e-07)
(0 3.649653284e-07 -1.429368127e-07)
(0 2.782503246e-07 -1.067261519e-07)
(0 2.105935676e-07 -7.71858777e-08)
(0 1.57230494e-07 -5.336307674e-08)
(0 1.172081847e-07 -3.906939489e-08)
(0 8.671499841e-08 -2.858736211e-08)
(0 6.479802176e-08 -1.905824169e-08)
(0 4.859851559e-08 -1.238785692e-08)
(0 3.716357075e-08 -7.623296563e-09)
(0 2.858736254e-08 -3.811648339e-09)
(0 2.763445004e-08 -1.905824141e-09)
(0 -5.51736083e-07 -6.516965581e-06)
(0 -1.661878636e-06 -6.624644654e-06)
(0 -2.794891073e-06 -6.842861506e-06)
(0 -3.965067083e-06 -7.174474903e-06)
(0 -5.187653265e-06 -7.629013967e-06)
(0 -6.481707835e-06 -8.216007785e-06)
(0 -7.862477411e-06 -8.952608808e-06)
(0 -9.350926063e-06 -9.85787528e-06)
(0 -1.096325326e-05 -1.096420617e-05)
(0 -1.271756436e-05 -1.231829421e-05)
(0 -1.462434141e-05 -1.397921995e-05)
(0 -1.667786688e-05 -1.603274542e-05)
(0 -1.885145929e-05 -1.859322012e-05)
(0 -2.107555606e-05 -2.17892872e-05)
(0 -2.325391302e-05 -2.575244844e-05)
(0 -2.536366032e-05 -3.055893688e-05)
(0 -2.895042134e-05 -3.515959633e-05)
(0 -1.363903032e-05 -2.413630958e-05)
(0 2.280318561e-06 -1.504648143e-05)
(0 1.204290264e-05 8.967855414e-06)
(0 1.568779125e-05 5.320108033e-06)
(0 8.006367132e-06 6.656090742e-06)
(0 5.826104346e-06 6.119601261e-06)
(0 2.715799372e-06 6.322571521e-06)
(0 -5.718425275e-06 5.381094405e-06)
(0 -3.471458641e-06 9.450028917e-06)
(0 -3.93552681e-07 -1.319878495e-05)
(0 2.917149691e-05 -3.377787381e-05)
(0 7.658649532e-05 -6.142566442e-05)
(0 4.370245291e-05 -3.240186879e-05)
(0 5.898525627e-06 -3.239424535e-05)
(0 1.290528817e-05 -2.173211268e-05)
(0 1.352753955e-05 -1.462338841e-05)
(0 1.214486416e-05 -1.023427548e-05)
(0 1.038292992e-05 -7.447960742e-06)
(0 8.725815698e-06 -5.580253001e-06)
(0 7.280248109e-06 -4.264281451e-06)
(0 6.046227087e-06 -3.298028676e-06)
(0 4.999929559e-06 -2.567145079e-06)
(0 4.116580082e-06 -2.003974054e-06)
(0 3.369497081e-06 -1.562775795e-06)
(0 2.741527985e-06 -1.217821608e-06)
(0 2.218379267e-06 -9.452887597e-07)
(0 1.78099266e-06 -7.299306459e-07)
(0 1.421744788e-06 -5.60312289e-07)
(0 1.123483314e-06 -4.278575132e-07)
(0 8.823965772e-07 -3.24943016e-07)
(0 6.908612407e-07 -2.458513105e-07)
(0 5.336307514e-07 -1.858178509e-07)
(0 4.068934541e-07 -1.372193381e-07)
(0 3.106493303e-07 -1.010086779e-07)
(0 2.363221899e-07 -7.337422832e-08)
(0 1.75335821e-07 -5.431598801e-08)
(0 1.305489517e-07 -3.90693943e-08)
(0 9.624411767e-08 -2.668153757e-08)
(0 7.242131735e-08 -1.905824141e-08)
(0 5.43159872e-08 -1.429368084e-08)
(0 4.097521841e-08 -7.623296449e-09)
(0 3.239901039e-08 -4.764560352e-09)
(0 2.954027374e-08 -1.905824112e-09)
(0 -6.041462463e-07 -6.122459988e-06)
(0 -1.817203302e-06 -6.22060994e-06)
(0 -3.05694189e-06 -6.415956903e-06)
(0 -4.341467347e-06 -6.717077114e-06)
(0 -5.684120449e-06 -7.124923486e-06)
(0 -7.113488531e-06 -7.653789669e-06)
(0 -8.64862986e-06 -8.315110639e-06)
(0 -1.031432016e-05 -9.128897553e-06)
(0 -1.214677003e-05 -1.012469064e-05)
(0 -1.417647272e-05 -1.134727682e-05)
(0 -1.643868598e-05 -1.286717157e-05)
(0 -1.896199709e-05 -1.478633644e-05)
(0 -2.174259448e-05 -1.725342577e-05)
(0 -2.472425635e-05 -2.045711613e-05)
(0 -2.772688223e-05 -2.463754133e-05)
(0 -2.938494922e-05 -3.086005709e-05)
(0 -1.383628313e-05 -1.766127215e-05)
(0 2.89494684e-06 5.231487212e-06)
(0 1.126056182e-05 9.210847976e-06)
(0 1.75383465e-05 1.626335016e-05)
(0 1.337126203e-05 1.09670649e-05)
(0 8.806813262e-06 1.212294723e-05)
(0 5.492585125e-06 1.143303892e-05)
(0 1.977292525e-06 1.178752219e-05)
(0 -2.587156244e-06 1.114335363e-05)
(0 -5.526889959e-06 1.659210482e-05)
(0 -9.860734001e-06 1.030479102e-05)
(0 -1.051157294e-05 7.451772312e-06)
(0 5.705179805e-05 -3.982028924e-05)
(0 6.051753913e-05 -6.466842407e-05)
(0 1.363331279e-05 -4.584078737e-05)
(0 2.502251806e-05 -2.230576574e-05)
(0 2.033037872e-05 -1.319878489e-05)
(0 1.598033518e-05 -8.897339868e-06)
(0 1.27185174e-05 -6.465508398e-06)
(0 1.027048614e-05 -4.89415632e-06)
(0 8.371332413e-06 -3.786872511e-06)
(0 6.854296523e-06 -2.962603627e-06)
(0 5.617416571e-06 -2.326058329e-06)
(0 4.596847759e-06 -1.827685324e-06)
(0 3.745897349e-06 -1.434132666e-06)
(0 3.039789459e-06 -1.12157749e-06)
(0 2.45184272e-06 -8.728674434e-07)
(0 1.966810513e-06 -6.7656757e-07)
(0 1.565634508e-06 -5.212428947e-07)
(0 1.238785673e-06 -3.983172395e-07)
(0 9.719703118e-07 -3.020731263e-07)
(0 7.556592605e-07 -2.286988935e-07)
(0 5.869938266e-07 -1.715241701e-07)
(0 4.488215852e-07 -1.276902174e-07)
(0 3.411425161e-07 -9.33853815e-08)
(0 2.582391672e-07 -6.95625801e-08)
(0 1.924882382e-07 -5.050433973e-08)
(0 1.438897205e-07 -3.430483402e-08)
(0 1.067261503e-07 -2.572862552e-08)
(0 7.813878977e-08 -1.61995052e-08)
(0 5.908054748e-08 -1.048203262e-08)
(0 4.478686664e-08 -7.623296449e-09)
(0 3.621065868e-08 -3.811648282e-09)
(0 3.239900991e-08 -9.529120561e-10)
(0 -6.49886035e-07 -5.701272943e-06)
(0 -1.95537558e-06 -5.787035038e-06)
(0 -3.291358306e-06 -5.959512115e-06)
(0 -4.674033726e-06 -6.220610024e-06)
(0 -6.124365913e-06 -6.576046237e-06)
(0 -7.670942201e-06 -7.033444023e-06)
(0 -9.338538332e-06 -7.60137962e-06)
(0 -1.115955332e-05 -8.295099623e-06)
(0 -1.318163273e-05 -9.139379709e-06)
(0 -1.546195132e-05 -1.016757184e-05)
(0 -1.806149549e-05 -1.144733277e-05)
(0 -2.106412141e-05 -1.308824735e-05)
(0 -2.452319224e-05 -1.528280385e-05)
(0 -2.845967205e-05 -1.826732449e-05)
(6.198896052e-26 -3.365685449e-05 -2.160061092e-05)
(-6.198896052e-26 -1.838834431e-05 -1.919831958e-05)
(0 7.141123095e-06 -1.849602339e-06)
(0 1.323308998e-05 8.66673532e-06)
(0 1.33131346e-05 1.47968187e-05)
(0 1.379816686e-05 1.242692638e-05)
(0 1.15454827e-05 1.013993739e-05)
(0 8.473294168e-06 9.693021624e-06)
(0 5.490679383e-06 9.504345047e-06)
(0 2.427067054e-06 9.911238489e-06)
(0 -9.128897676e-07 1.08355632e-05)
(0 -4.310974232e-06 1.349704665e-05)
(0 -9.532932395e-06 1.530472083e-05)
(0 -2.095453652e-05 2.059147702e-05)
(0 4.466298901e-06 2.314623433e-05)
(0 3.768195508e-05 -1.98396294e-05)
(0 4.826118472e-05 -1.019901789e-05)
(0 4.554729183e-05 -8.740109641e-06)
(0 2.693787132e-05 -7.192580308e-06)
(0 1.887814103e-05 -5.869938354e-06)
(0 1.438420792e-05 -4.778854105e-06)
(0 1.140540457e-05 -3.882163775e-06)
(0 9.211800985e-06 -3.141751096e-06)
(0 7.507041403e-06 -2.530934497e-06)
(0 6.134847909e-06 -2.02970271e-06)
(0 5.00755293e-06 -1.618044696e-06)
(0 4.075604986e-06 -1.282619666e-06)
(0 3.302793236e-06 -1.011039707e-06)
(0 2.664342149e-06 -7.909170185e-07)
(0 2.132617246e-06 -6.155812067e-07)
(0 1.699995134e-06 -4.745502111e-07)
(0 1.342653107e-06 -3.64965323e-07)
(0 1.052967854e-06 -2.772974167e-07)
(0 8.204572926e-07 -2.096406555e-07)
(0 6.336865268e-07 -1.572304916e-07)
(0 4.859851632e-07 -1.181610985e-07)
(0 3.687769713e-07 -8.671499841e-08)
(0 2.792032366e-07 -6.384510872e-08)
(0 2.096406586e-07 -4.669269215e-08)
(0 1.562775795e-07 -3.430483454e-08)
(0 1.153023605e-07 -2.286988969e-08)
(0 8.576208762e-08 -1.524659336e-08)
(0 6.384510872e-08 -1.048203277e-08)
(0 4.859851559e-08 -5.717472423e-09)
(0 3.71635713e-08 -2.858736254e-09)
(0 3.525774661e-08 -9.529120704e-10)
(0 -6.889554197e-07 -5.261980398e-06)
(0 -2.075442471e-06 -5.33344881e-06)
(0 -3.491469789e-06 -5.480197259e-06)
(0 -4.957048538e-06 -5.699367033e-06)
(0 -6.49790735e-06 -5.995722693e-06)
(0 -8.138821908e-06 -6.37307586e-06)
(0 -9.91123834e-06 -6.835238209e-06)
(0 -1.185327314e-05 -7.387927216e-06)
(0 -1.401924223e-05 -8.046389438e-06)
(0 -1.648442573e-05 -8.822059855e-06)
(0 -1.935745562e-05 -9.750196217e-06)
(0 -2.279746813e-05 -1.092227804e-05)
(0 -2.692262444e-05 -1.261750859e-05)
(0 -3.10411104e-05 -1.58250106e-05)
(0 -2.865692441e-05 -2.439931332e-05)
(0 -9.634893847e-06 -6.022404225e-06)
(0 1.402972428e-05 5.017082003e-06)
(0 1.954136762e-05 7.382209732e-06)
(0 1.502075281e-05 9.102216001e-06)
(0 1.288146525e-05 8.481870263e-06)
(0 1.063735733e-05 7.459395609e-06)
(0 8.171220918e-06 6.989609963e-06)
(0 5.711754899e-06 6.970551732e-06)
(0 3.307557762e-06 7.524193629e-06)
(0 9.986518393e-07 8.811577823e-06)
(0 -1.058685301e-06 1.129105502e-05)
(0 -2.767256623e-06 1.518846533e-05)
(0 -2.670059593e-06 2.328250037e-05)
(0 1.662164509e-05 4.161176392e-05)
(0 2.717324031e-05 3.315371641e-05)
(0 2.47318795e-05 2.306904797e-05)
(0 2.802895564e-05 4.460581402e-06)
(0 2.319959692e-05 -1.18161095e-06)
(0 1.839406142e-05 -2.792985237e-06)
(0 1.470629198e-05 -3.050271537e-06)
(0 1.190854197e-05 -2.836819191e-06)
(0 9.722561709e-06 -2.473759698e-06)
(0 7.966344909e-06 -2.084018698e-06)
(0 6.531259233e-06 -1.720959173e-06)
(0 5.342024987e-06 -1.39982781e-06)
(0 4.352902338e-06 -1.126342067e-06)
(0 3.530539168e-06 -8.957373328e-07)
(0 2.848254136e-06 -7.070607456e-07)
(0 2.282224409e-06 -5.517360888e-07)
(0 1.817203291e-06 -4.297633373e-07)
(0 1.436991381e-06 -3.316133955e-07)
(0 1.126342067e-06 -2.525216987e-07)
(0 8.766790916e-07 -1.915353233e-07)
(0 6.775204719e-07 -1.429368084e-07)
(0 5.193370784e-07 -1.07679064e-07)
(0 3.945055912e-07 -8.004461272e-08)
(0 2.982614736e-07 -6.003345954e-08)
(0 2.239343366e-07 -4.383395524e-08)
(0 1.667596098e-07 -3.239900991e-08)
(0 1.257843914e-07 -2.191697729e-08)
(0 9.147955876e-08 -1.61995052e-08)
(0 6.670384393e-08 -1.143494467e-08)
(0 5.336307514e-08 -7.623296449e-09)
(0 4.19281311e-08 -3.811648282e-09)
(0 3.621065813e-08 0)
(0 -7.223073418e-07 -4.811252993e-06)
(0 -2.173592413e-06 -4.870333548e-06)
(0 -3.657276488e-06 -4.986588812e-06)
(0 -5.189559081e-06 -5.163830455e-06)
(0 -6.798074649e-06 -5.400152655e-06)
(0 -8.510457612e-06 -5.692696649e-06)
(0 -1.035338954e-05 -6.042415375e-06)
(0 -1.236975147e-05 -6.448355923e-06)
(0 -1.461576518e-05 -6.901942054e-06)
(0 -1.716575786e-05 -7.390785941e-06)
(0 -2.016361923e-05 -7.882488576e-06)
(0 -2.393048057e-05 -8.308440255e-06)
(0 -2.942497151e-05 -8.507598875e-06)
(0 -4.024147635e-05 -8.09879961e-06)
(0 -2.385424762e-05 -6.068144003e-06)
(0 1.102900419e-05 6.126271639e-06)
(0 2.054383113e-05 1.042962251e-05)
(0 1.731727087e-05 6.706595081e-06)
(0 1.4411842e-05 5.710801978e-06)
(0 1.215629917e-05 4.909402943e-06)
(0 1.005417515e-05 4.193765978e-06)
(0 7.984450154e-06 3.81545989e-06)
(0 6.025262967e-06 3.847858906e-06)
(0 4.266187295e-06 4.393877511e-06)
(0 2.854924533e-06 5.596452531e-06)
(0 2.066866262e-06 7.685235779e-06)
(0 2.458513116e-06 1.090893727e-05)
(0 5.469715227e-06 1.579165867e-05)
(0 1.433656197e-05 2.165111496e-05)
(0 1.914019165e-05 1.17494057e-05)
(0 1.956709616e-05 1.040675257e-05)
(0 2.129663186e-05 4.462487226e-06)
(0 1.968430434e-05 6.079578918e-07)
(0 1.701043311e-05 -1.230209464e-06)
(0 1.434132666e-05 -1.922976558e-06)
(0 1.198001037e-05 -2.052572569e-06)
(0 9.965554283e-06 -1.923929441e-06)
(0 8.258888914e-06 -1.695230573e-06)
(0 6.819038674e-06 -1.438897205e-06)
(0 5.60312289e-06 -1.193045894e-06)
(0 4.57969541e-06 -9.729232239e-07)
(0 3.722074491e-06 -7.832937101e-07)
(0 3.007390449e-06 -6.222515727e-07)
(0 2.410867538e-06 -4.897968042e-07)
(0 1.920117793e-06 -3.811648225e-07)
(0 1.51989473e-06 -2.954027374e-07)
(0 1.192093e-06 -2.267930728e-07)
(0 9.290892547e-07 -1.724770822e-07)
(0 7.184956903e-07 -1.295960396e-07)
(0 5.488773526e-07 -9.624411911e-08)
(0 4.173754806e-07 -7.146840421e-08)
(0 3.144609785e-07 -5.241016309e-08)
(0 2.372751055e-07 -3.811648282e-08)
(0 1.772416424e-07 -2.954027374e-08)
(0 1.324547758e-07 -2.001115318e-08)
(0 9.719703118e-08 -1.524659313e-08)
(0 7.337422832e-08 -8.576208505e-09)
(0 5.43159872e-08 -5.717472337e-09)
(0 4.478686731e-08 -3.811648282e-09)
(0 3.90693943e-08 -9.529120561e-10)
(0 -7.480359787e-07 -4.35861983e-06)
(0 -2.251731236e-06 -4.403406704e-06)
(0 -3.784966761e-06 -4.493933344e-06)
(0 -5.369659541e-06 -4.627341035e-06)
(0 -7.026773649e-06 -4.802676864e-06)
(0 -8.782990593e-06 -5.014223337e-06)
(0 -1.066594485e-05 -5.257215916e-06)
(0 -1.27118471e-05 -5.520219657e-06)
(0 -1.496167249e-05 -5.784176294e-06)