/*--------------------------------*- C++ -*----------------------------------*\
  =========                 |
  \\      /  F ield         | OpenFOAM: The Open Source CFD Toolbox
   \\    /   O peration     | Website:  https://openfoam.org
    \\  /    A nd           | Version:  10
     \\/     M anipulation  |
\*---------------------------------------------------------------------------*/
FoamFile
{
    format      ascii;
    class       volVectorField;
    location    "0.0001";
    object      Marangoni;
}
// * * * * * * * * * * * * * * * * * * * * * * * * * * * * * * * * * * * * * //

dimensions      [1 -2 -2 0 0 0 0];

internalField   nonuniform List<vector> 
3600
(
(-0 2.797185736e-06 4.720443662e-08)
(-0 1.817986459e-06 2.952716678e-08)
(-0 3.208609397e-07 5.022910255e-09)
(-0 5.604276829e-07 8.467340322e-09)
(-0 2.340243542e-07 3.416750544e-09)
(-0 1.496114408e-07 2.113199265e-09)
(-0 1.881508146e-07 2.573786956e-09)
(-0 1.114305777e-07 1.477754178e-09)
(-0 3.266772468e-08 4.204017876e-10)
(-0 6.49297983e-08 8.115817657e-10)
(-0 3.239242596e-08 3.935941998e-10)
(-0 2.205642438e-08 2.607430087e-10)
(-0 5.524215271e-09 6.358546141e-11)
(-0 9.816826378e-09 1.101002341e-10)
(-0 1.125904175e-08 1.231267786e-10)
(-0 5.199753234e-09 5.548257033e-11)
(-0 4.820340653e-09 5.02167696e-11)
(-0 4.220515767e-10 4.295312716e-12)
(-0 1.993388902e-09 1.983024133e-11)
(-0 4.325638922e-11 4.208523445e-13)
(-0 6.066380329e-10 5.775354391e-12)
(-0 5.158694042e-10 4.808108443e-12)
(-0 2.016262183e-10 1.84066027e-12)
(-0 1.255013454e-10 1.122703905e-12)
(-0 1.192319566e-10 1.045658416e-12)
(-0 3.622820766e-11 3.116068762e-13)
(-0 4.972401729e-12 4.196287492e-14)
(-0 3.839598668e-11 3.180483217e-13)
(-0 9.498971063e-12 7.726014755e-14)
(-0 7.233064591e-12 5.778708384e-14)
(-0 8.456957105e-12 6.639027524e-14)
(-0 9.963130017e-13 7.688038909e-15)
(-0 2.809309623e-12 2.131528891e-14)
(-0 7.180039804e-13 5.358317434e-15)
(-0 9.492901109e-13 6.970173634e-15)
(-0 9.253294177e-14 6.686709238e-16)
(-0 7.672039189e-14 5.457863198e-16)
(-0 1.377188254e-13 9.647653271e-16)
(-0 2.296088762e-14 1.584328614e-16)
(-0 4.984162392e-14 3.388295209e-16)
(-0 2.262337459e-14 1.515487242e-16)
(-0 1.323672203e-14 8.738946251e-17)
(-0 7.280126384e-15 4.736321064e-17)
(-0 7.470146443e-15 4.789503919e-17)
(-0 1.475645506e-15 9.318212108e-18)
(-0 1.610505822e-15 1.000907776e-17)
(-0 1.102074698e-15 6.728525837e-18)
(-0 3.718000372e-16 2.22258911e-18)
(-0 2.289427541e-16 1.324034032e-18)
(-0 3.31424606e-17 1.842860665e-19)
(-0 1.058624317e-16 5.510989363e-19)
(-0 5.668347032e-17 2.660183158e-19)
(-0 3.32412684e-17 1.081016859e-19)
(-0 1.596807785e-17 2.727254971e-20)
(-0 5.126188007e-18 -8.053712502e-21)
(-0 2.947757795e-18 -2.14538413e-20)
(-0 1.177145448e-18 -1.919258883e-20)
(-0 1.460142052e-18 -5.268553797e-20)
(-0 9.246429083e-19 -7.953917491e-20)
(-0 2.23190552e-19 -7.439685066e-20)
(-0 1.950307931e-06 9.875577856e-08)
(-0 4.184666796e-07 2.039328439e-08)
(-0 5.945246022e-07 2.792552724e-08)
(-0 3.885726201e-07 1.76153302e-08)
(-0 3.103665514e-07 1.359617459e-08)
(-0 2.371000918e-07 1.004837039e-08)
(-0 1.966107086e-07 8.069762353e-09)
(-0 1.621220432e-07 6.450982768e-09)
(-0 8.326558653e-08 3.215112485e-09)
(-0 8.937198642e-08 3.351764959e-09)
(-0 4.440433089e-08 1.618875265e-09)
(-0 3.454022474e-08 1.225136358e-09)
(-0 3.36114543e-09 1.160793677e-10)
(-0 1.549356445e-08 5.213719769e-10)
(-0 7.435993042e-09 2.439876855e-10)
(-0 7.873712715e-09 2.520750229e-10)
(-0 3.92720917e-09 1.22752401e-10)
(-0 3.619546694e-09 1.105240604e-10)
(-0 5.694535781e-10 1.699675883e-11)
(-0 1.52606281e-09 4.454737695e-11)
(-0 6.880027964e-10 1.965205023e-11)
(-0 4.393466697e-10 1.228595459e-11)
(-0 3.769527921e-10 1.032474007e-11)
(-0 1.045106795e-10 2.805055931e-12)
(-0 0 0)
(-0 6.619981291e-11 1.708354541e-12)
(-0 3.647188596e-11 9.234574831e-13)
(-0 3.342369431e-11 8.306537614e-13)
(-0 2.660115393e-11 6.49137118e-13)
(-0 1.965071415e-12 4.710234421e-14)
(-0 5.664645843e-12 1.334190052e-13)
(-0 4.253843182e-12 9.8481499e-14)
(-0 1.412873633e-12 3.216232084e-14)
(-0 1.530643244e-12 3.427099674e-14)
(-0 4.495174808e-13 9.902424648e-15)
(-0 4.327588199e-13 9.382345636e-15)
(-0 2.50119891e-13 5.338355086e-15)
(-0 3.59868992e-14 7.563368223e-16)
(-0 1.147377366e-13 2.375191775e-15)
(-0 2.471403728e-14 5.040344371e-16)
(-0 1.148339832e-14 2.307776292e-16)
(-0 3.58047379e-15 7.091353083e-17)
(-0 4.695724459e-15 9.166465348e-17)
(-0 2.385326378e-16 4.588133291e-18)
(-0 1.871681298e-15 3.546681621e-17)
(-0 7.809442826e-16 1.456242455e-17)
(-0 6.933609068e-16 1.269316725e-17)
(-0 4.707286483e-16 8.420758847e-18)
(-0 2.399057835e-16 4.164608761e-18)
(-0 1.143467736e-16 1.891516385e-18)
(-0 4.812306653e-17 7.43876177e-19)
(-0 2.714920972e-17 3.643024946e-19)
(-0 2.912708309e-17 2.795436345e-19)
(-0 1.058118428e-17 3.6408376e-20)
(-0 3.871715156e-18 -3.063065788e-20)
(-0 1.53992301e-18 -4.064312929e-20)
(-0 4.869669367e-19 -3.060174739e-20)
(-0 5.07069781e-19 -6.866569951e-20)
(-0 8.247432548e-19 -2.62830268e-19)
(-0 1.908596231e-19 -2.128818873e-19)
(-0 3.154743588e-07 2.663337023e-08)
(-0 7.270938436e-07 5.907644401e-08)
(-0 5.185974189e-07 4.061207387e-08)
(-0 2.861648957e-07 2.162840665e-08)
(-0 3.915165829e-07 2.859422851e-08)
(-0 1.413556521e-07 9.987590412e-09)
(-0 1.070531944e-07 7.325451128e-09)
(-0 9.582298057e-08 6.356709794e-09)
(-0 6.56211588e-08 4.224265815e-09)
(-0 4.9898377e-08 3.119845645e-09)
(-0 1.174922188e-08 7.141171553e-10)
(-0 2.312907805e-08 1.367689603e-09)
(-0 2.128012306e-08 1.22520661e-09)
(-0 4.295922373e-09 2.410003075e-10)
(-0 2.402848441e-09 1.314369164e-10)
(-0 7.631756563e-09 4.073182804e-10)
(-0 1.209316285e-09 6.301471703e-11)
(-0 2.396846425e-09 1.220101291e-10)
(-0 4.594288809e-10 2.285998599e-11)
(-0 1.336898674e-09 6.505713391e-11)
(-0 7.736003315e-10 3.683645588e-11)
(-0 5.434625025e-10 2.533445277e-11)
(-0 1.216481004e-10 5.554369415e-12)
(-0 1.874383324e-10 8.386359676e-12)
(-0 8.065302198e-11 3.537623167e-12)
(-0 4.011439001e-11 1.725638401e-12)
(-0 2.520052636e-11 1.063638042e-12)
(-0 2.018238629e-11 8.361052927e-13)
(-0 4.170193445e-12 1.696338196e-13)
(-0 6.260817196e-12 2.501571846e-13)
(-0 2.795191177e-12 1.097417357e-13)
(-0 1.811084267e-12 6.989158345e-14)
(-0 1.588458177e-12 6.027408022e-14)
(-0 1.180625402e-12 4.406293416e-14)
(-0 3.938421426e-13 1.44618299e-14)
(-0 2.594822117e-13 9.377276463e-15)
(-0 1.930385243e-13 6.86758808e-15)
(-0 9.831471915e-14 3.444184075e-15)
(-0 9.984476254e-14 3.445158445e-15)
(-0 4.263494806e-14 1.449315874e-15)
(-0 2.69886755e-14 9.040064635e-16)
(-0 5.250475131e-16 1.73314722e-17)
(-0 8.5767141e-15 2.790019112e-16)
(-0 5.077348139e-15 1.627410525e-16)
(-0 1.128838555e-15 3.562522064e-17)
(-0 3.144807596e-16 9.76185526e-18)
(-0 3.905141603e-16 1.189045455e-17)
(-0 2.346707639e-16 6.973251933e-18)
(-0 1.067154251e-16 3.067390327e-18)
(-0 1.35261466e-16 3.690338941e-18)
(-0 2.727458361e-17 6.780385158e-19)
(-0 1.907152598e-17 3.984577839e-19)
(-0 2.054076674e-17 2.880002942e-19)
(-0 1.777390839e-18 1.551628843e-21)
(-0 1.481606023e-18 -3.213121495e-20)
(-0 1.132644043e-18 -7.236804437e-20)
(-0 2.148031221e-19 -3.094116995e-20)
(-0 9.143151616e-19 -2.757458424e-19)
(-0 8.635004555e-20 -5.564780714e-20)
(-0 9.133643814e-20 -2.228609091e-19)
(-0 1.234759877e-06 1.460178117e-07)
(-0 7.985936929e-07 9.088739207e-08)
(-0 6.162707602e-07 6.759955309e-08)
(-0 3.162002798e-07 3.347435471e-08)
(-0 1.338088964e-07 1.368831668e-08)
(-0 1.555902735e-07 1.53979334e-08)
(-0 2.299198057e-07 2.203634826e-08)
(-0 7.201671131e-08 6.691459206e-09)
(-0 1.166058096e-07 1.051353726e-08)
(-0 4.935166986e-08 4.321816983e-09)
(-0 3.161360503e-08 2.691216542e-09)
(-0 2.378270062e-08 1.969703848e-09)
(-0 9.31352398e-09 7.510275509e-10)
(-0 8.849260237e-09 6.952975027e-10)
(-0 6.412703955e-09 4.912814953e-10)
(-0 4.750875641e-09 3.551213768e-10)
(-0 3.575562804e-09 2.609369894e-10)
(-0 2.676343652e-09 1.908015885e-10)
(-0 1.977800399e-09 1.378223892e-10)
(-0 1.230692651e-09 8.387274929e-11)
(-0 4.277322743e-10 2.852352875e-11)
(-0 3.850718376e-10 2.513905725e-11)
(-0 2.948672564e-10 1.88545679e-11)
(-0 1.314969354e-10 8.239231921e-12)
(-0 8.637104324e-11 5.305308568e-12)
(-0 1.377316305e-11 8.29718019e-13)
(-0 1.489726945e-11 8.805093357e-13)
(-0 2.368849845e-11 1.374247631e-12)
(-0 1.463926476e-11 8.338935586e-13)
(-0 6.981760109e-12 3.90641392e-13)
(-0 5.444514513e-12 2.993279175e-13)
(-0 2.531584803e-12 1.368052982e-13)
(-0 1.306095021e-12 6.939854199e-14)
(-0 1.501480498e-12 7.846904426e-14)
(-0 2.678573893e-13 1.377267733e-14)
(-0 0 0)
(-0 2.659906513e-13 1.32504673e-14)
(-0 1.123215106e-13 5.509722843e-15)
(-0 8.68424184e-14 4.195708798e-15)
(-0 1.5127949e-14 7.200319659e-16)
(-0 3.62272834e-15 1.69893549e-16)
(-0 1.810413874e-14 8.366096411e-16)
(-0 6.811219953e-15 3.101186636e-16)
(-0 2.758352594e-15 1.236985741e-16)
(-0 1.261625373e-15 5.568156456e-17)
(-0 5.886697419e-16 2.552449952e-17)
(-0 6.896232847e-16 2.927329469e-17)
(-0 2.546029762e-16 1.05112453e-17)
(-0 2.593484681e-16 1.027348184e-17)
(-0 5.966409602e-17 2.211103606e-18)
(-0 5.02679221e-17 1.647709344e-18)
(-0 2.043973997e-17 5.237479837e-19)
(-0 1.240375145e-17 1.568567791e-19)
(-0 6.037430921e-18 -6.465789473e-20)
(-0 4.36048665e-18 -2.362825278e-19)
(-0 8.941707805e-19 -1.180468254e-19)
(-0 1.390898202e-18 -3.911901194e-19)
(-0 2.088605255e-19 -1.174134846e-19)
(-0 4.368100652e-19 -5.422469775e-19)
(-0 2.446114263e-20 -1.016078232e-19)
(-0 9.910187885e-07 1.507874517e-07)
(-0 2.153395973e-07 3.153204914e-08)
(-0 3.350130382e-07 4.727982513e-08)
(-0 1.567182335e-07 2.134536414e-08)
(-0 6.74282589e-08 8.874299252e-09)
(-0 1.765307389e-07 2.247610781e-08)
(-0 9.988829341e-08 1.231665799e-08)
(-0 6.61875992e-08 7.911774138e-09)
(-0 2.464977566e-08 2.859211029e-09)
(-0 6.050757746e-08 6.81669362e-09)
(-0 1.736110548e-08 1.901281115e-09)
(-0 2.150589314e-08 2.291322801e-09)
(-0 1.111773009e-08 1.153297816e-09)
(-0 5.258456158e-09 5.314956654e-10)
(-0 4.769435319e-09 4.700326013e-10)
(-0 3.571509152e-09 3.434160319e-10)
(-0 1.845238468e-09 1.732220081e-10)
(-0 9.907483122e-10 9.085657477e-11)
(-0 1.036453309e-09 9.290380164e-11)
(-0 4.190004834e-10 3.673040628e-11)
(-0 5.31725741e-10 4.56091937e-11)
(-0 2.041096321e-10 1.713948723e-11)
(-0 2.835080623e-10 2.331719334e-11)
(-0 5.903587884e-11 4.757752281e-12)
(-0 1.220964821e-10 9.646157982e-12)
(-0 5.273238013e-11 4.085800578e-12)
(-0 7.573871419e-12 5.757614688e-13)
(-0 6.662017141e-12 4.970787635e-13)
(-0 7.467640535e-12 5.470935307e-13)
(-0 5.737744963e-12 4.12891937e-13)
(-0 1.858261316e-12 1.313928871e-13)
(-0 1.813607448e-12 1.260451238e-13)
(-0 8.961356363e-13 6.123743309e-14)
(-0 9.748521844e-13 6.552096587e-14)
(-0 4.334564153e-13 2.866275672e-14)
(-0 1.478135632e-13 9.619333678e-15)
(-0 8.191975325e-15 5.248053477e-16)
(-0 1.413513993e-13 8.916628186e-15)
(-0 6.758386501e-14 4.198900958e-15)
(-0 1.090630178e-14 6.67487975e-16)
(-0 2.766668816e-14 1.668202175e-15)
(-0 1.021941547e-14 6.070786638e-16)
(-0 0 0)
(-0 3.920396737e-15 2.25818683e-16)
(-0 1.022919773e-15 5.793262654e-17)
(-0 8.650042663e-16 4.803655871e-17)
(-0 1.358157904e-16 7.360922304e-18)
(-0 2.765732708e-16 1.448074686e-17)
(-0 8.180523557e-17 4.064039182e-18)
(-0 1.829091348e-17 8.294208977e-19)
(-0 2.245765544e-17 8.549527102e-19)
(-0 8.80247872e-18 2.216884868e-19)
(-0 1.175433753e-17 2.945211108e-20)
(-0 7.783003265e-18 -3.043032555e-19)
(-0 5.076562365e-18 -5.841053144e-19)
(-0 2.930044491e-18 -7.554020954e-19)
(-0 4.563651893e-19 -2.381614253e-19)
(-0 7.568888502e-19 -7.907162848e-19)
(-0 3.023044585e-19 -6.678819431e-19)
(-0 6.602471107e-20 -5.044287925e-19)
(-0 7.974668227e-07 1.484390953e-07)
(-0 3.311296989e-07 5.931536023e-08)
(-0 4.352007992e-07 7.51334749e-08)
(-0 2.293059917e-07 3.820487347e-08)
(-0 1.900246036e-07 3.059228033e-08)
(-0 2.668840008e-07 4.156469563e-08)
(-0 3.128298767e-08 4.718238701e-09)
(-0 9.684885954e-08 1.41604728e-08)
(-0 8.616089473e-08 1.222425267e-08)
(-0 5.084794512e-08 7.006631752e-09)
(-0 4.34403811e-09 5.818719542e-10)
(-0 1.633964441e-08 2.129261782e-09)
(-0 1.296291335e-08 1.64466804e-09)
(-0 3.008157668e-09 3.718645361e-10)
(-0 4.288165948e-10 5.168535352e-11)
(-0 4.744226911e-09 5.579061468e-10)
(-0 2.593559425e-09 2.977594351e-10)
(-0 1.903257584e-09 2.134524396e-10)
(-0 9.455838576e-10 1.036540006e-10)
(-0 2.93868261e-10 3.150343645e-11)
(-0 4.283834064e-10 4.493484265e-11)
(-0 2.162839247e-10 2.220937822e-11)
(-0 2.828070009e-10 2.844270972e-11)
(-0 1.343070894e-10 1.323570253e-11)
(-0 5.308802092e-11 5.128644045e-12)
(-0 3.27533569e-11 3.10315301e-12)
(-0 2.885352307e-11 2.682033076e-12)
(-0 2.303638129e-11 2.101684962e-12)
(-0 1.103636252e-11 9.88624941e-13)
(-0 5.926023247e-12 5.214104178e-13)
(-0 4.229992301e-12 3.656956328e-13)
(-0 2.308511149e-12 1.961660816e-13)
(-0 8.81753932e-13 7.36705381e-14)
(-0 4.239274104e-13 3.483614401e-14)
(-0 4.527993216e-13 3.66073777e-14)
(-0 2.257759213e-13 1.796348171e-14)
(-0 4.77579214e-14 3.740474196e-15)
(-0 8.73359707e-14 6.73519852e-15)
(-0 4.843005655e-14 3.678240286e-15)
(-0 1.323307249e-14 9.899679193e-16)
(-0 1.545668555e-14 1.139032163e-15)
(-0 1.475685614e-14 1.071077483e-15)
(-0 9.717802638e-15 6.944204788e-16)
(-0 3.367482854e-16 2.366855795e-17)
(-0 1.865211672e-15 1.286783756e-16)
(-0 7.186914291e-16 4.847691557e-17)
(-0 3.710876434e-16 2.429060806e-17)
(-0 3.051197179e-16 1.910421754e-17)
(-0 2.826733435e-16 1.643163228e-17)
(-0 9.689155214e-17 4.927040266e-18)
(-0 4.832392807e-17 1.840230576e-18)
(-0 5.919874327e-18 9.172228879e-20)
(-0 4.397355834e-18 -1.133103143e-19)
(-0 6.229885565e-18 -6.24773624e-19)
(-0 4.626473405e-18 -1.100767597e-18)
(-0 1.466135438e-18 -7.211672688e-19)
(-0 1.064272418e-18 -1.028903848e-18)
(-0 6.184905832e-19 -1.179779725e-18)
(-0 2.998913395e-19 -1.192425088e-18)
(-0 1.057107333e-19 -1.420752255e-18)
(-0 1.160211474e-06 2.555159747e-07)
(-0 6.320953643e-07 1.339623124e-07)
(-0 8.462403657e-08 1.728440656e-08)
(-0 8.976416577e-08 1.769334673e-08)
(-0 3.013258079e-07 5.738912697e-08)
(-0 4.442616637e-08 8.185039824e-09)
(-0 1.373497103e-07 2.450579414e-08)
(-0 1.032793878e-07 1.786307944e-08)
(-0 2.348030675e-08 3.940631312e-09)
(-0 4.21326323e-08 6.867443387e-09)
(-0 1.296268766e-08 2.053809648e-09)
(-0 2.054626247e-08 3.166950468e-09)
(-0 9.224898744e-09 1.384362166e-09)
(-0 9.469517597e-10 1.384569694e-10)
(-0 9.926225753e-09 1.415053961e-09)
(-0 3.587081055e-09 4.989072706e-10)
(-0 2.077165038e-09 2.820416113e-10)
(-0 3.459086814e-09 4.588045672e-10)
(-0 1.158586306e-09 1.50198988e-10)
(-0 2.516215092e-10 3.190035831e-11)
(-0 3.722807446e-10 4.61799859e-11)
(-0 4.082585886e-10 4.957587531e-11)
(-0 1.700857607e-10 2.022842925e-11)
(-0 3.708276421e-11 4.321398312e-12)
(-0 7.218436636e-11 8.246019156e-12)
(-0 7.585999443e-11 8.498586134e-12)
(-0 3.200027291e-11 3.517200351e-12)
(-0 2.664622995e-11 2.874479573e-12)
(-0 1.552615863e-11 1.644492758e-12)
(-0 4.100737376e-12 4.266120728e-13)
(-0 1.280603257e-12 1.30900803e-13)
(-0 1.093820749e-12 1.098951069e-13)
(-0 1.733357467e-12 1.712251077e-13)
(-0 8.329647185e-13 8.092638587e-14)
(-0 7.582099799e-13 7.247166604e-14)
(-0 2.037696794e-13 1.916713547e-14)
(-0 5.380484475e-14 4.981866398e-15)
(-0 1.31872438e-13 1.20220255e-14)
(-0 6.452310239e-14 5.792550353e-15)
(-0 4.41947474e-14 3.907490668e-15)
(-0 3.129468774e-14 2.724886165e-15)
(-0 5.729081308e-15 4.9111253e-16)
(-0 8.271705448e-15 6.975553397e-16)
(-0 1.814704378e-15 1.503050633e-16)
(-0 2.204939416e-15 1.788012143e-16)
(-0 1.090676812e-15 8.606024349e-17)
(-0 5.375076609e-16 4.078120543e-17)
(-0 4.40047176e-16 3.137707862e-17)
(-0 1.869132377e-16 1.193809129e-17)
(-0 1.194703697e-16 6.111864992e-18)
(-0 7.739383675e-17 2.221530664e-18)
(-0 2.160376549e-17 -2.475799885e-19)
(-0 9.678333324e-18 -8.166258385e-19)
(-0 8.498775395e-18 -1.846637011e-18)
(-0 5.263359237e-18 -2.438173764e-18)
(-0 9.46913073e-19 -8.697452844e-19)
(-0 2.459331716e-19 -4.352318904e-19)
(-0 9.803013278e-19 -3.37790578e-18)
(-0 2.431888328e-19 -1.753999456e-18)
(-0 6.491610928e-20 -1.63419249e-18)
(-0 7.921814412e-07 2.015798803e-07)
(-0 3.684751158e-07 9.022609237e-08)
(-0 4.33594844e-07 1.02317775e-07)
(-0 3.801476227e-07 8.656623691e-08)
(-0 2.044791975e-07 4.498998125e-08)
(-0 1.997742643e-07 4.251871741e-08)
(-0 7.680120536e-08 1.582901921e-08)
(-0 8.190108675e-08 1.636305353e-08)
(-0 6.654692524e-08 1.290059296e-08)
(-0 4.42439966e-08 8.329874288e-09)
(-0 3.035830161e-08 5.555694032e-09)
(-0 2.659630816e-08 4.734930916e-09)
(-0 9.082907444e-09 1.574290711e-09)
(-0 8.16662442e-09 1.379080019e-09)
(-0 6.520847391e-09 1.073595546e-09)
(-0 4.191613637e-09 6.732797121e-10)
(-0 3.545770484e-09 5.560018694e-10)
(-0 2.007173527e-09 3.074414928e-10)
(-0 7.366163922e-10 1.102755461e-10)
(-0 1.05912206e-09 1.550533375e-10)
(-0 5.00387587e-10 7.167461139e-11)
(-0 6.970266982e-11 9.773466233e-12)
(-0 2.205452122e-10 3.028620259e-11)
(-0 8.776925738e-11 1.180964327e-11)
(-0 8.947777332e-11 1.180179434e-11)
(-0 6.288407945e-12 8.133849973e-13)
(-0 3.924425455e-11 4.980022981e-12)
(-0 1.745998337e-11 2.174551689e-12)
(-0 1.535498575e-11 1.87763322e-12)
(-0 4.875326323e-12 5.855439251e-13)
(-0 2.408115257e-12 2.841717722e-13)
(-0 1.198208576e-12 1.389734614e-13)
(-0 0 0)
(-0 2.28191439e-13 2.559239964e-14)
(-0 6.84065857e-13 7.547667889e-14)
(-0 2.665166506e-13 2.893759142e-14)
(-0 1.463061417e-13 1.563618133e-14)
(-0 6.995780343e-14 7.3607477e-15)
(-0 4.472101193e-14 4.633085811e-15)
(-0 3.351325694e-14 3.418603497e-15)
(-0 1.027072434e-14 1.031365129e-15)
(-0 7.078935885e-15 6.993376564e-16)
(-0 5.08901743e-15 4.939430573e-16)
(-0 2.398518972e-15 2.281153975e-16)
(-0 1.351594076e-15 1.253086546e-16)
(-0 1.534933188e-15 1.373581966e-16)
(-0 7.330044534e-16 6.211941838e-17)
(-0 2.485155187e-16 1.917826517e-17)
(-0 2.976799935e-17 1.918589064e-18)
(-0 7.173719145e-17 3.029190087e-18)
(-0 5.904430607e-17 1.57492126e-19)
(-0 1.222716645e-17 -8.423926666e-19)
(-0 1.71576111e-17 -3.412808407e-18)
(-0 3.57320845e-19 -1.565513128e-19)
(-0 7.782406608e-19 -6.811487408e-19)
(-0 2.681648637e-18 -4.542971841e-18)
(-0 4.872094945e-19 -1.566839836e-18)
(-0 3.910331047e-19 -2.422920313e-18)
(-0 9.878538369e-20 -1.297381372e-18)
(-0 1.731096247e-20 -7.436187359e-19)
(-0 3.250574337e-07 9.389458478e-08)
(-0 5.423945065e-07 1.507561286e-07)
(-0 4.524233711e-07 1.211784621e-07)
(-0 3.942737266e-07 1.019028027e-07)
(-0 2.489085614e-07 6.215534176e-08)
(-0 1.256445139e-07 3.034851057e-08)
(-0 3.594696365e-08 8.407830638e-09)
(-0 1.229783592e-07 2.788192146e-08)
(-0 5.744782337e-08 1.263743317e-08)
(-0 2.67707694e-08 5.71917482e-09)
(-0 3.189152148e-08 6.622311895e-09)
(-0 1.878234991e-08 3.794032569e-09)
(-0 1.434154924e-08 2.820332583e-09)
(-0 1.198361402e-08 2.29596001e-09)
(-0 4.949286296e-09 9.244731586e-10)
(-0 4.098303234e-09 7.468251373e-10)
(-0 6.739180924e-10 1.198833531e-10)
(-0 2.282956153e-09 3.966860994e-10)
(-0 1.197431263e-09 2.033509445e-10)
(-0 6.190575979e-10 1.028040173e-10)
(-0 4.785356347e-10 7.775055266e-11)
(-0 1.570703287e-10 2.498104159e-11)
(-0 6.430767703e-11 1.001646283e-11)
(-0 1.435518566e-10 2.190761695e-11)
(-0 7.0421564e-12 1.053461178e-12)
(-0 4.360067936e-12 6.396128221e-13)
(-0 3.733669201e-11 5.373390953e-12)
(-0 1.889156706e-11 2.66833598e-12)
(-0 5.95762292e-12 8.261722133e-13)
(-0 5.517577249e-12 7.515022516e-13)
(-0 2.053009649e-12 2.747328693e-13)
(-0 3.817936846e-13 5.021503481e-14)
(-0 1.630654721e-12 2.108598514e-13)
(-0 1.342233405e-12 1.706951436e-13)
(-0 3.839839609e-13 4.803889381e-14)
(-0 2.326364263e-13 2.863900514e-14)
(-0 2.423681811e-13 2.93664521e-14)
(-0 4.924860668e-14 5.873969146e-15)
(-0 4.288496754e-14 5.035262342e-15)
(-0 1.111247169e-14 1.284219754e-15)
(-0 1.029207583e-14 1.170099395e-15)
(-0 9.777741186e-15 1.092338925e-15)
(-0 3.679621111e-15 4.030198179e-16)
(-0 9.925864987e-16 1.061107936e-16)
(-0 1.580808568e-15 1.63547624e-16)
(-0 5.690945427e-16 5.605839473e-17)
(-0 6.117159317e-16 5.551970018e-17)
(-0 1.097251021e-16 8.547844124e-18)
(-0 9.424917167e-17 5.25421814e-18)
(-0 1.034671128e-16 1.701813082e-18)
(-0 1.658401527e-17 -8.950392434e-19)
(-0 2.411463401e-17 -4.384478912e-18)
(-0 7.408339288e-18 -3.073072164e-18)
(-0 2.713941028e-18 -2.287659625e-18)
(-0 5.406353889e-18 -8.829081531e-18)
(-0 4.96749358e-19 -1.534466293e-18)
(-0 1.229372312e-18 -7.185094713e-18)
(-0 1.010860746e-18 -1.130264431e-17)
(-0 9.446626367e-20 -2.224613984e-18)
(-0 6.322264556e-20 -5.042758634e-18)
(-0 2.049852007e-07 6.630127222e-08)
(-0 5.522095534e-07 1.718519444e-07)
(-0 2.137411634e-07 6.40960914e-08)
(-0 1.248379092e-07 3.612194233e-08)
(-0 7.882256564e-08 2.203436271e-08)
(-0 1.311531884e-07 3.546179302e-08)
(-0 5.982467922e-08 1.566276129e-08)
(-0 4.657173115e-08 1.181849289e-08)
(-0 6.584306648e-08 1.621143863e-08)
(-0 4.120605404e-08 9.8523766e-09)
(-0 1.237622301e-08 2.876151426e-09)
(-0 2.156246669e-08 4.874397463e-09)
(-0 1.055211928e-08 2.322189861e-09)
(-0 7.531994121e-10 1.614815359e-10)
(-0 5.929217487e-09 1.23927677e-09)
(-0 4.590740283e-10 9.360515528e-11)
(-0 5.935232407e-10 1.181340079e-10)
(-0 0 0)
(-0 9.165880978e-10 1.741496459e-10)
(-0 1.001267252e-09 1.860227307e-10)
(-0 9.156822948e-11 1.664391917e-11)
(-0 2.69075191e-10 4.787366533e-11)
(-0 1.132227803e-10 1.972774927e-11)
(-0 1.140413808e-10 1.946825308e-11)
(-0 1.835461812e-11 3.071305006e-12)
(-0 7.389629119e-11 1.212546226e-11)
(-0 1.959142612e-11 3.153682103e-12)
(-0 2.245160749e-11 3.546885318e-12)
(-0 6.093355052e-12 9.450819432e-13)
(-0 2.126108994e-12 3.238703231e-13)
(-0 5.253165916e-12 7.861993955e-13)
(-0 1.199958389e-12 1.765024269e-13)
(-0 2.374760342e-12 3.434132459e-13)
(-0 6.312926883e-13 8.977841149e-14)
(-0 6.509928804e-13 9.107117048e-14)
(-0 4.542929414e-13 6.253264357e-14)
(-0 3.702631526e-14 5.015604378e-15)
(-0 1.180517489e-13 1.573830906e-14)
(-0 3.635605109e-14 4.769681978e-15)
(-0 1.568125226e-14 2.023660159e-15)
(-0 6.692794385e-15 8.487557055e-16)
(-0 1.365979906e-14 1.698882543e-15)
(-0 2.100847116e-16 2.552482601e-17)
(-0 1.671334391e-15 1.968996257e-16)
(-0 1.719754486e-15 1.936701605e-16)
(-0 7.288436379e-16 7.627717863e-17)
(-0 4.629326715e-16 4.241537461e-17)
(-0 3.395301127e-16 2.355403191e-17)
(-0 2.327564228e-16 7.048399274e-18)
(-0 6.49150071e-17 -2.569020069e-18)
(-0 3.3534846e-17 -5.556827495e-18)
(-0 1.201629651e-17 -4.74773508e-18)
(-0 4.037029347e-18 -3.287577569e-18)
(-0 9.86056679e-18 -1.560372845e-17)
(-0 3.271306316e-18 -9.821108632e-18)
(-0 2.264662229e-18 -1.275652537e-17)
(-0 1.552396162e-18 -1.635268438e-17)
(-0 7.049443771e-19 -1.406888991e-17)
(-0 2.081759154e-19 -8.897943294e-18)
(-0 2.645274895e-20 -4.15014239e-18)
(-0 2.341476606e-07 8.388607306e-08)
(-0 2.546247875e-07 8.776404461e-08)
(-0 1.28973062e-07 4.283248964e-08)
(-0 1.528671855e-07 4.898206134e-08)
(-0 1.408872585e-07 4.361031054e-08)
(-0 6.873516836e-08 2.057784225e-08)
(-0 2.529226899e-08 7.331420111e-09)
(-0 1.146180759e-07 3.22018022e-08)
(-0 4.155650432e-08 1.132698049e-08)
(-0 4.198756456e-09 1.111326347e-09)
(-0 2.378824137e-08 6.119346013e-09)
(-0 9.76490865e-09 2.443365596e-09)
(-0 2.868698658e-09 6.98746987e-10)
(-0 2.822952113e-09 6.69843011e-10)
(-0 3.16555707e-09 7.322471998e-10)
(-0 3.040502466e-09 6.860874206e-10)
(-0 1.875815734e-09 4.13166637e-10)
(-0 1.366655195e-09 2.940061558e-10)
(-0 1.301771743e-09 2.736806107e-10)
(-0 3.37238308e-10 6.932596438e-11)
(-0 7.445610313e-10 1.497396592e-10)
(-0 1.011224574e-10 1.990580282e-11)
(-0 2.007837141e-10 3.870482902e-11)
(-0 6.004905412e-11 1.134091525e-11)
(-0 1.855123148e-11 3.434098997e-12)
(-0 1.642238275e-11 2.980985826e-12)
(-0 5.442004537e-12 9.690472354e-13)
(-0 9.882141891e-12 1.72691705e-12)
(-0 8.778613063e-12 1.506073946e-12)
(-0 5.28150871e-12 8.898927845e-13)
(-0 2.016443612e-12 3.337934367e-13)
(-0 1.201735322e-12 1.955050867e-13)
(-0 7.184648e-13 1.149076917e-13)
(-0 1.417271202e-12 2.229033242e-13)
(-0 3.159678632e-13 4.888051323e-14)
(-0 1.342912412e-13 2.043872469e-14)
(-0 1.659980199e-13 2.485791452e-14)
(-0 6.655452023e-14 9.805437011e-15)
(-0 1.298465114e-14 1.881454563e-15)
(-0 2.255854937e-14 3.21198715e-15)
(-0 1.979657802e-14 2.764853898e-15)
(-0 7.588404638e-15 1.035953807e-15)
(-0 4.145120992e-15 5.494645354e-16)
(-0 3.423383734e-15 4.350669931e-16)
(-0 1.260539393e-15 1.498097648e-16)
(-0 8.378067591e-16 8.843321025e-17)
(-0 7.02327956e-16 5.834453299e-17)
(-0 2.005844645e-16 8.803952895e-18)
(-0 1.05350378e-16 -2.709541953e-18)
(-0 2.779522073e-17 -4.192267744e-18)
(-0 3.060193589e-17 -1.155706243e-17)
(-0 7.628678876e-18 -6.03122676e-18)
(-0 8.909545352e-18 -1.376360345e-17)
(-0 7.163777347e-18 -2.099775562e-17)
(-0 3.59344345e-18 -1.97426508e-17)
(-0 1.133501025e-18 -1.158992424e-17)
(-0 1.44375665e-18 -2.75132087e-17)
(-0 7.394300329e-19 -2.70608464e-17)
(-0 3.111598461e-19 -2.334686655e-17)
(-0 2.873903233e-20 -7.551979051e-18)
(-0 1.296061643e-07 5.097949609e-08)
(-0 1.642229392e-07 6.214066351e-08)
(-0 2.184318367e-07 7.962955702e-08)
(-0 4.904491547e-08 1.724889267e-08)
(-0 1.063265704e-07 3.612158439e-08)
(-0 1.156605719e-07 3.79996318e-08)
(-0 6.562979099e-08 2.087577467e-08)
(-0 3.782027044e-08 1.165904598e-08)
(-0 3.246443856e-08 9.708811858e-09)
(-0 8.43683633e-09 2.449946919e-09)
(-0 2.216314455e-08 6.254669399e-09)
(-0 1.402289576e-08 3.849136974e-09)
(-0 1.084880243e-08 2.898665192e-09)
(-0 4.563418284e-09 1.187729524e-09)
(-0 4.579603812e-09 1.161904332e-09)
(-0 2.637612083e-09 6.527661786e-10)
(-0 1.535551047e-09 3.709285685e-10)
(-0 8.9742601e-10 2.117220122e-10)
(-0 6.228549783e-10 1.435970746e-10)
(-0 7.041605409e-10 1.587305002e-10)
(-0 6.198973633e-10 1.366994914e-10)
(-0 2.408034299e-10 5.197409016e-11)
(-0 1.560133111e-10 3.297408297e-11)
(-0 1.250423825e-10 2.589145826e-11)
(-0 3.730871007e-11 7.57166199e-12)
(-0 4.647618808e-11 9.248670973e-12)
(-0 8.187961011e-12 1.598348784e-12)
(-0 1.724501558e-11 3.303533326e-12)
(-0 4.833301689e-12 9.089583511e-13)
(-0 2.05272236e-13 3.791177251e-14)
(-0 3.482954978e-12 6.319561211e-13)
(-0 6.966165518e-13 1.242140503e-13)
(-0 8.804140764e-13 1.543239316e-13)
(-0 4.903354962e-13 8.451323525e-14)
(-0 1.504950782e-13 2.551116916e-14)
(-0 1.085878989e-13 1.810583749e-14)
(-0 6.643467777e-14 1.089549665e-14)
(-0 3.556188032e-14 5.734849847e-15)
(-0 1.742140539e-14 2.760389723e-15)
(-0 3.013374874e-14 4.683661302e-15)
(-0 4.450391494e-15 6.763932923e-16)
(-0 4.386439834e-15 6.479715286e-16)
(-0 4.357074207e-15 6.184185987e-16)
(-0 2.478315807e-15 3.305075416e-16)
(-0 1.494116359e-15 1.788712113e-16)
(-0 7.574444054e-16 7.338108183e-17)
(-0 7.806913159e-17 4.479245351e-18)
(-0 3.212913761e-16 -3.98233288e-18)
(-0 3.133619459e-17 -4.301992891e-18)
(-0 5.184838807e-17 -1.87998877e-17)
(-0 3.619938377e-17 -2.793154615e-17)
(-0 1.876467083e-17 -2.845346443e-17)
(-0 1.507096128e-17 -4.337650622e-17)
(-0 4.3021505e-18 -2.31695943e-17)
(-0 5.903604416e-18 -5.889980713e-17)
(-0 1.545412533e-18 -2.859561205e-17)
(-0 1.201996112e-18 -4.139505909e-17)
(-0 7.983064535e-19 -5.232233548e-17)
(-0 4.004420077e-19 -5.530314885e-17)
(-0 3.91378282e-20 -1.926314982e-17)
(-0 3.862861794e-07 1.656084856e-07)
(-0 1.969379475e-07 8.121229558e-08)
(-0 8.480986112e-08 3.36902776e-08)
(-0 3.572668857e-08 1.369029338e-08)
(-0 1.267030159e-07 4.689440055e-08)
(-0 3.629673842e-08 1.299062954e-08)
(-0 1.03804732e-08 3.596579181e-09)
(-0 8.276377628e-08 2.778909444e-08)
(-0 3.811573952e-08 1.241438319e-08)
(-0 4.909618529e-08 1.552587336e-08)
(-0 3.0797846e-09 9.464433958e-10)
(-0 8.537447755e-09 2.55168083e-09)
(-0 2.156328712e-09 6.273013546e-10)
(-0 3.630067142e-09 1.028632536e-09)
(-0 5.502901984e-09 1.519941104e-09)
(-0 4.145358983e-09 1.11680259e-09)
(-0 2.244117653e-09 5.900856178e-10)
(-0 6.479296521e-10 1.663854093e-10)
(-0 7.801907936e-10 1.957748698e-10)
(-0 5.958308564e-10 1.461798179e-10)
(-0 3.542153649e-10 8.500985939e-11)
(-0 6.735851657e-11 1.582163661e-11)
(-0 7.734861912e-12 1.779012341e-12)
(-0 9.571025558e-11 2.15652493e-11)
(-0 3.871471151e-11 8.549404178e-12)
(-0 3.270866403e-11 7.082281044e-12)
(-0 1.185362341e-11 2.517627803e-12)
(-0 1.508661383e-11 3.144377509e-12)
(-0 4.376647311e-12 8.954724762e-13)
(-0 5.876147308e-12 1.180670561e-12)
(-0 6.269051127e-13 1.237405232e-13)
(-0 2.384180517e-12 4.62445806e-13)
(-0 1.396868217e-12 2.663242351e-13)
(-0 9.76628292e-13 1.830697747e-13)
(-0 3.840624673e-14 7.079168748e-15)
(-0 1.903909496e-13 3.450783007e-14)
(-0 8.488369212e-14 1.512430604e-14)
(-0 4.906336831e-14 8.587862305e-15)
(-0 1.369251533e-14 2.350934826e-15)
(-0 5.545676333e-15 9.312590028e-16)
(-0 8.733817922e-15 1.426458321e-15)
(-0 6.751924135e-15 1.061283854e-15)
(-0 7.231979154e-15 1.071903264e-15)
(-0 1.834184967e-15 2.460271328e-16)
(-0 1.335369644e-15 1.479490982e-16)
(-0 8.541831005e-17 6.042278554e-18)
(-0 6.048136428e-16 2.292806304e-19)
(-0 9.715796505e-17 -1.213724265e-17)
(-0 1.384955256e-17 -4.84784899e-18)
(-0 9.570363867e-17 -7.246626832e-17)
(-0 9.556701506e-18 -1.430131706e-17)
(-0 2.092549437e-17 -5.949518139e-17)
(-0 6.298556064e-18 -3.343424239e-17)
(-0 1.06404966e-17 -1.046139107e-16)
(-0 2.473787416e-18 -4.487512825e-17)
(-0 3.285319617e-18 -1.099142628e-16)
(-0 1.596996048e-18 -9.985832021e-17)
(-0 5.630434785e-19 -6.663875497e-17)
(-0 3.072381835e-19 -7.696316496e-17)
(-0 1.69346372e-20 -1.470942587e-17)
(-0 2.611539085e-07 1.212876824e-07)
(-0 3.380866054e-07 1.510092742e-07)
(-0 1.824691935e-07 7.850036405e-08)
(-0 2.076391035e-07 8.615846363e-08)
(-0 1.217935408e-07 4.880633905e-08)
(-0 3.528551884e-08 1.367193665e-08)
(-0 5.662148791e-09 2.123641016e-09)
(-0 3.124780318e-08 1.135639069e-08)
(-0 4.740212509e-08 1.67096465e-08)
(-0 1.758138881e-08 6.016919319e-09)
(-0 5.144518962e-09 1.71079389e-09)
(-0 6.88936963e-09 2.22804455e-09)
(-0 7.235134279e-09 2.277313444e-09)
(-0 3.399305209e-09 1.042127417e-09)
(-0 2.062353797e-09 6.162465079e-10)
(-0 3.857315417e-09 1.124159857e-09)
(-0 2.050259193e-09 5.831498931e-10)