/*--------------------------------*- C++ -*----------------------------------*\
  =========                 |
  \\      /  F ield         | OpenFOAM: The Open Source CFD Toolbox
   \\    /   O peration     | Website:  https://openfoam.org
    \\  /    A nd           | Version:  10
     \\/     M anipulation  |
\*---------------------------------------------------------------------------*/
FoamFile
{
    format      ascii;
    class       volScalarField;
    location    "0.0001";
    object      Num_divU;
}
// * * * * * * * * * * * * * * * * * * * * * * * * * * * * * * * * * * * * * //

dimensions      [0 0 -1 0 0 0 0];

internalField   nonuniform List<scalar> 
3600
(
-2.786939648e-11
-1.856324736e-11
-2.028049594e-11
-2.118573822e-11
-2.192890132e-11
-2.300704873e-11
-2.441597682e-11
-2.554713397e-11
-2.608841726e-11
-2.649512904e-11
-2.733290542e-11
-2.866222076e-11
-3.007068843e-11
-3.10984329e-11
-3.161553966e-11
-3.185961011e-11
-3.21743454e-11
-3.273990308e-11
-3.351576139e-11
-3.43654245e-11
-3.519352204e-11
-3.59853108e-11
-3.676427772e-11
-3.75405332e-11
-3.829565634e-11
-3.899974232e-11
-3.963320381e-11
-4.019430345e-11
-4.069230666e-11
-4.113719362e-11
-4.153528207e-11
-4.189169587e-11
-4.221362338e-11
-4.250764171e-11
-4.276970615e-11
-4.297299801e-11
-4.306171901e-11
-4.295578667e-11
-4.256428994e-11
-4.179915378e-11
-4.057883737e-11
-3.881591222e-11
-3.63895243e-11
-3.31097226e-11
-2.86822714e-11
-2.267909444e-11
-1.451306306e-11
-3.409366361e-12
1.163810768e-11
3.19375862e-11
5.920806406e-11
9.573537615e-11
1.445866762e-10
2.098950159e-10
2.971955957e-10
4.136120828e-10
5.669969443e-10
7.612354348e-10
9.818168043e-10
1.169073259e-09
-1.752760036e-11
-8.102900109e-12
-9.234283127e-12
-9.990675128e-12
-1.012503704e-11
-1.022802298e-11
-1.066976712e-11
-1.118543969e-11
-1.15462004e-11
-1.179545354e-11
-1.203778088e-11
-1.231850258e-11
-1.267386074e-11
-1.313742761e-11
-1.367614959e-11
-1.419095551e-11
-1.460225153e-11
-1.490882337e-11
-1.516057646e-11
-1.540124013e-11
-1.564938792e-11
-1.591519696e-11
-1.621086903e-11
-1.653967848e-11
-1.688513468e-11
-1.721960033e-11
-1.752450065e-11
-1.780094e-11
-1.806244655e-11
-1.832070469e-11
-1.85792799e-11
-1.883888363e-11
-1.910564571e-11
-1.9392762e-11
-1.971413257e-11
-2.007672352e-11
-2.047921485e-11
-2.091892974e-11
-2.140273923e-11
-2.195556299e-11
-2.262270192e-11
-2.346685156e-11
-2.456385712e-11
-2.60017188e-11
-2.788561948e-11
-3.034951039e-11
-3.35733446e-11
-3.780481376e-11
-4.338526358e-11
-5.078078349e-11
-6.062108006e-11
-7.375043407e-11
-9.129560102e-11
-1.147489703e-10
-1.460293734e-10
-1.87355267e-10
-2.404035005e-10
-3.033316971e-10
-3.618331252e-10
4.362288458e-12
-1.792022029e-11
-8.22764201e-12
-9.501265752e-12
-9.978276868e-12
-1.033069949e-11
-1.087648427e-11
-1.132734233e-11
-1.163132609e-11
-1.19727921e-11
-1.240533597e-11
-1.280633242e-11
-1.31197052e-11
-1.343642764e-11
-1.383753848e-11
-1.428597306e-11
-1.470043269e-11
-1.506072682e-11
-1.540199959e-11
-1.574433157e-11
-1.607041251e-11
-1.63656445e-11
-1.66494855e-11
-1.69557729e-11
-1.72936456e-11
-1.763857315e-11
-1.795926401e-11
-1.824603435e-11
-1.85122466e-11
-1.877407636e-11
-1.903378552e-11
-1.928190522e-11
-1.951171524e-11
-1.972905984e-11
-1.994836224e-11
-2.017998819e-11
-2.042086466e-11
-2.065572416e-11
-2.08668752e-11
-2.104463309e-11
-2.119161724e-11
-2.13195101e-11
-2.144163716e-11
-2.156609332e-11
-2.169239134e-11
-2.181190113e-11
-2.191059493e-11
-2.197229782e-11
-2.198127013e-11
-2.192355076e-11
-2.178672944e-11
-2.155767348e-11
-2.121842539e-11
-2.074744016e-11
-2.016789217e-11
-1.98151999e-11
-2.139333566e-11
-3.135432535e-11
-6.973724476e-11
-1.874315215e-10
4.043331676e-12
-1.878413322e-11
-8.535328446e-12
-9.397744629e-12
-9.867453491e-12
-1.044798097e-11
-1.093924534e-11
-1.127616189e-11
-1.159143807e-11
-1.198985452e-11
-1.242148346e-11
-1.280713894e-11
-1.316929963e-11
-1.356984519e-11
-1.3997163e-11
-1.438777169e-11
-1.472472393e-11
-1.505504847e-11
-1.541563871e-11
-1.578483476e-11
-1.611920291e-11
-1.641349821e-11
-1.670521182e-11
-1.702746203e-11
-1.737327939e-11
-1.770857695e-11
-1.801042325e-11
-1.82858967e-11
-1.855690988e-11
-1.883387167e-11
-1.91067634e-11
-1.935886197e-11
-1.958560789e-11
-1.979985472e-11
-2.002060157e-11
-2.025722126e-11
-2.050268216e-11
-2.073957299e-11
-2.095239701e-11
-2.113655796e-11
-2.129906169e-11
-2.145255189e-11
-2.160795461e-11
-2.177010131e-11
-2.193749186e-11
-2.210463668e-11
-2.226479662e-11
-2.241188734e-11
-2.254160914e-11
-2.265241475e-11
-2.274651058e-11
-2.282917381e-11
-2.28982044e-11
-2.289598133e-11
-2.255643565e-11
-2.106201456e-11
-1.673418439e-11
-8.745542695e-12
-8.958764436e-12
-8.646356088e-11
-4.061887078e-12
-1.898849169e-11
-8.600201947e-12
-9.365094916e-12
-9.937076142e-12
-1.042564073e-11
-1.086080675e-11
-1.126608597e-11
-1.164410193e-11
-1.201015448e-11
-1.237426795e-11
-1.27545595e-11
-1.317415889e-11
-1.361638477e-11
-1.402494908e-11
-1.437186397e-11
-1.469481528e-11
-1.504642041e-11
-1.542712431e-11
-1.579057242e-11
-1.610630518e-11
-1.639551055e-11
-1.670147288e-11
-1.703902746e-11
-1.738282176e-11
-1.770009799e-11
-1.798502728e-11
-1.82588208e-11
-1.854217942e-11
-1.883299163e-11
-1.911041928e-11
-1.93571298e-11
-1.957603457e-11
-1.978723899e-11
-2.001073288e-11
-2.025120123e-11
-2.049642637e-11
-2.072792067e-11
-2.093374448e-11
-2.111435939e-11
-2.127945589e-11
-2.144024281e-11
-2.160324169e-11
-2.176868601e-11
-2.193270695e-11
-2.209043633e-11
-2.223779292e-11
-2.237157442e-11
-2.248897324e-11
-2.258790858e-11
-2.266967054e-11
-2.274684764e-11
-2.286249824e-11
-2.312093532e-11
-2.367767017e-11
-2.446234262e-11
-2.417313152e-11
-1.891518353e-11
-8.053964116e-12
-4.410374471e-11
-8.886841841e-12
-1.81211509e-11
-8.758543199e-12
-9.508676233e-12
-9.912528634e-12
-1.035464851e-11
-1.086391496e-11
-1.129835577e-11
-1.163607562e-11
-1.196604264e-11
-1.23468977e-11
-1.277379242e-11
-1.321337063e-11
-1.362619474e-11
-1.399013632e-11
-1.432469211e-11
-1.467401355e-11
-1.505517558e-11
-1.54370668e-11
-1.577915818e-11
-1.608027941e-11
-1.637771683e-11
-1.670243873e-11
-1.704651089e-11
-1.737700418e-11
-1.767440542e-11
-1.795103976e-11
-1.823345824e-11
-1.853228958e-11
-1.883156453e-11
-1.910527468e-11
-1.934200175e-11
-1.955432393e-11
-1.97670084e-11
-1.999695155e-11
-2.024203387e-11
-2.048567252e-11
-2.071054398e-11
-2.090981135e-11
-2.108880659e-11
-2.125855713e-11
-2.142766036e-11
-2.159818416e-11
-2.176687215e-11
-2.192901129e-11
-2.208144921e-11
-2.222304136e-11
-2.235317698e-11
-2.247012278e-11
-2.257011023e-11
-2.264650135e-11
-2.268875871e-11
-2.268805655e-11
-2.267409003e-11
-2.28146125e-11
-2.348949066e-11
-2.475401508e-11
-2.404385323e-11
-1.55124635e-11
-2.907724426e-11
-1.080072334e-11
-1.739740342e-11
-8.728542122e-12
-9.477611432e-12
-9.870679185e-12
-1.039278193e-11
-1.089069071e-11
-1.124024326e-11
-1.154655961e-11
-1.192907797e-11
-1.237804525e-11
-1.282348559e-11
-1.322731567e-11
-1.359232607e-11
-1.393968176e-11
-1.429598613e-11
-1.467597567e-11
-1.506472089e-11
-1.542862131e-11
-1.575176928e-11
-1.60545924e-11
-1.63705585e-11
-1.670891993e-11
-1.704700201e-11
-1.735823793e-11
-1.764174499e-11
-1.792151165e-11
-1.821913449e-11
-1.853065332e-11
-1.883003857e-11
-1.909336865e-11
-1.931944909e-11
-1.952937082e-11
-1.974823465e-11
-1.998636532e-11
-2.023452055e-11
-2.047394421e-11
-2.069089412e-11
-2.088441595e-11
-2.10636477e-11
-2.123920345e-11
-2.14160006e-11
-2.159190766e-11
-2.176137864e-11
-2.192010221e-11
-2.206717001e-11
-2.220400343e-11
-2.233184399e-11
-2.245025718e-11
-2.255772323e-11
-2.265264392e-11
-2.273041937e-11
-2.277323373e-11
-2.274539052e-11
-2.265237137e-11
-2.274201186e-11
-2.358939247e-11
-2.458049945e-11
-2.022582789e-11
-2.450708205e-11
-1.138151124e-11
-1.750126142e-11
-8.561844728e-12
-9.400605504e-12
-9.951815353e-12
-1.04661376e-11
-1.083770969e-11
-1.113024042e-11
-1.149864321e-11
-1.196447479e-11
-1.243099357e-11
-1.283368073e-11
-1.31902255e-11
-1.354284882e-11
-1.391157514e-11
-1.429561249e-11
-1.468375101e-11
-1.505739953e-11
-1.540159729e-11
-1.572130181e-11
-1.60393551e-11
-1.637236389e-11
-1.671195297e-11
-1.703463154e-11
-1.732916214e-11
-1.76100634e-11
-1.790257703e-11
-1.821593567e-11
-1.85327149e-11
-1.882386424e-11
-1.907378815e-11
-1.929242622e-11
-1.950555957e-11
-1.973402026e-11
-1.997971379e-11
-2.02278003e-11
-2.046032121e-11
-2.066905628e-11
-2.085871032e-11
-2.104047175e-11
-2.122275999e-11
-2.140620885e-11
-2.158523054e-11
-2.175337128e-11
-2.190781014e-11
-2.205008413e-11
-2.218344724e-11
-2.230948687e-11
-2.242672624e-11
-2.25323498e-11
-2.26260293e-11
-2.271206647e-11
-2.279219346e-11
-2.284252653e-11
-2.280198682e-11
-2.269202642e-11
-2.294054863e-11
-2.39210571e-11
-2.219708051e-11
-2.333065993e-11
-1.151165435e-11
-1.823853747e-11
-8.488652982e-12
-9.386015708e-12
-9.998922309e-12
-1.042848998e-11
-1.073863099e-11
-1.10877687e-11
-1.154504562e-11
-1.202712439e-11
-1.243977285e-11
-1.27893765e-11
-1.313838993e-11
-1.351784047e-11
-1.39133002e-11
-1.430235763e-11
-1.467556479e-11
-1.503096308e-11
-1.537000779e-11
-1.570110996e-11
-1.603545966e-11
-1.637390467e-11
-1.670299403e-11
-1.700935292e-11
-1.729706916e-11
-1.758683368e-11
-1.789590002e-11
-1.821939792e-11
-1.853221853e-11
-1.880970339e-11
-1.904770918e-11
-1.926476168e-11
-1.948622132e-11
-1.972523314e-11
-1.997558217e-11
-2.021977231e-11
-2.044356856e-11
-2.064517867e-11
-2.083368579e-11
-2.102017663e-11
-2.120944008e-11
-2.139785788e-11
-2.157756593e-11
-2.174260361e-11
-2.189242556e-11
-2.203094838e-11
-2.21627007e-11
-2.228916839e-11
-2.240771571e-11
-2.251352507e-11
-2.260367781e-11
-2.268182155e-11
-2.275913738e-11
-2.283997427e-11
-2.288511747e-11
-2.282268301e-11
-2.2807587e-11
-2.337932696e-11
-2.283470971e-11
-2.308150963e-11
-1.15243746e-11
-1.853802043e-11
-8.606445135e-12
-9.389933145e-12
-9.934453713e-12
-1.033380247e-11
-1.069737513e-11
-1.113231371e-11
-1.16114428e-11
-1.203929904e-11
-1.239314649e-11
-1.273527154e-11
-1.311654843e-11
-1.352441158e-11
-1.392092239e-11
-1.429193225e-11
-1.464812405e-11
-1.500021491e-11
-1.534925709e-11
-1.569386414e-11
-1.603371566e-11
-1.636489746e-11
-1.668004007e-11
-1.697804002e-11
-1.727091875e-11
-1.757585524e-11
-1.789809528e-11
-1.822256721e-11
-1.852404671e-11
-1.878721978e-11
-1.901859912e-11
-1.924045237e-11
-1.947308854e-11
-1.972074839e-11
-1.997139304e-11
-2.020836243e-11
-2.042321297e-11
-2.062016931e-11
-2.08105959e-11
-2.100339967e-11
-2.119895853e-11
-2.13901244e-11
-2.156821553e-11
-2.172894921e-11
-2.187435209e-11
-2.201016436e-11
-2.214130052e-11
-2.226863401e-11
-2.238881488e-11
-2.249657379e-11
-2.258787496e-11
-2.266320472e-11
-2.273107989e-11
-2.28061055e-11
-2.288341825e-11
-2.289976552e-11
-2.284980088e-11
-2.31158335e-11
-2.299062302e-11
-2.303579117e-11
-1.151520257e-11
-1.809294811e-11
-8.810737257e-12
-9.413335081e-12
-9.877487294e-12
-1.030120848e-11
-1.072765582e-11
-1.118675597e-11
-1.162499664e-11
-1.199765809e-11
-1.234085214e-11
-1.271562558e-11
-1.312771017e-11
-1.353486069e-11
-1.39090457e-11
-1.426220005e-11
-1.461811281e-11
-1.498206169e-11
-1.534264901e-11
-1.568991153e-11
-1.602245776e-11
-1.634188825e-11
-1.664956452e-11
-1.695076302e-11
-1.725641618e-11
-1.75750746e-11
-1.790207849e-11
-1.821898203e-11
-1.850639749e-11
-1.875930286e-11
-1.899097127e-11
-1.922222835e-11
-1.946567592e-11
-1.971783273e-11
-1.996431946e-11
-2.019231517e-11
-2.039983721e-11
-2.059550999e-11
-2.079057591e-11
-2.099021543e-11
-2.119046551e-11
-2.138192462e-11
-2.155657678e-11
-2.171261691e-11
-2.185447864e-11
-2.198890124e-11
-2.212026538e-11
-2.224825638e-11
-2.236884636e-11
-2.247724331e-11
-2.257045134e-11
-2.264833441e-11
-2.271495557e-11
-2.278134216e-11
-2.285752817e-11
-2.291417013e-11
-2.289939214e-11
-2.301453826e-11
-2.300860088e-11
-2.302005281e-11
-1.150413441e-11
-1.741533902e-11
-8.917976684e-12
-9.469987013e-12
-9.891307571e-12
-1.032129791e-11
-1.075894742e-11
-1.11972468e-11
-1.159638803e-11
-1.195558079e-11
-1.2323464e-11
-1.272759994e-11
-1.314032671e-11
-1.352364493e-11
-1.38779578e-11
-1.423239482e-11
-1.460350385e-11
-1.497938011e-11
-1.533939634e-11
-1.567641173e-11
-1.59974184e-11
-1.631125423e-11
-1.662245574e-11
-1.693463708e-11
-1.725268683e-11
-1.757759096e-11
-1.790049953e-11
-1.820558741e-11
-1.848146493e-11
-1.873076192e-11
-1.89685146e-11
-1.921046797e-11
-1.946142924e-11
-1.97131145e-11
-1.995229177e-11
-2.017168382e-11
-2.037495545e-11
-2.057279701e-11
-2.077420964e-11
-2.097997929e-11
-2.118265499e-11
-2.137214192e-11
-2.154229564e-11
-2.169405957e-11
-2.183368485e-11
-2.196800479e-11
-2.210020331e-11
-2.222858446e-11
-2.2348565e-11
-2.245606273e-11
-2.25497697e-11
-2.263087239e-11
-2.270165838e-11
-2.276706426e-11
-2.283642504e-11
-2.290287903e-11
-2.292116492e-11
-2.297736748e-11
-2.299575077e-11
-2.30037299e-11
-1.149334954e-11
-1.702646634e-11
-8.878497693e-12
-9.528095533e-12
-9.923660326e-12
-1.03310886e-11
-1.076011486e-11
-1.118438787e-11
-1.157318857e-11
-1.19430329e-11
-1.233123962e-11
-1.273811304e-11
-1.313090417e-11
-1.349428915e-11
-1.384921415e-11
-1.422075725e-11
-1.460574343e-11
-1.497956276e-11
-1.532553112e-11
-1.56488899e-11
-1.596539057e-11
-1.628463077e-11
-1.660671511e-11
-1.692952403e-11
-1.725302172e-11
-1.757553885e-11
-1.788940079e-11
-1.81839331e-11
-1.845415716e-11
-1.870607136e-11
-1.89525321e-11
-1.920307237e-11
-1.945672365e-11
-1.970382689e-11
-1.993473647e-11
-2.014782702e-11
-2.035051855e-11
-2.05531916e-11
-2.0761265e-11
-2.097139703e-11
-2.11740534e-11
-2.135992475e-11
-2.152545369e-11
-2.167404686e-11
-2.181288838e-11
-2.194805303e-11
-2.208117314e-11
-2.220939305e-11
-2.232804616e-11
-2.243398316e-11
-2.252738469e-11
-2.261087005e-11
-2.268673681e-11
-2.275610999e-11
-2.282273789e-11
-2.288742851e-11
-2.292259652e-11
-2.295876592e-11
-2.297775522e-11
-2.298468058e-11
-1.14824891e-11
-1.714427e-11
-8.762283108e-12
-9.542445987e-12
-9.92878341e-12
-1.032716739e-11
-1.07613358e-11
-1.118346948e-11
-1.156861531e-11
-1.194282947e-11
-1.233319355e-11
-1.272891942e-11
-1.310671277e-11
-1.346942122e-11
-1.383996353e-11
-1.422648815e-11
-1.46100752e-11
-1.496759729e-11
-1.529680483e-11
-1.561502468e-11
-1.593883557e-11
-1.62704828e-11
-1.66023579e-11
-1.692862977e-11
-1.724921529e-11
-1.756443162e-11
-1.786989746e-11
-1.815893604e-11
-1.842950447e-11
-1.868735176e-11
-1.894151162e-11
-1.919643918e-11
-1.944830774e-11
-1.968879215e-11
-1.991272202e-11
-2.012290236e-11
-2.032823836e-11
-2.053700596e-11
-2.075068264e-11
-2.096282832e-11
-2.116337444e-11
-2.134489808e-11
-2.150655168e-11
-2.165350274e-11
-2.179289632e-11
-2.192939268e-11
-2.20630312e-11
-2.219026323e-11
-2.230695805e-11
-2.241123945e-11
-2.25045003e-11
-2.259009772e-11
-2.267041406e-11
-2.274479571e-11
-2.281227136e-11
-2.287350885e-11
-2.291415443e-11
-2.294315248e-11
-2.295872266e-11
-2.296397716e-11
-1.147138583e-11
-1.768880911e-11
-8.640182295e-12
-9.507873279e-12
-9.920378004e-12
-1.034002308e-11
-1.078106368e-11
-1.118919248e-11
-1.155999685e-11
-1.193095391e-11
-1.232033535e-11
-1.271154178e-11
-1.308941333e-11
-1.346308222e-11
-1.384650859e-11
-1.423301598e-11
-1.460095123e-11
-1.49398284e-11
-1.526201481e-11
-1.55881341e-11
-1.592638376e-11
-1.626844887e-11
-1.660208354e-11
-1.692337044e-11
-1.723654416e-11
-1.754525561e-11
-1.784696395e-11
-1.813597288e-11
-1.841020024e-11
-1.86736196e-11
-1.893203734e-11
-1.918706432e-11
-1.943452522e-11
-1.966873584e-11
-1.988846034e-11
-2.009906823e-11
-2.030901768e-11
-2.052360272e-11
-2.074088504e-11
-2.095272031e-11
-2.114983883e-11
-2.132723667e-11
-2.148638406e-11
-2.163327822e-11
-2.177418433e-11
-2.191202588e-11
-2.204548697e-11
-2.217089212e-11
-2.22851801e-11
-2.238798359e-11
-2.248169438e-11
-2.256972298e-11
-2.265390562e-11
-2.273254391e-11
-2.280193081e-11
-2.286056168e-11
-2.2901267e-11
-2.29264819e-11
-2.293877277e-11
-2.294233662e-11
-1.1460154e-11
-1.837172596e-11
-8.551668075e-12
-9.461020495e-12
-9.925393241e-12
-1.036973443e-11
-1.079646898e-11
-1.117562324e-11
-1.153378588e-11
-1.191079644e-11
-1.230885789e-11
-1.270449347e-11
-1.308760626e-11
-1.346812064e-11
-1.385146839e-11
-1.422546046e-11
-1.457585246e-11
-1.490613901e-11
-1.523511256e-11
-1.55767409e-11
-1.592694265e-11
-1.627036458e-11
-1.659677397e-11
-1.690892552e-11
-1.721615175e-11
-1.75232013e-11
-1.782621366e-11
-1.811803586e-11
-1.839558506e-11
-1.866165025e-11
-1.892052873e-11
-1.917299217e-11
-1.941579556e-11
-1.964581169e-11
-1.986440218e-11
-2.007774971e-11
-2.029271348e-11
-2.051164269e-11
-2.073024526e-11
-2.094001971e-11
-2.113333849e-11
-2.130758931e-11
-2.146581665e-11
-2.161394616e-11
-2.175680697e-11
-2.189560031e-11
-2.202812297e-11
-2.21511154e-11
-2.226291311e-11
-2.23646478e-11
-2.245943297e-11
-2.255026332e-11
-2.26378892e-11
-2.271960754e-11
-2.279038968e-11
-2.284703474e-11
-2.288580263e-11
-2.290808251e-11
-2.291785537e-11
-2.292021759e-11
-1.144901949e-11
-1.884748649e-11
-8.51384724e-12
-9.43475217e-12
-9.941549604e-12
-1.038705551e-11
-1.078263909e-11
-1.11403451e-11
-1.150583326e-11
-1.190267753e-11
-1.231228332e-11
-1.270890941e-11
-1.309025714e-11
-1.346775325e-11
-1.384246896e-11
-1.420334028e-11
-1.454555937e-11
-1.488053078e-11
-1.52241154e-11
-1.557885562e-11
-1.593137043e-11
-1.626648249e-11
-1.658154622e-11
-1.688678573e-11
-1.719363134e-11
-1.750411402e-11
-1.781071494e-11
-1.810450604e-11
-1.838248125e-11
-1.86478565e-11
-1.890490516e-11
-1.915444926e-11
-1.939417099e-11
-1.962260068e-11
-1.984233615e-11
-2.005924978e-11
-2.027831561e-11
-2.049959293e-11
-2.071758557e-11
-2.092441635e-11
-2.111439451e-11
-2.128684256e-11
-2.144555319e-11
-2.15956814e-11
-2.174041546e-11
-2.187954432e-11
-2.201051849e-11
-2.213092873e-11
-2.224058718e-11
-2.234187037e-11
-2.243823181e-11
-2.25319433e-11
-2.262244896e-11
-2.270603261e-11
-2.27771326e-11
-2.283185026e-11
-2.286818642e-11
-2.288806346e-11
-2.289618376e-11
-2.289805248e-11
-1.143822643e-11
-1.894508885e-11
-8.527781468e-12
-9.433985602e-12
-9.950021793e-12
-1.03754101e-11
-1.074695583e-11
-1.11083013e-11
-1.149863991e-11
-1.191407239e-11
-1.232336849e-11
-1.270980328e-11
-1.308256465e-11
-1.345411692e-11
-1.382224055e-11
-1.417813827e-11
-1.45232313e-11
-1.486986447e-11
-1.522605407e-11
-1.558457328e-11
-1.5929461e-11
-1.625191636e-11
-1.655830045e-11
-1.686305426e-11
-1.717510963e-11
-1.749101984e-11
-1.779963793e-11
-1.809203598e-11
-1.836724812e-11
-1.863015182e-11
-1.888535585e-11
-1.91334333e-11
-1.937225571e-11
-1.960106436e-11
-1.982286014e-11
-2.004285551e-11
-2.026445781e-11
-2.048626718e-11
-2.070248829e-11
-2.090634255e-11
-2.109391873e-11
-2.126583886e-11
-2.142594016e-11
-2.157823633e-11
-2.172439137e-11
-2.186324514e-11
-2.199239906e-11
-2.211052447e-11
-2.221876022e-11
-2.232031228e-11
-2.241854605e-11
-2.25148195e-11
-2.260733323e-11
-2.269154936e-11
-2.276185381e-11
-2.281445857e-11
-2.284851064e-11
-2.28667011e-11
-2.287413605e-11
-2.287628756e-11
-1.142799274e-11
-1.875967271e-11
-8.580825245e-12
-9.448836792e-12
-9.944610211e-12
-1.034772866e-11
-1.071698731e-11
-1.110082855e-11
-1.1513629e-11
-1.193024941e-11
-1.232388401e-11
-1.269539045e-11
-1.30626622e-11
-1.343419752e-11
-1.380280473e-11
-1.416112752e-11
-1.451366114e-11
-1.487006631e-11
-1.523074999e-11
-1.558375886e-11
-1.59165518e-11
-1.622896654e-11
-1.653361164e-11
-1.684414565e-11
-1.716353259e-11
-1.748272748e-11
-1.778925867e-11
-1.807680704e-11
-1.834783543e-11
-1.860884084e-11
-1.886394554e-11
-1.911255153e-11
-1.935202418e-11
-1.958189319e-11
-1.980541978e-11
-2.002734157e-11
-2.02500117e-11
-2.047122176e-11
-2.068534038e-11
-2.088673643e-11
-2.107288393e-11
-2.124512314e-11
-2.140690197e-11
-2.156104918e-11
-2.170803624e-11
-2.184623541e-11
-2.197373514e-11
-2.209028785e-11
-2.219802932e-11
-2.230050617e-11
-2.240062703e-11
-2.249876291e-11
-2.259212877e-11
-2.267573221e-11
-2.274429856e-11
-2.279466625e-11
-2.282692098e-11
-2.284435512e-11
-2.285214035e-11
-2.285534628e-11
-1.141847809e-11
-1.850551361e-11
-8.64956216e-12
-9.469588347e-12
-9.934133518e-12
-1.032582697e-11
-1.070893219e-11
-1.11143489e-11
-1.153141471e-11
-1.19315043e-11
-1.230560695e-11
-1.267015009e-11
-1.304213766e-11
-1.342030787e-11
-1.379256104e-11
-1.4154013e-11
-1.451141339e-11
-1.487126689e-11
-1.522897591e-11
-1.557247109e-11
-1.589536237e-11
-1.620448387e-11
-1.651404301e-11
-1.683289454e-11
-1.715731724e-11
-1.747503111e-11
-1.777545961e-11
-1.805677655e-11
-1.832476434e-11
-1.858620671e-11
-1.884336043e-11
-1.909372441e-11
-1.933408354e-11
-1.956450366e-11
-1.978882247e-11
-2.00116291e-11
-2.023454787e-11
-2.045482927e-11
-2.066709409e-11
-2.086666325e-11
-2.105200913e-11
-2.122481544e-11
-2.138801332e-11
-2.154344145e-11
-2.169078418e-11
-2.182832458e-11
-2.195476573e-11
-2.207073247e-11
-2.217891765e-11
-2.228275777e-11
-2.238444557e-11
-2.248344448e-11
-2.257634775e-11
-2.265816735e-11
-2.272431382e-11
-2.277252805e-11
-2.280370072e-11
-2.282143747e-11
-2.283061397e-11
-2.283556701e-11
-1.14097646e-11
-1.832516243e-11
-8.707782971e-12
-9.487401047e-12
-9.925801758e-12
-1.031746221e-11
-1.07163986e-11
-1.112922588e-11
-1.153356689e-11
-1.19132596e-11
-1.227829571e-11
-1.264946419e-11
-1.303307268e-11
-1.341724059e-11
-1.378927626e-11
-1.414966046e-11
-1.450743733e-11
-1.48661184e-11
-1.521824359e-11
-1.555396927e-11
-1.587271237e-11
-1.618484619e-11
-1.650220041e-11
-1.682736673e-11
-1.715180898e-11
-1.746346886e-11
-1.775614766e-11
-1.803270852e-11
-1.830065721e-11
-1.856514217e-11
-1.88254962e-11
-1.907737119e-11
-1.931764404e-11
-1.954758917e-11
-1.977197472e-11
-1.999531072e-11
-2.021845359e-11
-2.043804849e-11
-2.064884929e-11
-2.084693755e-11
-2.103156332e-11
-2.120464237e-11
-2.13686893e-11
-2.152484968e-11
-2.167237355e-11
-2.180965804e-11
-2.193594045e-11
-2.205237913e-11
-2.216176969e-11
-2.226708184e-11
-2.236969796e-11
-2.246837517e-11
-2.255950663e-11
-2.263855994e-11
-2.270191056e-11
-2.274830296e-11
-2.277926185e-11
-2.279838111e-11
-2.280989682e-11
-2.281715967e-11
-1.140183845e-11
-1.823641422e-11
-8.737136895e-12
-9.493200305e-12
-9.917934083e-12
-1.031626042e-11
-1.072441487e-11
-1.113152561e-11
-1.151890804e-11
-1.18882446e-11
-1.22590695e-11
-1.264426729e-11
-1.3036315e-11
-1.34184686e-11
-1.378389037e-11
-1.414016535e-11
-1.449710691e-11
-1.485438289e-11
-1.520259589e-11
-1.553471504e-11
-1.585429777e-11
-1.617216075e-11
-1.649583774e-11
-1.682263111e-11
-1.714230002e-11
-1.744587623e-11
-1.773228843e-11
-1.800760065e-11
-1.827871973e-11
-1.85476083e-11
-1.881057869e-11
-1.90623958e-11
-1.93011502e-11
-1.952994683e-11
-1.975447711e-11
-1.997882234e-11
-2.020271165e-11
-2.042197659e-11
-2.063142481e-11
-2.082787264e-11
-2.101135474e-11
-2.118410711e-11
-2.134842253e-11
-2.150502309e-11
-2.165292961e-11
-2.179067079e-11
-2.191780202e-11
-2.20356274e-11
-2.214666135e-11
-2.22531963e-11
-2.235585766e-11
-2.245299022e-11
-2.254120831e-11
-2.261680777e-11
-2.267730667e-11
-2.272242519e-11
-2.275409592e-11
-2.27755893e-11
-2.279021816e-11
-2.280016631e-11
-1.139459338e-11
-1.819800586e-11
-8.733630412e-12
-9.483361858e-12
-9.907958023e-12
-1.031577417e-11
-1.072607785e-11
-1.112284484e-11
-1.150013093e-11
-1.187241978e-11
-1.225652722e-11
-1.265164005e-11
-1.304146388e-11
-1.341316347e-11
-1.376982835e-11
-1.41241364e-11
-1.448307455e-11
-1.48411736e-11
-1.518785053e-11
-1.551913582e-11
-1.584129632e-11
-1.616383848e-11
-1.648999882e-11
-1.681398677e-11
-1.712663714e-11
-1.742336146e-11
-1.770718672e-11
-1.798499027e-11
-1.826106457e-11
-1.853369985e-11
-1.879717897e-11
-1.90468961e-11
-1.92832018e-11
-1.951116223e-11
-1.973685465e-11
-1.996322574e-11
-2.018842432e-11
-2.040737014e-11
-2.061505974e-11
-2.080923706e-11
-2.099089331e-11
-2.116273777e-11
-2.132700307e-11
-2.148412218e-11
-2.163293117e-11
-2.177197081e-11
-2.190083808e-11
-2.202064459e-11
-2.213336847e-11
-2.224056575e-11
-2.234227408e-11
-2.243676176e-11
-2.25212221e-11
-2.259303691e-11
-2.265092784e-11
-2.269546032e-11
-2.27287239e-11
-2.275339405e-11
-2.277165771e-11
-2.278445904e-11
-1.138783513e-11
-1.818061427e-11
-8.70692932e-12
-9.465050735e-12
-9.900149762e-12
-1.031694147e-11
-1.072455056e-11
-1.111276985e-11
-1.148903513e-11
-1.187092641e-11
-1.226475235e-11
-1.265863085e-11
-1.303669046e-11
-1.33962376e-11
-1.374900978e-11
-1.410736827e-11
-1.447170238e-11
-1.483145503e-11
-1.517661957e-11
-1.550697044e-11
-1.583064498e-11
-1.615516053e-11
-1.648038191e-11
-1.679952991e-11
-1.710606112e-11
-1.739939835e-11
-1.768461251e-11
-1.796714973e-11
-1.824772265e-11
-1.852169325e-11
-1.878302056e-11
-1.902920587e-11
-1.926332855e-11
-1.949187892e-11
-1.97203283e-11
-1.994970103e-11
-2.017629654e-11
-2.039432245e-11
-2.059935733e-11
-2.079041859e-11
-2.096965635e-11
-2.114032946e-11
-2.130463424e-11
-2.146269632e-11
-2.161308101e-11
-2.17541644e-11
-2.188534005e-11
-2.200730505e-11
-2.212139316e-11
-2.22284933e-11
-2.23282953e-11
-2.24192977e-11
-2.249953808e-11
-2.256760899e-11
-2.262337316e-11
-2.266805102e-11
-2.270364066e-11
-2.273201727e-11
-2.275414526e-11
-2.276974225e-11
-1.138130793e-11
-1.818269866e-11
-8.674017367e-12
-9.452329209e-12
-9.901940373e-12
-1.032279127e-11
-1.072384858e-11
-1.110664101e-11
-1.148667004e-11
-1.187620052e-11
-1.227035611e-11
-1.265382332e-11
-1.301865713e-11
-1.337259319e-11
-1.373011425e-11
-1.409741324e-11
-1.446696188e-11
-1.482562041e-11
-1.516672273e-11
-1.549447348e-11
-1.581807865e-11
-1.614268678e-11
-1.646571367e-11
-1.678073056e-11
-1.708406988e-11
-1.737778587e-11
-1.766689562e-11
-1.795406978e-11
-1.823674409e-11
-1.850896142e-11
-1.876613122e-11
-1.900875476e-11
-1.924229861e-11
-1.947355672e-11
-1.970626818e-11
-1.993898172e-11
-2.016627932e-11
-2.038219659e-11
-2.058346754e-11
-2.077072856e-11
-2.09473625e-11
-2.111708951e-11
-2.12819233e-11
-2.144154487e-11
-2.159410901e-11
-2.173768217e-11
-2.187131125e-11
-2.199519264e-11
-2.211004224e-11
-2.221624386e-11
-2.231338175e-11
-2.240042381e-11
-2.247639563e-11
-2.254108648e-11
-2.25953575e-11
-2.264085059e-11
-2.267926415e-11
-2.271155552e-11
-2.273746661e-11
-2.275559536e-11
-1.137471991e-11
-1.820996187e-11
-8.65028816e-12
-9.455001789e-12
-9.914260345e-12
-1.033054111e-11
-1.072196004e-11
-1.11016122e-11
-1.148558723e-11
-1.187692766e-11
-1.226415706e-11
-1.263601395e-11
-1.299460063e-11
-1.33530231e-11
-1.372150554e-11
-1.409714266e-11
-1.446686056e-11
-1.481926947e-11
-1.515352813e-11
-1.547796199e-11
-1.580145027e-11
-1.612624072e-11
-1.644792349e-11
-1.676103227e-11
-1.706425073e-11
-1.736071521e-11
-1.765394337e-11
-1.794364691e-11
-1.822522664e-11
-1.84932342e-11
-1.874578859e-11
-1.898639077e-11
-1.922183542e-11
-1.945785262e-11
-1.969556026e-11
-1.99309595e-11
-2.015750251e-11
-2.036984195e-11
-2.056643706e-11
-2.074972209e-11
-2.0924162e-11
-2.109364804e-11
-2.12597409e-11
-2.142149782e-11
-2.157656796e-11
-2.172265287e-11
-2.185844005e-11
-2.198366837e-11
-2.209855788e-11
-2.22031755e-11
-2.229720288e-11
-2.238021946e-11
-2.245225497e-11
-2.251417932e-11
-2.256763276e-11
-2.261445938e-11
-2.265590448e-11
-2.26919775e-11
-2.272129687e-11
-2.274152135e-11
-1.136778138e-11
-1.825904904e-11
-8.641928479e-12
-9.470506006e-12
-9.927948539e-12
-1.033164949e-11
-1.071325873e-11
-1.109219631e-11
-1.147886747e-11
-1.186791089e-11
-1.224742428e-11
-1.261388406e-11
-1.297624157e-11
-1.334601072e-11
-1.372485676e-11
-1.410228554e-11
-1.446476194e-11
-1.480677711e-11
-1.51339745e-11
-1.545689411e-11
-1.57821246e-11
-1.610851931e-11
-1.643041163e-11
-1.674359197e-11
-1.704840844e-11
-1.734790194e-11
-1.764355246e-11
-1.793282231e-11
-1.821067374e-11
-1.84736124e-11
-1.872284857e-11
-1.896406075e-11
-1.920392543e-11
-1.944591354e-11
-1.968815675e-11
-1.99246082e-11
-2.014852205e-11
-2.0355997e-11
-2.054759519e-11
-2.072743658e-11
-2.090066969e-11
-2.107091755e-11
-2.123898882e-11
-2.140319119e-11
-2.156067491e-11
-2.170885053e-11
-2.184615031e-11
-2.197198621e-11
-2.208624433e-11
-2.21888441e-11
-2.227969132e-11
-2.235901173e-11
-2.242774576e-11
-2.248765152e-11
-2.254091005e-11
-2.258936974e-11
-2.263374033e-11
-2.267314346e-11
-2.270524981e-11
-2.272700345e-11
-1.136023923e-11
-1.831997786e-11
-8.643574902e-12
-9.486133585e-12
-9.930465774e-12
-1.031948999e-11
-1.069569432e-11
-1.107736639e-11
-1.146637825e-11
-1.185288981e-11
-1.22291767e-11
-1.259862644e-11
-1.297125716e-11
-1.335193256e-11
-1.373399496e-11
-1.410430292e-11
-1.445412669e-11
-1.478568781e-11
-1.510924819e-11
-1.543447173e-11
-1.576385506e-11
-1.609296137e-11
-1.641574673e-11
-1.672957615e-11
-1.703591605e-11
-1.733708309e-11
-1.763267434e-11
-1.791902817e-11
-1.81920517e-11
-1.845089119e-11
-1.869937907e-11
-1.894403115e-11
-1.919001501e-11
-1.943785663e-11
-1.968298303e-11
-1.991825391e-11
-2.013777734e-11
-2.033973705e-11
-2.052683761e-11
-2.070445772e-11
-2.087783873e-11
-2.104986057e-11
-2.122035257e-11
-2.13868823e-11
-2.154624197e-11
-2.169573423e-11
-2.183371656e-11
-2.195943649e-11
-2.207259448e-11
-2.21730718e-11
-2.226104308e-11
-2.233731666e-11
-2.240358105e-11
-2.246223938e-11
-2.251578615e-11
-2.256592591e-11
-2.261282225e-11
-2.265483908e-11
-2.268893165e-11
-2.271157885e-11
-1.135190714e-11
-1.838585561e-11
-8.642688594e-12
-9.489199405e-12
-9.916198642e-12
-1.029611655e-11
-1.067431021e-11
-1.106201006e-11
-1.145374922e-11
-1.183993812e-11
-1.221855169e-11
-1.259610385e-11
-1.297863922e-11
-1.336329288e-11
-1.373913001e-11
-1.409604932e-11
-1.443307956e-11
-1.47588251e-11
-1.50844355e-11
-1.541565086e-11
-1.575019283e-11
-1.608143847e-11
-1.640422952e-11
-1.671784522e-11
-1.702446168e-11
-1.732540399e-11
-1.761890364e-11
-1.790124003e-11
-1.817009176e-11
-1.842715337e-11
-1.867781238e-11
-1.892800585e-11
-1.918043265e-11
-1.943264991e-11
-1.9678217e-11
-1.991007832e-11
-2.012409483e-11
-2.03208114e-11
-2.050472472e-11
-2.068179627e-11
-2.085670854e-11
-2.103121598e-11
-2.120410627e-11
-2.137237045e-11
-2.153270719e-11
-2.168256273e-11
-2.182041063e-11
-2.194547594e-11
-2.205736286e-11
-2.215595833e-11
-2.224166765e-11
-2.231575733e-11
-2.238044965e-11
-2.243855798e-11
-2.249268776e-11
-2.254430822e-11
-2.259308853e-11
-2.263681913e-11