/*--------------------------------*- C++ -*----------------------------------*\
  =========                 |
  \\      /  F ield         | OpenFOAM: The Open Source CFD Toolbox
   \\    /   O peration     | Website:  https://openfoam.org
    \\  /    A nd           | Version:  10
     \\/     M anipulation  |
\*---------------------------------------------------------------------------*/
FoamFile
{
    format      ascii;
    class       surfaceScalarField;
    location    "0.0001";
    object      phi;
}
// * * * * * * * * * * * * * * * * * * * * * * * * * * * * * * * * * * * * * //

dimensions      [0 3 -1 0 0 0 0];

internalField   nonuniform List<scalar> 
7080
(
-2.700848388e-21
-3.484772612e-22
-2.40445841e-21
-2.964194026e-22
-2.150719201e-21
-2.537671519e-22
-1.93214255e-21
-2.186031636e-22
-1.742737013e-21
-1.894307724e-22
-1.577682665e-21
-1.650784642e-22
-1.433080038e-21
-1.446257706e-22
-1.305756059e-21
-1.273462229e-22
-1.193113797e-21
-1.126636371e-22
-1.093015704e-21
-1.001186728e-22
-1.003692427e-21
-8.934319259e-23
-9.236712559e-22
-8.004055833e-23
-8.517197385e-22
-7.197046051e-23
-7.868010551e-22
-6.493720595e-23
-7.280385264e-22
-5.878062906e-23
-6.746872407e-22
-5.336898474e-23
-6.261112401e-22
-4.859335565e-23
-5.817650749e-22
-4.436324396e-23
-5.411788287e-22
-4.060309718e-23
-5.039459174e-22
-3.724955849e-23
-4.697131071e-22
-3.424927033e-23
-4.381723015e-22
-3.155710449e-23
-4.090537442e-22
-2.913473109e-23
-3.821203681e-22
-2.694946094e-23
-3.571630823e-22
-2.497330706e-23
-3.339968327e-22
-2.31822197e-23
-3.124572952e-22
-2.155545929e-23
-2.92398088e-22
-2.007507997e-23
-2.736884079e-22
-1.872550306e-23
-2.562110196e-22
-1.749316284e-23
-2.39860538e-22
-1.636621089e-23
-2.245419599e-22
-1.533426837e-23
-2.101694026e-22
-1.438821803e-23
-1.966650166e-22
-1.352002961e-23
-1.839580434e-22
-1.272261269e-23
-1.71983995e-22
-1.198969202e-23
-1.6068394e-22
-1.131570159e-23
-1.500038797e-22
-1.069569461e-23
-1.398942058e-22
-1.012526725e-23
-1.303092255e-22
-9.600493856e-24
-1.212067447e-22
-9.117871021e-24
-1.125476992e-22
-8.674268342e-24
-1.042958246e-22
-8.266884164e-24
-9.641736e-23
-7.893205864e-24
-8.888078102e-23
-7.55097473e-24
-8.165656042e-23
-7.238155603e-24
-7.471695391e-23
-6.952910885e-24
-6.803580941e-23
-6.693577802e-24
-6.15883971e-23
-6.458647312e-24
-5.535125675e-23
-6.246742963e-24
-4.930205943e-23
-6.056598248e-24
-4.34194805e-23
-5.887031197e-24
-3.768308228e-23
-5.736915024e-24
-3.207320451e-23
-5.605144588e-24
-2.657085692e-23
-5.49060752e-24
-2.11575873e-23
-5.392213004e-24
-1.581521746e-23
-5.309189657e-24
-1.052505225e-23
-5.242309973e-24
-5.265129194e-24
-5.197650671e-24
-5.195674082e-24
-2.648790529e-21
-6.850610784e-22
-2.36180616e-21
-5.834057982e-22
-2.115555212e-21
-5.000204076e-22
-1.902970159e-21
-4.311907148e-22
-1.718384705e-21
-3.740187577e-22
-1.557229972e-21
-3.262357544e-22
-1.41580049e-21
-2.860579197e-22
-1.291073474e-21
-2.520760355e-22
-1.180568833e-21
-2.231711642e-22
-1.082240224e-21
-1.984502309e-22
-9.94389793e-22
-1.771966329e-22
-9.156011581e-22
-1.588322729e-22
-8.446864839e-22
-1.428883032e-22
-7.806444782e-22
-1.28982496e-22
-7.226268821e-22
-1.168016442e-22
-6.699116116e-22
-1.060878029e-22
-6.218811284e-22
-9.662748947e-23
-5.780049281e-22
-8.824317141e-23
-5.378252901e-22
-8.07865254e-23
-5.009456292e-22
-7.413306962e-23
-4.670209413e-22
-6.817787063e-23
-4.357499281e-22
-6.283209649e-23
-4.068684741e-22
-5.802023783e-23
-3.801442142e-22
-5.367785575e-23
-3.55371995e-22
-4.974974754e-23
-3.323700723e-22
-4.618844726e-23
-3.109769159e-22
-4.295299681e-23
-2.91048511e-22
-4.000793509e-23
-2.724560677e-22
-3.732246203e-23
-2.550840676e-22
-3.486974306e-23
-2.388285955e-22
-3.262632785e-23
-2.235959096e-22
-3.057166402e-23
-2.093012142e-22
-2.868768985e-23
-1.958675997e-22
-2.695849229e-23
-1.832251227e-22
-2.537001823e-23
-1.713100046e-22
-2.390982929e-23
-1.60063933e-22
-2.2566893e-23
-1.494334524e-22
-2.133140499e-23
-1.393694324e-22
-2.019463789e-23
-1.298266026e-22
-1.914881253e-23
-1.20763142e-22
-1.818698731e-23
-1.12140315e-22
-1.730296203e-23
-1.039221463e-22
-1.649119383e-23
-9.607512887e-23
-1.574672376e-23
-8.856796189e-23
-1.506511311e-23
-8.13713157e-23
-1.444238917e-23
-7.445762082e-23
-1.38749991e-23
-6.780087892e-23
-1.335977091e-23
-6.137649275e-23
-1.28938798e-23
-5.516111204e-23
-1.247481887e-23
-4.913249238e-23
-1.210037318e-23
-4.326936433e-23
-1.176859686e-23
-3.755131184e-23
-1.147779141e-23
-3.195866744e-23
-1.122647624e-23
-2.64724624e-23
-1.10133199e-23
-2.107456395e-23
-1.083695027e-23
-1.574833778e-23
-1.069551671e-23
-1.048039295e-23
-1.058608772e-23
-5.263152605e-24
-1.05053493e-23
-1.045773612e-23
-2.547135249e-21
-9.986044806e-22
-2.278420769e-21
-8.521223355e-22
-2.04672552e-21
-7.317180323e-22
-1.845798202e-21
-6.321205271e-22
-1.670601702e-21
-5.492178407e-22
-1.517052137e-21
-4.797880381e-22
-1.381818606e-21
-4.212942827e-22
-1.262168602e-21
-3.717289468e-22
-1.1558479e-21
-3.2949486e-22
-1.060986626e-21
-2.933146061e-22
-9.76025433e-22
-2.621610275e-22
-8.996571883e-22
-2.352037975e-22
-8.307806767e-22
-2.117681739e-22
-7.684636264e-22
-1.913030057e-22
-7.119130408e-22
-1.733558013e-22
-6.604512982e-22
-1.575532207e-22
-6.134968103e-22
-1.435857425e-22
-5.705482821e-22
-1.311955501e-22
-5.311718343e-22
-1.201669093e-22
-4.949904302e-22
-1.103184913e-22
-4.616751672e-22
-1.014972251e-22
-4.309380694e-22
-9.357335659e-23
-4.02526092e-22
-8.643645422e-23
-3.76216106e-22
-7.999216517e-23
-3.518106947e-22
-7.415956844e-23
-3.291346219e-22
-6.886900991e-23
-3.080318542e-22
-6.4060326e-23
-2.88363038e-22
-5.968137937e-23
-2.700033487e-22
-5.568684483e-23
-2.528406524e-22
-5.203719778e-23
-2.367739317e-22
-4.869786907e-23
-2.217119354e-22
-4.563853822e-23
-2.075720166e-22
-4.283254092e-23
-1.942791256e-22
-4.025637037e-23
-1.817649338e-22
-3.78892551e-23
-1.699670683e-22
-3.571279995e-23
-1.58828445e-22
-3.371068025e-23
-1.482966853e-22
-3.186838144e-23
-1.383236071e-22
-3.017297724e-23
-1.288647774e-22
-2.861294009e-23
-1.198791167e-22
-2.717797786e-23
-1.113285468e-22
-2.585889232e-23
-1.031776763e-22
-2.464745595e-23
-9.539351822e-23
-2.353630489e-23
-8.794523794e-23
-2.251884637e-23
-8.080392563e-23
-2.158917913e-23
-7.394239263e-23
-2.074202518e-23
-6.733498782e-23
-1.997267103e-23
-6.095743182e-23
-1.927691669e-23
-5.478666635e-23
-1.865103102e-23
-4.880071607e-23
-1.809171287e-23
-4.297855888e-23
-1.759605866e-23
-3.729999667e-23
-1.716154047e-23
-3.17455111e-23
-1.678600378e-23
-2.629609278e-23
-1.646769202e-23
-2.093313038e-23
-1.620526101e-23
-1.563890879e-23
-1.599757688e-23
-1.039965453e-23
-1.58427763e-23
-5.215539422e-24
-1.573632228e-23
-1.56722647e-23
-2.400653104e-21
-1.279288147e-21
-2.158016466e-21
-1.094761108e-21
-1.947128014e-21
-9.426088332e-22
-1.762895515e-21
-8.163554931e-22
-1.601171899e-21
-7.109440691e-22
-1.458558382e-21
-6.224042902e-22
-1.33225327e-21
-5.476022133e-22
-1.219934516e-21
-4.840505989e-22
-1.119667646e-21
-4.297647271e-22
-1.029833047e-21
-3.831523099e-22
-9.49068203e-22
-3.429290738e-22
-8.762215647e-22
-3.08053728e-22
-8.103155085e-22
-2.776776226e-22
-7.505164221e-22
-2.511055913e-22
-6.961104602e-22
-2.277653601e-22
-6.4648382e-22
-2.071835422e-22
-6.011066179e-22
-1.889667083e-22
-5.595196414e-22
-1.727863806e-22
-5.213234162e-22
-1.583670807e-22
-4.861691641e-22
-1.454767732e-22
-4.537512986e-22
-1.33919194e-22
-4.238011671e-22
-1.235276644e-22
-3.960818029e-22
-1.141600752e-22
-3.703835092e-22
-1.056948022e-22
-3.465201362e-22
-9.802736863e-23
-3.24325938e-22
-9.106771072e-23
-3.036529076e-22
-8.473792787e-23
-2.843685035e-22
-7.897042271e-23
-2.663537017e-22
-7.370635509e-23
-2.495013237e-22
-6.889435239e-23
-2.337146008e-22
-6.448943169e-23
-2.189059381e-22
-6.045209735e-23
-2.049958461e-22
-5.674758293e-23
-1.919120104e-22
-5.334521122e-23
-1.795884786e-22
-5.021785116e-23
-1.679649486e-22
-4.734145562e-23
-1.569861462e-22
-4.469466759e-23
-1.466012811e-22
-4.225848465e-23
-1.367635699e-22
-4.001597253e-23
-1.274298152e-22
-3.79520196e-23
-1.185600312e-22
-3.605312498e-23
-1.101171105e-22
-3.430721501e-23
-1.020665252e-22
-3.270348375e-23
-9.43760597e-23
-3.123225477e-23
-8.70155707e-23
-2.988486153e-23
-7.995677169e-23
-2.865354434e-23
-7.317303848e-23
-2.753136135e-23
-6.663923347e-23
-2.651211145e-23
-6.033154615e-23
-2.559026712e-23
-5.42273482e-23
-2.47609156e-23
-4.830506185e-23
-2.401970652e-23
-4.254404069e-23
-2.336280437e-23
-3.692445998e-23
-2.278684518e-23
-3.142719934e-23
-2.228890353e-23
-2.603366177e-23
-2.186649509e-23
-2.072544626e-23
-2.151766006e-23
-1.548410821e-23
-2.124110132e-23
-1.029320051e-23
-2.103592369e-23
-5.151481846e-24
-2.089965683e-23
-2.082476202e-23
-2.216126065e-21
-1.519260672e-21
-2.005864191e-21
-1.305025131e-21
-1.820874674e-21
-1.127600692e-21
-1.657484091e-21
-9.797485601e-22
-1.51263212e-21
-8.55798647e-22
-1.383756305e-21
-7.512828207e-22
-1.268701656e-21
-6.62659679e-22
-1.165648644e-21
-5.871065217e-22
-1.073055229e-21
-5.223611447e-22
-9.896098113e-22
-4.666008209e-22
-9.141928572e-22
-4.183492166e-22
-8.458454593e-22
-3.764044194e-22
-7.837434772e-22
-3.397830089e-22
-7.271761909e-22
-3.076763839e-22
-6.755286423e-22
-2.794165016e-22
-6.282669861e-22
-2.544488722e-22
-5.849262902e-22
-2.323111657e-22
-5.451003415e-22
-2.12616186e-22
-5.084331087e-22
-1.950382612e-22
-4.74611585e-22
-1.793023234e-22
-4.43359769e-22
-1.651751088e-22
-4.144335779e-22
-1.52458031e-22
-3.876165299e-22
-1.40981383e-22
-3.627160757e-22
-1.305996021e-22
-3.395604783e-22
-1.211873911e-22
-3.179961551e-22
-1.126365301e-22
-2.978854024e-22
-1.048532453e-22
-2.791044358e-22
-9.775602485e-23
-2.61541699e-22
-9.127380021e-23
-2.45096403e-22
-8.534442591e-23
-2.296772665e-22
-7.991340751e-23
-2.152014237e-22
-7.493283416e-23
-2.015934744e-22
-7.036047909e-23
-1.887846503e-22
-6.615903796e-23
-1.767120831e-22
-6.22954812e-23
-1.653181606e-22
-5.874050221e-23
-1.545499632e-22
-5.546804692e-23
-1.443587689e-22
-5.245491236e-23
-1.34699617e-22
-4.96804031e-23
-1.255309205e-22
-4.712603589e-23
-1.168141212e-22
-4.477528437e-23
-1.085133792e-22
-4.26133578e-23
-1.005952962e-22
-4.062700894e-23
-9.302866646e-23
-3.88043677e-23
-8.578425352e-23
-3.713479708e-23
-7.88345887e-23
-3.560876861e-23
-7.215378858e-23
-3.421775437e-23
-6.571738915e-23
-3.295413312e-23
-5.950219463e-23
-3.181110862e-23
-5.348613911e-23
-3.078263854e-23
-4.76481597e-23
-2.986337264e-23
-4.19680815e-23
-2.904859819e-23
-3.642651834e-23
-2.833418857e-23
-3.100479089e-23
-2.771655039e-23
-2.568482674e-23
-2.719257483e-23
-2.044888753e-23
-2.675964256e-23
-1.527893057e-23
-2.641578707e-23
-1.015693365e-23
-2.61599341e-23
-5.076587034e-24
-2.599102939e-23
-2.590357077e-23
-2.001890524e-21
-1.713121632e-21
-1.828439752e-21
-1.478478092e-21
-1.673022543e-21
-1.283020278e-21
-1.533534178e-21
-1.119239403e-21
-1.408116294e-21
-9.812191201e-22
-1.295133163e-21
-8.642686675e-22
-1.193148498e-21
-7.646471684e-22
-1.100903267e-21
-6.793546622e-22
-1.017294905e-21
-6.05972498e-22
-9.41358207e-22
-5.425406056e-22
-8.7224806e-22
-4.874625571e-22
-8.092240488e-22
-4.39431734e-22
-7.516368522e-22
-3.973736121e-22
-6.989163087e-22
-3.604004249e-22
-6.505610129e-22
-3.277753786e-22
-6.061292796e-22
-2.988842739e-22
-5.652313105e-22
-2.732128986e-22
-5.275224167e-22
-2.503289392e-22
-4.926971709e-22
-2.298674518e-22
-4.604843703e-22
-2.115191441e-22
-4.306426912e-22
-1.950208824e-22
-4.029569298e-22
-1.801479679e-22
-3.77234749e-22
-1.667078254e-22
-3.533038647e-22
-1.545348307e-22
-3.310096173e-22
-1.43486057e-22
-3.102128703e-22
-1.33437765e-22
-2.90788182e-22
-1.242824919e-22
-2.726222112e-22
-1.159266287e-22
-2.556123247e-22
-1.082883946e-22
-2.396653846e-22
-1.012961422e-22
-2.246966931e-22
-9.488693451e-23
-2.106290686e-22
-8.900534725e-23
-1.973920332e-22
-8.360245624e-23
-1.849210935e-22
-7.863497688e-23
-1.731571041e-22
-7.406453117e-23
-1.620457053e-22
-6.98570224e-23
-1.515368287e-22
-6.598210118e-23
-1.415842597e-22
-6.241270879e-23
-1.321452498e-22
-5.912468524e-23
-1.23180169e-22
-5.609643125e-23
-1.146521946e-22
-5.330861569e-23
-1.065270304e-22
-5.074392161e-23
-9.877265497e-23
-4.838682606e-23
-9.135909584e-23
-4.622340908e-23
-8.425822505e-23
-4.424118822e-23
-7.744357446e-23
-4.242897496e-23
-7.089016733e-23
-4.07767498e-23
-6.457436465e-23
-3.927555333e-23
-5.847372455e-23
-3.791739124e-23
-5.256687322e-23
-3.669515149e-23
-4.683338524e-23
-3.560253281e-23
-4.125367188e-23
-3.463398356e-23
-3.580888016e-23
-3.378464882e-23
-3.048081533e-23
-3.305031888e-23
-2.525189446e-23
-3.242736807e-23
-2.010503204e-23
-3.191269348e-23
-1.50230776e-23
-3.150375248e-23
-9.988028945e-24
-3.119886087e-23
-4.989128409e-24
-3.099719924e-23
-3.089539936e-23
-1.767246983e-21
-1.858202081e-21
-1.632981939e-21
-1.612745318e-21
-1.509241667e-21
-1.40676292e-21
-1.395513896e-21
-1.232969641e-21
-1.291165841e-21
-1.085569773e-21
-1.195511664e-21
-9.599255672e-22
-1.107855992e-21
-8.523056505e-22
-1.027521103e-21
-7.596924382e-22
-9.538630125e-22
-6.796335704e-22
-8.862801586e-22
-6.10126554e-22
-8.242172369e-22
-5.495286847e-22
-7.671659269e-22
-4.964863507e-22
-7.14663665e-22
-4.498792721e-22
-6.662912624e-22
-4.087763124e-22
-6.216699082e-22
-3.724003067e-22
-5.804579042e-22
-3.400999469e-22
-5.423473511e-22
-3.113272179e-22
-5.070609293e-22
-2.856192181e-22
-4.743488632e-22
-2.625834559e-22
-4.439861087e-22
-2.418859122e-22
-4.157697767e-22
-2.232413071e-22
-3.895167874e-22
-2.064051344e-22
-3.650617543e-22
-1.911671202e-22
-3.42255091e-22
-1.773458335e-22
-3.209613253e-22
-1.647842332e-22
-3.010575972e-22
-1.533459734e-22
-2.824323188e-22
-1.429123252e-22
-2.649839771e-22
-1.33379603e-22
-2.486200723e-22
-1.24657007e-22
-2.332561769e-22
-1.166648109e-22
-2.188151059e-22
-1.093328354e-22
-2.052261776e-22
-1.025991579e-22
-1.924245539e-22
-9.640901706e-23
-1.803506478e-22
-9.071387949e-23
-1.689495953e-22
-8.547064233e-23
-1.581707841e-22
-8.064095213e-23
-1.479674363e-22
-7.61906217e-23
-1.382962361e-22
-7.208913004e-23
-1.291169958e-22
-6.830919151e-23
-1.203923535e-22
-6.482638336e-23
-1.120875006e-22
-6.161882259e-23
-1.041699348e-22
-5.866688533e-23
-9.660923799e-23
-5.595296324e-23
-8.937687498e-23
-5.346125211e-23
-8.244601179e-23
-5.11775682e-23
-7.579134929e-23
-4.908918847e-23
-6.938897086e-23
-4.718471119e-23
-6.321620256e-23
-4.54539342e-23
-5.72514848e-23
-4.388774843e-23
-5.147425453e-23
-4.247804492e-23
-4.586483599e-23
-4.121763396e-23
-4.040433715e-23
-4.01001757e-23
-3.507455023e-23
-3.912012208e-23
-2.985786452e-23
-3.827266768e-23
-2.473721988e-23
-3.755369822e-23
-1.969609104e-23
-3.695971967e-23
-1.471818599e-23
-3.648780264e-23
-9.786367314e-24
-3.613573601e-23
-4.887328529e-24
-3.590236479e-23
-3.578557326e-23
-1.52179022e-21
-1.95459183e-21
-1.426999541e-21
-1.707538138e-21
-1.335448388e-21
-1.498316423e-21
-1.248114028e-21
-1.32030649e-21
-1.165521635e-21
-1.168164782e-21
-1.087891747e-21
-1.037558165e-21
-1.01524278e-21
-9.249574006e-22
-9.474622349e-22
-8.274758576e-22
-8.84355996e-22
-7.427428004e-22
-8.256822893e-22
-6.688033684e-22
-7.711749029e-22
-6.040392795e-22
-7.205588482e-22
-5.47105703e-22
-6.735607053e-22
-4.968808007e-22
-6.299152567e-22
-4.524252389e-22
-5.893695484e-22
-4.129495889e-22
-5.516851753e-22
-3.77787991e-22
-5.166393512e-22
-3.463768063e-22
-4.840251672e-22
-3.182372525e-22
-4.536513194e-22
-2.92961234e-22
-4.253415035e-22
-2.70199738e-22
-3.98933604e-22
-2.496532996e-22
-3.742787731e-22
-2.310641433e-22
-3.512404676e-22
-2.142096844e-22
-3.296934907e-22
-1.988971426e-22
-3.095230655e-22
-1.84959061e-22
-2.90623949e-22
-1.722495655e-22
-2.728995966e-22
-1.606412316e-22
-2.562613812e-22
-1.500224516e-22
-2.406278762e-22
-1.40295218e-22
-2.259242014e-22
-1.313732542e-22
-2.120814284e-22
-1.231804315e-22
-1.990360368e-22
-1.156494258e-22
-1.867294163e-22
-1.087205711e-22
-1.751074107e-22
-1.0234088e-22
-1.641199051e-22
-9.646320487e-23
-1.537204536e-22
-9.104551866e-23
-1.438659446e-22
-8.6050298e-23
-1.345162976e-22
-8.144399172e-23
-1.256341876e-22
-7.71965616e-23
-1.171847927e-22
-7.328108399e-23
-1.091355633e-22
-6.967340354e-23
-1.014560127e-22
-6.63518322e-23
-9.411752686e-23
-6.329688746e-23
-8.709319107e-23
-6.049106485e-23
-8.035763206e-23
-5.791863974e-23
-7.388687201e-23
-5.556549438e-23
-6.765819387e-23
-5.34189667e-23
-6.165001679e-23
-5.146771797e-23
-5.584178129e-23
-4.970161701e-23
-5.021384358e-23
-4.811163914e-23
-4.474737773e-23
-4.668977783e-23
-3.942428353e-23
-4.542896795e-23
-3.422709582e-23
-4.432302042e-23
-2.913889506e-23
-4.336656894e-23
-2.414324133e-23
-4.255502495e-23
-1.922417401e-23
-4.188452213e-23
-1.436611936e-23
-4.135183756e-23
-9.552996101e-24
-4.095440853e-23
-4.770536999e-24
-4.069065656e-23
-4.055898817e-23
-1.274736529e-21
-2.004907166e-21
-1.217777825e-21
-1.764498964e-21
-1.157438455e-21
-1.55865814e-21
-1.09597232e-21
-1.381775124e-21
-1.034915018e-21
-1.229224691e-21
-9.752909832e-22
-1.097184884e-21
-9.177612366e-22
-9.824899191e-22
-8.627291777e-22
-8.825108028e-22
-8.104165641e-22
-7.950584208e-22
-7.609182003e-22
-7.183048421e-22
-7.142413265e-22
-6.507193506e-22
-6.70333946e-22
-5.91016368e-22
-6.291051435e-22
-5.381129827e-22
-5.904396066e-22
-4.910942541e-22
-5.542079505e-22
-4.491848206e-22
-5.202739905e-22
-4.117256199e-22
-4.884997975e-22
-3.781547571e-22
-4.587491487e-22
-3.479917438e-22
-4.308898233e-22
-3.208244847e-22
-4.047950652e-22
-2.962985049e-22
-3.803444477e-22
-2.741080106e-22
-3.574243142e-22
-2.539884525e-22
-3.359279258e-22
-2.357103253e-22
-3.157554091e-22
-2.190739836e-22
-2.9681357e-22
-2.039052967e-22
-2.790156151e-22
-1.900519943e-22
-2.622808165e-22
-1.773805851e-22
-2.465341476e-22
-1.657737535e-22
-2.317059123e-22
-1.551281557e-22
-2.177313787e-22
-1.453525497e-22
-2.045504226e-22
-1.363662038e-22
-1.921071821e-22
-1.280975379e-22
-1.803497252e-22
-1.204829593e-22
-1.692297355e-22
-1.134658636e-22
-1.587022189e-22
-1.069957765e-22
-1.48725233e-22
-1.010276155e-22
-1.392596383e-22
-9.552105394e-23
-1.302688675e-22
-9.043997098e-23
-1.2171871e-22
-8.575197412e-23
-1.135771122e-22
-8.142798412e-23
-1.05813992e-22
-7.74418733e-23
-9.8401068e-23
-7.377015054e-23
-9.131170425e-23
-7.039168686e-23
-8.452076595e-23
-6.728747626e-23
-7.80044867e-23
-6.444042673e-23
-7.174034434e-23
-6.183517741e-23
-6.570694514e-23
-5.945793819e-23
-5.988391583e-23
-5.72963492e-23
-5.425180342e-23
-5.533935781e-23
-4.879198226e-23
-5.357711122e-23
-4.348656785e-23
-5.20008627e-23
-3.8318336e-23
-5.060288959e-23
-3.327064433e-23
-4.937642208e-23
-2.832735107e-23
-4.831558349e-23
-2.34727385e-23
-4.741534318e-23
-1.869148944e-23
-4.667147308e-23
-1.396869033e-23
-4.60804815e-23
-9.289244129e-24
-4.563956341e-23
-4.638868614e-24
-4.534680245e-23
-4.520073788e-23
-1.034328326e-21
-2.013838983e-21
-1.011937002e-21
-1.78689244e-21
-9.805554382e-22
-1.590042051e-21
-9.434218875e-22
-1.418911158e-21
-9.028752105e-22
-1.269773952e-21
-8.605960183e-22
-1.139466751e-21
-8.177821203e-22
-1.0253066e-21
-7.752767957e-22
-9.250190303e-22
-7.336629854e-22
-8.366752409e-22
-6.933327088e-22
-7.58638217e-22
-6.545383439e-22
-6.895168994e-22
-6.174305607e-22
-6.281274304e-22
-5.820864148e-22
-5.734605097e-22
-5.485301732e-22
-5.24653976e-22
-5.167487499e-22
-4.809698169e-22
-4.867031276e-22
-4.417749042e-22
-4.583367842e-22
-4.065248506e-22
-4.315818897e-22
-3.747504756e-22
-4.063638436e-22
-3.460464542e-22
-3.826045709e-22
-3.200617861e-22
-3.602248896e-22
-2.964917831e-22
-3.39146187e-22
-2.750713252e-22
-3.192915841e-22
-2.555691727e-22
-3.005867222e-22
-2.377831632e-22
-2.829602676e-22
-2.215361454e-22
-2.663442059e-22
-2.066725305e-22
-2.50673985e-22
-1.930553617e-22
-2.358885498e-22
-1.805638196e-22
-2.219303063e-22
-1.690910961e-22
-2.087450328e-22
-1.585425778e-22
-1.962817567e-22
-1.4883429e-22
-1.844926035e-22
-1.398915594e-22
-1.733326295e-22
-1.316478634e-22
-1.627596484e-22
-1.240438375e-22
-1.527340579e-22
-1.170264191e-22
-1.432186715e-22
-1.105481077e-22
-1.341785554e-22
-1.045663251e-22
-1.255808706e-22
-9.904285838e-23
-1.1739472e-22
-9.394337558e-23
-1.095910014e-22
-8.923700244e-23
-1.021422692e-22
-8.489595307e-23
-9.502260432e-23
-8.089520746e-23
-8.820749365e-23
-7.721222978e-23
-8.167371643e-23
-7.382672206e-23
-7.539923738e-23
-7.072040832e-23
-6.936310512e-23
-6.7876845e-23
-6.354535614e-23
-6.528125432e-23
-5.792692444e-23
-6.29203781e-23
-5.248955684e-23
-6.078234956e-23
-4.721573374e-23
-5.885658129e-23
-4.208859474e-23
-5.71336675e-23
-3.709186849e-23
-5.56052986e-23
-3.220980574e-23
-5.426418636e-23
-2.742711076e-23
-5.310399932e-23
-2.272886841e-23
-5.211931048e-23
-1.810049786e-23
-5.130555608e-23
-1.352777224e-23
-5.065898609e-23
-8.99648317e-24
-5.017660013e-23
-4.492804045e-24
-4.985624053e-23
-4.969642073e-23
-8.073817832e-22
-1.987556013e-21
-8.150866138e-22
-1.779189812e-21
-8.09424545e-22
-1.595706474e-21
-7.94284681e-22
-1.434053492e-21
-7.725680094e-22
-1.291493199e-21
-7.46435868e-22
-1.165601574e-21
-7.174945503e-22
-1.054250715e-21
-6.869330064e-22
-9.555834804e-22
-6.556259615e-22
-8.679852853e-22
-6.242113912e-22
-7.900558725e-22
-5.931488748e-22
-7.205825947e-22
-5.6276364e-22
-6.585159471e-22
-5.332798811e-22
-6.029476522e-22
-5.048460141e-22
-5.530913203e-22
-4.775538372e-22
-5.082655592e-22
-4.51453074e-22
-4.67879322e-22
-4.265624092e-22
-4.314192608e-22
-4.028778683e-22
-3.984388521e-22
-3.803791754e-22
-3.685490696e-22
-3.59034568e-22
-3.414103991e-22
-3.388044317e-22
-3.167260049e-22
-3.196440345e-22
-2.942358848e-22
-3.015055745e-22
-2.737118704e-22
-2.843397044e-22
-2.549533475e-22
-2.680966527e-22
-2.377835908e-22
-2.527270371e-22
-2.220466216e-22
-2.381824429e-22
-2.076045107e-22
-2.244158264e-22
-1.943350628e-22
-2.11381788e-22
-1.821298243e-22
-1.990367449e-22
-1.708923686e-22
-1.873390262e-22
-1.605368143e-22
-1.762489075e-22
-1.509865444e-22
-1.657286036e-22
-1.421730968e-22
-1.557422299e-22
-1.340352023e-22
-1.462557465e-22
-1.265179505e-22
-1.372368888e-22
-1.195720653e-22
-1.286550887e-22
-1.131532741e-22
-1.204813878e-22
-1.072217569e-22
-1.126883469e-22
-1.017416641e-22
-1.052499521e-22
-9.668069486e-23
-9.814152358e-23
-9.200972704e-23
-9.133962664e-23
-8.770249355e-23
-8.482198593e-23
-8.373529864e-23
-7.85674027e-23
-8.008676891e-23
-7.255567405e-23
-7.67376342e-23
-6.676751444e-23
-7.367053468e-23
-6.118447992e-23
-7.08698509e-23
-5.57888959e-23
-6.832155434e-23
-5.056378857e-23
-6.601307619e-23
-4.549281996e-23
-6.393319251e-23
-4.056022584e-23
-6.207192371e-23
-3.575075624e-23
-6.042044694e-23
-3.104961871e-23
-5.897101923e-23
-2.644242191e-23
-5.77169105e-23
-2.191511401e-23
-5.665234693e-23
-1.745392787e-23
-5.577246706e-23
-1.304538628e-23
-5.507328131e-23
-8.676123564e-24
-5.4551615e-23
-4.332984247e-24
-5.420513486e-23
-5.403228101e-23
-5.99015582e-22
-1.933052268e-21
-6.316032756e-22
-1.746604348e-21
-6.477715629e-22
-1.579540554e-21
-6.517243881e-22
-1.430103139e-21
-6.466763845e-22
-1.296543782e-21
-6.350850089e-22
-1.177195639e-21
-6.188273161e-22
-1.070511207e-21
-5.993348112e-22
-9.750788844e-22
-5.776965487e-22
-8.896265367e-22
-5.547381133e-22
-8.130173888e-22
-5.310822273e-22
-7.442416627e-22
-5.07195345e-22
-6.824061145e-22
-4.834235493e-22
-6.267228288e-22
-4.60020253e-22
-5.764980862e-22
-4.371676e-22
-5.311217703e-22
-4.149930128e-22
-4.900575601e-22
-3.935820004e-22
-4.528340181e-22
-3.729880859e-22
-4.190366014e-22
-3.532405049e-22
-3.883005697e-22
-3.343501737e-22
-3.603047298e-22
-3.163143116e-22
-3.347659447e-22
-2.991200201e-22
-3.114343318e-22
-2.827470516e-22
-2.900890725e-22
-2.671699477e-22
-2.705347646e-22
-2.523596835e-22
-2.525982494e-22
-2.382849263e-22
-2.361258539e-22
-2.249129949e-22
-2.209809934e-22
-2.122105879e-22
-2.070420901e-22
-2.001443322e-22
-1.942007627e-22
-1.886811906e-22
-1.823602524e-22
-1.777887563e-22
-1.714340512e-22
-1.6743546e-22
-1.613447061e-22
-1.575907091e-22
-1.520227759e-22
-1.482249781e-22
-1.434059214e-22
-1.393098614e-22
-1.354381102e-22
-1.308180976e-22
-1.280689228e-22
-1.227235714e-22
-1.212529436e-22
-1.15001295e-22
-1.149492268e-22
-1.076273776e-22
-1.091208265e-22
-1.005789843e-22
-1.037343839e-22
-9.383429008e-23
-9.875976425e-23
-8.737243173e-23
-9.416973748e-23
-8.117345619e-23
-8.993969769e-23
-7.521826799e-23
-8.604741554e-23
-6.948857453e-23
-8.247281965e-23
-6.396683066e-23
-7.919780359e-23
-5.863618336e-23
-7.620605535e-23
-5.348041775e-23
-7.348290709e-23
-4.848390488e-23
-7.101520308e-23
-4.363155117e-23
-6.879118366e-23
-3.890874906e-23
-6.680038354e-23
-3.430132854e-23
-6.503354288e-23
-2.979550998e-23
-6.348252956e-23
-2.537785834e-23
-6.214027124e-23
-2.103523414e-23
-6.100069685e-23
-1.675474213e-23
-6.005868936e-23
-1.252371997e-23
-5.931004781e-23
-8.329643421e-24
-5.875144048e-23
-4.1601304e-24
-5.838039881e-23
-5.819528475e-23
-4.125676615e-22
-1.857523291e-21
-4.645394817e-22
-1.694634747e-21
-4.983341484e-22
-1.545748269e-21
-5.181650313e-22
-1.410274737e-21
-5.273282412e-22
-1.287383155e-21
-5.284005764e-22
-1.176125994e-21
-5.233949939e-22
-1.075519585e-21
-5.138824635e-22
-9.845943082e-22
-5.010874008e-22
-9.024245851e-22
-4.859623872e-22
-8.281454852e-22
-4.692466791e-22
-7.609605553e-22
-4.515120593e-22
-7.00144017e-22
-4.331988067e-22
-6.45039455e-22
-4.146439371e-22
-5.950564181e-22
-3.961033898e-22
-5.496658727e-22
-3.777694708e-22
-5.083951306e-22
-3.597845838e-22
-4.708226499e-22
-3.422520542e-22
-4.365729624e-22
-3.252446649e-22
-4.053118713e-22
-3.088113886e-22
-3.767419974e-22
-2.929826987e-22
-3.505987059e-22
-2.777747608e-22
-3.266464214e-22
-2.631927437e-22
-3.046753219e-22
-2.492334326e-22
-2.84498389e-22
-2.358872879e-22
-2.65948788e-22
-2.231400658e-22
-2.488775483e-22
-2.109740916e-22
-2.331515136e-22
-1.993692606e-22
-2.186515347e-22
-1.883038219e-22
-2.052708779e-22
-1.777549893e-22
-1.929138232e-22
-1.676994112e-22
-1.814944301e-22
-1.581135298e-22
-1.709354516e-22
-1.489738546e-22
-1.611673772e-22
-1.402571669e-22
-1.521275927e-22
-1.319406739e-22
-1.437596402e-22
-1.240021184e-22
-1.360125659e-22
-1.164198546e-22
-1.288403458e-22
-1.091728948e-22
-1.222013769e-22
-1.022409351e-22
-1.16058029e-22
-9.560436458e-23
-1.103762479e-22
-8.924426331e-23
-1.051252055e-22
-8.314239195e-23
-1.002769902e-22
-7.728117404e-23
-9.580633411e-23
-7.16436721e-23
-9.16903707e-23
-6.621355847e-23
-8.79084203e-23
-6.097508241e-23
-8.444179994e-23
-5.591303511e-23
-8.1273655e-23
-5.101271375e-23
-7.838881046e-23
-4.625988545e-23
-7.577363987e-23
-4.164075105e-23
-7.341594991e-23
-3.71419084e-23
-7.13048789e-23
-3.275031522e-23
-6.943080775e-23
-2.845325167e-23
-6.778528213e-23
-2.423828395e-23
-6.636094465e-23
-2.009322665e-23
-6.515147601e-23
-1.600610058e-23
-6.415154608e-23
-1.196511263e-23
-6.335677545e-23
-7.958601747e-24
-6.276369581e-23
-3.975016338e-24
-6.236973039e-23
-6.217317171e-23
-2.496791175e-22
-1.767836791e-21
-3.156530037e-22
-1.628663051e-21
-3.628606165e-22
-1.498543042e-21
-3.952734495e-22
-1.377864386e-21
-4.160710799e-22
-1.266588107e-21
-4.277941675e-22
-1.164405597e-21
-4.324697168e-22
-1.070846832e-21
-4.317127404e-22
-9.853541767e-22
-4.26808301e-22
-9.073320101e-22
-4.187774574e-22
-8.361794121e-22
-4.084301408e-22
-7.713110541e-22
-3.964074973e-22
-7.121699371e-22
-3.832157697e-22
-6.582345501e-22
-3.692533917e-22
-6.09022256e-22
-3.548326477e-22
-5.640901733e-22
-3.401969901e-22
-5.230344408e-22
-3.255348962e-22
-4.854884857e-22
-3.109909631e-22
-4.511207197e-22
-2.96674791e-22
-4.196319471e-22
-2.826680971e-22
-3.90752676e-22
-2.690304142e-22
-3.642404564e-22
-2.558036613e-22
-3.39877325e-22
-2.430158108e-22
-3.174674046e-22
-2.306838316e-22
-2.968346804e-22
-2.188160482e-22
-2.778209625e-22
-2.074140311e-22
-2.602840329e-22
-1.964741127e-22
-2.440959717e-22
-1.859886037e-22
-2.291416511e-22
-1.759467672e-22
-2.153173863e-22
-1.663355963e-22
-2.025297294e-22
-1.571404326e-22
-1.90694393e-22
-1.483454554e-22
-1.797352908e-22
-1.399340701e-22
-1.695836847e-22
-1.318892144e-22
-1.601774266e-22
-1.241935997e-22
-1.514602856e-22
-1.168298983e-22
-1.433813495e-22
-1.097808856e-22
-1.358944926e-22
-1.030295469e-22
-1.289579033e-22
-9.655915405e-23
-1.225336625e-22
-9.035332213e-23
-1.165873707e-22
-8.439604803e-23
-1.110878158e-22
-7.867173586e-23
-1.06006679e-22
-7.316521062e-23
-1.013182727e-22
-6.78617217e-23
-9.699930784e-23
-6.274693812e-23
-9.302868623e-23
-5.780693747e-23
-8.938731635e-23
-5.302819057e-23
-8.605794947e-23
-4.839754316e-23
-8.302503461e-23
-4.390219549e-23
-8.027459035e-23
-3.952968003e-23
-7.77940915e-23
-3.526783725e-23
-7.557236921e-23
-3.11047896e-23
-7.3599523e-23
-2.702891419e-23
-7.186684374e-23
-2.302881531e-23
-7.03667466e-23
-1.909329672e-23
-6.909271298e-23
-1.521132996e-23
-6.803924138e-23
-1.137203299e-23
-6.720180821e-23
-7.564636328e-24
-6.657683215e-23
-3.778457658e-24
-6.616165005e-23
-6.595449721e-23
-1.105053783e-22
-1.670136512e-21
-1.85532994e-22
-1.553637596e-21
-2.42181961e-22
-1.441896452e-21
-2.8399717e-22
-1.336051657e-21
-3.1388857e-22
-1.236699292e-21
-3.342354026e-22
-1.14406146e-21
-3.469770616e-22
-1.05810797e-21
-3.536905738e-22
-9.786435546e-22
-3.556557029e-22
-9.053698637e-22
-3.539090994e-22
-8.379290958e-22
-3.492890238e-22
-7.759343076e-22
-3.424721103e-22
-7.18990123e-22
-3.340034756e-22
-6.667065505e-22
-3.24321309e-22
-6.187078842e-22
-3.137769152e-22
-5.746381254e-22
-3.02651035e-22
-5.341639712e-22
-2.911671302e-22
-4.969761255e-22
-2.795021905e-22
-4.627894749e-22
-2.6779552e-22
-4.313425147e-22
-2.561558775e-22
-4.023963001e-22
-2.446672828e-22
-3.757331181e-22
-2.333937409e-22
-3.511550175e-22
-2.223830866e-22
-3.284822897e-22
-2.116701137e-22
-3.075519624e-22
-2.012791187e-22
-2.882163438e-22
-1.912259699e-22
-2.703416435e-22
-1.815197921e-22
-2.538066836e-22
-1.721643389e-22
-2.385017068e-22
-1.631591103e-22
-2.243272832e-22
-1.545002599e-22
-2.111933128e-22
-1.461813304e-22
-1.990181193e-22
-1.381938493e-22
-1.877276305e-22
-1.305278121e-22
-1.77254639e-22
-1.231720734e-22
-1.675381373e-22
-1.161146635e-22
-1.585227203e-22
-1.093430414e-22
-1.501580488e-22