/*--------------------------------*- C++ -*----------------------------------*\
  =========                 |
  \\      /  F ield         | OpenFOAM: The Open Source CFD Toolbox
   \\    /   O peration     | Website:  https://openfoam.org
    \\  /    A nd           | Version:  10
     \\/     M anipulation  |
\*---------------------------------------------------------------------------*/
FoamFile
{
    format      ascii;
    class       volScalarField;
    location    "0.0001";
    object      Qv;
}
// * * * * * * * * * * * * * * * * * * * * * * * * * * * * * * * * * * * * * //

dimensions      [1 0 -3 0 0 0 0];

internalField   nonuniform List<scalar> 
3600
(
4.202991141e-50
2.822074736e-52
5.014167998e-54
2.097514822e-55
1.810480715e-56
2.827387872e-57
7.079366048e-58
2.558760933e-58
1.223341421e-58
7.211229344e-59
4.96010956e-59
3.816532166e-59
3.182527098e-59
2.809471105e-59
2.581174459e-59
2.437974428e-59
2.346852857e-59
2.288454816e-59
2.2509478e-59
2.226887719e-59
2.211507043e-59
2.201723109e-59
2.195535633e-59
2.191647513e-59
2.189220536e-59
2.187715873e-59
2.186789351e-59
2.18622266e-59
2.185878343e-59
2.18567049e-59
2.185545804e-59
2.185471466e-59
2.185427407e-59
2.185401445e-59
2.18538623e-59
2.185377362e-59
2.18537222e-59
2.185369253e-59
2.185367549e-59
2.185366575e-59
2.185366021e-59
2.185365707e-59
2.18536553e-59
2.18536543e-59
2.185365374e-59
2.185365343e-59
2.185365326e-59
2.185365316e-59
2.185365311e-59
2.185365308e-59
2.185365306e-59
2.185365305e-59
2.185365305e-59
2.185365304e-59
2.185365304e-59
2.185365304e-59
2.185365304e-59
2.185365304e-59
2.185365304e-59
2.185365304e-59
3.480512256e-50
2.433808417e-52
4.475715188e-54
1.925686933e-55
1.699644328e-56
2.700387293e-57
6.849825712e-58
2.499739282e-58
1.203528363e-58
7.130198158e-59
4.921862722e-59
3.796543956e-59
3.171315605e-59
2.802875114e-59
2.577171639e-59
2.435498589e-59
2.345305193e-59
2.287482804e-59
2.250336922e-59
2.226504594e-59
2.211267682e-59
2.201574315e-59
2.195443666e-59
2.191591018e-59
2.18918605e-59
2.187694958e-59
2.186776746e-59
2.186215112e-59
2.185873851e-59
2.185667832e-59
2.185544241e-59
2.185470552e-59
2.185426876e-59
2.185401137e-59
2.185386054e-59
2.185377261e-59
2.185372162e-59
2.18536922e-59
2.185367531e-59
2.185366565e-59
2.185366015e-59
2.185365704e-59
2.185365528e-59
2.185365429e-59
2.185365373e-59
2.185365343e-59
2.185365325e-59
2.185365316e-59
2.185365311e-59
2.185365308e-59
2.185365306e-59
2.185365305e-59
2.185365305e-59
2.185365304e-59
2.185365304e-59
2.185365304e-59
2.185365304e-59
2.185365304e-59
2.185365304e-59
2.185365304e-59
2.397271511e-50
1.81680435e-52
3.576524404e-54
1.626800822e-55
1.50048808e-56
2.466371501e-57
6.418727555e-58
2.387310607e-58
1.165394734e-58
6.973074523e-59
4.847306723e-59
3.757434996e-59
3.149322284e-59
2.789912733e-59
2.569295651e-59
2.430622998e-59
2.342255666e-59
2.285566781e-59
2.24913243e-59
2.225749019e-59
2.210795562e-59
2.201280796e-59
2.195262231e-59
2.191479553e-59
2.189118005e-59
2.187653685e-59
2.186751871e-59
2.186200215e-59
2.185864984e-59
2.185662586e-59
2.185541156e-59
2.185468748e-59
2.185425827e-59
2.185400531e-59
2.185385704e-59
2.185377061e-59
2.185372048e-59
2.185369156e-59
2.185367494e-59
2.185366544e-59
2.185366004e-59
2.185365697e-59
2.185365524e-59
2.185365427e-59
2.185365372e-59
2.185365342e-59
2.185365325e-59
2.185365316e-59
2.18536531e-59
2.185365308e-59
2.185365306e-59
2.185365305e-59
2.185365305e-59
2.185365304e-59
2.185365304e-59
2.185365304e-59
2.185365304e-59
2.185365304e-59
2.185365304e-59
2.185365304e-59
1.385282119e-50
1.182371008e-52
2.573304881e-54
1.270241435e-55
1.249908301e-56
2.159537046e-57
5.835564346e-58
2.23165853e-58
1.111699669e-58
6.749121721e-59
4.740116186e-59
3.700864148e-59
3.117373985e-59
2.771027868e-59
2.557798016e-59
2.423495615e-59
2.337793493e-59
2.282761357e-59
2.247368016e-59
2.224641843e-59
2.210103576e-59
2.200850505e-59
2.194996209e-59
2.191316101e-59
2.189018212e-59
2.187593148e-59
2.186715383e-59
2.186178359e-59
2.185851975e-59
2.185654889e-59
2.185536628e-59
2.1854661e-59
2.185424287e-59
2.18539964e-59
2.185385192e-59
2.185376767e-59
2.185371881e-59
2.185369061e-59
2.18536744e-59
2.185366514e-59
2.185365987e-59
2.185365688e-59
2.185365519e-59
2.185365424e-59
2.185365371e-59
2.185365341e-59
2.185365325e-59
2.185365315e-59
2.18536531e-59
2.185365308e-59
2.185365306e-59
2.185365305e-59
2.185365305e-59
2.185365304e-59
2.185365304e-59
2.185365304e-59
2.185365304e-59
2.185365304e-59
2.185365304e-59
2.185365304e-59
6.801616263e-51
6.779124436e-53
1.681049177e-54
9.226704259e-56
9.872074922e-57
1.819240884e-57
5.160689268e-58
2.045749834e-58
1.04607204e-58
6.470823982e-59
4.605335707e-59
3.629140735e-59
3.076633881e-59
2.746849836e-59
2.543037314e-59
2.414328225e-59
2.332046732e-59
2.279145069e-59
2.245092201e-59
2.223213119e-59
2.209210323e-59
2.200294917e-59
2.194652651e-59
2.191104968e-59
2.188889287e-59
2.187514926e-59
2.186668227e-59
2.186150111e-59
2.185835157e-59
2.185644937e-59
2.185530774e-59
2.185462675e-59
2.185422294e-59
2.185398487e-59
2.185384528e-59
2.185376387e-59
2.185371664e-59
2.185368938e-59
2.185367371e-59
2.185366475e-59
2.185365965e-59
2.185365676e-59
2.185365512e-59
2.18536542e-59
2.185365369e-59
2.18536534e-59
2.185365324e-59
2.185365315e-59
2.18536531e-59
2.185365307e-59
2.185365306e-59
2.185365305e-59
2.185365305e-59
2.185365304e-59
2.185365304e-59
2.185365304e-59
2.185365304e-59
2.185365304e-59
2.185365304e-59
2.185365304e-59
2.884261808e-51
3.470526569e-53
1.007750448e-54
6.286061282e-56
7.438773054e-57
1.481211722e-57
4.453960615e-58
1.843294561e-58
9.725331324e-59
6.152506459e-59
4.448906949e-59
3.545038572e-59
3.028519664e-59
2.71815394e-59
2.525458747e-59
2.403385226e-59
2.325175874e-59
2.274816605e-59
2.242366066e-59
2.221500726e-59
2.208139265e-59
2.199628517e-59
2.194240458e-59
2.190851596e-59
2.188734535e-59
2.187421016e-59
2.186611602e-59
2.186116182e-59
2.185814953e-59
2.185632979e-59
2.185523737e-59
2.185458558e-59
2.185419899e-59
2.1853971e-59
2.18538373e-59
2.18537593e-59
2.185371404e-59
2.18536879e-59
2.185367287e-59
2.185366428e-59
2.185365938e-59
2.185365661e-59
2.185365504e-59
2.185365416e-59
2.185365366e-59
2.185365339e-59
2.185365323e-59
2.185365315e-59
2.18536531e-59
2.185365307e-59
2.185365306e-59
2.185365305e-59
2.185365305e-59
2.185365304e-59
2.185365304e-59
2.185365304e-59
2.185365304e-59
2.185365304e-59
2.185365304e-59
2.185365304e-59
1.077156772e-51
1.611850937e-53
5.613800728e-55
4.055665928e-56
5.3862711e-57
1.1717637e-57
3.765794099e-58
1.636935847e-58
8.95036306e-59
5.808921145e-59
4.277161533e-59
3.451589476e-59
2.974610207e-59
2.685815522e-59
2.505569932e-59
2.390970183e-59
2.317366075e-59
2.269890203e-59
2.239260482e-59
2.219548684e-59
2.206917702e-59
2.198868175e-59
2.193770003e-59
2.190562328e-59
2.188557811e-59
2.187313745e-59
2.186546905e-59
2.186077408e-59
2.185791858e-59
2.185619306e-59
2.18551569e-59
2.185453849e-59
2.185417158e-59
2.185395514e-59
2.185382816e-59
2.185375406e-59
2.185371105e-59
2.18536862e-59
2.185367192e-59
2.185366374e-59
2.185365908e-59
2.185365644e-59
2.185365495e-59
2.185365411e-59
2.185365363e-59
2.185365337e-59
2.185365322e-59
2.185365314e-59
2.18536531e-59
2.185365307e-59
2.185365306e-59
2.185365305e-59
2.185365305e-59
2.185365304e-59
2.185365304e-59
2.185365304e-59
2.185365304e-59
2.185365304e-59
2.185365304e-59
2.185365304e-59
3.621855289e-52
6.913634545e-54
2.946868966e-55
2.504550616e-56
3.777696465e-57
9.059215753e-58
3.132282831e-58
1.436998229e-58
8.17100588e-59
5.454010927e-59
4.096347342e-59
3.351880634e-59
2.916550474e-59
2.650761798e-59
2.483914952e-59
2.377411186e-59
2.308818609e-59
2.264490541e-59
2.235853006e-59
2.217405259e-59
2.205575603e-59
2.198032426e-59
2.193252694e-59
2.190244143e-59
2.188363362e-59
2.187195679e-59
2.186475676e-59
2.186034707e-59
2.185766417e-59
2.185604239e-59
2.185506819e-59
2.185448656e-59
2.185414135e-59
2.185393763e-59
2.185381807e-59
2.185374828e-59
2.185370775e-59
2.185368433e-59
2.185367086e-59
2.185366314e-59
2.185365875e-59
2.185365625e-59
2.185365484e-59
2.185365405e-59
2.18536536e-59
2.185365335e-59
2.185365321e-59
2.185365314e-59
2.18536531e-59
2.185365307e-59
2.185365306e-59
2.185365305e-59
2.185365305e-59
2.185365305e-59
2.185365304e-59
2.185365304e-59
2.185365304e-59
2.185365304e-59
2.185365304e-59
2.185365304e-59
1.123003655e-52
2.791587771e-54
1.479545444e-55
1.497228872e-56
2.588007232e-57
6.887026552e-58
2.574382064e-58
1.250904417e-58
7.415790031e-59
5.099992315e-59
3.912239546e-59
3.248876152e-59
2.855963411e-59
2.613925507e-59
2.461048694e-59
2.363046058e-59
2.299742102e-59
2.258747442e-59
2.232224651e-59
2.21512098e-59
2.204144394e-59
2.197140729e-59
2.192700516e-59
2.18990438e-59
2.188155651e-59
2.187069518e-59
2.186399538e-59
2.185989047e-59
2.185739204e-59
2.185588118e-59
2.185497324e-59
2.185443095e-59
2.185410896e-59
2.185391887e-59
2.185380726e-59
2.185374208e-59
2.185370421e-59
2.185368232e-59
2.185366972e-59
2.185366251e-59
2.185365839e-59
2.185365605e-59
2.185365473e-59
2.185365399e-59
2.185365357e-59
2.185365334e-59
2.185365321e-59
2.185365313e-59
2.185365309e-59
2.185365307e-59
2.185365306e-59
2.185365305e-59
2.185365305e-59
2.185365305e-59
2.185365305e-59
2.185365304e-59
2.185365304e-59
2.185365304e-59
2.185365304e-59
2.185365304e-59
3.292135105e-53
1.082294064e-54
7.214101518e-56
8.764638436e-57
1.746632684e-57
5.180299777e-58
2.10001553e-58
1.083180479e-58
6.705650461e-59
4.756811356e-59
3.729864985e-59
3.145276409e-59
2.794375377e-59
2.576203674e-59
2.437513175e-59
2.34820837e-59
2.290344091e-59
2.252790714e-59
2.228456711e-59
2.212746671e-59
2.202655739e-59
2.196212719e-59
2.192125574e-59
2.189550458e-59
2.187939197e-59
2.186937995e-59
2.186320133e-59
2.18594141e-59
2.185710801e-59
2.185571285e-59
2.185487407e-59
2.185437285e-59
2.185407511e-59
2.185389925e-59
2.185379595e-59
2.185373559e-59
2.185370051e-59
2.185368021e-59
2.185366853e-59
2.185366184e-59
2.185365802e-59
2.185365584e-59
2.185365462e-59
2.185365392e-59
2.185365354e-59
2.185365332e-59
2.18536532e-59
2.185365313e-59
2.185365309e-59
2.185365307e-59
2.185365306e-59
2.185365305e-59
2.185365305e-59
2.185365305e-59
2.185365305e-59
2.185365305e-59
2.185365305e-59
2.185365305e-59
2.185365305e-59
2.185365305e-59
9.357515735e-54
4.109117069e-55
3.467912946e-56
5.08128479e-57
1.170979888e-57
3.87865897e-58
1.707596073e-58
9.358616541e-59
6.054130128e-59
4.431951564e-59
3.55334591e-59
3.043421454e-59
2.733159081e-59
2.538423797e-59
2.413817221e-59
2.333215048e-59
2.280823387e-59
2.246745411e-59
2.224627803e-59
2.210331625e-59
2.20114041e-59
2.195267502e-59
2.191539663e-59
2.189189611e-59
2.187718409e-59
2.18680378e-59
2.186239069e-59
2.185892757e-59
2.18568178e-59
2.185554077e-59
2.185477264e-59
2.18543134e-59
2.185404046e-59
2.185387916e-59
2.185378436e-59
2.185372894e-59
2.185369671e-59
2.185367805e-59
2.185366731e-59
2.185366115e-59
2.185365763e-59
2.185365563e-59
2.18536545e-59
2.185365386e-59
2.18536535e-59
2.18536533e-59
2.185365319e-59
2.185365313e-59
2.185365309e-59
2.185365307e-59
2.185365306e-59
2.185365306e-59
2.185365305e-59
2.185365305e-59
2.185365305e-59
2.185365305e-59
2.185365305e-59
2.185365305e-59
2.185365305e-59
2.185365305e-59
2.642954466e-54
1.557049134e-55
1.667362817e-56
2.948865907e-57
7.859883667e-58
2.907199261e-58
1.38969363e-58
8.09090618e-59
5.468344256e-59
4.130522467e-59
3.385851096e-59
2.945237974e-59
2.673495327e-59
2.501318664e-59
2.390420324e-59
2.318356114e-59
2.271363573e-59
2.240727726e-59
2.220811293e-59
2.207921975e-59
2.199627269e-59
2.194323032e-59
2.190953881e-59
2.188828656e-59
2.187497445e-59
2.186669394e-59
2.186157862e-59
2.185843994e-59
2.185652679e-59
2.185536815e-59
2.185467083e-59
2.18542537e-59
2.185400564e-59
2.185385896e-59
2.185377271e-59
2.185372225e-59
2.185369289e-59
2.185367588e-59
2.185366608e-59
2.185366046e-59
2.185365724e-59
2.185365542e-59
2.185365438e-59
2.18536538e-59
2.185365347e-59
2.185365328e-59
2.185365318e-59
2.185365312e-59
2.185365309e-59
2.185365308e-59
2.185365307e-59
2.185365306e-59
2.185365306e-59
2.185365306e-59
2.185365305e-59
2.185365305e-59
2.185365305e-59
2.185365305e-59
2.185365305e-59
2.185365305e-59
7.590797871e-55
5.993194275e-56
8.124741101e-57
1.729903994e-57
5.319808628e-58
2.192620269e-58
1.136087183e-58
7.017394241e-59
4.950321081e-59
3.855536062e-59
3.229631336e-59
2.852224474e-59
2.616352736e-59
2.465510024e-59
2.367721084e-59
2.303886907e-59
2.262127906e-59
2.234841696e-59
2.217073181e-59
2.205559369e-59
2.198142439e-59
2.193395587e-59
2.190378305e-59
2.188473789e-59
2.18728009e-59
2.186537133e-59
2.186077898e-59
2.185795952e-59
2.185623994e-59
2.185519789e-59
2.185457037e-59
2.185419476e-59
2.185397125e-59
2.1853839e-59
2.185376118e-59
2.185371563e-59
2.18536891e-59
2.185367373e-59
2.185366486e-59
2.185365977e-59
2.185365686e-59
2.185365521e-59
2.185365427e-59
2.185365374e-59
2.185365344e-59
2.185365327e-59
2.185365318e-59
2.185365313e-59
2.18536531e-59
2.185365308e-59
2.185365307e-59
2.185365307e-59
2.185365307e-59
2.185365306e-59
2.185365306e-59
2.185365306e-59
2.185365306e-59
2.185365306e-59
2.185365306e-59
2.185365306e-59
2.263689943e-55
2.38037109e-56
4.059549864e-57
1.034652216e-57
3.653313663e-58
1.671412155e-58
9.359194956e-59
6.119496785e-59
4.498409863e-59
3.608280982e-59
3.0861123e-59
2.765466468e-59
2.562483046e-59
2.431500534e-59
2.346050189e-59
2.290022875e-59
2.253255699e-59
2.229176786e-59
2.21347053e-59
2.203279951e-59
2.196708654e-59
2.192499369e-59
2.189821744e-59
2.188130436e-59
2.187069666e-59
2.186409015e-59
2.186000394e-59
2.185749362e-59
2.185596158e-59
2.185503259e-59
2.185447277e-59
2.185413746e-59
2.185393779e-59
2.185381957e-59
2.185374996e-59
2.185370918e-59
2.185368542e-59
2.185367164e-59
2.185366368e-59
2.185365911e-59
2.18536565e-59
2.185365501e-59
2.185365416e-59
2.185365369e-59
2.185365342e-59
2.185365327e-59
2.185365318e-59
2.185365313e-59
2.185365311e-59
2.185365309e-59
2.185365309e-59
2.185365308e-59
2.185365308e-59
2.185365308e-59
2.185365308e-59
2.185365308e-59
2.185365308e-59
2.185365308e-59
2.185365308e-59
2.185365308e-59
7.136979349e-56
9.887373665e-57
2.100439094e-57
6.354511315e-58
2.558769954e-58
1.292522074e-58
7.78996494e-59
5.375450951e-59
4.108553512e-59
3.388721441e-59
2.956019124e-59
2.685672612e-59
2.512428783e-59
2.399672892e-59
2.325667599e-59
2.276936861e-59
2.244860224e-59
2.2238064e-59
2.210050455e-59
2.201113702e-59
2.19534484e-59
2.191646231e-59
2.189291567e-59
2.187803146e-59
2.186868959e-59
2.186286738e-59
2.185926378e-59
2.18570484e-59
2.185569542e-59
2.185487442e-59
2.185437933e-59
2.185408257e-59
2.185390573e-59
2.185380094e-59
2.185373919e-59
2.1853703e-59
2.185368189e-59
2.185366963e-59
2.185366255e-59
2.185365848e-59
2.185365615e-59
2.185365483e-59
2.185365407e-59
2.185365364e-59
2.18536534e-59
2.185365327e-59
2.185365319e-59
2.185365315e-59
2.185365313e-59
2.185365311e-59
2.185365311e-59
2.18536531e-59
2.18536531e-59
2.18536531e-59
2.18536531e-59
2.18536531e-59
2.18536531e-59
2.18536531e-59
2.18536531e-59
2.18536531e-59
2.414303651e-56
4.341624076e-57
1.134237979e-57
4.030268389e-58
1.835196102e-58
1.016891326e-58
6.564243952e-59
4.763129951e-59
3.775324161e-59
3.195870906e-59
2.839511772e-59
2.613223284e-59
2.466539868e-59
2.370294733e-59
2.306763344e-59
2.264758643e-59
2.237028005e-59
2.218787258e-59
2.206849658e-59
2.199084116e-59
2.194065893e-59
2.190845538e-59
2.188793616e-59
2.187495536e-59
2.186680192e-59
2.186171659e-59
2.185856672e-59
2.185662883e-59
2.185544443e-59
2.185472517e-59
2.18542911e-59
2.185403071e-59
2.185387542e-59
2.185378333e-59
2.185372901e-59
2.185369715e-59
2.185367855e-59
2.185366774e-59
2.18536615e-59
2.18536579e-59
2.185365584e-59
2.185365467e-59
2.1853654e-59
2.185365362e-59
2.185365341e-59
2.185365329e-59
2.185365322e-59
2.185365318e-59
2.185365316e-59
2.185365315e-59
2.185365314e-59
2.185365314e-59
2.185365314e-59
2.185365314e-59
2.185365314e-59
2.185365314e-59
2.185365314e-59
2.185365314e-59
2.185365314e-59
2.185365314e-59
8.861773908e-57
2.031634472e-57
6.429074315e-58
2.650458413e-58
1.351755191e-58
8.156106927e-59
5.608062608e-59
4.261745211e-59
3.492696084e-59
3.028112388e-59
2.736316217e-59
2.548224567e-59
2.424995928e-59
2.343527831e-59
2.28946127e-59
2.253576423e-59
2.229819377e-59
2.214159586e-59
2.203894471e-59
2.197208191e-59
2.192882661e-59
2.190104147e-59
2.188332187e-59
2.187210276e-59
2.186505014e-59
2.186064787e-59
2.185791891e-59
2.185623863e-59
2.185521084e-59
2.185458618e-59
2.185420887e-59
2.185398235e-59
2.185384714e-59
2.185376689e-59
2.185371952e-59
2.18536917e-59
2.185367545e-59
2.1853666e-59
2.185366053e-59
2.185365738e-59
2.185365557e-59
2.185365454e-59
2.185365395e-59
2.185365362e-59
2.185365343e-59
2.185365333e-59
2.185365327e-59
2.185365324e-59
2.185365322e-59
2.185365321e-59
2.18536532e-59
2.18536532e-59
2.18536532e-59
2.18536532e-59
2.18536532e-59
2.18536532e-59
2.185365319e-59
2.185365319e-59
2.185365319e-59
2.185365319e-59
3.556314714e-57
1.018473944e-57
3.839143966e-58
1.811980552e-58
1.024365233e-58
6.677402853e-59
4.861849662e-59
3.852715743e-59
3.254577403e-59
2.88345466e-59
2.645842241e-59
2.490562402e-59
2.387831588e-59
2.319440194e-59
2.273825e-59
2.243439847e-59
2.223270075e-59
2.20994797e-59
2.201201335e-59
2.195496704e-59
2.191802106e-59
2.189426501e-59
2.187910087e-59
2.186949125e-59
2.186344518e-59
2.185966798e-59
2.18573245e-59
2.185588032e-59
2.185499619e-59
2.185445836e-59
2.185413322e-59
2.185393783e-59
2.185382111e-59
2.185375176e-59
2.185371078e-59
2.18536867e-59
2.185367262e-59
2.185366442e-59
2.185365967e-59
2.185365694e-59
2.185365536e-59
2.185365447e-59
2.185365395e-59
2.185365366e-59
2.18536535e-59
2.185365341e-59
2.185365336e-59
2.185365333e-59
2.185365331e-59
2.18536533e-59
2.18536533e-59
2.185365329e-59
2.185365329e-59
2.185365329e-59
2.185365329e-59
2.185365329e-59
2.185365329e-59
2.185365329e-59
2.185365329e-59
2.185365329e-59
1.566781413e-57
5.484206537e-58
2.419416329e-58
1.289217559e-58
7.99254158e-59
5.583093753e-59
4.278652275e-59
3.519975846e-59
3.055144465e-59
2.759725442e-59
2.567283468e-59
2.439953409e-59
2.354962605e-59
2.29801984e-59
2.259865398e-59
2.234364181e-59
2.217393623e-59
2.206162762e-59
2.198777632e-59
2.193954709e-59
2.190827596e-59
2.188814805e-59
2.187528741e-59
2.186712992e-59
2.18619928e-59
2.185878053e-59
2.185678574e-59
2.185555531e-59
2.185480134e-59
2.185434226e-59
2.185406446e-59
2.185389737e-59
2.185379744e-59
2.185373802e-59
2.185370288e-59
2.18536822e-59
2.185367009e-59
2.185366304e-59
2.185365895e-59
2.185365659e-59
2.185365524e-59
2.185365446e-59
2.185365402e-59
2.185365377e-59
2.185365362e-59
2.185365354e-59
2.18536535e-59
2.185365347e-59
2.185365346e-59
2.185365345e-59
2.185365345e-59
2.185365344e-59
2.185365344e-59
2.185365344e-59
2.185365344e-59
2.185365344e-59
2.185365344e-59
2.185365344e-59
2.185365344e-59
2.185365344e-59
7.584453199e-58
3.172870013e-58
1.609051327e-58
9.545220909e-59
6.419878351e-59
4.766843173e-59
3.821970386e-59
3.249941318e-59
2.88902826e-59
2.654709318e-59
2.499698655e-59
2.395990424e-59
2.326211297e-59
2.279189209e-59
2.247548916e-59
2.226335239e-59
2.212184294e-59
2.202801867e-59
2.196622778e-59
2.192582205e-59
2.189959321e-59
2.18826928e-59
2.187188342e-59
2.186502032e-59
2.186069414e-59
2.185798635e-59
2.18563032e-59
2.1855264e-59
2.185462658e-59
2.185423807e-59
2.185400275e-59
2.185386105e-59
2.185377623e-59
2.185372574e-59
2.185369584e-59
2.185367823e-59
2.185366791e-59
2.18536619e-59
2.18536584e-59
2.185365638e-59
2.185365522e-59
2.185365456e-59
2.185365418e-59
2.185365396e-59
2.185365384e-59
2.185365377e-59
2.185365373e-59
2.185365371e-59
2.18536537e-59
2.185365369e-59
2.185365369e-59
2.185365368e-59
2.185365368e-59
2.185365368e-59
2.185365368e-59
2.185365368e-59
2.185365368e-59
2.185365368e-59
2.185365368e-59
2.185365368e-59
4.026307403e-58
1.968751686e-58
1.127615095e-58
7.345412036e-59
5.30380408e-59
4.153227992e-59
3.463653002e-59
3.031293515e-59
2.75139797e-59
2.566240837e-59
2.442075442e-59
2.358181838e-59
2.301330239e-59
2.262819444e-59
2.236806268e-59
2.219314692e-59
2.207620386e-59
2.199852781e-59
2.194729482e-59
2.191374917e-59
2.189194771e-59
2.187788455e-59
2.186888035e-59
2.186315749e-59
2.185954638e-59
2.185728386e-59
2.185587604e-59
2.185500594e-59
2.185447167e-59
2.18541457e-59
2.185394804e-59
2.18538289e-59
2.18537575e-59
2.185371495e-59
2.185368972e-59
2.185367485e-59
2.185366613e-59
2.185366103e-59
2.185365807e-59
2.185365636e-59
2.185365537e-59
2.185365481e-59
2.185365448e-59
2.18536543e-59
2.185365419e-59
2.185365414e-59
2.18536541e-59
2.185365408e-59
2.185365407e-59
2.185365407e-59
2.185365406e-59
2.185365406e-59
2.185365406e-59
2.185365406e-59
2.185365406e-59
2.185365406e-59
2.185365406e-59
2.185365406e-59
2.185365406e-59
2.185365406e-59
2.334066663e-58
1.305669821e-58
8.304509324e-59
5.863130106e-59
4.499974436e-59
3.68861272e-59
3.182059752e-59
2.854686391e-59
2.637978265e-59
2.49226354e-59
2.393378844e-59
2.325984672e-59
2.280023597e-59
2.248743915e-59
2.227540967e-59
2.213245462e-59
2.203667616e-59
2.197294722e-59
2.19308509e-59
2.190325134e-59
2.188529258e-59
2.187369494e-59
2.186626113e-59
2.186153126e-59
2.185854351e-59
2.185666953e-59
2.185550221e-59
2.185477996e-59
2.185433599e-59
2.185406481e-59
2.185390019e-59
2.185380085e-59
2.185374124e-59
2.185370568e-59
2.185368458e-59
2.185367212e-59
2.18536648e-59
2.185366052e-59
2.185365803e-59
2.185365659e-59
2.185365576e-59
2.185365528e-59
2.185365501e-59
2.185365485e-59
2.185365476e-59
2.185365471e-59
2.185365469e-59
2.185365467e-59
2.185365466e-59
2.185365466e-59
2.185365465e-59
2.185365465e-59
2.185365465e-59
2.185365465e-59
2.185365465e-59
2.185365465e-59
2.185365465e-59
2.185365465e-59
2.185365465e-59
2.185365465e-59
1.468703697e-58
9.211669686e-59
6.404310057e-59
4.841320452e-59
3.913295468e-59
3.334634964e-59
2.960549384e-59
2.712439924e-59
2.545027657e-59
2.430864387e-59
2.35258716e-59
2.298831691e-59
2.261965775e-59
2.236770579e-59
2.219637377e-59
2.208056911e-59
2.200282456e-59
2.19510075e-59
2.19167292e-59
2.189422547e-59
2.187956438e-59
2.187008514e-59
2.186400218e-59
2.18601274e-59
2.185767701e-59
2.185613833e-59
2.185517878e-59
2.18545844e-59
2.18542186e-59
2.185399491e-59
2.185385895e-59
2.185377681e-59
2.185372746e-59
2.185369799e-59
2.185368047e-59
2.185367012e-59
2.185366403e-59
2.185366047e-59
2.185365839e-59
2.185365719e-59
2.185365649e-59
2.185365609e-59
2.185365586e-59
2.185365573e-59
2.185365566e-59
2.185365561e-59
2.185365559e-59
2.185365558e-59
2.185365557e-59
2.185365557e-59
2.185365556e-59
2.185365556e-59
2.185365556e-59
2.185365556e-59
2.185365556e-59
2.185365556e-59
2.185365556e-59
2.185365556e-59
2.185365556e-59
2.185365556e-59
9.959360474e-59
6.875344146e-59
5.150141908e-59
4.122624313e-59
3.480200836e-59
3.06362831e-59
2.786284266e-59
2.598254219e-59
2.469296809e-59
2.380291255e-59
2.318717823e-59
2.276153127e-59
2.246817267e-59
2.226692904e-59
2.21296802e-59
2.203669646e-59
2.197415236e-59
2.193239768e-59
2.190473538e-59
2.188655058e-59
2.187468818e-59
2.186700905e-59
2.186207531e-59
2.185892883e-59
2.185693665e-59
2.18556842e-59
2.18549022e-59
2.185441721e-59
2.185411838e-59
2.185393541e-59
2.185382406e-59
2.18537567e-59
2.185371618e-59
2.185369195e-59
2.185367753e-59
2.1853669e-59
2.185366397e-59
2.185366103e-59
2.185365931e-59
2.185365831e-59
2.185365773e-59
2.18536574e-59
2.185365721e-59
2.18536571e-59
2.185365704e-59
2.185365701e-59
2.185365699e-59
2.185365697e-59
2.185365697e-59
2.185365696e-59
2.185365696e-59
2.185365696e-59
2.185365696e-59
2.185365696e-59
2.185365696e-59
2.185365696e-59
2.185365696e-59
2.185365696e-59
2.185365696e-59
2.185365696e-59
7.220366025e-59
5.396115998e-59
4.299267603e-59
3.608401492e-59
3.157511105e-59
2.855435729e-59
2.649308872e-59
2.506959813e-59
2.407979026e-59
2.338959295e-59
2.290845412e-59
2.257393626e-59
2.234237727e-59
2.218299176e-59
2.207399949e-59
2.199999768e-59
2.195012945e-59
2.191678328e-59
2.189465914e-59
2.188009511e-59
2.18705822e-59
2.186441617e-59
2.186044961e-59
2.185791678e-59
2.185631113e-59
2.185530042e-59
2.185466856e-59
2.185427619e-59
2.185403411e-59
2.185388569e-59
2.185379526e-59
2.185374047e-59
2.185370748e-59
2.185368772e-59
2.185367595e-59
2.185366897e-59
2.185366485e-59
2.185366244e-59
2.185366103e-59
2.185366021e-59
2.185365973e-59
2.185365946e-59
2.18536593e-59
2.185365921e-59
2.185365916e-59
2.185365913e-59
2.185365911e-59
2.18536591e-59
2.18536591e-59
2.185365909e-59
2.185365909e-59
2.185365909e-59
2.185365909e-59
2.185365909e-59
2.185365909e-59
2.185365909e-59
2.185365909e-59
2.185365909e-59
2.185365909e-59
2.185365909e-59
5.550844728e-59
4.425990117e-59
3.708481665e-59
3.235309948e-59
2.915389298e-59
2.695201005e-59
2.541851769e-59
2.434308462e-59
2.358660151e-59
2.305450195e-59
2.268113566e-59
2.242025028e-59
2.22389638e-59
2.21138016e-59
2.202800087e-59
2.196962489e-59
2.193021619e-59
2.190382193e-59
2.188628429e-59
2.187472335e-59
2.186716181e-59
2.186225412e-59
2.185909292e-59
2.185707172e-59
2.185578873e-59
2.185498006e-59
2.185447384e-59
2.185415907e-59
2.18539646e-59
2.185384522e-59
2.185377237e-59
2.185372818e-59
2.185370153e-59
2.185368555e-59
2.185367601e-59
2.185367035e-59
2.185366701e-59
2.185366504e-59
2.185366389e-59
2.185366322e-59
2.185366283e-59
2.185366261e-59
2.185366248e-59
2.185366241e-59
2.185366237e-59
2.185366234e-59
2.185366233e-59
2.185366232e-59
2.185366232e-59
2.185366231e-59
2.185366231e-59
2.185366231e-59
2.185366231e-59
2.185366231e-59
2.185366231e-59
2.185366231e-59
2.185366231e-59
2.185366231e-59
2.185366231e-59
2.185366231e-59
4.488706367e-59
3.77086558e-59
3.290507323e-59
2.961679009e-59
2.73285018e-59
2.571839836e-59
2.457802988e-59
2.376802532e-59
2.319271636e-59
2.278507068e-59
2.249742175e-59
2.229555532e-59
2.215479941e-59
2.205735106e-59
2.19903951e-59
2.194475067e-59
2.191388304e-59
2.189317626e-59
2.18793971e-59
2.187030079e-59
2.186434297e-59
2.186047086e-59
2.18579733e-59
2.185637424e-59
2.185535782e-59
2.18547163e-59
2.185431415e-59
2.185406374e-59
2.185390882e-59
2.185381358e-59
2.185375538e-59
2.185372003e-59
2.185369867e-59
2.185368585e-59
2.185367818e-59
2.185367363e-59
2.185367093e-59
2.185366935e-59
2.185366842e-59
2.185366788e-59
2.185366756e-59
2.185366738e-59
2.185366727e-59
2.185366721e-59
2.185366718e-59
2.185366716e-59
2.185366715e-59
2.185366714e-59
2.185366714e-59
2.185366714e-59
2.185366713e-59
2.185366713e-59
2.185366713e-59
2.185366713e-59
2.185366713e-59
2.185366713e-59
2.185366713e-59
2.185366713e-59
2.185366713e-59
2.185366713e-59
3.788858749e-59
3.317939495e-59
2.990455916e-59
2.759431954e-59
2.594869968e-59
2.476980079e-59
2.392325409e-59
2.331558148e-59
2.288048327e-59
2.257026661e-59
2.23503085e-59
2.219535757e-59
2.208698277e-59
2.201176208e-59
2.195996683e-59
2.192459056e-59
2.19006258e-59
2.188452397e-59
2.187379289e-59
2.186669837e-59
2.186204498e-59
2.185901634e-59
2.185706006e-59
2.185580578e-59
2.185500737e-59
2.185450273e-59
2.185418593e-59
2.185398838e-59
2.185386598e-59
2.185379061e-59
2.185374449e-59
2.185371644e-59
2.185369946e-59
2.185368925e-59
2.185368314e-59
2.18536795e-59
2.185367735e-59
2.185367608e-59
2.185367533e-59
2.18536749e-59
2.185367464e-59
2.18536745e-59
2.185367441e-59
2.185367436e-59
2.185367434e-59
2.185367432e-59
2.185367431e-59
2.185367431e-59
2.18536743e-59
2.18536743e-59
2.18536743e-59
2.18536743e-59
2.18536743e-59
2.18536743e-59
2.18536743e-59
2.18536743e-59
2.18536743e-59
2.18536743e-59
2.18536743e-59
2.18536743e-59
3.314697801e-59
2.999069939e-59
2.772751627e-59
2.609207455e-59
2.49050646e-59
2.404224659e-59
2.341566517e-59
2.296196297e-59
2.263491177e-59
2.240049889e-59
2.223359453e-59
2.21156216e-59
2.203288043e-59
2.197531623e-59
2.193559735e-59
2.190841916e-59
2.188997662e-59
2.187756524e-59
2.186928087e-59
2.186379566e-59
2.186019249e-59
2.185784392e-59
2.185632468e-59
2.185534917e-59
2.185472729e-59
2.185433363e-59
2.185408614e-59
2.185393156e-59
2.185383565e-59
2.18537765e-59
2.185374025e-59
2.185371816e-59
2.185370478e-59
2.185369671e-59
2.185369188e-59
2.185368899e-59
2.185368728e-59
2.185368627e-59
2.185368568e-59
2.185368533e-59
2.185368513e-59
2.185368501e-59
2.185368495e-59
2.185368491e-59
2.185368488e-59
2.185368487e-59
2.185368486e-59
2.185368486e-59
2.185368486e-59
2.185368486e-59
2.185368485e-59
2.185368485e-59
2.185368485e-59
2.185368485e-59
2.185368485e-59
2.185368485e-59
2.185368485e-59
2.185368485e-59
2.185368485e-59
2.185368485e-59
2.986521325e-59
2.771572859e-59
2.613668107e-59
2.497357998e-59
2.411662428e-59
2.348635938e-59
2.302444162e-59
2.268756127e-59
2.244334434e-59
2.226751309e-59
2.214186292e-59
2.205278236e-59
2.199014598e-59
2.194647251e-59
2.191627854e-59
2.189558044e-59
2.188151125e-59
2.187202763e-59
2.186568749e-59
2.186148307e-59
2.1858717e-59
2.18569113e-59
2.185574144e-59
2.185498911e-59
2.185450877e-59
2.185420423e-59
2.185401247e-59
2.185389251e-59
2.185381796e-59
2.185377191e-59
2.185374364e-59
2.185372639e-59
2.185371592e-59
2.18537096e-59
2.18537058e-59
2.185370354e-59
2.185370219e-59
2.185370139e-59
2.185370092e-59
2.185370065e-59
2.185370049e-59
2.185370039e-59
2.185370034e-59
2.185370031e-59
2.185370029e-59
2.185370028e-59
2.185370028e-59
2.185370027e-59
2.185370027e-59
2.185370027e-59
2.185370027e-59
2.185370027e-59
2.185370027e-59
2.185370027e-59
2.185370027e-59
2.185370027e-59
2.185370027e-59
2.185370027e-59
2.185370027e-59
2.185370027e-59
2.755825358e-59
2.607793807e-59
2.496956376e-59
2.414069069e-59
2.35226198e-59
2.306371864e-59
2.272486174e-59
2.247625399e-59
2.229516601e-59
2.216427893e-59
2.207044488e-59
2.20037392e-59
2.19567246e-59
2.192387443e-59
2.190111954e-59
2.188549296e-59
2.187485289e-59
2.186766889e-59
2.186285835e-59
2.18596632e-59
2.185755778e-59
2.185618117e-59
2.185528789e-59
2.185471251e-59
2.185434456e-59
2.18541109e-59
2.185396353e-59
2.185387119e-59
2.185381371e-59
2.185377815e-59
2.185375628e-59
2.185374291e-59
2.185373478e-59
2.185372986e-59
2.185372691e-59
2.185372514e-59
2.185372409e-59
2.185372346e-59
2.18537231e-59
2.185372288e-59
2.185372275e-59
2.185372268e-59
2.185372264e-59
2.185372261e-59
2.18537226e-59