/*--------------------------------*- C++ -*----------------------------------*\
  =========                 |
  \\      /  F ield         | OpenFOAM: The Open Source CFD Toolbox
   \\    /   O peration     | Website:  https://openfoam.org
    \\  /    A nd           | Version:  10
     \\/     M anipulation  |
\*---------------------------------------------------------------------------*/
FoamFile
{
    format      ascii;
    class       volVectorField;
    location    "0.0001";
    object      U;
}
// * * * * * * * * * * * * * * * * * * * * * * * * * * * * * * * * * * * * * //

dimensions      [0 1 -1 0 0 0 0];

internalField   nonuniform List<vector> 
3600
(
(0 -5.750140181e-11 -3.485041501e-12)
(0 -5.105306798e-11 -2.964441868e-12)
(0 -4.555177611e-11 -2.537900241e-12)
(0 -4.082861751e-11 -2.186243804e-12)
(0 -3.674879563e-11 -1.894505254e-12)
(0 -3.320419678e-11 -1.650968288e-12)
(0 -3.010762703e-11 -1.446428095e-12)
(0 -2.738836097e-11 -1.273620808e-12)
(0 -2.498869857e-11 -1.126784902e-12)
(0 -2.286129502e-11 -1.001326285e-12)
(0 -2.096708131e-11 -8.935627511e-13)
(0 -1.927363683e-11 -8.005277972e-13)
(0 -1.775390994e-11 -7.198188588e-13)
(0 -1.638520794e-11 -6.494795396e-13)
(0 -1.514839582e-11 -5.879082556e-13)
(0 -1.402725767e-11 -5.33787189e-13)
(0 -1.300798481e-11 -4.860266706e-13)
(0 -1.207876315e-11 -4.43721378e-13)
(0 -1.122943904e-11 -4.061156922e-13)
(0 -1.045124746e-11 -3.725761429e-13)
(0 -9.736590245e-12 -3.425693201e-13)
(0 -9.078854086e-12 -3.1564407e-13)
(0 -8.472260457e-12 -2.914171383e-13)
(0 -7.911741123e-12 -2.695616062e-13)
(0 -7.392834504e-12 -2.497975447e-13)
(0 -6.911599151e-12 -2.318843988e-13)
(0 -6.46454128e-12 -2.156147277e-13)
(0 -6.048553832e-12 -2.008090408e-13)
(0 -5.660864959e-12 -1.873115301e-13)
(0 -5.298994275e-12 -1.749865305e-13)
(0 -4.960715576e-12 -1.637155641e-13)
(0 -4.64402498e-12 -1.533948571e-13)
(0 -4.347113625e-12 -1.439332533e-13)
(0 -4.068344192e-12 -1.352504634e-13)
(0 -3.8062306e-12 -1.27275597e-13)
(0 -3.559420384e-12 -1.199459246e-13)
(0 -3.32667935e-12 -1.132058271e-13)
(0 -3.106878197e-12 -1.070059001e-13)
(0 -2.898980855e-12 -1.013021953e-13)
(0 -2.702034313e-12 -9.605557572e-14)
(0 -2.515159701e-12 -9.123116565e-14)
(0 -2.337544439e-12 -8.679787231e-14)
(0 -2.168435238e-12 -8.272796364e-14)
(0 -2.007131846e-12 -7.899669668e-14)
(0 -1.85298141e-12 -7.558199906e-14)
(0 -1.705373414e-12 -7.246420835e-14)
(0 -1.563735143e-12 -6.962586991e-14)
(0 -1.427527633e-12 -6.705158771e-14)
(0 -1.296242065e-12 -6.472791835e-14)
(0 -1.169396539e-12 -6.26432998e-14)
(0 -1.046533162e-12 -6.078801191e-14)
(0 -9.272153993e-13 -5.915417309e-14)
(0 -8.110256278e-13 -5.773578494e-14)
(0 -6.975628679e-13 -5.652885156e-14)
(0 -5.864406143e-13 -5.553166352e-14)
(0 -4.772844422e-13 -5.474559408e-14)
(0 -3.697280476e-13 -5.417758713e-14)
(0 -2.634026971e-13 -5.384763598e-14)
(0 -1.579018145e-13 -5.380832486e-14)
(0 -5.265129196e-14 -5.418487285e-14)
(0 -5.634160494e-11 -1.03353834e-11)
(0 -5.010596689e-11 -8.798252009e-12)
(0 -4.477361372e-11 -7.537875596e-12)
(0 -4.018525371e-11 -6.497938785e-12)
(0 -3.621354864e-11 -5.634495301e-12)
(0 -3.275614677e-11 -4.913142186e-12)
(0 -2.973030462e-11 -4.306836903e-12)
(0 -2.706873964e-11 -3.794222584e-12)
(0 -2.471642307e-11 -3.358348013e-12)
(0 -2.262809057e-11 -2.985689037e-12)
(0 -2.076630017e-11 -2.665398255e-12)
(0 -1.909990951e-11 -2.388728312e-12)
(0 -1.760287642e-11 -2.148587637e-12)
(0 -1.625330962e-11 -1.939197019e-12)
(0 -1.50327136e-11 -1.755822733e-12)
(0 -1.392538494e-11 -1.594567877e-12)
(0 -1.29179274e-11 -1.452208451e-12)
(0 -1.199886057e-11 -1.326064154e-12)
(0 -1.115830218e-11 -1.213896226e-12)
(0 -1.038770919e-11 -1.113826281e-12)
(0 -9.679665705e-12 -1.02427141e-12)
(0 -9.027708694e-12 -9.438920098e-13)
(0 -8.426184021e-12 -8.715496892e-13)
(0 -7.870126882e-12 -8.062731669e-13)
(0 -7.355162092e-12 -7.472305459e-13)
(0 -6.877420673e-12 -6.937066697e-13)
(0 -6.433469883e-12 -6.45084561e-13)
(0 -6.02025427e-12 -6.008301506e-13)
(0 -5.635045787e-12 -5.60479651e-13)
(0 -5.275401353e-12 -5.236290589e-13)
(0 -4.939126632e-12 -4.899253874e-13)
(0 -4.624245051e-12 -4.590593239e-13)
(0 -4.328971238e-12 -4.307590788e-13)
(0 -4.051688139e-12 -4.04785219e-13)
(0 -3.790927224e-12 -3.809263092e-13)
(0 -3.545351273e-12 -3.589952131e-13)
(0 -3.313739376e-12 -3.388259459e-13)
(0 -3.094973854e-12 -3.20270996e-13)
(0 -2.888028848e-12 -3.031990514e-13)
(0 -2.69196035e-12 -2.874930639e-13)
(0 -2.505897446e-12 -2.730485833e-13)
(0 -2.329034571e-12 -2.597723037e-13)
(0 -2.160624614e-12 -2.4758078e-13)
(0 -1.999972752e-12 -2.363992962e-13)
(0 -1.846430908e-12 -2.261608784e-13)
(0 -1.699392776e-12 -2.168054477e-13)
(0 -1.558289365e-12 -2.082790999e-13)
(0 -1.422584997e-12 -2.005334871e-13)
(0 -1.291773717e-12 -1.935252711e-13)
(0 -1.165376048e-12 -1.872156183e-13)
(0 -1.042936044e-12 -1.815697142e-13)
(0 -9.240185671e-13 -1.765562806e-13)
(0 -8.082067617e-13 -1.721470643e-13)
(0 -6.950997928e-13 -1.683162082e-13)
(0 -5.843112984e-13 -1.650392742e-13)
(0 -4.754702635e-13 -1.622916328e-13)
(0 -3.682290173e-13 -1.600470636e-13)
(0 -2.622873073e-13 -1.582839769e-13)
(0 -1.574354556e-13 -1.570299997e-13)
(0 -5.263152607e-14 -1.56534102e-13)
(0 -5.407809421e-11 -1.683665559e-11)
(0 -4.825556018e-11 -1.435528134e-11)
(0 -4.325146289e-11 -1.23173844e-11)
(0 -3.892523721e-11 -1.063311242e-11)
(0 -3.516399903e-11 -9.232365984e-12)
(0 -3.187653838e-11 -8.060237925e-12)
(0 -2.898870743e-11 -7.073522024e-12)
(0 -2.643987208e-11 -6.238049823e-12)
(0 -2.418016502e-11 -5.526660242e-12)
(0 -2.216834526e-11 -4.91764837e-12)
(0 -2.037012059e-11 -4.393576605e-12)
(0 -1.875682621e-11 -3.940360704e-12)
(0 -1.730437865e-11 -3.546564771e-12)
(0 -1.599244303e-11 -3.202855016e-12)
(0 -1.480376667e-11 -2.901574455e-12)
(0 -1.372364339e-11 -2.636410237e-12)
(0 -1.273948108e-11 -2.40213232e-12)
(0 -1.184045092e-11 -2.194387215e-12)
(0 -1.101720116e-11 -2.009534347e-12)
(0 -1.026162265e-11 -1.844515609e-12)
(0 -9.566655974e-12 -1.696750958e-12)
(0 -8.926132366e-12 -1.564054531e-12)
(0 -8.334641614e-12 -1.444566921e-12)
(0 -7.787421979e-12 -1.336700209e-12)
(0 -7.280268007e-12 -1.23909316e-12)
(0 -6.809453166e-12 -1.150574572e-12)
(0 -6.371664761e-12 -1.070133228e-12)
(0 -5.963948922e-12 -9.968931446e-13)
(0 -5.583663867e-12 -9.300930686e-13)
(0 -5.228440012e-12 -8.690694083e-13)
(0 -4.896145841e-12 -8.132419692e-13)
(0 -4.584858671e-12 -7.621020224e-13)
(0 -4.29283952e-12 -7.152023077e-13)
(0 -4.018511422e-12 -6.721486266e-13)
(0 -3.760440594e-12 -6.325927333e-13)
(0 -3.517320021e-12 -5.962262924e-13)
(0 -3.287955133e-12 -5.627757325e-13)
(0 -3.071251302e-12 -5.319978642e-13)
(0 -2.866202923e-12 -5.036761513e-13)
(0 -2.671883845e-12 -4.776175263e-13)
(0 -2.487438941e-12 -4.536496517e-13)
(0 -2.312076636e-12 -4.316185434e-13)
(0 -2.145062231e-12 -4.113864978e-13)
(0 -1.985711945e-12 -3.928302865e-13)
(0 -1.833387562e-12 -3.758395948e-13)
(0 -1.687491636e-12 -3.60315683e-13)
(0 -1.547463183e-12 -3.461702428e-13)
(0 -1.412773804e-12 -3.333244194e-13)
(0 -1.282924196e-12 -3.217079649e-13)
(0 -1.157440982e-12 -3.112584989e-13)
(0 -1.035873824e-12 -3.019208605e-13)
(0 -9.177927494e-13 -2.936465552e-13)
(0 -8.027855555e-13 -2.863933188e-13)
(0 -6.904550777e-13 -2.801248002e-13)
(0 -5.804160388e-13 -2.748101191e-13)
(0 -4.722922316e-13 -2.704221128e-13)
(0 -3.657203917e-13 -2.669309359e-13)
(0 -2.603856332e-13 -2.642886402e-13)
(0 -1.561519395e-13 -2.624167158e-13)
(0 -5.215539424e-14 -2.613000082e-13)
(0 -5.081985179e-11 -2.277892628e-11)
(0 -4.55866957e-11 -1.946883443e-11)
(0 -4.10514448e-11 -1.674326866e-11)
(0 -3.71002353e-11 -1.44847602e-11)
(0 -3.364067414e-11 -1.26016191e-11)
(0 -3.05973028e-11 -1.102192328e-11)
(0 -2.790811651e-11 -9.68896496e-12)
(0 -2.552187786e-11 -8.557795457e-12)
(0 -2.339602162e-11 -7.592595871e-12)
(0 -2.149500693e-11 -6.76466916e-12)
(0 -1.97890125e-11 -6.050901013e-12)
(0 -1.825289768e-11 -5.432575255e-12)
(0 -1.686537073e-11 -4.894457965e-12)
(0 -1.560831931e-11 -4.42408597e-12)
(0 -1.446626882e-11 -4.011211614e-12)
(0 -1.34259428e-11 -3.647367629e-12)
(0 -1.247590438e-11 -3.325524508e-12)
(0 -1.160626259e-11 -3.039819307e-12)
(0 -1.080843058e-11 -2.785339901e-12)
(0 -1.00749258e-11 -2.557952644e-12)
(0 -9.399204627e-12 -2.354164191e-12)
(0 -8.775524657e-12 -2.17101021e-12)
(0 -8.1988297e-12 -2.005965294e-12)
(0 -7.664653122e-12 -1.856869674e-12)
(0 -7.169036454e-12 -1.721869371e-12)
(0 -6.708460742e-12 -1.599367206e-12)
(0 -6.279788455e-12 -1.487982539e-12)
(0 -5.88021411e-12 -1.386518021e-12)
(0 -5.507222051e-12 -1.293931999e-12)
(0 -5.158550254e-12 -1.209315502e-12)
(0 -4.832159246e-12 -1.131873008e-12)
(0 -4.526205389e-12 -1.060906356e-12)
(0 -4.239017842e-12 -9.958012385e-13)
(0 -3.969078564e-12 -9.360158159e-13)
(0 -3.71500489e-12 -8.810710626e-13)
(0 -3.475534272e-12 -8.305425557e-13)
(0 -3.249510948e-12 -7.840534784e-13)
(0 -3.035874272e-12 -7.412686608e-13)
(0 -2.83364851e-12 -7.018894978e-13)
(0 -2.641933851e-12 -6.656495969e-13)
(0 -2.459898464e-12 -6.323110284e-13)
(0 -2.286771417e-12 -6.016610732e-13)
(0 -2.121836357e-12 -5.73509397e-13)
(0 -1.964425849e-12 -5.476855966e-13)
(0 -1.813916304e-12 -5.240370789e-13)
(0 -1.669723424e-12 -5.024272347e-13)
(0 -1.531298102e-12 -4.827338653e-13)
(0 -1.39812272e-12 -4.648478248e-13)
(0 -1.269707796e-12 -4.486718381e-13)
(0 -1.145588943e-12 -4.341194662e-13)
(0 -1.0253241e-12 -4.211141939e-13)
(0 -9.084910254e-13 -4.095886302e-13)
(0 -7.946850067e-13 -3.994838565e-13)
(0 -6.835165932e-13 -3.907490731e-13)
(0 -5.746086111e-13 -3.833418711e-13)
(0 -4.675910803e-13 -3.772292106e-13)
(0 -3.620955447e-13 -3.723867821e-13)
(0 -2.577730871e-13 -3.687869999e-13)
(0 -1.544468236e-13 -3.663597912e-13)
(0 -5.151481847e-14 -3.649702673e-13)
(0 -4.672219907e-11 -2.798548819e-11)
(0 -4.221990256e-11 -2.399786239e-11)
(0 -3.826738866e-11 -2.070209525e-11)
(0 -3.478358766e-11 -1.796104053e-11)
(0 -3.170116211e-11 -1.566742716e-11)
(0 -2.896388425e-11 -1.373687111e-11)
(0 -2.65245796e-11 -1.210261892e-11)
(0 -2.434350299e-11 -1.071157121e-11)
(0 -2.238703873e-11 -9.521258718e-12)
(0 -2.06266504e-11 -8.497531308e-12)
(0 -1.903802669e-11 -7.612782904e-12)
(0 -1.760038317e-11 -6.844581475e-12)
(0 -1.629588937e-11 -6.174606315e-12)
(0 -1.510919668e-11 -5.587819752e-12)
(0 -1.402704833e-11 -5.071818617e-12)
(0 -1.303795628e-11 -4.616324144e-12)
(0 -1.213193276e-11 -4.21277874e-12)
(0 -1.130026632e-11 -3.854025666e-12)
(0 -1.05353345e-11 -3.534053419e-12)
(0 -9.830446936e-12 -3.247790966e-12)
(0 -9.17971354e-12 -2.990943028e-12)
(0 -8.577933469e-12 -2.759856954e-12)
(0 -8.020501077e-12 -2.551414582e-12)
(0 -7.503326056e-12 -2.362944043e-12)
(0 -7.02276554e-12 -2.192147597e-12)
(0 -6.575566334e-12 -2.037042409e-12)
(0 -6.158815575e-12 -1.895911732e-12)
(0 -5.769898382e-12 -1.767264476e-12)
(0 -5.406461348e-12 -1.649801553e-12)
(0 -5.06638102e-12 -1.542387783e-12)
(0 -4.747736695e-12 -1.444028392e-12)
(0 -4.448786902e-12 -1.353849315e-12)
(0 -4.16794898e-12 -1.27108062e-12)
(0 -3.903781247e-12 -1.195042492e-12)
(0 -3.654967334e-12 -1.125133324e-12)
(0 -3.420302436e-12 -1.060819578e-12)
(0 -3.198681238e-12 -1.001627145e-12)
(0 -2.989087322e-12 -9.471339701e-13)
(0 -2.790583859e-12 -8.969637564e-13)
(0 -2.602305375e-12 -8.507805549e-13)
(0 -2.423450418e-12 -8.082840935e-13)
(0 -2.253275004e-12 -7.692057281e-13)
(0 -2.091086754e-12 -7.33304927e-13)
(0 -1.936239627e-12 -7.003662246e-13)
(0 -1.7881292e-12 -6.70196586e-13)
(0 -1.646188422e-12 -6.426231295e-13)
(0 -1.509883773e-12 -6.174911572e-13)
(0 -1.378711777e-12 -5.946624457e-13)
(0 -1.252195838e-12 -5.740137574e-13)
(0 -1.129883337e-12 -5.554355414e-13)
(0 -1.011342988e-12 -5.388307916e-13)
(0 -8.96162412e-13 -5.241140255e-13)
(0 -7.839459984e-13 -5.112103375e-13)
(0 -6.743130923e-13 -5.000545393e-13)
(0 -5.668961763e-13 -4.905906992e-13)
(0 -4.613371426e-13 -4.827730261e-13)
(0 -3.57278181e-13 -4.765688839e-13)
(0 -2.543586423e-13 -4.719585779e-13)
(0 -1.523352069e-13 -4.689068622e-13)
(0 -5.076587035e-14 -4.672833279e-13)
(0 -4.197637477e-11 -3.232382304e-11)
(0 -3.830330276e-11 -2.783503223e-11)
(0 -3.501462295e-11 -2.41062097e-11)
(0 -3.206556721e-11 -2.098987963e-11)
(0 -2.941650472e-11 -1.837017767e-11)
(0 -2.703249457e-11 -1.615551488e-11)
(0 -2.488281661e-11 -1.427306847e-11)
(0 -2.294051765e-11 -1.266461184e-11)
(0 -2.118198172e-11 -1.128333643e-11)
(0 -1.958653112e-11 -1.009141426e-11)
(0 -1.813606267e-11 -9.058117737e-12)
(0 -1.681472109e-11 -8.158361534e-12)
(0 -1.560860901e-11 -7.37156621e-12)
(0 -1.450553161e-11 -6.680768087e-12)
(0 -1.349477322e-11 -6.071918802e-12)
(0 -1.256690292e-11 -5.533331461e-12)
(0 -1.17136059e-11 -5.055240643e-12)
(0 -1.092753727e-11 -4.629451252e-12)
(0 -1.020219588e-11 -4.24905713e-12)
(0 -9.531815412e-12 -3.908214675e-12)
(0 -8.911270615e-12 -3.601959912e-12)
(0 -8.33599621e-12 -3.326059989e-12)
(0 -7.801916789e-12 -3.076892084e-12)
(0 -7.305386137e-12 -2.851344328e-12)
(0 -6.84313482e-12 -2.646734481e-12)
(0 -6.412224876e-12 -2.460742951e-12)
(0 -6.010010522e-12 -2.291357372e-12)
(0 -5.634103932e-12 -2.136826536e-12)
(0 -5.282345358e-12 -1.995621949e-12)
(0 -4.952777093e-12 -1.866405682e-12)
(0 -4.643620778e-12 -1.74800342e-12)
(0 -4.353257618e-12 -1.639381814e-12)
(0 -4.080211018e-12 -1.539629353e-12)
(0 -3.823131268e-12 -1.447940148e-12)
(0 -3.580781976e-12 -1.363600124e-12)
(0 -3.352028094e-12 -1.285975246e-12)
(0 -3.13582534e-12 -1.214501481e-12)
(0 -2.931210884e-12 -1.148676212e-12)
(0 -2.737295094e-12 -1.088050883e-12)
(0 -2.553254188e-12 -1.032224671e-12)
(0 -2.378323637e-12 -9.808390006e-13)
(0 -2.21179225e-12 -9.335727941e-13)
(0 -2.052996853e-12 -8.9013835e-13)
(0 -1.901317508e-12 -8.502777678e-13)
(0 -1.756173209e-12 -8.13759853e-13)
(0 -1.617017995e-12 -7.803774357e-13)
(0 -1.483337418e-12 -7.499450417e-13)
(0 -1.35464532e-12 -7.222968645e-13)
(0 -1.230480892e-12 -6.972849986e-13)
(0 -1.110405978e-12 -6.747779003e-13)
(0 -9.940025846e-13 -6.546590545e-13)
(0 -8.808705712e-13 -6.368258174e-13)
(0 -7.706255205e-13 -6.211883739e-13)
(0 -6.628969549e-13 -6.076686927e-13)
(0 -5.573270979e-13 -5.96199429e-13)
(0 -4.53569265e-13 -5.867233604e-13)
(0 -3.512810964e-13 -5.791953955e-13)
(0 -2.501110655e-13 -5.735879497e-13)
(0 -1.497715736e-13 -5.698822863e-13)
(0 -4.989128411e-14 -5.679897012e-13)
(0 -3.679570066e-11 -3.571323713e-11)
(0 -3.400228922e-11 -3.09122341e-11)
(0 -3.142223606e-11 -2.689783199e-11)
(0 -2.904755563e-11 -2.352209044e-11)
(0 -2.686679737e-11 -2.066788893e-11)
(0 -2.486677505e-11 -1.824194235e-11)
(0 -2.303367656e-11 -1.616952819e-11)
(0 -2.135377095e-11 -1.4390471e-11)
(0 -1.981384115e-11 -1.285606068e-11)
(0 -1.840143171e-11 -1.15266716e-11)
(0 -1.710497395e-11 -1.036991242e-11)
(0 -1.591383164e-11 -9.359180847e-12)
(0 -1.481829592e-11 -8.472528842e-12)
(0 -1.380954927e-11 -7.691767373e-12)
(0 -1.287961171e-11 -7.001756853e-12)
(0 -1.202127812e-11 -6.389842209e-12)
(0 -1.122805255e-11 -5.845401165e-12)
(0 -1.04940828e-11 -5.359481572e-12)
(0 -9.814097925e-12 -4.924509077e-12)
(0 -9.183349718e-12 -4.534050563e-12)
(0 -8.597558853e-12 -4.182621895e-12)
(0 -8.05286564e-12 -3.865531023e-12)
(0 -7.545785416e-12 -3.578749456e-12)
(0 -7.073168453e-12 -3.318806642e-12)
(0 -6.632164163e-12 -3.082702902e-12)
(0 -6.220189225e-12 -2.867837384e-12)
(0 -5.83489916e-12 -2.671948171e-12)
(0 -5.474162959e-12 -2.493062317e-12)
(0 -5.136040494e-12 -2.329454017e-12)
(0 -4.818762492e-12 -2.179609532e-12)
(0 -4.520712828e-12 -2.042197699e-12)
(0 -4.240412835e-12 -1.916045051e-12)
(0 -3.976507315e-12 -1.800114733e-12)
(0 -3.727752017e-12 -1.693488564e-12)
(0 -3.493002431e-12 -1.595351735e-12)
(0 -3.271203794e-12 -1.504979745e-12)
(0 -3.061382203e-12 -1.421727229e-12)
(0 -2.862636724e-12 -1.345018388e-12)
(0 -2.674132319e-12 -1.274338767e-12)
(0 -2.495093492e-12 -1.209228146e-12)
(0 -2.32479854e-12 -1.149274383e-12)
(0 -2.162574354e-12 -1.094108069e-12)
(0 -2.007791728e-12 -1.043397893e-12)
(0 -1.85986113e-12 -9.968466119e-13)
(0 -1.718228868e-12 -9.541875643e-13)
(0 -1.582373611e-12 -9.151816343e-13)
(0 -1.451803202e-12 -8.796146098e-13)
(0 -1.326051734e-12 -8.472948753e-13)
(0 -1.204676874e-12 -8.180513967e-13)
(0 -1.087257393e-12 -7.917319641e-13)
(0 -9.733909052e-13 -7.682016677e-13)
(0 -8.626917313e-13 -7.473415926e-13)
(0 -7.547888737e-13 -7.29047709e-13)
(0 -6.493241474e-13 -7.132298656e-13)
(0 -5.459508439e-13 -6.998106629e-13)
(0 -4.443331091e-13 -6.887241315e-13)
(0 -3.441427703e-13 -6.799155512e-13)
(0 -2.450455331e-13 -6.733459687e-13)
(0 -1.467369584e-13 -6.689956403e-13)
(0 -4.88732853e-14 -6.668097262e-13)
(0 -3.139965814e-11 -3.812793911e-11)
(0 -2.948789761e-11 -3.320283456e-11)
(0 -2.762447929e-11 -2.905079343e-11)
(0 -2.583562416e-11 -2.553276131e-11)
(0 -2.413635663e-11 -2.253734555e-11)
(0 -2.253413382e-11 -1.997483732e-11)
(0 -2.103134527e-11 -1.777263051e-11)
(0 -1.962705015e-11 -1.587168296e-11)
(0 -1.831818231e-11 -1.422376371e-11)
(0 -1.710038285e-11 -1.278929922e-11)
(0 -1.596857192e-11 -1.153567964e-11)
(0 -1.491733751e-11 -1.043592054e-11)
(0 -1.394119554e-11 -9.467600728e-12)
(0 -1.303475962e-11 -8.612015513e-12)
(0 -1.219284805e-11 -7.853498956e-12)
(0 -1.141054724e-11 -7.178879379e-12)
(0 -1.068324526e-11 -6.577040242e-12)
(0 -1.000664518e-11 -6.038564706e-12)
(0 -9.376764866e-12 -5.5554469e-12)
(0 -8.789928229e-12 -5.120856502e-12)
(0 -8.242751076e-12 -4.728946067e-12)
(0 -7.732123772e-12 -4.374692778e-12)
(0 -7.255192407e-12 -4.053768047e-12)
(0 -6.809339583e-12 -3.762429761e-12)
(0 -6.392165562e-12 -3.497432942e-12)
(0 -6.001470145e-12 -3.255955389e-12)
(0 -5.635235456e-12 -3.035535568e-12)
(0 -5.291609777e-12 -2.834020546e-12)
(0 -4.968892573e-12 -2.649522251e-12)
(0 -4.665520775e-12 -2.480380651e-12)
(0 -4.380056297e-12 -2.325132669e-12)
(0 -4.111174652e-12 -2.182485837e-12)
(0 -3.857654531e-12 -2.051295881e-12)
(0 -3.61836827e-12 -1.930547595e-12)
(0 -3.392273158e-12 -1.819338472e-12)
(0 -3.178403587e-12 -1.716864708e-12)
(0 -2.975863983e-12 -1.622409197e-12)
(0 -2.783822422e-12 -1.535331218e-12)
(0 -2.601504852e-12 -1.455057531e-12)
(0 -2.428189803e-12 -1.381074674e-12)
(0 -2.26320356e-12 -1.312922261e-12)
(0 -2.10591576e-12 -1.250187175e-12)
(0 -1.955735396e-12 -1.192498507e-12)
(0 -1.812107179e-12 -1.13952317e-12)
(0 -1.674508231e-12 -1.090962079e-12)
(0 -1.542445041e-12 -1.046546828e-12)
(0 -1.415450659e-12 -1.006036779e-12)
(0 -1.293082107e-12 -9.692165216e-13)
(0 -1.174917981e-12 -9.358936544e-13)
(0 -1.060556249e-12 -9.058968406e-13)
(0 -9.49612213e-13 -8.790741179e-13)
(0 -8.417166125e-13 -8.552914366e-13)
(0 -7.365137935e-13 -8.344314251e-13)
(0 -6.336599087e-13 -8.163923662e-13)
(0 -5.328213638e-13 -8.010872317e-13)
(0 -4.336741534e-13 -7.884424179e-13)
(0 -3.359029337e-13 -7.78396402e-13)
(0 -2.391911546e-13 -7.709014454e-13)
(0 -1.43235331e-13 -7.659302135e-13)
(0 -4.770537e-14 -7.634456144e-13)
(0 -2.599783834e-11 -3.959498996e-11)
(0 -2.492514354e-11 -3.472037102e-11)
(0 -2.37521628e-11 -3.056974563e-11)
(0 -2.253410775e-11 -2.702081613e-11)
(0 -2.130887338e-11 -2.397389473e-11)
(0 -2.010206001e-11 -2.134743049e-11)
(0 -1.89305222e-11 -1.90744732e-11)
(0 -1.780490414e-11 -1.70998666e-11)
(0 -1.673145742e-11 -1.537801221e-11)
(0 -1.571334764e-11 -1.387108211e-11)
(0 -1.475159527e-11 -1.25475863e-11)
(0 -1.384575272e-11 -1.138122071e-11)
(0 -1.299439089e-11 -1.034993783e-11)
(0 -1.21954475e-11 -9.43519493e-12)
(0 -1.144647557e-11 -8.621344095e-12)
(0 -1.074481941e-11 -7.89513611e-12)
(0 -1.008773788e-11 -7.245315633e-12)
(0 -9.472489462e-12 -6.662289963e-12)
(0 -8.896389721e-12 -6.137857187e-12)
(0 -8.356848886e-12 -5.664982429e-12)
(0 -7.851395129e-12 -5.237613103e-12)
(0 -7.37768762e-12 -4.850525959e-12)
(0 -6.9335224e-12 -4.499200097e-12)
(0 -6.516833348e-12 -4.179711262e-12)
(0 -6.125689791e-12 -3.888643577e-12)
(0 -5.758291851e-12 -3.623015598e-12)
(0 -5.412964317e-12 -3.380218167e-12)
(0 -5.088149641e-12 -3.157962051e-12)
(0 -4.782400599e-12 -2.954233738e-12)
(0 -4.49437291e-12 -2.767258039e-12)
(0 -4.222818013e-12 -2.595466353e-12)
(0 -3.966576047e-12 -2.437469637e-12)
(0 -3.724569073e-12 -2.292035304e-12)
(0 -3.495794608e-12 -2.158067436e-12)
(0 -3.279319544e-12 -2.034589813e-12)
(0 -3.074274519e-12 -1.920731341e-12)
(0 -2.879848713e-12 -1.815713519e-12)
(0 -2.695285058e-12 -1.718839627e-12)
(0 -2.519875775e-12 -1.629485357e-12)
(0 -2.352958223e-12 -1.547090681e-12)
(0 -2.193911042e-12 -1.471152768e-12)
(0 -2.0421506e-12 -1.401219827e-12)
(0 -1.897127723e-12 -1.336885743e-12)
(0 -1.758324702e-12 -1.277785411e-12)
(0 -1.625252527e-12 -1.223590665e-12)
(0 -1.49744831e-12 -1.174006718e-12)
(0 -1.374472895e-12 -1.128769049e-12)
(0 -1.25590861e-12 -1.087640672e-12)
(0 -1.141357193e-12 -1.050409748e-12)
(0 -1.030437857e-12 -1.016887504e-12)
(0 -9.227855011e-13 -9.869064053e-13)
(0 -8.180490385e-13 -9.603185754e-13)
(0 -7.158898033e-13 -9.369944251e-13)
(0 -6.15979954e-13 -9.168215243e-13)
(0 -5.180008957e-13 -8.997036813e-13)
(0 -4.216422795e-13 -8.855599521e-13)
(0 -3.266017977e-13 -8.743231906e-13)
(0 -2.325793446e-13 -8.659397194e-13)
(0 -1.392811274e-13 -8.603745901e-13)
(0 -4.638868615e-14 -8.575972606e-13)
(0 -2.077583834e-11 -4.018746149e-11)
(0 -2.046265328e-11 -3.551391403e-11)
(0 -1.99249244e-11 -3.148700192e-11)
(0 -1.923977326e-11 -2.800686282e-11)
(0 -1.846297098e-11 -2.498998643e-11)
(0 -1.763471229e-11 -2.236651635e-11)
(0 -1.678378139e-11 -2.007796519e-11)
(0 -1.593058916e-11 -1.807529833e-11)
(0 -1.508939781e-11 -1.631733662e-11)
(0 -1.426995694e-11 -1.476943059e-11)
(0 -1.347871053e-11 -1.34023625e-11)
(0 -1.271968905e-11 -1.219143798e-11)
(0 -1.199516976e-11 -1.111573492e-11)
(0 -1.130616588e-11 -1.01574823e-11)
(0 -1.065278923e-11 -9.301546375e-12)
(0 -1.003451878e-11 -8.535005242e-12)
(0 -9.450399118e-12 -7.846796076e-12)
(0 -8.899186738e-12 -7.227422193e-12)
(0 -8.379457333e-12 -6.668709389e-12)
(0 -7.889684145e-12 -6.16360291e-12)
(0 -7.428294605e-12 -5.705997937e-12)
(0 -6.993710766e-12 -5.290597777e-12)
(0 -6.584377711e-12 -4.91279498e-12)
(0 -6.198783063e-12 -4.568571468e-12)
(0 -5.835469898e-12 -4.254414421e-12)
(0 -5.493044735e-12 -3.967245248e-12)
(0 -5.170181909e-12 -3.704359468e-12)
(0 -4.865625348e-12 -3.463375732e-12)
(0 -4.578188561e-12 -3.242192519e-12)
(0 -4.306753391e-12 -3.038951275e-12)
(0 -4.050267895e-12 -2.852004937e-12)
(0 -3.807743602e-12 -2.679890973e-12)
(0 -3.57825233e-12 -2.521308227e-12)
(0 -3.360922779e-12 -2.375097011e-12)
(0 -3.154937063e-12 -2.240221955e-12)
(0 -2.959527294e-12 -2.115757232e-12)
(0 -2.773972268e-12 -2.00087379e-12)
(0 -2.59759426e-12 -1.894828294e-12)
(0 -2.429755906e-12 -1.796953497e-12)
(0 -2.269857214e-12 -1.706649866e-12)
(0 -2.117332706e-12 -1.623378264e-12)
(0 -1.971648735e-12 -1.54665358e-12)
(0 -1.83230098e-12 -1.476039166e-12)
(0 -1.698812101e-12 -1.411141983e-12)
(0 -1.570729538e-12 -1.351608351e-12)
(0 -1.447623425e-12 -1.297120224e-12)
(0 -1.329084613e-12 -1.247391925e-12)
(0 -1.214722806e-12 -1.202167273e-12)
(0 -1.104164813e-12 -1.161217074e-12)
(0 -9.970529058e-13 -1.124336925e-12)
(0 -8.930432848e-13 -1.091345302e-12)
(0 -7.918046323e-13 -1.062081882e-12)
(0 -6.930167423e-13 -1.036406084e-12)
(0 -5.96369165e-13 -1.014195828e-12)
(0 -5.015597917e-13 -9.953465366e-13)
(0 -4.082936627e-13 -9.797702916e-13)
(0 -3.16282701e-13 -9.673946759e-13)
(0 -2.252425541e-13 -9.581616354e-13)
(0 -1.348928722e-13 -9.520304298e-13)
(0 -4.492804046e-14 -9.489715861e-13)
(0 -1.588476074e-11 -4.001394996e-11)
(0 -1.622468397e-11 -3.566082251e-11)
(0 -1.624511159e-11 -3.185748525e-11)
(0 -1.603709226e-11 -2.85296465e-11)
(0 -1.56685269e-11 -2.56126715e-11)
(0 -1.519003877e-11 -2.305068324e-11)
(0 -1.463930418e-11 -2.079557315e-11)
(0 -1.404427557e-11 -1.880602511e-11)
(0 -1.342558968e-11 -1.704660526e-11)
(0 -1.279837353e-11 -1.54869409e-11)
(0 -1.217360266e-11 -1.410099494e-11)
(0 -1.155912515e-11 -1.286643378e-11)
(0 -1.096043521e-11 -1.176408162e-11)
(0 -1.038125895e-11 -1.077745296e-11)
(0 -9.823998513e-12 -9.892353761e-12)
(0 -9.290069112e-12 -9.096542262e-12)
(0 -8.780154831e-12 -8.379441114e-12)
(0 -8.294402775e-12 -7.731893277e-12)
(0 -7.832570438e-12 -7.145955239e-12)
(0 -7.394137434e-12 -6.614721852e-12)
(0 -6.978389996e-12 -6.13217788e-12)
(0 -6.584484662e-12 -5.693072099e-12)
(0 -6.211496091e-12 -5.292810431e-12)
(0 -5.858452789e-12 -4.927365106e-12)
(0 -5.524363571e-12 -4.593197361e-12)
(0 -5.208236898e-12 -4.287191521e-12)
(0 -4.9090948e-12 -4.006598724e-12)
(0 -4.625982692e-12 -3.748988824e-12)
(0 -4.357976143e-12 -3.512209205e-12)
(0 -4.104185329e-12 -3.294349465e-12)
(0 -3.863757711e-12 -3.093711042e-12)
(0 -3.635879337e-12 -2.908781038e-12)
(0 -3.419775112e-12 -2.738209603e-12)
(0 -3.214708335e-12 -2.580790399e-12)
(0 -3.019979765e-12 -2.435443696e-12)
(0 -2.834926354e-12 -2.30120173e-12)
(0 -2.658919775e-12 -2.177195992e-12)
(0 -2.491364765e-12 -2.062646152e-12)
(0 -2.331697347e-12 -1.956850397e-12)
(0 -2.179382989e-12 -1.859176973e-12)
(0 -2.033914756e-12 -1.769056801e-12)
(0 -1.894811502e-12 -1.68597701e-12)
(0 -1.761616126e-12 -1.609475284e-12)
(0 -1.633893886e-12 -1.53913491e-12)
(0 -1.511230767e-12 -1.474580425e-12)
(0 -1.393231885e-12 -1.415473797e-12)
(0 -1.279519944e-12 -1.361511052e-12)
(0 -1.169733758e-12 -1.312419324e-12)
(0 -1.063526845e-12 -1.267954258e-12)
(0 -9.605660853e-13 -1.227897738e-12)
(0 -8.60530458e-13 -1.192055912e-12)
(0 -7.631098208e-13 -1.160257455e-12)
(0 -6.680037495e-13 -1.132352056e-12)
(0 -5.749204062e-13 -1.108209098e-12)
(0 -4.835753592e-13 -1.087716574e-12)
(0 -3.936904188e-13 -1.070780231e-12)
(0 -3.049931415e-13 -1.057322674e-12)
(0 -2.172150984e-13 -1.047282151e-12)
(0 -1.300910781e-13 -1.040613754e-12)
(0 -4.332984248e-14 -1.037287017e-12)
(0 -1.143523066e-11 -3.920608281e-11)
(0 -1.230618858e-11 -3.525794159e-11)
(0 -1.279374839e-11 -3.175247027e-11)
(0 -1.299495951e-11 -2.864156631e-11)
(0 -1.298400773e-11 -2.588036981e-11)
(0 -1.281761393e-11 -2.342797213e-11)
(0 -1.253912325e-11 -2.124761921e-11)
(0 -1.218162127e-11 -1.930662365e-11)
(0 -1.17703136e-11 -1.757611822e-11)
(0 -1.132434662e-11 -1.603073261e-11)
(0 -1.085820341e-11 -1.464824257e-11)
(0 -1.038277572e-11 -1.340922062e-11)
(0 -9.906188943e-12 -1.229670481e-11)
(0 -9.434438022e-12 -1.129589407e-11)
(0 -8.97187853e-12 -1.03938733e-11)
(0 -8.521606128e-12 -9.579368821e-12)
(0 -8.085750132e-12 -8.842532789e-12)
(0 -7.665700863e-12 -8.174754535e-12)
(0 -7.262285908e-12 -7.568496394e-12)
(0 -6.875906786e-12 -7.017151289e-12)
(0 -6.506644852e-12 -6.514919496e-12)
(0 -6.154343317e-12 -6.056702166e-12)
(0 -5.818670718e-12 -5.638009429e-12)
(0 -5.499169994e-12 -5.25488112e-12)
(0 -5.195296312e-12 -4.903818402e-12)
(0 -4.906446097e-12 -4.581724755e-12)
(0 -4.631979212e-12 -4.285855041e-12)
(0 -4.371235829e-12 -4.013771529e-12)
(0 -4.123549202e-12 -3.763305871e-12)
(0 -3.888255228e-12 -3.532526211e-12)
(0 -3.664699468e-12 -3.319708655e-12)
(0 -3.452242162e-12 -3.123312505e-12)
(0 -3.250261691e-12 -2.941958728e-12)
(0 -3.058156873e-12 -2.774411237e-12)
(0 -2.875348395e-12 -2.619560607e-12)
(0 -2.70127959e-12 -2.476409882e-12)
(0 -2.53541669e-12 -2.344062177e-12)
(0 -2.377248664e-12 -2.221709836e-12)
(0 -2.226286727e-12 -2.108624906e-12)
(0 -2.082063619e-12 -2.004150788e-12)
(0 -1.944132743e-12 -1.907694913e-12)
(0 -1.812067218e-12 -1.81872231e-12)
(0 -1.685458879e-12 -1.736749963e-12)
(0 -1.563917242e-12 -1.661341844e-12)
(0 -1.447068425e-12 -1.592104539e-12)
(0 -1.334554052e-12 -1.528683383e-12)
(0 -1.22603014e-12 -1.470759062e-12)
(0 -1.121166011e-12 -1.418044614e-12)
(0 -1.019643226e-12 -1.370282793e-12)
(0 -9.211545605e-13 -1.327243762e-12)
(0 -8.254030023e-13 -1.288723072e-12)
(0 -7.32100776e-13 -1.254539898e-12)
(0 -6.409683851e-13 -1.224535488e-12)
(0 -5.517336832e-13 -1.198571817e-12)
(0 -4.641309248e-13 -1.176530438e-12)
(0 -3.778997626e-13 -1.158311564e-12)
(0 -2.927846209e-13 -1.143833291e-12)
(0 -2.085336339e-13 -1.133030555e-12)
(0 -1.248977382e-13 -1.125855337e-12)
(0 -4.160130402e-14 -1.122275658e-12)
(0 -7.496020893e-12 -3.790575559e-11)
(0 -8.771071432e-12 -3.441239095e-11)
(0 -9.628736301e-12 -3.125288823e-11)
(0 -1.01649918e-11 -2.840377876e-11)
(0 -1.045493273e-11 -2.583926938e-11)
(0 -1.055728818e-11 -2.353321633e-11)
(0 -1.05179557e-11 -2.146030792e-11)
(0 -1.037277457e-11 -1.959673193e-11)
(0 -1.014969864e-11 -1.792051122e-11)
(0 -9.870497881e-12 -1.641162874e-11)
(0 -9.552090663e-12 -1.505202218e-11)
(0 -9.207587384e-12 -1.382550132e-11)
(0 -8.84710866e-12 -1.271762284e-11)
(0 -8.478427437e-12 -1.171554504e-11)
(0 -8.107473269e-12 -1.080787643e-11)
(0 -7.738728606e-12 -9.984526907e-12)
(0 -7.375540545e-12 -9.23656668e-12)
(0 -7.02036638e-12 -8.556095638e-12)
(0 -6.674967191e-12 -7.93612441e-12)
(0 -6.340560536e-12 -7.370467271e-12)
(0 -6.017940873e-12 -6.853646506e-12)
(0 -5.707574594e-12 -6.380807533e-12)
(0 -5.409675045e-12 -5.947643944e-12)
(0 -5.124261763e-12 -5.550331535e-12)
(0 -4.851207205e-12 -5.185470374e-12)
(0 -4.590273537e-12 -4.850034022e-12)
(0 -4.341141574e-12 -4.541325071e-12)
(0 -4.103433522e-12 -4.256936248e-12)
(0 -3.876730825e-12 -3.994716406e-12)
(0 -3.660588113e-12 -3.752740756e-12)
(0 -3.454544005e-12 -3.529284813e-12)
(0 -3.25812941e-12 -3.322801576e-12)
(0 -3.070873844e-12 -3.131901531e-12)
(0 -2.892310215e-12 -2.955335141e-12)
(0 -2.721978409e-12 -2.791977504e-12)
(0 -2.559427924e-12 -2.640814887e-12)
(0 -2.40421973e-12 -2.500932894e-12)
(0 -2.255927493e-12 -2.371506036e-12)
(0 -2.114138299e-12 -2.251788555e-12)
(0 -1.978452997e-12 -2.141106319e-12)
(0 -1.848486279e-12 -2.038849697e-12)
(0 -1.723866553e-12 -1.944467277e-12)
(0 -1.60423566e-12 -1.857460318e-12)
(0 -1.489248461e-12 -1.777377862e-12)
(0 -1.378572306e-12 -1.7038124e-12)
(0 -1.271886409e-12 -1.636396035e-12)
(0 -1.168881175e-12 -1.574797103e-12)
(0 -1.069257489e-12 -1.518717176e-12)
(0 -9.72725992e-13 -1.46788843e-12)
(0 -8.79006365e-13 -1.422071336e-12)
(0 -7.878265945e-13 -1.381052624e-12)
(0 -6.989222362e-13 -1.344643506e-12)
(0 -6.120356688e-13 -1.312678117e-12)
(0 -5.269153561e-13 -1.285012159e-12)
(0 -4.433151059e-13 -1.261521729e-12)
(0 -3.609932723e-13 -1.242102354e-12)