/*--------------------------------*- C++ -*----------------------------------*\
  =========                 |
  \\      /  F ield         | OpenFOAM: The Open Source CFD Toolbox
   \\    /   O peration     | Website:  https://openfoam.org
    \\  /    A nd           | Version:  6
     \\/     M anipulation  |
\*---------------------------------------------------------------------------*/
FoamFile
{
    version     2.0;
    format      ascii;
    class       volScalarField;
    location    "0.0029";
    object      Num_divU;
}
// * * * * * * * * * * * * * * * * * * * * * * * * * * * * * * * * * * * * * //

dimensions      [0 0 -1 0 0 0 0];

internalField   nonuniform List<scalar> 
9600
(
-8.569829351e-09
-1.853116129e-08
-2.318879465e-08
-2.261536445e-08
-1.966098005e-08
-1.573317307e-08
-1.177131645e-08
-8.080360315e-09
-4.93801968e-09
-2.296088499e-09
-2.576087191e-10
1.307041477e-09
2.324081283e-09
2.927560195e-09
3.032578417e-09
2.757608414e-09
1.997654025e-09
8.515543092e-10
-8.069706361e-10
-2.900752538e-09
-5.579855635e-09
-8.790378068e-09
-1.270557176e-08
-1.729444408e-08
-2.275463661e-08
-2.908233784e-08
-3.650397063e-08
-4.504340532e-08
-5.494692451e-08
-6.624903421e-08
-7.919684254e-08
-9.382571063e-08
-1.103867455e-07
-1.289279574e-07
-1.497088287e-07
-1.727726441e-07
-1.983409007e-07
-2.263895411e-07
-2.570461978e-07
-2.901958136e-07
-3.258830852e-07
-3.639267751e-07
-4.042915757e-07
-4.46696052e-07
-4.909749167e-07
-5.367301659e-07
-5.837176323e-07
-6.315414963e-07
-6.800369814e-07
-7.29006593e-07
-7.786314404e-07
-8.293283687e-07
-8.823049833e-07
-9.397197557e-07
-1.005667023e-06
-1.087036526e-06
-1.195368173e-06
-1.348282109e-06
-1.569452521e-06
-1.881999326e-06
-2.287657508e-06
-2.741086317e-06
-3.184648937e-06
-3.916384784e-06
-5.385335252e-06
-1.2377254e-05
-1.911752324e-05
-8.984901702e-06
1.761386745e-11
5.846066261e-11
7.582567362e-11
1.114519674e-10
1.158261015e-10
8.275667693e-11
6.047227092e-11
7.473296841e-11
1.275467512e-10
1.717957266e-10
2.134598165e-10
2.25348647e-10
2.010418916e-10
1.603108897e-10
1.20020044e-10
1.140267537e-10
1.124886832e-10
1.231724146e-10
8.813833546e-11
3.464980355e-11
-3.249466166e-11
-4.359792991e-11
-3.423808151e-11
-1.031248743e-11
-5.789968125e-12
1.709582036e-11
1.932577479e-11
-3.519232019e-11
-1.185581915e-10
-1.818020549e-10
-1.967803123e-10
-1.977955178e-10
-1.581567764e-10
-1.495468404e-10
-1.167690005e-10
-1.017726316e-10
-9.543479169e-11
-1.616976603e-10
-1.896235665e-10
-7.021625602e-11
-3.200980736e-10
-9.153987239e-11
-2.105688465e-10
-4.977477262e-11
-8.456741606e-06
-1.266945238e-05
-6.32507137e-06
-1.036589416e-06
-2.113990545e-07
-6.947982399e-07
-1.900150441e-06
1.394650733e-06
-2.088054201e-08
-3.490477332e-08
-3.820024294e-08
-3.416399137e-08
-2.801391927e-08
-2.168287946e-08
-1.59886288e-08
-1.111434134e-08
-7.125740711e-09
-3.913584908e-09
-1.445628352e-09
4.067421885e-10
1.661407027e-09
2.421773043e-09
2.675926783e-09
2.498357653e-09
1.849515732e-09
7.784955453e-10
-7.799378606e-10
-2.801831151e-09
-5.37802686e-09
-8.509818768e-09
-1.231310048e-08
-1.681454112e-08
-2.215762915e-08
-2.839945624e-08
-3.571462734e-08
-4.418812234e-08
-5.401464576e-08
-6.52918208e-08
-7.822293992e-08
-9.291940868e-08
-1.096055064e-07
-1.284199177e-07
-1.496051276e-07
-1.732968194e-07
-1.997029104e-07
-2.289032705e-07
-2.610443403e-07
-2.961615225e-07
-3.343723799e-07
-3.756859245e-07
-4.201641348e-07
-4.677285194e-07
-5.183370226e-07
-5.71842995e-07
-6.282060812e-07
-6.873728051e-07
-7.494803513e-07
-8.147547353e-07
-8.837553621e-07
-9.573841616e-07
-1.037292588e-06
-1.126165111e-06
-1.228471e-06
-1.351153056e-06
-1.504677267e-06
-1.703642136e-06
-1.966741068e-06
-2.314889598e-06
-2.771018399e-06
-3.369134966e-06
-4.217231791e-06
-5.608574816e-06
-7.968825137e-06
-1.184119178e-05
-1.610187709e-05
-1.356258674e-05
-6.508300917e-06
2.263477196e-11
6.321377265e-11
6.785444279e-11
1.756777034e-11
2.63714408e-11
2.290714261e-11
8.057779152e-11
1.237851153e-10
1.653891111e-10
1.627460432e-10
1.637079106e-10
1.062983788e-10
9.633724769e-11
6.412334415e-11
7.055167016e-11
7.610690292e-11
6.855663804e-11
2.326499381e-11
-2.753539676e-11
-5.84972821e-11
-3.927836417e-11
-1.222758484e-11
4.552721447e-12
1.033966288e-11
4.760092808e-11
3.887157139e-11
-2.677228157e-11
-1.156591784e-10
-8.243969267e-11
-1.146664569e-10
-1.02273827e-10
-1.23079096e-10
-9.566533555e-11
-1.27150617e-10
-9.997141837e-11
-1.181809843e-10
-6.843665584e-11
-1.135269546e-10
-1.811629601e-10
-1.162571251e-10
-5.474876085e-11
5.896373529e-17
-8.804218313e-06
-1.442355344e-05
-1.567499755e-05
-1.015038668e-05
-6.615752708e-06
-4.498333421e-06
-3.823799273e-06
-3.355675196e-06
9.425866566e-07
-5.69021506e-08
-6.747606012e-08
-6.11377238e-08
-4.883970189e-08
-3.729159349e-08
-2.766762357e-08
-1.992258644e-08
-1.379250964e-08
-8.969496162e-09
-5.235773292e-09
-2.384921254e-09
-2.954324086e-10
1.160189953e-09
2.039204452e-09
2.417418956e-09
2.309302032e-09
1.754778046e-09
7.369664907e-10
-7.334333664e-10
-2.701946419e-09
-5.185472555e-09
-8.256795341e-09
-1.195953147e-08
-1.639412693e-08
-2.163456656e-08
-2.781400172e-08
-3.503916835e-08
-4.34716759e-08
-5.323973517e-08
-6.452106255e-08
-7.746127524e-08
-9.226355997e-08
-1.091098377e-07
-1.282414502e-07
-1.498659161e-07
-1.742229684e-07
-2.014917896e-07
-2.318717443e-07
-2.655148761e-07
-3.026193348e-07
-3.433527967e-07
-3.879138307e-07
-4.364297238e-07
-4.890188867e-07
-5.457316591e-07
-6.066641203e-07
-6.719336397e-07
-7.417881354e-07
-8.165660479e-07
-8.968105349e-07
-9.832784513e-07
-1.077147789e-06
-1.180176768e-06
-1.295121588e-06
-1.426163513e-06
-1.579568747e-06
-1.764248805e-06
-1.992370895e-06
-2.279833317e-06
-2.647415395e-06
-3.124706729e-06
-3.761748777e-06
-4.651747076e-06
-5.942093399e-06
-7.702605522e-06
-9.621762796e-06
-9.870154099e-06
-1.099109021e-05
-1.033756417e-05
-6.239099167e-06
2.84001456e-11
-1.041987367e-11
2.5424114e-11
6.696355255e-12
7.315974286e-11
1.196940375e-10
1.566214377e-10
1.465583498e-10
1.665883498e-10
1.209212371e-10
1.374132125e-10
6.145552933e-11
6.950417979e-11
8.276776776e-11
8.782327652e-11
5.50234202e-11
-5.124436356e-12
-6.344732894e-11
-7.040386866e-11
-3.724294897e-11
-4.147431209e-12
1.027377327e-11
5.683634887e-11
9.46827019e-11
4.942569105e-11
-6.533896851e-11
-5.341191408e-11
-1.340028774e-10
-1.037308128e-10
-1.401270719e-10
-1.208955138e-10
-1.609173907e-10
-1.033056487e-10
-1.124372515e-10
-1.583552597e-11
-2.726209835e-10
-8.139198232e-11
-4.435376938e-11
-4.015266479e-11
-1.266807153e-16
-1.040822132e-05
-1.585470314e-05
-1.517539827e-05
-1.297407846e-05
-1.170650825e-05
-9.427685427e-06
-7.297153677e-06
-6.131753516e-06
-5.761455057e-06
-2.792118616e-07
-2.123041862e-07
-1.436222094e-07
-9.318482144e-08
-6.445609063e-08
-4.562242821e-08
-3.246356513e-08
-2.286853077e-08
-1.56774347e-08
-1.023509346e-08
-6.098665751e-09
-3.002126193e-09
-7.309953326e-10
8.352120373e-10
1.812199688e-09
2.249172658e-09
2.208305649e-09
1.69626634e-09
7.393099928e-10
-6.882906126e-10
-2.591142984e-09
-5.024713776e-09
-8.022024686e-09
-1.166730911e-08
-1.602319742e-08
-2.120606875e-08
-2.731311017e-08
-3.449422334e-08
-4.287591577e-08
-5.263158234e-08
-6.390909556e-08
-7.690800111e-08
-9.181392307e-08
-1.088738163e-07
-1.283197877e-07
-1.504271856e-07
-1.754290777e-07
-2.035801115e-07
-2.350949017e-07
-2.702350919e-07
-3.092543313e-07
-3.524604798e-07
-4.001234221e-07
-4.525137894e-07
-5.098315129e-07
-5.722967617e-07
-6.401333563e-07
-7.136728509e-07
-7.933153462e-07
-8.796051286e-07
-9.731992633e-07
-1.074991767e-06
-1.186159574e-06
-1.308390701e-06
-1.444085065e-06
-1.596773224e-06
-1.771488734e-06
-1.975236058e-06
-2.217330456e-06
-2.509960646e-06
-2.869206947e-06
-3.317352196e-06
-3.885973285e-06
-4.615212399e-06
-5.529054625e-06
-6.545746717e-06
-7.360157973e-06
-7.472178114e-06
-7.378183047e-06
-1.118226076e-05
-1.111027222e-05
-8.75182613e-06
1.020881624e-11
1.683766542e-12
7.210662301e-11
9.7827082e-11
9.708036106e-11
6.103644088e-11
1.370011918e-10
9.001983505e-11
1.282909153e-10
7.153334759e-11
1.245408419e-10
1.143449984e-10
1.139602787e-10
1.061780707e-10
5.287190627e-11
-3.064645813e-11
-8.606646621e-11
-8.166048478e-11
-3.287545995e-11
4.004054331e-12
3.711708172e-11
9.435447158e-11
1.244402575e-10
1.982073854e-11
-4.165996121e-11
-1.19490356e-10
-5.413057906e-11
-1.639715311e-10
-1.845052977e-10
-1.639548192e-10
1.517159316e-11
-1.246370904e-10
-3.406093171e-11
-1.698657602e-10
-7.175424664e-11
-2.577194505e-11
-1.108945447e-11
2.396033256e-15
-1.380464954e-05
-1.890906485e-05
-1.880168195e-05
-1.412860232e-05
-1.314899237e-05
-1.231243638e-05
-1.087054359e-05
-9.435775607e-06
-8.499212466e-06
-8.140824811e-06
-2.037882954e-06
-2.581594832e-07
-1.677751639e-07
-1.043646883e-07
-7.025313945e-08
-4.879905477e-08
-3.430044995e-08
-2.396385568e-08
-1.63596167e-08
-1.066401967e-08
-6.38496059e-09
-3.189785794e-09
-8.665123163e-10
7.453449021e-10
1.744325365e-09
2.211507713e-09
2.186883754e-09
1.706165863e-09
7.713725118e-10
-6.161204022e-10
-2.486562955e-09
-4.869467118e-09
-7.824918807e-09
-1.141197373e-08
-1.572195732e-08
-2.084750937e-08
-2.691519519e-08
-3.405187829e-08
-4.241460518e-08
-5.215698277e-08
-6.346325459e-08
-7.652236264e-08
-9.156606681e-08
-1.088389867e-07
-1.286231593e-07
-1.511930281e-07
-1.768349629e-07
-2.058154122e-07
-2.384266683e-07
-2.749761328e-07
-3.15825693e-07
-3.613471296e-07
-4.119211402e-07
-4.678829878e-07
-5.295565321e-07
-5.972609648e-07
-6.713839642e-07
-7.5237916e-07
-8.407965507e-07
-9.372517858e-07
-1.042473467e-06
-1.15731963e-06
-1.282876576e-06
-1.420528758e-06
-1.572145252e-06
-1.740277098e-06
-1.928435762e-06
-2.14125901e-06
-2.38462354e-06
-2.665655612e-06
-2.992810034e-06
-3.375675139e-06
-3.823238664e-06
-4.336753355e-06
-4.890399125e-06
-5.397507131e-06
-5.709059097e-06
-5.741446787e-06
-5.891306933e-06
-5.731296622e-06
-4.320304165e-06
6.398661689e-06
1.915534007e-05
9.303453179e-06
3.94081305e-11
1.521282197e-11
-1.567397614e-11
1.576407082e-10
1.09327727e-10
1.870716057e-10
1.57261046e-10
2.343690912e-10
9.151710368e-11
9.330209916e-11
1.285902203e-10
1.130255296e-10
3.56914967e-11
-5.886683183e-11
-1.075138757e-10
-8.037797859e-11
-2.477272315e-11
1.217640466e-11
7.017331211e-11
1.456954011e-10
1.000707465e-10
1.521148262e-11
-8.2787363e-11
-1.787060782e-11
-1.57369108e-10
-1.557185658e-10
-1.769082294e-10
4.659258682e-11
-2.817716504e-10
-2.247460394e-10
-1.079912448e-10
-4.160041385e-11
-2.833865196e-11
-1.709617971e-15
1.131007531e-05
1.286733632e-05
-1.122065281e-06
-1.401997453e-05
-1.48760502e-05
-1.433278389e-05
-1.329022303e-05
-1.249790849e-05
-1.180645565e-05
-1.128247029e-05
-1.075989555e-05
-1.114304858e-05
-4.13622355e-06
-1.42554115e-07
-1.170961604e-07
-8.678330612e-08
-6.306773411e-08
-4.547995077e-08
-3.253177662e-08
-2.290078418e-08
-1.565493833e-08
-1.017182971e-08
-6.025299446e-09
-2.926687062e-09
-6.686044575e-10
8.907046042e-10
1.856442423e-09
2.296549893e-09
2.26110948e-09
1.77376272e-09
8.472570826e-10
-5.291786152e-10
-2.375360517e-09
-4.733260488e-09
-7.65314848e-09
-1.120724293e-08
-1.547766543e-08
-2.05709688e-08
-2.660485497e-08
-3.372064875e-08
-4.206823374e-08
-5.18194017e-08
-6.315806876e-08
-7.629929718e-08
-9.148186186e-08
-1.089806695e-07
-1.290858173e-07
-1.521029184e-07
-1.783323491e-07
-2.080880785e-07
-2.417031942e-07
-2.795609976e-07
-3.220839947e-07
-3.697245775e-07
-4.22920041e-07
-4.820886742e-07
-5.476328557e-07
-6.199918354e-07
-6.996622731e-07
-7.872165952e-07
-8.832703636e-07
-9.884813993e-07
-1.103545834e-06
-1.229241317e-06
-1.366441537e-06
-1.516161197e-06
-1.679594328e-06
-1.858215086e-06
-2.053828205e-06
-2.268528715e-06
-2.504419676e-06
-2.763121371e-06
-3.044936473e-06
-3.347388059e-06
-3.662131314e-06
-3.968867684e-06
-4.225525597e-06
-4.359836156e-06
-4.283321259e-06
-3.939294206e-06
-3.319503564e-06
-1.841874521e-06
2.112295925e-06
9.007706803e-06
1.205806266e-05
2.676586511e-05
6.130110839e-06
-1.557884468e-11
9.601473335e-11
1.574017982e-10
2.745061583e-10
2.306206674e-10
2.046930891e-10
-1.377559475e-10
2.696050257e-10
9.068933848e-11
5.290112562e-11
4.629901872e-11
-1.669523513e-11
-1.007916675e-10
-1.289513042e-10
-8.377529648e-11
-1.830766218e-11
3.358811122e-11
9.183261063e-11
1.283169441e-10
9.938995113e-11
-2.283359534e-11
1.780880139e-11
6.001532892e-12
2.478258728e-10
-4.21020107e-10
-4.462869627e-11
-2.008783991e-10
-3.305989398e-10
-3.442269492e-10
-9.042221799e-11
-1.04010727e-11
2.632248964e-15
1.486817023e-07
1.850712167e-05
8.573232825e-06
2.555360078e-06
-7.168364976e-06
-1.150703712e-05
-1.249169622e-05
-1.271411839e-05
-1.254890967e-05
-1.253989177e-05
-1.2369604e-05
-1.279957987e-05
-1.401807234e-05
-6.291739724e-06
-8.847060808e-08
-8.07560077e-08
-6.587226044e-08
-5.109020728e-08
-3.839748791e-08
-2.814681273e-08
-2.005390228e-08
-1.373089996e-08
-8.827239985e-09
-5.065102072e-09
-2.228479892e-09
-1.578354463e-10
1.26803435e-09
2.134806561e-09
2.505688629e-09
2.420102926e-09
1.902430669e-09
9.573922369e-10
-4.23217426e-10
-2.266549253e-09
-4.611529353e-09
-7.515373268e-09
-1.104766979e-08
-1.529754988e-08
-2.036893416e-08
-2.638664387e-08
-3.34898532e-08
-4.183777941e-08
-5.16043838e-08
-6.298923202e-08
-7.621610252e-08
-9.154375303e-08
-1.092570249e-07
-1.296649253e-07
-1.530841835e-07
-1.798432025e-07
-2.102863936e-07
-2.448001109e-07
-2.838196292e-07
-3.27828713e-07
-3.773259471e-07
-4.328033292e-07
-4.947341808e-07
-5.636065144e-07
-6.399521639e-07
-7.243711574e-07
-8.175050142e-07
-9.200092534e-07
-1.032524352e-06
-1.155689823e-06
-1.290149683e-06
-1.436553691e-06
-1.59551498e-06
-1.767576908e-06
-1.953150201e-06
-2.152403938e-06
-2.364956011e-06
-2.589318969e-06
-2.821992494e-06
-3.056199951e-06
-3.280006256e-06
-3.473515022e-06
-3.60486697e-06
-3.625836316e-06
-3.47001422e-06
-3.058824603e-06
-2.30538972e-06
-1.070278021e-06
1.051617851e-06
4.610383478e-06
1.027346406e-05
1.08718122e-05
2.48939283e-05
3.705884723e-05
2.813337166e-05
2.054524464e-06
1.380714328e-10
1.168440605e-10
4.338910195e-11
-3.003432727e-10
4.411063484e-10
2.672359332e-11
1.914574514e-10
8.344246312e-11
2.902412049e-11
-5.565404128e-11
-1.375175478e-10
-1.463427261e-10
-8.069686334e-11
-1.401933322e-11
3.493051026e-11
9.887837493e-11
1.408768799e-10
1.088816378e-10
7.505629079e-11
1.600777162e-10
5.92240489e-10
-8.475045517e-10
-1.361531627e-10
1.152919914e-10
-7.367326864e-11
-2.518499899e-10
-8.605732741e-11
8.119556958e-16
2.865490302e-06
2.069157369e-05
2.290939593e-05
1.57079147e-05
5.384783618e-06
2.356643068e-06
-4.040730814e-06
-8.185098392e-06
-1.030934547e-05
-1.157611318e-05
-1.210226643e-05
-1.2887716e-05
-1.339059232e-05
-1.435247756e-05
-1.657164756e-05
-8.312175017e-06
-5.318164123e-08
-5.282241629e-08
-4.642556091e-08
-3.808255328e-08
-2.973528823e-08
-2.2307537e-08
-1.604285273e-08
-1.091932522e-08
-6.821471383e-09
-3.612610018e-09
-1.166577416e-09
6.243790886e-10
1.845195008e-09
2.562048102e-09
2.821753198e-09
2.656388925e-09
2.081493014e-09
1.098665249e-09
-3.06119706e-10
-2.161316242e-09
-4.51043001e-09
-7.411370673e-09
-1.093792864e-08
-1.517944683e-08
-2.024373963e-08
-2.625570177e-08
-3.335920674e-08
-4.171573496e-08
-5.15085716e-08
-6.294472517e-08
-7.626173418e-08
-9.172771214e-08
-1.09639661e-07
-1.303143748e-07
-1.540834328e-07
-1.812946256e-07
-2.123274438e-07
-2.476086465e-07
-2.876206162e-07
-3.328849069e-07
-3.839363533e-07
-4.41300949e-07
-5.055064351e-07
-5.771104413e-07
-6.567318648e-07
-7.450424469e-07
-8.427319801e-07
-9.504587276e-07
-1.06883266e-06
-1.198417984e-06
-1.339739581e-06
-1.493244402e-06
-1.659219803e-06
-1.837660339e-06
-2.028094919e-06
-2.22928848e-06
-2.438761154e-06
-2.651996005e-06
-2.861354813e-06
-3.05463212e-06
-3.213251938e-06
-3.309999769e-06
-3.306476036e-06
-3.150867893e-06
-2.777267616e-06
-2.106812761e-06
-1.044315979e-06
5.421334845e-07
2.85673265e-06
6.036495848e-06
9.902980577e-06
1.255603376e-05
1.556763009e-05
2.466428848e-05
3.036933875e-05
5.073435739e-05
3.371574719e-05
3.848900745e-06
-1.40727397e-10
2.022547336e-10
-3.598283051e-12
4.650615851e-10
2.639220831e-10
7.732912745e-11
3.135924088e-12
-8.666749441e-11
-1.62850632e-10
-1.562415345e-10
-8.328393676e-11
-9.629545709e-12
4.072994416e-11
1.092447873e-10
1.834480164e-10
1.386936522e-10
1.333621092e-10
3.988604241e-10
-6.105572197e-10
-2.42192491e-10
5.184364767e-11
6.25441413e-11
-1.841764094e-11
2.964956041e-15
3.64203184e-06
2.60330149e-05
3.925510757e-05
2.197225039e-05
1.521666553e-05
7.806788572e-06
4.874789591e-06
1.887145527e-06
-2.62126252e-06
-6.48686319e-06
-8.819232783e-06
-1.047788555e-05
-1.18930365e-05
-1.31547884e-05
-1.415382949e-05
-1.601195477e-05
-1.884293467e-05
-1.000085708e-05
-2.887894665e-08
-3.171281921e-08
-2.995062342e-08
-2.588902809e-08
-2.090732424e-08
-1.595544452e-08
-1.14596903e-08
-7.590234415e-09
-4.384171932e-09
-1.815919102e-09
1.649058019e-10
1.613427262e-09
2.580282367e-09
3.10695797e-09
3.224948953e-09
2.953657415e-09
2.300978243e-09
1.261619179e-09
-1.830672034e-10
-2.06575474e-09
-4.432786117e-09
-7.345137635e-09
-1.087850043e-08
-1.5125126e-08
-2.019385639e-08
-2.621205549e-08
-3.332556043e-08
-4.170069337e-08
-5.15264515e-08
-6.301885837e-08
-7.642360055e-08
-9.201724628e-08
-1.101022333e-07
-1.310018762e-07
-1.550575234e-07
-1.826365811e-07
-2.141465806e-07
-2.500495491e-07
-2.908588319e-07
-3.371206016e-07
-3.893876666e-07
-4.482133887e-07
-5.141689854e-07
-5.878775503e-07
-6.70024445e-07
-7.613350832e-07
-8.625183098e-07
-9.742230771e-07
-1.097021571e-06
-1.231423001e-06
-1.377872239e-06
-1.536699002e-06
-1.707990654e-06
-1.891396072e-06
-2.08583212e-06
-2.289071392e-06
-2.497101406e-06
-2.703246289e-06
-2.896985898e-06
-3.062536804e-06
-3.177165509e-06
-3.20933199e-06
-3.116809953e-06
-2.845278033e-06
-2.327940922e-06
-1.48649403e-06
-2.326025234e-07
1.527743037e-06
3.871678002e-06
6.76441754e-06
9.957824724e-06
1.290989043e-05
1.651969047e-05
2.492374278e-05
2.729578192e-05
3.772065491e-05
3.403760346e-05
5.066209838e-05
2.94444955e-05
-4.168540148e-06
-1.073987222e-06
1.887374266e-10
2.907612481e-11
-7.070379362e-11
-9.150026978e-11
-1.492892712e-10
-1.990302251e-10
-1.70387565e-10
-8.40212772e-11
-1.567235074e-11
4.303107857e-11
1.301419134e-10
1.888021655e-10
1.405460319e-10
1.464911264e-10
7.658111487e-11
-3.224446863e-11
7.207509361e-11
5.901561659e-16
-1.860220595e-06
-4.876200182e-06
2.25172736e-05
3.898817121e-05
2.420436909e-05
2.780549907e-05
1.815467603e-05
1.633447142e-05
7.927403412e-06
4.426028217e-06
1.32683147e-06
-1.972817069e-06
-5.248357749e-06
-7.784700692e-06
-9.869664247e-06
-1.153997442e-05
-1.311870116e-05
-1.467781596e-05
-1.707724432e-05
-2.03816602e-05
-1.123799905e-05
-1.122940686e-08
-1.559583586e-08
-1.646092217e-08
-1.518962773e-08
-1.266871881e-08
-9.712706697e-09
-6.763143962e-09
-4.064300677e-09
-1.736064661e-09
1.747941884e-10
1.66209393e-09
2.738151856e-09
3.422789751e-09
3.734952292e-09
3.689511501e-09
3.294046175e-09
2.547089842e-09
1.436387865e-09
-6.22136734e-11
-1.985435174e-09
-4.383211966e-09
-7.319260733e-09
-1.087196087e-08
-1.513528157e-08
-2.021997073e-08
-2.62550221e-08
-3.338866438e-08
-4.179086632e-08
-5.165620492e-08
-6.320684434e-08
-7.669460909e-08
-9.23997594e-08
-1.10627505e-07
-1.31704124e-07
-1.559792642e-07
-1.838358081e-07
-2.157044508e-07
-2.52070384e-07
-2.934648616e-07
-3.404425907e-07
-3.935650602e-07
-4.534038806e-07
-5.205690899e-07
-5.957339265e-07
-6.796335845e-07
-7.730204432e-07
-8.766073596e-07
-9.910249323e-07
-1.116822111e-06
-1.254488918e-06
-1.404463198e-06
-1.567071834e-06
-1.742378631e-06
-1.929925584e-06
-2.128374191e-06
-2.334994779e-06
-2.544987308e-06
-2.750551015e-06
-2.939734774e-06
-3.095026873e-06
-3.191744713e-06
-3.196249809e-06
-3.064238269e-06
-2.739471792e-06
-2.153514116e-06
-1.227207721e-06
1.23991832e-07
1.974438334e-06
4.350271456e-06
7.165924448e-06
1.021711443e-05
1.335952904e-05
1.717737979e-05
2.276452978e-05
2.450141145e-05
2.491173042e-05
2.199079458e-05
2.023624547e-05
2.483297087e-06
2.566835044e-05
8.100938266e-05
6.68208618e-05
9.343289033e-11
-4.56778676e-11
-1.096078528e-10
-1.739720079e-10
-2.125718454e-10
-1.712594178e-10
-8.309843754e-11
-1.220942139e-11
4.6222998e-11
1.41841409e-10
1.923347055e-10
1.519765911e-10
2.325799124e-10
2.680855083e-10
4.226688891e-10
-1.727269856e-10
6.704950471e-05
7.582921155e-05
2.014563211e-05
-7.399059639e-06
1.033446828e-05
1.213459145e-05
1.506144502e-05
1.496286073e-05
1.339545816e-05
7.985688006e-06
4.048180268e-06
1.083489103e-06
-1.891946637e-06
-4.899005055e-06
-7.425703456e-06
-9.416644059e-06
-1.152519343e-05
-1.33838774e-05
-1.535098551e-05
-1.754429334e-05
-2.129393227e-05
-1.1950775e-05
1.966589536e-09
-3.176807805e-09
-5.580527877e-09
-6.125807771e-09
-5.356565121e-09
-3.937815307e-09
-2.262644e-09
-5.849503567e-10
9.401000581e-10
2.22566551e-09
3.227982003e-09
3.928612065e-09
4.322295287e-09
4.409056664e-09
4.188835712e-09
3.657687669e-09
2.805159541e-09
1.61186724e-09
4.830464033e-11
-1.926617118e-09
-4.366208246e-09
-7.337189193e-09
-1.092029709e-08
-1.521147408e-08
-2.032314986e-08
-2.63855277e-08
-3.354920659e-08
-4.198707316e-08
-5.189762036e-08
-6.350722964e-08
-7.707055066e-08
-9.28689264e-08
-1.1120704e-07
-1.324118659e-07
-1.568381351e-07
-1.848802529e-07
-2.169837655e-07
-2.536462021e-07
-2.954023579e-07
-3.428041703e-07
-3.964116558e-07
-4.568092222e-07
-5.246347138e-07
-6.005974955e-07
-6.85457435e-07
-7.799739413e-07
-8.848469041e-07
-1.000691188e-06
-1.128052985e-06
-1.267453282e-06
-1.419408826e-06
-1.584374649e-06
-1.762570534e-06
-1.953694867e-06
-2.156522071e-06
-2.368394509e-06
-2.584543235e-06
-2.797228505e-06
-2.994609673e-06
-3.159329868e-06
-3.2667636e-06
-3.283063471e-06
-3.163247814e-06
-2.849749873e-06
-2.271721123e-06
-1.345386272e-06
2.260987258e-08
1.919948886e-06
4.38359178e-06
7.315803172e-06
1.046371689e-05
1.362502122e-05
1.736932426e-05
2.276495699e-05
2.427734223e-05
2.438794305e-05
2.104747837e-05
1.956865855e-05
1.014020838e-06
2.58495591e-05
8.00038366e-05
6.761583547e-05
2.603853915e-10
-1.223699381e-11
-1.05827515e-10
-1.796301305e-10
-2.136016088e-10
-1.674189789e-10
-7.96002906e-11
-1.211685895e-11
4.82269057e-11
1.371886631e-10
1.820255839e-10
1.464167987e-10
2.010507126e-10
4.414754441e-10
-2.447011725e-10
1.292454883e-10
6.660706785e-05
7.611830148e-05
1.971380581e-05
-7.657700818e-06
9.302366767e-06
1.131823746e-05
1.467937767e-05
1.435677695e-05
1.261560493e-05
7.102509949e-06
3.587574602e-06
1.089546883e-06
-1.864749594e-06
-4.69284485e-06
-7.368092109e-06
-9.47479128e-06
-1.164293143e-05
-1.350555434e-05
-1.510619065e-05
-1.765624144e-05
-2.143986755e-05
-1.207432492e-05
1.198817102e-08
6.446812546e-09
3.121916088e-09
1.388826097e-09
9.279671012e-10
1.193848608e-09
1.857280204e-09
2.68280179e-09
3.508527013e-09
4.229560884e-09
4.780595132e-09
5.122541388e-09
5.232312791e-09
5.094629978e-09
4.696952072e-09
4.025138165e-09
3.060447806e-09
1.777014282e-09
1.401024216e-10
-1.895417473e-09
-4.386318272e-09
-7.402139344e-09
-1.10260313e-08
-1.535575883e-08
-2.050504044e-08
-2.660563445e-08
-3.380930915e-08
-4.22913971e-08
-5.225270421e-08
-6.392146931e-08
-7.755259949e-08
-9.342556549e-08
-1.118420428e-07
-1.331275767e-07
-1.576390493e-07
-1.857767108e-07
-2.179916675e-07
-2.547813604e-07
-2.966723726e-07
-3.442037891e-07
-3.979281636e-07
-4.584343902e-07
-5.263756902e-07
-6.024745903e-07
-6.874922265e-07
-7.821709699e-07
-8.871877995e-07
-1.003144763e-06
-1.130610609e-06
-1.270188747e-06
-1.422556625e-06
-1.588412099e-06
-1.768294909e-06
-1.962291048e-06
-2.169664329e-06
-2.388402613e-06
-2.614663289e-06
-2.842012095e-06
-3.060353966e-06
-3.254377639e-06
-3.401507122e-06
-3.469528718e-06
-3.414323547e-06
-3.178169901e-06
-2.688504454e-06
-1.855409231e-06
-5.659565536e-07
1.317868729e-06
3.919984594e-06
7.190021539e-06
1.071082541e-05
1.376650777e-05
1.716944354e-05
2.513946833e-05
2.605434004e-05
3.610018004e-05
3.146291595e-05
4.941106862e-05
2.826462432e-05
-4.858981743e-06
-2.077861221e-06
4.222041601e-10
1.274500226e-10
-9.333326175e-12
-8.796543295e-11
-1.662940967e-10
-2.000106176e-10
-1.542197832e-10
-6.991762391e-11
-7.254781474e-12
4.991289236e-11
1.283766404e-10
1.60982561e-10
1.156357454e-10
1.973400985e-10
5.522147001e-11
2.755449933e-10
-6.103110812e-10
-1.088652515e-10
-1.942854567e-06
-4.754228398e-06
2.089505301e-05
3.704827483e-05
2.009534196e-05
2.440820623e-05
1.563761486e-05
1.424663925e-05
6.252460948e-06
3.454234473e-06
9.917054613e-07
-2.01919474e-06
-5.030280598e-06
-7.768823176e-06
-9.65115858e-06
-1.165432957e-05
-1.330614342e-05
-1.530275545e-05
-1.730090914e-05
-2.083053889e-05
-1.159039988e-05
1.964048876e-08
1.391241015e-08
1.003284249e-08
7.521903704e-09
6.204683864e-09
5.621849224e-09
5.502446801e-09
5.639142882e-09
5.877651674e-09
6.108430064e-09
6.256195418e-09
6.269775163e-09
6.113556583e-09
5.761331925e-09
5.190516016e-09
4.378430439e-09
3.299260724e-09
1.921380082e-09
2.05345369e-10
-1.897702694e-09
-4.447865517e-09
-7.51746843e-09
-1.11919175e-08
-1.557060243e-08
-2.076843033e-08
-2.691795419e-08
-3.41722337e-08
-4.270746023e-08
-5.272554088e-08
-6.445425523e-08
-7.814644009e-08
-9.407736032e-08
-1.125438876e-07
-1.338674361e-07
-1.58403297e-07
-1.865506552e-07
-2.187570225e-07
-2.555086252e-07
-2.973134957e-07
-3.446901347e-07
-3.981765608e-07
-4.583562085e-07
-5.258794431e-07
-6.014583227e-07
-6.858271253e-07
-7.796908763e-07
-8.836910973e-07
-9.984199589e-07
-1.124489165e-06
-1.262624863e-06
-1.4137238e-06
-1.57880461e-06
-1.758833346e-06
-1.954471236e-06
-2.165790276e-06
-2.391984985e-06
-2.631012833e-06
-2.879026303e-06
-3.129319278e-06
-3.370581488e-06
-3.584426673e-06
-3.74242675e-06
-3.803262523e-06
-3.710877409e-06
-3.393778412e-06
-2.761963755e-06
-1.688216326e-06
3.800086128e-08
2.74103848e-06
6.621520468e-06
1.116489955e-05
1.415039104e-05
1.687674132e-05
2.458572275e-05
2.85190092e-05
4.832857424e-05
3.190794326e-05
2.796160009e-06
-9.623346162e-11
1.313974504e-10
2.047087847e-10
2.472372003e-10
1.290478767e-10
4.107122476e-11
-4.440866646e-11
-1.329178526e-10
-1.724496395e-10
-1.346358456e-10
-6.132718664e-11
-2.032549184e-12
5.072976786e-11
1.117705328e-10
1.351256475e-10
1.037382028e-10
1.389777529e-10
2.050942683e-10
-1.984477346e-10
-1.383452027e-10
-8.986907923e-11
2.192984172e-11
-9.571183681e-11
-5.953272164e-11
2.363289365e-06
2.232922165e-05
3.374751556e-05
1.741005532e-05
1.263284649e-05
4.838418733e-06
3.729754154e-06
1.703252947e-06
-2.114423963e-06
-5.678853048e-06
-8.31213274e-06
-1.016630637e-05
-1.187341949e-05
-1.325008666e-05
-1.473877245e-05
-1.64389863e-05
-1.968895515e-05
-1.061514375e-05
2.546706796e-08
1.967771589e-08
1.547293679e-08
1.245689003e-08
1.055067127e-08
9.352764064e-09
8.64001173e-09
8.233684551e-09
7.992637325e-09
7.810812975e-09
7.609819024e-09
7.332284533e-09
6.935224034e-09
6.384463408e-09
5.649864956e-09
4.702166002e-09
3.509670325e-09
2.035802957e-09
2.372806816e-10
-1.938518802e-09
-4.554689627e-09
-7.686255499e-09
-1.142065257e-08
-1.585873881e-08
-2.111610205e-08
-2.732599506e-08
-3.464180118e-08
-4.324016182e-08
-5.332211114e-08
-6.511348081e-08
-7.886269625e-08
-9.483920735e-08
-1.133328017e-07
-1.346586078e-07
-1.591656091e-07
-1.872453526e-07
-2.193318752e-07
-2.558905319e-07
-2.974024448e-07
-3.443592067e-07
-3.972764999e-07
-4.567184011e-07
-5.233111834e-07
-5.977284614e-07
-6.806515127e-07
-7.727254918e-07
-8.745438108e-07
-9.866867283e-07
-1.109817823e-06
-1.24480162e-06
-1.392770341e-06
-1.55507785e-06
-1.733155554e-06
-1.928339336e-06
-2.1417546e-06
-2.374270341e-06
-2.626436622e-06
-2.898146112e-06
-3.187663686e-06
-3.489761752e-06
-3.792856518e-06
-4.07525259e-06
-4.300883755e-06
-4.416348031e-06
-4.352736979e-06
-4.031884495e-06
-3.349324914e-06
-2.079413767e-06
4.543088882e-07
5.137634624e-06
1.181503033e-05
1.416075358e-05
2.710380495e-05
3.657094183e-05
2.812512952e-05
9.378912647e-07
3.363158397e-10
2.149133227e-10
4.814994826e-11
6.013455322e-11
2.277893532e-10
1.924306054e-10
1.344411175e-10
7.358606124e-11
-1.245920392e-11
-1.034575523e-10
-1.456398841e-10
-1.151466339e-10
-4.924006032e-11
2.798547795e-13
4.204364255e-11
9.747801692e-11
1.168291125e-10
5.769378242e-11
6.923730973e-11
1.008417073e-10
2.293819055e-11
-2.083904109e-10
-1.978309147e-10
-1.519984454e-10
-9.316300266e-11
-3.133195894e-10
-2.210383332e-10
-5.237898408e-11
3.492538536e-07
1.897285957e-05
2.244937588e-05
1.667819005e-05
5.080233042e-06
3.784411443e-06
-2.330667863e-06
-6.931172751e-06
-9.296804508e-06
-1.105824786e-05
-1.228482199e-05
-1.297147164e-05
-1.391030644e-05
-1.525393391e-05
-1.78857309e-05
-9.146660128e-06
2.98529738e-08
2.408427857e-08
1.970324985e-08
1.636795813e-08
1.406428356e-08
1.242894828e-08
1.127554513e-08
1.045042642e-08
9.827471899e-09
9.307276767e-09
8.812723933e-09
8.284416598e-09
7.675063901e-09
6.94538595e-09
6.059875122e-09
4.984211278e-09
3.682007827e-09
2.113118486e-09
2.302746704e-10
-2.022063402e-09
-4.710128353e-09
-7.911352462e-09
-1.17150301e-08
-1.622284629e-08
-2.155112807e-08
-2.783320235e-08
-3.522262171e-08
-4.389521564e-08
-5.405039559e-08
-6.590999183e-08
-7.971680082e-08
-9.573231399e-08
-1.14237719e-07
-1.355387329e-07
-1.599738424e-07
-1.879197478e-07
-2.197890828e-07
-2.560180317e-07
-2.970539994e-07
-3.433547829e-07
-3.954039423e-07
-4.537297697e-07
-5.189103695e-07
-5.915538185e-07
-6.722614334e-07
-7.615961995e-07
-8.600865935e-07
-9.682894722e-07
-1.086911176e-06
-1.216937877e-06
-1.359698515e-06
-1.516827023e-06
-1.690166331e-06
-1.881728597e-06
-2.093804524e-06
-2.329240651e-06
-2.591732006e-06
-2.885776122e-06
-3.215956575e-06
-3.58532669e-06
-3.992672847e-06
-4.42775397e-06
-4.863789596e-06
-5.24893187e-06
-5.507218806e-06
-5.563790456e-06
-5.405250511e-06
-4.948936422e-06
-3.173259346e-06
2.022749836e-06
1.192791367e-05
1.673864838e-05
3.006414817e-05
7.178605465e-06
1.154616341e-11
1.193688201e-10
1.729941586e-10
1.874786835e-10
1.245283988e-10
1.412798807e-10
1.488828615e-10
1.583702844e-10
1.422971607e-10
9.626538732e-11
1.597343295e-11
-7.018860571e-11
-1.140791472e-10