/*--------------------------------*- C++ -*----------------------------------*\
  =========                 |
  \\      /  F ield         | OpenFOAM: The Open Source CFD Toolbox
   \\    /   O peration     | Website:  https://openfoam.org
    \\  /    A nd           | Version:  6
     \\/     M anipulation  |
\*---------------------------------------------------------------------------*/
FoamFile
{
    version     2.0;
    format      ascii;
    class       surfaceScalarField;
    location    "0.0048";
    object      phi;
}
// * * * * * * * * * * * * * * * * * * * * * * * * * * * * * * * * * * * * * //

dimensions      [0 3 -1 0 0 0 0];

internalField   nonuniform List<scalar> 
19000
(
1.260305991e-18
-1.962277502e-22
1.262872335e-18
-5.954154552e-22
1.26583861e-18
-1.003907051e-21
1.269267173e-18
-1.408733156e-21
1.273095649e-18
-1.809315347e-21
1.277317671e-18
-2.204250219e-21
1.281924671e-18
-2.592551486e-21
1.286906205e-18
-2.972553147e-21
1.292249825e-18
-3.343057352e-21
1.297941556e-18
-3.702166312e-21
1.303965557e-18
-4.048452986e-21
1.310304422e-18
-4.379759411e-21
1.316938687e-18
-4.694388232e-21
1.323847e-18
-4.989877834e-21
1.3310055e-18
-5.264222318e-21
1.338387923e-18
-5.514612437e-21
1.34596494e-18
-5.738686418e-21
1.353704288e-18
-5.933233085e-21
1.361570137e-18
-6.095472674e-21
1.369523234e-18
-6.221732079e-21
1.37752023e-18
-6.308774011e-21
1.385513772e-18
-6.352447835e-21
1.393451752e-18
-6.349069803e-21
1.401277413e-18
-6.294036944e-21
1.408928675e-18
-6.183237723e-21
1.416338397e-18
-6.01162727e-21
1.423433844e-18
-5.774684885e-21
1.43013704e-18
-5.466975633e-21
1.43636422e-18
-5.083690849e-21
1.442026156e-18
-4.619209657e-21
1.447027619e-18
-4.068711215e-21
1.451267868e-18
-3.426699271e-21
1.454640404e-18
-2.688660874e-21
1.457033849e-18
-1.849550923e-21
1.45833205e-18
-9.055274e-22
1.458415256e-18
1.47552518e-22
1.457160422e-18
1.312278813e-21
1.454442612e-18
2.591178714e-21
1.4501356e-18
3.984771637e-21
1.444113735e-18
5.493111003e-21
1.436253105e-18
7.113798703e-21
1.426434052e-18
8.843603856e-21
1.414542937e-18
1.067642591e-20
1.400475216e-18
1.260496463e-20
1.384137659e-18
1.461860388e-20
1.365451796e-18
1.670512676e-20
1.344356398e-18
1.884854932e-20
1.320811111e-18
2.1030952e-20
1.294798973e-18
2.32303417e-20
1.266330019e-18
2.54226952e-20
1.235443655e-18
2.757993219e-20
1.202212091e-18
2.967223391e-20
1.166742398e-18
3.166615405e-20
1.129179462e-18
3.35272225e-20
1.089707208e-18
3.521816608e-20
1.04855034e-18
3.670177346e-20
1.005973893e-18
3.793920995e-20
9.622830795e-19
3.889314923e-20
9.178208429e-19
3.952620511e-20
8.729659027e-19
3.980435171e-20
8.281286078e-19
3.969543271e-20
7.837474024e-19
3.917275249e-20
7.402828784e-19
3.821345671e-20
6.982122873e-19
3.68020377e-20
6.580214805e-19
3.492834627e-20
6.201976505e-19
3.259083706e-20
5.852200775e-19
2.979411964e-20
5.535526327e-19
2.655189466e-20
5.256350117e-19
2.288399355e-20
5.018763362e-19
1.881889601e-20
4.826475895e-19
1.439012413e-20
4.682765686e-19
9.638218635e-21
4.590417316e-19
4.606477566e-21
4.551690691e-19
-6.574815394e-22
4.568284069e-19
-6.106332615e-21
4.641334291e-19
-1.169151972e-20
4.771413478e-19
-1.736781852e-20
4.958562185e-19
-2.309154895e-20
5.202311913e-19
-2.882483985e-20
5.501735839e-19
-3.45334045e-20
5.855478431e-19
-4.019028603e-20
6.261805446e-19
-4.577293218e-20
6.718625271e-19
-5.126607868e-20
7.223526179e-19
-5.665785252e-20
7.773780073e-19
-6.194163393e-20
8.366358881e-19
-6.711132497e-20
8.997913051e-19
-7.216258818e-20
9.66475952e-19
-7.708792784e-20
1.036282909e-18
-8.187802625e-20
1.108762431e-18
-8.651737586e-20
1.183414117e-18
-9.098625242e-20
1.259681117e-18
-9.525730871e-20
1.336942008e-18
-9.929840836e-20
1.414506058e-18
-1.03070297e-19
1.491607372e-18
-1.065302849e-19
1.567403298e-18
-1.09630917e-19
1.640972275e-18
-1.123242179e-19
1.711316272e-18
-1.145609487e-19
1.777362807e-18
-1.162948369e-19
1.837971372e-18
-1.174817602e-19
1.891938829e-18
-1.180832917e-19
1.938007915e-18
-1.180653639e-19
1.974873459e-18
-1.17400784e-19
2.001190723e-18
-1.160673181e-19
2.015581931e-18
-1.140493264e-19
2.016646117e-18
-1.113354692e-19
2.002968361e-18
-1.079196785e-19
1.973131528e-18
-1.037986627e-19
1.925724623e-18
-9.897236445e-20
1.85935092e-18
-9.344164926e-20
1.772632527e-18
-8.720878627e-20
1.664215937e-18
-8.027571368e-20
1.532776759e-18
-7.264435921e-20
1.377027372e-18
-6.431586445e-20
1.195734243e-18
-5.529039967e-20
9.877489661e-19
-4.556836226e-20
7.519415414e-19
-3.514724274e-20
4.865401932e-19
-2.402826526e-20
1.775732472e-19
-1.221273709e-20
5.648022801e-32
1.259211727e-18
-4.009248302e-22
1.261763891e-18
-1.207090686e-21
1.26474069e-18
-2.017315035e-21
1.26817414e-18
-2.825280116e-21
1.272010133e-18
-3.626055527e-21
1.276241068e-18
-4.416753667e-21
1.280859093e-18
-5.194138066e-21
1.285853293e-18
-5.955650007e-21
1.291212042e-18
-6.697902682e-21
1.296920907e-18
-7.418021137e-21
1.302964907e-18
-8.112194651e-21
1.30932619e-18
-8.777074891e-21
1.315986199e-18
-9.408306021e-21
1.322923145e-18
-1.000196333e-20
1.330114122e-18
-1.055305281e-20
1.33753245e-18
-1.105698446e-20
1.345149813e-18
-1.150802555e-20
1.352933557e-18
-1.190080509e-20
1.36084892e-18
-1.222872531e-20
1.368856258e-18
-1.248551967e-20
1.376913316e-18
-1.266364405e-20
1.384972319e-18
-1.275590985e-20
1.392982263e-18
-1.27538458e-20
1.400885937e-18
-1.264937917e-20
1.408622378e-18
-1.243314054e-20
1.416123951e-18
-1.209618775e-20
1.423319007e-18
-1.162828514e-20
1.430128948e-18
-1.101973435e-20
1.436470961e-18
-1.025968473e-20
1.442254983e-18
-9.338093157e-21
1.447386554e-18
-8.244028379e-21
1.451763861e-18
-6.967703727e-21
1.455280979e-18
-5.498726447e-21
1.457825169e-18
-3.828209039e-21
1.459280547e-18
-1.947033812e-21
1.459525554e-18
1.51864106e-22
1.458436945e-18
2.475151531e-21
1.4558874e-18
5.026634966e-21
1.451749967e-18
7.80891762e-21
1.44589604e-18
1.082085725e-20
1.438200496e-18
1.405931935e-20
1.42854018e-18
1.751659401e-20
1.416799755e-18
2.11822208e-20
1.402870607e-18
2.504030402e-20
1.386657278e-18
2.907137428e-20
1.368076648e-18
3.324960289e-20
1.347064809e-18
3.754477273e-20
1.32357635e-18
4.191952454e-20
1.297591472e-18
4.633160449e-20
1.26911514e-18
5.073131248e-20
1.238184248e-18
5.50641932e-20
1.204866438e-18
5.926878957e-20
1.16926711e-18
6.327984375e-20
1.131527579e-18
6.70263674e-20
1.091831405e-18
7.043531747e-20
1.050401155e-18
7.34299422e-20
1.007503254e-18
7.593392702e-20
9.634426834e-19
7.787003337e-20
9.185660274e-19
7.91647753e-20
8.732541281e-19
7.974737205e-20
8.279235335e-19
7.95548595e-20
7.830172286e-19
7.853109343e-20
7.390043207e-19
7.663186809e-20
6.963684903e-19
7.382346744e-20
6.556056766e-19
7.008732969e-20
6.172105282e-19
6.541782591e-20
5.816730589e-19
5.982628392e-20
5.49464632e-19
5.333788333e-20
5.210352063e-19
4.599488408e-20
4.968001624e-19
3.78524011e-20
4.771388673e-19
2.898053222e-20
4.623827291e-19
1.945881056e-20
4.528154472e-19
9.377212435e-21
4.486630688e-19
-1.170390642e-21
4.500970543e-19
-1.208576274e-20
4.57227594e-19
-2.327309601e-20
4.701102969e-19
-3.463835431e-20
4.887428346e-19
-4.60956868e-20
5.130743742e-19
-5.756613161e-20
5.430040675e-19
-6.898320695e-20
5.783913939e-19
-8.029050603e-20
6.190547541e-19
-9.144580816e-20
6.647811162e-19
-1.024168798e-19
7.153233766e-19
-1.131835119e-19
7.704080494e-19
-1.237313043e-19
8.297302947e-19
-1.340519046e-19
8.929585786e-19
-1.441356772e-19
9.597265297e-19
-1.539714007e-19
1.029633976e-18
-1.635393265e-19
1.102235666e-18
-1.728117345e-19
1.177039399e-18
-1.817475308e-19
1.253493276e-18
-1.902944599e-19
1.330983296e-18
-1.983858143e-19
1.408821937e-18
-2.059445468e-19
1.486247866e-18
-2.128821687e-19
1.562418129e-18
-2.191045561e-19
1.63641156e-18
-2.245124615e-19
1.707225668e-18
-2.290080426e-19
1.77378428e-18
-2.324957903e-19
1.834939115e-18
-2.34888333e-19
1.889480633e-18
-2.361065121e-19
1.936142227e-18
-2.360834693e-19
1.973611422e-18
-2.347632768e-19
2.000534235e-18
-2.321031794e-19
2.015526103e-18
-2.280710277e-19
2.017178077e-18
-2.226460501e-19
2.004069906e-18
-2.158155597e-19
1.974778368e-18
-2.075747086e-19
1.927888678e-18
-1.979229511e-19
1.861999332e-18
-1.868634921e-19
1.775728927e-18
-1.744005207e-19
1.66771897e-18
-1.605390063e-19
1.536639018e-18
-1.452830026e-19
1.381192299e-18
-1.286357629e-19
1.20012748e-18
-1.105997082e-19
9.922659252e-19
-9.117709508e-20
7.563884698e-19
-7.037520691e-20
4.90615939e-19
-4.820925182e-20
1.795384496e-19
-2.475939294e-20
5.658355302e-32
1.257731696e-18
-6.069280025e-22
1.260281492e-18
-1.8232403e-21
1.263261527e-18
-3.040839792e-21
1.26670345e-18
-4.253761748e-21
1.270551217e-18
-5.456841965e-21
1.274797601e-18
-6.645157479e-21
1.279434018e-18
-7.81442426e-21
1.28445044e-18
-8.960008511e-21
1.289834733e-18
-1.007748834e-20
1.295573501e-18
-1.116182288e-20
1.301651321e-18
-1.220802725e-20
1.308051458e-18
-1.321037099e-20
1.314754946e-18
-1.416308964e-20
1.321741186e-18
-1.505958719e-20
1.328986897e-18
-1.589317028e-20
1.336466667e-18
-1.665622608e-20
1.344151854e-18
-1.734096938e-20
1.352011164e-18
-1.793859285e-20
1.360009539e-18
-1.844003043e-20
1.368108754e-18
-1.883510838e-20
1.376266238e-18
-1.911336866e-20
1.384435642e-18
-1.92632264e-20
1.392565604e-18
-1.92728436e-20
1.400600355e-18
-1.912926171e-20
1.408478538e-18
-1.881928438e-20
1.416133953e-18
-1.832858956e-20
1.423494437e-18
-1.764268024e-20
1.430482681e-18
-1.674605848e-20
1.437015077e-18
-1.562331313e-20
1.443002574e-18
-1.425836935e-20
1.448349563e-18
-1.263566733e-20
1.452954944e-18
-1.073940681e-20
1.456711255e-18
-8.554771912e-21
1.45950607e-18
-6.067199755e-21
1.461221395e-18
-3.263749541e-21
1.461735332e-18
-1.325197837e-22
1.460921688e-18
3.335765867e-21
1.458651968e-18
7.148215076e-21
1.454795346e-18
1.130806237e-20
1.449221217e-18
1.581514592e-20
1.441799713e-18
2.066418642e-20
1.432404886e-18
2.584531199e-20
1.420915757e-18
3.134227486e-20
1.407220058e-18
3.713295948e-20
1.391215715e-18
4.318749995e-20
1.372815088e-18
4.946880538e-20
1.351946808e-18
5.593070432e-20
1.328560372e-18
6.251869272e-20
1.302628146e-18
6.916833532e-20
1.274150075e-18
7.580647797e-20
1.243155594e-18
8.235012109e-20
1.209708219e-18
8.870824584e-20
1.173907088e-18
9.478124794e-20
1.135891072e-18
1.004634222e-19
1.095839412e-18
1.056429316e-19
1.053974647e-18
1.102049354e-19
1.010561584e-18
1.140321202e-19
9.659084118e-19
1.170085258e-19
9.203636403e-19
1.190207091e-19
8.743153096e-19
1.199622684e-19
8.281859439e-19
1.197354447e-19
7.824298079e-19
1.182559077e-19
7.375256358e-19
1.154541521e-19
6.939716185e-19
1.112798196e-19
6.522758009e-19
1.057022479e-19
6.129492152e-19
9.871386715e-20
5.764949969e-19
9.032960616e-20
5.434011561e-19
8.058912046e-20
5.141299623e-19
6.955475367e-20
4.891115881e-19
5.731217011e-20
4.687345822e-19
4.396642874e-20
4.533409515e-19
2.964073727e-20
4.432184133e-19
1.447069932e-20
4.385979357e-19
-1.398320439e-21
4.396490799e-19
-1.781788741e-20
4.464812207e-19
-3.463947625e-20
4.591426871e-19
-5.172105983e-20
4.776255469e-19
-6.892955658e-20
5.018676444e-19
-8.614656e-20
5.317594836e-19
-1.032695039e-19
5.671475034e-19
-1.202156098e-19
6.07841357e-19
-1.369206688e-19
6.536167673e-19
-1.533400579e-19
7.04221505e-19
-1.694442986e-19
7.593761166e-19
-1.852168463e-19
8.187769194e-19
-2.006469855e-19
8.82093163e-19
-2.157257788e-19
9.489659769e-19
-2.304382587e-19
1.019001503e-18
-2.447597416e-19
1.091766034e-18
-2.586494796e-19
1.166776208e-18
-2.720490828e-19
1.24349225e-18
-2.848790114e-19
1.321307848e-18
-2.970401044e-19
1.399544464e-18
-3.084134673e-19
1.477443822e-18
-3.188652576e-19
1.554165805e-18
-3.282496555e-19
1.628785536e-18
-3.364158449e-19
1.70029619e-18
-3.432124537e-19
1.767611389e-18
-3.484946866e-19
1.829572781e-18
-3.521279703e-19
1.884956514e-18
-3.539932108e-19
1.932483082e-18
-3.539882096e-19
1.970824594e-18
-3.520301383e-19
1.998614119e-18
-3.480545281e-19
2.014452949e-18
-3.420153355e-19
2.016921024e-18
-3.338820734e-19
2.004586661e-18
-3.236382242e-19
1.976018234e-18
-3.11277398e-19
1.929792299e-18
-2.96800976e-19
1.864500564e-18
-2.80214505e-19
1.778753621e-18
-2.615259454e-19
1.671184703e-18
-2.407433162e-19
1.540451722e-18
-2.178739462e-19
1.38524084e-18
-1.929236942e-19
1.204273261e-18
-1.658972196e-19
9.963192441e-19
-1.368007492e-19
7.600721757e-19
-1.056419775e-19
4.934839489e-19
-7.244554866e-20
1.806835176e-19
-3.723636335e-20
5.689878223e-32
1.255889057e-18
-8.148156372e-22
1.258439788e-18
-2.44578298e-21
1.261425993e-18
-4.075187601e-21
1.264879201e-18
-5.697443288e-21
1.268743421e-18
-7.306464518e-21
1.273010895e-18
-8.89647599e-21
1.277673382e-18
-1.046152832e-20
1.282720677e-18
-1.199583713e-20
1.288141293e-18
-1.349315768e-20
1.293921835e-18
-1.494717126e-20
1.300047668e-18
-1.635089837e-20
1.306502155e-18
-1.769713442e-20
1.313267211e-18
-1.897787679e-20
1.320322405e-18
-2.018479056e-20
1.327645426e-18
-2.130863177e-20
1.335211108e-18
-2.23397227e-20
1.342991886e-18
-2.32673513e-20
1.350956796e-18
-2.408024614e-20
1.359071945e-18
-2.4765975e-20
1.367299468e-18
-2.531145854e-20
1.375597977e-18
-2.570239302e-20
1.383921458e-18
-2.592382387e-20
1.392219729e-18
-2.595956753e-20
1.400437339e-18
-2.579280294e-20
1.408514113e-18
-2.540546757e-20
1.416384105e-18
-2.47788811e-20
1.42397621e-18
-2.389319464e-20
1.431213117e-18
-2.272813773e-20
1.438011955e-18
-2.126258939e-20
1.444283251e-18
-1.947545571e-20
1.449931722e-18
-1.734529121e-20
1.454855389e-18
-1.485124014e-20
1.458946634e-18
-1.197267924e-20
1.462091539e-18
-8.69027611e-21
1.464171194e-18
-4.985784318e-21
1.465061249e-18
-8.433441186e-22
1.464633511e-18
3.750514018e-21
1.462755833e-18
8.805372463e-21
1.459294213e-18
1.432684527e-20
1.454113197e-18
2.031502317e-20
1.447078593e-18
2.676440597e-20
1.438058402e-18
3.36622937e-20
1.426926096e-18
4.098867368e-20
1.413562028e-18
4.871448774e-20
1.397857258e-18
5.680147455e-20
1.379715451e-18
6.520040476e-20
1.35905725e-18
7.385106696e-20
1.335822572e-18
8.268073782e-20
1.309975333e-18
9.160459415e-20
1.281505868e-18
1.005246935e-19
1.250435708e-18
1.093310677e-19
1.216819815e-18
1.179013907e-19
1.180751079e-18
1.261028894e-19
1.14236196e-18
1.337927972e-19
1.101828178e-18
1.408211143e-19
1.05936909e-18
1.47031892e-19
1.015249865e-18
1.522669306e-19
9.697799749e-19
1.563679767e-19
9.233134152e-19
1.591814319e-19
8.762450566e-19
1.60561396e-19
8.290087216e-19
1.60375056e-19
7.820711553e-19
1.585059601e-19
7.359276467e-19
1.548592431e-19
6.910933742e-19
1.493642202e-19
6.480966334e-19
1.41978648e-19
6.074681348e-19
1.326900326e-19
5.697329397e-19
1.215184615e-19
5.35399142e-19
1.085161845e-19
5.049499507e-19
9.376848743e-20
4.788329643e-19
7.739091273e-20
4.57453345e-19
5.952758685e-20
4.411645776e-19
4.034578623e-20
4.30263808e-19
2.003186114e-20
4.249854632e-19
-1.216150146e-21
4.255002165e-19
-2.319387751e-20
4.319126707e-19
-4.569864589e-20
4.442644911e-19
-6.853483254e-20
4.625359064e-19
-9.152137804e-20
4.866520811e-19
-1.144960417e-19
5.164871306e-19
-1.373211472e-19
5.518722301e-19
-1.598852547e-19
5.926005179e-19
-1.82105413e-19
6.384350498e-19
-2.039246207e-19
6.89112402e-19
-2.253094537e-19
7.443480226e-19
-2.462430433e-19
8.038361462e-19
-2.667189281e-19
8.672505524e-19
-2.86731499e-19
9.342395478e-19
-3.062686963e-19
1.004421758e-18
-3.253029201e-19
1.07737676e-18
-3.43785535e-19
1.152637357e-18
-3.616408026e-19
1.229678141e-18
-3.787643175e-19
1.307907177e-18
-3.950216357e-19
1.386655797e-18
-4.102516036e-19
1.465173023e-18
-4.242699774e-19
1.542619669e-18
-4.368770754e-19
1.618067978e-18
-4.478647117e-19
1.69050179e-18
-4.570256294e-19
1.75882223e-18
-4.641607135e-19
1.821853644e-18
-4.690869218e-19
1.878353641e-18
-4.71641971e-19
1.927021727e-18
-4.716887814e-19
1.96650984e-18
-4.691164254e-19
1.995430472e-18
-4.638408209e-19
2.012366612e-18
-4.55802445e-19
2.015880833e-18
-4.449640859e-19
2.004527023e-18
-4.313065124e-19
1.976860472e-18
-4.148247312e-19
1.93144704e-18
-3.955230893e-19
1.866868067e-18
-3.73411743e-19
1.78172425e-18
-3.485029919e-19
1.674637207e-18
-3.208092037e-19
1.544250392e-18
-2.903410661e-19
1.389229942e-18
-2.571070748e-19
1.208265972e-18
-2.211141025e-19
1.000086333e-18
-1.823675501e-19
7.633092877e-19
-1.408773913e-19
4.958169907e-19
-9.664781067e-20
1.815752228e-19
-4.970722191e-20
5.726630712e-32
1.253676851e-18
-1.024980627e-21
1.256231477e-18
-3.075444742e-21
1.259226576e-18
-5.122338667e-21
1.262694618e-18
-7.159347591e-21
1.266579591e-18
-9.179850534e-21
1.27087399e-18
-1.117691715e-20
1.275569472e-18
-1.314357086e-20
1.280656316e-18
-1.507252385e-20
1.286123159e-18
-1.695628427e-20
1.291957295e-18
-1.878684056e-20
1.29814437e-18
-2.055578015e-20
1.304668579e-18
-2.225398824e-20
1.311512226e-18
-2.387179441e-20
1.318655825e-18
-2.539867983e-20
1.32607756e-18
-2.682343512e-20
1.333753332e-18
-2.813385483e-20
1.341656194e-18
-2.931688821e-20
1.349756372e-18
-3.035833071e-20
1.358020678e-18
-3.124298336e-20
1.366412499e-18
-3.195437318e-20
1.374891159e-18
-3.247496867e-20
1.383411905e-18
-3.278592305e-20
1.391925254e-18
-3.286731697e-20
1.400377028e-18
-3.269789542e-20
1.408707733e-18
-3.225531529e-20
1.416852626e-18
-3.151591902e-20
1.424741099e-18
-3.045507753e-20
1.432296748e-18
-2.904708527e-20
1.439436777e-18
-2.726565191e-20
1.446072162e-18
-2.508391189e-20
1.45210717e-18
-2.247500205e-20
1.457439729e-18
-1.941212366e-20
1.461961128e-18
-1.586922392e-20
1.465556569e-18
-1.182119819e-20
1.468105045e-18
-7.244801606e-21
1.469480123e-18
-2.119106422e-21
1.469550137e-18
3.573334625e-21
1.468179411e-18
9.845849626e-21
1.465228964e-18
1.670636118e-20
1.460558332e-18
2.415668766e-20
1.454026812e-18
3.219117846e-20
1.445495822e-18
4.07959265e-20
1.434830628e-18
4.994725337e-20
1.421903245e-18
5.961080013e-20
1.406594726e-18
6.973992147e-20
1.388798706e-18
8.027481371e-20
1.368424317e-18
9.114107759e-20
1.345400317e-18
1.02249199e-19
1.319678424e-18
1.134935804e-19
1.29123773e-18
1.247526643e-19
1.260088094e-18
1.358887102e-19
1.226274468e-18
1.467487812e-19
1.189879979e-18
1.571654703e-19
1.151029734e-18
1.669589453e-19
1.109893058e-18
1.75938754e-19
1.066686147e-18
1.839070699e-19
1.021672784e-18
1.906617368e-19
9.751651964e-19
1.960008227e-19
9.275226838e-19
1.997269415e-19
8.791501977e-19
2.016529523e-19
8.304944232e-19
2.016070763e-19
7.820396374e-19
1.994389531e-19
7.343008789e-19
1.950245448e-19
6.878169394e-19
1.882714876e-19
6.431408672e-19
1.791228285e-19
6.008308045e-19
1.675608766e-19
5.614389444e-19
1.536090613e-19
5.255015546e-19
1.37333548e-19
4.935277309e-19
1.18842401e-19
4.659898384e-19
9.828410063e-20
4.43313246e-19
7.584331216e-20
4.258684815e-19
5.173601902e-20
4.139635028e-19
2.620216801e-20
4.078393018e-19
-5.017062207e-22
4.076663461e-19
-2.81116257e-20
4.135447738e-19
-5.636455847e-20
4.25505413e-19
-8.500784848e-20
4.435142461e-19
-1.138071562e-19
4.674771938e-19
-1.425545959e-19
4.972477614e-19
-1.710743501e-19
5.32634304e-19
-1.992272742e-19
5.734091827e-19
-2.269117339e-19
6.193162391e-19
-2.540624612e-19
6.700785083e-19
-2.806451974e-19
7.254025198e-19
-3.066495167e-19
7.849812723e-19
-3.320784155e-19
8.484927658e-19
-3.569375813e-19
9.155967364e-19
-3.812232699e-19
9.859271608e-19
-4.049118961e-19
1.059083639e-18
-4.279502123e-19
1.13461973e-18
-4.502488645e-19
1.212031666e-18
-4.716780816e-19
1.290745905e-18
-4.920677764e-19
1.37010903e-18
-5.112102715e-19
1.449378589e-18
-5.288673171e-19
1.527718044e-18
-5.447788999e-19
1.604194161e-18
-5.586746048e-19
1.677779246e-18
-5.702848053e-19
1.747356012e-18
-5.793520649e-19
1.811726482e-18
-5.856402318e-19
1.869621993e-18
-5.889421232e-19
1.919714899e-18
-5.890839203e-19
1.960629136e-18
-5.859275554e-19
1.990950918e-18
-5.793700555e-19
2.009238405e-18
-5.693413138e-19
2.014032618e-18
-5.557995899e-19
2.003868417e-18
-5.387264568e-19
1.977285473e-18
-5.181206678e-19
1.932836008e-18
-4.939924955e-19
1.869089565e-18
-4.663583241e-19
1.784635019e-18
-4.352365845e-19
1.67808135e-18
-4.006445546e-19
1.548056675e-18
-3.625966029e-19
1.393206967e-18
-3.211034644e-19
1.212197154e-18
-2.761719321e-19
1.003717567e-18
-2.278075239e-19
7.663558846e-19
-1.760108207e-19
4.979360756e-19
-1.207916856e-19
1.82385076e-19
-6.213417788e-20
5.773684647e-32
1.25108824e-18
-1.23791443e-21
1.253648708e-18
-3.713814105e-21
1.25665556e-18
-6.184530175e-21
1.260141825e-18
-8.642953144e-21
1.264051993e-18
-1.108159085e-20
1.268378705e-18
-1.349265385e-20
1.27311399e-18
-1.586800696e-20
1.27824838e-18
-1.819923279e-20
1.283771065e-18
-2.047744149e-20
1.289669782e-18
-2.269328223e-20
1.295930911e-18
-2.483673459e-20
1.302539241e-18
-2.689712785e-20
1.309477957e-18
-2.886293844e-20
1.316728303e-18
-3.07218202e-20
1.324269484e-18
-3.246040384e-20
1.332078284e-18
-3.406431839e-20
1.340128929e-18
-3.55179748e-20
1.348392667e-18
-3.680459505e-20
1.356837598e-18
-3.79060082e-20
1.365428197e-18
-3.880271777e-20
1.374125115e-18
-3.947373838e-20
1.382884701e-18
-3.989669472e-20
1.391658826e-18
-4.004766568e-20
1.400394426e-18
-3.990129547e-20
1.409033342e-18
-3.94306536e-20
1.417511843e-18
-3.860740919e-20
1.425760438e-18
-3.740180357e-20
1.433703384e-18
-3.578296058e-20
1.441258552e-18
-3.371899926e-20
1.448337046e-18
-3.117746551e-20
1.454843228e-18
-2.81255278e-20
1.460674493e-18
-2.453052181e-20
1.465721435e-18
-2.036028249e-20
1.46986773e-18
-1.558390235e-20
1.472990457e-18
-1.01723308e-20
1.474960214e-18
-4.099418795e-21
1.475641812e-18
2.657233034e-21
1.474894891e-18
1.011503406e-20
1.47257519e-18
1.828541614e-20
1.468535732e-18
2.717246028e-20
1.462628626e-18
3.677176303e-20
1.454706727e-18
4.706886371e-20
1.444625945e-18
5.803790415e-20
1.432247454e-18
6.963987483e-20
1.417440684e-18
8.182121111e-20
1.400086286e-18
9.451209979e-20
1.380079904e-18
1.076253206e-19
1.357335846e-18
1.210549502e-19
1.331791427e-18
1.346757443e-19
1.303410992e-18
1.483425243e-19
1.272190439e-18
1.618904044e-19
1.238161211e-18
1.751351457e-19
1.201394594e-18
1.878745426e-19
1.162005229e-18
1.99890078e-19
1.120154655e-18
2.109497302e-19
1.076053723e-18
2.208111833e-19
1.029964702e-18
2.292262922e-19
9.822018696e-19
2.35945965e-19
9.331314299e-19
2.407262721e-19
8.831695279e-19
2.433347309e-19
8.327792474e-19
2.435574351e-19
7.82465408e-19
2.412058099e-19
7.32768243e-19
2.36123624e-19
6.84254941e-19
2.281930158e-19
6.375103924e-19
2.173402499e-19
5.931262723e-19
2.035399528e-19
5.516899469e-19
1.868185559e-19
5.137723428e-19
1.672556251e-19
4.799163116e-19
1.449838344e-19
4.506246419e-19
1.201862876e-19
4.263494045e-19
9.309222353e-20
4.074819069e-19
6.397008558e-20
3.94345082e-19
3.311933771e-20
3.871874953e-19
8.603182847e-22
3.861805465e-19
-3.247635111e-20
3.914176366e-19
-6.65614802e-20
4.02916519e-19
-1.010785933e-19
4.206233785e-19
-1.357353782e-19
4.44419766e-19
-1.702735008e-19
4.741308399e-19
-2.044771119e-19
5.095357828e-19
-2.381780577e-19
5.50378373e-19
-2.712581235e-19
5.963779794e-19
-3.036467492e-19
6.472385168e-19
-3.353151721e-19
7.026554726e-19
-3.662662381e-19
7.623188998e-19
-3.965217556e-19
8.25913144e-19
-4.261073616e-19
8.931120289e-19
-4.550372274e-19
9.635710196e-19
-4.832990084e-19
1.036915734e-18
-5.108413504e-19
1.112728787e-18
-5.375641364e-19
1.190534835e-18
-5.633135005e-19
1.269786182e-18
-5.8788114e-19
1.349849151e-18
-6.110089921e-19
1.42999363e-18
-6.323980107e-19
1.509385848e-18
-6.51720927e-19
1.587086099e-18
-6.686367588e-19
1.662050727e-18
-6.828064608e-19
1.733138971e-18
-6.939072918e-19
1.799122982e-18
-7.016454009e-19
1.858700581e-18
-7.057651049e-19
1.910508439e-18
-7.060549895e-19
1.953135224e-18
-7.023500524e-19
1.985133399e-18
-6.945308926e-19
2.005030726e-18
-6.825197096e-19
2.0113415e-18
-6.662743903e-19
2.002578323e-18
-6.457810428e-19
1.97726242e-18
-6.210462224e-19
1.93393104e-18
-5.920891625e-19
1.871140761e-18
-5.589352197e-19
1.787468449e-18
-5.216104819e-19
1.681510455e-18
-4.801380734e-19
1.551880289e-18
-4.345359743e-19
1.397206881e-18
-3.848160351e-19
1.216132547e-18
-3.309847331e-19
1.007328077e-18
-2.730421449e-19
7.693470091e-19
-2.109884094e-19
5.000177635e-19
-1.448068439e-19
1.831843184e-19
-7.45060809e-20
5.835796788e-32
1.248115305e-18
-1.454219473e-21
1.250683251e-18
-4.362435646e-21
1.253704318e-18
-7.26427497e-21
1.257212109e-18
-1.015165364e-20
1.261151589e-18
-1.30162766e-20
1.265515819e-18
-1.584942335e-20
1.270297177e-18
-1.86419995e-20
1.275486709e-18
-2.138444738e-20
1.281074108e-18
-2.406670942e-20
1.28704781e-18
-2.667808359e-20
1.293394879e-18
-2.920716808e-20
1.300100977e-18
-3.164171603e-20
1.307150142e-18
-3.396857846e-20
1.314524655e-18
-3.617356039e-20
1.322204746e-18
-3.824136194e-20
1.33016842e-18
-4.015541343e-20
1.338391107e-18
-4.189782053e-20
1.34684544e-18
-4.344919932e-20
1.35550085e-18
-4.478863939e-20
1.364323288e-18
-4.5893582e-20
1.373274799e-18
-4.673981592e-20
1.382313266e-18
-4.730136789e-20
1.391391995e-18
-4.755051664e-20
1.400459486e-18
-4.745769903e-20
1.409458991e-18
-4.699156254e-20
1.418328213e-18
-4.611895879e-20
1.42699882e-18
-4.480512294e-20
1.43539613e-18
-4.301380141e-20
1.443438697e-18
-4.070756274e-20
1.451038135e-18
-3.784804367e-20
1.458098842e-18
-3.439637145e-20
1.464517966e-18
-3.031355256e-20
1.470185186e-18
-2.556111112e-20
1.474982749e-18
-2.010173594e-20
1.478785391e-18
-1.390022416e-20
1.481460629e-18
-6.92442386e-21
1.482869116e-18
8.535755755e-22
1.482865483e-18
9.456291808e-21
1.481299266e-18
1.889947211e-20
1.478016311e-18
2.919073497e-20
1.472860176e-18
4.032792491e-20
1.465673994e-18
5.229746063e-20
1.4563024e-18
6.507239522e-20
1.444594037e-18
7.861056558e-20
1.430404276e-18
9.28525918e-20
1.413598633e-18
1.077201333e-19
1.394056405e-18
1.231141676e-19
1.371674922e-18
1.389136783e-19
1.346373858e-18
1.549744816e-19
1.318099972e-18
1.711286315e-19
1.286831711e-18
1.871841502e-19
1.25258407e-18
2.029255395e-19
1.215413079e-18
2.181148766e-19
1.175420322e-18
2.324939324e-19
1.132756777e-18
2.457870421e-19
1.087626338e-18
2.577052054e-19
1.040288264e-18
2.679510425e-19
9.910588449e-19
2.762250001e-19
9.40311477e-19
2.822323305e-19
8.884754337e-19
2.856910449e-19
8.360325487e-19
2.863401831e-19
7.835122866e-19
2.839484802e-19
7.314846023e-19
2.78322681e-19
6.805513309e-19
2.693155664e-19
6.313356867e-19
2.568329234e-19
5.844707757e-19
2.408395063e-19
5.405867619e-19
2.213631505e-19
5.00297684e-19
1.984970903e-19
4.64187632e-19
1.723996769e-19
4.327974693e-19
1.432916997e-19
4.066119926e-19
1.114508166e-19
3.860489175e-19
7.720366453e-20
3.714496189e-19
4.091548525e-20
3.630728345e-19
2.978175334e-21
3.610908853e-19
-3.620329491e-20
3.655892057e-19
-7.62251244e-20
3.765684476e-19
-1.166995188e-19
3.939498422e-19
-1.572689585e-19
4.175830549e-19
-1.976194387e-19
4.472570497e-19
-2.374911674e-19
4.82712745e-19
-2.766860478e-19
5.236572113e-19
-3.150704838e-19
5.697773819e-19
-3.525733374e-19
6.207524051e-19
-3.891783351e-19
6.76262495e-19
-4.249116658e-19
7.359938464e-19
-4.59825224e-19
7.996383405e-19
-4.939772161e-19
8.668885907e-19
-5.274113724e-19
9.374280193e-19
-5.601371985e-19
1.010917262e-18
-5.921126996e-19
1.086977275e-18
-6.232317129e-19
1.165171049e-18
-6.533168489e-19
1.244984928e-18
-6.821191326e-19
1.325811864e-18
-7.093240024e-19
1.406937782e-18
-7.345635369e-19
1.487533036e-18
-7.574331011e-19
1.566649316e-18
-7.775109451e-19
1.643222727e-18
-7.943784518e-19
1.71608205e-18
-8.076392494e-19
1.783961518e-18
-8.169351737e-19
1.845516049e-18
-8.219583496e-19
1.899337581e-18
-8.224583401e-19
1.94397056e-18
-8.182445464e-19
1.977926246e-18
-8.091841085e-19
1.999695596e-18
-7.951961746e-19
2.007761738e-18
-7.762433252e-19
2.000611775e-18
-7.523216559e-19
1.976746903e-18
-7.234503228e-19
1.934688639e-18
-6.896617578e-19
1.872980898e-18
-6.509932788e-19
1.790189272e-18
-6.074806175e-19
1.684898799e-18
-5.59153442e-19
1.555710565e-18
-5.060329446e-19
1.401238345e-18
-4.481313081e-19
1.220109583e-18
-3.854515494e-19
1.010973229e-18
-3.179910248e-19
7.7238144e-19
-2.457364033e-19
5.021202722e-19
-1.686825645e-19
1.840067973e-19
-8.678972505e-20
5.899640604e-32
1.244749297e-18
-1.674403433e-21
1.247325967e-18
-5.022836228e-21
1.250363415e-18
-8.363950138e-21
1.253895678e-18
-1.168878386e-20
1.257868302e-18
-1.498820562e-20
1.262274792e-18
-1.825266688e-20
1.267108041e-18
-2.147214745e-20
1.27235964e-18
-2.463610569e-20
1.278019962e-18
-2.773337336e-20
1.284078168e-18
-3.075207011e-20
1.290522188e-18
-3.367947671e-20
1.297338605e-18
-3.65019453e-20
1.304512513e-18
-3.920476595e-20
1.312027305e-18
-4.177206968e-20
1.319864477e-18
-4.418668539e-20
1.328003355e-18
-4.643002971e-20
1.336420838e-18
-4.848195642e-20
1.345091066e-18
-5.032066206e-20
1.353985089e-18
-5.19225554e-20
1.363070483e-18
-5.326219357e-20
1.372311017e-18
-5.431217906e-20
1.381666289e-18
-5.504310043e-20
1.39109141e-18
-5.542344395e-20
1.400536635e-18
-5.541956744e-20
1.409946985e-18
-5.499566756e-20
1.419261774e-18
-5.41138688e-20
1.428414172e-18
-5.27343167e-20
1.437330733e-18
-5.081539273e-20
1.445931037e-18
-4.8313933e-20
1.454127361e-18
-4.518555862e-20
1.461824445e-18
-4.138503616e-20
1.468919225e-18
-3.686680877e-20
1.475300627e-18
-3.158562248e-20
1.480849332e-18
-2.549736845e-20
1.48543771e-18
-1.856003368e-20
1.488929898e-18
-1.073483981e-20
1.491182195e-18
-1.987442441e-21
1.492043706e-18
7.710696802e-21
1.491357303e-18
1.838085578e-20
1.488960755e-18
3.003536064e-20
1.484688135e-18
4.267574737e-20
1.478371411e-18
5.629066076e-20
1.46984244e-18
7.085366236e-20
1.458935321e-18
8.632089997e-20
1.445489334e-18
1.026288736e-19
1.429352342e-18
1.196922258e-19
1.410384768e-18
1.374017881e-19
1.388463938e-18
1.556227825e-19
1.363488858e-18
1.741933889e-19
1.335385187e-18
1.929236655e-19
1.304110497e-18
2.115950881e-19
1.26965956e-18
2.299607228e-19
1.23206971e-18
2.47746375e-19
1.191425964e-18
2.646526905e-19
1.1478659e-18
2.803584722e-19
1.101583898e-18
2.945252055e-19
1.052834663e-18
3.068029337e-19
1.001935543e-18
3.16837359e-19
9.492674612e-19
3.242782052e-19
8.952739599e-19
3.28788492e-19
8.404582712e-19
3.300545954e-19
7.853781133e-19
3.277965937e-19
7.306383919e-19
3.217786704e-19
6.768817512e-19
3.118189724e-19
6.247773384e-19
2.977986243e-19
5.750078372e-19
2.796691927e-19
5.282552486e-19